/*--------------------------------*- C++ -*----------------------------------*\
| =========                 |                                                 |
| \\      /  F ield         | OpenFOAM: The Open Source CFD Toolbox           |
|  \\    /   O peration     | Version:  2506                                  |
|   \\  /    A nd           | Website:  www.openfoam.com                      |
|    \\/     M anipulation  |                                                 |
\*---------------------------------------------------------------------------*/
FoamFile
{
    version     2.0;
    format      ascii;
    arch        "LSB;label=32;scalar=64";
    class       volScalarField;
    location    "100";
    object      p;
}
// * * * * * * * * * * * * * * * * * * * * * * * * * * * * * * * * * * * * * //

dimensions      [0 2 -2 0 0 0 0];

internalField   nonuniform List<scalar> 
1340
(
-44.2674
-15.4227
15.7133
20.7796
-43.9587
-15.1988
15.9085
19.8259
-43.6286
-14.9267
16.1586
19.5016
-43.3716
-14.7192
16.3494
19.7819
-43.1806
-14.5839
16.4763
20.3861
-43.1161
-14.5649
16.5386
21.1419
-43.2047
-14.7143
16.4763
21.9501
-43.3764
-15.054
16.2177
22.7116
-43.5585
-15.5287
15.7155
23.3326
-43.7395
-16.0979
14.9877
23.7207
-43.9044
-16.7299
14.071
23.8284
-44.0393
-17.4221
13.0198
23.6453
-44.1346
-18.1383
11.8504
23.2098
-44.207
-18.8559
10.5626
22.5523
-44.2671
-19.5373
9.13646
21.7043
-44.3285
-20.1884
7.60333
20.6752
-44.3838
-20.8062
5.9905
19.4894
-44.4308
-21.4193
4.34609
18.1629
-44.4552
-22.0285
2.68044
16.7215
-44.4576
-22.6532
1.01595
15.1639
-44.427
-23.2806
-0.656497
13.4971
-44.3676
-23.9198
-2.31779
11.7362
-44.2683
-24.5506
-3.97246
9.92228
-44.1327
-25.1769
-5.59558
8.08086
-43.9495
-25.7779
-7.18837
6.23224
-43.7221
-26.3552
-8.72806
4.38231
-43.4403
-26.8914
-10.2167
2.54637
-43.106
-27.3882
-11.6336
0.732478
-42.7124
-27.8302
-12.9804
-1.04227
-42.2596
-28.2167
-14.2396
-2.76813
-41.7436
-28.5374
-15.412
-4.42821
-41.1654
-28.7886
-16.4848
-6.01264
-40.5226
-28.9642
-17.4578
-7.50625
-50.1975
-39.8175
-29.0602
-18.3219
-8.90146
-48.6151
-39.0506
-29.0742
-19.078
-10.1881
-47.0078
-38.2239
-29.0038
-19.7206
-11.3613
-45.3802
-37.3406
-28.849
-20.2517
-12.4154
-43.7391
-36.4047
-28.6103
-20.6693
-13.348
-42.0893
-35.4207
-28.2904
-20.9766
-14.1575
-40.4384
-34.3934
-27.8919
-21.1747
-14.844
-38.7906
-33.3288
-27.4195
-21.2684
-15.409
-37.1536
-32.2324
-26.8778
-21.2612
-15.8557
-35.5316
-31.1104
-26.2729
-21.1595
-16.1884
-33.9309
-29.969
-25.6111
-20.969
-16.412
-32.3556
-28.8148
-24.8996
-20.6972
-16.5329
-33.5839
-30.8114
-27.654
-24.1453
-20.3514
-16.5577
-31.7615
-29.3014
-26.4923
-23.3557
-19.9396
-16.4941
-30.0088
-27.83
-25.3356
-22.5378
-19.4695
-16.3496
-28.3265
-26.3995
-24.1888
-21.6985
-18.9494
-16.1323
-26.7146
-25.013
-23.0567
-20.8445
-18.3869
-15.8503
-25.1727
-23.6717
-21.9434
-19.9817
-17.7896
-15.5115
-23.6997
-22.3776
-20.8527
-19.116
-17.1645
-15.1238
-22.2946
-21.131
-19.7873
-18.2522
-16.5183
-14.6946
-20.9556
-19.9325
-18.7499
-17.3949
-15.857
-14.2309
-20.4492
-19.681
-18.7819
-17.7421
-16.5478
-15.1861
-13.7394
-19.144
-18.4683
-17.6788
-16.7655
-15.7142
-14.5105
-13.226
-17.9099
-17.3159
-16.6229
-15.8213
-14.8969
-13.8344
-12.6963
-16.7441
-16.2218
-15.6135
-14.9103
-14.0982
-13.1617
-12.1549
-15.6428
-15.1836
-14.6498
-14.0331
-13.32
-12.4953
-11.6065
-14.6027
-14.1988
-13.7303
-13.1895
-12.5636
-11.8384
-11.0547
-13.6198
-13.265
-12.8538
-12.3796
-11.8306
-11.1932
-10.5034
-12.9573
-12.6908
-12.3793
-12.0188
-11.6032
-11.1218
-10.5621
-9.95555
-12.0462
-11.8122
-11.5391
-11.2234
-10.8594
-10.4376
-9.94642
-9.41362
-11.1853
-10.9804
-10.7415
-10.4654
-10.1472
-9.77795
-9.3474
-8.8799
-10.3713
-10.1922
-9.98381
-9.74319
-9.46563
-9.14301
-8.76616
-8.35655
-9.60013
-9.44414
-9.26299
-9.05406
-8.8129
-8.53188
-8.20286
-7.84454
-8.87012
-8.73477
-8.57806
-8.39741
-8.18866
-7.94487
-7.65847
-7.34598
-8.28366
-8.1625
-8.02277
-7.86183
-7.67585
-7.4582
-7.20224
-6.92235
-7.89306
-7.79631
-7.68487
-7.55701
-7.40987
-7.23986
-7.04114
-6.80716
-6.55103
-7.39086
-7.30155
-7.20024
-7.08424
-6.95068
-6.79667
-6.61681
-6.40487
-6.17362
-6.87964
-6.79744
-6.70552
-6.6005
-6.47989
-6.34139
-6.17999
-5.98933
-5.77973
-6.36992
-6.29646
-6.21505
-6.12185
-6.01467
-5.89173
-5.74867
-5.58016
-5.39861
-5.83522
-5.76795
-5.69468
-5.61128
-5.51602
-5.40757
-5.28133
-5.13018
-4.9585
-5.34762
-5.29296
-5.23312
-5.16335
-5.08209
-4.98888
-4.88142
-4.75767
-4.63486
-4.73394
-4.6811
-4.62579
-4.56332
-4.4922
-4.4116
-4.31589
-4.19376
-4.03516
-4.39585
-4.3662
-4.33236
-4.28883
-4.23478
-4.17189
-4.10363
-4.03789
-4.01064
-3.44956
-3.40888
-3.36997
-3.32753
-3.27956
-3.22371
-3.14834
-3.02912
-2.82266
-3.73448
-3.75052
-3.75258
-3.75128
-3.74188
-3.72232
-3.69788
-3.68628
-3.7199
-3.87881
-1.62069
-1.57544
-1.53662
-1.5083
-1.48143
-1.452
-1.41562
-1.34509
-1.19077
-0.839914
-4.10826
-4.04395
-4.06462
-4.14887
-4.2128
-4.24725
-4.28126
-4.36138
-4.55473
-4.98418
78.1053
77.4882
77.1922
76.903
76.6259
76.3246
75.9509
75.4105
74.5843
73.3077
71.4453
68.8979
65.6711
61.8478
57.5828
53.0404
48.3832
43.7366
39.218
34.9259
30.9276
27.2234
23.7867
20.5787
17.5736
14.745
12.0822
9.57071
7.20736
4.98192
2.89294
0.933264
-0.897567
-2.6043
-4.18595
-5.64511
-6.98037
-8.19274
-9.2815
-10.2476
-11.0918
-11.8162
-12.4237
-12.9175
-13.3025
-13.5837
-13.7671
-13.8588
-13.866
-13.7959
-13.6558
-13.4533
-13.1958
-12.8903
-12.5439
-12.1629
-11.7535
-11.3212
-10.8709
-10.4075
-9.93499
-9.45725
-8.97745
-8.49861
-8.02359
-7.55395
-7.09278
-6.69715
-6.34574
-5.98996
-5.61173
-5.25662
-4.81714
-4.54386
-3.89872
-3.99808
-2.65307
-3.99155
-0.610155
-5.28524
25.1691
24.9366
24.6371
24.4249
24.3612
24.3903
24.4797
24.6156
24.7988
25.0305
25.3068
25.5951
25.8493
26.0124
26.0363
25.8784
25.516
24.932
24.1153
23.0567
21.7832
20.3493
18.7955
17.1377
15.3992
13.6058
11.7863
9.96224
8.15512
6.37947
4.65097
2.97952
1.37584
-0.154468
-1.60389
-2.96904
-4.24458
-5.428
-6.51563
-7.5058
-8.39663
-9.18774
-9.87913
-10.4716
-10.9669
-11.3677
-11.6771
-11.8992
-12.0384
-12.1002
-12.0901
-12.0142
-11.8787
-11.6898
-11.4537
-11.1764
-10.8638
-10.5212
-10.1538
-9.76618
-9.36295
-8.94795
-8.52482
-8.09685
-7.66736
-7.23827
-6.81302
-6.44578
-6.118
-5.78593
-5.42845
-5.09609
-4.67345
-4.42335
-3.79383
-3.90831
-2.60099
-3.90301
-0.658354
17.4395
17.8002
18.1527
18.4864
18.8198
19.154
19.4774
19.78
20.0412
20.2444
20.3747
20.4303
20.4023
20.2709
20.0073
19.5881
19.0028
18.2616
17.397
16.4491
15.447
14.4085
13.3603
12.3143
11.26
10.1824
9.07694
7.94151
6.78044
5.59714
4.40073
3.19833
2.00078
0.815986
-0.344996
-1.47412
-2.56141
-3.59955
-4.58058
-5.49877
-6.34852
-7.12597
-7.8277
-8.45148
-8.99603
-9.461
-9.8468
-10.1548
-10.387
-10.5466
-10.637
-10.6624
-10.6275
-10.5372
-10.3967
-10.2112
-9.98577
-9.72537
-9.43486
-9.11889
-8.78177
-8.42757
-8.05997
-7.68247
-7.29848
-6.91032
-6.5216
-6.18348
-5.87988
-5.57145
-5.23566
-4.92494
-4.5234
-4.28919
-3.69074
-3.79553
-2.567
-3.77562
14.0156
14.0868
14.2029
14.3581
14.5568
14.7879
15.0372
15.2914
15.54
15.7695
15.9641
16.1087
16.1967
16.2294
16.2029
16.103
15.908
15.5963
15.1523
14.5782
13.8955
13.1284
12.2932
11.4104
10.5005
9.5708
8.62108
7.6543
6.67404
5.68484
4.68955
3.69205
2.69514
1.70281
0.719573
-0.24905
-1.19696
-2.1178
-3.00499
-3.85232
-4.65376
-5.40403
-6.0983
-6.73256
-7.30358
-7.80898
-8.24715
-8.61741
-8.91987
-9.15559
-9.32637
-9.43473
-9.48382
-9.47732
-9.41922
-9.31383
-9.1655
-8.97874
-8.75792
-8.5074
-8.23144
-7.93392
-7.6186
-7.28892
-6.94841
-6.59956
-6.24609
-5.93591
-5.65492
-5.3684
-5.05287
-4.76225
-4.38033
-4.16143
-3.58905
-3.69265
-2.5196
11.6724
11.6584
11.6696
11.7164
11.8053
11.9303
12.0783
12.2372
12.3979
12.5541
12.6965
12.8152
12.896
12.9297
12.9133
12.8518
12.7433
12.5822
12.3579
12.0623
11.6914
11.2519
10.7508
10.1919
9.57883
8.92171
8.22326
7.48453
6.70787
5.90065
5.06906
4.22071
3.36081
2.49565
1.63029
0.770644
-0.0782077
-0.910628
-1.72151
-2.50544
-3.25737
-3.97227
-4.6455
-5.27266
-5.84997
-6.37401
-6.8421
-7.25223
-7.60313
-7.89439
-8.12638
-8.30015
-8.41746
-8.48068
-8.4927
-8.45679
-8.37657
-8.25578
-8.09837
-7.90832
-7.68947
-7.44558
-7.1802
-6.89682
-6.59877
-6.28874
-5.97031
-5.6878
-5.42941
-5.16487
-4.86982
-4.59938
-4.23665
-4.03413
-3.48388
-3.5941
10.0735
10.0679
10.067
10.0849
10.1286
10.1971
10.2837
10.3824
10.4842
10.5857
10.6807
10.7663
10.8331
10.8729
10.8726
10.8278
10.7382
10.6067
10.4288
10.1996
9.9123
9.5658
9.16432
8.72001
8.24198
7.73607
7.20547
6.65035
6.06663
5.4541
4.81434
4.15104
3.46698
2.76635
2.05302
1.33217
0.608546
-0.112235
-0.825017
-1.52422
-2.20481
-2.86165
-3.49011
-4.08554
-4.64384
-5.16102
-5.6337
-6.05902
-6.43475
-6.75933
-7.03192
-7.25231
-7.42094
-7.53892
-7.60794
-7.63024
-7.60847
-7.54565
-7.44506
-7.31011
-7.14421
-6.95073
-6.73304
-6.49435
-6.23795
-5.96643
-5.68311
-5.42875
-5.19362
-4.95193
-4.67843
-4.42881
-4.08624
-3.90055
8.97774
8.97351
8.96458
8.95897
8.96417
8.98369
9.01356
9.05089
9.09167
9.1347
9.17611
9.21485
9.24582
9.26558
9.26506
9.23675
9.1719
9.07097
8.93325
8.75906
8.54308
8.28169
7.96981
7.60947
7.20757
6.77703
6.32505
5.85633
5.37109
4.86886
4.34913
3.81379
3.26325
2.69879
2.12097
1.53202
0.934216
0.331348
-0.272903
-0.873915
-1.46755
-2.04913
-2.61439
-3.15863
-3.67769
-4.16725
-4.62354
-5.04313
-5.42315
-5.7612
-6.05549
-6.30475
-6.50832
-6.66614
-6.77879
-6.84745
-6.87383
-6.86003
-6.80869
-6.72247
-6.60424
-6.45696
-6.28355
-6.08713
-5.8705
-5.63633
-5.38764
-5.16133
-4.94976
-4.73119
-4.47982
-4.25141
8.01677
8.00802
7.99638
7.98335
7.96972
7.96128
7.95946
7.96088
7.96233
7.96541
7.96887
7.97202
7.97111
7.96499
7.94931
7.92079
7.87109
7.79486
7.6878
7.5516
7.38471
7.18643
6.95258
6.68144
6.36993
6.0218
5.64666
5.25364
4.84555
4.42433
3.98928
3.54126
3.08023
2.60705
2.12167
1.62561
1.12031
0.608611
0.0929156
-0.423538
-0.938115
-1.44737
-1.94814
-2.43642
-2.90856
-3.36049
-3.78862
-4.18939
-4.55972
-4.89677
-5.19818
-5.46192
-5.68654
-5.87109
-6.01517
-6.11906
-6.18351
-6.20986
-6.19988
-6.15551
-6.07918
-5.97306
-5.84001
-5.68248
-5.50312
-5.30442
-5.08896
-4.89013
-4.70173
7.0662
7.05368
7.03856
7.02317
7.00506
6.98574
6.96868
6.95436
6.9397
6.92434
6.90847
6.89142
6.87065
6.84578
6.81569
6.77997
6.73472
6.67513
6.59415
6.48921
6.35915
6.20496
6.02457
5.81746
5.58127
5.31367
5.01451
4.69412
4.3603
4.0161
3.66059
3.29259
2.91009
2.51329
2.10238
1.67946
1.24637
0.806138
0.36074
-0.0872563
-0.536174
-0.983438
-1.42677
-1.8629
-2.28887
-2.70115
-3.09666
-3.47208
-3.82454
-4.15114
-4.44933
-4.71676
-4.95149
-5.15194
-5.31707
-5.44645
-5.53982
-5.59806
-5.62181
-5.61284
-5.57234
-5.50259
-5.40545
-5.2834
-5.13835
-4.97279
6.30794
6.28649
6.26413
6.24294
6.21886
6.19133
6.16253
6.13505
6.10931
6.08356
6.05432
6.02029
5.98064
5.93721
5.89087
5.84288
5.79125
5.73369
5.66468
5.57967
5.47472
5.35034
5.20596
5.04174
4.85647
4.65012
4.41845
4.16183
3.88859
3.60655
3.31542
3.01328
2.69674
2.36521
2.01909
1.66102
1.29295
0.917557
0.536031
0.150125
-0.239253
-0.630066
-1.02053
-1.40774
-1.78922
-2.16181
-2.52291
-2.86956
-3.19919
-3.50907
-3.79679
-4.05989
-4.2962
-4.50388
-4.68151
-4.82768
-4.94224
-5.02447
-5.07545
-5.09519
-5.08533
-5.04672
5.50973
5.485
5.46073
5.43898
5.41535
5.38865
5.36071
5.33338
5.30745
5.2818
5.25166
5.21296
5.16608
5.11516
5.06314
5.01127
4.95808
4.90199
4.84002
4.76919
4.6851
4.58576
4.47048
4.34022
4.19427
4.03348
3.85677
3.66051
3.44296
3.21159
2.97062
2.71918
2.45432
2.17553
1.8836
1.58153
1.27117
0.954317
0.631085
0.302186
-0.0322105
-0.370509
-0.71124
-1.05177
-1.38996
-1.723
-2.04871
-2.36448
-2.66815
-2.9572
-3.22943
-3.4824
-3.714
-3.92215
-4.10497
-4.26131
-4.38954
4.87322
4.84602
4.82029
4.79763
4.77337
4.74632
4.7182
4.69022
4.66174
4.63128
4.59586
4.55271
4.50194
4.44811
4.39442
4.3414
4.28681
4.22938
4.16773
4.10132
4.02775
3.94446
3.84885
3.74118
3.62141
3.49034
3.34843
3.1956
3.02656
2.83941
2.63863
2.42769
2.20533
1.97167
1.72751
1.47527
1.21612
0.95087
0.678668
0.399545
0.113396
-0.178269
-0.474069
-0.771559
-1.06894
-1.36388
-1.65465
-1.93913
-2.21555
-2.48161
4.26292
4.23606
4.21023
4.18775
4.16428
4.13813
4.11024
4.08096
4.04926
4.01391
3.97434
3.93121
3.88604
3.84073
3.79569
3.74917
3.69848
3.64278
3.58264
3.51944
3.45313
3.3823
3.30367
3.21517
3.11592
3.00657
2.88735
2.75996
2.62353
2.47382
2.30859
2.13268
1.94852
1.75702
1.55839
1.35365
1.14221
0.923994
)
;

boundaryField
{
    inlet
    {
        type            freestreamPressure;
        freestreamValue uniform 0;
        value           nonuniform List<scalar> 
11
(
-1.91438
-1.76159
-1.77127
-1.80865
-1.83716
-1.85281
-1.86826
-1.90388
-1.98907
-2.09012
-2.30945
)
;
    }
    outlet
    {
        type            freestreamPressure;
        freestreamValue nonuniform List<scalar> 0();
        value           nonuniform List<scalar> 0();
    }
    walls
    {
        type            zeroGradient;
    }
    frontAndBack
    {
        type            empty;
    }
    procBoundary6to2
    {
        type            processor;
        value           nonuniform List<scalar> 
13
(
79.0121
25.4348
17.1161
13.9781
11.683
10.0654
8.9663
8.01189
7.0686
6.31925
5.52652
4.89328
4.28477
)
;
    }
    procBoundary6to3
    {
        type            processor;
        value           uniform 3.82578;
    }
    procBoundary6to5
    {
        type            processor;
        value           nonuniform List<scalar> 
86
(
-79.2014
-78.7892
-78.3315
-77.8486
-77.3212
-76.8462
-76.4376
-76.0249
-75.5701
-75.0505
-74.4737
-73.8617
-73.2345
-72.5878
-71.9119
-71.1951
-70.4345
-69.6283
-68.7764
-67.8778
-66.9313
-65.9365
-64.8919
-63.7981
-62.6539
-61.4589
-60.2137
-58.9184
-57.5741
-56.1826
-54.7464
-53.2672
-51.7502
-51.7502
-59.7514
-57.382
-55.0242
-52.6863
-50.3748
-48.0979
-45.8611
-43.6715
-41.5334
-39.4523
-37.4315
-35.4744
-35.4744
-35.9594
-33.8668
-31.8716
-29.9728
-28.1676
-26.454
-24.8285
-23.288
-21.8294
-21.8294
-21.096
-19.7138
-18.4124
-17.187
-16.0334
-14.9467
-13.9229
-13.9229
-13.1814
-12.2432
-11.3582
-10.5227
-9.73233
-8.98532
-8.38756
-8.38756
-7.97553
-7.4683
-6.95214
-6.43541
-5.89641
-5.3971
-4.78428
-4.42088
-3.49301
-3.49301
-3.6761
-1.6459
-3.85048
)
;
    }
    procBoundary6to7
    {
        type            processor;
        value           nonuniform List<scalar> 
91
(
-5.17056
-5.17056
-0.73783
-0.73783
-3.67805
-3.67805
-2.46019
-3.37283
-2.46019
-3.49019
-3.92981
-3.37283
-3.76113
-4.50608
-4.27701
-3.92981
-4.0699
-4.78895
-4.61641
-4.50608
-4.45055
-4.98156
-4.89102
-4.77728
-4.78895
-4.64236
-4.49
-4.56131
-4.60458
-4.61955
-4.98156
-4.60776
-2.73546
-2.9747
-3.19707
-3.40068
-3.58361
-3.74413
-4.49
-3.8811
0.697025
0.461747
0.218017
-0.0323121
-0.287798
-0.546064
-0.805776
-1.06496
-1.32256
-1.57673
-1.82629
-2.73546
-2.06899
3.79305
3.75986
3.73019
3.70263
3.67284
3.63941
3.60263
3.56304
3.52116
3.4784
3.43656
3.39772
3.36157
3.32494
3.2828
3.23262
3.17459
3.11186
3.04709
2.98215
2.91622
2.84735
2.77185
2.68753
2.59315
2.48931
2.3767
2.25792
2.13273
1.9974
1.85075
1.69802
1.54196
1.38312
1.21995
1.0509
0.697025
0.873545
)
;
    }
}


// ************************************************************************* //
