/*--------------------------------*- C++ -*----------------------------------*\
| =========                 |                                                 |
| \\      /  F ield         | OpenFOAM: The Open Source CFD Toolbox           |
|  \\    /   O peration     | Version:  2506                                  |
|   \\  /    A nd           | Website:  www.openfoam.com                      |
|    \\/     M anipulation  |                                                 |
\*---------------------------------------------------------------------------*/
FoamFile
{
    version     2.0;
    format      ascii;
    arch        "LSB;label=32;scalar=64";
    class       surfaceScalarField;
    location    "100";
    object      phi;
}
// * * * * * * * * * * * * * * * * * * * * * * * * * * * * * * * * * * * * * //

dimensions      [0 3 -1 0 0 0 0];

oriented        oriented;

internalField   nonuniform List<scalar> 
2577
(
0.0820113
0.0223155
0.0553211
0.0268922
0.029029
0.0258083
0.0580514
-0.0288906
0.118616
0.0494859
0.0870359
0.0584934
0.0528322
0.0598178
0.0601729
-0.0362238
0.151043
0.0832839
0.113121
0.0965433
0.0732912
0.0994449
0.0613271
-0.0241837
0.188371
0.125289
0.142439
0.142471
0.0953367
0.146442
0.065781
0.00536294
0.231222
0.173307
0.176714
0.197104
0.12057
0.2024
0.0744709
0.0515383
0.275499
0.217396
0.21585
0.256741
0.149963
0.268207
0.0880229
0.113464
0.31352
0.247387
0.257211
0.313189
0.183853
0.341375
0.10697
0.190429
0.340682
0.263197
0.296313
0.357547
0.221234
0.416384
0.131643
0.280009
0.359395
0.272982
0.329695
0.387404
0.260047
0.485821
0.161934
0.378214
0.375362
0.283986
0.356864
0.405893
0.297978
0.544641
0.197213
0.478973
0.392673
0.299154
0.379664
0.419071
0.333471
0.590606
0.236349
0.576196
0.412752
0.317862
0.400612
0.431206
0.365978
0.625177
0.277983
0.664192
0.435379
0.338757
0.421617
0.445144
0.395807
0.650745
0.320647
0.739464
0.46004
0.360513
0.443688
0.461491
0.423661
0.670713
0.362898
0.800237
0.486325
0.38268
0.467407
0.480581
0.450336
0.687536
0.40342
0.847266
0.514134
0.404888
0.492972
0.501741
0.476669
0.703782
0.441194
0.882759
0.543405
0.427315
0.52052
0.524794
0.503464
0.720584
0.475844
0.910493
0.574239
0.449788
0.550096
0.548933
0.531422
0.739204
0.507762
0.93418
0.606665
0.47256
0.581713
0.574037
0.561227
0.75944
0.538387
0.957126
0.640789
0.495544
0.615349
0.599471
0.593253
0.781486
0.56976
0.980652
0.676705
0.518924
0.651
0.625323
0.627668
0.804582
0.603439
1.00498
0.714513
0.542603
0.688649
0.65118
0.664478
0.828708
0.639862
1.02964
0.754374
0.566661
0.728393
0.677284
0.703645
0.853239
0.67903
1.05435
0.796325
0.591078
0.770253
0.703345
0.745167
0.878286
0.720766
1.07879
0.840709
0.615656
0.814402
0.729744
0.789021
0.903488
0.765052
1.10284
0.887314
0.64052
0.860876
0.756169
0.835345
0.928988
0.811794
1.12643
0.936412
0.665395
0.910019
0.782619
0.884064
0.954796
0.861051
1.14952
0.988243
0.690289
0.961547
0.809302
0.935534
0.980785
0.912894
1.17219
1.04264
0.715314
1.01625
0.835717
0.989792
1.00713
0.967263
1.19478
1.1
0.740236
1.07342
0.862283
1.04697
1.03356
1.02472
1.21706
1.1604
0.764885
1.13397
0.888704
1.10718
1.06028
1.08504
1.23925
1.22368
0.789599
1.1976
0.914779
1.17079
1.08708
1.14847
1.26158
1.29063
0.813789
1.26439
0.941012
1.23749
1.11393
1.2155
1.2836
1.38484
0.736067
1.36068
0.837946
1.33486
0.966824
1.30791
1.14088
1.28587
1.30565
1.4584
0.757728
1.43446
0.861886
1.40897
0.992305
1.38188
1.16793
1.35993
1.32763
1.53563
0.779271
1.51207
0.885444
1.48667
1.0177
1.45976
1.19484
1.43791
1.34949
1.6169
0.800413
1.59375
0.908588
1.56874
1.0427
1.54177
1.22178
1.51991
1.37136
1.70244
0.821127
1.67947
0.931559
1.6546
1.06757
1.62775
1.24863
1.60618
1.39293
1.79224
0.841561
1.76972
0.954081
1.74528
1.092
1.71843
1.27547
1.69679
1.41458
1.88681
0.8617
1.86461
0.976282
1.84034
1.11627
1.81366
1.30215
1.79211
1.43613
1.98612
0.881708
1.96438
0.998018
1.94043
1.14022
1.91364
1.32893
1.89233
1.45744
2.09096
0.901173
2.0694
1.01958
2.04561
1.16401
2.01903
1.35551
1.99787
1.4786
2.20104
0.920537
2.17963
1.04098
2.1563
1.18734
2.12949
1.38231
2.10863
1.49946
2.31699
0.939689
2.29589
1.06209
2.27268
1.21055
2.24607
1.40892
2.22513
1.52041
2.43894
0.958671
2.41822
1.08281
2.39489
1.23387
2.36833
1.43549
2.34773
1.541
2.58652
0.871328
2.56755
0.977636
2.54663
1.10373
2.52381
1.25669
2.49702
1.46228
2.47664
1.56139
2.72177
0.888958
2.70291
0.996499
2.68218
1.12446
2.65917
1.2797
2.63225
1.4892
2.61208
1.58155
2.86447
0.906637
2.8454
1.01557
2.8248
1.14506
2.80184
1.30265
2.77477
1.51627
2.75469
1.60164
3.01459
0.924545
2.99567
1.03449
2.97492
1.16582
2.9518
1.32577
2.92471
1.54336
2.90456
1.62179
3.17319
0.942726
3.15382
1.05386
3.13298
1.18665
3.10998
1.34877
3.08229
1.57106
3.06245
1.64162
3.34011
0.961218
3.32066
1.07331
3.29968
1.20763
3.2762
1.37225
3.24837
1.59888
3.22846
1.66154
3.51609
0.980094
3.4964
1.093
3.47509
1.22894
3.45149
1.39585
3.42297
1.6274
3.40321
1.68129
3.70182
0.999371
3.68168
1.11314
3.65988
1.25074
3.63594
1.4198
3.60711
1.65623
3.5872
1.70121
3.89766
1.01923
3.87685
1.13394
3.85491
1.27268
3.83036
1.44435
3.80085
1.68573
3.78078
1.72128
4.1243
0.938526
4.10393
1.03961
4.08275
1.15512
4.06019
1.29524
4.0352
1.46934
4.00488
1.71606
3.98485
1.74131
4.34276
0.959228
4.32158
1.06079
4.2999
1.17679
4.27658
1.31857
4.25097
1.49495
4.2199
1.74713
4.1995
1.76171
4.57298
0.980752
4.55106
1.0827
4.52863
1.19922
4.5047
1.3425
4.47848
1.52118
4.44646
1.77915
4.42576
1.78241
4.81585
1.00313
4.79316
1.10539
4.76991
1.22247
4.74524
1.36716
4.71814
1.54829
4.68512
1.81216
4.6641
1.80343
5.07199
1.02642
5.04847
1.12891
5.02422
1.24672
4.99886
1.39252
4.97075
1.57639
4.93668
1.84623
4.91516
1.82496
5.34214
1.05094
5.31751
1.15355
5.29245
1.27177
5.266
1.41897
5.23704
1.60536
5.20174
1.88152
5.17966
1.84704
5.6272
1.07631
5.60152
1.17923
5.5755
1.2978
5.54798
1.44649
5.5179
1.63543
5.48105
1.91838
5.45852
1.86957
5.95432
1.00763
5.92764
1.10299
5.90087
1.20601
5.87356
1.3251
5.84509
1.47497
5.81368
1.66684
5.77557
1.95649
5.75227
1.89287
6.27264
1.0353
6.24473
1.1309
6.21667
1.23407
6.18831
1.35346
6.15842
1.50486
6.1259
1.69935
6.08599
1.9964
6.06186
1.91699
6.6083
1.06447
6.57898
1.16022
6.54975
1.26331
6.51999
1.38321
6.48877
1.53608
6.45481
1.73331
6.41328
2.03793
6.3884
1.94187
6.96282
1.09491
6.93218
1.19085
6.90078
1.29471
6.86945
1.41455
6.83712
1.56842
6.80139
1.76904
6.7583
2.08102
6.73239
1.96779
7.33552
1.12824
7.30337
1.223
7.27223
1.32584
7.23917
1.44761
7.20486
1.60273
7.16733
1.80658
7.12209
2.12625
7.09483
1.99504
7.73076
1.16114
7.69654
1.25722
7.66212
1.36027
7.62844
1.48129
7.59225
1.63893
7.55413
1.84469
7.50566
2.17473
7.47802
2.02269
5.68669
1.153
5.69805
1.24585
5.71381
1.3445
5.73495
1.46015
5.76086
1.61302
5.79087
1.81468
5.8296
2.136
5.86024
1.99205
6.24188
1.06053
6.24991
1.14498
6.26257
1.23319
6.28095
1.32612
6.30342
1.43768
6.33065
1.5858
6.36575
1.77958
6.4067
2.09506
6.44024
1.9585
6.8608
1.05755
6.86861
1.13717
6.88369
1.21811
6.90328
1.30653
6.92826
1.41269
6.95929
1.55477
6.99547
1.7434
7.04239
2.04814
7.07869
1.9222
7.54029
1.05377
7.55028
1.12718
7.56505
1.20334
7.58699
1.2846
7.61437
1.38531
7.64769
1.52146
7.68999
1.7011
7.73875
1.99938
7.78162
1.87933
8.28682
1.05065
8.29754
1.11646
8.31575
1.18513
8.33856
1.26179
8.36813
1.35575
8.40624
1.48334
8.45188
1.65546
8.50755
1.94371
8.55172
1.83516
9.1089
1.04711
9.12017
1.10519
9.13899
1.16631
9.1651
1.23568
9.19802
1.32282
9.23942
1.44194
9.28817
1.60672
9.35029
1.88159
9.39919
1.78626
10.0112
1.04197
10.0242
1.09225
10.0448
1.14569
10.0741
1.20642
10.1115
1.28543
10.156
1.39744
10.2103
1.55238
10.2778
1.81406
10.3321
1.73201
11.0027
1.03693
11.017
1.07795
11.0391
1.1236
11.07
1.17553
11.1103
1.2451
11.1603
1.34748
11.221
1.49162
11.2938
1.74125
11.3542
1.67164
12.0973
1.03187
12.1118
1.06353
12.1379
1.09743
12.1729
1.14054
12.2174
1.20061
12.2715
1.29339
12.3378
1.42529
12.4209
1.65821
12.4878
1.60468
13.2888
1.02521
13.3064
1.04594
13.3334
1.07042
13.372
1.10194
13.4202
1.15244
13.4803
1.23329
13.5517
1.3539
13.6391
1.5708
13.7103
1.5334
14.6169
0.639312
14.6238
1.01827
14.643
1.0268
14.6754
1.03798
14.7169
1.06049
14.7705
1.09879
14.8378
1.16602
14.9214
1.27024
15.0242
1.46802
15.1089
1.44871
16.0348
0.58972
16.041
1.01198
16.0615
1.00638
16.093
1.00648
16.1389
1.01453
16.1984
1.03933
16.2692
1.09515
16.3537
1.1858
16.4542
1.36751
16.5362
1.36674
17.7021
17.7144
17.7414
17.7833
17.8384
17.9072
17.9929
18.0987
18.2349
18.345
0.179762
0.152937
0.106419
0.133403
0.0493368
0.118432
0.00693386
0.108101
-0.021119
0.102561
-0.0354048
0.102244
-0.0361875
0.107794
-0.0244921
0.119895
-0.00154776
0.139034
0.0303297
0.165291
0.0683901
0.198334
0.108743
0.237593
0.14743
0.282009
0.180298
0.329998
0.204322
0.379448
0.217653
0.427838
0.220903
0.472651
0.216642
0.512007
0.209156
0.54593
0.202291
0.576617
0.198172
0.607618
0.196666
0.641367
0.19721
0.678546
0.199146
0.718831
0.202301
0.761956
0.206363
0.807736
0.21127
0.856197
0.216811
0.907355
0.223003
0.961115
0.229702
1.01803
0.236924
1.07785
0.244541
1.14085
0.252554
1.20752
0.260861
1.27756
0.269445
1.35136
0.278232
1.42913
0.287192
1.51096
0.296264
1.59711
0.305406
1.68765
0.314566
1.78295
0.323685
1.88321
0.332751
1.98881
0.341682
2.0997
0.350446
2.21637
0.359001
2.33917
0.367309
2.46833
0.375337
2.60405
0.383056
2.74697
0.390441
2.89718
0.397472
3.05542
0.40412
3.22181
0.410418
3.39692
0.416315
3.5813
0.421826
3.77527
0.426952
3.97972
0.431699
4.19476
0.436075
4.42139
0.440091
4.66009
0.443758
4.91149
0.447075
5.17634
0.450106
5.45549
0.452818
5.74956
0.455245
6.05944
0.457405
6.38624
0.459315
6.73048
0.460991
7.09316
0.462451
7.47656
0.463401
5.85929
0.464288
6.43935
0.465079
7.0779
0.465832
7.78087
0.466437
8.55111
0.467015
9.39862
0.467429
10.3317
0.467755
11.3539
0.468058
12.4875
0.467772
13.7106
0.468586
15.1081
0.466315
16.5384
0.305505
0.189641
0.256663
0.18225
0.20288
0.17225
0.149384
0.161598
0.100282
0.151691
0.0587259
0.143795
0.0273691
0.139174
0.00810749
0.139148
0.00220571
0.144955
0.00986062
0.157625
0.0303392
0.17787
0.0619074
0.206012
0.102017
0.241913
0.147028
0.284972
0.192516
0.333973
0.233396
0.386942
0.264923
0.441137
0.283751
0.493161
0.289947
0.539748
0.287385
0.579165
0.281975
0.613046
0.277811
0.645518
0.275775
0.680603
0.275119
0.719478
0.275292
0.761807
0.276039
0.806982
0.277398
0.854865
0.279318
0.90543
0.281849
0.958611
0.284977
1.0149
0.288755
1.0741
0.293111
1.13649
0.298061
1.20259
0.303516
1.27211
0.309462
1.34543
0.315828
1.42276
0.322549
1.50425
0.329584
1.59008
0.336878
1.68036
0.34438
1.77545
0.352014
1.87558
0.359724
1.9811
0.367481
2.09195
0.375222
2.20863
0.382896
2.3315
0.390458
2.46077
0.397865
2.59665
0.405077
2.73976
0.41206
2.89019
0.418785
3.0487
0.425238
3.21535
0.431358
3.3908
0.437171
3.57549
0.44265
3.76979
0.44779
3.97458
0.452587
4.18996
0.457043
4.41693
0.461159
4.65597
0.464944
4.9077
0.46842
5.17287
0.471569
5.45234
0.474402
5.74673
0.476964
6.05687
0.479255
6.38395
0.481291
6.72845
0.483087
7.09136
0.484658
7.47499
0.485686
5.85826
0.486651
6.43839
0.48755
7.077
0.488345
7.78007
0.489048
8.55041
0.48966
9.398
0.490128
10.3312
0.490525
11.3535
0.490863
12.4872
0.49062
13.7109
0.491474
15.1073
0.382072
0.207643
0.355033
0.209329
0.319892
0.207411
0.278995
0.202525
0.235093
0.195603
0.191258
0.187653
0.150535
0.179903
0.115938
0.173764
0.0901529
0.170744
0.0753117
0.172481
0.0726608
0.180526
0.0825316
0.196152
0.104277
0.220174
0.136336
0.252918
0.176162
0.294157
0.220034
0.343073
0.263148
0.398037
0.299892
0.456419
0.325155
0.514506
0.336507
0.567817
0.336484
0.613101
0.33138
0.650628
0.327044
0.684979
0.325202
0.721327
0.325181
0.761874
0.325881
0.806289
0.327017
0.853777
0.3284
0.904052
0.330174
0.956882
0.332255
1.01282
0.334788
1.0716
0.337722
1.13356
0.34114
1.19919
0.344969
1.26828
0.34925
1.34116
0.353922
1.41809
0.359007
1.49917
0.364445
1.58464
0.370214
1.6746
0.376262
1.7694
0.382551
1.86929
0.389043
1.97461
0.395666
2.08533
0.402372
2.20192
0.409135
2.32474
0.415909
2.454
0.422623
2.58994
0.429245
2.73314
0.435735
2.8837
0.442043
3.04239
0.448165
3.20923
0.454057
3.38491
0.459695
3.56985
0.465075
3.76441
0.470153
3.9695
0.474932
4.18518
0.479405
4.41246
0.483554
4.65182
0.487409
4.90385
0.490958
5.16932
0.494208
5.44909
0.49718
5.74376
0.49984
6.05422
0.502245
6.38155
0.504394
6.7263
0.506315
7.08944
0.507975
7.47333
0.509078
5.85716
0.510117
6.43735
0.511075
7.07605
0.511956
7.77919
0.512717
8.54965
0.513395
9.39733
0.513963
10.3306
0.514337
11.3531
0.514816
12.4867
0.514538
13.7111
0.457784
0.214922
0.444417
0.22257
0.424237
0.227533
0.397185
0.229504
0.364213
0.22855
0.326744
0.225076
0.286867
0.21977
0.246976
0.213624
0.209893
0.207822
0.178471
0.203881
0.155487
0.203508
0.143102
0.20852
0.142687
0.220586
0.154559
0.241034
0.178057
0.270654
0.211513
0.309605
0.252099
0.357442
0.295558
0.412949
0.336186
0.473864
0.367471
0.536517
0.384597
0.595953
0.387856
0.647353
0.383338
0.68947
0.378158
0.726492
0.375427
0.764574
0.374755
0.806946
0.374936
0.853564
0.375497
0.903477
0.376317
0.956033
0.377484
1.01164
0.37898
1.07008
0.38089
1.13164
0.383193
1.19687
0.385901
1.26556
0.388997
1.33806
0.392475
1.41461
0.39632
1.49533
0.400516
1.58044
0.405044
1.67007
0.409878
1.76457
0.414989
1.86418
0.420344
1.96926
0.425906
2.07976
0.431636
2.19619
0.437492
2.31888
0.443432
2.44806
0.44941
2.58396
0.455386
2.72717
0.461318
2.87777
0.46718
3.03653
0.472893
3.20352
0.478467
3.37933
0.483872
3.56444
0.489037
3.75924
0.493986
3.96455
0.498685
4.18048
0.503121
4.40802
0.507299
4.64764
0.511167
4.89998
0.514769
5.16572
0.518088
5.44577
0.521129
5.74072
0.523913
6.05143
0.5264
6.37906
0.52865
6.72405
0.530656
7.08744
0.532433
7.47155
0.533608
5.85598
0.53472
6.43624
0.535754
7.07501
0.536706
7.77824
0.537542
8.54881
0.538293
9.39658
0.538908
10.33
0.539333
11.3527
0.539902
12.4862
0.519495
0.216281
0.514981
0.227168
0.505637
0.236953
0.490465
0.244721
0.469169
0.249886
0.442002
0.25227
0.409788
0.252007
0.373876
0.249555
0.336131
0.245581
0.298896
0.24113
0.264824
0.237588
0.236801
0.236555
0.217435
0.239956
0.20879
0.249688
0.21194
0.267503
0.226981
0.294573
0.252976
0.331443
0.287905
0.378025
0.328352
0.433411
0.369169
0.495703
0.403635
0.561477
0.425396
0.625595
0.432505
0.682345
0.429921
0.729079
0.425213
0.769264
0.422576
0.809586
0.421929
0.85419
0.422122
0.903287
0.422481
0.955655
0.42298
1.01114
0.423672
1.06937
0.424675
1.13064
0.426
1.19554
0.427692
1.26387
0.429733
1.33601
0.432141
1.4122
0.434894
1.49257
0.437997
1.57734
0.441442
1.66662
0.445182
1.76083
0.449229
1.86013
0.453553
1.96493
0.458123
2.07519
0.462911
2.19141
0.467882
2.31391
0.473001
2.44294
0.478229
2.57873
0.483527
2.72187
0.488856
2.87244
0.494176
3.03121
0.499451
3.19825
0.504643
3.37414
0.509721
3.55937
0.514652
3.75431
0.51941
3.9598
0.523972
4.17592
0.528317
4.40368
0.53243
4.64353
0.536298
4.89611
0.539913
5.1621
0.54327
5.44241
0.546366
5.73762
0.549204
6.0486
0.551788
6.37648
0.554124
6.72171
0.55622
7.08534
0.558104
7.46967
0.559331
5.85475
0.56053
6.43504
0.561621
7.07392
0.562644
7.77722
0.563556
8.5479
0.564355
9.39578
0.565057
10.3293
0.565541
0.562878
0.215483
0.562812
0.227285
0.56042
0.239377
0.554216
0.250962
0.543062
0.261055
0.526389
0.268971
0.504157
0.274245
0.476811
0.276924
0.445232
0.277162
0.410824
0.275559
0.375483
0.272929
0.341559
0.270498
0.311735
0.269778
0.288775
0.272666
0.275068
0.281208
0.272285
0.297372
0.280999
0.322727
0.300891
0.358148
0.330499
0.403802
0.367122
0.459093
0.406199
0.5224
0.44132
0.590487
0.465406
0.658262
0.475029
0.719467
0.473854
0.770441
0.469594
0.813856
0.467005
0.856781
0.466425
0.903875
0.466647
0.955434
0.466988
1.01081
0.467363
1.069
0.467871
1.13014
0.468587
1.19482
0.469592
1.26287
0.470879
1.33472
0.472471
1.41061
0.474377
1.49066
0.476584
1.57514
0.479085
1.66412
0.481908
1.75801
0.485026
1.85702
0.488432
1.96153
0.492103
2.07152
0.496035
2.18748
0.500175
2.30977
0.504493
2.43862
0.508986
2.57424
0.513605
2.71725
0.518316
2.86773
0.523083
3.02644
0.527882
3.19345
0.53265
3.36937
0.537351
3.55467
0.541982
3.74968
0.546498
3.95528
0.55087
4.17155
0.555074
4.39947
0.55909
4.63951
0.562915
4.89229
0.566505
5.15851
0.569849
5.43907
0.572971
5.7345
0.575853
6.04572
0.578511
6.37382
0.580915
6.71931
0.583072
7.08318
0.585021
7.46772
0.586341
5.85343
0.587574
6.43381
0.58875
7.07275
0.589859
7.77611
0.590844
8.54692
0.591694
0.597966
0.214658
0.598908
0.226395
0.599434
0.238888
0.598485
0.251954
0.594592
0.264966
0.586521
0.277074
0.573479
0.287294
0.555255
0.295174
0.531996
0.300424
0.504357
0.303221
0.473366
0.303919
0.440617
0.303269
0.408097
0.302295
0.378308
0.302476
0.353895
0.305617
0.337475
0.313812
0.330966
0.329231
0.335453
0.353678
0.350918
0.388332
0.376404
0.433622
0.40963
0.489169
0.446658
0.55347
0.481336
0.62358
0.506432
0.694381
0.517506
0.759363
0.517348
0.814023
0.513406
0.860718
0.510798
0.90649
0.51009
0.956138
0.510178
1.01073
0.510342
1.06883
0.51052
1.12996
0.510813
1.19453
0.511321
1.26237
0.512065
1.33398
0.513067
1.40962
0.514326
1.4894
0.515857
1.57361
0.517658
1.66232
0.519739
1.75593
0.522096
1.85466
0.524729
1.9589
0.527627
2.06862
0.530781
2.18432
0.534171
2.30638
0.53778
2.43501
0.541582
2.57044
0.545551
2.71328
0.549657
2.86363
0.553867
3.02223
0.558149
3.18917
0.562468
3.36505
0.566791
3.55034
0.571085
3.74539
0.575317
3.95105
0.579457
4.16741
0.583477
4.39545
0.587354
4.63563
0.591065
4.88858
0.594592
5.15499
0.59792
5.43574
0.601037
5.73138
0.603937
6.04282
0.606614
6.37114
0.609067
6.71685
0.6113
7.08095
0.613316
7.4657
0.614676
5.85207
0.615984
6.4325
0.61724
0.618384
0.630787
0.214121
0.631469
0.225774
0.632259
0.238151
0.632997
0.251269
0.632829
0.265166
0.630543
0.279397
0.624704
0.293148
0.614425
0.30548
0.599249
0.315605
0.579268
0.323223
0.554859
0.328329
0.526908
0.33124
0.496677
0.332523
0.465988
0.333184
0.437049
0.334553
0.412442
0.338435
0.394758
0.34691
0.386197
0.362256
0.387992
0.38653
0.400524
0.421105
0.423043
0.466644
0.453663
0.522863
0.488767
0.58847
0.522588
0.660571
0.547875
0.734071
0.559707
0.802199
0.560277
0.860143
0.556745
0.910029
0.554222
0.958657
0.553436
1.01152
0.553365
1.0689
0.553352
1.12998
0.553335
1.19454
0.553424
1.26228
0.553704
1.33369
0.554213
1.40911
0.554936
1.48868
0.555915
1.57263
0.557135
1.6611
0.558625
1.75444
0.560353
1.85293
0.562342
1.95691
0.564582
2.06638
0.567061
2.18185
0.569793
2.30365
0.572768
2.43204
0.575938
2.56727
0.5793
2.70992
0.582829
2.8601
0.586484
3.01858
0.590266
3.18538
0.594129
3.36119
0.598043
3.54643
0.601989
3.74144
0.605909
3.94713
0.609783
4.16353
0.613584
4.39165
0.61727
4.63195
0.620846
4.885
0.624275
5.15156
0.627553
5.43246
0.630636
5.7283
0.63351
6.03994
0.636199
6.36846
0.638681
6.71437
0.640972
7.07866
0.643027
0.644433
0.663482
0.213796
0.663807
0.225412
0.664218
0.237708
0.664736
0.250729
0.665348
0.264532
0.665555
0.279179
0.664229
0.294461
0.659997
0.30971
0.651748
0.323847
0.638956
0.336018
0.621463
0.345817
0.59965
0.353059
0.574141
0.358028
0.546145
0.361187
0.517185
0.363509
0.489393
0.366236
0.4652
0.3711
0.44718
0.380286
0.437606
0.3961
0.437943
0.420778
0.448679
0.455904
0.469302
0.50225
0.498083
0.559685
0.531702
0.626961
0.564576
0.701193
0.589564
0.777219
0.601586
0.848116
0.602617
0.909003
0.599497
0.961772
0.597205
1.01381
0.596423
1.06967
0.596287
1.13012
0.596133
1.19469
0.595983
1.26244
0.595927
1.33375
0.596054
1.40899
0.596375
1.48836
0.596922
1.57209
0.597665
1.66036
0.598623
1.75349
0.599822
1.85173
0.601263
1.95548
0.60294
2.06471
0.60486
2.17993
0.607013
2.3015
0.609397
2.42966
0.611997
2.56467
0.614801
2.70712
0.617791
2.85711
0.62096
3.01541
0.624242
3.1821
0.627669
3.35777
0.631169
3.54293
0.634712
3.7379
0.638299
3.94355
0.641882
4.15995
0.645437
4.38809
0.648945
4.62844
0.652356
4.88159
0.655638
5.14827
0.658807
5.42929
0.661824
5.72528
0.664694
0.667353
0.669844
0.697455
0.213596
0.697636
0.22525
0.697831
0.237529
0.698056
0.250523
0.698385
0.264215
0.698827
0.278757
0.699135
0.294161
0.698408
0.310454
0.695284
0.326974
0.688522
0.342795
0.677455
0.356884
0.661851
0.368676
0.641956
0.377921
0.618344
0.38481
0.592052
0.389799
0.564584
0.393716
0.537828
0.397852
0.514221
0.403904
0.496282
0.414035
0.486363
0.430708
0.485982
0.456281
0.495801
0.492441
0.515311
0.540171
0.542978
0.599303
0.575495
0.668672
0.607472
0.745249
0.631794
0.82379
0.643607
0.897198
0.644826
0.960548
0.642087
1.01656
0.640026
1.07173
0.639302
1.13085
0.639094
1.19489
0.638893
1.26264
0.638668
1.33397
0.638544
1.40911
0.638585
1.48831
0.638777
1.5719
0.639158
1.65997
0.639737
1.75292
0.640513
1.85095
0.641505
1.95449
0.642713
2.0635
0.644161
2.17848
0.645815
2.29984
0.647679
2.4278
0.64977
2.56258
0.652071
2.70482
0.654565
2.85462
0.65724
3.01274
0.66009
3.17925
0.66305
3.35481
0.666141
3.53984
0.669324
3.73472
0.672566
3.9403
0.675847
4.15667
0.679129
4.38481
0.682396
0.685609
0.688768
0.691795
0.732795
0.213529
0.732877
0.225168
0.732934
0.237475
0.732977
0.250482
0.733003
0.264191
0.733119
0.278644
0.733359
0.293921
0.733625
0.310192
0.73319
0.327409
0.730817
0.345173
0.725167
0.362533
0.715405
0.378442
0.701219
0.392106
0.682778
0.403256
0.660579
0.411996
0.635593
0.418708
0.609237
0.424206
0.583414
0.429733
0.560405
0.437042
0.542778
0.448342
0.532902
0.466154
0.532391
0.492959
0.541906
0.530653
0.561007
0.580209
0.588124
0.641552
0.620003
0.713377
0.651184
0.792607
0.674702
0.873686
0.685989
0.949257
0.687244
1.01531
0.684814
1.07416
0.683009
1.13266
0.682384
1.19551
0.682168
1.26286
0.681928
1.33421
0.681683
1.40936
0.681503
1.48849
0.681483
1.57193
0.681609
1.65985
0.681916
1.75261
0.682375
1.85049
0.683022
1.95384
0.683857
2.06266
0.684881
2.17746
0.686121
2.2986
0.687585
2.42633
0.689238
2.56092
0.691095
2.70296
0.693145
2.85257
0.695381
3.0105
0.697773
0.700335
0.703048
0.705858
0.708761
0.711723
0.769836
0.213545
0.769841
0.225206
0.769821
0.23753
0.769781
0.250557
0.769722
0.264274
0.769613
0.278779
0.769533
0.294017
0.769582
0.310165
0.769742
0.327257
0.769483
0.345449
0.767623
0.364398
0.762808
0.38327
0.754031
0.400885
0.740886
0.416411
0.723467
0.429415
0.702293
0.439891
0.678234
0.448264
0.652683
0.455292
0.627507
0.462217
0.605034
0.470823
0.587775
0.483412
0.578177
0.502564
0.577886
0.530943
0.587574
0.570528
0.606744
0.622382
0.633783
0.686345
0.665326
0.761063
0.695836
0.843183
0.718418
0.926674
0.729023
1.00471
0.730201
1.07298
0.728096
1.13477
0.726533
1.19707
0.725999
1.2634
0.725783
1.33442
0.725546
1.4096
0.725307
1.48872
0.725141
1.5721
0.725092
0.725169
0.725399
0.72579
0.72634
0.727085
0.727992
0.729075
0.730359
0.731835
0.733496
0.80855
0.808432
0.808283
0.80815
0.807965
0.807785
0.80756
0.807337
0.807198
0.807229
0.807039
0.80557
0.801401
0.793414
0.78109
0.764417
0.743908
0.72048
0.695447
0.67073
0.648648
0.631802
0.622629
0.622829
0.633045
0.652722
0.680098
0.711623
0.741554
0.763153
0.772957
0.773986
0.772163
0.770884
0.77045
0.770273
0.770032
)
;

boundaryField
{
    inlet
    {
        type            calculated;
        value           nonuniform List<scalar> 
11
(
0.533925
0.999675
0.979382
0.964591
0.959447
0.970465
1.00952
1.08
1.23125
1.2567
0.468543
)
;
    }
    outlet
    {
        type            calculated;
        value           nonuniform List<scalar> 0();
    }
    walls
    {
        type            calculated;
        value           uniform 0;
    }
    frontAndBack
    {
        type            empty;
    }
    procBoundary6to2
    {
        type            processor;
        value           nonuniform List<scalar> 
13
(
-0.274597
-0.342068
-0.399922
-0.46529
-0.520507
-0.561929
-0.597006
-0.630082
-0.663225
-0.697199
-0.732715
-0.76975
-0.808668
)
;
    }
    procBoundary6to3
    {
        type            processor;
        value           uniform 0.213593;
    }
    procBoundary6to5
    {
        type            processor;
        value           nonuniform List<scalar> 
86
(
-0.104205
-0.145739
-0.184762
-0.230344
-0.279166
-0.319559
-0.343432
-0.356467
-0.369099
-0.38635
-0.407761
-0.431452
-0.456198
-0.481795
-0.50842
-0.536347
-0.565762
-0.596722
-0.629373
-0.663784
-0.700023
-0.738202
-0.778379
-0.82075
-0.865244
-0.912181
-0.961259
-1.01314
-1.06765
-1.12492
-1.18504
-1.2484
-1.31482
-0.713909
-1.40699
-1.48006
-1.55718
-1.63803
-1.72316
-1.81267
-1.90695
-2.00612
-2.11043
-2.2204
-2.33615
-2.45792
-0.85384
-2.60401
-2.7394
-2.88215
-3.0325
-3.19137
-3.3586
-3.53496
-3.7211
-3.91751
-0.918465
-4.14436
-4.36346
-4.5945
-4.83823
-5.09528
-5.36666
-5.65257
-0.981141
-5.98081
-6.30031
-6.63746
-6.99327
-7.36885
-7.76366
-5.67855
-1.06383
-6.23858
-6.85783
-7.53652
-8.28369
-9.10536
-10.0061
-10.9977
-12.0923
-13.2821
-0.685476
-14.5707
-15.9852
-17.6463
)
;
    }
    procBoundary6to7
    {
        type            processor;
        value           nonuniform List<scalar> 
91
(
18.3428
0.489387
16.5405
0.515557
15.1062
0.539633
13.7114
11.3522
0.566171
12.4855
9.39493
0.592468
10.3285
7.07149
7.77496
0.61944
8.54586
7.46365
5.85067
0.645792
6.43114
6.03708
6.3658
6.71188
0.672144
7.07636
4.62518
4.87837
5.14511
5.42626
0.694724
5.72235
3.17686
3.35225
3.53713
3.73191
3.9374
4.15371
0.714731
4.38181
1.65989
1.75254
1.85026
1.95346
2.06211
2.17672
2.2977
2.42525
2.55964
2.70149
2.85091
0.735343
3.00866
0.225295
0.237654
0.250671
0.264444
0.278947
0.294233
0.310382
0.327391
0.345416
0.364585
0.38474
0.405052
0.4244
0.441737
0.456567
0.468771
0.478725
0.487249
0.495545
0.505492
0.519416
0.540115
0.570334
0.612165
0.666675
0.733685
0.811666
0.896742
0.983118
1.06317
1.13375
1.19889
1.26469
1.33485
1.40979
1.48896
0.769818
1.57232
)
;
    }
}


// ************************************************************************* //
