/*--------------------------------*- C++ -*----------------------------------*\
| =========                 |                                                 |
| \\      /  F ield         | OpenFOAM: The Open Source CFD Toolbox           |
|  \\    /   O peration     | Version:  2506                                  |
|   \\  /    A nd           | Website:  www.openfoam.com                      |
|    \\/     M anipulation  |                                                 |
\*---------------------------------------------------------------------------*/
FoamFile
{
    version     2.0;
    format      ascii;
    arch        "LSB;label=32;scalar=64";
    class       volScalarField;
    location    "100";
    object      turbulenceProperties:nut;
}
// * * * * * * * * * * * * * * * * * * * * * * * * * * * * * * * * * * * * * //

dimensions      [0 2 -1 0 0 0 0];

internalField   nonuniform List<scalar> 
1340
(
0.0732868
0.0633564
0.0524382
0.0266768
0.135907
0.131504
0.117704
0.147081
0.18006
0.186989
0.17911
0.24335
0.193065
0.219644
0.224956
0.324761
0.169247
0.225187
0.252145
0.386061
0.112334
0.200412
0.257836
0.425898
0.047227
0.148935
0.239396
0.441764
0.00486879
0.0862692
0.197666
0.431972
0.00195719
0.0366872
0.140365
0.396466
0.000120578
0.00581523
0.0795445
0.33844
0
0.00197217
0.0274358
0.264434
0
0
0.0104447
0.184996
1.78098e-12
0
0.00257325
0.112075
2.18788e-09
0
0.00132385
0.0550182
2.99722e-07
2.47925e-13
0.000414642
0.0165253
4.33897e-06
4.80427e-12
0
0.00692481
1.04155e-05
4.83229e-10
0
0.00028766
1.23791e-05
2.57987e-08
2.58892e-14
0
1.15185e-05
1.36822e-06
1.72564e-12
0
9.78953e-06
4.72133e-06
7.72471e-12
0
8.19381e-06
8.26652e-06
8.63253e-11
0
6.95917e-06
1.06116e-05
5.28388e-10
7.92164e-16
6.09758e-06
1.16193e-05
3.84409e-07
7.00943e-13
5.53992e-06
1.10624e-05
2.28356e-06
5.25002e-12
5.28837e-06
9.71614e-06
5.71816e-06
4.88549e-10
5.31436e-06
8.10155e-06
9.09886e-06
2.83203e-08
5.53491e-06
6.73156e-06
1.05408e-05
7.87754e-07
5.82465e-06
5.86661e-06
1.01637e-05
3.43057e-06
6.07386e-06
5.51091e-06
8.80561e-06
6.26796e-06
6.22121e-06
5.52541e-06
7.38677e-06
7.6883e-06
6.25794e-06
5.72627e-06
6.40896e-06
7.7018e-06
6.21957e-06
5.95414e-06
5.95398e-06
7.0853e-06
6.16001e-06
6.1078e-06
5.86488e-06
6.47619e-06
6.09164e-06
6.11569e-06
6.16285e-06
5.94618e-06
6.13236e-06
6.09634e-06
6.09529e-06
6.15393e-06
6.0508e-06
6.02726e-06
6.09665e-06
6.09088e-06
6.12623e-06
6.11065e-06
6.04331e-06
6.09429e-06
6.09196e-06
6.10509e-06
6.124e-06
6.08409e-06
6.09143e-06
6.09258e-06
6.09513e-06
6.11506e-06
6.10716e-06
6.08919e-06
6.09156e-06
6.09186e-06
6.10328e-06
6.11016e-06
6.08773e-06
6.0898e-06
6.09064e-06
6.09569e-06
6.10413e-06
6.08675e-06
6.08813e-06
6.08945e-06
6.09189e-06
6.09745e-06
6.08604e-06
6.08685e-06
6.08806e-06
6.08981e-06
6.09277e-06
6.08556e-06
6.08596e-06
6.08673e-06
6.08824e-06
6.08978e-06
6.0855e-06
6.08547e-06
6.08575e-06
6.08689e-06
6.08766e-06
6.08601e-06
6.08553e-06
6.08527e-06
6.08585e-06
6.08609e-06
6.08814e-06
6.08715e-06
6.08626e-06
6.08548e-06
6.08536e-06
6.0852e-06
6.08984e-06
6.0888e-06
6.08766e-06
6.08646e-06
6.08566e-06
6.08503e-06
6.09148e-06
6.0906e-06
6.08948e-06
6.08817e-06
6.08688e-06
6.08578e-06
6.09297e-06
6.09226e-06
6.09132e-06
6.09019e-06
6.08868e-06
6.08733e-06
6.09433e-06
6.09375e-06
6.09299e-06
6.09208e-06
6.09068e-06
6.08936e-06
6.0956e-06
6.09512e-06
6.09451e-06
6.09378e-06
6.09261e-06
6.0915e-06
6.09674e-06
6.09637e-06
6.09587e-06
6.09529e-06
6.09434e-06
6.09349e-06
6.09773e-06
6.09747e-06
6.09708e-06
6.09663e-06
6.09587e-06
6.09524e-06
6.0986e-06
6.09843e-06
6.09815e-06
6.09782e-06
6.09721e-06
6.09676e-06
6.09931e-06
6.09931e-06
6.09924e-06
6.09908e-06
6.09885e-06
6.09839e-06
6.09808e-06
6.09979e-06
6.09988e-06
6.09991e-06
6.09985e-06
6.09973e-06
6.0994e-06
6.09922e-06
6.10014e-06
6.10031e-06
6.10043e-06
6.10047e-06
6.10045e-06
6.10026e-06
6.10018e-06
6.10033e-06
6.10059e-06
6.1008e-06
6.10093e-06
6.10102e-06
6.10095e-06
6.10099e-06
6.10035e-06
6.10069e-06
6.10099e-06
6.10123e-06
6.10142e-06
6.10148e-06
6.10163e-06
6.10015e-06
6.10059e-06
6.10098e-06
6.10132e-06
6.10162e-06
6.10182e-06
6.10208e-06
6.0997e-06
6.10024e-06
6.10074e-06
6.10119e-06
6.10161e-06
6.10194e-06
6.10233e-06
6.09824e-06
6.09892e-06
6.09957e-06
6.10019e-06
6.10076e-06
6.10131e-06
6.10179e-06
6.10232e-06
6.097e-06
6.09777e-06
6.09852e-06
6.09925e-06
6.09995e-06
6.10064e-06
6.10129e-06
6.10198e-06
6.0955e-06
6.09632e-06
6.09714e-06
6.09795e-06
6.09876e-06
6.09957e-06
6.10037e-06
6.10122e-06
6.09384e-06
6.09468e-06
6.09554e-06
6.0964e-06
6.09727e-06
6.09816e-06
6.09907e-06
6.10006e-06
6.09205e-06
6.09291e-06
6.09378e-06
6.09467e-06
6.09558e-06
6.09653e-06
6.09751e-06
6.09858e-06
6.09016e-06
6.09103e-06
6.09192e-06
6.09284e-06
6.09378e-06
6.09476e-06
6.09579e-06
6.09691e-06
6.08842e-06
6.08929e-06
6.0902e-06
6.09113e-06
6.09209e-06
6.09311e-06
6.09419e-06
6.09534e-06
6.08581e-06
6.08667e-06
6.08755e-06
6.08846e-06
6.0894e-06
6.09038e-06
6.09143e-06
6.09254e-06
6.09374e-06
6.08375e-06
6.0846e-06
6.08548e-06
6.08639e-06
6.08734e-06
6.08834e-06
6.08941e-06
6.09056e-06
6.09181e-06
6.08148e-06
6.08227e-06
6.08311e-06
6.08399e-06
6.08491e-06
6.08591e-06
6.08698e-06
6.08815e-06
6.08944e-06
6.07907e-06
6.07979e-06
6.08055e-06
6.08136e-06
6.08223e-06
6.08317e-06
6.08421e-06
6.08537e-06
6.08667e-06
6.07653e-06
6.07715e-06
6.07782e-06
6.07852e-06
6.07929e-06
6.08012e-06
6.08106e-06
6.08212e-06
6.08335e-06
6.07399e-06
6.07452e-06
6.0751e-06
6.07571e-06
6.07638e-06
6.07712e-06
6.07795e-06
6.0789e-06
6.08002e-06
6.07127e-06
6.07166e-06
6.07209e-06
6.07256e-06
6.07307e-06
6.07365e-06
6.07431e-06
6.07507e-06
6.07598e-06
6.06979e-06
6.06995e-06
6.07016e-06
6.07042e-06
6.07074e-06
6.07112e-06
6.07158e-06
6.07216e-06
6.07287e-06
6.07058e-06
6.07052e-06
6.07049e-06
6.07049e-06
6.07051e-06
6.07058e-06
6.07067e-06
6.07084e-06
6.07113e-06
6.07251e-06
6.07233e-06
6.07215e-06
6.07198e-06
6.07182e-06
6.07168e-06
6.07157e-06
6.07145e-06
6.07144e-06
6.07146e-06
6.07617e-06
6.07653e-06
6.07694e-06
6.07739e-06
6.07785e-06
6.07832e-06
6.07882e-06
6.07931e-06
6.07995e-06
6.08055e-06
6.08158e-06
6.08151e-06
6.08138e-06
6.08127e-06
6.08123e-06
6.08128e-06
6.08142e-06
6.08164e-06
6.08205e-06
6.08226e-06
0.451824
0.605981
0.724462
0.814197
0.882853
0.939551
0.989577
1.01565
1.00835
0.962499
0.87644
0.751898
0.596549
0.424685
0.25552
0.110428
0.00985513
0.00641113
3.58339e-05
0
0
0
0
0
0
7.24394e-11
2.08496e-08
7.35779e-07
3.38282e-06
6.52952e-06
7.94829e-06
7.72036e-06
6.95699e-06
6.35933e-06
6.08303e-06
6.03065e-06
6.0652e-06
6.10111e-06
6.11378e-06
6.11048e-06
6.10287e-06
6.09662e-06
6.09247e-06
6.08961e-06
6.08755e-06
6.08619e-06
6.08555e-06
6.08582e-06
6.08701e-06
6.0888e-06
6.09079e-06
6.09271e-06
6.09451e-06
6.09617e-06
6.09762e-06
6.09886e-06
6.09992e-06
6.10082e-06
6.10154e-06
6.10208e-06
6.10241e-06
6.1025e-06
6.10225e-06
6.1016e-06
6.10051e-06
6.09909e-06
6.09747e-06
6.09593e-06
6.09437e-06
6.09248e-06
6.09016e-06
6.08741e-06
6.08408e-06
6.08069e-06
6.07658e-06
6.07331e-06
6.07128e-06
6.07137e-06
6.08088e-06
6.08231e-06
0.53793
0.728979
0.887328
1.01527
1.11588
1.19269
1.24918
1.29015
1.32932
1.34789
1.33317
1.27472
1.16579
1.00524
0.799474
0.564452
0.327406
0.130667
0.00210867
0.00399272
0
0
0
0
0
1.79431e-13
1.14482e-10
8.30214e-08
1.24044e-06
4.4162e-06
7.32662e-06
8.07827e-06
7.42643e-06
6.6333e-06
6.18186e-06
6.0414e-06
6.05264e-06
6.09333e-06
6.11434e-06
6.1148e-06
6.10726e-06
6.0999e-06
6.09475e-06
6.09123e-06
6.08872e-06
6.08696e-06
6.08592e-06
6.08581e-06
6.08667e-06
6.0882e-06
6.09015e-06
6.09212e-06
6.09401e-06
6.09577e-06
6.09731e-06
6.09863e-06
6.09976e-06
6.10071e-06
6.10148e-06
6.10208e-06
6.10246e-06
6.10261e-06
6.10243e-06
6.10183e-06
6.1008e-06
6.09941e-06
6.09782e-06
6.09631e-06
6.09478e-06
6.09292e-06
6.09062e-06
6.08788e-06
6.08457e-06
6.08112e-06
6.077e-06
6.07359e-06
6.07139e-06
6.07128e-06
6.08108e-06
0.423534
0.618736
0.791854
0.942719
1.07113
1.17656
1.25938
1.32214
1.3691
1.40566
1.4405
1.45895
1.44496
1.3846
1.26772
1.09007
0.856555
0.585231
0.312617
0.103929
0.0303804
0.00126894
0
0
0
0
1.0361e-12
3.43176e-10
1.92811e-07
2.00162e-06
5.56009e-06
7.87313e-06
7.92689e-06
7.05582e-06
6.3673e-06
6.08148e-06
6.04301e-06
6.08157e-06
6.11184e-06
6.11813e-06
6.11172e-06
6.10344e-06
6.09719e-06
6.09292e-06
6.0899e-06
6.08772e-06
6.08629e-06
6.08579e-06
6.08628e-06
6.0876e-06
6.08956e-06
6.09158e-06
6.09355e-06
6.09539e-06
6.09702e-06
6.09841e-06
6.0996e-06
6.1006e-06
6.10143e-06
6.10207e-06
6.1025e-06
6.1027e-06
6.10258e-06
6.10204e-06
6.10106e-06
6.09971e-06
6.09815e-06
6.09665e-06
6.09516e-06
6.09333e-06
6.09106e-06
6.08834e-06
6.08506e-06
6.08156e-06
6.07743e-06
6.07388e-06
6.0715e-06
6.07119e-06
0.220123
0.40073
0.575544
0.736618
0.882853
1.01239
1.1231
1.21375
1.28466
1.33839
1.37998
1.41552
1.45045
1.46725
1.4484
1.3788
1.24716
1.0487
0.790102
0.496625
0.218048
0.0355784
0.0113675
0.000232652
0
0
0
4.23523e-15
4.94014e-15
3.11676e-07
2.99971e-06
6.70413e-06
8.12829e-06
7.59754e-06
6.699e-06
6.18705e-06
6.04601e-06
6.06569e-06
6.10484e-06
6.1198e-06
6.11621e-06
6.10743e-06
6.09999e-06
6.09483e-06
6.09123e-06
6.08859e-06
6.08674e-06
6.08583e-06
6.08593e-06
6.08706e-06
6.08898e-06
6.09104e-06
6.09307e-06
6.09499e-06
6.0967e-06
6.09817e-06
6.09942e-06
6.10047e-06
6.10135e-06
6.10203e-06
6.10252e-06
6.10277e-06
6.1027e-06
6.10222e-06
6.10129e-06
6.09998e-06
6.09845e-06
6.09697e-06
6.09551e-06
6.09372e-06
6.09149e-06
6.08879e-06
6.08554e-06
6.082e-06
6.07787e-06
6.07419e-06
6.07164e-06
0.0513252
0.16593
0.323432
0.48714
0.643349
0.788654
0.920686
1.0368
1.13483
1.21385
1.27488
1.32149
1.35976
1.39657
1.42759
1.43454
1.39976
1.30815
1.149
0.919622
0.633114
0.330693
0.0998378
0.00636982
0.00180404
0
0
0
2.45461e-20
1.52676e-09
4.37672e-07
4.20628e-06
7.74445e-06
8.12385e-06
7.18611e-06
6.40347e-06
6.0861e-06
6.0506e-06
6.09201e-06
6.11846e-06
6.1203e-06
6.1119e-06
6.10328e-06
6.09706e-06
6.09277e-06
6.08962e-06
6.08734e-06
6.08599e-06
6.08567e-06
6.08656e-06
6.08842e-06
6.0905e-06
6.09258e-06
6.09456e-06
6.09634e-06
6.09789e-06
6.0992e-06
6.10032e-06
6.10124e-06
6.10197e-06
6.1025e-06
6.10281e-06
6.1028e-06
6.10238e-06
6.1015e-06
6.10023e-06
6.09873e-06
6.09727e-06
6.09585e-06
6.09409e-06
6.0919e-06
6.08923e-06
6.08602e-06
6.08246e-06
6.07833e-06
6.07453e-06
0.00220653
0.0261907
0.105238
0.240061
0.395774
0.550096
0.695868
0.830179
0.950325
1.05379
1.13899
1.20592
1.25678
1.2964
1.33104
1.36778
1.38944
1.37755
1.31529
1.18878
0.989752
0.721818
0.418106
0.15825
0.011196
0.00338849
0
0
0
0
1.97568e-09
5.52624e-07
5.41923e-06
8.48845e-06
7.91309e-06
6.79241e-06
6.19656e-06
6.04577e-06
6.07198e-06
6.1118e-06
6.1231e-06
6.11677e-06
6.10717e-06
6.0997e-06
6.09456e-06
6.09085e-06
6.08809e-06
6.08628e-06
6.08553e-06
6.08615e-06
6.0879e-06
6.08997e-06
6.09206e-06
6.09409e-06
6.09595e-06
6.09757e-06
6.09895e-06
6.10012e-06
6.1011e-06
6.10188e-06
6.10246e-06
6.10282e-06
6.10287e-06
6.10251e-06
6.10169e-06
6.10046e-06
6.09898e-06
6.09755e-06
6.09616e-06
6.09445e-06
6.0923e-06
6.08966e-06
6.0865e-06
6.08292e-06
1.00416e-06
0.0021757
0.00804276
0.0576108
0.168643
0.315261
0.467851
0.614098
0.749903
0.87256
0.979534
1.06892
1.14013
1.19456
1.23619
1.27165
1.30807
1.33643
1.33831
1.29589
1.19356
1.01964
0.772428
0.473376
0.190064
0.0254023
0.00701947
0
0
0
0
2.23077e-09
6.05824e-07
6.29886e-06
8.7774e-06
7.57825e-06
6.48482e-06
6.08388e-06
6.04662e-06
6.09506e-06
6.12192e-06
6.12146e-06
6.11173e-06
6.10286e-06
6.09667e-06
6.09229e-06
6.08903e-06
6.08672e-06
6.08553e-06
6.08582e-06
6.08743e-06
6.08945e-06
6.09155e-06
6.09361e-06
6.09551e-06
6.09721e-06
6.09866e-06
6.09989e-06
6.10092e-06
6.10175e-06
6.10239e-06
6.1028e-06
6.10291e-06
6.10262e-06
6.10186e-06
6.10066e-06
6.09922e-06
6.0978e-06
6.09645e-06
6.09479e-06
6.09268e-06
6.09007e-06
0
0
0.000517546
0.00182509
0.0298055
0.114179
0.248251
0.397696
0.543776
0.680306
0.804366
0.913472
1.00563
1.07993
1.13723
1.18078
1.21654
1.2515
1.28307
1.29337
1.26417
1.17892
1.02417
0.793981
0.502419
0.214176
0.039884
0.0105243
2.11644e-06
0
0
0
2.54034e-09
6.93699e-07
6.84529e-06
8.60059e-06
7.16516e-06
6.26951e-06
6.04652e-06
6.06974e-06
6.11297e-06
6.12407e-06
6.11664e-06
6.10663e-06
6.09917e-06
6.09399e-06
6.09016e-06
6.08734e-06
6.08567e-06
6.08563e-06
6.08704e-06
6.08898e-06
6.09105e-06
6.09311e-06
6.09506e-06
6.09681e-06
6.09834e-06
6.09963e-06
6.10072e-06
6.1016e-06
6.10229e-06
6.10275e-06
6.10293e-06
6.10271e-06
6.10201e-06
6.10085e-06
6.09944e-06
6.09803e-06
6.09673e-06
2.52898e-10
0
0
6.06266e-07
0.00313281
0.0119245
0.0736071
0.192696
0.337334
0.482712
0.619584
0.744457
0.854867
0.948808
1.02519
1.08447
1.12937
1.16522
1.19891
1.23218
1.24777
1.2273
1.15379
1.01264
0.794746
0.510806
0.225736
0.0494895
0.000753478
0.000235735
0
0
0
3.22844e-09
8.97607e-07
7.18021e-06
8.16686e-06
6.76341e-06
6.12685e-06
6.04742e-06
6.09624e-06
6.12319e-06
6.12144e-06
6.11104e-06
6.10213e-06
6.09596e-06
6.0915e-06
6.08814e-06
6.08598e-06
6.08559e-06
6.08675e-06
6.08857e-06
6.09058e-06
6.09263e-06
6.0946e-06
6.0964e-06
6.09798e-06
6.09934e-06
6.10048e-06
6.10142e-06
6.10216e-06
6.10268e-06
6.10293e-06
6.10277e-06
6.10214e-06
6.10103e-06
3.39126e-07
1.60215e-09
0
0
0
0.000535417
0.0016707
0.0454673
0.147902
0.285127
0.428738
0.56561
0.690997
0.802269
0.897401
0.975185
1.03584
1.08169
1.11761
1.15042
1.18465
1.20359
1.18881
1.123
0.990694
0.781106
0.504299
0.226377
0.0520939
0.00199662
0.000527899
0
0
0
4.39448e-09
1.22274e-06
7.35412e-06
7.68758e-06
6.43733e-06
6.04112e-06
6.06044e-06
6.11371e-06
6.12546e-06
6.11655e-06
6.10588e-06
6.09831e-06
6.09307e-06
6.08914e-06
6.08648e-06
6.08573e-06
6.08661e-06
6.08825e-06
6.09018e-06
6.09218e-06
6.09414e-06
6.09597e-06
6.0976e-06
6.09902e-06
6.10022e-06
6.10121e-06
6.10201e-06
6.10259e-06
6.04249e-06
1.6181e-06
7.65379e-09
0
0
0
5.42346e-07
0.00686096
0.027121
0.112019
0.239995
0.380758
0.517159
0.642806
0.754665
0.850624
0.929386
0.990996
1.03751
1.07351
1.10583
1.14068
1.16173
1.15047
1.08932
0.962171
0.757599
0.486587
0.216611
0.0502123
0.00251584
0.000624098
0
0
0
6.11624e-09
1.68447e-06
7.55458e-06
7.3506e-06
6.24418e-06
6.01062e-06
6.07398e-06
6.11966e-06
6.12168e-06
6.11084e-06
6.10141e-06
6.09499e-06
6.09036e-06
6.08719e-06
6.08608e-06
6.08664e-06
6.08806e-06
6.08985e-06
6.09178e-06
6.09371e-06
6.09555e-06
6.09722e-06
6.64163e-06
6.54461e-06
3.54003e-06
1.71439e-08
1.42472e-17
0
0
0
0.00405214
0.0159995
0.0836302
0.200813
0.337531
0.473052
0.59882
0.711131
0.807701
0.887147
0.949392
0.996326
1.03241
1.06463
1.09978
1.12204
1.11269
1.05382
0.928895
0.726411
0.459754
0.199709
0.044886
0.00213273
0.000507069
0
0
0
8.28346e-09
2.23263e-06
7.7721e-06
7.16264e-06
6.18988e-06
6.02837e-06
6.08933e-06
6.11861e-06
6.11502e-06
6.10519e-06
6.09746e-06
6.09191e-06
6.08817e-06
6.08666e-06
6.22063e-06
6.32633e-06
7.33056e-06
4.55206e-06
1.2274e-09
7.77423e-12
0
0
0
0.00187628
0.00720693
0.0606857
0.166335
0.29795
0.432233
0.558202
0.67117
0.768544
0.848801
0.911751
0.95918
0.995532
1.028
1.0634
1.08633
1.07775
1.01943
0.89439
0.69162
0.428237
0.179886
0.0384199
0.00127975
0.000295661
0
0
0
1.03787e-08
)
;

boundaryField
{
    inlet
    {
        type            freestream;
        freestreamValue uniform 1e-05;
        value           nonuniform List<scalar> 
11
(
6.08158e-06
6.08151e-06
6.08138e-06
6.08127e-06
6.08123e-06
6.08128e-06
6.08142e-06
6.08164e-06
6.08205e-06
6.08226e-06
6.08231e-06
)
;
    }
    outlet
    {
        type            freestream;
        freestreamValue nonuniform List<scalar> 0();
        value           nonuniform List<scalar> 0();
    }
    walls
    {
        type            nutUSpaldingWallFunction;
        value           nonuniform List<scalar> 4(0.00144264 0.00109263 0.000824863 0.000167559);
    }
    frontAndBack
    {
        type            empty;
    }
    procBoundary6to2
    {
        type            processor;
        value           nonuniform List<scalar> 
13
(
0.268461
0.324984
0.22454
0.0763551
0.00752898
0.000616197
0
1.07715e-11
6.04825e-08
5.78612e-06
7.19985e-06
6.41832e-06
6.20539e-06
)
;
    }
    procBoundary6to3
    {
        type            processor;
        value           uniform 6.18229e-06;
    }
    procBoundary6to5
    {
        type            processor;
        value           nonuniform List<scalar> 
86
(
0.082286
0.140002
0.172884
0.163748
0.110421
0.0419536
0.00289104
0.000782194
0
0
5.17351e-14
9.65566e-09
2.10392e-06
8.91861e-06
1.22889e-05
9.60678e-06
6.84663e-06
5.55154e-06
5.13589e-06
5.13572e-06
5.30916e-06
5.53477e-06
5.77464e-06
6.00884e-06
6.20115e-06
6.31274e-06
6.33537e-06
6.29151e-06
6.21672e-06
6.14483e-06
6.09883e-06
6.08226e-06
6.08428e-06
6.08428e-06
6.10056e-06
6.09587e-06
6.09235e-06
6.09007e-06
6.08859e-06
6.08755e-06
6.08677e-06
6.08615e-06
6.0857e-06
6.08554e-06
6.08584e-06
6.08673e-06
6.08673e-06
6.08907e-06
6.09069e-06
6.09218e-06
6.09354e-06
6.09481e-06
6.09598e-06
6.09702e-06
6.09792e-06
6.09868e-06
6.09868e-06
6.09924e-06
6.09965e-06
6.09992e-06
6.10003e-06
6.09995e-06
6.09967e-06
6.09912e-06
6.09912e-06
6.09753e-06
6.09622e-06
6.09468e-06
6.093e-06
6.0912e-06
6.08931e-06
6.08756e-06
6.08756e-06
6.08497e-06
6.08293e-06
6.08073e-06
6.0784e-06
6.07595e-06
6.07349e-06
6.07092e-06
6.06968e-06
6.07065e-06
6.07065e-06
6.07255e-06
6.07591e-06
6.08159e-06
)
;
    }
    procBoundary6to7
    {
        type            processor;
        value           nonuniform List<scalar> 
91
(
6.08238e-06
6.08238e-06
6.08129e-06
6.08129e-06
6.07111e-06
6.07111e-06
6.07179e-06
6.07881e-06
6.07179e-06
6.0749e-06
6.08696e-06
6.07881e-06
6.08339e-06
6.09511e-06
6.09304e-06
6.08696e-06
6.09047e-06
6.09963e-06
6.09825e-06
6.09511e-06
6.09698e-06
6.1029e-06
6.10282e-06
6.10225e-06
6.09963e-06
6.10119e-06
6.09868e-06
6.09994e-06
6.10098e-06
6.10183e-06
6.1029e-06
6.10247e-06
6.08687e-06
6.08802e-06
6.08964e-06
6.09145e-06
6.09332e-06
6.09514e-06
6.09868e-06
6.09683e-06
2.71622e-06
7.59264e-06
7.0182e-06
6.18686e-06
6.06812e-06
6.10488e-06
6.11512e-06
6.10796e-06
6.09994e-06
6.09376e-06
6.08946e-06
6.08687e-06
6.08752e-06
6.08764e-06
6.2987e-06
7.24524e-06
4.91981e-06
1.79826e-07
8.57178e-10
0
0
0
0.000305735
0.000920392
0.0419185
0.135745
0.26121
0.393185
0.518362
0.630952
0.728034
0.808022
0.870736
0.918017
0.954301
0.986751
1.02198
1.04452
1.03505
0.975111
0.847993
0.644597
0.387135
0.154673
0.0308404
0.000633704
0.000118629
0
0
2.71622e-06
0
)
;
    }
}


// ************************************************************************* //
