/*--------------------------------*- C++ -*----------------------------------*\
| =========                 |                                                 |
| \\      /  F ield         | OpenFOAM: The Open Source CFD Toolbox           |
|  \\    /   O peration     | Version:  2506                                  |
|   \\  /    A nd           | Website:  www.openfoam.com                      |
|    \\/     M anipulation  |                                                 |
\*---------------------------------------------------------------------------*/
FoamFile
{
    version     2.0;
    format      ascii;
    arch        "LSB;label=32;scalar=64";
    class       volSymmTensorField;
    location    "100";
    object      turbulenceProperties:R;
}
// * * * * * * * * * * * * * * * * * * * * * * * * * * * * * * * * * * * * * //

dimensions      [0 2 -2 0 0 0 0];

internalField   nonuniform List<symmTensor> 
1340
(
(10.0014 -4.96959 7.99945e-16 13.1734 5.02829e-16 11.6022)
(6.31728 -3.15098 5.75254e-17 8.4689 -1.76727e-16 7.41132)
(3.77223 -1.88111 -5.04747e-16 5.09249 1.02025e-15 4.42584)
(0.265627 -0.103728 -2.99033e-16 0.572275 -1.33148e-15 0.401606)
(4.78549 -2.32623 2.77671e-15 5.82731 -2.48392e-15 5.28039)
(3.97246 -1.93522 -1.06992e-15 4.86554 5.55919e-16 4.4029)
(2.80445 -1.35333 8.94035e-16 3.38349 -3.18629e-15 3.04437)
(3.72224 -1.89447 3.40965e-15 5.31387 6.90025e-15 4.74908)
(5.63309 -2.69818 -1.045e-14 6.52155 6.09568e-16 6.07542)
(4.87982 -2.33557 3.20374e-15 5.63755 -6.49863e-16 5.25666)
(3.61381 -1.70442 3.3851e-15 4.04844 1.35601e-15 3.79506)
(4.23338 -2.12915 -4.77418e-15 6.04701 2.13331e-15 5.14778)
(6.17939 -2.92922 3.35386e-15 6.94593 2.19894e-15 6.56935)
(5.9301 -2.80958 -6.95752e-15 6.65518 3.89597e-16 6.30061)
(4.67289 -2.17965 -7.75399e-15 5.06998 1.72118e-15 4.84903)
(5.19273 -2.56344 5.42134e-15 6.64851 -2.87705e-15 5.92398)
(4.96993 -2.3208 -8.35159e-16 5.38408 1.62662e-16 5.17945)
(6.2036 -2.90859 -1.8892e-15 6.78249 1.26644e-15 6.50036)
(5.54836 -2.56611 4.30656e-17 5.89702 -1.31795e-15 5.702)
(6.3169 -3.02349 -1.21351e-14 7.26406 4.06217e-15 6.82252)
(2.28836 -1.03584 3.0339e-15 2.31523 -9.88275e-16 2.3026)
(5.11161 -2.36123 1.00984e-14 5.39873 -1.15726e-15 5.26034)
(5.90855 -2.70515 3.31173e-16 6.13896 -9.40084e-17 6.00364)
(7.41736 -3.44132 2.39115e-15 7.87983 -3.93424e-15 7.69917)
(0.398414 -0.155765 -2.54583e-15 0.316645 3.93722e-16 0.358571)
(2.93587 -1.32143 -1.8297e-15 2.93349 -2.8332e-16 2.94027)
(5.38221 -2.42915 1.10695e-15 5.42516 1.05479e-16 5.38794)
(8.19608 -3.70824 2.73721e-15 8.24929 -1.16021e-15 8.27981)
(0.0222454 0.00365401 2.74156e-16 0.00979308 -7.14623e-18 0.0160921)
(1.01585 -0.428935 -1.85046e-15 0.903707 2.74686e-16 0.964508)
(3.9542 -1.74594 -3.54267e-15 3.8177 -8.30534e-17 3.87672)
(8.29985 -3.68062 1.27929e-14 8.03372 -2.71936e-16 8.22273)
(0.0110843 0.00324872 -3.97356e-17 0.00653898 -6.49926e-18 0.00880918)
(0.191264 -0.0597968 6.37289e-16 0.118547 -4.88841e-17 0.15694)
(2.21899 -0.944332 7.23954e-15 2.0071 -5.62911e-16 2.10901)
(7.51616 -3.2741 -8.18837e-15 7.04122 2.97912e-15 7.32994)
(0.000457635 9.58663e-05 1.13969e-18 0.000241883 2.48313e-19 0.000349437)
(0.0191318 0.00114947 -9.56441e-17 0.00736288 8.51485e-18 0.013517)
(0.880671 -0.34949 -1.30015e-15 0.716208 2.77377e-16 0.796706)
(5.96177 -2.55031 -1.21015e-14 5.41119 -4.51477e-17 5.73038)
(0 -0 0 0 -0 0)
(0.0062934 0.0012492 4.31565e-17 0.00294423 -6.43649e-19 0.00470175)
(0.193118 -0.0658198 -1.79869e-16 0.130944 -9.64306e-18 0.161244)
(4.06366 -1.70431 2.82856e-15 3.56903 -1.49391e-15 3.85069)
(0 -0 0 0 -0 0)
(0 0 0 0 -0 0)
(0.0460606 -0.0107905 4.8584e-17 0.0235497 1.12161e-18 0.0343776)
(2.32853 -0.95533 7.14106e-15 1.97496 2.16787e-16 2.17543)
(2.436e-08 -1.08553e-12 -5.686e-26 2.43573e-08 9.61163e-27 2.43586e-08)
(0 -0 -0 0 -0 0)
(0.00804744 -0.000745598 -4.75596e-17 0.00323717 2.54285e-18 0.00552184)
(1.08518 -0.434439 -5.09679e-15 0.887109 1.49446e-16 0.999635)
(8.15488e-07 -1.06169e-09 9.54811e-23 8.12023e-07 -5.73942e-24 8.13716e-07)
(0 -0 -0 0 0 0)
(0.00331063 -1.60204e-06 -1.05648e-17 0.00126995 -1.00466e-18 0.00223306)
(0.385575 -0.150173 2.90512e-15 0.303077 -6.95733e-17 0.350358)
(9.25505e-06 -1.10289e-07 -1.00805e-20 8.77793e-06 -4.6005e-22 9.01233e-06)
(6.6272e-09 -1.27781e-13 2.70129e-27 6.62696e-09 4.81254e-29 6.62708e-09)
(0.000847339 9.87516e-06 1.34136e-17 0.000326386 -3.08454e-19 0.000572429)
(0.0795414 -0.0299931 -9.74281e-16 0.0598401 4.69651e-17 0.0713828)
(3.64496e-05 -1.27302e-06 1.48276e-20 2.9712e-05 1.31276e-20 3.30381e-05)
(3.10295e-08 -2.66944e-12 -4.80793e-27 3.10246e-08 -2.36274e-27 3.10271e-08)
(0 -0 -0 0 0 0)
(0.0222513 -0.00805434 1.08294e-16 0.0158967 -1.66671e-17 0.0197505)
(5.72797e-05 -2.61928e-06 6.98105e-20 4.17787e-05 -3.06812e-21 4.94512e-05)
(3.13996e-07 -2.611e-10 -1.91424e-24 3.13477e-07 4.80158e-26 3.13742e-07)
(0 -0 0 0 -0 0)
(0.000641597 -0.000218948 -3.3512e-18 0.000434252 3.51469e-20 0.000564202)
(6.01788e-05 -2.81362e-06 2.99756e-20 4.26566e-05 -2.17727e-20 5.13362e-05)
(2.25817e-06 -1.29016e-08 -9.54098e-23 2.22963e-06 1.65687e-23 2.24419e-06)
(1.55934e-09 -7.99395e-15 6.5131e-28 1.55932e-09 -1.03335e-29 1.55933e-09)
(0 -0 0 0 -0 0)
(5.46323e-05 -2.43624e-06 -1.96874e-19 3.91475e-05 6.45781e-21 4.68186e-05)
(1.65836e-05 -6.17828e-07 1.19142e-20 1.50621e-05 -2.91034e-22 1.58388e-05)
(1.36079e-08 -6.67834e-13 2.73283e-26 1.36065e-08 2.71384e-28 1.36072e-08)
(0 -0 0 0 0 0)
(4.71217e-05 -1.95361e-06 1.64695e-20 3.46027e-05 1.00403e-20 4.08059e-05)
(3.08761e-05 -1.90735e-06 -9.38555e-21 2.57086e-05 -2.33516e-21 2.83472e-05)
(2.9906e-08 -3.29929e-12 -3.53335e-26 2.99001e-08 1.05121e-27 2.99029e-08)
(0 -0 -0 0 0 0)
(4.04212e-05 -1.54672e-06 -4.34584e-21 3.04317e-05 -5.69492e-21 3.53845e-05)
(4.01374e-05 -2.99231e-06 -6.51045e-20 3.13751e-05 4.27991e-21 3.58473e-05)
(1.00055e-07 -3.75705e-11 -2.11839e-24 9.99898e-08 6.74236e-27 1.0002e-07)
(0 -0 -0 0 -0 0)
(3.50475e-05 -1.23562e-06 -6.12061e-20 2.69476e-05 8.06163e-21 3.09667e-05)
(4.38008e-05 -3.4693e-06 8.66159e-20 3.30234e-05 -1.5559e-21 3.85171e-05)
(2.40345e-07 -2.22663e-10 3.46374e-24 2.39959e-07 -2.91628e-26 2.40143e-07)
(3.0513e-10 -4.09078e-16 -7.2786e-30 3.0513e-10 -6.0814e-31 3.0513e-10)
(3.09446e-05 -1.00615e-06 1.05161e-19 2.41684e-05 9.66559e-22 2.75337e-05)
(4.35515e-05 -3.4636e-06 -9.45587e-20 3.23124e-05 -1.59419e-22 3.80319e-05)
(6.31564e-06 -1.5199e-07 -2.21109e-21 6.04407e-06 -4.04509e-24 6.17443e-06)
(8.72017e-09 -3.50464e-13 1.37975e-26 8.71983e-09 2.9355e-28 8.72002e-09)
(2.78487e-05 -8.36788e-07 -1.35033e-20 2.19788e-05 -6.12671e-21 2.48963e-05)
(3.98526e-05 -3.0271e-06 4.79887e-20 2.96907e-05 -1.52032e-21 3.48512e-05)
(1.5067e-05 -8.33027e-07 1.81835e-20 1.35174e-05 -8.7394e-23 1.42657e-05)
(2.24273e-08 -2.47343e-12 -6.69488e-26 2.24249e-08 -5.45436e-28 2.24262e-08)
(2.57065e-05 -7.19367e-07 -1.43921e-20 2.03765e-05 -6.56703e-22 2.30279e-05)
(3.4767e-05 -2.44424e-06 -1.09266e-19 2.63015e-05 1.78006e-22 3.0591e-05)
(2.32871e-05 -1.91225e-06 -7.58659e-20 1.95787e-05 -1.73926e-22 2.13787e-05)
(2.00151e-07 -2.12367e-10 7.10272e-24 1.99946e-07 1.85464e-25 2.00059e-07)
(2.43483e-05 -6.4121e-07 -2.78334e-20 1.92698e-05 1.96571e-21 2.1798e-05)
(2.94165e-05 -1.86716e-06 4.5595e-20 2.27267e-05 6.97764e-21 2.61089e-05)
(2.83551e-05 -2.78726e-06 1.80541e-19 2.27332e-05 4.72584e-21 2.54745e-05)
(1.40088e-06 -1.12046e-08 -4.01827e-22 1.38968e-06 -9.51657e-24 1.39576e-06)
(2.34541e-05 -5.83192e-07 2.96005e-20 1.84561e-05 2.59897e-21 2.09459e-05)
(2.48207e-05 -1.41089e-06 1.13215e-19 1.95585e-05 -1.28811e-21 2.22138e-05)
(2.89023e-05 -2.95911e-06 1.47801e-20 2.27054e-05 -5.13261e-22 2.57398e-05)
(6.89377e-06 -2.81733e-07 6.11292e-21 6.59906e-06 1.60236e-22 6.75677e-06)
(2.26532e-05 -5.28247e-07 2.67985e-20 1.77005e-05 -2.86238e-21 2.01694e-05)
(2.14847e-05 -1.10805e-06 -5.61118e-20 1.71513e-05 -4.8277e-21 1.93343e-05)
(2.64749e-05 -2.6113e-06 2.48574e-20 2.0793e-05 -1.00076e-21 2.35861e-05)
(1.36092e-05 -1.10693e-06 -5.03911e-20 1.23888e-05 -1.88775e-21 1.30344e-05)
(2.16953e-05 -4.65932e-07 -4.90073e-20 1.68488e-05 2.05222e-22 1.92661e-05)
(1.93495e-05 -9.28312e-07 -3.62765e-20 1.55133e-05 1.66734e-21 1.74429e-05)
(2.27602e-05 -2.06181e-06 -1.1266e-19 1.80827e-05 -2.99563e-21 2.03898e-05)
(1.73045e-05 -1.8247e-06 5.94212e-20 1.51748e-05 1.83126e-21 1.62902e-05)
(2.05037e-05 -3.95534e-07 5.65496e-20 1.58607e-05 9.43053e-22 1.81776e-05)
(1.80277e-05 -8.22021e-07 4.02341e-20 1.44134e-05 5.21258e-22 1.6229e-05)
(1.91746e-05 -1.56587e-06 4.66238e-20 1.54508e-05 1.14736e-21 1.7293e-05)
(1.78148e-05 -2.01857e-06 -1.64541e-19 1.53123e-05 -6.84236e-21 1.66121e-05)
(1.91197e-05 -3.20995e-07 -6.7713e-20 1.47655e-05 -3.19452e-21 1.69394e-05)
(1.70625e-05 -7.44638e-07 -6.26587e-20 1.35535e-05 -2.29236e-21 1.53143e-05)
(1.64293e-05 -1.22009e-06 -1.04162e-19 1.33692e-05 -4.00193e-21 1.48865e-05)
(1.64061e-05 -1.8202e-06 2.61433e-19 1.40011e-05 1.28552e-20 1.52414e-05)
(1.76521e-05 -2.4815e-07 3.32212e-20 1.36311e-05 4.37347e-21 1.56394e-05)
(1.61367e-05 -6.69744e-07 4.41566e-20 1.27287e-05 1.83443e-21 1.44375e-05)
(1.45923e-05 -1.009e-06 5.6199e-20 1.19055e-05 4.36004e-21 1.32404e-05)
(1.43986e-05 -1.5017e-06 -9.60113e-20 1.2275e-05 -5.49897e-21 1.33636e-05)
(1.62157e-05 -1.80985e-07 1.7851e-20 1.25279e-05 -1.20775e-21 1.43704e-05)
(1.51016e-05 -5.87192e-07 -6.1709e-20 1.18466e-05 -3.48706e-21 1.34775e-05)
(1.33577e-05 -8.77041e-07 2.1972e-20 1.08632e-05 -1.36426e-21 1.21045e-05)
(1.2579e-05 -1.22494e-06 3.71189e-20 1.07166e-05 2.38471e-21 1.16667e-05)
(1.56723e-05 2.6388e-07 -6.76218e-20 1.21444e-05 2.43316e-22 1.391e-05)
(1.48723e-05 -1.21111e-07 -2.80492e-20 1.14936e-05 -3.16305e-21 1.31822e-05)
(1.39642e-05 -4.99233e-07 1.9822e-20 1.09151e-05 4.31688e-21 1.2442e-05)
(1.23935e-05 -7.77304e-07 -9.20026e-20 1.00164e-05 -4.20354e-21 1.12007e-05)
(1.11947e-05 -1.02941e-06 -2.46151e-20 9.50433e-06 -1.11849e-21 1.03632e-05)
(1.43866e-05 2.83671e-07 7.57323e-20 1.11589e-05 6.12227e-21 1.27742e-05)
(1.36294e-05 -6.80305e-08 -3.0723e-20 1.0533e-05 1.73976e-22 1.20809e-05)
(1.28024e-05 -4.13052e-07 8.00132e-20 9.98451e-06 3.30165e-21 1.1395e-05)
(1.14949e-05 -6.84711e-07 6.27212e-20 9.22781e-06 5.1137e-21 1.03583e-05)
(1.01593e-05 -8.92395e-07 7.21466e-20 8.56934e-06 4.75631e-21 9.37468e-06)
(1.31605e-05 2.9846e-07 -1.88221e-20 1.02209e-05 -3.40714e-21 1.16919e-05)
(1.24732e-05 -2.13094e-08 3.55259e-20 9.63821e-06 2.79808e-21 1.10557e-05)
(1.1687e-05 -3.33686e-07 -2.10582e-20 9.09887e-06 -4.00047e-21 1.03939e-05)
(1.05903e-05 -5.9222e-07 -1.5291e-21 8.45106e-06 -1.65077e-21 9.51857e-06)
(9.31229e-06 -7.84063e-07 -2.86023e-20 7.79012e-06 -3.20266e-21 8.5593e-06)
(1.20007e-05 3.08618e-07 1.10005e-20 9.3346e-06 2.58913e-22 1.06687e-05)
(1.13886e-05 1.95473e-08 -4.58244e-21 8.79997e-06 -9.41459e-22 1.00945e-05)
(1.0649e-05 -2.62808e-07 -5.30942e-20 8.27698e-06 -1.72926e-21 9.46361e-06)
(9.69284e-06 -5.02269e-07 -3.39121e-20 7.69589e-06 -3.00988e-21 8.69296e-06)
(8.54516e-06 -6.86682e-07 -7.74901e-20 7.08605e-06 -4.94364e-21 7.82194e-06)
(1.09117e-05 3.14544e-07 -3.54586e-20 8.50286e-06 -1.50349e-21 9.70825e-06)
(1.03696e-05 5.47681e-08 6.789e-21 8.01448e-06 6.60773e-24 9.19244e-06)
(9.69043e-06 -2.00054e-07 5.28628e-20 7.51945e-06 3.69442e-21 8.60535e-06)
(8.83343e-06 -4.18576e-07 -4.45051e-20 6.98216e-06 -2.81472e-21 7.90689e-06)
(7.81844e-06 -5.94835e-07 2.68434e-20 6.42846e-06 2.45739e-21 7.12841e-06)
(9.89499e-06 3.16538e-07 5.25895e-20 7.72621e-06 5.57506e-21 8.81147e-06)
(9.41544e-06 8.43691e-08 -1.27904e-20 7.281e-06 -2.32446e-23 8.34873e-06)
(8.80347e-06 -1.44839e-07 -5.18773e-20 6.82087e-06 -4.05627e-21 7.81249e-06)
(8.03168e-06 -3.43012e-07 -1.09632e-20 6.32191e-06 1.05278e-21 7.17623e-06)
(7.13055e-06 -5.08939e-07 -7.02588e-21 5.81561e-06 -5.46638e-22 6.47688e-06)
(8.95055e-06 3.15071e-07 2.59316e-20 7.00459e-06 1.46953e-22 7.97837e-06)
(8.52733e-06 1.08631e-07 3.57051e-20 6.59993e-06 3.14156e-21 7.5642e-06)
(7.98151e-06 -9.66662e-08 4.11854e-20 6.17641e-06 3.69042e-21 7.0792e-06)
(7.29114e-06 -2.75835e-07 9.77888e-20 5.71645e-06 7.0433e-21 6.50346e-06)
(6.48868e-06 -4.30371e-07 3.37072e-20 5.25143e-06 3.14685e-21 5.87294e-06)
(8.07716e-06 3.10678e-07 -2.09291e-20 6.33701e-06 -2.84886e-21 7.20785e-06)
(7.70508e-06 1.28004e-07 2.21696e-21 5.9706e-06 -1.49484e-21 6.83848e-06)
(7.22154e-06 -5.50862e-08 -2.08452e-20 5.58346e-06 -2.39627e-21 6.4027e-06)
(6.60937e-06 -2.1661e-07 -3.9736e-20 5.1632e-06 -5.06287e-21 5.88609e-06)
(5.89616e-06 -3.59746e-07 2.32201e-20 4.73696e-06 1.55547e-21 5.31864e-06)
(7.27252e-06 3.0384e-07 -2.8011e-20 5.72169e-06 -1.69282e-21 6.4978e-06)
(6.94708e-06 1.42987e-07 -5.30132e-20 5.39146e-06 -4.08915e-21 6.16992e-06)
(6.52106e-06 -1.96364e-08 -8.12911e-21 5.03951e-06 1.31829e-22 5.78047e-06)
(5.98214e-06 -1.64735e-07 -3.27806e-20 4.65825e-06 -2.27113e-21 5.32012e-06)
(5.35144e-06 -2.96754e-07 -1.04557e-21 4.26957e-06 -1.00581e-21 4.81194e-06)
(6.53415e-06 2.94954e-07 2.99326e-21 5.15665e-06 1.58584e-21 5.84601e-06)
(6.25063e-06 1.53977e-07 2.5941e-20 4.86012e-06 2.8754e-21 5.55599e-06)
(5.87743e-06 1.0181e-08 3.40093e-20 4.54196e-06 2.72126e-21 5.20986e-06)
(5.40585e-06 -1.19666e-07 -3.92092e-21 4.1981e-06 5.83271e-22 4.80198e-06)
(4.85137e-06 -2.41004e-07 -5.71858e-20 3.84574e-06 -4.42417e-21 4.34945e-06)
(5.85955e-06 2.8432e-07 4.63244e-20 4.63981e-06 4.41798e-21 5.25019e-06)
(5.61366e-06 1.61366e-07 -1.93751e-20 4.37472e-06 -2.57024e-21 4.99476e-06)
(5.28822e-06 3.47776e-08 -2.77171e-20 4.08837e-06 -3.19023e-21 4.68845e-06)
(4.87767e-06 -8.09232e-08 2.73585e-20 3.77976e-06 1.99579e-21 4.3288e-06)
(4.39219e-06 -1.91894e-07 5.76245e-20 3.46138e-06 5.7974e-21 3.92723e-06)
(5.24558e-06 2.72337e-07 -6.57337e-22 4.16875e-06 -6.98884e-22 4.70761e-06)
(5.03314e-06 1.65544e-07 -3.3412e-20 3.93265e-06 -2.7072e-21 4.48344e-06)
(4.7508e-06 5.46047e-08 -7.67997e-21 3.67623e-06 -8.69866e-22 4.21366e-06)
(4.39494e-06 -4.80247e-08 -2.43105e-20 3.40038e-06 -2.26113e-21 3.89781e-06)
(3.97144e-06 -1.48995e-07 -2.5895e-21 3.11357e-06 -1.41041e-21 3.54259e-06)
(4.81905e-06 3.44747e-07 -2.9469e-22 3.93373e-06 -1.90327e-22 4.37681e-06)
(4.68896e-06 2.59404e-07 6.7902e-21 3.74098e-06 5.6874e-22 4.21534e-06)
(4.50592e-06 1.67024e-07 1.01311e-20 3.53132e-06 1.44037e-21 4.01911e-06)
(4.26202e-06 7.01797e-08 -3.89361e-20 3.30264e-06 -3.06693e-21 3.78245e-06)
(3.95479e-06 -2.04682e-08 3.34778e-20 3.057e-06 3.39367e-21 3.50608e-06)
(3.5866e-06 -1.11863e-07 -5.60526e-20 2.7993e-06 -4.81105e-21 3.19274e-06)
(4.29741e-06 3.18982e-07 -6.69969e-21 3.52368e-06 -6.73002e-22 3.9109e-06)
(4.18585e-06 2.4586e-07 -9.4427e-21 3.35363e-06 -1.28763e-21 3.77007e-06)
(4.02866e-06 1.66253e-07 -1.07487e-20 3.16805e-06 -1.39297e-21 3.5988e-06)
(3.81879e-06 8.20375e-08 5.00229e-20 2.96485e-06 5.62635e-21 3.39191e-06)
(3.55461e-06 2.27504e-09 -3.71321e-21 2.74691e-06 -1.11003e-21 3.15097e-06)
(3.23529e-06 -8.0033e-08 4.83891e-20 2.51581e-06 5.08668e-21 2.8751e-06)
(3.82767e-06 2.9436e-07 6.57426e-21 3.15327e-06 1.11483e-21 3.49078e-06)
(3.73233e-06 2.31939e-07 -1.71243e-20 3.00372e-06 -1.53976e-21 3.3683e-06)
(3.59781e-06 1.63604e-07 3.15433e-22 2.83999e-06 3.67746e-22 3.2193e-06)
(3.41786e-06 9.06588e-08 2.23819e-20 2.66006e-06 1.40995e-21 3.03903e-06)
(3.19154e-06 2.07523e-08 -3.5158e-20 2.46732e-06 -2.93213e-21 2.82967e-06)
(2.91516e-06 -5.30068e-08 -2.08973e-20 2.26036e-06 -2.38985e-21 2.58711e-06)
(3.40601e-06 2.70984e-07 2.35182e-20 2.81967e-06 2.13915e-21 3.1131e-06)
(3.32454e-06 2.1788e-07 1.21864e-20 2.68835e-06 1.43628e-21 3.00668e-06)
(3.20966e-06 1.59443e-07 2.69358e-20 2.54426e-06 2.58591e-21 2.87733e-06)
(3.05594e-06 9.6491e-08 -2.96413e-20 2.38546e-06 -2.92604e-21 2.72074e-06)
(2.86269e-06 3.5465e-08 5.07107e-20 2.2155e-06 5.42592e-21 2.53935e-06)
(2.62396e-06 -3.03105e-08 2.27611e-20 2.03046e-06 2.49485e-21 2.3264e-06)
(3.02847e-06 2.48937e-07 -2.73392e-20 2.51995e-06 -3.18333e-21 2.77443e-06)
(2.95885e-06 2.03883e-07 -4.55376e-21 2.40479e-06 -7.47278e-22 2.68202e-06)
(2.86094e-06 1.54074e-07 -3.17036e-20 2.27828e-06 -3.82151e-21 2.56994e-06)
(2.72994e-06 9.99627e-08 3.6113e-20 2.13849e-06 4.03725e-21 2.43424e-06)
(2.56536e-06 4.69066e-08 3.59472e-21 1.98894e-06 -1.32438e-22 2.2774e-06)
(2.3595e-06 -1.14734e-08 -1.26199e-20 1.82373e-06 -1.78407e-21 2.0907e-06)
(2.69137e-06 2.28262e-07 1.1032e-20 2.25137e-06 1.53383e-21 2.47157e-06)
(2.63178e-06 1.90147e-07 -1.13846e-20 2.15046e-06 -1.13135e-21 2.39128e-06)
(2.5483e-06 1.4782e-07 -5.95981e-21 2.03948e-06 -2.17328e-22 2.29418e-06)
(2.43685e-06 1.01457e-07 -3.84268e-21 1.91666e-06 -7.62984e-22 2.17675e-06)
(2.29699e-06 5.55028e-08 -1.34361e-20 1.78534e-06 -1.31088e-21 2.04142e-06)
(2.11973e-06 3.94185e-09 -4.03554e-20 1.63801e-06 -3.97979e-21 1.87786e-06)
(2.39077e-06 2.08944e-07 -2.55138e-21 2.01097e-06 1.14583e-22 2.20105e-06)
(2.33981e-06 1.76776e-07 3.01468e-21 1.92267e-06 4.34851e-22 2.13138e-06)
(2.26871e-06 1.40916e-07 1.07415e-20 1.82551e-06 1.24634e-21 2.04737e-06)
(2.17399e-06 1.01329e-07 -2.98586e-21 1.71778e-06 -4.38835e-22 1.94586e-06)
(2.05523e-06 6.16786e-08 8.89703e-21 1.60256e-06 7.42917e-22 1.82915e-06)
(1.90266e-06 1.63529e-08 3.25384e-20 1.47128e-06 3.80474e-21 1.6859e-06)
(2.12337e-06 1.90988e-07 5.25389e-20 1.79627e-06 5.97017e-21 1.96e-06)
(2.07968e-06 1.63905e-07 3.25649e-21 1.71904e-06 4.96928e-22 1.8995e-06)
(2.01908e-06 1.336e-07 2.15439e-21 1.63403e-06 1.1307e-22 1.8268e-06)
(1.93865e-06 9.9896e-08 -1.9155e-20 1.53966e-06 -1.75344e-21 1.73912e-06)
(1.83787e-06 6.58042e-08 -3.26047e-20 1.43868e-06 -3.5259e-21 1.63852e-06)
(1.70662e-06 2.61423e-08 -5.85181e-21 1.3218e-06 -7.63238e-22 1.5131e-06)
(1.88584e-06 1.74365e-07 -1.65902e-20 1.6048e-06 -2.27557e-21 1.7455e-06)
(1.8484e-06 1.51615e-07 7.04744e-21 1.53733e-06 7.25353e-22 1.693e-06)
(1.79674e-06 1.26066e-07 -8.01155e-21 1.46303e-06 -1.10146e-21 1.63012e-06)
(1.72841e-06 9.74542e-08 3.78755e-20 1.38042e-06 4.21035e-21 1.55437e-06)
(1.64285e-06 6.82322e-08 2.67317e-20 1.29192e-06 3.20883e-21 1.46762e-06)
(1.52989e-06 3.36662e-08 2.87185e-20 1.1879e-06 2.98822e-21 1.35777e-06)
(1.69742e-06 1.75422e-07 1.30362e-20 1.48776e-06 1.45119e-21 1.59276e-06)
(1.67516e-06 1.59031e-07 2.0358e-20 1.43426e-06 2.66721e-21 1.55488e-06)
(1.64303e-06 1.39962e-07 -6.29217e-21 1.37536e-06 -8.44592e-22 1.50932e-06)
(1.59889e-06 1.18476e-07 -1.47021e-20 1.31042e-06 -1.61893e-21 1.45487e-06)
(1.54085e-06 9.42455e-08 -2.52535e-20 1.23817e-06 -3.092e-21 1.38947e-06)
(1.46815e-06 6.92722e-08 -7.86071e-21 1.16062e-06 -9.42787e-22 1.31462e-06)
(1.37092e-06 3.92669e-08 -4.88494e-20 1.06812e-06 -5.76317e-21 1.21841e-06)
(1.50796e-06 1.58615e-07 -1.9501e-20 1.32931e-06 -2.38903e-21 1.41875e-06)
(1.48851e-06 1.44924e-07 1.46738e-20 1.28253e-06 1.43233e-21 1.38565e-06)
(1.46078e-06 1.28965e-07 -1.73425e-20 1.23103e-06 -2.00016e-21 1.34602e-06)
(1.42306e-06 1.10935e-07 -4.02922e-21 1.17433e-06 -2.02712e-22 1.29891e-06)
(1.37378e-06 9.04731e-08 8.447e-21 1.11123e-06 8.9158e-22 1.24248e-06)
(1.31196e-06 6.91929e-08 1.76645e-20 1.04328e-06 2.19155e-21 1.17786e-06)
(1.22822e-06 4.32473e-08 -6.68133e-21 9.61064e-07 -3.14748e-22 1.09356e-06)
(1.34039e-06 1.43403e-07 1.44202e-20 1.18855e-06 2.05456e-21 1.26455e-06)
(1.32329e-06 1.31978e-07 -2.76123e-20 1.1476e-06 -3.38231e-21 1.23556e-06)
(1.29936e-06 1.18655e-07 -2.5847e-21 1.10264e-06 -2.86273e-22 1.2011e-06)
(1.2671e-06 1.03559e-07 3.65973e-20 1.05317e-06 4.18875e-21 1.16035e-06)
(1.22525e-06 8.63286e-08 -3.61709e-20 9.98112e-07 -4.23715e-21 1.11166e-06)
(1.17259e-06 6.82481e-08 1.71306e-20 9.3856e-07 1.96898e-21 1.05582e-06)
(1.10039e-06 4.58876e-08 2.15481e-20 8.65517e-07 2.26725e-21 9.8191e-07)
(1.19227e-06 1.29648e-07 2.3389e-20 1.06357e-06 2.83591e-21 1.12796e-06)
(1.1772e-06 1.20128e-07 2.66966e-22 1.02773e-06 1.97651e-22 1.10255e-06)
(1.15647e-06 1.09025e-07 2.92461e-21 9.88474e-07 4.21291e-22 1.07256e-06)
(1.12886e-06 9.64214e-08 -4.28934e-20 9.4536e-07 -5.24036e-21 1.03731e-06)
(1.09332e-06 8.19547e-08 -1.49315e-21 8.97374e-07 -1.91871e-22 9.95331e-07)
(1.0484e-06 6.66348e-08 3.03593e-20 8.45178e-07 3.67405e-21 9.47029e-07)
(9.861e-07 4.74305e-08 -5.98439e-20 7.80323e-07 -7.13229e-21 8.82217e-07)
(1.06145e-06 1.17228e-07 5.86227e-21 9.52678e-07 6.29808e-22 1.00707e-06)
(1.04809e-06 1.09301e-07 -7.8654e-21 9.21273e-07 -8.69006e-22 9.84735e-07)
(1.03012e-06 1.00062e-07 -4.47441e-21 8.87009e-07 -6.03482e-22 9.58628e-07)
(1.00647e-06 8.95657e-08 1.19354e-20 8.4948e-07 1.73247e-21 9.28145e-07)
(9.76265e-07 7.74527e-08 -2.14469e-20 8.07691e-07 -2.58663e-21 8.91949e-07)
(9.37822e-07 6.45104e-08 2.35985e-20 7.61912e-07 2.73667e-21 8.50096e-07)
(8.84029e-07 4.80712e-08 -1.04243e-20 7.04378e-07 -1.02921e-21 7.93261e-07)
(9.45985e-07 1.06037e-07 3.14192e-21 8.54361e-07 2.76156e-22 9.00155e-07)
(9.3411e-07 9.94371e-08 1.70548e-20 8.26814e-07 2.14812e-21 8.80477e-07)
(9.18492e-07 9.17584e-08 -1.53081e-21 7.9691e-07 -1.34313e-22 8.57724e-07)
(8.98171e-07 8.30285e-08 1.01056e-20 7.64219e-07 9.76847e-22 8.31326e-07)
(8.72452e-07 7.29055e-08 -2.92959e-21 7.2783e-07 -3.95192e-22 8.00096e-07)
(8.39501e-07 6.1999e-08 2.36164e-20 6.87692e-07 2.81838e-21 7.63815e-07)
(7.93053e-07 4.79774e-08 -2.56509e-20 6.36739e-07 -2.98389e-21 7.14013e-07)
(8.44093e-07 9.59563e-08 -1.11953e-20 7.67183e-07 -1.49491e-21 8.05611e-07)
(8.33514e-07 9.04635e-08 6.29545e-21 7.43009e-07 7.09666e-22 7.88254e-07)
(8.19848e-07 8.40771e-08 8.22363e-21 7.16839e-07 1.01867e-21 7.68339e-07)
(8.02322e-07 7.68211e-08 -4.0305e-20 6.88339e-07 -4.89881e-21 7.45427e-07)
(7.80425e-07 6.83834e-08 -2.85166e-20 6.56697e-07 -3.53019e-21 7.185e-07)
(7.52135e-07 5.92159e-08 1.90435e-20 6.21524e-07 2.1666e-21 6.87032e-07)
(7.12062e-07 4.73012e-08 -2.46202e-21 5.76509e-07 -2.64512e-22 6.43464e-07)
(7.60964e-07 9.06878e-08 1.18409e-21 7.09186e-07 2.24321e-22 7.35069e-07)
(7.53893e-07 8.68353e-08 -1.34504e-20 6.89557e-07 -1.56842e-21 7.21701e-07)
(7.44461e-07 8.22674e-08 9.31263e-21 6.68355e-07 1.05505e-21 7.06395e-07)
(7.32532e-07 7.69698e-08 -1.43043e-20 6.45517e-07 -1.86451e-21 6.89006e-07)
(7.17433e-07 7.09536e-08 9.65737e-22 6.20725e-07 2.37927e-22 6.69145e-07)
(6.98758e-07 6.39325e-08 -5.54569e-21 5.93219e-07 -4.84549e-22 6.45907e-07)
(6.74448e-07 5.62465e-08 3.65176e-21 5.62432e-07 3.17083e-22 6.18616e-07)
(6.39965e-07 4.61629e-08 -1.21379e-20 5.22813e-07 -1.34259e-21 5.80618e-07)
(6.80314e-07 8.17717e-08 8.14825e-21 6.37481e-07 1.03092e-21 6.5891e-07)
(6.73919e-07 7.85679e-08 2.21509e-20 6.20275e-07 2.83465e-21 6.47091e-07)
(6.65507e-07 7.47746e-08 -1.89209e-20 6.01709e-07 -2.34918e-21 6.33604e-07)
(6.55099e-07 7.03864e-08 -2.05567e-20 5.81811e-07 -2.42054e-21 6.18429e-07)
(6.42075e-07 6.54028e-08 -7.36055e-21 5.60259e-07 -1.00966e-21 6.01209e-07)
(6.26159e-07 5.95728e-08 2.16474e-20 5.36394e-07 2.68604e-21 5.81173e-07)
(6.05272e-07 5.31461e-08 -1.65134e-20 5.09502e-07 -2.07338e-21 5.57528e-07)
(5.75694e-07 4.46486e-08 2.93593e-20 4.74784e-07 3.59659e-21 5.24509e-07)
(6.08784e-07 7.37602e-08 7.32385e-21 5.73566e-07 9.59953e-22 5.91195e-07)
(6.03014e-07 7.10965e-08 -1.01165e-20 5.58491e-07 -1.36334e-21 5.80756e-07)
(5.95545e-07 6.79481e-08 -1.29676e-21 5.42261e-07 -1.33229e-22 5.68901e-07)
(5.86415e-07 6.43072e-08 2.51159e-20 5.24884e-07 3.26145e-21 5.55616e-07)
(5.75119e-07 6.01736e-08 -1.47993e-20 5.06108e-07 -1.94672e-21 5.4063e-07)
(5.6151e-07 5.53339e-08 -5.11831e-21 4.85387e-07 -5.7692e-22 5.2332e-07)
(5.43512e-07 4.99609e-08 -1.58368e-20 4.61887e-07 -1.83619e-21 5.02797e-07)
(5.18219e-07 4.28266e-08 3.24923e-21 4.31591e-07 3.01373e-22 4.74206e-07)
(5.45679e-07 6.66037e-08 1.36645e-20 5.16881e-07 1.66234e-21 5.31326e-07)
(5.4046e-07 6.43866e-08 -6.90496e-21 5.03661e-07 -8.28744e-22 5.22097e-07)
(5.33772e-07 6.17635e-08 3.67144e-21 4.89412e-07 4.17018e-22 5.11623e-07)
(5.25687e-07 5.87308e-08 1.79819e-20 4.74166e-07 2.27704e-21 4.99924e-07)
(5.15807e-07 5.52901e-08 -5.76447e-20 4.57737e-07 -7.12093e-21 4.86803e-07)
(5.04073e-07 5.1258e-08 4.08226e-20 4.39662e-07 4.95579e-21 4.71749e-07)
(4.88476e-07 4.67548e-08 1.64814e-20 4.19068e-07 2.08506e-21 4.53853e-07)
(4.66894e-07 4.07801e-08 3.77101e-21 3.92722e-07 4.01631e-22 4.29162e-07)
(4.89786e-07 6.02114e-08 -1.54331e-20 4.66563e-07 -2.03236e-21 4.78178e-07)
(4.85054e-07 5.83703e-08 1.2071e-21 4.54964e-07 1.7056e-22 4.70019e-07)
(4.79027e-07 5.61869e-08 -6.80408e-21 4.42427e-07 -8.23993e-22 4.60743e-07)
(4.71846e-07 5.36629e-08 1.55871e-20 4.29032e-07 1.88571e-21 4.50424e-07)
(4.63144e-07 5.07962e-08 1.0486e-20 4.14603e-07 1.45361e-21 4.38883e-07)
(4.52924e-07 4.74272e-08 -6.79288e-21 3.98736e-07 -8.39736e-22 4.25685e-07)
(4.39295e-07 4.36375e-08 -7.51036e-21 3.80581e-07 -9.92209e-22 4.09958e-07)
(4.20846e-07 3.86308e-08 -1.23152e-20 3.57643e-07 -1.47737e-21 3.88595e-07)
(4.41456e-07 5.46077e-08 -9.60647e-21 4.22729e-07 -1.1994e-21 4.32136e-07)
(4.37104e-07 5.30655e-08 1.0427e-21 4.1249e-07 1.58385e-22 4.24861e-07)
(4.31639e-07 5.12393e-08 2.34943e-20 4.01432e-07 2.8962e-21 4.16618e-07)
(4.25193e-07 4.91279e-08 -4.75329e-23 3.8961e-07 1.34887e-23 4.07457e-07)
(4.1745e-07 4.67283e-08 -1.805e-20 3.76877e-07 -2.29395e-21 3.97237e-07)
(4.08381e-07 4.38967e-08 3.68629e-20 3.62819e-07 4.60487e-21 3.85519e-07)
(3.96263e-07 4.06778e-08 -6.97106e-21 3.46631e-07 -9.06855e-22 3.71493e-07)
(3.80305e-07 3.64588e-08 2.30879e-20 3.265e-07 2.90556e-21 3.52844e-07)
(4.03691e-07 5.01767e-08 -1.86743e-20 3.88247e-07 -2.33575e-21 3.96047e-07)
(3.9954e-07 4.88359e-08 2.00735e-20 3.78942e-07 2.53937e-21 3.89362e-07)
(3.94394e-07 4.72517e-08 -3.29848e-20 3.68897e-07 -4.23693e-21 3.81805e-07)
(3.88426e-07 4.54328e-08 8.4182e-21 3.5822e-07 1.06421e-21 3.73472e-07)
(3.81334e-07 4.33689e-08 1.07219e-20 3.46741e-07 1.36388e-21 3.64206e-07)
(3.73013e-07 4.09213e-08 9.53267e-21 3.3398e-07 1.02448e-21 3.53524e-07)
(3.61905e-07 3.81199e-08 -2.97796e-20 3.19224e-07 -3.56412e-21 3.40708e-07)
(3.48297e-07 3.45342e-08 1.55986e-20 3.01669e-07 1.78313e-21 3.24579e-07)
(3.76021e-07 4.75243e-08 3.80796e-21 3.68155e-07 4.98782e-22 3.7195e-07)
(3.7311e-07 4.65971e-08 1.05427e-20 3.60542e-07 1.39934e-21 3.66767e-07)
(3.68976e-07 4.54049e-08 -4.13393e-21 3.51868e-07 -5.1467e-22 3.60417e-07)
(3.64063e-07 4.40135e-08 -6.54355e-21 3.4262e-07 -7.85976e-22 3.53368e-07)
(3.58483e-07 4.24256e-08 1.74498e-20 3.32853e-07 2.16374e-21 3.45668e-07)
(3.51828e-07 4.06184e-08 -1.05576e-20 3.22297e-07 -1.32279e-21 3.37066e-07)
(3.44059e-07 3.8474e-08 -3.53269e-20 3.10547e-07 -4.42048e-21 3.27154e-07)
(3.33553e-07 3.59914e-08 4.09448e-20 2.96783e-07 5.1641e-21 3.15095e-07)
(3.21331e-07 3.28904e-08 -2.24094e-20 2.80953e-07 -2.83919e-21 3.00532e-07)
(3.48124e-07 4.40922e-08 1.07307e-21 3.41804e-07 1.27364e-22 3.44879e-07)
(3.45423e-07 4.32882e-08 -3.22393e-21 3.34966e-07 -5.04877e-22 3.40246e-07)
(3.41614e-07 4.22511e-08 2.32512e-20 3.27156e-07 2.9412e-21 3.34532e-07)
(3.37162e-07 4.10397e-08 -1.27731e-20 3.18829e-07 -1.56855e-21 3.28189e-07)
(3.32052e-07 3.96463e-08 -9.03137e-21 3.09953e-07 -1.20124e-21 3.21188e-07)
(3.25853e-07 3.80458e-08 -4.27656e-21 3.00249e-07 -5.12955e-22 3.13259e-07)
(3.18603e-07 3.61449e-08 2.99421e-20 2.8941e-07 3.80056e-21 3.04092e-07)
(3.08827e-07 3.39368e-08 -1.02085e-20 2.767e-07 -1.17138e-21 2.92944e-07)
(2.98231e-07 3.12897e-08 -2.01597e-20 2.62789e-07 -2.61343e-21 2.80245e-07)
(3.18626e-07 4.04673e-08 -2.63617e-22 3.14215e-07 -3.02933e-23 3.16073e-07)
(3.15914e-07 3.97706e-08 -2.11117e-20 3.08026e-07 -2.72517e-21 3.11744e-07)
(3.12363e-07 3.88951e-08 -1.81964e-20 3.011e-07 -2.30959e-21 3.06583e-07)
(3.08317e-07 3.788e-08 6.42364e-21 2.93749e-07 8.45632e-22 3.00905e-07)
(3.03692e-07 3.67137e-08 -4.95824e-21 2.85897e-07 -6.57778e-22 2.94648e-07)
(2.98067e-07 3.53675e-08 1.21779e-20 2.77259e-07 1.61746e-21 2.87533e-07)
(2.91417e-07 3.37443e-08 -2.43911e-20 2.67455e-07 -3.29402e-21 2.79175e-07)
(2.82085e-07 3.17778e-08 7.56522e-20 2.55493e-07 9.62075e-21 2.68541e-07)
(2.71599e-07 2.93773e-08 -3.76157e-20 2.42038e-07 -4.72332e-21 2.56055e-07)
(2.9393e-07 3.73488e-08 -3.77948e-22 2.89905e-07 -2.02893e-23 2.92063e-07)
(2.91461e-07 3.67154e-08 -1.97599e-20 2.84252e-07 -2.4927e-21 2.88199e-07)
(2.88249e-07 3.59205e-08 4.14764e-20 2.77941e-07 5.28318e-21 2.83576e-07)
(2.84565e-07 3.49948e-08 2.63011e-21 2.71216e-07 3.42056e-22 2.78439e-07)
(2.80309e-07 3.39337e-08 -2.38568e-20 2.64033e-07 -2.93837e-21 2.7275e-07)
(2.75166e-07 3.27237e-08 2.77943e-20 2.56207e-07 3.44685e-21 2.6633e-07)
(2.69261e-07 3.13131e-08 -5.30838e-20 2.47567e-07 -6.70752e-21 2.59019e-07)
(2.61594e-07 2.96935e-08 4.87599e-20 2.37643e-07 5.99471e-21 2.50377e-07)
(2.54801e-07 2.79548e-08 -5.74767e-20 2.28139e-07 -7.06653e-21 2.41995e-07)
(2.61766e-07 3.34373e-08 4.98141e-21 2.61294e-07 6.40033e-22 2.60507e-07)
(2.58873e-07 3.2891e-08 1.39921e-20 2.56003e-07 1.85422e-21 2.56512e-07)
(2.55493e-07 3.22351e-08 -1.98751e-20 2.50241e-07 -2.61633e-21 2.51991e-07)
(2.51881e-07 3.14937e-08 -1.2218e-20 2.44219e-07 -1.61089e-21 2.47166e-07)
(2.4794e-07 3.0662e-08 5.91923e-20 2.37911e-07 7.60225e-21 2.42019e-07)
(2.43249e-07 2.97037e-08 -3.88532e-20 2.31001e-07 -4.87486e-21 2.36226e-07)
(2.37577e-07 2.8502e-08 -3.36194e-20 2.22883e-07 -4.23593e-21 2.29158e-07)
(2.28957e-07 2.68891e-08 1.24258e-20 2.12116e-07 1.44739e-21 2.19268e-07)
(2.19027e-07 2.49238e-08 2.04957e-20 1.99884e-07 2.68599e-21 2.07601e-07)
(2.49224e-07 3.16435e-08 2.77413e-21 2.45425e-07 3.41717e-22 2.48648e-07)
(2.46866e-07 3.10651e-08 4.69149e-21 2.40446e-07 5.93527e-22 2.45254e-07)
(2.4385e-07 3.03486e-08 -1.29188e-20 2.34872e-07 -1.59183e-21 2.41149e-07)
(2.40381e-07 2.95162e-08 8.59646e-22 2.28877e-07 1.16061e-22 2.3651e-07)
(2.36475e-07 2.85893e-08 1.71703e-20 2.22605e-07 2.0691e-21 2.31494e-07)
(2.32064e-07 2.75858e-08 2.39392e-20 2.16109e-07 3.11279e-21 2.26176e-07)
(2.2761e-07 2.65449e-08 -3.4421e-20 2.097e-07 -4.28877e-21 2.20912e-07)
(2.23086e-07 2.55251e-08 3.68416e-21 2.03642e-07 4.33479e-22 2.16091e-07)
(2.2194e-07 2.47759e-08 -7.2571e-21 2.00371e-07 -9.54226e-22 2.1406e-07)
(2.0535e-07 2.61599e-08 -5.5248e-21 2.11952e-07 -7.18567e-22 2.05353e-07)