/*--------------------------------*- C++ -*----------------------------------*\
| =========                 |                                                 |
| \\      /  F ield         | OpenFOAM: The Open Source CFD Toolbox           |
|  \\    /   O peration     | Version:  2506                                  |
|   \\  /    A nd           | Website:  www.openfoam.com                      |
|    \\/     M anipulation  |                                                 |
\*---------------------------------------------------------------------------*/
FoamFile
{
    version     2.0;
    format      ascii;
    arch        "LSB;label=32;scalar=64";
    class       volScalarField;
    location    "300";
    object      nut;
}
// * * * * * * * * * * * * * * * * * * * * * * * * * * * * * * * * * * * * * //

dimensions      [0 2 -1 0 0 0 0];

internalField   nonuniform List<scalar> 
1340
(
6.1479e-06
6.1204e-06
6.12292e-06
6.12401e-06
6.14984e-06
6.12068e-06
6.12946e-06
6.13102e-06
6.12344e-06
6.1259e-06
6.15187e-06
6.12087e-06
6.10903e-06
6.11372e-06
6.12194e-06
6.13076e-06
6.13172e-06
6.124e-06
6.12798e-06
6.154e-06
6.12097e-06
6.09884e-06
6.10255e-06
6.10477e-06
6.10623e-06
6.10755e-06
6.10982e-06
6.11484e-06
6.12341e-06
6.1321e-06
6.13242e-06
6.1246e-06
6.13028e-06
6.15621e-06
6.12094e-06
6.07726e-06
6.08102e-06
6.08546e-06
6.09024e-06
6.09504e-06
6.0997e-06
6.10335e-06
6.10548e-06
6.10688e-06
6.10822e-06
6.11067e-06
6.11606e-06
6.12497e-06
6.13348e-06
6.13312e-06
6.12526e-06
6.1328e-06
6.15849e-06
6.12078e-06
6.0794e-06
6.07671e-06
6.07435e-06
6.07265e-06
6.07198e-06
6.07273e-06
6.07477e-06
6.07779e-06
6.0817e-06
6.08624e-06
6.09109e-06
6.09593e-06
6.1006e-06
6.10419e-06
6.10622e-06
6.10755e-06
6.10893e-06
6.1116e-06
6.11739e-06
6.12664e-06
6.13491e-06
6.13382e-06
6.12599e-06
6.13558e-06
6.16085e-06
6.12046e-06
6.09755e-06
6.09644e-06
6.09535e-06
6.09431e-06
6.0933e-06
6.09228e-06
6.09121e-06
6.08998e-06
6.0885e-06
6.08667e-06
6.08444e-06
6.08187e-06
6.07911e-06
6.07642e-06
6.0741e-06
6.0725e-06
6.07201e-06
6.07298e-06
6.07519e-06
6.07837e-06
6.08243e-06
6.08708e-06
6.09199e-06
6.09687e-06
6.10154e-06
6.10506e-06
6.10698e-06
6.10826e-06
6.10968e-06
6.11261e-06
6.11885e-06
6.12842e-06
6.13637e-06
6.13451e-06
6.12679e-06
6.13862e-06
6.16325e-06
6.11996e-06
5.07019e-06
7.61203e-06
6.98279e-06
6.05479e-06
5.98787e-06
6.12592e-06
6.15312e-06
6.15022e-06
6.14428e-06
6.13783e-06
6.13455e-06
6.13177e-06
6.12884e-06
6.12624e-06
6.12396e-06
6.12187e-06
6.12e-06
6.11835e-06
6.11689e-06
6.11561e-06
6.1145e-06
6.11355e-06
6.11273e-06
6.11202e-06
6.11142e-06
6.1109e-06
6.11043e-06
6.10998e-06
6.10955e-06
6.10911e-06
6.10865e-06
6.10816e-06
6.10763e-06
6.10705e-06
6.10641e-06
6.10569e-06
6.10491e-06
6.10405e-06
6.10311e-06
6.10211e-06
6.10105e-06
6.09995e-06
6.09883e-06
6.0977e-06
6.09659e-06
6.09552e-06
6.09449e-06
6.09348e-06
6.09246e-06
6.09135e-06
6.09007e-06
6.08851e-06
6.08658e-06
6.08425e-06
6.0816e-06
6.07879e-06
6.07611e-06
6.07385e-06
6.07237e-06
6.07208e-06
6.07327e-06
6.07566e-06
6.07901e-06
6.08322e-06
6.08798e-06
6.09295e-06
6.09787e-06
6.10254e-06
6.10597e-06
6.10777e-06
6.109e-06
6.1105e-06
6.11372e-06
6.12043e-06
6.13031e-06
6.13786e-06
6.13518e-06
6.12769e-06
6.14195e-06
6.16568e-06
6.11926e-06
7.97876e-06
6.53085e-06
6.08629e-06
6.0112e-06
6.12977e-06
6.15921e-06
6.14934e-06
6.14297e-06
6.13766e-06
6.13423e-06
6.13178e-06
6.12917e-06
6.12672e-06
6.12455e-06
6.12258e-06
6.12079e-06
6.1192e-06
6.11778e-06
6.11652e-06
6.11543e-06
6.11447e-06
6.11365e-06
6.11294e-06
6.11232e-06
6.11179e-06
6.1113e-06
6.11086e-06
6.11042e-06
6.10999e-06
6.10955e-06
6.10907e-06
6.10857e-06
6.10801e-06
6.1074e-06
6.10673e-06
6.10599e-06
6.10517e-06
6.10428e-06
6.10332e-06
6.10229e-06
6.10121e-06
6.1001e-06
6.09897e-06
6.09785e-06
6.09675e-06
6.09569e-06
6.09467e-06
6.09366e-06
6.09263e-06
6.09149e-06
6.09014e-06
6.08849e-06
6.08645e-06
6.08402e-06
6.08128e-06
6.07844e-06
6.07577e-06
6.07359e-06
6.07226e-06
6.07219e-06
6.07361e-06
6.07619e-06
6.07972e-06
6.08408e-06
6.08894e-06
6.09398e-06
6.09892e-06
6.10358e-06
6.1069e-06
6.10859e-06
6.10977e-06
6.11137e-06
6.11494e-06
6.12216e-06
6.13231e-06
6.13937e-06
6.13582e-06
6.1287e-06
6.14559e-06
6.16811e-06
6.11832e-06
6.28364e-06
6.05385e-06
6.06743e-06
6.13482e-06
6.16043e-06
6.14766e-06
6.14044e-06
6.13662e-06
6.13355e-06
6.13129e-06
6.12903e-06
6.1268e-06
6.12481e-06
6.12299e-06
6.12133e-06
6.11983e-06
6.11849e-06
6.11729e-06
6.11624e-06
6.11531e-06
6.11451e-06
6.11381e-06
6.11319e-06
6.11266e-06
6.11217e-06
6.11173e-06
6.11129e-06
6.11087e-06
6.11043e-06
6.10998e-06
6.10949e-06
6.10896e-06
6.10838e-06
6.10774e-06
6.10704e-06
6.10626e-06
6.10541e-06
6.10449e-06
6.1035e-06
6.10245e-06
6.10136e-06
6.10024e-06
6.09911e-06
6.09799e-06
6.09691e-06
6.09587e-06
6.09485e-06
6.09385e-06
6.0928e-06
6.09161e-06
6.09019e-06
6.08843e-06
6.08628e-06
6.08374e-06
6.08093e-06
6.07806e-06
6.07542e-06
6.07333e-06
6.07217e-06
6.07235e-06
6.07401e-06
6.07679e-06
6.0805e-06
6.08501e-06
6.08998e-06
6.09507e-06
6.10005e-06
6.10467e-06
6.10787e-06
6.10943e-06
6.11058e-06
6.11232e-06
6.11628e-06
6.12405e-06
6.13442e-06
6.1409e-06
6.13644e-06
6.12984e-06
6.14956e-06
6.17051e-06
6.11712e-06
6.00699e-06
6.1126e-06
6.14444e-06
6.15544e-06
6.1448e-06
6.13746e-06
6.13491e-06
6.13254e-06
6.13047e-06
6.12852e-06
6.12657e-06
6.12478e-06
6.12315e-06
6.12165e-06
6.12028e-06
6.11905e-06
6.11794e-06
6.11696e-06
6.11608e-06
6.11532e-06
6.11464e-06
6.11405e-06
6.11352e-06
6.11304e-06
6.1126e-06
6.11217e-06
6.11175e-06
6.11133e-06
6.11089e-06
6.11042e-06
6.10991e-06
6.10935e-06
6.10874e-06
6.10807e-06
6.10733e-06
6.10652e-06
6.10563e-06
6.10468e-06
6.10367e-06
6.1026e-06
6.1015e-06
6.10037e-06
6.09925e-06
6.09814e-06
6.09708e-06
6.09605e-06
6.09505e-06
6.09404e-06
6.09295e-06
6.09171e-06
6.0902e-06
6.08833e-06
6.08605e-06
6.08341e-06
6.08052e-06
6.07764e-06
6.07505e-06
6.07308e-06
6.07211e-06
6.07257e-06
6.07448e-06
6.07746e-06
6.08136e-06
6.08602e-06
6.09108e-06
6.09623e-06
6.10123e-06
6.10581e-06
6.10887e-06
6.1103e-06
6.11144e-06
6.11336e-06
6.11777e-06
6.1261e-06
6.13665e-06
6.14242e-06
6.13703e-06
6.13114e-06
6.15387e-06
6.17283e-06
6.11564e-06
6.12815e-06
6.15145e-06
6.14802e-06
6.14041e-06
6.13451e-06
6.13279e-06
6.13115e-06
6.12934e-06
6.12765e-06
6.126e-06
6.12445e-06
6.12303e-06
6.12172e-06
6.12051e-06
6.11941e-06
6.11842e-06
6.11753e-06
6.11673e-06
6.11602e-06
6.11539e-06
6.11483e-06
6.11432e-06
6.11386e-06
6.11343e-06
6.11302e-06
6.11261e-06
6.11219e-06
6.11177e-06
6.11131e-06
6.11082e-06
6.11029e-06
6.10971e-06
6.10906e-06
6.10836e-06
6.10758e-06
6.10674e-06
6.10582e-06
6.10484e-06
6.10381e-06
6.10272e-06
6.10161e-06
6.10049e-06
6.09937e-06
6.09829e-06
6.09724e-06
6.09623e-06
6.09524e-06
6.09422e-06
6.0931e-06
6.09178e-06
6.09017e-06
6.08818e-06
6.08577e-06
6.08302e-06
6.08007e-06
6.07719e-06
6.07467e-06
6.07284e-06
6.0721e-06
6.07286e-06
6.07501e-06
6.0782e-06
6.0823e-06
6.0871e-06
6.09227e-06
6.09747e-06
6.10249e-06
6.107e-06
6.10989e-06
6.1112e-06
6.11234e-06
6.11449e-06
6.11942e-06
6.12834e-06
6.13898e-06
6.14393e-06
6.13757e-06
6.13259e-06
6.15855e-06
6.17501e-06
6.11378e-06
6.14512e-06
6.13852e-06
6.13418e-06
6.13118e-06
6.12987e-06
6.12873e-06
6.12732e-06
6.12597e-06
6.12469e-06
6.12348e-06
6.12236e-06
6.12131e-06
6.12034e-06
6.11946e-06
6.11864e-06
6.11791e-06
6.11724e-06
6.11664e-06
6.11609e-06
6.1156e-06
6.11515e-06
6.11472e-06
6.11432e-06
6.11393e-06
6.11353e-06
6.11313e-06
6.11271e-06
6.11227e-06
6.11179e-06
6.11127e-06
6.1107e-06
6.11008e-06
6.1094e-06
6.10864e-06
6.10783e-06
6.10694e-06
6.10599e-06
6.10498e-06
6.10392e-06
6.10283e-06
6.10172e-06
6.10061e-06
6.09952e-06
6.09846e-06
6.09744e-06
6.09646e-06
6.09547e-06
6.09442e-06
6.09324e-06
6.09181e-06
6.09005e-06
6.08789e-06
6.08532e-06
6.08245e-06
6.07946e-06
6.0766e-06
6.0742e-06
6.07258e-06
6.07217e-06
6.07331e-06
6.07576e-06
6.07921e-06
6.08355e-06
6.08852e-06
6.09378e-06
6.09903e-06
6.10405e-06
6.10844e-06
6.11112e-06
6.11229e-06
6.11347e-06
6.11595e-06
6.12154e-06
6.13113e-06
6.14174e-06
6.14558e-06
6.13814e-06
6.13454e-06
6.16401e-06
6.17721e-06
6.11167e-06
6.13087e-06
6.12864e-06
6.12745e-06
6.12669e-06
6.12593e-06
6.12496e-06
6.12401e-06
6.12312e-06
6.12228e-06
6.1215e-06
6.12076e-06
6.12007e-06
6.11942e-06
6.11883e-06
6.11828e-06
6.11777e-06
6.11731e-06
6.11687e-06
6.11646e-06
6.11608e-06
6.1157e-06
6.11534e-06
6.11497e-06
6.11459e-06
6.1142e-06
6.11379e-06
6.11335e-06
6.11288e-06
6.11236e-06
6.1118e-06
6.11118e-06
6.1105e-06
6.10976e-06
6.10895e-06
6.10808e-06
6.10715e-06
6.10616e-06
6.10512e-06
6.10405e-06
6.10295e-06
6.10185e-06
6.10077e-06
6.09972e-06
6.0987e-06
6.09771e-06
6.09674e-06
6.09574e-06
6.09463e-06
6.09333e-06
6.09175e-06
6.08978e-06
6.08741e-06
6.08466e-06
6.08166e-06
6.07864e-06
6.07587e-06
6.07365e-06
6.07235e-06
6.07239e-06
6.07399e-06
6.0768e-06
6.08057e-06
6.08517e-06
6.09033e-06
6.09568e-06
6.10098e-06
6.10596e-06
6.11016e-06
6.11256e-06
6.11358e-06
6.11487e-06
6.11783e-06
6.12424e-06
6.13455e-06
6.14493e-06
6.1473e-06
6.13874e-06
6.13744e-06
6.17036e-06
6.17922e-06
6.10892e-06
6.12545e-06
6.12491e-06
6.12441e-06
6.12387e-06
6.12326e-06
6.12265e-06
6.12207e-06
6.12153e-06
6.12101e-06
6.12051e-06
6.12004e-06
6.1196e-06
6.11918e-06
6.11878e-06
6.1184e-06
6.11804e-06
6.1177e-06
6.11736e-06
6.11703e-06
6.1167e-06
6.11636e-06
6.11601e-06
6.11565e-06
6.11527e-06
6.11487e-06
6.11443e-06
6.11395e-06
6.11343e-06
6.11287e-06
6.11225e-06
6.11157e-06
6.11084e-06
6.11004e-06
6.10918e-06
6.10826e-06
6.10729e-06
6.10627e-06
6.10522e-06
6.10414e-06
6.10306e-06
6.10199e-06
6.10095e-06
6.09994e-06
6.09896e-06
6.098e-06
6.09702e-06
6.09598e-06
6.09477e-06
6.09332e-06
6.09154e-06
6.08935e-06
6.08675e-06
6.08383e-06
6.08075e-06
6.07775e-06
6.07511e-06
6.07314e-06
6.07224e-06
6.07281e-06
6.07486e-06
6.07803e-06
6.08213e-06
6.08698e-06
6.0923e-06
6.09774e-06
6.10305e-06
6.10797e-06
6.11192e-06
6.11402e-06
6.11493e-06
6.11641e-06
6.11998e-06
6.12731e-06
6.13828e-06
6.14819e-06
6.14887e-06
6.13939e-06
6.14131e-06
6.17712e-06
6.18077e-06
6.10567e-06
6.12334e-06
6.12356e-06
6.12297e-06
6.12265e-06
6.12228e-06
6.12193e-06
6.12158e-06
6.12125e-06
6.12092e-06
6.1206e-06
6.12029e-06
6.11999e-06
6.1197e-06
6.11941e-06
6.11913e-06
6.11884e-06
6.11856e-06
6.11828e-06
6.11798e-06
6.11768e-06
6.11737e-06
6.11704e-06
6.11669e-06
6.11631e-06
6.1159e-06
6.11546e-06
6.11498e-06
6.11446e-06
6.11389e-06
6.11327e-06
6.11259e-06
6.11186e-06
6.11107e-06
6.11022e-06
6.10931e-06
6.10836e-06
6.10736e-06
6.10633e-06
6.10528e-06
6.10422e-06
6.10317e-06
6.10214e-06
6.10114e-06
6.10017e-06
6.09923e-06
6.09828e-06
6.09727e-06
6.09614e-06
6.0948e-06
6.09316e-06
6.09114e-06
6.08871e-06
6.08591e-06
6.08285e-06
6.07973e-06
6.0768e-06
6.07435e-06
6.07271e-06
6.0723e-06
6.07344e-06
6.07594e-06
6.07948e-06
6.08389e-06
6.08899e-06
6.09444e-06
6.09995e-06
6.10527e-06
6.11006e-06
6.11371e-06
6.1155e-06
6.11636e-06
6.11815e-06
6.12245e-06
6.13078e-06
6.1423e-06
6.15145e-06
6.15023e-06
6.14019e-06
6.14625e-06
6.18421e-06
6.18171e-06
6.1019e-06
6.12234e-06
6.1226e-06
6.12214e-06
6.12196e-06
6.12176e-06
6.12157e-06
6.12137e-06
6.12117e-06
6.12097e-06
6.12077e-06
6.12056e-06
6.12035e-06
6.12014e-06
6.11991e-06
6.11968e-06
6.11944e-06
6.11919e-06
6.11892e-06
6.11864e-06
6.11834e-06
6.11801e-06
6.11766e-06
6.11728e-06
6.11687e-06
6.11642e-06
6.11594e-06
6.11541e-06
6.11483e-06
6.1142e-06
6.11353e-06
6.11279e-06
6.11201e-06
6.11117e-06
6.11028e-06
6.10935e-06
6.10837e-06
6.10737e-06
6.10634e-06
6.10531e-06
6.10429e-06
6.10328e-06
6.10231e-06
6.10136e-06
6.10043e-06
6.0995e-06
6.09853e-06
6.09746e-06
6.0962e-06
6.09467e-06
6.0928e-06
6.09052e-06
6.08785e-06
6.08486e-06
6.08171e-06
6.07862e-06
6.07583e-06
6.07364e-06
6.07243e-06
6.0726e-06
6.07432e-06
6.07725e-06
6.08116e-06
6.08589e-06
6.0912e-06
6.09677e-06
6.10232e-06
6.10761e-06
6.11222e-06
6.11552e-06
6.11701e-06
6.1179e-06
6.12013e-06
6.12532e-06
6.13469e-06
6.1466e-06
6.15465e-06
6.15134e-06
6.14124e-06
6.15237e-06
6.19152e-06
6.1819e-06
6.09765e-06
6.12223e-06
6.12239e-06
6.12214e-06
6.12204e-06
6.12193e-06
6.12181e-06
6.12169e-06
6.12155e-06
6.12141e-06
6.12126e-06
6.1211e-06
6.12092e-06
6.12073e-06
6.12053e-06
6.12031e-06
6.12007e-06
6.11982e-06
6.11954e-06
6.11924e-06
6.11891e-06
6.11856e-06
6.11817e-06
6.11775e-06
6.1173e-06
6.1168e-06
6.11626e-06
6.11568e-06
6.11505e-06
6.11437e-06
6.11364e-06
6.11286e-06
6.11204e-06
6.11116e-06
6.11025e-06
6.1093e-06
6.10833e-06
6.10734e-06
6.10634e-06
6.10535e-06
6.10437e-06
6.10343e-06
6.1025e-06
6.1016e-06
6.10069e-06
6.09975e-06
6.09872e-06
6.09752e-06
6.09608e-06
6.09432e-06
6.09218e-06
6.08965e-06
6.08676e-06
6.08363e-06
6.08045e-06
6.07744e-06
6.07486e-06
6.07304e-06
6.07235e-06
6.0732e-06
6.07546e-06
6.07883e-06
6.08311e-06
6.08813e-06
6.09363e-06
6.0993e-06
6.10487e-06
6.11008e-06
6.11445e-06
6.11735e-06
6.11857e-06
6.11961e-06
6.12244e-06
6.12867e-06
6.13908e-06
6.15114e-06
6.15771e-06
6.1522e-06
6.14272e-06
6.15976e-06
6.19892e-06
6.18112e-06
6.09263e-06
6.12263e-06
6.12273e-06
6.12257e-06
6.1225e-06
6.12242e-06
6.12232e-06
6.12222e-06
6.1221e-06
6.12197e-06
6.12183e-06
6.12167e-06
6.12149e-06
6.1213e-06
6.12108e-06
6.12085e-06
6.1206e-06
6.12032e-06
6.12001e-06
6.11968e-06
6.11932e-06
6.11892e-06
6.11849e-06
6.11803e-06
6.11752e-06
6.11698e-06
6.11639e-06
6.11575e-06
6.11507e-06
6.11435e-06
6.11358e-06
6.11277e-06
6.11192e-06
6.11103e-06
6.11012e-06
6.10918e-06
6.10823e-06
6.10727e-06
6.10632e-06
6.10539e-06
6.10448e-06
6.10359e-06
6.10272e-06
6.10184e-06
6.10093e-06
6.09993e-06
6.09878e-06
6.09741e-06
6.09574e-06
6.09371e-06
6.09128e-06
6.08849e-06
6.08542e-06
6.08221e-06
6.07907e-06
6.07622e-06
6.07394e-06
6.07259e-06
6.07258e-06
6.0741e-06
6.07688e-06
6.08067e-06
6.08531e-06
6.0906e-06
6.09626e-06
6.102e-06
6.10757e-06
6.11265e-06
6.11669e-06
6.11916e-06
6.12017e-06
6.12149e-06
6.1251e-06
6.1325e-06
6.14394e-06
6.15584e-06
6.16051e-06
6.15278e-06
6.1447e-06
6.16838e-06
6.2062e-06
6.17914e-06
6.0879e-06
6.12324e-06
6.12333e-06
6.12318e-06
6.12312e-06
6.12303e-06
6.12293e-06
6.12281e-06
6.12268e-06
6.12254e-06
6.12238e-06
6.1222e-06
6.122e-06
6.12178e-06
6.12154e-06
6.12128e-06
6.12099e-06
6.12068e-06
6.12034e-06
6.11996e-06
6.11956e-06
6.11912e-06
6.11864e-06
6.11813e-06
6.11758e-06
6.11699e-06
6.11636e-06
6.11569e-06
6.11498e-06
6.11423e-06
6.11344e-06
6.11261e-06
6.11176e-06
6.11088e-06
6.10999e-06
6.10908e-06
6.10817e-06
6.10727e-06
6.10639e-06
6.10552e-06
6.10466e-06
6.10381e-06
6.10295e-06
6.10205e-06
6.10107e-06
6.09995e-06
6.09861e-06
6.09699e-06
6.09504e-06
6.09271e-06
6.09002e-06
6.08702e-06
6.08384e-06
6.08064e-06
6.07764e-06
6.07507e-06
6.07323e-06
6.0725e-06
6.07326e-06
6.07544e-06
6.07873e-06
6.08295e-06
6.08794e-06
6.09347e-06
6.09925e-06
6.10502e-06
6.11053e-06
6.11539e-06
6.11902e-06
6.12106e-06
6.12202e-06
6.12387e-06
6.12851e-06
6.13723e-06
6.14949e-06
6.1607e-06
6.16294e-06
6.15321e-06
6.14773e-06
6.17872e-06
6.2131e-06
6.17634e-06
6.08497e-06
6.12368e-06
6.12378e-06
6.12361e-06
6.12353e-06
6.12343e-06
6.12331e-06
6.12318e-06
6.12303e-06
6.12286e-06
6.12267e-06
6.12247e-06
6.12224e-06
6.12199e-06
6.12172e-06
6.12142e-06
6.12109e-06
6.12074e-06
6.12036e-06
6.11995e-06
6.1195e-06
6.11902e-06
6.1185e-06
6.11795e-06
6.11736e-06
6.11673e-06
6.11607e-06
6.11537e-06
6.11464e-06
6.11387e-06
6.11308e-06
6.11226e-06
6.11142e-06
6.11057e-06
6.10972e-06
6.10886e-06
6.10802e-06
6.10719e-06
6.10638e-06
6.10558e-06
6.10479e-06
6.10399e-06
6.10314e-06
6.10221e-06
6.10114e-06
6.09987e-06
6.09833e-06
6.09647e-06
6.09423e-06
6.09162e-06
6.08868e-06
6.08551e-06
6.08226e-06
6.07909e-06
6.07623e-06
6.07394e-06
6.07258e-06
6.07257e-06
6.07402e-06
6.07673e-06
6.08045e-06
6.08504e-06
6.09032e-06
6.09603e-06
6.10191e-06
6.10771e-06
6.11316e-06
6.11779e-06
6.121e-06
6.12262e-06
6.12352e-06
6.12587e-06
6.13151e-06
6.14148e-06
6.15453e-06
6.16503e-06
6.16489e-06
6.15313e-06
6.15034e-06
6.18832e-06
6.21915e-06
6.17199e-06
6.08172e-06
6.12407e-06
6.12421e-06
6.12398e-06
6.12387e-06
6.12373e-06
6.12358e-06
6.12341e-06
6.12321e-06
6.123e-06
6.12277e-06
6.12251e-06
6.12224e-06
6.12194e-06
6.12162e-06
6.12127e-06
6.12089e-06
6.12049e-06
6.12006e-06
6.1196e-06
6.11912e-06
6.1186e-06
6.11806e-06
6.11748e-06
6.11688e-06
6.11625e-06
6.11559e-06
6.11491e-06
6.1142e-06
6.11348e-06
6.11275e-06
6.112e-06
6.11125e-06
6.11049e-06
6.10974e-06
6.10899e-06
6.10824e-06
6.10749e-06
6.10674e-06
6.10595e-06
6.10511e-06
6.1042e-06
6.10316e-06
6.10195e-06
6.10051e-06
6.09881e-06
6.09678e-06
6.09443e-06
6.09175e-06
6.08879e-06
6.08566e-06
6.08248e-06
6.07941e-06
6.07665e-06
6.07444e-06
6.07308e-06
6.07289e-06
6.0741e-06
6.07667e-06
6.08026e-06
6.08471e-06
6.08988e-06
6.09556e-06
6.10149e-06
6.10742e-06
6.11311e-06
6.11818e-06
6.12211e-06
6.12451e-06
6.1258e-06
6.12747e-06
6.13158e-06
6.13958e-06
6.15155e-06
6.16454e-06
6.17169e-06
6.16647e-06
6.15436e-06
6.1628e-06
6.20837e-06
6.22597e-06
6.16644e-06
6.0839e-06
)
;

boundaryField
{
    inlet
    {
        type            freestream;
        freestreamValue uniform 1e-05;
        value           uniform 1e-05;
    }
    outlet
    {
        type            freestream;
        freestreamValue uniform 1e-05;
        value           nonuniform List<scalar> 
82
(
6.12407e-06
6.12398e-06
6.12421e-06
6.12387e-06
6.12373e-06
6.12358e-06
6.12341e-06
6.12321e-06
6.123e-06
6.12277e-06
6.12251e-06
6.12224e-06
6.12194e-06
6.12162e-06
6.12127e-06
6.12089e-06
6.12049e-06
6.12006e-06
6.1196e-06
6.11912e-06
6.1186e-06
6.11806e-06
6.11748e-06
6.11688e-06
6.11625e-06
6.11559e-06
6.11491e-06
6.1142e-06
6.11348e-06
6.11275e-06
6.112e-06
6.11125e-06
6.11049e-06
6.10974e-06
6.10899e-06
6.10824e-06
6.10749e-06
6.10674e-06
6.10595e-06
6.10511e-06
6.1042e-06
6.10316e-06
6.10195e-06
6.10051e-06
6.09881e-06
6.09678e-06
6.09443e-06
6.09175e-06
6.08879e-06
6.08566e-06
6.08248e-06
6.07941e-06
6.07665e-06
6.07444e-06
6.07308e-06
6.07289e-06
6.0741e-06
6.07667e-06
6.08026e-06
6.08471e-06
6.08988e-06
6.09556e-06
6.10149e-06
6.10742e-06
6.11311e-06
6.11818e-06
6.12211e-06
6.12451e-06
6.1258e-06
6.12747e-06
6.13158e-06
6.13958e-06
6.15155e-06
6.16454e-06
6.17169e-06
6.16647e-06
6.15436e-06
6.1628e-06
6.20837e-06
6.22597e-06
6.16644e-06
6.0839e-06
)
;
    }
    walls
    {
        type            nutUSpaldingWallFunction;
        value           nonuniform List<scalar> 0();
    }
    frontAndBack
    {
        type            empty;
    }
    procBoundary3to2
    {
        type            processor;
        value           nonuniform List<scalar> 
88
(
6.14606e-06
6.12005e-06
6.12243e-06
6.12229e-06
6.12229e-06
6.12821e-06
6.13033e-06
6.13033e-06
6.10831e-06
6.11268e-06
6.12057e-06
6.12057e-06
6.09803e-06
6.10177e-06
6.10408e-06
6.10561e-06
6.10692e-06
6.10692e-06
6.07677e-06
6.0804e-06
6.08473e-06
6.08944e-06
6.0942e-06
6.0942e-06
6.07966e-06
6.07699e-06
6.07459e-06
6.0728e-06
6.07198e-06
6.07253e-06
6.0744e-06
6.0744e-06
6.0974e-06
6.09628e-06
6.09519e-06
6.09413e-06
6.09312e-06
6.09211e-06
6.09105e-06
6.08987e-06
6.08846e-06
6.08672e-06
6.08459e-06
6.08211e-06
6.08211e-06
3.73003e-06
8.08389e-06
7.18284e-06
6.03434e-06
6.00738e-06
6.11961e-06
6.14477e-06
6.15101e-06
6.14368e-06
6.13749e-06
6.13433e-06
6.13117e-06
6.12804e-06
6.12539e-06
6.12303e-06
6.12088e-06
6.11898e-06
6.11731e-06
6.11585e-06
6.11459e-06
6.11349e-06
6.11256e-06
6.11177e-06
6.11109e-06
6.11051e-06
6.11001e-06
6.10955e-06
6.10911e-06
6.10868e-06
6.10823e-06
6.10776e-06
6.10725e-06
6.10669e-06
6.10607e-06
6.10539e-06
6.10463e-06
6.1038e-06
6.1029e-06
6.10192e-06
6.10088e-06
6.0998e-06
6.09868e-06
6.09868e-06
)
;
    }
    procBoundary3to6
    {
        type            processor;
        value           uniform 1.61316e-08;
    }
    procBoundary3to7
    {
        type            processor;
        value           nonuniform List<scalar> 
16
(
6.13695e-10
6.28037e-06
7.95728e-06
6.22144e-06
6.01225e-06
6.13228e-06
6.13763e-06
6.1265e-06
6.1265e-06
6.12425e-06
6.1227e-06
6.12253e-06
6.12284e-06
6.12341e-06
6.12387e-06
6.12433e-06
)
;
    }
}


// ************************************************************************* //
