/*--------------------------------*- C++ -*----------------------------------*\
| =========                 |                                                 |
| \\      /  F ield         | OpenFOAM: The Open Source CFD Toolbox           |
|  \\    /   O peration     | Version:  2506                                  |
|   \\  /    A nd           | Website:  www.openfoam.com                      |
|    \\/     M anipulation  |                                                 |
\*---------------------------------------------------------------------------*/
FoamFile
{
    version     2.0;
    format      ascii;
    arch        "LSB;label=32;scalar=64";
    class       volScalarField;
    location    "300";
    object      turbulenceProperties:epsilon;
}
// * * * * * * * * * * * * * * * * * * * * * * * * * * * * * * * * * * * * * //

dimensions      [0 2 -3 0 0 0 0];

internalField   nonuniform List<scalar> 
1340
(
3.78095e-10
1.46253e-09
1.88396e-11
3.16405e-10
3.7579e-10
1.4669e-09
2.28807e-11
5.91758e-11
1.80948e-11
3.18798e-10
3.76079e-10
1.46835e-09
7.82909e-11
6.06718e-11
5.34002e-11
2.51706e-11
6.19469e-11
1.76624e-11
3.21389e-10
3.7817e-10
1.46826e-09
1.60042e-10
1.37469e-10
1.20277e-10
1.05307e-10
9.07631e-11
7.80485e-11
6.1268e-11
5.46447e-11
2.77486e-11
6.46747e-11
1.74905e-11
3.24089e-10
3.81476e-10
1.4675e-09
3.15199e-10
2.77037e-10
2.41391e-10
2.0901e-10
1.79521e-10
1.53836e-10
1.33161e-10
1.17376e-10
1.03484e-10
8.98734e-11
7.78824e-11
6.20095e-11
5.60571e-11
3.05983e-11
6.72864e-11
1.75526e-11
3.26665e-10
3.85516e-10
1.46628e-09
5.83764e-10
5.34801e-10
4.8817e-10
4.44136e-10
4.02726e-10
3.63724e-10
3.26714e-10
2.91403e-10
2.57821e-10
2.26279e-10
1.97467e-10
1.70971e-10
1.47703e-10
1.28915e-10
1.14512e-10
1.0169e-10
8.90284e-11
7.77667e-11
6.28796e-11
5.76188e-11
3.37096e-11
6.97259e-11
1.78305e-11
3.29068e-10
3.89907e-10
1.46406e-09
1.06049e-09
1.01245e-09
9.64259e-10
9.1614e-10
8.68371e-10
8.21102e-10
7.74536e-10
7.28815e-10
6.84026e-10
6.4012e-10
5.97084e-10
5.54902e-10
5.13711e-10
4.73727e-10
4.35272e-10
3.98603e-10
3.6377e-10
3.30642e-10
2.98914e-10
2.68407e-10
2.39184e-10
2.11567e-10
1.86182e-10
1.62579e-10
1.41682e-10
1.24748e-10
1.11691e-10
9.99246e-11
8.82206e-11
7.7697e-11
6.38749e-11
5.93218e-11
3.70733e-11
7.19326e-11
1.8314e-11
3.31204e-10
3.94079e-10
1.46153e-09
9.04077e-10
1.0857e-09
8.71846e-10
9.16201e-10
9.14983e-10
9.99089e-10
1.04562e-09
1.09237e-09
1.13391e-09
1.17392e-09
1.21133e-09
1.24578e-09
1.2762e-09
1.30261e-09
1.32582e-09
1.34442e-09
1.35896e-09
1.36952e-09
1.37622e-09
1.37928e-09
1.37877e-09
1.37493e-09
1.36816e-09
1.3587e-09
1.34675e-09
1.33252e-09
1.31636e-09
1.29852e-09
1.27897e-09
1.2581e-09
1.23588e-09
1.2125e-09
1.18806e-09
1.16257e-09
1.13617e-09
1.10887e-09
1.08063e-09
1.05165e-09
1.02173e-09
9.90994e-10
9.59554e-10
9.27296e-10
8.94321e-10
8.60621e-10
8.2641e-10
7.91699e-10
7.56661e-10
7.21523e-10
6.86375e-10
6.5142e-10
6.16814e-10
5.82581e-10
5.4871e-10
5.15205e-10
4.82034e-10
4.49313e-10
4.17209e-10
3.85995e-10
3.55904e-10
3.27013e-10
2.9925e-10
2.72402e-10
2.46371e-10
2.21252e-10
1.97351e-10
1.7522e-10
1.5439e-10
1.35801e-10
1.20674e-10
1.08915e-10
9.81847e-11
8.7441e-11
7.7666e-11
6.49917e-11
6.11623e-11
4.06802e-11
7.38666e-11
1.89903e-11
3.3284e-10
3.97801e-10
1.4591e-09
1.08416e-09
6.92039e-10
5.82134e-10
6.91481e-10
7.16149e-10
7.62546e-10
7.91311e-10
8.23683e-10
8.53123e-10
8.81533e-10
9.07851e-10
9.31849e-10
9.53296e-10
9.72085e-10
9.88446e-10
1.00168e-09
1.01221e-09
1.02024e-09
1.02552e-09
1.0283e-09
1.02881e-09
1.02709e-09
1.02337e-09
1.0179e-09
1.01074e-09
1.0021e-09
9.92263e-10
9.81149e-10
9.68997e-10
9.55931e-10
9.41947e-10
9.27199e-10
9.1166e-10
8.9544e-10
8.78531e-10
8.60901e-10
8.42623e-10
8.23673e-10
8.03995e-10
7.83601e-10
7.62488e-10
7.40677e-10
7.18086e-10
6.94763e-10
6.70837e-10
6.46245e-10
6.21195e-10
5.95787e-10
5.7014e-10
5.44422e-10
5.18739e-10
4.93106e-10
4.67519e-10
4.4197e-10
4.16397e-10
3.90885e-10
3.65552e-10
3.40631e-10
3.1632e-10
2.92705e-10
2.69768e-10
2.47369e-10
2.2546e-10
2.04151e-10
1.83722e-10
1.64651e-10
1.4645e-10
1.30087e-10
1.16699e-10
1.06181e-10
9.64651e-11
8.66799e-11
7.76704e-11
6.62241e-11
6.31361e-11
4.45086e-11
7.54971e-11
1.98214e-11
3.34263e-10
4.00629e-10
1.45783e-09
6.31544e-10
4.95491e-10
4.59829e-10
5.47222e-10
5.57232e-10
5.8542e-10
6.05787e-10
6.28049e-10
6.48589e-10
6.6809e-10
6.85802e-10
7.02324e-10
7.16954e-10
7.29769e-10
7.40808e-10
7.49959e-10
7.57203e-10
7.62879e-10
7.66713e-10
7.68779e-10
7.6949e-10
7.68765e-10
7.66746e-10
7.63421e-10
7.59185e-10
7.54013e-10
7.47934e-10
7.41118e-10
7.33643e-10
7.25555e-10
7.16903e-10
7.07764e-10
6.98091e-10
6.87966e-10
6.77396e-10
6.66327e-10
6.5477e-10
6.42706e-10
6.30111e-10
6.16909e-10
6.03123e-10
5.88719e-10
5.73593e-10
5.5786e-10
5.41468e-10
5.24423e-10
5.06908e-10
4.88939e-10
4.70656e-10
4.52176e-10
4.33562e-10
4.14841e-10
3.96e-10
3.76982e-10
3.57713e-10
3.38252e-10
3.1867e-10
2.99134e-10
2.79833e-10
2.60863e-10
2.42226e-10
2.2384e-10
2.05688e-10
1.87895e-10
1.70688e-10
1.54462e-10
1.38751e-10
1.2453e-10
1.12803e-10
1.03463e-10
9.47494e-11
8.59205e-11
7.77006e-11
6.75738e-11
6.52478e-11
4.85352e-11
7.68248e-11
2.08125e-11
3.34573e-10
4.03201e-10
1.45864e-09
4.62538e-10
3.97338e-10
3.72989e-10
4.29672e-10
4.34066e-10
4.53467e-10
4.67529e-10
4.82554e-10
4.96276e-10
5.09283e-10
5.2112e-10
5.32057e-10
5.4177e-10
5.50268e-10
5.57594e-10
5.63746e-10
5.68595e-10
5.72442e-10
5.75103e-10
5.76648e-10
5.77331e-10
5.77104e-10
5.75999e-10
5.74127e-10
5.7176e-10
5.68643e-10
5.65035e-10
5.61036e-10
5.5654e-10
5.51705e-10
5.46503e-10
5.4104e-10
5.35192e-10
5.29107e-10
5.22708e-10
5.15966e-10
5.08907e-10
5.01482e-10
4.93632e-10
4.85359e-10
4.76601e-10
4.67312e-10
4.57469e-10
4.47073e-10
4.3607e-10
4.24541e-10
4.12541e-10
4.00112e-10
3.87383e-10
3.74415e-10
3.61271e-10
3.47949e-10
3.34441e-10
3.20614e-10
3.06441e-10
2.91924e-10
2.77044e-10
2.62012e-10
2.46954e-10
2.31944e-10
2.17048e-10
2.02206e-10
1.87394e-10
1.72759e-10
1.58468e-10
1.44836e-10
1.31433e-10
1.19218e-10
1.09053e-10
1.00819e-10
9.30725e-11
8.5182e-11
7.77796e-11
6.90425e-11
6.75007e-11
5.26655e-11
7.78827e-11
2.17676e-11
3.34223e-10
4.04265e-10
1.46569e-09
3.63953e-10
3.1303e-10
2.92031e-10
3.30191e-10
3.32848e-10
3.45883e-10
3.55049e-10
3.64827e-10
3.73549e-10
3.82028e-10
3.89675e-10
3.96653e-10
4.02981e-10
4.08397e-10
4.1316e-10
4.17248e-10
4.20448e-10
4.22959e-10
4.24856e-10
4.26054e-10
4.26714e-10
4.26789e-10
4.26353e-10
4.25538e-10
4.24302e-10
4.22668e-10
4.2087e-10
4.18734e-10
4.16286e-10
4.13641e-10
4.10953e-10
4.07979e-10
4.04881e-10
4.015e-10
3.98001e-10
3.94488e-10
3.90477e-10
3.86309e-10
3.81899e-10
3.7718e-10
3.71995e-10
3.66491e-10
3.60509e-10
3.53998e-10
3.47131e-10
3.39711e-10
3.31918e-10
3.23805e-10
3.1535e-10
3.06752e-10
2.9794e-10
2.8893e-10
2.7975e-10
2.70174e-10
2.60174e-10
2.49792e-10
2.389e-10
2.27681e-10
2.16323e-10
2.04787e-10
1.93212e-10
1.81593e-10
1.69841e-10
1.58118e-10
1.46551e-10
1.35378e-10
1.24173e-10
1.13905e-10
1.05254e-10
9.81096e-11
9.13273e-11
8.43988e-11
7.78949e-11
7.06526e-11
6.99741e-11
5.70239e-11
7.86519e-11
2.36258e-11
3.30063e-10
4.08483e-10
1.47358e-09
2.67453e-10
2.29987e-10
2.13784e-10
2.38688e-10
2.39341e-10
2.47337e-10
2.52348e-10
2.57448e-10
2.62933e-10
2.67335e-10
2.71529e-10
2.75873e-10
2.79248e-10
2.82156e-10
2.85134e-10
2.87692e-10
2.89225e-10
2.91058e-10
2.92307e-10
2.93197e-10
2.93952e-10
2.94097e-10
2.94351e-10
2.94378e-10
2.9397e-10
2.93591e-10
2.93112e-10
2.92459e-10
2.91719e-10
2.90726e-10
2.89987e-10
2.891e-10
2.88028e-10
2.86737e-10
2.85746e-10
2.84568e-10
2.83027e-10
2.81425e-10
2.79755e-10
2.77848e-10
2.75522e-10
2.73139e-10
2.7014e-10
2.66923e-10
2.63485e-10
2.59418e-10
2.55229e-10
2.50823e-10
2.46015e-10
2.41248e-10
2.36259e-10
2.31039e-10
2.25776e-10
2.20028e-10
2.13823e-10
2.07234e-10
2.00109e-10
1.9248e-10
1.84656e-10
1.76559e-10
1.68291e-10
1.599e-10
1.51268e-10
1.42551e-10
1.33803e-10
1.25176e-10
1.16302e-10
1.08129e-10
1.01078e-10
9.50906e-11
8.93827e-11
8.35537e-11
7.81108e-11
7.26929e-11
7.28164e-11
6.23726e-11
7.8018e-11
2.74683e-11
3.17673e-10
4.01048e-10
1.37653e-09
1.81203e-10
1.59367e-10
1.49231e-10
1.63085e-10
1.62812e-10
1.66988e-10
1.68969e-10
1.71392e-10
1.74138e-10
1.75959e-10
1.78066e-10
1.80255e-10
1.81721e-10
1.83098e-10
1.84832e-10
1.86099e-10
1.86804e-10
1.88082e-10
1.8868e-10
1.89479e-10
1.90204e-10
1.90315e-10
1.90927e-10
1.91475e-10
1.91529e-10
1.91889e-10
1.9208e-10
1.92319e-10
1.92657e-10
1.92761e-10
1.93e-10
1.93376e-10
1.935e-10
1.93621e-10
1.94075e-10
1.94185e-10
1.94271e-10
1.94331e-10
1.94346e-10
1.94145e-10
1.93816e-10
1.9331e-10
1.92443e-10
1.91591e-10
1.90333e-10
1.88836e-10
1.8731e-10
1.85584e-10
1.83674e-10
1.81808e-10
1.79865e-10
1.7771e-10
1.75524e-10
1.72932e-10
1.69922e-10
1.66496e-10
1.62569e-10
1.58157e-10
1.53499e-10
1.4856e-10
1.43408e-10
1.38062e-10
1.32449e-10
1.26646e-10
1.2064e-10
1.14542e-10
1.08046e-10
1.01999e-10
9.65768e-11
9.18047e-11
8.72616e-11
8.26673e-11
7.85223e-11
7.51999e-11
7.62385e-11
6.83449e-11
7.69183e-11
3.20041e-11
3.17114e-10
3.94629e-10
1.37299e-09
1.21656e-10
1.08442e-10
1.01539e-10
1.09436e-10
1.08944e-10
1.10596e-10
1.11499e-10
1.12889e-10
1.13517e-10
1.14583e-10
1.15744e-10
1.16487e-10
1.17194e-10
1.17989e-10
1.18935e-10
1.19374e-10
1.20065e-10
1.20745e-10
1.21066e-10
1.21811e-10
1.22401e-10
1.2263e-10
1.23268e-10
1.23844e-10
1.24149e-10
1.24879e-10
1.2533e-10
1.25848e-10
1.26584e-10
1.27186e-10
1.27792e-10
1.28652e-10
1.29298e-10
1.30035e-10
1.30982e-10
1.31693e-10
1.32467e-10
1.33281e-10
1.34006e-10
1.34606e-10
1.35224e-10
1.35622e-10
1.35961e-10
1.36244e-10
1.36225e-10
1.36241e-10
1.36227e-10
1.36102e-10
1.3599e-10
1.35896e-10
1.35863e-10
1.35693e-10
1.35429e-10
1.3496e-10
1.34075e-10
1.32839e-10
1.31197e-10
1.29138e-10
1.26887e-10
1.24384e-10
1.21679e-10
1.18803e-10
1.15657e-10
1.12247e-10
1.08574e-10
1.04661e-10
1.00276e-10
9.61383e-11
9.21987e-11
8.8586e-11
8.52112e-11
8.18857e-11
7.91976e-11
7.80275e-11
8.01347e-11
7.4294e-11
7.6474e-11
3.68741e-11
3.23014e-10
3.74599e-10
1.3722e-09
8.17656e-11
6.57304e-11
7.26382e-11
6.71901e-11
7.2651e-11
7.164e-11
7.23235e-11
7.28888e-11
7.34188e-11
7.36044e-11
7.41039e-11
7.47001e-11
7.50851e-11
7.53995e-11
7.59253e-11
7.64959e-11
7.66914e-11
7.72892e-11
7.7734e-11
7.80903e-11
7.87089e-11
7.91169e-11
7.96244e-11
8.01541e-11
8.07211e-11
8.12851e-11
8.19799e-11
8.26207e-11
8.32579e-11
8.41148e-11
8.48943e-11
8.56585e-11
8.66799e-11
8.75133e-11
8.84851e-11
8.95944e-11
9.05099e-11
9.15715e-11
9.26476e-11
9.36266e-11
9.46258e-11
9.55861e-11
9.64679e-11
9.73468e-11
9.81258e-11
9.88769e-11
9.96354e-11
1.00413e-10
1.01223e-10
1.02088e-10
1.03001e-10
1.0401e-10
1.04957e-10
1.05807e-10
1.06548e-10
1.0693e-10
1.07053e-10
1.06883e-10
1.06386e-10
1.05772e-10
1.0499e-10
1.04042e-10
1.02969e-10
1.01649e-10
1.00059e-10
9.81998e-11
9.60338e-11
9.33864e-11
9.08376e-11
8.8166e-11
8.56038e-11
8.33505e-11
8.12912e-11
8.01638e-11
8.11301e-11
8.4317e-11
7.99295e-11
7.65427e-11
4.33094e-11
3.32334e-10
3.49636e-10
1.37057e-09
5.40981e-11
4.32085e-11
4.7632e-11
4.37421e-11
4.74479e-11
4.65351e-11
4.69911e-11
4.70497e-11
4.73405e-11
4.75306e-11
4.76192e-11
4.79628e-11
4.82027e-11
4.84958e-11
4.87866e-11
4.90975e-11
4.93628e-11
4.98029e-11
5.01997e-11
5.05383e-11
5.09773e-11
5.13903e-11
5.19908e-11
5.24242e-11
5.30022e-11
5.35898e-11
5.42039e-11
5.49534e-11
5.55905e-11
5.64108e-11
5.71984e-11
5.80568e-11
5.90136e-11
5.98982e-11
6.0908e-11
6.19884e-11
6.30066e-11
6.40669e-11
6.52152e-11
6.62994e-11
6.74121e-11
6.85382e-11
6.96061e-11
7.07281e-11
7.18244e-11
7.29588e-11
7.41225e-11
7.53352e-11
7.66692e-11
7.80774e-11
7.95272e-11
8.10909e-11
8.26425e-11
8.41013e-11
8.55192e-11
8.66569e-11
8.76059e-11
8.83789e-11
8.89387e-11
8.94404e-11
8.98471e-11
9.01519e-11
9.03586e-11
9.03812e-11
9.01542e-11
8.96719e-11
8.88874e-11
8.76493e-11
8.64029e-11
8.48082e-11
8.32001e-11
8.1995e-11
8.11783e-11
8.16637e-11
8.46917e-11
8.88449e-11
8.53523e-11
7.75113e-11
5.27995e-11
3.45337e-10
3.21523e-10
1.37094e-09
3.48116e-11
2.77298e-11
3.03849e-11
2.78113e-11
3.02229e-11
2.96783e-11
2.993e-11
2.99791e-11
3.02232e-11
3.02261e-11
3.03822e-11
3.06646e-11
3.07976e-11
3.1064e-11
3.13194e-11
3.15273e-11
3.18674e-11
3.22057e-11
3.2572e-11
3.28739e-11
3.32931e-11
3.3764e-11
3.41964e-11
3.46799e-11
3.52467e-11
3.57341e-11
3.63787e-11
3.70614e-11
3.76413e-11
3.84116e-11
3.91389e-11
3.99616e-11
4.08147e-11
4.16254e-11
4.25724e-11
4.35786e-11
4.44908e-11
4.5506e-11
4.65895e-11
4.7618e-11
4.86934e-11
4.98481e-11
5.09276e-11
5.20883e-11
5.33332e-11
5.4563e-11
5.59037e-11
5.7299e-11
5.88341e-11
6.04405e-11
6.21026e-11
6.38981e-11
6.56695e-11
6.74041e-11
6.9141e-11
7.06866e-11
7.21234e-11
7.34897e-11
7.47501e-11
7.60061e-11
7.7217e-11
7.84016e-11
7.95333e-11
8.05155e-11
8.13149e-11
8.18915e-11
8.21928e-11
8.20956e-11
8.18955e-11
8.12171e-11
8.05117e-11
8.03453e-11
8.07945e-11
8.29482e-11
8.78679e-11
9.25928e-11
8.92645e-11
7.8375e-11
6.49438e-11
3.61883e-10
2.88532e-10
1.37881e-09
2.42444e-11
1.95256e-11
2.14348e-11
1.95937e-11
2.13699e-11
2.09935e-11
2.10763e-11
2.12458e-11
2.13621e-11
2.13592e-11
2.15281e-11
2.17115e-11
2.18235e-11
2.19774e-11
2.22103e-11
2.23698e-11
2.26512e-11
2.29157e-11
2.31409e-11
2.34196e-11
2.37842e-11
2.41578e-11
2.44585e-11
2.48476e-11
2.53701e-11
2.57402e-11
2.62551e-11
2.6814e-11
2.73282e-11
2.79359e-11
2.85722e-11
2.92511e-11
2.99707e-11
3.06881e-11
3.15119e-11
3.23676e-11
3.31884e-11
3.41315e-11
3.50986e-11
3.60926e-11
3.70968e-11
3.8234e-11
3.9337e-11
4.05274e-11
4.18195e-11
4.30957e-11
4.45429e-11
4.60104e-11
4.75995e-11
4.92717e-11
5.10096e-11
5.28482e-11
5.46843e-11
5.65621e-11
5.84293e-11
6.02199e-11
6.19865e-11
6.37346e-11
6.54571e-11
6.72181e-11
6.89651e-11
7.07381e-11
7.24975e-11
7.414e-11
7.56922e-11
7.70614e-11
7.81912e-11
7.90051e-11
7.96863e-11
7.98283e-11
7.98971e-11
8.05768e-11
8.20755e-11
8.56724e-11
9.20894e-11
9.70634e-11
9.39275e-11
8.28958e-11
8.51761e-11
3.88228e-10
2.59435e-10
1.41619e-09
1.58995e-11
1.26757e-11
1.39073e-11
1.26099e-11
1.41383e-11
1.38679e-11
1.40707e-11
1.42458e-11
1.42862e-11
1.43785e-11
1.46174e-11
1.48044e-11
1.49577e-11
1.50977e-11
1.53227e-11
1.5569e-11
1.58216e-11
1.60414e-11
1.62488e-11
1.6619e-11
1.69067e-11
1.72237e-11
1.7543e-11
1.78734e-11
1.83442e-11
1.87042e-11
1.91246e-11
1.95839e-11
2.00729e-11
2.05818e-11
2.10896e-11
2.16957e-11
2.22583e-11
2.28824e-11
2.35737e-11
2.42523e-11
2.49689e-11
2.57195e-11
2.65674e-11
2.74095e-11
2.82599e-11
2.92476e-11
3.02322e-11
3.12805e-11
3.23977e-11
3.35776e-11
3.4838e-11
3.61438e-11
3.75379e-11
3.89967e-11
4.05457e-11
4.21414e-11
4.38055e-11
4.55286e-11
4.72639e-11
4.90202e-11
5.08207e-11
5.26559e-11
5.45167e-11
5.64653e-11
5.84381e-11
6.04848e-11
6.25535e-11
6.45719e-11
6.65659e-11
6.84141e-11
7.00776e-11
7.1477e-11
7.26067e-11
7.3214e-11
7.40279e-11
7.56836e-11
7.84936e-11
8.37557e-11
9.12687e-11
9.51393e-11
9.03948e-11
8.03383e-11
9.98897e-11
4.05051e-10
2.13468e-10
1.48287e-09
1.69202e-11
1.45966e-11
1.54957e-11
1.45206e-11
1.53651e-11
1.51912e-11
1.53994e-11
1.55163e-11
1.54937e-11
1.55835e-11
1.57735e-11
1.59297e-11
1.60308e-11
1.60995e-11
1.6275e-11
1.64613e-11
1.66197e-11
1.6773e-11
1.6908e-11
1.71956e-11
1.73994e-11
1.75879e-11
1.78344e-11
1.80929e-11
1.84218e-11
1.87104e-11
1.90477e-11
1.93922e-11
1.98015e-11
2.02324e-11
2.06606e-11
2.12008e-11
2.17054e-11
2.23097e-11
2.29571e-11
2.36413e-11
2.43801e-11
2.51668e-11
2.6081e-11
2.69793e-11
2.79742e-11
2.90471e-11
3.01486e-11
3.13085e-11
3.253e-11
3.38038e-11
3.50763e-11
3.64298e-11
3.78087e-11
3.92427e-11
4.07828e-11
4.23792e-11
4.41061e-11
4.59093e-11
4.78093e-11
4.97729e-11
5.17945e-11
5.38604e-11
5.59168e-11
5.80344e-11
6.01599e-11
6.2359e-11
6.46043e-11
6.68616e-11
6.91359e-11
7.13195e-11
7.34088e-11
7.5356e-11
7.72648e-11
7.86896e-11
7.98701e-11
8.16064e-11
8.43293e-11
8.93706e-11
9.63989e-11
9.96562e-11
9.72964e-11
9.68965e-11
1.47159e-10
4.52518e-10
2.27908e-10
1.79005e-09
9.18048e-12
9.47609e-12
9.22698e-12
9.7132e-12
9.98077e-12
1.01003e-11
1.02643e-11
1.03948e-11
1.05695e-11
1.07505e-11
1.08746e-11
1.10498e-11
1.1226e-11
1.14074e-11
1.15849e-11
1.17568e-11
1.19621e-11
1.21572e-11
1.23562e-11
1.25793e-11
1.27835e-11
1.3021e-11
1.32453e-11
1.34867e-11
1.37496e-11
1.40205e-11
1.42971e-11
1.45783e-11
1.48986e-11
1.52115e-11
1.55521e-11
1.5914e-11
1.62775e-11
1.6688e-11
1.70995e-11
1.7552e-11
1.80194e-11
1.8514e-11
1.90427e-11
1.95715e-11
2.01458e-11
2.07248e-11
2.13132e-11
2.19101e-11
2.25296e-11
2.31404e-11
2.37622e-11
2.44232e-11
2.51061e-11
2.58591e-11
2.66751e-11
2.7575e-11
2.85728e-11
2.96352e-11
3.07918e-11
3.20063e-11
3.33007e-11
3.46573e-11
3.60739e-11
3.76125e-11
3.92338e-11
4.09766e-11
4.2807e-11
4.47008e-11
4.66374e-11
4.85118e-11
5.03122e-11
5.19439e-11
5.28777e-11
5.32627e-11
5.46582e-11
5.76147e-11
6.23861e-11
7.00043e-11
7.75269e-11
7.65724e-11
6.79517e-11
7.08283e-11
1.41093e-10
3.29477e-10
1.8743e-10
1.81682e-09
)
;

boundaryField
{
    inlet
    {
        type            calculated;
        value           nonuniform List<scalar> 
23
(
2.37008e-08
2.3465e-08
2.32377e-08
2.30182e-08
2.28013e-08
2.25821e-08
2.23544e-08
2.21135e-08
2.18534e-08
2.1569e-08
2.12533e-08
2.09091e-08
2.05186e-08
1.99168e-08
1.94207e-08
1.88226e-08
1.80912e-08
1.72196e-08
1.62001e-08
1.50418e-08
1.37202e-08
1.27405e-08
1.09964e-08
)
;
    }
    outlet
    {
        type            calculated;
        value           nonuniform List<scalar> 
82
(
5.64207e-12
5.66429e-12
5.95246e-12
6.11856e-12
6.35864e-12
6.44938e-12
6.58235e-12
6.68304e-12
6.82513e-12
6.97265e-12
7.06444e-12
7.20391e-12
7.34477e-12
7.48863e-12
7.62861e-12
7.76176e-12
7.92627e-12
8.08036e-12
8.23635e-12
8.416e-12
8.57513e-12
8.76456e-12
8.94129e-12
9.1321e-12
9.34243e-12
9.55791e-12
9.77752e-12
9.99776e-12
1.02538e-11
1.0499e-11
1.07663e-11
1.10509e-11
1.13306e-11
1.16515e-11
1.19659e-11
1.23133e-11
1.26681e-11
1.30409e-11
1.34398e-11
1.38294e-11
1.42577e-11
1.46836e-11
1.51132e-11
1.55474e-11
1.6002e-11
1.64483e-11
1.69054e-11
1.74035e-11
1.79223e-11
1.85076e-11
1.91472e-11
1.9856e-11
2.06434e-11
2.14733e-11
2.23758e-11
2.33211e-11
2.4341e-11
2.54324e-11
2.66046e-11
2.7927e-11
2.93601e-11
3.09325e-11
3.26005e-11
3.43294e-11
3.6098e-11
3.77973e-11
3.93895e-11
4.07347e-11
4.12741e-11
4.13396e-11
4.26222e-11
4.56658e-11
5.08632e-11
5.92246e-11
6.73445e-11
6.57886e-11
5.42082e-11
5.21121e-11
1.13541e-10
3.05167e-10
1.23971e-10
1.49425e-09
)
;
    }
    walls
    {
        type            calculated;
        value           nonuniform List<scalar> 0();
    }
    frontAndBack
    {
        type            empty;
    }
    procBoundary3to2
    {
        type            processor;
        value           nonuniform List<scalar> 
88
(
3.83563e-10
1.45703e-09
1.99128e-11
3.13748e-10
3.13748e-10
2.08783e-11
5.64048e-11
5.64048e-11
7.86523e-11
6.02493e-11
5.23534e-11
5.23534e-11
1.66332e-10
1.41858e-10
1.23241e-10
1.07184e-10
9.17233e-11
9.17233e-11
3.39589e-10
2.9667e-10
2.56789e-10
2.20729e-10
1.88173e-10
1.88173e-10
6.58979e-10
6.00001e-10
5.44298e-10
4.92163e-10
4.43583e-10
3.98244e-10
3.55592e-10
3.55592e-10
1.29841e-09
1.23197e-09
1.16614e-09
1.10121e-09
1.03737e-09
9.7492e-10
9.14033e-10
8.54806e-10
7.97346e-10
7.41517e-10
6.87318e-10
6.34691e-10
6.34691e-10
6.66046e-10
1.36071e-09
1.48659e-09
1.23467e-09
1.31501e-09
1.39785e-09
1.46882e-09
1.52981e-09
1.58529e-09
1.63579e-09
1.68365e-09
1.72568e-09
1.76183e-09
1.79284e-09
1.81745e-09
1.83655e-09
1.84956e-09
1.85664e-09
1.85856e-09
1.85524e-09
1.84717e-09
1.83473e-09
1.81809e-09
1.79797e-09
1.7748e-09
1.74846e-09
1.71966e-09
1.68868e-09
1.65565e-09
1.6208e-09
1.58423e-09
1.54639e-09
1.50707e-09
1.46647e-09
1.42494e-09
1.38217e-09
1.33853e-09
1.294e-09
1.24853e-09
1.20244e-09
1.15567e-09
1.1083e-09
1.1083e-09
)
;
    }
    procBoundary3to6
    {
        type            processor;
        value           uniform 1.97325e-12;
    }
    procBoundary3to7
    {
        type            processor;
        value           nonuniform List<scalar> 
16
(
1.79482e-14
5.086e-10
5.27248e-10
3.23192e-10
2.49235e-10
1.94444e-10
1.4004e-10
9.74951e-11
9.74951e-11
6.42001e-11
4.22963e-11
2.70453e-11
1.90169e-11
1.25429e-11
1.40518e-11
9.84487e-12
)
;
    }
}


// ************************************************************************* //
