/*--------------------------------*- C++ -*----------------------------------*\
| =========                 |                                                 |
| \\      /  F ield         | OpenFOAM: The Open Source CFD Toolbox           |
|  \\    /   O peration     | Version:  2506                                  |
|   \\  /    A nd           | Website:  www.openfoam.com                      |
|    \\/     M anipulation  |                                                 |
\*---------------------------------------------------------------------------*/
FoamFile
{
    version     2.0;
    format      ascii;
    arch        "LSB;label=32;scalar=64";
    class       volScalarField;
    location    "300";
    object      turbulenceProperties:L;
}
// * * * * * * * * * * * * * * * * * * * * * * * * * * * * * * * * * * * * * //

dimensions      [0 1 0 0 0 0 0];

internalField   nonuniform List<scalar> 
1340
(
0.257255
0.183426
0.54444
0.268955
0.25765
0.18329
0.518634
0.408983
0.549957
0.26845
0.257602
0.183245
0.381324
0.406423
0.41961
0.506416
0.404332
0.553293
0.267909
0.257246
0.183247
0.318901
0.331258
0.34251
0.354084
0.367488
0.38162
0.405431
0.417202
0.494224
0.4
0.554647
0.26735
0.256688
0.183271
0.269184
0.278012
0.287755
0.298308
0.309872
0.32207
0.333906
0.344608
0.355633
0.368395
0.381824
0.404215
0.41455
0.482295
0.396061
0.554157
0.266823
0.256015
0.183309
0.230748
0.235856
0.241296
0.247066
0.253185
0.259715
0.266778
0.274519
0.283054
0.292444
0.302576
0.313676
0.325363
0.336622
0.346743
0.357192
0.369267
0.381967
0.402811
0.411714
0.470762
0.392552
0.551986
0.266336
0.255292
0.183379
0.198764
0.201081
0.203547
0.206168
0.208946
0.21189
0.215005
0.2183
0.221788
0.225496
0.229453
0.233693
0.238242
0.243116
0.248315
0.253837
0.259707
0.265982
0.272776
0.280219
0.288414
0.297401
0.30706
0.317648
0.328767
0.339399
0.348913
0.35876
0.37011
0.382053
0.401234
0.408729
0.459703
0.389507
0.548309
0.265908
0.254615
0.183458
0.206576
0.198561
0.209266
0.206147
0.206186
0.201763
0.199493
0.197322
0.195487
0.193796
0.192281
0.190936
0.189787
0.188817
0.187984
0.187329
0.186825
0.186463
0.186236
0.186132
0.186148
0.186278
0.186507
0.186831
0.187244
0.187741
0.188315
0.188958
0.189676
0.190458
0.191308
0.192223
0.193204
0.194254
0.195372
0.196564
0.197835
0.199184
0.200626
0.202163
0.203799
0.205548
0.207417
0.209417
0.211551
0.213832
0.216265
0.218851
0.2216
0.224514
0.227598
0.23087
0.234352
0.238071
0.242064
0.246354
0.250961
0.255886
0.26113
0.266716
0.272698
0.279184
0.286285
0.294089
0.302618
0.311755
0.32178
0.33227
0.342229
0.351115
0.360339
0.370933
0.382092
0.3995
0.405621
0.449158
0.386932
0.543363
0.265583
0.254019
0.183534
0.198934
0.221392
0.230913
0.221151
0.219279
0.215879
0.213885
0.211748
0.209895
0.208181
0.206655
0.20531
0.204144
0.20315
0.202303
0.20163
0.201103
0.200706
0.200446
0.20031
0.200285
0.200369
0.20055
0.200818
0.201173
0.201605
0.202103
0.202672
0.203305
0.203996
0.204748
0.205557
0.206427
0.207356
0.208346
0.209404
0.21053
0.21173
0.213014
0.214386
0.215854
0.217426
0.219115
0.220931
0.222874
0.224965
0.227199
0.229582
0.232121
0.234815
0.237668
0.240697
0.243924
0.247374
0.251086
0.255085
0.259392
0.26401
0.268942
0.274209
0.279862
0.285994
0.292704
0.300063
0.308081
0.316642
0.326056
0.335861
0.345108
0.353355
0.361935
0.371745
0.382088
0.39763
0.402415
0.439174
0.384827
0.537577
0.265302
0.253571
0.183573
0.226363
0.240389
0.244927
0.234537
0.23349
0.23062
0.228653
0.226598
0.22478
0.223121
0.221665
0.220348
0.219214
0.218245
0.217426
0.216759
0.216238
0.215834
0.215564
0.215418
0.215368
0.215418
0.21556
0.215794
0.216094
0.216463
0.216902
0.217398
0.21795
0.218555
0.219211
0.219915
0.220672
0.22148
0.222338
0.223255
0.224234
0.225278
0.226395
0.227596
0.228885
0.230272
0.231775
0.233391
0.235137
0.237024
0.239045
0.241211
0.24352
0.24597
0.248568
0.251325
0.254261
0.257408
0.260804
0.264476
0.268447
0.272725
0.27731
0.282219
0.287499
0.293231
0.299499
0.306353
0.313802
0.32174
0.330488
0.339548
0.34805
0.355653
0.363563
0.372564
0.382052
0.395631
0.399121
0.429769
0.383154
0.531062
0.265243
0.253167
0.183547
0.244536
0.254062
0.258129
0.249166
0.248526
0.24582
0.243949
0.242026
0.240335
0.238784
0.237415
0.236185
0.235118
0.234204
0.233431
0.232791
0.232292
0.2319
0.231631
0.231475
0.231407
0.231429
0.23154
0.231728
0.231967
0.232284
0.232654
0.233067
0.233536
0.234046
0.234601
0.23519
0.23583
0.236505
0.237225
0.237995
0.238816
0.239695
0.240641
0.24166
0.242762
0.243958
0.24526
0.246673
0.248214
0.249881
0.251678
0.25361
0.255667
0.257852
0.260165
0.262619
0.265231
0.268044
0.271089
0.274396
0.278007
0.28191
0.286112
0.290633
0.295497
0.300778
0.306556
0.312855
0.319685
0.326958
0.334996
0.343269
0.351005
0.357963
0.36519
0.37337
0.381956
0.393513
0.39575
0.421086
0.381847
0.525142
0.265315
0.253002
0.183326
0.259707
0.269694
0.274414
0.266113
0.265576
0.263037
0.261322
0.259552
0.258022
0.256578
0.255309
0.254178
0.253173
0.252329
0.251598
0.250979
0.250499
0.250126
0.249846
0.24967
0.249573
0.249562
0.249625
0.249744
0.249926
0.250167
0.250433
0.250752
0.251119
0.25152
0.25193
0.252387
0.252868
0.253398
0.253953
0.254516
0.255167
0.255852
0.256586
0.257385
0.258276
0.25924
0.260308
0.261496
0.262779
0.264202
0.265739
0.267387
0.269161
0.271027
0.273008
0.275111
0.277339
0.279762
0.282411
0.285299
0.288495
0.291984
0.295743
0.299823
0.304217
0.308973
0.314187
0.319858
0.325995
0.332526
0.33979
0.347205
0.354131
0.36041
0.366923
0.374234
0.381816
0.391253
0.392208
0.4128
0.38091
0.5145
0.26615
0.252347
0.183079
0.280511
0.291292
0.296658
0.288595
0.288398
0.286037
0.284606
0.283185
0.281695
0.280528
0.279437
0.27833
0.277485
0.276766
0.27604
0.275424
0.275058
0.274624
0.27433
0.274121
0.273944
0.27391
0.273851
0.273845
0.273939
0.274027
0.274139
0.274292
0.274465
0.274699
0.274873
0.275084
0.275339
0.275648
0.275886
0.27617
0.276545
0.276937
0.277349
0.277823
0.278406
0.279011
0.279782
0.28062
0.28153
0.282627
0.283779
0.285016
0.286398
0.287801
0.289308
0.290926
0.292606
0.294496
0.296608
0.298936
0.30156
0.304504
0.307679
0.311149
0.314903
0.318958
0.323417
0.328255
0.333498
0.339105
0.3454
0.351753
0.357735
0.363238
0.368904
0.375178
0.381554
0.388481
0.388326
0.403653
0.381682
0.495483
0.268711
0.25351
0.186223
0.309175
0.31926
0.324547
0.317423
0.317556
0.315551
0.314621
0.313502
0.312259
0.311447
0.310521
0.309573
0.308947
0.308364
0.307638
0.307112
0.306822
0.306299
0.306056
0.305732
0.30544
0.305395
0.30515
0.304932
0.30491
0.304766
0.30469
0.304595
0.304461
0.30442
0.304325
0.304176
0.304127
0.304079
0.303901
0.303857
0.303823
0.303799
0.303792
0.30387
0.303998
0.304196
0.304537
0.304874
0.305376
0.305979
0.3066
0.307309
0.308104
0.308891
0.30972
0.310653
0.311614
0.312773
0.314147
0.315749
0.317637
0.319828
0.322228
0.324874
0.327755
0.330886
0.33434
0.338109
0.342245
0.346716
0.351818
0.356924
0.361833
0.366447
0.371127
0.376181
0.381056
0.385205
0.383896
0.394532
0.383039
0.476914
0.268833
0.254536
0.186342
0.341552
0.351512
0.357338
0.35071
0.351104
0.349785
0.349074
0.347995
0.347512
0.346701
0.345828
0.345274
0.344752
0.34417
0.343483
0.343167
0.342671
0.342187
0.34196
0.341436
0.341024
0.340864
0.340422
0.340025
0.339816
0.339318
0.339012
0.338662
0.338168
0.337767
0.337365
0.336799
0.336377
0.335899
0.33529
0.334835
0.334344
0.333832
0.333379
0.333006
0.332624
0.332379
0.332171
0.331997
0.332008
0.331998
0.332006
0.332081
0.332148
0.332204
0.332223
0.332325
0.332485
0.332771
0.333316
0.334087
0.335126
0.336453
0.337936
0.339625
0.341499
0.34355
0.345867
0.348468
0.351383
0.354627
0.358445
0.362244
0.366055
0.369732
0.37334
0.377077
0.380243
0.38167
0.379145
0.386387
0.383595
0.460327
0.267602
0.257873
0.186367
0.377219
0.398376
0.388547
0.396194
0.388529
0.389892
0.388968
0.388211
0.387508
0.387264
0.386609
0.385835
0.385339
0.384937
0.384268
0.38355
0.383305
0.382561
0.382012
0.381576
0.380824
0.380331
0.379724
0.379094
0.378427
0.377768
0.376965
0.376231
0.375509
0.374548
0.373685
0.372848
0.371744
0.370856
0.369832
0.368682
0.367745
0.366674
0.365603
0.364643
0.363676
0.362758
0.361926
0.361105
0.360386
0.359698
0.359011
0.358314
0.357593
0.356832
0.356037
0.355168
0.354362
0.353646
0.353027
0.352709
0.352606
0.352745
0.353156
0.353668
0.354327
0.355134
0.356059
0.357213
0.358628
0.360318
0.362337
0.364882
0.367418
0.370172
0.372912
0.375408
0.377767
0.379096
0.377972
0.374356
0.37939
0.38351
0.44219
0.26571
0.262358
0.186421
0.418251
0.442423
0.431774
0.441067
0.432191
0.434295
0.433237
0.433102
0.432436
0.432003
0.431801
0.431026
0.430488
0.429836
0.429194
0.428513
0.427936
0.426987
0.42614
0.425425
0.424505
0.42365
0.422421
0.421545
0.42039
0.419233
0.41804
0.416607
0.415407
0.413888
0.412456
0.410922
0.409245
0.407725
0.406024
0.404242
0.402599
0.400921
0.399144
0.397501
0.39585
0.394213
0.392692
0.391124
0.389622
0.388098
0.386565
0.384999
0.383312
0.38157
0.379817
0.377971
0.376182
0.374537
0.372972
0.37174
0.370727
0.369913
0.36933
0.368812
0.368397
0.368088
0.367881
0.367862
0.368098
0.368597
0.369412
0.370713
0.372046
0.373784
0.375578
0.376952
0.377901
0.377346
0.373937
0.369496
0.373216
0.382307
0.420828
0.263177
0.267914
0.186406
0.466978
0.494297
0.483127
0.493934
0.483773
0.485976
0.484952
0.484753
0.483771
0.483759
0.483136
0.48202
0.481499
0.480463
0.479481
0.478688
0.477406
0.476147
0.474802
0.473708
0.47221
0.470554
0.469059
0.467416
0.465525
0.463929
0.461859
0.459717
0.457936
0.455622
0.45349
0.451137
0.44876
0.446558
0.444053
0.441467
0.439186
0.436715
0.434152
0.431788
0.429383
0.426874
0.424593
0.422207
0.419721
0.417335
0.414809
0.412259
0.409542
0.406791
0.404039
0.401168
0.398433
0.395842
0.393329
0.391159
0.389195
0.387373
0.38573
0.384129
0.382617
0.381167
0.379808
0.378649
0.37772
0.377058
0.376716
0.376831
0.377064
0.37785
0.378676
0.378874
0.378352
0.37588
0.370516
0.365701
0.369059
0.381251
0.39961
0.26012
0.275264
0.186138
0.511175
0.539594
0.527158
0.539125
0.527557
0.529905
0.529384
0.528325
0.527604
0.527622
0.526585
0.525469
0.524793
0.523872
0.522493
0.521559
0.519931
0.518424
0.517159
0.515613
0.513625
0.511628
0.510048
0.508039
0.505402
0.503576
0.501088
0.498456
0.496094
0.493373
0.490602
0.48773
0.484775
0.481916
0.478734
0.475538
0.472569
0.46927
0.466003
0.46276
0.459596
0.456139
0.452907
0.449543
0.446029
0.442689
0.439048
0.435503
0.43182
0.428106
0.42441
0.420667
0.417088
0.41358
0.410233
0.407147
0.404213
0.401413
0.398747
0.396112
0.393583
0.391097
0.388707
0.386541
0.384549
0.382834
0.381448
0.380466
0.379652
0.379484
0.379403
0.378604
0.37687
0.372861
0.366198
0.361418
0.364391
0.375945
0.373424
0.255595
0.282676
0.184895
0.568026
0.601124
0.587352
0.601906
0.584939
0.587769
0.585641
0.583832
0.58342
0.582481
0.580087
0.578247
0.576759
0.575417
0.573293
0.571013
0.56872
0.566762
0.564945
0.561772
0.559367
0.556775
0.554224
0.551645
0.54807
0.545414
0.542391
0.539183
0.535868
0.532524
0.529289
0.525553
0.522199
0.518601
0.514756
0.511117
0.507409
0.503665
0.499597
0.495715
0.491942
0.487735
0.483714
0.479609
0.475419
0.471185
0.466863
0.462587
0.458229
0.45388
0.449478
0.445159
0.440867
0.436633
0.432566
0.428637
0.424789
0.421039
0.417402
0.413756
0.410223
0.406713
0.403313
0.400129
0.397104
0.394399
0.392042
0.390112
0.388587
0.38778
0.386711
0.384583
0.381102
0.37498
0.367023
0.363234
0.3679
0.378904
0.358849
0.252903
0.296797
0.18278
0.559261
0.580295
0.57169
0.581052
0.572901
0.574532
0.572581
0.571499
0.571707
0.570882
0.569156
0.567755
0.566857
0.566252
0.564719
0.563115
0.561768
0.56048
0.559357
0.557003
0.555365
0.553871
0.551947
0.549964
0.547493
0.545369
0.542938
0.54051
0.537694
0.534808
0.532014
0.528592
0.525493
0.521897
0.518178
0.514387
0.510444
0.506408
0.50191
0.497679
0.493193
0.488575
0.484049
0.479502
0.474935
0.470395
0.466068
0.461675
0.457405
0.453165
0.448822
0.444532
0.440112
0.435723
0.431326
0.427007
0.422778
0.418666
0.414765
0.410933
0.407258
0.403624
0.400076
0.396661
0.393363
0.390322
0.387519
0.384994
0.382595
0.380852
0.379439
0.37741
0.374334
0.368951
0.362043
0.359048
0.361195
0.361565
0.32573
0.245996
0.291977
0.174375
0.651596
0.646456
0.650774
0.642475
0.638127
0.636231
0.633675
0.631677
0.629052
0.626388
0.624593
0.622103
0.619648
0.61717
0.614793
0.612533
0.609888
0.607427
0.604966
0.602266
0.599846
0.597092
0.594548
0.59187
0.58902
0.586154
0.583298
0.580464
0.577319
0.574327
0.571156
0.567881
0.564683
0.561178
0.557771
0.55414
0.550511
0.546797
0.542961
0.539256
0.535371
0.531591
0.527883
0.524249
0.520606
0.517135
0.513716
0.510202
0.506693
0.502961
0.499067
0.494942
0.49056
0.486102
0.48147
0.476837
0.472136
0.467449
0.462795
0.457993
0.453192
0.448301
0.443436
0.438669
0.434049
0.429799
0.425905
0.422523
0.420647
0.419886
0.417184
0.411734
0.403636
0.392189
0.382315
0.383496
0.395108
0.391041
0.329191
0.266311
0.3066
0.17373
)
;

boundaryField
{
    inlet
    {
        type            calculated;
        value           nonuniform List<scalar> 
23
(
0.0972024
0.0974457
0.0976831
0.0979152
0.0981472
0.0983845
0.0986341
0.0989016
0.0991946
0.09952
0.0998875
0.100296
0.10077
0.101523
0.102165
0.102967
0.103992
0.105284
0.106903
0.108904
0.111437
0.11352
0.117776
)
;
    }
    outlet
    {
        type            calculated;
        value           nonuniform List<scalar> 
82
(
0.735877
0.735155
0.726098
0.721122
0.71422
0.711696
0.708076
0.705395
0.701697
0.697957
0.69568
0.69229
0.688947
0.685616
0.68245
0.679505
0.675953
0.672708
0.669501
0.6659
0.66279
0.65918
0.655899
0.652446
0.648743
0.645056
0.641403
0.637842
0.633823
0.630089
0.626143
0.622072
0.618197
0.613896
0.609824
0.605477
0.601192
0.596849
0.59237
0.588154
0.583687
0.579407
0.575245
0.571184
0.567082
0.563195
0.559346
0.555298
0.551232
0.546819
0.542191
0.537284
0.532083
0.526864
0.521469
0.516103
0.510612
0.505047
0.499395
0.493381
0.487253
0.480946
0.474679
0.468594
0.462752
0.457467
0.452776
0.448994
0.447521
0.447346
0.443946
0.436365
0.424776
0.408931
0.396011
0.398327
0.418069
0.422219
0.347564
0.271463
0.339978
0.18243
)
;
    }
    walls
    {
        type            calculated;
        value           nonuniform List<scalar> 0();
    }
    frontAndBack
    {
        type            empty;
    }
    procBoundary3to2
    {
        type            processor;
        value           nonuniform List<scalar> 
88
(
0.256332
0.183599
0.536952
0.269522
0.269522
0.530642
0.413915
0.413915
0.380884
0.407132
0.421691
0.421691
0.315842
0.328665
0.340431
0.352522
0.366522
0.366522
0.264214
0.273294
0.28334
0.294267
0.306246
0.306246
0.223862
0.22917
0.234819
0.240804
0.247142
0.253895
0.261189
0.261189
0.188957
0.191454
0.1941
0.196899
0.199861
0.202987
0.206286
0.209769
0.213449
0.217357
0.22152
0.225975
0.225975
0.223523
0.188035
0.183259
0.191323
0.188321
0.185512
0.18324
0.181388
0.179777
0.178371
0.177088
0.175998
0.175087
0.174324
0.17373
0.173276
0.172969
0.172804
0.172759
0.172835
0.173023
0.173315
0.17371
0.174194
0.174759
0.175414
0.176144
0.176946
0.177822
0.17877
0.179792
0.180882
0.18205
0.183297
0.184618
0.18603
0.187527
0.18912
0.190818
0.192621
0.19454
0.196586
0.196586
)
;
    }
    procBoundary3to6
    {
        type            processor;
        value           uniform 1.43497;
    }
    procBoundary3to7
    {
        type            processor;
        value           nonuniform List<scalar> 
16
(
5.97238
0.238951
0.238198
0.267593
0.285418
0.303773
0.329753
0.360989
0.360989
0.40073
0.44479
0.497395
0.543166
0.602708
0.585839
0.640318
)
;
    }
}


// ************************************************************************* //
