/*--------------------------------*- C++ -*----------------------------------*\
| =========                 |                                                 |
| \\      /  F ield         | OpenFOAM: The Open Source CFD Toolbox           |
|  \\    /   O peration     | Version:  2506                                  |
|   \\  /    A nd           | Website:  www.openfoam.com                      |
|    \\/     M anipulation  |                                                 |
\*---------------------------------------------------------------------------*/
FoamFile
{
    version     2.0;
    format      ascii;
    arch        "LSB;label=32;scalar=64";
    class       volVectorField;
    location    "300";
    object      U;
}
// * * * * * * * * * * * * * * * * * * * * * * * * * * * * * * * * * * * * * //

dimensions      [0 1 -1 0 0 0 0];

internalField   nonuniform List<vector> 
1340
(
(25.5597 3.3291 -1.26876e-16)
(25.6222 2.89331 1.57815e-16)
(25.5177 3.17148 -3.8999e-16)
(25.511 3.08348 -6.93542e-17)
(25.562 3.32746 2.02036e-17)
(25.6357 2.89593 -6.64491e-16)
(25.548 3.12274 0)
(25.5358 3.11848 -1.52638e-16)
(25.521 3.16842 3.87071e-16)
(25.5187 3.08286 2.2901e-16)
(25.5654 3.32556 3.59915e-19)
(25.6492 2.89849 5.76743e-16)
(25.5573 3.07666 -2.20847e-16)
(25.5597 3.09013 4.19111e-18)
(25.5597 3.1016 2.94119e-17)
(25.5539 3.11898 0)
(25.5413 3.11564 1.72324e-18)
(25.525 3.16531 -3.33651e-18)
(25.5267 3.08262 -1.71658e-18)
(25.5699 3.32345 5.00757e-19)
(25.6628 2.90104 -7.29421e-19)
(25.5511 3.00606 1.86383e-17)
(25.5554 3.02074 7.36417e-17)
(25.5585 3.03303 7.34528e-17)
(25.5614 3.04582 -2.49931e-16)
(25.5642 3.05881 6.18425e-17)
(25.5668 3.07206 -8.74609e-17)
(25.5683 3.08585 -1.88856e-18)
(25.5674 3.09777 2.11246e-16)
(25.5604 3.11536 0)
(25.5473 3.11304 1.36564e-17)
(25.5296 3.16218 -3.72127e-16)
(25.5351 3.08276 -2.16544e-16)
(25.5755 3.32116 -7.58979e-18)
(25.6764 2.90369 7.63943e-17)
(25.5377 2.90818 1.69408e-16)
(25.5441 2.92765 -1.53184e-16)
(25.5502 2.94671 -3.97158e-17)
(25.5558 2.96531 -2.3954e-16)
(25.5609 2.98345 -5.30528e-17)
(25.5653 3.00097 3.57064e-17)
(25.5686 3.01573 1.58984e-17)
(25.5709 3.02813 -1.20874e-18)
(25.5731 3.04108 4.76646e-17)
(25.5751 3.05427 -1.15292e-16)
(25.5768 3.06778 2.16308e-16)
(25.5775 3.08186 -1.33501e-16)
(25.5756 3.09422 -2.11305e-16)
(25.5674 3.11193 0)
(25.5536 3.11071 -9.74145e-18)
(25.535 3.15908 3.63496e-16)
(25.5439 3.08329 2.122e-16)
(25.5822 3.31871 8.93937e-18)
(25.6901 2.90653 -7.76767e-17)
(25.5298 2.7677 -2.20668e-17)
(25.5328 2.78728 -1.06651e-16)
(25.5362 2.80695 -1.80231e-16)
(25.54 2.82665 6.56005e-17)
(25.5442 2.84634 -2.10123e-17)
(25.5488 2.86597 8.26518e-17)
(25.5538 2.88549 2.10508e-16)
(25.5589 2.90482 -4.87756e-18)
(25.5639 2.92389 1.24001e-16)
(25.5687 2.94265 -1.06476e-17)
(25.573 2.96103 1.62381e-17)
(25.5768 2.97904 1.02202e-16)
(25.5801 2.9965 -3.62182e-17)
(25.5824 3.01127 -1.8365e-17)
(25.5839 3.02374 -1.26634e-18)
(25.5853 3.03679 3.42793e-18)
(25.5865 3.05014 8.83725e-19)
(25.5875 3.06388 -1.13678e-16)
(25.5873 3.07819 1.28849e-16)
(25.5843 3.09097 -4.14366e-19)
(25.5749 3.10872 0)
(25.5603 3.10869 1.32573e-17)
(25.5411 3.15605 -3.79611e-16)
(25.5533 3.08425 -2.10047e-18)
(25.59 3.31614 -2.2839e-17)
(25.704 2.90964 -8.02468e-19)
(25.5698 2.57637 1.74974e-17)
(25.5668 2.59005 -1.00919e-16)
(25.564 2.60425 -2.78404e-18)
(25.5616 2.61896 9.64694e-17)
(25.5596 2.63417 -1.04274e-16)
(25.558 2.64987 1.659e-17)
(25.5568 2.66603 7.57865e-18)
(25.5561 2.68263 -2.10681e-17)
(25.556 2.69966 1.29167e-16)
(25.5563 2.71706 1.82294e-16)
(25.557 2.73481 1.36442e-17)
(25.5582 2.75286 4.94674e-17)
(25.5597 2.77117 -5.25199e-17)
(25.5616 2.78968 1.53705e-18)
(25.5638 2.80835 2.77202e-16)
(25.5664 2.82714 -1.89122e-18)
(25.5694 2.846 -1.53439e-16)
(25.5727 2.86489 -3.33725e-17)
(25.5764 2.88375 -1.45165e-16)
(25.5803 2.90252 -3.74166e-17)
(25.5841 2.92112 -1.2129e-18)
(25.5876 2.93948 -1.63781e-16)
(25.5907 2.95756 -6.0539e-18)
(25.5933 2.97536 -4.24655e-17)
(25.5955 2.99269 -3.56411e-19)
(25.5968 3.00742 1.4284e-17)
(25.5975 3.0199 -1.26493e-16)
(25.5981 3.03301 1.15937e-16)
(25.5986 3.04648 1.02252e-16)
(25.5987 3.0604 1.87239e-16)
(25.5976 3.0749 -2.08896e-16)
(25.5936 3.08806 -4.4145e-19)
(25.5829 3.10576 0)
(25.5676 3.10699 -8.73458e-18)
(25.5479 3.15311 1.04883e-16)
(25.5632 3.08565 4.45984e-17)
(25.5989 3.31346 -2.67811e-17)
(25.7181 2.91314 -8.37819e-19)
(25.717 2.39746 2.34519e-18)
(25.7168 2.39921 2.29804e-18)
(25.7169 2.3998 -1.53028e-19)
(25.7168 2.40128 5.63938e-19)
(25.7166 2.40256 7.60065e-19)
(25.7163 2.40401 3.51986e-19)
(25.7158 2.4055 3.84249e-20)
(25.7152 2.40708 -3.02536e-18)
(25.7145 2.40874 -1.24103e-18)
(25.7135 2.41049 2.92807e-18)
(25.7125 2.41233 0)
(25.7112 2.41428 -4.71923e-19)
(25.7098 2.41634 6.66266e-18)
(25.7082 2.41852 2.10431e-19)
(25.7064 2.42082 7.47935e-18)
(25.7045 2.42325 7.60896e-19)
(25.7024 2.42583 1.90585e-18)
(25.7001 2.42856 6.09035e-18)
(25.6977 2.43145 3.0511e-18)
(25.6951 2.43453 8.54702e-18)
(25.6924 2.43778 -7.86704e-18)
(25.6895 2.44124 -1.17002e-17)
(25.6864 2.44491 4.46006e-18)
(25.6833 2.44881 -2.7385e-18)
(25.68 2.45294 -8.60945e-18)
(25.6765 2.45734 -8.30125e-18)
(25.673 2.462 1.63202e-17)
(25.6693 2.46695 -5.73194e-18)
(25.6656 2.4722 2.21316e-18)
(25.6618 2.47777 -7.93271e-18)
(25.6578 2.48367 1.29747e-17)
(25.6539 2.48993 8.26422e-18)
(25.6499 2.49656 9.89473e-18)
(25.6458 2.50357 2.51494e-17)
(25.6417 2.51099 -1.84965e-17)
(25.6376 2.51883 -1.12674e-17)
(25.6335 2.5271 9.46132e-19)
(25.6294 2.53581 -1.34001e-17)
(25.6254 2.545 -5.41642e-18)
(25.6214 2.55465 -2.4402e-17)
(25.6175 2.5648 8.20925e-18)
(25.6137 2.57544 1.15766e-17)
(25.61 2.58659 -2.68946e-17)
(25.6065 2.59824 2.23497e-17)
(25.6032 2.61041 6.03382e-18)
(25.6002 2.6231 -6.23296e-19)
(25.5973 2.6363 -3.89456e-18)
(25.5949 2.65001 2.81178e-17)
(25.5927 2.66422 -8.54521e-17)
(25.591 2.67892 -2.89358e-19)
(25.5897 2.6941 -2.23821e-18)
(25.5888 2.70973 -3.84142e-17)
(25.5883 2.72578 -6.5183e-18)
(25.5882 2.74223 -4.497e-18)
(25.5885 2.75903 -6.24638e-19)
(25.589 2.77614 -1.7165e-17)
(25.5899 2.79353 1.50304e-18)
(25.591 2.81115 -1.1917e-16)
(25.5925 2.82897 -1.86845e-18)
(25.5944 2.84694 1.30018e-16)
(25.5967 2.86502 -5.65495e-19)
(25.5992 2.88315 1.33272e-16)
(25.6019 2.90128 -1.07931e-17)
(25.6045 2.91933 -1.0733e-16)
(25.6068 2.93723 9.63289e-18)
(25.6088 2.95493 5.25093e-18)
(25.6103 2.97244 3.54343e-17)
(25.6113 2.98957 3.08035e-17)
(25.6117 3.0042 -2.10496e-18)
(25.6116 3.01664 4.03318e-18)
(25.6115 3.02977 -9.59916e-19)
(25.6112 3.04331 -9.98594e-17)
(25.6105 3.05737 -1.48027e-16)
(25.6085 3.07201 2.11967e-16)
(25.6034 3.08553 9.64661e-17)
(25.5915 3.10311 0)
(25.5753 3.10563 -2.83802e-17)
(25.5555 3.15033 2.58511e-16)
(25.5736 3.08753 -2.27048e-16)
(25.609 3.31071 9.83313e-18)
(25.7324 2.91713 -8.8415e-19)
(25.7425 2.44886 -2.11693e-19)
(25.7423 2.45028 1.84027e-19)
(25.7423 2.4508 -3.0391e-19)
(25.7421 2.45201 -1.45274e-19)
(25.7418 2.45308 -3.45097e-20)
(25.7414 2.45428 -1.60142e-20)
(25.7409 2.45552 -2.61165e-18)
(25.7403 2.45684 1.17874e-18)
(25.7395 2.45822 1.63724e-19)
(25.7387 2.45967 -1.94559e-18)
(25.7376 2.46121 0)
(25.7365 2.46284 -3.99869e-18)
(25.7352 2.46455 -1.96324e-18)
(25.7337 2.46637 -9.73041e-21)
(25.7322 2.46829 -4.72331e-18)
(25.7304 2.47032 4.35797e-18)
(25.7286 2.47248 4.8446e-18)
(25.7265 2.47477 -3.98116e-18)
(25.7244 2.47719 -3.26694e-18)
(25.7221 2.47977 -2.04852e-18)
(25.7197 2.4825 -5.62572e-19)
(25.7171 2.4854 9.34216e-18)
(25.7144 2.48849 1.43538e-19)
(25.7116 2.49177 4.49394e-18)
(25.7087 2.49526 5.67889e-18)
(25.7056 2.49896 6.91085e-19)
(25.7025 2.5029 -5.08183e-18)
(25.6992 2.50709 -2.08366e-18)
(25.6959 2.51154 -1.03484e-19)
(25.6924 2.51627 1.77794e-18)
(25.6889 2.52129 -6.04595e-19)
(25.6853 2.52663 9.79978e-18)
(25.6816 2.53229 -4.58597e-19)
(25.6779 2.53829 -1.16153e-18)
(25.6741 2.54466 2.14832e-17)
(25.6703 2.5514 6.64338e-18)
(25.6665 2.55853 -1.15202e-17)
(25.6626 2.56607 8.75409e-18)
(25.6588 2.57404 4.96979e-19)
(25.655 2.58245 -9.66667e-18)
(25.6512 2.59131 -9.18954e-18)
(25.6474 2.60063 8.39783e-18)
(25.6438 2.61044 1.57669e-17)
(25.6403 2.62073 6.01489e-18)
(25.6369 2.63152 6.55817e-17)
(25.6336 2.64281 -5.72746e-19)
(25.6306 2.6546 -3.59628e-18)
(25.6279 2.66691 -2.03743e-17)
(25.6254 2.67972 5.40869e-17)
(25.6233 2.69303 5.7099e-19)
(25.6215 2.70683 -6.39853e-17)
(25.6201 2.72111 -1.35832e-18)
(25.619 2.73584 -7.99927e-17)
(25.6182 2.75099 3.52497e-18)
(25.6177 2.76655 2.387e-17)
(25.6175 2.78247 -1.1383e-17)
(25.6175 2.79871 -4.06093e-17)
(25.6178 2.81525 6.67698e-19)
(25.6183 2.83206 -1.83617e-18)
(25.6193 2.8491 -2.57981e-18)
(25.6205 2.86632 -5.6155e-19)
(25.622 2.88367 -1.27447e-16)
(25.6237 2.90109 3.99391e-17)
(25.6252 2.91852 1.04201e-16)
(25.6264 2.93589 1.5578e-16)
(25.6272 2.95315 5.35059e-18)
(25.6276 2.97031 -8.94465e-17)
(25.6276 2.98718 -3.13899e-17)
(25.6271 3.00165 -5.39897e-17)
(25.6263 3.01402 8.44485e-17)
(25.6254 3.02712 -2.57566e-17)
(25.6244 3.04068 9.50929e-17)
(25.6229 3.05484 2.59004e-16)
(25.62 3.06957 1.09941e-16)
(25.6137 3.0834 -4.43395e-18)
(25.6006 3.1008 0)
(25.5835 3.10467 3.34003e-17)
(25.5639 3.14774 -5.60148e-18)
(25.5848 3.08996 2.18052e-16)
(25.6201 3.3079 7.7504e-17)
(25.747 2.92174 -9.45628e-19)
(25.7645 2.49584 4.92918e-19)
(25.7642 2.497 5.27395e-19)
(25.7641 2.49744 -1.49343e-20)
(25.7638 2.49845 -5.18175e-19)
(25.7635 2.49935 3.31004e-20)
(25.7631 2.50035 2.06254e-19)
(25.7626 2.50139 1.22997e-19)
(25.7619 2.50249 8.77476e-21)
(25.7612 2.50365 3.756e-20)
(25.7604 2.50487 6.18023e-20)
(25.7594 2.50616 0)
(25.7584 2.50752 1.56848e-19)
(25.7572 2.50897 -1.47478e-19)
(25.7559 2.51049 -8.21123e-21)
(25.7545 2.51211 1.05577e-18)
(25.753 2.51382 -1.02363e-18)
(25.7513 2.51564 -2.87336e-19)
(25.7495 2.51757 1.17434e-19)
(25.7476 2.51961 1.82214e-19)
(25.7456 2.52179 1.25076e-18)
(25.7435 2.5241 1.21088e-18)
(25.7412 2.52655 -3.90141e-19)
(25.7389 2.52916 1.22639e-19)
(25.7364 2.53194 -8.02494e-20)
(25.7339 2.53489 1.16025e-19)
(25.7312 2.53804 -5.80014e-18)
(25.7284 2.54139 5.26087e-19)
(25.7255 2.54495 4.61698e-19)
(25.7226 2.54874 -1.75916e-19)
(25.7195 2.55277 -1.04863e-18)
(25.7164 2.55706 -5.25258e-19)
(25.7131 2.56162 -1.32817e-18)
(25.7098 2.56648 4.98777e-18)
(25.7065 2.57163 -1.01742e-18)
(25.7031 2.5771 -1.47352e-19)
(25.6996 2.58291 -5.53879e-18)
(25.6961 2.58908 1.11969e-17)
(25.6925 2.59561 -6.62871e-18)
(25.6889 2.60252 4.42554e-19)
(25.6853 2.60984 9.3205e-18)
(25.6818 2.61758 8.3413e-18)
(25.6782 2.62575 -5.20761e-19)
(25.6747 2.63436 7.15834e-19)
(25.6712 2.64343 -8.22368e-18)
(25.6679 2.65297 -2.92327e-17)
(25.6646 2.663 -5.24868e-19)
(25.6616 2.67351 -3.31077e-18)
(25.6587 2.68452 3.57121e-18)
(25.6561 2.69602 -1.20624e-17)
(25.6537 2.70803 -1.08521e-18)
(25.6517 2.72054 3.16986e-18)
(25.6499 2.73352 2.56409e-17)
(25.6483 2.74698 -1.02324e-17)
(25.647 2.76089 -4.34449e-19)
(25.646 2.77523 -2.48056e-17)
(25.6451 2.78996 3.28311e-17)
(25.6444 2.80508 4.31072e-17)
(25.6439 2.82053 1.05116e-16)
(25.6437 2.83632 -1.79614e-18)
(25.6438 2.85239 -9.62889e-17)
(25.6442 2.86872 2.4367e-17)
(25.6448 2.88525 2.4479e-18)
(25.6454 2.90192 -5.83714e-17)
(25.6459 2.91868 -1.36327e-16)
(25.6461 2.93547 -1.21208e-16)
(25.6459 2.95224 7.25295e-17)
(25.6453 2.96898 -3.91881e-18)
(25.6443 2.98553 2.73158e-17)
(25.6429 2.9998 -6.87359e-18)
(25.6415 3.01205 1.96234e-19)
(25.6399 3.02508 2.03542e-19)
(25.6381 3.03863 -1.09773e-16)
(25.6359 3.05284 -1.06806e-16)
(25.632 3.06761 -8.25294e-18)
(25.6246 3.08171 -4.68386e-18)
(25.6102 3.09888 0)
(25.5923 3.10412 -2.53666e-17)
(25.5732 3.1454 -6.00119e-18)
(25.5967 3.09301 -1.33109e-16)
(25.6323 3.30501 -7.25739e-17)
(25.7623 2.9271 -1.0319e-18)
(25.7834 2.53881 -5.59261e-19)
(25.7831 2.53976 -1.06661e-19)
(25.7829 2.54014 1.7031e-20)
(25.7826 2.54099 4.63775e-19)
(25.7823 2.54174 -8.32615e-20)
(25.7818 2.54259 -2.20582e-19)
(25.7813 2.54346 1.03413e-19)
(25.7807 2.54439 7.38459e-21)
(25.78 2.54536 2.49829e-19)
(25.7792 2.54639 1.42993e-18)
(25.7784 2.54748 0)
(25.7774 2.54863 9.44124e-19)
(25.7763 2.54985 -1.34816e-18)
(25.7752 2.55114 -1.03249e-18)
(25.7739 2.55251 1.68591e-18)
(25.7726 2.55396 5.87719e-19)
(25.7712 2.5555 -2.44297e-19)
(25.7696 2.55713 2.87436e-18)
(25.768 2.55887 2.49184e-18)
(25.7662 2.56071 -1.5312e-18)
(25.7644 2.56268 -4.3352e-19)
(25.7624 2.56476 -6.97481e-18)
(25.7604 2.56699 1.05203e-19)
(25.7582 2.56935 -1.98926e-18)
(25.756 2.57187 9.98728e-20)
(25.7537 2.57455 5.25512e-19)
(25.7512 2.57741 -2.77284e-19)
(25.7487 2.58046 3.99695e-19)
(25.7461 2.5837 6.3865e-21)
(25.7435 2.58715 1.35757e-18)
(25.7407 2.59083 -4.57662e-19)
(25.7379 2.59475 -1.15996e-18)
(25.7349 2.59892 -5.60518e-18)
(25.732 2.60336 -8.93023e-19)
(25.7289 2.60809 -1.2968e-19)
(25.7258 2.61311 1.09041e-18)
(25.7226 2.61845 -8.97066e-18)
(25.7194 2.62412 6.84199e-18)
(25.7161 2.63013 3.94163e-19)
(25.7128 2.63651 -1.67046e-17)
(25.7095 2.64327 7.51113e-18)
(25.7062 2.65043 -6.89415e-18)
(25.7029 2.658 6.46629e-19)
(25.6996 2.66599 -3.37671e-17)
(25.6964 2.67443 5.82023e-18)
(25.6933 2.68332 -4.79871e-19)
(25.6903 2.69268 -3.03989e-18)
(25.6874 2.70251 2.07565e-17)
(25.6847 2.71283 1.16837e-17)
(25.6823 2.72364 4.48768e-19)
(25.68 2.73494 5.34591e-17)
(25.678 2.74672 -3.96754e-18)
(25.6762 2.75898 2.10149e-17)
(25.6745 2.7717 1.64706e-17)
(25.673 2.78486 7.52806e-18)
(25.6716 2.79846 3.47962e-17)
(25.6704 2.81246 2.08756e-17)
(25.6693 2.82685 -1.18215e-16)
(25.6684 2.84162 8.27709e-17)
(25.6679 2.85673 1.3282e-16)
(25.6675 2.87215 -2.36016e-17)
(25.6673 2.88783 1.21862e-16)
(25.6671 2.90373 -3.24902e-17)
(25.6667 2.91979 -2.86189e-17)
(25.666 2.93595 2.85704e-16)
(25.6649 2.95217 1.32044e-18)
(25.6633 2.96846 -1.71228e-17)
(25.6614 2.98464 -2.02726e-18)
(25.6592 2.99867 -5.73704e-17)
(25.6571 3.01077 2.02124e-19)
(25.6548 3.02368 -4.59398e-17)
(25.6524 3.03718 1.00078e-16)
(25.6494 3.05139 9.24448e-17)
(25.6446 3.06618 -2.57954e-17)
(25.636 3.08051 -4.9376e-18)
(25.6204 3.0974 0)
(25.6017 3.10404 3.07194e-16)
(25.5832 3.14332 -1.04151e-16)
(25.6096 3.09681 1.23078e-16)
(25.6453 3.30196 2.31505e-18)
(25.7783 2.93326 -4.82011e-16)
(25.8001 2.57833 3.65144e-19)
(25.7997 2.57912 -9.09904e-20)
(25.7995 2.57945 1.45371e-20)
(25.7992 2.58016 -3.83047e-19)
(25.7988 2.5808 2.5195e-20)
(25.7983 2.58151 1.53234e-19)
(25.7978 2.58225 8.84895e-20)
(25.7973 2.58303 6.32318e-21)
(25.7966 2.58386 6.94296e-21)
(25.7959 2.58473 -8.30259e-20)
(25.7952 2.58566 0)
(25.7943 2.58664 -6.63197e-19)
(25.7934 2.58768 1.065e-18)
(25.7924 2.58877 1.37695e-18)
(25.7913 2.58994 5.56391e-19)
(25.7901 2.59118 -7.63701e-19)
(25.7888 2.59249 -2.10745e-19)
(25.7875 2.59388 -1.76788e-19)
(25.7861 2.59537 -8.79312e-20)
(25.7846 2.59694 9.45714e-19)
(25.783 2.59862 9.08489e-19)
(25.7813 2.60041 3.46887e-19)
(25.7796 2.60231 2.83504e-18)
(25.7777 2.60433 1.79718e-18)
(25.7758 2.60649 8.69671e-20)
(25.7738 2.60879 3.1689e-18)
(25.7717 2.61124 -6.75392e-18)
(25.7696 2.61385 2.34287e-18)
(25.7673 2.61664 2.86619e-18)
(25.765 2.61961 5.77171e-18)
(25.7626 2.62277 -8.39879e-18)
(25.7602 2.62615 -1.36465e-17)
(25.7576 2.62975 -2.24754e-18)
(25.755 2.63358 -4.64422e-18)
(25.7523 2.63766 6.41966e-18)
(25.7495 2.64201 8.33025e-18)
(25.7467 2.64664 6.57652e-18)
(25.7439 2.65157 -2.86895e-18)
(25.7409 2.6568 2.00001e-18)
(25.7379 2.66237 1.62421e-17)
(25.7349 2.66828 -8.67212e-18)
(25.7319 2.67455 1.01339e-17)
(25.7289 2.68119 -2.91479e-18)
(25.7258 2.68824 3.12947e-17)
(25.7228 2.69569 2.28697e-17)
(25.7199 2.70357 2.97269e-17)
(25.717 2.71188 -7.23275e-19)
(25.7143 2.72065 3.22861e-17)
(25.7116 2.72989 1.81951e-17)
(25.7092 2.73959 1.70633e-17)
(25.7069 2.74978 -1.39806e-17)
(25.7048 2.76044 -4.4323e-17)
(25.7028 2.77157 4.37567e-17)
(25.7008 2.78318 -1.83658e-18)
(25.699 2.79523 -5.60639e-17)
(25.6972 2.80773 -5.51076e-17)
(25.6956 2.82067 -2.80296e-19)
(25.694 2.83402 -1.123e-17)
(25.6927 2.84778 -1.31222e-16)
(25.6915 2.86194 -5.68624e-18)
(25.6906 2.87645 -6.62739e-19)
(25.6897 2.89129 -2.01299e-17)
(25.6887 2.9064 2.85781e-17)
(25.6875 2.92173 1.01611e-17)
(25.686 2.93724 -1.00296e-17)
(25.684 2.95289 -2.66353e-18)
(25.6816 2.96869 2.00397e-17)
(25.6788 2.98447 7.04739e-17)
(25.6759 2.99822 4.59867e-18)
(25.6732 3.01014 2.07683e-19)
(25.6703 3.02291 4.25586e-17)
(25.6672 3.03632 -3.69151e-18)
(25.6635 3.05052 -7.37337e-18)
(25.6578 3.06527 -8.10733e-18)
(25.6479 3.07979 -5.19713e-18)
(25.6311 3.09636 0)
(25.6118 3.10448 -2.71865e-16)
(25.594 3.1415 1.10723e-16)
(25.6238 3.1016 -7.40905e-17)
(25.6586 3.29856 -4.58564e-18)
(25.7963 2.9404 3.8309e-16)
(25.8187 2.62349 -3.96006e-20)
(25.8183 2.62415 -1.61386e-19)
(25.8181 2.6244 -1.03058e-19)
(25.8177 2.62498 8.40919e-20)
(25.8174 2.6255 -7.73351e-20)
(25.817 2.62608 1.28502e-19)
(25.8165 2.62668 9.19541e-19)
(25.816 2.62732 1.19768e-19)
(25.8154 2.62799 3.45824e-19)
(25.8148 2.62871 -1.28948e-19)
(25.8142 2.62946 0)
(25.8134 2.63027 5.23426e-19)
(25.8127 2.63112 -1.22423e-18)
(25.8118 2.63202 4.87388e-21)
(25.8109 2.63297 -1.78208e-18)
(25.81 2.63399 -1.12631e-18)
(25.8089 2.63507 -1.35774e-18)
(25.8078 2.63622 -1.08491e-18)
(25.8067 2.63744 -4.38397e-19)
(25.8055 2.63874 -2.44208e-18)
(25.8042 2.64012 3.43289e-18)
(25.8028 2.6416 1.75104e-18)
(25.8014 2.64316 -3.24253e-19)
(25.7999 2.64484 -3.01817e-19)
(25.7983 2.64662 9.99494e-19)
(25.7967 2.64852 1.03652e-18)
(25.795 2.65055 3.1295e-18)
(25.7932 2.65272 2.29619e-18)
(25.7914 2.65503 -3.55083e-18)
(25.7895 2.6575 -5.32701e-18)
(25.7875 2.66012 2.40468e-18)
(25.7855 2.66294 1.56613e-18)
(25.7834 2.66593 1.04196e-18)
(25.7812 2.66913 -8.47182e-18)
(25.7789 2.67254 -7.76051e-18)
(25.7766 2.67618 -1.44559e-18)
(25.7742 2.68006 5.78058e-18)
(25.7717 2.6842 3.41057e-18)
(25.7692 2.6886 -8.61936e-18)
(25.7666 2.6933 -1.22114e-17)
(25.764 2.6983 1.06836e-18)
(25.7613 2.70362 -1.68982e-17)
(25.7586 2.70927 7.58789e-18)
(25.7559 2.71528 -1.54532e-17)
(25.7532 2.72166 1.45289e-17)
(25.7505 2.72843 -4.65362e-17)
(25.7479 2.73559 2.5304e-19)
(25.7453 2.74318 4.74153e-18)
(25.7428 2.75121 -3.84725e-17)
(25.7404 2.75968 -1.77035e-17)
(25.7381 2.76861 -2.97648e-17)
(25.7359 2.77799 -7.59176e-18)
(25.7338 2.78783 -5.42171e-17)
(25.7316 2.79814 -4.33258e-17)
(25.7295 2.8089 5.18545e-17)
(25.7274 2.82012 3.86145e-17)
(25.7253 2.8318 -1.94994e-17)
(25.7232 2.84393 6.91981e-17)
(25.7213 2.85649 9.87363e-17)
(25.7196 2.8695 -1.31514e-17)
(25.7179 2.88291 3.29153e-17)
(25.7163 2.89671 -1.10108e-16)
(25.7145 2.91084 -5.63812e-17)
(25.7124 2.92527 1.14814e-16)
(25.7099 2.93996 -2.40556e-16)
(25.7069 2.95489 -3.24542e-17)
(25.7035 2.97005 1.22889e-16)
(25.6997 2.9853 -1.07842e-16)
(25.6959 2.99869 4.5558e-17)
(25.6925 3.01035 1.14658e-17)
(25.6889 3.02292 -5.12615e-18)
(25.6851 3.03619 -1.38008e-16)
(25.6804 3.0503 -1.57796e-16)
(25.6735 3.06498 -1.00389e-16)
(25.6621 3.07967 -6.96445e-17)
(25.644 3.09578 0)
(25.6239 3.10575 2.38409e-16)
(25.6072 3.13971 -1.54967e-16)
(25.6401 3.1081 -1.90136e-16)
(25.6748 3.2946 1.27475e-16)
(25.8136 2.94816 1.39869e-16)
(25.838 2.67086 -1.54266e-19)
(25.8377 2.67136 -2.82201e-19)
(25.8375 2.67158 3.44928e-19)
(25.8372 2.67204 -2.60426e-20)
(25.8368 2.67245 -5.45499e-20)
(25.8365 2.67292 -3.4997e-19)
(25.8361 2.6734 -2.64277e-19)
(25.8357 2.67391 1.37118e-19)
(25.8353 2.67445 -3.17764e-19)
(25.8348 2.67503 -5.34573e-19)
(25.8342 2.67563 0)
(25.8337 2.67628 3.58794e-19)
(25.8331 2.67696 4.46629e-19)
(25.8324 2.67769 1.72013e-19)
(25.8317 2.67845 1.65766e-19)
(25.831 2.67928 5.7695e-19)
(25.8302 2.68014 -3.92333e-19)
(25.8294 2.68107 -4.15082e-19)
(25.8285 2.68206 1.0002e-19)
(25.8276 2.6831 1.11929e-18)
(25.8266 2.68422 -2.79623e-18)
(25.8256 2.68541 -8.64111e-19)
(25.8245 2.68667 2.53836e-19)
(25.8234 2.68803 -5.30886e-19)
(25.8222 2.68947 -2.11099e-18)
(25.8209 2.691 -1.68139e-18)
(25.8196 2.69265 -2.05177e-18)
(25.8183 2.6944 9.45644e-19)
(25.8169 2.69627 -2.41928e-18)
(25.8154 2.69827 2.02363e-18)
(25.8139 2.7004 1.93004e-18)
(25.8123 2.70268 1.10584e-18)
(25.8107 2.70512 -6.63787e-19)
(25.8089 2.70772 1.05826e-18)
(25.8072 2.7105 -8.44675e-19)
(25.8053 2.71347 -4.00105e-18)
(25.8034 2.71664 -7.50926e-18)
(25.8014 2.72002 -5.32479e-18)
(25.7993 2.72363 1.14929e-17)
(25.7972 2.72749 1.87332e-17)
(25.795 2.7316 -1.08251e-17)
(25.7928 2.736 1.10514e-17)
(25.7905 2.74068 1.15626e-18)
(25.7882 2.74566 7.80602e-18)
(25.7859 2.75099 -1.73154e-17)
(25.7836 2.75664 2.59516e-17)
(25.7812 2.76266 -8.66467e-18)
(25.779 2.76906 2.65241e-18)
(25.7767 2.77586 3.75368e-17)
(25.7745 2.78305 -1.27424e-17)
(25.7723 2.79068 5.73923e-18)
(25.7701 2.79873 2.94781e-17)
(25.7679 2.80722 -2.79454e-17)
(25.7656 2.81616 4.74085e-17)
(25.7632 2.82555 -3.04975e-17)
(25.7608 2.83539 1.19902e-17)
(25.7584 2.8457 5.10188e-17)
(25.7559 2.85648 -5.394e-17)
(25.7535 2.86773 -7.07517e-17)
(25.7512 2.87946 -3.74206e-17)
(25.7489 2.89163 -9.84e-17)
(25.7465 2.90424 4.7457e-17)
(25.7438 2.91724 2.32691e-17)
(25.7407 2.93063 -5.84835e-18)
(25.7372 2.94436 1.17841e-16)
(25.7333 2.95843 -9.74636e-18)
(25.7288 2.97282 -1.84388e-16)
(25.7239 2.98742 9.63648e-17)
(25.7192 3.00035 6.37949e-17)
(25.715 3.01169 -3.27916e-18)
(25.7107 3.02398 3.77169e-17)
(25.7059 3.03705 -2.86433e-18)
(25.7001 3.05101 2.92333e-17)
(25.6918 3.06557 -4.38617e-17)
(25.6787 3.08036 -1.44681e-18)
(25.659 3.09602 0)
(25.6379 3.10791 -2.18629e-16)
(25.6234 3.13874 1.66929e-16)
(25.6577 3.11587 3.83186e-17)
(25.6962 3.29179 -1.21575e-16)
(25.8265 2.95744 9.32237e-17)
(25.8546 2.71114 7.39504e-20)
(25.8544 2.71154 7.49389e-21)
(25.8541 2.71173 -1.68572e-19)
(25.8539 2.7121 -4.5732e-20)
(25.8536 2.71244 -2.87638e-20)
(25.8534 2.71282 -2.41859e-20)
(25.8531 2.71321 -4.65816e-20)
(25.8527 2.71363 -1.93324e-19)
(25.8524 2.71407 1.82489e-19)
(25.852 2.71454 4.44489e-19)
(25.8516 2.71504 0)
(25.8512 2.71557 -6.34067e-20)
(25.8507 2.71613 2.52996e-19)
(25.8502 2.71672 -1.74028e-19)
(25.8497 2.71735 6.36907e-19)
(25.8492 2.71803 -8.25329e-19)
(25.8486 2.71874 6.79774e-19)
(25.848 2.71951 -1.46471e-19)
(25.8474 2.72032 7.05071e-20)
(25.8467 2.72118 -3.52514e-19)
(25.846 2.7221 1.57325e-18)
(25.8452 2.72308 1.48183e-18)
(25.8444 2.72412 1.40519e-19)
(25.8436 2.72524 5.93533e-19)
(25.8428 2.72643 2.05628e-18)
(25.8418 2.72769 1.68811e-18)
(25.8409 2.72905 1.086e-18)
(25.8399 2.73049 -4.14733e-18)
(25.8389 2.73204 4.11778e-18)
(25.8378 2.73369 1.78615e-18)
(25.8366 2.73546 -3.66203e-18)
(25.8354 2.73734 2.07652e-19)
(25.8342 2.73936 -1.49305e-18)
(25.8329 2.74151 4.87663e-18)
(25.8315 2.74382 3.15696e-18)
(25.8301 2.74628 -5.8165e-19)
(25.8286 2.74891 -7.73554e-19)
(25.827 2.75172 2.329e-18)
(25.8254 2.75473 2.21576e-19)
(25.8237 2.75795 -6.71138e-18)
(25.822 2.76139 4.2921e-18)
(25.8202 2.76507 3.27777e-18)
(25.8183 2.76899 -6.57568e-18)
(25.8165 2.77319 -2.32488e-18)
(25.8146 2.77768 -3.16375e-18)
(25.8126 2.78246 -1.02372e-18)
(25.8107 2.78758 -5.44573e-18)
(25.8088 2.79302 -5.98624e-18)
(25.8068 2.79883 -2.28988e-17)
(25.8049 2.805 2.06767e-17)
(25.8029 2.81157 2.98275e-17)
(25.8009 2.81853 -2.93638e-17)
(25.7987 2.82589 3.40985e-17)
(25.7965 2.83368 -2.30354e-17)
(25.7941 2.84191 2.54826e-17)
(25.7916 2.85057 -4.24912e-17)
(25.789 2.85971 -3.34977e-17)
(25.7864 2.86931 3.33662e-17)
(25.7837 2.8794 1.19998e-17)
(25.7811 2.88998 -1.47435e-17)
(25.7783 2.90103 9.76724e-17)
(25.7754 2.91256 -5.41269e-18)
(25.7721 2.92453 8.49914e-18)
(25.7683 2.93693 2.53001e-17)
(25.764 2.94975 8.43874e-19)
(25.7593 2.96299 9.85307e-17)
(25.754 2.97663 1.52277e-16)
(25.7481 2.99059 -7.55821e-17)
(25.7427 3.00305 -4.94959e-18)
(25.7379 3.01405 -1.3548e-17)
(25.7328 3.02605 8.37918e-18)
(25.7273 3.0389 8.11882e-18)
(25.7205 3.05268 4.05315e-17)
(25.7108 3.0671 4.18532e-17)
(25.6959 3.0819 -2.63122e-17)
(25.6748 3.09723 0)
(25.6531 3.11085 -4.70634e-17)
(25.6412 3.1391 -1.68945e-16)
(25.6765 3.12438 9.18083e-17)
(25.7196 3.29103 1.65539e-16)
(25.8383 2.96907 -8.97696e-17)
(25.8698 2.74542 -7.44363e-20)
(25.87 2.74529 7.89919e-20)
(25.8696 2.74575 -1.94252e-21)
(25.8694 2.74592 -8.12082e-21)
(25.8692 2.74622 8.33303e-20)
(25.869 2.74651 7.68439e-20)
(25.8688 2.74682 9.95289e-20)
(25.8686 2.74715 9.03302e-20)
(25.8683 2.7475 -1.30129e-19)
(25.8681 2.74788 -1.32935e-19)
(25.8678 2.74827 -3.45303e-19)
(25.8676 2.74869 0)
(25.8673 2.74913 -6.44675e-21)
(25.8669 2.74961 -3.69666e-19)
(25.8666 2.7501 -5.28599e-19)
(25.8662 2.75064 -5.66665e-19)
(25.8659 2.7512 5.28095e-19)
(25.8655 2.7518 -2.99869e-19)
(25.865 2.75245 5.8391e-19)
(25.8646 2.75312 3.37183e-20)
(25.8641 2.75385 3.56981e-20)
(25.8636 2.75463 -6.98021e-19)
(25.8631 2.75545 -4.67154e-19)
(25.8626 2.75633 -1.51613e-18)
(25.862 2.75726 -5.30428e-20)
(25.8614 2.75826 2.31433e-20)
(25.8608 2.75933 1.13287e-18)
(25.8601 2.76047 8.19655e-19)
(25.8594 2.76168 8.02215e-19)
(25.8587 2.76298 -1.955e-18)
(25.8579 2.76437 -1.71932e-19)
(25.8571 2.76586 2.88117e-18)
(25.8562 2.76744 -2.05094e-18)
(25.8553 2.76914 -3.97909e-19)
(25.8544 2.77095 -6.24197e-19)
(25.8534 2.77289 5.60314e-19)
(25.8523 2.77497 2.0741e-18)
(25.8512 2.77719 8.10605e-19)
(25.85 2.77957 9.94743e-19)
(25.8488 2.78211 -1.39539e-18)
(25.8475 2.78484 3.68795e-19)
(25.8462 2.78775 1.56714e-18)
(25.8448 2.79088 -4.66766e-18)
(25.8434 2.79422 7.61021e-18)
(25.8419 2.79781 1.48145e-18)
(25.8404 2.80164 3.80959e-18)
(25.8389 2.80574 -2.62316e-18)
(25.8374 2.81013 -1.00691e-17)
(25.8358 2.81483 -1.08913e-17)
(25.8342 2.81985 7.12771e-18)
(25.8326 2.8252 -8.39709e-18)
(25.8309 2.8309 -1.79262e-17)
(25.8291 2.83697 7.77468e-18)
(25.8271 2.84342 -7.00864e-18)
(25.825 2.85026 4.00608e-18)
(25.8227 2.85752 -2.30469e-17)
(25.8202 2.86521 4.03128e-17)
(25.8177 2.87335 -9.06394e-18)
(25.815 2.88196 -1.92574e-17)
(25.8123 2.89105 -2.91037e-17)
(25.8095 2.90064 -4.70692e-19)
(25.8065 2.91072 -2.54131e-17)
(25.8032 2.92129 8.24569e-18)
(25.7994 2.93233 -3.54859e-17)
(25.7952 2.94385 -3.04712e-17)
(25.7903 2.95584 8.75738e-18)
(25.785 2.96832 -3.04133e-17)
(25.779 2.98126 -7.28054e-17)
(25.7725 2.99462 3.80598e-17)
(25.7664 3.00662 -4.27757e-17)
(25.7612 3.01731 9.06335e-18)
(25.7556 3.02902 -4.67693e-17)
(25.7493 3.04164 1.37377e-17)
(25.7416 3.05523 -6.23033e-17)
(25.7305 3.06951 -4.93789e-17)
(25.714 3.0843 2.40148e-17)
(25.6916 3.09942 0)
(25.6697 3.11466 6.31355e-17)
(25.6607 3.1409 -4.38435e-17)
(25.6974 3.13396 1.26673e-16)
(25.7445 3.29215 -9.20105e-17)
(25.8514 2.9837 -1.11344e-16)
(25.8838 2.7743 -1.22762e-19)
(25.8839 2.77416 -1.50075e-19)
(25.8836 2.77459 2.75741e-20)
(25.8835 2.77474 1.1897e-20)
(25.8834 2.775 3.31919e-20)
(25.8833 2.77525 3.0885e-20)
(25.8831 2.77552 7.08916e-20)
(25.883 2.77581 1.7562e-21)
(25.8828 2.77611 1.22473e-19)
(25.8827 2.77644 -2.19642e-20)
(25.8825 2.77678 7.61648e-21)
(25.8824 2.77714 0)
(25.8822 2.77753 5.22371e-20)
(25.882 2.77794 2.55785e-19)
(25.8818 2.77837 1.54754e-19)
(25.8816 2.77884 1.24341e-19)
(25.8813 2.77933 3.47924e-20)
(25.8811 2.77985 -9.41987e-20)
(25.8808 2.78041 -3.49803e-19)
(25.8806 2.78099 2.54741e-21)
(25.8803 2.78162 1.54397e-19)
(25.88 2.78229 -2.4918e-19)
(25.8797 2.783 1.22112e-20)
(25.8793 2.78377 -1.05245e-19)
(25.879 2.78457 -3.63214e-19)
(25.8786 2.78544 -3.58918e-19)
(25.8782 2.78636 -1.00103e-18)
(25.8778 2.78734 -7.01512e-19)
(25.8774 2.78839 1.78992e-18)
(25.8769 2.78951 4.57555e-19)
(25.8764 2.79071 -1.60443e-18)
(25.8759 2.79198 -9.332e-19)
(25.8753 2.79335 2.34044e-18)
(25.8747 2.79481 -7.22983e-19)
(25.8741 2.79637 9.75093e-19)
(25.8734 2.79804 -9.03154e-19)
(25.8727 2.79983 -8.65955e-19)
(25.8719 2.80174 3.36243e-18)
(25.8711 2.80379 4.70028e-19)
(25.8702 2.80598 -2.51414e-18)
(25.8693 2.80833 -2.64722e-18)
(25.8684 2.81085 2.49349e-18)
(25.8674 2.81355 1.47586e-18)
(25.8664 2.81645 -3.56293e-18)
(25.8653 2.81956 5.77344e-18)
(25.8643 2.82289 -5.69514e-18)
(25.8632 2.82646 -3.05143e-18)
(25.862 2.83029 -1.22252e-18)
(25.8609 2.83439 5.58906e-19)
(25.8596 2.83879 -2.83408e-18)
(25.8583 2.84349 -1.03094e-17)
(25.8569 2.8485 1.48015e-17)
(25.8554 2.85386 -7.06119e-18)
(25.8536 2.85956 -4.08217e-18)
(25.8517 2.86564 -1.06053e-17)
(25.8496 2.87211 6.91622e-18)
(25.8473 2.87899 -1.84843e-17)
(25.8448 2.88631 5.46016e-18)
(25.8423 2.8941 1.14694e-17)
(25.8396 2.90236 2.10721e-17)
(25.8368 2.91111 -4.83378e-19)
(25.8337 2.92036 -8.81189e-18)
(25.8302 2.9301 -3.03579e-18)
(25.8261 2.94034 2.83302e-17)
(25.8215 2.95109 4.61636e-17)
(25.8163 2.96235 -1.00304e-17)
(25.8105 2.97414 -5.23604e-19)
(25.804 2.98646 -8.48717e-18)
(25.797 2.99928 -4.55079e-17)
(25.7905 3.01088 1.82469e-17)
(25.7849 3.02128 -1.23742e-18)
(25.7789 3.03273 3.89405e-18)
(25.772 3.04514 7.08051e-17)
(25.7633 3.05855 3.19253e-17)
(25.751 3.07271 2.07938e-17)
(25.7329 3.08747 2.67376e-17)
(25.7095 3.10256 0)
(25.6879 3.11933 6.52636e-17)
(25.6822 3.14414 -3.23465e-18)
(25.7207 3.14473 -3.24772e-17)
(25.7713 3.29504 -4.22601e-17)
(25.866 3.00171 -9.49944e-17)
(25.8979 2.79816 -1.83983e-20)
(25.898 2.79802 3.35084e-21)
(25.8979 2.79841 -1.02321e-19)
(25.8978 2.79855 4.19951e-20)
(25.8977 2.79878 5.818e-21)
(25.8977 2.79899 -8.36546e-20)
(25.8976 2.79924 -1.05992e-19)
(25.8975 2.79949 -8.54973e-20)
(25.8975 2.79976 -5.90447e-20)
(25.8974 2.80004 3.54338e-20)
(25.8973 2.80034 2.75894e-20)
(25.8973 2.80066 0)
(25.8972 2.801 -1.59834e-19)
(25.8971 2.80136 -5.77207e-20)
(25.897 2.80175 2.57064e-19)
(25.8969 2.80216 7.83775e-20)
(25.8968 2.80259 2.11261e-19)
(25.8967 2.80305 2.49867e-19)
(25.8966 2.80354 7.4447e-20)
(25.8965 2.80406 -2.63407e-19)
(25.8963 2.80462 -1.35801e-19)
(25.8962 2.80521 3.01053e-19)
(25.8961 2.80584 1.86402e-19)
(25.8959 2.80651 3.08999e-19)
(25.8957 2.80723 -2.29161e-20)
(25.8956 2.808 -2.17379e-19)
(25.8954 2.80881 -8.26167e-19)
(25.8952 2.80968 5.62397e-19)
(25.8949 2.81061 -8.03256e-19)
(25.8947 2.8116 3.40696e-19)
(25.8944 2.81266 -9.18419e-21)
(25.8941 2.81378 8.99874e-19)
(25.8938 2.815 -8.64225e-19)
(25.8935 2.81629 1.39784e-18)
(25.8931 2.81767 -2.73252e-19)
(25.8927 2.81915 -5.73612e-19)
(25.8923 2.82073 9.27056e-19)
(25.8918 2.82242 -4.6492e-19)
(25.8914 2.82424 1.17505e-18)
(25.8908 2.82618 1.25873e-18)
(25.8903 2.82827 1.45603e-18)
(25.8897 2.8305 -5.05927e-19)
(25.8891 2.8329 -1.28316e-18)