/*--------------------------------*- C++ -*----------------------------------*\
| =========                 |                                                 |
| \\      /  F ield         | OpenFOAM: The Open Source CFD Toolbox           |
|  \\    /   O peration     | Version:  2506                                  |
|   \\  /    A nd           | Website:  www.openfoam.com                      |
|    \\/     M anipulation  |                                                 |
\*---------------------------------------------------------------------------*/
FoamFile
{
    version     2.0;
    format      ascii;
    arch        "LSB;label=32;scalar=64";
    class       pointScalarField;
    location    "0.4";
    object      streamFunction;
}
// * * * * * * * * * * * * * * * * * * * * * * * * * * * * * * * * * * * * * //

dimensions      [0 3 -1 0 0 0 0];

internalField   nonuniform List<scalar> 
882
(
0
0
0
0
0
0
0
0
0
0
0
0
0
0
0
0
0
0
0
0
0
0
1.42942e-06
-2.2232e-06
-1.14307e-05
-2.45414e-05
-3.96127e-05
-5.4727e-05
-6.83246e-05
-7.90611e-05
-8.60186e-05
-8.8571e-05
-8.6439e-05
-7.97414e-05
-6.90128e-05
-5.5201e-05
-3.9686e-05
-2.42698e-05
-1.09712e-05
-1.8443e-06
1.56989e-06
0
0
-1.99222e-06
-2.02611e-05
-5.48309e-05
-0.000100987
-0.000152838
-0.000204456
-0.000250664
-0.000287121
-0.000310653
-0.000319181
-0.000311835
-0.000289051
-0.000252644
-0.000205809
-0.000153097
-0.000100224
-5.35122e-05
-1.91139e-05
-1.5104e-06
0
0
-1.12153e-05
-5.59618e-05
-0.000131289
-0.000227839
-0.000334313
-0.000439367
-0.000532915
-0.000606523
-0.000653922
-0.000671041
-0.000656201
-0.000610284
-0.000536861
-0.000442195
-0.000335132
-0.000226675
-0.000128966
-5.38117e-05
-1.02442e-05
0
0
-2.57367e-05
-0.000108509
-0.000239455
-0.000402594
-0.000579751
-0.000753011
-0.000906451
-0.00102682
-0.00110422
-0.00113224
-0.00110823
-0.00103357
-0.000913804
-0.000758764
-0.000582324
-0.000401785
-0.000236419
-0.000105326
-2.4176e-05
0
0
-4.5098e-05
-0.00017701
-0.000378019
-0.000623322
-0.000886302
-0.00114139
-0.00136611
-0.00154189
-0.00165487
-0.0016961
-0.00166182
-0.00155381
-0.0013797
-0.00115306
-0.000893298
-0.000624837
-0.000375384
-0.000173177
-4.2953e-05
0
0
-6.90924e-05
-0.000261046
-0.00054635
-0.000889031
-0.00125239
-0.00160218
-0.00190875
-0.00214795
-0.00230182
-0.00235871
-0.00231366
-0.0021687
-0.00193336
-0.00162496
-0.00126865
-0.000896687
-0.000546539
-0.000257644
-6.65712e-05
0
0
-9.77672e-05
-0.000360756
-0.00074456
-0.00119953
-0.00167719
-0.00213366
-0.00253177
-0.00284168
-0.00304137
-0.00311658
-0.00306098
-0.00287661
-0.00257455
-0.00217552
-0.00171036
-0.00121963
-0.000751836
-0.000359899
-9.53996e-05
0
0
-0.000131401
-0.000476794
-0.000973364
-0.00155503
-0.00215986
-0.00273357
-0.00323138
-0.00361803
-0.00386783
-0.00396405
-0.00389898
-0.00367431
-0.00330201
-0.00280552
-0.00222083
-0.00159688
-0.000994326
-0.000481974
-0.000130171
0
0
-0.000170497
-0.000610283
-0.00123386
-0.00195563
-0.00269854
-0.00339755
-0.00400062
-0.00446789
-0.00477067
-0.00489035
-0.00481785
-0.00455406
-0.00411095
-0.00351343
-0.00280146
-0.00203179
-0.00127781
-0.000626684
-0.000171981
0
0
-0.000215842
-0.000762852
-0.00152735
-0.00240064
-0.00328917
-0.00411734
-0.00482699
-0.0053751
-0.00573137
-0.00587611
-0.0057992
-0.0055002
-0.00498987
-0.00429273
-0.00345069
-0.00252659
-0.00160632
-0.000797552
-0.000222339
0
0
-0.000268675
-0.000936818
-0.00185515
-0.0028878
-0.00392387
-0.00487842
-0.00568943
-0.00631306
-0.00671946
-0.00688926
-0.00681178
-0.00648484
-0.00591647
-0.00512837
-0.00416116
-0.00308066
-0.00198339
-0.000998769
-0.000283308
0
0
-0.000331042
-0.00113556
-0.00221834
-0.00341199
-0.00458863
-0.00565686
-0.00655452
-0.00724049
-0.00768811
-0.00788024
-0.0078065
-0.00746269
-0.00685255
-0.00599193
-0.00491579
-0.00368782
-0.00241082
-0.00123513
-0.000357786
0
0
-0.000406449
-0.00136399
-0.00261704
-0.0039629
-0.00525958
-0.00641471
-0.00737152
-0.00809625
-0.00856888
-0.00877674
-0.00871093
-0.00836526
-0.00773781
-0.00683541
-0.00568208
-0.00433201
-0.00288644
-0.00151181
-0.000450029
0
0
-0.000500969
-0.00162884
-0.00304813
-0.00452022
-0.00589665
-0.00709303
-0.00806556
-0.00879321
-0.00926615
-0.00947838
-0.00942378
-0.00909463
-0.00848266
-0.00758319
-0.00640387
-0.00498029
-0.00339978
-0.0018333
-0.000566467
0
0
-0.0006247
-0.00193716
-0.0034989
-0.00504367
-0.00643216
-0.0076012
-0.00852864
-0.00921112
-0.00965157
-0.00985207
-0.00981027
-0.00951788
-0.00896086
-0.00812228
-0.00698971
-0.00557094
-0.00392306
-0.00219993
-0.000716474
0
0
-0.00079208
-0.0022885
-0.00393042
-0.00545255
-0.00675145
-0.00780107
-0.00860814
-0.00918917
-0.00955973
-0.00972949
-0.00970005
-0.00946376
-0.00900314
-0.00829153
-0.00729694
-0.00599401
-0.00439262
-0.00259665
-0.000910966
0
0
-0.00101515
-0.00264752
-0.0042382
-0.00558693
-0.00666174
-0.00748556
-0.00809432
-0.00852029
-0.00878713
-0.00890882
-0.00888965
-0.00872384
-0.00839444
-0.0078716
-0.00711152
-0.00606018
-0.00467184
-0.00296285
-0.00115212
0
0
-0.00127253
-0.00286587
-0.00416639
-0.00513997
-0.00584841
-0.0063554
-0.0067114
-0.00695147
-0.00709795
-0.00716332
-0.007152
-0.00706078
-0.00687771
-0.00657924
-0.00612534
-0.00545398
-0.0044806
-0.00311881
-0.00139795
0
0
-0.00135103
-0.00245779
-0.00313663
-0.00356061
-0.0038326
-0.00400959
-0.00412531
-0.00419931
-0.00424254
-0.00426067
-0.00425577
-0.0042269
-0.00416952
-0.00407373
-0.00392017
-0.00367243
-0.00326336
-0.00257104
-0.00141087
0
0
0
0
0
0
0
0
0
0
0
0
0
0
0
0
0
0
0
0
0
0
0
0
0
0
0
0
0
0
0
0
0
0
0
0
0
0
0
0
0
0
0
0
1.42942e-06
-2.2232e-06
-1.14307e-05
-2.45414e-05
-3.96127e-05
-5.4727e-05
-6.83246e-05
-7.90611e-05
-8.60186e-05
-8.8571e-05
-8.6439e-05
-7.97414e-05
-6.90128e-05
-5.5201e-05
-3.9686e-05
-2.42698e-05
-1.09712e-05
-1.8443e-06
1.56989e-06
0
0
-1.99222e-06
-2.02611e-05
-5.48309e-05
-0.000100987
-0.000152838
-0.000204456
-0.000250664
-0.000287121
-0.000310653
-0.000319181
-0.000311835
-0.000289051
-0.000252644
-0.000205809
-0.000153097
-0.000100224
-5.35122e-05
-1.91139e-05
-1.5104e-06
0
0
-1.12153e-05
-5.59618e-05
-0.000131289
-0.000227839
-0.000334313
-0.000439367
-0.000532915
-0.000606523
-0.000653922
-0.000671041
-0.000656201
-0.000610284
-0.000536861
-0.000442195
-0.000335132
-0.000226675
-0.000128966
-5.38117e-05
-1.02442e-05
0
0
-2.57367e-05
-0.000108509
-0.000239455
-0.000402594
-0.000579751
-0.000753011
-0.000906451
-0.00102682
-0.00110422
-0.00113224
-0.00110823
-0.00103357
-0.000913804
-0.000758764
-0.000582324
-0.000401785
-0.000236419
-0.000105326
-2.4176e-05
0
0
-4.5098e-05
-0.00017701
-0.000378019
-0.000623322
-0.000886302
-0.00114139
-0.00136611
-0.00154189
-0.00165487
-0.0016961
-0.00166182
-0.00155381
-0.0013797
-0.00115306
-0.000893298
-0.000624837
-0.000375384
-0.000173177
-4.2953e-05
0
0
-6.90924e-05
-0.000261046
-0.00054635
-0.000889031
-0.00125239
-0.00160218
-0.00190875
-0.00214795
-0.00230182
-0.00235871
-0.00231366
-0.0021687
-0.00193336
-0.00162496
-0.00126865
-0.000896687
-0.000546539
-0.000257644
-6.65712e-05
0
0
-9.77672e-05
-0.000360756
-0.00074456
-0.00119953
-0.00167719
-0.00213366
-0.00253177
-0.00284168
-0.00304137
-0.00311658
-0.00306098
-0.00287661
-0.00257455
-0.00217552
-0.00171036
-0.00121963
-0.000751836
-0.000359899
-9.53996e-05
0
0
-0.000131401
-0.000476794
-0.000973364
-0.00155503
-0.00215986
-0.00273357
-0.00323138
-0.00361803
-0.00386783
-0.00396405
-0.00389898
-0.00367431
-0.00330201
-0.00280552
-0.00222083
-0.00159688
-0.000994326
-0.000481974
-0.000130171
0
0
-0.000170497
-0.000610283
-0.00123386
-0.00195563
-0.00269854
-0.00339755
-0.00400062
-0.00446789
-0.00477067
-0.00489035
-0.00481785
-0.00455406
-0.00411095
-0.00351343
-0.00280146
-0.00203179
-0.00127781
-0.000626684
-0.000171981
0
0
-0.000215842
-0.000762852
-0.00152735
-0.00240064
-0.00328917
-0.00411734
-0.00482699
-0.0053751
-0.00573137
-0.00587611
-0.0057992
-0.0055002
-0.00498987
-0.00429273
-0.00345069
-0.00252659
-0.00160632
-0.000797552
-0.000222339
0
0
-0.000268675
-0.000936818
-0.00185515
-0.0028878
-0.00392387
-0.00487842
-0.00568943
-0.00631306
-0.00671946
-0.00688926
-0.00681178
-0.00648484
-0.00591647
-0.00512837
-0.00416116
-0.00308066
-0.00198339
-0.000998769
-0.000283308
0
0
-0.000331042
-0.00113556
-0.00221834
-0.00341199
-0.00458863
-0.00565686
-0.00655452
-0.00724049
-0.00768811
-0.00788024
-0.0078065
-0.00746269
-0.00685255
-0.00599193
-0.00491579
-0.00368782
-0.00241082
-0.00123513
-0.000357786
0
0
-0.000406449
-0.00136399
-0.00261704
-0.0039629
-0.00525958
-0.00641471
-0.00737152
-0.00809625
-0.00856888
-0.00877674
-0.00871093
-0.00836526
-0.00773781
-0.00683541
-0.00568208
-0.00433201
-0.00288644
-0.00151181
-0.000450029
0
0
-0.000500969
-0.00162884
-0.00304813
-0.00452022
-0.00589665
-0.00709303
-0.00806556
-0.00879321
-0.00926615
-0.00947838
-0.00942378
-0.00909463
-0.00848266
-0.00758319
-0.00640387
-0.00498029
-0.00339978
-0.0018333
-0.000566467
0
0
-0.0006247
-0.00193716
-0.0034989
-0.00504367
-0.00643216
-0.0076012
-0.00852864
-0.00921112
-0.00965157
-0.00985207
-0.00981027
-0.00951788
-0.00896086
-0.00812228
-0.00698971
-0.00557094
-0.00392306
-0.00219993
-0.000716474
0
0
-0.00079208
-0.0022885
-0.00393042
-0.00545255
-0.00675145
-0.00780107
-0.00860814
-0.00918917
-0.00955973
-0.00972949
-0.00970005
-0.00946376
-0.00900314
-0.00829153
-0.00729694
-0.00599401
-0.00439262
-0.00259665
-0.000910966
0
0
-0.00101515
-0.00264752
-0.0042382
-0.00558693
-0.00666174
-0.00748556
-0.00809432
-0.00852029
-0.00878713
-0.00890882
-0.00888965
-0.00872384
-0.00839444
-0.0078716
-0.00711152
-0.00606018
-0.00467184
-0.00296285
-0.00115212
0
0
-0.00127253
-0.00286587
-0.00416639
-0.00513997
-0.00584841
-0.0063554
-0.0067114
-0.00695147
-0.00709795
-0.00716332
-0.007152
-0.00706078
-0.00687771
-0.00657924
-0.00612534
-0.00545398
-0.0044806
-0.00311881
-0.00139795
0
0
-0.00135103
-0.00245779
-0.00313663
-0.00356061
-0.0038326
-0.00400959
-0.00412531
-0.00419931
-0.00424254
-0.00426067
-0.00425577
-0.0042269
-0.00416952
-0.00407373
-0.00392017
-0.00367243
-0.00326336
-0.00257104
-0.00141087
0
0
0
0
0
0
0
0
0
0
0
0
0
0
0
0
0
0
0
0
0
0
)
;

boundaryField
{
    movingWall
    {
        type            calculated;
    }
    fixedWalls
    {
        type            calculated;
    }
    frontAndBack
    {
        type            empty;
    }
}


// ************************************************************************* //
