/*--------------------------------*- C++ -*----------------------------------*\
| =========                 |                                                 |
| \\      /  F ield         | OpenFOAM: The Open Source CFD Toolbox           |
|  \\    /   O peration     | Version:  2506                                  |
|   \\  /    A nd           | Website:  www.openfoam.com                      |
|    \\/     M anipulation  |                                                 |
\*---------------------------------------------------------------------------*/
FoamFile
{
    version     2.0;
    format      ascii;
    arch        "LSB;label=32;scalar=64";
    class       volScalarField;
    location    "0.6";
    object      mag(U);
}
// * * * * * * * * * * * * * * * * * * * * * * * * * * * * * * * * * * * * * //

dimensions      [0 1 -1 0 0 0 0];

internalField   nonuniform List<scalar> 
1600
(
8.56372e-05
0.000166232
0.000157165
5.28999e-05
0.000322309
0.000772913
0.00134343
0.00200594
0.00273316
0.00349883
0.00427822
0.00504847
0.00578872
0.00648019
0.00710627
0.00765243
0.00810636
0.0084579
0.00869912
0.00882439
0.00883041
0.00871632
0.00848382
0.0081372
0.00768349
0.00713245
0.00649667
0.00579148
0.00503492
0.00424759
0.0034524
0.0026743
0.00193977
0.00127632
0.000711669
0.00027363
6.159e-05
0.000174843
0.000171389
8.51271e-05
0.000167599
0.000100412
0.000255479
0.000908947
0.00188683
0.00317546
0.00473517
0.006512
0.00844535
0.0104729
0.0125335
0.014569
0.0165252
0.0183527
0.0200077
0.0214512
0.0226505
0.0235783
0.0242136
0.0245414
0.0245535
0.0242479
0.0236296
0.0227106
0.0215101
0.0200544
0.0183771
0.0165187
0.0145263
0.0124535
0.0103585
0.00830393
0.00635459
0.0045752
0.00302694
0.00176218
0.00081679
0.000199537
0.000127551
0.000172302
0.000163205
0.000248155
0.00114517
0.00246971
0.00420349
0.00632601
0.00879376
0.0115433
0.0144983
0.0175758
0.0206911
0.0237618
0.0267092
0.029461
0.0319515
0.034123
0.035926
0.0373199
0.038273
0.0387633
0.0387783
0.0383157
0.0373835
0.0360001
0.0341947
0.032007
0.0294872
0.0266953
0.0237008
0.0205811
0.0174201
0.0143058
0.0113273
0.00857021
0.00611188
0.0040142
0.00231717
0.00103683
0.000188239
0.000180995
5.04511e-05
0.000898446
0.00247731
0.00457751
0.00713391
0.0101055
0.0134409
0.0170721
0.0209166
0.0248825
0.0288729
0.0327907
0.0365418
0.0400381
0.0431988
0.0459523
0.0482371
0.0500021
0.051208
0.0518273
0.0518447
0.0512575
0.0500762
0.0483243
0.0460386
0.0432687
0.0400768
0.0365369
0.0327335
0.0287598
0.0247156
0.0207033
0.0168246
0.0131752
0.0098389
0.00688401
0.00436091
0.00230918
0.00079154
7.00924e-05
0.000296574
0.00189106
0.00426322
0.00721445
0.0106372
0.0144668
0.0186405
0.0230862
0.0277197
0.0324468
0.0371667
0.041776
0.0461729
0.0502605
0.0539492
0.0571587
0.0598192
0.0618734
0.0632762
0.0639968
0.0640179
0.0633368
0.0619656
0.0599313
0.0572755
0.0540545
0.0503376
0.0462074
0.0417565
0.0370866
0.0323045
0.0275188
0.0228355
0.0183532
0.0141596
0.0103299
0.0069296
0.00402585
0.00172712
0.000233116
0.000748767
0.0032391
0.00652461
0.0103979
0.0147234
0.0194166
0.0244037
0.0296088
0.0349488
0.0403316
0.0456586
0.0508267
0.0557332
0.0602788
0.0643707
0.0679248
0.0708677
0.0731387
0.0746901
0.0754889
0.0755168
0.0747712
0.073265
0.0710269
0.068101
0.0645458
0.0604343
0.0558513
0.0508917
0.0456586
0.040259
0.0348006
0.0293881
0.0241194
0.0190838
0.0143645
0.0100424
0.00621002
0.00300924
0.000653425
0.00134538
0.00493917
0.00927211
0.0141464
0.0194139
0.0249779
0.0307574
0.036675
0.0426508
0.0485987
0.0544262
0.0600369
0.0653326
0.0702176
0.0746011
0.0784
0.0815416
0.0839648
0.0856216
0.086479
0.0865185
0.0857371
0.0841481
0.0817796
0.0786755
0.0748936
0.070505
0.0655919
0.0602461
0.0545655
0.0486515
0.0426055
0.0365263
0.030508
0.0246407
0.0190139
0.0137217
0.00887563
0.00463657
0.0012148
0.00207566
0.00698131
0.0125068
0.0184722
0.0247294
0.0311778
0.0377345
0.0443243
0.0508735
0.0573055
0.0635386
0.069487
0.0750629
0.0801792
0.084752
0.0887042
0.0919672
0.0944833
0.0962069
0.0971059
0.0971627
0.0963742
0.0947524
0.0923236
0.0891282
0.0852197
0.0806631
0.0755334
0.0699127
0.0638888
0.057552
0.0509927
0.0443002
0.0375622
0.0308668
0.024307
0.0179868
0.0120287
0.00660203
0.00190657
0.00293168
0.00935458
0.0162248
0.0233826
0.0306873
0.038042
0.0453679
0.0525961
0.0596632
0.0665056
0.0730564
0.0792454
0.0849996
0.0902454
0.0949113
0.0989302
0.102241
0.104795
0.106549
0.107474
0.107555
0.106789
0.105183
0.102762
0.0995598
0.0956213
0.0910012
0.0857619
0.0799714
0.0737016
0.0670266
0.0600216
0.0527624
0.0453272
0.0377992
0.0302719
0.0228534
0.015672
0.00889867
0.00272199
0.00390791
0.0120499
0.0204215
0.0288813
0.0373008
0.0455925
0.0536867
0.0615259
0.0690608
0.076245
0.0830308
0.0893676
0.0952022
0.10048
0.105145
0.109147
0.112436
0.114971
0.11672
0.117657
0.11777
0.117053
0.115514
0.113169
0.110044
0.106171
0.10159
0.0963468
0.0904886
0.084067
0.0771348
0.0697474
0.0619633
0.0538475
0.0454746
0.036935
0.0283368
0.0198095
0.0115229
0.00365732
0.00500103
0.0150615
0.0250932
0.034971
0.0445802
0.0538468
0.0627149
0.0711428
0.0790999
0.0865609
0.0935016
0.0998956
0.105715
0.110927
0.115498
0.119398
0.122594
0.125056
0.126763
0.127698
0.127849
0.127212
0.12579
0.123591
0.120627
0.116916
0.11248
0.107338
0.101515
0.0950357
0.0879265
0.0802183
0.0719481
0.0631636
0.0539274
0.0443225
0.0344534
0.0244484
0.0144757
0.00471167
0.00620968
0.0183869
0.0302391
0.0416546
0.0525338
0.0628185
0.0724705
0.0814685
0.0898046
0.0974791
0.104495
0.110856
0.116562
0.12161
0.125995
0.129705
0.132732
0.135065
0.136693
0.137609
0.137806
0.137278
0.136025
0.134042
0.131328
0.127881
0.123695
0.118765
0.113084
0.106644
0.0994402
0.0914741
0.0827565
0.0733131
0.0631907
0.0524612
0.0412231
0.0296012
0.0177633
0.00588689
0.00753429
0.022027
0.0358616
0.0489371
0.0611693
0.072518
0.0829666
0.0925174
0.10119
0.109013
0.116024
0.122259
0.127752
0.132535
0.136631
0.140062
0.142842
0.144983
0.146492
0.14737
0.147618
0.147232
0.1462
0.144508
0.142137
0.139058
0.135237
0.130636
0.125209
0.118911
0.111701
0.103544
0.0944206
0.0843295
0.073297
0.0613807
0.04867
0.0352861
0.0213974
0.00718735
0.00897676
0.0259861
0.0419662
0.0568252
0.0704942
0.0829535
0.0942104
0.104295
0.113258
0.121164
0.128086
0.134097
0.139272
0.14368
0.147383
0.150437
0.152887
0.154769
0.156112
0.156931
0.157234
0.157018
0.156263
0.154942
0.153012
0.150413
0.147079
0.14293
0.137879
0.131836
0.124717
0.116446
0.106965
0.0962419
0.084278
0.0711124
0.0568232
0.0415271
0.0253947
0.00861978
0.0105403
0.0302711
0.0485618
0.065328
0.0805166
0.0941302
0.106204
0.116799
0.126003
0.133918
0.140658
0.146341
0.151085
0.155004
0.158201
0.16077
0.162796
0.164344
0.165468
0.166202
0.166563
0.166547
0.166128
0.165261
0.163874
0.161877
0.159162
0.155602
0.15106
0.145398
0.138481
0.130183
0.120404
0.109074
0.0961643
0.0816904
0.0657166
0.0483538
0.0297768
0.010193
0.0122295
0.0348919
0.0556603
0.0744563
0.091244
0.10605
0.118942
0.130016
0.139401
0.147242
0.1537
0.15894
0.16313
0.166432
0.168998
0.170968
0.172467
0.173597
0.174443
0.175058
0.175474
0.175688
0.175663
0.175336
0.174606
0.173343
0.17139
0.168569
0.164689
0.15955
0.152961
0.144742
0.134741
0.122845
0.108985
0.0931507
0.0753883
0.0558018
0.0345701
0.0119182
0.01405
0.0398612
0.0632765
0.0842234
0.102684
0.118714
0.132414
0.143924
0.153417
0.161087
0.167149
0.171819
0.175319
0.177865
0.179662
0.180903
0.181758
0.182376
0.182872
0.18333
0.183793
0.184263
0.184696
0.185003
0.18505
0.184661
0.18363
0.181715
0.178664
0.174213
0.168102
0.16009
0.149966
0.13756
0.122764
0.10553
0.0858805
0.063911
0.0398054
0.0138085
0.016009
0.0451945
0.0714286
0.0946442
0.114843
0.132115
0.146599
0.158485
0.167996
0.175382
0.180914
0.18487
0.187527
0.189164
0.19004
0.190409
0.190492
0.190486
0.190551
0.190801
0.1913
0.192052
0.193005
0.194043
0.194995
0.195637
0.195698
0.194878
0.192847
0.189271
0.183817
0.176169
0.166047
0.15322
0.137521
0.118863
0.097238
0.0727269
0.0455181
0.0158789
0.0181148
0.0509107
0.0801381
0.105736
0.127729
0.146242
0.161468
0.173646
0.183062
0.190029
0.19488
0.197956
0.199601
0.200153
0.199941
0.199275
0.19844
0.197688
0.197226
0.197208
0.197719
0.198775
0.20031
0.202184
0.20418
0.206019
0.207367
0.207846
0.207053
0.20457
0.199981
0.192889
0.18293
0.169801
0.153267
0.133183
0.109508
0.0822994
0.0517485
0.0181473
0.0203783
0.0570328
0.089431
0.117516
0.141343
0.161081
0.176977
0.189337
0.198517
0.2049
0.20889
0.210897
0.211336
0.210613
0.209124
0.207244
0.205328
0.203688
0.202589
0.202228
0.202723
0.204098
0.20628
0.209097
0.212284
0.215501
0.218343
0.220352
0.221042
0.219901
0.216426
0.210122
0.200534
0.187263
0.169996
0.14852
0.122739
0.0926827
0.0585418
0.0206337
0.0228125
0.0635896
0.0993388
0.130009
0.155689
0.176602
0.193065
0.205461
0.214227
0.219827
0.222746
0.223471
0.222488
0.220275
0.217299
0.214008
0.210827
0.208138
0.206272
0.205479
0.205917
0.207622
0.210514
0.214385
0.218921
0.223711
0.228272
0.232065
0.234509
0.235
0.232928
0.227693
0.218731
0.205536
0.18769
0.164891
0.136976
0.103935
0.0659489
0.0233613
0.0254341
0.070617
0.1099
0.143239
0.170763
0.192767
0.20965
0.221891
0.230022
0.234603
0.236205
0.2354
0.232751
0.228811
0.22412
0.2192
0.21455
0.210631
0.207849
0.206519
0.206845
0.208885
0.212547
0.21759
0.223637
0.230206
0.236731
0.242581
0.247083
0.249529
0.249197
0.24537
0.237353
0.224511
0.206299
0.182303
0.152268
0.116122
0.0740276
0.0263572
0.0282647
0.0781605
0.121163
0.157234
0.18656
0.20952
0.226623
0.238463
0.245685
0.24896
0.248959
0.246344
0.24176
0.235836
0.229181
0.222394
0.216051
0.2107
0.206829
0.204836
0.20498
0.207352
0.211846
0.21818
0.225912
0.234476
0.243219
0.251421
0.258309
0.263071
0.264867
0.262844
0.256162
0.24403
0.225746
0.200746
0.168652
0.129309
0.082844
0.0296531
0.0313326
0.0862794
0.133186
0.172028
0.203061
0.226781
0.243834
0.254955
0.260932
0.262562
0.260629
0.255894
0.24908
0.240894
0.232013
0.223103
0.214825
0.207813
0.202656
0.199848
0.199727
0.202417
0.207807
0.21556
0.225154
0.235937
0.247164
0.258023
0.267647
0.27512
0.279476
0.27972
0.274846
0.263873
0.245903
0.220183
0.186165
0.143573
0.0924742
0.0332869
0.0346754
0.0950512
0.146047
0.187658
0.220239
0.24444
0.261082
0.271086
0.275406
0.274992
0.270754
0.263553
0.2542
0.243462
0.232081
0.220788
0.210313
0.201386
0.194715
0.190913
0.190418
0.19341
0.199763
0.209072
0.220718
0.233947
0.24792
0.261744
0.274464
0.285064
0.29246
0.2955
0.292992
0.283733
0.266583
0.240539
0.204828
0.158992
0.103009
0.0373051
0.0383443
0.104578
0.159842
0.204163
0.23804
0.262332
0.278095
0.286479
0.288649
0.285729
0.27877
0.268741
0.256529
0.242957
0.228812
0.214869
0.201924
0.190801
0.182341
0.177319
0.176318
0.179594
0.186998
0.198024
0.211924
0.227825
0.244799
0.261876
0.278038
0.292187
0.303127
0.309552
0.31006
0.303196
0.287512
0.261689
0.224639
0.175654
0.114556
0.0417663
0.0424095
0.114997
0.174691
0.221579
0.256373
0.280223
0.294497
0.300641
0.300074
0.294127
0.284005
0.270782
0.255413
0.238755
0.221613
0.20478
0.189088
0.175448
0.164857
0.158316
0.156632
0.160182
0.168773
0.181731
0.198116
0.21691
0.237099
0.257672
0.277577
0.295666
0.310656
0.321095
0.32536
0.3217
0.308302
0.283429
0.245572
0.193652
0.127251
0.0467458
0.046969
0.126488
0.190743
0.239931
0.275084
0.297769
0.309771
0.312918
0.308938
0.2994
0.285672
0.268927
0.250165
0.230253
0.209968
0.190069
0.171375
0.154848
0.141661
0.133147
0.130515
0.134368
0.144408
0.159633
0.178786
0.200671
0.224217
0.248424
0.272267
0.294603
0.314099
0.329181
0.33801
0.3385
0.328402
0.305444
0.267544
0.213083
0.141262
0.052344
0.0521623
0.139297
0.208174
0.2592
0.29391
0.314457
0.323201
0.322449
0.314307
0.300609
0.282889
0.262404
0.240171
0.217016
0.193636
0.170675
0.148833
0.129012
0.112515
0.101187
0.0970905
0.101405
0.113513
0.131621
0.15391
0.179003
0.20587
0.233633
0.261392
0.288086
0.312404
0.332688
0.346901
0.352606
0.347037
0.32725
0.290384
0.234039
0.156803
0.0586994
0.0581916
0.153753
0.227178
0.279291
0.312403
0.329528
0.33379
0.328108
0.315033
0.296685
0.274758
0.25057
0.225117
0.199136
0.173171
0.147649
0.12297
0.0996781
0.0788058
0.0626389
0.0555003
0.0610142
0.077046
0.0992305
0.12495
0.152977
0.182638
0.213388
0.244589
0.275368
0.30451
0.330347
0.350681
0.362724
0.363125
0.34811
0.313775
0.256588
0.174153
0.0660096
0.0653584
0.170292
0.247941
0.29993
0.329811
0.341838
0.340161
0.328455
0.309778
0.286546
0.260603
0.2333
0.20559
0.178105
0.151231
0.125153
0.0999056
0.0754022
0.0514754
0.0279491
0.0060765
0.0208445
0.0453675
0.0711444
0.0983014
0.12702
0.157382
0.189308
0.22248
0.256265
0.2896
0.320869
0.347769
0.367192
0.375159
0.366902
0.337147
0.280726
0.193673
0.0745669
0.0741265
0.189483
0.270558
0.320511
0.34488
0.349696
0.340459
0.321749
0.297174
0.269457
0.240578
0.211941
0.18451
0.158923
0.135583
0.114737
0.0965421
0.0811579
0.0688644
0.0602166
0.0560966
0.0573818
0.0643223
0.0764606
0.0931626
0.113969
0.138591
0.166774
0.198158
0.232135
0.267705
0.303285
0.336504
0.363972
0.38108
0.381925
0.359485
0.306274
0.215812
0.0848218
0.0852321
0.212036
0.294849
0.339786
0.355536
0.350647
0.332318
0.306171
0.276401
0.24605
0.217292
0.191664
0.170197
0.153462
0.141525
0.133925
0.129765
0.127942
0.1274
0.127316
0.127182
0.126834
0.126485
0.126755
0.128693
0.133703
0.143291
0.158659
0.180366
0.208205
0.241261
0.277902
0.315636
0.350799
0.378171
0.390626
0.379016
0.332657
0.241101
0.0974932
0.0998664
0.238711
0.319943
0.355319
0.358458
0.341327
0.313179
0.280778
0.248964
0.221149
0.19961
0.185494
0.178694
0.177969
0.181443
0.187214
0.193719
0.199821
0.204759
0.208045
0.2094
0.208714
0.206028
0.201579
0.195857
0.189736
0.184621
0.182561
0.186112
0.197715
0.218743
0.248837
0.285842
0.325896
0.363176
0.389301
0.392688
0.358437
0.270003
0.113745
0.119922
0.269946
0.343397
0.362621
0.348674
0.317923
0.28197
0.24884
0.223888
0.209953
0.207096
0.213019
0.224468
0.238523
0.253081
0.266792
0.278832
0.28871
0.296136
0.300931
0.302989
0.30225
0.298688
0.292328
0.28328
0.271805
0.258434
0.244175
0.230823
0.221295
0.219625
0.229913
0.254146
0.290527
0.333341
0.373044
0.39543
0.380407
0.302467
0.135398
0.14832
0.304734
0.359413
0.354016
0.320124
0.279374
0.245917
0.227948
0.227296
0.240151
0.260714
0.284279
0.307917
0.330027
0.349793
0.366826
0.380962
0.392147
0.400368
0.405626
0.407912
0.407198
0.403436
0.39655
0.386462
0.373099
0.35645
0.336655
0.314184
0.290178
0.267047
0.249298
0.24379
0.257292
0.291011
0.337219
0.379509
0.391902
0.33668
0.165202
0.189593
0.337575
0.355406
0.318634
0.272162
0.242615
0.240782
0.261623
0.293904
0.329327
0.36364
0.395013
0.422797
0.446872
0.467339
0.484379
0.498179
0.508907
0.516696
0.521635
0.523768
0.523091
0.51955
0.513037
0.503389
0.490387
0.473763
0.453216
0.428459
0.399331
0.366061
0.329854
0.294145
0.266732
0.260674
0.286297
0.33597
0.380011
0.366005
0.207282
0.24655
0.349983
0.310544
0.259664
0.249924
0.281896
0.331894
0.383702
0.431142
0.472629
0.508205
0.538414
0.563891
0.585224
0.602909
0.617355
0.628881
0.637734
0.644091
0.648073
0.649744
0.649111
0.646126
0.640686
0.632618
0.621674
0.607516
0.589702
0.567664
0.540694
0.507967
0.468631
0.422143
0.369284
0.31502
0.274763
0.276134
0.326566
0.370847
0.263014
0.285211
0.300061
0.260293
0.314829
0.397697
0.473326
0.535977
0.586497
0.627123
0.659994
0.686782
0.708735
0.726772
0.741577
0.753659
0.763399
0.771084
0.77692
0.781059
0.7836
0.784595
0.784058
0.781955
0.77821
0.772693
0.765213
0.755496
0.74317
0.727722
0.70845
0.684391
0.654212
0.616079
0.567546
0.505796
0.429057
0.341756
0.278318
0.311998
0.295409
0.335688
0.420528
0.568286
0.682407
0.751783
0.796584
0.827759
0.850385
0.867377
0.88052
0.890908
0.899233
0.905958
0.911401
0.91579
0.919286
0.922012
0.924053
0.92547
0.926303
0.926574
0.926288
0.925433
0.92398
0.921877
0.919049
0.915385
0.910732
0.90487
0.897495
0.888154
0.876168
0.860468
0.839284
0.809657
0.766369
0.698186
0.583435
0.430809
0.340717
)
;

boundaryField
{
    movingWall
    {
        type            calculated;
        value           uniform 1;
    }
    fixedWalls
    {
        type            calculated;
        value           uniform 0;
    }
    frontAndBack
    {
        type            empty;
    }
}


// ************************************************************************* //
