/*--------------------------------*- C++ -*----------------------------------*\
| =========                 |                                                 |
| \\      /  F ield         | OpenFOAM: The Open Source CFD Toolbox           |
|  \\    /   O peration     | Version:  2506                                  |
|   \\  /    A nd           | Website:  www.openfoam.com                      |
|    \\/     M anipulation  |                                                 |
\*---------------------------------------------------------------------------*/
FoamFile
{
    version     2.0;
    format      ascii;
    arch        "LSB;label=32;scalar=64";
    class       volVectorField;
    location    "23";
    object      U;
}
// * * * * * * * * * * * * * * * * * * * * * * * * * * * * * * * * * * * * * //

dimensions      [0 1 -1 0 0 0 0];

internalField   nonuniform List<vector> 
400
(
(0.00131841 -0.00136866 0)
(0.00366778 -0.00148158 0)
(0.0047855 -0.000992789 0)
(0.00375069 -0.000438929 0)
(-3.22876e-05 0.000294998 0)
(-0.00754507 0.00167184 0)
(-0.0197196 0.00416203 0)
(-0.0364496 0.00741984 0)
(-0.0555129 0.00977593 0)
(-0.072485 0.00945321 0)
(-0.0829393 0.00635723 0)
(-0.0842893 0.00176171 0)
(-0.0755258 -0.00310674 0)
(-0.0572185 -0.00748895 0)
(-0.032859 -0.00995688 0)
(-0.00661762 -0.00907259 0)
(0.014034 -0.00463688 0)
(0.0216483 0.00231404 0)
(0.0146309 0.00579332 0)
(0.00399214 0.00428185 0)
(0.00110595 -0.00373763 0)
(0.00144717 -0.00266302 0)
(-0.0025068 0.00105718 0)
(-0.0124088 0.00598314 0)
(-0.0300578 0.0124959 0)
(-0.0560916 0.020816 0)
(-0.0880305 0.0290925 0)
(-0.120116 0.0334157 0)
(-0.146531 0.0311035 0)
(-0.163656 0.0224785 0)
(-0.169784 0.00952931 0)
(-0.164669 -0.00545919 0)
(-0.148853 -0.0206801 0)
(-0.122927 -0.0337833 0)
(-0.0891059 -0.0412422 0)
(-0.0501009 -0.0390344 0)
(-0.0116484 -0.0250062 0)
(0.0148696 -0.0020067 0)
(0.0162893 0.0144944 0)
(0.00519595 0.0135433 0)
(-0.000753031 -0.00346862 0)
(-0.00614141 0.00259061 0)
(-0.0192263 0.0135602 0)
(-0.0411853 0.0276851 0)
(-0.0726847 0.0435573 0)
(-0.110467 0.0574641 0)
(-0.148132 0.0644853 0)
(-0.180112 0.0618564 0)
(-0.2037 0.0501344 0)
(-0.217927 0.0314558 0)
(-0.222577 0.00811579 0)
(-0.218128 -0.0177966 0)
(-0.204893 -0.0441486 0)
(-0.182465 -0.0674785 0)
(-0.150613 -0.0828823 0)
(-0.10943 -0.0836777 0)
(-0.060938 -0.0634737 0)
(-0.0133085 -0.0225873 0)
(0.00882187 0.0156508 0)
(0.00408913 0.0217223 0)
(-0.0032753 0.00278812 0)
(-0.0160664 0.017611 0)
(-0.0393082 0.0374674 0)
(-0.0713031 0.0603794 0)
(-0.110343 0.0816012 0)
(-0.150669 0.0949608 0)
(-0.186081 0.0963227 0)
(-0.213712 0.0857466 0)
(-0.23327 0.065831 0)
(-0.245076 0.0392107 0)
(-0.249785 0.0078755 0)
(-0.248176 -0.0267234 0)
(-0.240284 -0.0624464 0)
(-0.225125 -0.0963395 0)
(-0.200832 -0.123201 0)
(-0.164842 -0.134608 0)
(-0.115006 -0.119068 0)
(-0.0535715 -0.067849 0)
(-0.00108459 0.0018149 0)
(0.00463884 0.026162 0)
(-0.00588735 0.0156787 0)
(-0.0253301 0.0413848 0)
(-0.0559814 0.0690827 0)
(-0.092981 0.0975097 0)
(-0.132888 0.119505 0)
(-0.169476 0.128713 0)
(-0.198519 0.123227 0)
(-0.219421 0.105438 0)
(-0.233084 0.078949 0)
(-0.240933 0.0466138 0)
(-0.244614 0.0101767 0)
(-0.245181 -0.0294337 0)
(-0.242601 -0.0710034 0)
(-0.236201 -0.1131 0)
(-0.223391 -0.151938 0)
(-0.199654 -0.179379 0)
(-0.159308 -0.180733 0)
(-0.0981339 -0.136187 0)
(-0.0208868 -0.0379385 0)
(0.00693414 0.0251596 0)
(-0.00737484 0.0331083 0)
(-0.0306819 0.0702133 0)
(-0.0644238 0.103363 0)
(-0.101204 0.133811 0)
(-0.137027 0.153396 0)
(-0.166477 0.156768 0)
(-0.187368 0.14428 0)
(-0.200468 0.120035 0)
(-0.207454 0.0883538 0)
(-0.210618 0.0524174 0)
(-0.212106 0.0139856 0)
(-0.213128 -0.0263653 0)
(-0.214024 -0.0689122 0)
(-0.214825 -0.114058 0)
(-0.213445 -0.160676 0)
(-0.204796 -0.203444 0)
(-0.18095 -0.228445 0)
(-0.133639 -0.209181 0)
(-0.0589653 -0.113268 0)
(0.00531845 0.0130461 0)
(-0.00714851 0.0522751 0)
(-0.0307677 0.100055 0)
(-0.0634079 0.136104 0)
(-0.0962001 0.165791 0)
(-0.125449 0.181098 0)
(-0.147002 0.17801 0)
(-0.160294 0.158812 0)
(-0.166883 0.128906 0)
(-0.168946 0.0932411 0)
(-0.168997 0.0552152 0)
(-0.168883 0.0164648 0)
(-0.169511 -0.022751 0)
(-0.171524 -0.0634523 0)
(-0.175569 -0.107117 0)
(-0.18098 -0.155033 0)
(-0.184004 -0.206175 0)
(-0.176615 -0.251501 0)
(-0.148869 -0.264941 0)
(-0.0946357 -0.197489 0)
(-0.00817562 -0.0145736 0)
(-0.00529227 0.0701158 0)
(-0.0259609 0.127575 0)
(-0.0543475 0.164727 0)
(-0.0811345 0.191994 0)
(-0.103275 0.202284 0)
(-0.117937 0.192879 0)
(-0.125635 0.167681 0)
(-0.128306 0.133136 0)
(-0.128278 0.0946341 0)
(-0.127725 0.0554736 0)
(-0.127684 0.0168692 0)
(-0.128437 -0.0213114 0)
(-0.130494 -0.0600601 0)
(-0.134742 -0.100825 0)
(-0.141858 -0.145927 0)
(-0.150437 -0.198078 0)
(-0.154185 -0.25523 0)
(-0.142587 -0.297396 0)
(-0.108444 -0.267319 0)
(-0.0291437 -0.0715832 0)
(-0.00235837 0.0839354 0)
(-0.0177677 0.150195 0)
(-0.0399601 0.187537 0)
(-0.0599884 0.211645 0)
(-0.0754968 0.217113 0)
(-0.0847971 0.202414 0)
(-0.0889811 0.172624 0)
(-0.0899755 0.134883 0)
(-0.0898637 0.0947886 0)
(-0.090142 0.0553285 0)
(-0.0910737 0.017141 0)
(-0.0925245 -0.0203539 0)
(-0.0946921 -0.0579445 0)
(-0.0982574 -0.0964644 0)
(-0.104551 -0.137932 0)
(-0.114391 -0.186962 0)
(-0.124302 -0.248249 0)
(-0.123552 -0.312198 0)
(-0.104683 -0.323477 0)
(-0.0360729 -0.155361 0)
(0.00102059 0.0917649 0)
(-0.00772381 0.166277 0)
(-0.0226263 0.203968 0)
(-0.03581 0.225307 0)
(-0.045406 0.227028 0)
(-0.0506491 0.208539 0)
(-0.0527516 0.175692 0)
(-0.0532767 0.13609 0)
(-0.0537888 0.0953947 0)
(-0.0551286 0.0561728 0)
(-0.057136 0.0184791 0)
(-0.0595413 -0.0185999 0)
(-0.0623375 -0.0556989 0)
(-0.0658281 -0.093068 0)
(-0.0711609 -0.131695 0)
(-0.0801909 -0.176125 0)
(-0.0928738 -0.235594 0)
(-0.0989126 -0.312579 0)
(-0.0935041 -0.360766 0)
(-0.0304189 -0.233101 0)
(0.00429356 0.0926666 0)
(0.00264227 0.174781 0)
(-0.00463668 0.213639 0)
(-0.0111706 0.232874 0)
(-0.0154529 0.231987 0)
(-0.0172769 0.211352 0)
(-0.0177751 0.17719 0)
(-0.0179975 0.137157 0)
(-0.0189072 0.0967144 0)
(-0.0208803 0.0580804 0)
(-0.0236109 0.020993 0)
(-0.0268834 -0.0155782 0)
(-0.0307183 -0.0522686 0)
(-0.0351151 -0.0890782 0)
(-0.0407486 -0.126056 0)
(-0.0492211 -0.166475 0)
(-0.0634917 -0.221557 0)
(-0.0735546 -0.305457 0)
(-0.0803723 -0.384733 0)
(-0.0227822 -0.2967 0)
(0.00694318 0.0870539 0)
(0.0123057 0.175505 0)
(0.0125525 0.216764 0)
(0.0124458 0.235249 0)
(0.0133098 0.23329 0)
(0.0149146 0.212124 0)
(0.0162559 0.178025 0)
(0.016739 0.138475 0)
(0.0159604 0.0986886 0)
(0.0138787 0.0607455 0)
(0.01081 0.0243984 0)
(0.00684971 -0.0113635 0)
(0.00184523 -0.0472318 0)
(-0.00409152 -0.0831907 0)
(-0.0113247 -0.11895 0)
(-0.0203827 -0.156132 0)
(-0.0366934 -0.205614 0)
(-0.0492879 -0.291337 0)
(-0.0679614 -0.396688 0)
(-0.0146371 -0.349423 0)
(0.00825699 0.076115 0)
(0.0199249 0.168596 0)
(0.0272729 0.21288 0)
(0.0331815 0.231441 0)
(0.039092 0.229461 0)
(0.0446295 0.209163 0)
(0.0487462 0.176516 0)
(0.0509721 0.138522 0)
(0.0512108 0.100114 0)
(0.0496484 0.0633565 0)
(0.0466183 0.0281974 0)
(0.0420898 -0.00628627 0)
(0.0359776 -0.0407501 0)
(0.0282654 -0.0752762 0)
(0.0183725 -0.109537 0)
(0.00718746 -0.144127 0)
(-0.0123042 -0.188574 0)
(-0.0259844 -0.272767 0)
(-0.0566411 -0.399334 0)
(-0.00654508 -0.391615 0)
(0.00772014 0.0619 0)
(0.0242307 0.154675 0)
(0.0383744 0.20256 0)
(0.0503927 0.222578 0)
(0.0616826 0.221836 0)
(0.0718776 0.20364 0)
(0.0798257 0.173555 0)
(0.0849306 0.137931 0)
(0.0871486 0.101423 0)
(0.086755 0.0662124 0)
(0.0841178 0.0326009 0)
(0.0792109 -0.000112589 0)
(0.071887 -0.0323968 0)
(0.0622655 -0.0647147 0)
(0.0493598 -0.0968096 0)
(0.0347383 -0.128753 0)
(0.0107048 -0.16832 0)
(-0.00285633 -0.249524 0)
(-0.046308 -0.395645 0)
(0.00210049 -0.426963 0)
(0.00534347 0.04746 0)
(0.0238997 0.135936 0)
(0.0433763 0.18548 0)
(0.0610824 0.206227 0)
(0.0781106 0.206751 0)
(0.0939708 0.191322 0)
(0.107163 0.16494 0)
(0.116703 0.13304 0)
(0.122327 0.0997964 0)
(0.124232 0.0673931 0)
(0.1227 0.0364741 0)
(0.117936 0.00661096 0)
(0.109451 -0.0225028 0)
(0.0978594 -0.0514912 0)
(0.0813517 -0.0803415 0)
(0.0627134 -0.109743 0)
(0.0335903 -0.145465 0)
(0.0200954 -0.223803 0)
(-0.0365528 -0.388816 0)
(0.0124478 -0.456719 0)
(0.00173034 0.0355746 0)
(0.0186442 0.114975 0)
(0.0422542 0.164683 0)
(0.0657175 0.186155 0)
(0.0890612 0.187967 0)
(0.111338 0.175391 0)
(0.130748 0.15315 0)
(0.145816 0.125732 0)
(0.155904 0.0966922 0)
(0.161098 0.0680594 0)
(0.16135 0.0407172 0)
(0.157371 0.0145773 0)
(0.147947 -0.0106146 0)
(0.13458 -0.035314 0)
(0.114239 -0.0598518 0)
(0.0916493 -0.0858698 0)
(0.0573493 -0.118856 0)
(0.0424486 -0.195806 0)
(-0.0255497 -0.379391 0)
(0.0270241 -0.479946 0)
(-0.00311828 0.0317526 0)
(0.00624576 0.0968724 0)
(0.0287772 0.136811 0)
(0.0573857 0.155138 0)
(0.0879194 0.157436 0)
(0.117984 0.148038 0)
(0.145021 0.130842 0)
(0.167134 0.109264 0)
(0.183126 0.0861693 0)
(0.19307 0.0632338 0)
(0.196292 0.0414465 0)
(0.194175 0.0208481 0)
(0.184647 0.00135191 0)
(0.170684 -0.0176027 0)
(0.147341 -0.0363734 0)
(0.12232 -0.0581814 0)
(0.0833958 -0.0903446 0)
(0.0646357 -0.170081 0)
(-0.00754209 -0.364866 0)
(0.0505661 -0.488314 0)
(-0.0116342 0.0218308 0)
(-0.00798168 0.0876823 0)
(0.0129838 0.117763 0)
(0.045608 0.127662 0)
(0.0827104 0.126806 0)
(0.119871 0.119012 0)
(0.153903 0.106453 0)
(0.182313 0.0907773 0)
(0.203629 0.0741522 0)
(0.218369 0.057519 0)
(0.224806 0.0420502 0)
(0.226039 0.0275839 0)
(0.217984 0.0146372 0)
(0.2071 0.00204708 0)
(0.184436 -0.0104847 0)
(0.163129 -0.028274 0)
(0.122363 -0.0601452 0)
(0.101402 -0.140615 0)
(0.034291 -0.324731 0)
(0.0911446 -0.454838 0)
(-0.104538 0.0847807 0)
(-0.0771527 0.0701467 0)
(-0.0507417 0.0703236 0)
(-0.00249144 0.0726203 0)
(0.0466044 0.0722278 0)
(0.0954023 0.0684388 0)
(0.139619 0.0621955 0)
(0.179771 0.0540111 0)
(0.210876 0.0455446 0)
(0.238411 0.0368967 0)
(0.254568 0.0292148 0)
(0.270168 0.0220028 0)
(0.27203 0.0161022 0)
(0.277464 0.0103422 0)
(0.264042 0.00422495 0)
(0.25911 -0.00671561 0)
(0.222725 -0.0322441 0)
(0.212818 -0.093474 0)
(0.148471 -0.229415 0)
(0.170286 -0.341401 0)
(0.130948 0.10469 0)
(0.160456 0.0773108 0)
(0.215285 0.0553362 0)
(0.273146 0.0431067 0)
(0.323857 0.0367139 0)
(0.373633 0.0322757 0)
(0.415718 0.0290441 0)
(0.458799 0.0256589 0)
(0.490481 0.0230594 0)
(0.524798 0.0199443 0)
(0.544069 0.0179167 0)
(0.570038 0.015058 0)
(0.57695 0.0137613 0)
(0.596253 0.0110156 0)
(0.589233 0.0101803 0)
(0.599322 0.0057348 0)
(0.565431 0.000817006 0)
(0.54729 -0.0177303 0)
(0.436828 -0.0501318 0)
(0.337476 -0.101307 0)
)
;

boundaryField
{
    movingWall
    {
        type            fixedValue;
        value           uniform (1 0 0);
    }
    fixedWalls
    {
        type            noSlip;
    }
    frontAndBack
    {
        type            empty;
    }
}


// ************************************************************************* //
