/*--------------------------------*- C++ -*----------------------------------*\
| =========                 |                                                 |
| \\      /  F ield         | OpenFOAM: The Open Source CFD Toolbox           |
|  \\    /   O peration     | Version:  2506                                  |
|   \\  /    A nd           | Website:  www.openfoam.com                      |
|    \\/     M anipulation  |                                                 |
\*---------------------------------------------------------------------------*/
FoamFile
{
    version     2.0;
    format      ascii;
    arch        "LSB;label=32;scalar=64";
    class       volSymmTensorField;
    location    "250";
    object      turbulenceProperties:R;
}
// * * * * * * * * * * * * * * * * * * * * * * * * * * * * * * * * * * * * * //

dimensions      [0 2 -2 0 0 0 0];

internalField   nonuniform List<symmTensor> 
1340
(
(4.903e-07 2.98227e-08 -4.14967e-20 4.225e-07 -5.37214e-21 4.96691e-07)
(8.43621e-07 3.637e-08 2.09292e-20 1.04144e-06 2.42748e-21 8.87718e-07)
(1.03716e-07 -1.79111e-09 -8.12915e-20 9.7305e-08 -1.01697e-20 1.13477e-07)
(3.89765e-07 9.88912e-09 -1.27231e-20 4.86675e-07 -1.43846e-21 4.1352e-07)
(4.86533e-07 3.12066e-08 6.13771e-21 4.23086e-07 6.62702e-22 4.95558e-07)
(8.45518e-07 3.60197e-08 -8.4078e-20 1.04294e-06 -9.51323e-21 8.88447e-07)
(1.00294e-07 -1.42975e-09 -0 1.29394e-07 -5.00931e-23 1.17677e-07)
(1.65703e-07 -5.41653e-09 -2.75068e-20 2.10593e-07 -3.24756e-21 1.81854e-07)
(1.00311e-07 -1.4122e-09 7.72583e-20 9.6538e-08 9.69086e-21 1.11422e-07)
(3.91251e-07 9.35721e-09 3.89288e-20 4.88605e-07 4.60014e-21 4.14972e-07)
(4.8432e-07 3.24076e-08 1.31137e-23 4.25174e-07 7.71986e-23 4.96217e-07)
(8.46968e-07 3.54655e-08 6.92658e-20 1.04334e-06 7.77828e-21 8.87968e-07)
(1.87511e-07 7.02209e-09 -3.50239e-20 2.40654e-07 -4.20666e-21 2.13942e-07)
(1.6465e-07 5.15674e-09 7.24514e-22 2.11944e-07 1.7825e-22 1.8872e-07)
(1.54531e-07 1.6313e-09 4.78717e-21 1.99803e-07 5.70892e-22 1.76016e-07)
(1.05349e-07 -2.54122e-09 -0 1.35662e-07 -1.00773e-23 1.23298e-07)
(1.69703e-07 -6.6166e-09 -1.25651e-22 2.15169e-07 -2.20057e-23 1.8619e-07)
(9.77573e-08 -1.07812e-09 5.53741e-22 9.66553e-08 9.52608e-23 1.10204e-07)
(3.92879e-07 9.01188e-09 3.25647e-22 4.90641e-07 6.02103e-23 4.16556e-07)
(4.83427e-07 3.34794e-08 2.8748e-24 4.28171e-07 2.49857e-24 4.98011e-07)
(8.47887e-07 3.45205e-08 3.73927e-22 1.04328e-06 6.88255e-23 8.87012e-07)
(2.67894e-07 9.37144e-09 2.48265e-21 3.44153e-07 3.90373e-22 3.06006e-07)
(2.48199e-07 8.38188e-09 1.05397e-20 3.19044e-07 1.27589e-21 2.83603e-07)
(2.32093e-07 7.64133e-09 1.07126e-20 2.98465e-07 1.08332e-21 2.65302e-07)
(2.17173e-07 7.11707e-09 -3.72824e-20 2.793e-07 -4.46629e-21 2.48217e-07)
(2.01576e-07 6.49671e-09 9.73394e-21 2.5931e-07 1.26041e-21 2.30479e-07)
(1.86866e-07 5.5056e-09 -1.48568e-20 2.40637e-07 -1.8311e-21 2.13618e-07)
(1.65191e-07 3.72329e-09 9.62565e-23 2.13265e-07 1.37144e-22 1.89636e-07)
(1.56242e-07 1.64791e-10 3.53845e-20 2.02165e-07 4.30184e-21 1.78087e-07)
(1.10838e-07 -3.69983e-09 -0 1.42323e-07 -7.19732e-23 1.29311e-07)
(1.73571e-07 -7.75402e-09 2.05018e-21 2.19527e-07 1.40929e-22 1.9039e-07)
(9.59749e-08 -7.71838e-10 -7.06305e-20 9.75255e-08 -8.83566e-21 1.09698e-07)
(3.94535e-07 8.80328e-09 -3.55524e-20 4.92738e-07 -4.20685e-21 4.18248e-07)
(4.83555e-07 3.44704e-08 -2.32401e-21 4.31692e-07 -2.29494e-22 5.00503e-07)
(8.48401e-07 3.31641e-08 9.14177e-21 1.04313e-06 1.03814e-21 8.85928e-07)
(3.7514e-07 8.6837e-09 2.05445e-20 4.8378e-07 2.13827e-21 4.29463e-07)
(3.51785e-07 8.79059e-09 -1.89823e-20 4.53449e-07 -2.31703e-21 4.0262e-07)
(3.2842e-07 8.57997e-09 -4.94682e-21 4.2322e-07 -6.17551e-22 3.75827e-07)
(3.05623e-07 8.16661e-09 -3.07326e-20 3.93804e-07 -3.58005e-21 3.49702e-07)
(2.83235e-07 7.65936e-09 -7.11224e-21 3.64958e-07 -6.88739e-22 3.24125e-07)
(2.62192e-07 7.0771e-09 4.98842e-21 3.37878e-07 6.22001e-22 3.00021e-07)
(2.43871e-07 6.27157e-09 2.5469e-21 3.14421e-07 2.80418e-22 2.79132e-07)
(2.28909e-07 5.70813e-09 5.24174e-23 2.9522e-07 2.5709e-23 2.6209e-07)
(2.14945e-07 5.34471e-09 6.23728e-21 2.77221e-07 6.77065e-22 2.46067e-07)
(2.00272e-07 4.86618e-09 -1.70831e-20 2.58353e-07 -1.96519e-21 2.29348e-07)
(1.86392e-07 3.9778e-09 3.24527e-20 2.40643e-07 3.90432e-21 2.13395e-07)
(1.66007e-07 2.26027e-09 -2.10642e-20 2.14744e-07 -2.72692e-21 1.90763e-07)
(1.58257e-07 -1.31865e-09 -3.341e-20 2.04708e-07 -3.99057e-21 1.80414e-07)
(1.16689e-07 -4.89899e-09 -0 1.49284e-07 7.32992e-23 1.35633e-07)
(1.77217e-07 -8.82545e-09 -1.95122e-21 2.23569e-07 -1.27621e-22 1.94361e-07)
(9.49019e-08 -4.81357e-10 6.70481e-20 9.90704e-08 8.36419e-21 1.09829e-07)
(3.96081e-07 8.70891e-09 3.36014e-20 4.94723e-07 3.95512e-21 4.19892e-07)
(4.84341e-07 3.53785e-08 2.21172e-21 4.3548e-07 2.19261e-22 5.034e-07)
(8.48649e-07 3.14321e-08 -8.60166e-21 1.04291e-06 -9.69613e-22 8.8474e-07)
(5.09871e-07 -4.52744e-09 -2.22213e-21 6.59392e-07 -3.7373e-22 5.84641e-07)
(4.87921e-07 -2.56995e-09 -1.20158e-20 6.31165e-07 -1.4587e-21 5.59552e-07)
(4.66111e-07 -7.58476e-10 -2.14403e-20 6.03014e-07 -2.22437e-21 5.34571e-07)
(4.44582e-07 9.37193e-10 7.58382e-21 5.75136e-07 9.78133e-22 5.09866e-07)
(4.23377e-07 2.49609e-09 -1.95653e-21 5.47597e-07 -2.09448e-22 4.85493e-07)
(4.02412e-07 3.8397e-09 9.79581e-21 5.20313e-07 1.27264e-21 4.61368e-07)
(3.81464e-07 4.87242e-09 2.53086e-20 4.93033e-07 2.81488e-21 4.37254e-07)
(3.60333e-07 5.52273e-09 1.39838e-22 4.65547e-07 -4.18642e-23 4.12944e-07)
(3.3898e-07 5.79662e-09 1.49607e-20 4.37841e-07 1.70641e-21 3.88414e-07)
(3.17591e-07 5.76983e-09 -1.3718e-21 4.10159e-07 -2.1989e-22 3.63882e-07)
(2.96695e-07 5.55312e-09 1.31471e-21 3.83161e-07 2.09315e-22 3.39918e-07)
(2.76054e-07 5.24219e-09 1.35273e-20 3.56522e-07 1.549e-21 3.16317e-07)
(2.56578e-07 4.83712e-09 -4.69356e-21 3.31407e-07 -6.11638e-22 2.93978e-07)
(2.39655e-07 4.20477e-09 -2.3613e-21 3.09662e-07 -2.57885e-22 2.74646e-07)
(2.25834e-07 3.80874e-09 7.83965e-23 2.91861e-07 2.68401e-23 2.58873e-07)
(2.12828e-07 3.59557e-09 -4.67956e-23 2.75054e-07 -3.8039e-24 2.43926e-07)
(1.99107e-07 3.24746e-09 -1.37041e-22 2.57363e-07 -8.06878e-23 2.28267e-07)
(1.86071e-07 2.4495e-09 -1.76965e-20 2.40647e-07 -2.06342e-21 2.13248e-07)
(1.67083e-07 7.7537e-10 2.00358e-20 2.16353e-07 2.46735e-21 1.9208e-07)
(1.60546e-07 -2.81336e-09 -1.33763e-22 2.07392e-07 -7.63201e-23 1.82958e-07)
(1.22838e-07 -6.13156e-09 -0 1.5647e-07 4.51457e-24 1.42194e-07)
(1.80575e-07 -9.82534e-09 1.85264e-21 2.27226e-07 1.13251e-22 1.98032e-07)
(9.44795e-08 -2.0026e-10 -6.83456e-20 1.01237e-07 -8.449e-21 1.1054e-07)
(3.97489e-07 8.71867e-09 1.12673e-22 4.96559e-07 1.18099e-22 4.21451e-07)
(4.85505e-07 3.6194e-08 -6.29185e-21 4.39325e-07 -8.12064e-22 5.06467e-07)
(8.48509e-07 2.93372e-08 -4.70502e-23 1.0424e-06 -3.43374e-24 8.83271e-07)
(6.98492e-07 -4.54164e-08 2.13651e-21 8.79395e-07 2.05262e-23 7.88954e-07)
(6.81173e-07 -4.18584e-08 -1.34529e-20 8.60317e-07 -1.4088e-21 7.70754e-07)
(6.63539e-07 -3.83053e-08 -2.69152e-22 8.40611e-07 3.00577e-22 7.52087e-07)
(6.45628e-07 -3.47575e-08 1.22128e-20 8.20326e-07 1.10352e-21 7.32991e-07)
(6.27517e-07 -3.12362e-08 -1.30377e-20 7.99543e-07 -1.47792e-21 7.13543e-07)
(6.0924e-07 -2.77675e-08 2.37918e-21 7.78286e-07 4.17294e-22 6.93776e-07)
(5.90857e-07 -2.43811e-08 9.21312e-22 7.56618e-07 4.62028e-23 6.7375e-07)
(5.72408e-07 -2.11225e-08 -2.21032e-21 7.34571e-07 -8.58449e-23 6.53502e-07)
(5.53911e-07 -1.8037e-08 1.54399e-20 7.12164e-07 1.88026e-21 6.33049e-07)
(5.35324e-07 -1.51686e-08 2.17019e-20 6.89346e-07 2.18841e-21 6.12346e-07)
(5.16603e-07 -1.25471e-08 1.61402e-21 6.66086e-07 2.34326e-23 5.91355e-07)
(4.97707e-07 -1.01737e-08 5.70289e-21 6.42367e-07 5.51308e-22 5.70046e-07)
(4.78651e-07 -8.02462e-09 -6.14777e-21 6.18253e-07 -7.17269e-22 5.4846e-07)
(4.59464e-07 -6.04316e-09 -6.82184e-23 5.93827e-07 2.85933e-22 5.26653e-07)
(4.40281e-07 -4.17107e-09 3.23233e-20 5.69295e-07 3.55761e-21 5.04795e-07)
(4.21232e-07 -2.39241e-09 4.43462e-23 5.44836e-07 -3.51208e-22 4.83039e-07)
(4.02352e-07 -7.41193e-10 -1.83949e-20 5.20502e-07 -2.0833e-21 4.61432e-07)
(3.83575e-07 6.98476e-10 -3.75862e-21 4.96223e-07 -4.07251e-22 4.39904e-07)
(3.64709e-07 1.82984e-09 -1.72938e-20 4.71776e-07 -1.95372e-21 4.18246e-07)
(3.45607e-07 2.59227e-09 -4.06777e-21 4.47011e-07 -3.65415e-22 3.96312e-07)
(3.26264e-07 2.99478e-09 1.3882e-22 4.21956e-07 -5.23772e-23 3.74113e-07)
(3.06854e-07 3.11758e-09 -2.13455e-20 3.96846e-07 -2.45813e-21 3.51856e-07)
(2.87859e-07 3.06742e-09 -1.40628e-21 3.72293e-07 -8.73286e-23 3.30065e-07)
(2.68972e-07 2.92514e-09 -5.19755e-21 3.47894e-07 -6.01061e-22 3.08461e-07)
(2.51089e-07 2.674e-09 -3.89865e-23 3.24801e-07 2.3399e-23 2.8793e-07)
(2.35576e-07 2.20058e-09 2.24845e-21 3.04804e-07 1.8095e-22 2.70178e-07)
(2.22881e-07 1.9603e-09 -1.82414e-20 2.88411e-07 -2.1003e-21 2.55671e-07)
(2.10826e-07 1.88407e-09 1.6585e-20 2.7281e-07 2.09961e-21 2.41804e-07)
(1.98071e-07 1.65244e-09 1.52571e-20 2.56333e-07 1.85219e-21 2.27229e-07)
(1.8589e-07 9.29683e-10 2.77653e-20 2.40634e-07 3.18973e-21 2.13162e-07)
(1.68406e-07 -7.23887e-10 -3.23153e-20 2.18075e-07 -3.97364e-21 1.93572e-07)
(1.63086e-07 -4.31354e-09 -5.53142e-23 2.1019e-07 7.25615e-23 1.85695e-07)
(1.29236e-07 -7.38976e-09 -0 1.63821e-07 -2.71634e-24 1.4894e-07)
(1.83574e-07 -1.07474e-08 -1.74772e-21 2.30429e-07 -1.7868e-22 2.01335e-07)
(9.46667e-08 7.98737e-11 1.74562e-20 1.03982e-07 2.15249e-21 1.11788e-07)
(3.98698e-07 8.81884e-09 7.50497e-21 4.98183e-07 8.80298e-22 4.22871e-07)
(4.8668e-07 3.69188e-08 -7.3761e-21 4.42911e-07 -9.64398e-22 5.09334e-07)
(8.48164e-07 2.6872e-08 1.89101e-24 1.04185e-06 6.51698e-24 8.81765e-07)
(7.58981e-07 -6.39085e-08 1.47445e-21 9.23907e-07 1.94963e-22 8.21106e-07)
(7.89509e-07 -9.71889e-08 1.83186e-21 9.45881e-07 1.15712e-22 8.68938e-07)
(7.02129e-07 -8.36355e-08 -9.03962e-23 8.25733e-07 -4.22545e-23 7.72667e-07)
(7.15945e-07 -7.66245e-08 3.36214e-22 8.43252e-07 4.60062e-23 7.77676e-07)
(7.15545e-07 -7.82834e-08 4.21325e-22 8.35606e-07 3.64393e-23 7.76287e-07)
(7.43955e-07 -8.2823e-08 1.9068e-22 8.68318e-07 7.51451e-24 8.05841e-07)
(7.59369e-07 -8.57067e-08 1.00627e-22 8.83355e-07 -3.37167e-23 8.21423e-07)
(7.74184e-07 -8.79897e-08 -1.50592e-21 8.98305e-07 -1.58867e-22 8.36158e-07)
(7.86969e-07 -9.00187e-08 -5.92766e-22 9.10817e-07 1.59669e-23 8.4889e-07)
(7.9884e-07 -9.17792e-08 1.33953e-21 9.2276e-07 1.42045e-22 8.60761e-07)
(8.09633e-07 -9.33746e-08 -0 9.33718e-07 -3.77085e-23 8.71654e-07)
(8.1922e-07 -9.47254e-08 -7.11361e-23 9.43694e-07 6.20987e-23 8.81413e-07)
(8.27346e-07 -9.58368e-08 2.70599e-21 9.52257e-07 2.64806e-22 8.89778e-07)
(8.34039e-07 -9.66948e-08 8.12064e-23 9.59529e-07 1.17941e-23 8.9678e-07)
(8.39572e-07 -9.73133e-08 2.77544e-21 9.65887e-07 2.69653e-22 9.02689e-07)
(8.43599e-07 -9.77002e-08 1.68496e-22 9.70762e-07 -3.3904e-23 9.07157e-07)
(8.46274e-07 -9.78403e-08 5.42842e-22 9.74447e-07 9.08635e-23 9.10336e-07)
(8.47658e-07 -9.77554e-08 1.99997e-21 9.7695e-07 1.98934e-22 9.12283e-07)
(8.47795e-07 -9.74442e-08 9.66566e-22 9.78332e-07 1.0749e-22 9.1304e-07)
(8.46786e-07 -9.69263e-08 2.59288e-21 9.78668e-07 1.76214e-22 9.12701e-07)
(8.44663e-07 -9.62045e-08 -2.29495e-21 9.7798e-07 -3.4824e-22 9.11294e-07)
(8.41523e-07 -9.52989e-08 -3.29863e-21 9.76332e-07 -2.43182e-22 9.0891e-07)
(8.3748e-07 -9.42095e-08 1.10335e-21 9.73879e-07 1.58416e-22 9.05656e-07)
(8.32608e-07 -9.2958e-08 -7.89123e-22 9.70643e-07 -1.47326e-22 9.01602e-07)
(8.26953e-07 -9.15474e-08 -2.25078e-21 9.66667e-07 -2.45623e-22 8.96787e-07)
(8.20577e-07 -8.99878e-08 -1.91992e-21 9.61991e-07 -6.46814e-23 8.91266e-07)
(8.13573e-07 -8.82848e-08 3.82254e-21 9.56719e-07 3.8432e-22 8.85125e-07)
(8.06037e-07 -8.64604e-08 -1.29099e-21 9.50908e-07 -1.88775e-22 8.78451e-07)
(7.97955e-07 -8.45118e-08 4.8286e-22 9.44528e-07 3.9372e-23 8.71223e-07)
(7.89443e-07 -8.24528e-08 -1.67345e-21 9.37696e-07 -1.22554e-22 8.63549e-07)
(7.80486e-07 -8.0286e-08 2.64618e-21 9.30365e-07 3.187e-22 8.55404e-07)
(7.71131e-07 -7.80191e-08 1.61728e-21 9.22571e-07 1.44227e-22 8.46829e-07)
(7.61414e-07 -7.5661e-08 1.89958e-21 9.1433e-07 2.40593e-22 8.3785e-07)
(7.51321e-07 -7.32101e-08 4.66489e-21 9.05614e-07 3.70608e-22 8.28444e-07)
(7.40901e-07 -7.0681e-08 -3.55871e-21 8.9645e-07 -4.65123e-22 8.18653e-07)
(7.30146e-07 -6.80722e-08 -1.96831e-21 8.86817e-07 -1.38608e-22 8.08458e-07)
(7.19043e-07 -6.53939e-08 1.6657e-22 8.76669e-07 1.30874e-23 7.97836e-07)
(7.07638e-07 -6.26488e-08 -2.28336e-21 8.66059e-07 -2.44237e-22 7.86826e-07)
(6.95856e-07 -5.98419e-08 -9.08558e-22 8.54868e-07 -1.1524e-22 7.75344e-07)
(6.83715e-07 -5.69725e-08 -3.62003e-21 8.43118e-07 -3.31611e-22 7.63403e-07)
(6.71243e-07 -5.40514e-08 1.2536e-21 8.30821e-07 2.05789e-22 7.51019e-07)
(6.58339e-07 -5.10679e-08 1.59527e-21 8.17854e-07 8.91778e-23 7.38086e-07)
(6.45065e-07 -4.80367e-08 -4.06112e-21 8.04274e-07 -3.95129e-22 7.24662e-07)
(6.31497e-07 -4.49807e-08 3.21554e-21 7.90149e-07 3.91193e-22 7.10821e-07)
(6.17568e-07 -4.18878e-08 -1.06588e-22 7.75402e-07 -6.5037e-23 6.96483e-07)
(6.03218e-07 -3.87475e-08 -1.6251e-27 7.5996e-07 -1.61938e-23 6.8159e-07)
(5.88549e-07 -3.55845e-08 6.54528e-23 7.43928e-07 5.82343e-23 6.66242e-07)
(5.73627e-07 -3.24161e-08 3.24295e-21 7.27369e-07 2.13645e-22 6.50502e-07)
(5.58472e-07 -2.92673e-08 -1.12103e-20 7.10283e-07 -1.21666e-21 6.34383e-07)
(5.43153e-07 -2.6173e-08 4.62629e-24 6.92735e-07 1.15737e-22 6.17951e-07)
(5.27721e-07 -2.31753e-08 2.73838e-23 6.74768e-07 -4.15555e-23 6.01251e-07)
(5.12174e-07 -2.0323e-08 -4.28484e-21 6.56362e-07 -4.53955e-22 5.84274e-07)
(4.96482e-07 -1.76537e-08 1.61384e-22 6.37483e-07 7.01733e-23 5.6699e-07)
(4.80613e-07 -1.51969e-08 -5.04353e-22 6.18104e-07 -4.71876e-23 5.49365e-07)
(4.64492e-07 -1.29484e-08 1.65688e-23 5.98167e-07 -9.38591e-24 5.31335e-07)
(4.48129e-07 -1.08765e-08 -2.3865e-21 5.77733e-07 -2.59812e-22 5.12935e-07)
(4.31569e-07 -8.92851e-09 2.01853e-23 5.56904e-07 -8.67571e-23 4.94242e-07)
(4.14902e-07 -7.05797e-09 -1.38032e-20 5.35827e-07 -1.5133e-21 4.75369e-07)
(3.98232e-07 -5.25731e-09 3.4712e-24 5.14643e-07 2.05912e-22 4.56442e-07)
(3.816e-07 -3.57169e-09 1.54723e-20 4.93406e-07 1.72151e-21 4.37506e-07)
(3.64955e-07 -2.09059e-09 -1.77681e-23 4.72053e-07 -6.19051e-24 4.18507e-07)
(3.48145e-07 -9.09314e-10 1.65265e-20 4.50403e-07 1.8579e-21 3.99277e-07)
(3.31063e-07 -8.1319e-11 -1.00734e-21 4.2835e-07 -2.7934e-22 3.79709e-07)
(3.13716e-07 4.09907e-10 -1.37468e-20 4.05936e-07 -1.56109e-21 3.59828e-07)
(2.96273e-07 6.47173e-10 -1.97268e-22 3.83396e-07 3.8896e-23 3.3984e-07)
(2.7916e-07 7.31759e-10 -1.60526e-23 3.61281e-07 1.41453e-23 3.2021e-07)
(2.62015e-07 7.2793e-10 5.02736e-21 3.39129e-07 5.98143e-22 3.00601e-07)
(2.45736e-07 6.07454e-10 4.3056e-21 3.18089e-07 4.81481e-22 2.81897e-07)
(2.3163e-07 2.77286e-10 4.17955e-23 2.9986e-07 -8.95252e-24 2.65735e-07)
(2.20038e-07 1.79834e-10 -1.26761e-22 2.84868e-07 -1.95057e-23 2.52478e-07)
(2.08926e-07 2.25449e-10 8.27881e-23 2.70484e-07 -4.05489e-23 2.39692e-07)
(1.97148e-07 9.33464e-11 -1.44738e-20 2.55248e-07 -1.79533e-21 2.26221e-07)
(1.85836e-07 -5.72749e-10 -2.23923e-20 2.40594e-07 -2.54006e-21 2.13129e-07)
(1.69968e-07 -2.2303e-09 3.19072e-20 2.19899e-07 3.92796e-21 1.9523e-07)
(1.65864e-07 -5.81379e-09 1.53807e-20 2.13091e-07 1.77137e-21 1.88611e-07)
(1.35839e-07 -8.66445e-09 -0 1.71294e-07 -4.42982e-23 1.5583e-07)
(1.86173e-07 -1.15864e-08 -5.07988e-21 2.33144e-07 -5.4064e-22 2.04231e-07)
(9.5406e-08 3.74072e-10 4.52568e-20 1.07249e-07 5.53537e-21 1.13512e-07)
(3.9955e-07 8.98718e-09 -3.48665e-20 4.99426e-07 -4.28888e-21 4.24018e-07)
(4.87736e-07 3.75789e-08 1.84196e-21 4.46113e-07 2.9502e-22 5.11845e-07)
(8.47701e-07 2.4038e-08 1.85251e-24 1.04139e-06 -1.64792e-24 8.80375e-07)
(7.7311e-07 -8.40687e-08 -1.34071e-22 9.5201e-07 -8.84433e-24 8.40227e-07)
(6.40401e-07 -7.4655e-08 1.90975e-22 7.46992e-07 1.76206e-23 6.94813e-07)
(5.91192e-07 -6.81426e-08 -2.11369e-22 6.80028e-07 -2.58709e-23 6.41791e-07)
(6.34231e-07 -7.05113e-08 -7.68975e-23 7.37057e-07 -2.78309e-24 6.84179e-07)
(6.44158e-07 -7.38489e-08 5.89636e-25 7.44466e-07 2.43277e-24 6.94883e-07)
(6.61148e-07 -7.62236e-08 1.69989e-25 7.63293e-07 -3.55919e-23 7.11999e-07)
(6.71201e-07 -7.79269e-08 -1.52201e-21 7.72481e-07 -1.31254e-22 7.21901e-07)
(6.82227e-07 -7.9536e-08 6.14116e-22 7.83595e-07 9.49024e-23 7.32857e-07)
(6.91959e-07 -8.09985e-08 5.90736e-23 7.9323e-07 -3.23607e-23 7.42579e-07)
(7.01052e-07 -8.23113e-08 -9.72578e-22 8.02468e-07 -9.5582e-23 7.51731e-07)
(7.09192e-07 -8.34652e-08 -0 8.10841e-07 -2.05981e-23 7.59994e-07)
(7.16314e-07 -8.44319e-08 -1.85153e-21 8.18324e-07 -1.98697e-22 7.67293e-07)
(7.22379e-07 -8.5218e-08 -7.5309e-22 8.24852e-07 -3.08619e-23 7.73594e-07)
(7.27383e-07 -8.58221e-08 1.56247e-25 8.30429e-07 -2.3795e-23 7.78893e-07)
(7.3142e-07 -8.62429e-08 -1.89454e-21 8.35208e-07 -1.45548e-22 7.8328e-07)
(7.34296e-07 -8.64839e-08 1.72529e-21 8.38866e-07 2.47082e-22 7.86564e-07)
(7.36151e-07 -8.65409e-08 1.85933e-21 8.41639e-07 1.15323e-22 7.88881e-07)
(7.37076e-07 -8.64253e-08 -1.41383e-21 8.43616e-07 -1.97618e-22 7.9032e-07)
(7.37026e-07 -8.61473e-08 -1.14888e-21 8.44678e-07 -9.70076e-23 7.90832e-07)
(7.36086e-07 -8.57047e-08 -5.78462e-22 8.44959e-07 -3.57811e-23 7.90502e-07)
(7.34353e-07 -8.51139e-08 -3.22522e-22 8.44532e-07 3.74309e-23 7.89419e-07)
(7.31851e-07 -8.43787e-08 2.86915e-21 8.43409e-07 2.83628e-22 7.87607e-07)
(7.28658e-07 -8.35111e-08 1.97553e-24 8.41654e-07 -2.99548e-23 7.85138e-07)
(7.24839e-07 -8.25096e-08 1.24475e-21 8.39355e-07 1.50229e-22 7.82073e-07)
(7.20419e-07 -8.13891e-08 1.44467e-21 8.36485e-07 1.19442e-22 7.78434e-07)
(7.15469e-07 -8.01494e-08 1.83735e-22 8.33135e-07 -3.44487e-23 7.74284e-07)
(7.10091e-07 -7.88071e-08 -1.1585e-21 8.29391e-07 -1.24081e-22 7.69721e-07)
(7.04264e-07 -7.73621e-08 -6.18258e-22 8.25208e-07 -3.99958e-23 7.6472e-07)
(6.9807e-07 -7.58228e-08 1.5653e-24 8.20664e-07 1.65709e-23 7.59353e-07)
(6.91547e-07 -7.41933e-08 3.37557e-22 8.15793e-07 3.03556e-23 7.53656e-07)
(6.84689e-07 -7.24762e-08 8.85247e-24 8.10564e-07 3.16943e-23 7.47615e-07)
(6.77547e-07 -7.0677e-08 2.31721e-21 8.05022e-07 2.33148e-22 7.41273e-07)
(6.70111e-07 -6.87999e-08 3.89219e-24 7.99132e-07 -3.57287e-23 7.34614e-07)
(6.62411e-07 -6.68434e-08 1.69968e-23 7.9293e-07 7.30268e-23 7.27662e-07)
(6.54451e-07 -6.48168e-08 3.99244e-21 7.86388e-07 4.19081e-22 7.20412e-07)
(6.46212e-07 -6.2718e-08 1.21514e-21 7.79474e-07 2.64484e-23 7.12838e-07)
(6.37719e-07 -6.05535e-08 -2.21959e-21 7.72202e-07 -2.19754e-22 7.04956e-07)
(6.28948e-07 -5.83217e-08 1.437e-21 7.64534e-07 1.74811e-22 6.96736e-07)
(6.19867e-07 -5.60228e-08 -4.26459e-24 7.56418e-07 -4.601e-23 6.88138e-07)
(6.1047e-07 -5.36601e-08 -1.7091e-21 7.47832e-07 -1.96947e-22 6.79149e-07)
(6.00751e-07 -5.12316e-08 -1.51436e-21 7.38764e-07 -1.14747e-22 6.69755e-07)
(5.90696e-07 -4.87419e-08 1.3654e-21 7.29183e-07 1.91132e-22 6.59937e-07)
(5.80239e-07 -4.61917e-08 2.19271e-21 7.18991e-07 2.1626e-22 6.49614e-07)
(5.69411e-07 -4.35797e-08 1.16745e-21 7.08226e-07 2.11248e-22 6.38819e-07)
(5.58271e-07 -4.0913e-08 9.31899e-21 6.96952e-07 9.49171e-22 6.27612e-07)
(5.46734e-07 -3.81852e-08 1.06771e-24 6.85053e-07 -1.17173e-22 6.15896e-07)
(5.3488e-07 -3.5415e-08 6.66261e-24 6.72608e-07 -2.66473e-23 6.03747e-07)
(5.22735e-07 -3.26167e-08 -3.20867e-21 6.59626e-07 -2.52613e-22 5.91184e-07)
(5.10342e-07 -2.98153e-08 7.02691e-21 6.46134e-07 7.64398e-22 5.78243e-07)
(4.97767e-07 -2.70477e-08 1.18944e-22 6.32184e-07 -1.45286e-22 5.64982e-07)
(4.8505e-07 -2.43534e-08 -8.52977e-21 6.17801e-07 -9.08287e-22 5.51432e-07)
(4.72187e-07 -2.17776e-08 3.15316e-23 6.02959e-07 -1.29468e-23 5.3758e-07)
(4.59157e-07 -1.93575e-08 -9.88048e-21 5.87628e-07 -1.05272e-21 5.234e-07)
(4.45922e-07 -1.7115e-08 4.85454e-22 5.71775e-07 1.6627e-22 5.08855e-07)
(4.32398e-07 -1.50403e-08 3.22526e-21 5.55327e-07 3.35897e-22 4.9387e-07)
(4.1858e-07 -1.30979e-08 -1.89622e-21 5.38328e-07 -2.71469e-22 4.78461e-07)
(4.04481e-07 -1.12383e-08 -5.46638e-21 5.2084e-07 -5.89852e-22 4.62668e-07)
(3.90181e-07 -9.42158e-09 -1.20994e-22 5.0299e-07 1.30694e-23 4.46593e-07)
(3.75766e-07 -7.65207e-09 3.24459e-24 4.84897e-07 -2.25845e-24 4.30338e-07)
(3.61276e-07 -5.98479e-09 1.25749e-22 4.66599e-07 2.32397e-23 4.13944e-07)
(3.46687e-07 -4.51295e-09 -1.19759e-23 4.48056e-07 -9.24179e-23 3.97377e-07)
(3.3188e-07 -3.32884e-09 -1.56912e-20 4.29122e-07 -1.73817e-21 3.80506e-07)
(3.16777e-07 -2.47802e-09 5.58739e-21 4.09721e-07 7.90016e-22 3.63253e-07)
(3.01395e-07 -1.93545e-09 1.30558e-20 3.89907e-07 1.56163e-21 3.45655e-07)
(2.8589e-07 -1.61854e-09 1.94355e-20 3.69907e-07 2.17623e-21 3.27905e-07)
(2.70631e-07 -1.43129e-09 -4.43212e-23 3.50207e-07 -1.46303e-22 3.10409e-07)
(2.55206e-07 -1.3274e-09 -1.16962e-20 3.30285e-07 -1.37665e-21 2.92775e-07)
(2.40531e-07 -1.3418e-09 -4.08115e-21 3.11311e-07 -4.5852e-22 2.75906e-07)
(2.27818e-07 -1.54568e-09 -7.55504e-21 2.94851e-07 -8.09781e-22 2.61326e-07)
(2.17294e-07 -1.51462e-09 1.17895e-20 2.81239e-07 1.4121e-21 2.49291e-07)
(2.07117e-07 -1.36405e-09 -3.67182e-21 2.68078e-07 -4.34155e-22 2.37586e-07)
(1.96322e-07 -1.41694e-09 1.41297e-20 2.54104e-07 1.81868e-21 2.25232e-07)
(1.85904e-07 -2.0474e-09 3.8686e-20 2.40528e-07 4.62359e-21 2.13144e-07)
(1.71756e-07 -3.73593e-09 1.76458e-20 2.21811e-07 2.00851e-21 1.97044e-07)
(1.68864e-07 -7.30703e-09 6.26129e-23 2.16083e-07 -3.48849e-23 1.91691e-07)
(1.42588e-07 -9.94289e-09 -0 1.7883e-07 1.26102e-23 1.62805e-07)
(1.88341e-07 -1.23388e-08 4.80752e-21 2.35346e-07 5.83464e-22 2.06698e-07)
(9.65663e-08 7.03969e-10 1.55428e-22 1.10922e-07 7.33047e-23 1.15567e-07)
(4.00191e-07 9.18889e-09 3.30961e-20 5.00519e-07 4.01958e-21 4.25097e-07)
(4.88448e-07 3.82117e-08 1.8855e-20 4.48675e-07 2.38596e-21 5.13687e-07)
(8.47341e-07 2.0825e-08 1.84244e-24 1.04142e-06 -1.67641e-23 8.79495e-07)
(6.07337e-07 -6.1614e-08 4.79451e-22 7.23728e-07 5.60431e-23 6.50728e-07)
(5.56236e-07 -6.45207e-08 4.96395e-22 6.37083e-07 4.07473e-23 5.97669e-07)
(5.37995e-07 -6.38164e-08 -2.58987e-23 6.10963e-07 -2.00121e-23 5.79466e-07)
(5.75353e-07 -6.68016e-08 -3.91235e-22 6.61393e-07 -3.77391e-23 6.17164e-07)
(5.78997e-07 -6.83827e-08 4.6517e-23 6.61877e-07 1.59307e-23 6.20878e-07)
(5.89552e-07 -6.96308e-08 1.56789e-22 6.73393e-07 1.68589e-23 6.31284e-07)
(5.96847e-07 -7.08024e-08 -2.02399e-24 6.80137e-07 -4.20849e-24 6.38504e-07)
(6.04739e-07 -7.19265e-08 5.73123e-25 6.88137e-07 -1.11897e-24 6.4639e-07)
(6.11757e-07 -7.29287e-08 -2.06892e-25 6.95242e-07 2.77961e-25 6.53449e-07)
(6.1822e-07 -7.38322e-08 -1.99705e-24 7.01883e-07 -1.27782e-24 6.60003e-07)
(6.23822e-07 -7.45963e-08 -0 7.07718e-07 9.70174e-25 6.65741e-07)
(6.28819e-07 -7.52301e-08 -3.18283e-24 7.13133e-07 -3.13997e-24 6.70922e-07)
(6.32982e-07 -7.57377e-08 2.04185e-25 7.17746e-07 -6.41921e-25 6.75317e-07)
(6.3634e-07 -7.61059e-08 5.39341e-25 7.21659e-07 1.10533e-23 6.78954e-07)
(6.38933e-07 -7.63424e-08 4.40444e-22 7.24902e-07 3.39669e-23 6.81874e-07)
(6.40724e-07 -7.64392e-08 -3.66885e-22 7.27447e-07 -4.62917e-23 6.84039e-07)
(6.41741e-07 -7.64122e-08 3.60258e-24 7.29269e-07 1.13617e-23 6.85476e-07)
(6.42098e-07 -7.62471e-08 -3.88803e-24 7.30603e-07 2.23124e-24 6.86297e-07)
(6.41751e-07 -7.59743e-08 -3.51331e-24 7.31244e-07 6.2424e-24 6.86456e-07)
(6.40702e-07 -7.55718e-08 5.56624e-22 7.31277e-07 6.28812e-23 6.85953e-07)
(6.39133e-07 -7.50646e-08 3.00401e-22 7.3088e-07 1.74999e-23 6.84967e-07)
(6.36999e-07 -7.44458e-08 9.46714e-24 7.29999e-07 -3.46182e-24 6.83452e-07)
(6.34364e-07 -7.37302e-08 -3.17926e-25 7.28662e-07 1.30634e-24 6.81468e-07)
(6.31207e-07 -7.29126e-08 3.55668e-24 7.26849e-07 8.65757e-25 6.78992e-07)
(6.2768e-07 -7.20007e-08 2.61169e-24 7.24752e-07 -2.84545e-23 6.76172e-07)
(6.23791e-07 -7.10087e-08 -1.7708e-21 7.22321e-07 -1.75193e-22 6.73012e-07)
(6.19548e-07 -6.99319e-08 2.23438e-22 7.19571e-07 5.24755e-23 6.69517e-07)
(6.15024e-07 -6.87804e-08 -2.43265e-24 7.16566e-07 -4.90874e-24 6.65755e-07)
(6.10243e-07 -6.75553e-08 -2.35883e-23 7.13329e-07 -8.29325e-24 6.61746e-07)
(6.05221e-07 -6.62598e-08 -3.26507e-22 7.09862e-07 -3.4647e-23 6.57502e-07)
(5.99976e-07 -6.48962e-08 1.14025e-24 7.06171e-07 7.06132e-25 6.53035e-07)
(5.94536e-07 -6.34674e-08 8.75077e-24 7.02281e-07 2.36987e-23 6.4837e-07)
(5.88881e-07 -6.19755e-08 1.28688e-21 6.98146e-07 1.32516e-22 6.4348e-07)
(5.83042e-07 -6.0419e-08 2.09667e-24 6.93806e-07 -1.41759e-23 6.38391e-07)
(5.77026e-07 -5.88028e-08 1.1614e-23 6.89247e-07 -1.06645e-23 6.33103e-07)
(5.70808e-07 -5.71279e-08 -1.15959e-21 6.84425e-07 -8.59988e-23 6.27586e-07)
(5.64385e-07 -5.53922e-08 2.10749e-21 6.79332e-07 2.10611e-22 6.2183e-07)
(5.57739e-07 -5.35947e-08 -1.37523e-21 6.73938e-07 -1.69001e-22 6.15812e-07)
(5.50849e-07 -5.17333e-08 -8.48966e-25 6.68209e-07 3.76314e-23 6.09503e-07)
(5.43676e-07 -4.98073e-08 1.61396e-21 6.62087e-07 1.82268e-22 6.02859e-07)
(5.36233e-07 -4.7816e-08 1.43525e-21 6.55582e-07 1.24463e-22 5.95886e-07)
(5.28507e-07 -4.57641e-08 8.84803e-24 6.48662e-07 -1.40013e-23 5.88563e-07)
(5.20401e-07 -4.36397e-08 6.50571e-24 6.41207e-07 -1.42149e-23 5.80788e-07)
(5.11972e-07 -4.1444e-08 -1.0717e-21 6.33286e-07 -1.61809e-22 5.72612e-07)
(5.03203e-07 -3.91816e-08 -4.7342e-21 6.24857e-07 -4.7679e-22 5.64016e-07)
(4.94061e-07 -3.6848e-08 9.39137e-25 6.15876e-07 4.51663e-23 5.54957e-07)
(4.84625e-07 -3.446e-08 5.88282e-24 6.06414e-07 9.93734e-24 5.45508e-07)
(4.74892e-07 -3.20288e-08 -2.76293e-23 5.96448e-07 -1.98975e-23 5.3566e-07)
(4.64929e-07 -2.95827e-08 -1.78022e-21 5.86024e-07 -1.9332e-22 5.25468e-07)
(4.54787e-07 -2.71542e-08 -1.11855e-22 5.75178e-07 9.09885e-24 5.14975e-07)
(4.44496e-07 -2.47838e-08 -6.57205e-23 5.63912e-07 1.98229e-23 5.04198e-07)
(4.34062e-07 -2.25107e-08 3.91719e-21 5.52214e-07 4.04979e-22 4.93133e-07)
(4.23464e-07 -2.03705e-08 -1.49676e-21 5.40051e-07 -1.95487e-22 4.81753e-07)
(4.12641e-07 -1.83763e-08 -5.55836e-24 5.27361e-07 -1.56335e-23 4.69997e-07)
(4.01504e-07 -1.65091e-08 -3.04878e-21 5.14068e-07 -2.96787e-22 4.57784e-07)
(3.90038e-07 -1.4734e-08 3.89176e-21 5.00201e-07 4.87961e-22 4.45117e-07)
(3.78233e-07 -1.30021e-08 5.14867e-21 4.85788e-07 6.25326e-22 4.32009e-07)
(3.66137e-07 -1.12812e-08 1.40079e-20 4.7092e-07 1.51007e-21 4.18528e-07)
(3.53843e-07 -9.58758e-09 -3.88448e-23 4.55707e-07 -1.73637e-22 4.04774e-07)
(3.41397e-07 -7.98479e-09 -1.24942e-20 4.4019e-07 -1.37827e-21 3.90793e-07)
(3.28784e-07 -6.56716e-09 3.31645e-21 4.24328e-07 4.47918e-22 3.76556e-07)
(3.15921e-07 -5.42313e-09 -1.30927e-22 4.0801e-07 -8.0721e-23 3.61966e-07)
(3.0275e-07 -4.58929e-09 -7.01538e-21 3.91184e-07 -8.83987e-22 3.46967e-07)
(2.89303e-07 -4.02922e-09 -1.80683e-20 3.73925e-07 -2.09252e-21 3.31614e-07)
(2.75702e-07 -3.66782e-09 -1.66406e-20 3.56419e-07 -1.78492e-21 3.16063e-07)
(2.6225e-07 -3.40736e-09 9.17751e-21 3.3908e-07 1.12829e-21 3.00654e-07)
(2.48527e-07 -3.22759e-09 -7.46613e-22 3.21373e-07 -1.14538e-22 2.84978e-07)
(2.35456e-07 -3.15982e-09 3.88132e-21 3.04475e-07 4.47075e-22 2.69948e-07)
(2.24107e-07 -3.25386e-09 -1.08916e-21 2.89766e-07 -1.42507e-22 2.56929e-07)
(2.14612e-07 -3.11077e-09 4.37689e-23 2.77502e-07 1.26779e-23 2.46081e-07)
(2.05371e-07 -2.87428e-09 9.0841e-24 2.65579e-07 -5.63046e-23 2.35463e-07)
(1.95568e-07 -2.86956e-09 -1.60703e-20 2.52882e-07 -1.96153e-21 2.24239e-07)
(1.86079e-07 -3.48819e-09 -1.52378e-20 2.40426e-07 -1.76581e-21 2.13194e-07)
(1.73766e-07 -5.23507e-09 8.35142e-23 2.23812e-07 5.58172e-23 1.99011e-07)
(1.72082e-07 -8.78998e-09 7.09601e-24 2.1917e-07 2.27717e-24 1.94934e-07)
(1.49426e-07 -1.12116e-08 -0 1.86377e-07 -6.66123e-24 1.69812e-07)
(1.90084e-07 -1.30108e-08 -4.72761e-21 2.37055e-07 -5.83844e-22 2.08756e-07)
(9.81348e-08 1.1145e-09 5.93266e-23 1.15001e-07 -2.19729e-23 1.1793e-07)
(4.00048e-07 9.36481e-09 -1.98918e-20 5.00799e-07 -2.41945e-21 4.25557e-07)
(4.89274e-07 3.88999e-08 -1.79007e-20 4.50928e-07 -2.27262e-21 5.1524e-07)
(8.47421e-07 1.73109e-08 2.41764e-22 1.04221e-06 6.11662e-23 8.79388e-07)
(5.31647e-07 -5.5447e-08 -4.3427e-22 6.2366e-07 -4.40693e-23 5.65837e-07)
(5.10306e-07 -6.11947e-08 9.61759e-25 5.77492e-07 1.16354e-23 5.44985e-07)
(4.95086e-07 -6.03738e-08 -1.14606e-25 5.56289e-07 9.15279e-24 5.29859e-07)
(5.20169e-07 -6.201e-08 3.73618e-22 5.91534e-07 3.54911e-23 5.54941e-07)
(5.20673e-07 -6.26861e-08 -4.38821e-23 5.89147e-07 -1.44448e-23 5.55338e-07)
(5.27912e-07 -6.34982e-08 -1.48804e-22 5.97275e-07 -1.19403e-23 5.62518e-07)
(5.32781e-07 -6.42655e-08 -4.81227e-25 6.01833e-07 2.08667e-24 5.67391e-07)
(5.37987e-07 -6.49752e-08 -3.27683e-26 6.07215e-07 1.67552e-24 5.72635e-07)
(5.42531e-07 -6.56018e-08 1.49848e-22 6.11885e-07 3.14954e-23 5.77256e-07)
(5.46681e-07 -6.61464e-08 9.05257e-22 6.16282e-07 8.74739e-23 5.81519e-07)
(5.50253e-07 -6.66024e-08 -0 6.2013e-07 -5.96532e-24 5.85241e-07)
(5.53359e-07 -6.69655e-08 4.87796e-22 6.23643e-07 3.45079e-23 5.88536e-07)
(5.55883e-07 -6.72367e-08 -7.03977e-22 6.2662e-07 -8.91325e-23 5.91288e-07)
(5.57831e-07 -6.74113e-08 -5.65473e-22 6.29094e-07 -2.88734e-23 5.93503e-07)
(5.5923e-07 -6.74888e-08 8.78265e-22 6.3111e-07 1.02494e-22 5.95209e-07)
(5.60096e-07 -6.74724e-08 3.52434e-22 6.32675e-07 1.97685e-23 5.9642e-07)
(5.60392e-07 -6.73653e-08 7.51647e-25 6.33707e-07 1.87709e-23 5.97099e-07)
(5.60242e-07 -6.7164e-08 1.28782e-21 6.34423e-07 1.49113e-22 5.97369e-07)
(5.59594e-07 -6.68798e-08 1.03994e-21 6.34677e-07 7.25811e-23 5.97176e-07)
(5.58468e-07 -6.6508e-08 -5.29255e-22 6.34516e-07 -7.18699e-23 5.96539e-07)
(5.56973e-07 -6.60566e-08 -2.88116e-22 6.34075e-07 -6.34602e-23 5.95565e-07)
(5.55083e-07 -6.55261e-08 -2.61332e-21 6.333e-07 -2.59095e-22 5.94229e-07)
(5.52811e-07 -6.49201e-08 -1.56997e-24 6.32188e-07 2.91055e-23 5.9254e-07)
(5.50205e-07 -6.4241e-08 -6.98321e-22 6.30794e-07 -7.04704e-23 5.90544e-07)
(5.47387e-07 -6.34963e-08 -2.42809e-25 6.29272e-07 1.2687e-23 5.8836e-07)
(5.4426e-07 -6.26914e-08 -5.72263e-24 6.27439e-07 -4.65516e-24 5.85889e-07)
(5.40924e-07 -6.18205e-08 4.15112e-24 6.25463e-07 9.58121e-25 5.83229e-07)
(5.37438e-07 -6.08999e-08 -1.85048e-24 6.23366e-07 -2.96432e-25 5.80435e-07)