/*--------------------------------*- C++ -*----------------------------------*\
| =========                 |                                                 |
| \\      /  F ield         | OpenFOAM: The Open Source CFD Toolbox           |
|  \\    /   O peration     | Version:  2506                                  |
|   \\  /    A nd           | Website:  www.openfoam.com                      |
|    \\/     M anipulation  |                                                 |
\*---------------------------------------------------------------------------*/
FoamFile
{
    version     2.0;
    format      ascii;
    arch        "LSB;label=32;scalar=64";
    class       volScalarField;
    location    "250";
    object      turbulenceProperties:nut;
}
// * * * * * * * * * * * * * * * * * * * * * * * * * * * * * * * * * * * * * //

dimensions      [0 2 -1 0 0 0 0];

internalField   nonuniform List<scalar> 
1340
(
6.14786e-06
6.12037e-06
6.12287e-06
6.12397e-06
6.1498e-06
6.12065e-06
6.12941e-06
6.13097e-06
6.12339e-06
6.12586e-06
6.15183e-06
6.12084e-06
6.10901e-06
6.11369e-06
6.1219e-06
6.13071e-06
6.13167e-06
6.12395e-06
6.12795e-06
6.15395e-06
6.12094e-06
6.09884e-06
6.10255e-06
6.10476e-06
6.10622e-06
6.10753e-06
6.1098e-06
6.11481e-06
6.12337e-06
6.13205e-06
6.13237e-06
6.12456e-06
6.13024e-06
6.15615e-06
6.12091e-06
6.07731e-06
6.08106e-06
6.08549e-06
6.09026e-06
6.09505e-06
6.0997e-06
6.10335e-06
6.10547e-06
6.10686e-06
6.1082e-06
6.11065e-06
6.11603e-06
6.12493e-06
6.13343e-06
6.13307e-06
6.12521e-06
6.13276e-06
6.15844e-06
6.12075e-06
6.07923e-06
6.07657e-06
6.07423e-06
6.07257e-06
6.07197e-06
6.0728e-06
6.07484e-06
6.07784e-06
6.08174e-06
6.08628e-06
6.09111e-06
6.09594e-06
6.1006e-06
6.10419e-06
6.10621e-06
6.10754e-06
6.1089e-06
6.11157e-06
6.11736e-06
6.1266e-06
6.13485e-06
6.13376e-06
6.12594e-06
6.13553e-06
6.16078e-06
6.12042e-06
6.097e-06
6.09593e-06
6.09489e-06
6.09388e-06
6.09291e-06
6.09193e-06
6.09088e-06
6.08968e-06
6.08823e-06
6.08643e-06
6.08423e-06
6.08168e-06
6.07894e-06
6.07627e-06
6.07398e-06
6.07243e-06
6.07202e-06
6.07306e-06
6.07527e-06
6.07843e-06
6.08247e-06
6.08712e-06
6.09201e-06
6.09688e-06
6.10155e-06
6.10506e-06
6.10697e-06
6.10824e-06
6.10966e-06
6.11258e-06
6.11881e-06
6.12837e-06
6.13631e-06
6.13445e-06
6.12674e-06
6.13857e-06
6.16318e-06
6.11992e-06
6.00392e-06
7.73583e-06
6.89934e-06
6.05905e-06
5.98557e-06
6.11698e-06
6.14582e-06
6.14426e-06
6.13889e-06
6.13242e-06
6.12919e-06
6.12663e-06
6.1239e-06
6.1215e-06
6.11942e-06
6.11753e-06
6.11587e-06
6.11442e-06
6.11317e-06
6.1121e-06
6.11119e-06
6.11042e-06
6.10977e-06
6.10923e-06
6.10879e-06
6.10842e-06
6.10811e-06
6.10783e-06
6.10755e-06
6.10727e-06
6.10695e-06
6.10659e-06
6.10618e-06
6.10571e-06
6.10517e-06
6.10456e-06
6.10386e-06
6.10308e-06
6.10222e-06
6.10129e-06
6.1003e-06
6.09926e-06
6.09819e-06
6.09712e-06
6.09606e-06
6.09503e-06
6.09404e-06
6.09307e-06
6.09208e-06
6.09101e-06
6.08976e-06
6.08823e-06
6.08633e-06
6.08402e-06
6.08139e-06
6.07861e-06
6.07594e-06
6.07372e-06
6.0723e-06
6.0721e-06
6.07336e-06
6.07574e-06
6.07908e-06
6.08327e-06
6.08802e-06
6.09298e-06
6.09788e-06
6.10254e-06
6.10597e-06
6.10776e-06
6.10898e-06
6.11047e-06
6.11369e-06
6.12039e-06
6.13026e-06
6.1378e-06
6.13511e-06
6.12764e-06
6.1419e-06
6.16561e-06
6.11922e-06
7.99017e-06
6.48904e-06
6.0612e-06
6.00738e-06
6.12201e-06
6.15176e-06
6.14233e-06
6.13644e-06
6.13147e-06
6.12819e-06
6.12594e-06
6.12356e-06
6.12135e-06
6.11943e-06
6.1177e-06
6.11614e-06
6.11478e-06
6.1136e-06
6.11258e-06
6.1117e-06
6.11095e-06
6.11032e-06
6.1098e-06
6.10936e-06
6.109e-06
6.1087e-06
6.10843e-06
6.10817e-06
6.1079e-06
6.10761e-06
6.10729e-06
6.10692e-06
6.10649e-06
6.106e-06
6.10543e-06
6.10479e-06
6.10407e-06
6.10326e-06
6.10238e-06
6.10143e-06
6.10042e-06
6.09937e-06
6.09831e-06
6.09724e-06
6.09619e-06
6.09518e-06
6.0942e-06
6.09324e-06
6.09224e-06
6.09113e-06
6.08982e-06
6.0882e-06
6.08619e-06
6.08378e-06
6.08107e-06
6.07825e-06
6.0756e-06
6.07346e-06
6.0722e-06
6.07223e-06
6.07371e-06
6.07628e-06
6.07979e-06
6.08413e-06
6.08898e-06
6.094e-06
6.09894e-06
6.10358e-06
6.1069e-06
6.10858e-06
6.10975e-06
6.11135e-06
6.11491e-06
6.12212e-06
6.13225e-06
6.13931e-06
6.13576e-06
6.12865e-06
6.14554e-06
6.16803e-06
6.11828e-06
6.29245e-06
6.02352e-06
6.05668e-06
6.12695e-06
6.15258e-06
6.14007e-06
6.13286e-06
6.12949e-06
6.12673e-06
6.12472e-06
6.12272e-06
6.12078e-06
6.11906e-06
6.11752e-06
6.11613e-06
6.1149e-06
6.11382e-06
6.11288e-06
6.11207e-06
6.11138e-06
6.11079e-06
6.11029e-06
6.10988e-06
6.10954e-06
6.10925e-06
6.109e-06
6.10876e-06
6.10852e-06
6.10826e-06
6.10796e-06
6.10763e-06
6.10724e-06
6.10679e-06
6.10627e-06
6.10568e-06
6.10501e-06
6.10425e-06
6.10342e-06
6.10252e-06
6.10155e-06
6.10053e-06
6.09948e-06
6.09841e-06
6.09735e-06
6.09632e-06
6.09532e-06
6.09436e-06
6.0934e-06
6.09239e-06
6.09123e-06
6.08985e-06
6.08812e-06
6.086e-06
6.08349e-06
6.0807e-06
6.07785e-06
6.07524e-06
6.07321e-06
6.07212e-06
6.07241e-06
6.07411e-06
6.07687e-06
6.08057e-06
6.08506e-06
6.09001e-06
6.09509e-06
6.10006e-06
6.10468e-06
6.10787e-06
6.10942e-06
6.11056e-06
6.1123e-06
6.11625e-06
6.124e-06
6.13436e-06
6.14083e-06
6.13637e-06
6.12978e-06
6.1495e-06
6.17042e-06
6.11708e-06
5.99529e-06
6.09603e-06
6.13413e-06
6.14697e-06
6.13653e-06
6.12901e-06
6.12679e-06
6.12486e-06
6.12313e-06
6.12148e-06
6.11985e-06
6.11838e-06
6.11706e-06
6.11587e-06
6.1148e-06
6.11386e-06
6.11304e-06
6.11232e-06
6.1117e-06
6.11117e-06
6.11073e-06
6.11035e-06
6.11004e-06
6.10978e-06
6.10955e-06
6.10934e-06
6.10912e-06
6.10889e-06
6.10862e-06
6.10832e-06
6.10797e-06
6.10756e-06
6.10708e-06
6.10654e-06
6.10591e-06
6.10521e-06
6.10443e-06
6.10357e-06
6.10264e-06
6.10166e-06
6.10063e-06
6.09958e-06
6.09852e-06
6.09747e-06
6.09646e-06
6.09548e-06
6.09453e-06
6.09356e-06
6.09252e-06
6.09132e-06
6.08984e-06
6.08801e-06
6.08576e-06
6.08314e-06
6.08028e-06
6.07742e-06
6.07487e-06
6.07295e-06
6.07208e-06
6.07265e-06
6.07459e-06
6.07755e-06
6.08143e-06
6.08607e-06
6.09112e-06
6.09626e-06
6.10125e-06
6.10582e-06
6.10887e-06
6.11029e-06
6.11142e-06
6.11333e-06
6.11773e-06
6.12606e-06
6.13658e-06
6.14235e-06
6.13696e-06
6.13108e-06
6.1538e-06
6.17274e-06
6.1156e-06
6.11421e-06
6.13833e-06
6.13793e-06
6.13125e-06
6.12528e-06
6.12369e-06
6.12254e-06
6.12116e-06
6.11984e-06
6.11854e-06
6.11735e-06
6.11628e-06
6.11531e-06
6.11443e-06
6.11366e-06
6.11297e-06
6.11237e-06
6.11185e-06
6.11141e-06
6.11103e-06
6.11071e-06
6.11045e-06
6.11023e-06
6.11004e-06
6.10985e-06
6.10967e-06
6.10946e-06
6.10923e-06
6.10895e-06
6.10864e-06
6.10827e-06
6.10784e-06
6.10734e-06
6.10676e-06
6.1061e-06
6.10537e-06
6.10456e-06
6.10368e-06
6.10273e-06
6.10174e-06
6.1007e-06
6.09965e-06
6.09861e-06
6.09758e-06
6.09659e-06
6.09563e-06
6.09469e-06
6.09372e-06
6.09264e-06
6.09137e-06
6.08979e-06
6.08783e-06
6.08546e-06
6.08274e-06
6.07982e-06
6.07696e-06
6.07448e-06
6.07272e-06
6.07209e-06
6.07296e-06
6.07512e-06
6.07829e-06
6.08237e-06
6.08716e-06
6.09231e-06
6.09749e-06
6.1025e-06
6.107e-06
6.10989e-06
6.11119e-06
6.11232e-06
6.11447e-06
6.11938e-06
6.12829e-06
6.13892e-06
6.14385e-06
6.13749e-06
6.13253e-06
6.15847e-06
6.17492e-06
6.11373e-06
6.13151e-06
6.12654e-06
6.12355e-06
6.1209e-06
6.11983e-06
6.11913e-06
6.11821e-06
6.1173e-06
6.11643e-06
6.11562e-06
6.11488e-06
6.11421e-06
6.1136e-06
6.11306e-06
6.11259e-06
6.11217e-06
6.11181e-06
6.1115e-06
6.11124e-06
6.11102e-06
6.11084e-06
6.11068e-06
6.11054e-06
6.1104e-06
6.11025e-06
6.11007e-06
6.10987e-06
6.10963e-06
6.10934e-06
6.109e-06
6.1086e-06
6.10813e-06
6.10759e-06
6.10697e-06
6.10628e-06
6.10551e-06
6.10467e-06
6.10376e-06
6.1028e-06
6.1018e-06
6.10077e-06
6.09973e-06
6.09871e-06
6.09772e-06
6.09676e-06
6.09583e-06
6.0949e-06
6.0939e-06
6.09276e-06
6.09138e-06
6.08966e-06
6.08753e-06
6.085e-06
6.08215e-06
6.07919e-06
6.07637e-06
6.07401e-06
6.07248e-06
6.07219e-06
6.07343e-06
6.07588e-06
6.07931e-06
6.08363e-06
6.08858e-06
6.09382e-06
6.09906e-06
6.10407e-06
6.10845e-06
6.11112e-06
6.11228e-06
6.11345e-06
6.11593e-06
6.1215e-06
6.13108e-06
6.14167e-06
6.1455e-06
6.13806e-06
6.13447e-06
6.16392e-06
6.17711e-06
6.11162e-06
6.11746e-06
6.11649e-06
6.11589e-06
6.11552e-06
6.11524e-06
6.1148e-06
6.11435e-06
6.11393e-06
6.11354e-06
6.11318e-06
6.11285e-06
6.11256e-06
6.1123e-06
6.11207e-06
6.11188e-06
6.11171e-06
6.11157e-06
6.11146e-06
6.11136e-06
6.11128e-06
6.1112e-06
6.11113e-06
6.11103e-06
6.11092e-06
6.11078e-06
6.1106e-06
6.11038e-06
6.11012e-06
6.1098e-06
6.10941e-06
6.10897e-06
6.10845e-06
6.10785e-06
6.10719e-06
6.10645e-06
6.10564e-06
6.10477e-06
6.10384e-06
6.10287e-06
6.10186e-06
6.10085e-06
6.09984e-06
6.09886e-06
6.09792e-06
6.097e-06
6.09608e-06
6.09514e-06
6.09408e-06
6.09283e-06
6.09129e-06
6.08936e-06
6.08703e-06
6.08431e-06
6.08134e-06
6.07836e-06
6.07562e-06
6.07347e-06
6.07228e-06
6.07246e-06
6.07413e-06
6.07693e-06
6.08068e-06
6.08526e-06
6.09039e-06
6.09573e-06
6.101e-06
6.10598e-06
6.11017e-06
6.11255e-06
6.11357e-06
6.11485e-06
6.1178e-06
6.1242e-06
6.13449e-06
6.14486e-06
6.14722e-06
6.13866e-06
6.13737e-06
6.17027e-06
6.17911e-06
6.10887e-06
6.11188e-06
6.11208e-06
6.1121e-06
6.11209e-06
6.11203e-06
6.11196e-06
6.1119e-06
6.11184e-06
6.1118e-06
6.11176e-06
6.11172e-06
6.1117e-06
6.11169e-06
6.11169e-06
6.11169e-06
6.1117e-06
6.11171e-06
6.11172e-06
6.11173e-06
6.11172e-06
6.1117e-06
6.11165e-06
6.11157e-06
6.11146e-06
6.11131e-06
6.11111e-06
6.11086e-06
6.11055e-06
6.11019e-06
6.10976e-06
6.10926e-06
6.10869e-06
6.10804e-06
6.10733e-06
6.10655e-06
6.10571e-06
6.10481e-06
6.10387e-06
6.1029e-06
6.10191e-06
6.10093e-06
6.09997e-06
6.09904e-06
6.09813e-06
6.09724e-06
6.09633e-06
6.09534e-06
6.09419e-06
6.09279e-06
6.09105e-06
6.0889e-06
6.08635e-06
6.08346e-06
6.08042e-06
6.07745e-06
6.07486e-06
6.07298e-06
6.0722e-06
6.07292e-06
6.07502e-06
6.07817e-06
6.08224e-06
6.08707e-06
6.09236e-06
6.09778e-06
6.10308e-06
6.10798e-06
6.11193e-06
6.11401e-06
6.11492e-06
6.11639e-06
6.11994e-06
6.12726e-06
6.13821e-06
6.14811e-06
6.14878e-06
6.13931e-06
6.14123e-06
6.17702e-06
6.18065e-06
6.10562e-06
6.10941e-06
6.10907e-06
6.1096e-06
6.10977e-06
6.11e-06
6.11022e-06
6.11042e-06
6.11061e-06
6.1108e-06
6.11098e-06
6.11115e-06
6.11131e-06
6.11147e-06
6.11162e-06
6.11176e-06
6.11188e-06
6.11199e-06
6.11209e-06
6.11216e-06
6.11221e-06
6.11224e-06
6.11222e-06
6.11218e-06
6.11209e-06
6.11195e-06
6.11177e-06
6.11154e-06
6.11124e-06
6.11089e-06
6.11047e-06
6.10999e-06
6.10944e-06
6.10882e-06
6.10813e-06
6.10738e-06
6.10657e-06
6.10571e-06
6.1048e-06
6.10386e-06
6.10291e-06
6.10196e-06
6.10102e-06
6.10011e-06
6.09923e-06
6.09836e-06
6.09748e-06
6.09654e-06
6.09547e-06
6.09419e-06
6.0926e-06
6.09063e-06
6.08824e-06
6.08548e-06
6.08246e-06
6.07938e-06
6.07649e-06
6.07411e-06
6.07258e-06
6.07233e-06
6.0736e-06
6.07611e-06
6.07962e-06
6.08401e-06
6.08908e-06
6.09451e-06
6.1e-06
6.1053e-06
6.11008e-06
6.11372e-06
6.1155e-06
6.11635e-06
6.11813e-06
6.12242e-06
6.13073e-06
6.14223e-06
6.15136e-06
6.15013e-06
6.1401e-06
6.14617e-06
6.18409e-06
6.18159e-06
6.10185e-06
6.10815e-06
6.10803e-06
6.10844e-06
6.10873e-06
6.10908e-06
6.10946e-06
6.10983e-06
6.11018e-06
6.11051e-06
6.11082e-06
6.11111e-06
6.11139e-06
6.11165e-06
6.11188e-06
6.11209e-06
6.11228e-06
6.11243e-06
6.11256e-06
6.11265e-06
6.11271e-06
6.11272e-06
6.1127e-06
6.11263e-06
6.11251e-06
6.11234e-06
6.11211e-06
6.11183e-06
6.11149e-06
6.11108e-06
6.11062e-06
6.11008e-06
6.10948e-06
6.10882e-06
6.1081e-06
6.10733e-06
6.1065e-06
6.10563e-06
6.10474e-06
6.10382e-06
6.10291e-06
6.10201e-06
6.10113e-06
6.10027e-06
6.09943e-06
6.09859e-06
6.09769e-06
6.09668e-06
6.09549e-06
6.09402e-06
6.0922e-06
6.08998e-06
6.08735e-06
6.08441e-06
6.0813e-06
6.07824e-06
6.07551e-06
6.07342e-06
6.07235e-06
6.07271e-06
6.07451e-06
6.07743e-06
6.08131e-06
6.08601e-06
6.09129e-06
6.09684e-06
6.10237e-06
6.10764e-06
6.11224e-06
6.11553e-06
6.11701e-06
6.11789e-06
6.12011e-06
6.12528e-06
6.13463e-06
6.14652e-06
6.15456e-06
6.15124e-06
6.14116e-06
6.15228e-06
6.19139e-06
6.18176e-06
6.09759e-06
6.10781e-06
6.10763e-06
6.10819e-06
6.10856e-06
6.10898e-06
6.10942e-06
6.10988e-06
6.11031e-06
6.11071e-06
6.11108e-06
6.11143e-06
6.11175e-06
6.11205e-06
6.11231e-06
6.11254e-06
6.11273e-06
6.11289e-06
6.11301e-06
6.11309e-06
6.11313e-06
6.11312e-06
6.11306e-06
6.11295e-06
6.11279e-06
6.11258e-06
6.1123e-06
6.11197e-06
6.11158e-06
6.11113e-06
6.11062e-06
6.11004e-06
6.10941e-06
6.10872e-06
6.10798e-06
6.1072e-06
6.10637e-06
6.10552e-06
6.10465e-06
6.10378e-06
6.10293e-06
6.10209e-06
6.10127e-06
6.10046e-06
6.09965e-06
6.09879e-06
6.09783e-06
6.09671e-06
6.09534e-06
6.09364e-06
6.09156e-06
6.08907e-06
6.08623e-06
6.08315e-06
6.08001e-06
6.07705e-06
6.07455e-06
6.07285e-06
6.07236e-06
6.07337e-06
6.07568e-06
6.07902e-06
6.08326e-06
6.08825e-06
6.09372e-06
6.09937e-06
6.10492e-06
6.11012e-06
6.11447e-06
6.11736e-06
6.11857e-06
6.1196e-06
6.12241e-06
6.12862e-06
6.13902e-06
6.15105e-06
6.1576e-06
6.1521e-06
6.14263e-06
6.15966e-06
6.19878e-06
6.18097e-06
6.09258e-06
6.10801e-06
6.10778e-06
6.10843e-06
6.10883e-06
6.10927e-06
6.10974e-06
6.11023e-06
6.11068e-06
6.1111e-06
6.11149e-06
6.11185e-06
6.11217e-06
6.11246e-06
6.11271e-06
6.11293e-06
6.1131e-06
6.11324e-06
6.11333e-06
6.11337e-06
6.11337e-06
6.11333e-06
6.11323e-06
6.11307e-06
6.11287e-06
6.11261e-06
6.11229e-06
6.11192e-06
6.11148e-06
6.11099e-06
6.11045e-06
6.10985e-06
6.1092e-06
6.1085e-06
6.10775e-06
6.10698e-06
6.10618e-06
6.10537e-06
6.10456e-06
6.10375e-06
6.10297e-06
6.10219e-06
6.10143e-06
6.10065e-06
6.09983e-06
6.09892e-06
6.09785e-06
6.09655e-06
6.09495e-06
6.09299e-06
6.09063e-06
6.08789e-06
6.08486e-06
6.0817e-06
6.0786e-06
6.07583e-06
6.07366e-06
6.07249e-06
6.07269e-06
6.07432e-06
6.07711e-06
6.08086e-06
6.08547e-06
6.09073e-06
6.09636e-06
6.10207e-06
6.10762e-06
6.11269e-06
6.11672e-06
6.11917e-06
6.12017e-06
6.12148e-06
6.12507e-06
6.13246e-06
6.14387e-06
6.15575e-06
6.1604e-06
6.15267e-06
6.1446e-06
6.16827e-06
6.20604e-06
6.17899e-06
6.08785e-06
6.10838e-06
6.10815e-06
6.10881e-06
6.10923e-06
6.10969e-06
6.11017e-06
6.11066e-06
6.11111e-06
6.11152e-06
6.11189e-06
6.11223e-06
6.11253e-06
6.11279e-06
6.11301e-06
6.1132e-06
6.11334e-06
6.11343e-06
6.11349e-06
6.11349e-06
6.11345e-06
6.11336e-06
6.11322e-06
6.11302e-06
6.11278e-06
6.11248e-06
6.11213e-06
6.11172e-06
6.11126e-06
6.11075e-06
6.11019e-06
6.10958e-06
6.10893e-06
6.10824e-06
6.10752e-06
6.10678e-06
6.10603e-06
6.10528e-06
6.10454e-06
6.1038e-06
6.10308e-06
6.10235e-06
6.1016e-06
6.10081e-06
6.09992e-06
6.09888e-06
6.09763e-06
6.09609e-06
6.09422e-06
6.09196e-06
6.08932e-06
6.08638e-06
6.08325e-06
6.08011e-06
6.07717e-06
6.07469e-06
6.07301e-06
6.07249e-06
6.07346e-06
6.0757e-06
6.07897e-06
6.08315e-06
6.0881e-06
6.0936e-06
6.09935e-06
6.10509e-06
6.11058e-06
6.11543e-06
6.11904e-06
6.12107e-06
6.12202e-06
6.12385e-06
6.12848e-06
6.13718e-06
6.14942e-06
6.1606e-06
6.16282e-06
6.1531e-06
6.14763e-06
6.17859e-06
6.21293e-06
6.17618e-06
6.08494e-06
6.10884e-06
6.10863e-06
6.10923e-06
6.1096e-06
6.11001e-06
6.11043e-06
6.11087e-06
6.11131e-06
6.1117e-06
6.11205e-06
6.11236e-06
6.11263e-06
6.11287e-06
6.11305e-06
6.1132e-06
6.1133e-06
6.11336e-06
6.11338e-06
6.11334e-06
6.11326e-06
6.11313e-06
6.11296e-06
6.11273e-06
6.11245e-06
6.11212e-06
6.11174e-06
6.11131e-06
6.11083e-06
6.1103e-06
6.10973e-06
6.10913e-06
6.1085e-06
6.10784e-06
6.10716e-06
6.10648e-06
6.10581e-06
6.10513e-06
6.10447e-06
6.10381e-06
6.10315e-06
6.10247e-06
6.10173e-06
6.10091e-06
6.09994e-06
6.09877e-06
6.09732e-06
6.09553e-06
6.09337e-06
6.09083e-06
6.08795e-06
6.08484e-06
6.08163e-06
6.07852e-06
6.07574e-06
6.0736e-06
6.07247e-06
6.07269e-06
6.07429e-06
6.07701e-06
6.0807e-06
6.08524e-06
6.09048e-06
6.09616e-06
6.10201e-06
6.10778e-06
6.11321e-06
6.11783e-06
6.12103e-06
6.12263e-06
6.12352e-06
6.12585e-06
6.13147e-06
6.14143e-06
6.15444e-06
6.16492e-06
6.16476e-06
6.15301e-06
6.15024e-06
6.18819e-06
6.21896e-06
6.17184e-06
6.0817e-06
6.10875e-06
6.10858e-06
6.10911e-06
6.10947e-06
6.10987e-06
6.11031e-06
6.11075e-06
6.11114e-06
6.11149e-06
6.1118e-06
6.11207e-06
6.1123e-06
6.11249e-06
6.11264e-06
6.11274e-06
6.11281e-06
6.11283e-06
6.1128e-06
6.11273e-06
6.11262e-06
6.11247e-06
6.11226e-06
6.11202e-06
6.11173e-06
6.1114e-06
6.11103e-06
6.11062e-06
6.11018e-06
6.1097e-06
6.1092e-06
6.10868e-06
6.10814e-06
6.10759e-06
6.10703e-06
6.10646e-06
6.10589e-06
6.1053e-06
6.1047e-06
6.10406e-06
6.10336e-06
6.10257e-06
6.10165e-06
6.10055e-06
6.09923e-06
6.09762e-06
6.09569e-06
6.09342e-06
6.09081e-06
6.08793e-06
6.08486e-06
6.08174e-06
6.07876e-06
6.07611e-06
6.07407e-06
6.07293e-06
6.07299e-06
6.0744e-06
6.077e-06
6.08056e-06
6.08497e-06
6.09009e-06
6.09573e-06
6.10162e-06
6.10753e-06
6.11319e-06
6.11824e-06
6.12215e-06
6.12453e-06
6.12581e-06
6.12746e-06
6.13156e-06
6.13953e-06
6.15148e-06
6.16444e-06
6.17156e-06
6.16634e-06
6.15424e-06
6.16268e-06
6.20819e-06
6.22575e-06
6.16628e-06
6.0839e-06
)
;

boundaryField
{
    inlet
    {
        type            freestream;
        freestreamValue uniform 1e-05;
        value           uniform 1e-05;
    }
    outlet
    {
        type            freestream;
        freestreamValue uniform 1e-05;
        value           nonuniform List<scalar> 
82
(
6.10875e-06
6.10911e-06
6.10858e-06
6.10947e-06
6.10987e-06
6.11031e-06
6.11075e-06
6.11114e-06
6.11149e-06
6.1118e-06
6.11207e-06
6.1123e-06
6.11249e-06
6.11264e-06
6.11274e-06
6.11281e-06
6.11283e-06
6.1128e-06
6.11273e-06
6.11262e-06
6.11247e-06
6.11226e-06
6.11202e-06
6.11173e-06
6.1114e-06
6.11103e-06
6.11062e-06
6.11018e-06
6.1097e-06
6.1092e-06
6.10868e-06
6.10814e-06
6.10759e-06
6.10703e-06
6.10646e-06
6.10589e-06
6.1053e-06
6.1047e-06
6.10406e-06
6.10336e-06
6.10257e-06
6.10165e-06
6.10055e-06
6.09923e-06
6.09762e-06
6.09569e-06
6.09342e-06
6.09081e-06
6.08793e-06
6.08486e-06
6.08174e-06
6.07876e-06
6.07611e-06
6.07407e-06
6.07293e-06
6.07299e-06
6.0744e-06
6.077e-06
6.08056e-06
6.08497e-06
6.09009e-06
6.09573e-06
6.10162e-06
6.10753e-06
6.11319e-06
6.11824e-06
6.12215e-06
6.12453e-06
6.12581e-06
6.12746e-06
6.13156e-06
6.13953e-06
6.15148e-06
6.16444e-06
6.17156e-06
6.16634e-06
6.15424e-06
6.16268e-06
6.20819e-06
6.22575e-06
6.16628e-06
6.0839e-06
)
;
    }
    walls
    {
        type            nutUSpaldingWallFunction;
        value           nonuniform List<scalar> 0();
    }
    frontAndBack
    {
        type            empty;
    }
    procBoundary3to2
    {
        type            processor;
        value           nonuniform List<scalar> 
88
(
6.14602e-06
6.12002e-06
6.12239e-06
6.12226e-06
6.12226e-06
6.12817e-06
6.13028e-06
6.13028e-06
6.10828e-06
6.11265e-06
6.12053e-06
6.12053e-06
6.09803e-06
6.10177e-06
6.10407e-06
6.10559e-06
6.1069e-06
6.1069e-06
6.07683e-06
6.08044e-06
6.08476e-06
6.08946e-06
6.09421e-06
6.09421e-06
6.0795e-06
6.07685e-06
6.07447e-06
6.07272e-06
6.07196e-06
6.07258e-06
6.07447e-06
6.07447e-06
6.09688e-06
6.0958e-06
6.09475e-06
6.09373e-06
6.09275e-06
6.09177e-06
6.09075e-06
6.08959e-06
6.08821e-06
6.08649e-06
6.08439e-06
6.08192e-06
6.08192e-06
3.70217e-06
8.00239e-06
7.17876e-06
6.046e-06
5.99938e-06
6.1108e-06
6.1392e-06
6.14646e-06
6.13907e-06
6.13268e-06
6.12972e-06
6.12673e-06
6.12375e-06
6.12126e-06
6.11906e-06
6.11708e-06
6.11535e-06
6.11386e-06
6.11258e-06
6.1115e-06
6.11058e-06
6.10981e-06
6.10917e-06
6.10863e-06
6.10819e-06
6.10783e-06
6.10752e-06
6.10723e-06
6.10694e-06
6.10662e-06
6.10627e-06
6.10587e-06
6.10542e-06
6.10491e-06
6.10432e-06
6.10364e-06
6.10289e-06
6.10206e-06
6.10115e-06
6.10018e-06
6.09915e-06
6.09808e-06
6.09808e-06
)
;
    }
    procBoundary3to6
    {
        type            processor;
        value           uniform 7.07844e-11;
    }
    procBoundary3to7
    {
        type            processor;
        value           nonuniform List<scalar> 
16
(
1.99341e-08
6.58357e-06
8.01631e-06
6.23444e-06
6.01101e-06
6.12069e-06
6.12314e-06
6.1119e-06
6.1119e-06
6.1091e-06
6.10762e-06
6.10732e-06
6.10744e-06
6.10779e-06
6.1083e-06
6.1083e-06
)
;
    }
}


// ************************************************************************* //
