/*--------------------------------*- C++ -*----------------------------------*\
| =========                 |                                                 |
| \\      /  F ield         | OpenFOAM: The Open Source CFD Toolbox           |
|  \\    /   O peration     | Version:  2506                                  |
|   \\  /    A nd           | Website:  www.openfoam.com                      |
|    \\/     M anipulation  |                                                 |
\*---------------------------------------------------------------------------*/
FoamFile
{
    version     2.0;
    format      ascii;
    arch        "LSB;label=32;scalar=64";
    class       volScalarField;
    location    "250";
    object      turbulenceProperties:k;
}
// * * * * * * * * * * * * * * * * * * * * * * * * * * * * * * * * * * * * * //

dimensions      [0 2 -2 0 0 0 0];

internalField   nonuniform List<scalar> 
1340
(
7.04746e-07
1.38639e-06
1.57249e-07
6.4498e-07
7.02588e-07
1.38845e-06
1.73683e-07
2.79075e-07
1.54136e-07
6.47414e-07
7.02855e-07
1.38914e-06
3.21053e-07
2.82657e-07
2.65175e-07
1.82154e-07
2.85531e-07
1.52308e-07
6.50038e-07
7.04804e-07
1.38909e-06
4.59027e-07
4.25423e-07
3.9793e-07
3.72345e-07
3.45683e-07
3.2056e-07
2.84046e-07
2.68247e-07
1.91236e-07
2.91744e-07
1.51599e-07
6.52761e-07
7.07875e-07
1.38873e-06
6.44191e-07
6.03927e-07
5.63734e-07
5.24565e-07
4.86159e-07
4.50045e-07
4.18712e-07
3.93109e-07
3.69116e-07
3.43987e-07
3.20215e-07
2.85757e-07
2.71689e-07
2.00803e-07
2.97574e-07
1.51901e-07
6.55348e-07
7.1161e-07
1.38815e-06
8.76952e-07
8.39319e-07
8.01848e-07
7.64792e-07
7.28233e-07
6.92047e-07
6.55875e-07
6.19412e-07
5.82618e-07
5.45816e-07
5.09887e-07
4.74447e-07
4.40981e-07
4.11981e-07
3.88284e-07
3.65904e-07
3.42368e-07
3.19983e-07
2.87758e-07
2.75448e-07
2.10751e-07
3.02917e-07
1.53128e-07
6.57749e-07
7.15648e-07
1.38709e-06
1.18342e-06
1.15612e-06
1.12812e-06
1.09947e-06
1.0703e-06
1.04065e-06
1.01061e-06
9.8024e-07
9.49562e-07
9.18508e-07
8.87022e-07
8.5506e-07
8.22683e-07
7.89972e-07
7.57185e-07
7.24553e-07
6.92143e-07
6.59851e-07
6.27366e-07
5.94465e-07
5.61166e-07
5.27778e-07
4.95109e-07
4.62663e-07
4.3191e-07
4.05279e-07
3.83482e-07
3.6272e-07
3.40817e-07
3.19843e-07
2.90027e-07
2.79486e-07
2.20998e-07
3.07669e-07
1.55218e-07
6.59876e-07
7.19462e-07
1.38589e-06
1.252e-06
1.30216e-06
1.15026e-06
1.16844e-06
1.16372e-06
1.20906e-06
1.23207e-06
1.25432e-06
1.27334e-06
1.29118e-06
1.3075e-06
1.32216e-06
1.33469e-06
1.34517e-06
1.35407e-06
1.36076e-06
1.36553e-06
1.36845e-06
1.36958e-06
1.36908e-06
1.36697e-06
1.36338e-06
1.35851e-06
1.35243e-06
1.3452e-06
1.33692e-06
1.32771e-06
1.3177e-06
1.30685e-06
1.29534e-06
1.28313e-06
1.27027e-06
1.2568e-06
1.24269e-06
1.228e-06
1.21271e-06
1.19677e-06
1.18026e-06
1.16303e-06
1.14512e-06
1.12654e-06
1.10714e-06
1.087e-06
1.06623e-06
1.04473e-06
1.02238e-06
9.9936e-07
9.75749e-07
9.51569e-07
9.26919e-07
9.0187e-07
8.76405e-07
8.50477e-07
8.24041e-07
7.96997e-07
7.69399e-07
7.41358e-07
7.13049e-07
6.84659e-07
6.56256e-07
6.27758e-07
5.98912e-07
5.69561e-07
5.3974e-07
5.09755e-07
4.80326e-07
4.50873e-07
4.22861e-07
3.98612e-07
3.78692e-07
3.59551e-07
3.39309e-07
3.1978e-07
2.92548e-07
2.83783e-07
2.31482e-07
3.11774e-07
1.58084e-07
6.61497e-07
7.22847e-07
1.38473e-06
1.28267e-06
1.0411e-06
9.56505e-07
1.02773e-06
1.04175e-06
1.06822e-06
1.08279e-06
1.09934e-06
1.11388e-06
1.12763e-06
1.14001e-06
1.15097e-06
1.16041e-06
1.16835e-06
1.17495e-06
1.17986e-06
1.18334e-06
1.18551e-06
1.18627e-06
1.18577e-06
1.18415e-06
1.18143e-06
1.17773e-06
1.17313e-06
1.16767e-06
1.16144e-06
1.1546e-06
1.1471e-06
1.13904e-06
1.1305e-06
1.12143e-06
1.11192e-06
1.10193e-06
1.0915e-06
1.08063e-06
1.06926e-06
1.05744e-06
1.04511e-06
1.03221e-06
1.01873e-06
1.00464e-06
9.89908e-07
9.74422e-07
9.58228e-07
9.41417e-07
9.23842e-07
9.05617e-07
8.86773e-07
8.67359e-07
8.47467e-07
8.27142e-07
8.06363e-07
7.85092e-07
7.63276e-07
7.40797e-07
7.17685e-07
6.93995e-07
6.69882e-07
6.455e-07
6.2091e-07
5.9606e-07
5.70754e-07
5.44876e-07
5.18479e-07
4.91851e-07
4.65624e-07
4.39133e-07
4.13874e-07
3.91997e-07
3.73912e-07
3.5639e-07
3.37829e-07
3.19788e-07
2.95306e-07
2.88319e-07
2.42112e-07
3.15193e-07
1.61528e-07
6.62904e-07
7.25405e-07
1.38413e-06
9.90897e-07
8.95494e-07
8.64212e-07
9.26955e-07
9.30875e-07
9.47115e-07
9.57744e-07
9.69633e-07
9.80225e-07
9.90053e-07
9.98641e-07
1.00644e-06
1.01302e-06
1.01848e-06
1.02285e-06
1.0261e-06
1.02824e-06
1.0295e-06
1.02973e-06
1.02897e-06
1.02749e-06
1.02523e-06
1.02225e-06
1.01852e-06
1.0143e-06
1.00956e-06
1.00432e-06
9.98672e-07
9.92659e-07
9.86293e-07
9.79591e-07
9.72593e-07
9.65254e-07
9.57619e-07
9.49688e-07
9.41409e-07
9.32773e-07
9.23744e-07
9.14281e-07
9.04311e-07
8.93851e-07
8.82866e-07
8.71198e-07
8.58935e-07
8.46038e-07
8.32446e-07
8.18273e-07
8.035e-07
7.8821e-07
7.7247e-07
7.56303e-07
7.39705e-07
7.22634e-07
7.05e-07
6.86678e-07
6.67678e-07
6.48015e-07
6.27792e-07
6.07162e-07
5.8619e-07
5.64834e-07
5.42949e-07
5.2045e-07
4.97421e-07
4.74092e-07
4.50992e-07
4.27439e-07
4.0494e-07
3.85401e-07
3.69098e-07
3.53207e-07
3.36345e-07
3.19849e-07
2.98295e-07
2.93093e-07
2.52808e-07
3.17948e-07
1.65533e-07
6.63202e-07
7.27721e-07
1.38451e-06
8.60572e-07
8.16392e-07
7.90617e-07
8.33322e-07
8.32579e-07
8.43852e-07
8.51002e-07
8.58919e-07
8.65836e-07
8.72241e-07
8.77812e-07
8.82769e-07
8.86895e-07
8.90214e-07
8.92775e-07
8.94595e-07
8.95599e-07
8.96017e-07
8.95724e-07
8.94761e-07
8.93306e-07
8.91306e-07
8.8877e-07
8.85771e-07
8.8251e-07
8.78794e-07
8.74808e-07
8.7062e-07
8.66132e-07
8.61453e-07
8.56548e-07
8.51495e-07
8.46187e-07
8.40733e-07
8.35069e-07
8.29162e-07
8.23014e-07
8.16568e-07
8.09761e-07
8.02585e-07
7.95002e-07
7.86967e-07
7.78383e-07
7.69245e-07
7.59518e-07
7.49226e-07
7.38394e-07
7.27036e-07
7.15244e-07
7.03051e-07
6.90492e-07
6.77546e-07
6.6418e-07
6.50233e-07
6.3563e-07
6.20328e-07
6.0426e-07
5.87589e-07
5.70413e-07
5.52772e-07
5.34696e-07
5.16065e-07
4.96785e-07
4.7698e-07
4.56819e-07
4.36724e-07
4.16023e-07
3.96217e-07
3.78947e-07
3.64356e-07
3.5007e-07
3.34897e-07
3.20012e-07
3.01515e-07
2.98103e-07
2.63329e-07
3.20127e-07
1.69304e-07
6.62847e-07
7.28669e-07
1.38785e-06
7.77546e-07
7.38244e-07
7.11942e-07
7.42175e-07
7.39856e-07
7.47076e-07
7.51001e-07
7.5558e-07
7.59354e-07
7.63035e-07
7.66127e-07
7.68768e-07
7.70986e-07
7.72565e-07
7.7373e-07
7.74484e-07
7.7464e-07
7.74371e-07
7.73735e-07
7.72647e-07
7.71233e-07
7.69442e-07
7.67331e-07
7.65013e-07
7.6245e-07
7.59656e-07
7.56826e-07
7.53795e-07
7.50574e-07
7.47254e-07
7.43963e-07
7.40486e-07
7.36956e-07
7.33235e-07
7.29457e-07
7.25711e-07
7.21538e-07
7.17237e-07
7.12722e-07
7.07938e-07
7.02747e-07
6.97272e-07
6.91298e-07
6.84774e-07
6.77885e-07
6.70406e-07
6.62496e-07
6.54192e-07
6.45456e-07
6.3647e-07
6.27149e-07
6.17493e-07
6.07517e-07
5.96955e-07
5.85734e-07
5.73864e-07
5.61159e-07
5.47773e-07
5.33892e-07
5.19425e-07
5.045e-07
4.89069e-07
4.7296e-07
4.56332e-07
4.39315e-07
4.22229e-07
4.04372e-07
3.87288e-07
3.72288e-07
3.59425e-07
3.4677e-07
3.3335e-07
3.20244e-07
3.05001e-07
3.03502e-07
2.73989e-07
3.21697e-07
1.76385e-07
6.58701e-07
7.32449e-07
1.39157e-06
6.81538e-07
6.4786e-07
6.23088e-07
6.43939e-07
6.39439e-07
6.42839e-07
6.43469e-07
6.44389e-07
6.45918e-07
6.46605e-07
6.47224e-07
6.48235e-07
6.48437e-07
6.48354e-07
6.48509e-07
6.48434e-07
6.47473e-07
6.46961e-07
6.46022e-07
6.44834e-07
6.43653e-07
6.41968e-07
6.40522e-07
6.38972e-07
6.37094e-07
6.35355e-07
6.3362e-07
6.31794e-07
6.29967e-07
6.27954e-07
6.26284e-07
6.24536e-07
6.22665e-07
6.20627e-07
6.18966e-07
6.17154e-07
6.14987e-07
6.12786e-07
6.10548e-07
6.08102e-07
6.05245e-07
6.02346e-07
5.98755e-07
5.94919e-07
5.90852e-07
5.86072e-07
5.81139e-07
5.75938e-07
5.70248e-07
5.64565e-07
5.58579e-07
5.52271e-07
5.45855e-07
5.38786e-07
5.31063e-07
5.22749e-07
5.13627e-07
5.03688e-07
4.933e-07
4.82325e-07
4.70861e-07
4.58945e-07
4.46364e-07
4.33298e-07
4.1978e-07
4.06012e-07
3.91346e-07
3.77339e-07
3.64827e-07
3.5385e-07
3.43054e-07
3.31672e-07
3.20682e-07
3.09362e-07
3.0959e-07
2.86527e-07
3.20394e-07
1.90181e-07
6.4621e-07
7.25747e-07
1.34497e-06
5.79689e-07
5.56468e-07
5.35864e-07
5.46919e-07
5.40772e-07
5.4058e-07
5.38051e-07
5.36408e-07
5.35455e-07
5.33718e-07
5.32538e-07
5.31777e-07
5.30326e-07
5.29003e-07
5.28306e-07
5.27254e-07
5.25641e-07
5.24917e-07
5.23501e-07
5.22462e-07
5.2149e-07
5.19869e-07
5.19004e-07
5.18192e-07
5.16866e-07
5.1603e-07
5.15085e-07
5.14285e-07
5.13707e-07
5.12911e-07
5.12373e-07
5.12085e-07
5.11549e-07
5.11065e-07
5.11064e-07
5.10661e-07
5.10265e-07
5.09882e-07
5.09497e-07
5.08881e-07
5.08135e-07
5.07171e-07
5.05745e-07
5.04362e-07
5.02475e-07
5.00288e-07
4.98076e-07
4.95608e-07
4.92902e-07
4.90255e-07
4.87507e-07
4.84473e-07
4.81393e-07
4.77745e-07
4.73495e-07
4.68627e-07
4.63005e-07
4.56624e-07
4.49802e-07
4.42465e-07
4.34688e-07
4.26479e-07
4.17696e-07
4.08426e-07
3.98608e-07
3.8839e-07
3.77206e-07
3.6649e-07
3.56614e-07
3.47682e-07
3.38957e-07
3.29904e-07
3.21521e-07
3.1464e-07
3.16767e-07
2.99911e-07
3.1813e-07
2.05272e-07
6.45619e-07
7.19912e-07
1.34324e-06
4.92101e-07
4.75693e-07
4.57518e-07
4.62515e-07
4.55679e-07
4.5251e-07
4.48581e-07
4.45825e-07
4.42304e-07
4.39702e-07
4.37625e-07
4.35178e-07
4.3294e-07
4.31071e-07
4.29669e-07
4.27708e-07
4.26296e-07
4.2508e-07
4.23455e-07
4.22648e-07
4.21754e-07
4.20436e-07
4.19872e-07
4.19341e-07
4.18489e-07
4.18405e-07
4.17987e-07
4.1776e-07
4.17967e-07
4.18047e-07
4.18214e-07
4.18845e-07
4.19203e-07
4.19748e-07
4.2067e-07
4.21262e-07
4.21999e-07
4.22847e-07
4.23606e-07
4.24204e-07
4.24844e-07
4.25157e-07
4.25399e-07
4.25582e-07
4.25323e-07
4.25139e-07
4.24929e-07
4.24568e-07
4.2424e-07
4.23958e-07
4.23786e-07
4.23418e-07
4.22915e-07
4.22101e-07
4.20639e-07
4.18624e-07
4.15964e-07
4.12632e-07
4.08972e-07
4.04874e-07
4.00411e-07
3.95621e-07
3.90324e-07
3.84506e-07
3.78145e-07
3.71254e-07
3.63382e-07
3.55797e-07
3.48429e-07
3.41524e-07
3.34941e-07
3.2833e-07
3.22889e-07
3.20484e-07
3.24741e-07
3.1267e-07
3.1721e-07
2.20318e-07
6.51574e-07
7.01393e-07
1.34286e-06
4.20568e-07
3.83689e-07
4.04402e-07
3.87501e-07
3.90146e-07
3.8239e-07
3.77817e-07
3.73577e-07
3.69633e-07
3.65491e-07
3.6218e-07
3.59422e-07
3.56546e-07
3.53831e-07
3.51733e-07
3.49986e-07
3.47751e-07
3.46458e-07
3.45103e-07
3.43733e-07
3.43041e-07
3.42095e-07
3.41472e-07
3.4103e-07
3.40762e-07
3.40609e-07
3.40799e-07
3.40989e-07
3.41257e-07
3.42031e-07
3.42732e-07
3.43467e-07
3.4475e-07
3.45723e-07
3.46997e-07
3.48574e-07
3.49827e-07
3.51396e-07
3.53032e-07
3.54512e-07
3.56042e-07
3.57506e-07
3.5884e-07
3.60188e-07
3.61374e-07
3.62526e-07
3.63709e-07
3.6494e-07
3.66243e-07
3.67655e-07
3.69163e-07
3.70853e-07
3.72438e-07
3.73855e-07
3.7508e-07
3.75675e-07
3.7582e-07
3.75458e-07
3.7453e-07
3.73399e-07
3.71973e-07
3.70254e-07
3.68309e-07
3.65918e-07
3.63024e-07
3.59617e-07
3.55614e-07
3.50664e-07
3.45838e-07
3.40711e-07
3.35713e-07
3.3125e-07
3.27122e-07
3.24837e-07
3.26773e-07
3.33086e-07
3.24292e-07
3.17351e-07
2.38743e-07
6.60884e-07
6.77607e-07
1.34208e-06
3.53188e-07
3.20193e-07
3.40345e-07
3.25132e-07
3.26304e-07
3.18569e-07
3.14024e-07
3.09103e-07
3.05008e-07
3.0111e-07
2.97286e-07
2.94325e-07
2.91456e-07
2.88942e-07
2.86712e-07
2.84721e-07
2.82877e-07
2.81614e-07
2.8047e-07
2.79349e-07
2.7863e-07
2.77997e-07
2.77942e-07
2.7763e-07
2.77757e-07
2.78028e-07
2.78445e-07
2.79277e-07
2.79922e-07
2.8106e-07
2.82185e-07
2.8352e-07
2.85132e-07
2.86609e-07
2.88413e-07
2.90409e-07
2.923e-07
2.94308e-07
2.96528e-07
2.9861e-07
3.00753e-07
3.02925e-07
3.0498e-07
3.07158e-07
3.09288e-07
3.11502e-07
3.1378e-07
3.1616e-07
3.18787e-07
3.21561e-07
3.24411e-07
3.27478e-07
3.30504e-07
3.33324e-07
3.36042e-07
3.38196e-07
3.39974e-07
3.4141e-07
3.42437e-07
3.43355e-07
3.44094e-07
3.44643e-07
3.4501e-07
3.4503e-07
3.44576e-07
3.43635e-07
3.42113e-07
3.39708e-07
3.37276e-07
3.34146e-07
3.30952e-07
3.28531e-07
3.26881e-07
3.27847e-07
3.33849e-07
3.41893e-07
3.35097e-07
3.19353e-07
2.63571e-07
6.73663e-07
6.4978e-07
1.34227e-06
2.94579e-07
2.66365e-07
2.83368e-07
2.69857e-07
2.69781e-07
2.62747e-07
2.58265e-07
2.5357e-07
2.4985e-07
2.45817e-07
2.42502e-07
2.39846e-07
2.37093e-07
2.34921e-07
2.33006e-07
2.31147e-07
2.2988e-07
2.28806e-07
2.2798e-07
2.27143e-07
2.26778e-07
2.26722e-07
2.26676e-07
2.26892e-07
2.27458e-07
2.27895e-07
2.28856e-07
2.30012e-07
2.30928e-07
2.32438e-07
2.33872e-07
2.35608e-07
2.37463e-07
2.39228e-07
2.41392e-07
2.43736e-07
2.4584e-07
2.48221e-07
2.50778e-07
2.53179e-07
2.55693e-07
2.58402e-07
2.60916e-07
2.63625e-07
2.66533e-07
2.69389e-07
2.72497e-07
2.75717e-07
2.79243e-07
2.82905e-07
2.86662e-07
2.90684e-07
2.94602e-07
2.9839e-07
3.02136e-07
3.05425e-07
3.08451e-07
3.11303e-07
3.13913e-07
3.16496e-07
3.18971e-07
3.21379e-07
3.23666e-07
3.25637e-07
3.2723e-07
3.28371e-07
3.28961e-07
3.28753e-07
3.28344e-07
3.26979e-07
3.25545e-07
3.25194e-07
3.26092e-07
3.30399e-07
3.4003e-07
3.49011e-07
3.42679e-07
3.21127e-07
2.92274e-07
6.89587e-07
6.15524e-07
1.34612e-06
2.45987e-07
2.22551e-07
2.37538e-07
2.25783e-07
2.25384e-07
2.19253e-07
2.14903e-07
2.1117e-07
2.07777e-07
2.04275e-07
2.01664e-07
1.99393e-07
1.97173e-07
1.95315e-07
1.93947e-07
1.92548e-07
1.91727e-07
1.91042e-07
1.90348e-07
1.8998e-07
1.90037e-07
1.90238e-07
1.90299e-07
1.90743e-07
1.91731e-07
1.92285e-07
1.93375e-07
1.94679e-07
1.95868e-07
1.97411e-07
1.99071e-07
2.00899e-07
2.02871e-07
2.04851e-07
2.07174e-07
2.09596e-07
2.11897e-07
2.14562e-07
2.17278e-07
2.20054e-07
2.22839e-07
2.25989e-07
2.29015e-07
2.32261e-07
2.3576e-07
2.39177e-07
2.43021e-07
2.46874e-07
2.50998e-07
2.55281e-07
2.59669e-07
2.64241e-07
2.6873e-07
2.73245e-07
2.7766e-07
2.81827e-07
2.8588e-07
2.8984e-07
2.93692e-07
2.97583e-07
3.01398e-07
3.05226e-07
3.08981e-07
3.12445e-07
3.15684e-07
3.18513e-07
3.20828e-07
3.22482e-07
3.23863e-07
3.24149e-07
3.24279e-07
3.25644e-07
3.28651e-07
3.35764e-07
3.48084e-07
3.57323e-07
3.51511e-07
3.30255e-07
3.34671e-07
7.14218e-07
5.83641e-07
1.36425e-06
2.03191e-07
1.82413e-07
1.95016e-07
1.84039e-07
1.84277e-07
1.78641e-07
1.75138e-07
1.72003e-07
1.68787e-07
1.66086e-07
1.64309e-07
1.62634e-07
1.61083e-07
1.59726e-07
1.58922e-07
1.58414e-07
1.58092e-07
1.57798e-07
1.57564e-07
1.58124e-07
1.58461e-07
1.58978e-07
1.59607e-07
1.60328e-07
1.61685e-07
1.62647e-07
1.63883e-07
1.65313e-07
1.66882e-07
1.68552e-07
1.70224e-07
1.72281e-07
1.74172e-07
1.76285e-07
1.78636e-07
1.80919e-07
1.83319e-07
1.85815e-07
1.88624e-07
1.91384e-07
1.94141e-07
1.97327e-07
2.00464e-07
2.03768e-07
2.0725e-07
2.10881e-07
2.1471e-07
2.1862e-07
2.22732e-07
2.26965e-07
2.31381e-07
2.35848e-07
2.40416e-07
2.45056e-07
2.49639e-07
2.54193e-07
2.58782e-07
2.63382e-07
2.67968e-07
2.72692e-07
2.77398e-07
2.82201e-07
2.86975e-07
2.91557e-07
2.96014e-07
3.00086e-07
3.03704e-07
3.06712e-07
3.09122e-07
3.10411e-07
3.12124e-07
3.15584e-07
3.21381e-07
3.31965e-07
3.46502e-07
3.53741e-07
3.4483e-07
3.25111e-07
3.62369e-07
7.29489e-07
5.29352e-07
1.396e-06
1.78512e-07
1.62249e-07
1.72222e-07
1.64019e-07
1.63432e-07
1.59481e-07
1.57307e-07
1.55432e-07
1.53255e-07
1.51746e-07
1.51095e-07
1.50467e-07
1.49872e-07
1.49266e-07
1.49284e-07
1.49523e-07
1.49713e-07
1.50008e-07
1.50274e-07
1.51264e-07
1.5198e-07
1.5261e-07
1.53556e-07
1.54567e-07
1.55888e-07
1.57043e-07
1.58413e-07
1.59814e-07
1.61467e-07
1.6321e-07
1.64918e-07
1.67055e-07
1.6903e-07
1.7136e-07
1.73826e-07
1.76385e-07
1.79112e-07
1.81965e-07
1.85225e-07
1.88371e-07
1.91796e-07
1.95427e-07
1.99089e-07
2.02879e-07
2.068e-07
2.1082e-07
2.14766e-07
2.18889e-07
2.23014e-07
2.27224e-07
2.31657e-07
2.36161e-07
2.40932e-07
2.45808e-07
2.50838e-07
2.55932e-07
2.61072e-07
2.66224e-07
2.71255e-07
2.76344e-07
2.81363e-07
2.86463e-07
2.91579e-07
2.9663e-07
3.01632e-07
3.06358e-07
3.1081e-07
3.149e-07
3.18863e-07
3.21789e-07
3.24189e-07
3.27689e-07
3.33111e-07
3.42917e-07
3.5612e-07
3.62066e-07
3.57781e-07
3.5704e-07
4.39794e-07
7.71031e-07
5.46877e-07
1.53377e-06
1.14226e-07
1.08864e-07
1.13098e-07
1.11856e-07
1.10714e-07
1.09259e-07
1.08425e-07
1.08119e-07
1.08279e-07
1.08755e-07
1.0931e-07
1.10209e-07
1.11363e-07
1.12586e-07
1.13914e-07
1.15278e-07
1.1683e-07
1.18387e-07
1.19937e-07
1.21631e-07
1.23222e-07
1.24916e-07
1.26554e-07
1.28219e-07
1.29956e-07
1.31682e-07
1.33401e-07
1.35091e-07
1.36923e-07
1.38686e-07
1.40525e-07
1.4243e-07
1.44298e-07
1.46338e-07
1.48341e-07
1.50478e-07
1.52639e-07
1.54867e-07
1.57195e-07
1.59479e-07
1.61908e-07
1.64317e-07
1.66726e-07
1.69133e-07
1.71594e-07
1.7399e-07
1.76393e-07
1.78907e-07
1.81462e-07
1.84227e-07
1.87165e-07
1.90339e-07
1.93786e-07
1.9738e-07
2.01213e-07
2.05157e-07
2.09278e-07
2.13511e-07
2.17843e-07
2.22454e-07
2.2721e-07
2.32211e-07
2.37347e-07
2.42543e-07
2.47741e-07
2.52671e-07
2.57314e-07
2.61447e-07
2.63789e-07
2.64752e-07
2.68192e-07
2.7534e-07
2.86501e-07
3.0346e-07
3.19306e-07
3.17322e-07
2.98983e-07
3.05208e-07
4.30498e-07
6.57794e-07
4.95716e-07
1.54517e-06
)
;

boundaryField
{
    inlet
    {
        type            calculated;
        value           nonuniform List<scalar> 
23
(
5.81358e-06
5.78456e-06
5.75646e-06
5.72917e-06
5.7021e-06
5.67461e-06
5.6459e-06
5.61539e-06
5.58226e-06
5.5458e-06
5.50506e-06
5.46029e-06
5.40905e-06
5.32913e-06
5.26234e-06
5.18066e-06
5.079e-06
4.95514e-06
4.8062e-06
4.63117e-06
4.42303e-06
4.26218e-06
3.95967e-06
)
;
    }
    outlet
    {
        type            calculated;
        value           nonuniform List<scalar> 
82
(
9.56817e-08
9.41623e-08
8.87589e-08
9.22414e-08
9.04534e-08
8.82576e-08
8.6798e-08
8.60082e-08
8.57871e-08
8.5963e-08
8.62594e-08
8.69786e-08
8.80322e-08
8.91646e-08
9.04352e-08
9.1751e-08
9.32952e-08
9.48484e-08
9.63821e-08
9.80959e-08
9.96771e-08
1.01368e-07
1.02997e-07
1.04645e-07
1.06373e-07
1.08073e-07
1.09759e-07
1.11392e-07
1.13182e-07
1.14873e-07
1.16628e-07
1.18446e-07
1.20189e-07
1.22111e-07
1.23956e-07
1.25924e-07
1.27891e-07
1.299e-07
1.31998e-07
1.34007e-07
1.36166e-07
1.38277e-07
1.40373e-07
1.4246e-07
1.44612e-07
1.46698e-07
1.48802e-07
1.51055e-07
1.53361e-07
1.55907e-07
1.5863e-07
1.61579e-07
1.64779e-07
1.68076e-07
1.71582e-07
1.75176e-07
1.78972e-07
1.82947e-07
1.87122e-07
1.91723e-07
1.96586e-07
2.01783e-07
2.0715e-07
2.12568e-07
2.17969e-07
2.23035e-07
2.27678e-07
2.31524e-07
2.33054e-07
2.33243e-07
2.36825e-07
2.45119e-07
2.58667e-07
2.79077e-07
2.97542e-07
2.94067e-07
2.67e-07
2.61784e-07
3.86151e-07
6.33026e-07
4.03045e-07
1.40128e-06
)
;
    }
    walls
    {
        type            calculated;
        value           nonuniform List<scalar> 0();
    }
    frontAndBack
    {
        type            empty;
    }
    procBoundary3to2
    {
        type            processor;
        value           nonuniform List<scalar> 
88
(
7.0983e-07
1.38379e-06
1.61642e-07
6.42264e-07
6.42264e-07
1.65916e-07
2.72465e-07
2.72465e-07
3.21785e-07
2.81664e-07
2.62559e-07
2.62559e-07
4.67947e-07
4.32146e-07
4.02791e-07
3.7564e-07
3.475e-07
3.475e-07
6.68627e-07
6.24939e-07
5.81418e-07
5.39055e-07
4.97725e-07
4.97725e-07
9.31675e-07
8.8896e-07
8.4665e-07
8.05047e-07
7.64251e-07
7.24116e-07
6.84228e-07
6.84228e-07
1.3091e-06
1.27503e-06
1.24037e-06
1.20522e-06
1.16965e-06
1.1338e-06
1.09773e-06
1.06149e-06
1.02511e-06
9.88501e-07
9.51626e-07
9.14431e-07
9.14431e-07
9.88573e-07
1.42003e-06
1.47087e-06
1.33725e-06
1.37188e-06
1.4102e-06
1.44145e-06
1.46702e-06
1.48938e-06
1.50922e-06
1.52771e-06
1.54348e-06
1.5566e-06
1.56748e-06
1.57565e-06
1.58154e-06
1.58494e-06
1.58594e-06
1.58486e-06
1.5817e-06
1.57665e-06
1.56988e-06
1.56145e-06
1.5516e-06
1.54048e-06
1.528e-06
1.51443e-06
1.49988e-06
1.48438e-06
1.46799e-06
1.45071e-06
1.43271e-06
1.41386e-06
1.39421e-06
1.37391e-06
1.35275e-06
1.3309e-06
1.30827e-06
1.28481e-06
1.2606e-06
1.23561e-06
1.20991e-06
1.20991e-06
)
;
    }
    procBoundary3to6
    {
        type            processor;
        value           uniform 4.55676e-09;
    }
    procBoundary3to7
    {
        type            processor;
        value           nonuniform List<scalar> 
16
(
4.78195e-08
9.24426e-07
9.43272e-07
7.47678e-07
6.68957e-07
6.05721e-07
5.30625e-07
4.58969e-07
4.58969e-07
3.71334e-07
3.08616e-07
2.55386e-07
2.12796e-07
1.74031e-07
1.54487e-07
1.06607e-07
)
;
    }
}


// ************************************************************************* //
