/*--------------------------------*- C++ -*----------------------------------*\
| =========                 |                                                 |
| \\      /  F ield         | OpenFOAM: The Open Source CFD Toolbox           |
|  \\    /   O peration     | Version:  2506                                  |
|   \\  /    A nd           | Website:  www.openfoam.com                      |
|    \\/     M anipulation  |                                                 |
\*---------------------------------------------------------------------------*/
FoamFile
{
    version     2.0;
    format      ascii;
    arch        "LSB;label=32;scalar=64";
    class       volScalarField;
    location    "27";
    object      p;
}
// * * * * * * * * * * * * * * * * * * * * * * * * * * * * * * * * * * * * * //

dimensions      [0 2 -2 0 0 0 0];

internalField   nonuniform List<scalar> 
400
(
2.43814e-08
-0.000143698
-0.000499745
-0.00100079
-0.00161865
-0.00232518
-0.00297135
-0.00335802
-0.00331666
-0.00269878
-0.00136551
0.000706568
0.00323408
0.00544512
0.00650879
0.00603968
0.00428807
0.0025441
0.00153179
0.00144676
0.000117767
-4.63682e-05
-0.000340484
-0.000706331
-0.00116126
-0.0017595
-0.00250722
-0.00326711
-0.00374724
-0.00359681
-0.00255556
-0.00062925
0.00178192
0.00399657
0.00519381
0.00493374
0.00345804
0.00180974
0.00104189
0.00110423
0.000501043
0.000256415
-5.83084e-05
-0.000508007
-0.00123398
-0.00236044
-0.00385582
-0.00547159
-0.00677725
-0.00727912
-0.00664263
-0.00493097
-0.00247474
0.000129176
0.00208636
0.00276653
0.00213695
0.000983828
9.61142e-05
6.90248e-05
0.00104488
0.000668688
0.000177083
-0.000695509
-0.0022118
-0.00447426
-0.00727936
-0.0101694
-0.0125778
-0.0139688
-0.0140126
-0.0127314
-0.0103254
-0.00721817
-0.00407553
-0.00162176
-0.000332227
-0.000196042
-0.000785067
-0.00141667
0.00137126
0.000825787
-5.01226e-05
-0.00174333
-0.00452253
-0.00833071
-0.0127014
-0.0169587
-0.0204728
-0.0227878
-0.0236454
-0.0229284
-0.0207377
-0.0173333
-0.0131272
-0.00870739
-0.00485261
-0.00237205
-0.00170313
-0.00346634
0.00102939
0.000274748
-0.00116413
-0.00392906
-0.00817612
-0.0135651
-0.019318
-0.0246107
-0.0288419
-0.0316924
-0.0330331
-0.0327686
-0.0309584
-0.0277298
-0.0232057
-0.0175926
-0.011475
-0.00622167
-0.00384301
-0.00591305
-0.000271722
-0.00124877
-0.00331346
-0.00714816
-0.0127115
-0.0193293
-0.0259733
-0.031776
-0.0362383
-0.0391921
-0.0406447
-0.0406187
-0.0391697
-0.0363529
-0.0321294
-0.0263666
-0.0191678
-0.0117421
-0.00718511
-0.00720807
-0.00253171
-0.0036816
-0.00628712
-0.0109528
-0.0174346
-0.0247749
-0.0318026
-0.0376951
-0.0420898
-0.0449453
-0.0463536
-0.0464142
-0.0452046
-0.0427634
-0.0390251
-0.0337318
-0.0266005
-0.0181281
-0.011018
-0.00747392
-0.00541115
-0.00663905
-0.00960106
-0.0147621
-0.0217191
-0.0293357
-0.0363962
-0.0421629
-0.046391
-0.0491182
-0.0504728
-0.0505689
-0.049484
-0.047271
-0.0439249
-0.0392582
-0.0328174
-0.0244103
-0.0156675
-0.00932621
-0.00839591
-0.00959853
-0.0127113
-0.0180417
-0.0250984
-0.0326844
-0.0396065
-0.0452007
-0.0492914
-0.0519432
-0.0532815
-0.0534
-0.0523655
-0.0502473
-0.047116
-0.0429322
-0.0373324
-0.0297379
-0.0210064
-0.0133681
-0.0110071
-0.0121129
-0.0151801
-0.0204081
-0.0272823
-0.0346543
-0.0413892
-0.0468554
-0.050886
-0.0535283
-0.0548828
-0.0550187
-0.0539881
-0.0518685
-0.0487945
-0.0448736
-0.0399928
-0.0334516
-0.025693
-0.0179515
-0.0129704
-0.0138963
-0.0167583
-0.0216396
-0.0280999
-0.0351297
-0.0416805
-0.0471045
-0.0511719
-0.0538772
-0.0552801
-0.0554288
-0.0543633
-0.0521668
-0.0490235
-0.0451625
-0.0407789
-0.0351285
-0.0284838
-0.0210823
-0.0142456
-0.0148579
-0.0173019
-0.0216279
-0.0274908
-0.0340838
-0.0404607
-0.0459232
-0.0501251
-0.0529682
-0.054457
-0.0546159
-0.0534807
-0.051151
-0.0478405
-0.0438445
-0.0397138
-0.0345498
-0.0288017
-0.0216463
-0.0149084
-0.0150942
-0.0168707
-0.0203747
-0.0254464
-0.0315102
-0.0377117
-0.0432754
-0.0477061
-0.0507762
-0.0524123
-0.0526067
-0.0513861
-0.0488673
-0.0453087
-0.0410901
-0.0368313
-0.0317485
-0.0269475
-0.0193278
-0.0150715
-0.0147908
-0.0156478
-0.018031
-0.022095
-0.0275189
-0.0335243
-0.0392355
-0.043983
-0.0473776
-0.049242
-0.0495164
-0.0482319
-0.0454911
-0.0416149
-0.0370301
-0.0323858
-0.0271997
-0.0235429
-0.0139456
-0.0148542
-0.0141769
-0.0138274
-0.0147637
-0.0176207
-0.0223059
-0.0280924
-0.0339839
-0.0391249
-0.042945
-0.0451446
-0.0455949
-0.0443185
-0.0413863
-0.0371566
-0.0320733
-0.0268643
-0.0213935
-0.0181457
-0.00406514
-0.0143468
-0.0133874
-0.0115572
-0.0108739
-0.0124604
-0.016403
-0.0219883
-0.0280864
-0.0336763
-0.0380101
-0.0406629
-0.0414119
-0.0402496
-0.0372231
-0.032634
-0.0268596
-0.0206016
-0.0138397
-0.00782081
0.0150885
-0.0144276
-0.0125888
-0.00878855
-0.0064913
-0.00699209
-0.0103874
-0.015882
-0.0222264
-0.0283017
-0.0332117
-0.0364302
-0.0376189
-0.0367205
-0.0337341
-0.0288156
-0.0219938
-0.0134723
-0.00208615
0.0147951
0.0554314
-0.0118041
-0.0119756
-0.00622274
-0.00246718
-0.00231856
-0.00553896
-0.0111246
-0.0177554
-0.0242908
-0.0297337
-0.0335286
-0.0352517
-0.0348052
-0.0319256
-0.0264692
-0.0176318
-0.00419102
0.0185854
0.0584048
0.127876
-0.0295115
-0.0109343
-0.00131103
0.00218783
0.00168382
-0.00190935
-0.00776669
-0.0146998
-0.0215772
-0.02738
-0.0315313
-0.0335883
-0.0334157
-0.0306001
-0.0244986
-0.0129349
0.00839789
0.0493539
0.120788
0.224273
)
;

boundaryField
{
    movingWall
    {
        type            zeroGradient;
    }
    fixedWalls
    {
        type            zeroGradient;
    }
    frontAndBack
    {
        type            empty;
    }
}


// ************************************************************************* //
