/*--------------------------------*- C++ -*----------------------------------*\
| =========                 |                                                 |
| \\      /  F ield         | OpenFOAM: The Open Source CFD Toolbox           |
|  \\    /   O peration     | Version:  2506                                  |
|   \\  /    A nd           | Website:  www.openfoam.com                      |
|    \\/     M anipulation  |                                                 |
\*---------------------------------------------------------------------------*/
FoamFile
{
    version     2.0;
    format      ascii;
    arch        "LSB;label=32;scalar=64";
    class       surfaceScalarField;
    location    "27";
    object      phi;
}
// * * * * * * * * * * * * * * * * * * * * * * * * * * * * * * * * * * * * * //

dimensions      [0 3 -1 0 0 0 0];

oriented        oriented;

internalField   nonuniform List<scalar> 
760
(
1.38239e-05
-1.38241e-05
2.56109e-05
-1.1787e-05
2.64545e-05
-8.43624e-07
1.4117e-05
1.23375e-05
-1.48643e-05
2.89814e-05
-6.62726e-05
5.14083e-05
-0.000143119
7.68462e-05
-0.00023791
9.47913e-05
-0.00033229
9.43802e-05
-0.000404253
7.19626e-05
-0.000437176
3.29236e-05
-0.000421519
-1.56571e-05
-0.000350854
-7.06653e-05
-0.000235748
-0.000115106
-9.80591e-05
-0.000137689
2.62656e-05
-0.000124325
9.98621e-05
-7.35965e-05
9.7196e-05
2.6661e-06
4.38132e-05
5.33828e-05
4.38132e-05
9.67453e-06
-2.34987e-05
2.62839e-06
-4.74082e-06
-3.33775e-05
3.51623e-05
-0.000107103
8.60628e-05
-0.000223152
0.00014503
-0.000374947
0.000203204
-0.000540178
0.000242077
-0.000689488
0.000244101
-0.000800457
0.00020535
-0.000861455
0.00013296
-0.000867438
3.89066e-05
-0.000815645
-6.74502e-05
-0.000709116
-0.000177194
-0.000550829
-0.000273393
-0.000354555
-0.000333963
-0.000149657
-0.000329223
1.23953e-05
-0.000235649
8.03773e-05
-6.53159e-05
5.01056e-05
8.36544e-05
9.39188e-05
-1.43492e-05
-9.14947e-06
-6.37313e-05
4.46413e-05
-0.000157449
0.00012888
-0.000299903
0.000228517
-0.000480941
0.000326068
-0.000673803
0.000396066
-0.00084843
0.000416703
-0.000986246
0.000381917
-0.0010811
0.000300205
-0.00113179
0.000183647
-0.00113381
4.09291e-05
-0.00109091
-0.000110347
-0.00100187
-0.000266234
-0.000861392
-0.000413875
-0.000667371
-0.000527983
-0.00042863
-0.000567964
-0.000183814
-0.000480465
-9.70783e-06
-0.000239422
2.86045e-05
4.5342e-05
0.000122523
-4.81106e-05
3.89611e-05
-0.000148719
0.00014525
-0.000295604
0.000275765
-0.000481264
0.000414178
-0.000682696
0.0005275
-0.00087087
0.00058424
-0.00102524
0.00057107
-0.00114016
0.000496844
-0.00121781
0.000377851
-0.00126142
0.000227254
-0.00126985
4.93642e-05
-0.00124798
-0.000132223
-0.00119268
-0.000321529
-0.00109389
-0.00051266
-0.00093871
-0.000683168
-0.000714938
-0.000791736
-0.000426831
-0.000768573
-0.000134368
-0.000531885
1.15105e-05
-0.000100536
0.000134034
-8.09941e-05
0.000119955
-0.000222178
0.000286434
-0.00039906
0.000452646
-0.000594734
0.000609852
-0.000783106
0.000715872
-0.000941914
0.000743049
-0.00106221
0.000691368
-0.00114562
0.000580248
-0.00119788
0.000430114
-0.0012261
0.000255474
-0.00123879
6.20573e-05
-0.0012358
-0.000135221
-0.00121587
-0.000341452
-0.001171
-0.000557533
-0.0010827
-0.000771467
-0.000922648
-0.000951788
-0.000662235
-0.00102899
-0.000312399
-0.000881721
-2.57973e-05
-0.000387138
0.000108237
-0.000101234
0.000221189
-0.000261103
0.000446303
-0.00044119
0.000632732
-0.000620356
0.000789018
-0.000776823
0.00087234
-0.00089662
0.000862845
-0.000977931
0.000772679
-0.00102646
0.000628775
-0.0010509
0.000454552
-0.00106122
0.000265801
-0.00106942
7.02506e-05
-0.00107568
-0.000128957
-0.00108092
-0.000336207
-0.00108213
-0.00055633
-0.00106365
-0.000789946
-0.000992674
-0.00102276
-0.00082069
-0.00120097
-0.000508306
-0.0011941
-0.000112257
-0.000783186
-4.02092e-06
-0.000103126
0.000324315
-0.000258677
0.000601854
-0.000421103
0.000795158
-0.000570049
0.000937964
-0.000689563
0.000991854
-0.000772225
0.000945507
-0.000820507
0.000820962
-0.000842443
0.000650711
-0.000848224
0.000460333
-0.00084785
0.000265427
-0.000850113
7.25133e-05
-0.00085772
-0.000121351
-0.000872613
-0.000321314
-0.000895922
-0.000533021
-0.000921438
-0.00076443
-0.000925141
-0.00101906
-0.000854813
-0.0012713
-0.000636666
-0.00141225
-0.000234416
-0.00118544
-0.000238437
-8.68256e-05
0.000411141
-0.000220405
0.000735434
-0.000353657
0.00092841
-0.000468453
0.00105276
-0.000554305
0.00107771
-0.000608445
0.000999647
-0.000635566
0.000848083
-0.000644295
0.000659439
-0.000644312
0.00046035
-0.00064338
0.000264495
-0.000645666
7.47987e-05
-0.0006532
-0.000113817
-0.000668447
-0.000306067
-0.000694805
-0.000506663
-0.000733868
-0.000725367
-0.000775531
-0.000977396
-0.000777352
-0.00126948
-0.000657625
-0.00153198
-0.000347468
-0.00149559
-0.000585905
-5.79232e-05
0.000469064
-0.000158664
0.000836175
-0.000258191
0.00102794
-0.000339983
0.00113455
-0.000398038
0.00113576
-0.000432574
0.00103418
-0.00044881
0.000864319
-0.000454337
0.000664966
-0.000456544
0.000462557
-0.00046015
0.000268102
-0.000466371
8.10189e-05
-0.000475896
-0.000104292
-0.000490068
-0.000291894
-0.000512329
-0.000484403
-0.000548814
-0.000688882
-0.000600556
-0.000925654
-0.000643712
-0.00122632
-0.000602645
-0.00157305
-0.000384347
-0.00171389
-0.000970253
-2.15101e-05
0.000490574
-8.41971e-05
0.000898862
-0.000149012
0.00109275
-0.00020064
0.00118618
-0.000235936
0.00117106
-0.000256883
0.00105513
-0.000268016
0.000875453
-0.000274583
0.000671532
-0.000281131
0.000469106
-0.00028996
0.00027693
-0.000301236
9.22947e-05
-0.000314773
-9.07544e-05
-0.000330758
-0.000275909
-0.000351006
-0.000464155
-0.000381758
-0.00065813
-0.000431834
-0.000875578
-0.000494415
-0.00116374
-0.000506661
-0.0015608
-0.0003516
-0.00186895
-0.00132185
1.51631e-05
0.000475411
-6.84569e-06
0.000920871
-3.89566e-05
0.00112486
-6.34351e-05
0.00121066
-7.85802e-05
0.0011862
-8.73155e-05
0.00106387
-9.35619e-05
0.000881699
-0.000100555
0.000678525
-0.000109905
0.000478455
-0.000122229
0.000289254
-0.000137487
0.000107553
-0.000155692
-7.25491e-05
-0.000176684
-0.000254916
-0.000200758
-0.000440081
-0.000231631
-0.000627257
-0.000280068
-0.000827141
-0.000351839
-0.00109197
-0.000400327
-0.00151231
-0.000300884
-0.00196839
-0.00162274
4.61187e-05
0.000429292
6.46233e-05
0.000902366
6.86351e-05
0.00112085
7.22081e-05
0.00120708
7.69451e-05
0.00118147
8.00665e-05
0.00106074
7.93343e-05
0.000882432
7.38895e-05
0.00068397
6.40202e-05
0.000488325
5.0262e-05
0.000303013
3.24492e-05
0.000125365
1.01374e-05
-5.02374e-05
-1.70723e-05
-0.000227706
-4.96966e-05
-0.000407457
-8.89465e-05
-0.000588007
-0.000140798
-0.000775289
-0.000220505
-0.00101226
-0.000296744
-0.00143607
-0.00024684
-0.0020183
-0.00186958
6.91697e-05
0.000360123
0.000125261
0.000846275
0.000162812
0.0010833
0.000195109
0.00117479
0.000222579
0.001154
0.000241528
0.0010418
0.000250606
0.000873353
0.000250833
0.000683743
0.000243917
0.00049524
0.000230983
0.000315947
0.000211694
0.000144655
0.000184695
-2.32385e-05
0.000149936
-0.000192947
0.000106849
-0.000364371
5.47771e-05
-0.000535934
-1.24461e-05
-0.000708066
-0.00010022
-0.00092449
-0.000196931
-0.00133936
-0.000194924
-0.00202031
-0.0020645
7.91586e-05
0.000280964
0.000166922
0.000758512
0.000237589
0.00101263
0.000299999
0.00111238
0.000354302
0.00109969
0.00039548
0.00100062
0.000421288
0.000847546
0.000432925
0.000672106
0.000432911
0.000495254
0.000423088
0.00032577
0.00040346
0.000164283
0.000371951
8.27082e-06
0.00032883
-0.000149827
0.000272612
-0.000308152
0.00020318
-0.000466502
0.000121749
-0.000626635
1.82041e-05
-0.000820945
-0.00010344
-0.00121772
-0.000146373
-0.00197737
-0.00221087
7.28196e-05
0.000208144
0.000179047
0.000652284
0.000277842
0.000913838
0.000372043
0.00101818
0.000458226
0.00101351
0.000529182
0.000929662
0.000580311
0.000796417
0.000611534
0.000640882
0.000625012
0.000481776
0.000622842
0.000327939
0.000605255
0.00018187
0.000571297
4.22285e-05
0.000518924
-9.74533e-05
0.000448232
-0.00023746
0.00035867
-0.000376941
0.000253299
-0.000521263
0.000126921
-0.000694567
-2.25451e-05
-0.00106825
-9.66073e-05
-0.00190331
-0.00230748
5.1654e-05
0.000156491
0.000159801
0.000544137
0.000285734
0.000787906
0.000415017
0.000888892
0.000538025
0.000890501
0.00064445
0.000823238
0.000727046
0.000713821
0.000783979
0.00058395
0.000816318
0.000449437
0.00082586
0.000318397
0.000813336
0.000194394
0.000778641
7.69239e-05
0.000717525
-3.63375e-05
0.000631819
-0.000151754
0.000520489
-0.000265611
0.000388285
-0.00038906
0.000240708
-0.00054699
8.27885e-05
-0.000910331
-2.05885e-05
-0.00179993
-0.00232807
1.15861e-05
0.000144904
9.04492e-05
0.000465274
0.000228583
0.000649772
0.000392375
0.0007251
0.000558369
0.000724507
0.00070792
0.000673687
0.00083009
0.00059165
0.000921305
0.000492735
0.000980686
0.000390056
0.00100942
0.000289662
0.00100794
0.000195877
0.000976934
0.000107927
0.000913278
2.73194e-05
0.00081716
-5.56364e-05
0.000689627
-0.000138078
0.000535816
-0.000235249
0.000371357
-0.000382531
0.000211818
-0.000750792
6.04887e-05
-0.0016486
-0.00226758
-4.93614e-05
0.000194266
1.39004e-05
0.000402012
0.000156881
0.000506791
0.000350841
0.000531141
0.000556361
0.000518987
0.000745466
0.000484582
0.000903895
0.000433221
0.00102699
0.000369639
0.0011124
0.000304644
0.00116173
0.000240334
0.00117529
0.000182313
0.00115522
0.000127997
0.00110296
7.95841e-05
0.0010175
2.98196e-05
0.000899764
-2.03386e-05
0.000755854
-9.13387e-05
0.000604876
-0.000231553
0.000433528
-0.000579443
0.000200454
-0.00141553
-0.00206713
-0.000415601
0.000609867
-0.000364533
0.000350944
-0.000134103
0.00027636
0.000134355
0.000262683
0.000397582
0.000255759
0.000642229
0.000239935
0.000857551
0.000217899
0.00103742
0.000189773
0.0011797
0.000162359
0.00128667
0.000133366
0.00135981
0.000109177
0.00140336
8.44466e-05
0.00141655
6.63879e-05
0.0014011
4.52713e-05
0.00135488
2.58876e-05
0.0012794
-1.58617e-05
0.00117556
-0.000127717
0.0010039
-0.000407784
0.000560756
-0.000972383
-0.00150637
0.000609867
0.000960811
0.00123717
0.00149985
0.00175561
0.00199555
0.00221345
0.00240322
0.00256558
0.00269895
0.00280812
0.00289257
0.00295896
0.00300423
0.00303012
0.00301425
0.00288654
0.00247875
0.00150637
)
;

boundaryField
{
    movingWall
    {
        type            calculated;
        value           uniform 0;
    }
    fixedWalls
    {
        type            calculated;
        value           uniform 0;
    }
    frontAndBack
    {
        type            empty;
    }
}


// ************************************************************************* //
