/*--------------------------------*- C++ -*----------------------------------*\
| =========                 |                                                 |
| \\      /  F ield         | OpenFOAM: The Open Source CFD Toolbox           |
|  \\    /   O peration     | Version:  2506                                  |
|   \\  /    A nd           | Website:  www.openfoam.com                      |
|    \\/     M anipulation  |                                                 |
\*---------------------------------------------------------------------------*/
FoamFile
{
    version     2.0;
    format      ascii;
    arch        "LSB;label=32;scalar=64";
    class       volVectorField;
    location    "27";
    object      U;
}
// * * * * * * * * * * * * * * * * * * * * * * * * * * * * * * * * * * * * * //

dimensions      [0 1 -1 0 0 0 0];

internalField   nonuniform List<vector> 
400
(
(0.0014992 -0.00152985 0)
(0.00426402 -0.00170003 0)
(0.0057159 -0.00109501 0)
(0.00474074 -0.000502565 0)
(0.000788584 0.000246509 0)
(-0.00716568 0.00170846 0)
(-0.0201132 0.00445815 0)
(-0.0378804 0.0080413 0)
(-0.0579737 0.0105011 0)
(-0.0755979 0.00998041 0)
(-0.0862163 0.00660195 0)
(-0.0873444 0.00178407 0)
(-0.0780369 -0.00326878 0)
(-0.0589623 -0.0077936 0)
(-0.0336996 -0.0103472 0)
(-0.00651436 -0.00943642 0)
(0.0148943 -0.0048051 0)
(0.0227574 0.00245772 0)
(0.0153076 0.00607202 0)
(0.00414808 0.00447961 0)
(0.00140918 -0.00440764 0)
(0.00233232 -0.00335369 0)
(-0.00141578 0.00081919 0)
(-0.0118397 0.00621934 0)
(-0.0306995 0.013272 0)
(-0.0585254 0.0222531 0)
(-0.0922485 0.0309832 0)
(-0.125474 0.0351314 0)
(-0.152319 0.0322089 0)
(-0.169391 0.0229218 0)
(-0.17516 0.00941532 0)
(-0.169519 -0.00602641 0)
(-0.153031 -0.0216593 0)
(-0.126322 -0.0350863 0)
(-0.0915994 -0.0427308 0)
(-0.0515609 -0.0404281 0)
(-0.0119761 -0.0258654 0)
(0.0155073 -0.00192593 0)
(0.0169192 0.0151548 0)
(0.0053534 0.0141006 0)
(-0.000486455 -0.00461838 0)
(-0.00574227 0.00169096 0)
(-0.0194055 0.0139113 0)
(-0.0428169 0.0294468 0)
(-0.0764295 0.0464453 0)
(-0.116133 0.06074 0)
(-0.154826 0.0672448 0)
(-0.186997 0.063608 0)
(-0.210321 0.0508813 0)
(-0.224093 0.0313781 0)
(-0.228243 0.00736819 0)
(-0.223329 -0.0191424 0)
(-0.209654 -0.0460502 0)
(-0.186745 -0.0698607 0)
(-0.154326 -0.0855767 0)
(-0.112412 -0.0863282 0)
(-0.0628599 -0.0654473 0)
(-0.0138559 -0.0231167 0)
(0.00904164 0.0164115 0)
(0.00413785 0.0225085 0)
(-0.00337962 0.00162368 0)
(-0.0167907 0.0173904 0)
(-0.0413972 0.0394404 0)
(-0.0754272 0.0642154 0)
(-0.116456 0.0861866 0)
(-0.157805 0.099005 0)
(-0.193142 0.0990184 0)
(-0.220167 0.0870563 0)
(-0.23898 0.0660503 0)
(-0.250107 0.0386395 0)
(-0.254325 0.00669639 0)
(-0.252405 -0.0284584 0)
(-0.244307 -0.0647139 0)
(-0.228995 -0.0991791 0)
(-0.20452 -0.12656 0)
(-0.168241 -0.138248 0)
(-0.117792 -0.122355 0)
(-0.0552271 -0.0697504 0)
(-0.00115991 0.0021998 0)
(0.00471335 0.0270126 0)
(-0.00627163 0.0152085 0)
(-0.0270072 0.0426824 0)
(-0.0595713 0.0729861 0)
(-0.0985466 0.103005 0)
(-0.139665 0.124898 0)
(-0.176185 0.132671 0)
(-0.204325 0.125338 0)
(-0.224126 0.106041 0)
(-0.236783 0.0785412 0)
(-0.243923 0.0456049 0)
(-0.247229 0.00879936 0)
(-0.24767 -0.0310995 0)
(-0.245092 -0.073007 0)
(-0.238842 -0.115616 0)
(-0.226195 -0.155096 0)
(-0.202567 -0.183156 0)
(-0.1621 -0.184753 0)
(-0.100353 -0.139503 0)
(-0.0216373 -0.0388869 0)
(0.00710381 0.0258691 0)
(-0.00792561 0.0339374 0)
(-0.0328676 0.0733076 0)
(-0.0686158 0.108941 0)
(-0.106916 0.140316 0)
(-0.143118 0.158887 0)
(-0.171752 0.160109 0)
(-0.191354 0.145489 0)
(-0.203224 0.119769 0)
(-0.209261 0.0872811 0)
(-0.21189 0.0510349 0)
(-0.213177 0.0125433 0)
(-0.214218 -0.0278128 0)
(-0.215271 -0.0705172 0)
(-0.216348 -0.116043 0)
(-0.215261 -0.163253 0)
(-0.20688 -0.206726 0)
(-0.183196 -0.232354 0)
(-0.135817 -0.213203 0)
(-0.0606149 -0.116069 0)
(0.00544908 0.0134148 0)
(-0.00769087 0.0545347 0)
(-0.0329533 0.104832 0)
(-0.0674124 0.142923 0)
(-0.10122 0.172766 0)
(-0.130284 0.186251 0)
(-0.150729 0.180487 0)
(-0.162749 0.159021 0)
(-0.168297 0.127769 0)
(-0.169712 0.0915617 0)
(-0.169536 0.0535095 0)
(-0.169451 0.014932 0)
(-0.170238 -0.0241471 0)
(-0.172497 -0.064931 0)
(-0.176784 -0.108911 0)
(-0.182393 -0.157342 0)
(-0.185559 -0.209103 0)
(-0.178271 -0.255057 0)
(-0.150587 -0.268933 0)
(-0.0963401 -0.201051 0)
(-0.00855376 -0.0147803 0)
(-0.0056814 0.0736827 0)
(-0.0277622 0.133766 0)
(-0.0576657 0.172428 0)
(-0.0850989 0.199164 0)
(-0.106829 0.206978 0)
(-0.120461 0.194514 0)
(-0.127165 0.167002 0)
(-0.12915 0.131289 0)
(-0.128845 0.092519 0)
(-0.12832 0.0535876 0)
(-0.128414 0.0153371 0)
(-0.129359 -0.0226205 0)
(-0.131662 -0.0614247 0)
(-0.136107 -0.102544 0)
(-0.143325 -0.148229 0)
(-0.151885 -0.201014 0)
(-0.155549 -0.258741 0)
(-0.143865 -0.301373 0)
(-0.109708 -0.271226 0)
(-0.0298028 -0.0732287 0)
(-0.00252115 0.0885282 0)
(-0.0190003 0.157523 0)
(-0.0423877 0.195875 0)
(-0.0628631 0.218893 0)
(-0.0780017 0.221404 0)
(-0.086567 0.203407 0)
(-0.0901375 0.171322 0)
(-0.0908133 0.1326 0)
(-0.0907102 0.0924878 0)
(-0.0911411 0.0534662 0)
(-0.092221 0.0157512 0)
(-0.0938328 -0.0214817 0)
(-0.0961769 -0.0591278 0)
(-0.0998634 -0.098061 0)
(-0.106165 -0.14024 0)
(-0.115854 -0.19002 0)
(-0.125514 -0.251876 0)
(-0.124508 -0.316243 0)
(-0.105643 -0.327774 0)
(-0.0364635 -0.158425 0)
(0.0011223 0.0969623 0)
(-0.00829403 0.174415 0)
(-0.0240759 0.212775 0)
(-0.0376213 0.232681 0)
(-0.0470469 0.231171 0)
(-0.0519564 0.209246 0)
(-0.053849 0.174118 0)
(-0.054375 0.133659 0)
(-0.0550873 0.0930933 0)
(-0.0566357 0.0543927 0)
(-0.0587765 0.017185 0)
(-0.0612924 -0.0196498 0)
(-0.0641719 -0.056833 0)
(-0.0676898 -0.094669 0)
(-0.0729479 -0.134144 0)
(-0.0817236 -0.179499 0)
(-0.0939954 -0.23957 0)
(-0.0995579 -0.316782 0)
(-0.0941477 -0.365137 0)
(-0.0305839 -0.236629 0)
(0.00468073 0.0979856 0)
(0.00277047 0.183451 0)
(-0.00508346 0.222841 0)
(-0.0119641 0.240458 0)
(-0.0163394 0.236215 0)
(-0.0182425 0.212096 0)
(-0.0188981 0.175663 0)
(-0.0193652 0.134806 0)
(-0.0205983 0.0945208 0)
(-0.0228164 0.0563932 0)
(-0.0256658 0.0197454 0)
(-0.029 -0.0166336 0)
(-0.0328061 -0.0534615 0)
(-0.0371071 -0.0907904 0)
(-0.0425789 -0.128714 0)
(-0.0507373 -0.170227 0)
(-0.0645201 -0.226027 0)
(-0.0739398 -0.310029 0)
(-0.080786 -0.389378 0)
(-0.0228504 -0.300667 0)
(0.0076497 0.0919779 0)
(0.0131663 0.184348 0)
(0.0131338 0.226229 0)
(0.0127416 0.243138 0)
(0.0133138 0.237893 0)
(0.0144926 0.213285 0)
(0.0153413 0.176898 0)
(0.0153534 0.136451 0)
(0.0141485 0.0967107 0)
(0.0117828 0.0591704 0)
(0.00859394 0.0231721 0)
(0.00461052 -0.0124742 0)
(-0.000271972 -0.0485664 0)
(-0.00598854 -0.0851773 0)
(-0.0129789 -0.121945 0)
(-0.0216863 -0.160331 0)
(-0.0374908 -0.210599 0)
(-0.0493214 -0.296204 0)
(-0.0680973 -0.401379 0)
(-0.0145985 -0.353572 0)
(0.00921962 0.080101 0)
(0.0215269 0.177181 0)
(0.0288995 0.222481 0)
(0.0346192 0.23971 0)
(0.0401432 0.234647 0)
(0.0450477 0.210986 0)
(0.0484376 0.175979 0)
(0.0500074 0.13693 0)
(0.049732 0.0983876 0)
(0.047859 0.0618879 0)
(0.0447023 0.0269729 0)
(0.0402225 -0.00746299 0)
(0.0342524 -0.0422322 0)
(0.0268253 -0.0775151 0)
(0.0172467 -0.112859 0)
(0.00639332 -0.148749 0)
(-0.0126828 -0.194081 0)
(-0.025622 -0.278002 0)
(-0.0565091 -0.404108 0)
(-0.00641725 -0.395789 0)
(0.00871628 0.064484 0)
(0.0264691 0.162428 0)
(0.0410675 0.211943 0)
(0.0531265 0.231133 0)
(0.0641154 0.227755 0)
(0.0736568 0.206433 0)
(0.0807836 0.173948 0)
(0.0851139 0.137052 0)
(0.086731 0.100146 0)
(0.0859822 0.064965 0)
(0.083223 0.0314358 0)
(0.0783509 -0.00138191 0)
(0.0711559 -0.034103 0)
(0.0618179 -0.0672153 0)
(0.049174 -0.100405 0)
(0.0348184 -0.133673 0)
(0.0110355 -0.17419 0)
(-0.00202288 -0.25495 0)
(-0.0458768 -0.400307 0)
(0.00233788 -0.430896 0)
(0.00607524 0.0484698 0)
(0.0264769 0.142321 0)
(0.0469805 0.194268 0)
(0.0650748 0.214834 0)
(0.0820356 0.213252 0)
(0.097423 0.19502 0)
(0.109897 0.166266 0)
(0.118694 0.1329 0)
(0.12371 0.0989843 0)
(0.12523 0.0663548 0)
(0.123551 0.035331 0)
(0.118774 0.00521219 0)
(0.110393 -0.0243756 0)
(0.0990063 -0.0541329 0)
(0.0825904 -0.0840227 0)
(0.0640401 -0.114687 0)
(0.0349057 -0.151436 0)
(0.0213486 -0.229288 0)
(-0.0358258 -0.393218 0)
(0.0128438 -0.460129 0)
(0.00204369 0.0352194 0)
(0.02103 0.119404 0)
(0.0464192 0.17216 0)
(0.070868 0.194217 0)
(0.0946333 0.194682 0)
(0.11688 0.179867 0)
(0.135906 0.155493 0)
(0.150427 0.126547 0)
(0.159984 0.0966147 0)
(0.164776 0.0674887 0)
(0.164792 0.0398256 0)
(0.160703 0.0132975 0)
(0.151218 -0.0123966 0)
(0.137867 -0.0378526 0)
(0.117334 -0.0633526 0)
(0.0945572 -0.0905002 0)
(0.0598777 -0.124477 0)
(0.0441385 -0.200811 0)
(-0.0244518 -0.382895 0)
(0.0276318 -0.482555 0)
(-0.0032311 0.0303565 0)
(0.00810318 0.0992411 0)
(0.0328306 0.142685 0)
(0.0629769 0.162097 0)
(0.0945279 0.163677 0)
(0.125174 0.152616 0)
(0.152374 0.133637 0)
(0.174354 0.110612 0)
(0.19006 0.0865282 0)
(0.199741 0.0629427 0)
(0.20269 0.0406805 0)
(0.200454 0.0196397 0)
(0.19064 -0.000398089 0)
(0.176462 -0.0199795 0)
(0.152577 -0.0394862 0)
(0.126992 -0.0621186 0)
(0.087122 -0.0951175 0)
(0.0667737 -0.174436 0)
(-0.0061914 -0.3673 0)
(0.0512492 -0.489963 0)
(-0.0127221 0.0203094 0)
(-0.00766548 0.088019 0)
(0.0161087 0.120968 0)
(0.0509637 0.132387 0)
(0.0899824 0.131645 0)
(0.128567 0.123025 0)
(0.163463 0.109311 0)
(0.192295 0.0925427 0)
(0.213628 0.0750431 0)
(0.228297 0.0577614 0)
(0.234388 0.0417514 0)
(0.235383 0.0268311 0)
(0.226716 0.0133503 0)
(0.21544 0.000289503 0)
(0.19175 -0.0128611 0)
(0.169343 -0.0311619 0)
(0.127093 -0.0634616 0)
(0.104216 -0.143102 0)
(0.0357434 -0.325521 0)
(0.0917042 -0.455451 0)
(-0.105214 0.0836831 0)
(-0.0773619 0.0696628 0)
(-0.0495633 0.0718275 0)
(0.000686794 0.0751911 0)
(0.0519153 0.0751057 0)
(0.102551 0.0710145 0)
(0.148071 0.0641818 0)
(0.189106 0.0553703 0)
(0.220508 0.0463308 0)
(0.248169 0.037238 0)
(0.263998 0.0291525 0)
(0.279328 0.0216397 0)
(0.280446 0.0153988 0)
(0.285315 0.00939523 0)
(0.270565 0.00291888 0)
(0.264746 -0.00810207 0)
(0.227089 -0.0336808 0)
(0.215376 -0.0943953 0)
(0.14942 -0.229609 0)
(0.170521 -0.341505 0)
(0.130488 0.104225 0)
(0.159442 0.0763266 0)
(0.213833 0.0543496 0)
(0.272038 0.0424221 0)
(0.323664 0.0363588 0)
(0.374726 0.0321407 0)
(0.417986 0.0289973 0)
(0.462087 0.0256302 0)
(0.494362 0.0229937 0)
(0.52906 0.0198492 0)
(0.548346 0.0177663 0)
(0.574234 0.0148829 0)
(0.580772 0.0135242 0)
(0.599687 0.0107574 0)
(0.591971 0.00986626 0)
(0.601418 0.00545642 0)
(0.566672 0.000521414 0)
(0.547644 -0.0179896 0)
(0.436502 -0.0502916 0)
(0.337232 -0.101387 0)
)
;

boundaryField
{
    movingWall
    {
        type            fixedValue;
        value           uniform (1 0 0);
    }
    fixedWalls
    {
        type            noSlip;
    }
    frontAndBack
    {
        type            empty;
    }
}


// ************************************************************************* //
