/*--------------------------------*- C++ -*----------------------------------*\
| =========                 |                                                 |
| \\      /  F ield         | OpenFOAM: The Open Source CFD Toolbox           |
|  \\    /   O peration     | Version:  2506                                  |
|   \\  /    A nd           | Website:  www.openfoam.com                      |
|    \\/     M anipulation  |                                                 |
\*---------------------------------------------------------------------------*/
FoamFile
{
    version     2.0;
    format      ascii;
    arch        "LSB;label=32;scalar=64";
    class       volScalarField;
    location    "150";
    object      p;
}
// * * * * * * * * * * * * * * * * * * * * * * * * * * * * * * * * * * * * * //

dimensions      [0 2 -2 0 0 0 0];

internalField   nonuniform List<scalar> 
1340
(
338.699
333.07
316.683
293.917
269.544
245.395
222.334
201.043
181.177
162.693
145.12
128.181
111.352
94.5833
77.5535
60.3636
43.4418
28.7209
17.2495
7.91979
0.456311
-4.97791
-8.44696
-10.2002
-10.3756
-9.05404
-6.2421
-1.92649
324.014
329.358
324.919
311.699
293.038
271.947
250.035
228.278
207.397
187.517
168.68
150.67
133.271
116.128
99.1336
82.0717
65.0287
48.4453
33.8414
22.1604
12.6699
4.92913
-1.0894
-5.27807
-7.65701
-8.32868
-7.39831
-4.89795
-0.823736
309.504
315.58
313.139
303.069
287.605
268.967
248.767
228.121
207.831
188.263
169.538
151.576
134.209
117.171
100.311
83.4802
66.7437
50.4958
35.9346
23.9793
14.2253
6.29801
0.189339
-4.01568
-6.39601
-7.11317
-6.28355
-3.91745
0.0218079
278.992
293.218
299.906
299.204
291.858
279.46
263.718
245.992
227.315
208.457
189.864
171.745
154.144
136.981
120.088
103.349
86.6808
70.1542
54.1377
39.6172
27.4574
17.4672
9.3019
2.91715
-1.62642
-4.39655
-5.49444
-4.9957
-2.8938
0.850397
263.115
276.672
283.814
284.532
279.45
269.704
256.59
241.2
224.443
207.051
189.504
172.093
154.958
138.109
121.469
104.963
88.5526
72.3188
56.5992
42.2044
29.9204
19.7227
11.3347
4.71611
-0.0650405
-3.04245
-4.306
-3.93664
-1.94511
1.70148
229.609
247.549
260.535
267.977
269.786
266.507
258.981
248.213
235.067
220.305
204.581
188.355
171.947
155.555
139.257
123.048
106.904
90.8294
74.9217
59.4997
45.2512
32.89
22.5178
13.9376
7.11272
2.1069
-1.10097
-2.60042
-2.46651
-0.700981
2.74299
215.966
232.648
245.122
252.723
255.37
253.514
247.816
239.066
227.945
215.072
201.007
186.161
170.851
155.308
139.663
123.97
108.257
92.5696
77.0239
61.9227
47.8595
35.4814
24.978
16.2305
9.21132
3.98311
0.54027
-1.18734
-1.26282
0.320066
3.61195
202.929
218.56
230.553
238.21
241.483
240.743
236.528
229.485
220.153
209.029
196.58
183.151
169.035
154.472
139.618
124.57
109.399
94.1835
79.0592
64.3155
50.4817
38.1465
27.56
18.6778
11.4897
6.06019
2.40074
0.456277
0.170972
1.55585
4.66725
173.361
190.59
205.319
216.859
224.502
228.228
228.359
225.345
219.727
211.944
202.396
191.46
179.418
166.526
153.006
139.022
124.7
110.143
95.4592
80.7979
66.4423
52.8731
40.6309
30.0046
21.017
13.6802
8.06312
4.19251
2.03087
1.53339
2.72012
5.65331
178.981
192.912
204.022
211.601
215.646
216.452
214.406
209.969
203.513
195.359
185.814
175.098
163.422
150.981
137.933
124.413
110.545
96.4578
82.3132
68.3874
55.1268
43.0331
32.4186
23.3635
15.9068
10.1245
6.05854
3.69017
2.98538
3.97162
6.71742
181.306
191.998
199.477
203.745
205.07
203.798
200.34
195.011
188.076
179.786
170.309
159.809
148.448
136.368
123.7
110.577
97.1395
83.5559
70.0958
57.1825
45.286
34.7305
25.6438
18.0938
12.166
7.91765
5.3487
4.43869
5.22355
7.77869
180.742
188.091
192.502
194.231
193.581
190.926
186.548
180.67
173.499
165.159
155.775
145.472
134.368
122.584
110.25
97.509
84.5293
71.5742
59.0488
47.3983
36.9514
27.8733
20.2614
14.2129
9.80018
7.04238
5.93329
6.51653
8.87502
177.402
181.89
183.928
183.78
181.786
178.208
173.242
167.057
159.747
151.402
142.116
131.979
121.09
109.572
97.5609
85.2212
72.807
60.7074
49.3477
39.0563
30.0269
22.3844
16.2402
11.6814
8.74613
7.4438
7.82598
9.98383
171.886
174.15
174.408
172.959
170.052
165.865
160.545
154.16
146.772
138.447
129.247
119.249
108.559
97.3019
85.6319
73.7908
62.1527
51.1266
41.0365
32.097
24.4577
18.2453
13.5614
10.4629
8.97547
9.15853
11.1117
164.883
165.461
164.465
162.122
158.601
154.035
148.473
141.956
134.526
126.221
117.095
107.232
96.7422
85.7638
74.5221
63.377
52.7233
42.8778
34.0686
26.4669
20.2148
15.4282
12.1818
10.5186
10.5055
12.2509
156.112
156.937
156.314
154.447
151.495
147.582
142.747
137.017
130.412
122.951
114.665
105.617
95.8957
85.6215
75.0007
64.3772
54.1308
44.5701
35.9309
28.4018
22.1396
17.2741
13.8974
12.0691
11.8641
13.3993
148.829
148.507
147.045
144.579
141.23
137.037
132.011
126.161
119.486
112
103.743
94.7821
85.2164
75.2308
65.151
55.3426
46.1034
37.6721
30.2503
24.0083
19.0892
15.6008
13.6198
13.2285
14.5523
141.128
141.048
139.925
137.876
135.016
131.384
126.986
121.82
115.872
109.139
101.64
93.4227
84.5618
75.2188
65.6999
56.355
47.47
39.2822
32.0018
25.8108
20.8639
17.2841
15.1639
14.5934
15.7054
133.933
133.091
131.402
128.965
125.823
121.983
117.433
112.15
106.119
99.3403
91.8407
83.6727
74.9737
66.0278
57.1669
48.6641
40.7522
33.6461
27.5362
22.5883
18.9383
16.6938
15.9524
16.8536
127.157
126.548
125.166
123.096
120.383
117.035
113.037
108.36
102.977
96.8752
90.0622
82.569
74.5086
66.1406
57.7786
49.6816
42.0746
35.1734
29.1745
24.2523
20.5542
18.2013
17.2991
17.9915
120.71
120.292
119.172
117.422
115.084
112.17
108.666
104.536
99.7476
94.2761
88.1138
81.2716
73.8374
66.0466
58.1932
50.5204
43.2436
36.5756
30.7161
25.8461
22.1225
19.6782
18.6265
19.1138
114.323
113.421
111.953
109.944
107.411
104.345
100.709
96.462
91.5736
86.0222
79.8014
72.9759
65.7565
58.416
51.1809
44.2549
37.8453
32.152
27.36
23.6338
21.1159
19.9271
20.2144
108.636
107.918
106.691
104.972
102.775
100.097
96.9024
93.1481
88.7955
83.8135
78.1812
71.9424
65.2831
58.4542
51.6652
45.1061
38.9768
33.4743
28.7851
25.0788
22.5057
21.1933
21.2875
102.66
101.638
100.175
98.2754
95.9401
93.1405
89.8307
85.9676
81.5129
76.4338
70.7554
64.6401
58.3165
51.9767
45.7968
39.9658
34.6757
30.1126
26.4484
23.8388
22.4171
22.3267
97.646
96.7989
95.5587
93.9207
91.8897
89.4413
86.5312
83.1132
79.1434
74.5804
69.4337
63.8423
58.0138
52.1219
46.3281
40.8096
35.7511
31.335
27.734
25.1068
23.5908
23.3259
92.8687
92.1706
91.1224
89.7179
87.9565
85.8201
83.2679
80.253
76.7267
72.6421
67.9953
62.9052
57.5572
52.1077
46.7027
41.5069
36.6955
32.4455
28.9276
26.3015
24.7066
24.2787
87.7515
86.8683
85.6716
84.1492
82.2888
80.0563
77.4045
74.2827
70.639
66.46
61.8451
56.9597
51.9427
46.9254
42.0584
37.5063
33.4385
30.0221
27.4149
25.7571
25.1792
83.5389
82.7992
81.7826
80.4714
78.8568
76.9093
74.5836
71.8289
68.5898
64.845
60.6776
56.2339
51.6364
47.0014
42.4656
38.1816
34.3098
31.0109
28.4397
26.7351
26.0213
79.5259
78.9094
78.0491
76.9279
75.5319
73.8371
71.8037
69.3804
66.5106
63.1668
59.418
55.3932
51.1993
46.9381
42.7322
38.7215
35.056
31.8891
29.3697
27.6341
26.7996
75.1974
74.4704
73.5202
72.3188
70.8482
69.075
66.9503
64.4164
61.4412
58.0816
54.4511
50.6424
46.7432
42.8624
39.127
35.6757
32.6523
30.1993
28.448
27.5087
71.6608
71.0502
70.2455
69.2187
67.9482
66.4068
64.5499
62.3203
59.6823
56.6827
53.4209
49.9767
46.4254
42.8622
39.4008
36.1681
33.2979
30.9241
29.1719
28.1442
67.7837
67.1037
66.234
65.1419
63.8059
62.1883
60.2335
57.9029
55.2343
52.3152
49.2139
45.9939
42.7379
39.5464
36.5343
33.8243
31.5407
29.8015
28.7018
64.6685
64.0984
63.3639
62.4298
61.2774
59.8734
58.1655
56.1141
53.7487
51.146
48.365
45.4584
42.497
39.5688
36.7765
34.2311
32.047
30.3335
29.1785
61.699
61.2239
60.6061
59.8143
58.8256
57.6113
56.1244
54.3254
52.2367
49.925
47.441
44.8286
42.1474
39.4737
36.8977
34.5194
32.4421
30.7659
29.5714
58.4774
57.96
57.2961
56.4528
55.4066
54.1169
52.5453
50.7079
48.6625
46.4525
44.1143
41.6976
39.2674
36.9026
34.6913
32.7262
31.0976
29.879
55.8565
55.4283
54.8735
54.1585
53.2621
52.1486
50.7812
49.171
47.3681
45.4095
43.3251
41.1561
38.9572
36.7962
34.7501
32.9008
31.3288
30.1001
53.3561
53.0045
52.5439
51.9441
51.1813
50.2237
49.0388
47.6334
46.0503
44.3212
42.4704
40.5317
38.5507
36.5847
34.7002
32.9686
31.4606
30.235
50.6859
50.3056
49.8097
49.1651
48.3454
47.3228
46.1015
44.717
43.1962
41.5591
39.8331
38.0557
36.2748
34.5469
32.9332
31.4951
30.2841
48.4701
48.1614
47.7531
47.2127
46.5157
45.6376
44.5808
43.3749
42.0424
40.5997
39.069
37.4805
35.8738
34.296
32.7991
31.4356
46.3525
46.1048
45.7718
45.3245
44.7367
43.9863
43.0758
42.03
40.8671
39.6003
38.2476
36.8332
35.3893
33.9544
32.5719
31.286
44.1336
43.8642
43.5004
43.009
42.3713
41.5905
40.6875
39.6766
38.5683
37.377
36.1221
34.829
33.5291
32.2576
31.0511
42.2454
42.0325
41.7387
41.3318
40.7938
40.1282
39.3519
38.4767
37.5106
36.465
35.3551
34.2011
33.0275
31.8627
30.7362
40.4364
40.2714
40.0371
39.7052
39.2561
38.6913
38.0271
37.2727
36.4336
35.5187
34.5401
33.5133
32.4573
31.3941
30.3472
38.5786
38.3942
38.1298
37.7584
37.282
36.7165
36.0691
35.343
34.545
33.6846
32.7735
31.8261
30.859
29.8903
36.9528
36.8127
36.6038
36.3001
35.9018
35.4231
34.8699
34.244
33.5501
32.7956
31.9893
31.1416
30.2648
29.3722
35.3908
35.2875
35.1256
34.8819
34.5525
34.1495
33.6788
33.1413
32.5398
31.8798
31.1678
30.4114
29.6187
28.7992
33.8175
33.6946
33.5042
33.2349
32.8975
32.499
32.0392
31.5193
30.9434
30.3161
29.6424
28.9278
28.1782
32.4015
32.3131
32.1664
31.9487
31.6688
31.3333
30.9414
30.4936
29.9921
29.4404
28.8418
28.199
27.5156
31.0368
30.9775
30.8679
30.6949
30.4652
30.1843
29.8518
29.4669
29.0312
28.547
28.0159
27.4391
26.8178
29.7217
29.6865
29.608
29.4742
29.2879
29.0543
28.773
28.4433
28.0656
27.6412
27.1707
26.6541
26.0909
28.4391
28.3859
28.2867
28.1382
27.9448
27.7079
27.4264
27.0996
26.728
26.3118
25.8499
25.3407
27.2347
27.2037
27.1325
27.0156
26.8572
26.6589
26.4192
26.1368
25.812
25.4442
25.0319
24.5725
26.0717
26.0591
26.011
25.9213
25.7932
25.6281
25.4245
25.1811
24.8974
24.5727
24.2051
24.9487
24.9512
24.9221
24.8561
24.754
24.617
24.4446
24.2352
23.9879
23.7015
23.3741
23.8792
23.8654
23.8203
23.7404
23.6274
23.4818
23.302
23.0865
22.8342
22.5428
22.8433
22.8428
22.8139
22.7525
22.6602
22.5378
22.3836
22.1962
21.9738
21.7149
21.8422
21.8525
21.8368
21.7911
21.7167
21.6142
21.4823
21.3191
21.1235
20.8935
20.875
20.8941
20.8894
20.8569
20.7976
20.7123
20.5995
20.4579
20.2857
20.0816
19.9412
19.967
19.9711
19.95
19.9039
19.833
19.737
19.6139
19.4627
19.2814
19.0707
19.0816
19.071
19.0359
18.9774
18.8955
18.789
18.656
18.4952
18.2054
18.2223
18.2193
18.1935
18.1456
18.0762
17.9839
17.8672
17.7246
17.3701
17.3917
17.395
17.3769
17.3384
17.2797
17.1999
17.0974
16.564
16.5895
16.5979
16.5865
16.5559
16.5068
16.4378
16.348
15.7865
15.8151
15.8277
15.8219
15.7984
15.7574
15.6982
15.6197
15.037
15.0678
15.0839
15.0833
15.0658
15.0322
14.9817
14.9134
14.3471
14.3658
14.3702
14.3584
14.3309
14.2881
14.2289
13.6541
13.6754
13.6835
13.6762
13.6546
13.6187
13.5679
13.0938
13.1179
13.1292
13.1257
13.1082
13.0773
13.0321
12.628
12.6552
12.6695
12.6691
12.655
12.6277
12.5864
12.1492
12.1796
12.197
12.1999
12.1893
12.1657
12.1285
11.6592
11.693
11.7136
11.7199
11.7129
11.693
11.6602
11.1603
11.1978
11.222
11.2319
11.2285
11.2127
10.6521
10.694
10.7228
10.7376
10.7393
10.7285
10.1374
10.1829
10.2152
10.2341
10.24
10.2341
9.68688
9.72595
9.75139
9.7624
9.76004
9.13602
9.18806
9.22951
9.25929
9.278
8.61351
8.64733
8.66624
8.6706
8.66247
8.5072
8.62834
8.73678
8.83074
8.9089
6.13247
6.12265
6.10842
6.08861
6.0673
11.2982
11.5453
11.7587
11.9426
12.0905
)
;

boundaryField
{
    inlet
    {
        type            freestreamPressure;
        freestreamValue uniform 0;
        value           nonuniform List<scalar> 5(6.38503 6.52308 6.64212 6.74453 6.82665);
    }
    outlet
    {
        type            freestreamPressure;
        freestreamValue nonuniform List<scalar> 0();
        value           nonuniform List<scalar> 0();
    }
    walls
    {
        type            zeroGradient;
    }
    frontAndBack
    {
        type            empty;
    }
    procBoundary1to0
    {
        type            processor;
        value           nonuniform List<scalar> 
94
(
162.886
162.886
168.089
168.089
170.454
170.454
170.206
170.206
167.368
167.368
162.459
162.459
153.573
147.814
147.814
139.963
133.817
133.817
126.881
120.303
114.583
114.583
108.76
103.223
103.223
98.0737
93.1789
88.3215
88.3215
83.9945
79.8821
75.7088
75.7088
72.076
68.2948
68.2948
65.0881
62.0378
58.8712
58.8712
56.1754
53.6088
50.9722
50.9722
48.6961
46.5257
44.3297
44.3297
42.3941
40.544
38.7039
38.7039
37.0414
35.448
33.8903
33.8903
32.4464
31.0583
29.7236
28.4552
28.4552
27.2334
26.0559
24.9214
23.8655
23.8655
22.8192
21.8097
20.8358
19.8969
19.0403
19.0403
18.1705
17.3316
16.5228
15.7433
14.9924
14.315
14.315
13.6203
13.0575
12.5883
12.106
11.6124
11.1094
10.5967
10.0781
9.63434
9.63434
9.07361
8.56352
8.37503
6.13925
10.9963
)
;
    }
    procBoundary1to2
    {
        type            processor;
        value           nonuniform List<scalar> 
84
(
4.26279
5.18528
5.91284
6.60368
7.36423
8.23103
8.97129
9.85855
10.679
11.5595
12.4297
13.3214
14.2157
15.1175
16.0207
16.9235
17.8223
18.7137
19.5944
20.4604
21.3084
22.134
22.9338
23.7035
24.4394
25.1374
25.7938
26.4046
26.9663
27.4752
27.9285
28.3228
28.6557
28.9249
29.1289
29.2661
29.336
29.3385
30.2493
30.2493
30.1336
29.9403
29.673
29.3362
28.9349
28.4743
27.9599
27.3975
26.7927
26.1513
25.4789
24.7807
24.0619
23.791
23.791
23.0018
22.2087
21.4154
20.6256
19.8419
19.0673
18.3039
17.5541
16.9709
16.9709
16.236
15.5208
14.826
14.1522
13.5008
12.9715
12.5302
12.0771
11.6138
11.1838
11.1838
10.7051
10.2162
9.74489
9.28561
8.64389
8.96882
6.04941
12.1988
)
;
    }
    procBoundary1to5
    {
        type            processor;
        value           nonuniform List<scalar> 
13
(
334.24
334.24
307.692
294.409
294.409
257.487
243.598
243.598
207.613
195.857
184.382
184.382
153.753
)
;
    }
}


// ************************************************************************* //
