/*--------------------------------*- C++ -*----------------------------------*\
| =========                 |                                                 |
| \\      /  F ield         | OpenFOAM: The Open Source CFD Toolbox           |
|  \\    /   O peration     | Version:  2506                                  |
|   \\  /    A nd           | Website:  www.openfoam.com                      |
|    \\/     M anipulation  |                                                 |
\*---------------------------------------------------------------------------*/
FoamFile
{
    version     2.0;
    format      ascii;
    arch        "LSB;label=32;scalar=64";
    class       volScalarField;
    location    "150";
    object      turbulenceProperties:epsilon;
}
// * * * * * * * * * * * * * * * * * * * * * * * * * * * * * * * * * * * * * //

dimensions      [0 2 -3 0 0 0 0];

internalField   nonuniform List<scalar> 
1340
(
0.00607045
0.00813869
0.0156828
0.033002
0.0675781
0.130308
0.234792
0.395787
0.634259
0.986903
1.52495
2.38583
3.81946
6.35104
10.9089
19.9454
37.3762
77.0779
158.789
364.522
728.035
1002.97
1115.92
1145.1
1144.74
1129.38
1101.7
1062.62
0.00333871
0.00263382
0.00201808
0.00147559
0.00104844
0.000738343
0.000516328
0.000357243
0.0002446
0.000166147
0.0001114
7.35237e-05
4.65923e-05
2.7143e-05
1.2862e-05
3.98529e-06
3.76514e-07
4.61713e-09
1.05405e-06
0.00127864
0.00835924
0.0643126
0.197866
0.35716
0.514219
0.672392
0.838845
1.01807
1.21077
0.00214743
0.00174853
0.00140799
0.00107927
0.000779614
0.000539063
0.000361584
0.000236731
0.000153727
0.000100132
6.66097e-05
4.59236e-05
3.34329e-05
2.57982e-05
2.12064e-05
1.85765e-05
1.73369e-05
1.68706e-05
1.70816e-05
1.70903e-05
1.88921e-05
6.02174e-06
0.000238101
0.00115674
0.00231242
0.00423195
0.0115895
0.0314567
0.0691567
0.00153321
0.00132467
0.00112257
0.00092335
0.00072775
0.000553932
0.000413951
0.000306932
0.00022699
0.000168681
0.000126464
9.62808e-05
7.47169e-05
5.939e-05
4.82031e-05
3.99682e-05
3.36327e-05
2.83946e-05
2.33193e-05
1.85944e-05
1.50918e-05
1.26672e-05
1.11787e-05
8.83285e-06
7.97517e-06
2.18391e-06
1.28672e-06
2.35556e-05
1.37217e-05
0.000102181
0.000969556
0.000855738
0.000741631
0.000626265
0.000511238
0.000404842
0.000312965
0.000237189
0.000176591
0.000129736
9.453e-05
6.87549e-05
5.02825e-05
3.72916e-05
2.81825e-05
2.18059e-05
1.72531e-05
1.38562e-05
1.09698e-05
8.36537e-06
6.26406e-06
4.82965e-06
3.96116e-06
3.66835e-06
3.05879e-06
5.0637e-06
6.42102e-08
1.22845e-05
6.20078e-05
1.66639e-05
0.000693088
0.000632135
0.00056737
0.000500731
0.000431489
0.00036171
0.000295601
0.000236567
0.000186224
0.000144655
0.000111374
8.54895e-05
6.57995e-05
5.10674e-05
4.01685e-05
3.21011e-05
2.60701e-05
2.14141e-05
1.76114e-05
1.41728e-05
1.09651e-05
8.2748e-06
6.23082e-06
4.74123e-06
3.64761e-06
2.84497e-06
2.23313e-06
1.69075e-06
1.1812e-06
3.64164e-07
3.43804e-07
0.000461439
0.00042462
0.000386037
0.000345492
0.000302787
0.000259653
0.00021802
0.000179649
0.00014561
0.000116268
9.16954e-05
7.16898e-05
5.57741e-05
4.33732e-05
3.38741e-05
2.66522e-05
2.11656e-05
1.69348e-05
1.35543e-05
1.06576e-05
8.09173e-06
5.97501e-06
4.37735e-06
3.2279e-06
2.40734e-06
1.83269e-06
1.45899e-06
1.24033e-06
1.09795e-06
9.50202e-07
4.85489e-07
0.000315186
0.000292139
0.000268187
0.000242723
0.000215818
0.000188569
0.000161861
0.000136695
0.000113728
9.32919e-05
7.56013e-05
6.07231e-05
4.8496e-05
3.86758e-05
3.09293e-05
2.48745e-05
2.01392e-05
1.63821e-05
1.32992e-05
1.0621e-05
8.23345e-06
6.22475e-06
4.65517e-06
3.47423e-06
2.58522e-06
1.91512e-06
1.41762e-06
1.04814e-06
7.72983e-07
5.72667e-07
4.40447e-07
0.000232924
0.000219865
0.000205113
0.000189744
0.00017328
0.000155971
0.000138432
0.000121066
0.000104408
8.88407e-05
7.45936e-05
6.18621e-05
5.07774e-05
4.13502e-05
3.35035e-05
2.70942e-05
2.19244e-05
1.77718e-05
1.44096e-05
1.16243e-05
9.22991e-06
7.13697e-06
5.38397e-06
4.00978e-06
2.97612e-06
2.20514e-06
1.63284e-06
1.2163e-06
9.24476e-07
7.27571e-07
6.01808e-07
5.31062e-07
0.000156136
0.000146472
0.000136315
0.000125449
0.0001141
0.000102605
9.11529e-05
8.00278e-05
6.94283e-05
5.94908e-05
5.03781e-05
4.22153e-05
3.50575e-05
2.8923e-05
2.37609e-05
1.94792e-05
1.59527e-05
1.30357e-05
1.05829e-05
8.46755e-06
6.61993e-06
5.06148e-06
3.81977e-06
2.86714e-06
2.14276e-06
1.59335e-06
1.18227e-06
8.79697e-07
6.59486e-07
5.06831e-07
4.0491e-07
0.000106097
9.92251e-05
9.19223e-05
8.43733e-05
7.67173e-05
6.90624e-05
6.1555e-05
5.43004e-05
4.73716e-05
4.08657e-05
3.4883e-05
2.94861e-05
2.47181e-05
2.05883e-05
1.70634e-05
1.40805e-05
1.15581e-05
9.40613e-06
7.54218e-06
5.92006e-06
4.54993e-06
3.44779e-06
2.59375e-06
1.94103e-06
1.4458e-06
1.07626e-06
8.07186e-07
6.16745e-07
4.89116e-07
4.07081e-07
7.30633e-05
6.80626e-05
6.29704e-05
5.78066e-05
5.26175e-05
4.75085e-05
4.25179e-05
3.76703e-05
3.30353e-05
2.86758e-05
2.46388e-05
2.09751e-05
1.77095e-05
1.48478e-05
1.23681e-05
1.02274e-05
8.37103e-06
6.74964e-06
5.3379e-06
4.13951e-06
3.16455e-06
2.39876e-06
1.80672e-06
1.35298e-06
1.01036e-06
7.57085e-07
5.7344e-07
4.46285e-07
3.62613e-07
5.08684e-05
4.73664e-05
4.38606e-05
4.02954e-05
3.67838e-05
3.33305e-05
2.99374e-05
2.66337e-05
2.34643e-05
2.04629e-05
1.76702e-05
1.51152e-05
1.28161e-05
1.07739e-05
8.97227e-06
7.38439e-06
5.98566e-06
4.76319e-06
3.72044e-06
2.86326e-06
2.182e-06
1.65035e-06
1.2401e-06
9.28654e-07
6.97687e-07
5.30556e-07
4.15063e-07
3.39439e-07
3.58937e-05
3.3455e-05
3.10084e-05
2.85692e-05
2.61658e-05
2.37813e-05
2.14295e-05
1.91316e-05
1.69087e-05
1.47932e-05
1.28114e-05
1.09838e-05
9.32062e-06
7.82243e-06
6.48038e-06
5.28674e-06
4.23744e-06
3.33597e-06
2.58729e-06
1.98484e-06
1.50956e-06
1.13958e-06
8.56318e-07
6.44432e-07
4.89397e-07
3.8067e-07
3.08142e-07
2.56527e-05
2.39703e-05
2.22545e-05
2.05693e-05
1.88897e-05
1.72114e-05
1.55471e-05
1.39078e-05
1.23138e-05
1.07863e-05
9.34516e-06
8.00543e-06
6.77443e-06
5.65279e-06
4.64144e-06
3.74544e-06
2.97065e-06
2.32063e-06
1.79121e-06
1.36904e-06
1.03757e-06
7.81852e-07
5.89269e-07
4.47564e-07
3.47565e-07
2.8018e-07
1.97804e-05
1.85769e-05
1.73891e-05
1.61966e-05
1.5004e-05
1.38042e-05
1.25965e-05
1.13892e-05
1.01938e-05
9.02524e-06
7.89928e-06
6.82997e-06
5.82795e-06
4.89922e-06
4.05145e-06
3.29307e-06
2.63155e-06
2.07053e-06
1.60816e-06
1.23541e-06
9.40039e-07
7.10288e-07
5.35898e-07
4.06521e-07
3.14289e-07
2.51288e-07
1.44488e-05
1.36218e-05
1.27676e-05
1.19172e-05
1.1056e-05
1.01802e-05
9.29195e-06
8.39956e-06
7.51106e-06
6.63824e-06
5.79245e-06
4.98386e-06
4.22144e-06
3.51601e-06
2.87867e-06
2.31707e-06
1.83593e-06
1.43476e-06
1.10774e-06
8.46153e-07
6.40949e-07
4.83932e-07
3.66556e-07
2.82129e-07
2.23768e-07
1.12825e-05
1.06823e-05
1.00794e-05
9.46646e-06
8.84489e-06
8.20862e-06
7.55661e-06
6.89268e-06
6.22088e-06
5.54813e-06
4.8839e-06
4.23748e-06
3.6175e-06
3.0348e-06
2.50193e-06
2.0285e-06
1.61869e-06
1.27298e-06
9.87959e-07
7.57695e-07
5.75411e-07
4.34705e-07
3.28624e-07
2.51562e-07
1.97589e-07
8.39257e-06
7.96604e-06
7.51881e-06
7.06962e-06
6.60846e-06
6.13076e-06
5.63738e-06
5.1306e-06
4.61482e-06
4.09599e-06
3.58184e-06
3.0807e-06
2.60365e-06
2.16244e-06
1.76607e-06
1.41915e-06
1.12307e-06
8.76186e-07
6.74679e-07
5.13642e-07
3.88201e-07
2.92781e-07
2.22782e-07
1.73112e-07
6.60748e-06
6.29876e-06
5.97632e-06
5.65086e-06
5.31494e-06
4.96379e-06
4.59669e-06
4.2144e-06
3.81975e-06
3.41696e-06
3.01127e-06
2.60936e-06
2.22144e-06
1.85847e-06
1.52868e-06
1.23687e-06
9.84939e-07
7.72439e-07
5.97135e-07
4.55661e-07
3.4439e-07
2.58968e-07
1.9568e-07
1.502e-07
5.21197e-06
4.98321e-06
4.75508e-06
4.51532e-06
4.2682e-06
4.00921e-06
3.7361e-06
3.44859e-06
3.14786e-06
2.83624e-06
2.51796e-06
2.19819e-06
1.88505e-06
1.5881e-06
1.31539e-06
1.07152e-06
8.58469e-07
6.76648e-07
5.24994e-07
4.01373e-07
3.03168e-07
2.27122e-07
1.70214e-07
1.28842e-07
3.94684e-06
3.78379e-06
3.60491e-06
3.42309e-06
3.23221e-06
3.02879e-06
2.81234e-06
2.58352e-06
2.34368e-06
2.09518e-06
1.84199e-06
1.59072e-06
1.3496e-06
1.12555e-06
9.22817e-07
7.43649e-07
5.88933e-07
4.58462e-07
3.51022e-07
2.64817e-07
1.97476e-07
1.46567e-07
1.09168e-07
3.13181e-06
3.00703e-06
2.8793e-06
2.74382e-06
2.60137e-06
2.44921e-06
2.28617e-06
2.11246e-06
1.9286e-06
1.73572e-06
1.53638e-06
1.33586e-06
1.14098e-06
9.57839e-07
7.90132e-07
6.40286e-07
5.0941e-07
3.97826e-07
3.04975e-07
2.29706e-07
1.70365e-07
1.25044e-07
9.14365e-08
2.3918e-06
2.29925e-06
2.19596e-06
2.08959e-06
1.97619e-06
1.85401e-06
1.72269e-06
1.5821e-06
1.43265e-06
1.27608e-06
1.11651e-06
9.59603e-07
8.10515e-07
6.72683e-07
5.48081e-07
4.38014e-07
3.43122e-07
2.633e-07
1.97909e-07
1.45874e-07
1.05728e-07
7.57025e-08
1.90355e-06
1.83327e-06
1.7568e-06
1.6778e-06
1.59324e-06
1.5014e-06
1.4015e-06
1.29352e-06
1.17761e-06
1.05495e-06
9.28567e-07
8.02991e-07
6.82298e-07
5.6957e-07
4.6648e-07
3.74383e-07
2.94061e-07
2.25764e-07
1.69229e-07
1.23819e-07
8.84535e-08
6.18142e-08
1.51553e-06
1.46173e-06
1.40664e-06
1.34679e-06
1.28264e-06
1.21281e-06
1.13652e-06
1.05365e-06
9.64087e-07
8.68407e-07
7.68793e-07
6.68712e-07
5.71538e-07
4.79691e-07
3.9479e-07
3.18065e-07
2.50383e-07
1.92226e-07
1.43581e-07
1.04133e-07
7.31534e-08
4.96905e-08
1.16612e-06
1.12574e-06
1.07897e-06
1.03021e-06
9.7725e-07
9.19283e-07
8.5605e-07
7.87167e-07
7.12748e-07
6.34424e-07
5.54819e-07
4.7671e-07
4.02113e-07
3.32421e-07
2.68747e-07
2.11982e-07
1.62675e-07
1.21013e-07
8.69115e-08
5.99154e-08
3.93787e-08
9.30787e-07
8.99081e-07
8.63822e-07
8.26944e-07
7.86919e-07
7.42938e-07
6.94504e-07
6.41303e-07
5.83317e-07
5.21704e-07
4.58499e-07
3.95879e-07
3.35497e-07
2.78528e-07
2.25934e-07
1.78551e-07
1.36953e-07
1.01447e-07
7.21154e-08
4.87115e-08
3.08379e-08
7.42853e-07
7.17855e-07
6.92365e-07
6.63891e-07
6.33196e-07
5.99533e-07
5.6229e-07
5.21107e-07
4.75929e-07
4.2755e-07
3.77468e-07
3.27442e-07
2.78742e-07
2.32355e-07
1.89094e-07
1.49707e-07
1.14774e-07
8.46499e-08
5.95374e-08
3.93521e-08
2.38917e-08
5.73663e-07
5.54835e-07
5.32345e-07
5.08765e-07
4.8303e-07
4.54434e-07
4.22571e-07
3.87368e-07
3.49405e-07
3.09805e-07
2.69895e-07
2.3073e-07
1.93074e-07
1.57619e-07
1.25008e-07
9.57908e-08
7.03482e-08
4.89469e-08
3.1633e-08
1.83424e-08
4.59043e-07
4.43414e-07
4.27052e-07
4.08842e-07
3.88965e-07
3.66849e-07
3.42093e-07
3.14599e-07
2.84794e-07
2.53539e-07
2.21797e-07
1.90393e-07
1.59921e-07
1.30953e-07
1.04048e-07
7.97003e-08
5.83023e-08
4.01444e-08
2.53671e-08
1.40096e-08
3.54914e-07
3.42806e-07
3.28229e-07
3.12799e-07
2.95676e-07
2.76474e-07
2.55084e-07
2.31769e-07
2.07138e-07
1.81935e-07
1.56779e-07
1.32161e-07
1.08549e-07
8.64201e-08
6.62075e-08
4.82805e-08
3.29461e-08
2.03943e-08
1.07413e-08
2.84362e-07
2.74548e-07
2.63375e-07
2.51486e-07
2.38281e-07
2.23451e-07
2.06806e-07
1.88519e-07
1.69066e-07
1.4902e-07
1.28876e-07
1.09024e-07
8.98385e-08
7.17019e-08
5.49929e-08
4.00454e-08
2.71597e-08
1.65535e-08
8.38609e-09
2.27815e-07
2.19945e-07
2.11718e-07
2.02433e-07
1.92176e-07
1.80616e-07
1.67548e-07
1.53134e-07
1.37762e-07
1.21859e-07
1.05786e-07
8.98338e-08
7.43e-08
5.9494e-08
4.57406e-08
3.33348e-08
2.25571e-08
1.36405e-08
6.76056e-09
1.76526e-07
1.7038e-07
1.62883e-07
1.54858e-07
1.45824e-07
1.35598e-07
1.24297e-07
1.12203e-07
9.96244e-08
8.68307e-08
7.40424e-08
6.1496e-08
4.94476e-08
3.81629e-08
2.79068e-08
1.89319e-08
1.1469e-08
5.69655e-09
1.41895e-07
1.3685e-07
1.31071e-07
1.2484e-07
1.17813e-07
1.09857e-07
1.01016e-07
9.14913e-08
8.15306e-08
7.13405e-08
6.10948e-08
5.09819e-08
4.1204e-08
3.19825e-08
2.35423e-08
1.61061e-08
9.8887e-09
5.06274e-09
1.14081e-07
1.10019e-07
1.05737e-07
1.00837e-07
9.53522e-08
8.9129e-08
8.21636e-08
7.46371e-08
6.67441e-08
5.86437e-08
5.04639e-08
4.23458e-08
3.44475e-08
2.69512e-08
2.00416e-08
1.39121e-08
8.75724e-09
4.73502e-09
8.86755e-08
8.54593e-08
8.15049e-08
7.72032e-08
7.23162e-08
6.68388e-08
6.09149e-08
5.46948e-08
4.82876e-08
4.17845e-08
3.52919e-08
2.89381e-08
2.28668e-08
1.72344e-08
1.22045e-08
7.94741e-09
4.60768e-09
7.16307e-08
6.89888e-08
6.59359e-08
6.25835e-08
5.87671e-08
5.44921e-08
4.98501e-08
4.49527e-08
3.98866e-08
3.47213e-08
2.95392e-08
2.44415e-08
1.95428e-08
1.49703e-08
1.08641e-08
7.35853e-09
5.79052e-08
5.57774e-08
5.35155e-08
5.08789e-08
4.78912e-08
4.45443e-08
4.08928e-08
3.70285e-08
3.30249e-08
2.8933e-08
2.48129e-08
2.07417e-08
1.68104e-08
1.31194e-08
9.78367e-09
6.91361e-09
4.52461e-08
4.35475e-08
4.14257e-08
3.90828e-08
3.64558e-08
3.35875e-08
3.05554e-08
2.74095e-08
2.41855e-08
2.09272e-08
1.76933e-08
1.45539e-08
1.15892e-08
8.8916e-09
6.55151e-09
3.68058e-08
3.54128e-08
3.37805e-08
3.19554e-08
2.99036e-08
2.76714e-08
2.5306e-08
2.28408e-08
2.03069e-08
1.77375e-08
1.51768e-08
1.26787e-08
1.03064e-08
8.13362e-09
6.23214e-09
2.99699e-08
2.88563e-08
2.7648e-08
2.62129e-08
2.46134e-08
2.2878e-08
2.10278e-08
1.9095e-08
1.7106e-08
1.50858e-08
1.30661e-08
1.1088e-08
9.1996e-09
7.45857e-09
5.92058e-09
2.3598e-08
2.26889e-08
2.15474e-08
2.03023e-08
1.89472e-08
1.75027e-08
1.59953e-08
1.44437e-08
1.28648e-08
1.12815e-08
9.72436e-09
8.22957e-09
6.8415e-09
5.60275e-09
1.93542e-08
1.86181e-08
1.77467e-08
1.67799e-08
1.57275e-08
1.46115e-08
1.34456e-08
1.22413e-08
1.10119e-08
9.77525e-09
8.5538e-09
7.37473e-09
6.27175e-09
5.27695e-09
1.58952e-08
1.53104e-08
1.4667e-08
1.39129e-08
1.30995e-08
1.22404e-08
1.13386e-08
1.04038e-08
9.44819e-09
8.48461e-09
7.52957e-09
6.60302e-09
5.73014e-09
4.93408e-09
1.26351e-08
1.21524e-08
1.15605e-08
1.09345e-08
1.02707e-08
9.57265e-09
8.84963e-09
8.11026e-09
7.36343e-09
6.62064e-09
5.89622e-09
5.2088e-09
4.5746e-09
1.04573e-08
1.00699e-08
9.62066e-09
9.14051e-09
8.62845e-09
8.09154e-09
7.53636e-09
6.96829e-09
6.39276e-09
5.81771e-09
5.25375e-09
4.7144e-09
4.21086e-09
8.66032e-09
8.36371e-09
8.02185e-09
7.65329e-09
7.26204e-09
6.85349e-09
6.43052e-09
5.99571e-09
5.5531e-09
5.10915e-09
4.67139e-09
4.24931e-09
3.85032e-09
7.18761e-09
6.95448e-09
6.70624e-09
6.42266e-09
6.12438e-09
5.81488e-09
5.49259e-09
5.15925e-09
4.81929e-09
4.47744e-09
4.13847e-09
3.80895e-09
3.49355e-09
5.79909e-09
5.6146e-09
5.3952e-09
5.16914e-09
4.93358e-09
4.68694e-09
4.43208e-09
4.17208e-09
3.90985e-09
3.64825e-09
3.39207e-09
3.1434e-09
4.84364e-09
4.69665e-09
4.53296e-09
4.36217e-09
4.182e-09
3.99416e-09
3.80057e-09
3.60265e-09
3.40228e-09
3.20112e-09
3.00342e-09
2.80787e-09
4.04255e-09
3.93115e-09
3.80806e-09
3.67782e-09
3.54137e-09
3.40004e-09
3.25381e-09
3.10343e-09
2.95051e-09
2.79661e-09
2.64334e-09
3.37416e-09
3.28636e-09
3.19799e-09
3.09815e-09
2.99498e-09
2.88881e-09
2.77818e-09
2.66386e-09
2.54716e-09
2.42944e-09
2.31072e-09
2.74612e-09
2.6804e-09
2.60353e-09
2.52565e-09
2.44516e-09
2.36117e-09
2.27437e-09
2.18563e-09
2.09594e-09
2.00477e-09
2.29042e-09
2.23725e-09
2.18031e-09
2.12178e-09
2.06049e-09
1.99675e-09
1.93123e-09
1.86437e-09
1.79639e-09
1.72664e-09
1.90312e-09
1.86295e-09
1.82004e-09
1.77578e-09
1.72945e-09
1.68153e-09
1.63251e-09
1.58228e-09
1.5309e-09
1.4779e-09
1.57775e-09
1.54728e-09
1.51527e-09
1.48196e-09
1.44742e-09
1.41196e-09
1.37545e-09
1.33784e-09
1.29931e-09
1.25937e-09
1.30687e-09
1.28313e-09
1.26099e-09
1.23571e-09
1.21003e-09
1.18398e-09
1.15696e-09
1.1289e-09
1.10006e-09
1.07e-09
1.06502e-09
1.04899e-09
1.02989e-09
1.01094e-09
9.91661e-10
9.71496e-10
9.50521e-10
9.28935e-10
9.06136e-10
8.8419e-10
8.71131e-10
8.57262e-10
8.4322e-10
8.28538e-10
8.1333e-10
7.97599e-10
7.81519e-10
7.64081e-10
7.31887e-10
7.2176e-10
7.11112e-10
7.00232e-10
6.88878e-10
6.77224e-10
6.65265e-10
6.52941e-10
6.02463e-10
5.94219e-10
5.85618e-10
5.76928e-10
5.67968e-10
5.58829e-10
5.49587e-10
5.39999e-10
4.91605e-10
4.846e-10
4.77515e-10
4.70349e-10
4.63159e-10
4.55991e-10
4.48811e-10
4.41467e-10
3.97378e-10
3.91119e-10
3.85615e-10
3.79554e-10
3.73718e-10
3.68113e-10
3.62568e-10
3.56979e-10
3.1331e-10
3.08691e-10
3.03629e-10
2.98946e-10
2.94499e-10
2.90174e-10
2.85894e-10
2.5054e-10
2.46366e-10
2.42298e-10
2.3851e-10
2.34897e-10
2.31462e-10
2.28162e-10
2.03663e-10
2.00043e-10
1.96531e-10
1.93267e-10
1.90199e-10
1.87318e-10
1.84607e-10
1.70152e-10
1.66918e-10
1.63845e-10
1.60979e-10
1.58262e-10
1.55723e-10
1.53339e-10
1.43094e-10
1.40307e-10
1.37652e-10
1.3515e-10
1.32756e-10
1.30523e-10
1.28395e-10
1.19246e-10
1.16783e-10
1.14428e-10
1.12184e-10
1.10038e-10
1.08104e-10
1.06198e-10
9.89799e-11
9.66777e-11
9.44041e-11
9.21836e-11
9.00491e-11
8.80795e-11
8.09346e-11
7.86513e-11
7.6402e-11
7.41627e-11
7.20117e-11
6.99597e-11
6.26048e-11
5.97542e-11
5.70655e-11
5.43963e-11
5.19593e-11
4.98022e-11
4.13325e-11
3.80755e-11
3.47845e-11
3.16309e-11
2.86963e-11
2.49119e-11
2.23813e-11
2.02375e-11
1.85172e-11
1.72859e-11
2.38047e-11
2.20867e-11
2.08379e-11
1.99718e-11
1.94462e-11
8.87933e-11
1.02589e-10
1.16963e-10
1.31464e-10
1.45693e-10
4.9473e-10
5.10651e-10
5.23253e-10
5.32451e-10
5.3863e-10
1.89298e-09
1.93867e-09
1.97217e-09
1.99373e-09
2.00548e-09
)
;

boundaryField
{
    inlet
    {
        type            calculated;
        value           nonuniform List<scalar> 5(1.71032e-08 1.80401e-08 1.89029e-08 1.96864e-08 2.03868e-08);
    }
    outlet
    {
        type            calculated;
        value           nonuniform List<scalar> 0();
    }
    walls
    {
        type            calculated;
        value           uniform 0;
    }
    frontAndBack
    {
        type            empty;
    }
    procBoundary1to0
    {
        type            processor;
        value           nonuniform List<scalar> 
94
(
0.000164974
0.000164974
0.000112587
0.000112587
7.77827e-05
7.77827e-05
5.43347e-05
5.43347e-05
3.83254e-05
3.83254e-05
2.73681e-05
2.73681e-05
2.09768e-05
1.53059e-05
1.53059e-05
1.18854e-05
8.82806e-06
8.82806e-06
6.92121e-06
5.4387e-06
4.1155e-06
4.1155e-06
3.25274e-06
2.48491e-06
2.48491e-06
1.97225e-06
1.56676e-06
1.20686e-06
1.20686e-06
9.61135e-07
7.6583e-07
5.92743e-07
5.92743e-07
4.73119e-07
3.66913e-07
3.66913e-07
2.93425e-07
2.34835e-07
1.82592e-07
1.82592e-07
1.46488e-07
1.17653e-07
9.18154e-08
9.18154e-08
7.40086e-08
5.97504e-08
4.68842e-08
4.68842e-08
3.80406e-08
3.0923e-08
2.44546e-08
2.44546e-08
1.99961e-08
1.63842e-08
1.30813e-08
1.30813e-08
1.07893e-08
8.91486e-09
7.37863e-09
5.97437e-09
5.97437e-09
4.97242e-09
4.14043e-09
3.44718e-09
2.81253e-09
2.81253e-09
2.33937e-09
1.94088e-09
1.60645e-09
1.32782e-09
1.08248e-09
1.08248e-09
8.96624e-10
7.41649e-10
6.10549e-10
4.98528e-10
4.03259e-10
3.18608e-10
3.18608e-10
2.54913e-10
2.07557e-10
1.73562e-10
1.46006e-10
1.21799e-10
1.0131e-10
8.31938e-11
6.53323e-11
4.46035e-11
4.46035e-11
2.77568e-11
2.60156e-11
7.56338e-11
4.764e-10
1.83417e-09
)
;
    }
    procBoundary1to2
    {
        type            processor;
        value           nonuniform List<scalar> 
84
(
1014.06
1.42913
0.124967
0.00110555
4.25678e-05
3.29371e-06
1.98933e-08
3.04045e-07
5.34858e-07
3.78871e-07
3.91666e-07
3.36619e-07
3.12992e-07
2.79611e-07
2.51533e-07
2.22361e-07
1.95122e-07
1.69431e-07
1.45766e-07
1.23973e-07
1.04033e-07
8.60044e-08
7.00419e-08
5.61527e-08
4.41699e-08
3.39673e-08
2.55114e-08
1.87103e-08
1.33786e-08
9.30892e-09
6.31178e-09
4.22528e-09
2.89559e-09
2.15305e-09
1.84288e-09
1.84388e-09
2.04663e-09
2.35943e-09
4.60736e-09
4.60736e-09
4.6428e-09
4.68062e-09
4.69458e-09
4.66095e-09
4.57375e-09
4.438e-09
4.25224e-09
4.02243e-09
3.76494e-09
3.49087e-09
3.20454e-09
2.91201e-09
2.6262e-09
2.49311e-09
2.49311e-09
2.19435e-09
1.91476e-09
1.6573e-09
1.42496e-09
1.21922e-09
1.03949e-09
8.83e-10
7.46965e-10
6.40129e-10
6.40129e-10
5.30447e-10
4.3433e-10
3.51642e-10
2.81924e-10
2.25186e-10
1.82217e-10
1.51228e-10
1.26521e-10
1.04656e-10
8.62403e-11
8.62403e-11
6.80723e-11
4.79528e-11
2.60388e-11
1.65471e-11
1.91338e-11
1.59099e-10
5.42547e-10
2.00964e-09
)
;
    }
    procBoundary1to5
    {
        type            processor;
        value           nonuniform List<scalar> 
13
(
0.0093914
0.0093914
0.00419737
0.00255898
0.00255898
0.00172594
0.00107288
0.00107288
0.000742583
0.000492047
0.000334983
0.000334983
0.000243798
)
;
    }
}


// ************************************************************************* //
