/*--------------------------------*- C++ -*----------------------------------*\
| =========                 |                                                 |
| \\      /  F ield         | OpenFOAM: The Open Source CFD Toolbox           |
|  \\    /   O peration     | Version:  2506                                  |
|   \\  /    A nd           | Website:  www.openfoam.com                      |
|    \\/     M anipulation  |                                                 |
\*---------------------------------------------------------------------------*/
FoamFile
{
    version     2.0;
    format      ascii;
    arch        "LSB;label=32;scalar=64";
    class       volScalarField;
    location    "150";
    object      turbulenceProperties:nut;
}
// * * * * * * * * * * * * * * * * * * * * * * * * * * * * * * * * * * * * * //

dimensions      [0 2 -1 0 0 0 0];

internalField   nonuniform List<scalar> 
1340
(
6.78009e-06
8.44081e-06
1.16306e-05
1.69217e-05
2.55028e-05
3.90008e-05
5.93042e-05
8.78259e-05
0.00012624
0.000178131
0.000251518
0.000362075
0.000536786
0.00083178
0.00133827
0.00230331
0.00409025
0.00806957
0.0160763
0.0360108
0.0707416
0.0965136
0.106978
0.110006
0.110851
0.110896
0.110351
0.109303
5.94139e-06
6.05585e-06
5.96591e-06
5.80011e-06
5.59142e-06
5.34933e-06
5.08036e-06
4.78568e-06
4.45276e-06
4.07867e-06
3.63709e-06
3.12439e-06
2.50963e-06
1.80433e-06
1.03631e-06
3.91527e-07
4.97681e-08
1.00109e-09
1.22101e-07
0.000116715
0.000697346
0.00492921
0.0155966
0.0305836
0.0455964
0.0567225
0.0632851
0.0669311
0.0692383
6.13777e-06
6.1253e-06
6.13447e-06
6.15362e-06
6.17703e-06
6.20149e-06
6.23092e-06
6.26364e-06
6.30039e-06
6.34087e-06
6.38662e-06
6.43891e-06
6.50152e-06
6.57783e-06
6.67576e-06
6.80273e-06
6.97894e-06
7.17587e-06
7.40057e-06
7.10467e-06
7.0169e-06
2.24741e-06
0.000120694
0.000928597
0.00337725
0.00818497
0.0151749
0.0235841
0.0324451
6.09633e-06
6.09925e-06
6.10259e-06
6.10264e-06
6.10135e-06
6.09916e-06
6.09689e-06
6.09502e-06
6.09313e-06
6.09116e-06
6.08895e-06
6.08603e-06
6.08326e-06
6.08061e-06
6.07802e-06
6.07521e-06
6.07206e-06
6.06798e-06
6.06455e-06
6.06026e-06
6.06918e-06
6.05119e-06
6.1812e-06
5.81946e-06
6.84826e-06
3.07257e-06
3.70788e-06
0.000263371
0.00117769
0.00333574
6.10374e-06
6.10374e-06
6.10452e-06
6.10615e-06
6.10804e-06
6.11021e-06
6.11261e-06
6.11511e-06
6.11751e-06
6.12014e-06
6.12293e-06
6.126e-06
6.12935e-06
6.133e-06
6.13693e-06
6.14115e-06
6.14567e-06
6.15065e-06
6.15607e-06
6.16289e-06
6.16838e-06
6.18631e-06
6.1562e-06
6.35201e-06
5.57697e-06
9.64426e-06
1.88289e-07
3.53797e-05
0.000279231
9.8346e-05
6.09987e-06
6.10031e-06
6.10111e-06
6.10293e-06
6.10508e-06
6.10699e-06
6.10869e-06
6.1103e-06
6.11189e-06
6.11333e-06
6.11485e-06
6.11638e-06
6.11799e-06
6.11966e-06
6.12141e-06
6.12319e-06
6.12498e-06
6.12675e-06
6.12849e-06
6.13012e-06
6.13154e-06
6.13294e-06
6.13379e-06
6.13542e-06
6.13501e-06
6.14072e-06
6.13391e-06
6.11038e-06
5.98563e-06
2.86942e-06
4.18885e-06
6.09962e-06
6.09956e-06
6.10068e-06
6.10267e-06
6.1047e-06
6.10649e-06
6.10821e-06
6.10983e-06
6.1114e-06
6.11285e-06
6.11436e-06
6.11591e-06
6.11759e-06
6.1194e-06
6.12138e-06
6.12352e-06
6.12585e-06
6.12837e-06
6.13111e-06
6.13412e-06
6.1375e-06
6.14137e-06
6.14586e-06
6.15104e-06
6.15693e-06
6.16416e-06
6.17142e-06
6.18963e-06
6.15748e-06
5.85743e-06
3.3434e-06
6.09887e-06
6.09861e-06
6.09996e-06
6.10184e-06
6.10377e-06
6.10547e-06
6.10709e-06
6.10863e-06
6.1101e-06
6.11145e-06
6.11285e-06
6.11426e-06
6.11577e-06
6.11737e-06
6.11911e-06
6.12096e-06
6.12295e-06
6.12505e-06
6.1273e-06
6.12968e-06
6.13219e-06
6.13492e-06
6.13788e-06
6.14107e-06
6.14447e-06
6.14793e-06
6.15209e-06
6.1539e-06
6.16184e-06
6.16079e-06
6.27653e-06
6.10016e-06
6.0981e-06
6.09788e-06
6.09912e-06
6.1009e-06
6.10271e-06
6.10431e-06
6.10585e-06
6.10731e-06
6.10873e-06
6.11005e-06
6.11141e-06
6.11278e-06
6.11423e-06
6.11576e-06
6.11741e-06
6.11918e-06
6.1211e-06
6.12317e-06
6.12543e-06
6.12789e-06
6.13059e-06
6.13362e-06
6.13703e-06
6.14086e-06
6.14517e-06
6.15001e-06
6.1555e-06
6.16169e-06
6.16904e-06
6.17175e-06
6.20718e-06
6.09727e-06
6.09705e-06
6.0982e-06
6.09988e-06
6.10157e-06
6.10305e-06
6.10452e-06
6.10593e-06
6.10729e-06
6.1086e-06
6.10994e-06
6.11126e-06
6.11263e-06
6.11406e-06
6.11559e-06
6.11722e-06
6.11897e-06
6.12086e-06
6.12292e-06
6.12516e-06
6.1276e-06
6.13029e-06
6.1333e-06
6.13663e-06
6.14032e-06
6.14439e-06
6.14883e-06
6.15392e-06
6.15857e-06
6.16875e-06
6.15559e-06
6.09621e-06
6.09727e-06
6.09881e-06
6.10037e-06
6.10177e-06
6.10317e-06
6.10454e-06
6.10588e-06
6.10717e-06
6.10845e-06
6.10971e-06
6.11101e-06
6.11234e-06
6.11376e-06
6.11526e-06
6.11687e-06
6.1186e-06
6.12049e-06
6.12258e-06
6.12487e-06
6.12745e-06
6.13034e-06
6.1336e-06
6.13725e-06
6.14134e-06
6.14587e-06
6.15119e-06
6.15602e-06
6.16632e-06
6.15558e-06
6.0963e-06
6.09775e-06
6.09917e-06
6.1005e-06
6.10186e-06
6.10319e-06
6.10448e-06
6.1057e-06
6.10693e-06
6.10812e-06
6.10934e-06
6.11057e-06
6.11187e-06
6.11323e-06
6.11469e-06
6.11626e-06
6.118e-06
6.11993e-06
6.12208e-06
6.12449e-06
6.1272e-06
6.13025e-06
6.13366e-06
6.13746e-06
6.14168e-06
6.14644e-06
6.15142e-06
6.15861e-06
6.16003e-06
6.09665e-06
6.09799e-06
6.09928e-06
6.10059e-06
6.10184e-06
6.10306e-06
6.10422e-06
6.10538e-06
6.1065e-06
6.10763e-06
6.10877e-06
6.10996e-06
6.11121e-06
6.11257e-06
6.11404e-06
6.11569e-06
6.11754e-06
6.11961e-06
6.12193e-06
6.12455e-06
6.12748e-06
6.13077e-06
6.13444e-06
6.13855e-06
6.14311e-06
6.14823e-06
6.1539e-06
6.16067e-06
6.09679e-06
6.09811e-06
6.09933e-06
6.10051e-06
6.10166e-06
6.10276e-06
6.10383e-06
6.10487e-06
6.10592e-06
6.10699e-06
6.10812e-06
6.10933e-06
6.11064e-06
6.11207e-06
6.11366e-06
6.11544e-06
6.11742e-06
6.11964e-06
6.12213e-06
6.12491e-06
6.12803e-06
6.13151e-06
6.1354e-06
6.13972e-06
6.14462e-06
6.14993e-06
6.15683e-06
6.0969e-06
6.09806e-06
6.0992e-06
6.10027e-06
6.10128e-06
6.10229e-06
6.10329e-06
6.10431e-06
6.10536e-06
6.10648e-06
6.10765e-06
6.10892e-06
6.11029e-06
6.11179e-06
6.11346e-06
6.11531e-06
6.11737e-06
6.11968e-06
6.12226e-06
6.12516e-06
6.12841e-06
6.13205e-06
6.13614e-06
6.14075e-06
6.14591e-06
6.15204e-06
6.09566e-06
6.09687e-06
6.09794e-06
6.09892e-06
6.09988e-06
6.10086e-06
6.10183e-06
6.10284e-06
6.10387e-06
6.10495e-06
6.10607e-06
6.10726e-06
6.10852e-06
6.10989e-06
6.1114e-06
6.11306e-06
6.11492e-06
6.11701e-06
6.11936e-06
6.12201e-06
6.12499e-06
6.12835e-06
6.13213e-06
6.1364e-06
6.14127e-06
6.14685e-06
6.09572e-06
6.09668e-06
6.09763e-06
6.09857e-06
6.09952e-06
6.10047e-06
6.10145e-06
6.10243e-06
6.10344e-06
6.10448e-06
6.10555e-06
6.10667e-06
6.10788e-06
6.10922e-06
6.11072e-06
6.1124e-06
6.11431e-06
6.11646e-06
6.11888e-06
6.12162e-06
6.12472e-06
6.1282e-06
6.13215e-06
6.13666e-06
6.14183e-06
6.09449e-06
6.09551e-06
6.09646e-06
6.09737e-06
6.09827e-06
6.09917e-06
6.10008e-06
6.10098e-06
6.1019e-06
6.10282e-06
6.10378e-06
6.10479e-06
6.10588e-06
6.1071e-06
6.10848e-06
6.11005e-06
6.11182e-06
6.11382e-06
6.11608e-06
6.11863e-06
6.12151e-06
6.12475e-06
6.12841e-06
6.13259e-06
6.13739e-06
6.09447e-06
6.09534e-06
6.09618e-06
6.09702e-06
6.09785e-06
6.09868e-06
6.0995e-06
6.10033e-06
6.10118e-06
6.10207e-06
6.10301e-06
6.10404e-06
6.10519e-06
6.1065e-06
6.10799e-06
6.10966e-06
6.11155e-06
6.11367e-06
6.11607e-06
6.11876e-06
6.1218e-06
6.12522e-06
6.12912e-06
6.13361e-06
6.0934e-06
6.09421e-06
6.09501e-06
6.0958e-06
6.09656e-06
6.09732e-06
6.09808e-06
6.09886e-06
6.09967e-06
6.10052e-06
6.10142e-06
6.1024e-06
6.1035e-06
6.10475e-06
6.10616e-06
6.10774e-06
6.10951e-06
6.11149e-06
6.11372e-06
6.11623e-06
6.11906e-06
6.12226e-06
6.12591e-06
6.13012e-06
6.09232e-06
6.09316e-06
6.09392e-06
6.09464e-06
6.09534e-06
6.09606e-06
6.09678e-06
6.09752e-06
6.0983e-06
6.09911e-06
6.09998e-06
6.10092e-06
6.10196e-06
6.10313e-06
6.10443e-06
6.10588e-06
6.1075e-06
6.10932e-06
6.11136e-06
6.11367e-06
6.11628e-06
6.11924e-06
6.12263e-06
6.12655e-06
6.09219e-06
6.09287e-06
6.09354e-06
6.09421e-06
6.09488e-06
6.09557e-06
6.09629e-06
6.09703e-06
6.09782e-06
6.09863e-06
6.0995e-06
6.10044e-06
6.10149e-06
6.10267e-06
6.10398e-06
6.10545e-06
6.1071e-06
6.10896e-06
6.11107e-06
6.11346e-06
6.11618e-06
6.11929e-06
6.12292e-06
6.09116e-06
6.09186e-06
6.09252e-06
6.09315e-06
6.09379e-06
6.09446e-06
6.09514e-06
6.09584e-06
6.09655e-06
6.09728e-06
6.09805e-06
6.0989e-06
6.09985e-06
6.10093e-06
6.10214e-06
6.1035e-06
6.10503e-06
6.10675e-06
6.1087e-06
6.11091e-06
6.11341e-06
6.11627e-06
6.11961e-06
6.09095e-06
6.09157e-06
6.09216e-06
6.09277e-06
6.09338e-06
6.094e-06
6.09463e-06
6.09527e-06
6.09593e-06
6.09664e-06
6.09743e-06
6.09833e-06
6.09935e-06
6.1005e-06
6.10178e-06
6.10321e-06
6.10481e-06
6.10662e-06
6.10867e-06
6.11098e-06
6.11364e-06
6.11673e-06
6.09008e-06
6.09064e-06
6.0912e-06
6.09176e-06
6.09231e-06
6.09287e-06
6.09344e-06
6.09404e-06
6.09468e-06
6.09537e-06
6.09614e-06
6.097e-06
6.09796e-06
6.09902e-06
6.1002e-06
6.10151e-06
6.10297e-06
6.10462e-06
6.10649e-06
6.10861e-06
6.11105e-06
6.11391e-06
6.08923e-06
6.08978e-06
6.09029e-06
6.09079e-06
6.0913e-06
6.09183e-06
6.09239e-06
6.09298e-06
6.09359e-06
6.09424e-06
6.09494e-06
6.09571e-06
6.09657e-06
6.09752e-06
6.09856e-06
6.09973e-06
6.10104e-06
6.10252e-06
6.1042e-06
6.10612e-06
6.10833e-06
6.11093e-06
6.089e-06
6.08946e-06
6.08993e-06
6.09041e-06
6.09092e-06
6.09144e-06
6.09198e-06
6.09252e-06
6.09309e-06
6.0937e-06
6.09438e-06
6.09514e-06
6.09599e-06
6.09694e-06
6.09799e-06
6.09917e-06
6.10051e-06
6.10203e-06
6.10376e-06
6.10575e-06
6.1081e-06
6.08829e-06
6.0887e-06
6.08914e-06
6.08958e-06
6.09003e-06
6.09048e-06
6.09095e-06
6.09143e-06
6.09194e-06
6.09249e-06
6.09311e-06
6.09382e-06
6.0946e-06
6.09547e-06
6.09644e-06
6.09753e-06
6.09876e-06
6.10015e-06
6.10172e-06
6.10354e-06
6.10566e-06
6.08766e-06
6.08804e-06
6.08841e-06
6.08879e-06
6.08918e-06
6.08959e-06
6.09001e-06
6.09045e-06
6.09091e-06
6.09141e-06
6.09199e-06
6.09264e-06
6.09336e-06
6.09417e-06
6.09507e-06
6.09608e-06
6.09721e-06
6.09848e-06
6.09993e-06
6.10159e-06
6.10353e-06
6.08744e-06
6.08776e-06
6.08809e-06
6.08843e-06
6.08879e-06
6.08916e-06
6.08955e-06
6.08997e-06
6.09043e-06
6.09096e-06
6.09157e-06
6.09224e-06
6.09298e-06
6.0938e-06
6.09472e-06
6.09575e-06
6.09691e-06
6.09823e-06
6.09974e-06
6.10151e-06
6.08692e-06
6.08719e-06
6.08747e-06
6.08776e-06
6.08806e-06
6.08839e-06
6.08874e-06
6.08912e-06
6.08955e-06
6.09003e-06
6.09057e-06
6.09117e-06
6.09184e-06
6.09257e-06
6.09339e-06
6.09431e-06
6.09535e-06
6.09653e-06
6.0979e-06
6.0995e-06
6.0867e-06
6.08691e-06
6.08715e-06
6.08742e-06
6.08771e-06
6.08802e-06
6.08836e-06
6.08872e-06
6.08913e-06
6.0896e-06
6.09012e-06
6.0907e-06
6.09135e-06
6.09208e-06
6.0929e-06
6.09383e-06
6.09489e-06
6.09611e-06
6.09754e-06
6.08625e-06
6.08642e-06
6.08663e-06
6.08685e-06
6.08709e-06
6.08734e-06
6.0876e-06
6.0879e-06
6.08825e-06
6.08866e-06
6.08913e-06
6.08965e-06
6.09024e-06
6.0909e-06
6.09164e-06
6.09248e-06
6.09344e-06
6.09454e-06
6.09582e-06
6.08586e-06
6.086e-06
6.08615e-06
6.08631e-06
6.08648e-06
6.08668e-06
6.0869e-06
6.08716e-06
6.08747e-06
6.08784e-06
6.08826e-06
6.08873e-06
6.08925e-06
6.08984e-06
6.09051e-06
6.09126e-06
6.09211e-06
6.0931e-06
6.09425e-06
6.08558e-06
6.08567e-06
6.08579e-06
6.08593e-06
6.0861e-06
6.08629e-06
6.08651e-06
6.08677e-06
6.08708e-06
6.08743e-06
6.08783e-06
6.08828e-06
6.08879e-06
6.08937e-06
6.09002e-06
6.09078e-06
6.09165e-06
6.09266e-06
6.08519e-06
6.08525e-06
6.08534e-06
6.08545e-06
6.08558e-06
6.08571e-06
6.08587e-06
6.08607e-06
6.08631e-06
6.0866e-06
6.08694e-06
6.08733e-06
6.08778e-06
6.08829e-06
6.08887e-06
6.08954e-06
6.09031e-06
6.0912e-06
6.08485e-06
6.08488e-06
6.08492e-06
6.08498e-06
6.08504e-06
6.08513e-06
6.08524e-06
6.0854e-06
6.08561e-06
6.08586e-06
6.08616e-06
6.0865e-06
6.08689e-06
6.08734e-06
6.08786e-06
6.08845e-06
6.08913e-06
6.08993e-06
6.08451e-06
6.08449e-06
6.08451e-06
6.08455e-06
6.0846e-06
6.08469e-06
6.08481e-06
6.08498e-06
6.08518e-06
6.08542e-06
6.0857e-06
6.08603e-06
6.08641e-06
6.08686e-06
6.08737e-06
6.08797e-06
6.08868e-06
6.08415e-06
6.0841e-06
6.0841e-06
6.08411e-06
6.08413e-06
6.08416e-06
6.08423e-06
6.08434e-06
6.08448e-06
6.08467e-06
6.0849e-06
6.08517e-06
6.08549e-06
6.08587e-06
6.08631e-06
6.08682e-06
6.08383e-06
6.08375e-06
6.0837e-06
6.08366e-06
6.08363e-06
6.08362e-06
6.08364e-06
6.08371e-06
6.08382e-06
6.08397e-06
6.08415e-06
6.08439e-06
6.08466e-06
6.08499e-06
6.08538e-06
6.08583e-06
6.08337e-06
6.08327e-06
6.08319e-06
6.08313e-06
6.08309e-06
6.08309e-06
6.08313e-06
6.08321e-06
6.08332e-06
6.08346e-06
6.08365e-06
6.08388e-06
6.08415e-06
6.08448e-06
6.08487e-06
6.08296e-06
6.08283e-06
6.08274e-06
6.08266e-06
6.08259e-06
6.08255e-06
6.08255e-06
6.08258e-06
6.08264e-06
6.08274e-06
6.08288e-06
6.08306e-06
6.08329e-06
6.08356e-06
6.08389e-06
6.08256e-06
6.08241e-06
6.08228e-06
6.08216e-06
6.08205e-06
6.08197e-06
6.08193e-06
6.08193e-06
6.08196e-06
6.08203e-06
6.08214e-06
6.08228e-06
6.08247e-06
6.08271e-06
6.08299e-06
6.08194e-06
6.08176e-06
6.08161e-06
6.08148e-06
6.08139e-06
6.08133e-06
6.0813e-06
6.08131e-06
6.08135e-06
6.08143e-06
6.08155e-06
6.0817e-06
6.0819e-06
6.08214e-06
6.08143e-06
6.08124e-06
6.08108e-06
6.08093e-06
6.08081e-06
6.08073e-06
6.08067e-06
6.08065e-06
6.08066e-06
6.0807e-06
6.08077e-06
6.08089e-06
6.08104e-06
6.08123e-06
6.08093e-06
6.08072e-06
6.08053e-06
6.08036e-06
6.08021e-06
6.08009e-06
6.08e-06
6.07995e-06
6.07993e-06
6.07995e-06
6.07999e-06
6.08007e-06
6.08019e-06
6.08035e-06
6.08017e-06
6.07995e-06
6.07975e-06
6.07958e-06
6.07944e-06
6.07934e-06
6.07928e-06
6.07924e-06
6.07924e-06
6.07926e-06
6.07932e-06
6.07942e-06
6.07955e-06
6.07959e-06
6.07936e-06
6.07915e-06
6.07897e-06
6.07883e-06
6.07871e-06
6.07863e-06
6.07857e-06
6.07854e-06
6.07855e-06
6.07858e-06
6.07864e-06
6.07874e-06
6.07902e-06
6.07878e-06
6.07857e-06
6.07838e-06
6.07821e-06
6.07808e-06
6.07797e-06
6.07788e-06
6.07783e-06
6.0778e-06
6.0778e-06
6.07782e-06
6.07789e-06
6.07847e-06
6.07822e-06
6.07799e-06
6.07777e-06
6.07758e-06
6.07742e-06
6.07728e-06
6.07717e-06
6.07708e-06
6.07703e-06
6.077e-06
6.07699e-06
6.07702e-06
6.07765e-06
6.07739e-06
6.07714e-06
6.07693e-06
6.07674e-06
6.07658e-06
6.07645e-06
6.07635e-06
6.07627e-06
6.07622e-06
6.07619e-06
6.0762e-06
6.07707e-06
6.07679e-06
6.07653e-06
6.07628e-06
6.07607e-06
6.07588e-06
6.07573e-06
6.0756e-06
6.07551e-06
6.07544e-06
6.07539e-06
6.07539e-06
6.07642e-06
6.07612e-06
6.07584e-06
6.07557e-06
6.07534e-06
6.07513e-06
6.07495e-06
6.07481e-06
6.0747e-06
6.07463e-06
6.07458e-06
6.07565e-06
6.07533e-06
6.07502e-06
6.07474e-06
6.0745e-06
6.07429e-06
6.07412e-06
6.07399e-06
6.07389e-06
6.07383e-06
6.07379e-06
6.07437e-06
6.07407e-06
6.07381e-06
6.07359e-06
6.07343e-06
6.07331e-06
6.07323e-06
6.07318e-06
6.07316e-06
6.07316e-06
6.07336e-06
6.07311e-06
6.07293e-06
6.07281e-06
6.07273e-06
6.07269e-06
6.07269e-06
6.07271e-06
6.07275e-06
6.07282e-06
6.07251e-06
6.07239e-06
6.07233e-06
6.07232e-06
6.07234e-06
6.07239e-06
6.07247e-06
6.07257e-06
6.07268e-06
6.0728e-06
6.07204e-06
6.07206e-06
6.07211e-06
6.0722e-06
6.07231e-06
6.07245e-06
6.07259e-06
6.07275e-06
6.07292e-06
6.07309e-06
6.07198e-06
6.07211e-06
6.07227e-06
6.07243e-06
6.07262e-06
6.07281e-06
6.073e-06
6.0732e-06
6.07341e-06
6.07361e-06
6.07251e-06
6.07273e-06
6.07296e-06
6.07319e-06
6.07343e-06
6.07366e-06
6.07389e-06
6.07413e-06
6.07435e-06
6.07321e-06
6.0735e-06
6.07378e-06
6.07407e-06
6.07435e-06
6.07462e-06
6.07489e-06
6.07516e-06
6.07541e-06
6.07427e-06
6.07465e-06
6.07501e-06
6.07536e-06
6.0757e-06
6.07604e-06
6.07636e-06
6.07666e-06
6.07583e-06
6.07631e-06
6.07677e-06
6.07722e-06
6.07764e-06
6.07805e-06
6.07844e-06
6.0788e-06
6.07798e-06
6.07858e-06
6.07915e-06
6.07969e-06
6.08021e-06
6.0807e-06
6.08116e-06
6.08159e-06
6.08067e-06
6.08138e-06
6.08206e-06
6.0827e-06
6.0833e-06
6.08387e-06
6.0844e-06
6.0849e-06
6.08456e-06
6.08532e-06
6.08603e-06
6.08671e-06
6.08734e-06
6.08793e-06
6.08848e-06
6.08791e-06
6.08872e-06
6.08948e-06
6.0902e-06
6.09087e-06
6.09151e-06
6.0921e-06
6.0907e-06
6.09153e-06
6.09231e-06
6.09305e-06
6.09375e-06
6.09441e-06
6.09504e-06
6.09269e-06
6.09349e-06
6.09425e-06
6.09498e-06
6.09567e-06
6.09633e-06
6.09697e-06
6.09434e-06
6.09509e-06
6.0958e-06
6.09649e-06
6.09715e-06
6.09778e-06
6.0984e-06
6.09562e-06
6.09632e-06
6.09698e-06
6.09763e-06
6.09826e-06
6.09887e-06
6.09947e-06
6.09658e-06
6.09726e-06
6.09792e-06
6.09857e-06
6.09921e-06
6.09983e-06
6.09771e-06
6.09848e-06
6.09925e-06
6.1e-06
6.10075e-06
6.10149e-06
6.09992e-06
6.10094e-06
6.10195e-06
6.10295e-06
6.10394e-06
6.10492e-06
6.10521e-06
6.10652e-06
6.10781e-06
6.10908e-06
6.11033e-06
6.10971e-06
6.11106e-06
6.11238e-06
6.11365e-06
6.1149e-06
6.1097e-06
6.11058e-06
6.11142e-06
6.11222e-06
6.11298e-06
6.10225e-06
6.10293e-06
6.10366e-06
6.10444e-06
6.10526e-06
6.09901e-06
6.10144e-06
6.104e-06
6.10665e-06
6.10938e-06
6.10099e-06
6.10273e-06
6.10435e-06
6.10585e-06
6.10723e-06
)
;

boundaryField
{
    inlet
    {
        type            freestream;
        freestreamValue uniform 1e-05;
        value           uniform 1e-05;
    }
    outlet
    {
        type            freestream;
        freestreamValue nonuniform List<scalar> 0();
        value           nonuniform List<scalar> 0();
    }
    walls
    {
        type            nutUSpaldingWallFunction;
        value           nonuniform List<scalar> 
28
(
0.000437983
0.000667879
0.00101425
0.00131974
0.00156759
0.00176794
0.00193164
0.00206704
0.00218122
0.0022798
0.00236694
0.00244618
0.00251976
0.00258968
0.00265652
0.00272021
0.00277735
0.00282143
0.00285205
0.00287267
0.00288645
0.00289462
0.00289803
0.00289467
0.00288315
0.00286324
0.00283539
0.00279912
)
;
    }
    frontAndBack
    {
        type            empty;
    }
    procBoundary1to0
    {
        type            processor;
        value           nonuniform List<scalar> 
94
(
6.09906e-06
6.09906e-06
6.0964e-06
6.0964e-06
6.09537e-06
6.09537e-06
6.09534e-06
6.09534e-06
6.09558e-06
6.09558e-06
6.09567e-06
6.09567e-06
6.09468e-06
6.09457e-06
6.09457e-06
6.09362e-06
6.0934e-06
6.0934e-06
6.0925e-06
6.09161e-06
6.09136e-06
6.09136e-06
6.09056e-06
6.09023e-06
6.09023e-06
6.08947e-06
6.08877e-06
6.08847e-06
6.08847e-06
6.08788e-06
6.08737e-06
6.08715e-06
6.08715e-06
6.08674e-06
6.08651e-06
6.08651e-06
6.08615e-06
6.08581e-06
6.08553e-06
6.08553e-06
6.08521e-06
6.0849e-06
6.08458e-06
6.08458e-06
6.08428e-06
6.08397e-06
6.08353e-06
6.08353e-06
6.08317e-06
6.08278e-06
6.08217e-06
6.08217e-06
6.0817e-06
6.08119e-06
6.08044e-06
6.08044e-06
6.07988e-06
6.07932e-06
6.07876e-06
6.07796e-06
6.07796e-06
6.07739e-06
6.07675e-06
6.07597e-06
6.07472e-06
6.07472e-06
6.07366e-06
6.07269e-06
6.07208e-06
6.07189e-06
6.07228e-06
6.07228e-06
6.07291e-06
6.07389e-06
6.07534e-06
6.07736e-06
6.07994e-06
6.08375e-06
6.08375e-06
6.08704e-06
6.08981e-06
6.09183e-06
6.09355e-06
6.09489e-06
6.09587e-06
6.09693e-06
6.09891e-06
6.10388e-06
6.10388e-06
6.10831e-06
6.10876e-06
6.10162e-06
6.09674e-06
6.09915e-06
)
;
    }
    procBoundary1to2
    {
        type            processor;
        value           nonuniform List<scalar> 
84
(
0.107869
0.0711757
0.0409388
0.00742294
0.000365682
6.06861e-05
1.86045e-07
5.0699e-06
6.31054e-06
6.24444e-06
6.23992e-06
6.18858e-06
6.16579e-06
6.16093e-06
6.15807e-06
6.15332e-06
6.14791e-06
6.14299e-06
6.13882e-06
6.13503e-06
6.13117e-06
6.12722e-06
6.12357e-06
6.12039e-06
6.11732e-06
6.11407e-06
6.11094e-06
6.10823e-06
6.10588e-06
6.10367e-06
6.10146e-06
6.0993e-06
6.09739e-06
6.09567e-06
6.09393e-06
6.09232e-06
6.09093e-06
6.08953e-06
6.08746e-06
6.08746e-06
6.08638e-06
6.08535e-06
6.0843e-06
6.08334e-06
6.08244e-06
6.08148e-06
6.08055e-06
6.07972e-06
6.07887e-06
6.07797e-06
6.07707e-06
6.07622e-06
6.07539e-06
6.07455e-06
6.07455e-06
6.07377e-06
6.07319e-06
6.07291e-06
6.07295e-06
6.07329e-06
6.07384e-06
6.0746e-06
6.07568e-06
6.07697e-06
6.07697e-06
6.07916e-06
6.08202e-06
6.08538e-06
6.08902e-06
6.09268e-06
6.09566e-06
6.0976e-06
6.09902e-06
6.10007e-06
6.10045e-06
6.10045e-06
6.10222e-06
6.10588e-06
6.11156e-06
6.1161e-06
6.1137e-06
6.1061e-06
6.11215e-06
6.1085e-06
)
;
    }
    procBoundary1to5
    {
        type            processor;
        value           nonuniform List<scalar> 
13
(
7.82388e-06
7.82388e-06
5.81896e-06
6.1521e-06
6.1521e-06
6.09225e-06
6.10336e-06
6.10336e-06
6.1022e-06
6.10209e-06
6.10113e-06
6.10113e-06
6.09982e-06
)
;
    }
}


// ************************************************************************* //
