/*--------------------------------*- C++ -*----------------------------------*\
| =========                 |                                                 |
| \\      /  F ield         | OpenFOAM: The Open Source CFD Toolbox           |
|  \\    /   O peration     | Version:  2506                                  |
|   \\  /    A nd           | Website:  www.openfoam.com                      |
|    \\/     M anipulation  |                                                 |
\*---------------------------------------------------------------------------*/
FoamFile
{
    version     2.0;
    format      ascii;
    arch        "LSB;label=32;scalar=64";
    class       volVectorField;
    location    "150";
    object      U;
}
// * * * * * * * * * * * * * * * * * * * * * * * * * * * * * * * * * * * * * //

dimensions      [0 1 -1 0 0 0 0];

internalField   nonuniform List<vector> 
1340
(
(2.09344 1.3915 5.63452e-15)
(4.10431 -0.933329 -1.3146e-15)
(6.37613 -2.87527 4.37058e-16)
(8.63689 -4.25549 1.54633e-15)
(10.7013 -5.12069 2.36415e-15)
(12.5304 -5.60307 7.44306e-16)
(14.1287 -5.81581 -1.2705e-15)
(15.5166 -5.85253 -1.13965e-15)
(16.728 -5.77574 6.13042e-16)
(17.7958 -5.63151 2.28991e-16)
(18.7525 -5.44682 7.67676e-16)
(19.6288 -5.23975 -6.28382e-16)
(20.4463 -5.01185 -1.23941e-16)
(21.223 -4.76377 -5.40418e-16)
(21.9695 -4.48532 2.63248e-16)
(22.6866 -4.16175 7.07814e-16)
(23.3424 -3.76792 -2.30529e-16)
(23.868 -3.30334 -2.40385e-16)
(24.2462 -2.8145 -2.16758e-16)
(24.5098 -2.33729 -7.47835e-18)
(24.6965 -1.81917 3.2009e-18)
(24.8202 -1.19994 5.48776e-19)
(24.8804 -0.515917 -9.79614e-18)
(24.852 0.167492 1.39279e-16)
(24.7232 0.804549 9.06376e-17)
(24.4959 1.37411 2.30678e-16)
(24.1788 1.87045 8.48977e-16)
(23.7717 2.29613 1.62412e-17)
(3.02109 5.11006 -3.20065e-15)
(4.25127 2.60637 -4.68006e-15)
(5.78816 0.387144 2.71505e-15)
(7.5918 -1.38168 -1.46765e-15)
(9.48442 -2.62251 2.02414e-16)
(11.3147 -3.41886 -4.67075e-16)
(13.0186 -3.88519 2.94421e-17)
(14.5703 -4.11059 1.36049e-16)
(15.962 -4.17672 4.64509e-16)
(17.208 -4.13583 -8.38287e-16)
(18.3275 -4.03048 9.01446e-16)
(19.3451 -3.8836 -2.10383e-16)
(20.285 -3.71168 -3.88699e-16)
(21.1705 -3.51057 -2.69924e-16)
(22.017 -3.27701 -6.06877e-16)
(22.8367 -2.99258 -6.5529e-16)
(23.6311 -2.6351 -6.97324e-16)
(24.3773 -2.16293 2.69071e-16)
(25.0218 -1.58381 -1.68843e-17)
(25.5382 -0.961766 9.67837e-17)
(25.9365 -0.322582 6.46653e-17)
(26.2098 0.293847 4.61924e-18)
(26.3518 0.842599 2.51502e-19)
(26.3657 1.31045 -8.43616e-18)
(26.2847 1.70651 -9.91708e-17)
(26.1332 2.05487 -4.39428e-17)
(25.9209 2.37444 -3.43675e-16)
(25.6485 2.67314 -3.53738e-16)
(25.3066 2.95414 2.32765e-17)
(5.45756 5.8842 1.3648e-15)
(6.28533 3.6107 1.84523e-15)
(7.42648 1.5858 1.4879e-15)
(8.81518 -0.106998 -1.29324e-15)
(10.3195 -1.43255 -9.54689e-16)
(11.8307 -2.41938 2.4587e-16)
(13.2879 -3.12219 9.26058e-16)
(14.6573 -3.59537 1.30567e-15)
(15.9209 -3.89056 -2.5634e-16)
(17.0784 -4.05114 -3.04206e-17)
(18.1387 -4.11379 8.79372e-16)
(19.1163 -4.10332 1.66584e-17)
(20.0286 -4.03699 6.61085e-16)
(20.8933 -3.91913 5.87748e-16)
(21.723 -3.75107 1.35903e-15)
(22.5266 -3.52382 1.40234e-15)
(23.3041 -3.22328 6.07638e-16)
(24.0356 -2.82858 1.18369e-16)
(24.6768 -2.35502 -1.04254e-16)
(25.2036 -1.85278 2.82097e-16)
(25.6264 -1.34408 -4.81052e-17)
(25.9591 -0.832675 -2.08319e-17)
(26.2072 -0.313835 5.49751e-19)
(26.3705 0.213689 1.29275e-17)
(26.4516 0.750051 3.60252e-17)
(26.4515 1.28274 8.81451e-17)
(26.3702 1.79318 1.18241e-16)
(26.2072 2.26602 1.11205e-16)
(25.9529 2.6942 -2.21984e-17)
(7.22384 8.50353 8.76454e-16)
(7.49832 6.34991 -1.0091e-15)
(8.06318 4.31032 8.92576e-18)
(8.90052 2.45751 3.24281e-16)
(9.96391 0.857099 2.24219e-15)
(11.1653 -0.451029 1.65648e-16)
(12.4246 -1.46647 6.40538e-16)
(13.6873 -2.22059 -1.73874e-15)
(14.9148 -2.75277 -1.07427e-15)
(16.082 -3.10252 3.23398e-16)
(17.1781 -3.30916 1.85574e-16)
(18.2023 -3.40628 -8.86922e-16)
(19.16 -3.42007 8.80178e-17)
(20.0617 -3.36945 -2.12831e-16)
(20.9191 -3.26299 5.51818e-16)
(21.7422 -3.10315 -5.7625e-16)
(22.5369 -2.88363 -8.28992e-16)
(23.3025 -2.59244 1.02857e-16)
(24.0221 -2.21129 1.9928e-16)
(24.6594 -1.74572 3.69562e-16)
(25.1901 -1.23393 -2.54269e-16)
(25.6196 -0.699001 -3.06293e-17)
(25.9591 -0.15178 7.33784e-18)
(26.2136 0.396775 -1.13922e-18)
(26.3859 0.931174 1.83356e-18)
(26.4815 1.43509 1.12627e-17)
(26.5066 1.89311 -3.12476e-17)
(26.4649 2.30342 -6.67103e-17)
(26.3578 2.6697 -1.01427e-16)
(26.1751 2.99871 2.45371e-17)
(9.11096 8.54418 -1.24523e-15)
(9.24222 6.63631 3.62895e-15)
(9.62139 4.80278 -2.68893e-15)
(10.238 3.1163 -1.03399e-17)
(11.0576 1.62506 3.39834e-17)
(12.0182 0.362654 -3.32875e-16)
(13.0594 -0.661563 -4.86309e-16)
(14.1363 -1.46565 -9.79322e-16)
(15.2132 -2.07589 1.19731e-15)
(16.2637 -2.51812 5.10055e-16)
(17.2727 -2.82228 -1.06323e-16)
(18.2334 -3.01447 2.68938e-16)
(19.1453 -3.1163 -4.89622e-16)
(20.0132 -3.14374 3.29868e-16)
(20.8444 -3.10588 -3.16024e-16)
(21.6456 -3.00545 3.54852e-16)
(22.4207 -2.83856 3.23107e-16)
(23.1676 -2.59646 -5.55158e-17)
(23.8714 -2.26787 -4.64189e-16)
(24.5011 -1.85889 -1.10355e-16)
(25.0334 -1.40193 -3.85364e-17)
(25.4691 -0.922445 8.39861e-17)
(25.8171 -0.433017 6.10818e-19)
(26.0816 0.0570526 -1.72635e-18)
(26.2644 0.537721 2.65959e-18)
(26.3693 1.00126 -3.93145e-18)
(26.402 1.44904 5.61038e-17)
(26.3663 1.88029 1.56301e-16)
(26.2658 2.29108 3.61381e-17)
(26.0945 2.67825 1.41746e-17)
(10.8864 10.1784 -5.92441e-16)
(10.7064 8.5036 1.1809e-15)
(10.7399 6.798 -1.00024e-15)
(10.9869 5.14261 -8.32179e-16)
(11.4405 3.60639 -9.16949e-16)
(12.0742 2.22412 -9.15349e-16)
(12.8436 1.02426 1.40698e-15)
(13.7031 0.0215274 -6.79947e-16)
(14.6179 -0.7933 7.57196e-16)
(15.5579 -1.43686 1.45126e-16)
(16.4979 -1.92519 -2.26014e-16)
(17.4217 -2.27988 -6.30676e-16)
(18.3194 -2.52093 -4.97081e-16)
(19.1857 -2.66631 2.72622e-16)
(20.0208 -2.73029 -1.19989e-16)
(20.8276 -2.72231 -3.65178e-16)
(21.6092 -2.64641 -3.20889e-16)
(22.3671 -2.50116 -2.25816e-16)
(23.0979 -2.28036 2.81334e-16)
(23.788 -1.97603 -9.20452e-17)
(24.4106 -1.59243 -2.55614e-16)
(24.9435 -1.15527 2.74788e-16)
(25.3841 -0.688099 1.89649e-17)
(25.7386 -0.203111 1.4409e-18)
(26.0104 0.290817 2.39797e-18)
(26.201 0.783095 -6.59556e-18)
(26.3139 1.2647 7.51184e-18)
(26.354 1.72484 -4.59279e-17)
(26.3252 2.15393 -5.02307e-17)
(26.2305 2.5463 1.66013e-17)
(26.0637 2.90067 4.93953e-17)
(12.2897 9.91164 -2.80392e-16)
(12.0748 8.41417 1.22071e-16)
(12.0406 6.87661 1.15039e-15)
(12.1918 5.37559 8.39985e-16)
(12.5234 3.97405 3.57534e-16)
(13.0151 2.6965 -9.19065e-16)
(13.6334 1.56723 -4.40265e-16)
(14.3431 0.601848 7.15974e-16)
(15.1178 -0.205147 7.59193e-17)
(15.9328 -0.864541 -2.93059e-17)
(16.7663 -1.38604 -5.15004e-16)
(17.6028 -1.78491 4.1948e-16)
(18.4313 -2.07573 9.36171e-16)
(19.2439 -2.27207 -5.25103e-16)
(20.0374 -2.38528 -5.89243e-17)
(20.8114 -2.42352 -5.34691e-16)
(21.5661 -2.39044 -2.69415e-16)
(22.3008 -2.28548 2.79626e-16)
(23.0111 -2.10423 -6.60278e-16)
(23.6842 -1.84158 2.25006e-16)
(24.2968 -1.50168 2.93785e-16)
(24.8275 -1.1057 -9.46836e-17)
(25.2711 -0.675782 -7.77673e-17)
(25.6314 -0.225215 -1.44821e-17)
(25.9109 0.235896 -8.46322e-19)
(26.1106 0.696309 -3.80904e-19)
(26.2335 1.1452 -8.85277e-18)
(26.284 1.57529 -2.45516e-18)
(26.2655 1.98309 -1.0042e-17)
(26.1803 2.36517 1.48446e-17)
(26.0222 2.72009 5.17242e-17)
(13.5 9.64512 -3.56388e-18)
(13.2615 8.29456 -1.88662e-16)
(13.1796 6.89893 -1.9275e-15)
(13.2607 5.53188 7.79204e-16)
(13.4999 4.24939 -1.10954e-16)
(13.8819 3.06902 1.00088e-15)
(14.3803 2.01187 -5.52601e-16)
(14.9671 1.09281 5.13545e-16)
(15.6223 0.307882 -7.45379e-16)
(16.3263 -0.350227 -5.69698e-16)
(17.0611 -0.886853 2.94506e-16)
(17.8134 -1.3125 3.18596e-16)
(18.5721 -1.63686 3.18578e-16)
(19.3286 -1.86935 1.86107e-16)
(20.0775 -2.01839 -2.17674e-16)
(20.8158 -2.09055 8.66899e-16)
(21.5414 -2.08898 -2.52868e-16)
(22.2516 -2.01373 4.02306e-16)
(22.9408 -1.8617 4.12635e-16)
(23.5968 -1.62981 -1.01596e-18)
(24.1985 -1.32188 -7.67527e-17)
(24.7258 -0.954865 -5.91521e-17)
(25.1711 -0.548929 1.26537e-17)
(25.5359 -0.11757 1.52422e-17)
(25.8217 0.32899 4.60945e-18)
(26.0291 0.779758 6.12102e-18)
(26.1602 1.22443 5.57227e-18)
(26.2187 1.65471 -6.63589e-18)
(26.2076 2.06248 -1.99601e-17)
(26.1292 2.4417 1.59144e-17)
(25.9774 2.7891 -8.59885e-17)
(14.9236 10.5375 -4.91904e-16)
(14.5549 9.38328 -2.97566e-16)
(14.3016 8.1566 -6.84404e-16)
(14.1856 6.88267 -1.63128e-16)
(14.2143 5.63188 8.48053e-16)
(14.3831 4.45479 6.3888e-16)
(14.6797 3.36397 -1.83499e-16)
(15.0825 2.37741 1.53509e-15)
(15.5688 1.5089 -3.8705e-17)
(16.1229 0.754723 1.11495e-15)
(16.7297 0.10931 4.49603e-16)
(17.3746 -0.43046 -4.04475e-16)
(18.0468 -0.871641 3.67568e-17)
(18.7364 -1.22041 -8.36613e-16)
(19.4348 -1.48283 5.54835e-17)
(20.1357 -1.66448 4.82821e-16)
(20.8346 -1.77002 2.10401e-17)
(21.5274 -1.8017 3.25051e-16)
(22.2098 -1.75947 -4.0755e-16)
(22.8755 -1.641 -2.60747e-16)
(23.5124 -1.44449 -4.58675e-16)
(24.1012 -1.17342 -2.79962e-16)
(24.6227 -0.841738 -1.71533e-17)
(25.0679 -0.467588 -7.40977e-17)
(25.436 -0.064589 -1.38502e-18)
(25.7276 0.356639 -4.61401e-18)
(25.9425 0.784955 -9.60898e-19)
(26.0822 1.2095 1.70873e-17)
(26.1498 1.62122 -1.76203e-17)
(26.1479 2.01384 3.6052e-17)
(26.0783 2.38175 -1.47075e-16)
(25.9349 2.72142 2.53505e-17)
(15.4831 9.12883 -8.0455e-16)
(15.2213 8.00804 2.20052e-15)
(15.0805 6.83957 1.14246e-15)
(15.0697 5.69086 4.08447e-16)
(15.1843 4.60707 -1.69047e-15)
(15.414 3.59773 -9.57898e-16)
(15.7402 2.67846 -1.73016e-15)
(16.1441 1.86167 -1.58547e-15)
(16.6132 1.1432 -3.60398e-16)
(17.1356 0.518241 2.44175e-16)
(17.6998 -0.0149543 -2.56403e-16)
(18.2974 -0.461515 -3.2689e-16)
(18.9204 -0.824897 3.51991e-16)
(19.5607 -1.10858 -4.68416e-16)
(20.2122 -1.31575 5.24975e-17)
(20.8693 -1.44901 1.83722e-16)
(21.5269 -1.50932 3.68644e-16)
(22.1796 -1.49633 -1.65591e-16)
(22.8201 -1.40803 -9.30221e-17)
(23.4366 -1.24322 -7.53814e-17)
(24.0112 -1.0051 2.23064e-16)
(24.5253 -0.705109 -1.10761e-17)
(24.9686 -0.359168 4.60517e-17)
(25.3388 0.0194225 -6.42364e-18)
(25.6349 0.419904 -3.22802e-18)
(25.8564 0.831266 -9.67412e-18)
(26.0039 1.24256 -2.08869e-17)
(26.0797 1.64468 -6.73082e-17)
(26.0861 2.02959 1.6203e-17)
(26.0244 2.39031 1.61316e-16)
(25.8887 2.7221 2.57393e-16)
(16.0403 7.85389 -1.40481e-15)
(15.8819 6.77807 -8.97625e-16)
(15.8412 5.71924 1.07933e-15)
(15.9136 4.71861 1.49821e-15)
(16.0902 3.7832 2.37826e-16)
(16.3549 2.92703 1.03565e-15)
(16.6912 2.16127 9.69067e-16)
(17.0888 1.48109 -5.79372e-16)
(17.5385 0.881662 3.8749e-16)
(18.031 0.361883 -1.0007e-16)
(18.5603 -0.0821555 6.60925e-16)
(19.1201 -0.452521 -4.04474e-16)
(19.7036 -0.750613 -6.5721e-16)
(20.3052 -0.977586 -2.27278e-16)
(20.919 -1.13438 -5.45741e-16)
(21.5394 -1.22076 -4.79505e-16)
(22.1601 -1.23571 -4.21235e-16)
(22.7737 -1.17705 7.77357e-16)
(23.3684 -1.04382 4.75866e-16)
(23.927 -0.838852 7.60165e-17)
(24.4317 -0.57141 2.51449e-16)
(24.8715 -0.255449 4.13044e-17)
(25.2423 0.0962661 1.08662e-17)
(25.5421 0.47291 -1.2169e-18)
(25.7695 0.863505 -2.39157e-18)
(25.9244 1.25706 1.66829e-17)
(26.0086 1.64385 -1.588e-17)
(26.0235 2.01609 4.72246e-17)
(25.9703 2.3665 1.03738e-16)
(25.8431 2.68972 -4.71011e-16)
(16.6035 6.70406 7.09347e-17)
(16.54 5.72491 6.40554e-16)
(16.5797 4.79847 -1.88912e-15)
(16.7138 3.93032 -1.25928e-15)
(16.9287 3.13288 8.40712e-16)
(17.2093 2.4162 1.22366e-15)
(17.547 1.7749 -6.31621e-16)
(17.9341 1.20408 -8.81055e-17)
(18.3635 0.702703 -5.08098e-17)
(18.831 0.267151 -1.65589e-16)
(19.3319 -0.10367 6.0788e-16)
(19.8609 -0.409847 8.32243e-16)
(20.4129 -0.651045 7.74207e-17)
(20.9828 -0.826708 5.89652e-16)
(21.5647 -0.935428 2.02221e-16)
(22.152 -0.975391 3.14147e-16)
(22.7372 -0.944153 -4.87311e-16)
(23.3087 -0.840542 -3.91341e-17)
(23.8499 -0.666779 -2.42908e-16)
(24.3435 -0.430414 -2.72463e-16)
(24.778 -0.143432 -1.00181e-16)
(25.1479 0.182181 2.42843e-17)
(25.4501 0.535724 7.60552e-18)
(25.6825 0.906439 4.23265e-18)
(25.8442 1.28336 1.69991e-18)
(25.9362 1.6566 -3.45497e-17)
(25.9594 2.01774 1.44879e-17)
(25.9145 2.35855 -1.66168e-16)
(25.7957 2.6727 7.6482e-18)
(17.1756 5.71361 -1.68615e-15)
(17.1896 4.85386 4.41429e-16)
(17.2901 4.04675 7.97219e-16)
(17.4641 3.30346 -1.37317e-15)
(17.6987 2.63338 -9.31074e-16)
(17.9859 2.0307 8.30203e-16)
(18.3196 1.49002 1.76582e-16)
(18.6938 1.01008 -5.63594e-16)
(19.1059 0.587474 5.28576e-16)
(19.5525 0.22141 -2.73228e-16)
(20.0297 -0.0874547 9.16541e-16)
(20.5337 -0.337848 2.38118e-16)
(21.0598 -0.528066 -3.14806e-17)
(21.6024 -0.655607 1.22847e-16)
(22.1552 -0.717917 -9.31249e-17)
(22.7107 -0.7121 -5.7706e-17)
(23.2577 -0.636603 -5.45751e-16)
(23.78 -0.49286 2.33219e-17)
(24.2608 -0.28684 1.97989e-16)
(24.6883 -0.028789 -7.44867e-18)
(25.0558 0.270252 -2.64063e-17)
(25.3593 0.599864 -1.13384e-17)
(25.5958 0.949508 3.19638e-17)
(25.7637 1.30833 -1.40887e-17)
(25.863 1.66618 8.07218e-17)
(25.8944 2.01441 -2.17325e-16)
(25.8579 2.34431 3.91271e-16)
(25.748 2.64877 2.34909e-16)
(17.7496 4.89001 1.02374e-16)
(17.8231 4.1384 -5.67375e-16)
(17.9636 3.44514 5.39358e-17)
(18.16 2.819 5.28618e-16)
(18.4049 2.25365 -7.19459e-16)
(18.6928 1.7435 1.99259e-16)
(19.019 1.2869 -5.51774e-17)
(19.3816 0.880305 -3.36051e-16)
(19.7788 0.522958 -5.17017e-16)
(20.2077 0.215892 -4.61146e-16)
(20.6655 -0.0391337 -2.19155e-16)
(21.1486 -0.239715 -3.26571e-16)
(21.6519 -0.382546 -1.4776e-16)
(22.1696 -0.464336 -2.04684e-16)
(22.6945 -0.481582 7.44802e-17)
(23.2157 -0.432104 4.56907e-16)
(23.7178 -0.316589 6.89143e-17)
(24.1842 -0.139617 8.8954e-17)
(24.6029 0.0902376 5.91064e-17)
(24.9666 0.363005 2.14547e-17)
(25.2701 0.66871 5.31156e-18)
(25.5096 0.997133 -2.49088e-17)
(25.6828 1.33762 -2.12609e-17)
(25.7892 1.67996 1.61094e-16)
(25.8284 2.01514 -4.50486e-17)
(25.8003 2.33386 -3.5232e-16)
(25.6994 2.62812 2.9681e-16)
(18.3163 4.21011 -8.34772e-17)
(18.4301 3.56282 9.30812e-16)
(18.5944 2.97764 -2.52166e-16)
(18.8036 2.44806 2.18439e-16)
(19.0524 1.96816 -1.33207e-16)
(19.3368 1.53593 7.88755e-16)
(19.6557 1.14753 1.74196e-16)
(20.0082 0.801956 -2.58165e-17)
(20.3923 0.50023 5.67815e-16)
(20.8064 0.244327 -3.57699e-16)
(21.2478 0.0371075 2.81222e-18)
(21.7123 -0.117598 5.9856e-16)
(22.1946 -0.215881 5.99446e-17)
(22.6881 -0.253701 -2.23179e-16)
(23.1828 -0.228217 -2.01418e-16)
(23.6634 -0.139193 1.37595e-16)
(24.1139 0.0100354 3.64197e-18)
(24.5224 0.212429 -2.29905e-17)
(24.8807 0.45914 1.75102e-17)
(25.1828 0.740783 3.08656e-18)
(25.4244 1.04754 -8.32402e-18)
(25.6022 1.36904 7.56164e-17)
(25.7149 1.69502 -9.80069e-17)
(25.7618 2.01628 9.22025e-17)
(25.742 2.32303 -4.09021e-16)
(25.6502 2.60651 -2.75819e-17)
(18.7743 4.2652 3.9818e-16)
(18.8655 3.66064 6.78855e-16)
(19.0032 3.11366 2.92559e-18)
(19.1822 2.61797 6.60018e-16)
(19.3976 2.16753 4.10709e-17)
(19.6458 1.75981 -1.01406e-15)
(19.9261 1.39078 -1.89874e-16)
(20.2382 1.05906 -1.39768e-16)
(20.5813 0.76546 3.88787e-17)
(20.9545 0.511884 1.30231e-16)
(21.3559 0.301357 -4.73696e-16)
(21.7825 0.138041 -2.46359e-16)
(22.2297 0.0262604 3.41784e-16)
(22.6916 -0.0294957 3.73042e-16)
(23.1589 -0.0257873 -2.22985e-16)
(23.6171 0.0385941 -1.01573e-17)
(24.0505 0.161601 -2.801e-16)
(24.4472 0.33754 5.17638e-17)
(24.7987 0.558704 1.38051e-17)
(25.0982 0.816422 -3.61142e-19)
(25.3406 1.10136 2.02586e-17)
(25.5222 1.40349 -3.72807e-18)
(25.6407 1.71267 1.00898e-16)
(25.6948 2.01947 2.87623e-16)
(25.6832 2.31374 8.70652e-16)
(25.6008 2.58592 3.7383e-17)
(19.2719 3.74176 7.01764e-16)
(19.388 3.23022 -3.19469e-16)
(19.5412 2.76655 -6.97722e-16)
(19.7279 2.34437 -3.58698e-16)
(19.9446 1.96097 -1.95636e-16)
(20.1909 1.61188 -1.8902e-16)
(20.467 1.29544 3.1666e-16)
(20.7726 1.01208 -6.44629e-16)
(21.1078 0.763464 1.57344e-16)
(21.4715 0.552551 -4.00205e-16)
(21.8615 0.383522 -2.87137e-16)
(22.2742 0.260985 -1.58892e-16)
(22.7046 0.189811 4.03779e-17)
(23.1442 0.174137 2.62793e-16)
(23.5792 0.216015 3.6744e-17)
(23.9943 0.314435 1.37009e-16)
(24.3779 0.465028 4.92689e-17)
(24.7211 0.66126 -6.7694e-17)
(25.0167 0.89526 -6.31214e-18)
(25.2589 1.15826 -1.66435e-17)
(25.4433 1.44068 -5.36213e-17)
(25.5669 1.73252 2.47935e-17)
(25.6278 2.02425 -3.61208e-16)
(25.6243 2.30542 -4.0394e-16)
(25.5513 2.5658 -1.92866e-16)
(19.6522 3.80867 5.30286e-16)
(19.7498 3.33045 -4.20862e-16)
(19.8811 2.8967 1.31754e-16)
(20.0431 2.50146 3.4856e-16)
(20.2324 2.14168 1.04292e-15)
(20.4489 1.81263 -8.27019e-17)
(20.6928 1.51225 1.3787e-16)
(20.9646 1.24063 3.76706e-16)
(21.2648 0.999027 2.15058e-16)
(21.5931 0.790149 7.38158e-16)
(21.9482 0.618113 4.8805e-16)
(22.3274 0.487552 -3.74968e-17)
(22.7267 0.403549 -4.18016e-16)
(23.1386 0.370739 3.37925e-17)
(23.5497 0.392083 -1.59302e-16)
(23.9455 0.467656 4.99139e-17)
(24.3147 0.594225 2.46357e-17)
(24.6484 0.766358 -2.69408e-17)
(24.9388 0.977053 1.51736e-18)
(25.1796 1.21819 1.06926e-17)
(25.3658 1.48067 -4.46809e-17)
(25.4938 1.75478 1.05151e-17)
(25.5611 2.03093 4.599e-17)
(25.5655 2.29848 -8.30984e-17)
(25.5019 2.54658 -5.82074e-16)
(20.0896 3.41648 1.19622e-15)
(20.2028 3.01071 -9.03377e-17)
(20.3433 2.64096 -1.26263e-16)
(20.5088 2.3039 -8.45042e-16)
(20.699 1.99463 5.09981e-16)
(20.9145 1.7107 -4.56878e-16)
(21.1558 1.4518 3.23743e-17)
(21.424 1.21881 -2.60658e-16)
(21.7195 1.014 -2.57547e-16)
(22.0417 0.841222 -1.16091e-16)
(22.3887 0.705065 -1.33974e-16)
(22.7575 0.610709 1.38055e-16)
(23.1415 0.563142 7.50052e-17)
(23.5284 0.566099 -4.22356e-17)
(23.9042 0.620647 -1.40808e-17)
(24.258 0.724602 -4.95072e-17)
(24.5808 0.87359 2.06308e-17)
(24.8648 1.06151 6.40407e-18)
(25.103 1.28096 1.95544e-17)
(25.2901 1.52339 6.90324e-17)
(25.4217 1.77943 -2.77838e-16)
(25.4948 2.03951 -4.21254e-18)
(25.5068 2.29296 2.53908e-16)
(25.4527 2.52835 2.20035e-16)
(20.4093 3.49017 2.08864e-17)
(20.5066 3.11079 -5.50898e-16)
(20.6286 2.76499 1.3383e-16)
(20.7735 2.4496 2.64593e-17)
(20.9408 2.15958 2.33522e-17)
(21.1311 1.89212 2.15553e-16)
(21.3451 1.64652 -5.00307e-16)
(21.5843 1.42322 8.79945e-17)
(21.8495 1.22408 -2.56696e-16)
(22.1407 1.05256 -1.26175e-17)
(22.4569 0.912991 2.91714e-16)
(22.7962 0.810496 -1.18893e-16)
(23.1527 0.750423 -3.92924e-17)
(23.5152 0.737159 2.67939e-16)
(23.8705 0.772573 4.85478e-17)
(24.2079 0.855446 -2.41553e-17)
(24.5187 0.982399 3.09357e-17)
(24.795 1.14824 -5.52607e-18)
(25.0296 1.34633 -2.13231e-17)
(25.2165 1.56872 7.72722e-17)
(25.351 1.80647 -9.13877e-17)
(25.4293 2.05011 9.55274e-17)
(25.4486 2.289 -2.84106e-16)
(25.4039 2.51129 6.49664e-16)
(20.7099 3.55328 -8.50684e-17)
(20.7936 3.1985 5.08687e-16)
(20.8998 2.87518 -4.08643e-16)
(21.0266 2.58037 2.80521e-16)
(21.1739 2.30891 -3.60222e-16)
(21.3418 2.05766 2.72315e-17)
(21.5314 1.82562 -6.95846e-17)
(21.7443 1.61276 2.46311e-16)
(21.9816 1.42048 2.17522e-16)
(22.244 1.25183 -2.32557e-16)
(22.5312 1.11085 -5.06154e-17)
(22.8419 1.00244 3.19218e-16)
(23.1716 0.932047 -7.96722e-17)
(23.5098 0.904603 -7.31343e-17)
(23.8441 0.922765 -1.54197e-16)
(24.1644 0.986149 4.43179e-17)
(24.4624 1.09229 -1.12408e-17)
(24.7299 1.23688 1.59098e-18)
(24.9598 1.41406 -3.00963e-17)
(25.1455 1.61655 -4.36236e-17)
(25.2819 1.83589 3.20857e-16)
(25.3649 2.06277 -8.99228e-17)
(25.3911 2.28674 -3.09648e-17)
(25.3557 2.49558 -5.65169e-16)
(21.0642 3.27546 -5.12359e-16)
(21.1573 2.97319 -1.7414e-16)
(21.2683 2.6978 5.17775e-17)
(21.3977 2.44403 5.06731e-16)
(21.546 2.20857 1.73678e-16)
(21.7138 1.99007 1.9938e-16)
(21.9029 1.78806 -5.09911e-16)
(22.1148 1.60357 6.72125e-17)
(22.3505 1.43912 2.58612e-16)
(22.6104 1.29836 -1.91725e-16)
(22.8939 1.1859 5.40438e-17)
(23.1975 1.1072 -1.01296e-17)
(23.5118 1.0676 6.71696e-17)
(23.8249 1.07041 -1.26311e-16)
(24.1277 1.11599 -1.99334e-17)
(24.412 1.20266 5.8058e-17)
(24.6699 1.32697 1.77376e-18)
(24.8939 1.48385 3.69371e-17)
(25.0775 1.6667 -9.9688e-17)
(25.215 1.8676 -4.54544e-17)
(25.302 2.07755 -2.13611e-16)
(25.3347 2.28627 8.925e-17)
(25.3084 2.48141 1.99932e-16)
(21.3201 3.34276 4.35943e-16)
(21.4012 3.06042 5.45899e-16)
(21.4985 2.80322 -1.01309e-16)
(21.6124 2.56622 2.75599e-16)
(21.7432 2.34596 -1.70353e-16)
(21.8916 2.14073 -1.15287e-17)
(22.0593 1.94975 9.83183e-17)
(22.2481 1.77362 5.99673e-17)
(22.4593 1.61442 -3.5439e-17)
(22.6937 1.4753 -9.81072e-17)
(22.9515 1.36053 -9.54019e-17)
(23.2301 1.27543 -1.00515e-16)
(23.5208 1.22564 -1.24878e-16)
(23.813 1.21499 -8.76113e-17)
(24.0979 1.24441 -3.1494e-17)
(24.3678 1.313 -1.33918e-17)
(24.6151 1.4181 -2.37761e-18)
(24.8324 1.55539 -3.04829e-17)
(25.0129 1.71899 -4.40729e-17)
(25.1507 1.90158 8.48435e-17)
(25.241 2.09449 3.85511e-16)
(25.2797 2.28774 -7.38147e-17)
(25.2622 2.46897 -2.0132e-16)
(21.6319 3.1379 -1.007e-16)
(21.7177 2.89776 -5.20884e-16)
(21.8178 2.67664 1.0102e-16)
(21.933 2.47085 -2.04021e-16)
(22.0641 2.27851 -7.4544e-17)
(22.2127 2.09857 -2.79858e-16)
(22.3806 1.9312 -7.31892e-18)
(22.5694 1.77802 1.15899e-16)
(22.7802 1.6417 6.62583e-17)
(23.0139 1.52608 -6.92642e-18)
(23.2686 1.43627 -9.21822e-17)
(23.5365 1.37807 7.30205e-17)
(23.808 1.35574 3.00655e-16)
(24.0748 1.3707 -2.51417e-17)
(24.3299 1.42267 2.42857e-17)
(24.5659 1.50971 -1.21794e-18)
(24.7756 1.62827 1.71229e-17)
(24.9521 1.77315 1.40003e-16)
(25.0893 1.93764 -3.87821e-16)
(25.1821 2.11355 2.0308e-17)
(25.2263 2.2912 5.73933e-17)
(25.2174 2.45839 7.01233e-17)
(21.8507 3.20661 -9.23563e-18)
(21.926 2.98258 6.43832e-16)
(22.0138 2.77629 -6.2304e-17)
(22.1153 2.5842 1.06801e-16)
(22.2311 2.40433 -3.26993e-17)
(22.3627 2.23526 2.31643e-17)
(22.5118 2.07682 5.526e-16)
(22.6802 1.9302 -4.93967e-16)
(22.8693 1.79761 1.62607e-16)
(23.0805 1.68242 2.8065e-16)
(23.3123 1.58944 -2.53128e-17)
(23.5583 1.52451 1.79661e-16)
(23.8094 1.49219 -1.48874e-16)
(24.0582 1.49435 -7.88e-17)
(24.2982 1.53118 -6.92398e-17)
(24.5223 1.6014 -6.22593e-18)
(24.7236 1.70215 -2.99155e-17)
(24.8952 1.82895 -6.23121e-17)
(25.0311 1.9757 3.09148e-16)
(25.1258 2.13472 5.2962e-17)
(25.1749 2.29675 -1.70875e-16)
(25.1741 2.44986 -1.91268e-16)
(22.0576 3.26749 -5.54081e-17)
(22.1236 3.05847 -4.18833e-16)
(22.2009 2.86609 4.06344e-16)
(22.2903 2.68699 -3.38468e-16)
(22.3926 2.51904 4.40286e-16)
(22.5089 2.36055 -1.41087e-16)
(22.641 2.21103 -3.36106e-16)
(22.7909 2.07129 1.36817e-16)
(22.9601 1.94312 -2.99393e-16)
(23.1502 1.82941 -2.04456e-16)
(23.3606 1.73458 -8.6731e-18)
(23.5856 1.66447 4.38063e-17)
(23.8169 1.62379 -3.45464e-17)
(24.0479 1.61473 -2.20068e-17)
(24.2726 1.63791 2.11325e-17)
(24.4845 1.69262 1.27942e-17)
(24.6767 1.7766 3.50325e-17)
(24.8428 1.88606 4.0674e-17)
(24.9765 2.01555 2.62808e-16)
(25.0723 2.15794 3.2119e-16)
(25.1257 2.30442 2.70416e-16)
(25.1327 2.4435 3.44082e-16)
(22.311 3.12637 2.05366e-16)
(22.3794 2.94701 -4.86792e-16)
(22.458 2.78017 7.82117e-17)
(22.5481 2.62346 2.68807e-16)
(22.6507 2.47513 -3.04526e-16)
(22.7676 2.33441 9.94014e-17)
(22.9007 2.20177 -8.99942e-18)
(23.0517 2.07853 1.02385e-17)
(23.2224 1.96714 -8.81235e-17)
(23.4128 1.87164 2.42764e-16)
(23.6179 1.79771 -4.58897e-17)
(23.8302 1.75017 2.47383e-18)
(24.0438 1.73143 9.9105e-18)
(24.2532 1.74243 1.29107e-17)
(24.4525 1.78292 -2.82399e-18)
(24.6353 1.85124 1.07388e-17)
(24.7951 1.94421 -5.83574e-17)
(24.9259 2.05703 -3.82065e-16)
(25.0221 2.18315 -6.45464e-16)
(25.0793 2.31429 -1.92319e-16)
(25.0934 2.43945 -5.22635e-16)
(22.4891 3.18691 -6.02437e-17)
(22.5492 3.01984 2.33025e-16)
(22.6182 2.86436 -3.24262e-17)
(22.6974 2.71826 -4.44073e-16)
(22.7879 2.57966 -1.66286e-17)
(22.8913 2.44756 1.03594e-16)
(23.0092 2.32205 -2.59079e-16)
(23.1437 2.20413 3.94507e-16)
(23.2967 2.09575 7.58281e-17)
(23.4684 2.00056 -1.95526e-16)
(23.6547 1.92404 -3.08086e-17)
(23.8488 1.87099 -3.75878e-17)
(24.0455 1.84399 5.52278e-18)
(24.2399 1.84423 5.68914e-17)
(24.4265 1.87183 -1.04667e-18)
(24.5993 1.92563 -6.89607e-18)
(24.7523 2.00305 4.77434e-17)
(24.8795 2.0999 -7.25419e-17)
(24.9755 2.21022 6.73485e-16)
(25.0358 2.32631 -1.44337e-16)
(25.0564 2.4378 5.7094e-16)
(22.6578 3.24086 -2.1804e-16)
(22.7105 3.08517 -4.05764e-16)
(22.7712 2.94031 4.44994e-16)
(22.8409 2.80423 3.005e-16)
(22.9206 2.67491 -3.89999e-17)
(23.0119 2.55113 3.84059e-17)
(23.1162 2.43269 1.677e-16)
(23.2357 2.32028 9.15581e-17)
(23.3724 2.21542 2.04059e-16)
(23.5269 2.12134 -6.85969e-17)
(23.6955 2.04325 5.88342e-17)
(23.8723 1.98595 1.6772e-16)
(24.0526 1.95204 9.77928e-17)
(24.2322 1.94288 -3.19704e-17)
(24.4061 1.9589 8.84125e-18)
(24.5688 1.99939 7.13308e-17)
(24.7144 2.06226 -8.26296e-17)
(24.8375 2.14392 1.31582e-16)
(24.9326 2.23904 -8.80725e-16)
(24.9953 2.3405 1.46734e-16)
(25.022 2.43862 -6.16772e-16)
(22.8636 3.14373 1.35773e-16)
(22.9174 3.00881 2.75022e-16)
(22.9785 2.8821 -1.90647e-16)
(23.0486 2.7615 4.38878e-16)
(23.129 2.64566 -3.38475e-16)
(23.2212 2.53416 7.37545e-17)
(23.3271 2.42736 -3.38597e-16)
(23.4489 2.32639 -5.89079e-17)
(23.5874 2.23409 -6.23096e-17)
(23.7396 2.15535 -2.43787e-16)
(23.9001 2.09489 -1.62833e-16)
(24.0648 2.05529 -1.13461e-16)
(24.23 2.03803 -2.82076e-17)
(24.3913 2.04376 1.29126e-17)
(24.5437 2.07211 -1.22686e-16)
(24.6817 2.12149 1.36544e-16)
(24.8001 2.18883 -1.01889e-16)
(24.8937 2.26943 6.79395e-16)
(24.9582 2.35677 9.85943e-17)
(24.9902 2.44194 6.75833e-16)
(23.0095 3.19596 1.23084e-16)
(23.0566 3.07043 -1.48979e-16)
(23.1102 2.95241 -3.84416e-16)
(23.1717 2.84001 -3.47323e-16)
(23.2424 2.73176 4.44977e-16)
(23.3238 2.62701 -8.17424e-17)
(23.4175 2.52581 3.71747e-16)
(23.5258 2.42897 9.53269e-17)
(23.6497 2.33894 -1.41885e-17)
(23.7865 2.26032 1.03686e-18)
(23.9317 2.19766 8.75483e-17)
(24.0816 2.1535 1.18295e-16)
(24.233 2.12935 1.9288e-17)
(24.382 2.12602 -1.50175e-17)
(24.524 2.14344 7.11474e-17)
(24.6542 2.18042 -6.66907e-17)
(24.7674 2.23439 1.09177e-17)
(24.859 2.30124 -1.31465e-16)
(24.9247 2.37508 -5.97047e-16)
(24.9613 2.44778 7.88226e-17)
(23.1889 3.12567 -2.24458e-16)
(23.2363 3.01579 -1.50172e-17)
(23.2902 2.91112 4.65414e-16)
(23.3522 2.81002 -7.51073e-17)
(23.4238 2.71171 -7.08355e-17)
(23.5065 2.61604 -6.55643e-17)
(23.6025 2.52347 -2.17951e-17)
(23.713 2.4361 9.28934e-17)
(23.8358 2.35825 5.37872e-17)
(23.9667 2.29423 5.31891e-17)
(24.1027 2.24652 -4.2673e-17)
(24.2408 2.2166 4.64257e-17)
(24.3779 2.20539 1.59586e-19)
(24.5097 2.21306 -2.44539e-17)
(24.6318 2.23873 6.30973e-17)
(24.7397 2.28033 -7.86413e-17)
(24.8287 2.33427 9.31237e-18)
(24.895 2.3953 3.65627e-16)
(24.9356 2.45611 -3.83128e-16)
(23.3153 3.17501 3.43712e-16)
(23.3568 3.07281 1.24355e-16)
(23.4038 2.97528 -1.13781e-16)
(23.4581 2.88087 -1.5288e-16)
(23.521 2.78874 -2.14416e-16)
(23.5939 2.69849 1.92078e-16)
(23.6789 2.61029 -1.31005e-16)
(23.7772 2.52589 1.91163e-16)
(23.8871 2.44929 -9.02761e-17)
(24.0048 2.38462 -1.70879e-17)
(24.1276 2.33424 1.77609e-17)
(24.2533 2.29958 -4.07396e-17)
(24.3788 2.28161 -1.18377e-17)
(24.5006 2.28066 -3.95066e-17)
(24.6147 2.29615 4.33979e-17)
(24.7169 2.3264 2.34623e-16)
(24.8029 2.36834 2.94181e-17)
(24.8693 2.41733 1.50046e-16)
(24.913 2.46688 -6.18133e-17)
(23.4356 3.21902 1.0216e-16)
(23.4717 3.12388 -1.27171e-16)
(23.5128 3.03298 -1.86294e-17)
(23.5603 2.94491 -1.83641e-16)
(23.6154 2.85868 -1.89072e-16)
(23.6796 2.77367 -1.90329e-16)
(23.7547 2.68981 2.55749e-16)
(23.842 2.60856 -3.66841e-18)
(23.9399 2.53361 5.69937e-17)
(24.0454 2.46891 3.28709e-17)
(24.1561 2.41664 -8.18707e-17)
(24.2699 2.37816 4.5221e-17)
(24.3844 2.35446 -2.05025e-18)
(24.4965 2.34598 4.82729e-17)
(24.6026 2.35238 -1.08519e-16)
(24.6989 2.37231 7.68354e-17)
(24.7816 2.4032 -6.4064e-16)
(24.8475 2.441 3.09473e-16)
(24.8938 2.47999 4.41778e-16)
(23.5813 3.16949 3.40834e-16)
(23.6175 3.08481 -7.78676e-17)
(23.6589 3.0027 -1.1952e-16)
(23.7071 2.92199 -9.6338e-18)
(23.7633 2.84199 1.50409e-16)
(23.8294 2.76241 -9.72581e-17)
(23.9067 2.68441 -5.33524e-17)
(23.9939 2.61143 -1.80679e-17)
(24.0881 2.54718 -7.06427e-17)
(24.1875 2.49371 5.48648e-17)
(24.2903 2.45225 3.14595e-17)
(24.3944 2.42378 4.71181e-19)
(24.4971 2.40881 4.30958e-17)
(24.5953 2.40718 1.41373e-17)
(24.6857 2.41784 -3.58152e-16)
(24.7649 2.43866 3.09784e-16)
(24.8297 2.46614 -4.19691e-16)
(24.8779 2.49531 -5.19663e-16)
(23.6862 3.21006 1.37627e-17)
(23.7177 3.13124 3.20368e-16)
(23.7537 3.05461 -2.24767e-16)
(23.7956 2.97907 5.60383e-18)
(23.8449 2.90385 6.30748e-17)
(23.903 2.82847 1.29743e-16)
(23.9713 2.7538 5.46384e-17)
(24.0487 2.68303 -1.96638e-16)
(24.1327 2.61964 8.92381e-17)
(24.2217 2.56555 -1.08063e-17)
(24.3142 2.52185 2.58422e-17)
(24.4085 2.48948 9.86593e-18)
(24.5023 2.46899 -3.88059e-17)
(24.5929 2.46034 -6.52851e-17)
(24.6774 2.46277 3.58567e-16)
(24.7527 2.47451 1.57005e-16)
(24.8161 2.49258 1.96741e-16)
(24.8655 2.51271 3.10214e-16)
(23.7863 3.24607 -4.003e-16)
(23.8135 3.17261 1.15996e-16)
(23.8448 3.10105 -1.00751e-16)
(23.8813 3.0304 3.2105e-16)
(23.9243 2.95976 -4.58608e-17)
(23.9754 2.88845 -1.20331e-16)
(24.0355 2.81713 7.57001e-17)
(24.1041 2.74871 7.42136e-17)
(24.1788 2.6865 1.4543e-16)
(24.2582 2.63225 -8.381e-17)
(24.3412 2.58696 -2.2309e-17)
(24.4264 2.55148 -6.87317e-18)
(24.5117 2.52636 -2.02137e-17)
(24.5949 2.51169 5.09139e-17)
(24.6735 2.50688 -2.61813e-16)
(24.7449 2.51052 9.94631e-18)
(24.8065 2.52011 -1.74154e-17)
(24.8565 2.53199 1.68325e-16)
(23.9051 3.20934 -7.82117e-17)
(23.9325 3.14256 1.49715e-16)
(23.9642 3.07649 -1.58328e-16)
(24.0016 3.01014 -5.52845e-17)
(24.0463 2.94272 1.06928e-16)
(24.0992 2.87468 -2.05342e-16)
(24.1597 2.80872 4.65873e-18)
(24.2259 2.74795 -2.83312e-18)
(24.2967 2.69397 -7.00239e-18)
(24.371 2.64765 2.66924e-17)
(24.4476 2.60977 -9.84033e-18)
(24.525 2.58085 -3.81876e-17)
(24.6012 2.56106 1.61123e-16)
(24.674 2.54999 2.32156e-16)
(24.7413 2.54649 2.16916e-16)
(24.8008 2.54853 3.96319e-19)
(24.851 2.55297 -2.50477e-17)
(23.9931 3.24181 1.05276e-16)
(24.0168 3.17951 -4.55644e-17)
(24.0441 3.11768 -1.21369e-16)
(24.0766 3.05534 6.8925e-17)
(24.1156 2.99163 -9.34945e-17)
(24.162 2.92683 -8.42654e-17)
(24.2153 2.8634 8.49372e-17)
(24.274 2.80427 -6.13623e-17)
(24.3368 2.7509 -1.8967e-18)
(24.4031 2.70404 7.83916e-18)
(24.4719 2.66438 9.32486e-18)
(24.5419 2.63242 2.13406e-17)
(24.6114 2.60836 -3.00108e-16)
(24.6787 2.59194 -1.32871e-16)
(24.7419 2.58225 1.77644e-16)
(24.799 2.57762 -2.71979e-16)
(24.0773 3.27042 2.25513e-17)