/*--------------------------------*- C++ -*----------------------------------*\
| =========                 |                                                 |
| \\      /  F ield         | OpenFOAM: The Open Source CFD Toolbox           |
|  \\    /   O peration     | Version:  2506                                  |
|   \\  /    A nd           | Website:  www.openfoam.com                      |
|    \\/     M anipulation  |                                                 |
\*---------------------------------------------------------------------------*/
FoamFile
{
    version     2.0;
    format      ascii;
    arch        "LSB;label=32;scalar=64";
    class       volScalarField;
    location    "300";
    object      div(phi);
}
// * * * * * * * * * * * * * * * * * * * * * * * * * * * * * * * * * * * * * //

dimensions      [0 0 -1 0 0 0 0];

internalField   nonuniform List<scalar> 
1340
(
-4.1739e-07
-1.96921e-06
9.14222e-07
-1.96552e-06
3.49568e-07
-1.00027e-06
1.22311e-06
-7.06492e-07
-7.48486e-07
-1.75753e-06
-1.6355e-06
-1.65483e-06
-1.1003e-06
-9.91044e-07
-6.24575e-07
-6.86433e-07
-4.15139e-07
-6.28135e-07
-1.80657e-07
-5.33217e-07
5.92163e-07
4.8676e-07
3.77739e-06
5.16199e-06
6.12906e-06
4.75639e-06
1.92551e-06
6.83431e-07
1.89183e-06
1.38165e-06
-9.99778e-06
1.91993e-05
1.64416e-06
-6.83817e-08
-7.1897e-06
-1.04413e-06
-2.10113e-06
-4.85971e-07
-1.59116e-06
-4.80782e-07
-1.62396e-06
-4.17734e-07
-1.79936e-07
-1.00425e-06
2.64946e-07
-1.76275e-06
3.8655e-07
-3.71624e-07
-2.52132e-07
2.97029e-07
-1.22453e-06
-1.63303e-06
-1.56507e-06
-1.51781e-06
-1.13548e-06
-1.11328e-06
-8.29372e-07
-9.29485e-07
-6.81802e-07
-7.9284e-07
-4.19585e-07
-5.31351e-07
9.26517e-08
9.82631e-08
1.33469e-06
1.62096e-06
2.20595e-06
1.70587e-06
9.41305e-07
4.17074e-08
5.14639e-07
5.08396e-08
-5.85954e-06
8.4759e-06
3.22884e-07
1.51882e-06
-1.25114e-06
-1.30981e-06
-4.28876e-07
-1.26671e-06
-7.21327e-07
-1.22564e-06
-1.17299e-07
-2.22106e-06
6.9303e-07
-2.06025e-06
5.56468e-07
-1.68461e-06
4.1914e-07
3.41576e-07
-1.11647e-06
-1.13669e-06
-1.28397e-06
-1.56919e-06
-1.18228e-06
-1.17808e-06
-8.22817e-07
-8.27531e-07
-6.23933e-07
-6.25662e-07
-5.32467e-07
-4.26405e-07
-3.56838e-07
5.53056e-08
2.50957e-07
1.34622e-06
1.97682e-06
2.80374e-06
2.40469e-06
2.59071e-06
6.87111e-07
1.65274e-06
1.14519e-06
-4.10501e-06
1.09541e-05
1.11595e-06
-6.00037e-07
-5.75769e-06
-3.60969e-07
-1.025e-06
-8.81549e-07
-1.04324e-06
-6.22744e-07
-1.18663e-06
-6.74578e-07
-1.3757e-06
-2.37753e-07
-1.5316e-06
8.21499e-07
-4.96591e-07
-6.04584e-07
-8.8319e-08
-1.05017e-06
-1.27142e-06
-1.2967e-06
-1.16913e-06
-1.17089e-06
-9.72908e-07
-1.09934e-06
-8.84615e-07
-1.03502e-06
-7.68811e-07
-8.12468e-07
-4.71571e-07
-3.67353e-07
9.75998e-08
5.29625e-07
1.17454e-06
1.42808e-06
1.80564e-06
1.51121e-06
1.11353e-06
9.99409e-07
1.98126e-07
-3.16211e-06
5.29036e-06
7.06511e-07
1.77119e-06
-2.74864e-07
-8.59649e-07
-9.73405e-07
-8.77485e-07
-1.0199e-06
-7.67345e-07
-9.27292e-07
-9.41096e-07
-8.68748e-07
3.99157e-07
-1.15573e-06
4.90172e-07
1.71707e-07
-1.05952e-06
-6.58175e-07
-1.12018e-06
-9.92888e-07
-1.16104e-06
-9.08216e-07
-1.02476e-06
-7.81533e-07
-8.42172e-07
-6.387e-07
-6.61661e-07
-4.80745e-07
-4.16271e-07
-1.31348e-07
1.50146e-07
7.97696e-07
1.61723e-06
2.31064e-06
3.12537e-06
2.79981e-06
2.21958e-06
1.61584e-06
1.53075e-06
-1.7717e-06
8.37109e-06
1.76956e-06
-1.71958e-06
-5.97381e-06
-8.89464e-07
-8.26172e-07
-1.11452e-06
-5.38005e-07
-8.53364e-07
-1.18873e-06
-6.87377e-07
-2.69524e-07
-1.44178e-06
7.62322e-07
-7.01979e-07
-6.22962e-07
7.56553e-08
-8.58842e-07
-8.89264e-07
-1.00314e-06
-9.94044e-07
-1.00432e-06
-1.10797e-06
-9.89987e-07
-1.10718e-06
-9.10036e-07
-1.00692e-06
-6.9739e-07
-7.21167e-07
-3.24083e-07
-2.87662e-07
2.63925e-07
4.11975e-07
1.06364e-06
1.33852e-06
1.86664e-06
1.67953e-06
1.8553e-06
6.90861e-07
-1.67461e-06
4.39109e-06
1.51703e-06
2.12569e-06
-3.92678e-08
-8.965e-07
-8.98274e-07
-8.22641e-07
-7.44315e-07
-1.43839e-06
-4.16406e-07
-9.3278e-07
-7.47472e-08
-1.19691e-06
9.7906e-08
8.26549e-08
-7.94159e-07
-6.18189e-07
-7.47281e-07
-9.0953e-07
-8.4783e-07
-1.04554e-06
-9.14939e-07
-1.01639e-06
-7.8911e-07
-8.05793e-07
-6.06018e-07
-5.77667e-07
-4.02176e-07
-2.76736e-07
-4.60829e-08
3.30495e-07
8.75352e-07
1.63152e-06
2.38049e-06
3.18999e-06
2.2699e-06
2.72093e-06
1.34791e-06
-2.06693e-07
6.76092e-06
1.36702e-06
-2.14251e-06
-6.94461e-06
-5.76799e-07
-1.10046e-06
-4.68348e-07
-8.66587e-07
-5.87739e-07
-2.78688e-07
-8.6721e-07
-4.67901e-07
-5.16155e-10
-4.56108e-07
-4.02599e-07
-8.85365e-08
-5.93942e-07
-8.19317e-07
-7.44954e-07
-8.73105e-07
-9.84722e-07
-1.04469e-06
-1.13006e-06
-9.85103e-07
-1.06256e-06
-8.30449e-07
-8.78447e-07
-5.58867e-07
-5.87586e-07
-2.4343e-07
-2.49991e-07
1.72093e-07
2.887e-07
9.96525e-07
1.36513e-06
2.00979e-06
2.22431e-06
1.56496e-06
-5.13764e-07
3.76606e-06
2.24626e-06
2.27423e-06
2.35134e-07
-9.51084e-07
-4.13601e-07
-1.00194e-06
2.83391e-07
-8.46063e-07
-1.00447e-06
5.41085e-07
-9.27246e-07
4.70186e-08
3.14863e-07
-8.10252e-08
-6.54647e-07
-5.88527e-07
-5.52408e-07
-7.09003e-07
-8.34807e-07
-8.77021e-07
-1.08541e-06
-9.36343e-07
-9.75936e-07
-7.22319e-07
-7.33149e-07
-4.95555e-07
-5.16007e-07
-2.79258e-07
-3.09989e-07
5.66487e-08
1.79994e-07
9.59034e-07
1.3429e-06
2.65018e-06
2.26698e-06
2.96017e-06
1.61891e-06
9.10324e-07
4.30532e-06
1.52618e-06
-3.32618e-06
-6.49285e-06
-4.03513e-07
-1.15987e-06
1.11313e-07
-6.80382e-07
-8.40963e-07
-1.23311e-07
-3.66436e-08
-5.02607e-07
-9.09369e-07
-2.85103e-07
-6.66866e-07
-9.11993e-07
-1.03568e-06
-1.05157e-06
-1.07054e-06
-9.21898e-07
-9.11712e-07
-7.24427e-07
-6.65169e-07
-4.97454e-07
-4.30625e-07
-3.24412e-07
-1.83439e-07
-4.11363e-08
4.70219e-07
8.97944e-07
1.89017e-06
2.26651e-06
2.44166e-06
2.33514e-07
3.7686e-06
3.10194e-06
2.40237e-06
6.62506e-07
-7.84126e-07
-9.11718e-07
-6.65468e-07
-1.76083e-07
-7.38804e-07
-4.24589e-07
-7.8978e-07
-8.86643e-07
-1.04214e-06
-8.66756e-07
-8.8581e-07
-5.98955e-07
-6.55543e-07
-3.5551e-07
-5.20559e-07
-1.79569e-07
-4.47081e-07
1.53369e-07
-8.9347e-08
1.08205e-06
1.04925e-06
2.52909e-06
1.99423e-06
2.61922e-06
1.17618e-07
3.65358e-06
5.19473e-07
-3.38875e-06
-6.10436e-06
-1.24188e-06
-9.15518e-07
6.59729e-08
-4.58236e-07
-6.61419e-07
-8.68611e-07
-9.57526e-07
-1.00356e-06
-8.82326e-07
-8.26109e-07
-6.62345e-07
-6.25754e-07
-4.47467e-07
-4.71711e-07
-3.25817e-07
-3.60091e-07
-1.78461e-07
6.36335e-08
5.29891e-07
1.42475e-06
2.1001e-06
2.59848e-06
8.99797e-07
3.83563e-06
4.09387e-06
2.8109e-06
1.10597e-06
-6.34477e-07
-5.60341e-07
-2.95816e-07
-5.01296e-07
-7.47899e-07
-8.37626e-07
-9.2876e-07
-7.49273e-07
-7.34283e-07
-4.70092e-07
-5.32531e-07
-2.82199e-07
-4.75081e-07
-1.93152e-07
-4.16626e-07
2.6196e-08
-4.32573e-08
8.50699e-07
1.03976e-06
1.99107e-06
1.57597e-06
2.76545e-07
1.92769e-06
4.57925e-07
-4.17421e-06
-5.48738e-06
-2.73215e-07
-3.4716e-07
-4.43481e-07
-6.23175e-07
-8.44144e-07
-8.26444e-07
-8.64427e-07
-6.28029e-07
-6.73149e-07
-4.25957e-07
-5.0542e-07
-2.82739e-07
-4.35047e-07
-2.16919e-07
-3.95704e-07
2.09996e-08
5.77251e-08
1.08356e-06
1.41105e-06
2.4216e-06
1.0626e-06
3.96829e-06
4.5197e-06
3.53962e-06
1.33673e-06
-7.47987e-07
4.86812e-08
-2.80367e-07
-5.21629e-07
-7.00534e-07
-7.82442e-07
-7.24391e-07
-6.04993e-07
-5.11735e-07
-3.7105e-07
-3.7142e-07
-2.71481e-07
-3.7181e-07
-2.34416e-07
-3.94275e-07
-7.26289e-08
-1.0589e-07
6.84597e-07
5.86135e-07
1.16624e-06
-4.92479e-07
9.87109e-07
-1.24559e-07
-4.84861e-06
-5.18577e-06
-5.4306e-07
-1.33653e-07
-3.93466e-07
-6.134e-07
-7.40897e-07
-6.18752e-07
-6.22572e-07
-4.11094e-07
-4.90894e-07
-2.53517e-07
-3.83661e-07
-1.7412e-07
-3.74203e-07
-1.76446e-07
-2.93163e-07
6.90246e-08
4.1581e-07
1.02568e-06
1.57625e-06
1.29529e-06
3.48709e-06
4.65855e-06
3.82553e-06
1.60229e-06
-2.19998e-07
-3.10215e-07
-5.5494e-07
-5.86562e-07
-6.23455e-07
-4.70842e-07
-4.594e-07
-3.05482e-07
-3.13409e-07
-2.22417e-07
-3.02085e-07
-2.51984e-07
-3.96431e-07
-2.94773e-07
-4.02307e-07
4.89329e-08
-1.91911e-07
3.13396e-07
-1.07719e-06
3.69914e-07
-9.86196e-07
-4.53041e-06
-5.70754e-06
-1.63418e-07
-2.66448e-07
-4.197e-07
-5.18968e-07
-5.05764e-07
-3.97919e-07
-4.14007e-07
-2.89185e-07
-3.05741e-07
-1.75865e-07
-2.37769e-07
-1.80572e-07
-2.66465e-07
-2.1426e-07
-1.25956e-07
1.47251e-07
5.37634e-07
9.28533e-07
1.22841e-06
2.8956e-06
4.21526e-06
3.78487e-06
1.71059e-06
-2.0183e-07
-3.31408e-07
-4.42334e-07
-3.84862e-07
-4.35629e-07
-3.00236e-07
-3.54584e-07
-1.65782e-07
-2.72637e-07
-1.29766e-07
-3.37524e-07
-2.26335e-07
-5.21373e-07
-3.1614e-07
-5.68788e-07
-2.81767e-07
-7.3557e-07
-7.08782e-07
-6.76951e-07
-8.83945e-07
-4.57855e-06
-5.57771e-06
-2.25664e-07
-2.63894e-07
-3.32732e-07
-2.83889e-07
-2.93416e-07
-2.99308e-07
-2.66214e-07
-2.06387e-07
-1.47356e-07
-1.32931e-07
-1.42829e-07
-1.84009e-07
-2.02565e-07
-1.25809e-07
-2.52799e-08
3.06497e-07
4.9706e-07
1.18093e-06
2.20435e-06
3.57961e-06
3.26122e-06
1.6375e-06
-2.47902e-07
-1.3577e-07
-2.76064e-07
-2.40867e-07
-3.19284e-07
-2.08274e-07
-2.31432e-07
-9.59126e-08
-1.91082e-07
-1.23187e-07
-3.02948e-07
-2.85917e-07
-4.71185e-07
-4.28426e-07
-6.13243e-07
-6.6053e-07
-8.44466e-07
-6.55742e-07
-1.21774e-06
-3.73088e-06
-5.44419e-06
-7.77952e-08
-4.43405e-07
2.63979e-08
-1.74809e-07
-2.25083e-07
-2.22823e-07
-1.32087e-07
-9.28453e-08
-4.24661e-08
-6.9428e-08
-9.09908e-08
-1.12541e-07
-7.28385e-08
-9.09233e-09
2.15869e-07
3.8898e-07
1.05098e-06
1.70435e-06
2.86237e-06
2.58582e-06
1.41691e-06
2.46983e-07
-4.12623e-08
-5.43233e-08
-1.75678e-07
-2.07049e-07
-1.12433e-07
-9.11089e-08
-3.39953e-08
-9.7861e-08
-1.03512e-07
-2.29371e-07
-2.4194e-07
-4.09655e-07
-3.8099e-07
-6.56505e-07
-4.91476e-07
-7.5751e-07
-9.99169e-07
-2.94643e-06
-4.80332e-06
-4.18924e-07
2.62176e-07
3.75978e-08
-1.29631e-07
-1.21445e-07
-8.72997e-08
1.21802e-08
1.51059e-08
5.13771e-08
-1.59135e-08
3.33048e-08
-1.34638e-08
1.22051e-07
1.88325e-07
4.46039e-07
8.8677e-07
1.37775e-06
2.24406e-06
1.91333e-06
1.37223e-06
5.20693e-07
1.03568e-07
4.12311e-08
-1.05729e-07
-1.13496e-07
-6.1615e-08
8.56604e-09
2.6947e-08
3.2317e-08
-1.00159e-08
-3.9044e-08
-1.25551e-07
-1.64233e-07
-2.59795e-07
-3.48988e-07
-3.34559e-07
-5.36754e-07
-7.48288e-07
-2.25952e-06
-3.52088e-06
3.80852e-07
8.3713e-09
-3.92326e-08
-7.5236e-08
2.15359e-08
4.11395e-08
1.29401e-07
8.05219e-08
1.24401e-07
7.04428e-08
1.32393e-07
1.52006e-07
2.6416e-07
4.43285e-07
7.60253e-07
1.15364e-06
1.69545e-06
1.4419e-06
1.69104e-06
2.01696e-07
7.88591e-08
-7.009e-08
-3.75066e-08
-8.64257e-09
7.62488e-08
7.96342e-08
1.13032e-07
7.68973e-08
7.64739e-08
8.10028e-09
-9.88853e-09
-9.76015e-08
-1.22676e-07
-1.7096e-07
-2.82834e-07
-5.36473e-07
-1.49494e-06
-2.44047e-06
3.81387e-07
-2.37402e-07
3.55095e-08
3.94277e-09
3.12828e-08
1.15421e-07
1.29924e-07
1.59905e-07
1.37164e-07
1.51941e-07
1.54603e-07
2.04364e-07
2.63756e-07
4.28205e-07
6.26997e-07
9.47048e-07
1.30154e-06
9.44183e-07
2.10741e-06
3.29466e-07
4.53458e-08
4.80337e-08
8.31091e-08
7.84827e-08
1.45775e-07
1.16138e-07
1.57355e-07
1.06814e-07
1.16463e-07
5.41603e-08
4.71752e-08
-3.54537e-09
-1.75416e-08
-9.29038e-08
-3.80339e-07
-8.10018e-07
-1.33377e-07
-2.46266e-07
1.51172e-07
1.64776e-07
1.07085e-07
1.43429e-07
1.51528e-07
1.68085e-07
1.53732e-07
1.57682e-07
1.66075e-07
1.93837e-07
2.49936e-07
3.5856e-07
5.07172e-07
7.29653e-07
9.71921e-07
1.23808e-06
-3.15846e-08
3.96858e-07
8.95673e-08
1.29581e-07
1.1061e-07
1.41582e-07
1.32402e-07
1.59304e-07
1.43155e-07
1.56752e-07
1.24009e-07
1.23471e-07
8.9414e-08
9.017e-08
5.52065e-08
3.14274e-08
-1.34478e-07
-1.15547e-06
1.16532e-06
3.06979e-07
1.20491e-07
1.40672e-07
1.45675e-07
1.65853e-07
1.53365e-07
1.55144e-07
1.39235e-07
1.56385e-07
1.64075e-07
2.12371e-07
2.74504e-07
3.84789e-07
5.28395e-07
5.40867e-07
1.32285e-06
-2.0366e-06
5.08753e-09
1.15341e-07
1.37461e-07
1.46745e-07
1.4613e-07
1.41823e-07
1.47475e-07
1.44372e-07
1.40428e-07
1.3131e-07
1.2388e-07
1.13865e-07
9.82477e-08
6.26404e-08
6.52146e-09
-1.35584e-06
2.57756e-06
2.70079e-07
5.27328e-08
1.29915e-07
1.58849e-07
1.41417e-07
1.47887e-07
1.23061e-07
1.29907e-07
1.32521e-07
1.4287e-07
1.64183e-07
1.97903e-07
2.66117e-07
3.41566e-07
2.58203e-07
1.30334e-06
2.27299e-07
1.40855e-07
1.31248e-07
1.26803e-07
1.12774e-07
1.28527e-07
1.36335e-07
1.45894e-07
1.40816e-07
1.33164e-07
1.2028e-07
1.04748e-07
6.54143e-08
8.0562e-08
-8.53918e-07
-1.66145e-08
1.20534e-07
1.12553e-07
1.17168e-07
1.01481e-07
1.12672e-07
1.28149e-07
1.31375e-07
1.35184e-07
1.28405e-07
1.37793e-07
1.6755e-07
2.0323e-07
9.32813e-08
9.89602e-07
3.05311e-07
1.43443e-07
1.40831e-07
8.40977e-08
9.9445e-08
1.20909e-07
1.52758e-07
1.62869e-07
1.50517e-07
1.33202e-07
1.13139e-07
9.44211e-08
5.726e-08
1.36827e-07
-7.1762e-07
-7.55525e-08
1.19705e-07
1.69527e-07
1.13713e-07
1.10763e-07
1.39621e-07
1.53994e-07
1.55788e-07
1.31546e-07
1.03279e-07
9.33335e-08
9.95904e-08
1.11153e-07
-3.82056e-08
8.2663e-07
2.85111e-07
2.3879e-07
1.06889e-07
1.06147e-07
1.14758e-07
1.53871e-07
1.82458e-07
1.67772e-07
1.41108e-07
1.09113e-07
9.15653e-08
7.27636e-08
3.48288e-08
1.85302e-07
-6.26226e-07
1.70549e-07
1.49054e-07
1.19009e-07
1.48028e-07
1.67514e-07
1.73967e-07
1.49081e-07
1.03178e-07
7.00972e-08
5.16675e-08
5.07337e-08
6.46255e-08
-1.50096e-07
7.52714e-07
2.19502e-07
1.06358e-07
1.10481e-07
1.24393e-07
1.72647e-07
1.57218e-07
1.27297e-07
8.94722e-08
6.2114e-08
5.81609e-08
5.42679e-08
-1.47123e-08
2.70324e-07
-3.15622e-07
2.18558e-07
7.93982e-08
9.79274e-08
1.59081e-07
1.01481e-07
1.10571e-07
9.00954e-08
4.87963e-08
2.94947e-08
2.61427e-08
4.07601e-09
7.63299e-08
1.043e-07
3.83387e-07
-6.99069e-08
4.48216e-08
1.10233e-07
-8.2551e-09
4.52515e-08
8.24144e-08
5.13396e-08
3.50779e-08
2.8924e-08
2.31964e-08
4.79743e-08
1.37269e-07
-6.75762e-08
-9.68442e-08
1.42477e-07
3.54051e-09
-3.44278e-08
-4.38337e-08
4.36128e-08
-2.64724e-09
5.59808e-08
3.19518e-08
1.15762e-08
1.70197e-08
3.84261e-08
-1.29936e-07
1.74033e-07
-9.02237e-08
8.24629e-08
-1.13185e-07
-1.87387e-08
-1.20047e-07
5.86589e-08
4.98494e-08
1.85076e-08
1.6794e-08
1.25205e-08
-1.67036e-08
1.60234e-07
-3.10374e-07
9.49339e-08
-1.68129e-07
-5.144e-08
-1.76558e-07
4.35722e-09
5.51078e-08
2.77574e-08
2.76568e-08
-2.35575e-09
1.08147e-08
4.11959e-08
-1.90466e-07
2.24218e-07
7.26484e-08
-1.37643e-07
-7.07549e-08
3.80534e-09
7.6142e-09
1.70669e-08
-2.41862e-08
-3.12622e-09
-1.60758e-08
-3.32711e-08
1.38606e-07
-1.61234e-07
-2.22082e-07
-7.91931e-08
-3.65031e-08
-1.70714e-08
2.54926e-09
-2.58312e-08
-1.76613e-09
-4.44887e-08
-1.53034e-10
2.56704e-08
-1.35945e-07
1.50371e-07
1.0374e-07
-6.87726e-08
-5.04415e-08
-2.90435e-08
-1.42803e-08
-1.49323e-08
-4.02774e-08
-1.48151e-08
-4.27615e-08
-2.39116e-08
1.1942e-07
-9.73703e-08
4.72062e-08
-7.92288e-08
8.70013e-09
-4.60808e-08
1.41971e-08
-1.4928e-08
-1.18228e-08
6.72009e-08
3.32635e-08
-7.08514e-08
1.02225e-07
-1.7557e-07
-8.75011e-09
-5.59844e-08
3.61785e-08
1.84863e-09
3.03449e-08
1.0234e-07
-2.69871e-09
2.35414e-08
6.62395e-08
-6.99108e-08
1.65652e-08
-2.01858e-08
1.25091e-08
1.9695e-08
3.08702e-08
8.02545e-08
1.61463e-08
6.9584e-08
6.02113e-09
-1.01423e-07
2.55975e-08
-9.52733e-08
-8.91063e-09
1.03464e-08
1.91411e-08
4.01761e-08
3.09711e-08
5.25192e-08
5.59639e-09
-5.00762e-08
6.73795e-08
-3.47703e-08
4.29293e-08
5.17876e-10
1.78595e-08
1.88076e-08
2.97382e-08
3.16682e-08
3.42221e-08
7.52445e-09
7.89935e-08
-3.84827e-08
8.22322e-08
-9.1658e-08
2.61804e-08
-1.9781e-09
3.28195e-08
8.53131e-09
3.80337e-08
1.44982e-08
5.03461e-08
3.23835e-09
9.32515e-08
1.26586e-07
-4.83591e-08
2.24414e-08
-1.0774e-08
2.69098e-08
6.03725e-09
2.01854e-08
4.81878e-08
1.39505e-08
2.08044e-08
7.70089e-08
-1.82785e-09
1.03846e-08
7.42021e-09
9.10565e-09
4.03762e-08
-5.50261e-09
5.58519e-08
-2.54888e-08
-3.23781e-08
-1.05986e-09
4.73142e-09
8.76031e-09
1.80274e-08
-1.78341e-09
5.44771e-08
-1.37047e-08
4.67958e-08
2.89189e-08
3.07388e-09
1.13933e-08
1.39739e-08
1.05492e-08
3.41095e-08
-8.55586e-09
3.0748e-08
-1.4727e-08
-3.18942e-08
3.86697e-09
6.7969e-09
1.07965e-08
1.45631e-08
-2.68037e-09
1.47136e-08
-8.84484e-09
1.56073e-08
2.10065e-08
1.38793e-09
1.03931e-08
8.75395e-09
7.27058e-09
7.49726e-09
4.28118e-09
7.11996e-09
6.80966e-09
-2.63547e-08
2.48485e-09
5.83932e-09
6.0829e-09
9.17588e-09
9.46852e-09
6.74661e-09
1.0612e-08
9.02684e-11
6.11199e-10
1.14119e-09
8.06774e-09
4.34879e-09
4.05948e-09
1.33042e-08
4.14835e-09
-1.78043e-08
-4.01774e-09
6.2732e-09
-3.47564e-10
2.75652e-09
1.62995e-08
8.20592e-10
1.6775e-08
-9.65991e-09
1.30665e-09
-1.88e-10
1.35717e-08
-6.61829e-09
1.66215e-08
-9.68102e-09
1.91882e-08
1.07299e-09
4.3858e-09
-7.82313e-09
1.12616e-08
-1.16776e-08
1.08492e-08
-8.24823e-09
4.19749e-10
-3.91015e-10
9.21324e-09
-4.40396e-09
7.3003e-09
-1.0516e-08
9.96579e-09
-1.02722e-10
3.30324e-09
-1.64682e-10
1.07153e-09
-5.77118e-09
-6.57811e-10
-1.49767e-08
-1.57846e-09
-7.89203e-10
8.13366e-10
4.02655e-10
-1.21753e-09
4.92056e-09
-1.32669e-09
1.4495e-09
1.78101e-09
-4.04723e-10
2.81167e-09
-1.40891e-08
-1.64946e-09
-1.50729e-09
2.29256e-10
1.96614e-09
-1.06215e-10
3.8345e-09
-2.38319e-09
-2.78256e-11
1.82401e-10
-5.30122e-10
1.90381e-09
-1.6889e-08
2.56883e-10
-1.8324e-09
-8.97761e-10
1.33557e-09
-1.48377e-09
1.4985e-08
-7.89264e-09
-2.73042e-09
1.58919e-09
-2.15577e-09
2.77615e-09
5.6758e-09
8.86361e-11
-6.15338e-09
1.96307e-09
-7.44386e-09
-1.25425e-08
-9.63403e-09
-4.90612e-09
-1.06986e-08
-2.59424e-09
-1.27362e-09
-6.10484e-09
-7.09679e-09
-3.45828e-09
-6.31363e-09
-1.53775e-08
-5.32932e-09
-4.22041e-09
-5.40477e-09
-8.86005e-09
-8.698e-09
-5.38535e-09
-7.24399e-09
-2.25107e-08
-8.38234e-09
-5.14768e-09
-8.38307e-09
)
;

boundaryField
{
    inlet
    {
        type            extrapolatedCalculated;
        value           nonuniform List<scalar> 4(-2.25107e-08 -8.38234e-09 -5.14768e-09 -8.38307e-09);
    }
    outlet
    {
        type            extrapolatedCalculated;
        value           nonuniform List<scalar> 0();
    }
    walls
    {
        type            extrapolatedCalculated;
        value           nonuniform List<scalar> 
42
(
-4.1739e-07
-1.96921e-06
9.14222e-07
-1.96552e-06
3.49568e-07
-1.00027e-06
1.22311e-06
-7.06492e-07
-7.48486e-07
-1.75753e-06
-1.6355e-06
-1.65483e-06
-1.1003e-06
-9.91044e-07
-6.24575e-07
-6.86433e-07
-4.15139e-07
-6.28135e-07
-1.80657e-07
-5.33217e-07
5.92163e-07
4.8676e-07
3.77739e-06
5.16199e-06
6.12906e-06
4.75639e-06
1.92551e-06
6.83431e-07
1.89183e-06
1.38165e-06
-9.99778e-06
1.91993e-05
1.64416e-06
-6.83817e-08
-7.1897e-06
-1.04413e-06
-2.10113e-06
-4.85971e-07
-1.59116e-06
-4.80782e-07
-1.62396e-06
-4.17734e-07
)
;
    }
    frontAndBack
    {
        type            empty;
    }
    procBoundary5to0
    {
        type            processor;
        value           nonuniform List<scalar> 4(-1.03023e-06 -1.39252e-06 -7.44035e-07 -1.73237e-06);
    }
    procBoundary5to1
    {
        type            processor;
        value           nonuniform List<scalar> 
13
(
-3.0086e-06
-2.79818e-06
-2.79818e-06
-1.10427e-06
-1.32107e-06
-1.32107e-06
-8.12283e-07
-1.19517e-06
-1.19517e-06
-5.47263e-07
-1.14024e-06
-2.15269e-06
-2.15269e-06
)
;
    }
    procBoundary5to4
    {
        type            processor;
        value           nonuniform List<scalar> 
95
(
-2.26091e-07
-1.70812e-06
5.37409e-07
5.37409e-07
-4.68791e-07
4.47911e-07
4.47911e-07
-4.85815e-07
-2.10195e-07
-2.10195e-07
-9.73584e-07
-9.73584e-07
-1.05124e-06
-1.05124e-06
-2.35554e-07
6.78835e-08
6.78835e-08
9.17455e-08
9.17455e-08
-5.80894e-08
-1.09156e-07
-1.09156e-07
-8.78732e-08
-2.07939e-07
-2.07939e-07
-9.65261e-08
-5.24325e-07
-5.24325e-07
1.92629e-07
-2.30931e-07
-2.8224e-08
-2.8224e-08
3.03367e-07
1.74113e-07
-1.38942e-07
-1.38942e-07
2.58161e-07
-1.855e-07
-1.57511e-07
-1.57511e-07
2.36057e-07
-5.2992e-08
1.17065e-08
1.17065e-08
1.73681e-07
-1.43985e-07
2.6699e-07
-9.77829e-08
1.53801e-07
1.53801e-07
1.22538e-07
1.86045e-08
1.8332e-07
-1.2786e-07
-1.03971e-07
-1.03971e-07
7.52115e-08
-1.65491e-07
1.32868e-07
-1.38005e-07
-1.75816e-07
-1.75816e-07
4.29548e-08
-1.28008e-07
3.8197e-08
-9.24186e-08
8.60524e-08
-9.4357e-08
-1.10882e-07
-1.10882e-07
3.72904e-08
-5.14584e-08
3.08258e-08
-4.11811e-08
1.96046e-08
-3.22948e-08
-5.48519e-09
7.16166e-09
7.16166e-09
-1.22772e-08
1.45181e-08
-1.82663e-08
1.0222e-08
-1.62702e-08
7.87835e-09
-1.66039e-08
1.23329e-08
-1.72771e-08
-2.06217e-08
-2.06217e-08
4.06174e-09
-1.60622e-08
2.75901e-09
-1.72381e-08
-1.07857e-08
)
;
    }
    procBoundary5to6
    {
        type            processor;
        value           nonuniform List<scalar> 
86
(
2.31315e-05
7.68621e-06
1.58235e-05
4.80422e-06
1.68803e-05
6.20909e-06
1.93257e-05
8.3425e-06
1.90727e-05
9.05965e-06
1.61568e-05
8.96445e-06
1.30716e-05
8.49623e-06
1.00831e-05
7.46831e-06
7.50301e-06
6.04082e-06
5.48153e-06
4.47253e-06
3.97678e-06
3.21578e-06
3.1896e-06
2.2213e-06
2.16294e-06
1.65275e-06
1.47474e-06
1.20192e-06
1.00709e-06
1.48082e-06
-6.02093e-08
1.30155e-06
-2.30375e-07
-2.60083e-06
-2.60083e-06
1.55747e-06
-9.46038e-07
1.20932e-06
-8.3503e-07
1.00519e-06
-7.34892e-07
8.26554e-07
-3.75771e-07
3.28809e-07
-2.69614e-07
1.86294e-07
-2.30009e-07
-2.30009e-07
5.34446e-08
-2.21403e-08
5.54935e-08
2.31704e-08
-1.69858e-09
5.43203e-10
-6.33204e-09
2.64045e-08
-2.02051e-08
-2.02051e-08
-2.20316e-08
3.44642e-08
-3.95224e-09
3.03147e-08
2.57168e-09
1.37558e-08
1.72453e-08
1.72453e-08
1.73144e-08
7.71118e-09
1.65304e-08
-1.15371e-08
4.47943e-09
-8.75705e-09
-4.90134e-09
-4.90134e-09
9.81319e-10
3.0893e-09
1.00886e-09
7.15667e-10
-2.11021e-09
-6.45692e-12
-1.49513e-08
-8.15344e-09
-8.53901e-09
-8.53901e-09
-1.07304e-08
-1.30318e-08
)
;
    }
}


// ************************************************************************* //
