/*--------------------------------*- C++ -*----------------------------------*\
| =========                 |                                                 |
| \\      /  F ield         | OpenFOAM: The Open Source CFD Toolbox           |
|  \\    /   O peration     | Version:  2506                                  |
|   \\  /    A nd           | Website:  www.openfoam.com                      |
|    \\/     M anipulation  |                                                 |
\*---------------------------------------------------------------------------*/
FoamFile
{
    version     2.0;
    format      ascii;
    arch        "LSB;label=32;scalar=64";
    class       volScalarField;
    location    "300";
    object      nut;
}
// * * * * * * * * * * * * * * * * * * * * * * * * * * * * * * * * * * * * * //

dimensions      [0 2 -1 0 0 0 0];

internalField   nonuniform List<scalar> 
1340
(
2.58168e-05
2.95445e-05
3.45336e-05
4.09978e-05
4.93235e-05
6.00422e-05
7.38741e-05
9.11812e-05
0.000113001
0.000140379
0.000175271
0.00022079
0.000281369
0.000364965
0.000485169
0.000664006
0.000946116
0.0013956
0.00221816
0.00359026
0.00690569
0.0127146
0.0339499
0.0760761
0.093728
0.0946455
0.0956864
0.0992218
0.102741
0.10448
0.10446
0.103213
0.100847
0.0974174
0.0927994
2.25903e-05
1.98108e-05
1.70798e-05
1.45892e-05
1.22547e-05
1.01116e-05
8.24875e-06
5.08513e-06
4.97998e-06
4.88512e-06
4.8065e-06
4.71631e-06
4.6335e-06
4.57219e-06
4.51853e-06
4.49547e-06
4.51587e-06
4.54336e-06
4.81933e-06
5.88185e-06
8.66003e-06
1.64306e-05
3.68494e-05
8.39805e-05
0.00016285
0.00031563
0.000588916
0.00132329
0.00283276
0.0071223
0.0205297
0.0395714
0.0633608
0.0925865
0.123724
0.148751
0.162699
0.167994
0.16882
0.167234
0.16388
0.159364
5.16873e-06
5.28198e-06
5.37849e-06
5.50948e-06
5.64376e-06
5.77962e-06
6.26627e-06
6.28361e-06
6.30158e-06
6.32092e-06
6.34461e-06
6.37112e-06
6.40145e-06
6.43691e-06
6.47877e-06
6.52778e-06
6.58601e-06
6.65763e-06
6.73727e-06
6.8794e-06
6.88547e-06
6.50382e-06
4.67673e-06
3.91404e-06
4.69442e-07
9.76516e-05
0.000255247
5.54953e-06
0.00147584
0.000526755
0.00290506
0.00742809
0.0155623
0.0310007
0.0573251
0.0937531
0.132813
0.164536
0.184954
0.196794
0.203484
6.25301e-06
6.23398e-06
6.21943e-06
6.19785e-06
6.1793e-06
6.15939e-06
6.08616e-06
6.08376e-06
6.08315e-06
6.08352e-06
6.08444e-06
6.0871e-06
6.092e-06
6.09874e-06
6.10879e-06
6.12239e-06
6.14036e-06
6.16387e-06
6.19452e-06
6.2331e-06
6.28447e-06
6.34506e-06
6.20365e-06
5.97774e-06
4.20937e-06
1.21979e-06
1.53174e-08
8.39203e-08
0
8.46164e-05
0.000606039
0.00157808
0.00336622
0.000207164
0.00344817
0.0133267
0.0355817
0.0727787
0.118863
0.161375
0.193262
6.08684e-06
6.08918e-06
6.09231e-06
6.0945e-06
6.09829e-06
6.11124e-06
6.1118e-06
6.11207e-06
6.11296e-06
6.1145e-06
6.11647e-06
6.11914e-06
6.12272e-06
6.12742e-06
6.1336e-06
6.14169e-06
6.15227e-06
6.16615e-06
6.18401e-06
6.20814e-06
6.23599e-06
6.28322e-06
6.28098e-06
6.50575e-06
6.36486e-06
4.86669e-06
1.8651e-06
1.81559e-08
1.16969e-09
0
0
0
1.03043e-05
0.000772072
0.000384855
0.00158688
0.00801477
0.0296187
0.0707519
0.124159
6.11129e-06
6.10992e-06
6.11061e-06
6.10956e-06
6.11044e-06
6.10511e-06
6.10489e-06
6.10518e-06
6.10543e-06
6.10552e-06
6.10592e-06
6.10652e-06
6.10729e-06
6.1085e-06
6.1102e-06
6.11251e-06
6.11573e-06
6.12009e-06
6.12599e-06
6.13412e-06
6.14497e-06
6.16033e-06
6.17148e-06
6.23596e-06
6.30966e-06
6.59525e-06
6.37516e-06
5.25088e-06
7.99977e-07
1.30158e-08
3.49892e-09
6.9799e-10
2.24115e-12
0
5.48046e-05
0.0003533
0.00182979
0.000398439
0.00876541
0.0380969
6.10465e-06
6.10396e-06
6.10487e-06
6.10465e-06
6.10535e-06
6.10557e-06
6.10572e-06
6.10576e-06
6.10589e-06
6.10598e-06
6.10615e-06
6.10649e-06
6.10697e-06
6.10768e-06
6.10871e-06
6.11018e-06
6.11224e-06
6.11512e-06
6.11907e-06
6.12467e-06
6.13212e-06
6.14032e-06
6.14876e-06
6.16033e-06
6.22507e-06
6.34277e-06
6.92111e-06
6.55751e-06
4.19679e-06
2.08714e-06
4.10795e-07
1.2685e-09
4.28823e-09
3.06457e-11
0
0
6.21897e-05
0.00205998
0.00168174
6.10489e-06
6.10383e-06
6.10422e-06
6.1039e-06
6.10492e-06
6.10506e-06
6.10535e-06
6.10532e-06
6.10513e-06
6.105e-06
6.10484e-06
6.10468e-06
6.10463e-06
6.10464e-06
6.10472e-06
6.10495e-06
6.10532e-06
6.10591e-06
6.1068e-06
6.10817e-06
6.1102e-06
6.11263e-06
6.11482e-06
6.11942e-06
6.11817e-06
6.11894e-06
6.20969e-06
6.62732e-06
6.97347e-06
6.8057e-06
5.77824e-06
3.89823e-06
1.95997e-06
1.59943e-08
6.98177e-09
1.01022e-11
0
0
0.000386736
6.10434e-06
6.1032e-06
6.1032e-06
6.10278e-06
6.10485e-06
6.10498e-06
6.10512e-06
6.10493e-06
6.10475e-06
6.10447e-06
6.10424e-06
6.10412e-06
6.104e-06
6.10394e-06
6.10396e-06
6.10407e-06
6.1043e-06
6.1047e-06
6.10532e-06
6.10627e-06
6.1077e-06
6.1096e-06
6.11138e-06
6.11357e-06
6.11471e-06
6.11292e-06
6.08802e-06
6.13397e-06
6.34552e-06
6.65663e-06
7.04891e-06
7.16024e-06
6.95282e-06
4.85314e-06
2.73086e-06
4.91802e-09
2.91761e-09
0
0
6.10428e-06
6.10303e-06
6.10268e-06
6.10419e-06
6.1039e-06
6.10361e-06
6.10338e-06
6.10316e-06
6.10298e-06
6.10283e-06
6.10272e-06
6.10264e-06
6.10258e-06
6.10255e-06
6.10254e-06
6.10261e-06
6.1027e-06
6.10288e-06
6.10345e-06
6.10505e-06
6.10788e-06
6.10288e-06
6.08496e-06
6.092e-06
6.15723e-06
6.32274e-06
6.57582e-06
6.91215e-06
7.26342e-06
7.4509e-06
5.05159e-06
1.14867e-06
1.06913e-08
0
6.10305e-06
6.10285e-06
6.10266e-06
6.10253e-06
6.10244e-06
6.10237e-06
6.10236e-06
6.1024e-06
6.10251e-06
6.10271e-06
6.10304e-06
6.10355e-06
6.10413e-06
6.10464e-06
6.10519e-06
6.10629e-06
6.10778e-06
6.10375e-06
6.09327e-06
6.08567e-06
6.09281e-06
6.13858e-06
6.23194e-06
6.46915e-06
6.85735e-06
7.60413e-06
7.14005e-06
2.99428e-06
1.57634e-08
6.10217e-06
6.10204e-06
6.10194e-06
6.10185e-06
6.10179e-06
6.10177e-06
6.10177e-06
6.10181e-06
6.10189e-06
6.10202e-06
6.10224e-06
6.10265e-06
6.10322e-06
6.10405e-06
6.10544e-06
6.10664e-06
6.10553e-06
6.10174e-06
6.09504e-06
6.08908e-06
6.08248e-06
6.10611e-06
6.16565e-06
6.49799e-06
7.19968e-06
7.76441e-06
4.00209e-06
6.1017e-06
6.10163e-06
6.10159e-06
6.10157e-06
6.10157e-06
6.10159e-06
6.10166e-06
6.10177e-06
6.10195e-06
6.1022e-06
6.10252e-06
6.1029e-06
6.1034e-06
6.10413e-06
6.10518e-06
6.10624e-06
6.107e-06
6.10708e-06
6.1057e-06
6.09949e-06
6.0883e-06
6.06665e-06
6.06907e-06
6.24436e-06
6.78953e-06
8.52546e-06
6.10142e-06
6.1014e-06
6.10139e-06
6.1014e-06
6.10141e-06
6.10146e-06
6.10152e-06
6.10163e-06
6.10178e-06
6.10201e-06
6.10233e-06
6.10275e-06
6.1033e-06
6.10404e-06
6.10496e-06
6.10607e-06
6.10752e-06
6.1094e-06
6.11106e-06
6.10956e-06
6.10157e-06
6.07153e-06
6.04966e-06
6.07885e-06
6.66089e-06
6.1013e-06
6.10131e-06
6.10133e-06
6.10137e-06
6.10139e-06
6.10145e-06
6.10151e-06
6.1016e-06
6.10173e-06
6.10192e-06
6.10216e-06
6.10248e-06
6.10288e-06
6.10341e-06
6.10412e-06
6.10501e-06
6.10614e-06
6.10769e-06
6.11008e-06
6.11282e-06
6.11518e-06
6.11181e-06
6.08022e-06
6.10576e-06
5.63386e-06
6.10131e-06
6.10135e-06
6.1014e-06
6.10144e-06
6.10149e-06
6.10154e-06
6.10162e-06
6.10172e-06
6.10186e-06
6.10205e-06
6.10231e-06
6.10263e-06
6.10305e-06
6.10362e-06
6.10436e-06
6.10528e-06
6.10641e-06
6.10791e-06
6.11024e-06
6.11283e-06
6.11999e-06
6.10309e-06
6.16609e-06
5.81575e-06
6.1014e-06
6.10146e-06
6.10151e-06
6.10157e-06
6.10162e-06
6.1017e-06
6.10178e-06
6.1019e-06
6.10205e-06
6.10226e-06
6.10252e-06
6.10285e-06
6.10331e-06
6.10393e-06
6.10473e-06
6.10571e-06
6.10682e-06
6.1084e-06
6.10992e-06
6.115e-06
6.11315e-06
6.12511e-06
6.19071e-06
6.10148e-06
6.10155e-06
6.10161e-06
6.10167e-06
6.10173e-06
6.1018e-06
6.10187e-06
6.10197e-06
6.1021e-06
6.10227e-06
6.10248e-06
6.10276e-06
6.10314e-06
6.10365e-06
6.10434e-06
6.10521e-06
6.10621e-06
6.10741e-06
6.10888e-06
6.11009e-06
6.11894e-06
6.08393e-06
6.31123e-06
6.10164e-06
6.1017e-06
6.10176e-06
6.10182e-06
6.10189e-06
6.10195e-06
6.10204e-06
6.10215e-06
6.10229e-06
6.10247e-06
6.1027e-06
6.10302e-06
6.10346e-06
6.10405e-06
6.1048e-06
6.10572e-06
6.10672e-06
6.10835e-06
6.10794e-06
6.11884e-06
6.08165e-06
6.24377e-06
6.10172e-06
6.10179e-06
6.10187e-06
6.10193e-06
6.102e-06
6.10207e-06
6.10215e-06
6.10224e-06
6.10237e-06
6.10252e-06
6.10271e-06
6.10297e-06
6.10334e-06
6.10384e-06
6.10448e-06
6.1053e-06
6.10618e-06
6.10768e-06
6.10755e-06
6.1147e-06
6.09768e-06
6.15198e-06
6.1019e-06
6.10198e-06
6.10205e-06
6.10213e-06
6.1022e-06
6.10228e-06
6.10237e-06
6.10248e-06
6.10261e-06
6.10278e-06
6.103e-06
6.10331e-06
6.10373e-06
6.10428e-06
6.10499e-06
6.10579e-06
6.10697e-06
6.10764e-06
6.11051e-06
6.11022e-06
6.10405e-06
6.102e-06
6.10209e-06
6.10217e-06
6.10225e-06
6.10232e-06
6.1024e-06
6.10249e-06
6.1026e-06
6.10272e-06
6.10286e-06
6.10306e-06
6.10333e-06
6.10369e-06
6.10417e-06
6.10478e-06
6.10551e-06
6.10643e-06
6.10756e-06
6.1082e-06
6.11401e-06
6.09462e-06
6.1022e-06
6.10229e-06
6.10238e-06
6.10246e-06
6.10254e-06
6.10263e-06
6.10273e-06
6.10285e-06
6.10298e-06
6.10315e-06
6.10339e-06
6.1037e-06
6.10412e-06
6.10465e-06
6.10531e-06
6.10607e-06
6.10725e-06
6.10747e-06
6.11273e-06
6.10052e-06
6.10231e-06
6.10241e-06
6.1025e-06
6.10259e-06
6.10268e-06
6.10278e-06
6.10288e-06
6.10299e-06
6.10311e-06
6.10327e-06
6.10347e-06
6.10375e-06
6.10412e-06
6.10458e-06
6.10517e-06
6.10585e-06
6.10687e-06
6.10738e-06
6.11043e-06
6.10701e-06
6.10242e-06
6.10253e-06
6.10263e-06
6.10273e-06
6.10283e-06
6.10293e-06
6.10303e-06
6.10314e-06
6.10326e-06
6.1034e-06
6.10359e-06
6.10384e-06
6.10416e-06
6.10457e-06
6.10509e-06
6.10571e-06
6.10655e-06
6.10735e-06
6.10886e-06
6.10995e-06
6.10265e-06
6.10276e-06
6.10287e-06
6.10298e-06
6.10308e-06
6.10319e-06
6.1033e-06
6.10342e-06
6.10356e-06
6.10373e-06
6.10395e-06
6.10423e-06
6.1046e-06
6.10506e-06
6.10563e-06
6.10634e-06
6.10723e-06
6.10812e-06
6.11027e-06
6.10277e-06
6.1029e-06
6.10301e-06
6.10313e-06
6.10324e-06
6.10335e-06
6.10347e-06
6.1036e-06
6.10373e-06
6.10389e-06
6.10409e-06
6.10435e-06
6.10467e-06
6.10508e-06
6.1056e-06
6.10623e-06
6.10706e-06
6.10784e-06
6.10966e-06
6.10289e-06
6.10302e-06
6.10315e-06
6.10327e-06
6.10339e-06
6.10351e-06
6.10364e-06
6.10377e-06
6.1039e-06
6.10406e-06
6.10424e-06
6.10448e-06
6.10478e-06
6.10515e-06
6.10562e-06
6.10619e-06
6.10693e-06
6.10772e-06
6.10905e-06
6.10315e-06
6.10328e-06
6.10342e-06
6.10355e-06
6.10368e-06
6.10381e-06
6.10394e-06
6.10408e-06
6.10423e-06
6.10441e-06
6.10463e-06
6.1049e-06
6.10524e-06
6.10567e-06
6.10619e-06
6.10686e-06
6.10763e-06
6.10869e-06
6.10327e-06
6.10342e-06
6.10356e-06
6.1037e-06
6.10384e-06
6.10398e-06
6.10412e-06
6.10426e-06
6.10441e-06
6.10458e-06
6.10479e-06
6.10504e-06
6.10536e-06
6.10575e-06
6.10623e-06
6.10683e-06
6.10757e-06
6.1085e-06
6.1034e-06
6.10355e-06
6.10371e-06
6.10386e-06
6.10401e-06
6.10416e-06
6.1043e-06
6.10445e-06
6.1046e-06
6.10477e-06
6.10497e-06
6.10521e-06
6.1055e-06
6.10586e-06
6.1063e-06
6.10686e-06
6.10754e-06
6.10841e-06
6.10368e-06
6.10385e-06
6.10401e-06
6.10417e-06
6.10433e-06
6.10448e-06
6.10463e-06
6.10479e-06
6.10496e-06
6.10515e-06
6.10538e-06
6.10566e-06
6.106e-06
6.10641e-06
6.10692e-06
6.10754e-06
6.10836e-06
6.10381e-06
6.10399e-06
6.10416e-06
6.10433e-06
6.1045e-06
6.10466e-06
6.10482e-06
6.10498e-06
6.10516e-06
6.10535e-06
6.10557e-06
6.10583e-06
6.10615e-06
6.10654e-06
6.10701e-06
6.10759e-06
6.10835e-06
6.10394e-06
6.10413e-06
6.10431e-06
6.10449e-06
6.10467e-06
6.10485e-06
6.10501e-06
6.10518e-06
6.10535e-06
6.10555e-06
6.10576e-06
6.10602e-06
6.10632e-06
6.10668e-06
6.10713e-06
6.10767e-06
6.10426e-06
6.10446e-06
6.10465e-06
6.10484e-06
6.10503e-06
6.1052e-06
6.10537e-06
6.10555e-06
6.10575e-06
6.10597e-06
6.10621e-06
6.10651e-06
6.10685e-06
6.10727e-06
6.10778e-06
6.1044e-06
6.10461e-06
6.10481e-06
6.10501e-06
6.1052e-06
6.10539e-06
6.10557e-06
6.10576e-06
6.10596e-06
6.10617e-06
6.10642e-06
6.1067e-06
6.10703e-06
6.10744e-06
6.10791e-06
6.10453e-06
6.10475e-06
6.10496e-06
6.10518e-06
6.10538e-06
6.10557e-06
6.10576e-06
6.10596e-06
6.10616e-06
6.10638e-06
6.10663e-06
6.10691e-06
6.10723e-06
6.10762e-06
6.10807e-06
6.10465e-06
6.10488e-06
6.10511e-06
6.10534e-06
6.10555e-06
6.10576e-06
6.10595e-06
6.10616e-06
6.10637e-06
6.1066e-06
6.10684e-06
6.10712e-06
6.10744e-06
6.10781e-06
6.10824e-06
6.10476e-06
6.10501e-06
6.10525e-06
6.10549e-06
6.10572e-06
6.10593e-06
6.10614e-06
6.10635e-06
6.10657e-06
6.10681e-06
6.10706e-06
6.10734e-06
6.10765e-06
6.10801e-06
6.10843e-06
6.10512e-06
6.10538e-06
6.10563e-06
6.10587e-06
6.1061e-06
6.10632e-06
6.10654e-06
6.10677e-06
6.10701e-06
6.10727e-06
6.10755e-06
6.10787e-06
6.10822e-06
6.10863e-06
6.10523e-06
6.10549e-06
6.10576e-06
6.10601e-06
6.10625e-06
6.10648e-06
6.10671e-06
6.10695e-06
6.10721e-06
6.10747e-06
6.10776e-06
6.10808e-06
6.10844e-06
6.10884e-06
6.10531e-06
6.10559e-06
6.10587e-06
6.10613e-06
6.10638e-06
6.10663e-06
6.10687e-06
6.10712e-06
6.10739e-06
6.10767e-06
6.10796e-06
6.10829e-06
6.10865e-06
6.10905e-06
6.10537e-06
6.10566e-06
6.10595e-06
6.10623e-06
6.1065e-06
6.10675e-06
6.10701e-06
6.10728e-06
6.10755e-06
6.10784e-06
6.10815e-06
6.10848e-06
6.10885e-06
6.10925e-06
6.1054e-06
6.10571e-06
6.10601e-06
6.10631e-06
6.10658e-06
6.10685e-06
6.10712e-06
6.1074e-06
6.10769e-06
6.108e-06
6.10832e-06
6.10866e-06
6.10903e-06
6.10944e-06
6.10573e-06
6.10604e-06
6.10635e-06
6.10664e-06
6.10692e-06
6.10721e-06
6.1075e-06
6.10781e-06
6.10812e-06
6.10846e-06
6.10881e-06
6.1092e-06
6.10961e-06
6.1057e-06
6.10603e-06
6.10635e-06
6.10666e-06
6.10695e-06
6.10725e-06
6.10756e-06
6.10788e-06
6.10822e-06
6.10857e-06
6.10893e-06
6.10933e-06
6.10564e-06
6.10598e-06
6.10632e-06
6.10663e-06
6.10694e-06
6.10726e-06
6.10758e-06
6.10792e-06
6.10827e-06
6.10864e-06
6.10902e-06
6.10943e-06
6.10552e-06
6.10588e-06
6.10623e-06
6.10656e-06
6.10689e-06
6.10722e-06
6.10756e-06
6.10791e-06
6.10828e-06
6.10866e-06
6.10907e-06
6.10949e-06
6.10535e-06
6.10573e-06
6.10609e-06
6.10644e-06
6.10678e-06
6.10712e-06
6.10748e-06
6.10785e-06
6.10824e-06
6.10864e-06
6.10906e-06
6.10951e-06
6.10551e-06
6.10588e-06
6.10625e-06
6.1066e-06
6.10696e-06
6.10734e-06
6.10773e-06
6.10813e-06
6.10855e-06
6.109e-06
6.10946e-06
6.10522e-06
6.10561e-06
6.10599e-06
6.10636e-06
6.10674e-06
6.10713e-06
6.10754e-06
6.10796e-06
6.1084e-06
6.10886e-06
6.10935e-06
6.10485e-06
6.10525e-06
6.10565e-06
6.10603e-06
6.10643e-06
6.10684e-06
6.10727e-06
6.10771e-06
6.10817e-06
6.10866e-06
6.10916e-06
6.10439e-06
6.10481e-06
6.10522e-06
6.10562e-06
6.10603e-06
6.10646e-06
6.10691e-06
6.10737e-06
6.10785e-06
6.10836e-06
6.10889e-06
6.10384e-06
6.10428e-06
6.1047e-06
6.10511e-06
6.10554e-06
6.10599e-06
6.10645e-06
6.10694e-06
6.10744e-06
6.10797e-06
6.10853e-06
6.10319e-06
6.10364e-06
6.10407e-06
6.10451e-06
6.10495e-06
6.10541e-06
6.1059e-06
6.1064e-06
6.10693e-06
6.10748e-06
6.10244e-06
6.1029e-06
6.10335e-06
6.10379e-06
6.10425e-06
6.10473e-06
6.10523e-06
6.10575e-06
6.1063e-06
6.10687e-06
6.10205e-06
6.10251e-06
6.10297e-06
6.10345e-06
6.10394e-06
6.10446e-06
6.105e-06
6.10556e-06
6.10615e-06
6.1011e-06
6.10157e-06
6.10204e-06
6.10253e-06
6.10304e-06
6.10357e-06
6.10413e-06
6.10471e-06
6.10532e-06
6.10002e-06
6.1005e-06
6.10098e-06
6.10149e-06
6.10202e-06
6.10257e-06
6.10314e-06
6.10374e-06
6.10437e-06
6.09873e-06
6.09922e-06
6.09972e-06
6.10024e-06
6.10079e-06
6.10137e-06
6.10197e-06
6.1026e-06
6.10326e-06
6.09714e-06
6.09764e-06
6.09815e-06
6.09869e-06
6.09927e-06
6.09987e-06
6.10051e-06
6.10117e-06
6.10187e-06
6.09519e-06
6.09568e-06
6.0962e-06
6.09675e-06
6.09734e-06
6.09797e-06
6.09864e-06
6.09935e-06
6.09294e-06
6.09342e-06
6.09393e-06
6.09448e-06
6.09507e-06
6.0957e-06
6.09638e-06
6.0971e-06
6.09056e-06
6.09102e-06
6.0915e-06
6.09202e-06
6.09259e-06
6.09321e-06
6.09387e-06
6.09458e-06
6.08858e-06
6.08904e-06
6.08954e-06
6.09008e-06
6.09067e-06
6.0913e-06
6.09198e-06
6.0861e-06
6.08654e-06
6.08701e-06
6.08753e-06
6.08809e-06
6.08869e-06
6.08934e-06
6.08348e-06
6.08391e-06
6.08438e-06
6.0849e-06
6.08546e-06
6.08606e-06
6.08671e-06
6.08095e-06
6.08137e-06
6.08183e-06
6.08235e-06
6.08292e-06
6.08353e-06
6.08419e-06
6.07863e-06
6.07901e-06
6.07944e-06
6.07992e-06
6.08046e-06
6.08103e-06
6.07631e-06
6.07665e-06
6.07702e-06
6.07744e-06
6.07792e-06
6.07842e-06
6.07399e-06
6.07427e-06
6.07458e-06
6.07494e-06
6.07535e-06
6.07578e-06
6.07182e-06
6.07202e-06
6.07224e-06
6.07251e-06
6.07283e-06
6.07316e-06
6.0706e-06
6.07064e-06
6.07069e-06
6.07076e-06
6.07087e-06
6.071e-06
6.07205e-06
6.07197e-06
6.07188e-06
6.07177e-06
6.07162e-06
6.07152e-06
6.07471e-06
6.07467e-06
6.0746e-06
6.07445e-06
6.07436e-06
6.07781e-06
6.07784e-06
6.0778e-06
6.07766e-06
6.07766e-06
6.08103e-06
6.08119e-06
6.08136e-06
6.08149e-06
6.08157e-06
6.08446e-06
6.08468e-06
6.08474e-06
6.08462e-06
6.0869e-06
6.0877e-06
6.08873e-06
6.0898e-06
6.09833e-06
6.0989e-06
6.09948e-06
6.09974e-06
)
;

boundaryField
{
    inlet
    {
        type            freestream;
        freestreamValue uniform 1e-05;
        value           nonuniform List<scalar> 4(6.09833e-06 6.0989e-06 6.09948e-06 6.09974e-06);
    }
    outlet
    {
        type            freestream;
        freestreamValue nonuniform List<scalar> 0();
        value           nonuniform List<scalar> 0();
    }
    walls
    {
        type            nutUSpaldingWallFunction;
        value           nonuniform List<scalar> 
42
(
0.00322659
0.00345297
0.00368928
0.00387688
0.0040527
0.00420732
0.00432776
0.00442025
0.00448728
0.00452697
0.00454665
0.0045448
0.00451609
0.00446271
0.00438042
0.00426716
0.00411645
0.00392187
0.00366997
0.00334943
0.00294352
0.0024521
0.00192221
0.00152352
0.00135993
0.00143141
0.00158883
0.00175228
0.00188525
0.00197319
0.00202046
0.00203727
0.00201918
0.00196916
0.00188448
0.00298639
0.00271456
0.00241579
0.00204613
0.00164416
0.00120907
0.000770446
)
;
    }
    frontAndBack
    {
        type            empty;
    }
    procBoundary5to0
    {
        type            processor;
        value           nonuniform List<scalar> 4(6.10477e-06 6.10428e-06 6.103e-06 6.10235e-06);
    }
    procBoundary5to1
    {
        type            processor;
        value           nonuniform List<scalar> 
13
(
6.96546e-06
5.91069e-06
5.91069e-06
6.14166e-06
6.10032e-06
6.10032e-06
6.10923e-06
6.10635e-06
6.10635e-06
6.10555e-06
6.10439e-06
6.10209e-06
6.10209e-06
)
;
    }
    procBoundary5to4
    {
        type            processor;
        value           nonuniform List<scalar> 
95
(
6.10478e-06
6.10478e-06
6.1045e-06
6.1045e-06
6.10368e-06
6.10335e-06
6.10335e-06
6.10255e-06
6.10235e-06
6.10235e-06
6.10179e-06
6.10179e-06
6.10145e-06
6.10145e-06
6.10129e-06
6.10126e-06
6.10126e-06
6.10134e-06
6.10134e-06
6.1014e-06
6.10156e-06
6.10156e-06
6.10163e-06
6.10181e-06
6.10181e-06
6.1019e-06
6.1021e-06
6.1021e-06
6.1022e-06
6.1023e-06
6.10253e-06
6.10253e-06
6.10264e-06
6.10275e-06
6.103e-06
6.103e-06
6.10312e-06
6.10323e-06
6.10352e-06
6.10352e-06
6.10363e-06
6.10375e-06
6.10406e-06
6.10406e-06
6.10419e-06
6.1043e-06
6.10441e-06
6.10451e-06
6.10487e-06
6.10487e-06
6.10495e-06
6.10502e-06
6.10507e-06
6.10509e-06
6.1054e-06
6.1054e-06
6.10536e-06
6.10528e-06
6.10516e-06
6.10497e-06
6.10512e-06
6.10512e-06
6.10481e-06
6.10443e-06
6.10396e-06
6.10339e-06
6.10273e-06
6.10197e-06
6.10158e-06
6.10158e-06
6.10062e-06
6.09952e-06
6.09822e-06
6.09663e-06
6.09469e-06
6.09247e-06
6.09012e-06
6.08815e-06
6.08815e-06
6.08569e-06
6.08308e-06
6.08057e-06
6.07829e-06
6.07601e-06
6.07374e-06
6.07166e-06
6.07057e-06
6.0721e-06
6.07474e-06
6.07474e-06
6.07777e-06
6.08085e-06
6.08425e-06
6.08605e-06
6.09763e-06
)
;
    }
    procBoundary5to6
    {
        type            processor;
        value           nonuniform List<scalar> 
86
(
0.0869194
0.153858
0.206359
0.215391
0.175084
0.0933065
0.0217482
0.0054237
0
0
0
1.05219e-08
2.51209e-06
9.96924e-06
9.28402e-06
6.42049e-06
5.26293e-06
5.3106e-06
5.74529e-06
6.07767e-06
6.1948e-06
6.18517e-06
6.14595e-06
6.11948e-06
6.10962e-06
6.10837e-06
6.1093e-06
6.10989e-06
6.10989e-06
6.10965e-06
6.10941e-06
6.10925e-06
6.10917e-06
6.10838e-06
6.10838e-06
6.10845e-06
6.10854e-06
6.10866e-06
6.1088e-06
6.10896e-06
6.10914e-06
6.10933e-06
6.10953e-06
6.10973e-06
6.10992e-06
6.11009e-06
6.10976e-06
6.10976e-06
6.10987e-06
6.10995e-06
6.10998e-06
6.10995e-06
6.10987e-06
6.1097e-06
6.10945e-06
6.10911e-06
6.10806e-06
6.10806e-06
6.10747e-06
6.10677e-06
6.10596e-06
6.10503e-06
6.10395e-06
6.10261e-06
6.10009e-06
6.10009e-06
6.09788e-06
6.09535e-06
6.09271e-06
6.09003e-06
6.08739e-06
6.0849e-06
6.08166e-06
6.08166e-06
6.07897e-06
6.07625e-06
6.07354e-06
6.07117e-06
6.0714e-06
6.07422e-06
6.07755e-06
6.08167e-06
6.0849e-06
6.0849e-06
6.09052e-06
6.10007e-06
)
;
    }
}


// ************************************************************************* //
