/*--------------------------------*- C++ -*----------------------------------*\
| =========                 |                                                 |
| \\      /  F ield         | OpenFOAM: The Open Source CFD Toolbox           |
|  \\    /   O peration     | Version:  2506                                  |
|   \\  /    A nd           | Website:  www.openfoam.com                      |
|    \\/     M anipulation  |                                                 |
\*---------------------------------------------------------------------------*/
FoamFile
{
    version     2.0;
    format      ascii;
    arch        "LSB;label=32;scalar=64";
    class       surfaceScalarField;
    location    "300";
    object      phi;
}
// * * * * * * * * * * * * * * * * * * * * * * * * * * * * * * * * * * * * * //

dimensions      [0 3 -1 0 0 0 0];

oriented        oriented;

internalField   nonuniform List<scalar> 
2558
(
-0.233853
0.25345
-0.0195969
0.275448
-0.0219973
0.294383
-0.0189356
0.311295
-0.0169114
0.327267
-0.0159729
0.339993
-0.0127255
0.349974
-0.00998081
0.357961
-0.00798682
0.362986
-0.00502516
0.366046
-0.00305989
0.36719
-0.00114438
0.365867
0.00132286
0.36221
0.00365756
0.356038
0.00617212
0.346951
0.00908665
0.334838
0.0121127
0.318919
0.0159191
0.298507
0.0204123
0.272436
0.026071
0.239955
0.0324806
0.200576
0.0393794
0.157646
0.0429302
0.119193
0.0384528
0.0950399
0.0241532
0.0900668
0.0049731
0.0995921
-0.00952524
0.113568
-0.0139757
0.126055
-0.0124873
0.135112
-0.00905729
0.140736
-0.00562403
0.143492
-0.00275615
0.143532
-3.94724e-05
0.14072
0.00281182
0.135164
0.00555658
0.00857487
-0.210769
-0.0230842
-0.186831
-0.0239383
-0.157442
-0.0293894
-0.125234
-0.0322073
-0.0913212
-0.0339131
-0.0563768
-0.0349444
-0.213227
0.234735
-0.0411047
0.256759
-0.0440217
0.279784
-0.0419598
0.301296
-0.0384233
0.322337
-0.0370144
0.34192
-0.0323087
0.359645
-0.027706
0.375797
-0.0241383
0.390005
-0.0192335
0.40235
-0.0154044
0.413068
-0.0118624
0.422608
-0.00821704
0.431309
-0.00504353
0.439221
-0.00173999
0.446135
0.00217239
0.451613
0.00663496
0.455319
0.0122123
0.456893
0.0188387
0.454981
0.0279833
0.448403
0.0390587
0.434688
0.0530941
0.41223
0.0653882
0.380864
0.0698182
0.345598
0.0594197
0.312937
0.0376337
0.284781
0.0186311
0.260885
0.00992002
0.241361
0.00703666
0.226448
0.00585574
0.215515
0.00530924
0.206704
0.00605501
0.198428
0.00823694
0.189742
0.0114972
0.179895
0.0154037
0.0203308
-0.191267
-0.0450445
-0.167767
-0.0474384
-0.140253
-0.0569034
-0.111147
-0.0613134
-0.0802303
-0.0648293
-0.0672742
-0.206988
0.228685
-0.0628021
0.250533
-0.0658691
0.274121
-0.0655478
0.295682
-0.059985
0.316175
-0.0575075
0.335771
-0.0519039
0.353169
-0.0451044
0.368762
-0.0397315
0.382101
-0.0325728
0.393451
-0.0267541
0.402773
-0.0211839
0.410198
-0.0156421
0.415578
-0.0104241
0.419395
-0.0055563
0.421648
-8.1421e-05
0.423369
0.00491432
0.424655
0.0109262
0.42644
0.0170535
0.429158
0.0252653
0.433492
0.0347249
0.439417
0.0471687
0.444922
0.0598842
0.446158
0.0685816
0.44022
0.0653583
0.428155
0.0496985
0.412472
0.0343142
0.394211
0.0281807
0.372843
0.0284045
0.348214
0.0304846
0.321622
0.0319019
0.295507
0.0321696
0.27193
0.0318143
0.251258
0.0321695
0.232263
0.0343983
0.039357
-0.185149
-0.0668828
-0.161219
-0.0713687
-0.132596
-0.0855267
-0.102831
-0.0910783
-0.0717267
-0.0959335
-0.199383
0.222066
-0.0854853
0.244831
-0.0886345
0.269865
-0.0905816
0.29272
-0.0828397
0.314881
-0.0796682
0.336133
-0.0731564
0.355657
-0.0646281
0.373276
-0.0573506
0.389203
-0.0485
0.403218
-0.0407692
0.415433
-0.0333986
0.425861
-0.0260703
0.434568
-0.0191306
0.441626
-0.0126152
0.447338
-0.00579338
0.451157
0.00109523
0.45319
0.00889412
0.453209
0.0170335
0.451768
0.0267064
0.449354
0.0371395
0.447224
0.0492981
0.446648
0.0604606
0.447102
0.0681279
0.44632
0.0661402
0.442397
0.0536209
0.43591
0.0408013
0.428221
0.0358701
0.419617
0.0370086
0.409041
0.0410605
0.394797
0.0461456
0.375425
0.0515422
0.35076
0.0564787
0.322735
0.0601946
0.294046
0.0630872
0.0674177
-0.176988
-0.0892782
-0.152982
-0.095374
-0.123861
-0.114648
-0.0939653
-0.120974
-0.127101
-0.195544
0.219048
-0.10899
0.242683
-0.11227
0.269109
-0.117007
0.292703
-0.106434
0.315841
-0.102806
0.338132
-0.0954471
0.358468
-0.0849648
0.376955
-0.0758375
0.393882
-0.0654264
0.408593
-0.0554805
0.421469
-0.0462746
0.432441
-0.0370423
0.441786
-0.0284757
0.449184
-0.0200133
0.45478
-0.0113891
0.458639
-0.00276403
0.461037
0.00649662
0.462098
0.0159725
0.46169
0.0271139
0.460242
0.0385878
0.457861
0.0516786
0.454967
0.0633547
0.451635
0.0714603
0.447182
0.0705929
0.440952
0.0598514
0.433387
0.0483661
0.425673
0.0435847
0.418553
0.0441284
0.412062
0.0475513
0.405854
0.0523536
0.398827
0.058569
0.388899
0.0664075
0.373391
0.0757021
0.350603
0.0858755
0.0967045
-0.172098
-0.112724
-0.147364
-0.120107
-0.116979
-0.145034
-0.0862307
-0.151722
-0.192368
0.216888
-0.13351
0.241847
-0.137228
0.269651
-0.144812
0.294453
-0.131235
0.318614
-0.126968
0.342276
-0.119109
0.363591
-0.10628
0.383373
-0.0956193
0.401314
-0.0833673
0.417298
-0.0714648
0.431555
-0.0605309
0.443899
-0.0493863
0.454561
-0.0391379
0.463536
-0.0289886
0.470696
-0.0185485
0.476401
-0.00846935
0.480255
0.0026429
0.482378
0.0138491
0.482964
0.0265279
0.481992
0.0395601
0.479698
0.0539724
0.476335
0.0667172
0.471635
0.076161
0.465135
0.0770922
0.456655
0.0683316
0.446817
0.0582044
0.436649
0.0537523
0.426793
0.0539849
0.417439
0.0569049
0.408747
0.0610458
0.400964
0.0663515
0.394028
0.0733441
0.387046
0.0826839
0.377356
0.0955654
0.113389
-0.167958
-0.137135
-0.142412
-0.145653
-0.11072
-0.176725
-0.183611
-0.190516
0.216365
-0.159358
0.242364
-0.163227
0.271734
-0.174182
0.297806
-0.157307
0.323216
-0.152378
0.347947
-0.143841
0.370419
-0.128752
0.391038
-0.116238
0.410007
-0.102336
0.426904
-0.0883623
0.44196
-0.0755869
0.455313
-0.0627392
0.466835
-0.0506596
0.476597
-0.0387513
0.484674
-0.0266257
0.490896
-0.0146909
0.495452
-0.00191328
0.498336
0.0109657
0.499686
0.0251773
0.499597
0.0396487
0.498277
0.0552925
0.495783
0.0692113
0.491987
0.0799572
0.486145
0.0829347
0.478046
0.0764302
0.468177
0.0680739
0.45748
0.0644493
0.446544
0.0649201
0.435507
0.0679421
0.42437
0.0721835
0.413329
0.0773923
0.402735
0.0839382
0.39309
0.0923287
0.384615
0.104041
0.12205
-0.164895
-0.162756
-0.138238
-0.17231
-0.105089
-0.209874
-0.216815
-0.189354
0.216538
-0.186542
0.243968
-0.190658
0.27502
-0.205234
0.302293
-0.18458
0.328992
-0.179077
0.354973
-0.169821
0.378463
-0.152242
0.40029
-0.138065
0.420076
-0.122122
0.437911
-0.106197
0.454023
-0.091699
0.468253
-0.0769694
0.480682
-0.0630882
0.491437
-0.0495065
0.500465
-0.0356536
0.507744
-0.0219699
0.513336
-0.00750576
0.517234
0.00706763
0.519412
0.0229993
0.519998
0.0390635
0.519213
0.0560773
0.517085
0.0713394
0.513536
0.0835057
0.508174
0.0882969
0.500631
0.0839732
0.491252
0.0774528
0.480858
0.074843
0.469978
0.0758005
0.458686
0.0792338
0.446965
0.0839052
0.434725
0.0896318
0.422046
0.096617
0.409089
0.105287
0.396453
0.116677
0.133445
-0.1625
-0.18961
-0.134683
-0.200127
-0.0998193
-0.244738
-0.189024
0.217578
0.246457
0.279209
0.307872
0.336039
-0.207243
0.363377
-0.197159
0.388086
-0.176951
0.4108
-0.160778
0.431697
-0.14302
0.450366
-0.124866
0.467188
-0.108521
0.482236
-0.0920175
0.495529
-0.0763814
0.507087
-0.0610638
0.516923
-0.0454896
0.525083
-0.0301301
0.531456
-0.0138791
0.53606
0.00246362
0.53896
0.0201
0.540219
0.037804
0.540022
0.0562744
0.538412
0.0729496
0.535286
0.0866315
0.530349
0.0932335
0.523323
0.0909998
0.514425
0.0863502
0.504344
0.084924
0.493667
0.0864781
0.482525
0.090376
0.470834
0.0955957
0.458531
0.101935
0.445515
0.109633
0.431633
0.119168
0.416823
0.131487
0.148801
-0.160681
-0.131508
0.343947
0.372759
0.398642
-0.202834
0.422497
-0.184633
0.444383
-0.164906
0.463934
-0.144417
0.481616
-0.126203
0.497547
-0.107948
0.511557
-0.0903913
0.523846
-0.0733524
0.534561
-0.0562053
0.543446
-0.0390149
0.550627
-0.0210602
0.556004
-0.00291327
0.559718
0.0163861
0.561738
0.0357841
0.562054
0.0559579
0.560917
0.0740866
0.558158
0.0893911
0.553584
0.0978075
0.546931
0.0976529
0.538329
0.0949516
0.528471
0.0947825
0.517891
0.0970582
0.5067
0.101566
0.49497
0.107326
0.482618
0.114287
0.469551
0.1227
0.455609
0.133111
0.440503
0.146594
0.165412
0.410362
0.435448
0.458373
-0.187831
0.47887
-0.164915
0.49735
-0.144683
0.513923
-0.124522
0.528739
-0.105207
0.54188
-0.0864931
0.553195
-0.0675199
0.562863
-0.0486835
0.57077
-0.0289673
0.576932
-0.00907548
0.581285
0.0120335
0.583925
0.0331444
0.584868
0.0550144
0.584161
0.0747936
0.581815
0.0917376
0.577647
0.101975
0.571422
0.103878
0.563243
0.103131
0.553602
0.104424
0.543031
0.10763
0.531798
0.112798
0.519853
0.119272
0.507255
0.126885
0.493963
0.135992
0.479842
0.147231
0.464656
0.16178
0.182057
0.473533
0.49494
-0.186321
0.514323
-0.164066
0.531767
-0.141966
0.547209
-0.120649
0.560982
-0.100266
0.573079
-0.0796168
0.583444
-0.0590483
0.592016
-0.0375399
0.598815
-0.0158746
0.603836
0.00701246
0.607124
0.0298562
0.608658
0.0534809
0.608477
0.0749743
0.606554
0.0936608
0.602777
0.105752
0.596953
0.109702
0.589155
0.110929
0.579768
0.11381
0.569316
0.118082
0.557996
0.124119
0.545883
0.131385
0.532987
0.139781
0.519304
0.149675
0.504795
0.16174
0.489233
0.177341
0.198889
0.512269
0.532496
-0.184292
0.550686
-0.160157
0.566955
-0.136918
0.581441
-0.114752
0.594163
-0.0923384
0.60513
-0.0700155
0.614377
-0.0467868
0.621863
-0.0233603
0.627518
0.00135741
0.63133
0.0260444
0.633408
0.0514029
0.633684
0.0746985
0.632184
0.0951608
0.628859
0.109076
0.623534
0.115027
0.616129
0.118334
0.607052
0.122887
0.596715
0.128419
0.585374
0.13546
0.573122
0.143636
0.559974
0.15293
0.54592
0.16373
0.530914
0.176746
0.514807
0.193447
0.216274
0.551993
-0.205492
0.570977
-0.179141
0.587966
-0.153907
0.603135
-0.129922
0.616408
-0.105612
0.628063
-0.0816701
0.637933
-0.0566563
0.646006
-0.031434
0.652286
-0.00492276
0.656718
0.0216122
0.6593
0.0488216
0.660073
0.0739247
0.65902
0.0962143
0.656108
0.111988
0.651197
0.119938
0.6442
0.125331
0.635457
0.131631
0.625306
0.138569
0.613986
0.14678
0.601621
0.156002
0.588232
0.166318
0.573848
0.178115
0.558375
0.192219
0.541737
0.210085
0.234331
0.572808
0.592649
-0.198982
0.610279
-0.171537
0.626134
-0.145776
0.640167
-0.119645
0.652393
-0.0938959
0.662864
-0.0671272
0.671499
-0.040069
0.678245
-0.0116691
0.6832
0.0166576
0.68632
0.0457016
0.68751
0.0727339
0.686897
0.0968275
0.684422
0.114463
0.67997
0.124391
0.673445
0.131855
0.665003
0.140073
0.655055
0.148517
0.643828
0.158006
0.631387
0.168443
0.617812
0.179894
0.603102
0.192825
0.587249
0.208071
0.570087
0.227247
0.253042
0.615601
0.634111
-0.190047
0.650604
-0.162269
0.665231
-0.134271
0.678042
-0.106707
0.689061
-0.0781457
0.69824
-0.0492486
0.705612
-0.0190409
0.711041
0.0112286
0.714585
0.0421579
0.716267
0.0710513
0.716048
0.097047
0.71399
0.116521
0.709958
0.128423
0.703858
0.137955
0.695805
0.148126
0.68609
0.158232
0.67494
0.169157
0.662459
0.180924
0.648731
0.193622
0.633759
0.207797
0.617495
0.224336
0.599844
0.244898
0.272316
0.659303
-0.209329
0.676532
-0.179498
0.691762
-0.149501
0.705174
-0.12012
0.716727
-0.089699
0.726458
-0.0589789
0.734271
-0.0268542
0.740215
0.00528484
0.744196
0.0381761
0.746261
0.0689863
0.74648
0.0968289
0.744824
0.118177
0.741251
0.131996
0.735561
0.143644
0.727871
0.155816
0.718415
0.167689
0.707376
0.180195
0.694909
0.193391
0.681046
0.207484
0.665829
0.223014
0.649213
0.240952
0.631097
0.263014
0.292119
0.685947
0.703897
-0.197448
0.719862
-0.165466
0.733813
-0.134071
0.745938
-0.101824
0.756156
-0.0691973
0.764497
-0.0351949
0.770848
-0.00106614
0.775242
0.0337822
0.777751
0.0664768
0.778301
0.0962791
0.77704
0.119439
0.773855
0.13518
0.76858
0.148919
0.761277
0.163119
0.752102
0.176863
0.741258
0.19104
0.728806
0.205843
0.714846
0.221444
0.699401
0.238459
0.68245
0.257904
0.663912
0.281552
0.312486
0.732958
-0.216156
0.749553
-0.182062
0.764122
-0.14864
0.776757
-0.114458
0.787443
-0.0798832
0.79619
-0.0439425
0.802983
-0.00785865
0.807815
0.0289501
0.810625
0.0636667
0.811547
0.0953573
0.810676
0.120309
0.807882
0.137974
0.80305
0.153752
0.796118
0.170051
0.787223
0.185758
0.776534
0.201729
0.764168
0.218209
0.750149
0.235462
0.734516
0.254093
0.717263
0.275156
0.698308
0.300507
0.333332
0.763669
0.780908
-0.199301
0.796113
-0.163845
0.809249
-0.127594
0.820405
-0.0910395
0.829632
-0.0531691
0.836798
-0.015025
0.841962
0.0237861
0.845136
0.0604931
0.846389
0.0941039
0.845859
0.120839
0.843454
0.140379
0.838988
0.158218
0.832421
0.176617
0.823869
0.194311
0.813394
0.212204
0.801095
0.230508
0.78704
0.249518
0.771272
0.26986
0.753758
0.29267
0.73442
0.319846
0.354649
0.814012
-0.217253
0.829817
-0.17965
0.843528
-0.141305
0.855201
-0.102713
0.864788
-0.0627555
0.872355
-0.0225921
0.87783
0.0183108
0.881323
0.057
0.882935
0.0924923
0.882619
0.121155
0.880584
0.142414
0.876508
0.162295
0.87023
0.182895
0.86206
0.20248
0.851803
0.222461
0.839653
0.242658
0.825597
0.263574
0.80972
0.285737
0.79197
0.310421
0.772293
0.339522
0.376408
0.849005
0.865424
-0.196069
0.879687
-0.155568
0.891809
-0.114835
0.901805
-0.0727515
0.909712
-0.0304987
0.915543
0.0124801
0.919266
0.0532767
0.921139
0.0906189
0.921171
0.121123
0.919382
0.144203
0.915695
0.165981
0.909859
0.188732
0.90197
0.210369
0.89198
0.23245
0.879859
0.254779
0.865887
0.277546
0.849989
0.301635
0.832061
0.328349
0.812014
0.359569
0.398562
0.902985
-0.213183
0.917799
-0.170383
0.930401
-0.127437
0.940792
-0.0831423
0.949089
-0.038796
0.95522
0.00634935
0.959233
0.0492642
0.961224
0.0886272
0.961522
0.120826
0.960113
0.145612
0.956715
0.169379
0.9512
0.194247
0.943472
0.218097
0.933778
0.242145
0.921891
0.266667
0.908067
0.291369
0.891923
0.31778
0.873852
0.34642
0.853637
0.379784
0.421059
0.942527
-0.230905
0.958031
-0.185887
0.971102
-0.140508
0.981977
-0.0940172
0.990421
-0.0472402
0.996914
-0.000143249
1.00116
0.0450164
1.00341
0.0863749
1.00397
0.120268
1.00272
0.146864
0.999555
0.172545
0.994337
0.199466
0.986926
0.225507
0.977368
0.251703
0.965894
0.278141
0.951933
0.30533
0.936038
0.333675
0.917804
0.364653
0.897304
0.400284
0.443785
0.984373
1.00036
-0.201878
1.01384
-0.153979
1.02515
-0.105328
1.03404
-0.0561376
1.04064
-0.00673488
1.04516
0.0404896
1.04757
0.0839664
1.04828
0.119559
1.04732
0.147821
1.04451
0.175358
1.03956
0.204417
1.03245
0.232614
1.02319
0.260962
1.01166
0.289672
0.998068
0.318924
0.98199
0.349752
0.963647
0.382997
0.943248
0.420683
0.466933
1.04494
-0.218342
1.05918
-0.168224
1.07069
-0.116841
1.08003
-0.0654745
1.0868
-0.0135079
1.09146
0.0358347
1.09418
0.081243
1.09489
0.118855
1.09417
0.148536
1.09139
0.178141
1.08684
0.208969
1.08001
0.23944
1.07104
0.269928
1.05963
0.301084
1.04595
0.332601
1.0302
0.365505
1.01194
0.401253
0.9911
0.441528
0.489998
1.09219
-0.235656
1.10675
-0.182785
1.11874
-0.128827
1.12831
-0.0750518
1.13541
-0.0206037
1.14015
0.031099
1.14287
0.0785241
1.14401
0.117709
1.14316
0.149386
1.14081
0.180495
1.13613
0.213641
1.12973
0.245848
1.12089
0.278769
1.10991
0.312058
1.09649
0.346026
1.08047
0.381523
1.06235
0.419375
1.04156
0.462311
0.513503
1.14172
1.15682
-0.197894
1.16931
-0.141316
1.17906
-0.0847965
1.18658
-0.0281294
1.19146
0.0262246
1.19434
0.0756418
1.19535
0.116697
1.19482
0.149915
1.19242
0.182902
1.18823
0.217826
1.18173
0.252348
1.17316
0.287342
1.16231
0.322908
1.149
0.359339
1.13336
0.397154
1.11497
0.437773
1.0943
0.482975
0.536946
1.2097
-0.213669
1.22274
-0.154356
1.23287
-0.0949255
1.24026
-0.0355207
1.2455
0.0209898
1.24823
0.0729053
1.24927
0.11566
1.24887
0.150316
1.24651
0.185265
1.24245
0.221885
1.23631
0.258488
1.22783
0.295821
1.2171
0.333639
1.20406
0.372372
1.18854
0.41268
1.17051
0.455801
1.14957
0.503915
0.560261
1.26553
-0.229932
1.27878
-0.167614
1.28932
-0.105458
1.29709
-0.0432939
1.3021
0.0159826
1.30521
0.0697881
1.30639
0.114488
1.30573
0.150972
1.30369
0.187309
1.29956
0.226011
1.29343
0.26462
1.28533
0.30392
1.27486
0.344106
1.26196
0.385278
1.2464
0.428232
1.22834
0.473871
1.20777
0.524482
0.583679
1.32423
1.33804
-0.181421
1.34879
-0.116209
1.35672
-0.0512261
1.3621
0.0106006
1.36489
0.0670011
1.36597
0.113407
1.3657
0.151244
1.36345
0.189564
1.35937
0.230085
1.35352
0.270469
1.34532
0.312128
1.33495
0.354472
1.32218
0.39805
1.30708
0.443334
1.28915
0.491798
1.26856
0.54507
0.606988
1.40023
-0.195655
1.41153
-0.127508
1.41953
-0.0592317
1.42495
0.00518588
1.42803
0.0639198
1.42903
0.11241
1.42854
0.151726
1.42639
0.191712
1.42248
0.233998
1.41642
0.276527
1.40854
0.320012
1.39825
0.364759
1.38576
0.410543
1.37052
0.458579
1.35291
0.509403
1.33249
0.565488
0.630133
1.46615
-0.210616
1.47747
-0.13882
1.48589
-0.0676599
1.49143
-0.000351204
1.49424
0.061109
1.49527
0.111385
1.49462
0.152377
1.49249
0.193836
1.48855
0.237939
1.4827
0.282376
1.47466
0.328061
1.46458
0.374831
1.45206
0.423063
1.43728
0.473355
1.41973
0.52696
1.39952
0.585692
1.53518
1.54722
-0.150859
1.55569
-0.0761279
1.56119
-0.00585563
1.56422
0.0580829
1.56506
0.110545
1.56444
0.152993
1.56218
0.196098
1.55802
0.242097
1.55219
0.288203
1.54425
0.336002
1.53422
0.384866
1.52196
0.435324
1.5072
0.488111
1.48986
0.5443
0.605648
1.62046
-0.163007
1.62935
-0.0850256
1.6348
-0.0113008
1.63764
0.0552421
1.63858
0.109601
1.63772
0.153852
1.63528
0.198544
1.63116
0.246209
1.62517
0.2942
1.61745
0.34372
1.60743
0.394887
1.59512
0.447636
1.58053
0.502697
1.56342
0.561407
0.625469
1.69788
-0.175655
1.70676
-0.0939102
1.71251
-0.0170513
1.71535
0.0523999
1.7159
0.109057
1.71504
0.154714
1.71251
0.201074
1.70825
0.250463
1.70221
0.300247
1.69423
0.351695
1.6842
0.404923
1.67211
0.459723
1.65769
0.51712
1.64067
0.578421
0.644844
1.77918
-0.188656
1.78858
-0.103315
1.7942
-0.0226625
1.79694
0.0496526
1.7975
0.108497
1.79633
0.155887
1.7937
0.203707
1.78927
0.254894
1.78313
0.306383
1.77502
0.35981
1.76508
0.414854
1.75305
0.471754
1.73864
0.531537
1.72201
0.595049
0.664191
1.8652
-0.202059
1.87462
-0.112735
1.88036
-0.0284031
1.88301
0.0470039
1.88358
0.107932
1.88219
0.157273
1.87926
0.206635
1.87462
0.259531
1.86837
0.312639
1.86022
0.367955
1.85022
0.424857
1.83793
0.484043
1.8238
0.545669
1.80726
0.611584
0.683207
1.95576
1.96536
-0.122339
1.97131
-0.034346
1.97398
0.0443341
1.97404
0.107865
1.97254
0.158774
1.96947
0.209708
1.96459
0.264411
1.95803
0.319198
1.94968
0.376302
1.93958
0.434963
1.92759
0.496034
1.91328
0.559972
1.89684
0.628032
0.701894
2.06114
-0.132204
2.06698
-0.0401825
2.06946
0.0418526
2.06948
0.107845
2.06788
0.160379
2.06444
0.213142
2.05943
0.269419
2.05255
0.326087
2.0441
0.384744
2.03372
0.445346
2.02157
0.50819
2.0075
0.574033
1.99127
0.644264
0.720397
2.16209
-0.142573
2.16794
-0.0460369
2.17052
0.0392738
2.17031
0.108058
2.16825
0.162441
2.16458
0.216805
2.15928
0.274726
2.15217
0.333194
2.14346
0.393453
2.13306
0.455748
2.12085
0.520395
2.10658
0.588305
2.09054
0.660301
0.738727
2.26851
-0.153139
2.27459
-0.0521103
2.2768
0.0370663
2.27643
0.10842
2.2742
0.164672
2.27016
0.220846
2.26452
0.280363
2.25731
0.340406
2.2483
0.402461
2.23756
0.466489
2.22514
0.532819
2.21105
0.60239
2.19491
0.676445
0.756897
2.38059
-0.163823
2.38676
-0.0582837
2.38899
0.0348417
2.38833
0.109076
2.38591
0.167096
2.38171
0.225045
2.37558
0.286498
2.36794
0.348038
2.35861
0.411798
2.34779
0.477311
2.33511
0.545494
2.3209
0.616599
2.30476
0.692583
0.774788
2.49895
2.50516
-0.0644974
2.50721
0.0327987
2.5065
0.109779
2.50369
0.16991
2.49907
0.229669
2.49269
0.292874
2.48461
0.356114
2.47506
0.42135
2.4637
0.488671
2.45103
0.558168
2.43652
0.631103
2.42065
0.708461
0.792708
2.63012
-0.0708367
2.63214
0.0307731
2.63107
0.110847
2.62787
0.173112
2.62291
0.234632
2.61612
0.299658
2.60771
0.364524
2.59778
0.431287
2.58627
0.500175
2.57315
0.571294
2.55873
0.645515
2.54239
0.724811
2.76166
-0.0772655
2.76372
0.0287192
2.76229
0.112275
2.75895
0.176457
2.75362
0.239953
2.74641
0.306877
2.73764
0.37329
2.72715
0.441779
2.71519
0.512134
2.702
0.584485
2.68709
0.660424
0.740969
2.90073
-0.0839085
2.9024
0.0270501
2.90096
0.113716
2.89718
0.18024
2.89133
0.245801
2.88379
0.314414
2.8745
0.382583
2.8637
0.452573
2.8514
0.524438
2.83756
0.598327
2.82267
0.675311
0.75739
3.04703
-0.0904164
3.04893
0.025142
3.04705
0.1156
3.04294
0.184352
3.03682
0.251913
3.0288
0.322436
3.01896
0.392427
3.00756
0.463975
2.99488
0.537117
2.9809
0.612301
2.96532
0.690899
0.773831
3.20175
3.20319
0.0236993
3.20125
0.117543
3.19674
0.188861
3.19022
0.258438
3.18168
0.33097
3.1714
0.402708
3.15964
0.475735
3.14628
0.550479
3.13173
0.626852
3.11609
0.706536
0.790884
3.36621
0.0222003
3.36375
0.120007
3.35902
0.19359
3.35202
0.265436
3.34295
0.34004
3.3322
0.413459
3.31964
0.488297
3.30598
0.564137
3.29096
0.641877
3.27483
0.722668
0.808038
3.53811
0.0205954
3.53554
0.122574
3.53026
0.198877
3.52276
0.272933
3.51313
0.349675
3.50175
0.424839
3.48877
0.501274
3.47437
0.578538
3.4587
0.65754
3.44217
0.739198
0.825606
3.71929
0.0193059
3.7164
0.125464
3.71067
0.204614
3.7028
0.280795
3.69271
0.359767
3.68067
0.436877
3.66711
0.514837
3.65208
0.593573
3.63601
0.673608
3.61877
0.756433
0.843763
3.9105
0.0179877
3.90728
0.128687
3.90134
0.210557
3.89293
0.289199
3.88208
0.370615
3.86949
0.449471
3.85518
0.529148
3.83948
0.609275
3.8227
0.690383
3.80486
0.774272
0.86228
4.11216
0.0167884
4.10869
0.132154
4.10222
0.217025
4.09324
0.298179
4.08201
0.381846
4.06857
0.462919
4.05361
0.544104
4.03721
0.625675
4.01969
0.7079
4.00135
0.792619
4.32488
0.0156544
4.32111
0.135928
4.31424
0.223894
4.30465
0.307769
4.29273
0.393764
4.27881
0.476847
4.2629
0.560009
4.24591
0.642669
4.22748
0.726329
0.811644
4.54932
4.54523
0.14002
4.5379
0.231225
4.52779
0.317874
4.51501
0.406544
4.5003
0.491559
4.48382
0.576489
4.46579
0.6607
4.44682
0.745301
0.831522
4.78159
0.144509
4.77392
0.238895
4.76312
0.328672
4.74975
0.419924
4.73408
0.507226
4.71672
0.593849
4.69789
0.679531
4.67807
0.765122
0.852288
5.03093
0.14927
5.02257
0.24725
5.01135
0.339897
4.99715
0.434118
4.98077
0.523611
4.96249
0.612125
4.94269
0.699333
4.92185
0.785961
0.873849
5.29396
0.154367
5.28514
0.256067
5.27314
0.351896
5.25826
0.448995
5.24098
0.540892
5.22175
0.631356
5.20094
0.720141
5.17905
0.807855
0.896377
5.5714
0.159645
5.56197
0.26549
5.54931
0.364561
5.53355
0.46475
5.51534
0.559105
5.49512
0.651577
5.4734
0.741864
5.45054
0.830711
0.91991
5.86396
0.165498
5.854
0.275447
5.84061
0.377955
5.82392
0.481434
5.80486
0.578163
5.78347
0.672968
5.76067
0.764671
5.73667
0.854705
6.17251
0.171737
6.16206
0.2859
6.14791
0.392106
6.1304
0.498942
6.11019
0.59838
6.08785
0.695303
6.06364
0.788879
0.879744
6.49824
0.178308
6.48716
0.296977
6.47203
0.407239
6.45364
0.517332
6.43222
0.6198
6.40875
0.71877
6.3835
0.814131
0.906274
6.84166
6.82985
0.308788
6.81414
0.422953
6.79466
0.53681
6.77225
0.642212
6.74734
0.743676
6.72073
0.840744
0.934076
7.19173
0.320715
7.1748
0.439883
7.15408
0.557531
7.13102
0.665271
7.1045
0.7702
7.07701
0.868232
0.963592
7.57312
0.334791
7.55561
0.457392
7.53395
0.579185
7.50835
0.690871
7.48134
0.797209
7.45161
0.897962
0.993416
7.97582
0.347652
7.95697
0.476244
7.9341
0.602056
7.90867
0.716304
7.87929
0.82659
7.84859
0.92866
1.02675
5.77664
0.380926
5.74893
0.503952
5.73275
0.618232
5.71233
0.736727
5.69155
0.847372
5.71077
0.909441
6.34699
0.417446
6.31616
0.53478
6.29694
0.63745
6.27752
0.756148
6.25521
0.869679
0.890453
6.97377
0.457425
6.93968
0.568874
6.91986
0.657266
6.89735
0.778655
6.87077
0.896263
0.866606
7.66208
0.501075
7.62449
0.606466
7.6039
0.677854
7.57682
0.805734
7.54971
0.923372
0.842007
8.41833
0.549893
8.37707
0.647724
8.35291
0.702017
8.32632
0.832317
8.29593
0.953767
0.815498
9.24875
0.602884
9.20352
0.692956
9.17683
0.728706
9.14656
0.862592
9.11392
0.986406
0.784737
10.1616
10.1136
0.7409
10.0843
0.758029
10.0516
0.89531
10.0141
1.02392
0.752359
11.1102
0.796153
11.0789
0.789263
11.0419
0.93235
11.0015
1.0643
0.716368
12.2123
0.854203
12.177
0.824496
12.1375
0.971917
12.0935
1.10824
0.674821
13.4093
0.920962
13.3708
0.862973
13.3271
1.01567
13.2777
1.15762
14.7544
0.990864
14.7142
0.903191
14.6662
1.06372
1.20665
16.1762
1.07018
16.1281
0.9513
16.0741
1.11779
1.26828
17.8629
17.8185
17.77
)
;

boundaryField
{
    inlet
    {
        type            calculated;
        value           nonuniform List<scalar> 4(1.14875 0.995715 1.16633 1.31797);
    }
    outlet
    {
        type            calculated;
        value           nonuniform List<scalar> 0();
    }
    walls
    {
        type            calculated;
        value           uniform 0;
    }
    frontAndBack
    {
        type            empty;
    }
    procBoundary5to0
    {
        type            processor;
        value           nonuniform List<scalar> 4(-0.215096 -0.217953 -0.2293 -0.281382);
    }
    procBoundary5to1
    {
        type            processor;
        value           nonuniform List<scalar> 
13
(
-0.0219942
-0.0343826
-0.0479006
-0.0394345
-0.0995664
-0.0627979
-0.0543308
-0.159001
-0.0788317
-0.071885
-0.065091
-0.251543
-0.0948636
)
;
    }
    procBoundary5to4
    {
        type            processor;
        value           nonuniform List<scalar> 
95
(
-0.219537
-0.237986
-0.213243
-0.314488
-0.236702
-0.225972
-0.383328
-0.229867
-0.20972
-0.449529
-0.211834
-0.48987
-0.20872
-0.530793
-0.550712
-0.227587
-0.594875
-0.219708
-0.640021
-0.665894
-0.229382
-0.71425
-0.744163
-0.235661
-0.79606
-0.830212
-0.236046
-0.885871
-0.924805
-0.965811
-0.249468
-1.02847
-1.07488
-1.12374
-0.253636
-1.19393
-1.24926
-1.30718
-0.246983
-1.386
-1.45119
-1.51996
-0.225835
-1.60831
-1.68523
-1.76618
-1.8518
-1.94178
-0.216035
-2.05128
-2.15172
-2.25795
-2.36991
-2.48772
-0.175051
-2.62378
-2.75524
-2.89409
-3.04052
-3.1947
-0.0974657
-3.36472
-3.53651
-3.718
-3.90918
-4.11096
-4.32375
-4.54816
0.0144977
-4.78608
-5.03569
-5.29905
-5.57667
-5.86981
-6.17875
-6.50481
-6.84864
0.18529
-7.20366
-7.58719
-7.98869
-5.80991
-6.38351
-7.01375
-7.70573
-8.46715
-9.30174
-10.2202
0.661473
-11.1654
-12.2703
-13.4761
-14.8243
-16.2555
-17.9415
)
;
    }
    procBoundary5to6
    {
        type            processor;
        value           nonuniform List<scalar> 
86
(
0.126589
0.168139
0.213237
0.265986
0.321316
0.360671
0.375954
0.385057
0.401467
0.423892
0.448011
0.472402
0.497422
0.52368
0.551376
0.580569
0.611294
0.643545
0.677461
0.713104
0.750534
0.789859
0.83114
0.874578
0.9201
0.968035
1.01806
1.07086
1.12626
1.18435
1.24525
1.30935
1.37645
0.653203
1.46991
1.5436
1.6213
1.70266
1.78825
1.87815
1.97277
2.07221
2.17674
2.28687
2.40273
2.52455
0.810545
2.67093
2.80625
2.94887
3.09904
3.25767
3.4246
3.60062
3.78635
3.9823
0.881331
4.20845
4.42694
4.6573
4.90029
5.15652
5.42701
5.71196
0.944624
6.0386
6.35697
6.69293
7.04749
7.42179
7.81526
5.71378
1.02374
6.2742
6.89462
7.57431
8.32244
9.14468
10.0465
11.0375
12.1351
13.3202
0.63231
14.6171
16.0124
17.7203
)
;
    }
}


// ************************************************************************* //
