/*--------------------------------*- C++ -*----------------------------------*\
| =========                 |                                                 |
| \\      /  F ield         | OpenFOAM: The Open Source CFD Toolbox           |
|  \\    /   O peration     | Version:  2506                                  |
|   \\  /    A nd           | Website:  www.openfoam.com                      |
|    \\/     M anipulation  |                                                 |
\*---------------------------------------------------------------------------*/
FoamFile
{
    version     2.0;
    format      ascii;
    arch        "LSB;label=32;scalar=64";
    class       volScalarField;
    location    "300";
    object      turbulenceProperties:epsilon;
}
// * * * * * * * * * * * * * * * * * * * * * * * * * * * * * * * * * * * * * //

dimensions      [0 2 -3 0 0 0 0];

internalField   nonuniform List<scalar> 
1340
(
0.259514
0.340281
0.453224
0.623898
0.84062
1.13539
1.53148
2.03583
2.68516
3.51585
4.57962
5.96657
7.80495
10.2944
13.7756
18.7639
26.2448
37.3648
56.062
83.0325
139.686
211.732
435.286
738.992
735.785
666.776
636.961
637.122
643.137
639.531
622.906
593.417
548.505
489.477
416.652
0.194241
0.147162
0.100426
0.0667109
0.0405745
0.0221908
0.0111886
0.007362
0.00728093
0.00711526
0.00671041
0.0061071
0.00544852
0.00471968
0.00396253
0.00327841
0.00267063
0.00214909
0.00182039
0.0017736
0.00210667
0.00331097
0.00671929
0.016585
0.0442624
0.139286
0.45069
1.76278
6.26769
23.5528
84.0437
166.889
235.596
278.649
285.247
251.092
193.21
135.896
91.9287
63.5191
45.738
34.2775
0.00722838
0.00703278
0.00664224
0.00608381
0.00536028
0.00447674
0.003303
0.00325091
0.00310579
0.00289044
0.00267348
0.00244484
0.0022241
0.00203447
0.00187808
0.001761
0.00167288
0.00162309
0.00160955
0.00163602
0.00164451
0.00155846
0.00110626
0.000900024
8.50454e-05
0.0155705
0.0272573
0.000312276
0.0014058
0.0217097
0.49988
2.50375
7.82321
20.0342
42.2603
70.4819
91.5728
94.2365
80.1133
60.7008
44.1871
0.0033548
0.00334677
0.00332919
0.00321195
0.00300891
0.00268283
0.00235457
0.00236434
0.00234065
0.00230184
0.00222276
0.00210761
0.00196834
0.00180115
0.00161915
0.00142912
0.00123816
0.00105141
0.000872923
0.00070748
0.000557514
0.00041966
0.000299597
0.000217722
0.000129287
3.67816e-05
3.82567e-07
3.87019e-06
0
0.00659207
0.0332114
0.0518501
0.0475658
0.000443829
0.0153725
0.435215
3.20944
11.6447
25.0359
35.4912
37.1869
0.00230431
0.00222921
0.00211382
0.00197893
0.00181609
0.00132508
0.00132041
0.00129986
0.00126363
0.00120858
0.0011359
0.00105106
0.000956972
0.000858284
0.000762022
0.000671544
0.000590134
0.000520418
0.000463073
0.000417907
0.000381705
0.000345596
0.000301442
0.000262356
0.000209781
0.000133167
4.61346e-05
3.18215e-07
1.89312e-08
0
0
0
0.000527638
0.0288146
0.0111723
0.0234308
0.0157839
0.170103
2.42155
9.08252
0.00131823
0.00129965
0.00126304
0.00120552
0.00112669
0.000890297
0.000897907
0.000897183
0.000890788
0.000873373
0.000845514
0.00080891
0.000762782
0.00070896
0.000649815
0.000586796
0.000522276
0.000458489
0.000397061
0.000339361
0.000284332
0.000229931
0.000179939
0.000139334
0.000107186
8.59384e-05
6.66867e-05
4.91198e-05
6.68541e-06
7.06824e-08
1.61219e-08
2.62444e-09
4.47961e-12
0
0.000835127
0.00596113
0.0336275
0.00574165
0.0421893
0.04636
0.000874237
0.000852278
0.000820834
0.000780247
0.000582587
0.000587715
0.000588535
0.000585562
0.000576269
0.000560356
0.000538473
0.000510374
0.000476834
0.000439367
0.000399203
0.000357893
0.000317117
0.000278251
0.000242225
0.000210055
0.000182872
0.000159239
0.000136776
0.000115219
9.5963e-05
7.98458e-05
7.13609e-05
5.50537e-05
2.76193e-05
1.0046e-05
1.26724e-06
1.51796e-09
5.23883e-09
2.07357e-11
0
0
0.000434167
0.0179043
0.0126063
0.000573061
0.000560284
0.000541952
0.00051721
0.000400214
0.000405697
0.00040897
0.000410294
0.00040805
0.000401952
0.000392326
0.000378612
0.000361032
0.000340242
0.000316539
0.000290744
0.000263713
0.000236204
0.000208967
0.000182744
0.000157374
0.000132488
0.000109457
8.97381e-05
7.38631e-05
6.19844e-05
5.39301e-05
4.90472e-05
4.17868e-05
3.06338e-05
1.83693e-05
8.57523e-06
3.01993e-06
1.1244e-08
3.71636e-09
2.20733e-12
0
0
0.00113643
0.000392048
0.000382317
0.000369464
0.000352745
0.000278488
0.000282895
0.000286127
0.000288155
0.000288081
0.000285614
0.000280842
0.000273305
0.000263054
0.000250343
0.000235332
0.000218468
0.000200293
0.000181336
0.000162217
0.000143404
0.000125434
0.000109
9.4077e-05
8.05781e-05
6.86273e-05
5.8546e-05
5.02036e-05
4.34224e-05
3.72246e-05
3.04717e-05
2.38674e-05
1.76017e-05
1.25786e-05
6.52051e-06
2.71957e-06
1.92829e-09
9.23038e-10
0
0
0.000272505
0.00026566
0.000256943
0.000208133
0.000207844
0.000206114
0.000202582
0.000197238
0.000190151
0.000181311
0.000170936
0.000159298
0.000146689
0.000133469
0.000119978
0.00010662
9.34801e-05
8.07568e-05
6.90366e-05
5.88543e-05
5.04384e-05
4.35674e-05
3.75111e-05
3.1561e-05
2.55377e-05
2.01024e-05
1.58272e-05
1.27984e-05
1.05193e-05
8.46982e-06
4.47101e-06
7.36143e-07
3.43976e-09
0
0.000152108
0.000150582
0.000147802
0.000143785
0.000138464
0.000131935
0.000124331
0.000115809
0.000106611
9.69886e-05
8.71927e-05
7.753e-05
6.82702e-05
5.96112e-05
5.18008e-05
4.49708e-05
3.90895e-05
3.37513e-05
2.84029e-05
2.29402e-05
1.78818e-05
1.38694e-05
1.10161e-05
9.14013e-06
7.83838e-06
7.08327e-06
5.43676e-06
1.83444e-06
4.75306e-09
0.000111911
0.000109809
0.000106767
0.000102815
9.80051e-05
9.24146e-05
8.61746e-05
7.94402e-05
7.23948e-05
6.52556e-05
5.81367e-05
5.12435e-05
4.48876e-05
3.92447e-05
3.42989e-05
2.9783e-05
2.52891e-05
2.06914e-05
1.63406e-05
1.27376e-05
1.0045e-05
8.11657e-06
6.69199e-06
5.8382e-06
5.4302e-06
5.01054e-06
2.16956e-06
8.41694e-05
8.24878e-05
8.01323e-05
7.7111e-05
7.34484e-05
6.92223e-05
6.45278e-05
5.94781e-05
5.42428e-05
4.8952e-05
4.37449e-05
3.88101e-05
3.42863e-05
3.01795e-05
2.63452e-05
2.25366e-05
1.86652e-05
1.49734e-05
1.18372e-05
9.41715e-06
7.60233e-06
6.20448e-06
5.15007e-06
4.46932e-06
4.21053e-06
4.62076e-06
6.40274e-05
6.26865e-05
6.08465e-05
5.85085e-05
5.57049e-05
5.24874e-05
4.8924e-05
4.51356e-05
4.12108e-05
3.72399e-05
3.33664e-05
2.97332e-05
2.63586e-05
2.31565e-05
1.99695e-05
1.67371e-05
1.36301e-05
1.09345e-05
8.8013e-06
7.16464e-06
5.88697e-06
4.87296e-06
4.09757e-06
3.56491e-06
3.44052e-06
4.98617e-05
4.91563e-05
4.80762e-05
4.66126e-05
4.47736e-05
4.25894e-05
4.01019e-05
3.73797e-05
3.45028e-05
3.15322e-05
2.85502e-05
2.56796e-05
2.29454e-05
2.02999e-05
1.76511e-05
1.49628e-05
1.23562e-05
1.00488e-05
8.17638e-06
6.712e-06
5.55717e-06
4.64016e-06
3.90546e-06
3.39481e-06
2.75352e-06
3.86506e-05
3.80564e-05
3.71708e-05
3.59979e-05
3.45444e-05
3.28331e-05
3.09018e-05
2.88157e-05
2.66071e-05
2.43267e-05
2.20735e-05
1.9879e-05
1.77202e-05
1.55405e-05
1.33207e-05
1.11487e-05
9.18853e-06
7.55717e-06
6.25394e-06
5.21192e-06
4.38219e-06
3.71107e-06
3.24987e-06
2.69708e-06
3.01721e-05
2.9668e-05
2.8942e-05
2.7994e-05
2.68337e-05
2.54815e-05
2.39833e-05
2.23603e-05
2.06405e-05
1.8893e-05
1.71524e-05
1.54108e-05
1.36348e-05
1.18145e-05
1.0016e-05
8.36243e-06
6.95236e-06
5.80093e-06
4.86605e-06
4.1125e-06
3.50581e-06
3.05068e-06
2.71827e-06
2.3963e-05
2.37018e-05
2.32732e-05
2.26724e-05
2.19027e-05
2.09711e-05
1.99083e-05
1.87286e-05
1.74465e-05
1.61042e-05
1.47384e-05
1.33495e-05
1.19166e-05
1.04363e-05
8.95744e-06
7.57314e-06
6.36481e-06
5.35609e-06
4.52415e-06
3.84265e-06
3.29559e-06
2.85233e-06
2.61147e-06
1.89501e-05
1.87177e-05
1.83531e-05
1.78555e-05
1.72274e-05
1.64837e-05
1.56369e-05
1.46924e-05
1.36729e-05
1.26138e-05
1.1519e-05
1.03747e-05
9.18038e-06
7.97327e-06
6.82337e-06
5.79692e-06
4.92106e-06
4.18676e-06
3.57603e-06
3.08149e-06
2.67261e-06
2.42336e-06
1.51675e-05
1.50606e-05
1.48541e-05
1.45442e-05
1.41303e-05
1.36176e-05
1.30182e-05
1.23318e-05
1.15677e-05
1.07553e-05
9.90148e-06
8.99682e-06
8.04177e-06
7.06418e-06
6.1166e-06
5.25214e-06
4.49838e-06
3.85533e-06
3.3131e-06
2.86626e-06
2.50072e-06
2.2299e-06
1.21209e-05
1.2018e-05
1.18354e-05
1.15714e-05
1.12266e-05
1.08106e-05
1.0319e-05
9.75389e-06
9.13826e-06
8.47983e-06
7.77209e-06
7.01507e-06
6.22968e-06
5.4551e-06
4.73345e-06
4.09061e-06
3.53211e-06
3.05461e-06
2.65324e-06
2.3275e-06
2.05686e-06
9.75858e-06
9.72163e-06
9.62465e-06
9.46487e-06
9.23994e-06
8.95639e-06
8.60947e-06
8.19779e-06
7.73725e-06
7.23522e-06
6.6877e-06
6.0936e-06
5.46799e-06
4.84024e-06
4.2432e-06
3.69991e-06
3.21908e-06
2.80176e-06
2.44469e-06
2.15269e-06
1.90021e-06
7.86367e-06
7.82235e-06
7.73285e-06
7.59207e-06
7.40362e-06
7.16377e-06
6.86917e-06
6.52936e-06
6.15135e-06
5.73248e-06
5.27079e-06
4.77688e-06
4.27259e-06
3.78315e-06
3.32833e-06
2.91801e-06
2.55601e-06
2.24126e-06
1.97915e-06
1.7512e-06
6.36e-06
6.35402e-06
6.31126e-06
6.22893e-06
6.10827e-06
5.94647e-06
5.74001e-06
5.49297e-06
5.21215e-06
4.89521e-06
4.54e-06
4.15367e-06
3.75223e-06
3.35464e-06
2.97747e-06
2.63051e-06
2.3191e-06
2.04388e-06
1.80971e-06
1.60553e-06
5.14371e-06
5.15896e-06
5.14648e-06
5.10383e-06
5.03044e-06
4.9251e-06
4.78348e-06
4.60673e-06
4.40089e-06
4.16437e-06
3.89426e-06
3.59513e-06
3.27852e-06
2.9586e-06
2.64867e-06
2.35799e-06
2.09232e-06
1.85354e-06
1.64601e-06
1.46319e-06
4.18684e-06
4.19324e-06
4.17669e-06
4.13591e-06
4.07045e-06
3.97644e-06
3.85258e-06
3.70429e-06
3.53002e-06
3.32682e-06
3.09742e-06
2.85002e-06
2.59511e-06
2.3429e-06
2.10156e-06
1.87682e-06
1.67134e-06
1.48869e-06
1.32552e-06
3.3966e-06
3.41399e-06
3.41403e-06
3.39535e-06
3.35764e-06
3.29761e-06
3.21318e-06
3.10821e-06
2.98169e-06
2.8307e-06
2.65668e-06
2.46526e-06
2.264e-06
2.06074e-06
1.86219e-06
1.67366e-06
1.49818e-06
1.33887e-06
1.19373e-06
2.75446e-06
2.77746e-06
2.78762e-06
2.7834e-06
2.76469e-06
2.72854e-06
2.67285e-06
2.60008e-06
2.50974e-06
2.39914e-06
2.2686e-06
2.12201e-06
1.96463e-06
1.80229e-06
1.64049e-06
1.48374e-06
1.33487e-06
1.19708e-06
1.06886e-06
2.25822e-06
2.27395e-06
2.27877e-06
2.27252e-06
2.25289e-06
2.21774e-06
2.16883e-06
2.10551e-06
2.02554e-06
1.92877e-06
1.81768e-06
1.69584e-06
1.56742e-06
1.43669e-06
1.30748e-06
1.18231e-06
1.06381e-06
9.51511e-07
1.83492e-06
1.85321e-06
1.86327e-06
1.86494e-06
1.85641e-06
1.83577e-06
1.804e-06
1.76066e-06
1.70381e-06
1.63299e-06
1.54967e-06
1.45622e-06
1.35558e-06
1.2509e-06
1.14521e-06
1.04077e-06
9.39745e-07
8.42004e-07
1.49006e-06
1.50892e-06
1.52167e-06
1.52809e-06
1.52678e-06
1.51613e-06
1.49656e-06
1.4677e-06
1.42802e-06
1.37692e-06
1.3151e-06
1.24412e-06
1.16595e-06
1.08283e-06
9.97126e-07
9.10598e-07
8.25094e-07
7.40671e-07
1.22754e-06
1.24132e-06
1.25028e-06
1.25343e-06
1.24939e-06
1.23827e-06
1.21978e-06
1.19271e-06
1.15635e-06
1.11104e-06
1.05765e-06
9.97445e-07
9.3199e-07
8.62998e-07
7.91888e-07
7.20026e-07
6.4768e-07
9.97872e-07
1.01153e-06
1.02154e-06
1.02723e-06
1.02745e-06
1.02204e-06
1.01082e-06
9.92805e-07
9.67375e-07
9.34546e-07
8.94771e-07
8.48804e-07
7.97664e-07
7.42545e-07
6.84494e-07
6.24566e-07
5.63016e-07
8.10478e-07
8.23364e-07
8.33511e-07
8.40449e-07
8.43214e-07
8.41527e-07
8.35305e-07
8.23775e-07
8.06312e-07
7.82806e-07
7.53446e-07
7.18629e-07
6.78951e-07
6.35219e-07
5.88157e-07
5.3853e-07
6.69551e-07
6.79239e-07
6.86548e-07
6.9069e-07
6.91339e-07
6.88445e-07
6.81399e-07
6.69663e-07
6.53052e-07
6.31579e-07
6.05402e-07
5.74829e-07
5.40346e-07
5.02446e-07
4.61626e-07
5.43921e-07
5.52838e-07
5.59977e-07
5.64721e-07
5.66725e-07
5.65957e-07
5.61959e-07
5.54287e-07
5.42714e-07
5.27146e-07
5.07589e-07
4.84167e-07
4.57141e-07
4.26798e-07
3.93454e-07
4.41451e-07
4.49428e-07
4.56081e-07
4.60905e-07
4.63606e-07
4.64143e-07
4.6216e-07
4.57308e-07
4.49359e-07
4.38165e-07
4.23638e-07
4.05789e-07
3.84718e-07
3.60561e-07
3.33495e-07
3.57963e-07
3.64971e-07
3.70961e-07
3.75555e-07
3.78505e-07
3.79759e-07
3.79067e-07
3.76137e-07
3.70762e-07
3.6277e-07
3.52038e-07
3.38496e-07
3.22137e-07
3.03005e-07
2.81172e-07
2.90013e-07
2.96058e-07
3.01321e-07
3.05519e-07
3.08445e-07
3.10045e-07
3.10134e-07
3.08481e-07
3.04906e-07
2.9924e-07
2.91341e-07
2.811e-07
2.6845e-07
2.53365e-07
2.35853e-07
2.3991e-07
2.44457e-07
2.48184e-07
2.5092e-07
2.52615e-07
2.53133e-07
2.52305e-07
2.49974e-07
2.45979e-07
2.40179e-07
2.32452e-07
2.22701e-07
2.10858e-07
1.96887e-07
1.9423e-07
1.98097e-07
2.01326e-07
2.0378e-07
2.05422e-07
2.06154e-07
2.05839e-07
2.04348e-07
2.01544e-07
1.97293e-07
1.91469e-07
1.83968e-07
1.74704e-07
1.63615e-07
1.57104e-07
1.60352e-07
1.63105e-07
1.65248e-07
1.66756e-07
1.67555e-07
1.67539e-07
1.66605e-07
1.64641e-07
1.61524e-07
1.57137e-07
1.51377e-07
1.44152e-07
1.35391e-07
1.26974e-07
1.29675e-07
1.31985e-07
1.33815e-07
1.35144e-07
1.35923e-07
1.36072e-07
1.35503e-07
1.34126e-07
1.31837e-07
1.2853e-07
1.24111e-07
1.18492e-07
1.11598e-07
1.02546e-07
1.04771e-07
1.06687e-07
1.08225e-07
1.09367e-07
1.10079e-07
1.10301e-07
1.09966e-07
1.08997e-07
1.0731e-07
1.04813e-07
1.01424e-07
9.7062e-08
9.16574e-08
8.45825e-08
8.61563e-08
8.74305e-08
8.83903e-08
8.90126e-08
8.92546e-08
8.90635e-08
8.83783e-08
8.71285e-08
8.52389e-08
8.26392e-08
7.92595e-08
7.50368e-08
6.82379e-08
6.95191e-08
7.05613e-08
7.13534e-08
7.18818e-08
7.21142e-08
7.20098e-08
7.15198e-08
7.05875e-08
6.91528e-08
6.71578e-08
6.45423e-08
5.5022e-08
5.60562e-08
5.6899e-08
5.75445e-08
5.79824e-08
5.81893e-08
5.81343e-08
5.77788e-08
5.70781e-08
5.59852e-08
5.44516e-08
5.24289e-08
4.43449e-08
4.51749e-08
4.58515e-08
4.63704e-08
4.6726e-08
4.69018e-08
4.68736e-08
4.66111e-08
4.60799e-08
4.52436e-08
4.40632e-08
4.24995e-08
3.57284e-08
3.63913e-08
3.69299e-08
3.73424e-08
3.76267e-08
3.77701e-08
3.77547e-08
3.75573e-08
3.71513e-08
3.65084e-08
3.55982e-08
3.43894e-08
2.93072e-08
2.97334e-08
3.00587e-08
3.02824e-08
3.03959e-08
3.03856e-08
3.02343e-08
2.99211e-08
2.94243e-08
2.87209e-08
2.77864e-08
2.35992e-08
2.39345e-08
2.41888e-08
2.43626e-08
2.44503e-08
2.44415e-08
2.43228e-08
2.4079e-08
2.36934e-08
2.31482e-08
2.24251e-08
1.90038e-08
1.9266e-08
1.94633e-08
1.95968e-08
1.96628e-08
1.96534e-08
1.95587e-08
1.93672e-08
1.90665e-08
1.8643e-08
1.80828e-08
1.53062e-08
1.55103e-08
1.56622e-08
1.57636e-08
1.58119e-08
1.58013e-08
1.57244e-08
1.55729e-08
1.53372e-08
1.50074e-08
1.45728e-08
1.23321e-08
1.24901e-08
1.26064e-08
1.26826e-08
1.27169e-08
1.27053e-08
1.26422e-08
1.25212e-08
1.23357e-08
1.2078e-08
1.17402e-08
9.9409e-09
1.00628e-08
1.01513e-08
1.02079e-08
1.02313e-08
1.02189e-08
1.01664e-08
1.00693e-08
9.92247e-09
9.72047e-09
8.01871e-09
8.11258e-09
8.17938e-09
8.2208e-09
8.23609e-09
8.22319e-09
8.17917e-09
8.10064e-09
7.98392e-09
7.82504e-09
6.54595e-09
6.59606e-09
6.62593e-09
6.63519e-09
6.62217e-09
6.58491e-09
6.52098e-09
6.4277e-09
6.30222e-09
5.28764e-09
5.32496e-09
5.34604e-09
5.35079e-09
5.33807e-09
5.30636e-09
5.254e-09
5.17904e-09
5.07946e-09
4.27599e-09
4.30361e-09
4.31822e-09
4.31985e-09
4.30771e-09
4.2807e-09
4.23763e-09
4.17713e-09
4.09778e-09
3.46069e-09
3.48104e-09
3.49095e-09
3.49051e-09
3.47923e-09
3.45633e-09
3.42094e-09
3.3721e-09
3.3088e-09
2.80105e-09
2.81588e-09
2.82244e-09
2.82083e-09
2.81071e-09
2.7915e-09
2.76258e-09
2.72331e-09
2.67295e-09
2.26592e-09
2.27659e-09
2.28071e-09
2.27843e-09
2.26947e-09
2.25345e-09
2.22994e-09
2.19849e-09
1.8329e-09
1.84041e-09
1.84267e-09
1.83987e-09
1.83183e-09
1.81832e-09
1.79906e-09
1.77374e-09
1.48441e-09
1.48945e-09
1.49026e-09
1.487e-09
1.47961e-09
1.46794e-09
1.45183e-09
1.43112e-09
1.20876e-09
1.20845e-09
1.20483e-09
1.19789e-09
1.18758e-09
1.17377e-09
1.15646e-09
9.83551e-10
9.8239e-10
9.78506e-10
9.71962e-10
9.62675e-10
9.5059e-10
9.3585e-10
8.04475e-10
8.03264e-10
7.99822e-10
7.94473e-10
7.86628e-10
7.7639e-10
7.64502e-10
6.75832e-10
6.74371e-10
6.70905e-10
6.66287e-10
6.59201e-10
6.49857e-10
6.40066e-10
5.79846e-10
5.77963e-10
5.74052e-10
5.69208e-10
5.6199e-10
5.52458e-10
4.96041e-10
4.94609e-10
4.91281e-10
4.8705e-10
4.8072e-10
4.72125e-10
4.20095e-10
4.18188e-10
4.14479e-10
4.0992e-10
4.03744e-10
3.95209e-10
3.55274e-10
3.54345e-10
3.51848e-10
3.48387e-10
3.43681e-10
3.37275e-10
2.91233e-10
2.88334e-10
2.84001e-10
2.79138e-10
2.73565e-10
2.65172e-10
2.53439e-10
2.53653e-10
2.52516e-10
2.49717e-10
2.46483e-10
2.43521e-10
1.83027e-10
1.78147e-10
1.74128e-10
1.69407e-10
1.59378e-10
2.05327e-10
2.07606e-10
2.05144e-10
2.04433e-10
2.12108e-10
1.27155e-10
1.27692e-10
1.31541e-10
1.29947e-10
1.19919e-10
2.92641e-10
3.09217e-10
3.07625e-10
3.14888e-10
3.48868e-10
3.66875e-10
3.8872e-10
4.21094e-10
7.48167e-10
8.38039e-10
7.79058e-10
7.02183e-10
)
;

boundaryField
{
    inlet
    {
        type            calculated;
        value           nonuniform List<scalar> 4(1.45954e-08 1.65257e-08 1.69523e-08 1.73507e-08);
    }
    outlet
    {
        type            calculated;
        value           nonuniform List<scalar> 0();
    }
    walls
    {
        type            calculated;
        value           uniform 0;
    }
    frontAndBack
    {
        type            empty;
    }
    procBoundary5to0
    {
        type            processor;
        value           nonuniform List<scalar> 4(0.000197922 0.000193306 0.000188284 0.000182117);
    }
    procBoundary5to1
    {
        type            processor;
        value           nonuniform List<scalar> 
13
(
0.00631609
0.0035418
0.0035418
0.00226373
0.00161347
0.00161347
0.00101957
0.000729667
0.000729667
0.000485973
0.00033234
0.000245592
0.000245592
)
;
    }
    procBoundary5to4
    {
        type            processor;
        value           nonuniform List<scalar> 
95
(
0.000201566
0.00020463
0.000207017
0.000207017
0.000151866
0.000152462
0.000152462
0.000113555
0.000113153
0.000113153
8.51757e-05
8.51757e-05
6.48718e-05
6.48718e-05
5.02108e-05
3.89705e-05
3.89705e-05
3.04593e-05
3.04593e-05
2.40638e-05
1.90586e-05
1.90586e-05
1.51814e-05
1.21493e-05
1.21493e-05
9.73962e-06
7.85981e-06
7.85981e-06
6.33243e-06
5.10352e-06
4.15978e-06
4.15978e-06
3.36399e-06
2.72012e-06
2.233e-06
2.233e-06
1.80961e-06
1.46605e-06
1.20926e-06
1.20926e-06
9.80872e-07
7.95157e-07
6.57783e-07
6.57783e-07
5.3345e-07
4.32302e-07
3.50088e-07
2.83315e-07
2.34766e-07
2.34766e-07
1.899e-07
1.53497e-07
1.23992e-07
1.00099e-07
8.27643e-08
8.27643e-08
6.67611e-08
5.38298e-08
4.33876e-08
3.49631e-08
2.87814e-08
2.87814e-08
2.3184e-08
1.86769e-08
1.50496e-08
1.21314e-08
9.78428e-09
7.89667e-09
6.47399e-09
6.47399e-09
5.23261e-09
4.23411e-09
3.42889e-09
2.77696e-09
2.24787e-09
1.81944e-09
1.47454e-09
1.20563e-09
1.20563e-09
9.81851e-10
8.03329e-10
6.75123e-10
5.79581e-10
4.95545e-10
4.20161e-10
3.54653e-10
2.92846e-10
2.51648e-10
1.87009e-10
1.87009e-10
2.02036e-10
1.25559e-10
2.78347e-10
3.22926e-10
7.4526e-10
)
;
    }
    procBoundary5to6
    {
        type            processor;
        value           nonuniform List<scalar> 
86
(
334.484
26.5074
31.9783
32.4029
16.9033
1.6589
0.0337605
0.0241577
0
0
0
2.92317e-09
1.21798e-06
4.79472e-06
4.22477e-06
2.75617e-06
2.11909e-06
2.00708e-06
2.03313e-06
2.00369e-06
1.89254e-06
1.74241e-06
1.58867e-06
1.44422e-06
1.30998e-06
1.1836e-06
1.06411e-06
9.51522e-07
8.45944e-07
7.47918e-07
6.57647e-07
5.74989e-07
4.99976e-07
4.86573e-07
4.86573e-07
4.18111e-07
3.57259e-07
3.03609e-07
2.56677e-07
2.1591e-07
1.80754e-07
1.50647e-07
1.2503e-07
1.03364e-07
8.51486e-08
6.99133e-08
6.12524e-08
6.12524e-08
4.98722e-08
4.05162e-08
3.28531e-08
2.65974e-08
2.15058e-08
1.73715e-08
1.40225e-08
1.13141e-08
9.45734e-09
9.45734e-09
7.61962e-09
6.1413e-09
4.95291e-09
3.99787e-09
3.2298e-09
2.61058e-09
2.15856e-09
2.15856e-09
1.742e-09
1.40556e-09
1.13551e-09
9.18351e-10
7.50318e-10
6.28479e-10
5.43022e-10
5.43022e-10
4.634e-10
3.86725e-10
3.29918e-10
2.57877e-10
2.36725e-10
1.54881e-10
2.0402e-10
1.23716e-10
3.69253e-10
3.69253e-10
4.24954e-10
1.21675e-09
)
;
    }
}


// ************************************************************************* //
