/*--------------------------------*- C++ -*----------------------------------*\
| =========                 |                                                 |
| \\      /  F ield         | OpenFOAM: The Open Source CFD Toolbox           |
|  \\    /   O peration     | Version:  2506                                  |
|   \\  /    A nd           | Website:  www.openfoam.com                      |
|    \\/     M anipulation  |                                                 |
\*---------------------------------------------------------------------------*/
FoamFile
{
    version     2.0;
    format      ascii;
    arch        "LSB;label=32;scalar=64";
    class       volScalarField;
    location    "50";
    object      div(phi);
}
// * * * * * * * * * * * * * * * * * * * * * * * * * * * * * * * * * * * * * //

dimensions      [0 0 -1 0 0 0 0];

internalField   nonuniform List<scalar> 
1340
(
-0.000192828
-0.00059028
-0.000223189
-0.000766699
6.50519e-05
-0.000681097
-0.000399093
-0.000608533
-0.000228383
-0.000827962
0.000395033
-0.000431665
-0.000565373
-0.000353978
-0.000459231
0.000156777
-0.000605912
0.000490874
-0.00040227
-0.000169483
-0.000278615
-2.29925e-05
-0.000445931
0.000210892
-0.000417929
0.000359338
-0.000142711
-0.000285649
-9.72633e-05
-0.000207466
0.000237219
-0.000311088
0.000179851
-0.000370629
0.000244779
-0.000253871
1.43311e-05
-8.05853e-05
7.38848e-05
-0.000253359
0.000254023
-0.000236003
0.000160779
-0.000218159
0.000185005
1.67928e-05
-0.000109944
8.23653e-06
-6.64958e-05
0.000250641
-0.00017635
0.000211977
-0.000184217
0.000147566
2.11073e-05
-4.06659e-05
9.32471e-05
1.70553e-05
0.000114794
-0.000132392
0.000227969
-0.000125652
0.00019126
-7.29013e-05
7.14023e-05
0.000154809
7.67127e-05
-3.76319e-05
6.86799e-05
5.70199e-06
0.000220316
-8.60037e-05
0.000198284
-8.89765e-05
0.000161034
6.10175e-05
5.36405e-05
-1.12217e-05
0.000115414
6.08711e-05
0.000116416
-5.40152e-05
0.000201466
-5.51787e-05
0.000179859
-2.63201e-05
8.05804e-05
8.09954e-05
0.000103361
0.000113216
2.32491e-05
8.58939e-05
4.53112e-05
0.000187101
-2.8566e-05
0.000170647
-3.71106e-05
0.000131659
4.80381e-05
5.02069e-05
1.67573e-05
7.01047e-05
0.000120044
8.43856e-05
0.000113824
-5.90335e-06
0.00016229
-1.17104e-05
0.000142724
-6.64597e-06
6.30691e-05
3.02263e-05
4.70881e-05
0.000115527
5.13814e-05
9.82309e-05
6.19065e-05
0.000148515
7.85044e-06
0.00013662
-5.35188e-06
0.000103541
3.39257e-05
4.0287e-05
-3.91307e-06
2.35696e-05
8.01421e-05
0.00011168
9.11087e-05
0.000103073
2.43718e-05
0.000130585
1.54034e-05
0.000115402
1.06226e-05
5.10738e-05
1.94977e-05
5.26678e-05
4.21264e-05
0.000118142
7.43226e-05
9.40745e-05
6.79933e-05
0.000117621
3.00526e-05
0.000109909
1.6734e-05
8.22741e-05
3.28288e-05
4.16157e-05
8.57314e-06
1.32398e-05
7.98503e-05
0.000103372
9.56153e-05
9.28885e-05
9.26207e-05
4.23746e-05
0.000100535
3.2272e-05
8.98099e-05
2.34706e-05
4.36985e-05
2.29954e-05
5.21797e-05
4.1582e-05
4.67046e-06
0.000100531
8.5523e-05
8.99465e-05
6.67307e-05
8.77742e-05
4.3201e-05
8.37627e-05
3.11542e-05
6.41794e-05
3.33827e-05
3.98779e-05
2.1234e-05
2.59655e-05
4.50645e-05
0.000105621
8.2551e-05
8.53943e-05
8.08938e-05
5.17865e-05
7.5659e-05
4.22438e-05
6.93261e-05
3.26182e-05
3.98665e-05
2.67767e-05
4.37328e-05
3.46559e-05
2.19831e-05
-6.57899e-06
9.11438e-05
7.20527e-05
7.63663e-05
6.10809e-05
6.56534e-05
4.97289e-05
6.46323e-05
3.97059e-05
5.1582e-05
3.50341e-05
3.62109e-05
2.43623e-05
3.6898e-05
-2.90409e-06
4.11926e-05
9.31738e-05
7.05117e-05
7.02599e-05
6.62719e-05
5.56521e-05
5.55786e-05
4.69129e-05
5.22482e-05
3.82533e-05
3.53124e-05
2.77301e-05
3.64895e-05
2.63972e-05
3.42151e-05
-6.05235e-05
7.53241e-05
5.72428e-05
6.33193e-05
5.25653e-05
4.48947e-05
5.22138e-05
4.56506e-05
4.40867e-05
3.83865e-05
3.51049e-05
3.16383e-05
2.95995e-05
3.40325e-05
1.5686e-05
-2.06158e-06
-6.16719e-05
0.000101005
5.68307e-05
5.60218e-05
5.43876e-05
5.5034e-05
3.79417e-05
4.87664e-05
3.70343e-05
4.13287e-05
3.10057e-05
2.82711e-05
3.01657e-05
3.37373e-05
8.28682e-06
1.88069e-05
-8.16327e-05
8.78641e-05
5.84097e-05
4.5592e-05
3.09459e-05
5.21645e-05
3.3142e-05
4.59053e-05
2.9891e-05
3.41839e-05
2.90875e-05
3.43655e-05
3.65232e-05
1.18823e-05
-6.77542e-06
2.22329e-05
-7.12475e-05
5.86436e-05
5.44816e-05
4.6853e-05
5.48764e-05
2.58182e-05
4.83047e-05
2.61365e-05
4.22156e-05
2.74486e-05
2.83575e-05
2.47217e-05
2.80867e-05
2.61827e-05
-3.74567e-06
3.32799e-06
3.32167e-05
8.84588e-05
5.09996e-05
3.99334e-05
1.81705e-05
5.08522e-05
2.01196e-05
4.58481e-05
1.98585e-05
3.20305e-05
2.40641e-05
3.883e-05
3.48686e-05
1.09408e-05
-1.07213e-05
4.76019e-05
-4.64088e-05
4.91238e-05
4.20223e-05
3.91261e-05
5.16898e-05
1.40855e-05
4.68658e-05
1.52162e-05
4.16517e-05
2.22227e-05
2.83482e-05
1.90702e-05
2.59927e-05
3.12156e-06
2.14074e-05
-1.45776e-05
5.90537e-05
-5.57128e-05
6.76026e-05
4.4981e-05
3.35008e-05
1.00046e-05
4.83048e-05
1.25571e-05
4.44352e-05
1.38303e-05
2.97165e-05
2.08593e-05
3.97241e-05
1.97765e-05
7.89915e-06
-1.59142e-05
2.28367e-05
4.07611e-06
4.14561e-05
3.91313e-05
4.11458e-05
3.34974e-05
4.97016e-05
7.20451e-06
4.41089e-05
8.69757e-06
3.97455e-05
1.87225e-05
2.64974e-05
1.34877e-05
1.62031e-05
5.77464e-06
8.1006e-06
4.34104e-06
5.78883e-05
-4.79812e-05
7.36182e-05
3.80809e-05
2.88433e-05
2.02983e-06
4.5212e-05
3.96988e-06
4.19312e-05
6.64917e-06
2.65308e-05
1.70485e-05
3.59407e-05
2.10753e-05
-3.80259e-07
6.51056e-06
2.96015e-05
6.88039e-06
6.77411e-05
-5.88369e-05
3.38353e-05
2.99684e-05
2.7571e-05
4.51478e-05
-4.21579e-07
4.10153e-05
1.44873e-06
3.71438e-05
1.44074e-05
2.36956e-05
9.54092e-06
1.46924e-05
1.2501e-05
1.06828e-05
1.55858e-05
4.19111e-05
6.40037e-06
3.68499e-05
5.39477e-05
3.30146e-05
2.3224e-05
-2.51696e-06
4.1448e-05
-7.61394e-08
3.87962e-05
3.36916e-06
2.37347e-05
1.48257e-05
3.37182e-05
2.03687e-05
4.56034e-06
1.13417e-05
3.54089e-05
9.00115e-06
7.9402e-05
-4.5125e-05
2.60377e-05
2.9836e-05
2.31671e-05
4.21364e-05
-3.84894e-06
3.72516e-05
-1.79249e-06
3.4129e-05
1.22059e-05
2.09426e-05
7.09727e-06
1.56581e-05
1.63488e-05
1.50911e-05
1.71012e-05
6.10203e-05
5.51062e-06
6.86028e-05
-3.07435e-05
5.90446e-05
2.71321e-05
1.96371e-05
-7.19492e-06
3.76433e-05
-5.41169e-06
3.53412e-05
-1.1615e-06
2.07956e-05
1.19322e-05
3.18959e-05
1.97657e-05
6.96879e-06
1.32916e-05
3.16416e-05
1.41711e-05
5.66851e-05
1.62694e-06
4.47776e-05
2.20259e-05
2.03451e-05
1.8636e-05
3.71792e-05
-8.48161e-06
3.36523e-05
-6.28065e-06
3.10247e-05
9.00852e-06
1.85828e-05
5.09831e-06
1.43001e-05
1.51396e-05
1.17792e-05
9.56555e-06
5.24545e-05
-4.52362e-06
7.74192e-05
-4.92331e-05
4.10585e-05
2.30405e-05
1.50927e-05
-9.25863e-06
3.36338e-05
-7.11717e-06
3.18269e-05
-2.63072e-06
1.84158e-05
1.04294e-05
2.94102e-05
1.72914e-05
3.46332e-06
7.80787e-06
2.16376e-05
1.59644e-06
6.75973e-05
-6.09851e-06
6.22598e-05
-2.33766e-05
1.60152e-05
2.05796e-05
1.5259e-05
3.39328e-05
-9.67871e-06
2.98983e-05
-7.47316e-06
2.78881e-05
7.59258e-06
1.6387e-05
3.16982e-06
1.11792e-05
1.16078e-05
6.61825e-06
3.50441e-06
4.00987e-05
-4.80063e-06
5.06755e-05
2.81015e-06
3.42806e-05
4.49269e-05
1.83162e-05
1.25517e-05
-1.16786e-05
2.99766e-05
-1.01965e-05
2.84421e-05
-5.429e-06
1.58602e-05
7.98411e-06
2.60683e-05
1.45079e-05
7.51918e-07
4.69227e-06
1.65407e-05
-4.6288e-06
5.92129e-05
-7.73954e-06
6.00017e-05
2.03644e-05
1.32415e-05
1.29781e-05
1.19247e-05
2.93745e-05
-1.22113e-05
2.66322e-05
-1.00406e-05
2.48877e-05
5.0819e-06
1.39659e-05
1.16398e-06
8.44517e-06
9.18994e-06
4.18556e-06
6.7183e-07
3.34677e-05
-9.78517e-06
6.10178e-05
2.16674e-05
4.27402e-05
1.78385e-05
2.97104e-05
1.52433e-05
9.18241e-06
-1.21194e-05
2.64751e-05
-1.0349e-05
2.52798e-05
-5.76974e-06
1.36982e-05
6.60591e-06
2.28191e-05
1.18392e-05
-8.1338e-07
2.9829e-06
1.40931e-05
-6.52112e-06
5.35916e-05
-2.11858e-06
5.04214e-05
6.02411e-06
3.04129e-05
8.90504e-06
1.34769e-05
9.49524e-06
2.65298e-05
-1.19065e-05
2.3499e-05
-9.86649e-06
2.20233e-05
4.15018e-06
1.17104e-05
-5.14547e-07
6.21943e-06
7.20849e-06
2.73165e-06
-1.49938e-06
3.11918e-05
-9.14278e-06
5.79944e-05
4.96424e-06
2.50867e-05
8.69316e-06
3.26315e-05
1.17163e-05
7.63728e-06
-1.29218e-05
2.34877e-05
-1.17305e-05
2.24051e-05
-7.31082e-06
1.14838e-05
4.57542e-06
1.94415e-05
9.36564e-06
-1.81652e-06
1.69998e-06
1.28761e-05
-5.18423e-06
4.51026e-05
-3.87194e-06
1.37435e-05
5.929e-06
-7.1328e-06
7.17343e-06
7.76449e-06
7.26129e-06
2.28131e-05
-1.28845e-05
2.0892e-05
-1.10485e-05
1.9406e-05
2.30057e-06
9.53685e-06
-1.94131e-06
4.40002e-06
5.54012e-06
2.66729e-06
-1.23945e-06
2.62786e-05
-6.70046e-06
1.34864e-05
-4.43069e-06
2.86483e-06
9.9504e-06
2.69992e-06
2.05156e-05
9.64646e-06
5.38022e-06
-1.22791e-05
2.07309e-05
-1.08963e-05
1.98026e-05
-6.93615e-06
9.74305e-06
3.68082e-06
1.66393e-05
7.44005e-06
-1.61756e-06
1.69911e-06
1.23039e-05
-9.93595e-08
1.21264e-05
-7.82583e-06
2.32825e-05
-1.86245e-07
3.37451e-05
-2.28639e-06
4.26121e-06
8.4531e-06
5.69767e-06
2.05399e-05
-1.16808e-05
1.84352e-05
-1.00977e-05
1.70141e-05
1.87046e-06
7.82981e-06
-2.75964e-06
3.52354e-06
5.3942e-06
2.36145e-06
3.18101e-06
5.09198e-06
6.10664e-07
2.16959e-05
-1.97695e-06
4.21467e-05
3.40285e-06
3.14117e-05
2.27623e-05
7.20497e-06
4.62163e-06
-1.20741e-05
1.83851e-05
-1.12292e-05
1.74733e-05
-7.61573e-06
8.09342e-06
2.35519e-06
1.44202e-05
6.59375e-06
-1.64551e-06
3.99373e-06
4.25632e-06
6.76402e-06
1.6035e-05
-1.21296e-06
4.86677e-05
8.19455e-08
4.78347e-05
-1.59732e-05
3.27777e-06
4.4059e-06
4.27832e-06
1.76045e-05
-1.17909e-05
1.63682e-05
-1.04771e-05
1.4887e-05
6.76982e-07
6.50145e-06
-3.10663e-06
3.17431e-06
5.73032e-06
3.24433e-06
4.90721e-06
8.42553e-06
3.03929e-06
2.95062e-05
-5.29436e-06
5.13238e-05
1.46812e-06
3.84165e-05
-1.60361e-05
1.35822e-05
5.87879e-06
3.14443e-06
-1.10089e-05
1.61901e-05
-1.0062e-05
1.53615e-05
-6.89229e-06
6.90429e-06
2.00707e-06
1.2904e-05
6.0875e-06
-1.12903e-06
4.27431e-06
4.28583e-06
7.58268e-06
1.62125e-05
-1.45533e-06
4.32287e-05
-3.48962e-06
3.40592e-05
3.4607e-06
1.68236e-05
1.46113e-06
5.04717e-06
3.23598e-06
1.57292e-05
-1.03571e-05
1.43866e-05
-9.28882e-06
1.29733e-05
6.18864e-07
5.62899e-06
-2.99972e-06
2.7122e-06
5.07133e-06
2.03264e-06
3.10266e-06
5.6178e-06
1.15973e-08
2.53604e-05
-1.0077e-05
4.50063e-05
-1.03705e-06
2.4507e-05
-8.26385e-06
1.51897e-05
4.18653e-06
2.75514e-06
-1.04172e-05
1.42547e-05
-9.9293e-06
1.345e-05
-7.1173e-06
5.78588e-06
1.25507e-06
1.15064e-05
5.43192e-06
-1.75439e-06
2.81736e-06
2.02027e-06
4.71953e-06
1.38717e-05
-5.30674e-06
3.96482e-05
-7.65854e-06
3.20908e-05
4.03035e-07
2.42414e-05
8.54713e-07
2.18282e-06
2.23328e-06
1.33234e-05
-1.01341e-05
1.26433e-05
-9.32569e-06
1.12504e-05
-1.67111e-07
4.86213e-06
-2.98913e-06
2.32655e-06
4.68865e-06
2.15621e-06
3.33357e-06
6.11305e-06
2.4021e-07
2.49214e-05
-1.10421e-05
4.42252e-05
-3.00253e-06
3.95508e-05
-1.48122e-05
8.42827e-06
3.20165e-06
1.67315e-06
-9.39262e-06
1.23627e-05
-8.81729e-06
1.16242e-05
-6.34536e-06
4.91259e-06
1.03925e-06
1.0497e-05
5.29106e-06
-9.18996e-07
3.74384e-06
3.56024e-06
6.51796e-06
1.49865e-05
-3.56789e-06
3.88211e-05
-9.19828e-06
4.5827e-05
-8.14879e-07
3.16018e-05
-1.82772e-05
-4.68887e-07
2.49902e-06
1.35252e-06
1.16282e-05
-8.82883e-06
1.08743e-05
-8.12833e-06
9.58225e-06
-1.13312e-07
4.28548e-06
-2.78628e-06
2.14681e-06
4.74351e-06
1.93178e-06
2.82422e-06
4.7201e-06
-1.21706e-06
2.22822e-05
-1.24975e-05
4.3153e-05
-6.41325e-06
3.05658e-05
-1.26665e-06
1.31388e-05
9.23836e-06
1.83738e-06
1.30445e-06
-8.68552e-06
1.05782e-05
-8.39586e-06
9.84847e-06
-6.42135e-06
4.00799e-06
6.05075e-07
9.39026e-06
4.829e-06
-1.36926e-06
2.55248e-06
1.396e-06
3.55316e-06
1.22441e-05
-7.78496e-06
3.67224e-05
-1.46854e-05
4.29041e-05
-5.81372e-06
1.87618e-05
-1.50369e-05
-1.00104e-06
2.83542e-07
5.51866e-07
9.47264e-06
-8.33489e-06
9.21456e-06
-8.15291e-06
8.0939e-06
-8.35856e-07
3.65485e-06
-2.67099e-06
1.55637e-06
4.37992e-06
1.55506e-06
2.43774e-06
4.29063e-06
-2.43621e-06
2.17239e-05
-1.54819e-05
4.1201e-05
-1.15128e-05
2.50013e-05
-7.68219e-06
1.14293e-05
4.11284e-06
9.55472e-07
4.6426e-07
-7.66266e-06
8.67754e-06
-7.44914e-06
8.20499e-06
-6.07255e-06
3.54907e-06
4.22269e-07
7.879e-06
4.81568e-06
-9.66652e-07
3.1551e-06
2.19539e-06
4.35827e-06
1.24941e-05
-7.8236e-06
3.46948e-05
-1.60614e-05
3.47234e-05
-9.85687e-06
1.13166e-05
-1.65399e-05
-1.31377e-06
1.08307e-06
4.54427e-07
8.15177e-06
-7.1492e-06
7.64645e-06
-6.98926e-06
6.92959e-06
-4.7106e-07
3.00656e-06
-2.20607e-06
7.87389e-07
4.20683e-06
1.90027e-06
1.99342e-06
2.67873e-06
-4.80334e-06
1.79085e-05
-1.67461e-05
2.89855e-05
-1.45112e-05
6.08641e-06
-1.13607e-05
-1.03904e-06
3.5915e-06
-1.03851e-06
-8.40165e-07
-7.22093e-06
7.31235e-06
-6.71905e-06
6.99064e-06
-5.42818e-06
2.36691e-06
-2.15689e-07
5.91668e-06
2.81896e-06
1.16505e-06
9.94964e-07
1.52974e-06
3.87693e-07
9.41546e-06
-1.01691e-05
2.03679e-05
-1.8001e-05
3.77857e-06
-1.60912e-05
-4.3459e-07
-7.41893e-06
3.09823e-06
-9.25648e-07
7.90324e-07
1.10886e-06
6.6365e-06
-6.64654e-06
6.80993e-06
-6.7273e-06
5.05401e-06
-6.58659e-07
2.04191e-06
-3.39623e-06
2.61307e-06
2.68028e-07
4.96729e-06
-8.73678e-07
3.5043e-06
-6.2062e-06
5.78155e-06
-1.84633e-05
-1.43291e-06
-1.92219e-05
7.54385e-06
-1.02824e-05
1.40982e-05
-7.08844e-06
1.26086e-06
-1.01264e-06
-1.78194e-06
-6.77496e-06
7.29407e-06
-6.14341e-06
5.45744e-06
-3.79811e-06
8.94317e-07
-1.19149e-06
5.07962e-06
1.63567e-08
3.95337e-06
-4.51348e-07
2.68421e-06
9.3283e-07
1.92048e-06
-4.79258e-06
-1.86289e-06
-1.20349e-05
6.67456e-06
-1.36677e-05
2.32553e-05
-5.2183e-06
1.66165e-05
-1.05883e-06
8.77742e-07
8.86289e-07
6.35449e-06
-5.55409e-06
5.54674e-06
-5.06359e-06
2.45212e-06
-1.20146e-06
1.24466e-06
-3.67686e-06
2.48148e-06
2.7524e-07
2.66372e-06
8.74711e-07
1.56863e-06
1.89222e-06
9.91478e-07
-6.15486e-07
3.92161e-06
-1.08316e-05
2.23531e-05
-8.70633e-06
1.77208e-05
-5.36321e-06
2.0329e-06
-7.3992e-07
-5.78736e-07
-5.03363e-06
5.33103e-06
-4.53533e-06
3.24426e-06
-3.05563e-06
-3.57658e-09
-1.98787e-06
3.25822e-06
2.14607e-07
5.03458e-07
-2.91195e-07
1.38033e-07
6.45542e-07
4.21396e-07
1.43147e-06
1.07038e-06
-6.8491e-06
1.72265e-05
-1.26884e-05
2.44191e-05
-2.78609e-06
1.74296e-05
-1.35456e-06
-3.69711e-07
-3.5848e-07
4.35495e-06
-4.22405e-06
3.55129e-06
-3.81549e-06
8.42954e-07
-1.81013e-06
5.64022e-07
-2.46949e-06
-4.66841e-07
1.21818e-06
-1.78175e-06
8.62288e-07
-3.08133e-06
1.02171e-06
-1.31835e-06
-1.71039e-06
1.40565e-05
-1.10314e-05
2.863e-05
-5.98097e-06
1.64909e-05
-6.06815e-06
7.97842e-07
-5.22022e-07
-3.11228e-07
-3.89654e-06
3.50179e-06
-3.50822e-06
1.53134e-06
-2.31614e-06
-8.33817e-07
-1.94508e-06
9.49652e-07
1.11557e-06
-1.38224e-06
4.16479e-07
-1.53122e-06
-4.41785e-07
-1.96938e-06
-1.13115e-06
5.99106e-06
-1.0165e-05
2.31454e-05
-1.28877e-05
1.98432e-05
-3.44932e-06
1.6285e-05
-1.6335e-06
-6.42263e-07
-1.3556e-06
2.81301e-06
-3.4475e-06
2.02774e-06
-2.59664e-06
-2.53882e-07
-1.55076e-06
-2.80626e-07
-1.36887e-06
-9.00102e-07
1.81878e-06
-3.82128e-07
-2.09131e-07
-9.85629e-07
-9.22874e-07
-8.23773e-07
-8.41024e-06
1.13869e-05
-1.68296e-05
2.02104e-05
-6.5145e-06
1.16676e-05
-7.50899e-06
8.28162e-07
-9.50207e-07
-2.25939e-07
-3.38404e-06
2.02598e-06
-2.74851e-06
5.5553e-07
-1.2827e-06
-1.51817e-06
-1.75356e-06
-5.17697e-07
1.33543e-06
-8.06795e-07
1.44055e-06
-1.95088e-06
1.927e-07
-1.80316e-06
-9.60871e-07
5.68443e-06
-1.07015e-05
1.36758e-05
-1.38306e-05
7.76668e-06
-9.19622e-06
1.06911e-05
-1.9436e-06
-1.08304e-06
-2.09987e-06
1.32505e-06
-2.92427e-06
9.98691e-07
-1.35051e-06
-8.97476e-07
-8.58275e-07
-8.29501e-07
-3.23607e-07
-2.72953e-07
1.49658e-06
-9.00532e-07
5.65464e-07
-1.85566e-06
8.1769e-07
-1.65279e-06
-6.20423e-06
1.5771e-06
-1.72128e-05
2.12553e-06
-1.3185e-05
3.09044e-06
-7.77293e-06
1.05512e-05
-1.07199e-07
-1.67341e-06
-5.42389e-07
-2.76576e-06
4.41957e-07
-1.45983e-06
-2.45833e-07
-1.82342e-07
-2.97708e-06
-1.89138e-06
-2.10885e-06
1.36479e-06
1.48818e-06
9.41573e-07
3.0595e-07
7.74129e-07
-1.39858e-08
2.73856e-07
-6.34854e-07
-9.23667e-06
-1.93053e-06
-1.39451e-05
2.82613e-06
-5.8628e-06
4.13571e-06
-3.13763e-06
-2.87772e-06
-5.51096e-07
-2.73676e-06
4.12065e-07
-1.32354e-06
-1.64177e-07
7.58819e-08
-1.77232e-06
-5.52921e-07
-2.84058e-06
1.686e-06
2.31162e-06
2.7715e-06
3.19854e-06
1.7585e-06
2.18046e-06
7.99798e-07
6.83505e-07
-9.16753e-07
-1.93068e-07
-3.47404e-06
2.17119e-06
-8.22722e-06
2.05029e-06
-7.83772e-06
6.96684e-06
5.82296e-07
-2.69696e-06
-2.12176e-07
-1.14594e-06
-9.38796e-08
-2.57126e-08
-7.06174e-08
1.09946e-06
-5.92743e-07
1.4234e-06
1.96752e-06
4.27183e-06
7.05263e-06
3.70146e-06
5.42084e-06
3.59155e-06
3.17653e-06
3.48402e-06
1.50112e-06
3.67715e-06
1.46321e-06
-2.48031e-06
-2.84823e-06
-4.82152e-06
-5.24769e-07
-4.65533e-08
-3.16638e-06
-1.13985e-06
-1.05939e-06
-3.85504e-07
-1.3496e-07
2.77779e-07
1.32521e-06
5.0165e-07
6.89269e-07
1.15617e-06
3.25749e-06
7.27888e-06
2.79379e-06
8.8747e-06
1.06968e-06
9.67485e-06
6.84217e-07
8.36346e-06
8.65185e-07
8.03769e-06
5.38731e-06
-1.84251e-07
2.28331e-06
1.10835e-06
2.35933e-06
8.89138e-06
-6.43006e-07
-4.0767e-07
-1.45517e-07
-4.5969e-08
6.57364e-08
3.12331e-07
2.01146e-07
1.18047e-07
1.79236e-07
7.699e-07
1.89792e-06
1.42766e-06
3.40462e-06
1.0187e-06
5.65105e-06
8.8492e-07
7.86138e-06
9.92684e-07
1.02901e-05
8.64387e-06
7.28292e-06
1.61672e-05
4.81403e-06
1.19905e-05
5.04386e-06
1.75224e-05
)
;

boundaryField
{
    inlet
    {
        type            extrapolatedCalculated;
        value           nonuniform List<scalar> 
26
(
-6.43006e-07
-4.0767e-07
-1.45517e-07
-4.5969e-08
6.57364e-08
3.12331e-07
2.01146e-07
1.18047e-07
1.79236e-07
7.699e-07
1.89792e-06
1.42766e-06
3.40462e-06
1.0187e-06
5.65105e-06
8.8492e-07
7.86138e-06
9.92684e-07
1.02901e-05
8.64387e-06
7.28292e-06
1.61672e-05
4.81403e-06
1.19905e-05
5.04386e-06
1.75224e-05
)
;
    }
    outlet
    {
        type            extrapolatedCalculated;
        value           nonuniform List<scalar> 0();
    }
    walls
    {
        type            extrapolatedCalculated;
        value           nonuniform List<scalar> 0();
    }
    frontAndBack
    {
        type            empty;
    }
    procBoundary0to1
    {
        type            processor;
        value           nonuniform List<scalar> 
94
(
-0.000631805
-0.00106633
-0.00106633
-0.000924751
-0.000924751
-0.000704715
-0.000704715
-0.000556928
-0.000556928
-0.000282777
-0.000282777
-1.46916e-05
3.7211e-05
3.7211e-05
4.86556e-05
9.84336e-05
9.84336e-05
0.000101836
5.24606e-05
7.15045e-05
7.15045e-05
7.53809e-05
-4.47594e-06
-4.47594e-06
-3.6018e-06
4.97994e-05
1.22034e-05
1.22034e-05
1.23039e-05
-0.000122487
4.50643e-05
4.50643e-05
-6.77867e-05
7.26983e-05
7.26983e-05
5.19059e-05
-2.21767e-05
0.000116755
0.000116755
7.22895e-05
-2.44784e-05
0.000114314
0.000114314
5.96835e-05
-1.96952e-05
0.000105859
0.000105859
6.72397e-05
-2.02102e-05
9.28232e-05
9.28232e-05
5.17482e-05
6.36403e-05
6.14117e-05
6.14117e-05
3.7128e-05
2.87195e-05
1.86081e-05
2.30974e-05
2.30974e-05
1.04102e-05
2.88531e-05
4.04969e-06
5.39993e-05
5.39993e-05
3.05871e-05
5.92045e-06
2.19981e-05
6.39526e-07
4.22823e-05
4.22823e-05
2.29293e-05
-3.43518e-06
1.08979e-05
-9.38131e-06
4.4208e-06
-8.66792e-06
-8.66792e-06
-7.38625e-06
1.13193e-05
-2.16519e-06
1.67228e-05
3.51432e-07
1.5948e-05
1.04666e-07
1.35576e-05
-8.60287e-06
-8.60287e-06
-7.17489e-06
2.25226e-06
-6.95491e-06
-4.72174e-07
8.64405e-06
2.00608e-05
)
;
    }
    procBoundary0to4
    {
        type            processor;
        value           nonuniform List<scalar> 
72
(
-0.00021467
-0.000442902
-0.000216431
-0.00047227
-3.38248e-05
-0.000181976
5.17082e-05
-0.000126871
0.000115432
-1.09747e-06
0.000122749
2.02921e-05
0.000132269
6.64999e-05
0.000120141
7.57904e-05
0.000112191
7.92807e-05
9.43134e-05
8.12882e-05
8.97686e-05
7.85792e-05
8.92209e-05
8.92209e-05
9.29162e-05
3.71071e-05
8.07867e-05
3.89527e-05
7.78948e-05
2.16107e-05
6.85952e-05
2.61152e-05
6.49728e-05
1.13857e-05
5.56761e-05
1.61498e-05
5.1289e-05
4.39676e-06
4.2804e-05
8.98852e-06
3.84903e-05
1.30861e-07
3.13525e-05
4.22435e-06
2.75705e-05
-2.16497e-06
2.19851e-05
1.27715e-06
1.88624e-05
-3.12307e-06
1.46844e-05
-5.21887e-07
1.21368e-05
-3.56391e-06
8.89276e-06
-1.68805e-06
6.73683e-06
-3.95622e-06
4.75169e-06
-3.49017e-06
4.66149e-06
-2.99222e-06
2.83125e-06
-1.67808e-06
1.54849e-06
-1.69548e-06
6.31678e-07
-1.37554e-06
-1.71815e-07
-2.52435e-06
-2.0251e-08
-8.46134e-07
)
;
    }
    procBoundary0to5
    {
        type            processor;
        value           nonuniform List<scalar> 4(-0.000212673 -6.05787e-05 -0.0003927 -1.95118e-05);
    }
}


// ************************************************************************* //
