/*--------------------------------*- C++ -*----------------------------------*\
| =========                 |                                                 |
| \\      /  F ield         | OpenFOAM: The Open Source CFD Toolbox           |
|  \\    /   O peration     | Version:  2506                                  |
|   \\  /    A nd           | Website:  www.openfoam.com                      |
|    \\/     M anipulation  |                                                 |
\*---------------------------------------------------------------------------*/
FoamFile
{
    version     2.0;
    format      ascii;
    arch        "LSB;label=32;scalar=64";
    class       volScalarField;
    location    "50";
    object      magR;
}
// * * * * * * * * * * * * * * * * * * * * * * * * * * * * * * * * * * * * * //

dimensions      [0 2 -2 0 0 0 0];

internalField   nonuniform List<scalar> 
1340
(
0.000489224
0.000484657
0.000479659
0.000473496
0.00046361
0.000413309
0.000409214
0.000404851
0.000399874
0.000392044
0.000384026
0.000351518
0.00034788
0.000344048
0.000339988
0.000333756
0.000327334
0.000319776
0.00030067
0.000297481
0.000294114
0.000290773
0.000285763
0.000280569
0.000274531
0.000267657
0.000258466
0.000255667
0.000252729
0.00024994
0.000245895
0.000241653
0.000236793
0.000231345
0.000225455
0.000223148
0.0002207
0.000218143
0.000215793
0.000212496
0.000209007
0.000205068
0.000200724
0.000196097
0.000191262
0.000193383
0.000191247
0.000189021
0.000187037
0.000184325
0.000181431
0.000178221
0.000174733
0.000171078
0.000167266
0.000168139
0.00016628
0.000164354
0.000162667
0.000160407
0.000157993
0.000155368
0.000152557
0.000149651
0.000146665
0.000143612
0.000146617
0.000144992
0.00014333
0.000141891
0.000139986
0.000137969
0.000135808
0.000133536
0.000131216
0.000128866
0.000126457
0.000128178
0.000126752
0.000125318
0.000124084
0.000122469
0.000120776
0.00011899
0.000117144
0.000115289
0.000113428
0.000111551
0.000109657
0.000112312
0.000111057
0.000109816
0.000108757
0.000107382
0.000105951
0.00010447
0.000102964
0.000101472
9.99972e-05
9.85277e-05
9.70422e-05
9.86048e-05
9.74975e-05
9.64208e-05
9.55128e-05
9.43365e-05
9.31208e-05
9.18868e-05
9.06526e-05
8.94506e-05
8.82793e-05
8.71305e-05
8.59533e-05
8.67207e-05
8.57433e-05
8.48056e-05
8.40258e-05
8.30162e-05
8.19798e-05
8.09479e-05
7.99333e-05
7.89603e-05
7.80271e-05
7.71232e-05
7.62133e-05
7.52804e-05
7.63865e-05
7.55207e-05
7.47034e-05
7.40339e-05
7.31633e-05
7.22763e-05
7.14111e-05
7.05716e-05
6.97824e-05
6.90379e-05
6.83252e-05
6.7621e-05
6.68783e-05
6.7376e-05
6.66041e-05
6.58945e-05
6.53181e-05
6.45653e-05
6.3804e-05
6.30755e-05
6.23781e-05
6.17332e-05
6.11368e-05
6.05745e-05
6.00254e-05
5.94573e-05
5.88742e-05
5.9501e-05
5.881e-05
5.81938e-05
5.76967e-05
5.70433e-05
5.63885e-05
5.57711e-05
5.51899e-05
5.46622e-05
5.41817e-05
5.37373e-05
5.33093e-05
5.28688e-05
5.24055e-05
5.26035e-05
5.1985e-05
5.1448e-05
5.10176e-05
5.0449e-05
4.98835e-05
4.93585e-05
4.88715e-05
4.84364e-05
4.80483e-05
4.76961e-05
4.73617e-05
4.70197e-05
4.6649e-05
4.65517e-05
4.59977e-05
4.55286e-05
4.51538e-05
4.46569e-05
4.41665e-05
4.37172e-05
4.33073e-05
4.29474e-05
4.26324e-05
4.23522e-05
4.20891e-05
4.18229e-05
4.15367e-05
4.12403e-05
4.12352e-05
4.0735e-05
4.03249e-05
3.9997e-05
3.95611e-05
3.91334e-05
3.87476e-05
3.83998e-05
3.81004e-05
3.78436e-05
3.76191e-05
3.74114e-05
3.72041e-05
3.69801e-05
3.67427e-05
3.65517e-05
3.6102e-05
3.57431e-05
3.54548e-05
3.50702e-05
3.46956e-05
3.43628e-05
3.40659e-05
3.38149e-05
3.36039e-05
3.34235e-05
3.32607e-05
3.30942e-05
3.29206e-05
3.27249e-05
3.24219e-05
3.20178e-05
3.17023e-05
3.14477e-05
3.11069e-05
3.07779e-05
3.0489e-05
3.0234e-05
3.00222e-05
2.98478e-05
2.97016e-05
2.95707e-05
2.94392e-05
2.93028e-05
2.91491e-05
2.89836e-05
2.87772e-05
2.84131e-05
2.81338e-05
2.79077e-05
2.76057e-05
2.73154e-05
2.70632e-05
2.6843e-05
2.66626e-05
2.65171e-05
2.63978e-05
2.62926e-05
2.61883e-05
2.60755e-05
2.59631e-05
2.58156e-05
2.52264e-05
2.49777e-05
2.4777e-05
2.45089e-05
2.42521e-05
2.4031e-05
2.38396e-05
2.36848e-05
2.35624e-05
2.34636e-05
2.33778e-05
2.32933e-05
2.32042e-05
2.31098e-05
2.29961e-05
2.28652e-05
2.24054e-05
2.21843e-05
2.20056e-05
2.17674e-05
2.15401e-05
2.13453e-05
2.11777e-05
2.10439e-05
2.09397e-05
2.0857e-05
2.07865e-05
2.07167e-05
2.06443e-05
2.05666e-05
2.04768e-05
2.03625e-05
1.99072e-05
1.9709e-05
1.95502e-05
1.93386e-05
1.91371e-05
1.89649e-05
1.88177e-05
1.87008e-05
1.8611e-05
1.85408e-05
1.84803e-05
1.8422e-05
1.83636e-05
1.82974e-05
1.82211e-05
1.81256e-05
1.76921e-05
1.75142e-05
1.73731e-05
1.71852e-05
1.70063e-05
1.68538e-05
1.67237e-05
1.66207e-05
1.65426e-05
1.64817e-05
1.64294e-05
1.63803e-05
1.63286e-05
1.62713e-05
1.62063e-05
1.61305e-05
1.60527e-05
1.5727e-05
1.55673e-05
1.54415e-05
1.52744e-05
1.51158e-05
1.49804e-05
1.48647e-05
1.47736e-05
1.47049e-05
1.46511e-05
1.46049e-05
1.45611e-05
1.45167e-05
1.44667e-05
1.44086e-05
1.43475e-05
1.428e-05
1.39827e-05
1.38394e-05
1.37266e-05
1.35781e-05
1.34373e-05
1.33167e-05
1.32136e-05
1.31322e-05
1.30712e-05
1.30233e-05
1.29817e-05
1.29426e-05
1.29021e-05
1.28568e-05
1.28041e-05
1.27526e-05
1.26973e-05
1.24341e-05
1.23056e-05
1.22034e-05
1.20716e-05
1.19464e-05
1.18388e-05
1.17463e-05
1.16733e-05
1.16186e-05
1.15752e-05
1.15367e-05
1.15011e-05
1.14633e-05
1.1421e-05
1.13735e-05
1.13269e-05
1.1283e-05
1.12411e-05
1.10587e-05
1.09437e-05
1.08507e-05
1.07332e-05
1.06216e-05
1.05251e-05
1.04418e-05
1.0376e-05
1.03263e-05
1.02865e-05
1.02511e-05
1.02174e-05
1.01816e-05
1.01416e-05
1.00981e-05
1.00554e-05
1.00208e-05
9.98335e-06
9.8371e-06
9.73424e-06
9.64926e-06
9.54386e-06
9.44405e-06
9.3571e-06
9.28179e-06
9.22189e-06
9.17657e-06
9.13988e-06
9.10621e-06
9.07409e-06
9.04041e-06
9.00202e-06
8.96144e-06
8.92178e-06
8.8898e-06
8.86061e-06
8.75158e-06
8.65972e-06
8.58199e-06
8.48693e-06
8.39726e-06
8.31868e-06
8.25013e-06
8.19516e-06
8.15324e-06
8.11887e-06
8.08702e-06
8.0563e-06
8.02351e-06
7.98669e-06
7.94788e-06
7.90975e-06
7.87964e-06
7.8568e-06
7.8343e-06
7.78669e-06
7.70466e-06
7.6334e-06
7.54757e-06
7.46672e-06
7.39544e-06
7.33272e-06
7.282e-06
7.243e-06
7.21023e-06
7.17918e-06
7.14928e-06
7.118e-06
7.08248e-06
7.04522e-06
7.00951e-06
6.9807e-06
6.96213e-06
6.94353e-06
6.92824e-06
6.85492e-06
6.78985e-06
6.71246e-06
6.63952e-06
6.5748e-06
6.51736e-06
6.47017e-06
6.43317e-06
6.4016e-06
6.37137e-06
6.34223e-06
6.31129e-06
6.27721e-06
6.24137e-06
6.20752e-06
6.17986e-06
6.16256e-06
6.14994e-06
6.16385e-06
6.09815e-06
6.03906e-06
5.9696e-06
5.90393e-06
5.84526e-06
5.79262e-06
5.74861e-06
5.71354e-06
5.68263e-06
5.65225e-06
5.62323e-06
5.59332e-06
5.55992e-06
5.5255e-06
5.49276e-06
5.46496e-06
5.44786e-06
5.43862e-06
5.43016e-06
5.48234e-06
5.42336e-06
5.37021e-06
5.30818e-06
5.24937e-06
5.1965e-06
5.14857e-06
5.10755e-06
5.07387e-06
5.04333e-06
5.01306e-06
4.98397e-06
4.95388e-06
4.92127e-06
4.88773e-06
4.85582e-06
4.83005e-06
4.81318e-06
4.8064e-06
4.79828e-06
4.87442e-06
4.82129e-06
4.77371e-06
4.71885e-06
4.66656e-06
4.6193e-06
4.57583e-06
4.53782e-06
4.50564e-06
4.47545e-06
4.44462e-06
4.41503e-06
4.38519e-06
4.35263e-06
4.32031e-06
4.29e-06
4.26443e-06
4.24883e-06
4.24139e-06
4.23642e-06
4.33196e-06
4.28389e-06
4.2416e-06
4.19347e-06
4.14723e-06
4.1053e-06
4.06624e-06
4.03114e-06
4.00047e-06
3.97075e-06
3.93985e-06
3.90981e-06
3.87916e-06
3.84672e-06
3.81461e-06
3.78472e-06
3.76117e-06
3.74474e-06
3.73732e-06
3.73816e-06
3.73929e-06
3.84825e-06
3.80463e-06
3.7672e-06
3.7251e-06
3.68444e-06
3.6474e-06
3.61239e-06
3.58012e-06
3.55116e-06
3.52217e-06
3.49114e-06
3.46062e-06
3.42983e-06
3.39684e-06
3.3651e-06
3.33619e-06
3.31214e-06
3.29693e-06
3.2918e-06
3.2939e-06
3.29568e-06
3.41732e-06
3.37785e-06
3.34477e-06
3.30797e-06
3.2723e-06
3.23956e-06
3.20817e-06
3.17838e-06
3.15097e-06
3.123e-06
3.09259e-06
3.06217e-06
3.0307e-06
2.99762e-06
2.96564e-06
2.93678e-06
2.91445e-06
2.89964e-06
2.89465e-06
2.8971e-06
2.90021e-06
3.03409e-06
2.9986e-06
2.96931e-06
2.93712e-06
2.90571e-06
2.87676e-06
2.84832e-06
2.82061e-06
2.79463e-06
2.76783e-06
2.73821e-06
2.70819e-06
2.67717e-06
2.64373e-06
2.61168e-06
2.58318e-06
2.5596e-06
2.54618e-06
2.54239e-06
2.54349e-06
2.54701e-06
2.69376e-06
2.66205e-06
2.63622e-06
2.60788e-06
2.58022e-06
2.55454e-06
2.52852e-06
2.50233e-06
2.47741e-06
2.45175e-06
2.42354e-06
2.39465e-06
2.36392e-06
2.33089e-06
2.29891e-06
2.26964e-06
2.24768e-06
2.23479e-06
2.22866e-06
2.22851e-06
2.23331e-06
2.24071e-06
2.39182e-06
2.36374e-06
2.34101e-06
2.31591e-06
2.29157e-06
2.26877e-06
2.24472e-06
2.21965e-06
2.1956e-06
2.17099e-06
2.14411e-06
2.1165e-06
2.08725e-06
2.05493e-06
2.02287e-06
1.99471e-06
1.97243e-06
1.95735e-06
1.94954e-06
1.94863e-06
1.95411e-06
1.9642e-06
2.12389e-06
2.09934e-06
2.07939e-06
2.05703e-06
2.03568e-06
2.01551e-06
1.99322e-06
1.96902e-06
1.94555e-06
1.92189e-06
1.89656e-06
1.87072e-06
1.84281e-06
1.81147e-06
1.78075e-06
1.75266e-06
1.72863e-06
1.71201e-06
1.70302e-06
1.70176e-06
1.70763e-06
1.71817e-06
1.88585e-06
1.86462e-06
1.84715e-06
1.82725e-06
1.80859e-06
1.79095e-06
1.77027e-06
1.74698e-06
1.72421e-06
1.70146e-06
1.6774e-06
1.65316e-06
1.62712e-06
1.59762e-06
1.56772e-06
1.53912e-06
1.51448e-06
1.49661e-06
1.48617e-06
1.48433e-06
1.48986e-06
1.50027e-06
1.67387e-06
1.65569e-06
1.64064e-06
1.62291e-06
1.60676e-06
1.5915e-06
1.57247e-06
1.55024e-06
1.52828e-06
1.50644e-06
1.48368e-06
1.46099e-06
1.43649e-06
1.40858e-06
1.37984e-06
1.35207e-06
1.32675e-06
1.30738e-06
1.29642e-06
1.29264e-06
1.29607e-06
1.30528e-06
1.31405e-06
1.48463e-06
1.46932e-06
1.45663e-06
1.4409e-06
1.42709e-06
1.41407e-06
1.39665e-06
1.37572e-06
1.35493e-06
1.334e-06
1.31212e-06
1.29047e-06
1.26751e-06
1.24137e-06
1.21423e-06
1.18701e-06
1.16185e-06
1.14203e-06
1.12881e-06
1.12345e-06
1.12535e-06
1.13247e-06
1.13984e-06
1.31541e-06
1.30277e-06
1.29239e-06
1.27858e-06
1.26699e-06
1.25601e-06
1.24019e-06
1.22083e-06
1.20133e-06
1.18121e-06
1.15998e-06
1.13908e-06
1.11707e-06
1.09236e-06
1.06674e-06
1.04117e-06
1.01667e-06
9.96309e-07
9.82862e-07
9.75397e-07
9.7454e-07
9.79833e-07
9.86568e-07
1.16383e-06
1.15364e-06
1.1455e-06
1.13365e-06
1.12422e-06
1.11512e-06
1.10083e-06
1.08333e-06
1.0653e-06
1.04567e-06
1.02442e-06
1.00365e-06
9.82473e-07
9.59213e-07
9.35409e-07
9.11201e-07
8.87934e-07
8.68373e-07
8.5373e-07
8.45274e-07
8.43444e-07
8.46159e-07
8.50685e-07
1.02781e-06
1.01984e-06
1.01398e-06
1.0041e-06
9.96874e-07
9.89421e-07
9.76657e-07
9.61279e-07
9.44636e-07
9.24983e-07
9.03246e-07
8.82272e-07
8.61439e-07
8.3935e-07
8.17205e-07
7.9522e-07
7.73728e-07
7.55029e-07
7.4132e-07
7.32189e-07
7.28147e-07
7.29201e-07
7.33227e-07
9.05945e-07
9.00017e-07
8.96314e-07
8.88345e-07
8.83312e-07
8.77231e-07
8.65928e-07
8.52882e-07
8.37454e-07
8.17178e-07
7.94335e-07
7.72773e-07
7.52372e-07
7.3156e-07
7.11312e-07
6.91206e-07
6.71732e-07
6.54844e-07
6.41375e-07
6.32435e-07
6.2769e-07
6.27914e-07
6.30483e-07
6.28014e-07
7.97229e-07
7.93059e-07
7.91217e-07
7.85003e-07
7.82139e-07
7.771e-07
7.67246e-07
7.56568e-07
7.41777e-07
7.20192e-07
6.96159e-07
6.74262e-07
6.54313e-07
6.34789e-07
6.16341e-07
5.98585e-07
5.81252e-07
5.65889e-07
5.53943e-07
5.45144e-07
5.39938e-07
5.39566e-07
5.40672e-07
5.36885e-07
7.0053e-07
6.97747e-07
6.97377e-07
6.92782e-07
6.92037e-07
6.87762e-07
6.79444e-07
6.71033e-07
6.56095e-07
6.32537e-07
6.07411e-07
5.85583e-07
5.66585e-07
5.4864e-07
5.32208e-07
5.16368e-07
5.0104e-07
4.87606e-07
4.7647e-07
4.68527e-07
4.63404e-07
4.62055e-07
4.62212e-07
4.57729e-07
6.14426e-07
6.12707e-07
6.13512e-07
6.10411e-07
6.11726e-07
6.07978e-07
6.01557e-07
5.95224e-07
5.79401e-07
5.53417e-07
5.27705e-07
5.06582e-07
4.88501e-07
4.71793e-07
4.56928e-07
4.43163e-07
4.29793e-07
4.17821e-07
4.08239e-07
4.00709e-07
3.95535e-07
3.9397e-07
3.92858e-07
3.86864e-07
5.37922e-07
5.37136e-07
5.3879e-07
5.36997e-07
5.40178e-07
5.36793e-07
5.3265e-07
5.2813e-07
5.11495e-07
4.83409e-07
4.57581e-07
4.37118e-07
4.19522e-07
4.03336e-07
3.89471e-07
3.77041e-07
3.65331e-07
3.55119e-07
3.46389e-07
3.39723e-07
3.34828e-07
3.32528e-07
3.3051e-07
3.24517e-07
4.70745e-07
4.70755e-07
4.72882e-07
4.72195e-07
4.76946e-07
4.73832e-07
4.7212e-07
4.6888e-07
4.5232e-07
4.23125e-07
3.97817e-07
3.77647e-07
3.5938e-07
3.42544e-07
3.28643e-07
3.17163e-07
3.06867e-07
2.97872e-07
2.90512e-07
2.84309e-07
2.79458e-07
2.77196e-07
2.74567e-07
2.68344e-07
4.12352e-07
4.13061e-07
4.15409e-07
4.15786e-07
4.2171e-07
4.18885e-07
4.19148e-07
4.1674e-07
4.02443e-07
3.72688e-07
3.47937e-07
3.27416e-07
3.07565e-07
2.89362e-07
2.74955e-07
2.63707e-07
2.54258e-07
2.46579e-07
2.39793e-07
2.3397e-07
2.29487e-07
2.26664e-07
2.24119e-07
2.17585e-07
2.05849e-07
3.61633e-07
3.63148e-07
3.65633e-07
3.67173e-07
3.73701e-07
3.71037e-07
3.71803e-07
3.70134e-07
3.62638e-07
3.31364e-07
3.06014e-07
2.85015e-07
2.63282e-07
2.43512e-07
2.28629e-07
2.18012e-07
2.1015e-07
2.04037e-07
1.98534e-07
1.93137e-07
1.88451e-07
1.85741e-07
1.84126e-07
1.78489e-07
1.68468e-07
3.19409e-07
3.21712e-07
3.24019e-07
3.26376e-07
3.32185e-07
3.29228e-07
3.27402e-07
3.3075e-07
3.31288e-07
2.95885e-07
2.69426e-07
2.48337e-07
2.25398e-07
2.04728e-07
1.89824e-07
1.80094e-07
1.73905e-07
1.6987e-07
1.65614e-07
1.60224e-07
1.5542e-07
1.53552e-07
1.53641e-07
1.50253e-07
1.41985e-07
2.87292e-07
2.90238e-07
2.92163e-07
2.94382e-07
2.98152e-07
2.93486e-07
2.87687e-07
2.94031e-07
2.99754e-07
2.63124e-07
2.37853e-07
2.18285e-07
1.96232e-07
1.75904e-07
1.61123e-07
1.51592e-07
1.46108e-07
1.43162e-07
1.39551e-07
1.33729e-07
1.27777e-07
1.25225e-07
1.26269e-07
1.24981e-07
1.18747e-07
2.60036e-07
2.6344e-07
2.64938e-07
2.66977e-07
2.68602e-07
2.6241e-07
2.54233e-07
2.59904e-07
2.67073e-07
2.32391e-07
2.09476e-07
1.91658e-07
1.71427e-07
1.52131e-07
1.37622e-07
1.27906e-07
1.22292e-07
1.19919e-07
1.17387e-07
1.11735e-07
1.03883e-07
9.89473e-08
9.92734e-08
9.94992e-08
9.56819e-08
2.33097e-07
2.36812e-07
2.37911e-07
2.40032e-07
2.39579e-07
2.32981e-07
2.238e-07
2.28559e-07
2.37754e-07
2.06551e-07
1.85682e-07
1.6904e-07
1.50515e-07
1.32329e-07
1.18098e-07
1.08177e-07
1.01921e-07
9.93482e-08
9.76447e-08
9.28002e-08
8.43899e-08
7.65153e-08
7.424e-08
7.52528e-08
7.4397e-08
2.072e-07
2.11087e-07
2.11937e-07
2.14274e-07
2.11839e-07
2.05917e-07
1.96116e-07
1.99957e-07
2.11638e-07
1.84398e-07
1.65817e-07
1.50876e-07
1.34652e-07
1.1775e-07
1.03598e-07
9.33406e-08
8.6302e-08
8.25162e-08
8.04202e-08
7.68124e-08
6.94224e-08
6.04608e-08
5.52652e-08
5.50119e-08
5.63482e-08
1.8209e-07
1.85829e-07
1.86525e-07
1.89166e-07
1.85111e-07
1.81272e-07
1.70855e-07
1.748e-07
1.89336e-07
1.66328e-07
1.50051e-07
1.37387e-07
1.24509e-07
1.09738e-07
9.5384e-08
8.36035e-08
7.46629e-08
6.8885e-08
6.54649e-08
6.17296e-08
5.57465e-08
4.78778e-08
4.1104e-08
3.86804e-08
4.0621e-08
1.5809e-07
1.61236e-07
1.61705e-07
1.64509e-07
1.59416e-07
1.59218e-07
1.47747e-07
1.53733e-07
1.71402e-07
1.53016e-07
1.38589e-07
1.27048e-07
1.16809e-07
1.05439e-07
9.31656e-08
8.07133e-08
6.87327e-08
5.89931e-08
5.23033e-08
4.72205e-08
4.1694e-08
3.52376e-08
2.95563e-08
2.63046e-08
2.70204e-08
1.35737e-07
1.37743e-07
1.37676e-07
1.40015e-07
1.3439e-07
1.38658e-07
1.24905e-07
1.3641e-07
1.57749e-07
1.44129e-07
1.3243e-07
1.21023e-07
1.09524e-07
9.74354e-08
8.66873e-08
7.73211e-08
6.73821e-08
5.621e-08
4.54925e-08
3.68912e-08
3.01244e-08
2.49508e-08
2.25793e-08
2.37147e-08
2.77139e-08
3.19187e-08
1.14752e-07
1.15281e-07
1.14463e-07
1.1563e-07
1.10069e-07
1.18001e-07
1.00258e-07
1.23082e-07
1.48327e-07
1.36375e-07
1.29065e-07
1.20484e-07
1.08432e-07
9.33401e-08
7.96121e-08
7.04592e-08
6.50843e-08
6.12054e-08
5.7007e-08
5.2653e-08
4.96432e-08
4.88981e-08
5.07717e-08
5.4766e-08
5.94838e-08
6.29794e-08
9.47879e-08
9.35253e-08
9.16692e-08
9.15582e-08
8.76985e-08
9.80573e-08
7.79228e-08
1.1978e-07
1.45265e-07
1.29163e-07
1.23559e-07
1.17738e-07
1.12128e-07
1.02567e-07
8.6594e-08
7.16113e-08
6.80334e-08
7.62186e-08
8.91445e-08
1.02405e-07
1.14698e-07
1.25718e-07
1.35522e-07
1.45279e-07
1.56718e-07
1.69339e-07
7.68174e-08
7.25325e-08
6.838e-08
6.72417e-08
6.77945e-08
8.10323e-08
6.93042e-08
1.32568e-07
1.5081e-07
1.41871e-07
1.54843e-07
1.55592e-07
1.45734e-07
1.31011e-07
1.18159e-07
1.12682e-07
1.12796e-07
1.13294e-07
1.12466e-07
1.11914e-07
1.12728e-07
1.15656e-07
1.22015e-07
1.32349e-07
1.44646e-07
1.55495e-07
6.38132e-08
5.49979e-08
4.59428e-08
4.2534e-08
4.87301e-08
6.5404e-08
7.29208e-08
1.43907e-07
1.4358e-07
1.47348e-07
1.78378e-07
2.15471e-07
2.61361e-07
3.07287e-07
3.45199e-07
3.73175e-07
3.92347e-07
4.06651e-07
4.20181e-07
4.35126e-07
4.52209e-07
4.70883e-07
4.90318e-07
5.08542e-07
5.2216e-07
5.31533e-07
5.79512e-08
4.56337e-08
3.01442e-08
2.00965e-08
3.21389e-08
5.47962e-08
8.02488e-08
1.164e-07
1.65879e-07
3.50193e-07
5.09267e-07
6.39488e-07
7.33354e-07
7.93741e-07
8.28081e-07
8.46889e-07
8.59369e-07
8.71814e-07
8.86274e-07
9.02433e-07
9.19095e-07
9.35658e-07
9.52237e-07
9.71592e-07
9.91502e-07
1.00773e-06
)
;

boundaryField
{
    inlet
    {
        type            calculated;
        value           nonuniform List<scalar> 
26
(
5.91176e-08
4.63477e-08
2.95158e-08
1.66789e-08
3.13929e-08
5.9984e-08
9.50314e-08
8.55991e-08
3.7641e-07
7.43704e-07
1.12682e-06
1.48341e-06
1.78849e-06
2.03679e-06
2.22955e-06
2.37703e-06
2.49103e-06
2.58275e-06
2.66141e-06
2.73377e-06
2.80437e-06
2.8776e-06
2.95809e-06
3.04913e-06
3.14376e-06
3.23117e-06
)
;
    }
    outlet
    {
        type            calculated;
        value           nonuniform List<scalar> 0();
    }
    walls
    {
        type            calculated;
        value           nonuniform List<scalar> 0();
    }
    frontAndBack
    {
        type            empty;
    }
    procBoundary0to1
    {
        type            processor;
        value           nonuniform List<scalar> 
94
(
0.00055261
0.000453556
0.000453556
0.000374583
0.000374583
0.000311113
0.000311113
0.000260212
0.000260212
0.000219334
0.000219334
0.000186274
0.000163402
0.000163402
0.000140478
0.00012405
0.00012405
0.000107691
9.55269e-05
8.47863e-05
8.47863e-05
7.43146e-05
6.61508e-05
6.61508e-05
5.82469e-05
5.19302e-05
4.62858e-05
4.62858e-05
4.09083e-05
3.64996e-05
3.25382e-05
3.25382e-05
2.87851e-05
2.56719e-05
2.56719e-05
2.27121e-05
2.02548e-05
1.80409e-05
1.80409e-05
1.59635e-05
1.42248e-05
1.2653e-05
1.2653e-05
1.11881e-05
9.95514e-06
8.83794e-06
8.83794e-06
7.80353e-06
6.93334e-06
6.14157e-06
6.14157e-06
5.41504e-06
4.79477e-06
4.23807e-06
4.23807e-06
3.73632e-06
3.30237e-06
2.90805e-06
2.5552e-06
2.5552e-06
2.2457e-06
1.97594e-06
1.73012e-06
1.51118e-06
1.51118e-06
1.31394e-06
1.14294e-06
9.88994e-07
8.52411e-07
7.33274e-07
7.33274e-07
6.19237e-07
5.29148e-07
4.48371e-07
3.76647e-07
3.13695e-07
2.56682e-07
2.56682e-07
1.93521e-07
1.58048e-07
1.3233e-07
1.10067e-07
8.83627e-08
6.92846e-08
5.45015e-08
4.18598e-08
2.83935e-08
2.83935e-08
3.50647e-08
6.48581e-08
1.81652e-07
1.6416e-07
5.38911e-07
1.01954e-06
)
;
    }
    procBoundary0to4
    {
        type            processor;
        value           nonuniform List<scalar> 
72
(
0.000492031
0.000416089
0.000354173
0.000303138
0.000260719
0.000225184
0.000195223
0.000169806
0.000148126
0.000129539
0.000113539
9.97163e-05
8.77268e-05
7.7298e-05
6.82026e-05
6.02528e-05
5.32888e-05
4.71759e-05
4.17984e-05
3.70568e-05
3.2871e-05
2.91745e-05
2.55512e-05
2.55512e-05
2.2696e-05
2.01663e-05
1.7923e-05
1.59329e-05
1.41661e-05
1.25967e-05
1.1203e-05
9.96446e-06
8.86385e-06
7.88514e-06
7.01481e-06
6.23987e-06
5.54957e-06
4.93409e-06
4.38547e-06
3.8962e-06
3.46036e-06
3.07245e-06
2.72772e-06
2.42131e-06
2.14911e-06
1.90707e-06
1.69157e-06
1.4991e-06
1.32706e-06
1.17311e-06
1.03523e-06
9.11724e-07
8.01648e-07
7.03918e-07
6.17096e-07
5.39981e-07
4.7218e-07
4.13163e-07
3.61879e-07
3.19021e-07
2.85865e-07
2.57632e-07
2.30021e-07
2.0365e-07
1.7849e-07
1.54909e-07
1.33439e-07
1.13727e-07
9.55834e-08
8.0519e-08
7.1251e-08
6.7751e-08
)
;
    }
    procBoundary0to5
    {
        type            processor;
        value           nonuniform List<scalar> 4(0.000583496 0.00057854 0.000572811 0.000565132);
    }
}


// ************************************************************************* //
