/*--------------------------------*- C++ -*----------------------------------*\
| =========                 |                                                 |
| \\      /  F ield         | OpenFOAM: The Open Source CFD Toolbox           |
|  \\    /   O peration     | Version:  2506                                  |
|   \\  /    A nd           | Website:  www.openfoam.com                      |
|    \\/     M anipulation  |                                                 |
\*---------------------------------------------------------------------------*/
FoamFile
{
    version     2.0;
    format      ascii;
    arch        "LSB;label=32;scalar=64";
    class       volVectorField;
    location    "50";
    object      momentError;
}
// * * * * * * * * * * * * * * * * * * * * * * * * * * * * * * * * * * * * * //

dimensions      [0 1 -2 0 0 0 0];

internalField   nonuniform List<vector> 
1340
(
(-0.333022 -2.45562 -4.59427e-15)
(-0.0870685 -2.27667 -2.98089e-14)
(0.12312 -2.01927 1.99798e-14)
(0.322847 -1.687 4.27182e-14)
(0.475949 -1.45059 -7.96265e-15)
(-0.35512 -2.17833 -7.00185e-15)
(-0.121981 -2.02496 1.0668e-14)
(0.0778673 -1.80801 3.03365e-14)
(0.270189 -1.52678 -4.10648e-14)
(0.417056 -1.34282 -4.38394e-14)
(0.544275 -1.27765 -2.87367e-14)
(-0.362365 -1.93769 3.11167e-15)
(-0.143456 -1.80561 6.29484e-15)
(0.0456484 -1.62178 -1.66425e-14)
(0.228211 -1.38171 2.3834e-14)
(0.369593 -1.23855 4.31428e-14)
(0.49575 -1.19021 3.1228e-15)
(0.641899 -1.15175 -2.3477e-17)
(-0.358891 -1.72795 -3.08697e-15)
(-0.154658 -1.61421 -8.03255e-15)
(0.0236639 -1.4565 2.6847e-15)
(0.196637 -1.25068 -2.78624e-15)
(0.328996 -1.13915 -2.69436e-14)
(0.453636 -1.10286 1.80191e-14)
(0.591162 -1.06355 -3.27081e-14)
(0.728165 -0.993743 5.97321e-15)
(-0.349348 -1.54565 -2.89019e-15)
(-0.158737 -1.44618 5.86177e-15)
(0.00948585 -1.30958 8.09767e-15)
(0.172904 -1.13245 -1.76235e-14)
(0.295906 -1.04548 -7.00846e-14)
(0.417122 -1.01881 3.55989e-14)
(0.547569 -0.977803 -7.64012e-14)
(0.676384 -0.911469 1.4225e-14)
(0.802784 -0.832315 1.2828e-13)
(-0.335362 -1.3858 1.69268e-15)
(-0.157609 -1.29784 3.18384e-16)
(0.000603853 -1.17877 -1.72829e-14)
(0.155069 -1.02516 -4.86279e-15)
(0.268393 -0.956175 8.02999e-16)
(0.385619 -0.937642 1.64857e-14)
(0.50929 -0.8964 5.92666e-15)
(0.632976 -0.831575 -6.87487e-14)
(0.749787 -0.757618 6.8678e-14)
(0.853748 -0.669533 3.54863e-14)
(-0.318052 -1.24388 1.63515e-15)
(-0.15304 -1.1664 -3.77688e-15)
(-0.00444736 -1.06274 4.51078e-15)
(0.14015 -0.927854 2.29198e-14)
(0.244717 -0.872119 5.33504e-14)
(0.358431 -0.860446 -7.42167e-14)
(0.475946 -0.819515 5.75535e-14)
(0.593345 -0.757012 -3.53121e-14)
(0.704683 -0.685635 -6.63925e-14)
(0.800337 -0.603051 9.31808e-15)
(-0.299401 -1.11799 -3.16196e-15)
(-0.14633 -1.04963 -1.1515e-15)
(-0.00685458 -0.95863 -2.53381e-15)
(0.127027 -0.843518 1.58928e-14)
(0.225934 -0.79775 4.19295e-15)
(0.335268 -0.787761 2.98164e-14)
(0.446606 -0.747605 -1.87643e-14)
(0.557562 -0.687456 -3.82828e-14)
(0.6635 -0.619609 -3.10308e-14)
(0.752887 -0.542769 -5.95372e-14)
(0.826628 -0.458489 -1.54364e-14)
(-0.280586 -1.00546 3.5264e-16)
(-0.138275 -0.944927 -8.51376e-15)
(-0.00755963 -0.864883 4.51184e-15)
(0.11646 -0.768886 1.35228e-14)
(0.211416 -0.731314 -1.46748e-14)
(0.315078 -0.720093 -1.05915e-14)
(0.4205 -0.681061 -1.59686e-14)
(0.525243 -0.623247 -2.07279e-14)
(0.625166 -0.558924 2.3993e-14)
(0.709929 -0.487006 7.06105e-14)
(0.778827 -0.407455 -3.87692e-14)
(-0.26176 -0.905043 -8.46004e-16)
(-0.129225 -0.850963 3.16458e-16)
(-0.00702073 -0.781046 -2.35236e-15)
(0.108109 -0.70097 -1.76496e-14)
(0.198989 -0.669765 1.1713e-14)
(0.297182 -0.657516 -8.15075e-15)
(0.396717 -0.619742 -4.77735e-15)
(0.495749 -0.564495 6.89351e-14)
(0.58963 -0.503539 9.53676e-15)
(0.669981 -0.435718 5.81793e-14)
(0.735408 -0.36243 6.58223e-14)
(0.799584 -0.298313 -3.46306e-14)
(-0.242837 -0.814969 1.12231e-16)
(-0.119673 -0.767313 -8.51297e-15)
(-0.00534252 -0.706287 -8.50482e-15)
(0.101415 -0.639024 -1.23361e-14)
(0.188252 -0.613226 1.17072e-14)
(0.28105 -0.600235 5.39178e-14)
(0.375051 -0.563502 -2.6269e-15)
(0.468406 -0.510916 2.30152e-14)
(0.556855 -0.452991 1.34231e-15)
(0.632817 -0.389379 -6.52301e-14)
(0.694775 -0.321286 -3.24195e-14)
(0.756567 -0.260239 4.99768e-14)
(-0.224784 -0.73457 8.59714e-16)
(-0.109977 -0.693125 4.16368e-15)
(-0.00287726 -0.639531 1.2357e-14)
(0.0960096 -0.58286 4.2692e-15)
(0.178707 -0.561191 1.02882e-15)
(0.266525 -0.54782 -5.93375e-15)
(0.35522 -0.512373 7.76792e-14)
(0.443295 -0.46218 -3.78411e-16)
(0.526673 -0.407183 -8.53419e-14)
(0.598386 -0.347207 -1.97621e-14)
(0.657093 -0.283754 7.20099e-15)
(0.716439 -0.225561 9.19737e-15)
(-0.207738 -0.662737 4.60521e-16)
(-0.100178 -0.626717 7.82761e-15)
(-3.47498e-05 -0.57969 -4.85904e-15)
(0.0914743 -0.531787 3.26865e-14)
(0.170195 -0.513502 2.70061e-14)
(0.253127 -0.499817 -1.43198e-15)
(0.336916 -0.465716 2.12725e-14)
(0.419931 -0.417825 -2.98698e-14)
(0.498612 -0.365377 -2.64576e-14)
(0.566124 -0.308823 -7.694e-14)
(0.622324 -0.249083 4.57673e-14)
(0.678918 -0.195389 7.4803e-14)
(0.729851 -0.144537 -8.99547e-15)
(-0.191274 -0.598358 1.0635e-15)
(-0.0903685 -0.567115 1.66237e-15)
(0.00296298 -0.526127 -1.40753e-14)
(0.0876209 -0.485313 3.40172e-15)
(0.162307 -0.469758 -4.16596e-15)
(0.240765 -0.456061 -4.33084e-15)
(0.319837 -0.423279 -6.77863e-14)
(0.39822 -0.377546 4.00135e-14)
(0.472437 -0.32761 1.66079e-14)
(0.535978 -0.273805 1.39592e-14)
(0.589476 -0.217579 -4.98124e-14)
(0.643791 -0.166767 3.52308e-15)
(0.692956 -0.118305 -2.93171e-14)
(-0.174996 -0.54044 7.76134e-16)
(-0.0808933 -0.513575 -3.0802e-15)
(0.00582666 -0.477527 6.85135e-15)
(0.0841002 -0.442746 -1.35501e-14)
(0.155039 -0.429583 -3.70586e-14)
(0.229083 -0.415948 -7.82832e-16)
(0.303794 -0.384422 -3.46304e-15)
(0.37769 -0.340834 -7.93541e-15)
(0.447796 -0.293245 4.79857e-14)
(0.507882 -0.242196 -1.73628e-14)
(0.558413 -0.188936 -4.49668e-15)
(0.610445 -0.140315 -8.38028e-15)
(0.6586 -0.0947247 6.65682e-15)
(0.696568 -0.0487571 -1.86584e-14)
(-0.159402 -0.488329 -2.07454e-15)
(-0.0720934 -0.46542 -2.42184e-15)
(0.00831859 -0.433317 1.35559e-14)
(0.0807134 -0.403422 -1.42984e-14)
(0.147957 -0.392149 5.33262e-15)
(0.217937 -0.378768 -2.1044e-14)
(0.288489 -0.348724 8.75058e-16)
(0.35838 -0.307313 -1.96106e-14)
(0.424532 -0.262015 1.73417e-14)
(0.481306 -0.213438 -1.59163e-14)
(0.529036 -0.162889 -6.61803e-16)
(0.578933 -0.116343 4.3327e-15)
(0.625395 -0.0731198 2.76503e-14)
(0.662563 -0.0284971 1.17519e-14)
(-0.144372 -0.441311 2.62017e-16)
(-0.0639702 -0.421353 8.88105e-16)
(0.0103109 -0.392545 3.19264e-15)
(0.0773494 -0.366903 2.49985e-15)
(0.141126 -0.35724 3.31903e-14)
(0.207226 -0.34427 4.67565e-15)
(0.273893 -0.315696 -9.78425e-15)
(0.339872 -0.27644 5.11925e-15)
(0.402408 -0.233399 5.95959e-15)
(0.456037 -0.18734 4.53474e-14)
(0.501153 -0.139229 1.71179e-14)
(0.548816 -0.0946889 4.85666e-15)
(0.59335 -0.0534805 -4.30026e-14)
(0.630689 -0.0100246 1.36266e-14)
(-0.129994 -0.398546 -6.47975e-16)
(-0.056365 -0.381071 -4.12955e-15)
(0.0119002 -0.354902 -8.84408e-15)
(0.0741274 -0.332898 -3.38418e-15)
(0.134536 -0.324602 -1.36551e-14)
(0.196932 -0.312059 -7.01585e-16)
(0.2599 -0.2851 5.57258e-14)
(0.322233 -0.247958 1.33644e-14)
(0.381255 -0.207169 -4.06217e-14)
(0.431913 -0.163464 -6.85365e-15)
(0.474595 -0.117812 5.85929e-15)
(0.520057 -0.0753268 2.03435e-14)
(0.562473 -0.035571 -1.19436e-14)
(0.599321 0.00517721 -2.30879e-14)
(0.635993 0.046557 4.26048e-14)
(-0.116629 -0.359612 -1.88262e-15)
(-0.0495203 -0.344042 -1.08432e-15)
(0.0132638 -0.320261 -9.51893e-16)
(0.0710632 -0.301238 -1.46374e-15)
(0.128221 -0.294029 2.31357e-14)
(0.187014 -0.28201 -4.84617e-16)
(0.24646 -0.256531 -4.15491e-15)
(0.30525 -0.221568 1.10194e-14)
(0.361026 -0.182949 2.99614e-14)
(0.408786 -0.141601 -5.81292e-14)
(0.449209 -0.0983472 -3.04481e-14)
(0.492363 -0.0578368 -4.74842e-15)
(0.533368 -0.0195891 2.98379e-14)
(0.56869 0.0185826 -1.4849e-14)
(0.605527 0.0590441 -2.6274e-14)
(-0.105506 -0.323959 1.05548e-16)
(-0.0435931 -0.310117 -1.519e-15)
(0.0143798 -0.288231 2.11805e-15)
(0.0680508 -0.271841 1.775e-15)
(0.122101 -0.265533 2.18338e-14)
(0.177501 -0.253948 -1.86242e-14)
(0.233481 -0.229952 -8.47448e-16)
(0.28894 -0.197002 -2.20952e-14)
(0.341513 -0.160538 -1.46434e-14)
(0.38659 -0.121424 4.40249e-14)
(0.424824 -0.080579 -2.39514e-14)
(0.465898 -0.0419162 -1.54863e-14)
(0.505419 -0.00553081 -1.31444e-14)
(0.539105 0.0311636 2.73219e-14)
(0.57648 0.0697117 1.67697e-14)
(-0.096904 -0.290471 -2.15358e-17)
(-0.0386183 -0.278331 3.33008e-15)
(0.0151969 -0.258839 -9.33313e-15)
(0.0651233 -0.244869 1.20395e-15)
(0.116231 -0.239195 -3.30719e-14)
(0.168358 -0.228015 1.86196e-15)
(0.221009 -0.205314 3.77498e-15)
(0.273204 -0.174255 -4.12435e-14)
(0.322724 -0.139759 8.02718e-15)
(0.365205 -0.102791 -3.65483e-15)
(0.401333 -0.0642211 2.46669e-14)
(0.440536 -0.0274016 -1.32537e-15)
(0.478277 0.00743152 -1.93568e-14)
(0.511133 0.0428511 -2.03451e-14)
(0.547957 0.0787293 4.9497e-15)
(0.580381 0.114526 1.53176e-14)
(-0.0886655 -0.259347 1.14606e-15)
(-0.0342172 -0.248883 4.30526e-15)
(0.0158615 -0.231938 -6.10376e-16)
(0.0622887 -0.220113 8.17744e-16)
(0.110548 -0.215039 2.4313e-15)
(0.159544 -0.204196 -1.72936e-14)
(0.208988 -0.182661 1.33609e-14)
(0.258006 -0.153258 1.54619e-14)
(0.304599 -0.120576 -1.10451e-14)
(0.344608 -0.0855747 -4.32231e-15)
(0.378708 -0.0491042 2.23084e-15)
(0.416046 -0.0140268 3.089e-14)
(0.452168 0.0195016 3.72639e-14)
(0.48401 0.0531858 1.88588e-15)
(0.520317 0.0880875 -1.14655e-14)
(0.553602 0.121568 -2.1667e-14)
(-0.029786 -0.222217 2.4525e-16)
(0.0166399 -0.207597 -8.3504e-16)
(0.0596106 -0.197672 1.46559e-14)
(0.105048 -0.193016 1.04125e-14)
(0.151023 -0.182524 8.36639e-15)
(0.197413 -0.161991 -7.28046e-15)
(0.243358 -0.134077 4.04454e-14)
(0.287089 -0.102934 -1.98423e-14)
(0.324622 -0.0696969 -1.33316e-14)
(0.356805 -0.0351376 -3.36053e-14)
(0.392268 -0.00165441 -1.92984e-14)
(0.427016 0.0306539 -2.56715e-14)
(0.457579 0.0629984 5.41903e-15)
(0.49318 0.0966299 7.7999e-15)
(0.527141 0.129019 8.0395e-15)
(0.548872 0.161358 -4.67247e-15)
(-0.0254408 -0.198242 5.73206e-15)
(0.0175591 -0.18566 -1.95126e-17)
(0.0570827 -0.177363 -1.22601e-14)
(0.0997326 -0.173138 -8.73493e-15)
(0.142797 -0.162904 5.26338e-15)
(0.186216 -0.143319 1.29892e-14)
(0.229221 -0.116669 -1.0253e-14)
(0.270144 -0.0869213 1.57061e-14)
(0.30539 -0.0552362 2.15635e-15)
(0.335638 -0.0223691 -7.52946e-15)
(0.369196 0.00978365 -1.73081e-16)
(0.402394 0.040936 3.78365e-15)
(0.432026 0.0723063 -1.67046e-14)
(0.466528 0.104668 1.89265e-15)
(0.500238 0.136208 5.556e-16)
(0.522729 0.167741 2.17043e-15)
(-0.0212393 -0.176686 -7.49599e-16)
(0.0184459 -0.165905 -7.594e-15)
(0.0546948 -0.159013 -4.01263e-15)
(0.0945674 -0.155116 2.32423e-14)
(0.134831 -0.14525 -1.8141e-14)
(0.175388 -0.126516 1.2744e-14)
(0.215569 -0.101073 -9.77143e-15)
(0.253798 -0.0725505 -1.42055e-14)
(0.286687 -0.0422212 1.19103e-14)
(0.315041 -0.0108495 2.31489e-14)
(0.346712 0.0201606 -1.41284e-14)
(0.378271 0.0504962 1.85912e-14)
(0.406829 0.0807706 1.33389e-14)
(0.440663 0.112055 -1.56869e-14)
(0.47313 0.142667 -5.76847e-15)
(0.496465 0.173779 3.35184e-15)
(-0.0172572 -0.157294 -3.1148e-15)
(0.019172 -0.148085 4.3187e-15)
(0.0523584 -0.142196 6.05966e-15)
(0.0895418 -0.138728 -2.0331e-14)
(0.127066 -0.129241 2.64789e-14)
(0.1649 -0.111419 -4.02161e-15)
(0.20236 -0.0871366 5.40182e-16)
(0.238011 -0.0597881 -5.16044e-15)
(0.268692 -0.0307308 -3.08029e-14)
(0.295141 -0.000641943 1.67505e-14)
(0.324779 0.0294158 7.12936e-15)
(0.3547 0.0589347 -4.23043e-14)
(0.382125 0.0880005 6.27279e-15)
(0.414917 0.118525 1.16527e-14)
(0.446248 0.148679 -8.95076e-15)
(0.469684 0.17841 -1.99709e-14)
(0.484097 0.21047 -7.39717e-15)
(-0.0136989 -0.139827 3.44244e-15)
(0.0196344 -0.131817 1.75911e-15)
(0.0500178 -0.126743 -5.57242e-15)
(0.0846761 -0.123651 9.48833e-15)
(0.119572 -0.114682 -1.11279e-14)
(0.154782 -0.0977757 1.10363e-14)
(0.189616 -0.0747082 -2.52658e-14)
(0.22278 -0.0485284 -7.18987e-16)
(0.251292 -0.020675 2.15718e-14)
(0.275897 0.00818155 -7.697e-15)
(0.303606 0.0373705 2.25359e-14)
(0.331698 0.0659796 1.50016e-14)
(0.357848 0.0942362 -5.87194e-15)
(0.389322 0.123845 2.42323e-14)
(0.419757 0.153375 1.28783e-14)
(0.442408 0.182343 2.9097e-15)
(0.457724 0.213446 -3.27753e-15)
(-0.0105083 -0.123944 4.79685e-16)
(0.0198142 -0.116976 -9.67985e-15)
(0.0477941 -0.112531 3.72451e-15)
(0.0799235 -0.109665 7.45802e-15)
(0.112286 -0.101189 -7.33719e-15)
(0.144957 -0.0853302 -1.11684e-14)
(0.177326 -0.0635416 5.92239e-15)
(0.208109 -0.0386347 -2.46483e-14)
(0.234562 -0.0120246 2.03968e-15)
(0.257328 0.0156732 3.89535e-14)
(0.283138 0.0439759 6.37812e-16)
(0.309379 0.0718079 -2.72331e-15)
(0.334295 0.0991853 -1.07264e-14)
(0.364376 0.128155 -5.97688e-15)
(0.393505 0.157137 1.07769e-14)
(0.415071 0.185711 -2.3012e-15)
(0.431266 0.215731 6.70271e-16)
(-0.00772679 -0.109262 1.17827e-16)
(0.0196994 -0.103195 4.52727e-15)
(0.0455293 -0.0992661 2.42498e-15)
(0.0752356 -0.0964856 -1.39116e-14)
(0.10521 -0.0886155 1.75049e-14)
(0.135452 -0.0738291 5.06181e-15)
(0.165446 -0.0534175 2.16255e-14)
(0.193975 -0.0298871 3.40325e-14)
(0.218439 -0.00457146 -3.93787e-14)
(0.239515 0.0218824 -3.63864e-14)
(0.263451 0.0492582 2.43304e-15)
(0.287955 0.0764332 3.70652e-15)
(0.311224 0.103063 -8.95297e-15)
(0.33988 0.131547 -1.78885e-14)
(0.367642 0.160229 6.25364e-15)
(0.388083 0.188243 9.74971e-16)
(0.404669 0.217095 -1.63539e-14)
(0.409283 0.243853 5.59051e-15)
(-0.00551512 -0.095699 -1.52917e-15)
(0.0192543 -0.0903845 7.24295e-15)
(0.0431712 -0.0867638 -3.15973e-15)
(0.0706649 -0.0841114 4.9635e-15)
(0.0983403 -0.0767674 -1.47996e-14)
(0.126299 -0.0630892 -1.42553e-14)
(0.153994 -0.0440984 1.48236e-14)
(0.180358 -0.0220171 1.31935e-14)
(0.20295 0.00185599 1.38065e-14)
(0.222367 0.0270333 -8.35837e-15)
(0.2445 0.0534345 -1.00335e-14)
(0.26731 0.079852 1.01779e-15)
(0.289113 0.105836 4.09303e-15)
(0.315945 0.133929 -8.22011e-15)
(0.342293 0.162232 -1.64465e-15)
(0.361796 0.189611 1.09679e-14)
(0.377668 0.217821 -3.17392e-15)
(0.383586 0.243325 -6.07952e-15)
(-0.00386286 -0.0831968 1.98682e-16)
(0.0186326 -0.0785114 -3.11934e-15)
(0.0408086 -0.075168 6.35047e-15)
(0.066245 -0.072478 9.75698e-15)
(0.0917636 -0.0656509 2.07166e-15)
(0.117506 -0.0530005 -2.20363e-14)
(0.143012 -0.0354238 -2.57626e-14)
(0.167293 -0.0148341 5.95344e-15)
(0.18806 0.00756151 2.83578e-15)
(0.205912 0.0313077 2.42448e-14)
(0.226345 0.0566028 1.17985e-14)
(0.247449 0.0822428 4.07717e-15)
(0.267602 0.107648 1.5099e-14)
(0.29281 0.135228 1.76181e-15)
(0.317627 0.163191 -1.02109e-14)
(0.336248 0.190084 -3.89704e-15)
(0.351302 0.217606 -1.5347e-15)
(0.358133 0.242489 1.30444e-14)
(-0.00251356 -0.0717868 5.19287e-15)
(0.0179577 -0.0675782 -5.80806e-15)
(0.0385107 -0.0644996 -3.40366e-15)
(0.0620473 -0.0617903 -2.69858e-15)
(0.0855103 -0.0553141 1.03382e-15)
(0.10912 -0.043601 2.08411e-14)
(0.132504 -0.0273115 1.69198e-14)
(0.154768 -0.00818556 -2.8918e-15)
(0.173809 0.0126686 4.48763e-15)
(0.190115 0.03496 -1.15129e-14)
(0.208841 0.0590484 -1.56742e-14)
(0.228322 0.0837616 -7.54056e-15)
(0.247005 0.108416 1.24613e-15)
(0.270259 0.135564 3.72468e-15)
(0.293581 0.163131 -6.82459e-15)
(0.311339 0.18961 7.70714e-15)
(0.325096 0.216883 -4.23459e-15)
(0.332621 0.240799 -8.68606e-15)
(0.32999 0.260448 1.15436e-14)
(-0.00131837 -0.0614271 -4.90561e-16)
(0.0172971 -0.0578051 4.67419e-15)
(0.0363738 -0.0550197 -4.98736e-15)
(0.0581005 -0.0521372 2.08485e-15)
(0.0796391 -0.0459492 -1.09427e-14)
(0.101201 -0.0349862 -8.68968e-15)
(0.122556 -0.0198212 3.15627e-15)
(0.142843 -0.00203488 9.98581e-15)
(0.160154 0.017378 2.26304e-15)
(0.174991 0.0381385 1.69744e-15)
(0.192103 0.060908 -1.50474e-14)
(0.209896 0.0845862 -5.82168e-15)
(0.226946 0.108445 4.73869e-15)
(0.24849 0.134863 -2.17867e-15)
(0.270136 0.161932 1.16974e-14)
(0.286748 0.187943 9.05024e-15)
(0.300041 0.214536 5.68659e-15)
(0.306844 0.237788 -6.95481e-15)
(0.305155 0.256626 -9.8012e-15)
(-0.000255256 -0.052288 -1.138e-15)
(0.016759 -0.0492926 8.2648e-16)
(0.0344376 -0.0467519 8.1467e-15)
(0.0544918 -0.043786 6.51699e-15)
(0.0741864 -0.0377159 -4.82575e-15)
(0.0938414 -0.0273152 -3.5366e-15)
(0.113201 -0.0130479 -1.10736e-14)
(0.131587 0.00362026 2.67778e-15)
(0.147225 0.0216679 -5.92076e-15)
(0.160555 0.0410165 1.17966e-14)
(0.176015 0.0624317 1.13679e-14)
(0.192181 0.0848991 4.24406e-15)
(0.207756 0.107667 4.1197e-15)
(0.227334 0.133257 9.42228e-15)
(0.247399 0.159556 -3.80747e-15)
(0.263093 0.184863 -1.57968e-14)
(0.275522 0.210784 -3.71869e-15)
(0.281912 0.233375 1.36212e-14)
(0.281097 0.251497 1.58079e-15)
(0.000779564 -0.044407 2.11805e-16)
(0.0164359 -0.0420441 -2.00853e-15)
(0.0327265 -0.0398266 2.88633e-15)
(0.051166 -0.0367244 -3.36771e-15)
(0.069167 -0.0307545 4.43346e-15)
(0.0870164 -0.0207362 1.19039e-14)
(0.10453 -0.00714516 -4.04104e-15)
(0.121069 0.00863335 -1.08753e-14)
(0.135037 0.0255722 -1.43494e-14)
(0.146917 0.0435748 -2.86659e-16)
(0.16078 0.0636486 -2.73457e-15)
(0.175271 0.0848525 -1.22332e-16)
(0.189175 0.106454 7.54131e-15)
(0.207069 0.130856 -1.07825e-14)
(0.225355 0.156209 -2.94283e-15)
(0.239905 0.180688 5.53146e-15)
(0.251976 0.205845 -7.18447e-15)
(0.25736 0.22809 3.11304e-15)
(0.257453 0.245344 3.95368e-15)
(0.24921 0.257037 -8.33096e-15)
(0.00191611 -0.0378052 -1.85743e-16)
(0.0162622 -0.0359694 2.24525e-15)
(0.0311513 -0.0341117 -6.84666e-15)
(0.0480739 -0.0310483 -5.68599e-15)
(0.064497 -0.0251124 -1.44576e-15)
(0.0806965 -0.0153896 1.29174e-14)
(0.0964874 -0.0022702 -5.46977e-15)
(0.111301 0.0128449 -9.56319e-15)
(0.123705 0.0288654 1.1033e-14)
(0.134116 0.0457754 -4.88382e-15)
(0.146354 0.0646346 8.7121e-15)
(0.159246 0.0845541 -7.3451e-15)
(0.171674 0.104818 -1.00385e-15)
(0.187605 0.128009 9.81931e-15)
(0.204242 0.152199 -1.44675e-14)
(0.217564 0.175649 -3.26853e-15)
(0.228464 0.200048 1.5023e-14)
(0.233867 0.221404 -6.72209e-16)
(0.233754 0.238097 -1.92892e-15)
(0.226542 0.249108 1.55708e-15)
(0.00308675 -0.03228 8.58611e-16)
(0.0161026 -0.0310217 -2.87863e-15)
(0.0296314 -0.029539 -3.3148e-15)
(0.045049 -0.0265324 9.70054e-15)
(0.0600408 -0.0207463 -8.90726e-15)
(0.0747433 -0.0112849 -1.06743e-14)
(0.0890178 0.00144778 1.41272e-14)
(0.102244 0.0160634 -4.59877e-15)
(0.113163 0.0314284 -4.33077e-15)
(0.12223 0.0474142 -1.84309e-16)
(0.132941 0.0652271 -3.05444e-15)
(0.144204 0.0840067 1.52055e-14)
(0.154999 0.103066 7.05483e-16)
(0.169256 0.124888 -4.17655e-15)
(0.184045 0.147854 2.30757e-15)
(0.196019 0.17018 -3.74782e-15)
(0.206312 0.193429 1.27434e-15)
(0.210931 0.214044 7.97993e-15)
(0.210745 0.229927 -2.49673e-15)
(0.204508 0.240616 -1.52392e-15)
(0.00409665 -0.0277539 -3.39949e-16)
(0.0158262 -0.0269618 2.37296e-16)
(0.0280246 -0.0257698 1.56325e-15)
(0.0420351 -0.0230227 -7.25951e-15)
(0.0556712 -0.0174499 2.0373e-15)
(0.0690713 -0.00832033 -1.56949e-14)
(0.0819703 0.00401058 7.30436e-15)
(0.0938366 0.0182169 2.07646e-14)
(0.103444 0.0330265 -1.72848e-14)
(0.111233 0.0483547 -1.51965e-14)
(0.120453 0.0653381 -6.81956e-15)
(0.130217 0.0831282 -1.27702e-15)
(0.139585 0.101017 4.21081e-15)
(0.151914 0.121656 2.91514e-15)
(0.165007 0.143351 1.355e-15)
(0.175515 0.164461 -1.05525e-14)
(0.184322 0.186654 -1.12094e-14)
(0.189112 0.206228 5.12227e-15)
(0.188025 0.221708 3.23531e-15)
(0.18242 0.231936 -4.41653e-15)
(0.171013 0.236637 3.01614e-15)
(0.00488228 -0.0239581 1.84884e-16)
(0.0154184 -0.0234873 4.3156e-16)
(0.0263155 -0.0225655 2.35303e-15)
(0.0389476 -0.0200972 1.4782e-15)
(0.0513441 -0.0149259 1.06505e-14)
(0.0635419 -0.00626536 1.83498e-14)
(0.0752758 0.00555501 -1.9068e-14)
(0.0859418 0.0192902 1.03082e-14)
(0.0944049 0.0336438 9.15492e-15)
(0.101113 0.0483873 5.45771e-15)
(0.109035 0.0647149 -1.78881e-15)
(0.117323 0.0817275 5.84253e-15)
(0.125171 0.0987305 8.2077e-16)
(0.135872 0.118208 -2.52576e-15)
(0.147089 0.138747 3.80283e-15)
(0.156068 0.158664 -8.45901e-16)
(0.163816 0.179523 3.9707e-16)
(0.167138 0.198194 -3.16795e-15)
(0.166036 0.212895 -3.52182e-15)
(0.160904 0.222057 5.44672e-15)
(0.150732 0.225903 -2.26015e-15)
(0.00549751 -0.0206588 8.1342e-16)
(0.0148441 -0.0203067 -2.98594e-15)
(0.024515 -0.0195775 -1.5133e-15)
(0.035849 -0.0175012 2.8054e-15)
(0.0470432 -0.0128077 -6.68439e-15)
(0.0581358 -0.00479917 4.87292e-15)
(0.0688148 0.0063379 -6.99562e-15)
(0.0784658 0.0194566 -1.482e-14)
(0.0859939 0.0332493 -1.88526e-15)
(0.0917508 0.0474875 7.02689e-15)
(0.0984897 0.0632605 7.76133e-15)
(0.105522 0.0796343 2.71061e-15)
(0.112115 0.0958452 2.05401e-15)
(0.121028 0.114447 -1.26803e-15)
(0.130564 0.133906 3.98175e-15)
(0.137965 0.152661 -1.50217e-15)
(0.144006 0.172375 2.31053e-15)
(0.146863 0.189799 4.60763e-15)
(0.145146 0.203364 -1.17471e-15)
(0.14036 0.21144 4.75264e-15)
(0.131401 0.214203 -7.93867e-16)
(0.00590593 -0.0175625 5.24452e-16)
(0.0140847 -0.0172993 -5.44667e-16)
(0.0226881 -0.0166752 6.62891e-16)
(0.0327841 -0.0148938 -2.38638e-15)
(0.042863 -0.0107939 -5.38254e-15)
(0.0528849 -0.00355979 -1.56315e-14)
(0.0626022 0.00670149 1.5517e-14)
(0.0713428 0.0189914 -8.31594e-15)
(0.0780634 0.0321054 -3.02324e-16)
(0.0830846 0.0457011 6.015e-15)
(0.0888651 0.0608908 -1.24571e-14)
(0.0947499 0.0767064 -8.64614e-15)
(0.100097 0.0923423 -2.2012e-15)
(0.107614 0.110119 2.37301e-15)
(0.115414 0.128672 3.31077e-15)
(0.121265 0.146424 -2.08195e-15)
(0.125988 0.16488 -1.23046e-15)
(0.127337 0.181192 4.3333e-15)
(0.125695 0.193309 -3.22695e-16)
(0.121386 0.199837 3.42511e-15)
(0.113555 0.201697 -7.06843e-16)
(0.00606108 -0.0146301 6.16661e-16)
(0.0132386 -0.0143363 -7.83327e-16)
(0.0209198 -0.0136829 7.03491e-16)
(0.0299306 -0.0121876 -5.4674e-16)
(0.0389171 -0.00862255 6.06498e-15)
(0.0479379 -0.00222459 7.15412e-15)
(0.0566931 0.0070186 -2.23843e-15)
(0.0646073 0.0183068 1.87399e-15)
(0.0706284 0.0304912 -2.32403e-15)
(0.0750029 0.0433246 -5.83544e-15)
(0.0799514 0.0578003 6.46424e-15)
(0.0849336 0.0729784 -3.25837e-16)
(0.0893582 0.0879837 -1.08455e-16)
(0.0954455 0.105124 -6.00752e-16)
(0.101831 0.122884 -5.15565e-15)
(0.106243 0.139702 2.04235e-15)
(0.109354 0.157135 -2.52383e-15)
(0.110279 0.171877 1.14063e-17)
(0.108442 0.182232 4.11387e-15)
(0.103719 0.187791 -3.75391e-15)
(0.0969542 0.188857 -1.1405e-15)
(0.0856978 0.18472 -1.69774e-15)
(0.00601271 -0.0117789 -5.46435e-16)
(0.012359 -0.011379 -4.44837e-17)
(0.0192674 -0.0106509 -2.04178e-15)
(0.0273192 -0.00925258 -4.00319e-15)
(0.0353357 -0.00617081 -5.91208e-16)
(0.0433726 -0.000578364 -4.44962e-15)
(0.0512125 0.00760969 -6.27557e-15)
(0.0582969 0.0177531 2.70886e-15)
(0.0636579 0.0288717 2.27099e-15)
(0.0675014 0.0406858 2.73954e-15)
(0.0717916 0.0542297 -4.77345e-15)
(0.0759779 0.0686169 6.31942e-15)
(0.0795289 0.082996 -4.88136e-15)
(0.0846144 0.0993891 -2.83975e-15)
(0.0896849 0.11643 8.37493e-15)
(0.0928964 0.132525 -2.23877e-15)
(0.0952031 0.1487 1.3948e-15)
(0.095385 0.162006 -1.1817e-15)
(0.0931724 0.171465 -4.00518e-16)
(0.0879541 0.176309 1.95974e-15)
(0.080679 0.176944 2.0672e-15)
(0.0700667 0.172724 -1.69695e-15)
(0.00586088 -0.00905706 -1.39148e-15)
(0.0114779 -0.00848446 9.66583e-16)
(0.0177401 -0.00763113 1.6408e-16)
(0.024987 -0.00624514 2.8207e-15)
(0.0321121 -0.00345542 -1.65095e-15)
(0.0392329 0.00143958 -9.40148e-17)
(0.04617 0.0086361 7.32124e-15)
(0.05245 0.0176205 7.62426e-15)
(0.0571898 0.0275329 4.51981e-16)
(0.0605193 0.0382053 9.39169e-15)
(0.0642151 0.050608 4.68596e-15)
(0.0677958 0.0639703 -8.49369e-15)
(0.0707692 0.0774656 2.83127e-16)
(0.0748554 0.0930824 -3.16454e-15)
(0.0789159 0.109402 -1.11221e-15)
(0.0813418 0.124624 5.27656e-15)
(0.0829268 0.139807 -8.9639e-15)
(0.0824904 0.152469 -1.16496e-15)
(0.0794113 0.161353 4.93931e-15)
(0.0736836 0.165781 6.44635e-16)
(0.0659703 0.166078 -7.90644e-16)
(0.0559053 0.16139 -2.32632e-15)
(0.00562878 -0.00656359 1.89522e-17)
(0.0106007 -0.00592596 4.3219e-16)
(0.0163384 -0.00493087 2.35719e-15)
(0.022863 -0.00335794 5.61009e-15)
(0.0292179 -0.000711942 2.24707e-15)
(0.0354818 0.00368706 3.76857e-15)
(0.0415675 0.010058 4.60936e-16)
(0.0470481 0.0179788 -1.07917e-14)
(0.0511665 0.0267365 1.17733e-14)
(0.054048 0.0361529 1.06899e-15)
(0.0572512 0.047255 1.56446e-16)
(0.0602873 0.059404 4.26345e-15)
(0.0627002 0.0718768 2.31904e-15)
(0.0661299 0.0864746 4.60461e-15)
(0.069431 0.101868 3.86776e-15)
(0.0712274 0.116318 -3.69971e-15)
(0.0720522 0.130908 1.47464e-15)
(0.0709337 0.143098 4.8368e-15)
(0.0674692 0.151623 -2.44009e-15)
(0.0609936 0.155831 -2.63759e-15)
(0.0530522 0.155593 7.83078e-16)
(0.0438206 0.150393 -2.0415e-15)
(0.00527076 -0.00454652 4.57914e-16)
(0.0097018 -0.00384535 -7.50204e-16)
(0.0149679 -0.00269614 -2.12824e-15)
(0.0208888 -0.000914025 -6.70737e-16)
(0.0265362 0.00178832 3.72578e-15)
(0.0320526 0.0058995 3.79778e-15)
(0.0373196 0.0116601 -7.2896e-15)
(0.0420534 0.0187371 -2.81131e-15)
(0.0455789 0.0264377 -1.51877e-14)
(0.0480097 0.0346997 1.06897e-15)
(0.0507426 0.0444757 1.36888e-15)
(0.053356 0.0552738 -1.87398e-15)
(0.0554095 0.0664878 -3.05501e-15)
(0.0582125 0.07992 3.61294e-15)
(0.060876 0.0942743 5.67224e-15)
(0.0620952 0.107921 -2.13115e-15)
(0.0624214 0.121803 -4.80304e-15)
(0.0607386 0.133506 2.60345e-15)
(0.0565415 0.141767 9.72125e-16)
(0.0503069 0.145558 -1.2478e-15)
(0.0421341 0.145108 8.41683e-16)
(0.0336318 0.13963 1.97762e-15)
(0.0242636 0.130156 2.10926e-15)
(0.00487198 -0.00307892 8.47377e-16)
(0.00886638 -0.00234696 -1.99393e-15)
(0.0136538 -0.00111591 -1.71575e-15)
(0.0189845 0.000944874 -1.05222e-15)
(0.0240141 0.00378303 1.24392e-15)
(0.0288355 0.00778302 -5.69027e-15)
(0.0333708 0.0131564 1.57366e-15)
(0.0373752 0.0196045 4.34354e-15)
(0.0403272 0.0264978 5.26967e-15)
(0.0423621 0.0337331 -7.88135e-15)
(0.0447004 0.0422845 -5.42396e-16)
(0.0469035 0.0517534 2.87261e-15)
(0.0485596 0.0616821 -5.7486e-15)
(0.050929 0.0737398 3.88082e-17)
(0.0530877 0.0868383 3.74709e-15)
(0.0539368 0.0994587 -1.58018e-15)
(0.053737 0.112483 -2.19386e-15)
(0.0516699 0.12356 -1.98208e-15)
(0.0474531 0.131292 3.52099e-15)
(0.0407066 0.13486 -5.17122e-16)
(0.0328011 0.134186 -3.08969e-15)
(0.0247296 0.128659 3.33635e-15)
(0.0160287 0.119337 -3.1701e-15)
(0.0044832 -0.00214533 4.34637e-16)
(0.00802976 -0.00139752 -7.06252e-16)
(0.0123371 -0.000163081 1.46593e-15)
(0.0171261 0.00207654 4.14566e-15)
(0.0215842 0.00511469 -2.07931e-15)
(0.0257978 0.00910717 4.79829e-15)
(0.0296556 0.0142497 -2.24749e-15)
(0.0329809 0.0202691 -3.6878e-15)
(0.0353932 0.0265491 7.30278e-15)
(0.0370298 0.0330294 9.64291e-15)
(0.0389808 0.04058 -7.11539e-15)
(0.0408641 0.0488534 -3.79225e-15)
(0.0422702 0.0574759 -2.22292e-16)
(0.0441754 0.0681339 5.25571e-15)
(0.0458823 0.0798272 -6.95856e-16)
(0.0463595 0.0912172 -6.37429e-15)
(0.0459639 0.103101 3.59819e-15)
(0.0437523 0.113304 2.40521e-15)
(0.03928 0.120522 -7.07953e-16)
(0.0330907 0.123676 3.7181e-16)
(0.0252015 0.122897 -1.38622e-15)
(0.0172063 0.117495 -8.68361e-16)
(0.00905777 0.108408 2.9036e-15)
(0.00410346 -0.00175376 1.45565e-16)
(0.00720934 -0.00111442 -1.81576e-16)
(0.0110533 5.7861e-05 2.6234e-15)
(0.0153076 0.00245314 -4.67086e-15)
(0.0192726 0.0056513 4.22163e-16)
(0.0229439 0.00969412 -3.83481e-15)
(0.0262058 0.0146922 -5.95779e-15)
(0.0288836 0.0204003 -7.44718e-16)
(0.0307612 0.0262831 -9.22062e-15)
(0.0320381 0.0322204 -4.77361e-16)
(0.0336486 0.0390457 2.02878e-15)
(0.0352074 0.0463905 1.26341e-15)
(0.036325 0.053936 9.52018e-16)
(0.0379272 0.0632264 -4.11617e-15)
(0.03928 0.0734626 -1.48624e-15)
(0.0395581 0.0834809 -2.21623e-15)
(0.0388952 0.0941041 4.57554e-15)
(0.03664 0.103306 3.76369e-16)
(0.0325447 0.109761 -8.03737e-16)
(0.0262352 0.112638 1.19534e-15)
(0.0188887 0.111737 7.3361e-17)
(0.011499 0.106399 -3.4094e-16)
(0.00360203 0.0977749 -1.91381e-15)
(0.00371766 -0.00196296 -8.42571e-16)
(0.00643738 -0.00141413 9.53771e-16)
(0.00982657 -0.000323855 -2.3842e-15)
(0.0136125 0.00208301 1.2019e-15)
(0.0171237 0.00539769 -4.94464e-16)
(0.0203542 0.00946351 4.12198e-15)
(0.0230661 0.0143099 -2.95947e-17)
(0.0251611 0.0197778 -4.74544e-15)
(0.0265356 0.0253709 1.0441e-15)
(0.0274341 0.0310178 -4.57473e-15)
(0.0286825 0.0374062 2.93041e-15)
(0.0299642 0.0441164 5.30703e-15)
(0.0309073 0.050814 4.96583e-15)
(0.0321751 0.0590073 9.94553e-18)
(0.033216 0.067947 -2.46346e-15)
(0.0332487 0.0766653 -2.97926e-15)
(0.0325458 0.0859652 -8.31641e-16)
(0.0303657 0.094046 3.6373e-15)
(0.0263193 0.0997616 -3.33885e-16)
(0.0208733 0.102117 1.40855e-15)
(0.0139303 0.10106 1.02749e-15)
(0.00670242 0.0960006 6.7834e-17)
(-0.0004843 0.0878096 1.06771e-16)
(0.00335355 -0.00246929 2.75779e-17)
(0.00573339 -0.00196915 -5.52522e-19)
(0.0086879 -0.0010164 -1.30635e-15)
(0.0120425 0.00130465 5.30609e-15)
(0.0151824 0.00456443 -1.65582e-16)
(0.0180228 0.00851346 1.25392e-15)
(0.0202744 0.0131021 3.84793e-15)
(0.0218356 0.018276 4.89989e-15)
(0.0227586 0.0236832 7.40507e-15)
(0.0233228 0.0291728 2.69019e-16)
(0.0242323 0.0353561 -6.20107e-16)
(0.0251897 0.0417311 -3.36951e-15)
(0.0258737 0.0479419 -6.13892e-17)
(0.0269054 0.0553041 2.29865e-15)
(0.0276911 0.0631849 1.1933e-15)
(0.0276174 0.0707477 -2.58952e-15)
(0.0267628 0.0788316 8.15927e-16)
(0.024673 0.0858154 2.2712e-16)
(0.0211395 0.0906148 -2.78756e-15)
(0.0158772 0.0924894 9.47267e-16)
(0.00977697 0.0912582 6.37749e-16)
(0.00307469 0.0863869 3.68533e-16)
(-0.00323665 0.0785144 -2.2929e-15)
(-0.00991743 0.0720006 9.27392e-16)
(0.0029993 -0.0029948 5.68616e-16)
(0.00505262 -0.00253517 -1.44417e-16)
(0.00761911 -0.00175115 -7.712e-16)
(0.0106107 0.000326761 -1.09894e-15)
(0.013411 0.00338391 -2.05053e-15)
(0.0159327 0.0070281 -5.11369e-15)
(0.0177755 0.0111918 -3.91677e-15)
(0.0188836 0.0159813 4.14948e-15)
(0.0194435 0.0211823 -3.99565e-15)
(0.0197204 0.0266258 -4.55595e-16)
(0.0202931 0.0327514 -1.34608e-15)
(0.0209423 0.0389953 1.34176e-15)
(0.0214123 0.0449354 -3.65329e-15)
(0.0221263 0.0517932 -6.43104e-16)
(0.0226562 0.0589008 -8.85235e-17)
(0.0224257 0.0655395 -1.05616e-15)
(0.021613 0.0725095 3.05806e-15)
(0.0196951 0.0784029 3.53828e-15)
(0.0163729 0.0823611 -2.07351e-15)
(0.0119753 0.0835742 -1.28511e-15)
(0.00632816 0.0820785 9.94244e-16)