/*--------------------------------*- C++ -*----------------------------------*\
| =========                 |                                                 |
| \\      /  F ield         | OpenFOAM: The Open Source CFD Toolbox           |
|  \\    /   O peration     | Version:  2506                                  |
|   \\  /    A nd           | Website:  www.openfoam.com                      |
|    \\/     M anipulation  |                                                 |
\*---------------------------------------------------------------------------*/
FoamFile
{
    version     2.0;
    format      ascii;
    arch        "LSB;label=32;scalar=64";
    class       surfaceScalarField;
    location    "50";
    object      phi;
}
// * * * * * * * * * * * * * * * * * * * * * * * * * * * * * * * * * * * * * //

dimensions      [0 3 -1 0 0 0 0];

oriented        oriented;

internalField   nonuniform List<scalar> 
2582
(
-0.125603
-0.242292
-0.096401
-0.243071
-0.0663861
-0.254379
-0.0286133
-0.311095
-0.314763
-0.126722
-0.273484
-0.0958837
-0.27391
-0.0643451
-0.285921
-0.0244979
-0.350944
0.0147107
-0.353976
-0.363537
-0.128061
-0.306439
-0.0955764
-0.306397
-0.0623321
-0.319167
-0.0203288
-0.39295
0.0209799
-0.395284
0.0629074
-0.405468
-0.415195
-0.129748
-0.341129
-0.0953931
-0.340754
-0.0604484
-0.354113
-0.0160904
-0.437308
0.0274377
-0.438815
0.0716206
-0.449649
0.116755
-0.460333
-0.44115
-0.131616
-0.377749
-0.0954479
-0.376923
-0.0585112
-0.39105
-0.0117437
-0.484077
0.0341618
-0.484719
0.080708
-0.496198
0.128226
-0.507849
0.173248
-0.486176
-0.432778
-0.133719
-0.416446
-0.0955518
-0.41509
-0.0566936
-0.429909
-0.00728233
-0.533488
0.0411318
-0.533135
0.0901912
-0.545255
0.140301
-0.557961
0.18768
-0.533554
0.228757
-0.473857
-0.414532
-0.136098
-0.457292
-0.0957843
-0.455405
-0.0547864
-0.470907
-0.00264977
-0.585625
0.048411
-0.584193
0.100143
-0.596989
0.152978
-0.610794
0.202898
-0.583476
0.246107
-0.517064
-0.451283
-0.138654
-0.500366
-0.096115
-0.497942
-0.0528932
-0.514129
0.00212502
-0.640642
0.0560254
-0.638095
0.110569
-0.65153
0.166256
-0.666483
0.218911
-0.636128
0.264371
-0.562525
0.302999
-0.48991
-0.424969
-0.141468
-0.545834
-0.0965845
-0.542826
-0.0509792
-0.559733
0.00712448
-0.698745
0.0639624
-0.69493
0.121513
-0.709082
0.180254
-0.72522
0.235714
-0.691589
0.283625
-0.610434
0.324225
-0.530508
-0.459351
-0.144483
-0.593826
-0.0971251
-0.590182
-0.0490124
-0.607845
0.0123186
-0.760075
0.0722586
-0.754871
0.132977
-0.769797
0.194943
-0.787187
0.253446
-0.750089
0.303894
-0.660882
0.346616
-0.573229
0.38271
-0.495444
-0.413173
-0.147743
-0.644443
-0.0977471
-0.640178
-0.046997
-0.658594
0.0177473
-0.824818
0.081001
-0.818122
0.145026
-0.833823
0.210389
-0.852547
0.272086
-0.811787
0.325256
-0.714049
0.370233
-0.618205
0.40818
-0.53339
-0.443645
-0.151166
-0.697897
-0.0984554
-0.692887
-0.0449168
-0.712131
0.0233915
-0.893124
0.0901469
-0.884877
0.1577
-0.901373
0.226659
-0.921506
0.291748
-0.876872
0.34778
-0.770082
0.395127
-0.66555
0.435021
-0.573284
-0.475624
-0.154892
-0.754274
-0.0992545
-0.748524
-0.042795
-0.768589
0.0293087
-0.965227
0.0997249
-0.95529
0.171029
-0.972676
0.243778
-0.994252
0.312411
-0.945505
0.371488
-0.829157
0.421366
-0.715427
0.463366
-0.615282
0.496916
-0.509174
-0.421509
-0.158837
-0.813734
-0.10009
-0.807269
-0.0405403
-0.828137
0.0355104
-1.04127
0.109848
-1.02963
0.18505
-1.04787
0.261802
-1.071
0.334209
-1.01791
0.396472
-0.89142
0.449039
-0.767993
0.493224
-0.659467
0.528497
-0.544446
-0.449406
-0.163015
-0.87648
-0.101084
-0.869198
-0.038223
-0.890996
0.0420688
-1.12156
0.120472
-1.10803
0.199796
-1.1272
0.280757
-1.15196
0.357127
-1.09428
0.42282
-0.957111
0.478197
-0.823369
0.524745
-0.706013
0.561818
-0.581519
0.59108
-0.478668
-0.404044
-0.167438
-0.942715
-0.102065
-0.934569
-0.0358168
-0.957243
0.0488917
-1.20627
0.131614
-1.19075
0.215304
-1.21088
0.300745
-1.2374
0.381325
-1.17485
0.450577
-1.02636
0.508945
-0.881735
0.55795
-0.755018
0.596955
-0.620523
0.627661
-0.509373
-0.428832
-0.172149
-1.01257
-0.103208
-1.00351
-0.0332886
-1.02716
0.0560793
-1.29564
0.14335
-1.27802
0.231654
-1.29919
0.321772
-1.32752
0.40677
-1.25985
0.479832
-1.09942
0.541361
-0.943263
0.592988
-0.806644
0.634004
-0.661538
0.666278
-0.541646
-0.454817
-0.177128
-1.08623
-0.104398
-1.07623
-0.0306622
-1.10089
0.0636565
-1.38995
0.155712
-1.37007
0.248871
-1.39234
0.343946
-1.42259
0.433614
-1.34952
0.510651
-1.17646
0.57553
-1.00814
0.629909
-0.861022
0.673099
-0.704726
0.706974
-0.57552
0.734215
-0.482058
-0.405367
-0.182414
-1.16395
-0.105664
-1.15298
-0.0278779
-1.17868
0.0716058
-1.48943
0.168727
-1.46719
0.267003
-1.49061
0.367313
-1.5229
0.461907
-1.44411
0.543145
-1.25769
0.611527
-1.07652
0.668837
-0.918331
0.714362
-0.750251
0.749916
-0.611073
0.778476
-0.510617
-0.428106
-0.187961
-1.24594
-0.107032
-1.23391
-0.0250012
-1.2607
0.0799546
-1.59438
0.18243
-1.56966
0.286091
-1.59427
0.391918
-1.62872
0.491692
-1.54388
0.577374
-1.34337
0.649523
-1.14867
0.709939
-0.978746
0.757717
-0.798027
0.795287
-0.648642
0.825196
-0.540525
-0.451954
-0.193863
-1.33242
-0.108505
-1.31926
-0.0219431
-1.34726
0.0887862
-1.70511
0.19688
-1.67775
0.306225
-1.70362
0.417872
-1.74037
0.523097
-1.6491
0.61349
-1.43376
0.689489
-1.22467
0.753152
-1.04241
0.803713
-0.848586
0.843081
-0.688008
0.87446
-0.571904
0.899349
-0.476843
-0.406855
-0.200071
-0.110017
-1.40932
-0.0187666
-1.43851
0.0980647
-1.82194
0.21207
-1.79175
0.327435
-1.81898
0.44517
-1.8581
0.556227
-1.76016
0.651556
-1.52909
0.731669
-1.30478
0.798852
-1.10959
0.851846
-0.901579
0.893317
-0.729478
0.926553
-0.60514
0.952606
-0.502896
-0.427788
-0.111654
-1.5043
-0.0153754
-1.53478
0.107816
-1.94513
0.228106
-1.91204
0.349783
-1.94065
0.474005
-1.98232
0.591084
-1.87723
0.691686
-1.62969
0.776251
-1.38934
0.84702
-1.18036
0.902981
-0.957537
0.946572
-0.773068
0.981229
-0.639796
1.00871
-0.530378
1.03052
-0.449593
-0.394147
-0.113393
-1.60448
-0.0118663
-1.63631
0.118122
-2.07511
0.244992
-2.03891
0.373353
-2.06901
0.504389
-2.11335
0.627994
-2.00083
0.733952
-1.73564
0.823054
-1.47844
0.897664
-1.25496
0.956624
-1.01649
1.00259
-0.819032
1.03919
-0.676393
1.0679
-0.559088
1.09082
-0.472514
-0.413014
-0.115209
-1.71015
-0.00813082
-1.74338
0.128974
-2.21221
0.262798
-2.17273
0.398183
-2.20439
0.536398
-2.25156
0.666646
-2.13108
0.778553
-1.84755
0.872589
-1.57247
0.95121
-1.33358
1.01335
-1.07863
1.06176
-0.867442
1.10006
-0.714691
1.13027
-0.589296
1.15425
-0.49649
-0.432822
-0.117175
-1.8216
-0.0042276
-1.85633
0.140387
-2.35682
0.281534
-2.31387
0.424344
-2.3472
0.570203
-2.39741
0.707568
-2.26844
0.825533
-1.96551
0.924673
-1.67161
1.00751
-1.41641
1.07307
-1.14419
1.12396
-0.918329
1.16451
-0.755242
1.19611
-0.620903
1.22138
-0.521754
1.24181
-0.453252
-0.402523
-0.119219
-1.93913
-0.000107636
-1.97543
0.152455
-2.50938
0.301336
-2.46275
0.451983
-2.49784
0.605698
-2.55113
0.750772
-2.41351
0.875073
-2.08981
0.979646
-1.77618
1.06707
-1.50383
1.13602
-1.21315
1.18978
-0.972082
1.23222
-0.79768
1.26562
-0.654304
1.29199
-0.548124
1.31356
-0.474819
-0.420354
-0.121386
-2.0631
0.00424352
-2.10106
0.165128
-2.67026
0.322174
-2.61979
0.481027
-2.65669
0.64329
-2.71338
0.796164
-2.56638
0.927443
-2.22108
1.03773
-1.88646
1.1298
-1.59591
1.20255
-1.28589
1.25897
-1.0285
1.30385
-0.842563
1.33882
-0.689276
1.36642
-0.57572
1.38915
-0.497547
-0.438903
-0.123688
-2.19386
0.00877265
-2.23352
0.178503
-2.83999
0.344129
-2.78542
0.511752
-2.82431
0.682827
-2.88446
0.84415
-2.7277
0.982514
-2.35944
1.09869
-2.00264
1.19595
-1.69316
1.27265
-1.36258
1.33213
-1.08798
1.37924
-0.889674
1.41607
-0.726106
1.44518
-0.604826
1.46872
-0.521092
1.48839
-0.458562
-0.416023
-0.126154
-2.33174
0.013599
-2.37326
0.192578
-3.01896
0.367298
-2.96013
0.544073
-3.00108
0.724444
-3.06482
0.894616
-2.89787
1.04061
-2.50543
1.16321
-2.12523
1.26575
-1.7957
1.34645
-1.44328
1.4093
-1.15083
1.45889
-0.939268
1.49762
-0.764833
1.52814
-0.635344
1.55288
-0.54583
1.5732
-0.478877
-0.433438
-0.128688
-2.47718
0.0186743
-2.52062
0.207486
-3.20777
0.391743
-3.14439
0.578133
-3.18747
0.768563
-3.25525
0.947942
-3.07724
1.10186
-2.65935
1.23121
-2.25458
1.33916
-1.90365
1.42441
-1.52853
1.49043
-1.21684
1.5427
-0.991542
1.58346
-0.805591
1.61555
-0.667435
1.64167
-0.571942
1.66301
-0.500211
-0.451446
-0.13141
-2.63056
0.0240356
-2.67606
0.223135
-3.40686
0.417517
-3.33876
0.614122
-3.38407
0.814812
-3.45593
1.00421
-3.26664
1.16647
-2.8216
1.3029
-2.39101
1.41683
-2.01758
1.50656
-1.61825
1.57627
-1.28655
1.63124
-1.04651
1.6741
-0.84845
1.7079
-0.701234
1.73515
-0.599184
1.75741
-0.522479
1.77632
-0.470345
-0.437294
-0.134274
-2.79232
0.0296407
-2.83997
0.239698
-3.61692
0.444616
-3.54368
0.652037
-3.59149
0.863816
-3.66772
1.06339
-3.4662
1.23471
-2.99292
1.37836
-2.53465
1.49848
-2.1377
1.59322
-1.71299
1.66658
-1.35991
1.72467
-1.10459
1.76975
-0.893529
1.80519
-0.736669
1.83384
-0.627833
1.85733
-0.545968
1.87699
-0.49001
-0.45447
-0.137292
-2.96295
0.0356019
-3.01286
0.257115
-3.83843
0.473367
-3.75992
0.692111
-3.81023
0.915516
-3.89111
1.12595
-3.67663
1.30639
-3.17335
1.45823
-2.68649
1.58484
-2.2643
1.68467
-1.81282
1.76192
-1.43716
1.82306
-1.16572
1.87055
-0.941023
1.9079
-0.774016
1.938
-0.657923
1.96247
-0.570438
1.98317
-0.510709
-0.472524
-0.140484
-3.14289
0.0418762
-3.19522
0.275503
-4.07205
0.503537
-3.98796
0.734263
-4.04095
0.969736
-4.12659
1.19178
-3.89867
1.3824
-3.36397
1.54224
-2.84633
1.67576
-2.39781
1.78099
-1.91805
1.8626
-1.51877
1.92681
-1.22993
1.97699
-0.991206
2.01602
-0.813044
2.04772
-0.689623
2.07358
-0.596283
2.09524
-0.532373
2.11407
-0.491347
-0.467924
-0.143858
-3.33268
0.048467
-3.38754
0.294896
-4.31847
0.535402
-4.22846
0.778783
-4.28433
1.02726
-4.37505
1.26145
-4.13286
1.46222
-3.56473
1.63087
-3.01498
1.77177
-2.53871
1.88255
-2.02883
1.96857
-1.60479
2.03639
-1.29775
2.08905
-1.04386
2.13032
-0.85431
2.16353
-0.722823
2.19066
-0.623422
2.2133
-0.555006
2.23304
-0.511079
-0.485777
-0.147431
-3.53285
0.0553955
-3.59036
0.315339
-4.57841
0.569055
-4.48217
0.825654
-4.54092
1.08763
-4.63703
1.33468
-4.37991
1.54653
-3.77658
1.72436
-3.19281
1.87292
-2.68727
1.98988
-2.14577
2.08044
-1.69535
2.15184
-1.36915
2.20739
-1.09941
2.25079
-0.897709
2.28575
-0.757787
2.3141
-0.651759
2.33783
-0.578744
2.35855
-0.531782
-0.504543
-0.151199
-3.74396
0.0627352
-3.80429
0.336922
-4.8526
0.604404
-4.74965
0.875183
-4.8117
1.15154
-4.91337
1.41206
-4.64043
1.63549
-4
1.82303
-3.38035
1.97962
-2.84385
2.103
-2.26916
2.19836
-1.7907
2.27372
-1.44451
2.33208
-1.15778
2.37789
-0.943514
2.41456
-0.794451
2.4445
-0.681701
2.46939
-0.603634
2.49104
-0.553421
2.51051
-0.524006
-0.510502
-0.155212
-3.9666
0.0704101
-4.02991
0.359574
-5.14176
0.641743
-5.03182
0.927356
-5.0973
1.21888
-5.20491
1.49369
-4.91523
1.72938
-4.23569
1.92712
-3.57809
2.09221
-3.00893
2.22224
-2.39919
2.3229
-1.89135
2.40216
-1.52376
2.46363
-1.21925
2.51178
-0.991666
2.55054
-0.833203
2.58185
-0.713007
2.60804
-0.629829
2.63071
-0.576078
2.65124
-0.54454
-0.52981
-0.159444
-4.20144
0.0785301
-4.26788
0.383439
-5.44666
0.681265
-5.32963
0.982335
-5.39838
1.28996
-5.51252
1.57978
-5.20505
1.82823
-4.48413
2.03689
-3.78675
2.211
-3.18304
2.34802
-2.53621
2.45407
-1.9974
2.53766
-1.60736
2.60253
-1.28412
2.65319
-1.04233
2.69383
-0.873837
2.72678
-0.745959
2.75431
-0.657344
2.77799
-0.599758
2.7995
-0.56605
-0.550118
-0.163914
-4.44912
0.0870698
-4.51885
0.408715
-5.7683
0.722699
-5.64363
1.04027
-5.71594
1.36468
-5.83693
1.6704
-5.51076
1.93258
-4.74631
2.15251
-4.00668
2.33615
-3.36667
2.48061
-2.68066
2.59261
-2.10939
2.68058
-1.69533
2.74891
-1.35245
2.80222
-1.09564
2.84517
-0.916792
2.8797
-0.780473
2.9087
-0.686348
2.93366
-0.624718
2.95608
-0.588466
-0.571147
-0.168697
-4.7103
0.0960112
-4.78356
0.435305
-6.10759
0.766474
-5.97478
1.10162
-6.0511
1.44358
-6.17888
1.76615
-5.83333
2.04253
-5.02268
2.2747
-4.23884
2.46834
-3.56031
2.62069
-2.83301
2.73847
-2.22718
2.83142
-1.78827
2.90339
-1.42442
2.95955
-1.1518
3.00456
-0.961795
3.04104
-0.816959
3.0713
-0.716603
3.09748
-0.650901
3.12104
-0.612027
3.14335
-0.593453
-0.59389
-0.173673
-4.98584
0.105512
-5.06274
0.463366
-6.46544
0.812539
-6.32396
1.16599
-6.40453
1.52697
-6.53987
1.86697
-6.17331
2.15868
-5.3144
2.40331
-4.48346
2.60756
-3.76456
2.76828
-2.99372
2.89255
-2.35144
2.9904
-1.88612
3.06618
-1.50019
3.12535
-1.21096
3.17286
-1.00931
3.21124
-0.855337
3.24305
-0.748416
3.27055
-0.678401
3.29533
-0.6368
3.31844
-0.616563
-0.616952
-0.179003
-5.27639
0.115478
-5.35722
0.492976
-6.84293
0.861349
-6.69232
1.23415
-6.77735
1.61475
-6.92045
1.97347
-6.53205
2.28098
-5.62189
2.53906
-4.74154
2.7544
-3.97989
2.92383
-3.16315
3.05492
-2.48254
3.15799
-1.9892
3.23802
-1.58022
3.30038
-1.27332
3.3502
-1.05912
3.39062
-0.895757
3.42423
-0.782027
3.45303
-0.707196
3.47901
-0.662774
3.50332
-0.640867
-0.641135
-0.184601
-5.58285
0.126014
-5.66783
0.524168
-7.24108
0.912691
-7.08085
1.30589
-7.17053
1.70729
-7.32186
2.08573
-6.91047
2.41015
-5.94632
2.68232
-5.01371
2.90945
-4.20702
3.08806
-3.34176
3.2262
-2.62067
3.33506
-2.09806
3.41918
-1.66434
3.4849
-1.33904
3.53757
-1.11179
3.57993
-0.938114
3.61518
-0.817274
3.64563
-0.737638
3.67275
-0.689893
3.69844
-0.666542
-0.666288
-0.190467
-5.90614
0.13714
-5.99543
0.557037
-7.66098
0.96695
-7.49075
1.38168
-7.58527
1.80508
-7.74525
2.20408
-7.30948
2.54618
-6.2884
2.83338
-5.30091
3.07283
-4.44647
3.26122
-3.53015
3.40696
-2.7664
3.52148
-2.21257
3.61034
-1.7532
3.67952
-1.40822
3.73494
-1.1672
3.77971
-0.982882
3.81673
-0.854286
3.84862
-0.769532
3.87729
-0.718542
3.90409
-0.693341
3.9307
-0.692887
-0.713691
-0.196744
-6.24708
0.148791
-6.34096
0.591755
-8.10394
1.0241
-7.92311
1.46152
-8.02268
1.90813
-8.19187
2.3291
-7.73042
2.68985
-6.64916
2.9925
-5.60356
3.24512
-4.69909
3.44391
-3.72892
3.59735
-2.91984
3.71833
-2.33355
3.81192
-1.84679
3.88481
-1.48111
3.94318
-1.22557
3.99026
-1.02995
4.02933
-0.893361
4.06287
-0.803053
4.09294
-0.748618
4.12108
-0.721474
4.14885
-0.720656
-0.742801
-0.203308
-6.60674
0.161217
-6.70548
0.628312
-8.57103
1.08436
-8.37914
1.54572
-8.48405
2.01695
-8.66308
2.46085
-8.17434
2.84145
-7.02974
3.16068
-5.92278
3.42707
-4.96548
3.63648
-3.93834
3.79848
-3.08184
3.92586
-2.46093
4.02446
-1.94539
4.10143
-1.55808
4.1628
-1.28694
4.21245
-1.0796
4.25354
-0.934437
4.28884
-0.838357
4.32042
-0.780187
4.34999
-0.751044
4.37926
-0.749914
-0.773099
-0.210312
-6.98607
0.174099
-7.08989
0.667079
-9.06401
1.14802
-8.86009
1.63479
-8.9708
2.13163
-9.15994
2.59984
-8.64253
3.00126
-7.43117
3.33795
-6.25947
3.61878
-5.24631
3.83967
-4.15921
4.01044
-3.2526
4.1448
-2.59529
4.24877
-2.04935
4.3297
-1.63901
4.39451
-1.35174
4.44669
-1.13179
4.49003
-0.977774
4.52703
-0.875343
4.56037
-0.813528
4.59145
-0.782117
4.62211
-0.780577
-0.804963
-0.217694
-7.38621
0.187936
-7.49552
0.707616
-9.58368
1.2151
-9.36756
1.72844
-9.48414
2.25256
-9.68404
2.74655
-9.13653
3.1699
-7.8545
3.52508
-6.61466
3.82124
-5.54246
4.05408
-4.39205
4.2341
-3.43262
4.37569
-2.73687
4.4853
-2.15896
4.57064
-1.72435
4.63892
-1.42002
4.69378
-1.18665
4.73933
-1.02331
4.77842
-0.914437
4.81345
-0.848543
4.84606
-0.814732
4.87829
-0.812783
-0.838617
-0.225591
-7.80827
0.202133
-7.92324
0.750592
-10.1321
1.28584
-9.90282
1.82751
-10.0258
2.38034
-10.2369
2.90136
-9.65752
3.34776
-8.30092
3.72225
-6.98913
4.03461
-5.85482
4.28019
-4.63762
4.47005
-3.62248
4.61929
-2.88611
4.73465
-2.27432
4.82459
-1.81429
4.89652
-1.49195
4.95451
-1.24463
5.00241
-1.07121
5.04365
-0.955661
5.08027
-0.885162
5.11473
-0.849174
5.14856
-0.846611
5.18375
-0.873798
-0.882835
-0.233953
-8.25345
0.217303
-8.37449
0.795794
-10.7106
1.36031
-10.4673
1.93169
-10.5972
2.51503
-10.8202
3.06447
-10.207
3.53555
-8.77199
3.93052
-7.3841
4.2599
-6.1842
4.51884
-4.89657
4.7189
-3.82253
4.87615
-3.04336
4.99795
-2.39611
5.09271
-1.90905
5.16846
-1.5677
5.22936
-1.30552
5.2799
-1.12175
5.32307
-0.998838
5.36196
-0.924033
5.39789
-0.885103
5.43364
-0.882346
5.47057
-0.91073
-0.920441
-0.242842
-8.72296
0.233062
-8.85039
0.843206
-11.3208
1.43898
-11.0631
2.04163
-11.1998
2.65687
-11.4355
3.23659
-10.7867
3.73341
-9.26881
4.15006
-7.80075
4.49748
-6.53162
4.77045
-5.16952
4.98134
-4.03342
5.14722
-3.20923
5.27541
-2.5243
5.37526
-2.0089
5.45508
-1.64752
5.51942
-1.36985
5.57254
-1.17488
5.61809
-1.04437
5.65876
-0.964702
5.69674
-0.923069
5.73415
-0.919753
5.77314
-0.949711
-0.960053
-0.252219
-9.21836
0.249877
-9.35248
0.893479
-11.9644
1.52176
-11.6914
2.15755
-11.8356
2.80642
-12.0843
3.418
-11.3983
3.94217
-9.79296
4.38165
-8.24023
4.74793
-6.8979
5.03593
-5.45752
5.25818
-4.25568
5.43305
-3.38409
5.56825
-2.6595
5.67343
-2.11408
5.75742
-1.73151
5.82507
-1.4375
5.88107
-1.23087
5.92897
-1.09228
5.97188
-1.00759
6.01193
-0.96313
6.05134
-0.959144
6.09213
-0.990502
-1.00161
-0.262289
-9.7408
0.267205
-9.88198
0.946296
-12.6435
1.60908
-12.3542
2.27968
-12.5062
2.96429
-12.769
3.60932
-12.0433
4.16217
-10.3458
4.62584
-8.7039
5.01214
-7.28419
5.31562
-5.76099
5.55026
-4.49031
5.73448
-3.56831
5.87692
-2.80193
5.98777
-2.22492
6.07642
-1.82016
6.14761
-1.50868
6.20652
-1.28978
6.25703
-1.14277
6.30203
-1.05259
6.34407
-1.00515
6.38548
-1.00056
6.42854
-1.03355
-1.0454
-0.27301
-10.2918
0.285755
-10.4407
1.00184
-13.3595
1.70096
-13.0533
2.40835
-13.2136
3.13069
-13.4913
3.81114
-12.7238
4.3944
-10.9291
4.88314
-9.19264
5.29068
-7.69173
5.61081
-6.08112
5.85799
-4.73749
6.05238
-3.76269
6.20265
-2.95221
6.31935
-2.34162
6.41262
-1.91343
6.48769
-1.58375
6.54982
-1.3519
6.60276
-1.19572
6.65072
-1.10053
6.69475
-1.0492
6.73786
-1.04366
6.78268
-1.07838
-1.09237
-0.284281
-10.873
0.304821
-11.0298
1.06038
-14.1151
1.79798
-13.7909
2.5444
-13.96
3.306
-14.2529
4.02395
-13.4417
4.6392
-11.5443
5.15476
-9.70819
5.58436
-8.12132
5.92198
-6.41873
6.18276
-4.99826
6.38764
-3.96757
6.54627
-3.11084
6.66968
-2.46503
6.76699
-2.01074
6.84665
-1.6634
6.91113
-1.41638
6.96763
-1.25221
7.01726
-1.15018
7.06413
-1.09606
7.10943
-1.08897
7.15723
-1.12619
7.20511
-1.14026
-1.05532
-0.296091
-11.4862
0.325427
-11.6514
1.12232
-14.912
1.90028
-14.5688
2.68745
-14.7472
3.49119
-15.0566
4.2482
-14.1987
4.89731
-12.1934
5.44091
-10.2518
5.89404
-8.57445
6.25017
-6.77487
6.52532
-5.2734
6.74046
-4.18271
6.907
-3.27737
7.03662
-2.59465
7.14186
-2.11598
7.22476
-1.74631
7.29411
-1.48572
7.35228
-1.31039
7.40413
-1.20203
7.45324
-1.14518
7.50212
-1.13785
7.55231
-1.17639
7.60273
-1.19066
-1.10227
-0.215018
-11.9269
0.243051
-12.1094
0.874266
-15.5432
1.57588
-15.2705
2.42568
-15.597
3.5224
-16.1534
4.89773
-15.574
6.28073
-13.5764
6.1737
-10.1448
6.0404
-8.44115
5.93093
-6.66538
5.84568
-5.18815
5.78009
-4.11711
5.7315
-3.22878
5.69385
-2.55699
5.66547
-2.0876
5.64294
-1.72378
5.62671
-1.46949
5.61291
-1.2966
5.60138
-1.19051
5.59047
-1.13427
5.58254
-1.12994
5.57749
-1.17131
5.57534
-1.18852
-1.10378
-0.234515
-12.4119
0.26953
-12.6135
0.963882
-16.2376
1.7356
-16.0422
2.67057
-16.532
3.87743
-17.3602
5.39133
-17.0879
6.91318
-15.0983
6.79474
-10.0263
6.64768
-8.29409
6.52701
-6.54473
6.43167
-5.0928
6.3595
-4.04495
6.30416
-3.17343
6.26516
-2.51799
6.23344
-2.05588
6.20959
-1.69993
6.18904
-1.44894
6.17328
-1.28084
6.16093
-1.17815
6.15041
-1.12376
6.14162
-1.12113
6.13583
-1.16554
6.13316
-1.18582
-1.10731
-0.256089
-12.9451
0.298274
-13.1678
1.06231
-17.0016
1.91176
-16.8916
2.94049
-17.5607
4.26865
-18.6884
5.93449
-18.7538
7.60877
-16.7726
7.47616
-9.89372
7.31497
-8.13291
7.17948
-6.40923
7.07635
-4.98966
6.99689
-3.96549
6.93656
-3.1131
6.89143
-2.47286
6.85665
-2.0211
6.83043
-1.67371
6.80968
-1.42818
6.79211
-1.26327
6.77779
-1.16385
6.76655
-1.11251
6.75575
-1.11034
6.74821
-1.15797
6.74642
-1.18404
-1.11046
-0.279191
-13.5318
0.330596
-13.7776
1.17112
-17.8421
2.1054
-17.8259
3.23748
-18.6928
4.69901
-20.1499
6.53226
-20.587
8.37557
-18.6159
8.22902
-9.74718
8.0488
-7.95269
7.90092
-6.26136
7.78572
-4.87447
7.69709
-3.87685
7.63095
-3.04697
7.58011
-2.42201
7.54259
-1.98358
7.51299
-1.64411
7.49095
-1.40614
7.47182
-1.24414
7.45573
-1.14775
7.44132
-1.0981
7.43263
-1.10162
7.42469
-1.15003
7.42152
-1.18085
-1.11345
-0.304657
-14.1769
0.366289
-14.4486
1.29076
-18.7666
2.31911
-18.8543
3.5645
-19.9381
5.17276
-21.7582
7.18961
-22.6039
9.21642
-20.6427
9.05461
-9.58538
8.85625
-7.75434
8.69333
-6.09844
8.56701
-4.74815
8.46734
-3.77718
8.39471
-2.97435
8.33984
-2.36714
8.29865
-1.9424
8.26596
-1.61142
8.23906
-1.37924
8.21852
-1.22359
8.20089
-1.13013
8.18615
-1.08334
8.17452
-1.09
8.16524
-1.14073
8.16343
-1.17904
-1.11518
-0.332032
-14.8867
0.405581
-15.1862
1.42296
-19.784
2.55404
-19.9853
3.9244
-21.3085
5.69409
-23.5278
7.91434
-24.8241
10.1444
-22.8728
9.964
-9.40495
9.7441
-7.53445
9.56385
-5.9182
9.42361
-4.60791
9.31625
-3.66981
9.23515
-2.89325
9.17418
-2.30618
9.12717
-1.89539
9.09172
-1.57597
9.06403
-1.35155
9.04113
-1.2007
9.02085
-1.10983
9.00593
-1.06844
8.9904
-1.07445
8.98247
-1.13281
8.97844
-1.17499
-1.11854
-0.362408
-15.6673
0.449392
-15.998
1.56847
-20.9031
2.81277
-21.2296
4.3205
-22.8162
6.26732
-25.4747
8.70979
-27.2666
11.1624
-25.3255
10.9636
-9.2061
10.7219
-7.29279
10.5221
-5.71842
10.3679
-4.45363
10.2486
-3.55052
10.1584
-2.80307
10.0931
-2.24086
10.0406
-1.84296
10.0015
-1.5368
9.9695
-1.31959
9.94313
-1.17433
9.92304
-1.08975
9.90435
-1.04973
9.89018
-1.0603
9.88007
-1.12269
9.87532
-1.17026
-1.12244
-0.395168
-16.5258
0.497566
-16.8907
1.72852
-22.134
3.09736
-22.5985
4.75583
-24.4747
6.89822
-27.6171
9.58469
-29.9531
12.2819
-28.0227
12.0637
-8.98792
11.7966
-7.02569
11.5765
-5.49829
11.4056
-4.2828
11.2741
-3.41903
11.1769
-2.70583
11.1014
-2.16538
11.0465
-1.78804
11.0013
-1.49163
10.9666
-1.28482
10.9396
-1.14733
10.9147
-1.06489
10.895
-1.03004
10.8786
-1.0439
10.8664
-1.11057
10.8625
-1.16635
10.8659
-1.12582
-1.04097
-0.431034
-17.4701
0.5507
-17.8725
1.90464
-23.488
3.41039
-24.1042
5.23481
-26.2992
7.59187
-29.9742
10.5452
-32.9064
13.5148
-30.9923
13.2737
-8.74685
12.9791
-6.73115
12.7378
-5.25704
12.5477
-4.09271
12.4036
-3.27486
12.2936
-2.59582
12.2124
-2.0842
12.1492
-1.7248
12.1023
-1.44475
12.0637
-1.24624
12.0311
-1.11471
12.0042
-1.03799
11.9823
-1.00816
11.9637
-1.02538
11.951
-1.09787
11.9442
-1.15957
11.9486
-1.13013
-1.05301
-0.470076
-18.5085
0.609663
-18.9522
2.09868
-24.977
3.75456
-25.7601
5.76114
-28.3057
8.35235
-32.5654
11.6023
-36.1564
14.8665
-34.2565
14.6047
-8.48504
14.2796
-6.40609
14.0133
-4.99074
13.8052
-3.88457
13.6438
-3.11344
13.5225
-2.47447
13.4318
-1.99351
13.3629
-1.65594
13.3083
-1.39007
13.265
-1.20302
13.2311
-1.08078
13.2012
-1.0081
13.1761
-0.983076
13.157
-1.00621
13.1413
-1.08224
13.1344
-1.1527
13.1373
-1.13305
-1.06475
-0.512922
-19.6503
0.674611
-20.1398
2.31195
-26.6144
4.13285
-27.581
6.33926
-30.5122
9.18851
-35.4146
12.7615
-39.7293
16.3535
-37.8486
16.0676
-8.19917
15.7117
-6.05013
15.4168
-4.69579
15.1872
-3.655
15.0078
-2.93398
14.8738
-2.34044
14.7729
-1.8926
14.6946
-1.57757
14.6343
-1.32977
14.5874
-1.15615
14.547
-1.04034
14.5157
-0.976777
14.488
-0.955385
14.4638
-0.982076
14.4473
-1.06566
14.4407
-1.14613
14.4423
-1.13463
-1.07867
-0.559361
-20.9055
0.74588
-21.445
2.54614
-28.4146
4.54787
-29.5828
6.97418
-32.9385
10.1076
-38.548
14.0349
-43.6566
17.9898
-41.8034
17.6776
-7.88695
17.2884
-5.66099
16.961
-4.36825
16.7045
-3.3985
16.506
-2.73546
16.3597
-2.19407
16.2489
-1.78177
16.1645
-1.49312
16.1003
-1.26559
16.0467
-1.10243
16.0045
-0.998158
15.9667
-0.938953
15.9358
-0.924504
15.9099
-0.956121
15.8912
-1.04699
15.8829
-1.13782
15.8886
-1.14036
-1.09411
-0.609848
0.824947
2.80307
5.00304
7.66831
11.1111
15.4323
19.7789
19.4481
19.0246
18.668
18.387
18.1679
18.0009
17.8772
17.7829
17.7107
17.6562
17.6114
17.5765
17.5462
17.5231
17.5046
17.4952
17.4985
)
;

boundaryField
{
    inlet
    {
        type            calculated;
        value           nonuniform List<scalar> 
26
(
-22.2855
-22.8798
-30.3928
-31.7827
-35.6037
-41.9908
-47.9778
-46.1501
-7.55612
-5.23745
-4.0116
-3.11751
-2.51633
-2.02707
-1.65803
-1.39877
-1.19334
-1.04795
-0.953308
-0.904066
-0.894163
-0.932985
-1.02844
-1.12842
-1.1436
-1.11068
)
;
    }
    outlet
    {
        type            calculated;
        value           nonuniform List<scalar> 0();
    }
    walls
    {
        type            calculated;
        value           nonuniform List<scalar> 0();
    }
    frontAndBack
    {
        type            empty;
    }
    procBoundary0to1
    {
        type            processor;
        value           nonuniform List<scalar> 
94
(
0.277506
0.00864446
0.323691
0.054559
0.372355
0.105751
0.398415
0.159493
0.393716
0.212312
0.379527
0.263763
0.282858
0.392228
0.335741
0.358607
0.384115
0.41177
0.438651
0.467002
0.394873
0.523552
0.556394
0.380368
0.614759
0.652449
0.692264
0.383707
0.755875
0.801217
0.849041
0.386768
0.919434
0.973537
0.376013
1.04865
1.10969
1.17405
0.385262
1.25907
1.33139
1.4077
0.399563
1.50484
1.59062
1.68101
0.420593
1.79302
1.89418
2.00122
0.450848
2.13114
2.25089
2.37731
0.492013
2.529
2.67056
2.81981
2.97711
0.571992
3.16525
3.3415
3.52751
3.72359
0.686236
3.95815
4.17797
4.40955
4.65399
4.91193
0.8469
5.21968
5.50818
5.81274
6.13369
6.47232
6.82964
1.01092
7.24952
7.64966
5.57687
6.13668
6.74959
7.4245
8.16518
8.98179
9.87924
1.02962
10.8773
11.9606
13.1491
14.4562
15.9041
17.5152
)
;
    }
    procBoundary0to4
    {
        type            processor;
        value           nonuniform List<scalar> 
72
(
0.155218
0.157911
0.161013
0.164436
0.168235
0.172414
0.176944
0.181728
0.186936
0.192474
0.198362
0.204621
0.21127
0.2183
0.225763
0.233676
0.242004
0.250797
0.260136
0.269953
0.280341
0.291293
-1.42363
0.206646
0.213573
0.220882
0.228632
0.236756
0.245356
0.254464
0.264031
0.274134
0.284798
0.296047
0.307924
0.320436
0.333649
0.34761
0.362315
0.377858
0.394294
0.411606
0.429883
0.449215
0.469563
0.491072
0.513758
0.537698
0.562966
0.589659
0.617832
0.647664
0.679131
0.71237
0.747618
0.784731
0.824005
0.865526
0.909254
0.655714
0.719527
0.789329
0.865858
0.949798
1.04183
1.14298
1.25364
1.37529
1.50846
1.65476
1.81457
1.98981
)
;
    }
    procBoundary0to5
    {
        type            processor;
        value           nonuniform List<scalar> 4(0.212676 0.213867 0.224364 0.273319);
    }
}


// ************************************************************************* //
