/*--------------------------------*- C++ -*----------------------------------*\
| =========                 |                                                 |
| \\      /  F ield         | OpenFOAM: The Open Source CFD Toolbox           |
|  \\    /   O peration     | Version:  2506                                  |
|   \\  /    A nd           | Website:  www.openfoam.com                      |
|    \\/     M anipulation  |                                                 |
\*---------------------------------------------------------------------------*/
FoamFile
{
    version     2.0;
    format      ascii;
    arch        "LSB;label=32;scalar=64";
    class       volScalarField;
    location    "100";
    object      p;
}
// * * * * * * * * * * * * * * * * * * * * * * * * * * * * * * * * * * * * * //

dimensions      [0 2 -2 0 0 0 0];

internalField   nonuniform List<scalar> 
1340
(
114.913
130.75
145.334
159.995
173.833
107.724
122.424
135.962
149.645
162.629
173.64
100.813
114.521
127.144
139.966
152.192
162.64
171.317
94.2259
107.052
118.869
130.919
142.467
152.402
160.74
166.961
87.9806
100.018
111.114
122.471
133.404
142.866
150.878
156.957
160.719
82.0821
93.408
103.853
114.581
124.955
133.976
141.674
147.601
151.378
153.085
76.5255
87.2064
97.0596
107.213
117.07
125.68
133.077
138.844
142.609
144.445
71.303
81.3933
90.7063
100.331
109.708
117.933
125.039
130.641
134.373
136.3
136.641
66.4016
75.9479
84.7638
93.8988
102.83
110.69
117.517
122.951
126.632
128.622
129.13
61.8063
70.8498
79.2056
87.8863
96.3984
103.914
110.473
115.737
119.354
121.381
122.021
121.471
57.5026
66.0785
74.0073
82.2638
90.3823
97.5701
103.871
108.964
112.507
114.553
115.296
114.926
53.4748
61.6154
69.1448
77.0037
84.7512
91.6279
97.6793
102.602
106.064
108.112
108.936
108.715
49.7079
57.4409
64.5957
72.0806
79.4777
86.058
91.8698
96.6241
99.9991
102.037
102.921
102.824
101.955
46.1872
53.5368
60.3409
67.4732
74.5374
80.8353
86.416
91.0042
94.2874
96.3045
97.2347
97.2407
96.5229
42.8984
49.8871
56.3604
63.1601
69.9088
75.9365
81.2938
85.7182
88.9072
90.8965
91.8592
91.9506
91.3625
90.2445
39.8274
46.4761
52.6374
59.1218
65.5698
71.3391
76.4807
80.7454
83.8388
85.7941
86.7783
86.9405
86.4642
85.4953
36.9615
43.2888
49.1549
55.3401
61.5013
67.0233
71.9573
76.0652
79.0631
80.9794
81.9768
82.1975
81.8177
80.9796
34.2886
40.3112
45.8977
51.7984
57.6863
62.9714
67.7054
71.6605
74.562
76.4363
77.44
77.7093
77.4128
76.6888
75.6252
31.7964
37.53
42.8515
48.4818
54.1086
59.1666
63.708
67.5139
70.3201
72.1494
73.1538
73.4631
73.2391
72.6164
71.6789
29.4736
34.9334
40.003
45.3754
50.7525
55.5933
59.9488
63.6103
66.3215
68.1044
69.105
69.4475
69.2865
68.7523
67.9292
27.3109
32.5095
37.3395
42.4662
47.6049
52.2371
56.4137
59.9347
62.5529
64.2879
65.281
65.6504
65.5445
65.0895
64.3664
63.4378
25.2972
30.248
34.85
39.742
44.6525
49.0848
53.0887
56.4738
59.0006
60.6876
61.6702
62.0617
62.0039
61.6189
60.9853
60.1646
28.1386
32.5236
37.1913
41.8832
46.1236
49.9617
53.2146
55.6527
57.2909
58.261
58.6703
58.655
58.3326
57.779
57.0539
56.1834
26.1721
30.3499
34.8033
39.2857
43.3423
47.0204
50.1463
52.4968
54.0872
55.0428
55.4668
55.4884
55.2213
54.7401
54.1012
53.3315
24.3395
28.3197
32.5682
36.8501
40.7297
44.2544
47.2565
49.5228
51.0652
52.0052
52.4404
52.495
52.278
51.8612
51.2998
50.6218
22.6324
26.4238
30.4764
34.566
38.2763
41.6526
44.5361
46.7196
48.2151
49.1381
49.5829
49.6663
49.4942
49.1354
48.6448
48.0469
47.3532
21.043
24.6542
28.5193
32.4248
35.9719
39.2062
41.9741
44.0781
45.527
46.4328
46.8843
46.9937
46.8619
46.5561
46.1278
45.6039
44.9932
19.5638
23.0029
26.6885
30.4173
33.8085
36.9052
39.5626
41.5885
42.9922
43.8797
44.3368
44.4689
44.3735
44.1151
43.7441
43.2856
42.7509
18.1878
21.4625
24.9763
28.5362
31.777
34.7423
37.2919
39.2431
40.6018
41.471
41.9312
42.0836
42.0213
41.806
41.4863
41.0875
40.6193
40.0848
16.9085
20.0261
23.3755
26.7729
29.8703
32.7083
35.1551
37.0328
38.3481
39.1983
39.6608
39.8308
39.7979
39.6217
39.3485
39.0029
38.5958
38.1286
15.7197
18.6871
21.8792
25.1214
28.0802
30.7968
33.1434
34.9509
36.2233
37.0544
37.5172
37.7029
37.6967
37.5556
37.3241
37.0268
36.6733
36.2683
14.6155
17.4393
20.481
23.574
26.4006
28.9996
31.2506
32.9894
34.2203
35.032
35.4945
35.6935
35.7107
35.6014
35.4077
35.153
34.8491
34.4975
34.0949
13.5903
16.277
19.1746
22.1251
24.8242
27.311
29.469
31.1422
32.3321
33.1245
33.585
33.7956
33.8342
33.7531
33.5931
33.3774
33.1162
32.8142
32.4654
12.6391
15.1948
17.9544
20.768
23.3455
25.7237
27.7932
29.4018
30.5524
31.3253
31.7835
32.0037
32.0607
32.0051
31.8754
31.6935
31.4718
31.212
30.9133
11.7568
14.1873
16.8149
19.4976
21.9577
24.2324
26.2156
27.7632
28.8747
29.6284
30.0828
30.3114
30.3852
30.352
30.249
30.0982
29.9096
29.6895
29.4323
29.133
10.939
13.2497
15.751
18.308
20.6563
22.8307
24.7317
26.2191
27.2934
28.0277
28.4784
28.7136
28.8016
28.7886
28.7095
28.5854
28.4282
28.2405
28.0223
27.7651
10.1811
12.3775
14.7579
17.1948
19.4349
21.5138
23.3348
24.7651
25.8026
26.5179
26.9634
27.2044
27.3052
27.3098
27.2518
27.1522
27.0205
26.8637
26.6777
26.4594
9.47931
11.5664
13.831
16.1524
18.2897
20.2758
22.0206
23.3947
24.3969
25.0932
25.5336
25.7788
25.8906
25.9111
25.8719
25.793
25.686
25.5536
25.398
25.2121
24.9892
8.82967
10.8123
12.9661
15.1772
17.2149
19.1127
20.7831
22.1039
23.071
23.7486
24.1828
24.4316
24.5532
24.5875
24.565
24.5054
24.4179
24.3099
24.1784
24.0217
23.8312
8.22861
10.1115
12.1592
14.2642
16.2071
18.0192
19.6188
20.8867
21.8204
22.4791
22.9073
23.1582
23.288
23.3348
23.3272
23.2837
23.2156
23.1259
23.0176
22.885
22.7236
7.67272
9.4603
11.4066
13.4104
15.2615
16.9921
18.5222
19.7402
20.6404
21.2806
21.7014
21.9539
22.0909
22.1484
22.1539
22.1256
22.0725
22.0018
21.9116
21.8009
21.6646
7.15905
8.85555
10.7049
12.6113
14.3753
16.0264
17.4907
18.659
19.5272
20.1485
20.562
20.8149
20.9575
21.0245
21.0417
21.0259
20.9879
20.9313
20.8582
20.7664
20.6518
20.5075
6.68447
8.29408
10.0507
11.8643
13.5439
15.1196
16.5194
17.6406
18.4767
19.0793
19.4844
19.7369
19.8843
19.9592
19.9862
19.9822
19.9558
19.9128
19.854
19.7791
19.6835
19.562
6.24635
7.77299
9.44105
11.1654
12.7649
14.2673
15.6058
16.6803
17.4856
18.0693
18.466
18.7169
18.8675
18.9492
18.9849
18.9903
18.9746
18.9429
18.8975
18.8365
18.7585
18.6556
5.84198
7.28948
8.87292
10.5123
12.0342
13.4671
14.7455
15.7758
16.5503
17.1153
17.5025
17.7513
17.9044
17.9913
18.0341
18.0477
18.0412
18.0199
17.9848
17.9377
17.8729
17.7878
5.46905
6.84099
8.34356
9.90126
11.3495
12.7147
13.9362
14.9226
15.6677
16.2138
16.5917
16.8373
16.9915
17.0827
17.1314
17.1521
17.1536
17.1405
17.1161
17.0781
17.0268
16.955
16.8576
5.12513
6.42491
7.85022
9.33012
10.7069
12.0079
13.1734
14.1185
14.834
15.3618
15.7295
15.9716
16.1265
16.2208
16.2743
16.3008
16.3088
16.3036
16.2862
16.2588
16.2167
16.1582
16.0753
4.80803
6.03894
7.39039
8.79534
10.1044
11.3427
12.4553
13.3591
14.0464
14.5558
14.9138
15.1517
15.3063
15.403
15.4604
15.4918
15.5055
15.5058
15.4963
15.475
15.443
15.3946
15.3255
4.51562
5.6808
6.96167
8.29522
9.53837
10.7173
11.7777
12.6425
13.3016
13.793
14.1408
14.3745
14.5284
14.6267
14.6871
14.7225
14.7406
14.7466
14.7416
14.7283
14.7027
14.6641
14.6057
4.24615
5.34856
6.56195
7.82664
9.00726
10.1281
11.1389
11.965
12.597
13.0706
13.4087
13.6375
13.79
13.8894
13.9522
13.9907
14.0128
14.0225
14.0234
14.0141
13.9961
13.9646
13.9171
3.9978
5.04034
6.1893
7.38833
8.50808
9.57381
10.5357
11.3251
11.9297
12.386
12.714
12.9381
13.089
13.1887
13.2533
13.2944
13.3194
13.3332
13.3371
13.3339
13.3202
13.2965
13.2566
13.1976
3.76914
4.75458
5.84202
6.97771
8.03974
9.05152
9.96681
10.7196
11.2975
11.7368
12.0554
12.2742
12.4229
12.5228
12.5886
12.6318
12.6594
12.6756
12.684
12.6834
12.6759
12.657
12.6252
12.5748
3.55868
4.48972
5.51847
6.59381
7.59969
8.56022
9.42935
10.1473
10.6981
11.1211
11.4301
11.6436
11.79
11.8894
11.9561
12.0007
12.0302
12.0493
12.0595
12.0637
12.059
12.0463
12.0205
11.9788
3.36511
4.24437
5.2173
6.23444
7.18723
8.09745
8.92238
9.60532
10.1292
10.5367
10.8371
11.0446
11.1879
11.2868
11.354
11.3999
11.4311
11.4516
11.465
11.4707
11.4707
11.4615
11.4421
11.4073
3.18693
4.01713
4.93713
5.89914
6.80062
7.66307
8.444
9.0931
9.5877
9.98117
10.2732
10.4748
10.615
10.7129
10.7806
10.8273
10.8596
10.882
10.8963
10.9054
10.9072
10.9028
10.888
10.8606
3.02319
3.80689
4.67685
5.58583
6.43905
7.25459
7.99391
8.60884
9.07163
9.45213
9.7372
9.93226
10.0688
10.1661
10.2342
10.2817
10.3151
10.3382
10.3547
10.3644
10.3695
10.3675
10.3576
10.3363
2.87349
3.61299
4.43459
5.29244
6.09806
6.86788
7.5663
8.14864
8.58115
8.95194
9.22916
9.41656
9.54938
9.64577
9.71394
9.76191
9.7959
9.82031
9.8371
9.84893
9.85496
9.85589
9.84968
9.83417
9.80697
2.73722
3.43419
4.20884
5.01591
5.77497
6.4974
7.15617
7.70265
8.11039
8.48142
8.75068
8.92696
9.05548
9.15144
9.21999
9.26845
9.30342
9.32843
9.34664
9.35869
9.3662
9.36866
9.36591
9.35496
9.33432
2.63111
3.29322
4.02989
4.78979
5.50068
6.16631
6.76258
7.23273
7.58542
8.01415
8.30406
8.48246
8.61749
8.7224
8.79761
8.85123
8.89045
8.91951
8.94069
8.95591
8.96601
8.97194
8.97247
8.9667
8.95133
2.54521
3.17766
3.87922
4.59333
5.25425
5.85433
6.37451
6.75023
7.03522
7.54899
7.88092
8.07151
8.22005
8.33943
8.42593
8.48783
8.53382
8.5686
8.59482
8.61442
8.62891
8.63853
8.64391
8.64243
8.63263
2.46036
3.06324
3.72946
4.39831
5.00991
5.5457
5.99254
6.28107
6.5009
7.08324
7.45721
7.66039
7.8197
7.95205
8.0494
8.1194
8.17193
8.21229
8.2435
8.26769
8.28614
8.30034
8.30936
8.3128
8.30755
2.37716
2.95075
3.5817
4.20579
4.76991
5.24134
5.61959
5.82548
5.98462
6.6171
7.03222
7.24975
7.41802
7.56123
7.66843
7.74627
7.80517
7.85109
7.88715
7.91571
7.93879
7.95666
7.97054
7.97815
7.97786
2.2963
2.84115
3.4372
4.01774
4.53524
4.94321
5.25684
5.3822
5.48453
6.15069
6.60379
6.83833
7.01595
7.16891
7.28477
7.36913
7.43363
7.48487
7.52608
7.55971
7.58702
7.61002
7.62793
7.64071
7.64507
2.21872
2.73571
3.29736
3.83558
4.30813
4.65274
4.90663
4.94932
4.99695
5.68404
6.17088
6.42325
6.61119
6.77553
6.90139
6.99223
7.06063
7.11516
7.16015
7.19779
7.23025
7.25761
7.28128
7.29929
7.30949
2.14569
2.63632
3.16457
3.66247
4.08988
4.37068
4.56674
4.52088
4.51349
5.21653
5.73552
6.00418
6.19941
6.37353
6.51223
6.61458
6.69094
6.74978
6.79706
6.83706
6.87193
6.90376
6.93203
6.95599
6.97182
2.07843
2.54474
3.04142
3.50132
3.88251
4.09647
4.23455
4.08908
4.01968
4.73992
5.29918
5.59152
5.79313
5.96762
6.10789
6.21676
6.30386
6.37449
6.43159
6.47833
6.51871
6.5549
6.589
6.61991
6.64452
6.65918
2.01678
2.46075
2.92844
3.35441
3.68877
3.83921
3.92185
3.65475
3.50257
4.2342
4.83905
5.17468
5.41014
5.60316
5.74261
5.83766
5.90926
5.97066
6.02592
6.07583
6.12122
6.16384
6.20466
6.24334
6.27601
6.30037
1.96169
2.38528
2.82707
3.22349
3.51428
3.61674
3.6484
3.21898
2.96183
3.69603
4.31718
4.6734
4.95176
5.20998
5.41728
5.56134
5.65418
5.71279
5.75209
5.78275
5.81148
5.84252
5.87836
5.91664
5.94968
5.97053
1.92107
2.33031
2.75148
3.11927
3.36373
3.4212
3.36412
2.71815
2.38809
3.18312
3.82094
4.13963
4.35271
4.55329
4.74864
4.93852
5.11995
5.28233
5.41685
5.52193
5.60166
5.66247
5.71357
5.76919
5.84007
5.918
1.90606
2.31561
2.72638
3.06271
3.24195
3.20459
2.92734
2.02517
1.69892
2.67916
3.51706
4.01915
4.30989
4.4398
4.43153
4.34101
4.2281
4.13889
4.09125
4.08473
4.11235
4.16719
4.23666
4.29205
4.3033
4.28547
1.90561
2.32641
2.73743
3.04736
3.15832
2.9908
2.41324
1.28519
0.782365
1.69851
2.68643
3.63612
4.54135
5.38756
6.09427
6.62364
6.99263
7.21716
7.3322
7.37632
7.38208
7.37534
7.39457
7.50086
7.71788
7.9546
)
;

boundaryField
{
    inlet
    {
        type            freestreamPressure;
        freestreamValue uniform 0;
        value           nonuniform List<scalar> 
26
(
1.89633
2.31508
2.72411
3.03252
3.14294
2.97623
2.40149
1.27893
0.445328
0.966269
1.52742
2.06627
2.57948
3.05897
3.45918
3.75871
3.96726
4.09388
4.15841
4.18273
4.18528
4.18074
4.19086
4.25028
4.37244
4.50576
)
;
    }
    outlet
    {
        type            freestreamPressure;
        freestreamValue nonuniform List<scalar> 0();
        value           nonuniform List<scalar> 0();
    }
    walls
    {
        type            zeroGradient;
    }
    frontAndBack
    {
        type            empty;
    }
    procBoundary0to1
    {
        type            processor;
        value           nonuniform List<scalar> 
94
(
185.85
185.467
185.467
182.671
182.671
177.665
177.665
170.672
170.672
162.25
162.25
152.954
144.575
144.575
135.616
128.363
128.363
119.973
113.672
107.668
107.668
100.47
95.2337
95.2337
88.6916
84.126
79.772
79.772
74.2895
70.4957
66.8781
66.8781
62.3269
59.1785
59.1785
55.1726
52.4386
49.832
49.832
46.5596
44.2961
42.1376
42.1376
39.472
37.5944
35.8017
35.8017
33.6273
32.0613
30.5625
30.5625
28.7773
27.4602
26.1978
26.1978
24.7162
23.5973
22.5235
21.4938
21.4938
20.3207
19.4019
18.5198
17.6709
17.6709
16.724
15.9618
15.2278
14.5234
13.846
13.846
13.1161
12.5055
11.9188
11.3569
10.8179
10.3019
10.3019
9.76833
9.30274
8.92643
8.61295
8.29328
7.96795
7.64033
7.30981
6.97779
6.97779
6.66385
6.31632
5.97885
5.99065
4.26357
8.14246
)
;
    }
    procBoundary0to4
    {
        type            processor;
        value           nonuniform List<scalar> 
72
(
97.0526
91.1835
85.4296
79.8629
74.5282
69.4493
64.6369
60.0929
55.8135
51.7927
48.0216
44.4893
41.1852
38.0976
35.2155
32.5279
30.0239
27.6927
25.5245
23.5096
21.6385
19.9026
23.4249
23.4249
21.6839
20.0664
18.5647
17.1711
15.879
14.6818
13.5732
12.5474
11.599
10.7227
9.91363
9.16718
8.47898
7.84507
7.26145
6.72472
6.2314
5.77847
5.3628
4.98183
4.63283
4.3136
4.02162
3.75498
3.51146
3.28936
3.08667
2.90205
2.7339
2.58117
2.44226
2.31606
2.2014
2.09853
2.00673
1.93538
1.87849
1.82311
1.76929
1.71765
1.6685
1.62245
1.57964
1.5404
1.50578
1.47845
1.45872
1.43998
)
;
    }
    procBoundary0to5
    {
        type            processor;
        value           nonuniform List<scalar> 4(122.296 139.449 155.248 171.035);
    }
}


// ************************************************************************* //
