/*--------------------------------*- C++ -*----------------------------------*\
| =========                 |                                                 |
| \\      /  F ield         | OpenFOAM: The Open Source CFD Toolbox           |
|  \\    /   O peration     | Version:  2506                                  |
|   \\  /    A nd           | Website:  www.openfoam.com                      |
|    \\/     M anipulation  |                                                 |
\*---------------------------------------------------------------------------*/
FoamFile
{
    version     2.0;
    format      ascii;
    arch        "LSB;label=32;scalar=64";
    class       volScalarField;
    location    "100";
    object      turbulenceProperties:epsilon;
}
// * * * * * * * * * * * * * * * * * * * * * * * * * * * * * * * * * * * * * //

dimensions      [0 2 -3 0 0 0 0];

internalField   nonuniform List<scalar> 
1340
(
0.000157565
0.000153752
0.000149887
0.000145326
0.000138931
0.0001126
0.000109787
0.000107037
0.000103886
9.95032e-05
9.48305e-05
8.1614e-05
7.95735e-05
7.76061e-05
7.54e-05
7.23326e-05
6.91084e-05
6.56125e-05
5.99233e-05
5.84467e-05
5.70079e-05
5.54271e-05
5.32363e-05
5.09649e-05
4.85103e-05
4.58598e-05
4.45104e-05
4.34074e-05
4.23187e-05
4.11471e-05
3.95676e-05
3.79475e-05
3.62086e-05
3.43425e-05
3.24216e-05
3.33743e-05
3.2516e-05
3.1664e-05
3.07758e-05
2.96306e-05
2.84674e-05
2.72287e-05
2.59093e-05
2.45668e-05
2.3229e-05
2.51978e-05
2.4513e-05
2.38345e-05
2.31583e-05
2.23248e-05
2.14848e-05
2.05977e-05
1.96617e-05
1.8719e-05
1.77822e-05
1.91188e-05
1.85728e-05
1.80379e-05
1.75241e-05
1.69134e-05
1.63007e-05
1.56606e-05
1.49931e-05
1.43282e-05
1.36726e-05
1.30264e-05
1.45665e-05
1.41387e-05
1.37258e-05
1.33379e-05
1.28845e-05
1.2432e-05
1.19636e-05
1.14835e-05
1.10105e-05
1.05492e-05
1.00939e-05
1.1146e-05
1.08187e-05
1.05051e-05
1.02116e-05
9.87089e-06
9.53117e-06
9.1832e-06
8.833e-06
8.4932e-06
8.16496e-06
7.84473e-06
7.53024e-06
8.57049e-06
8.32368e-06
8.08545e-06
7.86142e-06
7.60298e-06
7.34414e-06
7.08248e-06
6.82341e-06
6.57555e-06
6.33929e-06
6.11183e-06
5.88875e-06
6.62377e-06
6.43688e-06
6.25386e-06
6.0806e-06
5.88322e-06
5.68461e-06
5.486e-06
5.29226e-06
5.10941e-06
4.93736e-06
4.77399e-06
4.61402e-06
5.14265e-06
4.99859e-06
4.85563e-06
4.72035e-06
4.56874e-06
4.41631e-06
4.26513e-06
4.1193e-06
3.9831e-06
3.85646e-06
3.73743e-06
3.62304e-06
3.51073e-06
4.00693e-06
3.89343e-06
3.78073e-06
3.67492e-06
3.5579e-06
3.44091e-06
3.32573e-06
3.21539e-06
3.11351e-06
3.01965e-06
2.93229e-06
2.84933e-06
2.76785e-06
3.13003e-06
3.0394e-06
2.95081e-06
2.86808e-06
2.77739e-06
2.68731e-06
2.59936e-06
2.51563e-06
2.43896e-06
2.369e-06
2.30451e-06
2.24382e-06
2.18498e-06
2.12702e-06
2.44982e-06
2.37747e-06
2.30814e-06
2.24349e-06
2.17286e-06
2.10318e-06
2.03562e-06
1.97188e-06
1.91399e-06
1.86155e-06
1.81368e-06
1.76898e-06
1.726e-06
1.68354e-06
1.92088e-06
1.86353e-06
1.80939e-06
1.75874e-06
1.7035e-06
1.64929e-06
1.5971e-06
1.54826e-06
1.50422e-06
1.46469e-06
1.42892e-06
1.39584e-06
1.36423e-06
1.33287e-06
1.50906e-06
1.46375e-06
1.42142e-06
1.38156e-06
1.33819e-06
1.2958e-06
1.25521e-06
1.21753e-06
1.18382e-06
1.15381e-06
1.12685e-06
1.10215e-06
1.07869e-06
1.05573e-06
1.03272e-06
1.18798e-06
1.15194e-06
1.11871e-06
1.08725e-06
1.05311e-06
1.01981e-06
9.88133e-07
9.58843e-07
9.32851e-07
9.09857e-07
8.89362e-07
8.70748e-07
8.532e-07
8.36131e-07
8.19104e-07
9.36809e-07
9.08069e-07
8.81876e-07
8.5698e-07
8.30012e-07
8.038e-07
7.78987e-07
7.56107e-07
7.3592e-07
7.18158e-07
7.02455e-07
6.88317e-07
6.7502e-07
6.62255e-07
6.49401e-07
7.3979e-07
7.16838e-07
6.96109e-07
6.76412e-07
6.55047e-07
6.34375e-07
6.14862e-07
5.96917e-07
5.81144e-07
5.67334e-07
5.55181e-07
5.44297e-07
5.34188e-07
5.24542e-07
5.14891e-07
5.05045e-07
5.84903e-07
5.6658e-07
5.50151e-07
5.34547e-07
5.17609e-07
5.01249e-07
4.85849e-07
4.71721e-07
4.59327e-07
4.48512e-07
4.39033e-07
4.30608e-07
4.22812e-07
4.15381e-07
4.08194e-07
4.00573e-07
4.48311e-07
4.35299e-07
4.22924e-07
4.09473e-07
3.96492e-07
3.84299e-07
3.73126e-07
3.63343e-07
3.5482e-07
3.47361e-07
3.40759e-07
3.34696e-07
3.28975e-07
3.23405e-07
3.17611e-07
3.1151e-07
3.55091e-07
3.44803e-07
3.34963e-07
3.24265e-07
3.13954e-07
3.04266e-07
2.95393e-07
2.87637e-07
2.80878e-07
2.74973e-07
2.69758e-07
2.64983e-07
2.60514e-07
2.56171e-07
2.51732e-07
2.46993e-07
2.8153e-07
2.73368e-07
2.65542e-07
2.57028e-07
2.48827e-07
2.41116e-07
2.34056e-07
2.27872e-07
2.22483e-07
2.17774e-07
2.13607e-07
2.09815e-07
2.06307e-07
2.02875e-07
1.99396e-07
1.95709e-07
2.23387e-07
2.16896e-07
2.10666e-07
2.03893e-07
1.97364e-07
1.91222e-07
1.85592e-07
1.80647e-07
1.76335e-07
1.72557e-07
1.69212e-07
1.66181e-07
1.63358e-07
1.60638e-07
1.57895e-07
1.55031e-07
1.52057e-07
1.77364e-07
1.72193e-07
1.67234e-07
1.61844e-07
1.56649e-07
1.51756e-07
1.47257e-07
1.43301e-07
1.39838e-07
1.36794e-07
1.34094e-07
1.31647e-07
1.29382e-07
1.27204e-07
1.25005e-07
1.22761e-07
1.20432e-07
1.40897e-07
1.36772e-07
1.32824e-07
1.28537e-07
1.24403e-07
1.205e-07
1.16908e-07
1.13735e-07
1.10952e-07
1.08494e-07
1.06309e-07
1.04324e-07
1.02485e-07
1.00725e-07
9.89565e-08
9.71817e-08
9.53358e-08
1.11975e-07
1.08684e-07
1.05539e-07
1.02131e-07
9.88417e-08
9.57314e-08
9.2859e-08
9.03156e-08
8.8074e-08
8.60828e-08
8.43071e-08
8.26958e-08
8.11968e-08
7.97639e-08
7.83408e-08
7.69161e-08
7.54561e-08
7.39567e-08
8.90192e-08
8.63981e-08
8.38918e-08
8.11845e-08
7.85683e-08
7.60872e-08
7.3791e-08
7.17513e-08
6.99424e-08
6.83293e-08
6.68854e-08
6.55684e-08
6.43443e-08
6.31748e-08
6.2026e-08
6.08772e-08
5.97268e-08
5.85314e-08
7.07913e-08
6.8705e-08
6.67099e-08
6.45596e-08
6.24791e-08
6.05012e-08
5.86662e-08
5.70283e-08
5.5569e-08
5.42609e-08
5.30812e-08
5.20039e-08
5.10032e-08
5.00471e-08
4.91143e-08
4.81851e-08
4.72623e-08
4.63124e-08
5.63105e-08
5.46514e-08
5.30655e-08
5.13577e-08
4.97057e-08
4.81303e-08
4.66633e-08
4.5348e-08
4.41693e-08
4.31061e-08
4.21428e-08
4.126e-08
4.04382e-08
3.96562e-08
3.88951e-08
3.81437e-08
3.74019e-08
3.66422e-08
3.58566e-08
4.48008e-08
4.34822e-08
4.22221e-08
4.08696e-08
3.9559e-08
3.83052e-08
3.71337e-08
3.60783e-08
3.51273e-08
3.42615e-08
3.34719e-08
3.27469e-08
3.20728e-08
3.14319e-08
3.08108e-08
3.0204e-08
2.96054e-08
2.90059e-08
2.83863e-08
3.56476e-08
3.46011e-08
3.36002e-08
3.25328e-08
3.14955e-08
3.04993e-08
2.95656e-08
2.87191e-08
2.79503e-08
2.72462e-08
2.65996e-08
2.60039e-08
2.5448e-08
2.49226e-08
2.44151e-08
2.39239e-08
2.3441e-08
2.29629e-08
2.2473e-08
2.83654e-08
2.75358e-08
2.67425e-08
2.59029e-08
2.50833e-08
2.42938e-08
2.35511e-08
2.28735e-08
2.22542e-08
2.16809e-08
2.11498e-08
2.06594e-08
2.02029e-08
1.97704e-08
1.93561e-08
1.89549e-08
1.85637e-08
1.81825e-08
1.77922e-08
1.73868e-08
2.25694e-08
2.19128e-08
2.12863e-08
2.06268e-08
1.99818e-08
1.93581e-08
1.87697e-08
1.8229e-08
1.77296e-08
1.72632e-08
1.68286e-08
1.6425e-08
1.60482e-08
1.56925e-08
1.53523e-08
1.50248e-08
1.47114e-08
1.44044e-08
1.40989e-08
1.37747e-08
1.79549e-08
1.74364e-08
1.69432e-08
1.64275e-08
1.59215e-08
1.54308e-08
1.49662e-08
1.45359e-08
1.41346e-08
1.37558e-08
1.33994e-08
1.30676e-08
1.27577e-08
1.24641e-08
1.21854e-08
1.19186e-08
1.16633e-08
1.14182e-08
1.11725e-08
1.09187e-08
1.42808e-08
1.38724e-08
1.34854e-08
1.30838e-08
1.26883e-08
1.23041e-08
1.19392e-08
1.1598e-08
1.12762e-08
1.0969e-08
1.0678e-08
1.04056e-08
1.015e-08
9.90846e-09
9.67887e-09
9.46022e-09
9.2536e-09
9.0543e-09
8.86055e-09
8.66647e-09
8.46354e-09
1.13554e-08
1.10343e-08
1.07322e-08
1.0421e-08
1.01131e-08
9.81383e-09
9.52873e-09
9.25932e-09
9.00205e-09
8.75366e-09
8.51608e-09
8.29307e-09
8.08366e-09
7.88455e-09
7.69629e-09
7.51787e-09
7.34844e-09
7.18918e-09
7.03741e-09
6.88734e-09
6.72927e-09
9.02613e-09
8.77452e-09
8.53979e-09
8.2997e-09
8.06148e-09
7.8297e-09
7.60842e-09
7.3964e-09
7.19115e-09
6.99103e-09
6.79816e-09
6.6163e-09
6.44468e-09
6.28185e-09
6.12751e-09
5.98156e-09
5.84503e-09
5.71665e-09
5.59721e-09
5.4798e-09
5.35734e-09
7.17145e-09
6.97507e-09
6.79384e-09
6.6099e-09
6.42634e-09
6.24837e-09
6.07768e-09
5.91151e-09
5.74835e-09
5.58754e-09
5.43148e-09
5.2839e-09
5.14471e-09
5.01175e-09
4.88606e-09
4.76768e-09
4.65581e-09
4.55507e-09
4.46157e-09
4.36835e-09
4.27211e-09
5.69489e-09
5.54215e-09
5.4033e-09
5.26327e-09
5.12302e-09
4.98772e-09
4.85697e-09
4.72723e-09
4.5978e-09
4.46918e-09
4.34379e-09
4.22492e-09
4.11216e-09
4.00469e-09
3.90302e-09
3.80682e-09
3.71937e-09
3.63965e-09
3.56345e-09
3.48897e-09
3.41237e-09
3.33252e-09
4.51947e-09
4.40107e-09
4.29575e-09
4.19015e-09
4.08399e-09
3.98237e-09
3.8831e-09
3.78212e-09
3.67996e-09
3.57753e-09
3.47721e-09
3.38197e-09
3.29175e-09
3.20523e-09
3.1231e-09
3.0474e-09
2.97764e-09
2.91206e-09
2.8506e-09
2.79062e-09
2.73163e-09
2.67184e-09
3.58383e-09
3.49264e-09
3.41369e-09
3.33485e-09
3.25556e-09
3.18045e-09
3.10586e-09
3.02758e-09
2.94723e-09
2.86619e-09
2.78657e-09
2.71081e-09
2.63868e-09
2.56919e-09
2.50412e-09
2.44341e-09
2.38614e-09
2.33313e-09
2.28329e-09
2.23612e-09
2.19115e-09
2.14624e-09
2.83928e-09
2.76958e-09
2.71131e-09
2.6533e-09
2.59496e-09
2.54069e-09
2.48529e-09
2.42496e-09
2.36229e-09
2.29863e-09
2.23567e-09
2.17557e-09
2.11817e-09
2.06268e-09
2.01023e-09
1.96069e-09
1.91434e-09
1.87117e-09
1.83138e-09
1.79512e-09
1.76097e-09
1.72652e-09
2.24708e-09
2.19425e-09
2.15212e-09
2.11013e-09
2.06825e-09
2.03022e-09
1.98967e-09
1.94353e-09
1.89516e-09
1.84563e-09
1.79612e-09
1.74842e-09
1.70238e-09
1.65759e-09
1.61504e-09
1.5749e-09
1.53695e-09
1.502e-09
1.47059e-09
1.44193e-09
1.41557e-09
1.38902e-09
1.35897e-09
1.77627e-09
1.73661e-09
1.70705e-09
1.67732e-09
1.64825e-09
1.62282e-09
1.5936e-09
1.55876e-09
1.52212e-09
1.48394e-09
1.44492e-09
1.40675e-09
1.36952e-09
1.33298e-09
1.29816e-09
1.26515e-09
1.23423e-09
1.20598e-09
1.18052e-09
1.15812e-09
1.13748e-09
1.11737e-09
1.09428e-09
1.40217e-09
1.37282e-09
1.35289e-09
1.33243e-09
1.31336e-09
1.29755e-09
1.27695e-09
1.25112e-09
1.22403e-09
1.19484e-09
1.16392e-09
1.13292e-09
1.10222e-09
1.07193e-09
1.04306e-09
1.01591e-09
9.90453e-10
9.67368e-10
9.47122e-10
9.29069e-10
9.12868e-10
8.97514e-10
8.80099e-10
1.1051e-09
1.08375e-09
1.07111e-09
1.05764e-09
1.04627e-09
1.03774e-09
1.02356e-09
1.00504e-09
9.85745e-10
9.63392e-10
9.38325e-10
9.12575e-10
8.86878e-10
8.61456e-10
8.3736e-10
8.14742e-10
7.93793e-10
7.75023e-10
7.5847e-10
7.44288e-10
7.31856e-10
7.19885e-10
7.06554e-10
8.69366e-10
8.54146e-10
8.46949e-10
8.38657e-10
8.33257e-10
8.30032e-10
8.20626e-10
8.0812e-10
7.95042e-10
7.77595e-10
7.566e-10
7.34692e-10
7.12796e-10
6.9132e-10
6.71178e-10
6.52561e-10
6.35424e-10
6.20173e-10
6.07114e-10
5.9589e-10
5.86054e-10
5.77044e-10
5.67146e-10
6.82457e-10
6.71909e-10
6.68696e-10
6.64223e-10
6.63357e-10
6.63873e-10
6.57962e-10
6.50439e-10
6.42207e-10
6.27948e-10
6.09622e-10
5.90639e-10
5.72027e-10
5.54031e-10
5.37423e-10
5.22243e-10
5.08467e-10
4.96374e-10
4.85971e-10
4.77242e-10
4.6975e-10
4.63165e-10
4.55873e-10
4.4571e-10
5.34443e-10
5.27464e-10
5.27091e-10
5.25348e-10
5.27912e-10
5.3086e-10
5.27525e-10
5.24147e-10
5.19414e-10
5.0692e-10
4.90501e-10
4.74166e-10
4.58594e-10
4.4383e-10
4.30413e-10
4.18337e-10
4.07425e-10
3.97879e-10
3.89845e-10
3.83036e-10
3.7737e-10
3.7244e-10
3.67075e-10
3.59278e-10
4.17465e-10
4.13177e-10
4.1472e-10
4.1491e-10
4.19949e-10
4.24283e-10
4.22879e-10
4.22985e-10
4.20602e-10
4.08793e-10
3.93986e-10
3.80369e-10
3.67839e-10
3.56035e-10
3.45364e-10
3.35747e-10
3.27087e-10
3.19551e-10
3.13138e-10
3.07878e-10
3.03457e-10
2.99633e-10
2.95466e-10
2.89303e-10
3.25107e-10
3.228e-10
3.25565e-10
3.27092e-10
3.33856e-10
3.38732e-10
3.38846e-10
3.41794e-10
3.40926e-10
3.29283e-10
3.16223e-10
3.05455e-10
2.95667e-10
2.8624e-10
2.77605e-10
2.69804e-10
2.62728e-10
2.5653e-10
2.51346e-10
2.46992e-10
2.43399e-10
2.40327e-10
2.36805e-10
2.31568e-10
2.52279e-10
2.5144e-10
2.54933e-10
2.57389e-10
2.65252e-10
2.7007e-10
2.71362e-10
2.76276e-10
2.76409e-10
2.65099e-10
2.54095e-10
2.45964e-10
2.38309e-10
2.3048e-10
2.23141e-10
2.16451e-10
2.10379e-10
2.05095e-10
2.00612e-10
1.96957e-10
1.93892e-10
1.91222e-10
1.88195e-10
1.83688e-10
1.95045e-10
1.95289e-10
1.9915e-10
2.02268e-10
2.10774e-10
2.15226e-10
2.17469e-10
2.23448e-10
2.24087e-10
2.13336e-10
2.04574e-10
1.98582e-10
1.92176e-10
1.85195e-10
1.78621e-10
1.72672e-10
1.67299e-10
1.62622e-10
1.5876e-10
1.55549e-10
1.52944e-10
1.5071e-10
1.48038e-10
1.44111e-10
1.50278e-10
1.5122e-10
1.55133e-10
1.58723e-10
1.67433e-10
1.71455e-10
1.74518e-10
1.81559e-10
1.82969e-10
1.71836e-10
1.64656e-10
1.60256e-10
1.54527e-10
1.47999e-10
1.41992e-10
1.36655e-10
1.31867e-10
1.2779e-10
1.24397e-10
1.21726e-10
1.19567e-10
1.17564e-10
1.15229e-10
1.11912e-10
1.07705e-10
1.15935e-10
1.17248e-10
1.20819e-10
1.24535e-10
1.3279e-10
1.36041e-10
1.39267e-10
1.47468e-10
1.52164e-10
1.39372e-10
1.32406e-10
1.29448e-10
1.24405e-10
1.18328e-10
1.12932e-10
1.08258e-10
1.04123e-10
1.00553e-10
9.76724e-11
9.53671e-11
9.33813e-11
9.16088e-11
8.96103e-11
8.6902e-11
8.35745e-11
9.09929e-11
9.23518e-11
9.52557e-11
9.86507e-11
1.05653e-10
1.07504e-10
1.09502e-10
1.19112e-10
1.27125e-10
1.12893e-10
1.0623e-10
1.04662e-10
1.00694e-10
9.54561e-11
9.08502e-11
8.69585e-11
8.34836e-11
8.04917e-11
7.80083e-11
7.5915e-11
7.41639e-11
7.25968e-11
7.0924e-11
6.878e-11
6.6147e-11
7.34233e-11
7.46558e-11
7.68642e-11
7.96413e-11
8.49528e-11
8.50758e-11
8.5781e-11
9.39429e-11
1.0308e-10
9.04286e-11
8.51888e-11
8.4641e-11
8.19468e-11
7.78474e-11
7.41004e-11
7.09216e-11
6.80928e-11
6.56217e-11
6.35253e-11
6.17653e-11
6.02586e-11
5.89242e-11
5.75556e-11
5.57924e-11
5.36263e-11
5.94546e-11
6.05557e-11
6.21912e-11
6.44904e-11
6.83319e-11
6.73122e-11
6.76612e-11
7.31297e-11
8.12714e-11
7.18515e-11
6.82207e-11
6.81384e-11
6.64609e-11
6.34595e-11
6.05323e-11
5.79808e-11
5.56887e-11
5.36775e-11
5.19773e-11
5.05242e-11
4.92623e-11
4.81523e-11
4.69796e-11
4.54704e-11
4.36638e-11
4.7208e-11
4.81554e-11
4.93023e-11
5.12747e-11
5.38407e-11
5.24493e-11
5.29063e-11
5.62368e-11
6.36619e-11
5.73012e-11
5.48163e-11
5.47274e-11
5.35876e-11
5.13784e-11
4.91354e-11
4.71606e-11
4.53717e-11
4.37729e-11
4.23819e-11
4.11892e-11
4.01596e-11
3.92129e-11
3.82092e-11
3.69161e-11
3.53693e-11
3.68823e-11
3.76591e-11
3.84269e-11
4.01484e-11
4.16295e-11
4.04355e-11
4.09694e-11
4.27458e-11
4.97008e-11
4.58347e-11
4.42584e-11
4.41467e-11
4.33409e-11
4.16271e-11
3.98289e-11
3.8307e-11
3.70044e-11
3.58407e-11
3.47917e-11
3.38553e-11
3.29912e-11
3.21798e-11
3.12692e-11
3.00789e-11
2.8671e-11
2.82958e-11
2.88746e-11
2.93403e-11
3.08133e-11
3.1433e-11
3.08624e-11
3.12609e-11
3.22141e-11
3.89804e-11
3.69853e-11
3.60323e-11
3.5968e-11
3.55292e-11
3.42551e-11
3.26732e-11
3.12412e-11
3.0084e-11
2.918e-11
2.84414e-11
2.77666e-11
2.70936e-11
2.63687e-11
2.54718e-11
2.43058e-11
2.29335e-11
2.13306e-11
2.16795e-11
2.18871e-11
2.30447e-11
2.30255e-11
2.32986e-11
2.32979e-11
2.42114e-11
3.10236e-11
3.04096e-11
2.98264e-11
2.96075e-11
2.9315e-11
2.85285e-11
2.74096e-11
2.61274e-11
2.48382e-11
2.37108e-11
2.28175e-11
2.21196e-11
2.14917e-11
2.08107e-11
1.99115e-11
1.86494e-11
1.7115e-11
1.58343e-11
1.59486e-11
1.59264e-11
1.66529e-11
1.61795e-11
1.71792e-11
1.64847e-11
1.81466e-11
2.52457e-11
2.56198e-11
2.55467e-11
2.50895e-11
2.41993e-11
2.30022e-11
2.19946e-11
2.12063e-11
2.04058e-11
1.94541e-11
1.84224e-11
1.74177e-11
1.64724e-11
1.55184e-11
1.43954e-11
1.29979e-11
1.14114e-11
9.80522e-12
1.15443e-11
1.14516e-11
1.12455e-11
1.14978e-11
1.07872e-11
1.21035e-11
1.05547e-11
1.37181e-11
2.11886e-11
2.16237e-11
2.2258e-11
2.20616e-11
2.07309e-11
1.85923e-11
1.64891e-11
1.49575e-11
1.40296e-11
1.34604e-11
1.29456e-11
1.23204e-11
1.15275e-11
1.05415e-11
9.33109e-12
7.92661e-12
6.47419e-12
5.12199e-12
8.24527e-12
7.95021e-12
7.55521e-12
7.4022e-12
6.77295e-12
8.09126e-12
6.18692e-12
1.17275e-11
1.89766e-11
1.83313e-11
1.90333e-11
1.866e-11
1.78561e-11
1.66356e-11
1.4469e-11
1.17756e-11
9.54024e-12
8.30746e-12
8.05661e-12
8.50887e-12
9.33766e-12
1.02183e-11
1.07396e-11
1.06006e-11
1.00315e-11
9.52177e-12
5.93856e-12
5.37897e-12
4.67984e-12
4.16715e-12
3.80401e-12
5.06123e-12
4.08925e-12
1.29819e-11
1.87482e-11
1.94338e-11
2.43438e-11
2.5078e-11
2.2292e-11
1.84379e-11
1.5755e-11
1.5398e-11
1.66866e-11
1.81352e-11
1.89434e-11
1.92505e-11
1.94136e-11
1.98222e-11
2.1023e-11
2.37074e-11
2.80328e-11
3.34042e-11
4.68077e-12
3.84641e-12
2.7762e-12
1.87308e-12
1.55931e-12
2.53495e-12
3.38087e-12
1.41809e-11
1.5752e-11
1.93064e-11
3.02216e-11
4.29152e-11
5.94685e-11
7.93047e-11
9.91128e-11
1.16174e-10
1.29211e-10
1.3956e-10
1.49648e-10
1.61136e-10
1.74752e-10
1.904e-10
2.07402e-10
2.23527e-10
2.35935e-10
2.45341e-10
4.19093e-12
3.22823e-12
1.94297e-12
7.64319e-13
2.90586e-13
1.00392e-12
3.23127e-12
8.52373e-12
1.77184e-11
8.18806e-11
1.83286e-10
3.04475e-10
4.18306e-10
5.08097e-10
5.69657e-10
6.10579e-10
6.41898e-10
6.72469e-10
7.05191e-10
7.3923e-10
7.72342e-10
8.03695e-10
8.34303e-10
8.69751e-10
9.06462e-10
9.37119e-10
)
;

boundaryField
{
    inlet
    {
        type            calculated;
        value           nonuniform List<scalar> 
26
(
3.88942e-12
3.00305e-12
1.79352e-12
6.45792e-13
1.7288e-13
1.04792e-12
4.12401e-12
4.17331e-12
8.26742e-11
3.34282e-10
8.08314e-10
1.46727e-09
2.21717e-09
2.96903e-09
3.65032e-09
4.23499e-09
4.72677e-09
5.14516e-09
5.51555e-09
5.86159e-09
6.20278e-09
6.56211e-09
6.96856e-09
7.44544e-09
7.96086e-09
8.45924e-09
)
;
    }
    outlet
    {
        type            calculated;
        value           nonuniform List<scalar> 0();
    }
    walls
    {
        type            calculated;
        value           nonuniform List<scalar> 0();
    }
    frontAndBack
    {
        type            empty;
    }
    procBoundary0to1
    {
        type            processor;
        value           nonuniform List<scalar> 
94
(
0.00019731
0.000132004
0.000132004
8.97916e-05
8.97916e-05
6.18123e-05
6.18123e-05
4.30918e-05
4.30918e-05
3.04919e-05
3.04919e-05
2.18843e-05
1.68568e-05
1.68568e-05
1.23799e-05
9.64792e-06
9.64792e-06
7.21784e-06
5.67005e-06
4.45884e-06
4.45884e-06
3.39966e-06
2.68842e-06
2.68842e-06
2.06806e-06
1.64091e-06
1.3019e-06
1.3019e-06
1.00886e-06
8.01615e-07
6.3649e-07
6.3649e-07
4.94519e-07
3.92697e-07
3.92697e-07
3.04958e-07
2.42043e-07
1.91929e-07
1.91929e-07
1.48876e-07
1.18004e-07
9.34454e-08
9.34454e-08
7.23302e-08
5.72776e-08
4.53241e-08
4.53241e-08
3.50033e-08
2.7734e-08
2.19575e-08
2.19575e-08
1.69312e-08
1.34223e-08
1.06552e-08
1.06552e-08
8.23117e-09
6.55388e-09
5.22341e-09
4.16799e-09
4.16799e-09
3.23902e-09
2.60179e-09
2.09397e-09
1.68707e-09
1.68707e-09
1.31868e-09
1.0633e-09
8.56251e-10
6.88489e-10
5.53686e-10
5.53686e-10
4.32048e-10
3.48762e-10
2.80813e-10
2.24515e-10
1.77674e-10
1.38921e-10
1.38921e-10
1.03268e-10
8.00916e-11
6.33957e-11
5.13982e-11
4.18407e-11
3.38168e-11
2.72576e-11
2.15654e-11
1.55424e-11
1.55424e-11
8.26555e-12
3.94437e-12
9.32623e-12
3.92354e-11
2.53502e-10
9.60329e-10
)
;
    }
    procBoundary0to4
    {
        type            processor;
        value           nonuniform List<scalar> 
72
(
0.000160453
0.000114914
8.33834e-05
6.12332e-05
4.54764e-05
3.4108e-05
2.57836e-05
1.96018e-05
1.49634e-05
1.14633e-05
8.81707e-06
6.81283e-06
5.28823e-06
4.1214e-06
3.22185e-06
2.52422e-06
1.98114e-06
1.55739e-06
1.22636e-06
9.67361e-07
7.64186e-07
6.04437e-07
4.62867e-07
4.62867e-07
3.6667e-07
2.90736e-07
2.30714e-07
1.83212e-07
1.45564e-07
1.15695e-07
9.19832e-08
7.31496e-08
5.81825e-08
4.62829e-08
3.68197e-08
2.92915e-08
2.33e-08
1.85303e-08
1.4733e-08
1.17099e-08
9.3031e-09
7.38731e-09
5.86263e-09
4.6494e-09
3.68399e-09
2.91609e-09
2.30562e-09
1.82056e-09
1.43535e-09
1.12971e-09
8.87424e-10
6.95542e-10
5.43745e-10
4.2391e-10
3.29436e-10
2.55065e-10
1.9669e-10
1.51129e-10
1.16303e-10
9.11782e-11
7.34908e-11
5.94015e-11
4.70901e-11
3.67391e-11
2.81685e-11
2.12563e-11
1.58355e-11
1.16397e-11
8.45936e-12
6.30239e-12
5.19243e-12
4.77759e-12
)
;
    }
    procBoundary0to5
    {
        type            processor;
        value           nonuniform List<scalar> 4(0.000223734 0.000218759 0.000213409 0.000206815);
    }
}


// ************************************************************************* //
