/*--------------------------------*- C++ -*----------------------------------*\
| =========                 |                                                 |
| \\      /  F ield         | OpenFOAM: The Open Source CFD Toolbox           |
|  \\    /   O peration     | Version:  2506                                  |
|   \\  /    A nd           | Website:  www.openfoam.com                      |
|    \\/     M anipulation  |                                                 |
\*---------------------------------------------------------------------------*/
FoamFile
{
    version     2.0;
    format      ascii;
    arch        "LSB;label=32;scalar=64";
    class       volScalarField;
    location    "250";
    object      magR;
}
// * * * * * * * * * * * * * * * * * * * * * * * * * * * * * * * * * * * * * //

dimensions      [0 2 -2 0 0 0 0];

internalField   nonuniform List<scalar> 
1340
(
31.4324
24.9292
18.4472
4.33593
11.6859
10.4028
9.07611
9.72119
14.8344
12.8905
10.6788
11.9918
15.2007
14.312
12.5417
13.5042
9.78769
12.2312
12.7292
14.1889
2.16773
6.18603
10.0968
13.4934
0.154617
0.971001
5.06204
10.7509
0.0623011
0.115894
1.11189
6.36355
0
0.0351166
0.155422
2.48363
0
0
0.0535929
0.636458
2.28636e-10
0
0.00294307
0.16618
3.25279e-06
0
0.000960068
0.0581519
4.98628e-05
1.49189e-07
0.000299006
0.0192422
9.52496e-05
7.30894e-07
2.87158e-05
0.00478859
8.78042e-05
4.68421e-05
3.6893e-07
0.000277993
6.98272e-05
8.40862e-05
2.50661e-07
1.74037e-05
6.11586e-05
9.1512e-05
1.08841e-06
1.02356e-09
5.96922e-05
7.71619e-05
3.18437e-05
6.85171e-07
6.01277e-05
6.33054e-05
6.0708e-05
8.33984e-06
5.96593e-05
5.61987e-05
6.42569e-05
3.15888e-05
5.79445e-05
5.34002e-05
5.76932e-05
4.76287e-05
5.55819e-05
5.18814e-05
5.13431e-05
5.0997e-05
5.30717e-05
5.01972e-05
4.72144e-05
4.83338e-05
5.06047e-05
4.8095e-05
4.44601e-05
4.44604e-05
4.81978e-05
4.57544e-05
4.21763e-05
4.09486e-05
4.58147e-05
4.33506e-05
3.99561e-05
3.79384e-05
4.34405e-05
4.0971e-05
3.77228e-05
3.52631e-05
4.10777e-05
3.86357e-05
3.55054e-05
3.28066e-05
3.87314e-05
3.63453e-05
3.33312e-05
3.05138e-05
3.6418e-05
3.41077e-05
3.12227e-05
2.83703e-05
3.41492e-05
3.1929e-05
2.91822e-05
2.63633e-05
3.19308e-05
2.98175e-05
2.72212e-05
2.44825e-05
2.97748e-05
2.77752e-05
2.53387e-05
2.27216e-05
2.93689e-05
2.7689e-05
2.58126e-05
2.35375e-05
2.10691e-05
2.72244e-05
2.56796e-05
2.39334e-05
2.18234e-05
1.95188e-05
2.51654e-05
2.37547e-05
2.21399e-05
2.01965e-05
1.8065e-05
2.31989e-05
2.19178e-05
2.04353e-05
1.86566e-05
1.67014e-05
2.13306e-05
2.01736e-05
1.88217e-05
1.72038e-05
1.54232e-05
1.95634e-05
1.85245e-05
1.73002e-05
1.58379e-05
1.42263e-05
1.78999e-05
1.69721e-05
1.58698e-05
1.45567e-05
1.31065e-05
1.63413e-05
1.55169e-05
1.45305e-05
1.33578e-05
1.20599e-05
1.48871e-05
1.41581e-05
1.32804e-05
1.22393e-05
1.1083e-05
1.3536e-05
1.28943e-05
1.21174e-05
1.11979e-05
1.01725e-05
1.22855e-05
1.17231e-05
1.10386e-05
1.02309e-05
9.3248e-06
1.11322e-05
1.06415e-05
1.00412e-05
9.3349e-06
8.53716e-06
1.04195e-05
1.00725e-05
9.64559e-06
9.12139e-06
8.50634e-06
7.80648e-06
9.40194e-06
9.1019e-06
8.73172e-06
8.27554e-06
7.74201e-06
7.12977e-06
8.47431e-06
8.21527e-06
7.89525e-06
7.49961e-06
7.03846e-06
6.50421e-06
7.63095e-06
7.40774e-06
7.1317e-06
6.78947e-06
6.39203e-06
5.92698e-06
6.86611e-06
6.67394e-06
6.43632e-06
6.14108e-06
5.79934e-06
5.39543e-06
6.17405e-06
6.00879e-06
5.80447e-06
5.55017e-06
5.25696e-06
4.90682e-06
5.54898e-06
5.40693e-06
5.23149e-06
5.01281e-06
4.76157e-06
4.45846e-06
4.9855e-06
4.86338e-06
4.71278e-06
4.5249e-06
4.30988e-06
4.04788e-06
4.47825e-06
4.37322e-06
4.244e-06
4.08269e-06
3.89872e-06
3.67251e-06
4.0943e-06
4.02221e-06
3.93184e-06
3.8209e-06
3.68242e-06
3.52504e-06
3.32992e-06
3.67505e-06
3.61265e-06
3.53478e-06
3.43951e-06
3.32062e-06
3.18591e-06
3.01774e-06
3.29936e-06
3.24524e-06
3.17804e-06
3.0961e-06
2.99395e-06
2.87854e-06
2.73368e-06
2.963e-06
2.91595e-06
2.85782e-06
2.78722e-06
2.69932e-06
2.60032e-06
2.47558e-06
2.66207e-06
2.62103e-06
2.57062e-06
2.50966e-06
2.43392e-06
2.3488e-06
2.24137e-06
2.39274e-06
2.35689e-06
2.3131e-06
2.26035e-06
2.19497e-06
2.12163e-06
2.02912e-06
2.1512e-06
2.11991e-06
2.08188e-06
2.03625e-06
1.9798e-06
1.91653e-06
1.83691e-06
1.95612e-06
1.93377e-06
1.90655e-06
1.87362e-06
1.83424e-06
1.78559e-06
1.73104e-06
1.66271e-06
1.75728e-06
1.73769e-06
1.71401e-06
1.68553e-06
1.65161e-06
1.60978e-06
1.56285e-06
1.50446e-06
1.57849e-06
1.56115e-06
1.54041e-06
1.51565e-06
1.48633e-06
1.45034e-06
1.40996e-06
1.3602e-06
1.41879e-06
1.40318e-06
1.38473e-06
1.36296e-06
1.33741e-06
1.30625e-06
1.27137e-06
1.229e-06
1.27594e-06
1.2616e-06
1.24488e-06
1.22541e-06
1.20278e-06
1.17542e-06
1.14491e-06
1.10846e-06
1.15333e-06
1.14029e-06
1.12517e-06
1.10768e-06
1.08748e-06
1.06307e-06
1.03596e-06
1.00387e-06
1.05556e-06
1.04358e-06
1.02982e-06
1.01404e-06
9.95837e-07
9.73756e-07
9.49265e-07
9.21921e-07
9.81174e-07
9.71445e-07
9.59482e-07
9.46133e-07
9.31244e-07
9.14294e-07
8.94006e-07
8.71205e-07
8.46871e-07
9.06396e-07
8.968e-07
8.84993e-07
8.71875e-07
8.57399e-07
8.41089e-07
8.2195e-07
8.00973e-07
7.80697e-07
8.28034e-07
8.18153e-07
8.06345e-07
7.93371e-07
7.79235e-07
7.63465e-07
7.44954e-07
7.23706e-07
7.01412e-07
7.64813e-07
7.55824e-07
7.44928e-07
7.32726e-07
7.19258e-07
7.04324e-07
6.87415e-07
6.70071e-07
6.56773e-07
6.7619e-07
6.66154e-07
6.54802e-07
6.42629e-07
6.2962e-07
6.15148e-07
5.97731e-07
5.75858e-07
5.51306e-07
6.47869e-07
6.39544e-07
6.29474e-07
6.18062e-07
6.056e-07
5.92411e-07
5.79206e-07
5.69342e-07
5.68708e-07
5.24038e-07
5.14471e-07
5.04025e-07
4.92776e-07
4.80524e-07
4.66193e-07
4.46971e-07
4.20685e-07
3.88937e-07
6.01395e-07
5.95554e-07
5.88027e-07
5.78792e-07
5.68825e-07
5.59579e-07
5.55311e-07
5.62811e-07
5.82004e-07
4.68023e-07
4.67305e-07
4.63945e-07
4.57901e-07
4.49508e-07
4.38089e-07
4.22388e-07
4.13164e-07
3.96608e-07
8.08533e-07
7.90056e-07
7.90416e-07
7.90551e-07
7.89606e-07
7.8844e-07
7.89605e-07
8.04429e-07
8.40713e-07
8.59401e-07
8.66705e-07
8.61586e-07
8.66729e-07
8.7302e-07
8.78362e-07
8.83122e-07
8.89816e-07
9.12128e-07
9.4979e-07
9.47749e-07
1.46686e-06
1.2395e-06
1.25701e-06
1.272e-06
1.28091e-06
1.29116e-06
1.30481e-06
1.33164e-06
1.35487e-06
1.1584e-06
18.4147
8.39081
3.88299
11.0828
14.7074
15.3763
13.6352
9.74718
4.91497
1.44357
0.238352
0.0496897
0.0167083
0.004182
0.000138613
7.18136e-06
0
1.32807e-07
2.7517e-06
2.25646e-05
3.91298e-05
4.36229e-05
4.16575e-05
3.82104e-05
3.50494e-05
3.23972e-05
3.00811e-05
2.79767e-05
2.60226e-05
2.42034e-05
2.25101e-05
2.09337e-05
1.94672e-05
1.80984e-05
1.6819e-05
1.56228e-05
1.45021e-05
1.34513e-05
1.24659e-05
1.15414e-05
1.06738e-05
9.85989e-06
9.09765e-06
8.38315e-06
7.71502e-06
7.09109e-06
6.50908e-06
5.96721e-06
5.46363e-06
4.99656e-06
4.56426e-06
4.16481e-06
3.79659e-06
3.45776e-06
3.1466e-06
2.86138e-06
2.6004e-06
2.362e-06
2.14456e-06
1.94657e-06
1.7665e-06
1.60271e-06
1.45347e-06
1.31696e-06
1.19248e-06
1.07746e-06
9.76735e-07
8.99026e-07
8.24821e-07
7.65105e-07
6.79815e-07
6.50833e-07
5.23264e-07
5.79902e-07
3.45366e-07
6.11257e-07
3.54936e-07
8.589e-07
8.81247e-07
1.08745e-06
13.3777
12.6049
5.95812
3.46384
8.52686
11.4276
11.681
9.59992
5.8838
2.18432
0.337422
0.0250001
0.00669522
0.00237342
0.000101077
5.9369e-06
0
4.24597e-08
9.00599e-07
1.212e-05
2.40909e-05
2.84126e-05
2.80534e-05
2.63517e-05
2.46677e-05
2.32318e-05
2.19544e-05
2.07567e-05
1.96077e-05
1.85056e-05
1.74518e-05
1.64465e-05
1.54899e-05
1.45774e-05
1.37064e-05
1.28759e-05
1.20824e-05
1.13249e-05
1.06016e-05
9.9112e-06
9.25227e-06
8.62398e-06
8.02637e-06
7.45739e-06
6.91748e-06
6.40617e-06
5.92259e-06
5.46643e-06
5.03721e-06
4.63431e-06
4.25722e-06
3.90507e-06
3.57716e-06
3.2726e-06
2.99044e-06
2.72969e-06
2.48929e-06
2.26815e-06
2.06514e-06
1.87919e-06
1.70915e-06
1.55371e-06
1.41152e-06
1.28095e-06
1.16152e-06
1.05089e-06
9.53185e-07
8.77474e-07
8.03933e-07
7.47564e-07
6.61867e-07
6.37477e-07
5.07237e-07
5.69993e-07
3.30996e-07
6.00019e-07
3.4269e-07
8.37889e-07
8.56364e-07
8.72811
10.5028
8.37046
3.60852
2.89974
7.06245
9.40674
9.40262
7.27808
3.92943
1.11583
0.0947918
0.00437014
0.000720748
8.44935e-06
4.27844e-07
0
5.24005e-09
1.09422e-07
5.21096e-06
1.34184e-05
1.73784e-05
1.78169e-05
1.71346e-05
1.63998e-05
1.5802e-05
1.52866e-05
1.47923e-05
1.42893e-05
1.37733e-05
1.32461e-05
1.2711e-05
1.21723e-05
1.16309e-05
1.10892e-05
1.05502e-05
1.00153e-05
9.48758e-06
8.96822e-06
8.4593e-06
7.96213e-06
7.47845e-06
7.00992e-06
6.55649e-06
6.12002e-06
5.70127e-06
5.3005e-06
4.9184e-06
4.55526e-06
4.21129e-06
3.88661e-06
3.58098e-06
3.29431e-06
3.02617e-06
2.77612e-06
2.54361e-06
2.32798e-06
2.12854e-06
1.94446e-06
1.77498e-06
1.61927e-06
1.47628e-06
1.34495e-06
1.22385e-06
1.1126e-06
1.0092e-06
9.17089e-07
8.458e-07
7.74924e-07
7.23398e-07
6.39425e-07
6.19427e-07
4.90803e-07
5.5557e-07
3.23139e-07
5.85155e-07
3.40813e-07
8.2005e-07
5.7209
7.79134
8.00746
5.89553
2.25142
2.43695
5.81347
7.72257
7.66463
5.7696
2.91372
0.734082
0.0520342
0.000186244
7.60618e-05
0
0
0
1.46344e-07
2.91254e-06
9.6381e-06
1.38089e-05
1.46398e-05
1.40797e-05
1.33345e-05
1.2752e-05
1.23e-05
1.19009e-05
1.1517e-05
1.11376e-05
1.07586e-05
1.03784e-05
9.99662e-06
9.61148e-06
9.2227e-06
8.83103e-06
8.43714e-06
8.04291e-06
7.6493e-06
7.25814e-06
6.87097e-06
6.48964e-06
6.11574e-06
5.75004e-06
5.39449e-06
5.05e-06
4.7174e-06
4.39776e-06
4.09152e-06
3.79931e-06
3.52158e-06
3.25834e-06
3.0099e-06
2.77605e-06
2.55668e-06
2.35156e-06
2.16026e-06
1.98238e-06
1.81737e-06
1.66466e-06
1.52369e-06
1.39363e-06
1.2737e-06
1.16262e-06
1.06006e-06
9.64391e-07
8.78378e-07
8.12388e-07
7.44953e-07
6.98445e-07
6.16583e-07
6.00879e-07
4.74539e-07
5.41146e-07
3.16038e-07
5.71572e-07
3.37869e-07
3.46636
5.40524
6.54781
6.28148
4.46492
1.62303
1.97761
4.70577
6.30239
6.28486
4.69687
2.32418
0.576564
0.0385242
0.000424403
0.000167928
0
0
1.10525e-14
2.25836e-13
5.43184e-06
1.09214e-05
1.22009e-05
1.18643e-05
1.12855e-05
1.07687e-05
1.03554e-05
1.00028e-05
9.66957e-06
9.34173e-06
9.01799e-06
8.69879e-06
8.38388e-06
8.07188e-06
7.76159e-06
7.45226e-06
7.14362e-06
6.83594e-06
6.52903e-06
6.2235e-06
5.92008e-06
5.61961e-06
5.323e-06
5.03086e-06
4.74453e-06
4.46469e-06
4.19224e-06
3.92821e-06
3.67303e-06
3.42748e-06
3.19219e-06
2.96742e-06
2.7536e-06
2.55083e-06
2.35928e-06
2.17891e-06
2.00958e-06
1.85113e-06
1.70325e-06
1.5656e-06
1.43782e-06
1.31932e-06
1.20953e-06
1.1074e-06
1.01261e-06
9.23874e-07
8.43282e-07
7.81981e-07
7.17587e-07
6.75452e-07
5.95416e-07
5.83598e-07
4.5904e-07
5.28047e-07
3.08256e-07
5.60645e-07
1.72016
3.3426
4.77248
5.48494
5.12141
3.6211
1.33758
1.52915
3.80221
5.20004
5.26133
3.97086
1.99972
0.519658
0.0430967
0.00072481
0.000196001
0
0
1.53781e-16
3.00204e-07
5.02608e-06
9.38193e-06
9.27847e-06
8.66035e-06
8.30595e-06
8.0645e-06
7.85445e-06
7.65913e-06
7.46372e-06
7.26201e-06
7.05518e-06
6.84485e-06
6.63143e-06
6.41467e-06
6.19462e-06
5.97183e-06
5.74688e-06
5.51985e-06
5.29135e-06
5.06214e-06
4.83269e-06
4.60384e-06
4.37617e-06
4.15061e-06
3.92784e-06
3.70872e-06
3.49421e-06
3.28478e-06
3.08126e-06
2.8844e-06
2.69461e-06
2.51246e-06
2.33823e-06
2.17233e-06
2.01488e-06
1.86598e-06
1.72566e-06
1.59383e-06
1.47033e-06
1.35498e-06
1.2474e-06
1.14722e-06
1.05361e-06
9.66236e-07
8.84178e-07
8.0878e-07
7.51864e-07
6.90355e-07
6.52355e-07
5.74201e-07
5.66179e-07
4.43346e-07
5.15023e-07
0.562547
1.647
2.98647
4.11537
4.64815
4.33033
3.116
1.24169
1.10214
3.04982
4.32116
4.47759
3.46239
1.81512
0.516932
0.0547342
0.000338921
7.27346e-05
0
0
0
2.62487e-07
4.25772e-06
7.61762e-06
7.26244e-06
6.55136e-06
6.2939e-06
6.16313e-06
6.031e-06
5.9021e-06
5.77703e-06
5.64969e-06
5.51863e-06
5.38401e-06
5.24488e-06
5.10038e-06
4.95054e-06
4.79573e-06
4.63606e-06
4.47213e-06
4.30461e-06
4.13401e-06
3.96125e-06
3.78694e-06
3.61186e-06
3.43682e-06
3.26265e-06
3.09021e-06
2.92008e-06
2.75308e-06
2.58998e-06
2.43129e-06
2.27766e-06
2.12947e-06
1.98721e-06
1.85116e-06
1.72157e-06
1.59858e-06
1.48225e-06
1.37257e-06
1.26948e-06
1.17279e-06
1.08226e-06
9.97273e-07
9.17479e-07
8.42284e-07
7.72288e-07
7.19938e-07
6.61514e-07
6.27789e-07
5.51805e-07
5.47739e-07
0.0723552
0.505671
1.42596
2.55376
3.51122
3.98543
3.76801
2.80582
1.25747
0.70947
2.40547
3.59138
3.84727
3.07961
1.70279
0.539184
0.0703618
0.000765113
0.000102089
0
0
0
2.05766e-07
3.23837e-06
6.3488e-06
5.97363e-06
5.25488e-06
5.03532e-06
4.95916e-06
4.85833e-06
4.74884e-06
4.64695e-06
4.54828e-06
4.44889e-06
4.34761e-06
4.24348e-06
4.13571e-06
4.02405e-06
3.9081e-06
3.78792e-06
3.66372e-06
3.53578e-06
3.40471e-06
3.27091e-06
3.13498e-06
2.99762e-06
2.85949e-06
2.72135e-06
2.58377e-06
2.44747e-06
2.31318e-06
2.18139e-06
2.05279e-06
1.92775e-06
1.80682e-06
1.69032e-06
1.57858e-06
1.47182e-06
1.37018e-06
1.27373e-06
1.18252e-06
1.09648e-06
1.01547e-06
9.39079e-07
8.66889e-07
7.98651e-07
7.34209e-07
6.86595e-07
6.31439e-07
0.000568016
0.0519602
0.38998
1.1454
2.111
2.96738
3.44006
3.33969
2.60058
1.32437
0.373946
1.84912
2.97311
3.32453
2.77528
1.62953
0.576207
0.0882932
0.00164526
0.000132641
0
0
0
1.25468e-07
1.88595e-06
5.03968e-06
4.99104e-06
4.2787e-06
4.0535e-06
4.02305e-06
3.96482e-06
3.88033e-06
3.79865e-06
3.72169e-06
3.64466e-06
3.56559e-06
3.48395e-06
3.39957e-06
3.31195e-06
3.22092e-06
3.12645e-06
3.02864e-06
2.9278e-06
2.82415e-06
2.71805e-06
2.60994e-06
2.50032e-06
2.38985e-06
2.27889e-06
2.16809e-06
2.05805e-06
1.94922e-06
1.84224e-06
1.73745e-06
1.63537e-06
1.53637e-06
1.44076e-06
1.34882e-06
1.26074e-06
1.17663e-06
1.09661e-06
1.02068e-06
9.4879e-07
8.80705e-07
8.15919e-07
7.54529e-07
0.00013225
0.000228666
0.0279495
0.261265
0.855798
1.6847
2.47387
2.96903
2.987
2.44645
1.40469
0.19895
1.3675
2.44128
2.87877
2.52047
1.57593
0.614284
0.110868
0.00380626
0.000188017
0
0
0
4.97143e-08
6.8046e-07
3.72949e-06
4.24293e-06
3.59142e-06
3.2979e-06
3.25995e-06
3.23078e-06
3.17229e-06
3.11043e-06
3.05245e-06
2.99464e-06
2.9347e-06
2.87227e-06
2.80705e-06
2.73883e-06
2.66746e-06
2.59299e-06
2.51559e-06
2.43546e-06
2.3528e-06
2.2679e-06
2.18116e-06
2.09309e-06
2.00396e-06
1.91429e-06
1.82459e-06
1.73523e-06
1.64676e-06
1.55952e-06
1.47395e-06
1.39041e-06
1.30923e-06
1.23068e-06
1.15497e-06
1.08223e-06
1.01261e-06
9.46153e-07
0
7.69754e-07
0.00100843
0.0107723
0.151473
0.591007
1.2896
2.02178
2.54537
2.675
2.31257
1.47827
0.346571
0.951318
1.97877
2.48909
2.297
1.52959
0.652647
0.137532
0.00753994
0.000263535
5.98114e-08
0
0
5.90688e-09
5.38633e-08
2.33291e-06
3.44649e-06
3.05069e-06
2.73813e-06
2.67388e-06
2.65317e-06
2.6115e-06
2.56359e-06
2.5183e-06
2.47353e-06
2.42716e-06
2.37865e-06
2.32773e-06
2.27412e-06
2.21774e-06
2.15865e-06
2.09698e-06
2.03282e-06
1.9664e-06
1.89799e-06
1.828e-06
1.75668e-06
1.6844e-06
1.61159e-06
1.53858e-06
1.46584e-06
1.39364e-06
1.32239e-06
1.25242e-06
1.18402e-06
4.44814e-13
0
0
0.000776512
0.00259521
0.0735785
0.371577
0.936981
1.60709
2.15304
2.38313
2.1808
1.53377
0.557195
0.591917
1.5717
2.14055
2.09198
1.48205
0.68839
0.167114
0.0131894
2.79619e-05
2.8798e-06
0
0
5.28196e-11
1.06059e-07
1.55232e-06
2.75727e-06
2.58654e-06
2.30002e-06
2.21879e-06
2.20002e-06
2.16913e-06
2.13098e-06
2.0943e-06
2.05827e-06
2.02103e-06
1.98201e-06
1.94094e-06
1.89764e-06
1.85208e-06
1.80427e-06
1.75426e-06
1.70213e-06
1.64808e-06
1.59244e-06
1.53539e-06
1.47721e-06
5.26169e-09
2.7583e-10
0
0
0.000358332
0.000357887
0.0280466
0.207221
0.636609
1.23033
1.78431
2.09952
2.04014
1.56338
0.742395
0.287311
1.21102
1.82384
1.89814
1.43033
0.719486
0.19946
0.0207633
0.000727005
6.71801e-07
0
0
0
6.90572e-08
9.88995e-07
2.186e-06
2.19047e-06
1.93992e-06
1.85131e-06
1.83447e-06
1.81169e-06
1.78077e-06
1.75052e-06
)
;

boundaryField
{
    inlet
    {
        type            calculated;
        value           nonuniform List<scalar> 
11
(
6.49019e-06
6.15228e-06
6.29974e-06
6.43664e-06
6.55809e-06
6.66598e-06
6.76699e-06
6.86838e-06
6.98832e-06
6.71678e-06
7.07746e-06
)
;
    }
    outlet
    {
        type            calculated;
        value           nonuniform List<scalar> 0();
    }
    walls
    {
        type            calculated;
        value           nonuniform List<scalar> 4(0.391555 0.301348 0.214926 0.038585);
    }
    frontAndBack
    {
        type            empty;
    }
    procBoundary6to2
    {
        type            processor;
        value           nonuniform List<scalar> 
13
(
12.7994
7.69935
4.85487
2.91902
1.43834
0.479708
0.0676613
0.000640848
0.000293019
0
0
6.78989e-08
1.14537e-06
)
;
    }
    procBoundary6to3
    {
        type            processor;
        value           uniform 1.45329e-06;
    }
    procBoundary6to5
    {
        type            processor;
        value           nonuniform List<scalar> 
86
(
36.2278
13.5226
17.3138
15.3857
5.9788
0.219588
0.0213198
0.00301164
0
1.46039e-08
2.98711e-07
6.47842e-05
9.17209e-05
7.77433e-05
6.94043e-05
6.90382e-05
6.94389e-05
6.80413e-05
6.55172e-05
6.28463e-05
6.03688e-05
5.80324e-05
5.57136e-05
5.33466e-05
5.09271e-05
4.84722e-05
4.59999e-05
4.35278e-05
4.10693e-05
3.86339e-05
3.62348e-05
3.38839e-05
3.15918e-05
3.15918e-05
3.08941e-05
2.86035e-05
2.64072e-05
2.43121e-05
2.23237e-05
2.04457e-05
1.86806e-05
1.70292e-05
1.5491e-05
1.40641e-05
1.27459e-05
1.15325e-05
1.15325e-05
1.06954e-05
9.63969e-06
8.67904e-06
7.80717e-06
7.01777e-06
6.30453e-06
5.66135e-06
5.08231e-06
4.56173e-06
4.56173e-06
4.15083e-06
3.72423e-06
3.34228e-06
3.0006e-06
2.69511e-06
2.42182e-06
2.17673e-06
2.17673e-06
1.97412e-06
1.77321e-06
1.59278e-06
1.43181e-06
1.28804e-06
1.16418e-06
1.06524e-06
1.06524e-06
9.89661e-07
9.14889e-07
8.37067e-07
7.73293e-07
6.85689e-07
6.571e-07
5.31602e-07
6.13189e-07
4.60806e-07
4.60806e-07
7.46711e-07
8.62904e-07
1.11417e-06
)
;
    }
    procBoundary6to7
    {
        type            processor;
        value           nonuniform List<scalar> 
91
(
1.09109e-06
1.09109e-06
8.28912e-07
8.28912e-07
8.04009e-07
8.04009e-07
3.35123e-07
2.99811e-07
3.35123e-07
5.50488e-07
4.26849e-07
2.99811e-07
5.01435e-07
6.02082e-07
5.28506e-07
4.26849e-07
5.28495e-07
6.95616e-07
6.52731e-07
6.02082e-07
6.00891e-07
8.82883e-07
8.22722e-07
7.6506e-07
6.95616e-07
7.10329e-07
1.11746e-06
1.05295e-06
9.90603e-07
9.30588e-07
8.82883e-07
8.72984e-07
1.41826e-06
1.35882e-06
1.29925e-06
1.23981e-06
1.18085e-06
1.12263e-06
1.11746e-06
1.06544e-06
1.7211e-06
1.69071e-06
1.65874e-06
1.62502e-06
1.58943e-06
1.55196e-06
1.51261e-06
1.47142e-06
1.4285e-06
1.38409e-06
1.33836e-06
1.41826e-06
1.2915e-06
5.52183e-08
3.19645e-09
0
0
5.1899e-05
0.000128143
0.00732401
0.0989017
0.396066
0.895286
1.43591
1.8172
1.88329
1.56239
0.890518
0.0923097
0.890578
1.53198
1.7101
1.37122
0.744319
0.231269
0.0296013
0.00017946
2.10185e-05
0
0
0
4.15202e-08
5.7462e-07
1.73707e-06
1.86789e-06
1.64237e-06
1.54619e-06
1.5322e-06
1.51738e-06
1.7211e-06
1.49267e-06
)
;
    }
}


// ************************************************************************* //
