/*--------------------------------*- C++ -*----------------------------------*\
| =========                 |                                                 |
| \\      /  F ield         | OpenFOAM: The Open Source CFD Toolbox           |
|  \\    /   O peration     | Version:  2506                                  |
|   \\  /    A nd           | Website:  www.openfoam.com                      |
|    \\/     M anipulation  |                                                 |
\*---------------------------------------------------------------------------*/
FoamFile
{
    version     2.0;
    format      ascii;
    arch        "LSB;label=32;scalar=64";
    class       volScalarField;
    location    "250";
    object      turbulenceProperties:nut;
}
// * * * * * * * * * * * * * * * * * * * * * * * * * * * * * * * * * * * * * //

dimensions      [0 2 -1 0 0 0 0];

internalField   nonuniform List<scalar> 
1340
(
0.0870647
0.0786293
0.0685096
0.0333574
0.153456
0.148162
0.139222
0.139382
0.205392
0.206644
0.200637
0.209186
0.213869
0.230467
0.237752
0.253622
0.172967
0.215111
0.246075
0.276135
0.0910958
0.157815
0.221404
0.275655
0.0205844
0.0758657
0.163168
0.249104
0.00512636
0.014972
0.0877092
0.1965
0
0.00410267
0.0287989
0.129351
0
0
0.00816056
0.0697358
5.34401e-17
0
0.000664708
0.0318672
1.20035e-08
0
0.000269597
0.0125238
2.85696e-06
2.68712e-11
6.66416e-05
0.00412505
1.03166e-05
7.07203e-10
1.05614e-06
0.00103677
9.33899e-06
2.99822e-06
1.98648e-10
4.5887e-05
6.39404e-06
9.67684e-06
1.01124e-10
3.02557e-07
5.25362e-06
1.19382e-05
2.06937e-09
1.25637e-15
5.32992e-06
9.24755e-06
1.86498e-06
6.61536e-10
5.76707e-06
6.81976e-06
6.99233e-06
1.13503e-07
6.08624e-06
5.85249e-06
8.42221e-06
1.84194e-06
6.19279e-06
5.74145e-06
7.48792e-06
4.70897e-06
6.17991e-06
5.90315e-06
6.57196e-06
6.16733e-06
6.14154e-06
6.04881e-06
6.1582e-06
6.39948e-06
6.11666e-06
6.11318e-06
6.06053e-06
6.27058e-06
6.10775e-06
6.12481e-06
6.07437e-06
6.15747e-06
6.10685e-06
6.11914e-06
6.09971e-06
6.11439e-06
6.10787e-06
6.11322e-06
6.11155e-06
6.10874e-06
6.10852e-06
6.11052e-06
6.11345e-06
6.1123e-06
6.1086e-06
6.10985e-06
6.11218e-06
6.11464e-06
6.10845e-06
6.10979e-06
6.11096e-06
6.11485e-06
6.10831e-06
6.10977e-06
6.11036e-06
6.11423e-06
6.10823e-06
6.10968e-06
6.11011e-06
6.1136e-06
6.10823e-06
6.10959e-06
6.10999e-06
6.11316e-06
6.10763e-06
6.10827e-06
6.10954e-06
6.10991e-06
6.11285e-06
6.10775e-06
6.10835e-06
6.10953e-06
6.10986e-06
6.11262e-06
6.10789e-06
6.10846e-06
6.10957e-06
6.10986e-06
6.11244e-06
6.10806e-06
6.1086e-06
6.10964e-06
6.10989e-06
6.11232e-06
6.10826e-06
6.10876e-06
6.10974e-06
6.10997e-06
6.11224e-06
6.10846e-06
6.10894e-06
6.10987e-06
6.11008e-06
6.11221e-06
6.10868e-06
6.10914e-06
6.11003e-06
6.11022e-06
6.11222e-06
6.10891e-06
6.10936e-06
6.1102e-06
6.11039e-06
6.11226e-06
6.10914e-06
6.10958e-06
6.11038e-06
6.11058e-06
6.11234e-06
6.10937e-06
6.1098e-06
6.11058e-06
6.11078e-06
6.11245e-06
6.10959e-06
6.11003e-06
6.11078e-06
6.111e-06
6.11258e-06
6.10979e-06
6.11023e-06
6.11097e-06
6.11121e-06
6.11272e-06
6.10951e-06
6.10997e-06
6.11042e-06
6.11115e-06
6.11142e-06
6.11286e-06
6.10965e-06
6.11012e-06
6.11059e-06
6.1113e-06
6.11161e-06
6.113e-06
6.10974e-06
6.11023e-06
6.11072e-06
6.11143e-06
6.11177e-06
6.11313e-06
6.10979e-06
6.1103e-06
6.1108e-06
6.11152e-06
6.1119e-06
6.11323e-06
6.10978e-06
6.11031e-06
6.11084e-06
6.11157e-06
6.11199e-06
6.1133e-06
6.10971e-06
6.11026e-06
6.11081e-06
6.11155e-06
6.11202e-06
6.11331e-06
6.10956e-06
6.11013e-06
6.11071e-06
6.11147e-06
6.11199e-06
6.11325e-06
6.10933e-06
6.10992e-06
6.11054e-06
6.11131e-06
6.11188e-06
6.11312e-06
6.109e-06
6.10962e-06
6.11026e-06
6.11106e-06
6.11168e-06
6.11291e-06
6.10796e-06
6.10857e-06
6.10921e-06
6.10989e-06
6.11071e-06
6.11138e-06
6.1126e-06
6.10739e-06
6.10802e-06
6.10869e-06
6.10939e-06
6.11024e-06
6.11097e-06
6.11219e-06
6.1067e-06
6.10735e-06
6.10805e-06
6.10878e-06
6.10964e-06
6.11043e-06
6.11165e-06
6.1059e-06
6.10657e-06
6.10728e-06
6.10804e-06
6.10893e-06
6.10976e-06
6.11099e-06
6.10498e-06
6.10567e-06
6.1064e-06
6.10718e-06
6.10809e-06
6.10896e-06
6.11019e-06
6.1039e-06
6.10462e-06
6.10538e-06
6.10619e-06
6.10712e-06
6.10803e-06
6.10927e-06
6.10256e-06
6.10333e-06
6.10414e-06
6.105e-06
6.10597e-06
6.10694e-06
6.1082e-06
6.10006e-06
6.10084e-06
6.10166e-06
6.10253e-06
6.10346e-06
6.1045e-06
6.10557e-06
6.10688e-06
6.09785e-06
6.09866e-06
6.09953e-06
6.10046e-06
6.10146e-06
6.10258e-06
6.10375e-06
6.10517e-06
6.09532e-06
6.09614e-06
6.09701e-06
6.09796e-06
6.099e-06
6.10017e-06
6.10142e-06
6.10294e-06
6.09268e-06
6.09347e-06
6.09431e-06
6.09523e-06
6.09625e-06
6.09741e-06
6.09868e-06
6.10023e-06
6.09001e-06
6.09075e-06
6.09155e-06
6.09242e-06
6.09337e-06
6.09447e-06
6.09569e-06
6.09719e-06
6.08738e-06
6.0881e-06
6.08888e-06
6.08972e-06
6.09062e-06
6.09166e-06
6.0928e-06
6.0942e-06
6.08488e-06
6.08563e-06
6.08643e-06
6.08728e-06
6.0882e-06
6.08923e-06
6.09036e-06
6.09168e-06
6.08164e-06
6.08233e-06
6.08306e-06
6.08385e-06
6.08471e-06
6.08565e-06
6.0867e-06
6.08786e-06
6.0892e-06
6.07896e-06
6.07957e-06
6.08023e-06
6.08096e-06
6.08176e-06
6.08264e-06
6.08366e-06
6.08479e-06
6.08614e-06
6.07624e-06
6.07676e-06
6.07734e-06
6.07796e-06
6.07865e-06
6.07943e-06
6.08033e-06
6.08134e-06
6.08259e-06
6.07353e-06
6.07396e-06
6.07444e-06
6.07497e-06
6.07556e-06
6.07623e-06
6.07701e-06
6.07789e-06
6.07899e-06
6.07116e-06
6.07138e-06
6.07165e-06
6.07198e-06
6.07237e-06
6.07284e-06
6.07342e-06
6.0741e-06
6.07498e-06
6.0714e-06
6.07128e-06
6.07117e-06
6.07111e-06
6.07109e-06
6.07114e-06
6.07129e-06
6.07153e-06
6.07195e-06
6.07423e-06
6.07407e-06
6.07388e-06
6.07369e-06
6.07348e-06
6.07327e-06
6.07304e-06
6.07285e-06
6.07269e-06
6.07756e-06
6.07739e-06
6.07718e-06
6.07694e-06
6.07665e-06
6.07631e-06
6.07592e-06
6.0755e-06
6.07497e-06
6.08169e-06
6.08179e-06
6.08188e-06
6.08195e-06
6.08201e-06
6.08205e-06
6.08202e-06
6.08203e-06
6.0819e-06
6.08492e-06
6.08497e-06
6.0849e-06
6.08477e-06
6.08459e-06
6.08434e-06
6.08412e-06
6.08386e-06
6.08374e-06
6.08363e-06
6.09054e-06
6.09144e-06
6.09244e-06
6.09349e-06
6.09457e-06
6.09567e-06
6.09683e-06
6.09797e-06
6.09942e-06
6.10074e-06
6.10009e-06
6.10029e-06
6.10039e-06
6.10044e-06
6.10043e-06
6.1004e-06
6.10049e-06
6.10075e-06
6.10123e-06
6.10161e-06
0.171305
0.213326
0.253555
0.297691
0.323498
0.325932
0.303327
0.254357
0.181911
0.101663
0.0418834
0.014825
0.00457233
0.00104473
1.73349e-05
6.54815e-08
0
3.33021e-11
1.6731e-08
1.27976e-06
4.31955e-06
6.12619e-06
6.46847e-06
6.32484e-06
6.18136e-06
6.12199e-06
6.11151e-06
6.115e-06
6.11798e-06
6.11837e-06
6.11755e-06
6.11663e-06
6.11593e-06
6.11539e-06
6.11495e-06
6.11457e-06
6.11426e-06
6.114e-06
6.11379e-06
6.11364e-06
6.11353e-06
6.11347e-06
6.11343e-06
6.11343e-06
6.11346e-06
6.11349e-06
6.11353e-06
6.11357e-06
6.11359e-06
6.11358e-06
6.11358e-06
6.11357e-06
6.11349e-06
6.11333e-06
6.11307e-06
6.11269e-06
6.11219e-06
6.11156e-06
6.11079e-06
6.10989e-06
6.10885e-06
6.10757e-06
6.10591e-06
6.10372e-06
6.10102e-06
6.09796e-06
6.09491e-06
6.09236e-06
6.08987e-06
6.08681e-06
6.08321e-06
6.07952e-06
6.07543e-06
6.07214e-06
6.0726e-06
6.07479e-06
6.08179e-06
6.08351e-06
6.10161e-06
6.10181e-06
0.212159
0.256359
0.285939
0.314247
0.342555
0.353914
0.340924
0.300865
0.234037
0.147703
0.065432
0.0197269
0.00538409
0.00130862
3.11209e-05
1.52101e-07
0
1.04103e-11
5.10527e-09
9.80119e-07
4.05921e-06
6.06572e-06
6.49454e-06
6.35588e-06
6.19683e-06
6.12677e-06
6.11265e-06
6.11574e-06
6.11901e-06
6.11948e-06
6.11853e-06
6.11742e-06
6.11655e-06
6.11589e-06
6.1154e-06
6.11502e-06
6.11469e-06
6.11442e-06
6.1142e-06
6.11404e-06
6.11392e-06
6.11384e-06
6.1138e-06
6.11379e-06
6.11381e-06
6.11384e-06
6.11388e-06
6.11391e-06
6.11393e-06
6.11392e-06
6.11393e-06
6.11395e-06
6.11389e-06
6.11375e-06
6.11351e-06
6.11315e-06
6.11267e-06
6.11205e-06
6.11129e-06
6.1104e-06
6.10936e-06
6.1081e-06
6.10646e-06
6.10428e-06
6.10158e-06
6.09848e-06
6.09539e-06
6.09281e-06
6.09031e-06
6.08723e-06
6.0836e-06
6.07984e-06
6.07572e-06
6.07225e-06
6.07254e-06
6.07474e-06
6.0817e-06
6.08347e-06
6.10219e-06
0.216133
0.266789
0.300835
0.323431
0.344432
0.362473
0.363999
0.34107
0.290332
0.212905
0.119323
0.0409199
0.00661129
0.000798636
6.8939e-07
1.93228e-09
0
4.58901e-13
2.19803e-10
5.18125e-07
3.4605e-06
5.94046e-06
6.54054e-06
6.40039e-06
6.21845e-06
6.13355e-06
6.11324e-06
6.11522e-06
6.11888e-06
6.11978e-06
6.11899e-06
6.11789e-06
6.11699e-06
6.11631e-06
6.11582e-06
6.11545e-06
6.11513e-06
6.11486e-06
6.11465e-06
6.11448e-06
6.11436e-06
6.11429e-06
6.11425e-06
6.11424e-06
6.11426e-06
6.11429e-06
6.11434e-06
6.11437e-06
6.1144e-06
6.1144e-06
6.11441e-06
6.11443e-06
6.11439e-06
6.11426e-06
6.11403e-06
6.11368e-06
6.11321e-06
6.1126e-06
6.11184e-06
6.11095e-06
6.10992e-06
6.10866e-06
6.10703e-06
6.10486e-06
6.10215e-06
6.09902e-06
6.09589e-06
6.09328e-06
6.09076e-06
6.08766e-06
6.084e-06
6.08017e-06
6.07602e-06
6.07237e-06
6.07247e-06
6.07471e-06
6.08159e-06
6.08342e-06
0.200846
0.256051
0.297315
0.32461
0.342551
0.358609
0.370312
0.36626
0.338476
0.282972
0.200727
0.104919
0.0297782
0.000310801
6.81205e-05
0
0
0
5.25975e-10
2.2509e-07
2.55048e-06
5.45e-06
6.52552e-06
6.49551e-06
6.26628e-06
6.14351e-06
6.11273e-06
6.11381e-06
6.11835e-06
6.11999e-06
6.11951e-06
6.11844e-06
6.11752e-06
6.11683e-06
6.11633e-06
6.11596e-06
6.11565e-06
6.11539e-06
6.11517e-06
6.11501e-06
6.11489e-06
6.11481e-06
6.11477e-06
6.11476e-06
6.11479e-06
6.11482e-06
6.11487e-06
6.11491e-06
6.11494e-06
6.11494e-06
6.11495e-06
6.11498e-06
6.11495e-06
6.11482e-06
6.1146e-06
6.11427e-06
6.1138e-06
6.11319e-06
6.11244e-06
6.11155e-06
6.11051e-06
6.10926e-06
6.10764e-06
6.10547e-06
6.10276e-06
6.09959e-06
6.09642e-06
6.09377e-06
6.09124e-06
6.08811e-06
6.08442e-06
6.08052e-06
6.07634e-06
6.07251e-06
6.07242e-06
6.07468e-06
6.08147e-06
0.170809
0.230168
0.27852
0.314006
0.337323
0.352399
0.365224
0.373302
0.366536
0.336947
0.279912
0.196141
0.100226
0.0249586
0.000921856
0.000252678
0
0
4.52893e-24
2.12447e-21
1.24325e-06
5.00308e-06
6.4979e-06
6.54345e-06
6.33653e-06
6.17778e-06
6.1156e-06
6.11013e-06
6.11688e-06
6.12001e-06
6.12001e-06
6.11909e-06
6.11816e-06
6.11744e-06
6.11692e-06
6.11654e-06
6.11623e-06
6.11597e-06
6.11575e-06
6.11558e-06
6.11546e-06
6.11538e-06
6.11534e-06
6.11533e-06
6.11535e-06
6.11539e-06
6.11544e-06
6.11548e-06
6.11552e-06
6.11553e-06
6.11554e-06
6.11556e-06
6.11554e-06
6.11543e-06
6.11522e-06
6.11489e-06
6.11442e-06
6.11382e-06
6.11307e-06
6.11218e-06
6.11114e-06
6.10989e-06
6.10828e-06
6.10612e-06
6.1034e-06
6.10019e-06
6.09698e-06
6.09429e-06
6.09174e-06
6.08858e-06
6.08487e-06
6.08089e-06
6.07667e-06
6.07267e-06
6.07237e-06
6.07463e-06
0.128215
0.191106
0.246167
0.290447
0.322828
0.344087
0.357567
0.368261
0.374332
0.366531
0.336811
0.279984
0.196584
0.100226
0.027315
0.00182904
0.000440716
0
0
1.73315e-27
7.34772e-09
2.0281e-06
6.87074e-06
6.98539e-06
6.41348e-06
6.19912e-06
6.13271e-06
6.11089e-06
6.11359e-06
6.11966e-06
6.12087e-06
6.11977e-06
6.11876e-06
6.11808e-06
6.11756e-06
6.11716e-06
6.11685e-06
6.11658e-06
6.11636e-06
6.11619e-06
6.11606e-06
6.11598e-06
6.11594e-06
6.11593e-06
6.11595e-06
6.11599e-06
6.11604e-06
6.11609e-06
6.11613e-06
6.11615e-06
6.11616e-06
6.11618e-06
6.11616e-06
6.11606e-06
6.11586e-06
6.11554e-06
6.11508e-06
6.11448e-06
6.11373e-06
6.11284e-06
6.1118e-06
6.11056e-06
6.10895e-06
6.10681e-06
6.10407e-06
6.10084e-06
6.09757e-06
6.09484e-06
6.09227e-06
6.08909e-06
6.08534e-06
6.08129e-06
6.07703e-06
6.07286e-06
0.0770895
0.140054
0.200758
0.253418
0.295754
0.326859
0.347379
0.360132
0.369383
0.374418
0.366623
0.337836
0.282406
0.200101
0.104658
0.0317819
0.000836403
0.000229325
0
0
0
9.17512e-09
2.41149e-06
7.57724e-06
7.24942e-06
6.2743e-06
6.09161e-06
6.11162e-06
6.11482e-06
6.1155e-06
6.11982e-06
6.12103e-06
6.11983e-06
6.11874e-06
6.11817e-06
6.1178e-06
6.11749e-06
6.11723e-06
6.117e-06
6.11682e-06
6.11669e-06
6.11661e-06
6.11656e-06
6.11655e-06
6.11657e-06
6.11661e-06
6.11667e-06
6.11672e-06
6.11677e-06
6.11679e-06
6.1168e-06
6.11683e-06
6.11682e-06
6.11673e-06
6.11654e-06
6.11622e-06
6.11578e-06
6.11518e-06
6.11443e-06
6.11354e-06
6.1125e-06
6.11126e-06
6.10966e-06
6.10753e-06
6.10479e-06
6.10152e-06
6.0982e-06
6.09542e-06
6.09283e-06
6.08963e-06
6.08584e-06
6.08172e-06
0.0288021
0.0805946
0.142755
0.202444
0.254367
0.296373
0.327543
0.348312
0.360999
0.369294
0.373922
0.366826
0.339706
0.286432
0.206134
0.112225
0.0374631
0.0017145
0.00047398
0
0
0
8.30388e-09
2.10904e-06
7.98256e-06
7.48093e-06
6.1976e-06
6.00816e-06
6.10858e-06
6.13231e-06
6.12081e-06
6.11845e-06
6.12005e-06
6.11986e-06
6.11898e-06
6.11845e-06
6.11815e-06
6.1179e-06
6.11767e-06
6.11749e-06
6.11735e-06
6.11726e-06
6.11721e-06
6.11719e-06
6.11721e-06
6.11726e-06
6.11732e-06
6.11738e-06
6.11743e-06
6.11746e-06
6.11748e-06
6.1175e-06
6.1175e-06
6.11743e-06
6.11724e-06
6.11694e-06
6.1165e-06
6.11591e-06
6.11517e-06
6.11427e-06
6.11323e-06
6.11199e-06
6.11041e-06
6.10829e-06
6.10555e-06
6.10224e-06
6.09887e-06
6.09604e-06
6.09342e-06
0.00285984
0.0268981
0.0767849
0.138061
0.197838
0.250359
0.293279
0.325562
0.347375
0.360545
0.368264
0.372901
0.366975
0.342061
0.291511
0.214082
0.12238
0.0435624
0.0032204
0.000901142
0
0
0
4.50175e-09
1.08755e-06
7.6646e-06
7.8996e-06
6.22142e-06
5.89213e-06
6.066e-06
6.14323e-06
6.13109e-06
6.11952e-06
6.11914e-06
6.11977e-06
6.11933e-06
6.11886e-06
6.11858e-06
6.11837e-06
6.11818e-06
6.11803e-06
6.11794e-06
6.11788e-06
6.11786e-06
6.11788e-06
6.11793e-06
6.118e-06
6.11806e-06
6.11812e-06
6.11816e-06
6.11819e-06
6.11821e-06
6.11822e-06
6.11815e-06
6.11798e-06
6.11769e-06
6.11726e-06
6.11668e-06
6.11594e-06
6.11505e-06
6.114e-06
6.11277e-06
6.1112e-06
6.10909e-06
6.10635e-06
6.10301e-06
0.000336243
0.00133051
0.0214488
0.0671857
0.127168
0.187778
0.241977
0.286862
0.321155
0.344726
0.35894
0.366668
0.371444
0.366909
0.344536
0.297208
0.223216
0.132883
0.0512269
0.00637109
0.00173878
0
0
0
1.00142e-09
2.11512e-07
6.40219e-06
8.58931e-06
6.60323e-06
5.88965e-06
6.00698e-06
6.13144e-06
6.1371e-06
6.12215e-06
6.11908e-06
6.11981e-06
6.11974e-06
6.11935e-06
6.11909e-06
6.11891e-06
6.11876e-06
6.11865e-06
6.11859e-06
6.11856e-06
6.11858e-06
6.11863e-06
6.1187e-06
6.11878e-06
6.11885e-06
6.1189e-06
6.11892e-06
6.11895e-06
6.11897e-06
6.11892e-06
6.11876e-06
6.11848e-06
6.11806e-06
6.11749e-06
6.11675e-06
6.11586e-06
6.11481e-06
6.11358e-06
0
7.98978e-08
0.00364438
0.0146599
0.0543148
0.111582
0.172966
0.229519
0.277224
0.314342
0.340416
0.356438
0.365262
0.370085
0.366833
0.347086
0.303318
0.232956
0.144031
0.060189
0.0108053
0.00290102
1.07222e-08
0
0
1.92796e-11
1.89287e-09
3.76456e-06
8.38931e-06
7.016e-06
5.99696e-06
5.97886e-06
6.11298e-06
6.1378e-06
6.12443e-06
6.1196e-06
6.12012e-06
6.12024e-06
6.11989e-06
6.11963e-06
6.11948e-06
6.11939e-06
6.11933e-06
6.1193e-06
6.11931e-06
6.11936e-06
6.11944e-06
6.11952e-06
6.1196e-06
6.11966e-06
6.1197e-06
6.11973e-06
6.11975e-06
6.11971e-06
6.11957e-06
6.11931e-06
6.1189e-06
3.60268e-19
0
0
0.00226426
0.00904845
0.0400921
0.0927774
0.15413
0.213231
0.264385
0.30508
0.334448
0.353123
0.36352
0.368563
0.366614
0.349559
0.309485
0.242725
0.155578
0.0700726
0.0164006
0.000292139
3.14383e-05
0
0
2.06111e-15
1.01422e-08
2.42635e-06
7.83286e-06
7.29868e-06
6.12758e-06
5.97155e-06
6.09671e-06
6.13635e-06
6.12565e-06
6.11989e-06
6.12051e-06
6.12094e-06
6.12065e-06
6.12036e-06
6.12018e-06
6.12008e-06
6.12006e-06
6.12008e-06
6.12013e-06
6.12021e-06
6.12029e-06
6.12038e-06
6.12045e-06
7.07844e-11
4.51105e-13
0
0
0.00100946
0.00392287
0.0264142
0.0722532
0.13204
0.193354
0.248358
0.293298
0.326678
0.348661
0.361112
0.366645
0.366076
0.351791
0.315465
0.252409
0.167339
0.0810238
0.022784
0.005982
1.88759e-06
0
0
0
5.83382e-09
1.41251e-06
7.13867e-06
7.52031e-06
6.25242e-06
5.96741e-06
6.08378e-06
6.13808e-06
6.12821e-06
6.11995e-06
)
;

boundaryField
{
    inlet
    {
        type            freestream;
        freestreamValue uniform 1e-05;
        value           nonuniform List<scalar> 
11
(
6.10009e-06
6.10029e-06
6.10039e-06
6.10044e-06
6.10043e-06
6.1004e-06
6.10049e-06
6.10075e-06
6.10123e-06
6.10161e-06
6.10181e-06
)
;
    }
    outlet
    {
        type            freestream;
        freestreamValue nonuniform List<scalar> 0();
        value           nonuniform List<scalar> 0();
    }
    walls
    {
        type            nutUSpaldingWallFunction;
        value           nonuniform List<scalar> 4(0.00177014 0.0015714 0.00134794 0.000615777);
    }
    frontAndBack
    {
        type            empty;
    }
    procBoundary6to2
    {
        type            processor;
        value           nonuniform List<scalar> 
13
(
0.126263
0.149207
0.150347
0.134096
0.10326
0.0638845
0.0250885
0.00276069
0.00071703
0
0
1.227e-08
3.70217e-06
)
;
    }
    procBoundary6to3
    {
        type            processor;
        value           uniform 6.00392e-06;
    }
    procBoundary6to5
    {
        type            processor;
        value           nonuniform List<scalar> 
86
(
0.0929337
0.15894
0.202508
0.191699
0.122122
0.0367208
0.00133957
0.000306264
0
2.1828e-13
9.80518e-11
4.36648e-06
8.61366e-06
6.58735e-06
5.5747e-06
5.80634e-06
6.19251e-06
6.30564e-06
6.23496e-06
6.14548e-06
6.10075e-06
6.09304e-06
6.09931e-06
6.10566e-06
6.10848e-06
6.10881e-06
6.1083e-06
6.10782e-06
6.10756e-06
6.10746e-06
6.10744e-06
6.10747e-06
6.10753e-06
6.10753e-06
6.107e-06
6.10716e-06
6.10734e-06
6.10754e-06
6.10776e-06
6.10798e-06
6.10822e-06
6.10846e-06
6.1087e-06
6.10893e-06
6.10914e-06
6.10934e-06
6.10934e-06
6.10911e-06
6.10923e-06
6.10931e-06
6.10934e-06
6.10931e-06
6.10921e-06
6.10904e-06
6.10878e-06
6.10843e-06
6.10843e-06
6.10739e-06
6.1068e-06
6.10609e-06
6.10526e-06
6.10432e-06
6.10321e-06
6.10183e-06
6.10183e-06
6.09932e-06
6.09708e-06
6.09456e-06
6.09195e-06
6.08932e-06
6.08669e-06
6.08418e-06
6.08418e-06
6.08102e-06
6.0784e-06
6.07576e-06
6.07315e-06
6.07099e-06
6.07152e-06
6.07437e-06
6.07767e-06
6.08159e-06
6.08159e-06
6.08464e-06
6.08982e-06
6.09976e-06
)
;
    }
    procBoundary6to7
    {
        type            processor;
        value           nonuniform List<scalar> 
91
(
6.10203e-06
6.10203e-06
6.10279e-06
6.10279e-06
6.08336e-06
6.08336e-06
6.08136e-06
6.07232e-06
6.08136e-06
6.07458e-06
6.07741e-06
6.07232e-06
6.07307e-06
6.0902e-06
6.08638e-06
6.07741e-06
6.08218e-06
6.09958e-06
6.09669e-06
6.0902e-06
6.09405e-06
6.11202e-06
6.10993e-06
6.10719e-06
6.09958e-06
6.10382e-06
6.11834e-06
6.11761e-06
6.11672e-06
6.11567e-06
6.11202e-06
6.11443e-06
6.1205e-06
6.12054e-06
6.12057e-06
6.12054e-06
6.12042e-06
6.12017e-06
6.11834e-06
6.11978e-06
6.12017e-06
6.12095e-06
6.121e-06
6.12101e-06
6.12099e-06
6.1209e-06
6.12087e-06
6.12091e-06
6.121e-06
6.1211e-06
6.1212e-06
6.1205e-06
6.12128e-06
1.99341e-08
8.94147e-11
0
0
0.000153783
0.000533763
0.0151897
0.0519569
0.107637
0.170078
0.228936
0.278619
0.316657
0.342574
0.357598
0.36405
0.364853
0.353318
0.320793
0.261611
0.179119
0.0919669
0.0292031
0.00108707
0.000313397
0
0
0
2.80222e-09
6.719e-07
6.49336e-06
7.82466e-06
6.39981e-06
5.94392e-06
6.0561e-06
6.13857e-06
6.12017e-06
6.13434e-06
)
;
    }
}


// ************************************************************************* //
