/*--------------------------------*- C++ -*----------------------------------*\
| =========                 |                                                 |
| \\      /  F ield         | OpenFOAM: The Open Source CFD Toolbox           |
|  \\    /   O peration     | Version:  2506                                  |
|   \\  /    A nd           | Website:  www.openfoam.com                      |
|    \\/     M anipulation  |                                                 |
\*---------------------------------------------------------------------------*/
FoamFile
{
    version     2.0;
    format      ascii;
    arch        "LSB;label=32;scalar=64";
    class       volVectorField;
    location    "250";
    object      U;
}
// * * * * * * * * * * * * * * * * * * * * * * * * * * * * * * * * * * * * * //

dimensions      [0 1 -1 0 0 0 0];

internalField   nonuniform List<vector> 
1340
(
(13.6324 -2.21775 -5.02444e-16)
(11.7912 -2.07644 8.64352e-16)
(9.78839 -1.82542 2.17403e-15)
(3.70002 -1.10208 1.56099e-14)
(17.1752 -2.78959 -5.00455e-15)
(15.2112 -2.64462 1.58427e-15)
(13.1276 -2.3774 -6.6853e-16)
(7.09668 -1.48455 4.27753e-15)
(20.4898 -3.22421 1.07145e-14)
(18.0884 -3.03462 -2.40008e-15)
(15.6026 -2.6664 -3.78302e-16)
(9.81596 -1.8976 -6.216e-15)
(24.0656 -3.64166 -2.51293e-15)
(21.1398 -3.40527 3.33434e-15)
(18.1562 -2.92433 6.67506e-16)
(12.399 -2.21616 3.05629e-15)
(27.643 -3.98674 3.58755e-16)
(24.3112 -3.74447 4.77648e-16)
(20.8579 -3.17755 -4.55818e-17)
(15.0069 -2.48461 -3.75965e-15)
(30.0463 -4.13744 -3.4298e-15)
(27.1329 -3.98093 -4.26973e-15)
(23.5807 -3.39773 -3.66677e-17)
(17.6676 -2.73069 1.02791e-15)
(30.2304 -4.02262 6.96508e-15)
(28.6206 -4.0161 1.10931e-15)
(25.8718 -3.5243 -6.69231e-17)
(20.2747 -2.94133 6.60372e-16)
(29.3392 -3.80084 -7.55497e-15)
(28.487 -3.85434 1.76725e-15)
(27.1103 -3.49841 2.35869e-16)
(22.5155 -3.07637 1.8532e-15)
(28.8517 -3.62553 2.77182e-15)
(27.7949 -3.64503 -1.49617e-15)
(27.2199 -3.33926 -7.6394e-16)
(24.0206 -3.09466 -1.39467e-15)
(28.859 -3.4938 -1.29021e-15)
(27.4703 -3.48674 1.41801e-15)
(26.8129 -3.13995 2.46111e-16)
(24.7079 -2.99665 -1.68718e-15)
(28.9685 -3.36565 -7.61396e-16)
(27.5256 -3.36466 -1.86957e-15)
(26.5001 -2.96852 1.0367e-16)
(24.8739 -2.8239 7.54063e-16)
(29.0049 -3.22664 -1.18533e-15)
(27.6652 -3.2406 -1.22472e-15)
(26.4385 -2.83125 -8.78988e-17)
(24.8898 -2.62714 1.60998e-15)
(28.9848 -3.07971 4.23711e-15)
(27.7417 -3.10079 6.42359e-17)
(26.5092 -2.7061 3.66614e-16)
(24.9468 -2.43624 -1.63071e-15)
(28.9543 -2.92849 -5.54717e-15)
(27.7602 -2.94998 1.8712e-15)
(26.5912 -2.5773 1.82719e-16)
(25.0662 -2.25922 1.7055e-15)
(28.9307 -2.77368 4.14333e-15)
(27.7619 -2.79444 -8.92654e-16)
(26.6453 -2.44102 -7.53191e-16)
(25.209 -2.09239 -1.65184e-15)
(28.9119 -2.6148 -3.15089e-16)
(27.7686 -2.63639 8.05942e-17)
(26.6808 -2.29979 8.41412e-16)
(25.346 -1.93108 4.92261e-16)
(28.8933 -2.45187 -8.08802e-16)
(27.7822 -2.4756 3.39225e-16)
(26.7137 -2.1558 1.3177e-17)
(25.4699 -1.77341 -1.48243e-16)
(28.8731 -2.28515 -3.2365e-16)
(27.7984 -2.31161 3.16657e-16)
(26.7512 -2.00997 -7.38159e-16)
(25.5847 -1.6192 3.40895e-16)
(28.8513 -2.115 2.02097e-15)
(27.8143 -2.14458 -7.07697e-16)
(26.7934 -1.86245 -5.49831e-16)
(25.6946 -1.46865 5.07863e-16)
(28.828 -1.94174 -1.99513e-16)
(27.8289 -1.97482 1.42953e-16)
(26.8382 -1.71298 1.00041e-16)
(25.8016 -1.32159 -1.27611e-16)
(28.8033 -1.76572 6.20694e-17)
(27.8423 -1.80277 6.44493e-16)
(26.884 -1.5617 8.89643e-16)
(25.9058 -1.17791 -1.63139e-16)
(28.777 -1.58731 1.02355e-15)
(27.8544 -1.62887 -6.70187e-16)
(26.93 -1.40879 -2.64486e-16)
(26.0065 -1.03698 -3.75857e-17)
(28.7489 -1.40694 -1.99696e-15)
(27.8651 -1.45352 6.48598e-16)
(26.9756 -1.25457 2.46241e-16)
(26.1034 -0.898609 -3.21732e-17)
(28.7187 -1.22509 2.97982e-16)
(27.8741 -1.27708 -3.32529e-16)
(27.0205 -1.09919 -3.31968e-16)
(26.1963 -0.762214 3.82394e-17)
(28.6863 -1.04228 3.0647e-16)
(27.881 -1.10004 9.31887e-16)
(27.0641 -0.943066 6.2675e-16)
(26.2849 -0.627612 -1.73521e-16)
(28.6516 -0.858983 5.69062e-16)
(27.8857 -0.922773 -4.55099e-16)
(27.106 -0.786365 -9.70323e-16)
(26.3691 -0.494468 1.4026e-16)
(28.6144 -0.675867 -5.66043e-16)
(27.8877 -0.745859 -1.42007e-15)
(27.1457 -0.629595 -1.06927e-16)
(26.4487 -0.362696 -1.62185e-16)
(28.5746 -0.493424 -5.03199e-16)
(27.887 -0.569593 7.79703e-16)
(27.1826 -0.472887 -1.58905e-16)
(26.5237 -0.231991 2.93528e-16)
(28.5321 -0.312264 8.53535e-16)
(27.8833 -0.394601 5.58696e-16)
(27.2165 -0.316749 6.75558e-16)
(26.5938 -0.102228 -2.47474e-16)
(28.4868 -0.133035 -9.65267e-16)
(27.8763 -0.221248 -6.27243e-16)
(27.2468 -0.161422 -3.76165e-16)
(26.6588 0.0267165 5.9647e-16)
(28.4387 0.0437414 1.16395e-15)
(27.8659 -0.0500897 9.50438e-16)
(27.2732 -0.00737233 9.80532e-16)
(26.7187 0.154917 -1.05539e-15)
(28.3878 0.217466 -5.53899e-16)
(27.852 0.118503 -6.299e-16)
(27.2955 0.145066 -5.94966e-16)
(26.7733 0.282265 4.33506e-16)
(28.3341 0.387554 -3.05049e-16)
(27.8345 0.284014 8.68842e-16)
(27.3133 0.295553 -2.48186e-16)
(26.8224 0.408742 -2.41571e-16)
(28.7029 0.740479 1.28026e-15)
(28.2777 0.55353 4.86683e-16)
(27.8133 0.446001 -2.74337e-16)
(27.3266 0.443645 1.01361e-15)
(26.866 0.534189 1.56602e-16)
(28.6114 0.89807 -1.41774e-15)
(28.2188 0.714857 5.05356e-16)
(27.7884 0.604079 -1.11988e-15)
(27.3352 0.589019 -7.01868e-16)
(26.9038 0.658406 -5.39163e-16)
(28.5187 1.05001 3.45892e-16)
(28.1574 0.871113 -5.87939e-16)
(27.7599 0.757835 2.77225e-16)
(27.3391 0.731319 -1.00329e-17)
(26.936 0.781187 1.89717e-16)
(28.425 1.19592 -2.03947e-16)
(28.0938 1.02191 5.62807e-17)
(27.7278 0.90691 7.51628e-16)
(27.3381 0.870213 3.91279e-16)
(26.9624 0.902282 6.45034e-16)
(28.3308 1.33555 6.2513e-16)
(28.0281 1.16691 -9.81229e-17)
(27.6922 1.05096 -7.64424e-16)
(27.3325 1.00537 5.05094e-16)
(26.9832 1.0214 -2.41652e-16)
(28.2363 1.46866 -9.00312e-16)
(27.9607 1.30582 2.1263e-16)
(27.6534 1.18972 7.5067e-16)
(27.3222 1.13649 1.26618e-16)
(26.9984 1.13826 5.45819e-17)
(28.1418 1.59509 -4.14455e-16)
(27.8917 1.43844 -5.36587e-16)
(27.6114 1.32294 -5.62083e-16)
(27.3074 1.26332 -1.17454e-15)
(27.0081 1.25257 -3.08274e-16)
(28.0478 1.71476 3.65495e-16)
(27.8214 1.5646 -3.3606e-17)
(27.5667 1.4504 2.87076e-16)
(27.2884 1.3856 4.84949e-16)
(27.0124 1.36405 -2.3064e-16)
(27.9543 1.82766 4.47936e-16)
(27.7502 1.68421 8.19183e-16)
(27.5193 1.57197 1.0857e-16)
(27.2654 1.50314 3.85385e-16)
(27.0117 1.47239 -1.29963e-17)
(27.8619 1.93381 -4.92435e-17)
(27.6783 1.79724 -3.83773e-16)
(27.4696 1.68754 -4.72419e-16)
(27.2386 1.61575 4.58129e-17)
(27.0061 1.57737 5.83974e-16)
(27.7706 2.0333 -7.2921e-16)
(27.6059 1.90368 2.83478e-16)
(27.418 1.79705 3.8022e-16)
(27.2083 1.7233 -3.59666e-16)
(26.996 1.67873 -5.85561e-16)
(27.6808 2.12628 2.61238e-17)
(27.5335 2.00364 4.90545e-16)
(27.3646 1.90049 1.00836e-16)
(27.1749 1.8257 3.02058e-16)
(26.9816 1.77626 2.50725e-17)
(27.7034 2.34083 4.44326e-18)
(27.5927 2.21291 -9.88167e-17)
(27.4612 2.09722 -1.56909e-16)
(27.3099 1.99791 5.1582e-16)
(27.1387 1.92288 -4.14426e-16)
(26.9632 1.86978 5.89792e-16)
(27.6047 2.41241 1.14574e-16)
(27.5063 2.29341 1.33976e-16)
(27.3894 2.18456 1.49375e-16)
(27.2541 2.08938 -6.73172e-16)
(27.1001 2.01482 4.26451e-17)
(26.9411 1.95916 -5.04772e-16)
(27.5091 2.47853 -8.72856e-17)
(27.422 2.36802 2.41182e-16)
(27.3182 2.26588 3.4257e-18)
(27.1976 2.17502 -2.87052e-16)
(27.0593 2.10154 4.12189e-16)
(26.9158 2.04428 2.0473e-16)
(27.4168 2.53947 -3.13389e-16)
(27.3398 2.43701 -1.66475e-16)
(27.2478 2.34138 -3.68245e-16)
(27.1405 2.25497 3.93565e-16)
(27.0167 2.18309 -6.13893e-16)
(26.8876 2.12507 -2.25093e-16)
(27.3278 2.59552 3.70344e-16)
(27.2599 2.50065 6.24249e-17)
(27.1785 2.4113 4.21693e-16)
(27.0833 2.32941 -4.53359e-16)
(26.9726 2.25956 -3.0458e-17)
(26.8568 2.2015 1.52116e-16)
(27.242 2.64696 -1.49047e-16)
(27.1822 2.55923 1.37468e-16)
(27.1103 2.47591 6.54429e-17)
(27.0261 2.39855 4.69681e-17)
(26.9274 2.33106 1.59279e-16)
(26.8238 2.27358 4.19137e-16)
(27.1595 2.69408 2.49112e-17)
(27.1069 2.61304 -3.43985e-17)
(27.0436 2.53548 -1.33006e-16)
(26.9691 2.46261 3.9858e-17)
(26.8814 2.39773 -1.17731e-16)
(26.7889 2.34132 -3.46588e-16)
(27.0802 2.73717 -6.48484e-16)
(27.034 2.66236 -3.66563e-17)
(26.9783 2.59027 -2.15752e-17)
(26.9125 2.52181 2.41069e-16)
(26.8347 2.45973 3.87117e-16)
(26.7525 2.4048 6.23699e-17)
(27.0039 2.7765 1.98631e-16)
(26.9634 2.7075 -7.77665e-17)
(26.9145 2.64058 1.00384e-16)
(26.8566 2.5764 -4.35594e-16)
(26.7877 2.51724 -3.12665e-16)
(26.7147 2.46412 -2.96745e-16)
(26.9596 2.87698 -1.4507e-16)
(26.9308 2.81234 -2.29462e-16)
(26.8953 2.74872 7.3235e-17)
(26.8524 2.68667 1.62472e-16)
(26.8015 2.62663 2.86105e-16)
(26.7406 2.57046 8.15117e-17)
(26.676 2.51937 4.91336e-16)
(26.8857 2.90435 2.20822e-16)
(26.8605 2.84494 -1.53426e-16)
(26.8295 2.7863 1.98354e-16)
(26.792 2.72882 5.33898e-17)
(26.7473 2.67275 -8.50255e-17)
(26.6936 2.61958 -2.00827e-16)
(26.6365 2.5707 6.27773e-17)
(26.8151 2.92915 -1.60937e-16)
(26.7931 2.87454 3.01007e-16)
(26.7661 2.8205 2.58696e-17)
(26.7332 2.76728 -3.94068e-16)
(26.6942 2.715 3.8706e-16)
(26.6468 2.66481 -1.93255e-16)
(26.5966 2.61825 -2.09966e-16)
(26.7477 2.95158 -2.4734e-16)
(26.7285 2.90136 -5.77789e-18)
(26.7049 2.85157 -3.48568e-17)
(26.6763 2.80232 4.5003e-16)
(26.6421 2.75363 9.75232e-18)
(26.6005 2.70636 -3.23033e-16)
(26.5563 2.66218 5.67248e-16)
(26.6831 2.97183 -5.55532e-17)
(26.6665 2.92563 7.51247e-17)
(26.646 2.87973 4.58962e-17)
(26.621 2.83418 -1.22938e-16)
(26.5912 2.78887 2.1347e-16)
(26.5547 2.74445 -2.48075e-16)
(26.516 2.70266 9.38572e-17)
(26.6214 2.99005 -2.45493e-17)
(26.607 2.94752 -1.6339e-16)
(26.5892 2.90521 1.95123e-17)
(26.5675 2.86308 -9.25796e-17)
(26.5416 2.82096 3.51699e-17)
(26.5096 2.77927 -2.38482e-16)
(26.4758 2.73986 2.29454e-16)
(26.5624 3.00642 1.0872e-16)
(26.5499 2.96723 -5.73283e-17)
(26.5345 2.9282 -7.49824e-17)
(26.5157 2.88924 3.82726e-16)
(26.4932 2.8501 2.74911e-16)
(26.4653 2.81104 -1.86436e-16)
(26.4358 2.77395 2.01772e-17)
(26.5146 3.05741 -1.38086e-17)
(26.5061 3.02107 1.273e-16)
(26.4952 2.98494 -8.57549e-17)
(26.4819 2.94891 1.32736e-16)
(26.4656 2.91286 -1.32287e-17)
(26.4461 2.87651 5.0754e-17)
(26.4218 2.83994 -3.27787e-17)
(26.3962 2.80512 9.88316e-17)
(26.4596 3.06771 -7.38198e-17)
(26.4523 3.03415 -1.93537e-16)
(26.4429 3.00078 1.60852e-16)
(26.4314 2.9675 1.75722e-16)
(26.4174 2.93414 5.54155e-17)
(26.4004 2.90037 -2.05564e-16)
(26.3793 2.86617 1.51589e-16)
(26.3571 2.83352 -2.44794e-16)
(26.4073 3.07684 -5.97216e-17)
(26.4011 3.0458 8.64267e-17)
(26.393 3.01496 9.32186e-18)
(26.3831 2.98418 -2.15729e-16)
(26.371 2.95327 1.27741e-16)
(26.3563 2.92189 3.96469e-17)
(26.3379 2.88992 1.28978e-16)
(26.3187 2.85935 -3.12706e-17)
(26.3577 3.08486 -1.08156e-16)
(26.3524 3.0561 5.74597e-17)
(26.3455 3.02755 -3.18665e-17)
(26.337 2.99906 -1.49032e-16)
(26.3265 2.9704 4.7624e-16)
(26.3138 2.94124 -3.37127e-16)
(26.2979 2.91135 -1.44496e-16)
(26.2812 2.88275 -3.67212e-17)
(26.3105 3.0919 1.2539e-16)
(26.306 3.06522 -8.18275e-18)
(26.3002 3.03874 5.15908e-17)
(26.2929 3.01233 -1.24564e-16)
(26.2839 2.98575 -8.88274e-17)
(26.273 2.95862 5.5537e-17)
(26.2592 2.93069 6.97476e-17)
(26.2448 2.90394 9.33364e-17)
(26.2657 3.09786 7.25975e-17)
(26.262 3.07306 -9.46501e-18)
(26.2571 3.04848 -1.74645e-16)
(26.2509 3.02397 -2.43363e-18)
(26.2432 2.99929 1.39835e-16)
(26.2339 2.97405 -2.85529e-16)
(26.222 2.94793 6.19625e-17)
(26.2097 2.92294 -1.69448e-16)
(26.2292 3.10226 1.31116e-16)
(26.2259 3.07891 -1.40692e-16)
(26.2216 3.05581 2.27266e-16)
(26.2161 3.0328 -5.9741e-17)
(26.2093 3.00963 -7.31259e-17)
(26.2011 2.98593 -6.33429e-17)
(26.1905 2.96133 2.27042e-16)
(26.1796 2.93784 -9.75936e-17)
(26.2018 3.12817 -2.72971e-17)
(26.1996 3.10565 -7.36828e-17)
(26.1965 3.08346 2.62518e-17)
(26.1925 3.06156 4.24528e-17)
(26.1874 3.03977 -1.18452e-16)
(26.1812 3.01784 7.30699e-17)
(26.1736 2.99541 2.48007e-16)
(26.1638 2.97211 -3.02194e-16)
(26.1538 2.94993 1.39445e-16)
(26.1717 3.12992 -7.30981e-18)
(26.1697 3.10848 2.22396e-17)
(26.1669 3.0874 -1.55347e-16)
(26.1633 3.06662 8.47179e-17)
(26.1586 3.04598 5.7313e-17)
(26.1529 3.02523 2.78659e-17)
(26.1459 3.00403 -2.09889e-16)
(26.1369 2.98195 7.91269e-17)
(26.1277 2.96098 1.24022e-16)
(26.1411 3.13185 1.75554e-18)
(26.1393 3.11159 1.38155e-16)
(26.1369 3.09172 1.15893e-16)
(26.1336 3.07216 -4.29424e-17)
(26.1294 3.05276 3.01143e-17)
(26.1242 3.03327 -7.97238e-17)
(26.1179 3.01333 1.64501e-16)
(26.1097 2.99256 -5.41204e-16)
(26.1012 2.97296 2.37364e-16)
(26.111 3.132 1.41455e-19)
(26.1095 3.11258 1.2476e-16)
(26.1073 3.09356 -2.60622e-16)
(26.1044 3.0749 -1.64127e-17)
(26.1006 3.05645 1.48353e-16)
(26.0959 3.03796 -1.78377e-16)
(26.0901 3.01909 3.49571e-16)
(26.0828 2.99937 -3.43792e-16)
(26.0754 2.9807 3.49273e-16)
(26.0801 3.13528 -3.31679e-17)
(26.0787 3.11727 -8.73282e-17)
(26.0769 3.09967 1.19772e-16)
(26.0743 3.08241 7.41789e-17)
(26.0711 3.06533 -3.54917e-16)
(26.067 3.04819 2.37625e-16)
(26.0619 3.03068 2.13162e-16)
(26.0552 3.01245 -9.01956e-17)
(26.0479 2.99553 -1.20096e-16)
(26.0526 3.12935 -1.72179e-17)
(26.0515 3.11143 -2.96016e-17)
(26.0499 3.094 7.37873e-17)
(26.0476 3.07701 -5.53623e-18)
(26.0446 3.06035 -9.94807e-17)
(26.0408 3.04374 -1.40826e-16)
(26.0361 3.02685 2.12677e-16)
(26.0306 3.00902 -2.66612e-17)
(26.0254 2.9921 4.18663e-17)
(26.0193 3.14286 3.11385e-17)
(26.0185 3.12742 -2.61094e-17)
(26.0174 3.11233 -1.13476e-16)
(26.0158 3.09753 -2.44113e-17)
(26.0137 3.08288 1.76772e-17)
(26.0108 3.06817 2.08428e-17)
(26.007 3.05315 3.38621e-17)
(26.0012 3.03779 -4.4616e-17)
(25.994 3.024 7.94279e-17)
(26.0017 3.11116 -1.84427e-17)
(26.0012 3.09364 -5.82751e-17)
(26.0001 3.07681 -2.77031e-17)
(25.9984 3.06062 6.14786e-17)
(25.9959 3.04496 2.02038e-17)
(25.9929 3.02951 -9.56247e-18)
(25.9895 3.01389 1.23094e-16)
(25.9866 2.99689 -6.10051e-17)
(25.9852 2.98066 -9.31355e-17)
(25.9557 3.1728 1.58743e-16)
(25.9559 3.16094 -5.82793e-17)
(25.9561 3.14916 1.80038e-17)
(25.956 3.13747 -1.97478e-16)
(25.9555 3.12579 -5.48582e-17)
(25.9543 3.114 2.08234e-16)
(25.9519 3.10203 1.44802e-16)
(25.9457 3.09073 -1.77924e-16)
(25.9365 3.08115 2.37429e-17)
(25.9685 3.0618 4.87248e-17)
(25.9695 3.04129 1.29259e-17)
(25.9692 3.02215 7.52993e-18)
(25.9684 3.00415 1.1257e-16)
(25.967 2.98712 -1.34872e-16)
(25.9651 2.97093 1.68846e-16)
(25.963 2.95515 -1.83012e-17)
(25.9615 2.9393 -1.87887e-16)
(25.9642 2.92091 -7.59091e-17)
(25.9704 2.90407 1.79499e-17)
(25.8757 3.28997 7.53046e-18)
(25.8767 3.28447 4.93455e-18)
(25.8782 3.27731 -6.2309e-18)
(25.8801 3.27001 -5.65639e-17)
(25.8819 3.26279 -4.25501e-17)
(25.8835 3.25542 2.34372e-17)
(25.8841 3.24801 -2.68924e-17)
(25.8828 3.24056 -2.6406e-17)
(25.8736 3.23597 4.37067e-17)
(25.859 3.23082 6.32509e-17)
(26.0058 2.85514 -3.7052e-18)
(26.0057 2.83075 -8.31157e-17)
(26.0072 2.80764 3.76038e-17)
(26.0108 2.78561 2.16556e-16)
(26.0137 2.76471 -3.9565e-16)
(26.0154 2.74477 1.15894e-16)
(26.0176 2.72518 4.10556e-16)
(26.0221 2.70535 -3.93219e-16)
(26.0361 2.68356 6.5931e-17)
(26.0583 2.66513 -1.17146e-17)
(12.6982 0.741677 2.56432e-17)
(9.68012 0.431437 -1.11291e-18)
(9.45403 0.189566 -4.15181e-17)
(10.8558 0.023731 -1.70027e-18)
(12.9771 -0.0700123 6.21498e-18)
(15.4047 -0.118093 -9.18281e-18)
(17.9318 -0.135952 -9.02965e-19)
(20.3405 -0.141579 1.28833e-18)
(22.3008 -0.151688 2.54504e-18)
(23.4827 -0.177109 8.83531e-18)
(23.8859 -0.215506 -2.92343e-18)
(23.9511 -0.261535 1.08634e-17)
(24.0334 -0.306338 -2.18562e-18)
(24.1889 -0.341232 2.44848e-18)
(24.3752 -0.3622 -1.05231e-17)
(24.556 -0.369434 9.06388e-18)
(24.7206 -0.364681 1.35505e-17)
(24.8728 -0.349162 -5.47727e-18)
(25.0177 -0.323815 -1.44704e-17)
(25.1576 -0.289549 4.56668e-18)
(25.293 -0.24737 1.15255e-18)
(25.4231 -0.197628 2.34108e-17)
(25.5475 -0.141713 -3.09703e-17)
(25.6661 -0.0796859 1.24738e-17)
(25.7789 -0.0126701 -1.70906e-17)
(25.8858 0.0592317 1.04484e-17)
(25.9869 0.135319 -1.69251e-17)
(26.0822 0.215296 1.31612e-19)
(26.1717 0.298645 -1.97511e-17)
(26.2554 0.384872 -2.63622e-17)
(26.3333 0.473663 -9.46746e-18)
(26.4054 0.564562 1.48997e-19)
(26.4717 0.657285 3.90552e-18)
(26.5321 0.751523 6.8036e-19)
(26.5867 0.846907 2.54564e-17)
(26.6354 0.943122 8.16139e-19)
(26.6783 1.03985 1.72892e-18)
(26.7153 1.13668 -1.92101e-17)
(26.7466 1.2333 -2.63333e-18)
(26.7721 1.32931 2.45727e-18)
(26.7921 1.42439 -3.16864e-17)
(26.8067 1.51813 -2.07429e-16)
(26.816 1.61022 1.25e-17)
(26.8202 1.70031 2.46887e-17)
(26.8197 1.78809 -1.49053e-17)
(26.8147 1.87329 -4.61083e-18)
(26.8054 1.95564 1.43073e-16)
(26.7921 2.03493 -2.67437e-17)
(26.7753 2.11098 2.43393e-17)
(26.7552 2.18363 1.87793e-17)
(26.7322 2.25279 -6.9541e-17)
(26.7065 2.31838 1.56908e-16)
(26.6786 2.38036 7.79279e-18)
(26.6488 2.43873 -2.28871e-17)
(26.6172 2.4935 -1.33124e-16)
(26.5843 2.54475 1.01444e-16)
(26.5503 2.59253 7.80486e-19)
(26.5155 2.63696 -1.51571e-16)
(26.48 2.67813 -1.40172e-17)
(26.4442 2.71617 4.55627e-17)
(26.4081 2.75121 -2.70341e-16)
(26.3719 2.78339 6.66293e-17)
(26.3359 2.81285 -2.06566e-19)
(26.3002 2.83976 3.61911e-18)
(26.2652 2.86424 -2.06478e-16)
(26.2309 2.8865 1.04689e-16)
(26.1977 2.90653 -4.2807e-20)
(26.169 2.92229 6.07061e-18)
(26.1442 2.93518 6.43213e-19)
(26.1191 2.94689 -3.0491e-16)
(26.0934 2.95996 -7.59173e-17)
(26.0688 2.9679 3.04956e-17)
(26.0415 2.98462 8.11836e-17)
(26.021 2.97999 -2.42153e-19)
(25.9883 3.01601 -1.16264e-19)
(25.9837 2.96808 5.82413e-19)
(25.9304 3.07742 6.06356e-17)
(25.9728 2.88991 5.04774e-18)
(25.8525 3.23155 -3.19534e-17)
(26.0683 2.65383 1.82685e-19)
(18.4273 1.07949 -2.57808e-17)
(15.8068 0.839865 4.52839e-18)
(14.327 0.599298 2.2029e-17)
(14.2295 0.407869 8.06191e-18)
(15.199 0.289681 -5.19733e-18)
(16.803 0.234052 2.42391e-17)
(18.7269 0.228766 6.78266e-18)
(20.7342 0.264062 -1.93748e-18)
(22.5632 0.324079 -4.88656e-17)
(23.8889 0.383827 -6.12348e-17)
(24.4766 0.420208 1.99734e-17)
(24.5303 0.43056 -2.64153e-17)
(24.5087 0.430463 -1.03017e-17)
(24.5719 0.430629 -4.60348e-18)
(24.681 0.430578 1.7115e-17)
(24.7934 0.429316 -1.26244e-17)
(24.8959 0.427492 -1.59516e-17)
(24.9914 0.426308 5.35849e-18)
(25.0851 0.426979 1.15085e-17)
(25.1796 0.430577 -1.88088e-17)
(25.2751 0.437662 -1.44946e-17)
(25.3708 0.449209 -5.66699e-18)
(25.4656 0.465229 1.60901e-17)
(25.5591 0.486568 -4.64646e-19)
(25.6509 0.512975 -7.35319e-20)
(25.7405 0.544837 -2.81104e-18)
(25.8275 0.581809 8.87156e-18)
(25.9117 0.623939 -1.27385e-17)
(25.9927 0.671059 7.48854e-18)
(26.0701 0.722895 -5.39682e-18)
(26.1438 0.77924 -4.25641e-18)
(26.2135 0.839686 8.56341e-18)
(26.2789 0.903899 -2.52242e-17)
(26.34 0.971526 4.0453e-19)
(26.3965 1.04212 1.90134e-17)
(26.4482 1.11531 2.00977e-17)
(26.4951 1.19068 -1.79317e-17)
(26.5372 1.26779 -2.71542e-17)
(26.5742 1.34625 -2.01373e-18)
(26.6062 1.42561 6.66526e-17)
(26.6333 1.5055 -6.06078e-18)
(26.6553 1.58545 1.86153e-16)
(26.6725 1.66513 1.07913e-17)
(26.6849 1.7441 4.10945e-17)
(26.6926 1.82201 -1.34908e-17)
(26.6958 1.89851 -7.77752e-17)
(26.6948 1.97328 -1.29666e-16)
(26.6897 2.04603 -2.5707e-17)
(26.6808 2.1165 1.96849e-17)
(26.6684 2.18446 3.04717e-17)
(26.6528 2.24973 3.78875e-17)
(26.6342 2.31215 4.01374e-17)
(26.6129 2.3716 3.7988e-17)
(26.5893 2.42802 -8.74642e-18)
(26.5636 2.48134 -2.69595e-18)
(26.5361 2.53155 -2.10876e-16)
(26.5071 2.57866 8.57269e-19)
(26.4769 2.62272 1.24964e-16)
(26.4457 2.66377 5.58021e-18)
(26.4136 2.7019 -4.85687e-17)
(26.381 2.73719 1.65529e-16)
(26.348 2.76974 -1.28315e-16)
(26.3148 2.79967 2.5413e-16)
(26.2817 2.82711 4.29789e-18)
(26.2489 2.85216 -5.77606e-17)
(26.2166 2.87503 2.64879e-18)
(26.1852 2.89568 -5.24725e-20)
(26.1579 2.91197 7.49503e-18)
(26.1342 2.92537 7.93007e-19)
(26.1103 2.93746 1.8537e-16)
(26.0856 2.95129 7.40497e-17)
(26.062 2.95928 -3.08541e-17)
(26.0355 2.9774 -8.24698e-17)
(26.016 2.97184 -8.04503e-17)
(25.9842 3.01073 -6.13688e-17)
(25.9797 2.9599 5.29564e-17)
(25.9292 3.07457 -6.18807e-17)
(25.9679 2.88185 -3.45532e-18)
(25.8568 3.23038 8.08335e-19)
(21.1383 1.26655 -4.98824e-18)
(19.3292 1.12814 9.29809e-19)
(17.7573 0.958776 -9.05239e-19)
(16.8777 0.79384 -1.60138e-18)
(16.8793 0.667748 -1.56931e-17)
(17.6661 0.594026 4.66629e-19)
(18.9954 0.569384 -4.66133e-18)
(20.6196 0.585259 -4.36927e-18)
(22.3007 0.630852 6.5336e-18)
(23.7671 0.688414 2.01348e-17)
(24.7157 0.73267 -7.44734e-18)
(25.0212 0.745798 -9.57165e-18)
(24.9928 0.738203 1.53343e-17)
(24.9872 0.733118 -2.16519e-18)
(25.0547 0.734948 1.61901e-17)
(25.1354 0.739743 -2.68018e-17)
(25.2036 0.745928 -1.01601e-17)
(25.262 0.753378 1.55791e-17)
(25.3177 0.762282 3.99874e-17)
(25.3743 0.772912 1.21402e-17)
(25.4328 0.785125 2.09877e-17)
(25.4928 0.799184 4.97312e-19)
(25.5539 0.815034 -7.01889e-18)
(25.6156 0.833136 -4.10721e-17)
(25.6778 0.853483 3.28198e-17)
(25.7402 0.876531 8.03406e-18)
(25.8027 0.902323 5.34697e-18)
(25.8649 0.931185 1.2212e-17)
(25.9265 0.963305 -1.4883e-17)
(25.9872 0.998786 6.16621e-18)
(26.0467 1.03779 -1.92982e-18)
(26.1046 1.08028 1.55504e-18)
(26.1604 1.12623 5.06169e-19)
(26.214 1.17557 2.53855e-19)
(26.265 1.2281 7.9537e-18)
(26.313 1.28364 -1.88721e-17)
(26.3578 1.34192 2.40077e-17)
(26.3992 1.40264 2.23391e-18)
(26.4369 1.46551 -1.56042e-18)
(26.4707 1.53014 -6.23403e-17)
(26.5005 1.59621 -3.60497e-17)
(26.5262 1.6633 -1.41117e-16)
(26.5478 1.73109 9.09704e-18)
(26.5652 1.79916 2.92536e-17)
(26.5784 1.86715 1.03419e-17)
(26.5875 1.93471 -1.13222e-17)
(26.5926 2.00148 1.06009e-16)
(26.5938 2.06714 -2.31914e-17)
(26.5913 2.1314 2.58383e-17)
(26.5852 2.19397 -2.1147e-17)
(26.5758 2.25462 -1.47514e-17)
(26.5633 2.31314 -1.20579e-17)
(26.5479 2.36934 4.77884e-18)
(26.5299 2.4231 -1.22944e-16)
(26.5096 2.47429 -7.18904e-17)
(26.4872 2.52284 1.83031e-16)
(26.463 2.5687 8.32296e-19)
(26.4372 2.61185 -2.46846e-16)
(26.41 2.65231 -1.31424e-17)
(26.3818 2.69009 5.10504e-17)
(26.3526 2.72524 4.46612e-19)
(26.3227 2.75783 6.05261e-17)
(26.2924 2.78793 -4.26548e-16)
(26.2618 2.81565 -8.71691e-17)
(26.2314 2.84106 2.3903e-16)
(26.2012 2.86435 3.97222e-17)
(26.1716 2.88547 1.51235e-17)
(26.1459 2.90216 7.53822e-18)
(26.1234 2.916 7.9938e-19)
(26.1007 2.92838 1.0282e-16)
(26.077 2.9429 2.13583e-16)
(26.0546 2.95087 -2.40545e-19)
(26.0292 2.97028 -8.13324e-17)
(26.0102 2.96389 1.40383e-16)
(25.9803 3.00532 6.10429e-17)
(25.9746 2.95208 1.95238e-16)
(25.9289 3.07122 1.80481e-17)
(25.961 2.87459 -1.60849e-16)
(22.6124 1.42085 2.63727e-18)
(21.3073 1.34134 2.42305e-19)
(19.9627 1.23558 -9.46542e-18)
(18.8605 1.11783 3.30061e-18)
(18.2615 1.01132 3.45651e-18)
(18.3084 0.936527 1.07848e-19)
(18.9727 0.904124 3.37928e-18)
(20.1023 0.913731 -2.5515e-19)
(21.5007 0.958158 1.10321e-18)
(22.9471 1.02467 -1.65484e-17)
(24.1793 1.09259 5.67104e-18)
(24.929 1.13568 -1.07414e-18)
(25.1507 1.14039 1.28873e-17)
(25.1357 1.12352 -1.48836e-17)
(25.1498 1.10794 -5.50794e-18)
(25.2168 1.09845 -1.38405e-17)
(25.2858 1.0919 -1.18667e-18)
(25.3403 1.08682 -2.31202e-18)
(25.3874 1.08361 -2.72784e-17)
(25.4341 1.08298 -1.16935e-17)
(25.482 1.08504 -9.1142e-18)
(25.5309 1.08986 -2.42551e-17)
(25.5802 1.09729 2.39792e-17)
(25.6298 1.10746 1.03074e-18)
(25.6795 1.12021 -8.71649e-20)
(25.7293 1.13568 -8.4447e-18)
(25.7792 1.15375 -1.5649e-17)
(25.829 1.17452 2.22286e-18)
(25.8788 1.19799 1.79621e-17)
(25.9283 1.22418 -1.76856e-17)
(25.9774 1.25316 3.02645e-18)
(26.0258 1.28492 7.87922e-20)
(26.0734 1.3195 8.23813e-19)
(26.1198 1.35689 -1.91038e-20)
(26.1648 1.39705 8.21979e-18)
(26.2081 1.43993 -1.11168e-17)
(26.2493 1.48542 -6.73181e-19)
(26.2883 1.53337 -1.49862e-17)
(26.3247 1.58362 -2.0397e-17)
(26.3583 1.63593 1.17785e-18)
(26.3888 1.69008 1.14557e-17)
(26.4162 1.74577 2.34808e-17)
(26.4401 1.80274 7.66753e-18)
(26.4606 1.86064 1.06618e-17)
(26.4775 1.91917 -1.38069e-17)
(26.4907 1.97799 2.74428e-17)
(26.5003 2.03678 -9.69779e-18)
(26.5064 2.09521 -2.06685e-17)
(26.5089 2.15299 1.95404e-17)
(26.508 2.20982 5.1231e-17)
(26.5038 2.26543 -3.32117e-17)
(26.4965 2.31957 -1.1132e-17)
(26.4862 2.37204 -4.38694e-17)
(26.4732 2.42263 1.06517e-16)
(26.4577 2.4712 6.66919e-17)
(26.4399 2.51761 -1.78223e-16)
(26.42 2.56177 7.94206e-19)
(26.3983 2.6036 2.19772e-16)
(26.375 2.64307 -5.72173e-17)
(26.3503 2.68015 -5.41272e-17)
(26.3245 2.71486 -1.37306e-16)
(26.2977 2.74721 5.60284e-17)
(26.2701 2.77724 3.99876e-16)
(26.2421 2.80503 1.48853e-16)
(26.2139 2.83062 -1.81547e-16)
(26.1858 2.85416 8.80414e-17)
(26.1581 2.87563 -6.56533e-17)
(26.1338 2.89263 7.43176e-18)
(26.1125 2.90684 7.90286e-19)
(26.091 2.91946 -5.6094e-18)
(26.0684 2.93461 -2.14965e-16)
(26.047 2.94254 -2.40252e-19)
(26.0227 2.96315 2.03444e-17)
(26.0044 2.95599 -1.36754e-16)
(25.9761 2.99979 2.68669e-16)
(25.9695 2.94438 -4.26595e-18)
(25.928 3.06768 -8.10146e-19)
(23.7176 1.57819 -1.22972e-18)
(22.7535 1.52483 3.98219e-19)
(21.6628 1.45171 1.50139e-19)
(20.5988 1.3627 6.38289e-19)
(19.7482 1.27049 -3.91945e-18)
(19.2911 1.19072 4.59075e-18)
(19.3418 1.13846 -1.83804e-18)
(19.9003 1.12295 -4.7042e-19)
(20.8648 1.14515 3.9114e-18)
(22.0773 1.19925 -9.7803e-18)
(23.3391 1.273 -1.62489e-18)
(24.406 1.34584 -1.68796e-17)
(25.0516 1.39326 -1.0492e-17)
(25.2584 1.40493 -2.37374e-18)
(25.2623 1.39627 1.98199e-18)
(25.2758 1.38699 1.28826e-17)
(25.328 1.38167 2.18465e-18)
(25.3817 1.37771 -6.66237e-18)
(25.4237 1.37363 1.62162e-18)
(25.4609 1.37001 3.20834e-19)
(25.4992 1.36754 7.56184e-18)
(25.5394 1.3666 3.34877e-17)
(25.5806 1.36729 -8.21908e-18)
(25.6223 1.36983 3.71569e-19)
(25.6643 1.37432 -8.29103e-18)
(25.7067 1.38102 1.14247e-19)
(25.7492 1.39001 -6.04009e-19)
(25.7919 1.40143 1.83164e-19)
(25.8347 1.41538 7.61993e-18)
(25.8774 1.43192 -2.69809e-18)
(25.92 1.45109 4.8977e-18)
(25.9622 1.47293 4.19041e-18)
(26.004 1.49744 -3.60929e-18)
(26.0451 1.52462 3.87018e-19)
(26.0853 1.55442 6.15003e-18)
(26.1244 1.58682 6.61126e-18)
(26.1621 1.62175 1.07645e-18)
(26.1983 1.6591 -4.40232e-18)
(26.2327 1.69878 2.50163e-17)
(26.265 1.74064 -3.83926e-18)
(26.2951 1.78451 -6.2458e-18)
(26.3226 1.83019 1.02733e-17)
(26.3475 1.87749 1.85491e-17)
(26.3695 1.92613 2.9944e-17)
(26.3886 1.97586 -4.1861e-17)
(26.4045 2.02642 5.23699e-18)
(26.4172 2.07751 -8.57065e-18)
(26.4268 2.12884 -1.84946e-17)
(26.4331 2.18013 1.76937e-17)
(26.4362 2.23108 -2.6283e-18)
(26.4363 2.28143 -4.16776e-17)
(26.4333 2.33092 -1.04101e-17)
(26.4273 2.37931 9.28861e-18)
(26.4187 2.42638 -7.43563e-18)
(26.4074 2.47193 -2.34336e-18)
(26.3937 2.51582 1.5261e-16)
(26.3778 2.55789 7.75523e-19)
(26.3599 2.59803 -1.15165e-16)
(26.3402 2.63616 2.70798e-19)
(26.3189 2.67223 -1.57068e-18)
(26.2962 2.70618 9.12898e-18)
(26.2724 2.73802 -3.73389e-18)
(26.2475 2.76774 -2.27681e-16)
(26.222 2.79538 -8.05949e-17)
(26.196 2.82096 1.64118e-16)
(26.17 2.84461 -8.57103e-17)
(26.1441 2.86629 5.02875e-17)
(26.1214 2.88348 1.12257e-16)
(26.1013 2.898 -1.4472e-16)
(26.0809 2.91077 -2.65297e-16)
(26.0595 2.92648 -9.83525e-19)
(26.0391 2.93435 -2.50706e-19)
(26.0159 2.95608 -7.45766e-17)
(25.9983 2.94819 7.52286e-17)
(25.9716 2.99422 -7.19391e-18)
(25.9644 2.93677 -4.37046e-18)
(24.5597 1.72262 -6.51354e-20)
(23.8777 1.68568 3.01235e-19)
(23.0241 1.63291 1.51158e-18)
(22.092 1.56448 5.30277e-19)
(21.2006 1.48708 3.27827e-18)
(20.4904 1.40997 -2.99681e-18)
(20.1011 1.34501 6.91705e-19)
(20.1308 1.30442 -3.95211e-19)
(20.5955 1.29635 1.09598e-17)
(21.4248 1.3223 1.74541e-17)
(22.489 1.37745 -1.49941e-18)
(23.6096 1.45027 1.016e-18)
(24.5654 1.52155 4.45153e-18)
(25.1635 1.56966 1.2139e-17)
(25.383 1.58587 2.28332e-18)
(25.4056 1.58255 -2.13355e-18)
(25.4139 1.57687 -1.94096e-18)
(25.4505 1.57439 1.10383e-18)
(25.4911 1.57338 2.74382e-18)
(25.5236 1.57243 8.45015e-18)
(25.5523 1.57164 2.04155e-18)
(25.5822 1.57159 -2.42606e-18)
(25.6138 1.57247 -1.06393e-17)
(25.6462 1.57435 2.83512e-17)
(25.6792 1.5773 -1.56515e-17)
(25.7125 1.58148 -5.02183e-19)
(25.7464 1.58705 8.6153e-19)
(25.7807 1.59417 -9.48102e-20)
(25.8155 1.603 -6.39463e-18)
(25.8506 1.61368 -4.75686e-19)
(25.886 1.62636 -1.06936e-17)
(25.9214 1.64115 8.90512e-19)
(25.9569 1.65814 4.10114e-18)
(25.9922 1.67742 2.29849e-19)
(26.0272 1.69902 3.9348e-18)
(26.0616 1.72298 2.61694e-18)
(26.0952 1.74928 -7.6478e-18)
(26.1279 1.7779 -1.04436e-17)
(26.1594 1.80879 -1.49023e-17)
(26.1894 1.84184 8.64123e-18)
(26.2178 1.87697 6.69084e-18)
(26.2444 1.91403 1.52477e-17)
(26.2689 1.95287 -6.76223e-18)
(26.2911 1.9933 -2.04745e-17)
(26.311 2.03512 -4.70358e-18)
(26.3283 2.07811 1.52839e-17)
(26.3429 2.12203 -7.49733e-18)
(26.3547 2.16663 -1.64031e-17)
(26.3637 2.21165 1.58993e-17)
(26.3698 2.25682 2.76898e-17)
(26.373 2.3019 3.70898e-17)
(26.3735 2.34663 -9.69211e-18)
(26.3711 2.39076 4.68656e-17)
(26.3661 2.43408 -7.06783e-18)
(26.3584 2.47636 -2.24892e-18)
(26.3484 2.51742 -1.48087e-16)
(26.3361 2.55709 7.57555e-19)
(26.3216 2.59523 8.95337e-17)
(26.3053 2.63172 5.28466e-17)
(26.2872 2.66647 -1.57013e-18)
(26.2675 2.69939 2.01441e-16)
(26.2465 2.73046 -3.7823e-18)
(26.2243 2.75962 -2.44035e-19)
(26.2012 2.7869 -4.1363e-17)
(26.1775 2.81228 -8.85757e-18)
(26.1535 2.83585 -3.08521e-17)
(26.1295 2.85759 -5.5702e-20)
(26.1083 2.87487 -9.62342e-17)
(26.0895 2.8896 1.45952e-16)
(26.0702 2.90245 4.1498e-18)
(26.05 2.91864 -1.41293e-16)
(26.0306 2.9264 4.84425e-17)
(26.0087 2.94914 1.31688e-16)
(25.9917 2.94056 -3.91139e-19)
(25.1196 1.8496 -4.93347e-19)
(24.7005 1.82671 2.4047e-19)
(24.0822 1.79037 3.32528e-19)
(23.3243 1.7393 3.54857e-19)
(22.5055 1.67714 1.57112e-19)
(21.7233 1.60887 -4.65757e-20)
(21.0924 1.54195 4.37398e-19)
(20.7295 1.48648 -2.49685e-19)
(20.7239 1.45291 -4.1887e-19)
(21.1023 1.44874 -1.2129e-18)
(21.8168 1.47584 3.49883e-19)
(22.759 1.53015 -8.95136e-19)
(23.7693 1.60096 1.68898e-18)
(24.6504 1.67063 -2.94321e-19)
(25.2307 1.71983 1.36086e-18)
(25.4746 1.7398 4.37145e-19)
(25.5173 1.7396 -2.54836e-18)
(25.5215 1.73471 7.52782e-19)
(25.5451 1.73208 1.93497e-18)
(25.5768 1.73129 -5.89302e-19)
(25.6042 1.73093 -1.25536e-18)
(25.6285 1.73083 -1.94804e-18)
(25.6532 1.73138 1.60936e-18)
(25.6791 1.73279 -1.24295e-18)
(25.7055 1.73509 1.52985e-18)
(25.7321 1.73833 -5.58209e-19)
(25.7591 1.74258 4.91316e-18)
(25.7864 1.74797 -3.94638e-18)
(25.8141 1.75459 -5.17528e-19)