# static(p)_coeff  POINT_DATA 156
# x y z  static(p)_coeff
-17.5492 0.306481 0.05 0.0306392
-17.5492 0.306481 0 0.0306392
-17.5472 0.397851 0 -0.167887
-17.5472 0.397851 0.05 -0.167887
-17.5391 0.49775 0 -0.387593
-17.5391 0.49775 0.05 -0.387593
-17.5189 0.60624 0 -0.625601
-17.5189 0.60624 0.05 -0.625601
-17.4861 0.723342 0 -0.856087
-17.4861 0.723342 0.05 -0.856087
-17.44 0.848679 0 -1.08091
-17.44 0.848679 0.05 -1.08091
-17.377 0.981445 0 -1.29731
-17.377 0.981445 0.05 -1.29731
-17.2959 1.12134 0 -1.48714
-17.2959 1.12134 0.05 -1.48714
-17.1951 1.26784 0 -1.65108
-17.1951 1.26784 0.05 -1.65108
-17.0722 1.42 0 -1.78922
-17.0722 1.42 0.05 -1.78922
-16.9255 1.57744 0 -1.89874
-16.9255 1.57744 0.05 -1.89874
-16.7528 1.73942 0 -1.98333
-16.7528 1.73942 0.05 -1.98333
-16.5519 1.90501 0 -2.04573
-16.5519 1.90501 0.05 -2.04573
-16.3202 2.07341 0 -2.08914
-16.3202 2.07341 0.05 -2.08914
-16.0549 2.24347 0 -2.1156
-16.0549 2.24347 0.05 -2.1156
-15.753 2.41374 0 -2.12448
-15.753 2.41374 0.05 -2.12448
-15.4112 2.58276 0 -2.1159
-15.4112 2.58276 0.05 -2.1159
-15.0259 2.74838 0 -2.08951
-15.0259 2.74838 0.05 -2.08951
-14.5933 2.90861 0 -2.04538
-14.5933 2.90861 0.05 -2.04538
-14.1092 3.06066 0 -1.98475
-14.1092 3.06066 0.05 -1.98475
-13.5691 3.20201 0 -1.91031
-13.5691 3.20201 0.05 -1.91031
-12.9684 3.32943 0 -1.82828
-12.9684 3.32943 0.05 -1.82828
-12.3022 3.44054 0 -1.74643
-12.3022 3.44054 0.05 -1.74643
-11.5649 3.53289 0 -1.66505
-11.5649 3.53289 0.05 -1.66505
-10.7508 3.60555 0 -1.56754
-10.7508 3.60555 0.05 -1.56754
-9.85332 3.65883 0 -1.44292
-9.85332 3.65883 0.05 -1.44292
-8.86484 3.69086 0 -1.30295
-8.86484 3.69086 0.05 -1.30295
-7.77697 3.69778 0 -1.16801
-7.77697 3.69778 0.05 -1.16801
-6.58048 3.6759 0 -1.04809
-6.58048 3.6759 0.05 -1.04809
-5.26526 3.62108 0 -0.939765
-5.26526 3.62108 0.05 -0.939765
-3.82021 3.52882 0 -0.835857
-3.82021 3.52882 0.05 -0.835857
-2.23308 3.39439 0 -0.732976
-2.23308 3.39439 0.05 -0.732976
-0.490443 3.2127 0 -0.630655
-0.490443 3.2127 0.05 -0.630655
1.42254 2.97825 0 -0.528503
1.42254 2.97825 0.05 -0.528503
3.5222 2.68501 0 -0.425552
3.5222 2.68501 0.05 -0.425552
5.82644 2.32599 0 -0.31988
5.82644 2.32599 0.05 -0.31988
8.3548 1.89256 0 -0.210086
8.3548 1.89256 0.05 -0.210086
11.1283 1.37286 0 -0.0897688
11.1283 1.37286 0.05 -0.0897688
14.1695 0.751658 0 0.0300011
14.1695 0.751658 0.05 0.0300011
17.5 -5.0487e-06 0 0.120449
17.5 -5.0487e-06 0.05 0.120449
-17.5422 0.216644 0.05 0.218194
-17.5422 0.216644 0 0.218194
-17.529 0.118651 0.05 0.404221
-17.529 0.118651 0 0.404221
-17.5035 0.0128145 0.05 0.587563
-17.5035 0.0128145 0 0.587563
-17.4639 -0.100298 0.05 0.749763
-17.4639 -0.100298 0 0.749763
-17.4081 -0.21963 0.05 0.877869
-17.4081 -0.21963 0 0.877869
-17.3329 -0.343474 0.05 0.959943
-17.3329 -0.343474 0 0.959943
-17.2353 -0.469453 0.05 0.994936
-17.2353 -0.469453 0 0.994936
-17.1135 -0.595699 0.05 0.993864
-17.1135 -0.595699 0 0.993864
-16.967 -0.721197 0.05 0.962025
-16.967 -0.721197 0 0.962025
-16.7942 -0.84439 0.05 0.904559
-16.7942 -0.84439 0 0.904559
-16.5941 -0.964642 0.05 0.83496
-16.5941 -0.964642 0 0.83496
-16.3659 -1.08228 0.05 0.763209
-16.3659 -1.08228 0 0.763209
-16.1079 -1.19749 0.05 0.693314
-16.1079 -1.19749 0 0.693314
-15.8184 -1.31053 0.05 0.627606
-15.8184 -1.31053 0 0.627606
-15.4954 -1.42239 0.05 0.566649
-15.4954 -1.42239 0 0.566649
-15.1361 -1.53339 0.05 0.509838
-15.1361 -1.53339 0 0.509838
-14.7376 -1.64422 0.05 0.456455
-14.7376 -1.64422 0 0.456455
-14.2963 -1.75519 0.05 0.40537
-14.2963 -1.75519 0 0.40537
-13.8084 -1.86663 0.05 0.355428
-13.8084 -1.86663 0 0.355428
-13.2692 -1.97821 0.05 0.305733
-13.2692 -1.97821 0 0.305733
-12.6739 -2.08937 0.05 0.25577
-12.6739 -2.08937 0 0.25577
-12.0167 -2.19857 0.05 0.205173
-12.0167 -2.19857 0 0.205173
-11.2914 -2.30322 0.05 0.154707
-11.2914 -2.30322 0 0.154707
-10.491 -2.39854 0.05 0.107757
-10.491 -2.39854 0 0.107757
-9.60806 -2.48004 0.05 0.0687924
-9.60806 -2.48004 0 0.0687924
-8.63486 -2.54503 0.05 0.0378789
-8.63486 -2.54503 0 0.0378789
-7.56293 -2.59043 0.05 0.0129123
-7.56293 -2.59043 0 0.0129123
-6.38295 -2.61298 0.05 -0.00630502
-6.38295 -2.61298 0 -0.00630502
-5.08474 -2.60901 0.05 -0.0196104
-5.08474 -2.60901 0 -0.0196104
-3.65712 -2.57462 0.05 -0.0274544
-3.65712 -2.57462 0 -0.0274544
-2.08779 -2.50566 0.05 -0.0304177
-2.08779 -2.50566 0 -0.0304177
-0.363235 -2.39771 0.05 -0.028828
-0.363235 -2.39771 0 -0.028828
1.53142 -2.24595 0.05 -0.0228198
1.53142 -2.24595 0 -0.0228198
3.61256 -2.0451 0.05 -0.0123845
3.61256 -2.0451 0 -0.0123845
5.89814 -1.78898 0.05 0.00301951
5.89814 -1.78898 0 0.00301951
8.40781 -1.46986 0.05 0.0247943
8.40781 -1.46986 0 0.0247943
11.1628 -1.07688 0.05 0.0585733
11.1628 -1.07688 0 0.0585733
14.1859 -0.596043 0.05 0.115444
14.1859 -0.596043 0 0.115444
