/*--------------------------------*- C++ -*----------------------------------*\
| =========                 |                                                 |
| \\      /  F ield         | OpenFOAM: The Open Source CFD Toolbox           |
|  \\    /   O peration     | Version:  2506                                  |
|   \\  /    A nd           | Website:  www.openfoam.com                      |
|    \\/     M anipulation  |                                                 |
\*---------------------------------------------------------------------------*/
FoamFile
{
    version     2.0;
    format      ascii;
    arch        "LSB;label=32;scalar=64";
    class       volVectorField;
    location    "300";
    object      U;
}
// * * * * * * * * * * * * * * * * * * * * * * * * * * * * * * * * * * * * * //

dimensions      [0 1 -1 0 0 0 0];

internalField   nonuniform List<vector> 
1340
(
(17.8938 14.0937 -4.02267e-18)
(17.3011 13.3905 5.85492e-17)
(16.7582 12.6529 1.77716e-16)
(16.2302 11.7732 -3.80219e-16)
(15.7271 10.7738 -7.78149e-16)
(18.602 13.4368 1.56177e-17)
(18.0462 12.7933 6.7003e-17)
(17.5361 12.1194 -2.01022e-16)
(17.0351 11.3145 -7.60552e-18)
(16.5532 10.3986 4.40467e-16)
(16.1576 9.42259 -8.76264e-16)
(19.2325 12.8391 -1.08231e-17)
(18.709 12.248 -4.73993e-17)
(18.2279 11.6301 -2.57466e-17)
(17.7513 10.8906 1.74076e-16)
(17.2893 10.0479 -4.61954e-17)
(16.9051 9.15069 5.40959e-16)
(16.5976 8.18715 9.23414e-16)
(19.7964 12.2919 1.02425e-17)
(19.3019 11.7473 1.72684e-17)
(18.8466 11.1788 7.36026e-17)
(18.3926 10.4972 -2.70056e-16)
(17.9493 9.71926 -2.18987e-16)
(17.5765 8.8915 -4.95697e-16)
(17.2725 8.00048 -6.987e-16)
(17.0563 7.06252 6.31972e-16)
(20.3032 11.7883 9.62941e-18)
(19.8349 11.2853 7.57824e-18)
(19.4031 10.7609 -3.95594e-17)
(18.9697 10.1309 2.33861e-16)
(18.5443 9.41061 5.01498e-16)
(18.1828 8.64449 3.44982e-17)
(17.8837 7.81806 1.29581e-15)
(17.6645 6.94709 -4.95025e-16)
(17.538 6.08561 -7.59932e-16)
(20.7606 11.3228 1.29268e-17)
(20.3161 10.8573 -2.56314e-17)
(19.9057 10.3721 -2.06162e-17)
(19.4915 9.78854 -3.30268e-17)
(19.0829 9.1201 4.15193e-16)
(18.7328 8.40921 -5.6296e-16)
(18.4396 7.64083 1.83256e-16)
(18.2193 6.83012 1.23765e-17)
(18.085 6.02805 -1.82553e-15)
(18.0352 5.26614 5.6694e-16)
(21.1749 10.8907 -1.0949e-17)
(20.7521 10.4592 2.10161e-17)
(20.3614 10.0096 1.53853e-16)
(19.9652 9.46776 4.15919e-17)
(19.5726 8.8462 -2.5761e-16)
(19.2338 8.18504 2.45923e-16)
(18.947 7.46912 -4.77022e-18)
(18.7273 6.71307 9.31828e-16)
(18.5875 5.96483 1.37995e-16)
(18.5265 5.2542 -1.58445e-16)
(21.5513 10.4884 -3.20618e-18)
(21.1485 10.0878 -5.94094e-18)
(20.776 9.67034 -1.2837e-16)
(20.3966 9.16653 -2.77758e-16)
(20.0193 8.58752 -4.13516e-16)
(19.6916 7.97142 7.36604e-16)
(19.4118 7.30321 -7.77204e-16)
(19.1938 6.5969 1.99966e-16)
(19.0504 5.8977 5.0109e-16)
(18.9809 5.2338 2.47647e-16)
(18.9774 4.60775 3.44563e-16)
(21.894 10.1126 1.86301e-17)
(21.51 9.74029 4.2431e-17)
(21.1544 9.35217 1.36543e-16)
(20.7908 8.88303 -3.50614e-17)
(20.428 8.34287 1.57011e-16)
(20.1113 7.7678 -7.48172e-16)
(19.8386 7.14319 6.54764e-16)
(19.6233 6.48235 9.32576e-16)
(19.4779 5.82803 1.73389e-17)
(19.4018 5.2069 5.71791e-16)
(19.3875 4.62136 2.83665e-16)
(22.207 9.76075 -2.12506e-17)
(21.8404 9.41435 3.58395e-17)
(21.5006 9.05305 -1.21639e-16)
(21.1519 8.61573 -1.30451e-16)
(20.803 8.11117 -1.46802e-17)
(20.4971 7.57361 6.74341e-16)
(20.2318 6.98903 -9.463e-17)
(20.0198 6.36998 -6.18316e-16)
(19.8736 5.75682 -6.16158e-16)
(19.7925 5.17502 -1.9321e-15)
(19.7694 4.62676 4.51475e-16)
(19.7956 4.11966 1.25017e-15)
(22.4933 9.43051 1.16763e-17)
(22.143 9.108 9.18618e-18)
(21.8182 8.77133 1.33076e-16)
(21.4836 8.36327 2.84783e-16)
(21.148 7.89147 -1.40485e-16)
(20.8526 7.38838 -5.14001e-16)
(20.5948 6.84067 7.7374e-17)
(20.3866 6.2601 -7.68611e-16)
(20.2404 5.6849 3.90589e-16)
(20.1558 5.13934 7.25357e-16)
(20.1257 4.62549 -6.27776e-16)
(20.1417 4.1506 -6.89166e-16)
(22.7557 9.12001 -1.25635e-17)
(22.4207 8.81952 6.24566e-17)
(22.1099 8.50555 -4.04033e-17)
(21.7888 8.12448 -3.83203e-17)
(21.4659 7.68288 -1.33253e-16)
(21.1808 7.21163 -4.05883e-16)
(20.9305 6.69796 -2.17914e-16)
(20.7266 6.15296 -6.65579e-17)
(20.5812 5.61285 2.97833e-16)
(20.4941 5.10077 4.35482e-16)
(20.4583 4.61873 8.20766e-16)
(20.4659 4.17365 -2.19426e-16)
(22.9965 8.82753 -1.09992e-17)
(22.6761 8.54744 -8.66225e-17)
(22.3785 8.25443 -6.8829e-17)
(22.0702 7.89829 -6.23648e-17)
(21.7596 7.48466 -4.94869e-17)
(21.4844 7.04287 2.37448e-16)
(21.2416 6.56075 -1.21808e-15)
(21.0422 6.04869 1.0358e-16)
(20.8982 5.5411 1.81758e-15)
(20.8094 5.06006 4.10358e-16)
(20.7691 4.60754 -1.43852e-15)
(20.7697 4.19013 -9.98021e-16)
(20.8032 3.81398 2.19133e-16)
(23.2177 8.5516 1.31556e-17)
(22.9111 8.29041 -2.33216e-17)
(22.6261 8.01686 1.18479e-16)
(22.33 7.68382 -4.11052e-16)
(22.0312 7.29613 -3.66862e-16)
(21.7657 6.88169 -1.92256e-16)
(21.5303 6.42884 4.57033e-16)
(21.3357 5.94744 7.79545e-16)
(21.1935 5.47007 -7.9953e-16)
(21.1038 5.01786 7.35089e-16)
(21.0599 4.59271 -4.5779e-18)
(21.0546 4.20099 -2.68296e-16)
(21.0803 3.84863 9.16727e-16)
(23.4213 8.29094 -1.02704e-17)
(23.1277 8.04731 -3.29611e-17)
(22.8547 7.79182 8.57172e-17)
(22.5703 7.48025 1.82352e-16)
(22.2828 7.1167 3.5865e-16)
(22.0266 6.72768 2.62799e-16)
(21.7987 6.30208 8.81584e-16)
(21.6089 5.8492 -1.48451e-15)
(21.469 5.39999 1.29278e-16)
(21.3789 4.9746 -3.07251e-16)
(21.3322 4.57494 6.98751e-16)
(21.322 4.20713 2.114e-16)
(21.341 3.87687 5.14898e-16)
(21.3834 3.57892 1.86309e-16)
(23.6087 8.0444 1.13899e-17)
(23.3276 7.81716 5.19243e-17)
(23.0659 7.57843 -1.54337e-16)
(22.7928 7.28684 7.82278e-17)
(22.5162 6.94579 3.42284e-16)
(22.2691 6.58046 -1.00192e-16)
(22.0485 6.18029 -4.55435e-16)
(21.8637 5.75402 1.10767e-15)
(21.7262 5.33106 -9.93225e-16)
(21.6362 4.93068 8.40666e-16)
(21.5874 4.55476 -3.22812e-16)
(21.573 4.20921 -4.30108e-16)
(21.5863 3.89951 -7.51784e-16)
(21.6215 3.62069 1.01716e-16)
(23.7814 7.81098 -9.21919e-19)
(23.5122 7.59901 1.44501e-17)
(23.2614 7.37592 -9.47005e-17)
(22.999 7.10293 2.08914e-16)
(22.733 6.78288 -3.29027e-16)
(22.4947 6.43966 4.47044e-16)
(22.2812 6.06324 4.59714e-16)
(22.1015 5.66185 -4.75987e-16)
(21.9667 5.26343 -7.92751e-17)
(21.8771 4.88641 1.00005e-16)
(21.8266 4.53267 -3.84578e-16)
(21.8089 4.20786 5.29069e-16)
(21.8172 3.9173 3.2292e-16)
(21.846 3.65625 4.58253e-17)
(23.9407 7.58979 -1.6461e-18)
(23.6828 7.39205 1.35057e-17)
(23.4424 7.18354 -4.2252e-18)
(23.1903 6.92795 -1.17874e-16)
(22.9345 6.62751 -3.61574e-16)
(22.7048 6.30497 -2.86571e-16)
(22.4983 5.95078 -4.69991e-16)
(22.3236 5.57267 2.21182e-16)
(22.1917 5.19722 7.56841e-17)
(22.1028 4.84204 -1.27881e-15)
(22.0511 4.509 -2.21193e-16)
(22.0305 4.20357 -4.85294e-16)
(22.0346 3.93084 9.06427e-16)
(22.0579 3.68633 -9.63892e-16)
(22.0964 3.46542 -3.17449e-16)
(24.0876 7.38001 1.2097e-17)
(23.8406 7.19557 4.96911e-17)
(23.6101 7.00069 1.1898e-16)
(23.368 6.76134 1.54032e-16)
(23.122 6.47926 2.85211e-16)
(22.9006 6.17609 2.78912e-16)
(22.7009 5.84271 -8.87926e-16)
(22.5313 5.48643 -4.32838e-16)
(22.4023 5.1325 7.51988e-16)
(22.3145 4.79777 1.37554e-15)
(22.2619 4.48411 6.99081e-16)
(22.2389 4.19676 -1.64698e-16)
(22.2394 3.94066 -2.27956e-16)
(22.2579 3.71155 1.07046e-15)
(22.2905 3.50502 -2.24984e-16)
(24.2232 7.1809 9.46248e-18)
(23.9866 7.0089 -1.5708e-17)
(23.7656 6.82676 -4.98602e-17)
(23.5331 6.60262 -7.90841e-17)
(23.2966 6.33774 -7.49431e-16)
(23.0832 6.05271 -1.50544e-16)
(22.8903 5.73886 4.55379e-16)
(22.7256 5.40305 4.06709e-16)
(22.5998 5.06933 -1.13797e-15)
(22.5131 4.75377 2.20306e-16)
(22.46 4.45824 -1.13188e-16)
(22.435 4.1878 9.29193e-18)
(22.4323 3.9472 -3.7343e-16)
(22.4465 3.73241 -5.81218e-16)
(22.474 3.53924 2.10322e-17)
(24.3484 6.99183 -4.48803e-18)
(24.1218 6.83145 2.67975e-17)
(23.91 6.66123 4.21374e-17)
(23.6866 6.45132 1.88555e-17)
(23.4592 6.20258 1.07561e-16)
(23.2537 5.93458 6.71195e-16)
(23.0673 5.63905 -4.26205e-16)
(22.9077 5.32249 3.25138e-16)
(22.7849 5.00773 1.16816e-15)
(22.6995 4.71015 -9.4877e-16)
(22.6462 4.43162 8.23865e-16)
(22.6195 4.177 5.75203e-16)
(22.614 3.95088 9.05593e-16)
(22.6246 3.74942 -1.45947e-16)
(22.6475 3.56866 -3.70313e-16)
(22.6799 3.40599 -3.97289e-16)
(24.464 6.81219 -1.32617e-20)
(24.247 6.66269 -8.66015e-17)
(24.044 6.50362 1.32365e-16)
(23.8295 6.30705 -5.39812e-17)
(23.6109 6.07346 5.51825e-16)
(23.413 5.82145 -3.93047e-16)
(23.233 5.54313 7.768e-17)
(23.0783 5.24465 1.16466e-15)
(22.9586 4.94771 -1.42141e-15)
(22.8747 4.66702 6.01076e-16)
(22.8213 4.40443 -9.77902e-16)
(22.7933 4.16462 -1.18347e-15)
(22.7854 3.952 -5.56146e-16)
(22.7927 3.76298 2.36713e-16)
(22.8115 3.59376 5.75744e-16)
(22.8392 3.44183 2.30091e-16)
(24.3629 6.50211 -3.12798e-17)
(24.1684 6.3535 -4.52986e-17)
(23.9625 6.16942 -3.02762e-17)
(23.7524 5.95007 -3.72921e-16)
(23.5619 5.71306 6.65231e-16)
(23.3881 5.45093 -3.55738e-16)
(23.2382 5.16946 -1.45984e-15)
(23.1218 4.88928 1.39048e-15)
(23.0394 4.62445 1.97337e-16)
(22.9861 4.37682 4.40104e-16)
(22.9569 4.15087 5.27755e-16)
(22.947 3.95089 -8.52845e-17)
(22.9514 3.77345 9.53412e-17)
(22.9666 3.61494 -5.75256e-16)
(22.9901 3.47299 3.07456e-16)
(23.0205 3.34358 -5.76206e-16)
(24.4704 6.34926 -1.9826e-17)
(24.284 6.21045 6.44026e-17)
(24.0863 6.03809 -2.57151e-16)
(23.8845 5.83211 7.93287e-17)
(23.7011 5.60922 -6.38617e-16)
(23.5335 5.36231 1.55893e-16)
(23.3883 5.09684 3.79297e-17)
(23.275 4.83244 -4.91628e-17)
(23.1943 4.58252 -2.26043e-16)
(23.1412 4.34892 1.17654e-15)
(23.1112 4.13597 -1.26444e-16)
(23.0995 3.94778 1.02689e-15)
(23.1013 3.78112 -3.39216e-16)
(23.1134 3.63258 3.31632e-16)
(23.1331 3.49988 -2.48116e-16)
(23.1592 3.37918 4.32488e-16)
(24.5699 6.20372 -9.15399e-17)
(24.3914 6.07409 -1.19707e-17)
(24.2017 5.91273 4.13953e-16)
(24.0078 5.71933 1.49883e-17)
(23.8314 5.5097 3.8272e-16)
(23.6697 5.27712 -5.17344e-16)
(23.5292 5.02673 8.58193e-17)
(23.4191 4.77716 -2.6428e-16)
(23.34 4.54127 2.1015e-16)
(23.2873 4.32084 -6.36713e-16)
(23.2566 4.12008 -3.57607e-16)
(23.2433 3.94293 -1.12205e-15)
(23.243 3.78632 3.44695e-16)
(23.2522 3.64704 1.31943e-16)
(23.2685 3.52291 -1.15382e-16)
(23.2908 3.41027 -1.21452e-16)
(24.6622 6.0651 6.71514e-17)
(24.4912 5.94407 1.49042e-16)
(24.3092 5.79304 -1.75333e-16)
(24.1231 5.61147 -5.37003e-16)
(23.9533 5.41433 7.88801e-17)
(23.7974 5.19523 -1.40868e-16)
(23.6615 4.95903 4.76526e-16)
(23.5546 4.72345 6.90652e-16)
(23.4772 4.50075 -4.87322e-16)
(23.425 4.29271 -7.31446e-16)
(23.3938 4.10336 1.43512e-15)
(23.3792 3.93652 6.52254e-16)
(23.3768 3.78928 -2.07991e-16)
(23.3835 3.65861 1.01413e-16)
(23.3969 3.54243 5.41736e-16)
(23.4157 3.43723 4.38796e-16)
(23.4392 3.3402 6.41627e-17)
(24.7477 5.93304 -1.50334e-17)
(24.5839 5.82009 -1.65525e-16)
(24.4095 5.67875 2.16904e-17)
(24.2308 5.50831 8.12755e-16)
(24.0675 5.32291 -6.83138e-16)
(23.9172 5.11651 8.1268e-17)
(23.7859 4.89368 -4.27071e-17)
(23.682 4.67127 -4.58577e-16)
(23.6065 4.46098 1.35213e-15)
(23.5548 4.26457 2.80742e-17)
(23.5232 4.08594 -1.36163e-15)
(23.5075 3.92873 3.6181e-16)
(23.5034 3.79024 -6.26144e-16)
(23.5078 3.66755 -5.2647e-16)
(23.5186 3.55874 -2.12537e-16)
(23.5343 3.46044 9.07159e-17)
(23.5544 3.36994 5.97595e-17)
(24.8269 5.80721 -4.03815e-17)
(24.6702 5.70183 1.0552e-16)
(24.5029 5.56959 1.01537e-16)
(24.3314 5.40962 -8.44013e-16)
(24.1745 5.23527 6.90711e-16)
(24.0297 5.04083 -2.71877e-16)
(23.9028 4.83061 9.896e-16)
(23.802 4.6206 6.79946e-16)
(23.7283 4.42199 -1.95872e-15)
(23.6773 4.23652 -8.96759e-16)
(23.6454 4.06793 3.78322e-16)
(23.6287 3.91974 -1.35115e-16)
(23.6231 3.78939 4.21811e-16)
(23.6256 3.67415 -3.404e-16)
(23.634 3.57215 -8.83821e-17)
(23.647 3.48022 -6.96337e-17)
(23.6639 3.39575 -7.29935e-17)
(24.9003 5.6873 1.34913e-18)
(24.7503 5.58902 1.13507e-16)
(24.5901 5.46532 -1.6943e-16)
(24.4255 5.3152 4.3586e-16)
(24.2748 5.15125 -2.63978e-16)
(24.1353 4.96807 4.76457e-16)
(24.0128 4.76973 -9.33304e-16)
(23.9151 4.57141 -1.09306e-16)
(23.8431 4.3838 1.61438e-15)
(23.7929 4.20861 -1.16344e-16)
(23.7609 4.04945 -2.44405e-16)
(23.7433 3.90969 -6.26633e-17)
(23.7364 3.78694 5.76647e-16)
(23.7371 3.6786 3.08494e-16)
(23.7434 3.58293 -3.15684e-16)
(23.754 3.49688 4.77938e-16)
(23.7682 3.41798 5.33677e-17)
(23.7857 3.34436 -3.88479e-16)
(24.9683 5.57302 -1.10556e-17)
(24.8249 5.48139 -1.82281e-16)
(24.6714 5.36572 4.2732e-17)
(24.5136 5.22486 3.60157e-17)
(24.3688 5.07071 -3.07091e-16)
(24.2346 4.89814 -3.50804e-16)
(24.1162 4.711 -4.60636e-16)
(24.0216 4.52369 -1.13604e-15)
(23.9515 4.34643 6.13305e-16)
(23.9021 4.1809 1.21838e-15)
(23.87 4.03057 4.25354e-16)
(23.8518 3.89871 4.56218e-17)
(23.8437 3.78305 1.94657e-16)
(23.8428 3.68114 2.97002e-16)
(23.8473 3.59132 -3.7955e-16)
(23.8557 3.51072 -9.42252e-17)
(23.8675 3.43696 3.68679e-16)
(23.8822 3.36823 -1.25833e-17)
(25.0314 5.46411 4.15111e-17)
(24.8942 5.37871 -5.81781e-17)
(24.7472 5.27057 9.56963e-18)
(24.596 5.13843 -1.87314e-16)
(24.4569 4.99349 6.68764e-16)
(24.3278 4.83092 1.06221e-15)
(24.2136 4.65433 -4.21179e-16)
(24.122 4.4774 1.74417e-16)
(24.0537 4.30989 -4.48982e-16)
(24.0052 4.15344 -1.09522e-15)
(23.9732 4.01141 -4.98703e-16)
(23.9544 3.88693 -3.07987e-16)
(23.9453 3.77788 -5.57293e-16)
(23.943 3.68194 1.73745e-16)
(23.9458 3.59756 2.68232e-16)
(23.9524 3.52199 4.57955e-17)
(23.962 3.45296 -1.91687e-16)
(23.9744 3.38875 -4.08271e-16)
(25.0897 5.36029 -4.71217e-17)
(24.9586 5.28075 1.07049e-16)
(24.818 5.17967 -1.72388e-16)
(24.6731 5.05573 -2.16115e-16)
(24.5396 4.91947 -4.2582e-16)
(24.4155 4.76632 2.89327e-17)
(24.3054 4.59967 1.09984e-15)
(24.2167 4.43252 -5.05388e-16)
(24.1503 4.27419 1.58997e-17)
(24.1027 4.12628 -2.64849e-16)
(24.0708 3.99203 5.86895e-16)
(24.0516 3.87446 1.0793e-16)
(24.0416 3.77158 -4.59889e-16)
(24.0381 3.6812 5.22021e-16)
(24.0395 3.60185 1.06242e-16)
(24.0444 3.53093 -3.0267e-16)
(24.0521 3.46626 5.8203e-16)
(24.0623 3.40622 -5.04854e-16)
(24.0749 3.34907 8.20459e-17)
(25.1437 5.26135 -9.02072e-17)
(25.0185 5.18727 6.83584e-17)
(24.884 5.09284 2.11853e-16)
(24.7452 4.97661 1.50969e-16)
(24.6173 4.84851 4.27505e-16)
(24.4979 4.70423 -6.24984e-16)
(24.3918 4.54696 -1.6733e-15)
(24.306 4.38903 1.37219e-16)
(24.2415 4.23933 -1.24503e-16)
(24.1948 4.09945 8.71421e-16)
(24.1632 3.97251 1.02096e-15)
(24.1437 3.86141 -2.45936e-16)
(24.1329 3.76428 4.53561e-16)
(24.1284 3.67907 -4.11573e-16)
(24.1285 3.6044 -6.48587e-16)
(24.1319 3.53777 -1.90719e-16)
(24.138 3.47714 -2.50666e-17)
(24.1463 3.42093 5.64852e-16)
(24.1568 3.36748 -7.37309e-18)
(25.1937 5.16704 5.42453e-17)
(25.0742 5.0981 -1.60335e-16)
(24.9456 5.00988 -2.16106e-17)
(24.8128 4.90091 -2.49427e-16)
(24.6901 4.78049 1.84442e-16)
(24.5755 4.64457 6.41998e-16)
(24.4733 4.49613 1.31305e-15)
(24.3904 4.34689 -3.80027e-16)
(24.3278 4.20533 -6.13819e-17)
(24.2821 4.073 -8.41456e-16)
(24.2507 3.95292 -2.57407e-16)
(24.231 3.84787 3.98095e-17)
(24.2196 3.75611 -7.63819e-16)
(24.2142 3.67572 -5.32345e-17)
(24.2132 3.60537 4.66902e-16)
(24.2153 3.54272 4.38382e-16)
(24.2199 3.48581 -3.0982e-16)
(24.2265 3.43314 -3.10939e-16)
(24.2352 3.38311 1.67943e-16)
(25.24 5.07716 -1.23457e-17)
(25.126 5.01303 7.34297e-17)
(25.0031 4.93065 -2.63362e-16)
(24.8761 4.82849 -7.99887e-17)
(24.7585 4.7153 2.09603e-16)
(24.6485 4.58725 -4.34814e-16)
(24.5501 4.44715 -5.40134e-16)
(24.4701 4.30609 -1.20907e-16)
(24.4093 4.17218 8.36784e-16)
(24.3647 4.04696 -2.82447e-16)
(24.3337 3.93331 6.84445e-17)
(24.3138 3.83393 -5.92529e-16)
(24.3019 3.7472 3.52516e-16)
(24.2957 3.67128 2.83384e-16)
(24.2937 3.60495 -2.70109e-16)
(24.2947 3.54597 2.6881e-16)
(24.298 3.4925 1.20635e-16)
(24.3032 3.44309 -3.65548e-16)
(24.3102 3.39622 3.31805e-16)
(24.3191 3.3505 5.61335e-17)
(25.2829 4.99152 3.65423e-18)
(25.1741 4.93188 -1.35819e-17)
(25.0568 4.85497 6.53832e-17)
(24.9353 4.75922 2.01469e-16)
(24.8228 4.65283 -2.93985e-16)
(24.7172 4.5322 -4.68283e-16)
(24.6227 4.39994 9.91461e-16)
(24.5454 4.2666 1.07083e-15)
(24.4865 4.1399 2.86789e-16)
(24.443 4.02136 -2.98256e-16)
(24.4124 3.91374 3.14943e-16)
(24.3924 3.81968 6.30395e-16)
(24.3801 3.73763 -7.02158e-16)
(24.3732 3.66589 2.15104e-16)
(24.3704 3.60329 7.99877e-16)
(24.3704 3.54772 -6.06489e-16)
(24.3725 3.49742 -1.95767e-16)
(24.3765 3.45102 1.74327e-16)
(24.3821 3.40705 -1.2944e-16)
(24.3894 3.36419 3.1447e-16)
(25.3225 4.90991 -3.46448e-18)
(25.2188 4.85448 -3.77562e-17)
(25.1069 4.78271 2.23792e-16)
(24.9909 4.69298 5.15532e-17)
(24.8832 4.59299 3.21065e-16)
(24.782 4.47934 -3.3227e-16)
(24.6911 4.35447 -3.51638e-16)
(24.6167 4.2284 -3.38728e-16)
(24.5596 4.10849 -1.27084e-15)
(24.5172 3.99622 7.71212e-16)
(24.4871 3.89428 -8.8137e-16)
(24.467 3.80519 -5.60983e-16)
(24.4544 3.72752 4.03918e-16)
(24.447 3.65967 -1.05869e-16)
(24.4434 3.60054 -2.30741e-17)
(24.4425 3.54813 -5.19623e-17)
(24.4438 3.50076 -1.51806e-16)
(24.4466 3.45714 -2.77123e-16)
(24.451 3.41585 3.63151e-16)
(24.4569 3.37562 -3.99223e-16)
(25.3591 4.83216 -2.05565e-17)
(25.2603 4.78068 1.16988e-16)
(25.1537 4.7137 3.1054e-17)
(25.0429 4.62963 -4.12287e-16)
(24.94 4.53566 2.2454e-16)
(24.843 4.42858 8.32865e-16)
(24.7558 4.31069 -6.19254e-16)
(24.6841 4.19146 5.00023e-16)
(24.6289 4.07794 1.79953e-15)
(24.5875 3.97158 2.97672e-17)
(24.5579 3.87496 4.76038e-16)
(24.538 3.79054 -1.62657e-16)
(24.5251 3.71696 -2.70354e-16)
(24.5172 3.65274 -4.40044e-17)
(24.513 3.59683 1.16946e-16)
(24.5114 3.54735 8.16853e-16)
(24.5118 3.5027 -2.32398e-17)
(24.5137 3.46165 -3.41818e-16)
(24.517 3.42284 2.75486e-16)
(24.5217 3.38504 -1.25604e-16)
(24.5279 3.34719 6.59835e-17)
(25.3929 4.7581 1.53358e-17)
(25.299 4.7103 -7.247e-17)
(25.1974 4.64783 -7.31993e-17)
(25.0917 4.56908 5.91647e-16)
(24.9934 4.48076 -2.17553e-16)
(24.9006 4.37987 1.95914e-16)
(24.8169 4.26854 -1.20374e-16)
(24.7479 4.15576 -1.85241e-15)
(24.6945 4.04826 -1.58272e-16)
(24.6543 3.94745 6.7837e-16)
(24.6253 3.85584 4.20319e-16)
(24.6055 3.77579 -4.64893e-16)
(24.5924 3.70605 1.9316e-16)
(24.5841 3.6452 -3.25198e-17)
(24.5794 3.5923 -1.87135e-16)
(24.5772 3.54554 2.76958e-16)
(24.5768 3.50341 -1.90072e-16)
(24.578 3.46473 5.16972e-16)
(24.5803 3.42821 -3.58943e-16)
(24.584 3.39266 1.30735e-16)
(24.589 3.35706 -7.98176e-17)
(25.4242 4.68757 -2.26338e-17)
(25.3349 4.64321 6.04622e-17)
(25.2382 4.58495 -4.27922e-17)
(25.1375 4.5112 -4.80502e-16)
(25.0436 4.4282 -4.67473e-16)
(24.9549 4.33314 -1.20622e-15)
(24.8746 4.22798 1.42318e-15)
(24.8083 4.12128 6.16152e-16)
(24.7568 4.01945 3.89855e-16)
(24.7177 3.92387 -1.41871e-15)
(24.6893 3.83696 -6.12353e-16)
(24.6696 3.761 -5.94723e-16)
(24.6565 3.69485 3.0898e-16)
(24.6479 3.63717 -1.34317e-16)
(24.6428 3.58706 -1.75771e-16)
(24.64 3.54283 1.92418e-16)
(24.6391 3.50304 -4.29875e-16)
(24.6395 3.46655 1.14426e-16)
(24.6411 3.43215 -1.55303e-16)
(24.6439 3.3987 -1.51776e-16)
(24.6478 3.36518 3.1588e-16)
(25.4531 4.62041 -2.19397e-17)
(25.3682 4.57928 8.41276e-17)
(25.2763 4.52496 7.41177e-17)
(25.1804 4.45589 2.19468e-16)
(25.0909 4.3779 7.31333e-16)
(25.0061 4.28832 6.7642e-16)
(24.9293 4.18898 -2.5839e-16)
(24.8656 4.088 2.93773e-16)
(24.8158 3.9915 -4.214e-16)
(24.7779 3.90084 1.08027e-16)
(24.7501 3.81835 9.05087e-16)
(24.7307 3.74625 5.92815e-16)
(24.7175 3.68345 -1.31484e-16)
(24.7088 3.62872 -3.48051e-16)
(24.7033 3.58123 -4.55723e-17)
(24.7001 3.53935 1.81841e-16)
(24.6986 3.50173 -2.63305e-16)
(24.6985 3.46728 2.86773e-17)
(24.6994 3.43485 -2.09722e-16)
(24.7014 3.40333 -7.04707e-17)
(24.7045 3.37175 8.93819e-17)
(25.4797 4.55648 -1.57154e-17)
(25.3992 4.51836 3.38102e-18)
(25.312 4.46773 -8.10082e-17)
(25.2207 4.40306 -3.54307e-17)
(25.1354 4.32978 -1.95861e-16)
(25.0545 4.24535 4.04781e-16)
(24.981 4.15149 -1.04558e-15)
(24.9199 4.0559 8.74759e-16)
(24.8719 3.96443 2.15649e-16)
(24.8351 3.87839 -6.01602e-16)
(24.808 3.80006 7.1175e-16)
(24.7889 3.73156 -3.56371e-16)
(24.7757 3.67192 1.28262e-16)
(24.7669 3.61996 3.60467e-16)
(24.7611 3.5749 1.28365e-16)
(24.7576 3.53522 -8.47507e-17)
(24.7557 3.49961 3.34392e-16)
(24.755 3.46707 -4.68926e-16)
(24.7554 3.43645 2.85274e-16)
(24.7568 3.40673 -1.55199e-17)
(24.7591 3.37696 2.17263e-16)
(24.7626 3.34615 -2.26558e-16)
(25.5043 4.49563 -1.12594e-17)
(25.428 4.46032 5.03647e-17)
(25.3453 4.41316 3.39059e-17)
(25.2585 4.35261 1.28431e-16)
(25.1773 4.28375 -1.94385e-16)
(25.1003 4.20418 -6.45383e-16)
(25.03 4.11548 8.53024e-16)
(24.9714 4.02496 -4.48674e-16)
(24.9252 3.93821 -4.75774e-16)
(24.8896 3.85653 1.27828e-15)
(24.8631 3.78211 -1.0965e-15)
(24.8444 3.71701 -2.1208e-16)
(24.8313 3.66032 6.89688e-16)
(24.8223 3.61096 -7.7195e-16)
(24.8164 3.56818 1.67573e-16)
(24.8126 3.53055 -2.62679e-16)
(24.8104 3.49682 5.7243e-17)
(24.8093 3.46604 7.76196e-17)
(24.8093 3.43712 -4.4508e-17)
(24.8101 3.40906 -1.55105e-16)
(24.8118 3.38097 -8.93299e-18)
(24.8145 3.35188 2.76244e-16)
(25.527 4.43775 3.36827e-17)
(25.4548 4.40506 -3.00085e-17)
(25.3764 4.36112 8.18994e-17)
(25.2941 4.30446 1.41337e-16)
(25.2169 4.23975 9.05468e-17)
(25.1435 4.16474 8.9892e-16)
(25.0765 4.08089 -1.21132e-16)
(25.0202 3.99516 -3.06255e-16)
(24.9758 3.91286 4.73343e-16)
(24.9413 3.83528 -1.72583e-15)
(24.9156 3.76454 9.19195e-16)
(24.8973 3.70263 5.68132e-16)
(24.8844 3.64872 -1.09192e-16)
(24.8754 3.60179 7.44903e-16)
(24.8693 3.56115 -6.83619e-16)
(24.8653 3.52543 4.07739e-16)
(24.8628 3.49346 5.03061e-16)
(24.8615 3.46431 -4.15307e-16)
(24.861 3.43697 -3.6291e-17)
(24.8614 3.41048 -9.39761e-17)
(24.8626 3.38395 1.70522e-16)
(24.8647 3.35646 -7.63874e-17)
(25.5479 4.38269 3.37764e-17)
(25.4796 4.35246 -2.49415e-17)
(25.4055 4.31154 -5.61197e-17)
(25.3274 4.25851 -3.28132e-16)
(25.2542 4.1977 3.32994e-17)
(25.1844 4.12698 -7.18104e-16)
(25.1205 4.0477 -7.51484e-16)
(25.0666 3.96647 -3.77336e-16)
(25.0239 3.88837 -7.41989e-16)
(24.9906 3.81465 -1.13493e-17)
(24.9657 3.74737 -3.99759e-16)
(24.9478 3.68847 -3.41692e-16)
(24.9351 3.63717 -1.01712e-16)
(24.9261 3.59252 -4.9599e-16)
(24.92 3.55389 4.22839e-17)
(24.9159 3.51996 1.4112e-16)
(24.9132 3.48962 -3.26555e-16)
(24.9115 3.46202 -1.05193e-16)
(24.9108 3.43615 3.50932e-16)
(24.9108 3.4111 -1.07808e-16)
(24.9115 3.38603 1.98374e-16)
(24.9131 3.36004 7.53462e-17)
(25.5672 4.33034 -1.68474e-17)
(25.5027 4.3024 -3.59707e-18)
(25.4327 4.2643 -7.67547e-17)
(25.3588 4.21468 -2.06069e-16)
(25.2894 4.15754 -2.42533e-16)
(25.2232 4.09086 9.09128e-17)
(25.1623 4.01587 6.89808e-16)
(25.1107 3.93888 1.72768e-15)
(25.0697 3.86473 -7.2045e-16)
(25.0376 3.79465 -4.18776e-17)
(25.0134 3.73063 2.47419e-16)
(24.996 3.67456 -4.35351e-17)
(24.9836 3.62573 -6.99021e-17)
(24.9747 3.58322 -4.33268e-16)
(24.9686 3.54646 -2.80574e-16)
(24.9643 3.51421 5.00417e-16)
(24.9615 3.48541 -1.44316e-16)
(24.9596 3.45923 -4.70685e-17)
(24.9586 3.43474 1.29251e-18)
(24.9583 3.41104 -2.73064e-18)
(24.9587 3.38733 -8.08613e-17)
(24.9598 3.36275 -3.04414e-16)
(24.9618 3.33625 8.74502e-17)
(25.585 4.28059 -1.55369e-17)
(25.5242 4.25478 5.87656e-17)
(25.4582 4.21931 1.91387e-16)
(25.3883 4.1729 1.1427e-16)
(25.3226 4.1192 -1.97464e-16)
(25.2599 4.05631 -4.24367e-16)
(25.2019 3.98537 3.75105e-16)
(25.1526 3.91238 -1.21494e-15)
(25.1132 3.84195 1.96396e-15)
(25.0824 3.77528 5.11152e-16)
(25.0591 3.71434 -6.1099e-16)
(25.0421 3.66094 1.39413e-16)
(25.03 3.61442 9.56848e-16)
(25.0213 3.57394 -6.79864e-16)
(25.0151 3.53894 2.08362e-17)
(25.0108 3.50826 1.63564e-16)
(25.0078 3.4809 2.20746e-16)
(25.0058 3.45605 -2.373e-17)
(25.0046 3.43284 -3.36248e-16)
(25.004 3.4104 5.15973e-16)
(25.004 3.38796 -4.03404e-16)
(25.0047 3.36469 3.22647e-16)
(25.0062 3.33958 4.23468e-18)
(25.6013 4.23332 -3.97127e-17)
(25.5442 4.2095 9.40571e-17)
(25.482 4.1765 -5.58094e-18)
(25.4161 4.13308 -8.53709e-17)
(25.3541 4.08263 -5.21762e-17)
(25.2947 4.0233 8.55742e-16)
(25.2395 3.95616 -2.32463e-16)
(25.1924 3.88693 5.83467e-16)
(25.1547 3.82 -2.01056e-15)
(25.1251 3.75657 -3.98384e-16)
(25.1026 3.69852 9.0877e-16)
(25.0863 3.64764 5.57162e-17)
(25.0744 3.6033 -1.81886e-16)
(25.0658 3.56471 -7.50956e-16)
(25.0597 3.53137 8.3602e-16)
(25.0553 3.50216 -2.65782e-17)
(25.0522 3.47614 -2.98727e-16)
(25.05 3.45254 -3.00424e-17)
(25.0486 3.43052 7.21865e-17)
(25.0478 3.40926 -9.63806e-17)
(25.0475 3.38801 3.29029e-16)
(25.0479 3.36597 -4.11194e-16)
(25.0489 3.34216 2.24528e-16)
(25.6163 4.18842 -5.22208e-18)
(25.5627 4.16646 7.76194e-18)
(25.5044 4.13576 -1.08352e-16)
(25.4423 4.09517 -2.43214e-16)
(25.3838 4.04775 2.35085e-16)
(25.3277 3.99177 -1.08063e-15)
(25.2752 3.9282 5.35969e-16)
(25.2303 3.86254 -4.61886e-17)
(25.1943 3.7989 4.88199e-16)
(25.1659 3.7385 -1.52146e-16)
(25.1443 3.68319 6.00844e-16)
(25.1284 3.63468 -2.81076e-16)
(25.1168 3.59238 4.16963e-16)
(25.1083 3.55557 8.03298e-17)
(25.1022 3.52378 3.53096e-16)
(25.0978 3.49596 -2.35922e-16)
(25.0946 3.47118 -2.57975e-16)
(25.0923 3.44875 2.00154e-16)
(25.0907 3.42784 -1.7891e-16)
(25.0896 3.40768 1.14024e-16)
(25.0891 3.38755 -1.53448e-16)
(25.0892 3.36666 3.3337e-16)
(25.0898 3.34407 -1.75068e-16)
(25.6302 4.1458 -5.34731e-18)
(25.58 4.12558 1.18434e-17)
(25.5253 4.09702 -1.25788e-16)
(25.4669 4.05909 5.31199e-16)
(25.412 4.01452 -1.94064e-16)
(25.359 3.96169 1.14216e-15)
(25.3092 3.90148 7.29521e-16)
(25.2664 3.83918 1.24354e-16)
(25.2321 3.77863 9.96982e-16)
(25.205 3.72108 3.24336e-17)
(25.1841 3.66835 -8.37195e-16)
(25.1687 3.62206 -6.56385e-16)
(25.1573 3.58169 -4.1296e-16)
(25.1489 3.54655 4.85976e-16)
(25.1428 3.51621 -1.89642e-17)
(25.1383 3.48967 4.96649e-16)
(25.135 3.46607 -4.75503e-16)
(25.1325 3.44473 6.225e-18)
(25.1308 3.42487 -9.01343e-17)
(25.1296 3.40573 -1.4252e-16)
(25.1289 3.38664 6.15314e-18)
(25.1286 3.36683 -9.41452e-17)
(25.129 3.34539 1.14808e-16)
(25.6429 4.10536 4.15736e-17)
(25.596 4.08676 -6.9895e-17)
(25.5449 4.0602 2.83839e-16)
(25.4902 4.02477 -5.38084e-16)
(25.4386 3.98288 1.96243e-16)
(25.3888 3.933 -1.34411e-15)
(25.3414 3.87596 -6.61286e-16)
(25.3008 3.81683 5.0475e-16)
(25.2682 3.75918 -1.09532e-15)
(25.2422 3.70431 4.54509e-16)
(25.2221 3.65399 8.12629e-17)
(25.2071 3.60979 5.05184e-17)
(25.1959 3.57122 -2.37982e-16)
(25.1875 3.53765 -2.68359e-16)
(25.1814 3.50867 8.44899e-17)
(25.1768 3.48334 3.53329e-16)
(25.1734 3.46085 -3.03067e-16)
(25.1709 3.44053 4.03708e-16)
(25.169 3.42165 -1.64191e-16)
(25.1676 3.40348 9.96203e-17)
(25.1667 3.38536 -2.44027e-16)
(25.1663 3.36657 3.00557e-16)
(25.1664 3.34622 -5.07284e-17)
(25.1671 3.32379 -1.51461e-16)
(25.6545 4.067 -2.30383e-17)
(25.6109 4.04992 4.04943e-17)
(25.5633 4.02523 -4.24571e-17)
(25.5121 3.99215 -1.82702e-16)
(25.4639 3.95276 -4.08429e-17)
(25.417 3.90567 8.44182e-16)
(25.3721 3.85162 3.54614e-16)
(25.3337 3.7955 -1.2887e-15)
(25.3027 3.74054 -5.93614e-16)
(25.2778 3.68816 3.72514e-16)
(25.2583 3.64012 -5.30436e-16)
(25.2436 3.59788 8.41153e-16)
(25.2325 3.56099 1.2228e-16)
(25.2242 3.52888 1.04209e-16)
(25.218 3.50119 -1.34547e-17)
(25.2134 3.47701 7.46429e-17)
(25.21 3.45555 -7.22052e-16)
(25.2073 3.4362 2.07761e-16)
(25.2054 3.41823 8.09382e-17)
(25.2039 3.40097 8.9685e-17)
(25.2029 3.38378 -1.76717e-16)
(25.2023 3.36595 1.87377e-16)
(25.2021 3.34663 6.65627e-17)
(25.2026 3.3253 -5.78869e-17)
(25.6653 4.03065 -1.15505e-17)
(25.6248 4.01497 -2.81332e-17)
(25.5806 3.99202 1.0749e-16)
(25.5328 3.96118 1.66364e-16)
(25.4879 3.92413 2.9484e-16)
(25.4439 3.87966 7.55361e-17)
(25.4013 3.82843 5.08786e-17)
(25.3651 3.77516 2.84703e-16)
(25.3357 3.72267 1.65746e-15)
(25.3118 3.67262 8.27644e-17)
(25.2927 3.62671 6.79986e-16)
(25.2782 3.58631 -7.12529e-16)
(25.2672 3.55101 -1.35021e-16)
(25.259 3.52028 1.16593e-16)
(25.2528 3.4938 -3.70677e-17)
(25.2482 3.4707 1.45138e-16)
(25.2447 3.45023 -6.67645e-17)
(25.2421 3.43179 4.64619e-16)
(25.2401 3.41469 -4.94727e-16)
(25.2385 3.39829 3.11696e-16)
(25.2374 3.38196 -5.02468e-16)
(25.2366 3.36503 3.32168e-16)
(25.2363 3.34668 -2.55639e-16)
(25.2365 3.32641 -9.55275e-17)
(25.6751 3.9962 2.01906e-17)
(25.6377 3.98184 -1.02393e-17)
(25.5968 3.96052 -2.6437e-16)
(25.5524 3.93179 1.36049e-16)
(25.5107 3.89693 -5.67025e-16)
(25.4693 3.85494 1.67375e-16)
(25.4291 3.80637 -1.53929e-17)
(25.3951 3.75581 1.24721e-15)
(25.3673 3.70555 -1.9985e-15)
(25.3439 3.65766 3.6881e-16)
(25.3252 3.61377 -7.08125e-16)
(25.3109 3.5751 5.41265e-16)
(25.3001 3.54129 -2.62839e-16)
(25.292 3.51188 -2.60748e-16)
(25.2859 3.48655 1.53431e-16)
(25.2813 3.46447 -2.40328e-17)
(25.2778 3.44492 -1.13432e-18)
(25.2752 3.42734 1.49322e-17)
(25.2731 3.41107 3.1503e-16)
(25.2715 3.39547 -2.18061e-19)
(25.2703 3.37995 -2.91313e-17)
(25.2694 3.36387 -1.82122e-16)
(25.2689 3.34643 2.38484e-17)
(25.2689 3.32715 3.46046e-17)
(25.6841 3.96357 -4.59607e-17)
(25.6497 3.95044 -3.42076e-17)
(25.6121 3.93065 2.81369e-17)
(25.5709 3.90392 -4.7517e-16)
(25.5324 3.8711 3.45828e-16)
(25.4935 3.83146 -5.51987e-16)
(25.4555 3.78541 -7.33064e-16)
(25.4239 3.73743 -7.89836e-16)
(25.3973 3.68917 1.12073e-15)
(25.3744 3.64329 -9.41235e-16)
(25.3559 3.60131 5.48262e-16)
(25.3419 3.56427 3.53942e-16)
(25.3314 3.53187 -4.01115e-17)
(25.3234 3.5037 1.64473e-16)
(25.3174 3.47945 -4.1132e-19)
(25.3128 3.45834 2.15581e-16)
(25.3094 3.43966 -1.19348e-17)
(25.3067 3.42288 -3.26822e-16)
(25.3045 3.40737 -4.7883e-17)
(25.3028 3.39252 8.64756e-17)
(25.3015 3.37776 -6.48804e-17)
(25.3005 3.36247 -5.50449e-18)
(25.2998 3.34588 5.69492e-17)
(25.2995 3.32753 4.6229e-17)
(25.6924 3.93268 2.35965e-17)
(25.6609 3.92069 -2.59386e-17)
(25.6264 3.90234 6.23203e-17)
(25.5884 3.8775 5.44516e-16)
(25.5529 3.84658 8.11065e-16)
(25.5165 3.8092 1.87543e-16)
(25.4807 3.7655 4.05936e-16)
(25.4515 3.72004 -2.02457e-16)
(25.4259 3.67347 9.484e-16)
(25.4032 3.62948 -8.6646e-16)
(25.385 3.58934 1.8431e-16)
(25.3714 3.55385 -1.01971e-16)
(25.3611 3.52277 -1.87671e-16)
(25.3532 3.49576 -1.59662e-16)
(25.3473 3.47253 -2.03971e-16)
(25.3427 3.45231 1.45108e-16)
(25.3392 3.43444 -1.09407e-16)
(25.3364 3.4184 -3.24796e-17)
(25.3342 3.4036 -8.90052e-17)
(25.3324 3.38944 2.59545e-16)
(25.3309 3.37539 2.18256e-16)
(25.3297 3.36084 -2.08979e-17)
(25.3288 3.34505 -5.7866e-17)
(25.3283 3.32757 -1.20042e-16)
(25.6999 3.90343 -2.46199e-18)
(25.6713 3.89251 -7.3708e-17)
(25.6399 3.87552 1.30783e-16)
(25.6051 3.85251 -3.8859e-16)
(25.5726 3.82336 -9.73629e-16)
(25.5384 3.78818 3.46199e-17)