/*--------------------------------*- C++ -*----------------------------------*\
| =========                 |                                                 |
| \\      /  F ield         | OpenFOAM: The Open Source CFD Toolbox           |
|  \\    /   O peration     | Version:  2506                                  |
|   \\  /    A nd           | Website:  www.openfoam.com                      |
|    \\/     M anipulation  |                                                 |
\*---------------------------------------------------------------------------*/
FoamFile
{
    version     2.0;
    format      ascii;
    arch        "LSB;label=32;scalar=64";
    class       surfaceScalarField;
    location    "50";
    object      phi;
}
// * * * * * * * * * * * * * * * * * * * * * * * * * * * * * * * * * * * * * //

dimensions      [0 3 -1 0 0 0 0];

oriented        oriented;

internalField   nonuniform List<scalar> 
2574
(
18.3942
0.515951
16.5727
18.3943
0.543657
15.152
0.540296
16.576
18.3944
0.56965
13.7568
0.568928
15.1527
0.565799
16.5792
18.3945
0.599454
11.4033
0.59801
12.5365
0.595996
13.7587
0.595359
15.1534
0.592408
16.5821
18.3945
0.630034
9.45058
0.628404
10.3837
0.62674
11.405
0.625407
12.5378
0.623532
13.7606
0.622985
15.1539
0.620253
16.5849
18.3944
0.662965
7.13003
0.661348
7.83384
0.659765
8.60474
0.658202
9.45214
0.65675
10.3851
0.655223
11.4065
0.65404
12.539
0.652324
13.7623
0.651898
15.1544
0.649379
16.5874
18.3941
0.696354
7.54739
0.694726
5.91059
0.693182
6.49187
0.691698
7.13152
0.690292
7.83525
0.68892
8.60611
0.687573
9.45349
0.686288
10.3864
0.684943
11.4079
0.68397
12.54
0.682426
13.7639
0.682158
15.1546
0.679911
16.5897
18.3937
0.734923
6.14427
0.732099
6.46787
0.72957
6.80906
0.727322
7.16881
0.725335
7.54939
0.723983
5.91195
0.722709
6.49315
0.721525
7.1327
0.720382
7.8364
0.719272
8.60722
0.718141
9.45462
0.717115
10.3874
0.715994
11.409
0.715272
12.5407
0.713927
13.7652
0.713853
15.1547
0.71188
16.5917
18.3932
0.778292
4.7694
0.77439
5.0157
0.770871
5.27578
0.767784
5.55058
0.765012
5.8406
0.762565
6.14673
0.760376
6.47006
0.758457
6.81098
0.756783
7.17049
0.755273
7.55091
0.754257
5.91297
0.753314
6.49409
0.752441
7.13358
0.751618
7.83722
0.750825
8.60802
0.750027
9.45542
0.749291
10.3882
0.748442
11.4099
0.747953
12.5412
0.746905
13.7663
0.747013
15.1546
0.745215
16.5936
18.3924
0.823148
3.38276
0.819461
3.54982
0.815878
3.72643
0.812439
3.91297
0.809154
4.11038
0.806082
4.31875
0.803224
4.53916
0.800572
4.77205
0.79819
5.01809
0.79599
5.27798
0.794035
5.55254
0.792294
5.84237
0.790738
6.14829
0.789388
6.47142
0.78818
6.81218
0.787123
7.17156
0.786225
7.55182
0.785609
5.91359
0.785059
6.49464
0.784558
7.13408
0.784132
7.83765
0.783712
8.60844
0.783238
9.4559
0.782845
10.3886
0.782343
11.4104
0.78212
12.5414
0.781394
13.767
0.78175
15.1543
0.780376
16.5949
18.3915
0.788907
1.88872
0.798532
2.03066
0.806875
2.14517
0.812749
2.24449
0.816518
2.34103
0.81921
2.44301
0.821354
2.55336
0.823231
2.67212
0.824733
2.79854
0.825898
2.93271
0.826615
3.07442
0.827062
3.22437
0.82713
3.38267
0.826994
3.55
0.826578
3.72683
0.82605
3.91355
0.825336
4.11108
0.824595
4.31955
0.823787
4.53996
0.822972
4.7729
0.822175
5.01889
0.821452
5.27872
0.820774
5.55323
0.820141
5.843
0.819608
6.14884
0.819135
6.47189
0.818758
6.81258
0.818462
7.17186
0.818205
7.55209
0.818048
5.91375
0.817953
6.49474
0.817933
7.1341
0.817912
7.83768
0.817925
8.60843
0.817912
9.45591
0.817943
10.3885
0.817734
11.4106
0.81792
12.5413
0.817487
13.7675
0.81812
15.1536
0.817085
16.596
18.3903
1.24002
0.208141
1.23493
0.220392
1.22958
0.233096
1.22388
0.246278
1.21805
0.259965
1.21187
0.274219
1.2056
0.289115
1.19888
0.304528
1.192
0.320395
1.18455
0.33699
1.17668
0.354496
1.16782
0.372565
1.15823
0.390054
1.14778
0.405763
1.1372
0.418876
1.12667
0.429165
1.11681
0.436803
1.10767
0.442234
1.09953
0.445999
1.09214
0.448659
1.08535
0.450864
1.07843
0.453254
1.0707
0.456535
1.06101
0.461494
1.04835
0.469277
1.03141
0.48172
1.00941
0.501782
0.981764
0.533549
0.948799
0.582021
0.911459
0.651207
0.871682
0.743846
0.831896
0.861211
0.79515
1.00249
0.76467
1.16544
0.743543
1.34508
0.733729
1.53249
0.734997
1.71507
0.7443
1.87947
0.757061
2.01794
0.769589
2.1327
0.780161
2.23395
0.788875
2.33238
0.796322
2.43558
0.803104
2.54664
0.809354
2.66588
0.815112
2.79283
0.820301
2.92753
0.824971
3.06979
0.829033
3.22032
0.832568
3.37918
0.835591
3.54699
0.838186
3.72427
0.840338
3.91142
0.842139
4.10932
0.843622
4.31809
0.844842
4.53878
0.845882
4.77188
0.846733
5.01806
0.847484
5.27799
0.848141
5.55259
0.848758
5.84241
0.849303
6.1483
0.849825
6.47139
0.850335
6.81207
0.85085
7.17135
0.851366
7.55158
0.851711
5.91341
0.852085
6.49437
0.852598
7.13359
0.853152
7.83713
0.853555
8.60803
0.853979
9.45549
0.854428
10.3881
0.85468
11.4103
0.855267
12.5407
0.855198
13.7675
0.856173
15.1527
0.855633
16.5965
18.3888
1.21788
0.21224
1.21357
0.224809
1.20901
0.237821
1.20401
0.251329
1.19867
0.2654
1.19295
0.279957
1.18696
0.295175
1.18054
0.310939
1.17372
0.327256
1.16652
0.344175
1.15892
0.362123
1.15047
0.380988
1.14081
0.399734
1.12974
0.416805
1.11755
0.431079
1.10454
0.442157
1.09126
0.450096
1.07815
0.455338
1.06559
0.458572
1.05365
0.460593
1.04238
0.462156
1.0313
0.464333
1.01985
0.468017
1.00693
0.474428
0.991477
0.484751
0.972391
0.500831
0.948886
0.525318
0.920698
0.56177
0.888221
0.614529
0.852596
0.686874
0.815521
0.780954
0.779307
0.897474
0.746678
1.03516
0.720549
1.19162
0.703536
1.36212
0.69723
1.53885
0.701232
1.71109
0.712959
1.86779
0.728339
2.00257
0.743981
2.11711
0.758075
2.21986
0.770499
2.32001
0.781631
2.42447
0.79198
2.53635
0.801654
2.65622
0.810786
2.78376
0.819238
2.9191
0.827051
3.06204
0.834147
3.21325
0.84061
3.37276
0.84638
3.54125
0.851536
3.71916
0.856112
3.90687
0.86017
4.1053
0.863744
4.31455
0.866906
4.53565
0.869705
4.76912
0.872213
5.01558
0.874451
5.27579
0.876458
5.55061
0.8783
5.84058
0.880001
6.14662
0.881565
6.46984
0.883091
6.81056
0.884411
7.17004
0.885737
7.55026
0.886669
5.91248
0.887773
6.49326
0.888641
7.13273
0.889672
7.83609
0.890863
8.60684
0.891808
9.45455
0.892595
10.3873
0.893314
11.4096
0.894494
12.5395
0.894836
13.7672
0.896043
15.1515
0.895685
16.5969
18.3869
1.19844
0.215951
1.19419
0.228744
1.18969
0.241992
1.18509
0.255766
1.18018
0.270115
1.175
0.285043
1.16944
0.300585
1.16349
0.316823
1.15698
0.333642
1.15008
0.351024
1.14281
0.369286
1.13508
0.388687
1.12603
0.408691
1.11513
0.427694
1.10203
0.444106
1.08711
0.457075
1.07076
0.466373
1.0537
0.472402
1.03644
0.475768
1.01961
0.477445
1.00326
0.478445
0.987609
0.480008
0.972029
0.483543
0.955929
0.490564
0.938044
0.502586
0.917564
0.521362
0.893695
0.549145
0.866529
0.588999
0.836332
0.644687
0.804372
0.718902
0.771958
0.813341
0.741209
0.928284
0.714214
1.06212
0.693569
1.21232
0.681172
1.37448
0.678437
1.54163
0.684781
1.70471
0.698154
1.85447
0.714998
1.9857
0.732422
2.09975
0.748609
2.20366
0.763368
2.30533
0.776867
2.41096
0.789615
2.52368
0.801657
2.64419
0.813151
2.77234
0.823938
2.90833
0.834084
3.05196
0.843472
3.20388
0.85218
3.36412
0.860146
3.53331
0.867446
3.71191
0.874068
3.90029
0.880084
4.09934
0.885517
4.30915
0.890437
4.53078
0.894859
4.76474
0.898871
5.01161
0.902569
5.27212
0.905926
5.54728
0.909132
5.8374
0.911956
6.14382
0.91459
6.46723
0.917076
6.80809
0.919558
7.16757
0.921579
7.54824
0.923273
5.91079
0.924703
6.49184
0.926473
7.13095
0.927938
7.83463
0.92955
8.60522
0.931054
9.45306
0.932703
10.3857
0.933918
11.4084
0.93529
12.5382
0.936039
13.7665
0.93805
15.1495
0.937831
16.5971
18.3844
1.18171
0.219564
1.17841
0.23254
1.17477
0.24596
1.17089
0.259978
1.16663
0.274553
1.16218
0.289753
1.15718
0.305685
1.1519
0.322345
1.14586
0.339743
1.13937
0.357756
1.13223
0.376452
1.125
0.39615
1.1167
0.416991
1.10669
0.437915
1.09362
0.457163
1.07776
0.473122
1.05905
0.485062
1.03862
0.493016
1.01691
0.49745
0.995184
0.499351
0.973728
0.499875
0.9534
0.500518
0.93384
0.503075
0.914982
0.509606
0.895304
0.522233
0.874125
0.542722
0.850328
0.572905
0.824548
0.614953
0.797078
0.672112
0.769344
0.746796
0.742252
0.840388
0.717731
0.95295
0.697116
1.08268
0.682536
1.22702
0.675144
1.38183
0.676061
1.54082
0.684576
1.69614
0.699192
1.83996
0.716812
1.96803
0.735108
2.08155
0.752299
2.18644
0.768279
2.28944
0.782987
2.39624
0.797014
2.50975
0.810345
2.63085
0.823193
2.75958
0.835373
2.89616
0.84704
3.04037
0.857866
3.19308
0.868136
3.35392
0.877683
3.52379
0.88662
3.70304
0.894926
3.89202
0.902549
4.09178
0.909485
4.30227
0.915926
4.5244
0.92189
4.75883
0.927505
5.00605
0.932403
5.26727
0.937217
5.54251
0.941396
5.83326
0.94542
6.13982
0.949324
6.46334
0.95268
6.80476
0.955959
7.1643
0.959176
7.54504
0.961197
5.90878
0.963412
6.48963
0.965653
7.12871
0.968037
7.83223
0.970115
8.60316
0.972203
9.45097
0.974293
10.3836
0.976026
11.4067
0.978127
12.5361
0.979266
13.7654
0.981731
15.147
0.981868
16.597
18.3812
1.16688
0.222692
1.16376
0.235808
1.16027
0.249386
1.15685
0.263587
1.15296
0.278376
1.14908
0.293845
1.14466
0.310036
1.14016
0.327069
1.13489
0.344937
1.12932
0.363569
1.1228
0.382875
1.11625
0.402956
1.10892
0.424206
1.10072
0.44636
1.08959
0.468172
1.07516
0.487786
1.05634
0.503755
1.03417
0.515405
1.00881
0.522698
0.982027
0.52635
0.95434
0.527452
0.927508
0.52757
0.901769
0.528707
0.878249
0.533354
0.8558
0.544578
0.834108
0.564647
0.81155
0.595357
0.788505
0.638227
0.765123
0.695393
0.743118
0.76902
0.723279
0.860128
0.706952
0.969475
0.694819
1.09473
0.688207
1.23381
0.687335
1.3826
0.692975
1.53534
0.704032
1.685
0.719335
1.8248
0.736334
1.95096
0.753737
2.06429
0.77001
2.17011
0.785368
2.27422
0.79983
2.38174
0.813734
2.49596
0.827276
2.61729
0.840486
2.74647
0.853155
2.88348
0.865477
3.02814
0.877198
3.18136
0.888446
3.34275
0.899201
3.51306
0.909287
3.69302
0.918614
3.88273
0.927528
4.08293
0.936
4.29385
0.943794
4.51666
0.951065
4.75161
0.957699
4.99946
0.964176
5.26084
0.969931
5.53679
0.975455
5.82777
0.98061
6.13469
0.985446
6.45854
0.990116
6.8001
0.994208
7.16023
0.998168
7.54108
1.001
5.90596
1.00386
6.48677
1.00675
7.12581
1.00963
7.82937
1.0125
8.60027
1.01519
9.44829
1.01795
10.3808
1.02018
11.4045
1.02299
12.5333
1.02439
13.764
1.02775
15.1437
1.02799
16.5968
18.3768
1.81775
0.227438
1.81418
0.240542
1.80983
0.254363
1.80567
0.268683
1.80035
0.284019
1.7954
0.2996
1.78929
0.316326
1.78334
0.333737
1.77608
0.352258
1.76906
0.371279
1.76023
0.391691
1.75126
0.412607
1.74093
0.43446
1.73031
0.457659
1.7167
0.481642
1.69914
0.505994
1.67392
0.528804
1.64145
0.548483
1.60024
0.563732
1.55309
0.574083
1.50081
0.579567
1.44708
0.581894
1.39318
0.582454
1.34338
0.583766
1.29805
0.589746
1.25948
0.603852
1.22481
0.62984
1.19399
0.669679
1.1648
0.724378
1.14009
0.794332
1.11972
0.880262
1.10682
0.982928
1.10023
1.10108
1.10148
1.23306
1.10872
1.37512
1.1224
1.52212
1.13977
1.6674
1.15984
1.80516
1.17936
1.93119
1.19782
2.04621
1.21395
2.15377
1.22906
2.25944
1.24261
2.36797
1.25651
2.48233
1.26963
2.60397
1.28309
2.73323
1.29584
2.87055
1.30838
3.01579
1.32017
3.16945
1.33156
3.33153
1.34152
3.50303
1.35096
3.68375
1.35928
3.87441
1.36647
4.07589
1.37234
4.28801
1.37709
4.51205
1.38051
4.74824
1.38261
4.99748
1.38326
5.26024
1.38271
5.53741
1.38064
5.82989
1.37723
6.13814
1.37222
6.46359
1.36591
6.80643
1.3582
7.16796
1.34894
7.55036
1.34081
5.91411
1.33121
6.49636
1.32018
7.13686
1.30729
7.84225
1.29259
8.61499
1.27553
9.46536
1.25633
10.4
1.23413
11.4267
1.20969
12.5577
1.18076
13.7929
1.15091
15.1735
1.11286
16.6349
18.4081
1.79771
0.230993
1.79551
0.244459
1.79278
0.25838
1.78998
0.273013
1.78663
0.288243
1.78314
0.304397
1.77864
0.321405
1.77441
0.339115
1.76904
0.357931
1.76388
0.377471
1.75746
0.398237
1.75086
0.420162
1.74268
0.442614
1.73463
0.46661
1.72464
0.491487
1.71353
0.517947
1.69679
0.545285
1.67394
0.572097
1.64108
0.596279
1.59968
0.616168
1.54833
0.630584
1.49143
0.639418
1.43025
0.643294
1.36992
0.644709
1.31306
0.64624
1.265
0.652522
1.22575
0.6687
1.19689
0.699144
1.17405
0.746802
1.15747
0.811502
1.14508
0.892227
1.14006
0.988507
1.14138
1.09936
1.15111
1.22385
1.16614
1.3597
1.18644
1.50231
1.20758
1.6459
1.2296
1.78359
1.24893
1.91151
1.26635
2.0292
1.28065
2.13917
1.29374
2.24669
1.30528
2.3561
1.317
2.47087
1.32804
2.59263
1.33949
2.72198
1.35019
2.85958
1.36119
3.00494
1.37147
3.15894
1.38143
3.32171
1.3906
3.49373
1.39944
3.67504
1.40714
3.86665
1.41428
4.06889
1.42018
4.28211
1.42519
4.50716
1.42891
4.74455
1.43162
4.99487
1.433
5.25889
1.43301
5.53747
1.43169
5.83123
1.42897
6.14091
1.42494
6.46764
1.41934
6.81206
1.4123
7.175
1.40371
7.55898
1.39585
5.92198
1.38673
6.5055
1.37585
7.14774
1.36314
7.85498
1.3486
8.62954
1.33168
9.48228
1.31233
10.4194
1.28974
11.4493
1.26493
12.5826
1.23544
13.8224
1.20464
15.2044
1.16531
16.6742
18.4399
1.78656
1.78733
0.247249
1.78801
0.261222
1.7886
0.27593
1.7885
0.291432
1.78846
0.307604
1.78724
0.324965
1.78615
0.34291
1.78381
0.36196
1.78168
0.38189
1.77792
0.403083
1.77473
0.42528
1.76952
0.448495
1.76461
0.473176
1.7576
0.498821
1.75105
0.52597
1.74139
0.55498
1.72959
0.585187
1.7096
0.616102
1.68158
0.64526
1.64124
0.670656
1.59101
0.690595
1.53027
0.703745
1.46491
0.710928
1.39716
0.713694
1.33498
0.715554
1.28139
0.721982
1.24278
0.738601
1.21701
0.772256
1.2037
0.825623
1.19683
0.898787
1.19675
0.989352
1.20135
1.09444
1.21378
1.21213
1.23197
1.34122
1.2559
1.47902
1.28096
1.62056
1.30567
1.75946
1.32632
1.8906
1.34401
2.01202
1.35758
2.12534
1.36964
2.23505
1.37978
2.34572
1.38997
2.46101
1.39943
2.58289
1.40933
2.7123
1.41864
2.84999
1.42819
2.99554
1.43681
3.15006
1.4456
3.31304
1.45355
3.48558
1.46121
3.6675
1.46798
3.85976
1.47411
4.06287
1.47942
4.27674
1.48391
4.50278
1.48725
4.74119
1.48948
4.99273
1.49065
5.25771
1.49063
5.53756
1.48939
5.83248
1.48687
6.14348
1.48296
6.47154
1.4776
6.81746
1.47068
7.18192
1.46227
7.56743
1.45462
5.92962
1.44564
6.51452
1.43477
7.15861
1.42243
7.86734
1.40781
8.64417
1.39072
9.49938
1.37115
10.439
1.34843
11.4721
1.32298
12.608
1.29284
13.8526
1.26106
15.2361
1.22065
16.7146
18.4725
1.822
0.24936
1.82233
0.263347
1.82257
0.278082
1.82214
0.293789
1.82151
0.310067
1.82046
0.327567
1.81889
0.345843
1.81701
0.365102
1.8147
0.385254
1.8122
0.406665
1.80898
0.429257
1.80558
0.452837
1.80132
0.478021
1.79662
0.504393
1.79083
0.532189
1.78502
0.561627
1.77769
0.592843
1.7686
0.626
1.75358
0.660488
1.73019
0.694799
1.69474
0.726181
1.6468
0.752394
1.58608
0.771752
1.517
0.783487
1.44366
0.788996
1.37453
0.79187
1.31549
0.797736
1.27449
0.81404
1.25185
0.848317
1.24615
0.905242
1.25027
0.985222
1.26109
1.0843
1.27567
1.19748
1.29591
1.32157
1.32088
1.45393
1.34981
1.59214
1.37793
1.73119
1.40334
1.86562
1.42301
1.99218
1.43824
2.11048
1.44959
2.22351
1.45965
2.33597
1.46831
2.45216
1.47717
2.57427
1.48559
2.70371
1.49426
2.8415
1.50231
2.98735
1.51037
3.14213
1.51775
3.30555
1.52484
3.47858
1.53122
3.66104
1.53716
3.85391
1.54232
4.05766
1.54678
4.27236
1.55026
4.49928
1.55292
4.73861
1.55469
4.99096
1.55526
5.25721
1.55491
5.53794
1.55327
5.83417
1.55038
6.14637
1.54615
6.47581
1.54064
6.82299
1.53373
7.18886
1.52535
7.57581
1.51762
5.93738
1.50841
6.52373
1.49774
7.16931
1.48502
7.88006
1.4704
8.6588
1.4532
9.51657
1.43341
10.4588
1.41003
11.4955
1.38418
12.634
1.35332
13.8834
1.32046
15.269
1.2789
16.7561
18.5059
1.85389
0.250342
1.85235
0.264273
1.85036
0.279127
1.84903
0.294834
1.84725
0.311141
1.84588
0.32884
1.8441
0.347066
1.84266
0.366589
1.84044
0.387029
1.83867
0.408592
1.83642
0.431194
1.83428
0.455218
1.83146
0.480627
1.82869
0.507468
1.82522
0.53552
1.82178
0.565418
1.81758
0.596941
1.81345
0.6305
1.80766
0.666209
1.79874
0.70409
1.7819
0.742965
1.75421
0.780424
1.71187
0.814039
1.65479
0.840867
1.5846
0.859139
1.50731
0.869441
1.43079
0.874206
1.36507
0.880023
1.31857
0.894752
1.2966
0.927457
1.29623
0.985495
1.31101
1.06974
1.33259
1.17579
1.35723
1.29711
1.38393
1.42711
1.41375
1.56248
1.44486
1.69995
1.47446
1.83616
1.49911
1.96739
1.51808
2.09164
1.53139
2.21005
1.54155
2.32591
1.55002
2.44357
1.55808
2.56626
1.56589
2.69574
1.57385
2.83355
1.58121
2.97982
1.58857
3.13475
1.59506
3.29891
1.60156
3.47207
1.60702
3.65546
1.61213
3.84879
1.61657
4.05318
1.62013
4.26882
1.62297
4.49644
1.62497
4.73664
1.62593
4.99003
1.62599
5.25718
1.62483
5.53912
1.62272
5.83631
1.61935
6.14977
1.61485
6.48034
1.6089
6.82896
1.60163
7.19615
1.593
7.58446
1.58501
5.9454
1.57548
6.53326
1.56455
7.18026
1.55167
7.89295
1.5365
8.67397
1.51899
9.53409
1.49875
10.479
1.47532
11.519
1.44858
12.6607
1.41691
13.9151
1.38321
15.3027
1.34035
16.799
18.5398
1.95332
0.2514
1.95086
0.265499
1.94761
0.280394
1.9442
0.296151
1.94039
0.312662
1.93683
0.330295
1.93305
0.348899
1.92944
0.368407
1.92607
0.388995
1.92237
0.410857
1.91884
0.43376
1.91496
0.457933
1.91134
0.483617
1.90737
0.510485
1.90345
0.539031
1.89901
0.569054
1.89464
0.601048
1.88996
0.634485
1.88569
0.670332
1.8807
0.708466
1.87439
0.749196
1.86227
0.792008
1.84095
0.835344
1.8051
0.876275
1.75273
0.911533
1.68367
0.938136
1.60315
0.954778
1.51913
0.963748
1.44391
0.970035
1.38839
0.982728
1.36119
1.01277
1.36188
1.06885
1.38336
1.15441
1.41473
1.26558
1.44809
1.39386
1.4806
1.52985
1.51265
1.668
1.54392
1.80481
1.57286
1.93854
1.59652
2.06793
1.61431
2.19234
1.62664
2.31353
1.63552
2.43474
1.64278
2.55896
1.64982
2.68873
1.65678
2.82652
1.66386
2.97273
1.67044
3.12807
1.67673
3.29256
1.68229
3.46638
1.68749
3.6502
1.69192
3.84424
1.69555
4.0495
1.69849
4.26579
1.70069
4.49423
1.70201
4.73527
1.70239
4.98965
1.70173
5.25782
1.70009
5.54079
1.69738
5.83902
1.6935
6.15367
1.6884
6.48545
1.68209
6.83529
1.67438
7.20387
1.66512
7.59374
1.65677
5.95376
1.64712
6.54292
1.6357
7.1917
1.62225
7.9064
1.60691
8.68933
1.58899
9.552
1.56829
10.4998
1.54395
11.5433
1.51654
12.6882
1.484
13.9476
1.44928
15.3374
1.40515
16.8431
18.5736
1.9996
0.252334
1.99608
0.266651
1.99369
0.281622
1.99129
0.297446
1.98978
0.314152
1.98758
0.331971
1.98648
0.350356
1.98434
0.370194
1.98274
0.390992
1.98045
0.412813
1.9786
0.435958
1.97579
0.460376
1.97368
0.48602
1.97065
0.5131
1.96808
0.541853
1.96458
0.57211
1.96176
0.604096
1.95788
0.637888
1.95477
0.673643
1.95117
0.71155
1.94868
0.751875
1.94491
0.795213
1.93898
0.841459
1.92521
0.889455
1.89938
0.937516
1.85531
0.981609
1.79264
1.01757
1.7129
1.04288
1.62539
1.05762
1.54136
1.06613
1.47649
1.07769
1.44093
1.10376
1.4395
1.15587
1.46401
1.24044
1.50329
1.35463
1.54357
1.489
1.58058
1.63104
1.6125
1.7724
1.6421
1.90901
1.66842
2.04119
1.69125
2.16958
1.70846
2.29599
1.72113
2.42216
1.72995
2.54988
1.73695
2.68179
1.74302
2.82027
1.74942
2.96642
1.75554
3.12183
1.76175
3.28647
1.767
3.46105
1.77187
3.64547
1.77579
3.84027
1.77929
4.04615
1.78169
4.26334
1.78349
4.49257
1.78414
4.73456
1.78413
4.98977
1.78285
5.25906
1.78084
5.54288
1.77745
5.84238
1.77313
6.15804
1.76731
6.49126
1.7605
6.84213
1.75232
7.21206
1.74266
7.60343
1.7339
5.96253
1.72363
6.55321
1.71164
7.20371
1.69785
7.92021
1.68191
8.70529
1.66321
9.57074
1.64176
10.5212
1.61681
11.5684
1.58856
12.7164
1.55506
13.9812
1.51956
15.3729
1.47355
16.8891
18.6061
2.13874
0.254137
2.13571
0.268442
2.13263
0.28353
2.129
0.299599
2.12564
0.31641
2.12181
0.334331
2.11832
0.352956
2.11425
0.3729
2.11085
0.39381
2.10654
0.415885
2.10297
0.439162
2.09834
0.463852
2.09456
0.489635
2.08961
0.516972
2.08558
0.545826
2.08034
0.576301
2.07612
0.608378
2.07056
0.642412
2.06592
0.67839
2.06018
0.716251
2.05568
0.756498
2.05066
0.799181
2.0474
0.844893
2.04181
0.893979
2.03308
0.946433
2.01328
1.00038
1.97837
1.05268
1.9214
1.0989
1.84516
1.13402
1.75382
1.15656
1.66241
1.16927
1.58547
1.17981
1.54065
1.20083
1.53389
1.24636
1.56292
1.32577
1.61096
1.44021
1.66247
1.5797
1.70494
1.72927
1.7372
1.87694
1.76096
2.01687
1.78101
2.1497
1.79751
2.27902
1.81149
2.40832
1.82156
2.53943
1.82932
2.67416
1.8349
2.81438
1.84003
2.96142
1.84465
3.11693
1.84956
3.28167
1.85411
3.45624
1.85845
3.64126
1.86195
3.83653
1.86513
4.04308
1.86718
4.2611
1.86882
4.49104
1.86931
4.73391
1.86915
4.99004
1.86782
5.26029
1.86558
5.54523
1.86204
5.84589
1.85732
6.16285
1.85147
6.49713
1.84422
6.84949
1.83552
7.22077
1.82552
7.61352
1.81608
5.972
1.80531
6.56403
1.79285
7.21623
1.77833
7.9348
1.76157
8.72213
1.74208
9.59027
1.71981
10.5436
1.69388
11.5943
1.66471
12.7457
1.63004
14.0159
1.59362
15.4094
1.54509
16.9376
18.6346
2.2172
0.256366
2.21204
0.270759
2.20794
0.286039
2.20334
0.302139
2.19994
0.319094
2.19578
0.336878
2.19285
0.355623
2.18882
0.375546
2.18602
0.39657
2.18189
0.418761
2.17911
0.442024
2.1752
0.466572
2.17237
0.492618
2.16827
0.519949
2.16535
0.548918
2.16122
0.57935
2.1583
0.611494
2.15409
0.645582
2.15119
0.681489
2.14705
0.719403
2.14414
0.759614
2.14051
0.801874
2.13861
0.846996
2.13673
0.894986
2.13698
0.946422
2.13451
1.00203
2.12685
1.0606
2.10483
1.12019
2.06274
1.17639
1.99449
1.22417
1.90384
1.2602
1.79873
1.28435
1.6979
1.30197
1.62013
1.32359
1.58268
1.36356
1.58899
1.43341
1.63133
1.53774
1.68982
1.67037
1.74891
1.81826
1.79727
1.96817
1.83468
2.11272
1.86211
2.25133
1.88407
2.38682
1.9009
2.5224
1.9144
2.66113
1.92399
2.80465
1.93186
2.95405
1.93749
3.11122
1.94299
3.27674
1.94722
3.45198
1.95187
3.63721
1.95512
3.83329
1.95849
4.04034
1.9606
4.25904
1.96228
4.48996
1.96258
4.7337
1.96244
4.99073
1.96094
5.26192
1.95855
5.54812
1.9548
5.84979
1.95
6.16808
1.94361
6.5037
1.93599
6.85743
1.92649
7.23039
1.91557
7.62471
1.90585
5.98182
1.89425
6.57583
1.881
7.22958
1.86556
7.95037
1.84771
8.74005
1.82717
9.61091
1.80385
10.567
1.77644
11.6218
1.74634
12.7758
1.70887
14.0534
1.67405
15.4442
1.61816
16.9935
18.6522
2.28437
2.28223
2.28016
2.27797
2.27591
2.27359
2.27128
2.26884
2.26656
2.26411
2.26167
2.25891
2.25626
2.25326
2.25035
2.24709
2.24377
2.24027
2.23673
2.23287
2.22908
2.2249
2.22102
2.21736
2.21448
2.21231
2.20977
2.20295
2.18699
2.15575
2.10613
2.03874
1.96116
1.88476
1.82582
1.79519
1.79722
1.82305
1.8606
1.89625
1.92556
1.94674
1.96362
1.97645
1.98819
1.99736
2.00561
2.01179
2.01784
2.02254
2.02758
2.03155
2.03582
2.03885
2.04215
2.04402
2.04572
2.04577
2.04519
2.04274
2.03923
2.03369
2.02652
2.01742
2.00648
1.99606
1.98409
1.96984
1.95344
1.93458
1.91261
1.88831
1.85875
1.82942
1.78635
1.75738
1.68445
)
;

boundaryField
{
    inlet
    {
        type            calculated;
        value           nonuniform List<scalar> 
27
(
0.492295
0.515792
0.540248
0.565747
0.59245
0.620397
0.649667
0.680291
0.712508
0.745968
0.781334
0.818286
0.857146
0.897604
0.940303
0.985118
1.03234
1.08159
1.13353
1.18804
1.24547
1.3065
1.3713
1.44099
1.51662
1.60058
1.63547
)
;
    }
    outlet
    {
        type            calculated;
        value           nonuniform List<scalar> 
78
(
0.258374
0.272884
0.288189
0.304305
0.321269
0.339189
0.35807
0.378
0.399037
0.421253
0.444688
0.469423
0.495539
0.523088
0.552149
0.582806
0.615165
0.649323
0.685426
0.723539
0.763818
0.806358
0.851329
0.89896
0.949777
1.00451
1.06363
1.12732
1.19286
1.2557
1.3104
1.35201
1.38021
1.40027
1.4233
1.46436
1.53665
1.64487
1.78177
1.93288
2.08458
2.23055
2.37119
2.51003
2.65072
2.796
2.94715
3.10561
3.27214
3.44788
3.63367
3.82993
4.03757
4.25659
4.48804
4.73235
4.99021
5.26231
5.54958
5.85258
6.17219
6.50949
6.865
7.23962
7.63594
5.99237
6.58798
7.24391
7.96686
8.75895
9.63292
10.5913
11.6514
12.8052
14.0965
15.4732
17.0665
18.7012
)
;
    }
    walls
    {
        type            calculated;
        value           nonuniform List<scalar> 0();
    }
    frontAndBack
    {
        type            empty;
    }
    procBoundary7to3
    {
        type            processor;
        value           nonuniform List<scalar> 
16
(
-1.24545
-1.22199
-1.20288
-1.18449
-1.16964
-1.82069
-1.79767
-1.78381
0.23384
-1.81361
-1.86124
-1.94715
-2.01686
-2.13877
-2.22898
-2.28625
)
;
    }
    procBoundary7to6
    {
        type            processor;
        value           nonuniform List<scalar> 
91
(
-18.3937
-0.492721
-16.5692
-0.519394
-15.1512
-0.544409
-13.7546
-11.4016
-0.571757
-12.535
-9.44885
-0.601222
-10.382
-7.12835
-7.83222
-0.631749
-8.60315
-7.54501
-5.90896
-0.664643
-6.49032
-6.14105
-6.46502
-6.80653
-0.698721
-7.16655
-4.76505
-5.01175
-5.27229
-5.54747
-0.738147
-5.83784
-3.37903
-3.54613
-3.72281
-3.9095
-4.10708
-4.31564
-0.782693
-4.53628
-1.89565
-2.04025
-2.15354
-2.25033
-2.34482
-2.44566
-2.55552
-2.67395
-2.80005
-2.93383
-3.07515
-0.826866
-3.22477
-0.203974
-0.215843
-0.228131
-0.240993
-0.254378
-0.268361
-0.282977
-0.29806
-0.31359
-0.329733
-0.346651
-0.363854
-0.380445
-0.395423
-0.40827
-0.418715
-0.426894
-0.433159
-0.4378
-0.441304
-0.444012
-0.446336
-0.448732
-0.451781
-0.456532
-0.46474
-0.479683
-0.50584
-0.548961
-0.613799
-0.703982
-0.82136
-0.965667
-1.1349
-1.32389
-1.52262
-0.782049
-1.71628
)
;
    }
}


// ************************************************************************* //
