/*--------------------------------*- C++ -*----------------------------------*\
| =========                 |                                                 |
| \\      /  F ield         | OpenFOAM: The Open Source CFD Toolbox           |
|  \\    /   O peration     | Version:  2506                                  |
|   \\  /    A nd           | Website:  www.openfoam.com                      |
|    \\/     M anipulation  |                                                 |
\*---------------------------------------------------------------------------*/
FoamFile
{
    version     2.0;
    format      ascii;
    arch        "LSB;label=32;scalar=64";
    class       volSymmTensorField;
    location    "50";
    object      turbulenceProperties:R;
}
// * * * * * * * * * * * * * * * * * * * * * * * * * * * * * * * * * * * * * //

dimensions      [0 2 -2 0 0 0 0];

internalField   nonuniform List<symmTensor> 
1340
(
(4.89448e-07 4.01845e-08 -2.46432e-20 4.16832e-07 -2.8918e-21 4.76747e-07)
(3.08431e-07 5.92633e-09 -2.43297e-20 3.85542e-07 -3.22229e-21 3.27433e-07)
(5.06574e-07 4.12281e-08 1.27763e-20 4.29695e-07 1.47179e-21 4.91425e-07)
(4.27768e-07 4.39208e-08 1.30585e-19 3.82431e-07 1.60426e-20 4.23233e-07)
(3.00551e-07 5.81082e-09 3.06205e-23 3.72003e-07 -8.64401e-23 3.14628e-07)
(5.17653e-07 4.30027e-08 -2.03811e-22 4.43586e-07 4.99794e-23 5.0737e-07)
(2.87288e-07 3.22787e-08 -6.64957e-20 3.23325e-07 -8.49669e-21 2.94111e-07)
(4.26595e-07 4.31007e-08 2.2622e-21 3.80238e-07 4.28076e-22 4.22333e-07)
(2.95787e-07 5.79749e-09 2.90802e-20 3.63984e-07 3.79529e-21 3.07281e-07)
(5.26413e-07 4.35398e-08 -5.82921e-20 4.52234e-07 -6.78012e-21 5.17894e-07)
(3.40737e-07 4.34172e-08 -1.5913e-19 3.57478e-07 -2.01687e-20 3.43984e-07)
(3.67695e-07 4.45795e-08 -8.69881e-20 3.49589e-07 -1.06459e-20 3.67338e-07)
(2.85561e-07 3.21706e-08 2.93312e-20 3.1918e-07 3.72981e-21 2.90407e-07)
(4.22705e-07 4.16761e-08 -4.32483e-20 3.74092e-07 -5.3121e-21 4.17326e-07)
(2.92067e-07 5.83941e-09 -1.22539e-19 3.58252e-07 -1.59275e-20 3.02196e-07)
(5.34595e-07 4.33542e-08 5.58298e-20 4.57765e-07 6.40642e-21 5.25309e-07)
(4.19554e-07 5.40466e-08 2.35762e-20 4.29261e-07 2.99624e-21 4.22095e-07)
(3.98919e-07 5.07651e-08 -6.29823e-21 3.93701e-07 -8.22231e-22 3.99426e-07)
(3.37605e-07 4.29394e-08 5.39459e-22 3.51518e-07 -7.66222e-23 3.38663e-07)
(3.60322e-07 4.3142e-08 2.44597e-22 3.39213e-07 -2.46407e-23 3.57904e-07)
(2.82666e-07 3.18118e-08 2.06684e-20 3.13911e-07 2.66506e-21 2.85543e-07)
(4.17391e-07 3.99867e-08 -2.23089e-21 3.66541e-07 -3.59281e-22 4.10824e-07)
(2.8896e-07 5.62347e-09 6.63297e-23 3.52994e-07 1.36453e-23 2.97426e-07)
(5.42804e-07 4.30645e-08 -1.51361e-22 4.63249e-07 3.7714e-23 5.32779e-07)
(5.38394e-07 6.94488e-08 -5.32188e-20 5.45364e-07 -6.93254e-21 5.42251e-07)
(4.96521e-07 6.39742e-08 -6.78031e-20 5.0299e-07 -8.61745e-21 4.98811e-07)
(4.64635e-07 5.95839e-08 -8.48436e-20 4.63998e-07 -1.05474e-20 4.65575e-07)
(4.17523e-07 5.36419e-08 -3.44453e-20 4.23414e-07 -4.1658e-21 4.17761e-07)
(3.95402e-07 4.99584e-08 3.82324e-21 3.86571e-07 5.97085e-22 3.93807e-07)
(3.33931e-07 4.23697e-08 6.47472e-20 3.45046e-07 8.13544e-21 3.33002e-07)
(3.52789e-07 4.16366e-08 1.34072e-20 3.28956e-07 1.56923e-21 3.48633e-07)
(2.78838e-07 3.12561e-08 -4.63159e-20 3.07831e-07 -5.81073e-21 2.79854e-07)
(4.11854e-07 3.82529e-08 4.15173e-20 3.59144e-07 5.01165e-21 4.04469e-07)
(2.86704e-07 5.14776e-09 6.3179e-23 3.48477e-07 -1.74236e-23 2.93225e-07)
(5.50717e-07 4.27521e-08 7.73499e-23 4.68941e-07 -1.5676e-23 5.40547e-07)
(6.82528e-07 8.82693e-08 -1.26141e-20 6.96772e-07 -1.4119e-21 6.90204e-07)
(6.29184e-07 8.12216e-08 6.26281e-20 6.38125e-07 7.84181e-21 6.34026e-07)
(5.82121e-07 7.49991e-08 7.27368e-21 5.87639e-07 8.21742e-22 5.84772e-07)
(5.39807e-07 6.93344e-08 4.18611e-20 5.4091e-07 5.1841e-21 5.40617e-07)
(4.95919e-07 6.36318e-08 1.454e-22 4.97275e-07 -1.16426e-22 4.95405e-07)
(4.62815e-07 5.89833e-08 3.37322e-22 4.57469e-07 -1.7173e-24 4.61191e-07)
(4.15114e-07 5.31169e-08 2.88749e-20 4.17001e-07 3.57175e-21 4.13029e-07)
(3.91811e-07 4.90685e-08 -3.64402e-21 3.79361e-07 -4.89527e-22 3.88251e-07)
(3.29809e-07 4.17299e-08 -2.83168e-22 3.3811e-07 7.49164e-23 3.27078e-07)
(3.45624e-07 4.0127e-08 -5.70185e-23 3.19261e-07 2.45357e-23 3.40018e-07)
(2.74326e-07 3.05721e-08 1.18993e-22 3.01241e-07 -1.27182e-23 2.73677e-07)
(4.06595e-07 3.65164e-08 -1.80049e-22 3.5224e-07 3.56371e-23 3.98629e-07)
(2.85438e-07 4.54406e-09 1.05839e-19 3.45224e-07 1.37945e-20 2.90145e-07)
(5.58124e-07 4.23286e-08 2.8408e-20 4.74278e-07 3.2358e-21 5.47982e-07)
(1.02734e-06 1.33139e-07 -3.49666e-20 1.05441e-06 -4.26581e-21 1.0431e-06)
(9.24942e-07 1.19751e-07 2.58347e-20 9.4462e-07 3.38521e-21 9.3675e-07)
(8.35904e-07 1.08083e-07 1.30178e-20 8.49917e-07 1.50383e-21 8.44337e-07)
(7.56426e-07 9.76292e-08 -4.82532e-21 7.65011e-07 -6.51064e-22 7.61925e-07)
(6.87993e-07 8.86358e-08 7.42362e-23 6.93127e-07 -2.2607e-24 6.91107e-07)
(6.34063e-07 8.14568e-08 -2.18709e-22 6.35016e-07 2.18721e-23 6.34895e-07)
(5.85424e-07 7.50126e-08 -2.46639e-23 5.83848e-07 -1.20424e-22 5.84472e-07)
(5.41204e-07 6.90559e-08 -4.56633e-20 5.35959e-07 -5.64474e-21 5.38753e-07)
(4.95209e-07 6.31442e-08 -2.17994e-20 4.91065e-07 -2.52582e-21 4.91733e-07)
(4.60838e-07 5.82361e-08 2.72593e-20 4.505e-07 3.40861e-21 4.56528e-07)
(4.12214e-07 5.24436e-08 -2.74893e-20 4.0988e-07 -3.45412e-21 4.0777e-07)
(3.88118e-07 4.80719e-08 9.70633e-24 3.71926e-07 -2.45753e-23 3.82612e-07)
(3.2525e-07 4.10117e-08 -5.85982e-20 3.30606e-07 -7.30739e-21 3.20795e-07)
(3.39051e-07 3.86145e-08 -1.21288e-20 3.10178e-07 -1.39928e-21 3.32134e-07)
(2.69284e-07 2.98008e-08 2.39725e-20 2.94229e-07 3.00876e-21 2.67124e-07)
(4.01815e-07 3.47664e-08 -3.7649e-20 3.45836e-07 -4.5513e-21 3.93315e-07)
(2.85022e-07 3.89924e-09 -8.93388e-20 3.43152e-07 -1.1571e-20 2.88133e-07)
(5.65551e-07 4.17886e-08 -3.62423e-20 4.7948e-07 -4.06056e-21 5.55341e-07)
(1.84961e-06 2.40067e-07 -3.31365e-20 1.89286e-06 -4.15638e-21 1.87455e-06)
(1.63465e-06 2.1196e-07 -4.98225e-21 1.66846e-06 -4.35373e-22 1.65464e-06)
(1.44946e-06 1.87748e-07 -5.15723e-21 1.4751e-06 -6.36239e-22 1.46514e-06)
(1.29046e-06 1.66956e-07 -8.0166e-21 1.30915e-06 -8.84133e-22 1.30246e-06)
(1.15304e-06 1.48976e-07 -1.55743e-21 1.16579e-06 -5.26695e-23 1.16188e-06)
(1.03426e-06 1.33424e-07 2.2155e-20 1.0421e-06 2.80999e-21 1.04034e-06)
(9.31064e-07 1.19894e-07 2.54359e-20 9.34662e-07 3.05878e-21 9.34714e-07)
(8.41057e-07 1.08097e-07 -5.27283e-23 8.41491e-07 -5.84954e-23 8.42558e-07)
(7.60632e-07 9.75125e-08 1.09447e-20 7.57727e-07 1.37574e-21 7.60273e-07)
(6.91869e-07 8.85078e-08 7.03797e-21 6.87199e-07 8.29638e-22 6.89986e-07)
(6.38022e-07 8.13254e-08 -2.26356e-24 6.30395e-07 -5.1906e-23 6.34512e-07)
(5.88328e-07 7.4757e-08 -3.20678e-25 5.79124e-07 -7.1949e-25 5.83504e-07)
(5.42517e-07 6.85716e-08 2.79116e-22 5.30461e-07 1.03355e-23 5.36605e-07)
(4.94461e-07 6.24941e-08 2.09259e-20 4.84432e-07 2.50589e-21 4.87886e-07)
(4.58831e-07 5.73389e-08 -2.59868e-20 4.43236e-07 -3.1877e-21 4.51747e-07)
(4.08909e-07 5.16141e-08 2.61777e-20 4.02111e-07 3.26048e-21 4.02048e-07)
(3.84423e-07 4.6958e-08 3.2505e-25 3.64303e-07 2.79446e-23 3.76939e-07)
(3.20285e-07 4.01997e-08 5.59762e-20 3.22479e-07 6.92999e-21 3.14099e-07)
(3.33248e-07 3.70936e-08 1.16731e-20 3.01763e-07 1.32176e-21 3.25043e-07)
(2.63818e-07 2.89598e-08 -2.2816e-20 2.86775e-07 -2.87104e-21 2.60199e-07)
(3.97699e-07 3.30039e-08 7.7888e-23 3.40016e-07 2.45374e-23 3.88613e-07)
(2.85366e-07 3.22957e-09 1.51983e-19 3.42043e-07 1.96139e-20 2.86988e-07)
(5.72683e-07 4.11377e-08 1.15396e-22 4.84311e-07 -5.20956e-23 5.62306e-07)
(4.40005e-06 5.72011e-07 -7.76661e-21 4.37744e-06 -9.19788e-22 4.38771e-06)
(3.91242e-06 5.10583e-07 -1.76535e-20 3.89653e-06 -1.96993e-21 3.90467e-06)
(3.43395e-06 4.44918e-07 7.99926e-21 3.42282e-06 1.00934e-21 3.42974e-06)
(3.02465e-06 3.90556e-07 -1.48867e-20 3.01644e-06 -1.92726e-21 3.02282e-06)
(2.66952e-06 3.44283e-07 -4.91388e-21 2.66302e-06 -3.39125e-22 2.66917e-06)
(2.35624e-06 3.03629e-07 1.80268e-20 2.35044e-06 2.24363e-21 2.35661e-06)
(2.07985e-06 2.67773e-07 1.84096e-21 2.07407e-06 1.00452e-22 2.08037e-06)
(1.83785e-06 2.36372e-07 2.61681e-22 1.83151e-06 -7.06084e-23 1.83798e-06)
(1.62748e-06 2.09081e-07 -5.47894e-21 1.62028e-06 -6.90584e-22 1.62698e-06)
(1.44572e-06 1.85497e-07 -3.9989e-21 1.43739e-06 -4.5738e-22 1.44438e-06)
(1.28866e-06 1.65118e-07 3.78149e-23 1.27916e-06 5.10322e-23 1.28644e-06)
(1.15289e-06 1.47486e-07 6.01275e-24 1.14211e-06 3.54612e-25 1.14975e-06)
(1.03508e-06 1.32183e-07 -1.8442e-22 1.02318e-06 3.29425e-23 1.03099e-06)
(9.32527e-07 1.1884e-07 -4.12358e-21 9.19471e-07 -4.65866e-22 9.2751e-07)
(8.42618e-07 1.07163e-07 5.68817e-23 8.28913e-07 -4.11765e-23 8.36716e-07)
(7.61998e-07 9.66275e-08 -1.053e-20 7.47034e-07 -1.26916e-21 7.55326e-07)
(6.9373e-07 8.77841e-08 -6.72964e-21 6.78703e-07 -7.84929e-22 6.86436e-07)
(6.40599e-07 8.07271e-08 -4.40769e-24 6.23892e-07 -4.50179e-24 6.32394e-07)
(5.9041e-07 7.4138e-08 -5.38575e-25 5.73092e-07 1.17398e-22 5.81427e-07)
(5.43457e-07 6.78113e-08 4.1245e-20 5.2418e-07 5.07733e-21 5.33886e-07)
(4.93527e-07 6.16333e-08 1.07737e-20 4.77255e-07 1.35984e-21 4.83719e-07)
(4.56818e-07 5.62719e-08 4.241e-20 4.35709e-07 5.12668e-21 4.46888e-07)
(4.05252e-07 5.06157e-08 -2.49633e-20 3.93743e-07 -3.12734e-21 3.95922e-07)
(3.80843e-07 4.57231e-08 1.42201e-23 3.56613e-07 -5.49115e-24 3.71342e-07)
(3.15063e-07 3.92947e-08 -3.81711e-20 3.13856e-07 -4.62458e-21 3.07113e-07)
(3.28399e-07 3.55627e-08 3.21407e-20 2.94144e-07 3.96628e-21 3.18886e-07)
(2.58e-07 2.80592e-08 5.54667e-20 2.78871e-07 6.86669e-21 2.52917e-07)
(3.94443e-07 3.12375e-08 -1.95511e-24 3.34928e-07 -4.24267e-23 3.84683e-07)
(2.86797e-07 2.52201e-09 -9.38078e-23 3.42211e-07 6.50683e-24 2.86962e-07)
(5.79759e-07 4.03912e-08 8.1662e-21 4.89007e-07 9.27364e-22 5.69151e-07)
(0.967194 -0.410288 7.00158e-16 0.867096 7.6784e-17 0.921383)
(0.207046 -0.0692116 1.97745e-17 0.136946 -8.56869e-18 0.173283)
(0.086515 0.0273171 1.56739e-17 0.0543815 1.89348e-17 0.0703819)
(0.0621071 0.0247847 3.37946e-16 0.0509557 3.96474e-17 0.0563046)
(0.0239653 0.00990195 5.82395e-17 0.0207066 5.34347e-18 0.0222324)
(0.00647336 0.00268727 2.84736e-17 0.00563478 3.04874e-18 0.00602478)
(0.00131691 0.000544052 2.15364e-18 0.00113789 1.7368e-19 0.00122124)
(0.000194625 7.98986e-05 6.75892e-19 0.000166989 6.30989e-20 0.000179869)
(1.11864e-05 2.15648e-06 -1.20595e-20 1.04328e-05 -2.79177e-21 1.07843e-05)
(5.85371e-07 7.99274e-09 -2.97065e-22 5.82637e-07 -3.23355e-23 5.83915e-07)
(2.45926e-06 1.5313e-07 1.2383e-21 2.40878e-06 2.18017e-22 2.43253e-06)
(4.0192e-06 4.4038e-07 -5.29746e-21 3.88025e-06 -6.85709e-22 3.94622e-06)
(4.14205e-06 5.18017e-07 8.64795e-23 3.98607e-06 1.24174e-22 4.06112e-06)
(3.74159e-06 4.75287e-07 1.00881e-22 3.60523e-06 1.46563e-23 3.672e-06)
(3.30309e-06 4.17913e-07 1.36755e-24 3.18879e-06 -1.7773e-23 3.24594e-06)
(2.91991e-06 3.68559e-07 8.58258e-23 2.82373e-06 9.02383e-24 2.87301e-06)
(2.58649e-06 3.26387e-07 2.78489e-23 2.50503e-06 1.4774e-24 2.54779e-06)
(2.29222e-06 2.89324e-07 -9.79504e-23 2.22282e-06 -8.05638e-23 2.26014e-06)
(2.03191e-06 2.56491e-07 -9.35636e-21 1.97229e-06 -9.71404e-22 2.005e-06)
(1.80265e-06 2.2753e-07 1.88136e-20 1.75097e-06 2.34238e-21 1.77972e-06)
(1.60217e-06 2.02158e-07 -1.5399e-21 1.55677e-06 -2.98436e-22 1.58219e-06)
(1.42791e-06 1.80067e-07 3.87107e-21 1.38742e-06 4.74635e-22 1.4101e-06)
(1.27639e-06 1.60824e-07 6.06559e-24 1.23971e-06 1.00387e-23 1.26013e-06)
(1.14482e-06 1.44075e-07 -2.69163e-22 1.11102e-06 -1.11101e-22 1.12962e-06)
(1.02996e-06 1.29433e-07 -1.99548e-20 9.98459e-07 -2.45535e-21 1.01547e-06)
(9.2928e-07 1.16556e-07 -1.94119e-20 8.99428e-07 -2.20654e-21 9.15248e-07)
(8.40363e-07 1.05212e-07 1.40521e-20 8.12229e-07 1.71603e-21 8.26692e-07)
(7.60443e-07 9.49158e-08 -1.11142e-20 7.33027e-07 -1.36921e-21 7.47027e-07)
(6.9324e-07 8.63779e-08 6.40742e-21 6.67456e-07 8.01034e-22 6.80128e-07)
(6.41277e-07 7.9554e-08 -5.23343e-23 6.15085e-07 -3.90959e-23 6.28011e-07)
(5.91055e-07 7.30403e-08 -2.92085e-23 5.65245e-07 -3.82332e-23 5.77619e-07)
(5.43466e-07 6.66681e-08 -1.48894e-20 5.16617e-07 -1.84162e-21 5.30022e-07)
(4.92032e-07 6.0483e-08 -2.92455e-20 4.69203e-07 -3.58475e-21 4.78857e-07)
(4.54541e-07 5.49804e-08 -4.04802e-20 4.27707e-07 -4.78986e-21 4.41706e-07)
(4.01235e-07 4.94297e-08 1.08534e-20 3.84815e-07 1.38483e-21 3.89414e-07)
(3.77421e-07 4.43585e-08 5.91985e-21 3.48938e-07 7.56009e-22 3.65896e-07)
(3.09652e-07 3.82944e-08 2.91669e-20 3.04852e-07 3.57125e-21 2.99944e-07)
(3.24672e-07 3.40292e-08 2.00582e-20 2.87503e-07 2.40822e-21 3.13852e-07)
(2.51897e-07 2.71185e-08 -6.57699e-23 2.70573e-07 -1.44101e-23 2.45358e-07)
(3.92178e-07 2.94727e-08 -2.07811e-24 3.30692e-07 -5.35465e-24 3.81656e-07)
(2.89005e-07 1.78613e-09 -3.50285e-23 3.43288e-07 -2.0582e-23 2.87748e-07)
(5.86646e-07 3.95244e-08 -7.7954e-21 4.93429e-07 -8.66532e-22 5.75718e-07)
(1.83252e-05 -2.39595e-06 -7.87448e-22 2.09163e-05 -2.01871e-22 1.93986e-05)
(1.48974e-05 -1.81434e-06 1.2058e-22 1.79188e-05 9.01013e-23 1.61198e-05)
(1.00348e-05 -6.15887e-07 4.24622e-22 1.30088e-05 7.52774e-23 1.12416e-05)
(9.92251e-06 1.67168e-07 -4.4487e-22 1.28387e-05 -1.23881e-22 1.10046e-05)
(1.11128e-05 7.557e-07 -5.92286e-22 1.44369e-05 -3.24083e-23 1.24214e-05)
(1.45251e-05 2.03454e-06 2.68415e-21 1.97163e-05 6.22829e-22 1.68998e-05)
(1.02507e-05 1.12086e-06 6.51485e-22 1.19488e-05 5.42189e-23 1.12087e-05)
(8.33359e-07 6.39589e-09 -2.8265e-24 8.38747e-07 -5.89871e-25 8.37437e-07)
(0 0 0 0 0 0)
(0.00162046 0.000803894 4.36297e-19 0.00205876 8.73737e-20 0.00204991)
(0.00797495 0.00403141 3.26271e-19 0.010843 1.74153e-20 0.00988046)
(0.0653117 0.0324619 5.10897e-18 0.0866194 6.48709e-19 0.0758399)
(0.233762 0.113759 -1.56969e-17 0.288636 -4.90452e-18 0.258026)
(0.546815 0.261659 -7.61986e-17 0.637033 -1.26402e-17 0.586629)
(0.958465 0.452959 3.16826e-17 1.07475 1.72826e-17 1.01148)
(1.37596 0.644511 2.44049e-16 1.5059 4.72816e-17 1.43674)
(1.7143 0.797811 3.65076e-17 1.84637 -4.72393e-18 1.77632)
(1.92562 0.891706 -6.16594e-17 2.0505 -1.19094e-17 1.98323)
(2.00106 0.922951 8.61854e-18 2.11248 9.79765e-18 2.0508)
(1.95856 0.900556 1.07898e-16 2.05411 2.0077e-17 1.99964)
(1.8283 0.839069 -5.42815e-17 1.90971 -7.01673e-18 1.86252)
(1.64176 0.753478 1.81079e-16 1.71448 2.93928e-17 1.67292)
(1.42392 0.6556 -2.5374e-16 1.49635 -5.54324e-17 1.45711)
(1.18735 0.551258 2.57101e-16 1.26984 9.57094e-17 1.22814)
(0.928041 0.438279 1.5455e-16 1.03239 2.69547e-17 0.982085)
(0.625923 0.305712 2.9601e-17 0.76553 -8.38285e-19 0.699209)
(0.269668 0.134432 4.79072e-17 0.460654 3.86911e-17 0.369341)
(0.237619 -0.102667 3.97075e-16 0.499569 9.85122e-17 0.372581)
(0.857261 -0.430781 -2.575e-17 1.20807 -3.38591e-17 1.03554)
(1.72248 -0.846689 1.74545e-16 2.16781 1.69362e-17 1.94623)
(2.69596 -1.30468 -4.88359e-16 3.218 -1.5627e-16 2.95624)
(3.60937 -1.72631 -8.51351e-16 4.16203 -1.15291e-16 3.88386)
(4.26817 -2.01988 9.41572e-17 4.78289 4.33438e-17 4.52369)
(4.48149 -2.09747 -4.84573e-16 4.88377 -2.99715e-17 4.68201)
(4.1137 -1.9006 1.11397e-15 4.34846 1.38291e-16 4.23263)
(3.17841 -1.4441 -3.31567e-16 3.23876 -1.03651e-16 3.21227)
(1.93811 -0.858724 -8.32752e-16 1.87815 -9.44472e-17 1.91212)
(0.831491 -0.350073 -5.68608e-16 0.736877 -2.29823e-17 0.786725)
(0.205932 -0.0682791 3.42577e-16 0.135264 4.21861e-17 0.171363)
(0.0757519 0.0185784 7.29889e-19 0.0395693 -5.08106e-18 0.057558)
(0.0564429 0.0209 -3.23748e-18 0.0419812 -9.36616e-19 0.0490181)
(0.023712 0.00924678 -5.92737e-19 0.018848 -2.9424e-20 0.0211848)
(0.00709556 0.00278115 -1.57598e-19 0.00568022 -8.01346e-21 0.00635715)
(0.00164578 0.00063907 -2.44542e-20 0.00130123 -7.95084e-21 0.00146586)
(0.000296689 0.000114013 -4.37814e-20 0.000231538 -2.07946e-20 0.000262655)
(3.69349e-05 1.28473e-05 -1.27666e-19 2.94015e-05 -1.32146e-20 3.30019e-05)
(2.01012e-06 9.66387e-08 3.06911e-23 1.95359e-06 6.5171e-23 1.98067e-06)
(2.33551e-06 1.44161e-07 5.05334e-21 2.25269e-06 5.51926e-22 2.29256e-06)
(3.61641e-06 3.69577e-07 7.75736e-23 3.4096e-06 -1.5359e-22 3.50978e-06)
(3.83036e-06 4.5551e-07 4.97116e-21 3.58331e-06 5.79204e-22 3.70397e-06)
(3.51668e-06 4.29764e-07 -1.32285e-21 3.29155e-06 -8.51167e-23 3.40261e-06)
(3.12671e-06 3.82204e-07 8.76532e-21 2.93381e-06 9.9388e-22 3.03006e-06)
(2.77619e-06 3.39156e-07 9.31061e-24 2.6116e-06 -6.56281e-23 2.69474e-06)
(2.47015e-06 3.02138e-07 2.68551e-24 2.32923e-06 5.15325e-24 2.40127e-06)
(2.19974e-06 2.69551e-07 3.55114e-23 2.07878e-06 4.10095e-23 2.14134e-06)
(1.96006e-06 2.40572e-07 9.00628e-21 1.85582e-06 8.83459e-22 1.91023e-06)
(1.74793e-06 2.14819e-07 -1.98524e-20 1.65769e-06 -2.30476e-21 1.70507e-06)
(1.56148e-06 1.92077e-07 4.97856e-21 1.48275e-06 7.35335e-22 1.52414e-06)
(1.39801e-06 1.72052e-07 -5.92578e-23 1.3287e-06 -1.43775e-23 1.36503e-06)
(1.25502e-06 1.5446e-07 1.31916e-22 1.19337e-06 -5.62015e-23 1.22543e-06)
(1.1296e-06 1.38957e-07 -1.10028e-20 1.07414e-06 -1.30386e-21 1.10268e-06)
(1.01917e-06 1.25258e-07 1.75061e-22 9.68806e-07 7.51743e-23 9.94348e-07)
(9.21399e-07 1.13066e-07 3.72844e-21 8.75101e-07 3.79494e-22 8.98283e-07)
(8.34444e-07 1.02249e-07 -1.26236e-22 7.91941e-07 -1.23353e-23 8.12774e-07)
(7.55964e-07 9.23522e-08 1.30258e-22 7.15998e-07 -2.49518e-23 7.35517e-07)
(6.89985e-07 8.4206e-08 -6.14263e-21 6.53258e-07 -7.69609e-22 6.70757e-07)
(6.39411e-07 7.76996e-08 -1.40496e-20 6.03541e-07 -1.7017e-21 6.20812e-07)
(5.89452e-07 7.13382e-08 -9.156e-21 5.54956e-07 -1.03685e-21 5.71349e-07)
(5.418e-07 6.50267e-08 4.57146e-21 5.07193e-07 6.2029e-22 5.24317e-07)
(4.89314e-07 5.8941e-08 2.17514e-20 4.5976e-07 2.62648e-21 4.72683e-07)
(4.51509e-07 5.33893e-08 1.95057e-20 4.18841e-07 2.2654e-21 4.35749e-07)
(3.96511e-07 4.80017e-08 -2.78214e-23 3.75074e-07 -7.66489e-23 3.82226e-07)
(3.73948e-07 4.28405e-08 -2.58334e-20 3.41183e-07 -3.11531e-21 3.60465e-07)
(3.04045e-07 3.71963e-08 -5.52562e-23 2.95568e-07 3.39132e-23 2.92658e-07)
(3.22032e-07 3.24956e-08 -1.93492e-20 2.81889e-07 -2.27672e-21 3.09974e-07)
(2.45565e-07 2.61661e-08 1.47542e-20 2.62007e-07 1.83925e-21 2.37658e-07)
(3.9094e-07 2.77154e-08 -6.61316e-23 3.27387e-07 -1.3348e-23 3.79617e-07)
(2.92086e-07 1.03454e-09 -6.06666e-20 3.45456e-07 -7.7988e-21 2.89498e-07)
(5.93227e-07 3.85108e-08 7.426e-21 4.9744e-07 8.42454e-22 5.81849e-07)
(2.12275e-05 -2.88326e-06 -5.01146e-24 2.37342e-05 5.27884e-23 2.22041e-05)
(1.7692e-05 -2.40748e-06 1.3774e-21 2.03848e-05 2.63355e-22 1.87699e-05)
(1.10529e-05 -1.25251e-06 5.08441e-22 1.36174e-05 4.69337e-23 1.21652e-05)
(7.65853e-06 -2.36187e-07 -3.70458e-22 9.96616e-06 -8.78467e-23 8.63447e-06)
(7.60462e-06 4.60929e-07 -4.47693e-22 1.00238e-05 -6.34285e-23 8.7804e-06)
(1.04077e-05 1.54556e-06 7.70676e-24 1.35211e-05 6.97179e-24 1.23367e-05)
(1.11889e-05 1.65165e-06 7.44183e-24 1.30159e-05 4.55024e-23 1.2618e-05)
(3.79606e-08 1.42885e-11 7.04275e-27 3.79705e-08 1.07478e-27 3.79695e-08)
(2.7195e-09 6.2892e-14 -1.80722e-29 2.71954e-09 -2.55121e-30 2.71953e-09)
(0.000888939 0.000449535 3.14923e-19 0.00120518 5.48474e-20 0.00111784)
(0.00386256 0.00195105 -4.20487e-19 0.0057747 -1.20919e-19 0.0048489)
(0.0434431 0.0215258 3.57615e-20 0.0619593 4.50509e-19 0.0511532)
(0.193199 0.0943191 2.52421e-17 0.245759 4.6198e-18 0.214598)
(0.51738 0.248357 -7.34422e-19 0.609314 -2.25638e-18 0.557578)
(0.980672 0.465135 -5.38718e-17 1.10883 -1.01803e-17 1.0408)
(1.47142 0.69282 -1.56852e-18 1.6293 -2.29443e-18 1.54799)
(1.87711 0.879849 -8.08275e-17 2.0551 -9.72963e-18 1.96341)
(2.12869 0.99471 9.31219e-17 2.31458 2.36983e-17 2.21708)
(2.20739 1.02916 6.4368e-17 2.3891 9.84697e-18 2.2914)
(2.13164 0.992276 4.76224e-17 2.30029 1.23888e-17 2.20734)
(1.93937 0.90221 1.42827e-16 2.09103 1.2965e-17 2.00586)
(1.67427 0.779722 -2.53752e-16 1.81039 -4.54086e-17 1.73358)
(1.37621 0.643614 2.24635e-16 1.50285 4.59598e-17 1.43266)
(1.07156 0.5061 -2.39443e-16 1.19796 -6.68172e-17 1.13079)
(0.765862 0.369064 -6.28536e-19 0.902752 1.39338e-17 0.833768)
(0.446304 0.223301 3.49557e-19 0.60522 -6.57508e-18 0.528712)
(0.144514 0.0506678 -8.62742e-17 0.338487 -3.20804e-17 0.247638)
(0.346623 -0.173375 -1.59503e-16 0.590947 -2.94951e-17 0.477584)
(0.936713 -0.467509 2.51321e-17 1.24373 1.4194e-17 1.10075)
(1.68615 -0.823301 -5.70114e-17 2.05833 -9.47265e-18 1.88313)
(2.48807 -1.1976 2.51511e-17 2.91022 3.36501e-17 2.709)
(3.19994 -1.52368 4.39876e-16 3.63559 6.35505e-17 3.42573)
(3.66748 -1.72903 -2.47221e-19 4.06328 4.73827e-18 3.87141)
(3.75261 -1.7504 7.7028e-16 4.05232 6.12866e-17 3.90714)
(3.37503 -1.55441 -7.4709e-16 3.5406 -9.77721e-17 3.4618)
(2.57619 -1.16682 1.90184e-16 2.60772 4.23953e-17 2.59561)
(1.57715 -0.696191 6.47493e-18 1.51779 1.87138e-17 1.5506)
(0.70228 -0.293887 6.35608e-16 0.616472 4.92893e-17 0.661308)
(0.193285 -0.0643337 -1.20085e-16 0.127438 -1.74409e-17 0.161093)
(0.0655333 0.0116348 8.61981e-17 0.0295763 9.85065e-18 0.0476577)
(0.0493388 0.016974 2.15758e-17 0.033728 6.63578e-20 0.0414847)
(0.0222401 0.0082305 -1.09777e-20 0.0165146 6.73937e-19 0.0193402)
(0.00723912 0.00269808 1.89088e-17 0.00542303 1.78784e-18 0.00631664)
(0.00186143 0.00068474 -1.34873e-20 0.00137274 -1.06211e-19 0.0016128)
(0.000386287 0.000139889 4.3682e-20 0.00027976 1.90275e-20 0.000332029)
(6.29506e-05 2.21635e-05 1.82847e-19 4.5439e-05 1.94365e-20 5.40306e-05)
(5.70708e-06 7.29644e-07 5.75669e-23 5.12518e-06 -4.90472e-23 5.41109e-06)
(2.4744e-06 1.68481e-07 -5.2232e-23 2.34107e-06 3.64657e-23 2.40677e-06)
(3.25924e-06 3.13775e-07 7.34163e-21 3.0152e-06 7.54517e-22 3.13593e-06)
(3.49289e-06 3.93254e-07 -4.56267e-21 3.19409e-06 -6.10432e-22 3.34264e-06)
(3.25763e-06 3.80694e-07 3.39236e-23 2.97629e-06 -1.13573e-23 3.11694e-06)
(2.92147e-06 3.43017e-07 -8.46418e-21 2.67579e-06 -9.40694e-22 2.79935e-06)
(2.60883e-06 3.06695e-07 1.14728e-23 2.39648e-06 1.11349e-22 2.50387e-06)
(2.33393e-06 2.75106e-07 3.37989e-24 2.15005e-06 8.04333e-23 2.2435e-06)
(2.09061e-06 2.47229e-07 8.33483e-21 1.93101e-06 9.32617e-22 2.01242e-06)
(1.87414e-06 2.22314e-07 1.06052e-21 1.73526e-06 7.8359e-23 1.80622e-06)
(1.68164e-06 1.99996e-07 1.78876e-21 1.56031e-06 1.66816e-22 1.62223e-06)
(1.51121e-06 1.80094e-07 -3.28053e-21 1.40464e-06 -4.53047e-22 1.4588e-06)
(1.36059e-06 1.62373e-07 -8.86861e-21 1.26634e-06 -8.28269e-22 1.3139e-06)
(1.22743e-06 1.466e-07 2.62553e-20 1.14347e-06 3.22157e-21 1.18539e-06)
(1.1093e-06 1.32507e-07 1.07495e-20 1.0339e-06 1.19279e-21 1.07112e-06)
(1.00402e-06 1.19877e-07 1.81313e-20 9.35856e-07 2.16674e-21 9.69058e-07)
(9.09957e-07 1.08517e-07 2.08589e-20 8.47832e-07 2.31704e-21 8.77759e-07)
(8.25556e-07 9.8349e-08 -1.61545e-20 7.68978e-07 -1.9343e-21 7.95762e-07)
(7.48562e-07 8.89222e-08 2.23254e-20 6.96208e-07 2.69501e-21 7.20949e-07)
(6.83886e-07 8.12387e-08 -5.76284e-21 6.36256e-07 -7.72678e-22 6.58387e-07)
(6.34563e-07 7.50963e-08 -1.96562e-23 5.89048e-07 3.08083e-23 6.10509e-07)
(5.85119e-07 6.89616e-08 4.8284e-21 5.41963e-07 5.50439e-22 5.6224e-07)
(5.37848e-07 6.28078e-08 -4.02733e-21 4.95521e-07 -4.53944e-22 5.16257e-07)
(4.84681e-07 5.6913e-08 1.70706e-20 4.48409e-07 2.10318e-21 4.64578e-07)
(4.47128e-07 5.14215e-08 1.29712e-20 4.08664e-07 1.54588e-21 4.28482e-07)
(3.90665e-07 4.62835e-08 -1.71981e-24 3.64262e-07 -3.85125e-24 3.74026e-07)
(3.70036e-07 4.11296e-08 1.66179e-20 3.33079e-07 1.99373e-21 3.54713e-07)
(2.98104e-07 3.59942e-08 2.73353e-24 2.86e-07 -7.69914e-23 2.85214e-07)
(3.20361e-07 3.09597e-08 -5.60686e-20 2.77269e-07 -6.76456e-21 3.07202e-07)
(2.38962e-07 2.52417e-08 -1.40939e-20 2.53228e-07 -1.71908e-21 2.29895e-07)
(3.9077e-07 2.59785e-08 -3.60743e-20 3.25084e-07 -4.22604e-21 3.78639e-07)
(2.95395e-07 3.16123e-10 6.11238e-20 3.48074e-07 7.83687e-21 2.91671e-07)
(5.99637e-07 3.73365e-08 -7.08634e-21 5.01097e-07 -7.89269e-22 5.87607e-07)
(2.31419e-05 -3.26854e-06 -5.63099e-24 2.53148e-05 -8.35876e-24 2.4052e-05)
(1.90832e-05 -2.71854e-06 9.08289e-24 2.12775e-05 -1.96773e-23 2.00452e-05)
(1.23043e-05 -1.69655e-06 -5.29898e-22 1.43615e-05 -4.85764e-23 1.33215e-05)
(7.04895e-06 -6.54365e-07 6.57958e-22 8.83874e-06 1.25529e-22 7.95075e-06)
(4.63253e-06 1.73319e-08 1.1675e-22 6.10848e-06 -1.23087e-23 5.56777e-06)
(7.0261e-06 9.11323e-07 -9.41715e-22 8.85794e-06 -1.53533e-22 8.65965e-06)
(1.01275e-05 1.63423e-06 6.07919e-22 1.16576e-05 1.16003e-22 1.17693e-05)
(5.63141e-06 3.77214e-07 1.85003e-25 5.90758e-06 -1.43417e-24 5.88191e-06)
(4.78798e-07 2.01364e-09 -2.01905e-27 4.80272e-07 -7.60666e-27 4.79789e-07)
(0 0 0 0 -0 0)
(0.00298531 0.00146642 -3.46664e-21 0.00472717 2.39815e-20 0.00370343)
(0.0149554 0.00725991 2.49505e-18 0.0233311 3.55948e-19 0.0180562)
(0.102311 0.0502665 3.65702e-20 0.136711 -1.67989e-19 0.115955)
(0.36031 0.174022 -7.17592e-19 0.431119 1.10981e-18 0.392661)
(0.810884 0.38641 3.65749e-17 0.925137 5.1554e-18 0.868045)
(1.35409 0.640982 3.33303e-18 1.51628 -1.42432e-18 1.43692)
(1.8512 0.873447 3.55507e-17 2.05731 9.03723e-18 1.95485)
(2.1963 1.0344 7.07453e-17 2.43222 1.01907e-17 2.31217)
(2.3412 1.10141 1.06354e-18 2.58772 -4.89266e-18 2.45973)
(2.28912 1.07633 -4.43993e-17 2.52861 -1.21056e-17 2.40223)
(2.07619 0.976559 -5.161e-17 2.29695 3.19667e-18 2.1789)
(1.75439 0.826868 2.33062e-16 1.95224 3.53623e-17 1.84538)
(1.38033 0.65402 -2.2343e-16 1.55836 -5.2625e-17 1.46192)
(1.00249 0.4805 -2.68383e-19 1.16921 8.59748e-18 1.07974)
(0.646376 0.316922 -5.09016e-17 0.812398 -1.21748e-17 0.72547)
(0.314767 0.158298 9.13748e-19 0.490292 1.7069e-18 0.401614)
(0.120099 -0.0129413 -2.15808e-17 0.31487 -3.87952e-18 0.220232)
(0.435236 -0.22037 2.74291e-18 0.65895 -5.64685e-18 0.554013)
(0.969265 -0.478805 -1.02454e-16 1.22831 -1.84938e-17 1.11004)
(1.60933 -0.778662 9.73698e-19 1.90306 7.84026e-18 1.77116)
(2.26577 -1.08173 -7.01915e-18 2.58229 2.22614e-18 2.44116)
(2.81824 -1.33216 -1.34214e-17 3.13263 -5.13173e-18 2.99252)
(3.14435 -1.47295 -9.46715e-17 3.42131 -4.33327e-17 3.29778)
(3.14581 -1.4594 -9.22609e-16 3.34852 -7.22733e-17 3.25878)
(2.77862 -1.27401 6.52168e-16 2.88307 8.49167e-17 2.83903)
(2.09615 -0.946008 -1.62812e-16 2.10476 -3.0269e-17 2.10598)
(1.28179 -0.564244 1.07451e-18 1.2265 2.73184e-19 1.25793)
(0.583269 -0.243652 -1.2781e-16 0.510189 -1.6993e-17 0.549134)
(0.172182 -0.0582808 -1.60861e-16 0.115268 -1.14624e-17 0.145018)
(0.0550525 0.00666645 -8.38886e-19 0.0225894 1.49487e-18 0.0394044)
(0.0417623 0.0135486 -1.19244e-18 0.0268368 7.08312e-19 0.0345323)
(0.0200374 0.00714512 3.21502e-17 0.014206 2.04972e-18 0.0172072)
(0.00700611 0.00252395 -1.60049e-17 0.0050258 -1.82485e-18 0.00604384)
(0.00196028 0.000695386 -1.25259e-18 0.00138198 -2.5892e-20 0.00167871)
(0.000453383 0.000157577 -4.37145e-21 0.000312618 3.47594e-21 0.000384679)
(8.66244e-05 2.95042e-05 -2.27314e-21 5.89769e-05 1.71728e-21 7.31061e-05)
(1.20364e-05 2.67894e-06 2.37869e-22 9.47388e-06 1.88211e-22 1.07826e-05)
(2.91835e-06 2.43115e-07 -2.52961e-23 2.6853e-06 -1.02421e-22 2.80433e-06)
(2.97699e-06 2.76986e-07 -7.12256e-21 2.71378e-06 -6.05711e-22 2.8483e-06)
(3.15817e-06 3.38573e-07 1.1702e-20 2.84138e-06 1.37727e-21 3.00342e-06)
(2.98598e-06 3.34406e-07 1.22449e-21 2.67942e-06 -1.17714e-23 2.83637e-06)
(2.70432e-06 3.05335e-07 1.99497e-23 2.43112e-06 -3.03414e-23 2.57104e-06)
(2.43187e-06 2.75202e-07 2.58805e-23 2.19219e-06 1.49484e-23 2.31487e-06)
(2.18969e-06 2.48565e-07 3.81514e-24 1.97929e-06 -7.46033e-23 2.08678e-06)
(1.97445e-06 2.24968e-07 -8.13629e-21 1.78932e-06 -8.90912e-22 1.88356e-06)
(1.78191e-06 2.03761e-07 -1.02959e-21 1.61865e-06 -4.7285e-23 1.70128e-06)
(1.60951e-06 1.84604e-07 5.00327e-22 1.46504e-06 1.62788e-22 1.53758e-06)
(1.45549e-06 1.67331e-07 8.98113e-21 1.32709e-06 1.04888e-21 1.39092e-06)
(1.31801e-06 1.51763e-07 3.40462e-21 1.20327e-06 8.91371e-23 1.25966e-06)
(1.19498e-06 1.3772e-07 -3.58337e-20 1.09193e-06 -4.10456e-21 1.14194e-06)
(1.08441e-06 1.24988e-07 -6.25459e-21 9.91344e-07 -4.80355e-22 1.03594e-06)
(9.84695e-07 1.13452e-07 7.10348e-21 9.00355e-07 7.17581e-22 9.40245e-07)
(8.9465e-07 1.02958e-07 -3.43341e-20 8.17811e-07 -3.94581e-21 8.53775e-07)
(8.12856e-07 9.34773e-08 1.2174e-20 7.43032e-07 1.52e-21 7.75257e-07)
(7.37499e-07 8.45754e-08 -6.2094e-21 6.73348e-07 -7.22166e-22 7.02946e-07)
(6.7407e-07 7.74068e-08 6.5669e-21 6.1601e-07 7.23608e-22 6.42496e-07)
(6.25944e-07 7.16776e-08 -2.03916e-20 5.71183e-07 -2.40682e-21 5.96601e-07)
(5.77179e-07 6.58386e-08 7.51576e-21 5.2576e-07 9.73221e-22 5.49681e-07)
(5.30524e-07 5.99089e-08 3.84917e-21 4.80847e-07 4.30415e-22 5.04974e-07)
(4.77211e-07 5.4313e-08 3.35001e-21 4.3453e-07 3.83449e-22 4.53784e-07)
(4.40273e-07 4.89723e-08 -1.45382e-20 3.9634e-07 -1.72322e-21 4.18936e-07)
(3.82819e-07 4.41865e-08 -1.91146e-24 3.51713e-07 8.49029e-25 3.64037e-07)
(3.64882e-07 3.91531e-08 -1.58255e-20 3.24005e-07 -1.86764e-21 3.47928e-07)
(2.91287e-07 3.46371e-08 -9.98629e-24 2.75773e-07 1.07315e-22 2.77152e-07)
(3.18945e-07 2.93694e-08 7.09805e-20 2.73083e-07 8.44506e-21 3.0489e-07)
(2.31974e-07 2.43722e-08 -1.79741e-23 2.44225e-07 -4.44168e-23 2.22059e-07)
(3.9181e-07 2.42521e-08 3.44702e-20 3.23941e-07 3.99506e-21 3.78938e-07)
(2.98766e-07 -3.15499e-10 -7.41972e-20 3.5108e-07 -9.49551e-21 2.94198e-07)
(6.05828e-07 3.59931e-08 4.64907e-23 5.04393e-07 9.69066e-24 5.92977e-07)
(2.43756e-05 -3.5381e-06 -5.32698e-24 2.61941e-05 1.36447e-23 2.52328e-05)
(1.94892e-05 -2.84386e-06 9.65704e-24 2.1081e-05 2.19452e-23 2.03565e-05)
(1.25675e-05 -1.85839e-06 1.36022e-21 1.38405e-05 1.89323e-22 1.34823e-05)
(7.0059e-06 -9.06525e-07 -9.96819e-22 8.14572e-06 -1.70429e-22 7.86368e-06)
(3.75296e-06 -2.18993e-07 -6.59685e-24 4.55452e-06 3.36829e-23 4.51178e-06)
(4.72499e-06 3.38507e-07 7.54539e-22 5.70854e-06 5.51194e-23 5.88641e-06)
(7.83183e-06 1.25585e-06 -2.69935e-21 9.43109e-06 -4.30514e-22 9.5046e-06)
(6.88221e-06 7.27596e-07 3.78211e-25 7.71423e-06 2.41194e-23 7.46535e-06)
(7.39516e-07 5.21807e-09 -9.092e-27 7.45252e-07 -2.1837e-26 7.42292e-07)
(0 0 0 0 -0 0)
(0.000213605 0.000101652 -2.61576e-22 0.000339418 -6.73865e-22 0.000258012)