/*--------------------------------*- C++ -*----------------------------------*\
| =========                 |                                                 |
| \\      /  F ield         | OpenFOAM: The Open Source CFD Toolbox           |
|  \\    /   O peration     | Version:  2506                                  |
|   \\  /    A nd           | Website:  www.openfoam.com                      |
|    \\/     M anipulation  |                                                 |
\*---------------------------------------------------------------------------*/
FoamFile
{
    version     2.0;
    format      ascii;
    arch        "LSB;label=32;scalar=64";
    class       volScalarField;
    location    "50";
    object      turbulenceProperties:epsilon;
}
// * * * * * * * * * * * * * * * * * * * * * * * * * * * * * * * * * * * * * //

dimensions      [0 2 -3 0 0 0 0];

internalField   nonuniform List<scalar> 
1340
(
3.63838e-10
1.98446e-10
3.87717e-10
2.89394e-10
1.8537e-10
4.10258e-10
1.557e-10
2.87395e-10
1.77886e-10
4.26012e-10
2.06609e-10
2.23774e-10
1.52421e-10
2.80403e-10
1.72578e-10
4.38125e-10
3.07233e-10
2.7029e-10
2.00934e-10
2.12698e-10
1.48016e-10
2.71529e-10
1.67851e-10
4.50429e-10
5.0289e-10
4.27014e-10
3.69735e-10
3.01357e-10
2.62964e-10
1.94801e-10
2.0195e-10
1.42828e-10
2.62833e-10
1.63951e-10
4.63029e-10
8.14611e-10
6.87603e-10
5.85527e-10
5.00004e-10
4.21489e-10
3.63012e-10
2.94902e-10
2.55698e-10
1.88318e-10
1.92088e-10
1.37189e-10
2.54843e-10
1.61278e-10
4.75082e-10
1.85721e-09
1.49788e-09
1.2176e-09
9.91661e-10
8.16755e-10
6.89513e-10
5.85001e-10
4.96667e-10
4.15513e-10
3.55895e-10
2.87709e-10
2.48356e-10
1.81438e-10
1.83194e-10
1.31243e-10
2.4763e-10
1.59705e-10
4.87174e-10
6.00039e-09
4.67464e-09
3.66484e-09
2.89588e-09
2.30426e-09
1.84753e-09
1.49162e-09
1.21274e-09
9.87556e-10
8.14256e-10
6.88756e-10
5.83141e-10
4.92781e-10
4.09223e-10
3.48621e-10
2.79904e-10
2.41025e-10
1.7416e-10
1.75325e-10
1.25047e-10
2.41317e-10
1.5904e-10
4.98765e-10
3.29454e-08
2.60771e-08
2.0117e-08
1.56217e-08
1.21756e-08
9.48751e-09
7.3914e-09
5.7683e-09
4.51937e-09
3.56169e-09
2.82534e-09
2.25688e-09
1.81513e-09
1.4694e-09
1.1966e-09
9.75221e-10
8.06259e-10
6.84387e-10
5.79133e-10
4.87858e-10
4.02401e-10
3.41244e-10
2.71591e-10
2.33856e-10
1.66659e-10
1.68588e-10
1.18652e-10
2.36087e-10
1.59588e-10
5.10298e-10
0.134141
0.00749275
0.00229372
0.00317247
0.00127593
0.000297686
5.01235e-05
6.26028e-06
1.85649e-07
4.04728e-10
9.66025e-09
2.6734e-08
2.82551e-08
2.30758e-08
1.80271e-08
1.41174e-08
1.10974e-08
8.72916e-09
6.86717e-09
5.4095e-09
4.27499e-09
3.39564e-09
2.71209e-09
2.17986e-09
1.76221e-09
1.43205e-09
1.16913e-09
9.54776e-10
7.92187e-10
6.75388e-10
5.71847e-10
4.80926e-10
3.94467e-10
3.33412e-10
2.62819e-10
2.26929e-10
1.59062e-10
1.63117e-10
1.12146e-10
2.32066e-10
1.61009e-10
5.21496e-10
6.50882e-07
4.51643e-07
2.22096e-07
2.1636e-07
2.71719e-07
4.68553e-07
2.1239e-07
7.3648e-10
0
0.000140397
0.000812004
0.00971062
0.0517373
0.164389
0.353582
0.572869
0.755192
0.854522
0.861571
0.794767
0.683229
0.553941
0.425279
0.305486
0.195487
0.0969174
0.0253802
0.0233508
0.159132
0.486875
0.982271
1.52224
1.92513
2.0136
1.69915
1.08294
0.463784
0.106964
0.00786996
0.00159384
0.00238775
0.00108344
0.000285384
5.51573e-05
8.39858e-06
8.70198e-07
6.17393e-09
8.61227e-09
2.11372e-08
2.35163e-08
1.98171e-08
1.57096e-08
1.2421e-08
9.85922e-09
7.83741e-09
6.2353e-09
4.96722e-09
3.96907e-09
3.18416e-09
2.56698e-09
2.07926e-09
1.69164e-09
1.38118e-09
1.13159e-09
9.26841e-10
7.71498e-10
6.60695e-10
5.5993e-10
4.70819e-10
3.84486e-10
3.24478e-10
2.53225e-10
2.2006e-10
1.5144e-10
1.58871e-10
1.05642e-10
2.29308e-10
1.63468e-10
5.32081e-10
8.53355e-07
6.09282e-07
2.55758e-07
1.30766e-07
1.31419e-07
2.38797e-07
2.52999e-07
7.15036e-13
1.81383e-15
7.59608e-05
0.000357038
0.00559487
0.0386387
0.149933
0.366493
0.641185
0.882737
1.01844
1.02611
0.927437
0.764552
0.580198
0.406429
0.259647
0.143019
0.0566734
0.0115908
0.0396713
0.188386
0.484311
0.887484
1.28828
1.54853
1.55291
1.26715
0.791216
0.340292
0.0830652
0.00750349
0.0011447
0.00173198
0.000870829
0.000254101
5.48518e-05
9.61488e-06
1.34969e-06
4.97849e-08
9.66319e-09
1.68552e-08
1.91462e-08
1.66214e-08
1.34022e-08
1.07208e-08
8.60578e-09
6.92357e-09
5.57736e-09
4.49953e-09
3.63956e-09
2.95357e-09
2.40534e-09
1.96504e-09
1.6094e-09
1.32113e-09
1.0867e-09
8.92105e-10
7.44561e-10
6.39844e-10
5.42809e-10
4.56751e-10
3.71567e-10
3.13725e-10
2.42432e-10
2.12849e-10
1.43748e-10
1.55735e-10
9.91814e-11
2.27869e-10
1.66337e-10
5.42195e-10
9.93514e-07
6.882e-07
3.00933e-07
1.07581e-07
5.03243e-08
1.0985e-07
2.05641e-07
5.59051e-08
2.07216e-10
0
0.000280627
0.00160549
0.0161543
0.0889691
0.280254
0.579342
0.89049
1.10437
1.16268
1.07133
0.877736
0.642039
0.417423
0.237076
0.110417
0.0339646
0.00969991
0.056738
0.204389
0.460723
0.780772
1.07177
1.23161
1.18962
0.942397
0.57779
0.248547
0.0630703
0.00656987
0.000818472
0.00122567
0.000676202
0.000215697
5.10475e-05
9.97596e-06
1.64715e-06
1.5888e-07
1.33904e-08
1.38799e-08
1.54315e-08
1.37417e-08
1.12895e-08
9.154e-09
7.44106e-09
6.06444e-09
4.9497e-09
4.04525e-09
3.31251e-09
2.71877e-09
2.23603e-09
1.84155e-09
1.51818e-09
1.25255e-09
1.03358e-09
8.49838e-10
7.10376e-10
6.11972e-10
5.19478e-10
4.37342e-10
3.54673e-10
2.99848e-10
2.29557e-10
2.04476e-10
1.35565e-10
1.53022e-10
9.27442e-11
2.2795e-10
1.6952e-10
5.51778e-10
1.08455e-06
7.00253e-07
2.99396e-07
9.99847e-08
3.11684e-08
4.94356e-08
1.28444e-07
9.2746e-08
5.72497e-10
0
2.13239e-05
7.77405e-05
0.0033754
0.0311191
0.150051
0.411664
0.762777
1.0741
1.23396
1.20456
1.01879
0.747377
0.468476
0.243517
0.0976801
0.0241473
0.0116817
0.0657858
0.202644
0.419952
0.673508
0.88694
0.98491
0.92368
0.713703
0.430011
0.184385
0.0481615
0.00560816
0.000607729
0.000868432
0.000522697
0.000181109
4.65551e-05
9.97438e-06
1.85364e-06
2.75031e-07
2.18002e-08
1.23745e-08
1.27572e-08
1.15513e-08
9.66445e-09
7.94375e-09
6.53563e-09
5.38958e-09
4.44936e-09
3.67571e-09
3.03966e-09
2.51664e-09
2.08476e-09
1.72705e-09
1.43e-09
1.18326e-09
9.77806e-10
8.04116e-10
6.7214e-10
5.79864e-10
4.92075e-10
4.14612e-10
3.34824e-10
2.83768e-10
2.15466e-10
1.95279e-10
1.27342e-10
1.51116e-10
8.66106e-11
2.29645e-10
1.72923e-10
5.63464e-10
1.08898e-06
6.8228e-07
2.88533e-07
1.04179e-07
2.86067e-08
2.21706e-08
6.2443e-08
1.17722e-07
7.52411e-09
2.89919e-11
0
5.43189e-05
0.000181915
0.00450012
0.0441438
0.199582
0.512111
0.896839
1.2003
1.30832
1.1983
0.926517
0.590502
0.293286
0.101596
0.0184428
0.0122717
0.0657536
0.183504
0.362601
0.564827
0.725956
0.788461
0.725016
0.550557
0.327282
0.139906
0.0374145
0.00473821
0.000413662
0.00057584
0.000384398
0.000144632
4.01302e-05
9.31004e-06
1.89988e-06
3.41783e-07
3.42498e-08
1.15949e-08
1.05894e-08
9.64245e-09
8.20141e-09
6.82894e-09
5.67876e-09
4.72894e-09
3.94001e-09
3.28147e-09
2.73283e-09
2.27529e-09
1.89323e-09
1.57303e-09
1.30467e-09
1.0798e-09
8.91377e-10
7.3144e-10
6.10315e-10
5.27018e-10
4.46807e-10
3.76041e-10
3.02253e-10
2.57125e-10
1.94219e-10
1.79646e-10
1.1632e-10
1.45854e-10
8.0119e-11
2.30302e-10
1.76075e-10
5.71471e-10
9.44658e-07
6.0658e-07
2.83419e-07
1.2446e-07
4.25745e-08
1.38683e-08
2.0378e-08
7.71565e-08
8.80352e-08
4.82381e-10
0
0
2.60039e-05
0.000106158
0.00279855
0.0299935
0.149717
0.419283
0.785897
1.10416
1.2394
1.14097
0.855746
0.498757
0.20117
0.0411176
0.00617622
0.046129
0.133312
0.261583
0.413906
0.546032
0.606224
0.566749
0.43793
0.267135
0.119286
0.0345885
0.00513751
0.000289611
0.000330323
0.000286311
0.000125039
3.8815e-05
1.00074e-05
2.29755e-06
4.88417e-07
8.04333e-08
1.4219e-08
8.92506e-09
7.79264e-09
6.71257e-09
5.66203e-09
4.75533e-09
3.99411e-09
3.35431e-09
2.81361e-09
2.35807e-09
1.97394e-09
1.65014e-09
1.37614e-09
1.14457e-09
9.4886e-10
7.83799e-10
6.42922e-10
5.36614e-10
4.6403e-10
3.93086e-10
3.30141e-10
2.64266e-10
2.2549e-10
1.6955e-10
1.59924e-10
1.03139e-10
1.36274e-10
7.05728e-11
2.17016e-10
1.57979e-10
5.05775e-10
7.30478e-07
4.95252e-07
2.61848e-07
1.36577e-07
6.08768e-08
1.9408e-08
9.48271e-09
2.88541e-08
7.70002e-08
2.97182e-08
9.13963e-11
0
0
7.17044e-08
3.46556e-05
0.000354415
0.00763019
0.059772
0.226898
0.525734
0.86043
1.07835
1.07218
0.838752
0.48511
0.175214
0.0220686
0.0148391
0.0807505
0.170265
0.267391
0.359995
0.420452
0.417286
0.341811
0.221372
0.106217
0.0341563
0.00610067
0.000382999
0.000184461
0.000221703
0.000114332
3.94251e-05
1.10227e-05
2.74229e-06
6.36916e-07
1.38242e-07
2.21005e-08
8.09009e-09
6.13895e-09
5.23516e-09
4.44897e-09
3.76338e-09
3.18242e-09
2.69083e-09
2.27337e-09
1.91895e-09
1.61846e-09
1.36306e-09
1.14526e-09
9.59389e-10
8.00794e-10
6.65768e-10
5.49441e-10
4.61697e-10
4.01921e-10
3.4121e-10
2.87769e-10
2.29661e-10
1.97663e-10
1.46973e-10
1.43279e-10
8.97311e-11
1.3089e-10
6.2719e-11
2.199e-10
1.63691e-10
5.14028e-10
5.1126e-07
3.80632e-07
2.33073e-07
1.3723e-07
7.55113e-08
3.49828e-08
1.21964e-08
5.21975e-09
7.88916e-09
1.19293e-08
1.93639e-09
5.90144e-12
0
0
0
1.2636e-06
8.47469e-06
0.000932859
0.0152178
0.0909986
0.287165
0.58458
0.859245
0.959693
0.815708
0.496229
0.179287
0.0183508
0.0214049
0.100153
0.181203
0.241724
0.281702
0.293401
0.261807
0.187581
0.100278
0.0365822
0.00787703
0.000696858
0.000100894
0.000173813
0.000109561
4.23848e-05
1.27441e-05
3.34989e-06
8.19709e-07
1.9498e-07
3.8166e-08
8.74893e-09
5.03433e-09
4.05702e-09
3.42645e-09
2.89909e-09
2.45479e-09
2.07931e-09
1.76235e-09
1.49298e-09
1.26537e-09
1.07114e-09
9.05661e-10
7.63361e-10
6.41841e-10
5.37325e-10
4.47158e-10
3.79571e-10
3.34143e-10
2.84913e-10
2.42431e-10
1.93236e-10
1.69024e-10
1.24147e-10
1.26529e-10
7.6451e-11
1.25466e-10
5.51209e-11
2.2511e-10
1.67154e-10
5.21289e-10
2.33913e-07
1.93336e-07
1.34279e-07
8.79253e-08
5.17271e-08
2.68959e-08
1.20552e-08
6.02963e-09
5.33759e-09
4.90704e-09
5.08445e-10
9.43404e-13
0
0
0
4.71902e-10
3.16317e-06
3.56772e-05
0.00198458
0.0246837
0.122247
0.337347
0.614442
0.803159
0.769461
0.515528
0.203473
0.0228917
0.0199038
0.103345
0.176397
0.207652
0.209152
0.19076
0.150461
0.0932382
0.0407979
0.0111132
0.0014791
8.33367e-05
0.000124974
0.000104843
4.70761e-05
1.54443e-05
4.28272e-06
1.08745e-06
2.66809e-07
6.19543e-08
1.18739e-08
4.55712e-09
3.19078e-09
2.60323e-09
2.17802e-09
1.83259e-09
1.54683e-09
1.30961e-09
1.11079e-09
9.447e-10
8.03708e-10
6.84139e-10
5.81082e-10
4.93087e-10
4.16832e-10
3.50985e-10
3.0263e-10
2.70846e-10
2.32745e-10
2.00489e-10
1.60182e-10
1.43119e-10
1.03979e-10
1.11342e-10
6.47557e-11
1.1989e-10
4.85792e-11
2.30776e-10
1.68509e-10
5.28772e-10
1.21417e-07
1.02564e-07
7.82177e-08
6.78127e-08
6.03712e-08
4.86121e-08
3.28405e-08
1.85262e-08
1.13145e-08
9.90291e-09
1.02997e-08
1.21476e-09
2.76462e-12
0
0
0
0
2.74072e-07
1.4514e-05
4.94812e-05
0.00338956
0.0352605
0.150585
0.368681
0.596978
0.674697
0.522081
0.241876
0.038352
0.01101
0.0889926
0.158464
0.173412
0.151975
0.118026
0.0795772
0.0420273
0.0152032
0.00316117
0.000266188
6.37325e-05
8.65396e-05
4.9868e-05
1.86046e-05
5.53823e-06
1.46892e-06
3.70358e-07
9.22153e-08
1.91086e-08
4.98487e-09
2.74019e-09
2.06172e-09
1.67166e-09
1.38079e-09
1.15081e-09
9.6592e-10
8.16029e-10
6.93714e-10
5.92308e-10
5.07144e-10
4.34651e-10
3.72751e-10
3.19183e-10
2.72749e-10
2.40082e-10
2.19306e-10
1.90687e-10
1.666e-10
1.34088e-10
1.22583e-10
8.85724e-11
9.92286e-11
5.57578e-11
1.15019e-10
4.36577e-11
2.36706e-10
1.68123e-10
5.37787e-10
1.2168e-07
9.15071e-08
6.10201e-08
6.23834e-08
8.28204e-08
9.64808e-08
8.72799e-08
6.08725e-08
3.50287e-08
2.18504e-08
1.89241e-08
1.76135e-08
3.99263e-09
1.11364e-11
1.9239e-21
0
0
0
0
7.07511e-06
1.31174e-05
8.83482e-05
0.00558203
0.0478109
0.177402
0.382331
0.535818
0.498151
0.282114
0.0668243
0.00271058
0.0632009
0.130937
0.140979
0.109727
0.0709751
0.0392943
0.0173392
0.00530311
0.000908014
6.97314e-05
4.6187e-05
4.3195e-05
2.0645e-05
6.91335e-06
1.93529e-06
5.03465e-07
1.2963e-07
3.09354e-08
6.56764e-09
2.66894e-09
1.78967e-09
1.39019e-09
1.11945e-09
9.14777e-10
7.55858e-10
6.31297e-10
5.32745e-10
4.53717e-10
3.88885e-10
3.35045e-10
2.89764e-10
2.50892e-10
2.17209e-10
1.94916e-10
1.81477e-10
1.59767e-10
1.41601e-10
1.15145e-10
1.07566e-10
7.76394e-11
9.02119e-11
4.93082e-11
1.11077e-10
4.01474e-11
2.42228e-10
1.65391e-10
5.48745e-10
1.33539e-07
1.28987e-07
1.0567e-07
9.88244e-08
9.06308e-08
7.95218e-08
6.6038e-08
5.24074e-08
4.02451e-08
3.12937e-08
2.5937e-08
2.65795e-08
2.34134e-08
1.03543e-08
1.28321e-11
3.40398e-14
0
0
0
0
3.32787e-08
2.71577e-05
3.70296e-05
0.000243803
0.009497
0.0649529
0.203855
0.373492
0.431915
0.305697
0.104956
0.00342636
0.0341148
0.0965789
0.109245
0.0784948
0.0424929
0.0188055
0.00678985
0.00181636
0.000297967
3.25816e-05
2.22239e-05
1.70696e-05
7.56897e-06
2.4133e-06
6.56523e-07
1.72849e-07
4.59579e-08
1.01903e-08
2.98739e-09
1.70344e-09
1.28296e-09
1.03002e-09
8.39044e-10
6.89013e-10
5.70734e-10
4.77226e-10
4.02849e-10
3.42811e-10
2.93956e-10
2.53912e-10
2.2016e-10
1.9103e-10
1.72402e-10
1.61922e-10
1.44129e-10
1.29201e-10
1.06457e-10
1.00871e-10
7.35009e-11
8.66224e-11
4.71675e-11
1.10211e-10
3.91014e-11
2.48819e-10
1.57981e-10
5.7121e-10
1.48869e-07
1.37461e-07
1.23066e-07
1.22532e-07
1.1971e-07
1.09761e-07
9.23977e-08
7.30087e-08
5.58135e-08
4.24097e-08
3.22984e-08
2.58272e-08
2.39951e-08
2.22122e-08
1.54544e-08
1.00829e-09
2.50381e-12
4.85088e-22
0
0
0
0
9.15222e-07
4.89485e-05
3.66799e-05
0.000825881
0.0170789
0.0892898
0.227345
0.337279
0.300198
0.140015
0.0154991
0.0129563
0.0645909
0.0806015
0.0548091
0.024871
0.00840642
0.00227942
0.000503048
8.32489e-05
1.31245e-05
7.73486e-06
5.32003e-06
2.33112e-06
7.37556e-07
1.99745e-07
5.41232e-08
1.41537e-08
3.5402e-09
1.5508e-09
1.07577e-09
8.70125e-10
7.27902e-10
6.12874e-10
5.17358e-10
4.38189e-10
3.7251e-10
3.17809e-10
2.72367e-10
2.34919e-10
2.03269e-10
1.75576e-10
1.57048e-10
1.46664e-10
1.30799e-10
1.17614e-10
9.728e-11
9.28138e-11
6.72156e-11
8.04878e-11
4.22209e-11
1.05931e-10
3.54492e-11
2.48339e-10
1.43982e-10
6.07318e-10
3.79216e-07
3.29605e-07
2.13045e-07
1.40148e-07
9.88851e-08
7.74229e-08
6.52656e-08
5.62591e-08
4.76671e-08
3.88768e-08
3.02458e-08
2.25652e-08
1.75347e-08
1.53823e-08
1.56653e-08
1.22544e-08
4.17642e-09
1.31233e-12
4.29462e-15
0
0
0
0
0
1.4734e-05
4.29477e-05
9.82301e-06
0.00260127
0.0311466
0.123385
0.252422
0.299272
0.196753
0.0504106
0.00199812
0.0396293
0.0637895
0.045022
0.0187162
0.00518042
0.00103587
0.000172589
3.38747e-05
1.1217e-05
5.30457e-06
2.47096e-06
9.3852e-07
2.88431e-07
7.97483e-08
2.15007e-08
5.21404e-09
1.92382e-09
1.22609e-09
9.83291e-10
8.41469e-10
7.29752e-10
6.32156e-10
5.45172e-10
4.68006e-10
4.00086e-10
3.41307e-10
2.91627e-10
2.49392e-10
2.12405e-10
1.85336e-10
1.69283e-10
1.51325e-10
1.35974e-10
1.14202e-10
1.08023e-10
8.11742e-11
9.36607e-11
5.29545e-11
1.18344e-10
4.06645e-11
2.65582e-10
1.23301e-10
7.5562e-10
1.58337e-07
1.16124e-07
6.79941e-08
4.25319e-08
3.03092e-08
2.62898e-08
2.49157e-08
2.26952e-08
1.87871e-08
1.42886e-08
1.0602e-08
8.42342e-09
7.69023e-09
7.85245e-09
8.45456e-09
9.14901e-09
8.70871e-09
5.50736e-09
7.35331e-10
1.46784e-12
0
0
0
0
0
1.00767e-07
1.964e-05
5.14812e-05
2.54963e-05
0.00194642
0.0194946
0.0691576
0.129045
0.138863
0.0797092
0.0150656
0.00122602
0.0165598
0.020463
0.0116003
0.00393097
0.00089334
0.000147008
2.02035e-05
3.69486e-06
1.34224e-06
6.03526e-07
2.39544e-07
8.04423e-08
2.45915e-08
6.72394e-09
1.75868e-09
8.28425e-10
6.15567e-10
5.31993e-10
4.76172e-10
4.26836e-10
3.789e-10
3.31953e-10
2.86606e-10
2.44688e-10
2.08015e-10
1.76424e-10
1.48851e-10
1.25842e-10
1.12033e-10
9.94351e-11
8.91199e-11
7.32238e-11
7.05821e-11
4.99026e-11
6.2775e-11
2.91089e-11
8.78082e-11
2.20055e-11
2.14398e-10
1.25889e-10
7.49771e-10
)
;

boundaryField
{
    inlet
    {
        type            calculated;
        value           nonuniform List<scalar> 
27
(
1.10051e-08
1.13436e-08
1.17269e-08
1.21333e-08
1.25456e-08
1.29642e-08
1.33925e-08
1.38297e-08
1.42756e-08
1.47267e-08
1.51828e-08
1.56416e-08
1.61e-08
1.65542e-08
1.69988e-08
1.743e-08
1.78431e-08
1.79956e-08
1.83439e-08
1.86592e-08
1.89192e-08
1.91139e-08
1.92177e-08
1.9217e-08
1.9044e-08
1.8842e-08
1.81975e-08
)
;
    }
    outlet
    {
        type            calculated;
        value           nonuniform List<scalar> 
78
(
1.6153e-07
1.17898e-07
6.8772e-08
4.28162e-08
3.03301e-08
2.61635e-08
2.47008e-08
2.24276e-08
1.8498e-08
1.4008e-08
1.03551e-08
8.22724e-09
7.5509e-09
7.76453e-09
8.40754e-09
9.137e-09
8.73143e-09
5.54603e-09
7.4401e-10
1.49161e-12
0
0
0
0
0
1.01919e-07
1.98455e-05
5.1969e-05
1.91887e-05
0.00187733
0.0192479
0.0687164
0.128684
0.13896
0.0802141
0.0154388
0.00110396
0.0161387
0.0200968
0.0114096
0.00385859
0.000869824
0.000139014
1.69711e-05
2.28151e-06
7.60652e-07
3.86833e-07
1.64497e-07
5.53117e-08
1.62236e-08
4.21348e-09
1.06832e-09
5.01272e-10
3.78251e-10
3.34849e-10
3.0789e-10
2.8312e-10
2.56951e-10
2.29048e-10
2.00149e-10
1.72034e-10
1.46791e-10
1.24331e-10
1.04262e-10
8.64701e-11
7.5626e-11
6.52319e-11
5.80559e-11
4.51619e-11
4.57434e-11
2.73104e-11
4.30638e-11
1.07389e-11
7.18121e-11
6.91247e-12
1.93893e-10
1.18959e-10
6.61639e-10
)
;
    }
    walls
    {
        type            calculated;
        value           nonuniform List<scalar> 0();
    }
    frontAndBack
    {
        type            empty;
    }
    procBoundary7to3
    {
        type            processor;
        value           nonuniform List<scalar> 
16
(
6.7967e-07
9.07214e-07
1.09294e-06
1.23239e-06
1.23746e-06
1.09189e-06
8.47172e-07
5.81378e-07
2.79684e-07
2.79684e-07
1.49119e-07
1.28527e-07
1.37913e-07
1.76992e-07
4.14655e-07
2.35476e-07
)
;
    }
    procBoundary7to6
    {
        type            processor;
        value           nonuniform List<scalar> 
91
(
3.92224e-10
2.08055e-10
2.08055e-10
2.8829e-10
2.8829e-10
1.58028e-10
1.58028e-10
2.11147e-10
2.3348e-10
2.3348e-10
3.12477e-10
2.7784e-10
2.7784e-10
5.04927e-10
4.31733e-10
3.7613e-10
3.7613e-10
8.08687e-10
6.83801e-10
5.84952e-10
5.84952e-10
1.8434e-09
1.48832e-09
1.21141e-09
9.88394e-10
9.88394e-10
6.08462e-09
4.72352e-09
3.6971e-09
2.91737e-09
2.31898e-09
2.31898e-09
3.71437e-08
2.85217e-08
2.17591e-08
1.67681e-08
1.29636e-08
1.00209e-08
7.74475e-09
7.74475e-09
0.164905
0.00599257
0.00358975
0.00410597
0.00142022
0.00028551
4.0226e-05
3.69472e-06
1.76994e-10
7.84388e-11
1.31784e-08
3.35815e-08
3.35815e-08
3.66811e-07
2.09445e-07
1.99272e-07
2.10556e-07
3.18347e-07
5.6797e-07
2.46361e-07
7.22091e-10
0
0.000114893
0.000690815
0.0082137
0.0393278
0.117814
0.24866
0.405136
0.545621
0.638629
0.674054
0.659148
0.608666
0.53683
0.453322
0.362046
0.262378
0.155106
0.0561059
0.0135153
0.113349
0.445335
1.02313
1.73162
2.34698
2.60245
2.30307
1.51097
0.637768
0.637768
)
;
    }
}


// ************************************************************************* //
