/*--------------------------------*- C++ -*----------------------------------*\
| =========                 |                                                 |
| \\      /  F ield         | OpenFOAM: The Open Source CFD Toolbox           |
|  \\    /   O peration     | Version:  2506                                  |
|   \\  /    A nd           | Website:  www.openfoam.com                      |
|    \\/     M anipulation  |                                                 |
\*---------------------------------------------------------------------------*/
FoamFile
{
    version     2.0;
    format      ascii;
    arch        "LSB;label=32;scalar=64";
    class       volVectorField;
    location    "50";
    object      U;
}
// * * * * * * * * * * * * * * * * * * * * * * * * * * * * * * * * * * * * * //

dimensions      [0 1 -1 0 0 0 0];

internalField   nonuniform List<vector> 
1340
(
(26.0336 3.04213 7.24929e-17)
(25.8881 3.40581 1.45715e-17)
(26.029 3.03064 -3.93034e-17)
(25.9809 3.18342 -3.39418e-16)
(25.8924 3.39939 2.84572e-19)
(26.0257 3.01832 -2.02389e-19)
(25.9784 3.31372 1.36626e-16)
(25.9798 3.16983 -6.24909e-18)
(25.8958 3.39259 -2.09988e-17)
(26.0234 3.0055 1.88036e-16)
(26.0484 3.28626 4.71896e-16)
(26.0246 3.23322 2.59343e-16)
(25.9801 3.30288 -6.29453e-17)
(25.9784 3.15608 1.229e-16)
(25.899 3.38538 9.49566e-17)
(26.0208 2.99253 -1.88118e-16)
(26.1183 3.27867 -8.52792e-17)
(26.0858 3.25612 2.19995e-17)
(26.049 3.27256 -3.82013e-18)
(26.0241 3.21867 -1.89773e-18)
(25.9813 3.29173 -4.63623e-17)
(25.9765 3.14236 7.79782e-18)
(25.9019 3.37784 1.04867e-18)
(26.0177 2.97951 -2.21913e-19)
(26.2245 3.28058 2.38557e-16)
(26.1895 3.27409 2.89743e-16)
(26.1548 3.26239 3.44253e-16)
(26.1187 3.26209 1.30555e-16)
(26.0856 3.24007 -1.37764e-17)
(26.049 3.25856 -2.06591e-16)
(26.023 3.20413 -4.42564e-17)
(25.9819 3.28039 1.05529e-16)
(25.9742 3.12878 -1.22525e-16)
(25.9044 3.37012 8.39457e-20)
(26.0144 2.96647 -2.31867e-19)
(26.3358 3.28465 6.73751e-17)
(26.2949 3.2746 -3.10982e-16)
(26.2602 3.26764 -3.49152e-17)
(26.2253 3.25938 -1.93186e-16)
(26.1898 3.25433 -1.24247e-18)
(26.1547 3.24373 -2.7839e-18)
(26.1184 3.24505 -1.11197e-16)
(26.0847 3.22374 1.32907e-17)
(26.0484 3.2443 -5.87198e-19)
(26.0214 3.18966 -1.68002e-18)
(25.982 3.26894 -2.16982e-18)
(25.9716 3.11539 3.80044e-18)
(25.9063 3.36231 -9.58958e-17)
(26.011 2.95344 -1.04943e-16)
(26.5551 3.3019 2.27926e-16)
(26.4962 3.28891 -1.61368e-16)
(26.4406 3.27745 -7.88565e-17)
(26.3877 3.26667 2.82406e-17)
(26.3378 3.25781 -4.97052e-21)
(26.296 3.2496 1.22096e-18)
(26.2605 3.24421 1.85606e-19)
(26.225 3.23743 2.16858e-16)
(26.1891 3.23394 9.66542e-17)
(26.1536 3.22457 -1.19558e-16)
(26.1173 3.22758 1.09916e-16)
(26.0831 3.20719 -2.75546e-19)
(26.0471 3.22983 1.89166e-16)
(26.0191 3.17531 3.73828e-17)
(25.9814 3.25744 -5.92186e-17)
(25.9687 3.10226 1.21195e-16)
(25.9076 3.35447 8.27984e-17)
(26.0073 2.94047 1.38445e-16)
(26.9266 3.32864 2.55099e-16)
(26.8423 3.31221 3.69839e-17)
(26.7641 3.29747 3.78059e-17)
(26.6912 3.28429 5.7834e-17)
(26.6231 3.2725 1.09492e-17)
(26.5592 3.26202 -1.49628e-16)
(26.4991 3.25253 -1.68546e-16)
(26.4425 3.24417 7.45021e-20)
(26.3887 3.23618 -6.65065e-17)
(26.3381 3.22983 -4.04968e-17)
(26.2955 3.22362 1.75455e-18)
(26.2595 3.21992 2.45532e-19)
(26.2234 3.21475 -2.23268e-18)
(26.1873 3.21295 -9.96713e-17)
(26.1515 3.20497 1.11903e-16)
(26.1151 3.20973 -1.05179e-16)
(26.0806 3.19044 -3.06261e-19)
(26.0451 3.21519 -1.90033e-16)
(26.0163 3.1611 -4.11844e-17)
(25.9804 3.24592 5.36818e-17)
(25.9654 3.08944 1.21934e-18)
(25.9085 3.34663 -1.44962e-16)
(26.0035 2.92759 -8.94102e-19)
(27.7532 3.34741 7.04684e-17)
(27.6077 3.33242 1.56742e-16)
(27.4726 3.31813 -7.07497e-17)
(27.3472 3.30468 1.30104e-16)
(27.2309 3.29209 4.28271e-17)
(27.1232 3.28036 -1.523e-16)
(27.0235 3.2695 -1.56883e-17)
(26.9314 3.25947 1.03757e-18)
(26.8461 3.25022 4.38998e-17)
(26.7669 3.24176 3.17093e-17)
(26.6931 3.23402 5.63584e-19)
(26.6242 3.22698 8.2496e-21)
(26.5596 3.22064 -4.67502e-20)
(26.4989 3.21479 2.76664e-17)
(26.4416 3.20966 2.81386e-19)
(26.3874 3.20456 6.55293e-17)
(26.3363 3.20085 4.03258e-17)
(26.2932 3.19673 2.46655e-18)
(26.2568 3.19481 3.21099e-19)
(26.2204 3.19139 -2.08325e-16)
(26.184 3.19139 -5.3417e-17)
(26.1482 3.18494 -1.91918e-16)
(26.112 3.19153 1.03613e-16)
(26.0773 3.17353 -3.34677e-19)
(26.0423 3.20039 1.24998e-16)
(26.0128 3.14707 -1.07749e-16)
(25.9786 3.23442 -1.363e-16)
(25.9616 3.07698 1.33132e-18)
(25.9089 3.33883 2.70839e-18)
(25.9994 2.91484 -3.37024e-17)
(29.3963 3.04414 -8.24631e-17)
(29.976 3.08902 -5.07515e-18)
(30.0157 3.12868 -6.46941e-18)
(29.7611 3.15444 -2.35811e-16)
(29.4212 3.1688 -1.03283e-16)
(29.1042 3.17734 -1.61453e-16)
(28.8369 3.18376 -4.81929e-17)
(28.6092 3.18925 -8.53523e-17)
(28.4065 3.19378 4.82191e-17)
(28.22 3.1972 2.79104e-16)
(28.0462 3.19948 -5.52259e-17)
(27.8839 3.20072 6.99704e-17)
(27.7323 3.20108 -2.02288e-18)
(27.5908 3.20071 -1.205e-18)
(27.459 3.19976 3.89515e-19)
(27.3363 3.19839 -4.7699e-19)
(27.2222 3.19668 -9.38098e-20)
(27.1162 3.19469 1.66562e-19)
(27.0178 3.19253 8.18331e-17)
(26.9265 3.19022 -1.61665e-16)
(26.8417 3.18782 1.33043e-17)
(26.7628 3.18536 -3.15072e-17)
(26.6893 3.18294 -5.08777e-19)
(26.6204 3.18054 1.64904e-18)
(26.5558 3.1783 1.47443e-16)
(26.495 3.17608 1.39618e-16)
(26.4376 3.17421 -9.46769e-17)
(26.3833 3.17208 7.09375e-17)
(26.3321 3.17105 -3.88564e-17)
(26.2888 3.16909 3.38144e-18)
(26.2522 3.16901 4.15764e-19)
(26.2157 3.16743 7.70838e-17)
(26.1793 3.16932 1.38276e-16)
(26.1435 3.16455 1.81601e-16)
(26.1076 3.17301 -4.48369e-17)
(26.0729 3.15651 -2.32697e-17)
(26.0386 3.18545 -1.02336e-16)
(26.0085 3.13322 -6.42808e-17)
(25.9762 3.22295 2.5052e-18)
(25.9574 3.0649 1.43665e-18)
(25.9086 3.33108 3.32867e-18)
(25.9949 2.90224 3.16399e-17)
(23.7229 4.5812 1.38858e-18)
(23.7957 4.55449 -4.19307e-19)
(23.839 4.53291 -1.2066e-18)
(23.859 4.50208 1.05882e-18)
(23.8609 4.46914 1.25777e-18)
(23.8511 4.44035 -3.46138e-18)
(23.8305 4.41784 -2.19036e-18)
(23.7924 4.40318 2.27229e-18)
(23.7328 4.39807 -6.19952e-19)
(23.6642 4.39807 -4.49861e-18)
(23.5941 4.39002 -7.45533e-19)
(23.4884 4.36405 -2.19503e-18)
(23.2863 4.32292 2.68631e-18)
(22.9438 4.27546 9.358e-18)
(22.4494 4.22814 -3.00996e-18)
(21.8183 4.18335 -2.006e-17)
(21.0805 4.14127 -2.89755e-18)
(20.2711 4.10165 4.09061e-18)
(19.4239 4.06433 -1.0431e-18)
(18.5686 4.02933 -1.03274e-17)
(17.7294 3.99641 6.08634e-18)
(16.9262 3.96497 -2.33303e-17)
(16.1761 3.93358 3.83836e-17)
(15.4966 3.89989 -4.52797e-17)
(14.9121 3.86035 -3.14053e-17)
(14.4634 3.81029 -6.15775e-18)
(14.2154 3.74454 -9.40097e-18)
(14.2525 3.65879 -8.27619e-17)
(14.655 3.5511 6.65938e-18)
(15.4704 3.42296 -2.76001e-17)
(16.6974 3.27973 6.16211e-17)
(18.2915 3.13027 9.0234e-17)
(20.1789 2.98586 -8.57378e-18)
(22.2587 2.85932 4.02219e-17)
(24.3942 2.76384 -8.61932e-17)
(26.4021 2.71088 2.7049e-17)
(28.0653 2.70472 7.65551e-17)
(29.1984 2.73666 6.81574e-17)
(29.7385 2.78814 -6.23005e-17)
(29.7977 2.83954 -1.54844e-18)
(29.5828 2.88165 1.06406e-17)
(29.2773 2.91429 4.67543e-18)
(28.9829 2.94094 2.76711e-18)
(28.73 2.96452 1.82051e-18)
(28.5136 2.98624 5.571e-18)
(28.3215 3.0063 7.42113e-17)
(28.1454 3.02462 -7.39148e-18)
(27.9815 3.04115 -2.08021e-16)
(27.8281 3.05591 -1.35562e-18)
(27.6847 3.06899 -5.3248e-17)
(27.5505 3.0805 1.05741e-17)
(27.4249 3.09055 -8.21585e-17)
(27.3077 3.09925 -1.11567e-18)
(27.1982 3.10673 -2.96763e-19)
(27.096 3.11308 8.67141e-19)
(27.0007 3.11843 -8.14775e-17)
(26.9119 3.12288 1.7549e-16)
(26.8291 3.12655 -4.36488e-17)
(26.7517 3.12953 -2.04272e-19)
(26.6793 3.13196 -1.81832e-18)
(26.6113 3.13391 8.73692e-17)
(26.5473 3.13556 -3.30995e-18)
(26.487 3.13689 -2.59916e-17)
(26.43 3.13823 3.15249e-18)
(26.376 3.13904 -3.11542e-18)
(26.3252 3.1407 3.86621e-17)
(26.2819 3.14092 8.36769e-17)
(26.2454 3.14271 4.98868e-17)
(26.209 3.14302 -2.29847e-17)
(26.1728 3.14685 -1.09943e-16)
(26.1372 3.14386 -9.27169e-17)
(26.1019 3.15426 1.01303e-18)
(26.0675 3.1394 9.99241e-17)
(26.034 3.17041 -1.90313e-18)
(26.0036 3.11955 6.85487e-17)
(25.9731 3.21152 -3.28163e-17)
(25.9527 3.05324 1.52683e-18)
(25.9078 3.32341 6.09802e-17)
(25.9901 2.88984 -3.22274e-17)
(24.1081 4.26983 -1.31305e-19)
(24.1911 4.24491 -2.06713e-18)
(24.2477 4.22706 -1.08451e-18)
(24.2798 4.20381 5.8621e-19)
(24.2895 4.18118 6.49421e-19)
(24.2825 4.16475 1.69934e-19)
(24.2627 4.1551 1.61554e-19)
(24.2264 4.1496 -2.52075e-18)
(24.1664 4.14552 1.87595e-18)
(24.0941 4.1393 -4.36396e-18)
(24.0293 4.12259 1.41492e-18)
(23.9493 4.08901 1.7645e-19)
(23.7833 4.04358 -4.96841e-18)
(23.4675 3.99505 -8.24194e-19)
(22.9781 3.94735 4.20649e-18)
(22.3274 3.90008 1.73472e-18)
(21.5489 3.85188 5.0787e-18)
(20.6849 3.80237 -7.1207e-18)
(19.7778 3.75211 -4.66824e-18)
(18.8663 3.70201 -2.88853e-18)
(17.9837 3.65272 -1.30992e-17)
(17.1583 3.60444 2.84253e-17)
(16.4142 3.5566 -3.09375e-17)
(15.7723 3.50767 3.8555e-17)
(15.2559 3.45519 1.1e-18)
(14.8995 3.39605 5.34942e-19)
(14.7569 3.32695 1.86981e-17)
(14.8966 3.2451 3.43675e-17)
(15.3814 3.14909 -2.88924e-18)
(16.2437 3.03964 8.93953e-18)
(17.4714 2.92017 -7.04139e-18)
(19.0143 2.79707 -4.7728e-17)
(20.7979 2.67934 5.38433e-19)
(22.7255 2.57793 -6.09023e-17)
(24.6725 2.50402 6.01856e-17)
(26.4793 2.46662 -1.62844e-17)
(27.9647 2.469 -4.79934e-18)
(28.9795 2.50525 -7.93112e-17)
(29.4761 2.56029 2.57999e-17)
(29.5471 2.61836 -2.8165e-17)
(29.367 2.67044 -4.08102e-18)
(29.0954 2.71488 4.37754e-18)
(28.8258 2.75364 -7.26404e-17)
(28.5903 2.7889 1.70376e-18)
(28.388 2.82182 3.84862e-20)
(28.2088 2.85267 -5.84609e-17)
(28.0453 2.88146 -6.98213e-18)
(27.8932 2.90812 5.86909e-18)
(27.751 2.93262 -1.09509e-16)
(27.6176 2.95499 4.68458e-17)
(27.4925 2.97529 -2.51435e-18)
(27.3751 2.99361 8.36035e-17)
(27.265 3.01002 -1.35268e-18)
(27.1616 3.02463 -4.01369e-19)
(27.0646 3.03756 -7.77273e-17)
(26.9737 3.04895 -1.01899e-17)
(26.8885 3.05894 -1.76422e-17)
(26.8085 3.06766 2.92918e-17)
(26.7335 3.07528 7.64903e-17)
(26.663 3.08196 -2.24372e-16)
(26.5965 3.08781 -8.89139e-17)
(26.5337 3.09306 -1.4508e-16)
(26.4744 3.09772 -1.54038e-16)
(26.4183 3.10214 1.17666e-16)
(26.365 3.10582 -1.51565e-16)
(26.315 3.11012 3.58666e-17)
(26.2722 3.11253 2.46188e-18)
(26.236 3.11618 -2.71863e-17)
(26.2001 3.1184 2.17949e-17)
(26.1645 3.12417 -8.47062e-17)
(26.1294 3.12303 -6.10457e-17)
(26.0948 3.13536 1.08853e-18)
(26.0609 3.12228 -6.75971e-17)
(26.0285 3.15529 -1.92436e-18)
(25.9978 3.10607 1.86959e-16)
(25.9691 3.20013 3.79463e-17)
(25.9473 3.04202 1.18641e-16)
(25.9063 3.31582 -5.58722e-17)
(25.9848 2.87772 2.97868e-17)
(24.4709 3.99347 -1.23996e-19)
(24.5595 3.97318 2.3168e-19)
(24.6228 3.9603 4.69306e-19)
(24.6638 3.94401 -1.19132e-18)
(24.684 3.93039 -4.40087e-19)
(24.6864 3.92373 1.12677e-18)
(24.6743 3.92274 -5.14739e-19)
(24.6461 3.92179 1.38476e-20)
(24.5934 3.91451 -1.01348e-19)
(24.5174 3.89785 7.5186e-19)
(24.4432 3.87023 -2.17373e-19)
(24.3786 3.83098 -1.83509e-18)
(24.266 3.78628 2.03033e-19)
(24.0201 3.7429 -8.38595e-19)
(23.5899 3.70071 -3.07208e-18)
(22.9716 3.65552 1.42111e-18)
(22.1943 3.60432 -2.5506e-18)
(21.3034 3.54712 -3.86951e-18)
(20.3491 3.48586 4.14183e-19)
(19.3801 3.42295 4.20974e-18)
(18.4406 3.36022 5.58826e-18)
(17.5704 3.2986 -2.35831e-17)
(16.8047 3.23792 2.61579e-17)
(16.173 3.1768 -2.4592e-18)
(15.6998 3.11301 9.22841e-18)
(15.4121 3.04434 5.28568e-19)
(15.3502 2.96947 3.36889e-18)
(15.5665 2.88816 6.80377e-19)
(16.1081 2.80107 1.74487e-17)
(16.9949 2.7096 4.51229e-20)
(18.2067 2.61612 -2.49809e-18)
(19.6889 2.52429 1.38307e-18)
(21.3653 2.43937 8.4279e-18)
(23.1432 2.36834 7.64094e-17)
(24.9102 2.31903 -5.13269e-17)
(26.53 2.29821 1.34947e-17)
(27.8531 2.30887 -3.37752e-18)
(28.7589 2.34732 1.93122e-17)
(29.2117 2.40272 3.17169e-17)
(29.2893 2.46264 1.35255e-18)
(29.1386 2.519 8.02427e-18)
(28.8982 2.56941 -4.26867e-17)
(28.6531 2.61477 6.45458e-17)
(28.4357 2.65665 1.52945e-17)
(28.248 2.69601 1.81539e-18)
(28.0823 2.7332 -1.28635e-18)
(27.9315 2.76825 -4.67301e-18)
(27.7917 2.80107 3.9915e-18)
(27.661 2.83163 1.07183e-16)
(27.5382 2.85992 -1.30627e-16)
(27.4228 2.88596 -1.39552e-17)
(27.314 2.90982 7.40767e-19)
(27.2115 2.93154 -1.34731e-18)
(27.1149 2.9512 -4.53883e-19)
(27.0238 2.96894 8.0513e-17)
(26.9378 2.98485 1.04782e-17)
(26.8567 2.9991 -7.81515e-18)
(26.7803 3.01183 -8.25595e-17)
(26.7082 3.02325 -3.22124e-17)
(26.6401 3.03353 3.04684e-16)
(26.5756 3.0428 5.09181e-17)
(26.5146 3.05131 -5.70765e-17)
(26.4569 3.05905 2.59879e-16)
(26.4021 3.06638 -8.37246e-17)
(26.3501 3.07283 4.19888e-17)
(26.3013 3.07971 -4.21684e-17)
(26.2594 3.08429 1.17182e-16)
(26.2239 3.08976 -4.04511e-17)
(26.1888 3.09385 -1.8998e-17)
(26.154 3.10152 -1.50628e-17)
(26.1198 3.10224 6.4859e-17)
(26.0863 3.11645 1.14991e-18)
(26.0531 3.10525 5.93555e-17)
(26.0219 3.14012 -1.89434e-18)
(25.9912 3.09279 -2.38887e-16)
(25.9645 3.18874 2.48574e-18)
(25.9413 3.03126 -1.15142e-16)
(25.9043 3.30831 7.11342e-17)
(25.9788 2.86595 -1.38265e-18)
(24.8218 3.74325 -1.02262e-19)
(24.9123 3.72822 1.96127e-19)
(24.9771 3.72288 -1.52453e-18)
(25.0209 3.71628 1.11116e-18)
(25.0461 3.7119 -1.78213e-19)
(25.0558 3.71153 -8.16461e-19)
(25.0522 3.71242 2.43273e-18)
(25.0357 3.70889 1.75937e-20)
(24.9991 3.69484 -9.73875e-20)
(24.9333 3.6676 7.08446e-19)
(24.8512 3.63039 -2.00928e-19)
(24.7823 3.5889 2.2836e-18)
(24.7122 3.54998 1.2368e-20)
(24.5584 3.51786 -2.93351e-18)
(24.2347 3.48755 -3.95968e-18)
(23.7044 3.44988 1.19054e-18)
(22.9794 3.39956 -1.92317e-18)
(22.1013 3.33721 4.39528e-18)
(21.1246 3.26692 -1.7617e-18)
(20.1073 3.19346 5.59189e-19)
(19.105 3.12053 6.14962e-18)
(18.1704 3.05044 -4.49189e-19)
(17.3529 2.98393 -2.10004e-18)
(16.6962 2.91986 -2.81919e-17)
(16.2311 2.855 -1.4907e-17)
(15.9777 2.78548 -5.3421e-18)
(15.96 2.70918 -4.44485e-18)
(16.2148 2.62706 6.9535e-19)
(16.7781 2.54246 -1.21107e-17)
(17.6614 2.45937 -6.13512e-18)
(18.8388 2.38133 -2.51098e-18)
(20.253 2.31148 3.27924e-17)
(21.8278 2.2528 -7.74726e-18)
(23.4745 2.20872 -6.83744e-17)
(25.0899 2.1831 -9.66386e-18)
(26.5545 2.17954 -1.29173e-17)
(27.7425 2.19983 -2.36241e-18)
(28.5558 2.24158 -1.27366e-17)
(28.9694 2.29723 1.66911e-17)
(29.0506 2.35734 7.69738e-19)
(28.9245 2.41512 4.2442e-18)
(28.7113 2.468 4.71729e-17)
(28.4883 2.51629 -4.26331e-17)
(28.2874 2.56113 -1.36446e-17)
(28.1129 2.60338 3.07588e-18)
(27.9589 2.64341 4.92558e-17)
(27.8193 2.68135 -1.98296e-18)
(27.6902 2.71713 1.55779e-17)
(27.5696 2.75073 3.01424e-17)
(27.4561 2.78212 8.03853e-17)
(27.3493 2.81133 -2.06196e-17)
(27.2483 2.8384 3.39759e-17)
(27.1528 2.86336 -2.73332e-17)
(27.0624 2.88628 -5.30428e-19)
(26.9767 2.90725 1.7068e-16)
(26.8955 2.92636 -7.36635e-17)
(26.8185 2.94375 1.43972e-17)
(26.7456 2.95959 1.40631e-16)
(26.6765 2.97404 -6.25776e-17)
(26.6111 2.98733 -4.7407e-17)
(26.549 2.99957 -2.02413e-16)
(26.4902 3.01097 1.23467e-18)
(26.4343 3.02153 -1.38126e-17)
(26.3814 3.03157 2.42542e-17)
(26.3311 3.04065 1.91207e-17)
(26.284 3.05 3.77534e-17)
(26.2434 3.05669 -1.1006e-16)
(26.209 3.06392 -7.96457e-18)
(26.175 3.06982 -1.83104e-17)
(26.1414 3.07928 8.98633e-17)
(26.1084 3.08184 -1.21687e-17)
(26.0763 3.09781 1.19229e-18)
(26.0442 3.0885 -4.08992e-18)
(26.0145 3.12503 2.42479e-17)
(25.9839 3.07981 1.51478e-16)
(25.9594 3.17734 6.86089e-17)
(25.9346 3.02103 1.63203e-18)
(25.9018 3.30081 3.78049e-17)
(25.9721 2.85467 -5.75025e-17)
(25.1573 3.5332 -5.84059e-20)
(25.2452 3.51766 1.15249e-19)
(25.3079 3.51167 7.53483e-20)
(25.351 3.50603 -1.33331e-18)
(25.3768 3.50344 -1.14349e-19)
(25.389 3.50387 7.32896e-19)
(25.3902 3.50295 -1.94329e-18)
(25.383 3.49501 1.18196e-20)
(25.3643 3.47588 -6.44533e-20)
(25.323 3.44468 4.56998e-19)
(25.2535 3.40579 -1.25768e-19)
(25.1767 3.3678 -1.28397e-18)
(25.1175 3.33852 2.93584e-19)
(25.0427 3.32088 1.42653e-18)
(24.8561 3.30731 3.7281e-18)
(24.4734 3.28369 7.55645e-19)
(23.8665 3.2405 1.60407e-18)
(23.0572 3.17744 -3.61597e-18)
(22.0962 3.10014 2.29583e-18)
(21.0471 3.01573 3.85972e-19)
(19.9769 2.93009 2.48899e-18)
(18.9528 2.84747 5.34037e-18)
(18.0418 2.77057 -1.11136e-17)
(17.3101 2.70049 2.01462e-17)
(16.8109 2.63585 1.99232e-17)
(16.5677 2.57273 5.35936e-18)
(16.5803 2.50626 2.37391e-18)
(16.8542 2.43425 6.70481e-19)
(17.4107 2.35918 1.96241e-17)
(18.2617 2.28683 7.96084e-18)
(19.3847 2.22307 -1.65629e-17)
(20.7216 2.1717 -5.60931e-17)
(22.1966 2.13461 4.75138e-19)
(23.7245 2.11276 4.67351e-17)
(25.2102 2.10699 7.3991e-17)
(26.5455 2.11807 1.10036e-17)
(27.6211 2.14603 -1.70359e-17)
(28.3561 2.18877 3.03027e-17)
(28.7347 2.24118 -3.75768e-17)
(28.8175 2.29683 1.32509e-17)
(28.712 2.35082 4.28641e-18)
(28.5231 2.40115 7.05013e-17)
(28.3206 2.44795 5.74741e-17)
(28.1354 2.49198 -6.46146e-17)
(27.9733 2.53388 6.18663e-17)
(27.8302 2.57391 -6.34616e-17)
(27.7008 2.61213 -1.86834e-16)
(27.5814 2.64851 1.30189e-17)
(27.4699 2.683 -3.1546e-17)
(27.3652 2.71557 -1.1333e-18)
(27.2663 2.74622 3.65188e-17)
(27.1728 2.77498 -3.21276e-17)
(27.0841 2.80186 -5.0013e-17)
(26.9998 2.8269 -8.48765e-19)
(26.9197 2.85017 1.08329e-17)
(26.8436 2.87169 4.31392e-18)
(26.7711 2.8916 -7.10588e-18)
(26.7023 2.91001 -1.23906e-16)
(26.6369 2.9271 -9.85676e-18)
(26.5747 2.94306 2.10765e-17)
(26.5156 2.958 1.99094e-16)
(26.4595 2.97208 1.52195e-18)
(26.4063 2.98527 -5.53938e-18)
(26.3558 2.99788 1.23164e-16)
(26.3078 3.00946 -5.36267e-17)
(26.2629 3.02118 -2.61242e-18)
(26.224 3.02992 3.91871e-18)
(26.1911 3.03884 1.25613e-17)
(26.1585 3.04645 2.16497e-17)
(26.1265 3.0576 -3.63532e-18)
(26.095 3.06194 -3.11338e-18)
(26.0647 3.07949 -2.86837e-17)
(26.0338 3.0721 -1.62727e-16)
(26.0062 3.10997 -5.23942e-17)
(25.9756 3.06704 -2.70864e-18)
(25.9538 3.16575 -3.56144e-17)
(25.927 3.01119 1.66488e-18)
(25.8994 3.29334 -9.80033e-17)
(25.9642 2.84365 7.05049e-19)
(25.5153 3.28961 -3.00816e-19)
(25.5974 3.28189 2.85068e-19)
(25.657 3.28565 3.00668e-19)
(25.7005 3.2893 1.40851e-19)
(25.7293 3.29274 -1.1035e-18)
(25.7456 3.2953 -8.61777e-19)
(25.7516 3.29387 7.22783e-19)
(25.7502 3.285 4.59204e-19)
(25.7433 3.26707 -2.0067e-18)
(25.7274 3.24128 4.52534e-19)
(25.6929 3.21166 -1.2065e-19)
(25.6376 3.18446 1.24468e-18)
(25.5777 3.1662 -3.13798e-19)
(25.5271 3.16028 -1.31505e-18)
(25.4564 3.16189 9.17702e-19)
(25.2833 3.15724 5.57831e-18)
(24.9236 3.13205 1.79029e-18)
(24.3379 3.08078 -8.46418e-19)
(23.537 3.00696 1.62261e-18)
(22.5668 2.91834 9.88607e-19)
(21.4926 2.82255 -1.33254e-18)
(20.3901 2.72561 2.92439e-18)
(19.3407 2.63222 6.12412e-18)
(18.4314 2.54653 3.85808e-18)
(17.7489 2.47151 -5.92445e-18)
(17.3605 2.40774 7.37232e-18)
(17.2875 2.35226 -6.02308e-18)
(17.5082 2.3001 8.12962e-18)
(17.9979 2.24822 -1.63445e-17)
(18.7487 2.19839 1.68388e-18)
(19.7495 2.15604 -2.06508e-17)
(20.961 2.12607 2.98586e-17)
(22.315 2.11072 -8.22497e-18)
(23.7275 2.10939 -2.50386e-17)
(25.1066 2.12049 -4.8919e-17)
(26.3531 2.14224 1.84381e-17)
(27.3678 2.17302 8.4404e-18)
(28.0772 2.21077 -2.1468e-19)
(28.4635 2.2527 8.07491e-18)
(28.5752 2.29548 3.49339e-17)
(28.5036 2.33678 9.27741e-17)
(28.3428 2.37582 -5.39465e-17)
(28.1593 2.41304 1.56496e-17)
(27.9864 2.44916 2.56644e-17)
(27.8332 2.48462 -1.98487e-17)
(27.698 2.5195 -2.66898e-17)
(27.5762 2.55374 6.06818e-17)
(27.4643 2.5872 1.94341e-17)
(27.3602 2.61975 -2.63551e-17)
(27.2626 2.65128 -5.68087e-17)
(27.1706 2.68168 -1.50994e-16)
(27.0836 2.71086 6.90054e-18)
(27.0012 2.73878 6.36356e-17)
(26.9228 2.76533 -7.63803e-17)
(26.8483 2.79051 -8.24901e-17)
(26.7773 2.81425 4.96656e-17)
(26.7098 2.83665 -1.2549e-17)
(26.6456 2.85773 2.17191e-17)
(26.5845 2.87767 -2.62881e-17)
(26.5265 2.89657 -1.89027e-16)
(26.4714 2.91453 2.81284e-17)
(26.4191 2.93163 9.87617e-17)
(26.3695 2.94784 -3.25332e-17)
(26.3225 2.96337 -6.52943e-18)
(26.2777 2.9778 3.7547e-17)
(26.236 2.9922 -3.48297e-17)
(26.1996 3.00323 -6.95554e-18)
(26.1688 3.01395 7.38336e-17)
(26.1382 3.02342 4.09178e-18)
(26.1086 3.03621 -1.54681e-17)
(26.0791 3.04239 1.60347e-17)
(26.0512 3.06125 6.2138e-17)
(26.022 3.05595 4.10833e-17)
(25.9967 3.09457 4.54507e-17)
(25.9666 3.05455 -8.23698e-17)
(25.9476 3.15364 -3.95988e-17)
(25.919 3.00221 2.19729e-18)
(25.8961 3.28509 6.1359e-17)
(25.9564 2.83403 -1.37738e-17)
(25.8756 3.10396 -2.34934e-19)
(25.9477 3.10086 -5.46148e-20)
(26.002 3.10629 -2.48811e-19)
(26.0447 3.11135 3.69769e-19)
(26.0763 3.11546 1.43e-18)
(26.0975 3.1178 1.10401e-18)
(26.1091 3.11627 2.20566e-19)
(26.1131 3.10875 -3.0377e-19)
(26.1124 3.09478 2.60396e-18)
(26.1096 3.07617 -6.18392e-19)
(26.1018 3.05664 -1.21174e-19)
(26.0812 3.04059 5.15047e-19)
(26.0448 3.03154 1.76108e-18)
(26.0036 3.03119 4.37337e-19)
(25.9716 3.03764 -3.65676e-19)
(25.9355 3.04329 -2.32659e-18)
(25.8339 3.03548 -1.13981e-19)
(25.5791 3.00411 3.4752e-18)
(25.1055 2.94729 -2.67338e-18)
(24.3962 2.86999 -7.62533e-19)
(23.4802 2.77899 -1.18951e-18)
(22.4179 2.68016 -4.33115e-18)
(21.2902 2.57822 -1.07962e-17)
(20.1928 2.47781 -9.38094e-18)
(19.2347 2.38433 3.72443e-19)
(18.5309 2.30319 3.59304e-18)
(18.1761 2.23808 -2.30444e-18)
(18.2018 2.18893 -2.71939e-18)
(18.5659 2.15178 -1.30125e-17)
(19.2002 2.12236 -2.10012e-17)
(20.0556 2.10017 3.52439e-17)
(21.1 2.08844 -4.82231e-18)
(22.2938 2.09073 -5.01561e-18)
(23.5728 2.10759 1.6383e-17)
(24.8519 2.1363 2.91973e-17)
(26.0327 2.17247 -2.90901e-17)
(27.0173 2.21193 -4.27767e-18)
(27.73 2.25161 -1.88729e-20)
(28.1446 2.2897 1.58837e-18)
(28.2962 2.32498 -3.67869e-17)
(28.2625 2.35732 -1.78567e-18)
(28.1295 2.38705 3.1746e-17)
(27.9631 2.4152 1.10834e-17)
(27.8004 2.44278 5.98932e-17)
(27.6546 2.4704 4.2511e-17)
(27.5263 2.49822 6.77289e-18)
(27.4119 2.52618 1.09962e-17)
(27.3078 2.55422 5.80116e-17)
(27.2117 2.58223 2.93813e-17)
(27.1223 2.61009 -2.75901e-17)
(27.0386 2.63765 2.32592e-17)
(26.9599 2.66484 -2.70783e-17)
(26.8856 2.69148 -3.07223e-18)
(26.8152 2.71739 6.5306e-17)
(26.7485 2.74249 1.2095e-18)
(26.685 2.76664 4.05883e-17)
(26.6247 2.78987 -1.55925e-16)
(26.5673 2.81216 -6.93665e-17)
(26.5128 2.83362 3.67083e-17)
(26.461 2.85433 3.78026e-17)
(26.4118 2.87432 -6.53563e-17)
(26.3651 2.89362 3.80308e-18)
(26.3207 2.91214 -9.96616e-17)
(26.2786 2.93005 -1.25057e-17)
(26.2386 2.94691 4.9383e-17)
(26.2013 2.96368 2.48009e-17)
(26.1684 2.97685 5.4338e-17)
(26.1405 2.98929 -3.8036e-17)
(26.1129 3.00057 5.04998e-17)
(26.0861 3.01495 -1.3519e-17)
(26.0594 3.02298 -7.94795e-17)
(26.0343 3.04306 -4.05976e-17)
(26.0077 3.03993 7.52887e-17)
(25.985 3.07922 -5.7302e-17)
(25.9565 3.0423 7.63884e-17)
(25.9395 3.14159 1.25469e-16)
(25.9113 2.99357 7.63627e-17)
(25.8911 3.27709 -5.34139e-17)
(25.9501 2.82509 1.16038e-16)
(26.1643 2.93274 4.51545e-19)
(26.2236 2.94258 1.17882e-19)
(26.2696 2.95685 -3.06515e-19)
(26.3084 2.96749 -5.68851e-19)
(26.3404 2.97449 -1.08991e-18)
(26.3654 2.97863 -7.20157e-19)
(26.3832 2.98017 -8.73988e-19)
(26.3939 2.97914 -3.62487e-19)
(26.3992 2.97557 -1.22408e-18)
(26.4018 2.97021 2.26221e-18)
(26.4041 2.96465 -8.7474e-20)
(26.404 2.96109 5.98412e-19)
(26.396 2.96119 -2.04421e-18)
(26.3773 2.96544 -8.47647e-19)
(26.3553 2.97259 9.28892e-19)
(26.3428 2.97949 -1.56634e-18)
(26.338 2.98064 -4.41623e-18)
(26.3027 2.96838 1.19545e-18)
(26.1596 2.93655 8.00308e-19)
(25.8244 2.8843 3.48632e-18)
(25.2471 2.81466 2.10233e-19)
(24.4285 2.7311 1.97709e-18)
(23.4143 2.63625 1.82855e-18)
(22.2838 2.53278 2.48501e-18)
(21.1431 2.42536 6.22996e-18)
(20.1212 2.32094 -1.19094e-17)
(19.3597 2.22823 5.29513e-19)
(18.9829 2.15512 4.09628e-19)
(19.0439 2.1056 2.3782e-17)
(19.4938 2.07747 1.70628e-17)
(20.2258 2.06501 -3.88423e-18)
(21.1435 2.06407 -4.52274e-18)
(22.1893 2.07458 2.18218e-17)
(23.3243 2.09826 8.28921e-18)
(24.4959 2.13498 -3.28579e-18)
(25.622 2.18098 -1.77581e-18)
(26.6019 2.23038 -1.2495e-17)
(27.3462 2.27755 -3.88244e-18)
(27.8109 2.31919 -2.00915e-18)
(28.0148 2.35428 8.80469e-18)
(28.0243 2.3839 -1.51484e-18)
(27.9208 2.40942 -2.05139e-17)
(27.7713 2.43258 7.28246e-18)
(27.6173 2.45467 -3.45386e-18)
(27.4767 2.47661 -3.91439e-17)
(27.3533 2.49877 3.00865e-17)
(27.2445 2.52132 5.29319e-18)
(27.147 2.54429 1.08701e-18)
(27.0581 2.56765 -1.32255e-17)
(26.9763 2.59139 8.70207e-17)
(26.9004 2.61542 6.76286e-17)
(26.8297 2.6397 5.26386e-17)
(26.7635 2.66401 -3.79448e-17)
(26.7012 2.68816 3.02803e-17)
(26.6425 2.71203 -2.23885e-17)
(26.5869 2.73541 2.09965e-17)
(26.5342 2.75828 9.48675e-17)
(26.4842 2.78056 1.37351e-16)
(26.4367 2.80236 2.55371e-18)
(26.3916 2.82367 -2.34868e-17)
(26.3488 2.84453 3.63893e-18)
(26.308 2.86486 -1.13008e-16)
(26.2694 2.88462 6.44839e-17)
(26.2326 2.90385 -3.61963e-18)
(26.1976 2.92219 -3.6894e-17)
(26.1649 2.94046 -1.65616e-17)
(26.1358 2.95511 2.62852e-17)
(26.1109 2.96877 -1.44796e-17)
(26.0863 2.98133 -1.64557e-17)
(26.0625 2.99677 -3.82652e-19)
(26.0388 3.00618 -8.52973e-18)
(26.0165 3.02703 1.00088e-17)
(25.9926 3.02568 -2.02695e-17)
(25.9724 3.06523 3.41323e-18)
(25.946 3.03099 8.26753e-18)
(25.9308 3.13017 -7.02499e-17)
(25.9037 2.98538 -1.31975e-16)
(25.8853 3.2697 4.34623e-17)
(25.9437 2.81705 -6.64596e-17)
(26.397 2.83498 1.39347e-19)
(26.4384 2.84644 5.43964e-19)
(26.4728 2.85951 -1.65256e-19)
(26.5037 2.87029 1.89823e-19)
(26.5308 2.87709 -1.77903e-19)
(26.5536 2.87991 1.26749e-18)
(26.5714 2.87969 -9.66447e-20)
(26.5843 2.87762 -3.72041e-19)
(26.5934 2.87468 -1.18191e-18)
(26.6011 2.87171 -1.24719e-19)
(26.6092 2.86961 -1.5604e-18)
(26.6171 2.86914 2.14752e-18)
(26.6211 2.87054 7.78263e-19)
(26.6185 2.87326 -7.8964e-19)
(26.6136 2.87574 8.63651e-19)
(26.6172 2.87602 2.02615e-18)
(26.6354 2.87141 -3.43693e-18)
(26.6502 2.85845 3.49062e-18)
(26.6043 2.83359 -2.60545e-18)
(26.4111 2.79485 -5.45254e-19)
(25.9914 2.74162 -6.6358e-19)
(25.309 2.67322 2.72648e-18)
(24.3826 2.58887 -8.94907e-19)
(23.2803 2.48948 -7.22862e-18)
(22.1123 2.37955 1.95676e-18)
(21.0222 2.26763 6.632e-18)
(20.1762 2.16548 -3.04824e-18)
(19.7298 2.08515 -1.61987e-18)
(19.7689 2.03503 6.56146e-18)
(20.2548 2.01546 -1.05896e-17)
(21.0521 2.01944 8.89893e-18)
(22.0148 2.03845 -1.18446e-17)
(23.0486 2.0678 -9.55217e-18)
(24.1083 2.1067 4.97844e-18)
(25.1537 2.15495 7.14094e-18)
(26.1144 2.20946 4.26601e-18)
(26.8994 2.26454 1.3525e-17)
(27.4382 2.3144 5.16511e-18)
(27.7188 2.35589 3.07811e-18)
(27.7884 2.38916 -8.69673e-18)
(27.7232 2.41624 1.2764e-17)
(27.5943 2.43949 -7.66017e-18)
(27.4497 2.46084 -1.89566e-17)
(27.3136 2.4814 -1.40964e-17)
(27.1935 2.50178 -4.47022e-17)
(27.0887 2.52216 -1.06223e-17)
(26.9962 2.54276 3.74379e-18)
(26.9131 2.56357 -2.5361e-18)
(26.8377 2.58479 -4.48756e-17)
(26.7686 2.60634 -2.66902e-19)
(26.7051 2.62834 -1.45545e-17)
(26.6462 2.65059 -3.7225e-18)
(26.5914 2.67297 -2.01618e-17)
(26.5401 2.69536 1.47033e-17)
(26.492 2.71757 -3.66536e-17)
(26.4466 2.73953 -3.5468e-17)
(26.4036 2.76117 -1.984e-17)
(26.3629 2.78256 -2.35557e-17)
(26.3243 2.80368 -2.79521e-17)
(26.2876 2.82453 -2.71169e-17)
(26.2527 2.84504 5.49738e-17)
(26.2195 2.86512 -1.56175e-17)
(26.1878 2.88481 -6.68016e-18)
(26.1575 2.90379 6.61527e-18)
(26.1294 2.92276 -1.63735e-18)
(26.1036 2.93825 -2.65146e-17)
(26.0818 2.95259 -1.73547e-17)
(26.06 2.96587 -3.78561e-17)
(26.0389 2.98183 -4.34973e-17)
(26.0178 2.99212 3.34993e-17)
(25.9982 3.0133 8.70936e-17)
(25.977 3.01329 -2.62187e-17)
(25.9592 3.0527 3.10129e-19)
(25.9349 3.02072 -7.30029e-17)
(25.9216 3.11945 8.40074e-19)
(25.8956 2.97774 2.72373e-17)
(25.879 3.26279 4.75684e-18)
(25.9362 2.81018 -1.89771e-16)
(26.4832 2.80902 -2.23087e-19)
(26.5142 2.8136 -4.2492e-19)
(26.5422 2.81811 4.23249e-19)
(26.5696 2.81699 6.3492e-19)
(26.5962 2.81174 3.78206e-19)
(26.6213 2.80454 -3.37131e-19)
(26.644 2.79753 -2.84795e-19)
(26.6637 2.79205 6.91728e-19)
(26.6801 2.78861 1.22125e-18)
(26.6939 2.78676 -6.01014e-19)
(26.707 2.78579 5.73571e-19)
(26.721 2.78497 -1.54779e-18)
(26.7362 2.78402 5.36598e-19)
(26.7504 2.78276 -2.82281e-20)
(26.7615 2.78095 4.67675e-19)
(26.7712 2.77808 -5.06244e-19)
(26.7878 2.77386 1.06624e-18)
(26.8207 2.7679 -1.07653e-18)
(26.8668 2.75929 5.86092e-19)
(26.8928 2.74601 1.27823e-18)
(26.8267 2.72509 -4.30854e-19)
(26.5772 2.69234 -1.7956e-19)
(26.0711 2.64288 -9.35381e-19)
(25.2865 2.57266 2.71875e-18)
(24.2646 2.48081 6.92568e-19)
(23.1057 2.37132 -5.63046e-18)
(21.9604 2.25393 -3.3481e-18)
(21.0136 2.14286 -2.74095e-18)
(20.4528 2.05417 -5.92237e-18)
(20.4039 2.0007 -9.63143e-20)
(20.8603 1.98607 -1.092e-17)
(21.6797 2.00271 4.32101e-18)
(22.6721 2.03785 -8.9018e-18)
(23.6944 2.08109 -4.77016e-18)
(24.6789 2.12846 -7.67184e-18)
(25.5916 2.17963 -4.78539e-18)
(26.3839 2.23364 -1.45516e-17)
(26.991 2.28663 -2.40806e-18)
(27.3696 2.334 -1.59388e-17)
(27.5296 2.37312 -1.2528e-17)
(27.5267 2.40438 3.8507e-18)
(27.4316 2.43003 -3.39487e-18)
(27.3019 2.45271 2.06607e-17)
(27.1715 2.47418 1.26613e-18)
(27.0547 2.49541 1.99651e-17)
(26.9533 2.51659 -6.0633e-18)
(26.8651 2.53785 -1.25176e-17)
(26.787 2.55905 -2.32228e-17)
(26.7168 2.58032 8.88511e-18)
(26.6534 2.60161 -1.76339e-17)
(26.5958 2.62312 1.51313e-17)
(26.543 2.64469 1.14923e-18)
(26.4946 2.66632 -2.48522e-17)
(26.4497 2.68786 -8.04532e-18)
(26.4079 2.70924 -1.91701e-17)
(26.3687 2.73037 1.41307e-17)
(26.3319 2.75127 -5.6919e-17)
(26.297 2.77194 -1.01906e-17)
(26.264 2.79245 -1.00037e-17)
(26.2326 2.81275 2.0875e-17)
(26.2028 2.83283 -4.2933e-17)
(26.1742 2.8526 2.85447e-17)
(26.147 2.8721 -1.80235e-17)
(26.1208 2.89104 -4.53355e-17)
(26.0964 2.91007 -2.66489e-17)
(26.0736 2.92581 2.30305e-17)
(26.0542 2.94031 2.3063e-17)
(26.0348 2.9538 2.02727e-18)
(26.0159 2.96984 5.5902e-17)
(25.9972 2.98059 -1.36765e-18)
(25.9798 3.00173 -6.27893e-17)
(25.9609 3.0027 -3.59221e-17)
(25.9452 3.04161 -2.62532e-17)
(25.923 3.01157 5.40503e-17)
(25.9114 3.1095 -1.84837e-18)
(25.8867 2.97078 9.29933e-17)
(25.8719 3.25626 1.02322e-19)
(25.9273 2.8047 1.82857e-16)
(26.5263 2.8096 1.11884e-19)
(26.5516 2.82252 4.72851e-19)
(26.5759 2.82992 4.6294e-22)
(26.6008 2.82829 -3.79547e-19)
(26.6264 2.81797 1.77693e-19)
(26.6522 2.80114 -3.24125e-19)
(26.6776 2.78191 5.97798e-19)
(26.7018 2.76418 4.24091e-19)
(26.7242 2.75072 -1.04921e-18)
(26.7444 2.74207 1.03747e-18)
(26.7628 2.73728 2.21345e-19)
(26.7806 2.73444 2.1921e-19)
(26.7993 2.73186 -1.43814e-18)
(26.8197 2.72848 -4.02612e-19)