/*--------------------------------*- C++ -*----------------------------------*\
| =========                 |                                                 |
| \\      /  F ield         | OpenFOAM: The Open Source CFD Toolbox           |
|  \\    /   O peration     | Version:  2506                                  |
|   \\  /    A nd           | Website:  www.openfoam.com                      |
|    \\/     M anipulation  |                                                 |
\*---------------------------------------------------------------------------*/
FoamFile
{
    version     2.0;
    format      ascii;
    arch        "LSB;label=32;scalar=64";
    class       surfaceScalarField;
    location    "44";
    object      phi;
}
// * * * * * * * * * * * * * * * * * * * * * * * * * * * * * * * * * * * * * //

dimensions      [0 3 -1 0 0 0 0];

oriented        oriented;

internalField   nonuniform List<scalar> 
760
(
1.54414e-05
-1.54456e-05
2.9005e-05
-1.35636e-05
3.05584e-05
-1.5534e-06
1.79392e-05
1.26192e-05
-1.2343e-05
3.02822e-05
-6.66166e-05
5.42736e-05
-0.000148059
8.14427e-05
-0.000248052
9.99923e-05
-0.000346569
9.8517e-05
-0.000420426
7.38573e-05
-0.000452938
3.25117e-05
-0.000434391
-1.85466e-05
-0.000359088
-7.53029e-05
-0.000238356
-0.000120732
-9.50906e-05
-0.000143265
3.33458e-05
-0.000128436
0.000107746
-7.43997e-05
0.000102583
5.16253e-06
4.58494e-05
5.67335e-05
4.58494e-05
1.2219e-05
-2.76646e-05
6.95047e-06
-8.29496e-06
-3.01571e-05
3.55541e-05
-0.00010797
9.04325e-05
-0.00023096
0.000153272
-0.000391168
0.000214481
-0.000563769
0.000254043
-0.000717635
0.000253859
-0.000830355
0.000211237
-0.000890927
0.000134429
-0.000894626
3.62107e-05
-0.000839166
-7.40061e-05
-0.00072766
-0.000186809
-0.000563368
-0.000285025
-0.0003606
-0.000346033
-0.000149696
-0.00033934
1.6821e-05
-0.000240917
8.509e-05
-6.31063e-05
5.22527e-05
8.95709e-05
9.81021e-05
-1.29679e-05
-1.46967e-05
-6.35605e-05
4.22977e-05
-0.000162207
0.000134201
-0.000312976
0.000241202
-0.000503449
0.000343745
-0.000703966
0.000414999
-0.000883174
0.000433252
-0.00102307
0.000393752
-0.00111844
0.000306607
-0.00116851
0.000184502
-0.00116819
3.58891e-05
-0.00112271
-0.000119487
-0.00103008
-0.000279435
-0.000884872
-0.000430236
-0.000685045
-0.000545861
-0.000439438
-0.000584946
-0.000187838
-0.000492517
-9.00858e-06
-0.000241936
2.93144e-05
5.12479e-05
0.000127416
-4.99421e-05
3.52453e-05
-0.000155443
0.000147799
-0.0003105
0.000289257
-0.000505506
0.000436207
-0.000714708
0.000552947
-0.000907537
0.000607827
-0.00106381
0.000589523
-0.00117921
0.000509151
-0.00125652
0.00038392
-0.00129924
0.000227221
-0.00130592
4.25744e-05
-0.00128231
-0.000143096
-0.00122462
-0.000337132
-0.00112263
-0.000532221
-0.000963239
-0.000705253
-0.000733964
-0.000814222
-0.000438614
-0.000787867
-0.000137694
-0.000542856
1.19196e-05
-9.83654e-05
0.000139336
-8.57333e-05
0.000120979
-0.000234835
0.000296901
-0.000420782
0.000475204
-0.000624287
0.000639712
-0.000817461
0.000746121
-0.00097811
0.000768476
-0.0010985
0.000709913
-0.00118124
0.000591885
-0.00123251
0.000435193
-0.00125963
0.000254345
-0.00127168
5.46217e-05
-0.00126744
-0.000147339
-0.00124595
-0.000358621
-0.00119926
-0.000578911
-0.00110869
-0.000795822
-0.000945444
-0.000977467
-0.000679677
-0.00105363
-0.000321291
-0.000901242
-2.62171e-05
-0.000393439
0.000113119
-0.000107934
0.000228912
-0.000276578
0.000465546
-0.00046474
0.000663365
-0.000649417
0.00082439
-0.0008083
0.000905004
-0.000928257
0.000888433
-0.00100879
0.000790444
-0.00105636
0.000639461
-0.00108004
0.000458868
-0.00108987
0.000264175
-0.00109804
6.27907e-05
-0.00110339
-0.000141988
-0.00110744
-0.000354572
-0.00110719
-0.000579155
-0.00108718
-0.000815833
-0.00101461
-0.00105004
-0.000840117
-0.00122813
-0.000522342
-0.00121902
-0.000115532
-0.000800249
-2.41338e-06
-0.000110186
0.000339099
-0.000273832
0.000629191
-0.000442506
0.00083204
-0.000595124
0.000977007
-0.000715717
0.0010256
-0.000797967
0.000970683
-0.00084554
0.000838017
-0.000867106
0.000661027
-0.000873068
0.00046483
-0.000873244
0.000264351
-0.000876033
6.55798e-05
-0.000883391
-0.00013463
-0.000897285
-0.000340678
-0.000918799
-0.000557642
-0.00094211
-0.000792521
-0.000943891
-0.00104826
-0.00087215
-0.00129987
-0.000651343
-0.00143982
-0.000241383
-0.00121021
-0.000243796
-9.27651e-05
0.000431864
-0.000232931
0.000769357
-0.000370761
0.00096987
-0.000487926
0.00109417
-0.000574313
0.00111198
-0.000628143
0.00102451
-0.000655038
0.000864913
-0.000664085
0.000670074
-0.000664978
0.000465723
-0.000665151
0.000264524
-0.00066833
6.87586e-05
-0.000676292
-0.000126668
-0.00069118
-0.00032579
-0.000716036
-0.000532785
-0.000752461
-0.000756096
-0.000791109
-0.00100961
-0.000790744
-0.00130023
-0.00066961
-0.00156096
-0.000357187
-0.00152263
-0.000600983
-6.19061e-05
0.00049377
-0.000167404
0.000874855
-0.000270064
0.00107253
-0.000353404
0.00117751
-0.000411831
0.00117041
-0.000446282
0.00105896
-0.000462585
0.000881215
-0.00046859
0.00067608
-0.00047161
0.000468742
-0.000476119
0.000269034
-0.000483203
7.58422e-05
-0.000493562
-0.000116309
-0.000508232
-0.000311121
-0.00053012
-0.000510897
-0.000564724
-0.000721492
-0.00061323
-0.000961104
-0.000653469
-0.00125999
-0.000611147
-0.00160328
-0.000391197
-0.00174258
-0.00099218
-2.296e-05
0.00051673
-8.85379e-05
0.000940433
-0.000155263
0.00113925
-0.000207834
0.00123008
-0.000243435
0.00120601
-0.000264452
0.00107998
-0.000275684
0.000892447
-0.000282472
0.000682868
-0.000289347
0.000475617
-0.000298564
0.000278252
-0.000310421
8.76991e-05
-0.000324915
-0.000101815
-0.000342104
-0.000293932
-0.000363275
-0.000489726
-0.000393611
-0.000691156
-0.000441284
-0.000913432
-0.000500717
-0.00120056
-0.00051134
-0.00159266
-0.00035515
-0.00189877
-0.00134733
1.6322e-05
0.000500408
-6.81239e-06
0.000963567
-3.9874e-05
0.00117232
-6.47648e-05
0.00125497
-8.00432e-05
0.00122129
-8.88046e-05
0.00108874
-9.50024e-05
0.000898645
-0.000101842
0.000689708
-0.000111002
0.000484776
-0.000123253
0.000290502
-0.00013882
0.000103267
-0.000157924
-8.27111e-05
-0.000180462
-0.000271393
-0.000206293
-0.000463895
-0.000238282
-0.000659167
-0.000285789
-0.000865925
-0.000355043
-0.00113131
-0.000402048
-0.00154565
-0.000302258
-0.00199856
-0.00164959
4.97883e-05
0.000450619
6.95046e-05
0.000943851
7.38236e-05
0.001168
7.7412e-05
0.00125139
8.19529e-05
0.00121675
8.48806e-05
0.00108581
8.41896e-05
0.000899336
7.90451e-05
0.000694853
6.9608e-05
0.000494214
5.60897e-05
0.000304021
3.80369e-05
0.00012132
1.48305e-05
-5.95046e-05
-1.37453e-05
-0.000242818
-4.83596e-05
-0.000429281
-8.95469e-05
-0.000617979
-0.000141942
-0.000813531
-0.000220266
-0.00105298
-0.000295526
-0.00147039
-0.000246169
-0.00204792
-0.00189576
7.51209e-05
0.000375499
0.000134598
0.000884374
0.000173713
0.00112888
0.000206556
0.00121854
0.000233807
0.0011895
0.000252383
0.00106724
0.00026141
0.000890308
0.000261964
0.000694299
0.000255508
0.000500669
0.000242831
0.000316698
0.000223278
0.000140873
0.000195464
-3.16906e-05
0.000159333
-0.000206686
0.000114374
-0.000384322
6.00679e-05
-0.000563673
-8.89489e-06
-0.000744568
-9.63075e-05
-0.000965569
-0.000192637
-0.00137406
-0.000192863
-0.00204769
-0.00208862
8.64511e-05
0.000289047
0.000179892
0.000790933
0.000253741
0.00105503
0.000317604
0.00115468
0.000372187
0.00113492
0.000413105
0.00102632
0.000438713
0.0008647
0.00045041
0.000682603
0.000450568
0.000500511
0.000440798
0.000326468
0.000420972
0.000160699
0.000388196
1.08567e-06
0.00034399
-0.00016248
0.000286044
-0.000326376
0.000214343
-0.000491973
0.000130585
-0.000660809
2.55401e-05
-0.000860524
-9.68608e-05
-0.00125166
-0.000143216
-0.00200134
-0.00223183
8.0038e-05
0.000209009
0.000194119
0.000676851
0.000297905
0.000951249
0.000394885
0.0010577
0.000482299
0.0010475
0.000553498
0.000955122
0.000604519
0.00081368
0.000635656
0.000651466
0.000649071
0.000487097
0.000646683
0.000328855
0.000628464
0.000178917
0.000593938
3.56123e-05
0.000540246
-0.000108788
0.000467815
-0.000253945
0.000375843
-0.0004
0.000267147
-0.000552113
0.000137457
-0.000730834
-1.6311e-05
-0.00109789
-9.19563e-05
-0.00192569
-0.00232379
5.73033e-05
0.000151706
0.000174728
0.000559427
0.000307945
0.000818031
0.000442521
0.000923124
0.000568713
0.000921309
0.00067664
0.000847195
0.000759726
0.000730594
0.000816696
0.000594495
0.00084884
0.000454953
0.000857933
0.000319763
0.000844704
0.000192147
0.000808956
7.13596e-05
0.000746354
-4.61865e-05
0.000658556
-0.000166147
0.000544264
-0.000285708
0.000407567
-0.000415416
0.000255347
-0.000578614
9.4346e-05
-0.000936894
-1.50688e-05
-0.00181628
-0.00233886
1.49522e-05
0.000136754
0.000103023
0.000471356
0.000250051
0.000671003
0.00042159
0.000751586
0.000593207
0.000749691
0.000746169
0.000694233
0.000870187
0.000606576
0.000962286
0.000502396
0.001022
0.00039524
0.00105056
0.000291196
0.00104862
0.00019409
0.00101679
0.000103195
0.000950758
1.9842e-05
0.000852293
-6.76822e-05
0.000720694
-0.000154108
0.000561013
-0.000255735
0.00038912
-0.000406721
0.000222856
-0.00077063
6.48466e-05
-0.00165827
-0.00227401
-5.15418e-05
0.000188296
1.97217e-05
0.000400092
0.000174496
0.000516229
0.000380017
0.000546065
0.000594791
0.000534918
0.000790263
0.000498761
0.000952768
0.00044407
0.00107818
0.00037698
0.00116477
0.000308655
0.00121423
0.000241737
0.001227
0.00018132
0.00120512
0.000125075
0.0011508
7.41656e-05
0.00106142
2.16934e-05
0.000937404
-3.00927e-05
0.000785736
-0.000104067
0.000624983
-0.000245967
0.000444732
-0.000590379
0.000205172
-0.00141871
-0.00206884
-0.000417733
0.000606029
-0.000364109
0.000346468
-0.000125132
0.000277252
0.000153998
0.000266935
0.000427206
0.00026171
0.000679956
0.000246011
0.000901014
0.000223013
0.0010844
0.00019359
0.00122834
0.000164719
0.00133555
0.00013453
0.00140775
0.000109114
0.00144941
8.34138e-05
0.00145938
6.41947e-05
0.00143869
4.23841e-05
0.00138649
2.21098e-05
0.00130429
-2.18698e-05
0.00119112
-0.000132791
0.00101079
-0.000410051
0.000563604
-0.000971524
-0.00150524
0.000606029
0.000952497
0.00122975
0.00149668
0.00175839
0.0020044
0.00222742
0.00242101
0.00258573
0.00272026
0.00282937
0.00291278
0.00297698
0.00301936
0.00304147
0.0030196
0.00288681
0.00247676
0.00150524
)
;

boundaryField
{
    movingWall
    {
        type            calculated;
        value           uniform 0;
    }
    fixedWalls
    {
        type            calculated;
        value           uniform 0;
    }
    frontAndBack
    {
        type            empty;
    }
}


// ************************************************************************* //
