/*--------------------------------*- C++ -*----------------------------------*\
| =========                 |                                                 |
| \\      /  F ield         | OpenFOAM: The Open Source CFD Toolbox           |
|  \\    /   O peration     | Version:  2506                                  |
|   \\  /    A nd           | Website:  www.openfoam.com                      |
|    \\/     M anipulation  |                                                 |
\*---------------------------------------------------------------------------*/
FoamFile
{
    version     2.0;
    format      ascii;
    arch        "LSB;label=32;scalar=64";
    class       pointScalarField;
    location    "44";
    object      streamFunction;
}
// * * * * * * * * * * * * * * * * * * * * * * * * * * * * * * * * * * * * * //

dimensions      [0 3 -1 0 0 0 0];

internalField   nonuniform List<scalar> 
882
(
0
0
0
0
0
0
0
0
0
0
0
0
0
0
0
0
0
0
0
0
0
0
0.000154455
0.00029009
0.000305615
0.000179458
-0.000123357
-0.00066608
-0.00148054
-0.00248037
-0.00346565
-0.00420427
-0.00452932
-0.00434384
-0.00359083
-0.00238349
-0.00095087
0.000333539
0.00107744
0.00102584
0.000458479
0
0
0.000276645
0.000359595
4.044e-06
-0.000900242
-0.00243296
-0.00457776
-0.00711823
-0.00965672
-0.0117692
-0.0131135
-0.0134756
-0.0127355
-0.0108674
-0.00801717
-0.00455687
-0.00116342
0.00124565
0.00187674
0.000981006
0
0
0.000146966
-0.00027601
-0.00161803
-0.00403
-0.00746745
-0.0116174
-0.01595
-0.0198874
-0.0229536
-0.0247986
-0.0251575
-0.0239626
-0.0211682
-0.0168659
-0.0114073
-0.0055578
-0.000632726
0.00178666
0.00127415
0
0
-0.000352455
-0.00183044
-0.00472303
-0.00908506
-0.0146145
-0.0206928
-0.0265881
-0.0316795
-0.0355188
-0.037791
-0.0382167
-0.0367857
-0.0334144
-0.0280922
-0.0210397
-0.0128974
-0.00501887
0.000409718
0.00139335
0
0
-0.00120979
-0.00417879
-0.00893085
-0.0153279
-0.0227891
-0.0304739
-0.0375731
-0.0434919
-0.0478439
-0.0503873
-0.0509335
-0.0494601
-0.0458739
-0.0400848
-0.0321266
-0.0223519
-0.0118156
-0.00280319
0.00113117
0
0
-0.00228913
-0.00694457
-0.0135782
-0.0218221
-0.0308721
-0.0397565
-0.047661
-0.0540555
-0.0586443
-0.061286
-0.0619139
-0.060494
-0.0569483
-0.0511567
-0.0429984
-0.032498
-0.0202168
-0.00802661
-2.4145e-05
0
0
-0.00339099
-0.00968289
-0.0180033
-0.0277733
-0.0380293
-0.0477361
-0.0561164
-0.0627266
-0.067375
-0.0700185
-0.0706742
-0.0693279
-0.0659212
-0.0603447
-0.0524195
-0.0419369
-0.0289383
-0.01454
-0.00243798
0
0
-0.00431864
-0.0120122
-0.0217109
-0.0326526
-0.0437724
-0.0540176
-0.0626668
-0.0693674
-0.0740248
-0.07667
-0.0773575
-0.0760908
-0.072833
-0.067505
-0.0599441
-0.049848
-0.0368457
-0.0212361
-0.00600985
0
0
-0.0049377
-0.0136862
-0.0244116
-0.0361866
-0.0478907
-0.0584804
-0.0672926
-0.0740533
-0.0787409
-0.0814312
-0.0821895
-0.0810265
-0.0779153
-0.0728062
-0.0655914
-0.0559803
-0.0433804
-0.0273476
-0.00992182
0
0
-0.0051673
-0.0145716
-0.0259642
-0.038265
-0.0503251
-0.0611249
-0.0700494
-0.0768781
-0.0816343
-0.0844168
-0.0852937
-0.0842756
-0.0813363
-0.076439
-0.0695275
-0.0603931
-0.0483876
-0.032461
-0.0134733
0
0
-0.00500408
-0.0146397
-0.0263629
-0.0389126
-0.0511255
-0.0620129
-0.0709995
-0.0778965
-0.0827443
-0.0856493
-0.0866819
-0.0858548
-0.083141
-0.0785019
-0.0719103
-0.063251
-0.051938
-0.0364815
-0.0164959
0
0
-0.0045062
-0.0139447
-0.0256247
-0.0381385
-0.050306
-0.0611641
-0.0701576
-0.077106
-0.0820483
-0.0850884
-0.0863016
-0.0857065
-0.0832784
-0.0789855
-0.0728058
-0.0646704
-0.0541407
-0.0394368
-0.0189576
0
0
-0.00375499
-0.0125987
-0.0238876
-0.0360729
-0.0479679
-0.0586403
-0.0675435
-0.0744864
-0.0794932
-0.0826601
-0.0840688
-0.0837519
-0.0816851
-0.0778418
-0.0722051
-0.0647594
-0.0551038
-0.0413631
-0.0208862
0
0
-0.00289048
-0.0107998
-0.0213501
-0.0328969
-0.0442461
-0.0545093
-0.0631563
-0.0699823
-0.0749875
-0.0782522
-0.0798591
-0.0798699
-0.0782452
-0.0749813
-0.0700616
-0.0634535
-0.0548484
-0.0423317
-0.0223184
0
0
-0.0020901
-0.00885861
-0.0183711
-0.0289481
-0.0394231
-0.0489743
-0.0571111
-0.0636257
-0.0684968
-0.0717853
-0.0735744
-0.0739306
-0.0728427
-0.0703032
-0.0663032
-0.0607821
-0.0534738
-0.0424948
-0.0232379
0
0
-0.00151706
-0.00711133
-0.0152917
-0.0245228
-0.0337359
-0.0422079
-0.0495139
-0.0554588
-0.0600084
-0.063206
-0.0651274
-0.065841
-0.0653792
-0.0637176
-0.0608606
-0.0567064
-0.0509203
-0.0415514
-0.0233886
0
0
-0.00136754
-0.0060811
-0.0127911
-0.0203069
-0.0278039
-0.0347462
-0.040812
-0.0458359
-0.0497884
-0.0527004
-0.0546412
-0.0556731
-0.0558716
-0.0551947
-0.0536536
-0.0510963
-0.0470291
-0.0393228
-0.0227402
0
0
-0.00188296
-0.00588388
-0.0110462
-0.0165068
-0.021856
-0.0268436
-0.0312843
-0.0350541
-0.0381407
-0.0405581
-0.0423712
-0.0436219
-0.0443636
-0.0445805
-0.0442796
-0.0432389
-0.0407793
-0.0348755
-0.0206884
0
0
-0.00606029
-0.00952497
-0.0122975
-0.0149668
-0.0175839
-0.020044
-0.0222742
-0.0242101
-0.0258573
-0.0272026
-0.0282937
-0.0291278
-0.0297698
-0.0301936
-0.0304147
-0.030196
-0.0288681
-0.0247676
-0.0150524
0
0
0
0
0
0
0
0
0
0
0
0
0
0
0
0
0
0
0
0
0
0
0
0
0
0
0
0
0
0
0
0
0
0
0
0
0
0
0
0
0
0
0
0
0.000154455
0.00029009
0.000305615
0.000179458
-0.000123357
-0.00066608
-0.00148054
-0.00248037
-0.00346565
-0.00420427
-0.00452932
-0.00434384
-0.00359083
-0.00238349
-0.00095087
0.000333539
0.00107744
0.00102584
0.000458479
0
0
0.000276645
0.000359595
4.044e-06
-0.000900242
-0.00243296
-0.00457776
-0.00711823
-0.00965672
-0.0117692
-0.0131135
-0.0134756
-0.0127355
-0.0108674
-0.00801717
-0.00455687
-0.00116342
0.00124565
0.00187674
0.000981006
0
0
0.000146966
-0.00027601
-0.00161803
-0.00403
-0.00746745
-0.0116174
-0.01595
-0.0198874
-0.0229536
-0.0247986
-0.0251575
-0.0239626
-0.0211682
-0.0168659
-0.0114073
-0.0055578
-0.000632726
0.00178666
0.00127415
0
0
-0.000352455
-0.00183044
-0.00472303
-0.00908506
-0.0146145
-0.0206928
-0.0265881
-0.0316795
-0.0355188
-0.037791
-0.0382167
-0.0367857
-0.0334144
-0.0280922
-0.0210397
-0.0128974
-0.00501887
0.000409718
0.00139335
0
0
-0.00120979
-0.00417879
-0.00893085
-0.0153279
-0.0227891
-0.0304739
-0.0375731
-0.0434919
-0.0478439
-0.0503873
-0.0509335
-0.0494601
-0.0458739
-0.0400848
-0.0321266
-0.0223519
-0.0118156
-0.00280319
0.00113117
0
0
-0.00228913
-0.00694457
-0.0135782
-0.0218221
-0.0308721
-0.0397565
-0.047661
-0.0540555
-0.0586443
-0.061286
-0.0619139
-0.060494
-0.0569483
-0.0511567
-0.0429984
-0.032498
-0.0202168
-0.00802661
-2.4145e-05
0
0
-0.00339099
-0.00968289
-0.0180033
-0.0277733
-0.0380293
-0.0477361
-0.0561164
-0.0627266
-0.067375
-0.0700185
-0.0706742
-0.0693279
-0.0659212
-0.0603447
-0.0524195
-0.0419369
-0.0289383
-0.01454
-0.00243798
0
0
-0.00431864
-0.0120122
-0.0217109
-0.0326526
-0.0437724
-0.0540176
-0.0626668
-0.0693674
-0.0740248
-0.07667
-0.0773575
-0.0760908
-0.072833
-0.067505
-0.0599441
-0.049848
-0.0368457
-0.0212361
-0.00600985
0
0
-0.0049377
-0.0136862
-0.0244116
-0.0361866
-0.0478907
-0.0584804
-0.0672926
-0.0740533
-0.0787409
-0.0814312
-0.0821895
-0.0810265
-0.0779153
-0.0728062
-0.0655914
-0.0559803
-0.0433804
-0.0273476
-0.00992182
0
0
-0.0051673
-0.0145716
-0.0259642
-0.038265
-0.0503251
-0.0611249
-0.0700494
-0.0768781
-0.0816343
-0.0844168
-0.0852937
-0.0842756
-0.0813363
-0.076439
-0.0695275
-0.0603931
-0.0483876
-0.032461
-0.0134733
0
0
-0.00500408
-0.0146397
-0.0263629
-0.0389126
-0.0511255
-0.0620129
-0.0709995
-0.0778965
-0.0827443
-0.0856493
-0.0866819
-0.0858548
-0.083141
-0.0785019
-0.0719103
-0.063251
-0.051938
-0.0364815
-0.0164959
0
0
-0.0045062
-0.0139447
-0.0256247
-0.0381385
-0.050306
-0.0611641
-0.0701576
-0.077106
-0.0820483
-0.0850884
-0.0863016
-0.0857065
-0.0832784
-0.0789855
-0.0728058
-0.0646704
-0.0541407
-0.0394368
-0.0189576
0
0
-0.00375499
-0.0125987
-0.0238876
-0.0360729
-0.0479679
-0.0586403
-0.0675435
-0.0744864
-0.0794932
-0.0826601
-0.0840688
-0.0837519
-0.0816851
-0.0778418
-0.0722051
-0.0647594
-0.0551038
-0.0413631
-0.0208862
0
0
-0.00289048
-0.0107998
-0.0213501
-0.0328969
-0.0442461
-0.0545093
-0.0631563
-0.0699823
-0.0749875
-0.0782522
-0.0798591
-0.0798699
-0.0782452
-0.0749813
-0.0700616
-0.0634535
-0.0548484
-0.0423317
-0.0223184
0
0
-0.0020901
-0.00885861
-0.0183711
-0.0289481
-0.0394231
-0.0489743
-0.0571111
-0.0636257
-0.0684968
-0.0717853
-0.0735744
-0.0739306
-0.0728427
-0.0703032
-0.0663032
-0.0607821
-0.0534738
-0.0424948
-0.0232379
0
0
-0.00151706
-0.00711133
-0.0152917
-0.0245228
-0.0337359
-0.0422079
-0.0495139
-0.0554588
-0.0600084
-0.063206
-0.0651274
-0.065841
-0.0653792
-0.0637176
-0.0608606
-0.0567064
-0.0509203
-0.0415514
-0.0233886
0
0
-0.00136754
-0.0060811
-0.0127911
-0.0203069
-0.0278039
-0.0347462
-0.040812
-0.0458359
-0.0497884
-0.0527004
-0.0546412
-0.0556731
-0.0558716
-0.0551947
-0.0536536
-0.0510963
-0.0470291
-0.0393228
-0.0227402
0
0
-0.00188296
-0.00588388
-0.0110462
-0.0165068
-0.021856
-0.0268436
-0.0312843
-0.0350541
-0.0381407
-0.0405581
-0.0423712
-0.0436219
-0.0443636
-0.0445805
-0.0442796
-0.0432389
-0.0407793
-0.0348755
-0.0206884
0
0
-0.00606029
-0.00952497
-0.0122975
-0.0149668
-0.0175839
-0.020044
-0.0222742
-0.0242101
-0.0258573
-0.0272026
-0.0282937
-0.0291278
-0.0297698
-0.0301936
-0.0304147
-0.030196
-0.0288681
-0.0247676
-0.0150524
0
0
0
0
0
0
0
0
0
0
0
0
0
0
0
0
0
0
0
0
0
0
)
;

boundaryField
{
    movingWall
    {
        type            calculated;
    }
    fixedWalls
    {
        type            calculated;
    }
    frontAndBack
    {
        type            empty;
    }
}


// ************************************************************************* //
