/*--------------------------------*- C++ -*----------------------------------*\
| =========                 |                                                 |
| \\      /  F ield         | OpenFOAM: The Open Source CFD Toolbox           |
|  \\    /   O peration     | Version:  2506                                  |
|   \\  /    A nd           | Website:  www.openfoam.com                      |
|    \\/     M anipulation  |                                                 |
\*---------------------------------------------------------------------------*/
FoamFile
{
    version     2.0;
    format      ascii;
    arch        "LSB;label=32;scalar=64";
    class       volVectorField;
    location    "44";
    object      U;
}
// * * * * * * * * * * * * * * * * * * * * * * * * * * * * * * * * * * * * * //

dimensions      [0 1 -1 0 0 0 0];

internalField   nonuniform List<vector> 
400
(
(0.00166493 -0.00166991 0)
(0.00478464 -0.00187457 0)
(0.00650733 -0.00119079 0)
(0.00558278 -0.000568419 0)
(0.00149025 0.000190098 0)
(-0.00687192 0.00173784 0)
(-0.0205722 0.00475772 0)
(-0.0393908 0.00867317 0)
(-0.0605461 0.0112222 0)
(-0.0788117 0.0104708 0)
(-0.0894987 0.00677165 0)
(-0.0902211 0.00169658 0)
(-0.0801067 -0.00356592 0)
(-0.0600142 -0.00821649 0)
(-0.0336743 -0.0107965 0)
(-0.00553929 -0.00977006 0)
(0.0164499 -0.00480305 0)
(0.0242543 0.00272753 0)
(0.0160819 0.00642398 0)
(0.0043002 0.00469236 0)
(0.0016897 -0.00500305 0)
(0.00307787 -0.00396569 0)
(-0.000526721 0.000615202 0)
(-0.0114046 0.00642853 0)
(-0.0313926 0.013985 0)
(-0.0609342 0.0236335 0)
(-0.0964262 0.032857 0)
(-0.130882 0.036891 0)
(-0.158311 0.0333818 0)
(-0.17543 0.0233592 0)
(-0.180826 0.00915986 0)
(-0.174543 -0.00686297 0)
(-0.157157 -0.0229883 0)
(-0.129398 -0.0367072 0)
(-0.0935213 -0.0443818 0)
(-0.0522568 -0.0417295 0)
(-0.0115708 -0.0263506 0)
(0.0166763 -0.0014045 0)
(0.0177486 0.0160833 0)
(0.00552019 0.0147382 0)
(-0.000268339 -0.00566294 0)
(-0.005434 0.000902217 0)
(-0.0196244 0.0142844 0)
(-0.0443878 0.0310858 0)
(-0.0800036 0.0491621 0)
(-0.121623 0.0639506 0)
(-0.161573 0.0701759 0)
(-0.194362 0.0657351 0)
(-0.217877 0.0520188 0)
(-0.231523 0.0315041 0)
(-0.235309 0.00653131 0)
(-0.229892 -0.0208668 0)
(-0.215584 -0.0485252 0)
(-0.19188 -0.0728323 0)
(-0.158511 -0.0886571 0)
(-0.115439 -0.0889682 0)
(-0.0644662 -0.0669535 0)
(-0.0139105 -0.0228252 0)
(0.00940632 0.0176968 0)
(0.00415265 0.0234484 0)
(-0.00347051 0.000587908 0)
(-0.017469 0.0172888 0)
(-0.0433472 0.0413335 0)
(-0.0792953 0.0678171 0)
(-0.122308 0.0906396 0)
(-0.164971 0.10329 0)
(-0.200875 0.102407 0)
(-0.228076 0.0892982 0)
(-0.246835 0.0671114 0)
(-0.257755 0.0385475 0)
(-0.261674 0.00547967 0)
(-0.259397 -0.0307651 0)
(-0.25086 -0.0679528 0)
(-0.235014 -0.10315 0)
(-0.209868 -0.130892 0)
(-0.172719 -0.142389 0)
(-0.121015 -0.125474 0)
(-0.0567308 -0.070865 0)
(-0.00104465 0.00332338 0)
(0.00473953 0.0280764 0)
(-0.00663016 0.0148592 0)
(-0.0285758 0.0440124 0)
(-0.0629323 0.0767095 0)
(-0.103844 0.108303 0)
(-0.146411 0.13048 0)
(-0.18352 0.137482 0)
(-0.211717 0.128891 0)
(-0.231386 0.108282 0)
(-0.243818 0.0795188 0)
(-0.25074 0.0453864 0)
(-0.253847 0.00741941 0)
(-0.254071 -0.0335814 0)
(-0.251187 -0.0764688 0)
(-0.244635 -0.119934 0)
(-0.231601 -0.16002 0)
(-0.207464 -0.188283 0)
(-0.166183 -0.189401 0)
(-0.10309 -0.142599 0)
(-0.0221742 -0.0389933 0)
(0.00733889 0.0269091 0)
(-0.00845155 0.0348157 0)
(-0.03494 0.0763381 0)
(-0.0726084 0.114335 0)
(-0.11252 0.146862 0)
(-0.149565 0.165123 0)
(-0.178274 0.165113 0)
(-0.197669 0.149025 0)
(-0.209292 0.121928 0)
(-0.215128 0.088174 0)
(-0.217667 0.0507505 0)
(-0.218893 0.0111226 0)
(-0.219821 -0.0303015 0)
(-0.220655 -0.0740107 0)
(-0.22148 -0.120403 0)
(-0.220091 -0.168271 0)
(-0.211379 -0.212126 0)
(-0.187254 -0.237767 0)
(-0.139138 -0.217935 0)
(-0.0625933 -0.118712 0)
(0.00577349 0.0140605 0)
(-0.00822219 0.0567794 0)
(-0.0350674 0.109492 0)
(-0.071307 0.149659 0)
(-0.106312 0.180152 0)
(-0.135767 0.19281 0)
(-0.15604 0.18549 0)
(-0.167814 0.162452 0)
(-0.1732 0.129832 0)
(-0.17461 0.0924073 0)
(-0.174566 0.0532031 0)
(-0.1746 0.0134584 0)
(-0.175408 -0.0267927 0)
(-0.177541 -0.0687197 0)
(-0.181533 -0.113637 0)
(-0.186716 -0.162681 0)
(-0.189423 -0.214698 0)
(-0.181737 -0.260674 0)
(-0.153665 -0.274351 0)
(-0.0989524 -0.205348 0)
(-0.00888796 -0.0147118 0)
(-0.00607322 0.0771994 0)
(-0.0295343 0.139833 0)
(-0.0609338 0.180198 0)
(-0.0892043 0.207138 0)
(-0.111064 0.213716 0)
(-0.124478 0.199473 0)
(-0.131019 0.170357 0)
(-0.13299 0.133347 0)
(-0.132856 0.093456 0)
(-0.132585 0.0534159 0)
(-0.132889 0.0139529 0)
(-0.133964 -0.0253217 0)
(-0.136276 -0.0654679 0)
(-0.14052 -0.107758 0)
(-0.147292 -0.154211 0)
(-0.155244 -0.207199 0)
(-0.158344 -0.264722 0)
(-0.146208 -0.307142 0)
(-0.111827 -0.276416 0)
(-0.0308014 -0.0751267 0)
(-0.00269118 0.0930607 0)
(-0.0202173 0.164736 0)
(-0.0447564 0.204422 0)
(-0.0657913 0.227259 0)
(-0.0809397 0.228224 0)
(-0.0893201 0.208317 0)
(-0.0928087 0.174661 0)
(-0.0935432 0.134753 0)
(-0.0936338 0.0936286 0)
(-0.0942733 0.053546 0)
(-0.0955253 0.0146014 0)
(-0.0973016 -0.0240124 0)
(-0.0997824 -0.0631162 0)
(-0.103479 -0.103455 0)
(-0.10954 -0.146716 0)
(-0.118682 -0.196888 0)
(-0.1277 -0.258387 0)
(-0.126096 -0.322316 0)
(-0.107141 -0.333754 0)
(-0.0371937 -0.162755 0)
(0.00122236 0.102094 0)
(-0.00883053 0.182428 0)
(-0.0253913 0.221847 0)
(-0.039276 0.241325 0)
(-0.0486684 0.238095 0)
(-0.0534556 0.21419 0)
(-0.0553098 0.177508 0)
(-0.0558832 0.135924 0)
(-0.0567058 0.0943958 0)
(-0.0583391 0.0546533 0)
(-0.0605605 0.0162335 0)
(-0.0632233 -0.021949 0)
(-0.066326 -0.060586 0)
(-0.0700598 -0.0999619 0)
(-0.0753708 -0.140846 0)
(-0.0838438 -0.186972 0)
(-0.0955471 -0.246704 0)
(-0.100373 -0.323059 0)
(-0.0949613 -0.371145 0)
(-0.0308464 -0.241692 0)
(0.005077 0.103218 0)
(0.00296092 0.191932 0)
(-0.00530823 0.232254 0)
(-0.0123593 0.249276 0)
(-0.0167002 0.243196 0)
(-0.018538 0.21704 0)
(-0.0191608 0.179042 0)
(-0.0196135 0.137073 0)
(-0.0208454 0.0958463 0)
(-0.0230352 0.0567099 0)
(-0.025889 0.0189243 0)
(-0.0293377 -0.0186897 0)
(-0.0333995 -0.0568639 0)
(-0.0380309 -0.0957242 0)
(-0.0437929 -0.135272 0)
(-0.0519547 -0.178017 0)
(-0.0654195 -0.233776 0)
(-0.0741012 -0.316704 0)
(-0.0811013 -0.39558 0)
(-0.0229102 -0.306137 0)
(0.00836467 0.0967834 0)
(0.0141019 0.192893 0)
(0.0139966 0.235741 0)
(0.0136124 0.252022 0)
(0.0142391 0.244939 0)
(0.0154398 0.218287 0)
(0.0163068 0.180302 0)
(0.0163674 0.138697 0)
(0.0152241 0.0979886 0)
(0.0129308 0.0594607 0)
(0.00976033 0.0224057 0)
(0.00568057 -0.0143518 0)
(0.000547205 -0.0516628 0)
(-0.00551261 -0.089695 0)
(-0.0129077 -0.128137 0)
(-0.0218414 -0.168095 0)
(-0.0376144 -0.218688 0)
(-0.0487921 -0.303007 0)
(-0.0679255 -0.407352 0)
(-0.0144711 -0.359008 0)
(0.0101917 0.0839346 0)
(0.0231775 0.185345 0)
(0.0307872 0.231885 0)
(0.0366732 0.248579 0)
(0.0422917 0.241731 0)
(0.047203 0.216005 0)
(0.0505924 0.179322 0)
(0.0522112 0.139041 0)
(0.0520121 0.0995069 0)
(0.0502141 0.0620712 0)
(0.0470656 0.0262096 0)
(0.0424772 -0.00918957 0)
(0.0362739 -0.0450648 0)
(0.0285581 -0.0816516 0)
(0.0185518 -0.118623 0)
(0.0073443 -0.156282 0)
(-0.0119791 -0.202358 0)
(-0.0244789 -0.284982 0)
(-0.0559654 -0.409908 0)
(-0.00617894 -0.400926 0)
(0.00972958 0.0668929 0)
(0.0286924 0.169674 0)
(0.0438951 0.220887 0)
(0.0563366 0.239818 0)
(0.0675362 0.234866 0)
(0.0771314 0.211562 0)
(0.0842559 0.177361 0)
(0.0886042 0.139159 0)
(0.0902568 0.101222 0)
(0.0895302 0.0651285 0)
(0.0867651 0.030727 0)
(0.081734 -0.00301377 0)
(0.0742963 -0.0367189 0)
(0.0647228 -0.0710054 0)
(0.0516696 -0.105705 0)
(0.0369306 -0.140753 0)
(0.0126921 -0.182277 0)
(-0.000313937 -0.261804 0)
(-0.0450016 -0.40571 0)
(0.00269597 -0.435442 0)
(0.00682006 0.049296 0)
(0.0289841 0.148177 0)
(0.0505347 0.202454 0)
(0.0692572 0.223177 0)
(0.0865927 0.220279 0)
(0.102151 0.200178 0)
(0.114683 0.16969 0)
(0.123505 0.134952 0)
(0.128533 0.0999726 0)
(0.130033 0.066453 0)
(0.128285 0.0346314 0)
(0.123355 0.00367971 0)
(0.114776 -0.0267643 0)
(0.103173 -0.057573 0)
(0.086318 -0.0888216 0)
(0.0673722 -0.121156 0)
(0.0375996 -0.15906 0)
(0.0233852 -0.235837 0)
(-0.0346977 -0.398093 0)
(0.0133696 -0.463801 0)
(0.0023442 0.0347232 0)
(0.0233074 0.123399 0)
(0.0503482 0.179003 0)
(0.075857 0.201767 0)
(0.100324 0.201385 0)
(0.123019 0.185022 0)
(0.14229 0.159065 0)
(0.156921 0.128783 0)
(0.166502 0.0977901 0)
(0.171256 0.0677899 0)
(0.171144 0.0393687 0)
(0.166891 0.012105 0)
(0.157123 -0.0143698 0)
(0.143523 -0.040808 0)
(0.122475 -0.067532 0)
(0.0992154 -0.0961023 0)
(0.0637069 -0.131212 0)
(0.0464872 -0.206401 0)
(-0.0230107 -0.38649 0)
(0.0283828 -0.485152 0)
(-0.00339971 0.0288586 0)
(0.00983354 0.101301 0)
(0.0365633 0.148017 0)
(0.0681612 0.168527 0)
(0.100808 0.169657 0)
(0.132292 0.157389 0)
(0.160063 0.137042 0)
(0.182395 0.112777 0)
(0.198259 0.0876691 0)
(0.208023 0.063248 0)
(0.210859 0.0402585 0)
(0.208554 0.0185593 0)
(0.198369 -0.00221813 0)
(0.183874 -0.0225845 0)
(0.159324 -0.0430259 0)
(0.133021 -0.0666443 0)
(0.0919016 -0.100559 0)
(0.0693635 -0.179165 0)
(-0.0046564 -0.369682 0)
(0.0520177 -0.491442 0)
(-0.0138468 0.0187573 0)
(-0.00750113 0.0882144 0)
(0.0188829 0.123863 0)
(0.0557949 0.136736 0)
(0.0966234 0.136204 0)
(0.136694 0.127003 0)
(0.17266 0.112396 0)
(0.202239 0.0947116 0)
(0.223928 0.0763734 0)
(0.238841 0.0583832 0)
(0.244798 0.0417041 0)
(0.245677 0.0262039 0)
(0.236447 0.012056 0)
(0.224762 -0.00157085 0)
(0.200057 -0.0154564 0)
(0.176443 -0.0343214 0)
(0.132525 -0.0670936 0)
(0.107311 -0.145588 0)
(0.0372338 -0.326067 0)
(0.0922714 -0.455849 0)
(-0.105904 0.0825875 0)
(-0.077663 0.0691271 0)
(-0.0486122 0.0732462 0)
(0.00348511 0.0776056 0)
(0.0566965 0.0778494 0)
(0.109119 0.0735592 0)
(0.156003 0.0662493 0)
(0.198096 0.0568998 0)
(0.230014 0.0473089 0)
(0.258007 0.037746 0)
(0.273682 0.0291913 0)
(0.288825 0.021307 0)
(0.289286 0.0146554 0)
(0.293546 0.00834663 0)
(0.277536 0.0014544 0)
(0.270615 -0.00968396 0)
(0.231611 -0.035278 0)
(0.21782 -0.0952896 0)
(0.150148 -0.229721 0)
(0.170661 -0.341485 0)
(0.130034 0.10379 0)
(0.158458 0.0753533 0)
(0.212384 0.0533684 0)
(0.270881 0.0417325 0)
(0.323358 0.0359826 0)
(0.375633 0.0319832 0)
(0.420044 0.0289319 0)
(0.465174 0.0255881 0)
(0.498118 0.0229142 0)
(0.533252 0.0197299 0)
(0.552635 0.0175816 0)
(0.578441 0.0146564 0)
(0.584634 0.0132281 0)
(0.603079 0.0104209 0)
(0.594653 0.00946839 0)
(0.60333 0.00507618 0)
(0.567698 0.000151832 0)
(0.547701 -0.0182779 0)
(0.435868 -0.0504121 0)
(0.33684 -0.101402 0)
)
;

boundaryField
{
    movingWall
    {
        type            fixedValue;
        value           uniform (1 0 0);
    }
    fixedWalls
    {
        type            noSlip;
    }
    frontAndBack
    {
        type            empty;
    }
}


// ************************************************************************* //
