/*--------------------------------*- C++ -*----------------------------------*\
| =========                 |                                                 |
| \\      /  F ield         | OpenFOAM: The Open Source CFD Toolbox           |
|  \\    /   O peration     | Version:  2506                                  |
|   \\  /    A nd           | Website:  www.openfoam.com                      |
|    \\/     M anipulation  |                                                 |
\*---------------------------------------------------------------------------*/
FoamFile
{
    version     2.0;
    format      ascii;
    arch        "LSB;label=32;scalar=64";
    class       volScalarField;
    location    "250";
    object      div(phi);
}
// * * * * * * * * * * * * * * * * * * * * * * * * * * * * * * * * * * * * * //

dimensions      [0 0 -1 0 0 0 0];

internalField   nonuniform List<scalar> 
1340
(
1.3237e-05
2.37875e-06
3.62801e-06
-9.85284e-07
9.42127e-06
1.32045e-05
4.27514e-06
3.81337e-06
2.42309e-06
6.32985e-06
2.12003e-06
6.42016e-06
5.20161e-06
2.97309e-06
3.65375e-06
1.17016e-07
4.50261e-06
-1.88961e-06
5.46022e-06
1.45911e-06
2.21066e-06
9.14353e-07
3.61677e-06
-3.8366e-07
2.31223e-06
3.87109e-07
1.80121e-06
2.63539e-06
9.31792e-07
1.67514e-06
-7.02155e-07
2.13103e-06
-1.55635e-07
1.37488e-06
3.08865e-07
2.45402e-06
-1.04524e-07
7.72156e-07
-1.94409e-08
1.78359e-06
-8.71728e-07
1.08348e-06
-2.76945e-08
-1.31933e-08
-1.72488e-06
-9.06676e-08
1.00175e-06
9.67004e-08
5.56893e-07
-9.87283e-07
9.5098e-07
-5.0968e-07
4.42989e-07
-2.61578e-07
-3.93925e-07
4.27873e-07
-6.29765e-07
8.81472e-08
-3.7495e-07
8.15018e-07
-8.2973e-07
3.77352e-07
-2.69053e-07
1.64584e-08
-3.87111e-07
-6.97456e-07
-3.67266e-07
4.92723e-07
-2.44891e-07
8.34242e-08
-8.78845e-07
3.64482e-07
-5.18593e-07
7.61211e-08
-1.43348e-07
-1.0867e-07
-3.11479e-07
4.17282e-07
-5.93619e-07
-1.30276e-07
-3.74168e-07
3.20132e-07
-6.87368e-07
4.14092e-08
-2.28525e-07
-8.67704e-08
-1.12933e-07
-3.51035e-07
4.68051e-07
-4.42517e-07
1.49882e-07
-2.7829e-07
-1.18229e-07
-6.92384e-07
6.63647e-08
-4.09293e-07
-1.19219e-07
-2.84968e-08
-1.68978e-07
1.32666e-07
-6.47823e-07
-5.26623e-08
-5.19812e-07
-2.01122e-07
-3.40709e-07
8.09294e-08
-5.02886e-07
-1.21232e-07
-1.654e-07
-1.63273e-07
-7.83448e-08
-3.0554e-07
4.99033e-07
-3.30914e-07
8.42884e-08
-2.73107e-07
-1.70291e-07
-5.02162e-07
-7.63167e-08
-2.95438e-07
-2.11794e-07
-2.2354e-08
-1.39411e-07
6.54105e-08
-6.02082e-07
-3.50979e-08
7.07537e-08
-3.8328e-07
-1.90244e-07
-2.56969e-07
-3.86854e-08
-3.56284e-07
-1.95584e-07
-1.10437e-07
-2.05802e-07
-3.3766e-08
-2.0127e-07
2.78612e-08
-1.95873e-08
-2.64838e-07
-1.09968e-08
-2.21153e-07
-1.82063e-07
-3.55002e-07
-1.38762e-07
-2.05444e-07
-2.5106e-07
1.5363e-09
-9.76484e-08
5.20302e-08
-2.67367e-07
-4.35634e-07
3.13524e-07
-8.04179e-08
-3.01237e-07
-1.76957e-07
-2.07963e-07
-9.06123e-08
-2.41546e-07
-2.1683e-07
-7.25178e-08
-2.04761e-07
-1.31804e-09
-1.2775e-07
1.04736e-07
2.49413e-08
-3.91768e-07
-1.81005e-07
-3.76499e-08
-1.9017e-07
-1.62518e-07
-2.41002e-07
-1.57451e-07
-1.33139e-07
-2.51592e-07
2.75693e-08
-5.78939e-08
6.58061e-08
-2.24767e-07
-2.23536e-07
2.29704e-07
-5.20595e-08
-2.09693e-07
-1.55836e-07
-1.51176e-07
-1.09246e-07
-1.56279e-07
-2.12586e-07
-3.15382e-08
-1.90669e-07
1.65516e-08
-1.04177e-07
9.99495e-08
6.79988e-08
-4.51706e-07
6.23501e-07
-9.27634e-08
-1.55731e-07
-1.69842e-07
-1.44054e-07
-1.58756e-07
-1.54961e-07
-8.30859e-08
-2.34084e-07
3.38852e-08
-5.7483e-08
5.22176e-08
-2.04983e-07
-2.67821e-07
3.92853e-07
-5.16528e-07
-1.89188e-07
-1.65961e-07
-1.86314e-07
-1.30658e-07
-1.11353e-07
-9.85667e-08
-1.93356e-07
-1.27378e-08
-1.77401e-07
7.94605e-09
-1.06277e-07
5.96945e-08
1.00784e-07
-5.05194e-07
6.92542e-07
-1.08344e-08
-2.03315e-07
-1.68354e-07
-1.2473e-07
-1.00418e-07
-1.41521e-07
-4.46306e-08
-2.08582e-07
3.9638e-08
-6.21232e-08
3.82085e-08
-1.87389e-07
-2.76278e-07
2.55716e-07
-1.75609e-07
7.12666e-07
-1.14082e-07
-1.20382e-07
-1.32422e-07
-9.12128e-08
-1.02114e-07
-5.45034e-08
-1.69934e-07
8.9333e-09
-1.59279e-07
6.08698e-09
-9.15734e-08
3.89882e-08
4.1004e-08
-1.45131e-07
1.34396e-07
4.09092e-07
-1.12751e-07
-9.89433e-08
-9.15808e-08
-5.83758e-08
-1.23669e-07
-2.09024e-08
-1.80032e-07
3.53085e-08
-5.50044e-08
2.44231e-08
-1.51238e-07
-1.8393e-07
2.35941e-07
1.25046e-07
4.08266e-08
3.33123e-07
-1.2071e-07
-8.3908e-08
-5.90377e-08
-8.72767e-08
-2.83617e-08
-1.44504e-07
1.40289e-08
-1.36301e-07
2.94307e-09
-6.84831e-08
4.28546e-08
6.20673e-08
-9.92887e-08
2.11805e-07
9.11738e-08
-1.50092e-07
-6.70862e-08
-6.50728e-08
-6.46116e-08
-2.85939e-08
-1.04901e-07
-3.16388e-09
-1.52062e-07
3.83467e-08
-4.18183e-08
3.16332e-08
-1.19675e-07
-1.0635e-07
1.82577e-07
1.86504e-07
-1.66169e-07
2.6678e-07
-9.67478e-08
-5.72483e-08
-3.74188e-08
-7.29056e-08
-7.61112e-09
-1.21572e-07
2.38979e-08
-1.13548e-07
1.31915e-08
-5.0258e-08
5.03326e-08
4.52123e-08
1.11304e-07
3.09997e-08
2.12119e-07
-2.57133e-07
3.32334e-07
-5.59664e-08
-4.53417e-08
-4.63991e-08
-1.03588e-08
-8.75808e-08
5.54555e-09
-1.26796e-07
3.64956e-08
-3.09911e-08
2.60783e-08
-1.03756e-07
2.63889e-08
1.36377e-07
2.48353e-07
-1.60007e-08
9.53676e-08
-1.71684e-07
-6.76716e-08
-3.95036e-08
-2.37561e-08
-6.03201e-08
1.69711e-09
-1.00586e-07
2.27816e-08
-9.32233e-08
1.18531e-08
-4.1159e-08
5.24122e-08
5.82111e-08
1.09706e-07
9.538e-08
7.73616e-08
-1.87808e-07
2.5634e-07
-4.23261e-08
-3.11685e-08
-3.28917e-08
1.53504e-09
-7.22442e-08
1.21464e-08
-1.04857e-07
3.62269e-08
-2.36991e-08
2.06965e-08
-8.31321e-08
7.70656e-09
1.36627e-07
7.29954e-08
-5.11467e-08
3.03353e-08
-2.65364e-07
3.14269e-07
-4.9867e-08
-2.6226e-08
-1.42503e-08
-4.90083e-08
1.01234e-08
-8.30281e-08
2.56952e-08
-7.64911e-08
1.41268e-08
-3.47434e-08
3.98195e-08
4.26971e-08
5.07536e-08
5.68174e-08
6.31065e-09
-1.40524e-07
3.88674e-08
-1.41572e-07
-3.20608e-08
-2.20645e-08
-2.29489e-08
7.9335e-09
-5.90948e-08
1.37212e-08
-8.62214e-08
3.11305e-08
-1.9037e-08
1.47562e-08
-6.97827e-08
-1.78021e-09
9.20798e-08
3.93044e-08
-8.29443e-08
1.77397e-08
-2.9489e-07
2.41193e-07
-3.4975e-08
-1.88267e-08
-8.27638e-09
-3.99857e-08
1.18967e-08
-6.7856e-08
2.17614e-08
-6.2697e-08
1.10097e-08
-2.7861e-08
2.9775e-08
2.5887e-08
2.69084e-08
2.79889e-08
-9.85425e-09
-2.18723e-07
3.33118e-08
-2.40429e-07
2.40383e-07
-2.71407e-08
-1.51177e-08
-1.61215e-08
1.17294e-08
-4.81677e-08
1.53574e-08
-7.08635e-08
2.85784e-08
-1.48918e-08
1.2744e-08
-5.89374e-08
-6.10963e-09
6.40787e-08
2.0287e-08
-7.50218e-08
-1.82417e-08
-2.06039e-07
6.79787e-08
-1.3577e-07
-2.65719e-08
-1.18741e-08
-4.16147e-09
-3.20332e-08
1.46684e-08
-5.57166e-08
2.17104e-08
-5.157e-08
1.15116e-08
-2.17098e-08
2.33963e-08
1.85915e-08
2.3927e-08
3.00816e-08
4.55597e-09
-1.85731e-07
6.08536e-08
-2.56436e-07
3.01648e-07
-1.97416e-08
-1.08373e-08
-1.07949e-08
1.29953e-08
-3.91518e-08
1.42388e-08
-5.83602e-08
2.36127e-08
-1.2042e-08
9.18664e-09
-4.82101e-08
-1.99809e-09
6.25422e-08
3.17401e-08
-3.99082e-08
1.54027e-08
-2.35548e-07
9.56257e-08
-1.76475e-07
2.41362e-07
-1.93938e-08
-9.00667e-09
-1.66662e-09
-2.60474e-08
1.3607e-08
-4.56334e-08
1.76474e-08
-4.27094e-08
8.80994e-09
-1.71502e-08
1.9586e-08
1.91771e-08
3.02637e-08
4.07706e-08
2.21096e-08
-1.32089e-07
4.82196e-08
-1.35511e-07
8.07634e-08
-7.32412e-08
-1.81702e-08
-7.31595e-09
-7.49257e-09
1.34723e-08
-3.19389e-08
1.40415e-08
-4.84422e-08
2.13428e-08
-9.57378e-09
8.20651e-09
-3.87453e-08
1.98261e-09
6.01987e-08
3.76925e-08
-2.01078e-08
3.2439e-08
-1.93902e-07
9.51837e-08
-1.59226e-07
6.10823e-08
-1.53095e-08
-5.21808e-09
2.22096e-12
-2.0802e-08
1.40583e-08
-3.77707e-08
1.6909e-08
-3.5703e-08
8.9345e-09
-1.33598e-08
1.74649e-08
1.89423e-08
3.106e-08
4.11331e-08
2.79695e-08
-9.58488e-08
5.23588e-08
-1.58039e-07
1.32061e-08
-9.92831e-08
9.5885e-08
-1.27681e-08
-5.28974e-09
-4.72029e-09
1.28061e-08
-2.60883e-08
1.22382e-08
-4.04553e-08
1.75954e-08
-7.78964e-09
6.70029e-09
-3.17965e-08
3.77549e-09
5.44104e-08
3.61636e-08
-1.0848e-08
2.96565e-08
-1.49911e-07
5.33531e-08
-9.31819e-08
7.70036e-08
-4.8815e-08
-1.15108e-08
-4.26336e-09
9.08513e-10
-1.7034e-08
1.21468e-08
-3.12691e-08
1.36021e-08
-3.0039e-08
7.2049e-09
-1.06226e-08
1.60771e-08
1.77954e-08
2.81528e-08
3.77562e-08
2.72373e-08
-7.65304e-08
3.78082e-08
-1.34296e-07
5.85153e-08
5.86529e-10
2.9727e-08
-1.23491e-08
-3.48453e-09
-3.25396e-09
1.20066e-08
-2.14572e-08
1.14489e-08
-3.40467e-08
1.61089e-08
-6.07628e-09
7.09173e-09
-2.58098e-08
4.23809e-09
4.82394e-08
3.3364e-08
-7.48699e-09
2.31525e-08
-1.1761e-07
4.15053e-08
5.14831e-08
1.3534e-08
1.25346e-07
-9.41691e-09
-2.17238e-09
1.38666e-09
-1.36821e-08
1.16709e-08
-2.61314e-08
1.29004e-08
-2.53921e-08
7.48394e-09
-8.16666e-09
1.51428e-08
1.72427e-08
2.51068e-08
3.16242e-08
2.49613e-08
-6.42021e-08
2.60671e-08
2.91232e-08
4.30933e-08
7.85466e-08
-2.05968e-08
8.01773e-08
-8.51176e-09
-2.64673e-09
-1.90222e-09
1.07005e-08
-1.76441e-08
9.70214e-09
-2.86972e-08
1.34346e-08
-4.90251e-09
6.41114e-09
-2.04029e-08
3.87301e-09
3.98916e-08
2.73729e-08
-1.10968e-08
1.27346e-08
1.15824e-08
3.81882e-08
-1.05704e-08
3.54831e-08
-7.26058e-08
5.28994e-08
-7.31995e-09
-2.09808e-09
1.52536e-09
-1.13062e-08
9.71959e-09
-2.17493e-08
1.03987e-08
-2.15485e-08
6.20868e-09
-6.12548e-09
1.409e-08
1.45766e-08
1.85159e-08
2.26667e-08
1.25291e-08
2.00346e-08
1.05866e-08
-2.90526e-08
1.46511e-08
-1.04247e-07
3.04264e-08
-6.08598e-08
-8.60742e-09
-1.78704e-09
-1.37321e-09
9.53784e-09
-1.45506e-08
8.8644e-09
-2.42664e-08
1.2375e-08
-3.83086e-09
6.67704e-09
-1.64205e-08
2.39196e-09
3.07948e-08
1.43334e-08
1.44519e-08
1.88473e-09
-3.03158e-08
1.4474e-08
-1.47054e-07
3.62248e-08
-1.19744e-07
1.39298e-07
-6.22017e-09
-9.78275e-10
1.49438e-09
-9.09437e-09
9.02656e-09
-1.81621e-08
9.85524e-09
-1.83712e-08
6.19998e-09
-4.48857e-09
1.31523e-08
1.09774e-08
1.14616e-08
1.26062e-08
9.70353e-09
-7.75052e-09
5.97707e-09
-8.69884e-08
2.04939e-08
-1.26497e-07
5.11097e-08
-7.63325e-08
1.40947e-07
-5.97397e-09
-1.50437e-09
-7.23945e-10
8.24955e-09
-1.19026e-08
7.49264e-09
-2.04765e-08
1.03194e-08
-3.27686e-09
5.75346e-09
-1.3844e-08
1.10422e-09
2.19698e-08
7.10979e-09
7.53511e-09
-6.70698e-09
-3.9012e-08
3.24141e-09
-1.20744e-07
3.02902e-08
-4.83746e-08
3.90436e-08
4.97496e-09
-4.99085e-09
-1.20148e-09
1.38675e-09
-7.49402e-09
7.4695e-09
-1.50279e-08
8.05028e-09
-1.58112e-08
4.93478e-09
-3.63962e-09
1.15964e-08
8.484e-09
7.74278e-09
9.61573e-09
8.77018e-09
-5.23135e-09
6.16544e-09
-7.10064e-08
2.53669e-08
-1.0344e-07
4.63992e-08
-2.35044e-08
7.77764e-08
-6.21189e-09
-1.07188e-09
-5.35068e-10
7.24381e-09
-9.71589e-09
6.9081e-09
-1.73481e-08
9.58217e-09
-2.9307e-09
5.2047e-09
-1.20753e-08
7.07174e-10
1.84876e-08
6.72519e-09
9.47315e-09
-1.30192e-09
-2.96486e-08
8.81258e-09
-9.79852e-08
3.32154e-08
-4.10046e-08
4.40187e-08
-2.09653e-08
-4.35784e-09
-5.23449e-10
1.24694e-09
-5.9627e-09
6.93816e-09
-1.24424e-08
7.81856e-09
-1.37488e-08
4.60157e-09
-3.25179e-09
1.01947e-08
6.30752e-09
5.62661e-09
6.70881e-09
6.4076e-09
-6.5181e-09
4.41611e-09
-6.01503e-08
2.37338e-08
-8.73195e-08
4.75685e-08
-6.11404e-08
9.6501e-08
-4.37125e-09
-9.59766e-10
-1.74236e-10
6.2663e-09
-7.81607e-09
6.04794e-09
-1.46082e-08
8.11334e-09
-2.94095e-09
3.91677e-09
-1.15083e-08
-6.56781e-10
1.33512e-08
2.63781e-09
3.96681e-09
-6.21152e-09
-2.83623e-08
1.67856e-09
-8.04012e-08
3.04724e-08
-6.60533e-08
4.34936e-08
-4.29651e-08
9.55083e-08
-3.46821e-09
-7.68364e-10
1.13075e-09
-4.87013e-09
5.89961e-09
-1.01163e-08
6.62629e-09
-1.19949e-08
3.36393e-09
-3.37932e-09
8.18848e-09
4.09804e-09
2.99839e-09
4.57751e-09
4.74471e-09
-5.65036e-09
3.2428e-09
-4.87127e-08
1.7302e-08
-7.27444e-08
3.19893e-08
-2.24037e-08
2.98565e-08
6.24714e-09
-4.56713e-09
-6.90952e-10
-9.76585e-11
5.51535e-09
-6.21444e-09
5.72937e-09
-1.22158e-08
7.66699e-09
-2.86544e-09
2.6532e-09
-1.10395e-08
-1.34504e-09
1.16195e-08
2.90706e-09
5.58881e-09
-2.46023e-09
-2.18044e-08
3.87462e-09
-6.8015e-08
2.62103e-08
-5.91258e-08
3.68051e-08
-9.59993e-09
5.47252e-08
-3.04713e-09
-2.74868e-10
9.73605e-10
-3.75799e-09
5.51614e-09
-8.13329e-09
6.77232e-09
-1.03459e-08
2.93311e-09
-3.70331e-09
6.80188e-09
3.15885e-09
2.23128e-09
3.66471e-09
4.05357e-09
-5.7537e-09
2.66712e-09
-4.38599e-08
1.42632e-08
-6.53796e-08
2.84245e-08
-1.87703e-08
3.24342e-08
7.24724e-09
-3.18061e-09
-6.30194e-10
6.75782e-11
4.74417e-09
-4.69357e-09
5.32389e-09
-9.99062e-09
6.8664e-09
-3.42963e-09
1.51167e-09
-1.02849e-08
-2.0959e-09
9.25207e-09
1.36352e-09
2.87163e-09
-4.99838e-09
-2.14607e-08
4.84057e-10
-6.26307e-08
2.16552e-08
-4.94008e-08
3.3922e-08
1.78184e-09
4.39993e-08
-2.56324e-09
-7.43634e-10
6.04904e-10
-3.15771e-09
4.82546e-09
-6.39948e-09
5.82414e-09
-9.28176e-09
1.31631e-09
-4.18697e-09
5.38884e-09
2.88064e-09
2.50499e-09
1.21047e-09
4.8508e-09
-4.55763e-09
4.7998e-09
-3.89339e-08
1.43832e-08
-5.41451e-08
2.80552e-08
1.25782e-08
2.58998e-08
3.24844e-08
-3.14391e-09
-1.76478e-10
4.11352e-10
4.28943e-09
-3.85149e-09
4.9192e-09
-8.70689e-09
5.74412e-09
-2.93943e-09
1.4639e-09
-8.08019e-09
7.67465e-10
2.7404e-09
7.53419e-09
6.76282e-10
3.28236e-09
-1.99446e-08
8.72985e-09
-4.96802e-08
2.43404e-08
8.3882e-09
3.24549e-08
2.06956e-08
1.35923e-08
1.98869e-08
-2.30526e-09
-7.08526e-10
-1.13599e-10
-2.82699e-09
4.5358e-09
-5.66468e-09
5.91661e-09
-7.41752e-09
8.13168e-10
-3.27324e-09
6.3996e-09
-1.83326e-09
8.94924e-09
-6.02575e-09
1.41844e-08
-1.11698e-08
1.62879e-08
-2.51481e-08
2.60297e-08
9.7702e-09
3.37612e-08
-1.50556e-09
2.43851e-08
-2.43973e-08
2.70114e-08
-2.61457e-09
-5.85205e-10
6.24791e-10
4.18953e-09
-3.87361e-09
4.9121e-09
-7.2113e-09
4.25259e-09
-1.94149e-09
1.93946e-09
-6.9293e-09
2.34937e-09
-1.73867e-10
8.51884e-09
2.82154e-09
4.81641e-09
-2.16518e-09
8.76416e-09
9.65413e-09
1.98814e-08
-6.51968e-09
2.12868e-08
-4.41512e-08
1.70734e-08
-1.76667e-08
-2.18908e-09
-1.11855e-09
-2.62574e-10
-3.00101e-09
4.22037e-09
-4.49858e-09
5.2686e-09
-4.71183e-09
1.17895e-09
-2.07805e-09
6.00684e-09
-1.15394e-09
4.42904e-09
5.51103e-09
2.88984e-09
5.04245e-09
-2.5488e-09
3.03429e-09
1.71832e-09
-7.64982e-09
1.30191e-08
-4.73785e-08
1.51195e-08
-2.08996e-08
2.45193e-08
-2.63868e-09
-6.37551e-10
1.82908e-11
3.38603e-09
-2.56963e-09
4.36779e-09
-4.78447e-09
3.77936e-09
-1.47213e-09
2.37727e-09
-4.71175e-09
2.00898e-09
6.60381e-09
4.70175e-09
8.10137e-09
-3.54369e-11
3.13393e-09
-1.42249e-09
8.63071e-10
4.59617e-09
-3.39338e-08
1.2388e-08
-3.56441e-08
1.48874e-08
-1.38818e-08
-2.03748e-09
-6.97081e-10
2.63605e-10
-1.98818e-09
3.69611e-09
-2.38061e-09
4.93889e-09
-3.32983e-09
2.26569e-09
-8.98835e-10
5.14317e-09
4.10738e-09
2.57265e-09
1.20388e-08
-1.63294e-09
1.18652e-08
-7.01492e-09
1.1876e-08
-6.84955e-09
-2.05339e-08
5.51452e-09
-4.74145e-08
1.46429e-08
-1.48734e-08
2.50106e-08
-2.22532e-09
-6.9074e-10
-1.11631e-10
2.95001e-09
-1.08603e-09
4.00444e-09
-2.91309e-09
4.15058e-09
-1.16137e-09
2.32487e-09
-2.25055e-09
2.93715e-09
7.8088e-09
4.59488e-09
5.83914e-09
1.23218e-09
6.27449e-09
8.46011e-10
-8.52375e-09
7.5173e-09
-3.99163e-08
1.68567e-08
-2.2433e-08
1.57647e-08
-7.47731e-09
-1.49034e-09
-6.48999e-10
9.48293e-10
-1.14718e-09
3.13778e-09
-7.47613e-10
4.7774e-09
-2.78297e-09
3.00466e-09
-3.54869e-10
5.08584e-09
3.83369e-09
5.43656e-09
4.31216e-09
4.70679e-09
2.62752e-09
5.4599e-09
1.85649e-09
1.04801e-08
-2.06135e-08
1.8692e-08
-3.0372e-08
1.786e-08
-3.70008e-09
2.28548e-08
-2.29073e-09
-1.39152e-10
-1.02559e-10
2.60451e-09
-8.38093e-11
3.71798e-09
-1.64204e-09
4.36273e-09
-1.44337e-09
1.90304e-09
-1.67286e-09
5.88502e-09
5.34228e-09
5.26715e-09
4.34012e-09
2.98256e-09
6.22727e-09
3.5921e-09
-8.43141e-09
1.30639e-08
-2.63448e-08
2.19088e-08
2.66796e-09
1.76429e-08
1.02292e-08
-9.92239e-10
-3.8935e-10
1.44755e-09
-5.14584e-10
2.80219e-09
4.42156e-10
4.8037e-09
-2.41956e-09
3.63488e-09
-1.77494e-10
7.13082e-09
3.42906e-09
7.72596e-09
2.34857e-09
5.78428e-09
3.41797e-10
5.98437e-09
-2.22773e-09
1.25663e-08
-1.1544e-08
2.30781e-08
6.28986e-09
2.10551e-08
1.30016e-08
1.11513e-08
1.04015e-08
-1.92885e-09
6.55448e-10
-3.90849e-11
2.25576e-09
7.21747e-10
3.42682e-09
-5.96251e-10
4.15235e-09
-3.41733e-09
1.04454e-09
-3.60657e-09
7.23834e-09
6.22818e-09
4.8944e-09
3.22187e-09
2.95998e-09
1.13036e-09
4.55552e-09
-1.49725e-09
1.44746e-08
8.79916e-09
1.85468e-08
5.7899e-09
1.3146e-08
7.07529e-13
1.47686e-08
1.22073e-09
-1.09859e-09
2.82639e-09
-8.28595e-10
2.0477e-09
1.57968e-09
4.07545e-09
-2.33243e-09
2.74712e-09
-3.72732e-09
8.09905e-09
6.99389e-09
7.48746e-09
8.46888e-09
5.07335e-09
6.53118e-09
3.47683e-09
6.75562e-09
3.15739e-09
7.79e-09
6.49431e-09
1.34652e-09
1.14377e-08
3.80583e-09
1.48489e-08
7.55737e-09
-3.35253e-09
2.78335e-09
-7.55041e-10
1.27805e-09
1.08825e-09
3.34123e-09
2.27111e-09
4.96525e-09
2.5702e-09
6.75365e-09
5.68167e-09
1.09095e-08
1.55627e-08
8.26264e-09
1.26029e-08
6.57547e-09
1.04837e-08
6.02491e-09
8.78014e-09
7.60708e-09
5.95489e-09
1.02474e-08
4.40947e-09
1.52842e-08
1.06424e-08
2.08604e-08
2.80065e-09
3.19875e-10
7.60143e-10
5.54823e-10
1.89433e-09
3.43349e-09
5.4682e-09
3.30617e-09
3.89956e-09
3.92552e-09
9.00583e-09
1.52186e-08
8.31522e-09
1.5518e-08
6.25809e-09
1.45846e-08
7.25171e-09
1.08857e-08
9.67476e-09
1.0927e-08
1.25787e-08
6.98939e-09
1.4705e-08
1.34648e-08
1.53028e-08
1.96684e-08
-1.38597e-10
2.44708e-10
1.36326e-10
4.13146e-10
9.31499e-10
1.36637e-09
9.52376e-10
7.34382e-10
7.06399e-10
2.11737e-09
4.22513e-09
3.61061e-09
6.45096e-09
3.23774e-09
9.30999e-09
3.8741e-09
1.21188e-08
5.94798e-09
1.38692e-08
1.38838e-08
1.25378e-08
2.18396e-08
1.1949e-08
1.91489e-08
1.18868e-08
2.37589e-08
)
;

boundaryField
{
    inlet
    {
        type            extrapolatedCalculated;
        value           nonuniform List<scalar> 
26
(
-1.38597e-10
2.44708e-10
1.36326e-10
4.13146e-10
9.31499e-10
1.36637e-09
9.52376e-10
7.34382e-10
7.06399e-10
2.11737e-09
4.22513e-09
3.61061e-09
6.45096e-09
3.23774e-09
9.30999e-09
3.8741e-09
1.21188e-08
5.94798e-09
1.38692e-08
1.38838e-08
1.25378e-08
2.18396e-08
1.1949e-08
1.91489e-08
1.18868e-08
2.37589e-08
)
;
    }
    outlet
    {
        type            extrapolatedCalculated;
        value           nonuniform List<scalar> 0();
    }
    walls
    {
        type            extrapolatedCalculated;
        value           nonuniform List<scalar> 0();
    }
    frontAndBack
    {
        type            empty;
    }
    procBoundary0to1
    {
        type            processor;
        value           nonuniform List<scalar> 
94
(
-5.9001e-06
5.35982e-06
5.35982e-06
6.02536e-06
6.02536e-06
3.52656e-06
3.52656e-06
1.1366e-06
1.1366e-06
-8.10733e-07
-8.10733e-07
-1.18507e-06
-7.65243e-07
-7.65243e-07
-4.93027e-07
-4.51847e-07
-4.51847e-07
-7.54081e-07
5.62013e-07
-9.97024e-07
-9.97024e-07
-4.03623e-07
-8.03516e-07
-8.03516e-07
-5.72225e-07
1.44017e-07
-4.86009e-07
-4.86009e-07
-3.90345e-07
1.05213e-06
-5.25511e-07
-5.25511e-07
1.29173e-07
-2.04388e-07
-2.04388e-07
-1.7966e-07
1.44217e-07
-5.15565e-07
-5.15565e-07
-3.29253e-07
2.16805e-07
-4.02124e-07
-4.02124e-07
-2.14412e-07
1.72987e-07
-3.55339e-07
-3.55339e-07
-1.81168e-07
2.20307e-07
-2.60595e-07
-2.60595e-07
-1.03751e-07
-5.50441e-08
-1.40522e-07
-1.40522e-07
-6.44629e-08
3.96629e-08
4.41788e-08
-3.42314e-08
-3.42314e-08
8.40558e-09
-3.98459e-08
7.26e-08
-1.2191e-07
-1.2191e-07
-2.96452e-08
5.71548e-08
1.44514e-09
6.83821e-08
-6.30534e-08
-6.30534e-08
-1.55496e-08
4.55218e-08
1.56208e-08
4.45039e-08
2.6241e-08
2.04634e-08
2.04634e-08
1.90942e-08
-1.28991e-08
2.43139e-08
-8.50673e-09
2.12637e-08
-2.96588e-09
1.98721e-08
7.65582e-09
1.67945e-08
1.67945e-08
1.48291e-08
7.70593e-09
2.02077e-08
2.1727e-08
2.87934e-08
3.45802e-08
)
;
    }
    procBoundary0to4
    {
        type            processor;
        value           nonuniform List<scalar> 
72
(
6.62273e-06
9.75065e-06
5.10385e-06
6.27088e-06
2.92947e-07
1.94217e-06
-5.45925e-07
1.26533e-06
-8.22285e-07
3.28267e-07
-6.08466e-07
3.48783e-07
-5.0403e-07
6.85105e-08
-3.38844e-07
1.1275e-07
-2.67185e-07
1.06858e-08
-2.03189e-07
8.53686e-08
-1.3376e-07
3.34581e-08
-7.57826e-08
-7.57826e-08
-5.35335e-08
-9.4506e-08
-4.75096e-08
-7.20582e-08
-4.24013e-08
-5.34731e-08
-3.4019e-08
-4.00695e-08
-2.93613e-08
-2.87488e-08
-2.43018e-08
-2.37267e-08
-2.1136e-08
-1.70122e-08
-1.76628e-08
-1.51764e-08
-1.5293e-08
-1.08658e-08
-1.27743e-08
-1.02338e-08
-1.10806e-08
-7.3724e-09
-9.33145e-09
-7.1934e-09
-8.1615e-09
-5.24842e-09
-6.91993e-09
-5.16303e-09
-6.11243e-09
-3.71724e-09
-5.21638e-09
-3.71474e-09
-4.58933e-09
-2.58433e-09
-3.63912e-09
-2.97948e-09
-3.44732e-09
-2.57009e-09
-2.76376e-09
-2.45754e-09
-2.52908e-09
-2.02236e-09
-2.23677e-09
-1.47274e-09
-2.16153e-09
1.45409e-09
-2.01279e-09
4.00428e-10
)
;
    }
    procBoundary0to5
    {
        type            processor;
        value           nonuniform List<scalar> 4(4.61443e-06 3.26701e-06 -3.66783e-06 7.53976e-06);
    }
}


// ************************************************************************* //
