/*--------------------------------*- C++ -*----------------------------------*\
| =========                 |                                                 |
| \\      /  F ield         | OpenFOAM: The Open Source CFD Toolbox           |
|  \\    /   O peration     | Version:  2506                                  |
|   \\  /    A nd           | Website:  www.openfoam.com                      |
|    \\/     M anipulation  |                                                 |
\*---------------------------------------------------------------------------*/
FoamFile
{
    version     2.0;
    format      ascii;
    arch        "LSB;label=32;scalar=64";
    class       volScalarField;
    location    "250";
    object      turbulenceProperties:L;
}
// * * * * * * * * * * * * * * * * * * * * * * * * * * * * * * * * * * * * * //

dimensions      [0 1 0 0 0 0 0];

internalField   nonuniform List<scalar> 
1340
(
0.00956371
0.00962029
0.00968379
0.00976473
0.00987424
0.0103792
0.010444
0.0105144
0.0106013
0.0107186
0.0108587
0.0112264
0.0112999
0.0113779
0.0114712
0.0115963
0.0117425
0.01191
0.0121089
0.0121909
0.0122771
0.0123772
0.0125101
0.0126625
0.0128332
0.0130258
0.0130284
0.0131197
0.013214
0.0133218
0.0134625
0.0136213
0.0137963
0.0139929
0.0142139
0.0139875
0.0140888
0.0141916
0.0143075
0.0144564
0.0146218
0.0148022
0.0150035
0.0152263
0.0154655
0.0149891
0.0151005
0.0152126
0.0153368
0.0154945
0.0156667
0.0158536
0.0160604
0.0162856
0.0165242
0.0160358
0.0161574
0.0162793
0.0164128
0.0165796
0.0167591
0.0169534
0.0171664
0.0173946
0.0176335
0.0178853
0.0171304
0.0172627
0.0173948
0.0175383
0.0177147
0.0179019
0.0181046
0.0183246
0.0185568
0.018797
0.0190475
0.0182757
0.0184193
0.0185622
0.0187163
0.0189028
0.0190988
0.0193105
0.0195384
0.0197753
0.020018
0.0202682
0.0205283
0.0194751
0.0196305
0.0197848
0.0199499
0.0201469
0.0203532
0.0205746
0.020811
0.0210539
0.0213001
0.0215512
0.0218098
0.0207317
0.0208994
0.0210658
0.0212426
0.0214506
0.0216682
0.0219005
0.0221461
0.0223958
0.0226465
0.0229
0.0231587
0.0220491
0.0222294
0.0224089
0.022598
0.0228177
0.0230475
0.0232914
0.0235473
0.023805
0.0240616
0.0243189
0.0245787
0.0248435
0.0234308
0.0236242
0.0238175
0.0240196
0.024252
0.024495
0.0247514
0.0250187
0.0252855
0.0255492
0.0258116
0.0260746
0.0263402
0.0248805
0.025088
0.0252951
0.0255113
0.0257572
0.0260143
0.0262843
0.0265641
0.0268415
0.0271138
0.0273828
0.02765
0.027918
0.028192
0.0264023
0.0266246
0.0268462
0.0270775
0.0273376
0.0276097
0.0278946
0.0281879
0.0284769
0.0287592
0.0290362
0.0293096
0.0295821
0.029859
0.0280006
0.0282379
0.0284751
0.0287224
0.0289974
0.0292856
0.0295866
0.0298944
0.0301968
0.0304904
0.0307771
0.0310582
0.0313366
0.0316179
0.0296797
0.0299327
0.0301859
0.0304503
0.0307412
0.0310465
0.0313649
0.0316886
0.0320052
0.0323117
0.0326099
0.0329006
0.0331868
0.0334742
0.0337702
0.0314442
0.0317138
0.0319837
0.0322658
0.0325738
0.0328971
0.0332337
0.0335748
0.0339072
0.0342283
0.0345395
0.0348416
0.0351376
0.0354333
0.0357357
0.0332991
0.0335863
0.0338733
0.0341739
0.0345004
0.0348426
0.0351984
0.0355583
0.035908
0.0362451
0.0365709
0.0368861
0.0371937
0.0374995
0.0378109
0.0352499
0.0355553
0.0358602
0.0361799
0.0365262
0.0368882
0.0372644
0.0376441
0.0380127
0.0383673
0.0387096
0.0390398
0.0393606
0.0396782
0.0400003
0.0403334
0.0373017
0.0376261
0.0379499
0.0382894
0.0386564
0.0390394
0.0394369
0.0398377
0.0402265
0.0406003
0.0409608
0.0413073
0.0416439
0.0419756
0.0423095
0.0426536
0.039805
0.0401482
0.0405086
0.040897
0.0413019
0.0417219
0.042145
0.0425551
0.0429496
0.0433298
0.043695
0.0440483
0.0443957
0.0447442
0.0451012
0.0454767
0.042098
0.042461
0.0428433
0.0432542
0.0436817
0.0441251
0.0445717
0.0450044
0.0454208
0.0458221
0.0462075
0.0465796
0.0469447
0.0473093
0.0476808
0.0480699
0.0445116
0.0448954
0.0453001
0.0457344
0.0461853
0.046653
0.0471237
0.0475804
0.0480201
0.0484439
0.0488511
0.0492435
0.0496273
0.0500099
0.0503978
0.0508012
0.047053
0.0474582
0.0478861
0.0483444
0.0488195
0.0493121
0.0498079
0.0502895
0.0507533
0.0512009
0.0516309
0.0520452
0.05245
0.0528515
0.0532569
0.0536765
0.0541224
0.0497297
0.050157
0.0506086
0.0510916
0.0515913
0.0521092
0.0526311
0.0531378
0.0536267
0.054099
0.0545532
0.0549904
0.0554167
0.0558388
0.0562632
0.0567002
0.0571616
0.0525491
0.0529995
0.0534753
0.0539833
0.0545082
0.055052
0.0555999
0.0561327
0.056647
0.0571448
0.0576236
0.0580847
0.0585342
0.0589771
0.0594208
0.0598761
0.0603541
0.0555199
0.0559941
0.0564949
0.0570279
0.057578
0.0581478
0.058722
0.0592806
0.0598208
0.0603446
0.0608486
0.061334
0.0618065
0.0622715
0.0627357
0.0632093
0.0637043
0.0642342
0.0586514
0.0591497
0.059676
0.060234
0.0608092
0.0614051
0.0620052
0.0625893
0.0631553
0.0637046
0.0642339
0.0647443
0.0652401
0.0657273
0.0662115
0.0667036
0.0672153
0.0677605
0.0619529
0.0624759
0.0630279
0.0636108
0.0642108
0.064832
0.0654574
0.0660666
0.0666575
0.0672318
0.0677865
0.0683211
0.0688403
0.0693492
0.0698537
0.070364
0.0708914
0.071451
0.0654347
0.0659829
0.0665604
0.0671681
0.067792
0.0684377
0.0690875
0.0697204
0.0703352
0.0709341
0.0715128
0.072071
0.0726129
0.0731429
0.0736665
0.0741937
0.0747366
0.0753099
0.0759314
0.0691078
0.0696819
0.0702847
0.0709161
0.0715631
0.0722321
0.0729045
0.0735594
0.0741961
0.074818
0.0754198
0.0760005
0.0765641
0.0771139
0.0776556
0.078199
0.0787556
0.0793393
0.0799697
0.0729841
0.0735844
0.0742124
0.074866
0.0755345
0.0762252
0.076918
0.0775926
0.0782495
0.0788919
0.0795149
0.0801162
0.0807
0.0812683
0.0818263
0.0823837
0.082952
0.083545
0.0841825
0.0770765
0.077703
0.0783556
0.0790298
0.0797182
0.0804281
0.0811385
0.0818297
0.0825032
0.083164
0.0838063
0.0844265
0.0850278
0.0856123
0.0861841
0.086754
0.0873319
0.0879314
0.0885718
0.0892773
0.0813987
0.0820518
0.0827274
0.0834207
0.0841263
0.0848524
0.0855763
0.08628
0.0869676
0.0876438
0.0883018
0.0889383
0.0895549
0.0901532
0.0907366
0.0913156
0.0918996
0.0925023
0.0931438
0.0938474
0.0859657
0.0866453
0.0873423
0.0880519
0.0887717
0.0895103
0.0902432
0.090955
0.0916521
0.0923399
0.0930109
0.0936603
0.0942893
0.0948981
0.0954898
0.0960745
0.0966618
0.0972653
0.0979041
0.0986002
0.0907937
0.0914996
0.092216
0.0929383
0.0936692
0.0944153
0.0951513
0.0958657
0.0965674
0.0972628
0.0979428
0.0986015
0.099239
0.0998548
0.100452
0.101039
0.101626
0.102226
0.102857
0.103542
0.104311
0.0959002
0.096632
0.0973653
0.0980961
0.0988335
0.0995815
0.100314
0.101024
0.101725
0.102423
0.103108
0.103772
0.104413
0.105032
0.10563
0.106215
0.106797
0.10739
0.108011
0.108682
0.109431
0.101305
0.102061
0.102809
0.103543
0.104281
0.105024
0.105744
0.106443
0.107138
0.107833
0.108517
0.109181
0.109822
0.110438
0.111032
0.111611
0.112185
0.112766
0.113372
0.114024
0.114749
0.107028
0.107808
0.108566
0.109297
0.11003
0.110759
0.111456
0.112137
0.112817
0.113503
0.114181
0.114839
0.115473
0.116082
0.116667
0.117235
0.117795
0.118361
0.118948
0.119577
0.120273
0.113094
0.113896
0.114658
0.115379
0.1161
0.116803
0.117467
0.118119
0.118778
0.119447
0.120111
0.120756
0.121378
0.121973
0.122543
0.123095
0.123638
0.124184
0.124749
0.125352
0.126018
0.126782
0.119527
0.120349
0.121109
0.121812
0.122511
0.123176
0.123792
0.124405
0.125034
0.125678
0.12632
0.126944
0.127545
0.12812
0.128671
0.129203
0.129726
0.130248
0.130788
0.131363
0.131996
0.13272
0.126357
0.127195
0.127945
0.128621
0.129287
0.129895
0.130449
0.131012
0.1316
0.132209
0.132818
0.133413
0.133987
0.134537
0.135064
0.135573
0.136071
0.13657
0.137084
0.13763
0.138231
0.138918
0.133613
0.134465
0.135195
0.135831
0.136451
0.136984
0.137457
0.137958
0.138492
0.139053
0.13962
0.140177
0.140718
0.141239
0.14174
0.142225
0.1427
0.143176
0.143665
0.144184
0.144755
0.145407
0.141331
0.142193
0.14289
0.143474
0.144029
0.144462
0.144837
0.145262
0.145725
0.146224
0.146738
0.14725
0.147755
0.148248
0.148724
0.149188
0.149645
0.150101
0.15057
0.151067
0.151613
0.152236
0.15297
0.14955
0.150416
0.151065
0.151582
0.152052
0.152354
0.152609
0.152943
0.153317
0.153736
0.154188
0.154654
0.155126
0.155595
0.156054
0.156505
0.156948
0.157392
0.157847
0.158329
0.158856
0.159456
0.160162
0.158313
0.159176
0.159758
0.160192
0.160548
0.160684
0.1608
0.161023
0.161281
0.161605
0.161992
0.162417
0.162865
0.163322
0.163775
0.164221
0.164661
0.165099
0.165547
0.166019
0.166533
0.167116
0.167798
0.16767
0.168521
0.169014
0.169344
0.169553
0.169481
0.169437
0.169525
0.169631
0.169848
0.170178
0.170576
0.171017
0.171476
0.171935
0.172386
0.172828
0.173265
0.173708
0.174173
0.174675
0.17524
0.175899
0.177676
0.178505
0.178881
0.179084
0.1791
0.178774
0.178552
0.178471
0.178382
0.178487
0.178781
0.179176
0.179626
0.1801
0.180572
0.18103
0.181474
0.181908
0.182344
0.182796
0.18328
0.183823
0.184452
0.188394
0.189186
0.189413
0.189461
0.189228
0.188595
0.188179
0.187883
0.187547
0.187554
0.187848
0.188262
0.188731
0.189221
0.1897
0.190156
0.190591
0.191012
0.191431
0.191861
0.19232
0.192832
0.193425
0.194108
0.199899
0.200634
0.200673
0.200533
0.199975
0.198983
0.198358
0.197775
0.197136
0.197089
0.197427
0.197868
0.198344
0.198831
0.199298
0.199736
0.200149
0.200545
0.200938
0.201342
0.201773
0.202255
0.202815
0.203462
0.212272
0.212928
0.212735
0.212367
0.211389
0.209988
0.209131
0.208152
0.207148
0.207133
0.207562
0.208005
0.208448
0.208903
0.209339
0.209746
0.210132
0.210506
0.21088
0.211268
0.211685
0.212156
0.212705
0.213345
0.225605
0.226152
0.225677
0.225035
0.223524
0.221678
0.220562
0.219038
0.217592
0.217712
0.218256
0.218643
0.219005
0.219414
0.219826
0.220221
0.220603
0.220983
0.22137
0.221775
0.222213
0.222709
0.22329
0.223968
0.239999
0.240389
0.239574
0.238597
0.236414
0.234105
0.232713
0.230515
0.228539
0.228852
0.229469
0.229726
0.229995
0.230395
0.230839
0.23128
0.231718
0.23216
0.232611
0.233081
0.233587
0.234153
0.234814
0.235577
0.255574
0.255751
0.254519
0.253106
0.25007
0.247278
0.245574
0.242587
0.240042
0.240616
0.241214
0.241278
0.241516
0.242012
0.242574
0.243133
0.24369
0.244247
0.244811
0.245391
0.246004
0.246678
0.247454
0.248338
0.272453
0.272372
0.270651
0.268668
0.264576
0.261264
0.259144
0.25493
0.25169
0.253041
0.25371
0.2535
0.25379
0.254511
0.255274
0.255995
0.256704
0.257405
0.258103
0.258806
0.259541
0.260341
0.261248
0.26227
0.263366
0.29048
0.290121
0.287933
0.285314
0.280081
0.27638
0.273859
0.267699
0.262865
0.2659
0.267129
0.266459
0.26674
0.267745
0.268743
0.269628
0.270486
0.271339
0.272175
0.273008
0.273873
0.274807
0.275855
0.277033
0.278295
0.307936
0.307375
0.304979
0.302006
0.296022
0.292696
0.290459
0.281796
0.274752
0.279569
0.281324
0.279868
0.279801
0.280869
0.281975
0.282926
0.283853
0.284794
0.285727
0.286662
0.287629
0.288677
0.289858
0.291187
0.292613
0.324249
0.323601
0.321285
0.318308
0.312209
0.310143
0.308364
0.29893
0.289488
0.294642
0.296131
0.29382
0.293061
0.293827
0.294848
0.295752
0.296643
0.297567
0.298513
0.299478
0.300484
0.301581
0.302835
0.304263
0.305801
0.341698
0.340963
0.338779
0.335701
0.329618
0.328999
0.327013
0.318288
0.306934
0.311016
0.311774
0.308867
0.307364
0.307643
0.308472
0.309295
0.310122
0.311002
0.311922
0.312875
0.313881
0.31499
0.316272
0.317759
0.319375
0.361787
0.360956
0.358965
0.35558
0.349718
0.350402
0.347589
0.340035
0.326129
0.328356
0.328243
0.325043
0.322959
0.322747
0.323332
0.324025
0.324747
0.325563
0.326461
0.327411
0.328423
0.329552
0.330864
0.33242
0.334149
0.384593
0.383694
0.381963
0.378075
0.372809
0.374367
0.37043
0.364465
0.347094
0.346853
0.345554
0.342087
0.339507
0.338872
0.339268
0.339822
0.340355
0.340986
0.341774
0.342687
0.343713
0.344881
0.346272
0.347949
0.349858
0.410619
0.409779
0.408446
0.40393
0.399798
0.401202
0.396304
0.391856
0.369512
0.36626
0.363608
0.359802
0.356597
0.355435
0.35574
0.356474
0.357153
0.357771
0.358446
0.359255
0.360254
0.361493
0.363081
0.365059
0.36737
0.440196
0.439726
0.439105
0.434202
0.432037
0.431471
0.426625
0.422392
0.392896
0.38604
0.381887
0.378022
0.374528
0.372694
0.372379
0.373018
0.374165
0.375536
0.376933
0.378283
0.379665
0.381262
0.383349
0.386178
0.38977
0.473637
0.474012
0.47464
0.470357
0.471624
0.466948
0.465222
0.456904
0.416716
0.405827
0.399176
0.395332
0.393302
0.393005
0.393167
0.393174
0.393381
0.394422
0.396443
0.399169
0.402327
0.405856
0.409957
0.414917
0.420872
0.427835
0.511552
0.513366
0.516006
0.514333
0.520964
0.510765
0.519492
0.495168
0.439943
0.427209
0.416713
0.411374
0.410747
0.414355
0.420037
0.425026
0.427796
0.428799
0.429533
0.431236
0.434541
0.43968
0.446839
0.455947
0.466678
0.478569
0.554397
0.559163
0.566169
0.570649
0.58363
0.566145
0.594258
0.523829
0.458519
0.449192
0.436473
0.432176
0.430893
0.431652
0.437995
0.45063
0.465648
0.477459
0.482453
0.480769
0.475123
0.468692
0.464943
0.466862
0.474361
0.484456
0.598155
0.610041
0.629745
0.651362
0.674016
0.642702
0.67368
0.520999
0.467586
0.450667
0.42119
0.414466
0.422381
0.436465
0.446507
0.444545
0.434923
0.426519
0.422714
0.422418
0.42366
0.424406
0.421534
0.411703
0.396219
0.37981
0.6304
0.653443
0.699502
0.771717
0.843856
0.790115
0.743413
0.517603
0.49521
0.458211
0.405548
0.372305
0.345848
0.323807
0.306969
0.294878
0.286553
0.280284
0.27458
0.268727
0.262607
0.256411
0.250464
0.245408
0.241762
0.239043
0.647098
0.677041
0.745912
0.897548
1.22981
1.12511
0.786661
0.595578
0.494893
0.334485
0.270715
0.236521
0.217013
0.20559
0.198928
0.194836
0.191883
0.189225
0.186604
0.184058
0.181703
0.179541
0.177467
0.175195
0.172968
0.171153
)
;

boundaryField
{
    inlet
    {
        type            calculated;
        value           nonuniform List<scalar> 
26
(
0.703127
0.734792
0.80934
0.982143
1.44421
1.21071
0.786985
0.75874
0.358444
0.250491
0.199264
0.170476
0.152842
0.141373
0.133714
0.128415
0.124601
0.121718
0.119396
0.117394
0.115558
0.113751
0.111842
0.10976
0.107675
0.105795
)
;
    }
    outlet
    {
        type            calculated;
        value           nonuniform List<scalar> 0();
    }
    walls
    {
        type            calculated;
        value           nonuniform List<scalar> 0();
    }
    frontAndBack
    {
        type            empty;
    }
    procBoundary0to1
    {
        type            processor;
        value           nonuniform List<scalar> 
94
(
0.00906137
0.0100087
0.0100087
0.0110241
0.0110241
0.0120996
0.0120996
0.0132456
0.0132456
0.0144547
0.0144547
0.0157235
0.0167784
0.0167784
0.0181527
0.0193106
0.0193106
0.0208003
0.0220777
0.0234244
0.0234244
0.0251182
0.0266138
0.0266138
0.0284802
0.0301475
0.0319093
0.0319093
0.0340824
0.0360527
0.0381347
0.0381347
0.0406878
0.0430175
0.0430175
0.045882
0.0484866
0.0512319
0.0512319
0.0546073
0.0576608
0.0608689
0.0608689
0.0648185
0.0683583
0.0720616
0.0720616
0.0766256
0.080671
0.0848881
0.0848881
0.0900794
0.0946422
0.0993837
0.0993837
0.105203
0.110296
0.115583
0.121074
0.121074
0.127685
0.133577
0.139728
0.146176
0.146176
0.153833
0.16099
0.168596
0.176665
0.185179
0.185179
0.194868
0.204184
0.214059
0.224721
0.236414
0.249291
0.249291
0.264485
0.279568
0.29405
0.307354
0.321026
0.335956
0.351921
0.369912
0.393912
0.393912
0.435836
0.491228
0.494349
0.365117
0.236703
0.169755
)
;
    }
    procBoundary0to4
    {
        type            processor;
        value           nonuniform List<scalar> 
72
(
0.00952022
0.0103272
0.011165
0.0120381
0.0129479
0.0138972
0.0148884
0.0159241
0.0170073
0.0181412
0.0193284
0.0205722
0.0218763
0.023244
0.0246792
0.0261857
0.0277678
0.0294299
0.0311769
0.0330132
0.0349442
0.0369756
0.0394607
0.0394607
0.0417328
0.0441248
0.0466437
0.0492967
0.052092
0.0550381
0.058144
0.0614192
0.064874
0.0685199
0.0723685
0.0764327
0.0807265
0.0852651
0.0900647
0.0951431
0.10052
0.106216
0.112255
0.118663
0.125468
0.132701
0.140398
0.148599
0.157347
0.166692
0.17669
0.187406
0.198914
0.211298
0.224653
0.239083
0.254708
0.27165
0.28973
0.307186
0.323477
0.340921
0.361005
0.383802
0.409782
0.439222
0.472359
0.509685
0.551319
0.592753
0.62219
0.637366
)
;
    }
    procBoundary0to5
    {
        type            processor;
        value           nonuniform List<scalar> 4(0.00878113 0.00882891 0.0088852 0.00895959);
    }
}


// ************************************************************************* //
