/*--------------------------------*- C++ -*----------------------------------*\
| =========                 |                                                 |
| \\      /  F ield         | OpenFOAM: The Open Source CFD Toolbox           |
|  \\    /   O peration     | Version:  2506                                  |
|   \\  /    A nd           | Website:  www.openfoam.com                      |
|    \\/     M anipulation  |                                                 |
\*---------------------------------------------------------------------------*/
FoamFile
{
    version     2.0;
    format      ascii;
    arch        "LSB;label=32;scalar=64";
    class       volScalarField;
    location    "250";
    object      turbulenceProperties:I;
}
// * * * * * * * * * * * * * * * * * * * * * * * * * * * * * * * * * * * * * //

dimensions      [0 0 0 0 0 0 0];

internalField   nonuniform List<scalar> 
1340
(
0.000809549
0.000837892
0.000867249
0.000900708
0.000936835
0.000740418
0.000763314
0.000786809
0.000813409
0.000841619
0.000868238
0.000679304
0.000697904
0.000716814
0.000738165
0.000760458
0.000781233
0.000800031
0.000624985
0.000640186
0.000655505
0.000672772
0.000690584
0.00070701
0.000721866
0.000733328
0.000576537
0.000588996
0.000601484
0.000615529
0.000629888
0.000643023
0.000654872
0.000663911
0.000668283
0.000533134
0.000543369
0.000553597
0.000565086
0.000576738
0.000587335
0.000596849
0.000604043
0.000607511
0.00060686
0.000494084
0.000502522
0.000510911
0.000520359
0.000529863
0.000538477
0.000546154
0.000551907
0.000554671
0.00055415
0.000458814
0.000465792
0.000472691
0.000480472
0.000488261
0.000495299
0.000501513
0.000506129
0.000508334
0.000507894
0.000504855
0.000426848
0.00043262
0.000438302
0.000444722
0.000451122
0.000456896
0.000461931
0.000465639
0.00046739
0.000466991
0.000464493
0.000397775
0.000402546
0.000407225
0.000412527
0.0004178
0.000422535
0.000426619
0.000429592
0.000430972
0.000430588
0.000428501
0.000424827
0.000371245
0.000375185
0.000379031
0.000383412
0.000387763
0.000391632
0.000394943
0.000397322
0.000398386
0.000398
0.000396224
0.000393153
0.000346964
0.000350211
0.000353362
0.00035698
0.000360569
0.00036372
0.000366391
0.000368283
0.000369088
0.000368691
0.00036715
0.000364543
0.000324679
0.000327349
0.000329915
0.000332896
0.00033585
0.000338407
0.000340549
0.000342039
0.000342622
0.000342204
0.000340838
0.000338602
0.000335597
0.000304174
0.00030636
0.000308437
0.000310883
0.000313304
0.000315363
0.000317068
0.000318219
0.000318616
0.000318174
0.000316944
0.000314993
0.00031241
0.000285264
0.000287037
0.000288712
0.000290704
0.000292677
0.000294321
0.000295659
0.000296527
0.000296761
0.000296292
0.000295166
0.000293445
0.000291201
0.000288496
0.000267785
0.000269209
0.000270544
0.000272154
0.000273751
0.000275046
0.000276074
0.000276706
0.000276804
0.000276307
0.000275262
0.000273721
0.000271746
0.000269387
0.000251594
0.000252727
0.000253774
0.000255058
0.000256339
0.000257341
0.000258109
0.000258544
0.000258523
0.000258001
0.000257017
0.000255622
0.000253865
0.00025179
0.000236569
0.000237457
0.000238263
0.000239271
0.000240283
0.000241039
0.000241586
0.000241854
0.000241736
0.00024119
0.000240254
0.000238974
0.000237395
0.000235552
0.00023346
0.000222604
0.000223282
0.000223886
0.000224662
0.000225445
0.000225995
0.000226359
0.000226485
0.000226283
0.000225715
0.000224818
0.000223632
0.000222197
0.000220543
0.000218685
0.000209601
0.000210101
0.000210536
0.000211117
0.000211704
0.000212081
0.000212293
0.0002123
0.000212027
0.000211441
0.000210576
0.000209469
0.000208152
0.000206656
0.000204988
0.000197476
0.000197826
0.000198119
0.000198537
0.000198956
0.00019919
0.000199275
0.000199183
0.000198851
0.00019825
0.000197411
0.000196369
0.000195154
0.000193789
0.000192281
0.000190632
0.000186156
0.000186379
0.000186552
0.000186833
0.000187112
0.000187224
0.000187205
0.000187032
0.000186651
0.000186039
0.000185224
0.000184239
0.000183106
0.00018185
0.00018048
0.000178992
0.000175688
0.000175762
0.000175928
0.000176089
0.000176102
0.000175996
0.000175756
0.000175337
0.000174719
0.000173925
0.000172988
0.000171928
0.000170767
0.000169511
0.000168158
0.00016669
0.000165691
0.000165685
0.000165753
0.000165816
0.000165747
0.000165571
0.000165278
0.00016483
0.000164208
0.000163436
0.000162542
0.000161546
0.000160466
0.000159308
0.000158072
0.000156738
0.000156333
0.00015626
0.000156248
0.00015623
0.000156095
0.000155863
0.000155528
0.000155058
0.000154438
0.000153687
0.000152832
0.000151893
0.000150885
0.000149813
0.000148677
0.000147463
0.000147563
0.000147435
0.000147358
0.000147274
0.000147085
0.000146809
0.000146444
0.00014596
0.000145344
0.000144616
0.000143799
0.000142911
0.000141966
0.00014097
0.000139924
0.000138812
0.000137614
0.000139336
0.000139163
0.000139034
0.000138896
0.000138666
0.000138358
0.000137969
0.000137479
0.000136872
0.000136167
0.000135386
0.000134546
0.00013366
0.000132732
0.000131763
0.000130742
0.00012965
0.000131611
0.000131403
0.000131231
0.000131052
0.00013079
0.000130459
0.000130056
0.000129564
0.00012897
0.00012829
0.000127546
0.000126751
0.000125916
0.000125052
0.000124156
0.000123215
0.000122216
0.000124352
0.000124115
0.000123911
0.0001237
0.000123416
0.000123069
0.000122659
0.000122171
0.000121594
0.00012094
0.000120231
0.00011948
0.000118697
0.00011789
0.000117058
0.000116191
0.000115275
0.000114291
0.000117523
0.000117266
0.000117036
0.000116802
0.000116504
0.000116148
0.000115738
0.00011526
0.000114701
0.000114076
0.000113403
0.000112693
0.000111959
0.000111206
0.000110434
0.000109636
0.000108796
0.000107899
0.000111095
0.000110823
0.000110575
0.000110325
0.000110019
0.000109662
0.000109257
0.000108792
0.000108256
0.000107661
0.000107024
0.000106356
0.000105668
0.000104966
0.000104251
0.000103514
0.000102746
0.000101928
0.000105039
0.000104758
0.000104498
0.000104239
0.00010393
0.000103577
0.000103182
0.000102734
0.000102224
0.000101661
0.00010106
0.000100433
9.97905e-05
9.91375e-05
9.84757e-05
9.77984e-05
9.70945e-05
9.63492e-05
9.55426e-05
9.9331e-05
9.90435e-05
9.87769e-05
9.85144e-05
9.82093e-05
9.7864e-05
9.74829e-05
9.70565e-05
9.65744e-05
9.60438e-05
9.54802e-05
9.48944e-05
9.42953e-05
9.36898e-05
9.30784e-05
9.24558e-05
9.18126e-05
9.11362e-05
9.04068e-05
9.39462e-05
9.36565e-05
9.33877e-05
9.31268e-05
9.28292e-05
9.24962e-05
9.21331e-05
9.17307e-05
9.12782e-05
9.07822e-05
9.0256e-05
8.97108e-05
8.91544e-05
8.85943e-05
8.80315e-05
8.7461e-05
8.68747e-05
8.62612e-05
8.56023e-05
8.88631e-05
8.85747e-05
8.83074e-05
8.80525e-05
8.77658e-05
8.74486e-05
8.71068e-05
8.6731e-05
8.63105e-05
8.58494e-05
8.53606e-05
8.48552e-05
8.43412e-05
8.38253e-05
8.33092e-05
8.27876e-05
8.22544e-05
8.16998e-05
8.11076e-05
8.04584e-05
8.4062e-05
8.37773e-05
8.35157e-05
8.32695e-05
8.29972e-05
8.26988e-05
8.23815e-05
8.20348e-05
8.16466e-05
8.1221e-05
8.07704e-05
8.03043e-05
7.98313e-05
7.9358e-05
7.88864e-05
7.84118e-05
7.79295e-05
7.743e-05
7.68986e-05
7.63179e-05
7.95245e-05
7.92457e-05
7.89928e-05
7.87587e-05
7.85034e-05
7.82265e-05
7.79359e-05
7.76198e-05
7.72654e-05
7.68757e-05
7.64624e-05
7.60352e-05
7.56022e-05
7.51702e-05
7.47414e-05
7.43119e-05
7.38771e-05
7.34285e-05
7.29536e-05
7.24377e-05
7.52336e-05
7.49627e-05
7.47209e-05
7.45018e-05
7.42652e-05
7.40122e-05
7.37505e-05
7.34665e-05
7.31465e-05
7.27925e-05
7.24163e-05
7.20273e-05
7.16335e-05
7.12414e-05
7.08533e-05
7.04663e-05
7.00764e-05
6.9676e-05
6.92543e-05
6.87974e-05
6.82876e-05
7.11737e-05
7.09122e-05
7.06837e-05
7.04819e-05
7.0266e-05
7.00387e-05
6.98078e-05
6.95567e-05
6.92712e-05
6.89529e-05
6.8613e-05
6.82614e-05
6.79058e-05
6.75523e-05
6.72033e-05
6.68572e-05
6.65097e-05
6.61541e-05
6.57808e-05
6.53782e-05
6.49306e-05
6.73301e-05
6.70796e-05
6.68659e-05
6.66835e-05
6.64898e-05
6.629e-05
6.60914e-05
6.58738e-05
6.56226e-05
6.53397e-05
6.50356e-05
6.47203e-05
6.44017e-05
6.40857e-05
6.37746e-05
6.34667e-05
6.31588e-05
6.28451e-05
6.25174e-05
6.21646e-05
6.17734e-05
6.36892e-05
6.3451e-05
6.32538e-05
6.30924e-05
6.29218e-05
6.27512e-05
6.25863e-05
6.24025e-05
6.21852e-05
6.19368e-05
6.16679e-05
6.13883e-05
6.11057e-05
6.08257e-05
6.05507e-05
6.02792e-05
6.00086e-05
5.97337e-05
5.94475e-05
5.91404e-05
5.88007e-05
6.02385e-05
6.00136e-05
5.98345e-05
5.9695e-05
5.95487e-05
5.94091e-05
5.92784e-05
5.91285e-05
5.89447e-05
5.87302e-05
5.84959e-05
5.8251e-05
5.80032e-05
5.77579e-05
5.75172e-05
5.72801e-05
5.70441e-05
5.6805e-05
5.65566e-05
5.62907e-05
5.5997e-05
5.56613e-05
5.69663e-05
5.67554e-05
5.65956e-05
5.64791e-05
5.63582e-05
5.62508e-05
5.61554e-05
5.60386e-05
5.58878e-05
5.57067e-05
5.55061e-05
5.52953e-05
5.50812e-05
5.48689e-05
5.46604e-05
5.44548e-05
5.42505e-05
5.40442e-05
5.383e-05
5.36008e-05
5.33483e-05
5.30596e-05
5.38617e-05
5.36655e-05
5.35262e-05
5.34333e-05
5.33386e-05
5.3265e-05
5.32051e-05
5.31209e-05
5.30024e-05
5.28542e-05
5.26869e-05
5.2509e-05
5.23268e-05
5.21452e-05
5.19664e-05
5.17899e-05
5.16143e-05
5.14368e-05
5.12526e-05
5.10559e-05
5.08389e-05
5.05907e-05
5.09145e-05
5.07334e-05
5.06159e-05
5.0547e-05
5.04792e-05
5.04409e-05
5.04167e-05
5.03641e-05
5.02776e-05
5.01621e-05
5.00269e-05
4.98803e-05
4.97279e-05
4.95744e-05
4.9422e-05
4.92708e-05
4.912e-05
4.89673e-05
4.8809e-05
4.86398e-05
4.8453e-05
4.82396e-05
4.81151e-05
4.79494e-05
4.78548e-05
4.78101e-05
4.77703e-05
4.77689e-05
4.778e-05
4.7758e-05
4.77034e-05
4.76201e-05
4.75159e-05
4.73981e-05
4.72723e-05
4.71429e-05
4.70128e-05
4.68828e-05
4.67526e-05
4.66204e-05
4.64833e-05
4.63368e-05
4.6175e-05
4.59901e-05
4.57723e-05
4.54545e-05
4.53048e-05
4.52341e-05
4.52135e-05
4.52029e-05
4.524e-05
4.52852e-05
4.52929e-05
4.52706e-05
4.52191e-05
4.51435e-05
4.50509e-05
4.49471e-05
4.48371e-05
4.47246e-05
4.4611e-05
4.44968e-05
4.43809e-05
4.42606e-05
4.41321e-05
4.39908e-05
4.38295e-05
4.36395e-05
4.29245e-05
4.2791e-05
4.27451e-05
4.27485e-05
4.27686e-05
4.28456e-05
4.29235e-05
4.296e-05
4.29712e-05
4.29503e-05
4.28995e-05
4.28269e-05
4.27396e-05
4.26435e-05
4.25435e-05
4.24419e-05
4.23397e-05
4.22363e-05
4.21294e-05
4.20157e-05
4.18911e-05
4.17494e-05
4.1583e-05
4.05172e-05
4.04003e-05
4.03799e-05
4.04071e-05
4.04596e-05
4.05779e-05
4.06861e-05
4.07514e-05
4.0798e-05
4.08051e-05
4.07732e-05
4.07141e-05
4.06373e-05
4.05501e-05
4.04586e-05
4.03658e-05
4.0273e-05
4.01799e-05
4.00843e-05
3.99833e-05
3.98733e-05
3.9749e-05
3.96038e-05
3.82253e-05
3.81253e-05
3.81312e-05
3.81818e-05
3.8269e-05
3.84292e-05
3.85647e-05
3.86598e-05
3.87442e-05
3.87749e-05
3.87541e-05
3.87018e-05
3.86305e-05
3.85489e-05
3.84637e-05
3.83786e-05
3.82947e-05
3.82112e-05
3.81264e-05
3.80379e-05
3.79422e-05
3.78345e-05
3.77091e-05
3.6042e-05
3.59593e-05
3.5992e-05
3.60658e-05
3.61907e-05
3.63924e-05
3.65515e-05
3.66791e-05
3.68034e-05
3.68504e-05
3.6832e-05
3.67814e-05
3.67137e-05
3.66373e-05
3.65593e-05
3.64829e-05
3.64089e-05
3.63362e-05
3.6263e-05
3.61871e-05
3.61054e-05
3.60136e-05
3.5907e-05
3.57837e-05
3.39604e-05
3.38957e-05
3.39557e-05
3.40525e-05
3.42186e-05
3.44606e-05
3.46398e-05
3.48045e-05
3.49701e-05
3.50224e-05
3.49982e-05
3.49484e-05
3.48865e-05
3.48183e-05
3.47502e-05
3.46847e-05
3.46219e-05
3.45605e-05
3.44988e-05
3.44347e-05
3.43656e-05
3.42877e-05
3.41968e-05
3.4091e-05
3.19747e-05
3.19283e-05
3.20156e-05
3.21353e-05
3.23465e-05
3.26258e-05
3.28228e-05
3.30332e-05
3.32406e-05
3.32832e-05
3.32473e-05
3.32026e-05
3.31524e-05
3.30964e-05
3.304e-05
3.29858e-05
3.29333e-05
3.28814e-05
3.28286e-05
3.27731e-05
3.27127e-05
3.26441e-05
3.25633e-05
3.24688e-05
3.00799e-05
3.00525e-05
3.01664e-05
3.03088e-05
3.05685e-05
3.08795e-05
3.10922e-05
3.13585e-05
3.16096e-05
3.1629e-05
3.15806e-05
3.15489e-05
3.15157e-05
3.14719e-05
3.14245e-05
3.13775e-05
3.13305e-05
3.12829e-05
3.12335e-05
3.11809e-05
3.11234e-05
3.10578e-05
3.09805e-05
3.08898e-05
2.82716e-05
2.82647e-05
2.84049e-05
2.85704e-05
2.88822e-05
2.92169e-05
2.94423e-05
2.97672e-05
3.00632e-05
3.00563e-05
3.00038e-05
2.99925e-05
2.9975e-05
2.99367e-05
2.98899e-05
2.98416e-05
2.97922e-05
2.97413e-05
2.96885e-05
2.96328e-05
2.95725e-05
2.95045e-05
2.94249e-05
2.93326e-05
2.65451e-05
2.65603e-05
2.67268e-05
2.69187e-05
2.72873e-05
2.76396e-05
2.78764e-05
2.82585e-05
2.85936e-05
2.8557e-05
2.85125e-05
2.85255e-05
2.85136e-05
2.8468e-05
2.84121e-05
2.8355e-05
2.82967e-05
2.82376e-05
2.81772e-05
2.81147e-05
2.80484e-05
2.79751e-05
2.78906e-05
2.77945e-05
2.48975e-05
2.49335e-05
2.51246e-05
2.53469e-05
2.57752e-05
2.61411e-05
2.63949e-05
2.68654e-05
2.72443e-05
2.71285e-05
2.70811e-05
2.71224e-05
2.71065e-05
2.70416e-05
2.69704e-05
2.6902e-05
2.6834e-05
2.67661e-05
2.66983e-05
2.66296e-05
2.65577e-05
2.64795e-05
2.63908e-05
2.6291e-05
2.61843e-05
2.33499e-05
2.3403e-05
2.36085e-05
2.38568e-05
2.43337e-05
2.46943e-05
2.49567e-05
2.55611e-05
2.60628e-05
2.57929e-05
2.56965e-05
2.57784e-05
2.57653e-05
2.568e-05
2.55938e-05
2.55171e-05
2.54422e-05
2.53671e-05
2.52935e-05
2.52201e-05
2.5144e-05
2.50617e-05
2.49697e-05
2.48666e-05
2.47565e-05
2.20245e-05
2.20855e-05
2.22828e-05
2.25293e-05
2.30115e-05
2.33032e-05
2.35123e-05
2.42597e-05
2.49109e-05
2.45097e-05
2.43786e-05
2.45224e-05
2.45421e-05
2.44602e-05
2.43733e-05
2.42986e-05
2.42252e-05
2.41501e-05
2.40755e-05
2.40007e-05
2.39235e-05
2.38398e-05
2.37458e-05
2.36405e-05
2.35281e-05
2.09152e-05
2.09751e-05
2.1147e-05
2.13681e-05
2.18084e-05
2.19793e-05
2.21297e-05
2.2847e-05
2.36188e-05
2.32351e-05
2.31409e-05
2.33401e-05
2.34147e-05
2.33653e-05
2.32936e-05
2.32298e-05
2.3166e-05
2.3099e-05
2.30301e-05
2.29597e-05
2.28863e-05
2.28063e-05
2.27151e-05
2.26116e-05
2.25007e-05
1.9846e-05
1.99043e-05
2.00503e-05
2.0254e-05
2.0647e-05
2.07074e-05
2.08516e-05
2.14377e-05
2.22547e-05
2.1993e-05
2.19628e-05
2.21868e-05
2.23095e-05
2.2301e-05
2.22504e-05
2.21986e-05
2.21454e-05
2.20877e-05
2.20269e-05
2.19636e-05
2.18966e-05
2.18228e-05
2.17376e-05
2.1639e-05
2.15323e-05
1.8743e-05
1.87992e-05
1.89184e-05
1.9115e-05
1.94513e-05
1.94311e-05
1.96023e-05
2.00492e-05
2.09257e-05
2.08145e-05
2.08455e-05
2.10681e-05
2.12181e-05
2.12437e-05
2.12146e-05
2.11766e-05
2.11355e-05
2.10875e-05
2.10337e-05
2.09765e-05
2.09152e-05
2.08468e-05
2.07673e-05
2.06733e-05
2.05692e-05
1.76306e-05
1.76827e-05
1.77751e-05
1.79714e-05
1.82382e-05
1.81768e-05
1.838e-05
1.86903e-05
1.96452e-05
1.96894e-05
1.97876e-05
2.00054e-05
2.01713e-05
2.02206e-05
2.02062e-05
2.01804e-05
2.01548e-05
2.01223e-05
2.00801e-05
2.00303e-05
1.99738e-05
1.99093e-05
1.98325e-05
1.974e-05
1.96351e-05
1.65124e-05
1.65549e-05
1.66188e-05
1.68153e-05
1.69994e-05
1.69513e-05
1.71677e-05
1.73711e-05
1.84393e-05
1.8633e-05
1.8793e-05
1.90089e-05
1.91932e-05
1.92672e-05
1.92597e-05
1.92271e-05
1.91963e-05
1.91678e-05
1.91357e-05
1.90962e-05
1.90465e-05
1.89843e-05
1.89043e-05
1.8805e-05
1.86894e-05
1.54023e-05
1.54255e-05
1.54549e-05
1.56377e-05
1.5724e-05
1.57534e-05
1.59367e-05
1.61047e-05
1.733e-05
1.76669e-05
1.78829e-05
1.80824e-05
1.82641e-05
1.83649e-05
1.83892e-05
1.83646e-05
1.83139e-05
1.82516e-05
1.81878e-05
1.81263e-05
1.80635e-05
1.79908e-05
1.78958e-05
1.77677e-05
1.76068e-05
1.43143e-05
1.4308e-05
1.42947e-05
1.4431e-05
1.43981e-05
1.45486e-05
1.46054e-05
1.48796e-05
1.63293e-05
1.67955e-05
1.70989e-05
1.72816e-05
1.73832e-05
1.74067e-05
1.74077e-05
1.74141e-05
1.74104e-05
1.7369e-05
1.72844e-05
1.71698e-05
1.70382e-05
1.6893e-05
1.6727e-05
1.653e-05
1.6299e-05
1.60362e-05
1.3253e-05
1.32097e-05
1.3146e-05
1.31931e-05
1.30293e-05
1.32937e-05
1.30724e-05
1.37229e-05
1.54583e-05
1.59455e-05
1.63701e-05
1.65992e-05
1.66372e-05
1.65026e-05
1.62874e-05
1.61023e-05
1.60029e-05
1.59696e-05
1.59461e-05
1.58865e-05
1.57689e-05
1.55877e-05
1.5341e-05
1.50377e-05
1.46949e-05
1.43323e-05
1.22285e-05
1.21264e-05
1.19789e-05
1.18876e-05
1.16259e-05
1.19878e-05
1.14225e-05
1.29662e-05
1.48237e-05
1.51561e-05
1.562e-05
1.57917e-05
1.5852e-05
1.58357e-05
1.56157e-05
1.51849e-05
1.47005e-05
1.43408e-05
1.41957e-05
1.42484e-05
1.44206e-05
1.46216e-05
1.47427e-05
1.46856e-05
1.44567e-05
1.41584e-05
1.13338e-05
1.11141e-05
1.07677e-05
1.04117e-05
1.00633e-05
1.05555e-05
1.00718e-05
1.30305e-05
1.45282e-05
1.5099e-05
1.61801e-05
1.64605e-05
1.61654e-05
1.56547e-05
1.5312e-05
1.53881e-05
1.57362e-05
1.60531e-05
1.62033e-05
1.62195e-05
1.6176e-05
1.61512e-05
1.62649e-05
1.66574e-05
1.73131e-05
1.8066e-05
1.07544e-05
1.03756e-05
9.69273e-06
8.78578e-06
8.03455e-06
8.58219e-06
9.12267e-06
1.31076e-05
1.37089e-05
1.48443e-05
1.68029e-05
1.83292e-05
1.97516e-05
2.11105e-05
2.22774e-05
2.31957e-05
2.38727e-05
2.44097e-05
2.49208e-05
2.54688e-05
2.60688e-05
2.6706e-05
2.73478e-05
2.79178e-05
2.83431e-05
2.86682e-05
1.04775e-05
1.00141e-05
9.08917e-06
7.55219e-06
5.50632e-06
6.02107e-06
8.61748e-06
1.13841e-05
1.37064e-05
2.03137e-05
2.51441e-05
2.88281e-05
3.14686e-05
3.32625e-05
3.44131e-05
3.51619e-05
3.57188e-05
3.62271e-05
3.67353e-05
3.72382e-05
3.7713e-05
3.81588e-05
3.85983e-05
3.9099e-05
3.96091e-05
4.00375e-05
)
;

boundaryField
{
    inlet
    {
        type            calculated;
        value           nonuniform List<scalar> 
26
(
1.04658e-05
1.00146e-05
9.09155e-06
7.49016e-06
5.08543e-06
6.0726e-06
9.35001e-06
9.69831e-06
2.05354e-05
2.94066e-05
3.69953e-05
4.32745e-05
4.82998e-05
5.22492e-05
5.52675e-05
5.75665e-05
5.93399e-05
6.07505e-05
6.19317e-05
6.2984e-05
6.39793e-05
6.49892e-05
6.60941e-05
6.73477e-05
6.86575e-05
6.98842e-05
)
;
    }
    outlet
    {
        type            calculated;
        value           nonuniform List<scalar> 0();
    }
    walls
    {
        type            calculated;
        value           nonuniform List<scalar> 0();
    }
    frontAndBack
    {
        type            empty;
    }
    procBoundary0to1
    {
        type            processor;
        value           nonuniform List<scalar> 
94
(
0.0010497
0.000971461
0.000971461
0.00089233
0.00089233
0.00081469
0.00081469
0.000738878
0.000738878
0.000667419
0.000667419
0.000602107
0.000550384
0.000550384
0.000499378
0.000460037
0.000460037
0.000419753
0.000388942
0.000361004
0.000361004
0.000331913
0.000309268
0.000309268
0.000285344
0.000266666
0.000249414
0.000249414
0.000231113
0.000216617
0.00020315
0.00020315
0.000188817
0.000177365
0.000177365
0.000165078
0.000155287
0.000146147
0.000146147
0.000136305
0.000128462
0.000121135
0.000121135
0.000113209
0.000106918
0.000101038
0.000101038
9.46476e-05
8.96002e-05
8.48771e-05
8.48771e-05
7.97265e-05
7.56668e-05
7.18606e-05
7.18606e-05
6.77013e-05
6.44171e-05
6.13255e-05
5.8412e-05
5.8412e-05
5.52664e-05
5.27198e-05
5.02988e-05
4.79881e-05
4.79881e-05
4.55165e-05
4.34169e-05
4.13887e-05
3.94348e-05
3.75641e-05
3.75641e-05
3.56463e-05
3.39729e-05
3.23629e-05
3.07887e-05
2.92314e-05
2.76909e-05
2.76909e-05
2.60756e-05
2.46459e-05
2.34153e-05
2.23893e-05
2.1424e-05
2.04609e-05
1.95224e-05
1.85634e-05
1.7424e-05
1.7424e-05
1.57438e-05
1.39652e-05
1.38775e-05
1.87977e-05
2.89535e-05
4.0373e-05
)
;
    }
    procBoundary0to4
    {
        type            processor;
        value           nonuniform List<scalar> 
72
(
0.000780574
0.000716742
0.000659896
0.000609007
0.00056333
0.000522178
0.000484983
0.00045125
0.000420554
0.000392531
0.000366881
0.000343342
0.000321681
0.000301706
0.000283242
0.000266142
0.000250275
0.000235526
0.000221793
0.00020899
0.000197036
0.000185858
0.000175571
0.000175571
0.000165664
0.000156381
0.000147672
0.000139496
0.000131812
0.000124583
0.000117779
0.000111369
0.000105327
9.96261e-05
9.4245e-05
8.91624e-05
8.43589e-05
7.98163e-05
7.55183e-05
7.14495e-05
6.75956e-05
6.39434e-05
6.04805e-05
5.71955e-05
5.40776e-05
5.11167e-05
4.83035e-05
4.5629e-05
4.30851e-05
4.0664e-05
3.83585e-05
3.61617e-05
3.40671e-05
3.20686e-05
3.0161e-05
2.83399e-05
2.6601e-05
2.4942e-05
2.33859e-05
2.20573e-05
2.09469e-05
1.98755e-05
1.87703e-05
1.7656e-05
1.65373e-05
1.54296e-05
1.4348e-05
1.3298e-05
1.22945e-05
1.14359e-05
1.08957e-05
1.06372e-05
)
;
    }
    procBoundary0to5
    {
        type            processor;
        value           nonuniform List<scalar> 4(0.000887727 0.000923091 0.000960136 0.00100277);
    }
}


// ************************************************************************* //
