/*--------------------------------*- C++ -*----------------------------------*\
| =========                 |                                                 |
| \\      /  F ield         | OpenFOAM: The Open Source CFD Toolbox           |
|  \\    /   O peration     | Version:  2506                                  |
|   \\  /    A nd           | Website:  www.openfoam.com                      |
|    \\/     M anipulation  |                                                 |
\*---------------------------------------------------------------------------*/
FoamFile
{
    version     2.0;
    format      ascii;
    arch        "LSB;label=32;scalar=64";
    class       volSymmTensorField;
    location    "250";
    object      turbulenceProperties:devReff;
}
// * * * * * * * * * * * * * * * * * * * * * * * * * * * * * * * * * * * * * //

dimensions      [0 2 -2 0 0 0 0];

internalField   nonuniform List<symmTensor> 
1340
(
(8.38903e-05 -7.88931e-05 -3.01126e-21 -8.38217e-05 -1.16654e-21 -6.86232e-08)
(9.39164e-05 -6.41732e-05 2.25981e-20 -9.4007e-05 2.24861e-20 9.05766e-08)
(0.00010128 -4.8552e-05 4.96591e-20 -0.000101245 2.83314e-20 -3.46521e-08)
(0.000106353 -2.9543e-05 -7.91471e-20 -0.000106492 -8.79515e-20 1.39008e-07)
(0.000107683 -8.55756e-06 -1.11365e-19 -0.000107663 -9.45124e-20 -1.99738e-08)
(7.0498e-05 -6.7741e-05 1.04183e-20 -7.04532e-05 9.19064e-21 -4.47458e-08)
(7.89789e-05 -5.54786e-05 2.97707e-20 -7.90439e-05 1.58088e-20 6.49575e-08)
(8.5297e-05 -4.24341e-05 -6.97681e-20 -8.52719e-05 -4.92002e-20 -2.51688e-08)
(8.97946e-05 -2.65869e-05 1.00595e-20 -8.99109e-05 1.79716e-20 1.16305e-07)
(9.12356e-05 -9.01641e-06 1.05314e-19 -9.1208e-05 4.17823e-20 -2.761e-08)
(8.88802e-05 9.02965e-06 -7.82701e-20 -8.88313e-05 -9.30835e-20 -4.88892e-08)
(5.96101e-05 -5.85705e-05 -5.3256e-21 -5.95736e-05 -4.93891e-21 -3.64801e-08)
(6.68517e-05 -4.82713e-05 -2.22887e-20 -6.68916e-05 -1.4839e-20 3.98785e-08)
(7.23109e-05 -3.7284e-05 -3.14993e-21 -7.22891e-05 4.70977e-22 -2.17767e-08)
(7.63157e-05 -2.39533e-05 4.13137e-20 -7.64093e-05 2.71685e-20 9.35879e-08)
(7.78005e-05 -9.11318e-06 -2.49275e-20 -7.77657e-05 -2.00714e-21 -3.48682e-08)
(7.6147e-05 6.17413e-06 9.1181e-20 -7.61044e-05 7.05531e-20 -4.25729e-08)
(7.11862e-05 2.11328e-05 1.5198e-19 -7.11556e-05 6.70396e-20 -3.06431e-08)
(5.06513e-05 -5.09323e-05 6.9798e-21 -5.06247e-05 4.91494e-21 -2.66009e-08)
(5.68933e-05 -4.22193e-05 9.82629e-21 -5.69199e-05 6.86595e-21 2.66173e-08)
(6.16445e-05 -3.29046e-05 2.61581e-20 -6.16251e-05 8.96475e-21 -1.93556e-08)
(6.52211e-05 -2.16045e-05 -7.14142e-20 -6.52996e-05 -4.85355e-20 7.8524e-08)
(6.67098e-05 -8.98337e-06 -3.54432e-20 -6.66708e-05 -2.60659e-20 -3.90762e-08)
(6.55726e-05 4.06272e-06 -8.86496e-20 -6.5538e-05 -5.5016e-20 -3.45537e-08)
(6.16753e-05 1.69221e-05 -1.0886e-19 -6.16565e-05 -2.98388e-20 -1.88622e-08)
(5.49958e-05 2.87616e-05 9.16869e-20 -5.50101e-05 1.74986e-20 1.42888e-08)
(4.32283e-05 -4.45139e-05 7.55728e-21 -4.3205e-05 3.92154e-21 -2.32728e-08)
(4.86464e-05 -3.7089e-05 1.59904e-21 -4.86665e-05 1.02709e-22 2.00412e-08)
(5.28086e-05 -2.91501e-05 -2.13521e-20 -5.27896e-05 -6.13536e-21 -1.90602e-08)
(5.60108e-05 -1.95052e-05 6.58176e-20 -5.6075e-05 4.40162e-20 6.42114e-08)
(5.74723e-05 -8.70492e-06 1.21917e-19 -5.74324e-05 5.54552e-20 -3.98521e-08)
(5.67194e-05 2.49746e-06 2.75093e-21 -5.66917e-05 1.37075e-20 -2.76326e-08)
(5.36343e-05 1.36058e-05 2.32014e-19 -5.36267e-05 9.69899e-20 -7.58717e-09)
(4.81687e-05 2.39178e-05 -6.77765e-20 -4.81812e-05 -6.58873e-20 1.25444e-08)
(4.08589e-05 3.23703e-05 -1.14653e-19 -4.08562e-05 -3.52197e-20 -2.71482e-09)
(3.70338e-05 -3.90686e-05 7.15896e-21 -3.70149e-05 3.36045e-21 -1.89732e-08)
(4.17623e-05 -3.27118e-05 -1.28361e-20 -4.17746e-05 -7.5522e-21 1.23534e-08)
(4.54302e-05 -2.59005e-05 -5.04931e-21 -4.54164e-05 -3.44774e-21 -1.38103e-08)
(4.83033e-05 -1.76334e-05 -9.30705e-21 -4.83563e-05 3.47744e-21 5.29373e-08)
(4.97165e-05 -8.33649e-06 9.23529e-20 -4.96797e-05 3.51698e-20 -3.6775e-08)
(4.92521e-05 1.33049e-06 -1.00752e-19 -4.92295e-05 -5.05583e-20 -2.26005e-08)
(4.67954e-05 1.09767e-05 1.05757e-20 -4.67942e-05 7.94069e-21 -1.19598e-09)
(4.22946e-05 1.99853e-05 4.08738e-20 -4.2307e-05 -4.90409e-21 1.24125e-08)
(3.61961e-05 2.74484e-05 -2.91714e-19 -3.61938e-05 -8.16982e-20 -2.24063e-09)
(2.9159e-05 3.29972e-05 7.00356e-20 -2.91495e-05 3.98481e-20 -9.44402e-09)
(3.18323e-05 -3.4412e-05 -1.04072e-20 -3.18184e-05 -3.96027e-21 -1.38127e-08)
(3.59794e-05 -2.89506e-05 8.64439e-21 -3.59857e-05 7.40865e-21 6.31247e-09)
(3.92251e-05 -2.30783e-05 5.81438e-20 -3.92128e-05 2.97509e-20 -1.22749e-08)
(4.18114e-05 -1.59517e-05 1.64452e-20 -4.18564e-05 3.69683e-22 4.49422e-08)
(4.31636e-05 -7.9141e-06 -6.98363e-20 -4.31293e-05 -2.81667e-20 -3.42616e-08)
(4.29137e-05 4.65933e-07 6.50906e-20 -4.28955e-05 3.30474e-20 -1.82301e-08)
(4.09493e-05 8.87411e-06 -1.76676e-20 -4.09525e-05 -4.75511e-21 3.18978e-09)
(3.72221e-05 1.67689e-05 1.62524e-19 -3.72322e-05 6.07423e-20 1.01092e-08)
(3.21028e-05 2.33714e-05 5.33647e-20 -3.21013e-05 2.45953e-20 -1.53829e-09)
(2.61523e-05 2.8354e-05 -3.21908e-20 -2.61433e-05 -1.22245e-20 -9.03229e-09)
(2.74385e-05 -3.04066e-05 1.06678e-21 -2.74284e-05 -1.87742e-22 -1.00765e-08)
(3.10949e-05 -2.56949e-05 -2.63826e-21 -3.10982e-05 -3.54895e-21 3.27323e-09)
(3.39769e-05 -2.06155e-05 -4.96463e-20 -3.3966e-05 -2.82011e-20 -1.09111e-08)
(3.63087e-05 -1.44446e-05 -8.09979e-20 -3.63465e-05 -4.14441e-20 3.77345e-08)
(3.7593e-05 -7.46414e-06 -9.97247e-20 -3.75634e-05 -2.79047e-20 -2.96417e-08)
(3.75033e-05 -1.72294e-07 1.44261e-19 -3.7488e-05 5.32312e-20 -1.53371e-08)
(3.59275e-05 7.18193e-06 -1.32947e-19 -3.59338e-05 -5.58838e-20 6.3035e-09)
(3.28253e-05 1.41206e-05 3.19858e-20 -3.28345e-05 2.5984e-20 9.12172e-09)
(2.85079e-05 1.99712e-05 7.9861e-20 -2.85058e-05 2.49246e-20 -2.11002e-09)
(2.34499e-05 2.44423e-05 5.54843e-20 -2.34433e-05 2.1079e-20 -6.63455e-09)
(1.80066e-05 2.75628e-05 5.24569e-20 -1.80062e-05 1.46927e-20 -4.7229e-10)
(2.37093e-05 -2.69432e-05 1.32886e-20 -2.37012e-05 7.34284e-21 -8.1914e-09)
(2.69464e-05 -2.28622e-05 2.05527e-20 -2.6948e-05 1.11772e-20 1.60638e-09)
(2.95144e-05 -1.84539e-05 5.69498e-20 -2.95044e-05 2.323e-20 -9.99792e-09)
(3.16211e-05 -1.30903e-05 -1.28515e-20 -3.16519e-05 -6.14868e-21 3.08117e-08)
(3.2833e-05 -7.00499e-06 4.83232e-20 -3.28081e-05 1.03979e-20 -2.48908e-08)
(3.28619e-05 -6.38277e-07 -1.57647e-19 -3.28491e-05 -5.53392e-20 -1.27761e-08)
(3.15961e-05 5.81422e-06 1.36036e-19 -3.16023e-05 7.35487e-20 6.171e-09)
(2.90019e-05 1.19281e-05 1.84287e-19 -2.90105e-05 4.6082e-20 8.54665e-09)
(2.53446e-05 1.71185e-05 -1.13899e-20 -2.53426e-05 -1.69684e-20 -1.98106e-09)
(2.10252e-05 2.11308e-05 7.77183e-20 -2.10192e-05 -8.72662e-22 -5.97172e-09)
(1.63543e-05 2.39829e-05 5.51681e-20 -1.63534e-05 1.2319e-20 -9.69419e-10)
(2.05312e-05 -2.39321e-05 -1.58926e-20 -2.05249e-05 -6.64854e-21 -6.30976e-09)
(2.34064e-05 -2.03869e-05 1.88823e-20 -2.34064e-05 6.77213e-21 -2.15699e-11)
(2.57018e-05 -1.65478e-05 -5.05578e-20 -2.56927e-05 -2.45591e-20 -9.1034e-09)
(2.76078e-05 -1.18714e-05 -4.13046e-20 -2.7633e-05 -1.56148e-20 2.52136e-08)
(2.87471e-05 -6.55116e-06 -1.09978e-20 -2.8726e-05 5.80532e-21 -2.1064e-08)
(2.88601e-05 -9.72669e-07 1.63902e-19 -2.88512e-05 5.91307e-20 -8.96751e-09)
(2.78453e-05 4.70123e-06 -1.93015e-20 -2.78509e-05 -2.36602e-20 5.58195e-09)
(2.56677e-05 1.01023e-05 -1.30895e-19 -2.56747e-05 -5.96002e-20 6.94127e-09)
(2.25555e-05 1.47154e-05 -1.08875e-19 -2.2554e-05 -4.20214e-20 -1.51964e-09)
(1.8854e-05 1.83127e-05 -3.71137e-19 -1.88491e-05 -8.52657e-20 -4.92474e-09)
(1.48314e-05 2.09115e-05 5.05536e-20 -1.48311e-05 3.02954e-20 -3.67373e-10)
(1.07785e-05 2.25484e-05 2.02962e-19 -1.07761e-05 3.19567e-20 -2.40335e-09)
(1.78127e-05 -2.13016e-05 9.98121e-21 -1.78081e-05 4.36644e-21 -4.66467e-09)
(2.03733e-05 -1.82147e-05 3.50475e-21 -2.03725e-05 3.22027e-21 -8.59924e-10)
(2.24303e-05 -1.4862e-05 6.0197e-20 -2.24219e-05 2.69203e-20 -8.39249e-09)
(2.41575e-05 -1.07734e-05 9.39383e-20 -2.41782e-05 3.33388e-20 2.0785e-08)
(2.52259e-05 -6.10874e-06 -3.44442e-20 -2.52076e-05 -2.26678e-20 -1.83218e-08)
(2.53975e-05 -1.20634e-06 -1.37356e-19 -2.5391e-05 -4.89297e-20 -6.49135e-09)
(2.45847e-05 3.79407e-06 2.22749e-20 -2.45902e-05 3.66722e-21 5.49198e-09)
(2.2752e-05 8.57359e-06 -1.55069e-19 -2.27583e-05 -4.08069e-20 6.24411e-09)
(2.00937e-05 1.26789e-05 7.38049e-20 -2.00927e-05 4.40117e-20 -1.04865e-09)
(1.69098e-05 1.59053e-05 1.61457e-19 -1.69058e-05 5.70626e-20 -3.96218e-09)
(1.34338e-05 1.82678e-05 -9.64497e-20 -1.34331e-05 -3.12351e-20 -7.00593e-10)
(9.91892e-06 1.97956e-05 -1.43384e-19 -9.91589e-06 -4.24616e-20 -3.03644e-09)
(1.54788e-05 -1.89954e-05 -1.145e-20 -1.54753e-05 -3.13603e-21 -3.50091e-09)
(1.77654e-05 -1.63013e-05 3.63538e-20 -1.77639e-05 1.43044e-20 -1.50756e-09)
(1.96128e-05 -1.33659e-05 -1.89874e-20 -1.96054e-05 -8.72013e-21 -7.47596e-09)
(2.11799e-05 -9.78319e-06 -1.46508e-20 -2.11971e-05 -6.19339e-21 1.72352e-08)
(2.21791e-05 -5.68306e-06 -3.25775e-20 -2.21637e-05 -1.56086e-20 -1.53856e-08)
(2.23918e-05 -1.36482e-06 -9.96163e-20 -2.23867e-05 -3.23513e-20 -5.02859e-09)
(2.17418e-05 3.05245e-06 -5.98962e-20 -2.17468e-05 -2.15806e-20 5.00169e-09)
(2.01952e-05 7.29054e-06 -5.79779e-21 -2.02002e-05 1.06055e-20 5.01964e-09)
(1.79174e-05 1.09488e-05 6.85557e-20 -1.79158e-05 3.50937e-20 -1.61087e-09)
(1.51698e-05 1.38426e-05 7.15361e-20 -1.51661e-05 1.81489e-20 -3.71181e-09)
(1.2158e-05 1.59849e-05 1.59499e-19 -1.21577e-05 2.11117e-20 -2.41925e-10)
(9.1026e-06 1.74003e-05 -3.32411e-20 -9.1005e-06 -1.7695e-20 -2.09876e-09)
(1.34692e-05 -1.69662e-05 -8.68386e-21 -1.34671e-05 -4.57901e-21 -2.10693e-09)
(1.55161e-05 -1.46112e-05 -5.31212e-20 -1.55136e-05 -2.03717e-20 -2.4431e-09)
(1.71778e-05 -1.20351e-05 -3.32767e-20 -1.71715e-05 -1.24412e-20 -6.3735e-09)
(1.86012e-05 -8.8888e-06 -2.8382e-20 -1.86158e-05 -1.01186e-20 1.4638e-08)
(1.95337e-05 -5.27675e-06 -2.17462e-20 -1.95206e-05 -4.2065e-21 -1.30994e-08)
(1.97738e-05 -1.46524e-06 6.27012e-20 -1.97705e-05 1.18186e-20 -3.27144e-09)
(1.92565e-05 2.44379e-06 -2.80423e-19 -1.92611e-05 -8.51673e-20 4.60858e-09)
(1.79484e-05 6.20783e-06 1.93678e-20 -1.7953e-05 3.76963e-20 4.62643e-09)
(1.59911e-05 9.47069e-06 3.71324e-19 -1.59903e-05 9.3711e-20 -8.74575e-10)
(1.36136e-05 1.2067e-05 1.10368e-19 -1.36104e-05 2.3276e-21 -3.17093e-09)
(1.09957e-05 1.40079e-05 -2.79674e-19 -1.09951e-05 -8.2851e-20 -6.1019e-10)
(8.3332e-06 1.53135e-05 -2.10112e-19 -8.33074e-06 -3.00539e-20 -2.46266e-09)
(5.77488e-06 1.60576e-05 4.10803e-20 -5.77159e-06 2.39433e-20 -3.2894e-09)
(1.1734e-05 -1.51757e-05 9.55633e-21 -1.17326e-05 3.14199e-21 -1.42305e-09)
(1.35706e-05 -1.31125e-05 -1.52489e-20 -1.35681e-05 -4.08007e-21 -2.46562e-09)
(1.50678e-05 -1.08489e-05 5.73706e-20 -1.50617e-05 1.62373e-20 -6.13985e-09)
(1.63619e-05 -8.07957e-06 -1.44809e-19 -1.63744e-05 -5.49618e-20 1.24198e-08)
(1.72304e-05 -4.8913e-06 -1.09816e-19 -1.72191e-05 -3.2843e-20 -1.12455e-08)
(1.74876e-05 -1.52068e-06 -5.79833e-20 -1.74852e-05 -9.89477e-21 -2.33235e-09)
(1.70783e-05 1.94442e-06 1.327e-19 -1.70825e-05 5.74787e-20 4.19044e-09)
(1.59694e-05 5.2925e-06 1.7262e-19 -1.5973e-05 2.96235e-20 3.60186e-09)
(1.42834e-05 8.20581e-06 -1.82874e-19 -1.42823e-05 -6.00159e-20 -1.07479e-09)
(1.22205e-05 1.05355e-05 1.48765e-19 -1.22181e-05 3.57148e-20 -2.42838e-09)
(9.9407e-06 1.22912e-05 1.45554e-20 -9.94049e-06 1.65623e-20 -2.04964e-10)
(7.61641e-06 1.34894e-05 -5.27414e-20 -7.61453e-06 8.95246e-21 -1.88473e-09)
(5.37858e-06 1.41955e-05 1.78287e-19 -5.37572e-06 4.13689e-20 -2.86734e-09)
(1.02325e-05 -1.35915e-05 -9.79279e-21 -1.02313e-05 -4.08407e-21 -1.24306e-09)
(1.1883e-05 -1.17805e-05 -2.11136e-20 -1.18808e-05 -6.16901e-21 -2.22481e-09)
(1.32343e-05 -9.78913e-06 3.95394e-20 -1.32289e-05 1.64519e-20 -5.47504e-09)
(1.44121e-05 -7.34721e-06 7.24591e-20 -1.44224e-05 2.65267e-20 1.02961e-08)
(1.52197e-05 -4.52746e-06 1.15554e-19 -1.521e-05 3.94041e-20 -9.70125e-09)
(1.54863e-05 -1.54278e-06 7.74801e-20 -1.54846e-05 2.90934e-20 -1.70177e-09)
(1.51648e-05 1.534e-06 2.28968e-19 -1.51687e-05 4.98872e-20 3.90458e-09)
(1.42237e-05 4.51479e-06 -3.43225e-19 -1.42271e-05 -9.6471e-20 3.43801e-09)
(1.27679e-05 7.1185e-06 3.02324e-20 -1.2767e-05 1.55502e-20 -8.98451e-10)
(1.09736e-05 9.21063e-06 -6.47083e-20 -1.09714e-05 -1.01298e-20 -2.19836e-09)
(8.98364e-06 1.07975e-05 1.32175e-19 -8.98308e-06 2.89085e-20 -5.5113e-10)
(6.95037e-06 1.18944e-05 4.8931e-20 -6.94826e-06 6.41771e-21 -2.10875e-09)
(4.99036e-06 1.25578e-05 9.93214e-20 -4.98774e-06 -9.03431e-23 -2.62389e-09)
(3.14296e-06 1.28732e-05 4.56957e-20 -3.14151e-06 -4.02948e-22 -1.45284e-09)
(8.93093e-06 -1.21857e-05 9.6831e-21 -8.93008e-06 3.98373e-21 -8.43333e-10)
(1.04161e-05 -1.05946e-05 3.33259e-20 -1.04137e-05 9.35346e-21 -2.37431e-09)
(1.16376e-05 -8.83957e-06 -7.63627e-20 -1.16328e-05 -2.46043e-20 -4.80865e-09)
(1.27096e-05 -6.68347e-06 2.92213e-20 -1.27186e-05 1.37421e-20 8.99046e-09)
(1.34598e-05 -4.18656e-06 9.45218e-20 -1.34516e-05 2.68352e-20 -8.24539e-09)
(1.37301e-05 -1.53985e-06 -2.35106e-20 -1.37289e-05 -1.39297e-20 -1.20079e-09)
(1.34801e-05 1.19626e-06 -1.23817e-19 -1.34838e-05 -2.86053e-20 3.6849e-09)
(1.26808e-05 3.8542e-06 2.71206e-19 -1.26832e-05 7.30929e-20 2.44094e-09)
(1.14211e-05 6.18327e-06 -2.27997e-19 -1.14203e-05 -5.98994e-20 -8.55161e-10)
(9.85782e-06 8.06122e-06 1.86165e-19 -9.85595e-06 4.98001e-20 -1.87229e-09)
(8.11773e-06 9.49462e-06 -7.03708e-20 -8.11749e-06 -3.24686e-20 -2.45174e-10)
(6.33618e-06 1.04961e-05 -7.79907e-20 -6.33444e-06 -1.4792e-20 -1.73392e-09)
(4.61671e-06 1.11148e-05 -1.70974e-19 -4.61446e-06 -2.93206e-20 -2.2575e-09)
(2.99512e-06 1.14271e-05 1.77273e-20 -2.99359e-06 5.54797e-21 -1.53658e-09)
(7.80023e-06 -1.09355e-05 -5.31617e-23 -7.79994e-06 -2.65281e-23 -2.89815e-10)
(9.13827e-06 -9.53664e-06 8.60628e-21 -9.13602e-06 1.87293e-21 -2.25702e-09)
(1.02436e-05 -7.9881e-06 -4.59908e-20 -1.02392e-05 -1.29948e-20 -4.41512e-09)
(1.12204e-05 -6.08111e-06 8.39616e-20 -1.12281e-05 2.44172e-20 7.67131e-09)
(1.19163e-05 -3.86741e-06 -1.08807e-19 -1.19094e-05 -3.08891e-20 -6.85375e-09)
(1.2186e-05 -1.51735e-06 1.37253e-19 -1.21851e-05 4.44564e-20 -9.49287e-10)
(1.19943e-05 9.18338e-07 1.27201e-19 -1.19978e-05 2.7806e-20 3.50784e-09)
(1.13148e-05 3.29027e-06 -1.21778e-19 -1.13173e-05 -3.91748e-20 2.45841e-09)
(1.02234e-05 5.37512e-06 -1.56032e-20 -1.02226e-05 7.70286e-21 -8.00937e-10)
(8.85871e-06 7.06222e-06 1.73297e-20 -8.85709e-06 -1.39371e-20 -1.62682e-09)
(7.33434e-06 8.35658e-06 -9.04946e-20 -7.33397e-06 -1.47655e-20 -3.77229e-10)
(5.77086e-06 9.26908e-06 1.16552e-19 -5.7692e-06 2.6511e-20 -1.65712e-09)
(4.26082e-06 9.84292e-06 7.35743e-20 -4.25878e-06 2.63227e-20 -2.04189e-09)
(2.83647e-06 1.01463e-05 1.02114e-20 -2.83495e-06 -1.18661e-20 -1.51974e-09)
(6.81637e-06 -9.82192e-06 -1.70395e-21 -6.81632e-06 -6.96807e-22 -5.11e-11)
(8.02365e-06 -8.59071e-06 7.3399e-21 -8.02141e-06 2.14307e-21 -2.24044e-09)
(9.02473e-06 -7.22304e-06 -2.75254e-21 -9.02073e-06 -2.26441e-21 -3.99159e-09)
(9.915e-06 -5.53461e-06 -4.84693e-20 -9.92168e-06 -1.74881e-20 6.67398e-09)
(1.056e-05 -3.56962e-06 -1.15216e-19 -1.05542e-05 -3.3862e-20 -5.81191e-09)
(1.08258e-05 -1.48038e-06 -8.01554e-20 -1.08251e-05 -2.37297e-20 -6.99894e-10)
(1.06818e-05 6.90053e-07 -1.36899e-19 -1.06848e-05 -3.7675e-20 3.02361e-09)
(1.01037e-05 2.80938e-06 5.43072e-20 -1.01058e-05 1.73722e-20 2.0595e-09)
(9.15693e-06 4.67645e-06 2.67139e-20 -9.15618e-06 2.57288e-21 -7.5542e-10)
(7.96392e-06 6.19234e-06 -2.79795e-19 -7.96253e-06 -5.41539e-20 -1.39643e-09)
(6.62672e-06 7.3605e-06 -5.33596e-20 -6.62638e-06 2.51957e-21 -3.39452e-10)
(5.25268e-06 8.1905e-06 -1.14839e-19 -5.25123e-06 -2.18183e-20 -1.45068e-09)
(3.92503e-06 8.7204e-06 2.01601e-19 -3.9233e-06 2.7839e-20 -1.7314e-09)
(2.67302e-06 9.01122e-06 -2.08602e-19 -2.67189e-06 -3.24122e-20 -1.12785e-09)
(1.50729e-06 9.11135e-06 -8.50443e-20 -1.50671e-06 -8.56754e-21 -5.74545e-10)
(5.95925e-06 -8.82833e-06 1.01157e-20 -5.95932e-06 3.79668e-21 7.01752e-11)
(7.04945e-06 -7.74355e-06 3.50478e-20 -7.04734e-06 1.14134e-20 -2.10758e-09)
(7.95715e-06 -6.53461e-06 6.29676e-20 -7.95338e-06 1.9475e-20 -3.77085e-09)
(8.76907e-06 -5.03816e-06 6.26284e-20 -8.77491e-06 1.91487e-20 5.84568e-09)
(9.36617e-06 -3.2923e-06 9.70784e-20 -9.3612e-06 2.79941e-20 -4.96575e-09)
(9.62575e-06 -1.43289e-06 9.47825e-20 -9.62515e-06 1.84275e-20 -5.95806e-10)
(9.52083e-06 5.02775e-07 -2.41151e-19 -9.5235e-06 -6.29771e-20 2.67508e-09)
(9.02889e-06 2.39767e-06 -1.19793e-19 -9.03072e-06 -1.83878e-20 1.82303e-09)
(8.20651e-06 4.07111e-06 1.66147e-19 -8.20575e-06 4.1052e-20 -7.55425e-10)
(7.16221e-06 5.43346e-06 3.27271e-19 -7.16103e-06 8.04486e-20 -1.18055e-09)
(5.98766e-06 6.48754e-06 1.5916e-19 -5.98734e-06 2.46547e-20 -3.15002e-10)
(4.77885e-06 7.24155e-06 -2.87569e-20 -4.77741e-06 -6.92109e-21 -1.43963e-09)
(3.60996e-06 7.72922e-06 -6.58017e-20 -3.60833e-06 -1.62795e-20 -1.63622e-09)
(2.5085e-06 8.00491e-06 2.48958e-19 -2.50723e-06 4.52391e-20 -1.26798e-09)
(1.48269e-06 8.11285e-06 -4.37061e-20 -1.48212e-06 -9.73575e-21 -5.6875e-10)
(5.21167e-06 -7.94008e-06 8.23579e-21 -5.21194e-06 2.17421e-21 2.71401e-10)
(6.19683e-06 -6.98376e-06 -6.9285e-21 -6.19486e-06 -2.86155e-21 -1.97034e-09)
(7.02055e-06 -5.91446e-06 -2.45571e-20 -7.01709e-06 -7.55175e-21 -3.45358e-09)
(7.76137e-06 -4.58723e-06 -2.38488e-20 -7.76642e-06 -1.14785e-20 5.05777e-09)
(8.31344e-06 -3.03435e-06 -2.60429e-19 -8.30947e-06 -7.08164e-20 -3.96989e-09)
(8.56516e-06 -1.37845e-06 -4.85166e-20 -8.56465e-06 -4.66104e-21 -5.04031e-10)
(8.49229e-06 3.4964e-07 1.29156e-19 -8.49465e-06 3.7754e-20 2.36196e-09)
(8.07376e-06 2.04502e-06 1.12932e-19 -8.0754e-06 2.31302e-20 1.63977e-09)
(7.35879e-06 3.54563e-06 -2.68835e-19 -7.35814e-06 -5.86189e-20 -6.55903e-10)
(6.44366e-06 4.77045e-06 4.21662e-20 -6.44262e-06 -4.25777e-22 -1.04433e-09)
(5.41085e-06 5.7216e-06 -2.57041e-20 -5.41049e-06 -4.91873e-21 -3.56945e-10)
(4.34643e-06 6.40578e-06 5.81008e-21 -4.34518e-06 5.74636e-21 -1.24673e-09)
(3.31669e-06 6.85317e-06 -7.7575e-20 -3.31539e-06 -7.81223e-21 -1.30018e-09)
(2.34663e-06 7.1127e-06 -1.45052e-19 -2.34549e-06 -3.29113e-20 -1.13746e-09)
(1.44402e-06 7.22396e-06 1.1282e-21 -1.44332e-06 8.2093e-22 -6.97791e-10)
(4.55881e-06 -7.14506e-06 -2.30392e-21 -4.55921e-06 -4.96831e-22 3.94442e-10)
(5.44977e-06 -6.30164e-06 2.37871e-20 -5.44786e-06 6.74775e-21 -1.91587e-09)
(6.19772e-06 -5.35509e-06 2.26021e-20 -6.19463e-06 5.96165e-21 -3.08764e-09)
(6.8741e-06 -4.17711e-06 7.97053e-21 -6.87842e-06 1.89094e-21 4.32268e-09)
(7.38419e-06 -2.79466e-06 3.27645e-20 -7.38091e-06 1.45915e-20 -3.28475e-09)
(7.62675e-06 -1.31891e-06 2.12704e-19 -7.62623e-06 5.0668e-20 -5.26856e-10)
(7.57987e-06 2.25003e-07 -1.23634e-19 -7.582e-06 -3.37447e-20 2.13616e-09)
(7.22419e-06 1.74272e-06 8.4611e-20 -7.22551e-06 3.14112e-20 1.32123e-09)
(6.602e-06 3.08909e-06 2.96468e-19 -6.60145e-06 5.73228e-20 -5.5733e-10)
(5.79944e-06 4.19049e-06 -2.21513e-19 -5.79855e-06 -4.56731e-20 -8.89422e-10)
(4.89048e-06 5.04841e-06 1.79365e-19 -4.89026e-06 3.63922e-20 -2.28127e-10)
(3.95207e-06 5.66903e-06 1.25647e-19 -3.95085e-06 1.47804e-20 -1.21986e-09)
(3.0444e-06 6.07869e-06 2.16704e-19 -3.04302e-06 3.26785e-20 -1.37732e-09)
(2.18933e-06 6.32149e-06 -2.19343e-20 -2.18856e-06 -3.69e-21 -7.65945e-10)
(1.39521e-06 6.43296e-06 -9.06107e-20 -1.39453e-06 -1.09352e-20 -6.83267e-10)
(6.65922e-07 6.43987e-06 -1.07382e-19 -6.65157e-07 -9.76019e-21 -7.65437e-10)
(3.98831e-06 -6.43269e-06 2.62091e-21 -3.98879e-06 -7.0748e-25 4.75603e-10)
(4.79462e-06 -5.68842e-06 -5.96609e-20 -4.79276e-06 -1.55637e-20 -1.86381e-09)
(5.47397e-06 -4.85012e-06 7.30405e-20 -5.47124e-06 2.01273e-20 -2.72889e-09)
(6.09169e-06 -3.80394e-06 -2.32001e-20 -6.09553e-06 -4.3452e-21 3.84693e-09)
(6.56289e-06 -2.57259e-06 1.93796e-19 -6.56015e-06 4.80323e-20 -2.73962e-09)
(6.79532e-06 -1.25634e-06 -1.28807e-19 -6.79488e-06 -3.5457e-20 -4.4274e-10)
(6.76958e-06 1.23765e-07 2.02991e-20 -6.77152e-06 1.22685e-20 1.93628e-09)
(6.46766e-06 1.48339e-06 3.12797e-19 -6.46881e-06 5.67503e-20 1.15196e-09)
(5.92602e-06 2.69198e-06 -3.57633e-19 -5.92545e-06 -7.88412e-20 -5.74443e-10)
(5.22153e-06 3.68276e-06 1.46916e-19 -5.22072e-06 3.81187e-20 -8.14075e-10)
(4.421e-06 4.45659e-06 -2.24194e-19 -4.42068e-06 -5.48101e-20 -3.21971e-10)
(3.59328e-06 5.01908e-06 -2.81161e-19 -3.59232e-06 -5.06494e-20 -9.59734e-10)
(2.79256e-06 5.39328e-06 -1.45329e-19 -2.79146e-06 -2.63197e-20 -1.09998e-09)
(2.03848e-06 5.61934e-06 5.25903e-20 -2.03767e-06 1.581e-20 -8.04804e-10)
(1.33891e-06 5.72923e-06 1.45774e-19 -1.33835e-06 2.12701e-20 -5.62976e-10)
(6.97666e-07 5.74686e-06 6.5312e-20 -6.96962e-07 1.34988e-20 -7.03999e-10)
(4.21945e-06 -5.13655e-06 -2.10821e-20 -4.21775e-06 -6.06036e-21 -1.70293e-09)
(4.83683e-06 -4.39391e-06 -2.38325e-20 -4.83432e-06 -6.19857e-21 -2.50557e-09)
(5.40112e-06 -3.46415e-06 -9.11579e-21 -5.40449e-06 -4.37602e-21 3.36965e-09)
(5.83613e-06 -2.36677e-06 -1.41312e-19 -5.83389e-06 -3.19482e-20 -2.24448e-09)
(6.05794e-06 -1.19214e-06 2.28229e-19 -6.05755e-06 5.53298e-20 -3.85648e-10)
(6.04933e-06 4.22588e-08 -9.40013e-20 -6.05098e-06 -3.14876e-20 1.65128e-09)
(5.79329e-06 1.26094e-06 -4.04424e-19 -5.7944e-06 -8.67523e-20 1.10911e-09)
(5.32183e-06 2.34603e-06 3.52078e-19 -5.32132e-06 8.82441e-20 -5.09436e-10)
(4.70307e-06 3.23759e-06 5.02978e-20 -4.70244e-06 8.79516e-22 -6.24757e-10)
(3.99763e-06 3.9356e-06 1.09116e-19 -3.99734e-06 3.55482e-20 -2.87932e-10)
(3.26678e-06 4.44536e-06 1.28545e-19 -3.26585e-06 2.83297e-20 -9.28615e-10)
(2.55991e-06 4.78698e-06 -1.23221e-20 -2.55881e-06 7.24834e-21 -1.10653e-09)
(1.89501e-06 4.99644e-06 2.85447e-20 -1.89424e-06 -1.61502e-21 -7.68863e-10)
(1.2785e-06 5.10303e-06 -1.50688e-19 -1.27802e-06 -2.45709e-20 -4.81768e-10)
(7.14019e-07 5.12831e-06 8.21596e-20 -7.13437e-07 8.71858e-21 -5.81945e-10)
(1.92276e-07 5.08897e-06 -1.54657e-19 -1.92079e-07 -2.26614e-20 -1.97102e-10)
(3.71412e-06 -4.63945e-06 -1.51421e-20 -3.71257e-06 -3.43027e-21 -1.54962e-09)
(4.27538e-06 -3.98141e-06 3.87964e-20 -4.27317e-06 8.59121e-21 -2.20431e-09)
(4.79096e-06 -3.15479e-06 -1.16004e-19 -4.79385e-06 -2.91931e-20 2.8976e-09)
(5.1924e-06 -2.17618e-06 3.03581e-20 -5.19058e-06 6.13264e-21 -1.82084e-09)
(5.40336e-06 -1.12745e-06 -2.18031e-19 -5.403e-06 -5.23788e-20 -3.5178e-10)
(5.40843e-06 -2.27886e-08 5.00239e-20 -5.40991e-06 1.39213e-20 1.48153e-09)
(5.19184e-06 1.07003e-06 1.45796e-20 -5.19273e-06 9.04116e-21 8.97723e-10)
(4.78131e-06 2.04484e-06 -1.8278e-20 -4.7808e-06 -1.23386e-20 -5.09891e-10)
(4.23765e-06 2.84728e-06 -5.18157e-20 -4.23703e-06 -5.37569e-21 -6.21851e-10)
(3.61562e-06 3.47699e-06 2.82504e-19 -3.61532e-06 4.73187e-20 -3.01387e-10)
(2.97021e-06 3.93863e-06 -3.3328e-20 -2.96935e-06 -1.18301e-20 -8.62979e-10)
(2.34599e-06 4.25002e-06 2.52438e-19 -2.34508e-06 3.54212e-20 -9.07e-10)
(1.7591e-06 4.44369e-06 -8.01819e-20 -1.75845e-06 -1.47106e-20 -6.47618e-10)
(1.21582e-06 4.54601e-06 8.90915e-20 -1.21524e-06 1.91665e-20 -5.75531e-10)
(7.18739e-07 4.57661e-06 -7.11648e-20 -7.18267e-07 -1.36209e-20 -4.71706e-10)
(2.60261e-07 4.55054e-06 1.17479e-19 -2.60022e-07 2.31299e-20 -2.38571e-10)
(3.26982e-06 -4.1914e-06 -7.4543e-20 -3.26836e-06 -1.87856e-20 -1.45939e-09)
(3.78031e-06 -3.60802e-06 -9.31831e-21 -3.77834e-06 4.27187e-22 -1.96618e-09)
(4.25141e-06 -2.87289e-06 1.88252e-19 -4.25394e-06 4.61383e-20 2.52399e-09)
(4.62174e-06 -1.99992e-06 1.62956e-21 -4.6202e-06 -3.37665e-22 -1.54585e-09)
(4.82176e-06 -1.06305e-06 1.36424e-19 -4.82144e-06 3.08319e-20 -3.21834e-10)
(4.83771e-06 -7.41018e-08 -1.58953e-19 -4.83902e-06 -3.79999e-20 1.3131e-09)
(4.65501e-06 9.06137e-07 2.18405e-20 -4.65579e-06 7.98382e-21 7.79129e-10)
(4.29748e-06 1.78221e-06 -6.48526e-20 -4.29707e-06 -9.08733e-21 -4.01084e-10)
(3.81974e-06 2.50454e-06 5.60421e-20 -3.81925e-06 7.49724e-21 -4.90384e-10)
(3.2711e-06 3.07272e-06 -1.50124e-19 -3.27085e-06 -4.14287e-20 -2.47426e-10)
(2.70081e-06 3.49076e-06 -7.96101e-20 -2.70008e-06 -6.7697e-21 -7.33124e-10)
(2.14934e-06 3.77447e-06 -2.82254e-19 -2.14843e-06 -4.75864e-20 -9.0971e-10)
(1.63114e-06 3.95322e-06 8.07919e-20 -1.63061e-06 1.93271e-20 -5.28234e-10)
(1.15227e-06 4.05058e-06 3.89463e-20 -1.15187e-06 2.55301e-21 -4.08941e-10)
(7.14619e-07 4.08464e-06 -2.95526e-20 -7.14178e-07 -4.70841e-22 -4.40806e-10)
(3.11628e-07 4.06915e-06 -3.60686e-20 -3.11445e-07 -4.84444e-21 -1.83337e-10)
(2.87895e-06 -3.78722e-06 5.35769e-20 -2.87763e-06 1.41213e-20 -1.32785e-09)
(3.34332e-06 -3.26996e-06 8.85252e-20 -3.3416e-06 2.03922e-20 -1.71506e-09)
(3.77388e-06 -2.61598e-06 -7.95306e-20 -3.77609e-06 -2.26399e-20 2.20969e-09)
(4.11536e-06 -1.83705e-06 -2.11051e-19 -4.11411e-06 -4.69663e-20 -1.24587e-09)
(4.30448e-06 -9.99805e-07 1.88765e-20 -4.30425e-06 4.20298e-21 -2.29058e-10)
(4.32907e-06 -1.14065e-07 -4.32689e-20 -4.33022e-06 -6.44768e-21 1.1532e-09)
(4.17541e-06 7.65678e-07 1.32714e-19 -4.17611e-06 3.05548e-20 6.99499e-10)
(3.86421e-06 1.55324e-06 1.83369e-19 -3.86376e-06 3.26169e-20 -4.49791e-10)
(3.44431e-06 2.20367e-06 -1.17396e-19 -3.44384e-06 -2.26119e-20 -4.69263e-10)
(2.96014e-06 2.71647e-06 -1.76475e-19 -2.95991e-06 -2.26239e-20 -2.31622e-10)
(2.45625e-06 3.09492e-06 3.44142e-19 -2.45553e-06 5.98187e-20 -7.18403e-10)
(1.96884e-06 3.35321e-06 1.75889e-19 -1.96812e-06 3.26023e-20 -7.21525e-10)
(1.51116e-06 3.51778e-06 -5.14569e-20 -1.51063e-06 -1.63834e-20 -5.33969e-10)
(1.08866e-06 3.61007e-06 2.06846e-20 -1.08818e-06 2.22903e-21 -4.78711e-10)
(7.03484e-07 3.64619e-06 1.50086e-19 -7.03042e-07 2.37546e-20 -4.41196e-10)
(3.49131e-07 3.63886e-06 1.32475e-19 -3.49014e-07 1.89633e-20 -1.1645e-10)
(2.11251e-08 3.59552e-06 2.04103e-20 -2.09076e-08 1.84513e-21 -2.17462e-10)
(2.53495e-06 -3.42237e-06 -1.28341e-20 -2.53373e-06 -3.74449e-21 -1.21583e-09)
(2.95746e-06 -2.96365e-06 -9.98747e-20 -2.95596e-06 -2.35019e-20 -1.50043e-09)
(3.35101e-06 -2.38174e-06 1.47986e-20 -3.35292e-06 7.52379e-21 1.90812e-09)
(3.66582e-06 -1.68645e-06 3.21394e-19 -3.66474e-06 7.0078e-20 -1.07357e-09)
(3.84425e-06 -9.37935e-07 -2.43537e-19 -3.84401e-06 -5.57207e-20 -2.40038e-10)
(3.87547e-06 -1.44447e-07 2.17531e-20 -3.87649e-06 6.98004e-21 1.01944e-09)
(3.7467e-06 6.45252e-07 -1.10239e-20 -3.74732e-06 -3.07876e-21 6.19318e-10)
(3.47597e-06 1.35345e-06 -1.20779e-19 -3.47563e-06 -1.94306e-20 -3.39493e-10)
(3.10695e-06 1.93926e-06 3.34274e-19 -3.10655e-06 5.88861e-20 -4.04054e-10)
(2.67957e-06 2.40226e-06 1.99979e-20 -2.67938e-06 -6.88721e-21 -1.86591e-10)
(2.23427e-06 2.74485e-06 -3.33058e-19 -2.23358e-06 -6.27267e-20 -6.89854e-10)
(1.8032e-06 2.98006e-06 8.603e-20 -1.80253e-06 1.21348e-20 -6.68946e-10)
(1.39902e-06 3.13137e-06 -1.57355e-19 -1.39857e-06 -2.53461e-20 -4.51465e-10)
(1.0263e-06 3.21832e-06 -1.45369e-19 -1.02597e-06 -2.375e-20 -3.21795e-10)
(6.87172e-07 3.25549e-06 -6.74847e-20 -6.86749e-07 -1.16163e-20 -4.23439e-10)
(3.75314e-07 3.25452e-06 2.44586e-20 -3.75222e-07 1.48727e-21 -9.1649e-11)
(8.74879e-08 3.22223e-06 1.86088e-20 -8.72522e-08 1.52896e-21 -2.35694e-10)
(2.23209e-06 -3.09289e-06 -3.55131e-20 -2.23094e-06 -7.67354e-21 -1.15142e-09)
(2.61655e-06 -2.68601e-06 6.41611e-20 -2.61525e-06 1.55192e-20 -1.30256e-09)
(2.9763e-06 -2.16812e-06 4.46643e-20 -2.97796e-06 6.01423e-21 1.65983e-09)
(3.26639e-06 -1.54743e-06 -3.49618e-19 -3.2655e-06 -7.58242e-20 -8.82407e-10)
(3.43436e-06 -8.78131e-07 2.53245e-19 -3.43419e-06 5.84172e-20 -1.69241e-10)
(3.47063e-06 -1.6698e-07 -9.08085e-20 -3.47154e-06 -1.68904e-20 9.16854e-10)
(3.3633e-06 5.42242e-07 2.85091e-19 -3.3638e-06 5.76254e-20 4.98532e-10)
(3.12786e-06 1.17928e-06 2.01519e-19 -3.12753e-06 3.01161e-20 -3.29518e-10)
(2.80356e-06 1.70708e-06 -5.02199e-19 -2.80318e-06 -9.74008e-20 -3.77445e-10)
(2.42634e-06 2.12506e-06 -2.30796e-19 -2.42617e-06 -3.39732e-20 -1.72106e-10)
(2.0327e-06 2.43528e-06 9.63996e-20 -2.03209e-06 2.48158e-20 -6.15775e-10)
(1.65152e-06 2.64934e-06 -3.67282e-20 -1.65092e-06 -8.24348e-21 -5.95763e-10)
(1.29432e-06 2.78835e-06 1.14481e-19 -1.29388e-06 2.44066e-20 -4.46966e-10)
(9.65418e-07 2.87007e-06 -9.02562e-20 -9.65043e-07 -1.11383e-20 -3.74688e-10)
(6.66598e-07 2.90758e-06 -3.05989e-20 -6.66263e-07 -4.25586e-21 -3.34941e-10)
(3.92587e-07 2.91144e-06 -2.02335e-20 -3.92457e-07 -5.68476e-22 -1.29577e-10)
(1.39654e-07 2.88806e-06 -1.97171e-20 -1.39506e-07 -3.94326e-21 -1.48654e-10)
(1.96535e-06 -2.79517e-06 3.081e-21 -1.96431e-06 1.35032e-21 -1.04774e-09)
(2.31518e-06 -2.43428e-06 7.49191e-20 -2.31404e-06 1.6388e-20 -1.14418e-09)
(2.64402e-06 -1.97327e-06 -8.27455e-20 -2.64548e-06 -1.73713e-20 1.46034e-09)
(2.91132e-06 -1.41909e-06 1.8885e-19 -2.91057e-06 4.17816e-20 -7.51438e-10)
(3.0692e-06 -8.20381e-07 -9.74412e-20 -3.06903e-06 -2.2118e-20 -1.74436e-10)
(3.10917e-06 -1.82883e-07 1.48275e-19 -3.10996e-06 2.88569e-20 7.88274e-10)
(3.02016e-06 4.54159e-07 -2.69715e-19 -3.02062e-06 -6.00902e-20 4.66239e-10)
(2.81568e-06 1.02731e-06 -2.94277e-20 -2.81534e-06 -4.81775e-21 -3.41116e-10)
(2.53064e-06 1.50305e-06 4.1837e-19 -2.53031e-06 8.75626e-20 -3.25038e-10)
(2.19773e-06 1.88043e-06 -2.29036e-20 -2.19756e-06 1.41954e-23 -1.61512e-10)
(1.84968e-06 2.16141e-06 -6.13861e-20 -1.84913e-06 -9.85528e-21 -5.4811e-10)
(1.51251e-06 2.35625e-06 -1.74459e-20 -1.51201e-06 9.64121e-22 -5.01757e-10)
(1.19692e-06 2.48389e-06 1.51061e-19 -1.19654e-06 2.41315e-20 -3.78745e-10)
(9.06613e-07 2.56041e-06 9.00198e-20 -9.06313e-07 1.41702e-20 -2.99525e-10)
(6.43235e-07 2.59767e-06 -9.48472e-20 -6.42942e-07 -1.54251e-20 -2.93412e-10)
(4.02281e-07 2.60527e-06 1.43547e-19 -4.02152e-07 2.24121e-20 -1.29119e-10)
(1.80086e-07 2.58908e-06 2.48598e-20 -1.79942e-07 3.02467e-21 -1.44408e-10)
(-2.7361e-08 2.55254e-06 -1.21634e-19 2.74406e-08 -1.528e-20 -7.95439e-11)
(1.73036e-06 -2.52599e-06 -9.03666e-21 -1.72943e-06 -2.85288e-21 -9.36105e-10)
(2.04872e-06 -2.20593e-06 -1.15e-19 -2.04771e-06 -2.51187e-20 -1.00818e-09)
(2.34928e-06 -1.79552e-06 2.67614e-20 -2.35057e-06 6.89091e-21 1.2872e-09)
(2.59547e-06 -1.30067e-06 1.89351e-20 -2.59485e-06 2.07352e-21 -6.1539e-10)