/*--------------------------------*- C++ -*----------------------------------*\
| =========                 |                                                 |
| \\      /  F ield         | OpenFOAM: The Open Source CFD Toolbox           |
|  \\    /   O peration     | Version:  2506                                  |
|   \\  /    A nd           | Website:  www.openfoam.com                      |
|    \\/     M anipulation  |                                                 |
\*---------------------------------------------------------------------------*/
FoamFile
{
    version     2.0;
    format      ascii;
    arch        "LSB;label=32;scalar=64";
    class       volScalarField;
    location    "250";
    object      turbulenceProperties:nut;
}
// * * * * * * * * * * * * * * * * * * * * * * * * * * * * * * * * * * * * * //

dimensions      [0 2 -1 0 0 0 0];

internalField   nonuniform List<scalar> 
1340
(
6.10428e-06
6.10376e-06
6.10249e-06
6.10183e-06
6.10105e-06
6.10419e-06
6.10377e-06
6.10251e-06
6.10164e-06
6.1007e-06
6.10196e-06
6.10399e-06
6.10373e-06
6.10257e-06
6.10157e-06
6.10048e-06
6.1016e-06
6.10197e-06
6.10372e-06
6.10367e-06
6.10265e-06
6.10158e-06
6.10038e-06
6.10134e-06
6.10168e-06
6.1013e-06
6.10345e-06
6.10359e-06
6.10273e-06
6.10163e-06
6.10033e-06
6.10114e-06
6.10144e-06
6.10109e-06
6.10046e-06
6.10318e-06
6.10347e-06
6.10275e-06
6.10165e-06
6.10031e-06
6.10096e-06
6.10122e-06
6.1009e-06
6.10031e-06
6.09994e-06
6.10291e-06
6.10329e-06
6.10271e-06
6.10164e-06
6.10028e-06
6.1008e-06
6.10102e-06
6.10071e-06
6.10017e-06
6.09981e-06
6.10262e-06
6.10306e-06
6.10261e-06
6.1016e-06
6.10025e-06
6.10064e-06
6.10082e-06
6.10053e-06
6.10003e-06
6.09966e-06
6.09938e-06
6.10234e-06
6.1028e-06
6.10249e-06
6.10155e-06
6.10023e-06
6.1005e-06
6.10063e-06
6.10035e-06
6.09988e-06
6.09951e-06
6.09923e-06
6.10206e-06
6.10254e-06
6.10234e-06
6.10148e-06
6.1002e-06
6.10036e-06
6.10045e-06
6.10018e-06
6.09973e-06
6.09935e-06
6.09907e-06
6.09889e-06
6.1018e-06
6.10229e-06
6.10219e-06
6.1014e-06
6.10017e-06
6.10024e-06
6.10028e-06
6.10001e-06
6.09958e-06
6.0992e-06
6.09892e-06
6.09874e-06
6.10158e-06
6.10204e-06
6.10202e-06
6.1013e-06
6.10013e-06
6.10012e-06
6.10012e-06
6.09984e-06
6.09943e-06
6.09906e-06
6.09878e-06
6.09859e-06
6.10137e-06
6.10181e-06
6.10184e-06
6.10119e-06
6.10007e-06
6.1e-06
6.09996e-06
6.09968e-06
6.09927e-06
6.09892e-06
6.09865e-06
6.09844e-06
6.09827e-06
6.10118e-06
6.10159e-06
6.10166e-06
6.10107e-06
6.10001e-06
6.09988e-06
6.0998e-06
6.09951e-06
6.09912e-06
6.09877e-06
6.09851e-06
6.09829e-06
6.09813e-06
6.10101e-06
6.10137e-06
6.10147e-06
6.10094e-06
6.09993e-06
6.09975e-06
6.09964e-06
6.09935e-06
6.09895e-06
6.09862e-06
6.09837e-06
6.09815e-06
6.098e-06
6.0979e-06
6.10085e-06
6.10116e-06
6.10128e-06
6.10079e-06
6.09984e-06
6.09962e-06
6.09947e-06
6.09917e-06
6.09878e-06
6.09846e-06
6.09821e-06
6.09801e-06
6.09787e-06
6.09777e-06
6.10069e-06
6.10097e-06
6.10109e-06
6.10064e-06
6.09973e-06
6.09947e-06
6.0993e-06
6.09899e-06
6.0986e-06
6.09829e-06
6.09805e-06
6.09786e-06
6.09772e-06
6.09763e-06
6.10055e-06
6.10078e-06
6.1009e-06
6.10048e-06
6.09962e-06
6.09932e-06
6.09912e-06
6.0988e-06
6.09842e-06
6.09811e-06
6.09788e-06
6.09769e-06
6.09756e-06
6.09748e-06
6.09743e-06
6.10041e-06
6.1006e-06
6.10071e-06
6.10032e-06
6.09949e-06
6.09916e-06
6.09893e-06
6.0986e-06
6.09822e-06
6.09792e-06
6.0977e-06
6.09752e-06
6.0974e-06
6.09731e-06
6.09727e-06
6.10027e-06
6.10042e-06
6.10053e-06
6.10015e-06
6.09936e-06
6.099e-06
6.09874e-06
6.09839e-06
6.09802e-06
6.09772e-06
6.09751e-06
6.09734e-06
6.09722e-06
6.09714e-06
6.0971e-06
6.10014e-06
6.10025e-06
6.10034e-06
6.09997e-06
6.09921e-06
6.09882e-06
6.09853e-06
6.09818e-06
6.09781e-06
6.09752e-06
6.09731e-06
6.09714e-06
6.09703e-06
6.09696e-06
6.09692e-06
6.09691e-06
6.1e-06
6.10008e-06
6.10015e-06
6.09979e-06
6.09905e-06
6.09864e-06
6.09832e-06
6.09796e-06
6.09759e-06
6.0973e-06
6.09709e-06
6.09694e-06
6.09683e-06
6.09676e-06
6.09673e-06
6.09671e-06
6.09992e-06
6.09996e-06
6.09961e-06
6.09888e-06
6.09844e-06
6.0981e-06
6.09773e-06
6.09736e-06
6.09708e-06
6.09687e-06
6.09672e-06
6.09662e-06
6.09655e-06
6.09652e-06
6.0965e-06
6.09651e-06
6.09975e-06
6.09977e-06
6.09942e-06
6.0987e-06
6.09824e-06
6.09788e-06
6.09749e-06
6.09712e-06
6.09684e-06
6.09664e-06
6.09649e-06
6.09639e-06
6.09633e-06
6.09629e-06
6.09628e-06
6.09628e-06
6.09957e-06
6.09958e-06
6.09922e-06
6.09851e-06
6.09802e-06
6.09764e-06
6.09724e-06
6.09687e-06
6.09659e-06
6.09639e-06
6.09624e-06
6.09614e-06
6.09608e-06
6.09605e-06
6.09603e-06
6.09603e-06
6.0994e-06
6.09938e-06
6.09902e-06
6.0983e-06
6.09779e-06
6.09739e-06
6.09698e-06
6.09661e-06
6.09633e-06
6.09613e-06
6.09598e-06
6.09588e-06
6.09581e-06
6.09578e-06
6.09576e-06
6.09575e-06
6.09576e-06
6.09922e-06
6.09918e-06
6.0988e-06
6.09809e-06
6.09756e-06
6.09712e-06
6.09671e-06
6.09634e-06
6.09606e-06
6.09585e-06
6.0957e-06
6.09559e-06
6.09552e-06
6.09548e-06
6.09546e-06
6.09545e-06
6.09545e-06
6.09904e-06
6.09897e-06
6.09858e-06
6.09786e-06
6.0973e-06
6.09685e-06
6.09643e-06
6.09605e-06
6.09577e-06
6.09556e-06
6.0954e-06
6.09528e-06
6.0952e-06
6.09515e-06
6.09512e-06
6.09511e-06
6.0951e-06
6.09885e-06
6.09876e-06
6.09835e-06
6.09762e-06
6.09704e-06
6.09657e-06
6.09613e-06
6.09575e-06
6.09546e-06
6.09524e-06
6.09507e-06
6.09494e-06
6.09485e-06
6.09479e-06
6.09475e-06
6.09472e-06
6.09471e-06
6.09471e-06
6.09865e-06
6.09854e-06
6.09812e-06
6.09737e-06
6.09676e-06
6.09627e-06
6.09582e-06
6.09543e-06
6.09513e-06
6.0949e-06
6.09471e-06
6.09456e-06
6.09446e-06
6.09438e-06
6.09433e-06
6.0943e-06
6.09427e-06
6.09426e-06
6.09844e-06
6.0983e-06
6.09787e-06
6.0971e-06
6.09647e-06
6.09596e-06
6.0955e-06
6.0951e-06
6.09478e-06
6.09452e-06
6.09431e-06
6.09415e-06
6.09403e-06
6.09393e-06
6.09387e-06
6.09382e-06
6.09378e-06
6.09376e-06
6.09823e-06
6.09806e-06
6.0976e-06
6.09682e-06
6.09617e-06
6.09564e-06
6.09516e-06
6.09475e-06
6.0944e-06
6.09412e-06
6.09388e-06
6.09369e-06
6.09354e-06
6.09343e-06
6.09335e-06
6.09328e-06
6.09323e-06
6.0932e-06
6.09317e-06
6.098e-06
6.09781e-06
6.09733e-06
6.09652e-06
6.09585e-06
6.0953e-06
6.09481e-06
6.09437e-06
6.094e-06
6.09368e-06
6.0934e-06
6.09318e-06
6.09301e-06
6.09287e-06
6.09277e-06
6.09269e-06
6.09262e-06
6.09257e-06
6.09254e-06
6.09777e-06
6.09755e-06
6.09704e-06
6.09621e-06
6.09551e-06
6.09495e-06
6.09444e-06
6.09397e-06
6.09355e-06
6.09319e-06
6.09288e-06
6.09262e-06
6.09242e-06
6.09226e-06
6.09213e-06
6.09203e-06
6.09195e-06
6.09189e-06
6.09184e-06
6.09752e-06
6.09728e-06
6.09674e-06
6.09589e-06
6.09516e-06
6.09458e-06
6.09404e-06
6.09353e-06
6.09308e-06
6.09266e-06
6.0923e-06
6.092e-06
6.09177e-06
6.09158e-06
6.09143e-06
6.09131e-06
6.09121e-06
6.09114e-06
6.09108e-06
6.09102e-06
6.09726e-06
6.09699e-06
6.09643e-06
6.09554e-06
6.0948e-06
6.09419e-06
6.09363e-06
6.09307e-06
6.09255e-06
6.09208e-06
6.09167e-06
6.09133e-06
6.09105e-06
6.09083e-06
6.09066e-06
6.09053e-06
6.09042e-06
6.09033e-06
6.09026e-06
6.0902e-06
6.09698e-06
6.09669e-06
6.09609e-06
6.09518e-06
6.09442e-06
6.09379e-06
6.09318e-06
6.09257e-06
6.09199e-06
6.09145e-06
6.09098e-06
6.09059e-06
6.09028e-06
6.09003e-06
6.08984e-06
6.0897e-06
6.08958e-06
6.08948e-06
6.0894e-06
6.08933e-06
6.09669e-06
6.09637e-06
6.09574e-06
6.0948e-06
6.09402e-06
6.09337e-06
6.09271e-06
6.09203e-06
6.09137e-06
6.09076e-06
6.09022e-06
6.08979e-06
6.08945e-06
6.08918e-06
6.08898e-06
6.08882e-06
6.08869e-06
6.08859e-06
6.0885e-06
6.08843e-06
6.08837e-06
6.09639e-06
6.09604e-06
6.09538e-06
6.09441e-06
6.0936e-06
6.09292e-06
6.0922e-06
6.09144e-06
6.0907e-06
6.09001e-06
6.08942e-06
6.08895e-06
6.08858e-06
6.08829e-06
6.08807e-06
6.08791e-06
6.08777e-06
6.08767e-06
6.08758e-06
6.08751e-06
6.08745e-06
6.09607e-06
6.09569e-06
6.09499e-06
6.09399e-06
6.09317e-06
6.09245e-06
6.09166e-06
6.0908e-06
6.08997e-06
6.08921e-06
6.08856e-06
6.08805e-06
6.08767e-06
6.08737e-06
6.08715e-06
6.08698e-06
6.08685e-06
6.08674e-06
6.08666e-06
6.08659e-06
6.08653e-06
6.09573e-06
6.09532e-06
6.09459e-06
6.09356e-06
6.09271e-06
6.09195e-06
6.09107e-06
6.09012e-06
6.08919e-06
6.08835e-06
6.08766e-06
6.08713e-06
6.08673e-06
6.08643e-06
6.08621e-06
6.08604e-06
6.08591e-06
6.08581e-06
6.08573e-06
6.08567e-06
6.08561e-06
6.09536e-06
6.09493e-06
6.09416e-06
6.0931e-06
6.09223e-06
6.09142e-06
6.09045e-06
6.08938e-06
6.08835e-06
6.08746e-06
6.08673e-06
6.08619e-06
6.08578e-06
6.08548e-06
6.08527e-06
6.0851e-06
6.08498e-06
6.08488e-06
6.0848e-06
6.08474e-06
6.08469e-06
6.08465e-06
6.09498e-06
6.09452e-06
6.09371e-06
6.09262e-06
6.09173e-06
6.09085e-06
6.08977e-06
6.08859e-06
6.08748e-06
6.08653e-06
6.08578e-06
6.08523e-06
6.08483e-06
6.08453e-06
6.08432e-06
6.08416e-06
6.08403e-06
6.08394e-06
6.08386e-06
6.08379e-06
6.08374e-06
6.08369e-06
6.09458e-06
6.09408e-06
6.09324e-06
6.09212e-06
6.09121e-06
6.09025e-06
6.08905e-06
6.08775e-06
6.08656e-06
6.08558e-06
6.08482e-06
6.08427e-06
6.08387e-06
6.08357e-06
6.08335e-06
6.08319e-06
6.08306e-06
6.08295e-06
6.08286e-06
6.08278e-06
6.08271e-06
6.08265e-06
6.09415e-06
6.09363e-06
6.09275e-06
6.0916e-06
6.09066e-06
6.08961e-06
6.08828e-06
6.08686e-06
6.08561e-06
6.08461e-06
6.08385e-06
6.08329e-06
6.08289e-06
6.08258e-06
6.08234e-06
6.08216e-06
6.082e-06
6.08187e-06
6.08176e-06
6.08166e-06
6.08156e-06
6.08147e-06
6.0937e-06
6.09315e-06
6.09223e-06
6.09105e-06
6.09008e-06
6.08893e-06
6.08745e-06
6.08594e-06
6.08464e-06
6.08363e-06
6.08287e-06
6.0823e-06
6.08186e-06
6.08152e-06
6.08125e-06
6.08102e-06
6.08083e-06
6.08066e-06
6.08051e-06
6.08037e-06
6.08024e-06
6.0801e-06
6.07997e-06
6.09322e-06
6.09264e-06
6.09169e-06
6.09048e-06
6.08947e-06
6.0882e-06
6.08658e-06
6.08498e-06
6.08366e-06
6.08264e-06
6.08186e-06
6.08125e-06
6.08076e-06
6.08036e-06
6.08002e-06
6.07973e-06
6.07949e-06
6.07927e-06
6.07907e-06
6.07889e-06
6.07871e-06
6.07853e-06
6.07835e-06
6.09271e-06
6.0921e-06
6.09112e-06
6.08988e-06
6.08883e-06
6.08743e-06
6.08567e-06
6.08401e-06
6.08267e-06
6.08163e-06
6.0808e-06
6.08011e-06
6.07953e-06
6.07904e-06
6.07863e-06
6.07827e-06
6.07796e-06
6.07769e-06
6.07745e-06
6.07723e-06
6.07701e-06
6.0768e-06
6.07658e-06
6.09217e-06
6.09154e-06
6.09052e-06
6.08926e-06
6.08815e-06
6.08661e-06
6.08473e-06
6.08302e-06
6.08167e-06
6.08058e-06
6.07965e-06
6.07886e-06
6.07817e-06
6.07758e-06
6.07708e-06
6.07666e-06
6.0763e-06
6.076e-06
6.07573e-06
6.07548e-06
6.07524e-06
6.07502e-06
6.07479e-06
6.0916e-06
6.09094e-06
6.08989e-06
6.0886e-06
6.08743e-06
6.08574e-06
6.08375e-06
6.08202e-06
6.08064e-06
6.07946e-06
6.0784e-06
6.07747e-06
6.07667e-06
6.076e-06
6.07545e-06
6.075e-06
6.07463e-06
6.07432e-06
6.07405e-06
6.07381e-06
6.07359e-06
6.07339e-06
6.07319e-06
6.09099e-06
6.09031e-06
6.08923e-06
6.08792e-06
6.08668e-06
6.08483e-06
6.08276e-06
6.08101e-06
6.07957e-06
6.07825e-06
6.07704e-06
6.07598e-06
6.07511e-06
6.07441e-06
6.07387e-06
6.07345e-06
6.07312e-06
6.07285e-06
6.07264e-06
6.07245e-06
6.07229e-06
6.07215e-06
6.07202e-06
6.07191e-06
6.09035e-06
6.08965e-06
6.08854e-06
6.0872e-06
6.08588e-06
6.08388e-06
6.08175e-06
6.07998e-06
6.07843e-06
6.07695e-06
6.0756e-06
6.07448e-06
6.07363e-06
6.073e-06
6.07255e-06
6.07223e-06
6.072e-06
6.07184e-06
6.07173e-06
6.07165e-06
6.0716e-06
6.07156e-06
6.07155e-06
6.07157e-06
6.08966e-06
6.08895e-06
6.08781e-06
6.08645e-06
6.08505e-06
6.0829e-06
6.08073e-06
6.07891e-06
6.07721e-06
6.07557e-06
6.07417e-06
6.07312e-06
6.07241e-06
6.07196e-06
6.0717e-06
6.07156e-06
6.07151e-06
6.07151e-06
6.07155e-06
6.07162e-06
6.07171e-06
6.07182e-06
6.07196e-06
6.07213e-06
6.08894e-06
6.08821e-06
6.08705e-06
6.08567e-06
6.08417e-06
6.08188e-06
6.07971e-06
6.0778e-06
6.07592e-06
6.0742e-06
6.07289e-06
6.07207e-06
6.07165e-06
6.07149e-06
6.07151e-06
6.07164e-06
6.07181e-06
6.072e-06
6.0722e-06
6.07242e-06
6.07264e-06
6.07289e-06
6.07316e-06
6.07348e-06
6.08817e-06
6.08743e-06
6.08626e-06
6.08485e-06
6.08325e-06
6.08085e-06
6.07867e-06
6.07663e-06
6.07461e-06
6.07297e-06
6.07195e-06
6.07152e-06
6.07151e-06
6.07174e-06
6.07207e-06
6.07245e-06
6.07282e-06
6.07319e-06
6.07354e-06
6.0739e-06
6.07426e-06
6.07463e-06
6.07505e-06
6.0755e-06
6.08736e-06
6.08661e-06
6.08542e-06
6.08399e-06
6.0823e-06
6.0798e-06
6.07761e-06
6.07541e-06
6.07337e-06
6.07201e-06
6.07148e-06
6.07158e-06
6.07203e-06
6.07264e-06
6.07327e-06
6.07388e-06
6.07446e-06
6.075e-06
6.07551e-06
6.076e-06
6.07648e-06
6.07699e-06
6.07753e-06
6.07813e-06
6.08649e-06
6.08573e-06
6.08454e-06
6.08309e-06
6.08131e-06
6.07874e-06
6.07652e-06
6.07418e-06
6.07232e-06
6.07149e-06
6.07158e-06
6.07224e-06
6.07314e-06
6.07411e-06
6.07503e-06
6.07588e-06
6.07665e-06
6.07735e-06
6.078e-06
6.07862e-06
6.07922e-06
6.07984e-06
6.0805e-06
6.08121e-06
6.08194e-06
6.08556e-06
6.08481e-06
6.08362e-06
6.08215e-06
6.08027e-06
6.07767e-06
6.07539e-06
6.07304e-06
6.07162e-06
6.07147e-06
6.07222e-06
6.07341e-06
6.07476e-06
6.07608e-06
6.07728e-06
6.07835e-06
6.07929e-06
6.08014e-06
6.0809e-06
6.08162e-06
6.08232e-06
6.08303e-06
6.08378e-06
6.08458e-06
6.08539e-06
6.08472e-06
6.08397e-06
6.08278e-06
6.08127e-06
6.07929e-06
6.07662e-06
6.07419e-06
6.07202e-06
6.07136e-06
6.07192e-06
6.07326e-06
6.07492e-06
6.07662e-06
6.0782e-06
6.0796e-06
6.08081e-06
6.08186e-06
6.08278e-06
6.08361e-06
6.08438e-06
6.08513e-06
6.08588e-06
6.08666e-06
6.0875e-06
6.08835e-06
6.084e-06
6.08324e-06
6.08204e-06
6.08048e-06
6.0784e-06
6.07565e-06
6.07299e-06
6.07135e-06
6.07152e-06
6.07281e-06
6.07468e-06
6.07669e-06
6.07861e-06
6.08034e-06
6.08181e-06
6.08307e-06
6.08415e-06
6.08508e-06
6.08592e-06
6.08668e-06
6.08742e-06
6.08816e-06
6.08893e-06
6.08975e-06
6.09058e-06
6.0832e-06
6.08246e-06
6.08124e-06
6.07964e-06
6.07746e-06
6.07464e-06
6.07182e-06
6.07116e-06
6.07213e-06
6.07411e-06
6.07643e-06
6.07873e-06
6.0808e-06
6.0826e-06
6.0841e-06
6.08535e-06
6.08641e-06
6.08732e-06
6.08812e-06
6.08885e-06
6.08955e-06
6.09024e-06
6.09097e-06
6.09174e-06
6.09252e-06
6.08232e-06
6.08158e-06
6.08037e-06
6.07873e-06
6.07648e-06
6.07359e-06
6.07073e-06
6.07126e-06
6.07308e-06
6.07574e-06
6.07846e-06
6.08094e-06
6.08308e-06
6.08486e-06
6.08631e-06
6.0875e-06
6.08849e-06
6.08932e-06
6.09006e-06
6.09073e-06
6.09136e-06
6.09199e-06
6.09265e-06
6.09336e-06
6.09407e-06
6.08135e-06
6.08063e-06
6.07942e-06
6.07776e-06
6.07545e-06
6.07253e-06
6.06981e-06
6.0717e-06
6.07439e-06
6.07764e-06
6.08062e-06
6.08314e-06
6.08521e-06
6.08688e-06
6.0882e-06
6.08927e-06
6.09015e-06
6.0909e-06
6.09155e-06
6.09215e-06
6.09273e-06
6.0933e-06
6.09391e-06
6.09457e-06
6.09526e-06
6.08028e-06
6.07957e-06
6.07839e-06
6.07672e-06
6.0744e-06
6.07148e-06
6.06917e-06
6.07244e-06
6.07593e-06
6.0796e-06
6.08262e-06
6.08503e-06
6.08691e-06
6.0884e-06
6.08957e-06
6.09053e-06
6.09133e-06
6.09203e-06
6.09265e-06
6.09323e-06
6.0938e-06
6.09439e-06
6.09502e-06
6.09573e-06
6.09649e-06
6.07909e-06
6.07842e-06
6.07728e-06
6.07563e-06
6.07332e-06
6.07048e-06
6.06889e-06
6.07337e-06
6.07744e-06
6.08127e-06
6.08415e-06
6.08633e-06
6.08803e-06
6.0894e-06
6.09053e-06
6.0915e-06
6.09235e-06
6.09311e-06
6.09382e-06
6.09451e-06
6.0952e-06
6.09592e-06
6.09672e-06
6.09763e-06
6.09862e-06
6.07778e-06
6.07715e-06
6.07607e-06
6.07447e-06
6.07224e-06
6.0696e-06
6.06906e-06
6.07423e-06
6.07856e-06
6.0823e-06
6.08497e-06
6.08704e-06
6.08878e-06
6.09031e-06
6.09165e-06
6.09287e-06
6.09397e-06
6.09498e-06
6.09593e-06
6.09686e-06
6.09779e-06
6.09877e-06
6.09985e-06
6.10107e-06
6.1024e-06
6.10374e-06
6.07633e-06
6.07576e-06
6.07476e-06
6.07327e-06
6.07118e-06
6.06889e-06
6.06958e-06
6.07471e-06
6.07894e-06
6.08255e-06
6.08531e-06
6.0877e-06
6.0899e-06
6.09192e-06
6.09374e-06
6.09536e-06
6.09681e-06
6.09811e-06
6.09931e-06
6.10045e-06
6.10158e-06
6.10274e-06
6.104e-06
6.1054e-06
6.10687e-06
6.10833e-06
6.07472e-06
6.07423e-06
6.07336e-06
6.07203e-06
6.07017e-06
6.06842e-06
6.06999e-06
6.07448e-06
6.07849e-06
6.08241e-06
6.08585e-06
6.08899e-06
6.09181e-06
6.09425e-06
6.0963e-06
6.09802e-06
6.09948e-06
6.10074e-06
6.10184e-06
6.10286e-06
6.10382e-06
6.10479e-06
6.10579e-06
6.10686e-06
6.10794e-06
6.10897e-06
6.07294e-06
6.07256e-06
6.07185e-06
6.07077e-06
6.06926e-06
6.06821e-06
6.07012e-06
6.07342e-06
6.07753e-06
6.0824e-06
6.08657e-06
6.08988e-06
6.09237e-06
6.0942e-06
6.09555e-06
6.09657e-06
6.09736e-06
6.098e-06
6.09853e-06
6.099e-06
6.09943e-06
6.09984e-06
6.10029e-06
6.1008e-06
6.10139e-06
6.10203e-06
6.07097e-06
6.07072e-06
6.07024e-06
6.0695e-06
6.06848e-06
6.06814e-06
6.0697e-06
6.07149e-06
6.07623e-06
6.08124e-06
6.0839e-06
6.08519e-06
6.08592e-06
6.08649e-06
6.08703e-06
6.08757e-06
6.08809e-06
6.08861e-06
6.0891e-06
6.08957e-06
6.09009e-06
6.09082e-06
6.09188e-06
6.09337e-06
6.09526e-06
6.09744e-06
6.06878e-06
6.06869e-06
6.06851e-06
6.06824e-06
6.06786e-06
6.06787e-06
6.06852e-06
6.06894e-06
6.07264e-06
6.07398e-06
6.07221e-06
6.07191e-06
6.07306e-06
6.07507e-06
6.07743e-06
6.07986e-06
6.08221e-06
6.0844e-06
6.08644e-06
6.08836e-06
6.0902e-06
6.09204e-06
6.09395e-06
6.09599e-06
6.09809e-06
6.10014e-06
)
;

boundaryField
{
    inlet
    {
        type            freestream;
        freestreamValue uniform 1e-05;
        value           uniform 1e-05;
    }
    outlet
    {
        type            freestream;
        freestreamValue nonuniform List<scalar> 0();
        value           nonuniform List<scalar> 0();
    }
    walls
    {
        type            nutUSpaldingWallFunction;
        value           nonuniform List<scalar> 0();
    }
    frontAndBack
    {
        type            empty;
    }
    procBoundary0to1
    {
        type            processor;
        value           nonuniform List<scalar> 
94
(
6.10157e-06
6.10245e-06
6.10245e-06
6.10234e-06
6.10234e-06
6.10156e-06
6.10156e-06
6.10063e-06
6.10063e-06
6.10008e-06
6.10008e-06
6.09967e-06
6.09954e-06
6.09954e-06
6.09921e-06
6.09905e-06
6.09905e-06
6.09874e-06
6.09858e-06
6.09842e-06
6.09842e-06
6.09814e-06
6.09802e-06
6.09802e-06
6.09783e-06
6.0977e-06
6.09757e-06
6.09757e-06
6.0974e-06
6.09724e-06
6.09708e-06
6.09708e-06
6.09691e-06
6.09672e-06
6.09672e-06
6.09652e-06
6.09629e-06
6.09604e-06
6.09604e-06
6.09578e-06
6.09546e-06
6.09511e-06
6.09511e-06
6.09472e-06
6.09426e-06
6.09374e-06
6.09374e-06
6.09315e-06
6.09251e-06
6.09179e-06
6.09179e-06
6.09098e-06
6.09015e-06
6.08927e-06
6.08927e-06
6.08832e-06
6.0874e-06
6.08649e-06
6.08557e-06
6.08557e-06
6.08462e-06
6.08365e-06
6.08259e-06
6.08138e-06
6.08138e-06
6.07983e-06
6.07817e-06
6.07636e-06
6.07456e-06
6.07299e-06
6.07299e-06
6.07182e-06
6.0716e-06
6.07232e-06
6.07381e-06
6.07597e-06
6.07874e-06
6.07874e-06
6.08264e-06
6.08617e-06
6.08916e-06
6.09138e-06
6.09327e-06
6.09477e-06
6.09593e-06
6.09725e-06
6.09963e-06
6.09963e-06
6.10507e-06
6.10975e-06
6.10995e-06
6.10272e-06
6.09982e-06
6.10209e-06
)
;
    }
    procBoundary0to4
    {
        type            processor;
        value           nonuniform List<scalar> 
72
(
6.10421e-06
6.10405e-06
6.10372e-06
6.10332e-06
6.10293e-06
6.10262e-06
6.10235e-06
6.10208e-06
6.10182e-06
6.10156e-06
6.10131e-06
6.10109e-06
6.10091e-06
6.10075e-06
6.10062e-06
6.1005e-06
6.10039e-06
6.10028e-06
6.10018e-06
6.10008e-06
6.09999e-06
6.09989e-06
6.09987e-06
6.09987e-06
6.09973e-06
6.0996e-06
6.09945e-06
6.0993e-06
6.09915e-06
6.09899e-06
6.09882e-06
6.09864e-06
6.09845e-06
6.09826e-06
6.09805e-06
6.09783e-06
6.09759e-06
6.09734e-06
6.09708e-06
6.0968e-06
6.0965e-06
6.09619e-06
6.09585e-06
6.09549e-06
6.09511e-06
6.0947e-06
6.09427e-06
6.09381e-06
6.09331e-06
6.09279e-06
6.09223e-06
6.09163e-06
6.091e-06
6.09032e-06
6.0896e-06
6.08883e-06
6.08801e-06
6.08713e-06
6.08619e-06
6.08533e-06
6.08459e-06
6.08378e-06
6.08288e-06
6.08188e-06
6.08077e-06
6.07954e-06
6.07817e-06
6.07666e-06
6.07499e-06
6.07314e-06
6.07109e-06
6.06882e-06
)
;
    }
    procBoundary0to5
    {
        type            processor;
        value           nonuniform List<scalar> 4(6.10423e-06 6.1037e-06 6.1025e-06 6.10216e-06);
    }
}


// ************************************************************************* //
