/*--------------------------------*- C++ -*----------------------------------*\
| =========                 |                                                 |
| \\      /  F ield         | OpenFOAM: The Open Source CFD Toolbox           |
|  \\    /   O peration     | Version:  2506                                  |
|   \\  /    A nd           | Website:  www.openfoam.com                      |
|    \\/     M anipulation  |                                                 |
\*---------------------------------------------------------------------------*/
FoamFile
{
    version     2.0;
    format      ascii;
    arch        "LSB;label=32;scalar=64";
    class       pointScalarField;
    location    "100";
    object      streamFunction;
}
// * * * * * * * * * * * * * * * * * * * * * * * * * * * * * * * * * * * * * //

dimensions      [0 3 -1 0 0 0 0];

internalField   nonuniform List<scalar> 
21812
(
0
0
0
0
0
0
0
0
0
0
0
0
0
0
0
0
0
0
0
0
0
0
0
0
0
0
0
0
0
0
0
0
0
0
0
0
0
0
0
0
0
0
0
0
0
0
0
0
0
0
0
0
0
0
0
0
0
0
0
0
0
0
0
0
0
0
0
0
0
0
0
0
0
0
0
0
0
0
0
0
0
0
0
0
0
0
0
0
0
0
0
0
0
0
0
0
0
0
0
0
0
0
0
0
0
0
0
0
0
0
0
0
0
0
0
0
0
0
0
0
0
0
0
0
0
0
0
0
0
0
0
0
0
0
0
0
0
0
0
0
0
0
0
0
0
0
0
0
0
0
0
0
0
0
0
0
3.64854
4.05712
4.5096
4.91814
5.29286
5.65206
5.95472
6.20686
6.42078
6.57882
6.69812
6.7819
6.8271
6.83982
6.8115
6.73078
6.59648
6.39732
6.1257
5.76682
5.31118
4.74194
4.08022
3.397
2.85836
2.60762
2.61658
2.75026
2.90082
3.00912
3.04872
3.0067
2.88706
2.69784
2.43468
2.0841
1.64023
1.10642
0.58058
1.16103
3.1855
2.70012
2.12048
1.49698
0.849052
0.195727
-0.434898
-1.02813
-1.56112
-2.02258
-2.4087
-2.72824
-2.99114
-3.2064
-3.38912
-3.54458
-3.6823
-3.80628
-3.92242
-4.03252
-4.13964
-4.24294
-4.34042
-4.41784
-4.47176
-4.50948
-4.53272
-4.5468
-4.55406
-4.5528
-4.53888
-4.51136
-4.47048
-4.41748
-4.35148
-4.268
-4.15222
-3.91362
-3.55394
3.64854
4.05712
4.5096
4.91814
5.29286
5.65206
5.95472
6.20686
6.42078
6.57882
6.69812
6.7819
6.8271
6.83982
6.8115
6.73078
6.59648
6.39732
6.1257
5.76682
5.31118
4.74194
4.08022
3.397
2.85836
2.60762
2.61658
2.75026
2.90082
3.00912
3.04872
3.0067
2.88706
2.69784
2.43468
2.0841
1.64023
1.10642
0.58058
1.16103
3.1855
2.70012
2.12048
1.49698
0.849052
0.195727
-0.434898
-1.02813
-1.56112
-2.02258
-2.4087
-2.72824
-2.99114
-3.2064
-3.38912
-3.54458
-3.6823
-3.80628
-3.92242
-4.03252
-4.13964
-4.24294
-4.34042
-4.41784
-4.47176
-4.50948
-4.53272
-4.5468
-4.55406
-4.5528
-4.53888
-4.51136
-4.47048
-4.41748
-4.35148
-4.268
-4.15222
-3.91362
-3.55394
6.97458
7.8085
8.69896
9.56952
10.3793
11.1663
11.8716
12.4917
13.0438
13.5029
13.8869
14.2003
14.4409
14.6207
14.742
14.7991
14.7852
14.6855
14.4893
14.1643
13.6915
13.0228
12.1544
11.1301
10.1306
9.3691
8.86846
8.50864
8.1959
7.88718
7.5733
7.23668
6.84804
6.37232
5.76932
4.99888
4.01255
2.84714
1.63722
2.36449
6.07962
5.13144
4.01097
2.81761
1.5665
0.281821
-0.97315
-2.13752
-3.185
-4.10172
-4.88144
-5.5401
-6.09516
-6.56008
-6.9599
-7.30584
-7.61326
-7.8924
-8.1542
-8.40232
-8.643
-8.87658
-9.0993
-9.287
-9.43032
-9.5403
-9.61596
-9.66074
-9.6768
-9.6655
-9.6279
-9.56638
-9.48204
-9.3766
-9.24846
-9.0882
-8.88412
-8.46462
-7.81172
6.97458
7.8085
8.69896
9.56952
10.3793
11.1663
11.8716
12.4917
13.0438
13.5029
13.8869
14.2003
14.4409
14.6207
14.742
14.7991
14.7852
14.6855
14.4893
14.1643
13.6915
13.0228
12.1544
11.1301
10.1306
9.3691
8.86846
8.50864
8.1959
7.88718
7.5733
7.23668
6.84804
6.37232
5.76932
4.99888
4.01255
2.84714
1.63722
2.36449
6.07962
5.13144
4.01097
2.81761
1.5665
0.281821
-0.97315
-2.13752
-3.185
-4.10172
-4.88144
-5.5401
-6.09516
-6.56008
-6.9599
-7.30584
-7.61326
-7.8924
-8.1542
-8.40232
-8.643
-8.87658
-9.0993
-9.287
-9.43032
-9.5403
-9.61596
-9.66074
-9.6768
-9.6655
-9.6279
-9.56638
-9.48204
-9.3766
-9.24846
-9.0882
-8.88412
-8.46462
-7.81172
10.2088
11.4782
12.8108
14.1607
15.412
16.6235
17.738
18.7268
19.6141
20.3664
21.0055
21.5357
21.9577
22.279
22.5088
22.6358
22.6666
22.5879
22.4046
22.0897
21.6375
21.0122
20.2072
19.2366
18.2241
17.3554
16.667
16.0567
15.4277
14.7234
13.9339
13.0704
12.1474
11.1534
10.0293
8.69412
7.03341
5.10956
3.10305
3.59103
8.87732
7.45622
5.77289
3.99753
2.14172
0.231363
-1.6362
-3.36402
-4.9237
-6.29872
-7.47804
-8.48242
-9.33692
-10.0608
-10.6858
-11.2305
-11.7157
-12.1572
-12.5698
-12.9606
-13.3394
-13.7066
-14.0559
-14.3568
-14.5935
-14.78
-14.9164
-15.0072
-15.0561
-15.0641
-15.0337
-14.9664
-14.8636
-14.726
-14.5511
-14.324
-14.0289
-13.4261
-12.4824
10.2088
11.4782
12.8108
14.1607
15.412
16.6235
17.738
18.7268
19.6141
20.3664
21.0055
21.5357
21.9577
22.279
22.5088
22.6358
22.6666
22.5879
22.4046
22.0897
21.6375
21.0122
20.2072
19.2366
18.2241
17.3554
16.667
16.0567
15.4277
14.7234
13.9339
13.0704
12.1474
11.1534
10.0293
8.69412
7.03341
5.10956
3.10305
3.59103
8.87732
7.45622
5.77289
3.99753
2.14172
0.231363
-1.6362
-3.36402
-4.9237
-6.29872
-7.47804
-8.48242
-9.33692
-10.0608
-10.6858
-11.2305
-11.7157
-12.1572
-12.5698
-12.9606
-13.3394
-13.7066
-14.0559
-14.3568
-14.5935
-14.78
-14.9164
-15.0072
-15.0561
-15.0641
-15.0337
-14.9664
-14.8636
-14.726
-14.5511
-14.324
-14.0289
-13.4261
-12.4824
13.335
15.0559
16.8442
18.6971
20.4093
22.0706
23.6195
25.0092
26.2621
27.3477
28.2832
29.0753
29.7242
30.2379
30.626
30.8834
31.0119
30.9984
30.8411
30.5178
30.0227
29.3307
28.4541
27.4193
26.3439
25.3913
24.5936
23.8588
23.0968
22.2385
21.2423
20.0766
18.7188
17.1582
15.3703
13.301
10.8008
7.95834
5.00978
4.90665
11.5574
9.66062
7.40145
5.03741
2.57078
0.0297966
-2.45143
-4.74209
-6.8107
-8.64188
-10.2197
-11.5713
-12.7303
-13.721
-14.5821
-15.3367
-16.0122
-16.6278
-17.2033
-17.7483
-18.2749
-18.7846
-19.2695
-19.6923
-20.0321
-20.304
-20.5097
-20.6543
-20.7427
-20.777
-20.7607
-20.6956
-20.5833
-20.4245
-20.2147
-19.9335
-19.5559
-18.7838
-17.5255
13.335
15.0559
16.8442
18.6971
20.4093
22.0706
23.6195
25.0092
26.2621
27.3477
28.2832
29.0753
29.7242
30.2379
30.626
30.8834
31.0119
30.9984
30.8411
30.5178
30.0227
29.3307
28.4541
27.4193
26.3439
25.3913
24.5936
23.8588
23.0968
22.2385
21.2423
20.0766
18.7188
17.1582
15.3703
13.301
10.8008
7.95834
5.00978
4.90665
11.5574
9.66062
7.40145
5.03741
2.57078
0.0297966
-2.45143
-4.74209
-6.8107
-8.64188
-10.2197
-11.5713
-12.7303
-13.721
-14.5821
-15.3367
-16.0122
-16.6278
-17.2033
-17.7483
-18.2749
-18.7846
-19.2695
-19.6923
-20.0321
-20.304
-20.5097
-20.6543
-20.7427
-20.777
-20.7607
-20.6956
-20.5833
-20.4245
-20.2147
-19.9335
-19.5559
-18.7838
-17.5255
16.407
18.5967
20.8589
23.2425
25.4307
27.5606
29.5636
31.3698
33.0047
34.4425
35.6881
36.7554
37.6432
38.3639
38.9209
39.3121
39.5395
39.5918
39.4703
39.1499
38.6317
37.8897
36.9404
35.8143
34.6273
33.5395
32.5878
31.6933
30.7785
29.7804
28.6575
27.3643
25.8367
23.984
21.6938
18.8843
15.4253
11.4926
7.42118
6.39607
14.1629
11.7761
8.91651
5.94643
2.85377
-0.331587
-3.43708
-6.29574
-8.8749
-11.1632
-13.1396
-14.8396
-16.3065
-17.5689
-18.6724
-19.6456
-20.5197
-21.3179
-22.0641
-22.7707
-23.4517
-24.1093
-24.7347
-25.2847
-25.733
-26.0954
-26.3746
-26.5768
-26.7074
-26.7692
-26.767
-26.7041
-26.5824
-26.4027
-26.1606
-25.8309
-25.3787
-24.4632
-22.8986
16.407
18.5967
20.8589
23.2425
25.4307
27.5606
29.5636
31.3698
33.0047
34.4425
35.6881
36.7554
37.6432
38.3639
38.9209
39.3121
39.5395
39.5918
39.4703
39.1499
38.6317
37.8897
36.9404
35.8143
34.6273
33.5395
32.5878
31.6933
30.7785
29.7804
28.6575
27.3643
25.8367
23.984
21.6938
18.8843
15.4253
11.4926
7.42118
6.39607
14.1629
11.7761
8.91651
5.94643
2.85377
-0.331587
-3.43708
-6.29574
-8.8749
-11.1632
-13.1396
-14.8396
-16.3065
-17.5689
-18.6724
-19.6456
-20.5197
-21.3179
-22.0641
-22.7707
-23.4517
-24.1093
-24.7347
-25.2847
-25.733
-26.0954
-26.3746
-26.5768
-26.7074
-26.7692
-26.767
-26.7041
-26.5824
-26.4027
-26.1606
-25.8309
-25.3787
-24.4632
-22.8986
19.4377
22.1163
24.877
27.8177
30.504
33.1212
35.6027
37.8422
39.8811
41.6879
43.2646
44.6299
45.7789
46.7279
47.4797
48.0299
48.3861
48.5311
48.4674
48.1724
47.6446
46.8604
45.8421
44.6204
43.3094
42.0662
40.933
39.8424
38.7275
37.531
36.2167
34.7488
33.0704
31.0778
28.568
25.2755
20.9352
15.8096
10.4204
8.15652
16.7078
13.8142
10.3274
6.72801
2.98841
-0.861449
-4.60803
-8.0449
-11.1401
-13.8883
-16.2643
-18.3126
-20.0882
-21.6252
-22.9755
-24.173
-25.2524
-26.2413
-27.1662
-28.0424
-28.8857
-29.6988
-30.4717
-31.1571
-31.722
-32.1822
-32.5421
-32.8083
-32.987
-33.0815
-33.0979
-33.0402
-32.9107
-32.7111
-32.4348
-32.0541
-31.5208
-30.4637
-28.5967
19.4377
22.1163
24.877
27.8177
30.504
33.1212
35.6027
37.8422
39.8811
41.6879
43.2646
44.6299
45.7789
46.7279
47.4797
48.0299
48.3861
48.5311
48.4674
48.1724
47.6446
46.8604
45.8421
44.6204
43.3094
42.0662
40.933
39.8424
38.7275
37.531
36.2167
34.7488
33.0704
31.0778
28.568
25.2755
20.9352
15.8096
10.4204
8.15652
16.7078
13.8142
10.3274
6.72801
2.98841
-0.861449
-4.60803
-8.0449
-11.1401
-13.8883
-16.2643
-18.3126
-20.0882
-21.6252
-22.9755
-24.173
-25.2524
-26.2413
-27.1662
-28.0424
-28.8857
-29.6988
-30.4717
-31.1571
-31.722
-32.1822
-32.5421
-32.8083
-32.987
-33.0815
-33.0979
-33.0402
-32.9107
-32.7111
-32.4348
-32.0541
-31.5208
-30.4637
-28.5967
22.4468
25.6401
28.9204
32.4488
35.6575
38.7857
41.7661
44.4603
46.9185
49.1127
51.0369
52.7142
54.1424
55.3351
56.2964
57.0227
57.5186
57.7698
57.7768
57.5189
56.9947
56.1835
55.1099
53.8087
52.3877
51.0011
49.6934
48.4069
47.0833
45.6685
44.1263
42.4245
40.5159
38.3199
35.6562
32.1441
27.2056
20.9538
14.0975
10.2959
19.2071
15.7847
11.6412
7.38592
2.97433
-1.56595
-5.97499
-10.0054
-13.6262
-16.8403
-19.6184
-22.0157
-24.1009
-25.914
-27.5136
-28.9394
-30.23
-31.4157
-32.5264
-33.5791
-34.5915
-35.5664
-36.4933
-37.3199
-38.0085
-38.5734
-39.0198
-39.3552
-39.5861
-39.717
-39.7543
-39.7036
-39.5678
-39.348
-39.0377
-38.6044
-37.9868
-36.7882
-34.6291
22.4468
25.6401
28.9204
32.4488
35.6575
38.7857
41.7661
44.4603
46.9185
49.1127
51.0369
52.7142
54.1424
55.3351
56.2964
57.0227
57.5186
57.7698
57.7768
57.5189
56.9947
56.1835
55.1099
53.8087
52.3877
51.0011
49.6934
48.4069
47.0833
45.6685
44.1263
42.4245
40.5159
38.3199
35.6562
32.1441
27.2056
20.9538
14.0975
10.2959
19.2071
15.7847
11.6412
7.38592
2.97433
-1.56595
-5.97499
-10.0054
-13.6262
-16.8403
-19.6184
-22.0157
-24.1009
-25.914
-27.5136
-28.9394
-30.23
-31.4157
-32.5264
-33.5791
-34.5915
-35.5664
-36.4933
-37.3199
-38.0085
-38.5734
-39.0198
-39.3552
-39.5861
-39.717
-39.7543
-39.7036
-39.5678
-39.348
-39.0377
-38.6044
-37.9868
-36.7882
-34.6291
25.4452
29.1797
33.0074
37.1564
40.911
44.575
48.078
51.2458
54.1454
56.7417
59.0297
61.0375
62.7598
64.2117
65.3994
66.3182
66.9718
67.3467
67.4425
67.2373
66.7306
65.9046
64.7846
63.4086
61.8839
60.3606
58.885
57.4078
55.8781
54.2443
52.4692
50.5173
48.3413
45.8639
42.9515
39.2735
34.0193
26.8801
18.5222
12.9288
21.6712
17.6966
12.8622
7.92014
2.80754
-2.45178
-7.54939
-12.1922
-16.3516
-20.0403
-23.2249
-25.9729
-28.3682
-30.4581
-32.3083
-33.9655
-35.4709
-36.8587
-38.1607
-39.3964
-40.584
-41.7275
-42.815
-43.7902
-44.6099
-45.2868
-45.8267
-46.2377
-46.5264
-46.6981
-46.7605
-46.7197
-46.5793
-46.3406
-45.9953
-45.5076
-44.8026
-43.46
-41.0178
25.4452
29.1797
33.0074
37.1564
40.911
44.575
48.078
51.2458
54.1454
56.7417
59.0297
61.0375
62.7598
64.2117
65.3994
66.3182
66.9718
67.3467
67.4425
67.2373
66.7306
65.9046
64.7846
63.4086
61.8839
60.3606
58.885
57.4078
55.8781
54.2443
52.4692
50.5173
48.3413
45.8639
42.9515
39.2735
34.0193
26.8801
18.5222
12.9288
21.6712
17.6966
12.8622
7.92014
2.80754
-2.45178
-7.54939
-12.1922
-16.3516
-20.0403
-23.2249
-25.9729
-28.3682
-30.4581
-32.3083
-33.9655
-35.4709
-36.8587
-38.1607
-39.3964
-40.584
-41.7275
-42.815
-43.7902
-44.6099
-45.2868
-45.8267
-46.2377
-46.5264
-46.6981
-46.7605
-46.7197
-46.5793
-46.3406
-45.9953
-45.5076
-44.8026
-43.46
-41.0178
28.4462
32.7492
37.1528
41.956
46.2838
50.5117
54.5635
58.2281
61.5858
64.6046
67.2714
69.6223
71.6531
73.3793
74.8075
75.933
76.76
77.2728
77.4703
77.3308
76.8539
76.0243
74.8688
73.4268
71.8056
70.1529
68.5153
66.8508
65.1169
63.2654
61.2577
59.0558
56.609
53.8307
50.59
46.6555
41.2072
33.474
23.7231
16.1675
24.1085
19.5548
13.9937
8.33279
2.48588
-3.52507
-9.34156
-14.6194
-19.3335
-23.5081
-27.1057
-30.2075
-32.9143
-35.2815
-37.3831
-39.273
-40.9963
-42.5898
-44.0878
-45.5119
-46.8812
-48.1989
-49.4533
-50.5839
-51.5423
-52.3381
-52.9782
-53.4706
-53.8228
-54.0399
-54.1308
-54.1026
-53.9593
-53.7023
-53.3222
-52.7791
-51.9834
-50.4968
-47.7828
28.4462
32.7492
37.1528
41.956
46.2838
50.5117
54.5635
58.2281
61.5858
64.6046
67.2714
69.6223
71.6531
73.3793
74.8075
75.933
76.76
77.2728
77.4703
77.3308
76.8539
76.0243
74.8688
73.4268
71.8056
70.1529
68.5153
66.8508
65.1169
63.2654
61.2577
59.0558
56.609
53.8307
50.59
46.6555
41.2072
33.474
23.7231
16.1675
24.1085
19.5548
13.9937
8.33279
2.48588
-3.52507
-9.34156
-14.6194
-19.3335
-23.5081
-27.1057
-30.2075
-32.9143
-35.2815
-37.3831
-39.273
-40.9963
-42.5898
-44.0878
-45.5119
-46.8812
-48.1989
-49.4533
-50.5839
-51.5423
-52.3381
-52.9782
-53.4706
-53.8228
-54.0399
-54.1308
-54.1026
-53.9593
-53.7023
-53.3222
-52.7791
-51.9834
-50.4968
-47.7828
31.4564
36.3598
41.3701
46.8647
51.7945
56.6119
61.2409
65.4248
69.2621
72.7218
75.7835
78.4929
80.8478
82.8607
84.5422
85.8896
86.9026
87.5672
87.8802
87.8209
87.3881
86.5655
85.3846
83.8848
82.1742
80.3977
78.6021
76.753
74.8154
72.7436
70.5008
68.0467
65.3279
62.2527
58.6671
54.3825
48.7144
40.6113
29.6827
20.1117
26.5273
21.3651
15.0382
8.6213
2.00548
-4.79431
-11.3617
-17.3004
-22.5886
-27.2635
-31.2825
-34.7425
-37.7631
-40.4081
-42.7615
-44.8851
-46.8277
-48.6295
-50.3277
-51.9448
-53.5002
-54.9984
-56.426
-57.7187
-58.8229
-59.7452
-60.4922
-61.0727
-61.4939
-61.7614
-61.8853
-61.8726
-61.7287
-61.4548
-61.0396
-60.4395
-59.5512
-57.9203
-54.9445
31.4564
36.3598
41.3701
46.8647
51.7945
56.6119
61.2409
65.4248
69.2621
72.7218
75.7835
78.4929
80.8478
82.8607
84.5422
85.8896
86.9026
87.5672
87.8802
87.8209
87.3881
86.5655
85.3846
83.8848
82.1742
80.3977
78.6021
76.753
74.8154
72.7436
70.5008
68.0467
65.3279
62.2527
58.6671
54.3825
48.7144
40.6113
29.6827
20.1117
26.5273
21.3651
15.0382
8.6213
2.00548
-4.79431
-11.3617
-17.3004
-22.5886
-27.2635
-31.2825
-34.7425
-37.7631
-40.4081
-42.7615
-44.8851
-46.8277
-48.6295
-50.3277
-51.9448
-53.5002
-54.9984
-56.426
-57.7187
-58.8229
-59.7452
-60.4922
-61.0727
-61.4939
-61.7614
-61.8853
-61.8726
-61.7287
-61.4548
-61.0396
-60.4395
-59.5512
-57.9203
-54.9445
34.4858
40.0211
45.6695
51.8939
57.4584
62.897
68.132
72.8577
77.198
81.1182
84.5924
87.6748
90.3653
92.6792
94.6288
96.2086
97.4214
98.2505
98.6929
98.7254
98.3481
97.5445
96.3473
94.7982
93.0056
91.1124
89.1654
87.1348
84.9931
82.6996
80.2166
77.5044
74.5077
71.1345
67.2134
62.5377
56.5679
48.2046
36.3521
24.8387
28.9321
23.131
15.9967
8.78494
1.36071
-6.26626
-13.6205
-20.2491
-26.1337
-31.3249
-35.7763
-39.6004
-42.9381
-45.8623
-48.468
-50.8254
-52.9883
-55.0005
-56.9012
-58.7148
-60.4616
-62.1455
-63.7518
-65.2135
-66.4705
-67.5264
-68.3877
-69.0625
-69.559
-69.8821
-70.0427
-70.0493
-69.907
-69.6175
-69.1672
-68.5093
-67.5261
-65.7511
-62.5249
34.4858
40.0211
45.6695
51.8939
57.4584
62.897
68.132
72.8577
77.198
81.1182
84.5924
87.6748
90.3653
92.6792
94.6288
96.2086
97.4214
98.2505
98.6929
98.7254
98.3481
97.5445
96.3473
94.7982
93.0056
91.1124
89.1654
87.1348
84.9931
82.6996
80.2166
77.5044
74.5077
71.1345
67.2134
62.5377
56.5679
48.2046
36.3521
24.8387
28.9321
23.131
15.9967
8.78494
1.36071
-6.26626
-13.6205
-20.2491
-26.1337
-31.3249
-35.7763
-39.6004
-42.9381
-45.8623
-48.468
-50.8254
-52.9883
-55.0005
-56.9012
-58.7148
-60.4616
-62.1455
-63.7518
-65.2135
-66.4705
-67.5264
-68.3877
-69.0625
-69.559
-69.8821
-70.0427
-70.0493
-69.907
-69.6175
-69.1672
-68.5093
-67.5261
-65.7511
-62.5249
37.5394
43.7421
50.0637
57.0582
63.2895
69.381
75.2531
80.5496
85.4151
89.8163
93.7201
97.192
100.234
102.86
105.089
106.915
108.339
109.345
109.928
110.064
109.754
108.981
107.778
106.188
104.321
102.317
100.225
98.0164
95.6722
93.1548
90.4279
87.4515
84.1685
80.488
76.2354
71.1667
64.8229
56.2168
43.6717
30.3984
31.3282
24.8539
16.8691
8.8205
0.546436
-7.94942
-16.1301
-23.4794
-29.9851
-35.7118
-40.6082
-44.8043
-48.4633
-51.6686
-54.527
-57.1187
-59.5021
-61.7256
-63.831
-65.8441
-67.7859
-69.6599
-71.451
-73.088
-74.5049
-75.7017
-76.684
-77.4603
-78.0376
-78.4219
-78.6241
-78.6533
-78.5155
-78.2114
-77.7267
-77.0099
-75.9301
-74.0124
-70.5471
37.5394
43.7421
50.0637
57.0582
63.2895
69.381
75.2531
80.5496
85.4151
89.8163
93.7201
97.192
100.234
102.86
105.089
106.915
108.339
109.345
109.928
110.064
109.754
108.981
107.778
106.188
104.321
102.317
100.225
98.0164
95.6722
93.1548
90.4279
87.4515
84.1685
80.488
76.2354
71.1667
64.8229
56.2168
43.6717
30.3984
31.3282
24.8539
16.8691
8.8205
0.546436
-7.94942
-16.1301
-23.4794
-29.9851
-35.7118
-40.6082
-44.8043
-48.4633
-51.6686
-54.527
-57.1187
-59.5021
-61.7256
-63.831
-65.8441
-67.7859
-69.6599
-71.451
-73.088
-74.5049
-75.7017
-76.684
-77.4603
-78.0376
-78.4219
-78.6241
-78.6533
-78.5155
-78.2114
-77.7267
-77.0099
-75.9301
-74.0124
-70.5471
40.6252
47.53
54.5616
62.3692
69.3036
76.0826
82.6242
88.5193
93.9359
98.8388
103.191
107.068
110.475
113.428
115.949
118.032
119.679
120.873
121.608
121.86
121.627
120.894
119.694
118.072
116.138
114.033
111.801
109.42
106.874
104.132
101.158
97.9124
94.3359
90.3363
85.7447
80.2907
73.5305
64.6491
51.5878
36.8113
33.7187
26.5374
17.6549
8.72523
-0.443686
-9.85419
-18.9016
-27.0063
-34.1601
-40.4435
-45.7998
-50.3772
-54.3632
-57.8525
-60.9646
-63.7908
-66.3947
-68.8301
-71.1413
-73.356
-75.4957
-77.5643
-79.5452
-81.364
-82.9474
-84.2921
-85.4025
-86.2865
-86.9512
-87.4023
-87.6509
-87.7069
-87.5762
-87.2596
-86.7406
-85.9648
-84.7871
-82.727
-79.035
40.6252
47.53
54.5616
62.3692
69.3036
76.0826
82.6242
88.5193
93.9359
98.8388
103.191
107.068
110.475
113.428
115.949
118.032
119.679
120.873
121.608
121.86
121.627
120.894
119.694
118.072
116.138
114.033
111.801
109.42
106.874
104.132
101.158
97.9124
94.3359
90.3363
85.7447
80.2907
73.5305
64.6491
51.5878
36.8113
33.7187
26.5374
17.6549
8.72523
-0.443686
-9.85419
-18.9016
-27.0063
-34.1601
-40.4435
-45.7998
-50.3772
-54.3632
-57.8525
-60.9646
-63.7908
-66.3947
-68.8301
-71.1413
-73.356
-75.4957
-77.5643
-79.5452
-81.364
-82.9474
-84.2921
-85.4025
-86.2865
-86.9512
-87.4023
-87.6509
-87.7069
-87.5762
-87.2596
-86.7406
-85.9648
-84.7871
-82.727
-79.035
43.7472
51.3929
59.1736
67.8399
75.515
83.0168
90.2626
96.7866
102.78
108.209
113.028
117.329
121.116
124.41
127.235
129.584
131.466
132.858
133.756
134.134
133.99
133.307
132.12
130.474
128.482
126.281
123.916
121.367
118.623
115.656
112.432
108.912
105.035
100.707
95.7639
89.9266
82.7313
73.5229
60.061
44.0693
36.1094
28.1809
18.3526
8.49433
-1.61639
-11.9889
-21.9486
-30.8454
-38.6773
-45.5405
-51.3733
-56.3428
-60.6628
-64.4397
-67.807
-70.8682
-73.6928
-76.3397
-78.8574
-81.2754
-83.6156
-85.882
-88.0577
-90.0639
-91.8203
-93.3197
-94.5652
-95.5639
-96.3223
-96.846
-97.146
-97.2326
-97.1123
-96.7851
-96.2327
-95.3975
-94.1212
-91.921
-88.0137
43.7472
51.3929
59.1736
67.8399
75.515
83.0168
90.2626
96.7866
102.78
108.209
113.028
117.329
121.116
124.41
127.235
129.584
131.466
132.858
133.756
134.134
133.99
133.307
132.12
130.474
128.482
126.281
123.916
121.367
118.623
115.656
112.432
108.912
105.035
100.707
95.7639
89.9266
82.7313
73.5229
60.061
44.0693
36.1094
28.1809
18.3526
8.49433
-1.61639
-11.9889
-21.9486
-30.8454
-38.6773
-45.5405
-51.3733
-56.3428
-60.6628
-64.4397
-67.807
-70.8682
-73.6928
-76.3397
-78.8574
-81.2754
-83.6156
-85.882
-88.0577
-90.0639
-91.8203
-93.3197
-94.5652
-95.5639
-96.3223
-96.846
-97.146
-97.2326
-97.1123
-96.7851
-96.2327
-95.3975
-94.1212
-91.921
-88.0137
46.9108
55.339
63.9093
73.4822
81.937
90.1999
98.1883
105.372
111.97
117.951
123.259
128.001
132.184
135.829
138.971
141.601
143.727
145.329
146.4
146.913
146.866
146.243
145.077
143.415
141.372
139.084
136.593
133.88
130.942
127.75
124.275
120.475
116.293
111.629
106.321
100.095
92.4578
82.871
69.0677
52.1377
38.5015
29.7877
18.9605
8.12368
-2.97893
-14.3652
-25.2839
-35.0129
-43.5543
-51.0234
-57.3509
-62.7255
-67.3876
-71.457
-75.0817
-78.3785
-81.4237
-84.2821
-87.0064
-89.6283
-92.1709
-94.6386
-97.0134
-99.2122
-101.148
-102.809
-104.196
-105.316
-106.175
-106.777
-107.133
-107.255
-107.148
-106.813
-106.228
-105.334
-103.959
-101.62
-97.5092
46.9108
55.339
63.9093
73.4822
81.937
90.1999
98.1883
105.372
111.97
117.951
123.259
128.001
132.184
135.829
138.971
141.601
143.727
145.329
146.4
146.913
146.866
146.243
145.077
143.415
141.372
139.084
136.593
133.88
130.942
127.75
124.275
120.475
116.293
111.629
106.321
100.095
92.4578
82.871
69.0677
52.1377
38.5015
29.7877
18.9605
8.12368
-2.97893
-14.3652
-25.2839
-35.0129
-43.5543
-51.0234
-57.3509
-62.7255
-67.3876
-71.457
-75.0817
-78.3785
-81.4237
-84.2821
-87.0064
-89.6283
-92.1709
-94.6386
-97.0134
-99.2122
-101.148
-102.809
-104.196
-105.316
-106.175
-106.777
-107.133
-107.255
-107.148
-106.813
-106.228
-105.334
-103.959
-101.62
-97.5092
50.1221
59.376
68.7783
79.3079
88.5836
97.6494
106.419
114.295
121.53
128.087
133.906
139.109
143.704
147.718
151.188
154.109
156.49
158.311
159.564
160.222
160.282
159.727
158.59
156.921
154.834
152.466
149.855
146.986
143.855
140.441
136.712
132.63
128.136
123.129
117.446
110.822
102.74
92.7305
78.6011
60.9615
40.8983
31.3563
19.4759
7.6076
-4.54021
-16.9944
-28.9227
-39.5261
-48.8117
-56.9139
-63.7569
-69.5504
-74.5641
-78.9317
-82.817
-86.3506
-89.6163
-92.6861
-95.6168
-98.4432
-101.189
-103.861
-106.438
-108.835
-110.956
-112.784
-114.32
-115.568
-116.533
-117.219
-117.638
-117.8
-117.71
-117.369
-116.754
-115.8
-114.326
-111.851
-107.55
50.1221
59.376
68.7783
79.3079
88.5836
97.6494
106.419
114.295
121.53
128.087
133.906
139.109
143.704
147.718
151.188
154.109
156.49
158.311
159.564
160.222
160.282
159.727
158.59
156.921
154.834
152.466
149.855
146.986
143.855
140.441
136.712
132.63
128.136
123.129
117.446
110.822
102.74
92.7305
78.6011
60.9615
40.8983
31.3563
19.4759
7.6076
-4.54021
-16.9944
-28.9227
-39.5261
-48.8117
-56.9139
-63.7569
-69.5504
-74.5641
-78.9317
-82.817
-86.3506
-89.6163
-92.6861
-95.6168
-98.4432
-101.189
-103.861
-106.438
-108.835
-110.956
-112.784
-114.32
-115.568
-116.533
-117.219
-117.638
-117.8
-117.71
-117.369
-116.754
-115.8
-114.326
-111.851
-107.55
53.3848
63.5089
73.7896
85.3293
95.4701
105.382
114.973
123.579
131.48
138.643
144.996
150.68
155.705
160.102
163.914
167.137
169.784
171.833
173.278
174.09
174.265
173.785
172.685
171.016
168.892
166.452
163.729
160.708
157.39
153.753
149.771
145.404
140.593
135.237
129.17
122.137
113.609
103.141
88.6704
70.4784
43.3021
32.8874
19.8962
6.93977
-6.30919
-19.8882
-32.8805
-44.4028
-54.4699
-63.2348
-70.615
-76.8431
-82.2196
-86.8923
-91.0418
-94.8142
-98.301
-101.582
-104.719
-107.749
-110.7
-113.577
-116.361
-118.961
-121.272
-123.274
-124.964
-126.346
-127.424
-128.201
-128.688
-128.894
-128.825
-128.481
-127.837
-126.825
-125.253
-122.644
-118.165
53.3848
63.5089
73.7896
85.3293
95.4701
105.382
114.973
123.579
131.48
138.643
144.996
150.68
155.705
160.102
163.914
167.137
169.784
171.833
173.278
174.09
174.265
173.785
172.685
171.016
168.892
166.452
163.729
160.708
157.39
153.753
149.771
145.404
140.593
135.237
129.17
122.137
113.609
103.141
88.6704
70.4784
43.3021
32.8874
19.8962
6.93977
-6.30919
-19.8882
-32.8805
-44.4028
-54.4699
-63.2348
-70.615
-76.8431
-82.2196
-86.8923
-91.0418
-94.8142
-98.301
-101.582
-104.719
-107.749
-110.7
-113.577
-116.361
-118.961
-121.272
-123.274
-124.964
-126.346
-127.424
-128.201
-128.688
-128.894
-128.825
-128.481
-127.837
-126.825
-125.253
-122.644
-118.165
56.7046
67.7469
78.9545
91.5581
102.613
113.414
123.872
133.243
141.846
149.644
156.557
162.742
168.216
173.01
177.178
180.717
183.639
185.927
187.573
188.547
188.844
188.448
187.393
185.729
183.576
181.069
178.241
175.075
171.573
167.717
163.481
158.827
153.694
147.982
141.524
134.072
125.093
114.143
99.2988
80.6337
45.716
34.3811
20.2175
6.11431
-8.29588
-23.0604
-37.1724
-49.6625
-60.5501
-70.0103
-77.9516
-84.6315
-90.3828
-95.3683
-99.7869
-103.8
-107.509
-111.001
-114.343
-117.578
-120.734
-123.818
-126.811
-129.618
-132.125
-134.306
-136.157
-137.679
-138.877
-139.75
-140.31
-140.565
-140.522
-140.178
-139.506
-138.438
-136.77
-134.031
-129.384
56.7046
67.7469
78.9545
91.5581
102.613
113.414
123.872
133.243
141.846
149.644
156.557
162.742
168.216
173.01
177.178
180.717
183.639
185.927
187.573
188.547
188.844
188.448
187.393
185.729
183.576
181.069
178.241
175.075
171.573
167.717
163.481
158.827
153.694
147.982
141.524
134.072
125.093
114.143
99.2988
80.6337
45.716
34.3811
20.2175
6.11431
-8.29588
-23.0604
-37.1724
-49.6625
-60.5501
-70.0103
-77.9516
-84.6315
-90.3828
-95.3683
-99.7869
-103.8
-107.509
-111.001
-114.343
-117.578
-120.734
-123.818
-126.811
-129.618
-132.125
-134.306
-136.157
-137.679
-138.877
-139.75
-140.31
-140.565
-140.522
-140.178
-139.506
-138.438
-136.77
-134.031
-129.384
60.0857
72.0967
84.2808
98.0089
110.024
121.764
133.134
143.313
152.651
161.115
168.614
175.326
181.267
186.476
191.014
194.88
198.089
200.625
202.479
203.623
204.051
203.745
202.74
201.088
198.912
196.346
193.419
190.114
186.432
182.36
177.871
172.927
167.47
161.397
154.541
146.659
137.227
125.777
110.523
91.4014
48.1419
35.8366
20.4361
5.12438
-10.5102
-26.5244
-41.8168
-55.325
-67.0751
-77.2644
-85.7928
-92.9434
-99.0829
-104.391
-109.084
-113.341
-117.274
-120.976
-124.524
-127.963
-131.324
-134.616
-137.821
-140.839
-143.546
-145.911
-147.929
-149.598
-150.92
-151.896
-152.535
-152.844
-152.83
-152.49
-151.794
-150.67
-148.908
-146.042
-141.24
60.0857
72.0967
84.2808
98.0089
110.024
121.764
133.134
143.313
152.651
161.115
168.614
175.326
181.267
186.476
191.014
194.88
198.089
200.625
202.479
203.623
204.051
203.745
202.74
201.088
198.912
196.346
193.419
190.114
186.432
182.36
177.871
172.927
167.47
161.397
154.541
146.659
137.227
125.777
110.523
91.4014
48.1419
35.8366
20.4361
5.12438
-10.5102
-26.5244
-41.8168
-55.325
-67.0751
-77.2644
-85.7928
-92.9434
-99.0829
-104.391
-109.084
-113.341
-117.274
-120.976
-124.524
-127.963
-131.324
-134.616
-137.821
-140.839
-143.546
-145.911
-147.929
-149.598
-150.92
-151.896
-152.535
-152.844
-152.83
-152.49
-151.794
-150.67
-148.908
-146.042
-141.24
63.5334
76.5655
89.7794
104.693
117.722
130.45
142.781
153.809
163.921
173.084
181.199
188.459
194.889
200.532
205.454
209.66
213.167
215.96
218.031
219.353
219.918
219.708
218.759
217.126
214.933
212.314
209.294
205.854
201.999
197.713
192.972
187.739
181.953
175.515
168.256
159.935
150.042
138.084
122.388
102.797
50.5814
37.2532
20.5477
3.96126
-12.9634
-30.2951
-46.8312
-61.4117
-74.0691
-85.0242
-94.1676
-101.809
-108.351
-113.991
-118.965
-123.471
-127.628
-131.543
-135.295
-138.938
-142.504
-146.005
-149.424
-152.657
-155.569
-158.123
-160.312
-162.133
-163.586
-164.67
-165.394
-165.763
-165.783
-165.45
-164.732
-163.555
-161.701
-158.713
-153.766
63.5334
76.5655
89.7794
104.693
117.722
130.45
142.781
153.809
163.921
173.084
181.199
188.459
194.889
200.532
205.454
209.66
213.167
215.96
218.031
219.353
219.918
219.708
218.759
217.126
214.933
212.314
209.294
205.854
201.999
197.713
192.972
187.739
181.953
175.515
168.256
159.935
150.042
138.084
122.388
102.797
50.5814
37.2532
20.5477
3.96126
-12.9634
-30.2951
-46.8312
-61.4117
-74.0691
-85.0242
-94.1676
-101.809
-108.351
-113.991
-118.965
-123.471
-127.628
-131.543
-135.295
-138.938
-142.504
-146.005
-149.424
-152.657
-155.569
-158.123
-160.312
-162.133
-163.586
-164.67
-165.394
-165.763
-165.783
-165.45
-164.732
-163.555
-161.701
-158.713
-153.766
67.0508
81.1608
95.4613
111.626
125.723
139.493
152.836
164.756
175.683
185.58
194.338
202.174
209.115
215.208
220.532
225.091
228.908
231.968
234.266
235.772
236.48
236.372
235.485
233.876
231.67
229.003
225.897
222.328
218.305
213.809
208.818
203.294
197.179
190.371
182.702
173.935
163.577
151.104
134.942
114.865
53.0367
38.6298
20.5482
2.61723
-15.668
-34.3886
-52.2361
-67.9456
-81.5573
-93.3167
-103.105
-111.259
-118.221
-124.204
-129.466
-134.225
-138.609
-142.736
-146.694
-150.54
-154.311
-158.022
-161.657
-165.107
-168.228
-170.975
-173.34
-175.319
-176.909
-178.107
-178.92
-179.355
-179.413
-179.091
-178.355
-177.127
-175.185
-172.079
-166.999
67.0508
81.1608
95.4613
111.626
125.723
139.493
152.836
164.756
175.683
185.58
194.338
202.174
209.115
215.208
220.532
225.091
228.908
231.968
234.266
235.772
236.48
236.372
235.485
233.876
231.67
229.003
225.897
222.328
218.305
213.809
208.818
203.294
197.179
190.371
182.702
173.935
163.577
151.104
134.942
114.865
53.0367
38.6298
20.5482
2.61723
-15.668
-34.3886
-52.2361
-67.9456
-81.5573
-93.3167
-103.105
-111.259
-118.221
-124.204
-129.466
-134.225
-138.609
-142.736
-146.694
-150.54
-154.311
-158.022
-161.657
-165.107
-168.228
-170.975
-173.34
-175.319
-176.909
-178.107
-178.92
-179.355
-179.413
-179.091
-178.355
-177.127
-175.185
-172.079
-166.999
70.6445
85.8907
101.337
118.82
134.044
148.911
163.32
176.18
187.964
198.632
208.066
216.505
223.979
230.544
236.284
241.212
245.349
248.687
251.22
252.917
253.775
253.775
252.953
251.372
249.158
246.448
243.262
239.57
235.384
230.682
225.441
219.627
213.182
206.002
197.919
188.699
177.867
164.877
148.231
127.663
55.5097
39.9659
20.4324
1.08394
-18.6366
-38.8216
-58.0509
-74.95
-89.5662
-102.172
-112.636
-121.326
-128.725
-135.063
-140.623
-145.639
-150.254
-154.595
-158.759
-162.808
-166.784
-170.705
-174.558
-178.228
-181.56
-184.505
-187.051
-189.192
-190.924
-192.242
-193.151
-193.655
-193.757
-193.45
-192.698
-191.423
-189.397
-186.177
-180.975
70.6445
85.8907
101.337
118.82
134.044
148.911
163.32
176.18
187.964
198.632
208.066
216.505
223.979
230.544
236.284
241.212
245.349
248.687
251.22
252.917
253.775
253.775
252.953
251.372
249.158
246.448
243.262
239.57
235.384
230.682
225.441
219.627
213.182
206.002
197.919
188.699
177.867
164.877
148.231
127.663
55.5097
39.9659
20.4324
1.08394
-18.6366
-38.8216
-58.0509
-74.95
-89.5662
-102.172
-112.636
-121.326
-128.725
-135.063
-140.623
-145.639
-150.254
-154.595
-158.759
-162.808
-166.784