/*--------------------------------*- C++ -*----------------------------------*\
| =========                 |                                                 |
| \\      /  F ield         | OpenFOAM: The Open Source CFD Toolbox           |
|  \\    /   O peration     | Version:  2506                                  |
|   \\  /    A nd           | Website:  www.openfoam.com                      |
|    \\/     M anipulation  |                                                 |
\*---------------------------------------------------------------------------*/
FoamFile
{
    version     2.0;
    format      ascii;
    arch        "LSB;label=32;scalar=64";
    class       volScalarField;
    location    "100";
    object      turbulenceProperties:nuEff;
}
// * * * * * * * * * * * * * * * * * * * * * * * * * * * * * * * * * * * * * //

dimensions      [0 2 -1 0 0 0 0];

internalField   nonuniform List<scalar> 
10720
(
2.94575e-05
3.23557e-05
3.62561e-05
4.13567e-05
4.80536e-05
5.68468e-05
6.84427e-05
8.32486e-05
0.000102148
0.000125943
0.000155908
0.000194535
0.000245893
0.000316246
0.000415319
0.000561287
0.000782156
0.0011422
0.0017218
0.00283837
0.00469115
0.00947593
0.0177147
0.0478574
0.0874372
0.103184
0.104242
0.103859
0.104536
0.10478
0.103337
0.100227
0.0957758
0.0899932
0.082296
0.0732968
0.0633664
0.0524482
0.0266868
2.69786e-05
2.48281e-05
2.27513e-05
2.08556e-05
1.91393e-05
1.77196e-05
1.6917e-05
1.84004e-05
2.11857e-05
2.56953e-05
3.28691e-05
4.41112e-05
6.10143e-05
8.5164e-05
0.000117756
0.000161084
0.000220252
0.000305441
0.000435573
0.000642687
0.000994541
0.00159873
0.00275762
0.00489133
0.00970456
0.0192052
0.0430649
0.0790471
0.103024
0.112111
0.114639
0.115332
0.115292
0.114694
0.113648
0.112308
0.110325
0.108523
0.094835
1.53224e-05
1.52241e-05
1.51296e-05
1.5043e-05
1.49424e-05
1.48429e-05
1.47551e-05
1.46664e-05
1.45955e-05
1.45432e-05
1.45062e-05
1.45218e-05
1.45459e-05
1.49157e-05
1.67194e-05
2.22941e-05
4.08747e-05
9.13688e-05
0.000181141
0.000363814
0.000689296
0.00163836
0.00339154
0.00910934
0.0219422
0.0391878
0.0612254
0.0868949
0.11206
0.130559
0.140051
0.143423
0.143824
0.142499
0.140012
0.135917
0.131514
0.117714
0.147091
1.53968e-05
1.54987e-05
1.55915e-05
1.57106e-05
1.58248e-05
1.59312e-05
1.60195e-05
1.5939e-05
1.5788e-05
1.55997e-05
1.53865e-05
1.51535e-05
1.4902e-05
1.46312e-05
1.43261e-05
1.39852e-05
1.35788e-05
1.31037e-05
1.25234e-05
1.18447e-05
1.10903e-05
1.04358e-05
1.00825e-05
1.00085e-05
1.42165e-05
0.000189178
0.00110044
0.00642408
0.0183006
0.0340729
0.0493042
0.0602389
0.0664738
0.0697913
0.071797
0.073447
0.0747855
0.0780811
0.0772223
1.61995e-05
1.62188e-05
1.62376e-05
1.62577e-05
1.62813e-05
1.63069e-05
1.63351e-05
1.63671e-05
1.64034e-05
1.64445e-05
1.6492e-05
1.65474e-05
1.66117e-05
1.66931e-05
1.67729e-05
1.69651e-05
1.64452e-05
1.55765e-05
1.1619e-05
1.00003e-05
0.000137761
8.90291e-05
9.02296e-05
0.00191923
0.000432809
0.00236618
0.00659661
0.0152647
0.0315755
0.0575223
0.0904533
0.122369
0.146379
0.1622
0.172894
0.18007
0.186999
0.17912
0.24336
1.61851e-05
1.61714e-05
1.61633e-05
1.61524e-05
1.61462e-05
1.61358e-05
1.61212e-05
1.6125e-05
1.61376e-05
1.61562e-05
1.6177e-05
1.62026e-05
1.62323e-05
1.62649e-05
1.63014e-05
1.63415e-05
1.63868e-05
1.64381e-05
1.64988e-05
1.65718e-05
1.66636e-05
1.67824e-05
1.69382e-05
1.7122e-05
1.72496e-05
1.69754e-05
1.64178e-05
1.30067e-05
0.000208204
0.0011988
0.00404294
0.00933719
0.0167633
0.0254582
0.0344223
0.0428348
0.0500726
0.0561085
0.0654242
1.60704e-05
1.60683e-05
1.60688e-05
1.60699e-05
1.60709e-05
1.60734e-05
1.60779e-05
1.60839e-05
1.60928e-05
1.61044e-05
1.61192e-05
1.6138e-05
1.61619e-05
1.6192e-05
1.62292e-05
1.62812e-05
1.63304e-05
1.62862e-05
1.57738e-05
1.38154e-05
1.09397e-05
1.00002e-05
1.11322e-05
1e-05
6.87057e-05
0.000509198
0.00143338
3.19279e-05
0.000801785
0.005569
0.0186537
0.0451201
0.0847496
0.127418
0.163758
0.193075
0.219654
0.224966
0.324771
1.60756e-05
1.60844e-05
1.60917e-05
1.60973e-05
1.61043e-05
1.6107e-05
1.61052e-05
1.60996e-05
1.60931e-05
1.60873e-05
1.60824e-05
1.60779e-05
1.60745e-05
1.60724e-05
1.6071e-05
1.60705e-05
1.60707e-05
1.60715e-05
1.60726e-05
1.6074e-05
1.60754e-05
1.60765e-05
1.60771e-05
1.60786e-05
1.60799e-05
1.60968e-05
1.60721e-05
1.62816e-05
1.55178e-05
1.88063e-05
1.08208e-05
1.414e-05
0.000340569
0.0013709
0.00369105
0.00782338
0.0142909
0.0223103
0.0407718
1.61003e-05
1.60968e-05
1.60956e-05
1.60942e-05
1.60935e-05
1.60937e-05
1.60953e-05
1.60983e-05
1.61027e-05
1.61085e-05
1.6116e-05
1.61252e-05
1.61365e-05
1.61505e-05
1.61678e-05
1.61896e-05
1.62183e-05
1.6255e-05
1.6337e-05
1.64489e-05
1.57018e-05
1.30863e-05
1.06237e-05
1.00116e-05
1.00008e-05
1e-05
1e-05
1.0077e-05
0.000173563
0.00125025
0.00431931
0.00350612
0.0185182
0.0553163
0.110431
0.169257
0.225197
0.252155
0.386071
1.61075e-05
1.61132e-05
1.61167e-05
1.61167e-05
1.61176e-05
1.61172e-05
1.61137e-05
1.61097e-05
1.61064e-05
1.61041e-05
1.61022e-05
1.61011e-05
1.61009e-05
1.61014e-05
1.61028e-05
1.6105e-05
1.61082e-05
1.61121e-05
1.61167e-05
1.61219e-05
1.61276e-05
1.61337e-05
1.61403e-05
1.61476e-05
1.61565e-05
1.61646e-05
1.61853e-05
1.61598e-05
1.63545e-05
1.56023e-05
1.96052e-05
1.00008e-05
6.43759e-05
1.0025e-05
0.000872972
1.02796e-05
0.000968014
0.00159073
0.0130628
1.61084e-05
1.6104e-05
1.61013e-05
1.60985e-05
1.60958e-05
1.60939e-05
1.6093e-05
1.6093e-05
1.60942e-05
1.60965e-05
1.60998e-05
1.61042e-05
1.61098e-05
1.61168e-05
1.61255e-05
1.61364e-05
1.61504e-05
1.61676e-05
1.61849e-05
1.62398e-05
1.62909e-05
1.65555e-05
1.58968e-05
1.39001e-05
1.05157e-05
1.00119e-05
1.00036e-05
1.00004e-05
1e-05
1e-05
1e-05
0.000833067
0.00110903
0.00826215
0.0419636
0.112344
0.200422
0.257846
0.425908
1.61138e-05
1.61166e-05
1.61169e-05
1.61148e-05
1.61134e-05
1.61144e-05
1.61133e-05
1.61114e-05
1.61096e-05
1.61079e-05
1.6106e-05
1.61042e-05
1.61026e-05
1.61013e-05
1.61004e-05
1.61e-05
1.61002e-05
1.61009e-05
1.6102e-05
1.61035e-05
1.61053e-05
1.61072e-05
1.6109e-05
1.61113e-05
1.61139e-05
1.61169e-05
1.612e-05
1.61244e-05
1.61273e-05
1.61337e-05
1.61505e-05
1.61525e-05
1.50738e-05
1.20552e-05
1.00176e-05
1.00335e-05
0.00023046
0.000411971
0.00162273
1.6116e-05
1.61129e-05
1.61102e-05
1.61067e-05
1.61033e-05
1.61002e-05
1.60978e-05
1.60961e-05
1.60951e-05
1.60948e-05
1.60951e-05
1.60963e-05
1.60982e-05
1.6101e-05
1.61047e-05
1.61092e-05
1.61151e-05
1.6122e-05
1.613e-05
1.61387e-05
1.61518e-05
1.62135e-05
1.65601e-05
1.68116e-05
1.60089e-05
1.40004e-05
1.19976e-05
1.02206e-05
1.00105e-05
1.00008e-05
1e-05
1e-05
0.000255134
0.00198113
0.00290104
0.047237
0.148945
0.239406
0.441774
1.61163e-05
1.61141e-05
1.61105e-05
1.61071e-05
1.61048e-05
1.61073e-05
1.61088e-05
1.61098e-05
1.61106e-05
1.61105e-05
1.61098e-05
1.61086e-05
1.61073e-05
1.61058e-05
1.61046e-05
1.61037e-05
1.61033e-05
1.61034e-05
1.6104e-05
1.61052e-05
1.6107e-05
1.61092e-05
1.61119e-05
1.61151e-05
1.61188e-05
1.61231e-05
1.61281e-05
1.6134e-05
1.61402e-05
1.615e-05
1.61474e-05
1.62046e-05
1.62112e-05
1.5786e-05
1.46141e-05
1.16398e-05
1.00175e-05
1e-05
0.000393733
1.61145e-05
1.61144e-05
1.61135e-05
1.61115e-05
1.61091e-05
1.61067e-05
1.61047e-05
1.6103e-05
1.61018e-05
1.61012e-05
1.6101e-05
1.61015e-05
1.61026e-05
1.61044e-05
1.61069e-05
1.61101e-05
1.61143e-05
1.61196e-05
1.61255e-05
1.6131e-05
1.61374e-05
1.61357e-05
1.61905e-05
1.63618e-05
1.67184e-05
1.69132e-05
1.6825e-05
1.55301e-05
1.36224e-05
1.04119e-05
1.0013e-05
1e-05
1e-05
1e-05
0.000792194
0.00487879
0.0862792
0.197676
0.431982
1.61089e-05
1.61022e-05
1.60959e-05
1.60926e-05
1.60913e-05
1.60952e-05
1.60993e-05
1.61032e-05
1.61062e-05
1.6108e-05
1.6109e-05
1.61091e-05
1.61087e-05
1.61078e-05
1.61068e-05
1.61058e-05
1.61049e-05
1.61043e-05
1.6104e-05
1.61041e-05
1.61047e-05
1.61056e-05
1.61068e-05
1.61084e-05
1.61102e-05
1.61124e-05
1.61148e-05
1.61173e-05
1.612e-05
1.61226e-05
1.61254e-05
1.61267e-05
1.61366e-05
1.61482e-05
1.63074e-05
1.51778e-05
1.46308e-05
1.00002e-05
1e-05
1.61046e-05
1.61095e-05
1.61115e-05
1.61117e-05
1.61111e-05
1.61102e-05
1.61092e-05
1.61081e-05
1.61069e-05
1.61057e-05
1.61047e-05
1.6104e-05
1.61035e-05
1.61035e-05
1.61038e-05
1.61045e-05
1.61055e-05
1.61067e-05
1.61083e-05
1.61109e-05
1.61153e-05
1.61184e-05
1.61186e-05
1.61307e-05
1.62075e-05
1.63803e-05
1.66562e-05
1.70444e-05
1.7367e-05
1.6069e-05
1.41364e-05
1.00042e-05
1.00003e-05
1e-05
1e-05
0.00196719
0.0366972
0.140375
0.396476
1.60944e-05
1.60852e-05
1.60783e-05
1.60767e-05
1.60767e-05
1.60812e-05
1.60871e-05
1.60928e-05
1.60975e-05
1.61012e-05
1.6104e-05
1.61058e-05
1.61068e-05
1.61072e-05
1.61071e-05
1.61067e-05
1.61061e-05
1.61055e-05
1.61051e-05
1.61049e-05
1.6105e-05
1.61054e-05
1.61062e-05
1.61074e-05
1.6109e-05
1.61112e-05
1.61138e-05
1.6117e-05
1.61207e-05
1.6125e-05
1.61299e-05
1.61353e-05
1.61407e-05
1.61485e-05
1.61942e-05
1.63018e-05
1.61056e-05
1.78597e-05
1.00105e-05
1.60884e-05
1.60998e-05
1.61035e-05
1.61053e-05
1.61082e-05
1.61086e-05
1.61096e-05
1.61096e-05
1.61093e-05
1.61089e-05
1.61083e-05
1.61077e-05
1.61072e-05
1.61069e-05
1.6107e-05
1.61076e-05
1.61086e-05
1.61102e-05
1.61123e-05
1.61147e-05
1.61174e-05
1.61207e-05
1.61235e-05
1.61228e-05
1.61185e-05
1.61321e-05
1.61829e-05
1.63408e-05
1.66592e-05
1.71445e-05
1.76972e-05
1.57982e-05
1.01025e-05
1.00003e-05
1e-05
0.000130578
0.00582523
0.0795545
0.33845
1.6077e-05
1.60686e-05
1.60641e-05
1.60648e-05
1.60653e-05
1.60691e-05
1.60748e-05
1.6081e-05
1.60867e-05
1.60916e-05
1.60958e-05
1.60992e-05
1.61018e-05
1.61036e-05
1.61047e-05
1.61053e-05
1.61055e-05
1.61054e-05
1.61053e-05
1.61051e-05
1.6105e-05
1.61051e-05
1.61054e-05
1.6106e-05
1.61069e-05
1.61082e-05
1.61099e-05
1.6112e-05
1.61145e-05
1.61174e-05
1.61206e-05
1.61243e-05
1.61279e-05
1.61346e-05
1.61319e-05
1.6231e-05
1.58948e-05
1.81541e-05
1.20876e-05
1.60713e-05
1.60834e-05
1.60891e-05
1.60928e-05
1.60959e-05
1.60988e-05
1.61036e-05
1.61047e-05
1.61066e-05
1.61077e-05
1.61082e-05
1.61084e-05
1.61083e-05
1.61082e-05
1.61082e-05
1.61083e-05
1.61087e-05
1.61093e-05
1.61103e-05
1.61117e-05
1.61139e-05
1.6117e-05
1.6121e-05
1.61253e-05
1.61268e-05
1.61245e-05
1.61185e-05
1.61241e-05
1.61537e-05
1.63597e-05
1.66614e-05
1.81594e-05
1.74006e-05
1.00677e-05
1e-05
1e-05
0.00198217
0.0274458
0.264444
1.60629e-05
1.60587e-05
1.60588e-05
1.60614e-05
1.60608e-05
1.60624e-05
1.60664e-05
1.60713e-05
1.60765e-05
1.60816e-05
1.60864e-05
1.60908e-05
1.60945e-05
1.60975e-05
1.60999e-05
1.61016e-05
1.61028e-05
1.61036e-05
1.61041e-05
1.61043e-05
1.61045e-05
1.61047e-05
1.6105e-05
1.61054e-05
1.61061e-05
1.61071e-05
1.61084e-05
1.61102e-05
1.61124e-05
1.61151e-05
1.61183e-05
1.61221e-05
1.61262e-05
1.61314e-05
1.6134e-05
1.6158e-05
1.60841e-05
1.64063e-05
1.60203e-05
1.60597e-05
1.60678e-05
1.60735e-05
1.60782e-05
1.60824e-05
1.60866e-05
1.60904e-05
1.60938e-05
1.60992e-05
1.61024e-05
1.61044e-05
1.6106e-05
1.61071e-05
1.61079e-05
1.61085e-05
1.61091e-05
1.61097e-05
1.61104e-05
1.61114e-05
1.61126e-05
1.61141e-05
1.61162e-05
1.61191e-05
1.6123e-05
1.61277e-05
1.61318e-05
1.61332e-05
1.61307e-05
1.6115e-05
1.61222e-05
1.61404e-05
1.63885e-05
1.88851e-05
1.59415e-05
1.00097e-05
1e-05
1e-05
0.0104547
0.185006
1.60575e-05
1.60595e-05
1.6064e-05
1.60671e-05
1.60647e-05
1.60636e-05
1.60641e-05
1.60667e-05
1.60699e-05
1.60739e-05
1.60782e-05
1.60826e-05
1.60866e-05
1.60902e-05
1.60933e-05
1.60959e-05
1.6098e-05
1.60997e-05
1.6101e-05
1.6102e-05
1.61027e-05
1.61033e-05
1.61038e-05
1.61043e-05
1.61049e-05
1.61057e-05
1.61068e-05
1.61081e-05
1.61098e-05
1.61119e-05
1.61144e-05
1.61174e-05
1.61209e-05
1.61249e-05
1.613e-05
1.61341e-05
1.61519e-05
1.60879e-05
1.6399e-05
1.60582e-05
1.60586e-05
1.60625e-05
1.60666e-05
1.60707e-05
1.6075e-05
1.60794e-05
1.60836e-05
1.60872e-05
1.60927e-05
1.6097e-05
1.61003e-05
1.61028e-05
1.61048e-05
1.61063e-05
1.61076e-05
1.61087e-05
1.61099e-05
1.6111e-05
1.61123e-05
1.61137e-05
1.61155e-05
1.61179e-05
1.61209e-05
1.61249e-05
1.61299e-05
1.61355e-05
1.61407e-05
1.6144e-05
1.61255e-05
1.61397e-05
1.59973e-05
1.62703e-05
2.06063e-05
1.21039e-05
1e-05
1e-05
0.00258325
0.112085
1.60631e-05
1.60699e-05
1.60763e-05
1.60784e-05
1.60748e-05
1.60713e-05
1.60694e-05
1.60681e-05
1.60687e-05
1.60704e-05
1.60732e-05
1.60765e-05
1.60798e-05
1.60831e-05
1.60864e-05
1.60893e-05
1.6092e-05
1.60944e-05
1.60964e-05
1.60981e-05
1.60995e-05
1.61006e-05
1.61016e-05
1.61025e-05
1.61033e-05
1.61042e-05
1.61052e-05
1.61065e-05
1.6108e-05
1.61099e-05
1.61121e-05
1.61147e-05
1.61178e-05
1.61214e-05
1.6126e-05
1.61296e-05
1.6143e-05
1.61164e-05
1.62132e-05
1.60671e-05
1.60598e-05
1.60602e-05
1.60622e-05
1.60648e-05
1.6068e-05
1.60716e-05
1.60752e-05
1.60791e-05
1.6082e-05
1.60883e-05
1.60927e-05
1.6096e-05
1.60988e-05
1.61014e-05
1.61036e-05
1.61057e-05
1.61076e-05
1.61094e-05
1.61112e-05
1.6113e-05
1.61149e-05
1.6117e-05
1.61196e-05
1.61229e-05
1.6127e-05
1.61323e-05
1.6138e-05
1.61482e-05
1.61467e-05
1.61525e-05
1.61908e-05
1.55714e-05
1.79759e-05
1.89186e-05
1.00022e-05
1e-05
0.00133385
0.0550282
1.60761e-05
1.60837e-05
1.60885e-05
1.60894e-05
1.60858e-05
1.60815e-05
1.6078e-05
1.60756e-05
1.60729e-05
1.60716e-05
1.60722e-05
1.60737e-05
1.60757e-05
1.60781e-05
1.60807e-05
1.60834e-05
1.60861e-05
1.60887e-05
1.60911e-05
1.60933e-05
1.60952e-05
1.60969e-05
1.60983e-05
1.60997e-05
1.61009e-05
1.61021e-05
1.61033e-05
1.61046e-05
1.61061e-05
1.61077e-05
1.61097e-05
1.6112e-05
1.61147e-05
1.61179e-05
1.61217e-05
1.61261e-05
1.61321e-05
1.61362e-05
1.61473e-05
1.60814e-05
1.60703e-05
1.60671e-05
1.60662e-05
1.60665e-05
1.60676e-05
1.60694e-05
1.60715e-05
1.60741e-05
1.60767e-05
1.60803e-05
1.60843e-05
1.6088e-05
1.60915e-05
1.60948e-05
1.60978e-05
1.61007e-05
1.61033e-05
1.61058e-05
1.61082e-05
1.61106e-05
1.6113e-05
1.61154e-05
1.61179e-05
1.61209e-05
1.61244e-05
1.6129e-05
1.61339e-05
1.61415e-05
1.61539e-05
1.61334e-05
1.62662e-05
1.59076e-05
1.57458e-05
2.22889e-05
1.02997e-05
1e-05
0.000424642
0.0165353
1.60891e-05
1.60931e-05
1.6094e-05
1.60947e-05
1.60926e-05
1.60893e-05
1.6086e-05
1.6083e-05
1.60807e-05
1.60763e-05
1.6075e-05
1.60747e-05
1.60751e-05
1.6076e-05
1.60775e-05
1.60794e-05
1.60816e-05
1.60838e-05
1.60862e-05
1.60884e-05
1.60905e-05
1.60925e-05
1.60943e-05
1.6096e-05
1.60976e-05
1.60991e-05
1.61006e-05
1.61021e-05
1.61037e-05
1.61055e-05
1.61074e-05
1.61095e-05
1.6112e-05
1.6115e-05
1.61184e-05
1.61226e-05
1.61269e-05
1.6135e-05
1.61369e-05
1.60931e-05
1.6084e-05
1.6079e-05
1.60758e-05
1.60739e-05
1.6073e-05
1.60727e-05
1.6073e-05
1.60738e-05
1.60752e-05
1.60767e-05
1.60787e-05
1.60818e-05
1.60851e-05
1.60884e-05
1.60917e-05
1.60949e-05
1.60979e-05
1.61009e-05
1.61039e-05
1.61069e-05
1.61099e-05
1.61128e-05
1.61157e-05
1.61187e-05
1.61219e-05
1.61259e-05
1.61308e-05
1.61352e-05
1.6151e-05
1.61319e-05
1.61993e-05
1.62685e-05
1.52842e-05
1.96068e-05
1.4339e-05
1e-05
1e-05
0.00693481
1.6095e-05
1.60935e-05
1.60905e-05
1.60919e-05
1.60922e-05
1.60912e-05
1.60897e-05
1.60878e-05
1.60858e-05
1.60831e-05
1.60801e-05
1.60783e-05
1.60773e-05
1.60768e-05
1.6077e-05
1.60778e-05
1.6079e-05
1.60806e-05
1.60824e-05
1.60842e-05
1.60862e-05
1.60881e-05
1.609e-05
1.60919e-05
1.60937e-05
1.60955e-05
1.60973e-05
1.6099e-05
1.61008e-05
1.61027e-05
1.61046e-05
1.61068e-05
1.61092e-05
1.6112e-05
1.61151e-05
1.6119e-05
1.61231e-05
1.613e-05
1.61338e-05
1.60958e-05
1.60935e-05
1.60894e-05
1.60855e-05
1.60827e-05
1.60806e-05
1.6079e-05
1.60779e-05
1.60773e-05
1.60771e-05
1.60776e-05
1.60781e-05
1.60788e-05
1.6081e-05
1.60837e-05
1.60864e-05
1.60894e-05
1.60924e-05
1.60955e-05
1.60987e-05
1.61021e-05
1.61056e-05
1.61092e-05
1.61127e-05
1.6116e-05
1.61194e-05
1.61231e-05
1.61279e-05
1.61313e-05
1.61431e-05
1.6144e-05
1.61281e-05
1.63674e-05
1.55883e-05
1.68466e-05
2.04155e-05
1.00005e-05
1e-05
0.00029766
1.60913e-05
1.60858e-05
1.60813e-05
1.60834e-05
1.60855e-05
1.60871e-05
1.60879e-05
1.6088e-05
1.60873e-05
1.60866e-05
1.60844e-05
1.60824e-05
1.60807e-05
1.60794e-05
1.60786e-05
1.60783e-05
1.60785e-05
1.60792e-05
1.60801e-05
1.60814e-05
1.60828e-05
1.60844e-05
1.60861e-05
1.60879e-05
1.60897e-05
1.60916e-05
1.60935e-05
1.60954e-05
1.60974e-05
1.60994e-05
1.61015e-05
1.61038e-05
1.61062e-05
1.61089e-05
1.6112e-05
1.61156e-05
1.61195e-05
1.61256e-05
1.61301e-05
1.6089e-05
1.6094e-05
1.60928e-05
1.60903e-05
1.60881e-05
1.60863e-05
1.60846e-05
1.60832e-05
1.60819e-05
1.6081e-05
1.60803e-05
1.60802e-05
1.60796e-05
1.60802e-05
1.60815e-05
1.60833e-05
1.60856e-05
1.60881e-05
1.60909e-05
1.60939e-05
1.60972e-05
1.61008e-05
1.61047e-05
1.61087e-05
1.61126e-05
1.61164e-05
1.61202e-05
1.61248e-05
1.61288e-05
1.61352e-05
1.61512e-05
1.61054e-05
1.63013e-05
1.60109e-05
1.55515e-05
2.23791e-05
1.00258e-05
1e-05
1e-05
1.60812e-05
1.60754e-05
1.6072e-05
1.60739e-05
1.60767e-05
1.60795e-05
1.60821e-05
1.6084e-05
1.60851e-05
1.60855e-05
1.60859e-05
1.6085e-05
1.60835e-05
1.6082e-05
1.60809e-05
1.608e-05
1.60795e-05
1.60793e-05
1.60795e-05
1.608e-05
1.60808e-05
1.60818e-05
1.60831e-05
1.60846e-05
1.60862e-05
1.6088e-05
1.60898e-05
1.60918e-05
1.60938e-05
1.6096e-05
1.60982e-05
1.61005e-05
1.6103e-05
1.61057e-05
1.61087e-05
1.61123e-05
1.61161e-05
1.61217e-05
1.61261e-05
1.60778e-05
1.60862e-05
1.60885e-05
1.60883e-05
1.60879e-05
1.60874e-05
1.60867e-05
1.60858e-05
1.6085e-05
1.6084e-05
1.60832e-05
1.60826e-05
1.60824e-05
1.60815e-05
1.60817e-05
1.60826e-05
1.6084e-05
1.60858e-05
1.60879e-05
1.60903e-05
1.60931e-05
1.60964e-05
1.61002e-05
1.61043e-05
1.61084e-05
1.61126e-05
1.61168e-05
1.61213e-05
1.61262e-05
1.61294e-05
1.61486e-05
1.61154e-05
1.62008e-05
1.62913e-05
1.51359e-05
2.15185e-05
1.13682e-05
1e-05
1e-05
1.60714e-05
1.60685e-05
1.60675e-05
1.60682e-05
1.607e-05
1.60726e-05
1.60755e-05
1.60782e-05
1.60805e-05
1.6082e-05
1.60832e-05
1.60848e-05
1.60844e-05
1.60836e-05
1.60827e-05
1.60818e-05
1.6081e-05
1.60803e-05
1.608e-05
1.60799e-05
1.60801e-05
1.60805e-05
1.60813e-05
1.60823e-05
1.60835e-05
1.6085e-05
1.60867e-05
1.60885e-05
1.60905e-05
1.60925e-05
1.60948e-05
1.60971e-05
1.60996e-05
1.61024e-05
1.61054e-05
1.61089e-05
1.61126e-05
1.6118e-05
1.61223e-05
1.60691e-05
1.60758e-05
1.60798e-05
1.60817e-05
1.6083e-05
1.60839e-05
1.60845e-05
1.60848e-05
1.60848e-05
1.60846e-05
1.60843e-05
1.6084e-05
1.60838e-05
1.60834e-05
1.60832e-05
1.60833e-05
1.60839e-05
1.60849e-05
1.60863e-05
1.60882e-05
1.60903e-05
1.6093e-05
1.60962e-05
1.61e-05
1.61041e-05
1.61085e-05
1.61129e-05
1.61175e-05
1.6123e-05
1.61256e-05
1.61408e-05
1.61318e-05
1.61282e-05
1.64088e-05
1.51357e-05
1.97895e-05
1.47213e-05
1e-05
1e-05
1.60672e-05
1.6068e-05
1.60687e-05
1.6068e-05
1.6068e-05
1.60692e-05
1.60711e-05
1.60734e-05
1.60756e-05
1.60777e-05
1.60792e-05
1.6082e-05
1.60829e-05
1.60831e-05
1.60829e-05
1.60824e-05
1.60819e-05
1.60812e-05
1.60807e-05
1.60803e-05
1.60801e-05
1.60801e-05
1.60804e-05
1.6081e-05
1.60818e-05
1.60829e-05
1.60842e-05
1.60857e-05
1.60875e-05
1.60894e-05
1.60915e-05
1.60938e-05
1.60962e-05
1.60989e-05
1.61019e-05
1.61054e-05
1.61091e-05
1.61143e-05
1.61186e-05
1.60671e-05
1.60689e-05
1.60722e-05
1.60747e-05
1.60767e-05
1.60784e-05
1.60798e-05
1.6081e-05
1.6082e-05
1.60827e-05
1.60832e-05
1.60835e-05
1.60836e-05
1.60839e-05
1.6084e-05
1.6084e-05
1.60843e-05
1.60849e-05
1.60859e-05
1.60871e-05
1.60887e-05
1.60907e-05
1.60933e-05
1.60965e-05
1.61002e-05
1.61043e-05
1.61088e-05
1.61134e-05
1.61191e-05
1.61226e-05
1.61322e-05
1.6142e-05
1.60928e-05
1.64197e-05
1.53092e-05
1.81938e-05
1.82665e-05
1.00001e-05
1e-05
1.60697e-05
1.60725e-05
1.60734e-05
1.60719e-05
1.60704e-05
1.60699e-05
1.60703e-05
1.60713e-05
1.60727e-05
1.60743e-05
1.60758e-05
1.60778e-05
1.60797e-05
1.60809e-05
1.60815e-05
1.60817e-05
1.60816e-05
1.60814e-05
1.6081e-05
1.60806e-05
1.60803e-05
1.60801e-05
1.60801e-05
1.60804e-05
1.60808e-05
1.60815e-05
1.60824e-05
1.60836e-05
1.6085e-05
1.60867e-05
1.60885e-05
1.60906e-05
1.60929e-05
1.60955e-05
1.60984e-05
1.61018e-05
1.61056e-05
1.61106e-05
1.6115e-05
1.60715e-05
1.60684e-05
1.60694e-05
1.6071e-05
1.60726e-05
1.60741e-05
1.60756e-05
1.60771e-05
1.60785e-05
1.60797e-05
1.60807e-05
1.60816e-05
1.60823e-05
1.60829e-05
1.60836e-05
1.60841e-05
1.60845e-05
1.6085e-05
1.60857e-05
1.60866e-05
1.60878e-05
1.60893e-05
1.60912e-05
1.60937e-05
1.60968e-05
1.61005e-05
1.61047e-05
1.61093e-05
1.61147e-05
1.61195e-05
1.61249e-05
1.61446e-05
1.60821e-05
1.63806e-05
1.55348e-05
1.69592e-05
2.06116e-05
1.00005e-05
1e-05
1.6076e-05
1.60785e-05
1.60786e-05
1.60769e-05
1.60748e-05
1.60732e-05
1.60723e-05
1.6072e-05
1.60722e-05
1.60728e-05
1.60738e-05
1.60747e-05
1.60766e-05
1.60781e-05
1.60792e-05
1.60799e-05
1.60804e-05
1.60806e-05
1.60806e-05
1.60805e-05
1.60803e-05
1.60801e-05
1.608e-05
1.60801e-05
1.60802e-05
1.60806e-05
1.60812e-05
1.6082e-05
1.60831e-05
1.60845e-05
1.6086e-05
1.60879e-05
1.609e-05
1.60924e-05
1.60951e-05
1.60983e-05
1.6102e-05
1.61068e-05
1.61114e-05
1.60782e-05
1.6073e-05
1.60718e-05
1.60718e-05
1.60723e-05
1.6073e-05
1.60739e-05
1.6075e-05
1.60761e-05
1.60773e-05
1.60784e-05
1.60795e-05
1.60805e-05
1.60814e-05
1.60821e-05
1.60833e-05
1.6084e-05
1.60846e-05
1.60853e-05
1.60861e-05
1.60871e-05
1.60883e-05
1.60898e-05
1.60918e-05
1.60942e-05
1.60973e-05
1.6101e-05
1.61053e-05
1.61103e-05
1.61159e-05
1.6119e-05
1.61416e-05
1.60837e-05
1.63213e-05
1.57746e-05
1.60976e-05
2.16193e-05
1.03844e-05
1e-05
1.60817e-05
1.60826e-05
1.60819e-05
1.60805e-05
1.60786e-05
1.60769e-05
1.60755e-05
1.60744e-05
1.60737e-05
1.60734e-05
1.60735e-05
1.60739e-05
1.60744e-05
1.60755e-05
1.60767e-05
1.60778e-05
1.60786e-05
1.60791e-05
1.60795e-05
1.60797e-05
1.60797e-05
1.60797e-05
1.60797e-05
1.60797e-05
1.60798e-05
1.608e-05
1.60804e-05
1.6081e-05
1.60818e-05
1.60828e-05
1.60841e-05
1.60856e-05
1.60874e-05
1.60895e-05
1.6092e-05
1.6095e-05
1.60985e-05
1.61031e-05
1.61077e-05
1.60833e-05
1.60791e-05
1.60769e-05
1.60756e-05
1.60751e-05
1.60749e-05
1.60749e-05
1.60752e-05
1.60757e-05
1.60763e-05
1.60771e-05
1.6078e-05
1.6079e-05
1.60799e-05
1.60807e-05
1.6082e-05
1.6083e-05
1.60838e-05
1.60846e-05
1.60855e-05
1.60865e-05
1.60876e-05
1.60889e-05
1.60904e-05
1.60924e-05
1.60949e-05
1.6098e-05
1.61019e-05
1.61063e-05
1.61121e-05
1.61144e-05
1.61356e-05
1.60911e-05
1.62525e-05
1.60088e-05
1.55399e-05
2.10624e-05
1.22836e-05
1e-05
1.60845e-05
1.60839e-05
1.60829e-05
1.6082e-05
1.60807e-05
1.60794e-05
1.60782e-05
1.6077e-05
1.60759e-05
1.6075e-05
1.60744e-05
1.60742e-05
1.60741e-05
1.60742e-05
1.6075e-05
1.60759e-05
1.60767e-05
1.60773e-05
1.60779e-05
1.60783e-05
1.60787e-05
1.60789e-05
1.6079e-05
1.60791e-05
1.60793e-05
1.60795e-05
1.60798e-05
1.60802e-05
1.60808e-05
1.60816e-05
1.60826e-05
1.60838e-05
1.60853e-05
1.60872e-05
1.60894e-05
1.60921e-05
1.60953e-05
1.60995e-05
1.6104e-05
1.60851e-05
1.60833e-05
1.60815e-05
1.60798e-05
1.60788e-05
1.60781e-05
1.60774e-05
1.60769e-05
1.60768e-05
1.60768e-05
1.60771e-05
1.60775e-05
1.60782e-05
1.60789e-05
1.60797e-05
1.60806e-05
1.60817e-05
1.60827e-05
1.60836e-05
1.60846e-05
1.60857e-05
1.60868e-05
1.6088e-05
1.60893e-05
1.60909e-05
1.60929e-05
1.60955e-05
1.60989e-05
1.61027e-05
1.61083e-05
1.61107e-05
1.61282e-05
1.61015e-05
1.61839e-05
1.62011e-05
1.52884e-05
1.97161e-05
1.57182e-05
1.00005e-05
1.60845e-05
1.60834e-05
1.60827e-05
1.60819e-05
1.60811e-05
1.60804e-05
1.60797e-05
1.60788e-05
1.60778e-05
1.60767e-05
1.60759e-05
1.60752e-05
1.60748e-05
1.60741e-05
1.60743e-05
1.60747e-05
1.60752e-05
1.60758e-05
1.60764e-05
1.60769e-05
1.60774e-05
1.60777e-05
1.6078e-05
1.60783e-05
1.60785e-05
1.60788e-05
1.60791e-05
1.60795e-05
1.608e-05
1.60806e-05
1.60814e-05
1.60824e-05
1.60837e-05
1.60852e-05
1.60871e-05
1.60895e-05
1.60923e-05
1.60962e-05
1.61005e-05
1.60845e-05
1.60847e-05
1.60837e-05
1.60825e-05
1.60816e-05
1.60807e-05
1.60798e-05
1.60791e-05
1.60785e-05
1.60781e-05
1.60779e-05
1.6078e-05
1.60782e-05
1.60786e-05
1.60792e-05
1.60797e-05
1.60806e-05
1.60816e-05
1.60826e-05
1.60836e-05
1.60846e-05
1.60858e-05
1.60869e-05
1.60882e-05
1.60896e-05
1.60913e-05
1.60934e-05
1.60962e-05
1.60995e-05
1.61045e-05
1.61073e-05
1.61204e-05
1.61114e-05
1.61272e-05
1.63127e-05
1.53144e-05
1.81015e-05
1.90989e-05
1.00283e-05
1.60833e-05
1.60827e-05
1.60822e-05
1.60815e-05
1.60809e-05
1.60805e-05
1.60801e-05
1.60796e-05
1.60789e-05
1.60781e-05
1.60772e-05
1.60764e-05
1.60758e-05
1.6075e-05
1.60745e-05
1.60744e-05
1.60746e-05
1.60749e-05
1.60753e-05
1.60757e-05
1.60761e-05
1.60765e-05
1.60769e-05
1.60772e-05
1.60776e-05
1.60779e-05
1.60783e-05
1.60786e-05
1.60791e-05
1.60797e-05
1.60803e-05
1.60812e-05
1.60823e-05
1.60836e-05
1.60852e-05
1.60873e-05
1.60898e-05
1.60932e-05
1.60971e-05
1.60832e-05
1.6084e-05
1.60839e-05
1.60833e-05
1.60828e-05
1.60822e-05
1.60815e-05
1.60808e-05
1.60802e-05
1.60797e-05
1.60792e-05
1.6079e-05
1.60789e-05
1.6079e-05
1.60792e-05
1.60796e-05
1.608e-05
1.60807e-05
1.60816e-05
1.60826e-05
1.60836e-05
1.60847e-05
1.60859e-05
1.60872e-05
1.60885e-05
1.609e-05
1.60918e-05
1.60941e-05
1.60968e-05
1.6101e-05
1.61042e-05
1.61127e-05
1.61184e-05
1.60911e-05
1.63354e-05
1.55349e-05
1.67316e-05
2.05408e-05
1.07878e-05
1.60826e-05
1.60826e-05
1.60821e-05
1.60814e-05
1.60808e-05
1.60804e-05
1.60802e-05
1.60799e-05
1.60794e-05
1.60788e-05
1.60782e-05
1.60775e-05
1.60768e-05
1.60763e-05
1.60752e-05
1.60747e-05
1.60746e-05
1.60746e-05
1.60747e-05
1.60749e-05
1.60752e-05
1.60755e-05
1.60758e-05
1.60762e-05
1.60765e-05
1.60769e-05
1.60773e-05
1.60777e-05
1.60782e-05
1.60788e-05
1.60794e-05
1.60802e-05
1.60811e-05
1.60822e-05
1.60836e-05
1.60854e-05
1.60876e-05
1.60906e-05
1.60941e-05
1.60826e-05
1.6083e-05
1.60832e-05
1.6083e-05
1.60829e-05
1.60827e-05
1.60824e-05
1.6082e-05
1.60815e-05
1.6081e-05
1.60806e-05
1.60802e-05
1.608e-05
1.60798e-05
1.60798e-05
1.60799e-05
1.608e-05
1.60804e-05
1.60811e-05
1.60818e-05
1.60828e-05
1.60838e-05
1.60849e-05
1.60861e-05
1.60874e-05
1.60888e-05
1.60904e-05
1.60924e-05
1.60948e-05
1.60981e-05
1.61017e-05
1.61063e-05
1.61207e-05
1.60767e-05
1.62915e-05
1.58247e-05
1.58666e-05
2.01637e-05
1.34306e-05
1.60828e-05
1.60829e-05
1.60823e-05
1.60815e-05
1.60809e-05
1.60805e-05
1.60802e-05
1.608e-05
1.60796e-05
1.60792e-05
1.60787e-05
1.60782e-05
1.60776e-05
1.60771e-05
1.60761e-05
1.60755e-05
1.60751e-05
1.60748e-05
1.60747e-05
1.60746e-05
1.60747e-05
1.60748e-05
1.6075e-05
1.60753e-05
1.60756e-05
1.6076e-05
1.60764e-05
1.60768e-05
1.60773e-05
1.60779e-05
1.60785e-05
1.60792e-05
1.608e-05
1.60811e-05
1.60823e-05
1.60839e-05
1.60858e-05
1.60884e-05
1.60914e-05
1.60829e-05
1.60827e-05
1.60827e-05
1.60827e-05
1.60828e-05
1.60828e-05
1.60827e-05
1.60826e-05
1.60824e-05
1.60821e-05
1.60818e-05
1.60814e-05
1.60811e-05
1.60809e-05
1.60807e-05
1.60806e-05
1.60807e-05
1.60806e-05
1.6081e-05
1.60815e-05
1.60822e-05
1.60831e-05
1.6084e-05
1.60851e-05
1.60863e-05
1.60876e-05
1.60891e-05
1.60908e-05
1.60929e-05
1.60955e-05
1.60992e-05
1.61014e-05
1.61182e-05
1.60797e-05
1.62167e-05
1.60739e-05
1.55109e-05
1.88056e-05
1.6268e-05
1.60833e-05
1.60832e-05
1.60823e-05
1.60815e-05
1.60809e-05
1.60806e-05
1.60803e-05
1.608e-05
1.60797e-05
1.60794e-05
1.60791e-05
1.60787e-05
1.60782e-05
1.60778e-05
1.6077e-05
1.60764e-05
1.60758e-05
1.60753e-05
1.6075e-05
1.60747e-05
1.60746e-05
1.60746e-05
1.60746e-05
1.60747e-05
1.60749e-05
1.60752e-05
1.60756e-05
1.6076e-05
1.60765e-05
1.6077e-05
1.60776e-05
1.60783e-05
1.6079e-05
1.608e-05
1.60811e-05
1.60825e-05
1.60843e-05
1.60865e-05
1.60891e-05
1.60834e-05
1.6083e-05
1.60828e-05
1.60828e-05
1.60829e-05
1.60829e-05
1.6083e-05
1.6083e-05
1.60829e-05
1.60828e-05
1.60826e-05
1.60824e-05
1.60821e-05
1.60819e-05
1.60817e-05
1.60815e-05
1.60815e-05
1.60812e-05
1.60813e-05
1.60816e-05
1.60821e-05
1.60827e-05
1.60834e-05
1.60843e-05
1.60853e-05
1.60865e-05
1.60878e-05
1.60894e-05
1.60912e-05
1.60934e-05
1.60968e-05
1.60981e-05
1.61121e-05
1.6091e-05
1.61448e-05
1.62212e-05
1.55254e-05
1.73868e-05
1.76883e-05
1.60835e-05
1.60831e-05
1.60821e-05
1.60813e-05
1.60808e-05
1.60805e-05
1.60803e-05
1.608e-05
1.60798e-05
1.60795e-05
1.60793e-05
1.6079e-05
1.60786e-05
1.60782e-05
1.60779e-05
1.60771e-05
1.60765e-05
1.6076e-05
1.60756e-05
1.60752e-05
1.60749e-05
1.60746e-05
1.60745e-05
1.60745e-05
1.60746e-05
1.60747e-05
1.6075e-05
1.60753e-05
1.60757e-05
1.60762e-05
1.60767e-05
1.60774e-05
1.60781e-05
1.6079e-05
1.608e-05
1.60813e-05
1.60828e-05
1.60849e-05
1.60871e-05
1.60836e-05
1.60834e-05
1.60831e-05
1.60831e-05
1.60831e-05
1.60832e-05
1.60832e-05
1.60833e-05
1.60833e-05
1.60833e-05
1.60832e-05
1.60831e-05
1.60829e-05
1.60828e-05
1.60826e-05
1.60824e-05
1.60823e-05
1.60821e-05
1.6082e-05
1.60821e-05
1.60824e-05
1.60828e-05
1.60833e-05
1.60839e-05
1.60847e-05
1.60857e-05
1.60868e-05
1.60882e-05
1.60898e-05
1.60917e-05
1.60946e-05
1.6096e-05
1.61051e-05
1.61014e-05
1.60988e-05
1.62579e-05
1.57263e-05
1.6409e-05
1.77018e-05
1.60834e-05
1.60829e-05
1.6082e-05
1.60811e-05
1.60806e-05
1.60803e-05
1.60801e-05
1.60799e-05
1.60797e-05
1.60795e-05
1.60793e-05
1.60791e-05
1.60788e-05
1.60785e-05
1.60782e-05
1.60777e-05
1.60772e-05
1.60767e-05
1.60762e-05
1.60757e-05
1.60753e-05
1.6075e-05
1.60747e-05
1.60746e-05
1.60745e-05
1.60746e-05
1.60747e-05
1.60749e-05
1.60752e-05
1.60756e-05
1.6076e-05
1.60766e-05
1.60773e-05
1.60781e-05
1.6079e-05
1.60801e-05
1.60815e-05
1.60834e-05
1.60853e-05
1.60836e-05
1.60835e-05
1.60834e-05
1.60834e-05
1.60834e-05
1.60834e-05
1.60835e-05
1.60836e-05
1.60836e-05
1.60836e-05
1.60836e-05
1.60836e-05
1.60835e-05
1.60834e-05
1.60833e-05
1.60832e-05
1.60831e-05
1.60831e-05
1.60828e-05
1.60828e-05
1.60829e-05
1.60831e-05
1.60834e-05
1.60837e-05
1.60843e-05
1.6085e-05
1.60859e-05
1.60871e-05
1.60885e-05
1.60902e-05
1.60925e-05
1.60944e-05
1.60992e-05
1.61061e-05
1.60823e-05
1.62196e-05
1.59541e-05
1.5954e-05
1.70853e-05
1.60833e-05
1.6083e-05
1.60823e-05
1.60812e-05
1.60805e-05
1.60801e-05
1.60799e-05
1.60797e-05
1.60795e-05
1.60793e-05
1.60792e-05
1.6079e-05
1.60788e-05
1.60786e-05
1.60783e-05
1.60781e-05
1.60776e-05
1.60772e-05
1.60767e-05
1.60763e-05
1.60759e-05
1.60755e-05
1.60752e-05
1.60749e-05
1.60748e-05
1.60747e-05
1.60747e-05
1.60748e-05
1.60749e-05
1.60752e-05
1.60756e-05
1.6076e-05
1.60766e-05
1.60773e-05
1.60781e-05
1.60791e-05
1.60804e-05
1.6082e-05