/*--------------------------------*- C++ -*----------------------------------*\
| =========                 |                                                 |
| \\      /  F ield         | OpenFOAM: The Open Source CFD Toolbox           |
|  \\    /   O peration     | Version:  2506                                  |
|   \\  /    A nd           | Website:  www.openfoam.com                      |
|    \\/     M anipulation  |                                                 |
\*---------------------------------------------------------------------------*/
FoamFile
{
    version     2.0;
    format      ascii;
    arch        "LSB;label=32;scalar=64";
    class       volVectorField;
    location    "139.9817045682689";
    object      ddt0(U);
}
// * * * * * * * * * * * * * * * * * * * * * * * * * * * * * * * * * * * * * //

dimensions      [0 1 -2 0 0 0 0];

internalField   nonuniform List<vector> 
9700
(
(0.00211978 0.000203076 1.45077e-23)
(0.00209691 0.000750175 2.98179e-24)
(0.00144633 0.000157374 3.45943e-28)
(0.00203497 0.00127414 -2.84393e-23)
(0.00135298 0.000621551 -2.28174e-24)
(0.00122561 0.000113211 -5.27897e-24)
(0.00193443 0.0019539 -8.38288e-24)
(0.00118881 0.00103174 -1.60078e-37)
(0.00111711 0.000483032 -2.57346e-24)
(0.000965412 6.00535e-05 0)
(0.00176889 0.00277567 3.47688e-23)
(0.000892536 0.00157274 5.80338e-24)
(0.000930222 0.000784894 -9.687e-23)
(0.000840344 0.000310729 -5.10452e-23)
(0.000854948 5.90002e-06 -2.77928e-24)
(0.00150887 0.00385094 7.40254e-23)
(0.000453188 0.00220074 -2.83637e-27)
(0.000591349 0.00118734 -3.7239e-23)
(0.000627284 0.000480553 -1.63752e-36)
(0.000731745 0.000128631 6.78853e-24)
(0.000838359 -4.46391e-05 9.96526e-28)
(0.00111377 0.00525819 1.65214e-22)
(-0.000205191 0.00300961 3.90143e-27)
(9.27449e-05 0.00163635 -4.74351e-23)
(0.0002407 0.000712962 1.29614e-22)
(0.000522334 0.000162978 -1.50636e-23)
(0.000728541 -4.69375e-05 -9.40131e-24)
(0.000924174 -8.67166e-05 2.14043e-23)
(0.00051527 0.00715009 1.47361e-22)
(-0.0011564 0.00404166 1.39897e-22)
(-0.000648713 0.00220205 -1.55378e-23)
(-0.000324723 0.000945145 0)
(0.000141757 0.000218962 -2.6633e-23)
(0.000541398 -0.000140288 5.09825e-37)
(0.000839518 -0.000198759 3.14145e-23)
(0.00108761 -0.000116517 2.12909e-22)
(-0.00036783 0.00969415 -2.74308e-22)
(-0.00252688 0.00540137 -1.09656e-22)
(-0.00171079 0.00290057 1.96795e-22)
(-0.00115827 0.00121652 0)
(-0.000413146 0.000230352 -2.37651e-23)
(0.000200313 -0.000252337 2.36038e-23)
(0.00069405 -0.000399746 1.21146e-26)
(0.00103671 -0.000312772 2.49327e-22)
(0.00130426 -0.000131288 -7.30674e-25)
(-0.00166448 0.0131742 -2.97124e-22)
(-0.00448708 0.00718673 -2.68614e-22)
(-0.00322631 0.00379712 -9.45021e-22)
(-0.00234412 0.00151614 -4.98086e-37)
(-0.00122624 0.000203885 5.26032e-23)
(-0.000296393 -0.000448029 -1.19579e-26)
(0.000427023 -0.000655554 -1.4377e-23)
(0.00094708 -0.000591784 3.36719e-23)
(0.00129269 -0.000378274 4.66447e-23)
(0.00154219 -0.000129543 -3.17416e-22)
(-0.00365699 0.017947 2.95854e-22)
(-0.00729375 0.00958566 3.24793e-23)
(-0.00537765 0.00493431 -8.6937e-23)
(-0.00401991 0.00186307 1.55571e-22)
(-0.00237817 0.000105345 4.16682e-22)
(-0.0010203 -0.000752861 1.6236e-26)
(3.76995e-05 -0.00102549 -1.68813e-23)
(0.000779373 -0.000954579 2.57599e-22)
(0.00126831 -0.00069872 -4.33655e-23)
(0.00157192 -0.000388823 -3.271e-22)
(0.00176787 -0.000111139 0)
(-0.00688161 0.0244411 9.14947e-23)
(-0.0112955 0.0128035 4.35922e-23)
(-0.0084336 0.00641627 1.29819e-21)
(-0.00637963 0.0022397 6.69039e-22)
(-0.00399289 -9.09838e-05 2.62258e-22)
(-0.00204366 -0.00121871 5.83663e-22)
(-0.000527076 -0.00156427 6.21392e-23)
(0.000533084 -0.00145156 2.40539e-22)
(0.00121671 -0.00112242 -2.35314e-22)
(0.00161638 -0.000710281 2.70742e-26)
(0.00183724 -0.000342632 2.37087e-37)
(0.00194814 -7.72784e-05 -4.71519e-23)
(-0.011448 0.0329541 3.67458e-21)
(-0.0169222 0.0169963 3.33902e-22)
(-0.0126992 0.0083218 -2.45704e-22)
(-0.00970058 0.00266151 -2.7852e-22)
(-0.0062512 -0.000455006 -6.92143e-22)
(-0.00346702 -0.00191201 -7.75639e-23)
(-0.00132634 -0.00233432 4.56322e-22)
(0.000177229 -0.00216152 2.58726e-22)
(0.00113713 -0.00168903 1.91259e-27)
(0.00168741 -0.00114339 -3.95547e-22)
(0.00194822 -0.000624115 -4.51688e-37)
(0.00205204 -0.000242715 -4.09099e-23)
(0.00205307 -3.04298e-05 5.99787e-28)
(-0.0156905 0.0452202 -2.52919e-22)
(-0.0252104 0.0219472 7.12148e-35)
(-0.0183943 0.0107262 -1.30974e-22)
(-0.0142829 0.00307381 -1.2059e-21)
(-0.00939659 -0.00104914 -5.04696e-22)
(-0.00544697 -0.00294268 -1.1222e-21)
(-0.00242939 -0.00343647 1.13184e-22)
(-0.000330874 -0.00315024 3.22128e-22)
(0.00102248 -0.00249448 -2.52026e-27)
(0.00178377 -0.00171681 -4.26428e-22)
(0.00213807 -0.00101381 1.85898e-37)
(0.00222147 -0.000445961 -3.46348e-26)
(0.00218337 -9.65989e-05 -6.19013e-24)
(0.00205853 2.57489e-05 5.92713e-23)
(-0.0161045 0.0665252 -1.3153e-21)
(-0.0383704 0.0286729 -2.91084e-22)
(-0.0265872 0.013338 -5.69765e-21)
(-0.0201904 0.00345875 -1.42771e-21)
(-0.0137089 -0.0020446 3.08565e-23)
(-0.00817095 -0.00443565 1.35372e-22)
(-0.00396021 -0.00500488 -4.50091e-22)
(-0.00102599 -0.00454558 -3.63158e-22)
(0.000848825 -0.0036016 4.10472e-22)
(0.0019221 -0.0025351 -4.07795e-22)
(0.00240523 -0.00153051 0)
(0.00251636 -0.000742255 -7.49658e-23)
(0.00239794 -0.0001891 2.7538e-36)
(0.00220463 8.40188e-05 6.56903e-23)
(0.00194851 8.662e-05 8.01535e-23)
(-0.0102248 0.102929 9.67306e-21)
(-0.0564321 0.0420797 -1.89455e-22)
(-0.0409318 0.0161634 -8.58405e-22)
(-0.0282891 0.00345928 1.30526e-34)
(-0.0191362 -0.00354433 3.36859e-22)
(-0.011897 -0.00664677 1.79644e-22)
(-0.00603491 -0.00721035 -2.0323e-22)
(-0.00199598 -0.00648996 1.33022e-21)
(0.00061574 -0.00515723 -5.7284e-22)
(0.0020989 -0.00365348 -1.74543e-22)
(0.00278828 -0.00227785 0)
(0.00293517 -0.00114267 -7.86539e-23)
(0.00277501 -0.000348768 1.36384e-23)
(0.00244662 0.000126186 4.38117e-22)
(0.00209811 0.000284125 1.06472e-22)
(0.00171665 0.000146938 -7.63349e-29)
(0.00353161 0.15316 4.90528e-22)
(-0.071839 0.0694886 -1.10304e-22)
(-0.0639646 0.0217624 -4.5806e-21)
(-0.0431645 0.00228816 2.67087e-21)
(-0.0260493 -0.0058781 2.02843e-21)
(-0.0165363 -0.00976533 1.4463e-21)
(-0.00887233 -0.0103516 -2.00624e-23)
(-0.00328425 -0.00918751 1.16512e-21)
(0.000274062 -0.00729779 -6.07803e-22)
(0.00234507 -0.00522884 -5.76634e-23)
(0.0033052 -0.00330057 3.13534e-36)
(0.00353551 -0.00173981 -3.86869e-23)
(0.00331344 -0.000581528 -6.22922e-27)
(0.00287531 0.00013589 4.62062e-23)
(0.0023466 0.000474015 8.17868e-23)
(0.00185654 0.000486613 -5.97099e-23)
(0.00136747 0.000201233 -8.86554e-23)
(0.0253265 0.20659 1.78707e-20)
(-0.0731153 0.110543 5.86406e-21)
(-0.0886553 0.0366919 2.28914e-21)
(-0.0706782 7.08905e-05 0)
(-0.0385619 -0.0101784 -2.3759e-22)
(-0.0220059 -0.0140827 -1.56966e-35)
(-0.0123866 -0.0146951 2.792e-22)
(-0.00505663 -0.0129388 -6.73849e-22)
(-0.000155138 -0.0102527 8.85156e-22)
(0.00265298 -0.00738078 -6.35277e-22)
(0.0040136 -0.00475532 -3.99757e-22)
(0.0043568 -0.00256664 1.45887e-22)
(0.00408603 -0.000959139 7.2826e-27)
(0.0034902 0.000109851 5.00332e-23)
(0.00279067 0.000672269 2.22278e-22)
(0.00208907 0.000824925 -5.69419e-22)
(0.00148443 0.000673308 -8.34519e-23)
(0.000916288 0.00024444 9.51614e-23)
(0.0349742 0.252129 -6.52209e-20)
(-0.0454083 0.167346 -1.56051e-20)
(-0.103645 0.0653601 7.39798e-21)
(-0.10656 0.00227935 -1.98592e-34)
(-0.064967 -0.0188188 -4.79794e-21)
(-0.0309867 -0.0205175 -2.58819e-21)
(-0.0162833 -0.02054 4.69742e-22)
(-0.00722406 -0.0180666 1.04187e-21)
(-0.000775807 -0.0142923 -1.21598e-21)
(0.00309442 -0.0103579 -9.28433e-22)
(0.00495074 -0.00673825 4.64347e-22)
(0.00547835 -0.00376765 -9.68381e-22)
(0.00515213 -0.00150239 2.18845e-22)
(0.00437465 5.73118e-06 8.33974e-23)
(0.00343039 0.000876176 8.4932e-23)
(0.00250913 0.00121521 -7.8763e-23)
(0.00167889 0.00114761 5.06599e-22)
(0.000998195 0.000826612 1.29883e-22)
(0.000387959 0.000272493 -9.03972e-29)
(0.0400194 0.291453 -8.37565e-21)
(-0.0118492 0.236081 -9.6463e-21)
(-0.104413 0.112568 -1.55179e-20)
(-0.135482 0.0179877 2.08152e-35)
(-0.106603 -0.0300832 5.9701e-22)
(-0.0520446 -0.0327364 -1.36393e-21)
(-0.0215685 -0.0283291 -3.08875e-22)
(-0.00954399 -0.0249182 1.93607e-22)
(-0.00146444 -0.0197786 1.34696e-21)
(0.00363289 -0.0143799 -1.28229e-21)
(0.00622446 -0.0095085 5.76203e-22)
(0.00698472 -0.00541303 -1.12791e-21)
(0.00660803 -0.00233056 -2.30281e-23)
(0.00560443 -0.000184807 1.87708e-22)
(0.00435424 0.00107918 8.80879e-23)
(0.00311717 0.00165381 6.67502e-28)
(0.00203546 0.0017164 -1.01312e-22)
(0.00113484 0.00141177 9.41612e-23)
(0.000424984 0.000931224 7.43455e-24)
(-0.000184403 0.000282607 -1.0735e-22)
(0.0334 0.327265 -3.6469e-20)
(-0.016298 0.292095 2.27124e-20)
(-0.0913065 0.176098 3.18663e-20)
(-0.144197 0.0520855 5.4809e-35)
(-0.149645 -0.0344443 1.18761e-20)
(-0.0919626 -0.0534379 4.13281e-25)
(-0.0349742 -0.0415107 -4.42363e-21)
(-0.011795 -0.033575 2.00562e-21)
(-0.0021454 -0.027086 -2.12138e-22)
(0.00444241 -0.0198451 -1.50947e-21)
(0.0078745 -0.0132272 -6.65937e-22)
(0.0090078 -0.00775768 1.07367e-21)
(0.00858479 -0.00348789 -2.49642e-22)
(0.00728848 -0.000542989 8.93145e-22)
(0.00564878 0.00128609 1.64598e-22)
(0.00400035 0.00217325 -6.60884e-28)
(0.00255478 0.00237407 -9.86195e-23)
(0.00139191 0.00212872 2.42898e-22)
(0.000488334 0.00159113 -2.08536e-35)
(-0.000198508 0.000975465 -2.36101e-22)
(-0.000762387 0.000273468 1.81693e-24)
(0.0718742 0.362504 5.33293e-21)
(-0.000746112 0.335848 -3.92703e-22)
(-0.0570433 0.235358 -9.94923e-21)
(-0.134516 0.098227 0)
(-0.175256 -0.0217868 -1.18688e-21)
(-0.142947 -0.0772107 1.10006e-20)
(-0.0661119 -0.0656707 4.37718e-22)
(-0.0179087 -0.0462877 2.51307e-21)
(-0.00207484 -0.0362582 -2.7816e-21)
(0.0054868 -0.0270811 -7.60579e-23)
(0.0101105 -0.0183328 5.66831e-37)
(0.0116758 -0.0109069 -1.77728e-22)
(0.0112315 -0.00520344 2.03593e-23)
(0.00959847 -0.00108726 -3.04472e-22)
(0.00743088 0.00146455 5.82553e-22)
(0.00524862 0.00279267 -5.67405e-23)
(0.00331544 0.00319186 -7.45176e-23)
(0.00177007 0.00296929 8.94937e-23)
(0.000616879 0.0024109 -1.61278e-23)
(-0.000218001 0.0016657 -1.05545e-22)
(-0.000829267 0.000952745 9.21971e-24)
(-0.00130587 0.000245283 1.15414e-21)
(0.0690905 0.374048 2.96595e-21)
(0.00873196 0.380546 8.58265e-22)
(-0.0392441 0.285592 -5.59799e-20)
(-0.11112 0.153375 2.64511e-35)
(-0.175758 0.00827001 -2.06503e-21)
(-0.185083 -0.0904953 -2.63939e-20)
(-0.116035 -0.102154 9.67424e-21)
(-0.0365394 -0.0688032 5.41973e-22)
(-0.00284145 -0.0482545 2.35358e-26)
(0.00750513 -0.0363692 -3.19265e-21)
(0.0129231 -0.0250416 9.65595e-36)
(0.0152061 -0.0153297 -1.62302e-22)
(0.0147728 -0.00753633 1.55071e-23)
(0.012699 -0.00199522 -9.47893e-22)
(0.00990121 0.00162371 -3.03198e-24)
(0.00698048 0.00353561 -5.04408e-22)
(0.00440209 0.00420434 -1.57404e-23)
(0.00233163 0.00403913 8.56256e-23)
(0.000811196 0.00337953 9.19142e-28)
(-0.000236598 0.00253127 -7.58085e-23)
(-0.000934058 0.00162433 -2.73811e-22)
(-0.00142214 0.000862458 1.23764e-21)
(-0.0017762 0.000199786 -5.8065e-25)
(0.0511103 0.373117 1.76099e-20)
(0.0182595 0.417252 -2.99934e-22)
(-0.0232806 0.33341 9.81479e-22)
(-0.0882274 0.208803 6.14534e-35)
(-0.158161 0.0534272 -2.12618e-20)
(-0.203718 -0.0837563 -2.14427e-20)
(-0.169645 -0.139452 4.32249e-21)
(-0.0757187 -0.108233 6.06493e-21)
(-0.00959668 -0.0670281 4.00117e-21)
(0.0101585 -0.047838 -6.34894e-21)
(0.0168316 -0.0339665 1.52668e-35)
(0.0197403 -0.0211261 -1.98254e-21)
(0.0194218 -0.0109499 4.14929e-23)
(0.0169059 -0.00328892 1.42669e-22)
(0.0132399 0.00166216 1.5828e-22)
(0.00940876 0.00444288 1.86152e-22)
(0.00592621 0.00549261 -3.95828e-24)
(0.00314706 0.00538831 1.41785e-22)
(0.00111011 0.00462897 -1.03213e-27)
(-0.000253928 0.00355814 -9.82774e-23)
(-0.00110542 0.00247185 -2.13623e-23)
(-0.00160707 0.00146616 1.20754e-22)
(-0.00193366 0.000710104 1.00316e-22)
(-0.00213956 0.000140255 -1.30973e-21)
(0.0167008 0.359259 2.50727e-23)
(0.0223674 0.446447 4.58154e-22)
(-0.0115699 0.375654 -1.01353e-20)
(-0.0692416 0.258008 1.39011e-34)
(-0.13345 0.102773 1.16582e-20)
(-0.196091 -0.0569471 7.45423e-20)
(-0.206843 -0.163496 -1.75487e-20)
(-0.129594 -0.160654 1.34383e-21)
(-0.0322788 -0.101241 4.47792e-21)
(0.0117504 -0.0635542 -5.09917e-21)
(0.0219483 -0.0448956 0)
(0.0255818 -0.0291645 -4.2796e-22)
(0.0255318 -0.0154771 -7.9292e-35)
(0.0224453 -0.00536873 1.44099e-22)
(0.0178342 0.00159528 4.1453e-22)
(0.0127256 0.00550867 5.59516e-22)
(0.00809214 0.0071339 -1.21589e-22)
(0.00430978 0.0071509 4.28852e-22)
(0.00156178 0.00622282 2.24885e-23)
(-0.000260273 0.00489334 -9.19599e-23)
(-0.00134344 0.00347808 -2.12002e-23)
(-0.00192266 0.00223096 1.31155e-21)
(-0.00218613 0.00120096 -1.12118e-21)
(-0.00232599 0.000507016 -1.28245e-21)
(-0.00237033 7.12877e-05 -1.46843e-22)
(0.00529711 0.338712 1.01849e-20)
(0.033879 0.466198 -1.95633e-20)
(-0.00458238 0.412027 1.08018e-19)
(-0.0526597 0.303341 1.41039e-20)
(-0.110272 0.146967 1.7761e-20)
(-0.172428 -0.0195664 6.93912e-21)
(-0.216852 -0.165097 -2.3226e-20)
(-0.180344 -0.213657 2.09848e-20)
(-0.0740284 -0.155328 -4.39495e-21)
(0.00493452 -0.0894456 -3.90525e-21)
(0.0282636 -0.0590911 -7.5612e-36)
(0.033061 -0.0392024 -9.35092e-22)
(0.0332983 -0.0220807 1.70521e-22)
(0.0298779 -0.00825542 3.30799e-21)
(0.023954 0.00114405 7.70564e-22)
(0.0173592 0.00679846 5.63739e-23)
(0.0110928 0.00922874 -4.49247e-22)
(0.0059932 0.00944311 7.46979e-24)
(0.00222918 0.00833716 2.06236e-23)
(-0.000235987 0.00660932 -1.46331e-22)
(-0.00167028 0.004792 2.61828e-23)
(-0.00236972 0.00313618 1.11031e-21)
(-0.00262356 0.00182372 -2.47301e-22)
(-0.0026269 0.000848657 -7.53141e-22)
(-0.00257074 0.000269211 -8.87373e-23)
(-0.00245361 -1.67952e-06 1.16672e-28)
(0.00109691 0.31865 6.14267e-21)
(0.0298662 0.465751 -5.56349e-21)
(0.00824827 0.445287 3.96581e-23)
(-0.0354857 0.346335 -9.44161e-27)
(-0.0905724 0.186841 -7.5133e-22)
(-0.144126 0.0177251 -3.13207e-20)
(-0.201615 -0.146837 3.01866e-20)
(-0.211413 -0.250096 3.14386e-20)
(-0.125769 -0.224636 -1.22963e-20)
(-0.0175488 -0.134314 -9.02648e-22)
(0.0324599 -0.0784089 3.87594e-35)
(0.0421902 -0.0525363 9.06434e-22)
(0.043251 -0.0306745 1.32644e-22)
(0.0394359 -0.0128476 4.06121e-22)
(0.0323282 0.000289639 2.29107e-22)
(0.0236402 0.00819964 -1.70796e-22)
(0.0153596 0.0119109 -4.92677e-23)
(0.00837132 0.0124712 7.67361e-23)
(0.0032333 0.0111247 1.60783e-36)
(-0.000159934 0.00890737 -3.21988e-22)
(-0.00209799 0.00648738 2.27701e-22)
(-0.00300145 0.00431925 1.05948e-21)
(-0.00324768 0.00255414 6.42916e-27)
(-0.00315191 0.00128135 -1.47954e-21)
(-0.00289626 0.000437345 2.08277e-21)
(-0.00265172 1.56346e-05 -9.98715e-23)
(-0.00238618 -7.2834e-05 1.61899e-22)
(-0.000439746 0.298658 1.33601e-23)
(0.02939 0.467292 -2.24675e-20)
(0.0116412 0.453241 1.85606e-20)
(-0.0107258 0.374564 -2.47391e-20)
(-0.0700326 0.218603 -1.33594e-20)
(-0.116985 0.0481424 -5.75717e-22)
(-0.173015 -0.11907 2.47067e-20)
(-0.213747 -0.26315 4.09072e-20)
(-0.172258 -0.291711 -1.36498e-20)
(-0.0560451 -0.201916 -1.87672e-20)
(0.0282597 -0.111061 2.08937e-38)
(0.0525022 -0.0685394 -5.83238e-22)
(0.0549583 -0.0426247 -4.64739e-26)
(0.0517764 -0.0192365 1.75081e-21)
(0.0433212 -0.00167879 -6.86855e-22)
(0.0324138 0.00974454 -9.00524e-22)
(0.0212711 0.0152674 -1.35605e-22)
(0.0118349 0.0164506 3.0852e-22)
(0.00470355 0.0148828 -3.39411e-24)
(1.95325e-05 0.011967 2.15087e-22)
(-0.00265478 0.00877025 6.98848e-22)
(-0.00386115 0.00584598 5.88226e-22)
(-0.00413807 0.00350574 -8.31244e-27)
(-0.00390347 0.00177755 -1.32791e-21)
(-0.00346609 0.000647902 -2.91857e-22)
(-0.00297565 1.75e-07 -8.08254e-35)
(-0.00256596 -0.00023335 2.14998e-22)
(-0.00217689 -0.000136605 0)
(0.001369 0.279439 -1.10408e-21)
(0.0290962 0.464767 2.89227e-20)
(0.0188816 0.465127 -1.01325e-19)
(-0.0126158 0.404956 -1.88844e-19)
(-0.0473597 0.261965 6.43757e-20)
(-0.0936751 0.0746952 2.49683e-21)
(-0.140093 -0.0906173 9.24461e-22)
(-0.194563 -0.254347 3.86259e-20)
(-0.197742 -0.34566 3.06545e-20)
(-0.102582 -0.282832 -3.15419e-20)
(0.0101051 -0.164042 0)
(0.0606165 -0.0925903 -7.73785e-21)
(0.0689734 -0.0573013 -1.25242e-21)
(0.0664518 -0.0286813 -9.7083e-22)
(0.0576535 -0.00484006 4.09542e-22)
(0.0441294 0.0110326 7.20456e-23)
(0.0296946 0.0194494 2.52659e-22)
(0.0167675 0.021685 4.9671e-22)
(0.0069407 0.0199095 1.72155e-23)
(0.000359501 0.0161462 -7.90811e-23)
(-0.00336687 0.0118286 -1.39394e-22)
(-0.00502735 0.00790585 5.07056e-22)
(-0.00536514 0.00472706 5.36954e-22)
(-0.00497977 0.00241705 -1.31582e-21)
(-0.00428297 0.00087103 -1.49279e-22)
(-0.00354341 -2.47089e-05 2.43813e-22)
(-0.00286223 -0.000427386 -8.92849e-22)
(-0.00232404 -0.000458032 -1.58767e-22)
(-0.0018456 -0.0001882 1.64386e-21)
(0.00759299 0.26451 -1.68537e-21)
(0.0286387 0.462861 -1.18052e-22)
(0.0186284 0.468741 -5.76241e-20)
(0.00574427 0.427034 7.03416e-20)
(-0.0345791 0.294876 2.03778e-20)
(-0.0751742 0.0770315 8.61641e-21)
(-0.108042 -0.0656694 -1.92576e-20)
(-0.164594 -0.235859 4.03948e-20)
(-0.197716 -0.368844 2.19474e-20)
(-0.146738 -0.372335 -1.43822e-19)
(-0.0204727 -0.239101 2.4559e-37)
(0.0607615 -0.129694 2.00975e-20)
(0.0841523 -0.0774501 3.01325e-21)
(0.0842065 -0.0417705 -2.14162e-21)
(0.0755312 -0.0104659 -6.37657e-21)
(0.0597261 0.0122569 -2.67868e-21)
(0.0410429 0.0245448 1.84923e-22)
(0.0239123 0.0285122 -4.66966e-23)
(0.0102678 0.0267189 -4.17749e-23)
(0.00102477 0.0218106 -1.19025e-22)
(-0.00427152 0.0160386 1.3794e-22)
(-0.00660241 0.0106713 1.16329e-21)
(-0.00705125 0.00637189 -6.58629e-22)
(-0.00647097 0.00322363 -1.35362e-21)
(-0.00545364 0.00114636 -1.50498e-22)
(-0.00435744 -8.93996e-05 -1.60291e-27)
(-0.00338155 -0.000681162 4.12328e-23)
(-0.00256922 -0.000811239 7.60285e-22)
(-0.00194882 -0.000641212 1.70127e-21)
(-0.00142118 -0.000223897 -2.81753e-25)
(0.0112329 0.255178 5.65416e-22)
(0.026658 0.463723 1.96721e-21)
(0.0165651 0.473812 7.09395e-21)
(0.00932828 0.440142 -1.04295e-19)
(-0.0217711 0.321915 -9.87374e-20)
(-0.0613015 0.0929124 -1.36009e-20)
(-0.0815216 -0.0462129 2.27885e-22)
(-0.134548 -0.212211 -4.31571e-20)
(-0.175931 -0.378955 1.42119e-20)
(-0.169158 -0.431484 -7.84132e-20)
(-0.0593395 -0.332928 -5.82338e-34)
(0.0508512 -0.187805 4.77515e-21)
(0.0962709 -0.105712 2.86601e-21)
(0.104739 -0.0607836 8.30701e-21)
(0.0982214 -0.0203958 1.49873e-21)
(0.0806631 0.0118186 1.91683e-21)
(0.0568321 0.0311235 2.86798e-21)
(0.0335089 0.0376527 -1.65116e-21)
(0.0151128 0.0358857 3.19218e-36)
(0.00219254 0.0296433 1.22956e-22)
(-0.00536874 0.0217968 -1.52482e-23)
(-0.00872561 0.0144908 4.4327e-23)
(-0.00936339 0.00857216 8.26468e-22)
(-0.00853003 0.00430079 -1.88937e-21)
(-0.00707865 0.00146896 4.1329e-22)
(-0.00552234 -0.000196876 2.09669e-27)
(-0.0041255 -0.00102319 1.7066e-22)
(-0.00299862 -0.00126857 -6.9121e-23)
(-0.00212408 -0.00112192 -5.71653e-22)
(-0.00147304 -0.000769398 1.9859e-22)
(-0.000939351 -0.000241257 -1.72489e-21)
(0.0158744 0.252198 2.38912e-21)
(0.0224832 0.467491 2.09637e-20)
(0.0124085 0.47966 1.06203e-21)
(0.00813782 0.451516 3.53861e-20)
(-0.011339 0.341183 -1.19774e-19)
(-0.0491282 0.111463 -4.58753e-21)
(-0.067377 -0.0327096 2.05508e-20)
(-0.106823 -0.188272 -7.64215e-23)
(-0.150712 -0.373361 7.49981e-20)
(-0.16052 -0.483381 -2.24122e-20)
(-0.08774 -0.427965 3.34257e-35)
(0.0266635 -0.260216 -2.70278e-21)
(0.101677 -0.146803 -1.30891e-20)
(0.123701 -0.0862106 -1.98836e-20)
(0.124685 -0.0380249 -6.12504e-21)
(0.109309 0.00704432 -4.25353e-22)
(0.0802173 0.0371431 -2.52775e-22)
(0.0480982 0.0499729 -1.94072e-22)
(0.0214786 0.0486944 3.0064e-22)
(0.00378369 0.0404306 1.96633e-22)
(-0.00670941 0.0298612 5.69678e-23)
(-0.0115654 0.0197365 -4.83051e-23)
(-0.0125325 0.0116096 -1.10607e-21)
(-0.0113693 0.00571971 3.37974e-22)
(-0.00932368 0.00188349 -1.72078e-22)
(-0.0071388 -0.000380627 -5.69461e-23)
(-0.00518649 -0.00149759 1.7616e-22)
(-0.00361272 -0.00185407 0)
(-0.00243056 -0.00174158 1.72457e-21)
(-0.00156562 -0.00133661 7.6765e-22)
(-0.000936883 -0.000833733 -1.79197e-21)
(-0.000439593 -0.000239258 1.75785e-21)
(0.0184792 0.257899 7.77594e-22)
(0.0148079 0.474371 -1.02383e-20)
(0.0058988 0.48677 -1.28957e-20)
(0.00316978 0.460129 -3.03285e-20)
(-0.00650611 0.354773 6.8e-20)
(-0.0366678 0.137311 5.33885e-20)
(-0.0592781 -0.0269887 1.89971e-20)
(-0.0841627 -0.156617 8.68805e-21)
(-0.122622 -0.374603 1.28548e-20)
(-0.14266 -0.502652 -2.27992e-20)
(-0.113472 -0.512413 4.67881e-21)
(-0.00486733 -0.36398 -9.9949e-21)
(0.0962346 -0.198503 -1.55741e-21)
(0.136779 -0.117759 4.01215e-21)
(0.148331 -0.0609262 -2.04577e-21)
(0.141976 -0.00619663 -3.88162e-21)
(0.114521 0.0397647 -8.02279e-21)
(0.0727597 0.063383 2.70735e-21)
(0.0331639 0.0663546 -2.21772e-21)
(0.00561131 0.0559796 1.65198e-22)
(-0.00893472 0.0411378 1.08147e-21)
(-0.015433 0.02713 -5.90371e-22)
(-0.0168765 0.0157711 -1.38977e-21)
(-0.0152842 0.00766685 4.05225e-24)
(-0.0124223 0.00238913 -1.34898e-21)
(-0.00936603 -0.000656478 -7.31261e-23)
(-0.00665596 -0.00216209 6.6444e-22)
(-0.00448355 -0.00264804 0)
(-0.00286763 -0.00251755 1.77134e-21)
(-0.00172709 -0.00206545 5.94398e-24)
(-0.000940896 -0.00144064 -1.00575e-21)
(-0.000384344 -0.000830585 1.83043e-21)
(3.83811e-05 -0.000218308 -1.66945e-25)
(0.0170833 0.271111 -2.26536e-21)
(0.00318848 0.484692 -2.73026e-20)
(-0.00304686 0.495432 9.33332e-21)
(-0.0043902 0.466972 -2.20401e-20)
(-0.00605996 0.36309 8.8449e-20)
(-0.024943 0.161252 2.6946e-21)
(-0.0512446 -0.0263504 -3.6581e-20)
(-0.0676776 -0.135879 -1.86653e-20)
(-0.0930536 -0.369781 2.41887e-20)
(-0.115668 -0.524994 7.96122e-21)
(-0.11131 -0.565233 8.77864e-26)
(-0.0366691 -0.454977 -5.21339e-21)
(0.0785953 -0.271379 8.75322e-21)
(0.140826 -0.153477 3.36374e-20)
(0.163525 -0.086454 2.23366e-21)
(0.16828 -0.0214204 1.14464e-20)
(0.150916 0.0361511 3.7583e-21)
(0.110271 0.075639 -5.34862e-22)
(0.0569529 0.0875818 2.28582e-25)
(0.0125007 0.0773562 5.37515e-22)
(-0.012361 0.0575081 -6.54108e-23)
(-0.0213704 0.0375318 3.33125e-23)
(-0.0229281 0.0216528 2.00773e-21)
(-0.0207031 0.0102924 -2.5378e-21)
(-0.0166952 0.0030627 1.52074e-21)
(-0.0124339 -0.0010971 -2.93079e-36)
(-0.0086692 -0.00308843 -1.64468e-22)
(-0.00568573 -0.0037251 -1.1822e-22)
(-0.00348138 -0.00355859 1.88e-21)
(-0.0019559 -0.00296518 3.33889e-27)
(-0.000947602 -0.00221829 -1.7725e-21)
(-0.000300994 -0.00142836 -6.05857e-22)
(0.000140713 -0.000761621 4.21804e-23)
(0.00045693 -0.000180183 -1.82053e-21)
(0.00987149 0.291535 2.81989e-21)
(-0.0127338 0.496979 3.04515e-21)
(-0.0133828 0.503139 -7.13905e-21)
(-0.0116691 0.470697 -1.0323e-19)
(-0.00672332 0.36533 -2.03824e-21)
(-0.013379 0.172925 -6.67457e-20)
(-0.0398636 -0.0224434 -8.38635e-21)
(-0.0516336 -0.12543 7.30685e-20)
(-0.0687581 -0.365844 1.99354e-20)
(-0.0835303 -0.526103 -1.64829e-20)
(-0.0984579 -0.611092 1.04362e-20)
(-0.0523779 -0.542383 5.30071e-20)
(0.0506254 -0.349145 5.46014e-22)
(0.134415 -0.196285 -5.58528e-21)
(0.168314 -0.110469 -5.70746e-20)
(0.18283 -0.0359833 -2.32545e-20)
(0.175452 0.0363686 9.00871e-22)
(0.14512 0.087726 8.08271e-22)
(0.0925845 0.111252 -3.79533e-34)
(0.0317447 0.105743 -9.72789e-21)
(-0.0120839 0.0800912 -4.49791e-22)
(-0.0299282 0.0523152 -2.93849e-21)
(-0.0318675 0.0298867 -3.75416e-22)
(-0.0282942 0.0139976 -2.02351e-21)
(-0.0226244 0.00388668 -1.77174e-21)
(-0.0166443 -0.00173392 1.22372e-22)
(-0.0114308 -0.00440977 -1.77663e-21)
(-0.00731771 -0.00520366 1.23857e-21)
(-0.00432447 -0.00494743 2.147e-21)
(-0.00226954 -0.00416347 -3.90158e-27)
(-0.000954588 -0.00316746 -1.84521e-21)
(-0.000155643 -0.00219222 1.77318e-21)
(0.000303523 -0.00130316 -3.2835e-35)
(0.000597136 -0.000633493 -1.83384e-21)
(0.000783633 -0.000127917 0)
(-0.0105362 0.326362 -1.0324e-21)
(-0.0309639 0.511594 5.52002e-20)
(-0.0244182 0.507535 3.32204e-20)
(-0.0164782 0.467499 -3.19662e-21)
(-0.00443474 0.358686 -8.41603e-20)
(-0.000922208 0.174757 4.65311e-20)
(-0.0224209 -0.0165843 4.4261e-20)
(-0.0333619 -0.127651 1.03444e-19)
(-0.0434443 -0.366454 8.84852e-20)
(-0.0589921 -0.523656 -8.77615e-20)
(-0.0761915 -0.627315 -3.7939e-20)
(-0.0582646 -0.604538 -2.6516e-22)
(0.0242528 -0.442086 5.99438e-22)
(0.118314 -0.244806 6.45364e-21)
(0.164086 -0.135405 7.89971e-21)
(0.185528 -0.0475369 2.11564e-20)
(0.187823 0.0403578 1.73265e-20)
(0.163406 0.109495 -3.2553e-22)
(0.121353 0.143892 -4.81773e-21)
(0.057854 0.141967 2.79638e-21)
(-0.0022156 0.112473 6.45068e-21)
(-0.0374134 0.072924 -2.89619e-21)
(-0.0446636 0.0411847 -3.60307e-21)
(-0.0391459 0.0190673 1.03921e-23)
(-0.0309122 0.00502747 1.30879e-23)
(-0.0224697 -0.00275306 1.60427e-22)
(-0.0151847 -0.00625126 -1.54316e-22)
(-0.00954316 -0.00725768 -5.2122e-23)
(-0.00545144 -0.00683715 1.37655e-22)
(-0.00269593 -0.00574241 3.82408e-22)
(-0.000950978 -0.00442412 -1.90026e-21)
(5.49811e-05 -0.00311502 1.84728e-21)
(0.000586609 -0.0019932 -8.26619e-23)
(0.000825463 -0.00107689 6.19076e-22)
(0.000949962 -0.000457256 -1.78454e-23)
(0.00099388 -6.56492e-05 2.01199e-22)
(-0.0388916 0.365044 -2.15843e-21)
(-0.0608741 0.519494 -9.02187e-21)
(-0.0305852 0.504951 4.40597e-21)
(-0.0156977 0.456558 8.71758e-20)
(0.00348867 0.343202 -1.36829e-19)
(0.0109892 0.168902 -3.31069e-20)
(-0.00195965 -0.00958259 8.07193e-20)
(-0.0137421 -0.137873 -1.25241e-20)
(-0.0190781 -0.368097 -8.08295e-20)
(-0.0370932 -0.524333 -4.11665e-21)
(-0.0547445 -0.62627 2.64903e-20)
(-0.0581542 -0.650972 9.61615e-21)
(0.00589124 -0.50794 -4.4963e-21)
(0.0940575 -0.309718 -4.52597e-20)
(0.1536 -0.158677 -4.87816e-20)
(0.179482 -0.0594663 -3.10252e-22)
(0.189838 0.0464957 1.84155e-20)
(0.172634 0.136196 2.49903e-22)
(0.133417 0.186855 1.63791e-20)
(0.0780828 0.196912 -1.21471e-20)
(0.00910746 0.159115 5.49477e-22)
(-0.0402142 0.104759 8.86775e-21)
(-0.0599424 0.0569676 6.90919e-21)
(-0.0546526 0.0256116 2.37171e-21)
(-0.0424029 0.00637672 1.68165e-22)
(-0.0305521 -0.00421565 -1.64591e-21)
(-0.0203404 -0.00893749 -1.02994e-21)
(-0.0125215 -0.0100846 1.47232e-21)
(-0.00697578 -0.00941903 3.16963e-21)
(-0.00324456 -0.00787679 1.17749e-21)
(-0.000939108 -0.00606252 -1.97248e-21)
(0.000367687 -0.00433024 1.88381e-21)
(0.000994231 -0.00281794 1.68241e-27)
(0.00122173 -0.00164 -1.88602e-21)
(0.00122485 -0.000768864 -2.89902e-35)
(0.00117316 -0.00024741 2.37342e-22)
(0.00107235 1.43174e-06 -8.4707e-29)
(-0.0999675 0.396299 -2.43468e-19)
(-0.069809 0.506963 -3.92638e-25)
(-0.0286199 0.48367 -1.32787e-20)
(-0.00548048 0.432845 1.0682e-23)
(0.0186454 0.319395 4.05264e-20)
(0.0290645 0.15788 -8.29831e-20)
(0.0165461 -0.0157254 -2.01333e-20)
(0.00577009 -0.154663 9.58414e-20)
(0.00150197 -0.368865 -1.48566e-19)
(-0.0187443 -0.521865 1.68152e-20)
(-0.0357157 -0.628248 5.38474e-20)
(-0.0495373 -0.664472 1.71124e-21)
(-0.0123325 -0.572805 2.58277e-20)
(0.0709897 -0.363281 4.32134e-22)
(0.135419 -0.189011 2.32153e-20)
(0.16676 -0.0676803 3.10211e-21)
(0.183458 0.0494254 -1.97413e-20)
(0.176581 0.163035 4.36563e-21)
(0.141901 0.233218 -2.29756e-20)
(0.0813023 0.253313 -6.40057e-21)
(0.0179342 0.227114 -1.04079e-21)
(-0.0431002 0.153487 -1.38979e-20)
(-0.0756375 0.0837803 -3.30488e-21)
(-0.0762692 0.0343925 1.15068e-21)
(-0.0585857 0.00760316 -5.0993e-22)
(-0.0414434 -0.00660736 -5.25987e-35)
(-0.0273999 -0.0127044 4.46698e-22)
(-0.0165681 -0.0140945 -8.03983e-23)
(-0.0089622 -0.0129409 2.08985e-22)
(-0.00397474 -0.0107525 -2.0441e-21)
(-0.000887184 -0.00826597 3.16858e-22)
(0.00080494 -0.00589913 1.93469e-21)
(0.00158506 -0.0038981 -1.3328e-27)
(0.00179129 -0.00230399 -1.82322e-21)
(0.00170153 -0.00116254 3.44721e-23)
(0.00147195 -0.000404245 -6.37205e-22)
(0.00125097 -2.07909e-05 8.81844e-24)
(0.00101451 6.72067e-05 -2.14652e-22)
(-0.124177 0.387735 -3.71602e-21)
(-0.0621879 0.471307 2.1215e-21)
(-0.00755834 0.438306 -1.2673e-21)
(0.0135437 0.391646 -2.15951e-20)
(0.0390313 0.287698 7.09451e-21)
(0.0499468 0.140056 -4.07695e-20)
(0.0393815 -0.0229938 -4.74658e-20)
(0.0280817 -0.169928 -8.66792e-20)
(0.018789 -0.366182 -4.0609e-20)
(-0.00376311 -0.518652 -2.47207e-20)
(-0.0211588 -0.625781 -2.13448e-20)
(-0.0329724 -0.671769 -1.38121e-20)
(-0.0257448 -0.615011 1.21195e-20)
(0.0485991 -0.418517 -2.67624e-21)
(0.11287 -0.215871 -1.69281e-20)
(0.149388 -0.0766049 5.03231e-20)
(0.168552 0.0547803 2.65587e-20)
(0.172462 0.183909 -5.9817e-22)
(0.145867 0.279228 2.67504e-21)
(0.0907931 0.307576 5.84306e-21)
(0.0168688 0.28982 6.91708e-35)
(-0.0438068 0.213582 1.53912e-20)
(-0.0899484 0.126314 3.16499e-21)
(-0.103597 0.0514731 -2.20391e-21)
(-0.0832607 0.00812958 -3.57307e-21)
(-0.0561967 -0.0104402 2.98933e-21)
(-0.0366899 -0.0183574 -4.7749e-21)
(-0.0219824 -0.0196272 6.11075e-22)
(-0.0116235 -0.0178348 3.02677e-21)
(-0.00486178 -0.0146491 -4.04294e-23)
(-0.000799777 -0.0111969 7.1078e-22)
(0.00143292 -0.00800069 1.50626e-22)
(0.00240433 -0.00527888 2.73195e-23)
(0.00260958 -0.00316772 -1.80829e-21)
(0.00238633 -0.00161618 0)
(0.00199051 -0.000599468 1.16932e-22)
(0.00154899 -1.22839e-05 1.74849e-21)
(0.00117906 0.000204497 -2.48617e-22)
(0.000827209 0.00012545 -2.24144e-22)
(-0.0981332 0.340782 -6.23312e-22)
(-0.0242911 0.381174 -6.15445e-21)
(0.0240036 0.366438 3.06713e-20)
(0.0378842 0.338156 -1.99914e-25)
(0.0640796 0.248115 -2.03856e-20)
(0.0710638 0.117738 -2.41976e-20)
(0.0617248 -0.0303062 4.06403e-20)
(0.0470921 -0.182455 -1.1574e-19)
(0.0341113 -0.364864 3.81895e-20)
(0.0108061 -0.515267 -1.8538e-20)
(-0.00746712 -0.624126 2.71048e-23)
(-0.0212044 -0.673392 -2.83426e-21)
(-0.0257465 -0.634537 -1.10656e-20)
(0.024038 -0.471014 5.58472e-20)
(0.0930967 -0.247469 1.84035e-21)
(0.126571 -0.0806145 1.21431e-20)
(0.15022 0.0559311 -4.67271e-20)
(0.159575 0.206924 -1.67818e-20)
(0.143489 0.319261 3.47073e-21)
(0.0980037 0.367466 -9.96333e-20)
(0.0252253 0.348673 3.69471e-20)
(-0.00707309 0.28132 -2.43582e-21)
(-0.0998919 0.176138 -8.73273e-21)
(-0.12945 0.0822986 -4.62648e-21)
(-0.118989 0.0114471 1.90931e-22)
(-0.07952 -0.0176987 -5.32407e-22)
(-0.0484642 -0.0263256 2.01627e-22)
(-0.0289916 -0.02771 -5.20936e-35)
(-0.0150238 -0.0244906 3.70093e-21)
(-0.00602077 -0.0199597 -2.29788e-22)
(-0.000579979 -0.0151511 -2.45701e-21)
(0.0023002 -0.0107628 3.06299e-21)