/*--------------------------------*- C++ -*----------------------------------*\
| =========                 |                                                 |
| \\      /  F ield         | OpenFOAM: The Open Source CFD Toolbox           |
|  \\    /   O peration     | Version:  2506                                  |
|   \\  /    A nd           | Website:  www.openfoam.com                      |
|    \\/     M anipulation  |                                                 |
\*---------------------------------------------------------------------------*/
FoamFile
{
    version     2.0;
    format      ascii;
    arch        "LSB;label=32;scalar=64";
    class       volScalarField;
    location    "139.9817045682689";
    object      p;
}
// * * * * * * * * * * * * * * * * * * * * * * * * * * * * * * * * * * * * * //

dimensions      [0 2 -2 0 0 0 0];

internalField   nonuniform List<scalar> 
9700
(
0.00164112
0.00166133
0.00391642
0.00167885
0.00395941
0.00696516
0.00172486
0.00400001
0.0070361
0.00974461
0.00177507
0.00409381
0.00711809
0.00983821
0.0125303
0.00185194
0.00420127
0.00728436
0.00995597
0.012644
0.0152113
0.00194378
0.0043565
0.0074875
0.0101811
0.0127948
0.0153416
0.0178066
0.00206584
0.00454149
0.00777218
0.0104639
0.0130734
0.0155204
0.0179499
0.0202969
0.0022164
0.0047772
0.00812084
0.0108535
0.0134291
0.0158435
0.0181513
0.0204496
0.0226808
0.00240906
0.00505913
0.00856373
0.011335
0.013914
0.0162599
0.0185097
0.0206679
0.0228392
0.024953
0.00265258
0.00540188
0.00910284
0.0119427
0.0145159
0.0168233
0.0189743
0.0210519
0.0230686
0.0251137
0.0271125
0.00296982
0.00580878
0.00976388
0.012684
0.0152723
0.0175241
0.0195994
0.0215514
0.0234685
0.0253486
0.0272723
0.0291608
0.0033847
0.00629023
0.0105618
0.0135896
0.0161954
0.0184016
0.0203774
0.0222204
0.0239897
0.0257551
0.0275074
0.0293169
0.0311014
0.0038877
0.00685729
0.0115212
0.0146809
0.01732
0.0194717
0.0213482
0.0230526
0.0246847
0.026285
0.0279118
0.0295476
0.0312515
0.0329381
0.0043698
0.00753876
0.0126626
0.0159878
0.0186737
0.020772
0.0225309
0.0240877
0.0255482
0.0269889
0.0284387
0.0299425
0.0314739
0.0330806
0.0346761
0.00460771
0.0083678
0.013998
0.0175363
0.0202909
0.0223348
0.023964
0.0253466
0.0266184
0.0278615
0.0291356
0.0304558
0.0318529
0.0332917
0.0348099
0.0363227
0.00394585
0.00922204
0.0154741
0.0193507
0.0221994
0.0241985
0.0256842
0.026868
0.0279174
0.0289389
0.0299968
0.0311317
0.0323439
0.03365
0.0350076
0.0364472
0.0378837
0.00256857
0.00938513
0.0168058
0.0213942
0.0244189
0.0263953
0.0277323
0.0286917
0.0294824
0.0302427
0.0310553
0.0319632
0.0329873
0.034112
0.0353422
0.0366304
0.0379991
0.0393653
-0.000431777
0.00924277
0.0171577
0.0234293
0.0269094
0.0289496
0.0301457
0.0308599
0.0313552
0.0318077
0.0323309
0.0329796
0.0337738
0.034714
0.0357708
0.0369397
0.0381677
0.039472
0.0407743
-0.00557948
0.00585983
0.0155143
0.0248005
0.0294957
0.031834
0.0329539
0.0334158
0.0335772
0.0336758
0.0338548
0.0341975
0.0347288
0.035444
0.0363256
0.0373328
0.0384517
0.0396267
0.0408733
0.0421155
-0.0116437
-0.00145329
0.0103415
0.024346
0.0317003
0.0349412
0.0361417
0.0363949
0.0361971
0.0358859
0.0356669
0.0356432
0.035864
0.0363229
0.0369918
0.037838
0.0388096
0.0398871
0.0410154
0.0422081
0.043393
-0.017478
-0.0110394
0.00245998
0.0204747
0.03257
0.0379652
0.0396548
0.0397964
0.0392537
0.0384901
0.0378014
0.0373521
0.0371999
0.0373562
0.0377852
0.0384373
0.0392659
0.0402119
0.0412548
0.0423393
0.0434804
0.0446105
-0.0210731
-0.0211612
-0.00902185
0.0129755
0.0307511
0.0402559
0.043316
0.0435974
0.0427612
0.0415263
0.0403108
0.0393516
0.0387644
0.0385579
0.0387044
0.0391416
0.0397995
0.0406229
0.0415505
0.0425612
0.0436029
0.0446941
0.045771
-0.0223735
-0.029454
-0.0219909
0.00175854
0.0253373
0.0407354
0.0467622
0.0476938
0.0467123
0.0450233
0.0432275
0.0416906
0.0405769
0.0399454
0.0397559
0.039942
0.0404169
0.0410962
0.0419221
0.0428329
0.0438112
0.0448101
0.0458519
0.0468758
-0.0216094
-0.0349571
-0.0342379
-0.0115853
0.0162006
0.0383238
0.0492659
0.0518931
0.0510426
0.0489775
0.0465901
0.0443919
0.0426759
0.0415283
0.0409447
0.0408374
0.0411018
0.0416342
0.0423438
0.0431727
0.0440646
0.0450085
0.0459632
0.0469549
0.0479259
-0.0198336
-0.0377113
-0.0438626
-0.0249059
0.0043105
0.0323657
0.0497938
0.0558248
0.0556074
0.0533473
0.0503904
0.0474952
0.0450723
0.0433283
0.0422685
0.0418186
0.0418455
0.0422146
0.0428147
0.0435536
0.0443809
0.0452491
0.0461551
0.0470631
0.0480038
0.0489229
-0.017128
-0.0356056
-0.0502169
-0.0362767
-0.00840172
0.0231896
0.0473897
0.0586356
0.0602906
0.0579696
0.0545982
0.0509823
0.0477952
0.0453419
0.0437261
0.0428696
0.0426246
0.0428214
0.0433079
0.0439729
0.044733
0.0455501
0.0463879
0.0472511
0.04811
0.0489997
0.0498673
-0.0136129
-0.0314249
-0.0480249
-0.0444522
-0.0198596
0.0119011
0.0416039
0.0593262
0.0643691
0.0628403
0.0590323
0.0548221
0.0508114
0.0475726
0.0452963
0.0439626
0.0434081
0.0434184
0.043802
0.0444013
0.0451178
0.0458853
0.0466809
0.0474801
0.0482958
0.0491043
0.0499428
0.05076
-0.00982004
-0.0257055
-0.0434149
-0.0451843
-0.02911
-0.000731449
0.0327552
0.0568541
0.0672468
0.067229
0.063638
0.0588368
0.0540732
0.0499677
0.0469401
0.0450534
0.0441413
0.0439603
0.0442504
0.0448136
0.0455056
0.0462521
0.0470095
0.0477707
0.0485235
0.0492886
0.0500459
0.0508338
0.0516028
-0.00591883
-0.0187318
-0.0369341
-0.0432771
-0.0333612
-0.0113549
0.0212212
0.0509667
0.0672973
0.0713189
0.0676126
0.0628463
0.0573955
0.0524372
0.0485766
0.0460455
0.0447493
0.0443663
0.0445966
0.045158
0.0458702
0.0466232
0.0473729
0.0481006
0.0488152
0.049516
0.0502283
0.0509349
0.0516741
0.0523977
-0.00212542
-0.0109559
-0.0286891
-0.0387681
-0.034709
-0.0173313
0.00934851
0.0412462
0.0636469
0.0725915
0.0717724
0.0662312
0.0604893
0.054765
0.0500402
0.0468174
0.0450717
0.0445261
0.0447361
0.0453704
0.04616
0.0469735
0.0477478
0.0484717
0.0491513
0.0498101
0.050455
0.0511142
0.0517723
0.0524657
0.0531471
0.00148981
-0.00301356
-0.0193249
-0.0320866
-0.0335503
-0.0210938
-0.000883615
0.0303395
0.0551205
0.0699644
0.0728036
0.0689885
0.0628321
0.0565689
0.0510422
0.0470778
0.0449387
0.0442199
0.044527
0.0453321
0.0463078
0.0472563
0.0481127
0.0488657
0.0495366
0.0501541
0.0507506
0.0513385
0.0519467
0.0525599
0.053211
0.0538537
0.00483861
0.0046688
-0.0095242
-0.0238073
-0.0303462
-0.0231554
-0.00817305
0.0175708
0.0437551
0.0623715
0.070397
0.0690991
0.0639723
0.0573351
0.0510655
0.0463844
0.0438596
0.0432068
0.0437099
0.0448837
0.0461945
0.047407
0.0484297
0.0492667
0.0499588
0.0505555
0.051101
0.0516329
0.052166
0.0527271
0.0532998
0.0539128
0.0545213
0.00785771
0.0116696
8.54915e-05
-0.0147198
-0.0252975
-0.0237901
-0.0136996
0.00666424
0.0283912
0.0504967
0.0629117
0.066202
0.0626064
0.056521
0.0496276
0.0440354
0.0411782
0.0407235
0.0419124
0.0437481
0.045656
0.0473164
0.0486415
0.0496477
0.0504075
0.051008
0.0515161
0.0519857
0.052455
0.052938
0.0534575
0.0539951
0.054575
0.0551535
0.0106659
0.0176528
0.00895263
-0.00556128
-0.018994
-0.0230326
-0.0177315
-0.00411496
0.0152905
0.0333683
0.0503598
0.058048
0.0583466
0.0532441
0.0462303
0.0396846
0.0359811
0.0359761
0.0380856
0.0414213
0.0444209
0.0468266
0.0486578
0.0499626
0.0508684
0.0515065
0.0519949
0.0524084
0.0528043
0.0532169
0.0536566
0.054141
0.0546497
0.0552015
0.0557543
0.0134732
0.0223337
0.0167681
0.00307704
-0.0122782
-0.0212644
-0.0213005
-0.0143808
0.00126
0.0186101
0.0324787
0.0449051
0.0492603
0.0471157
0.040459
0.0330051
0.0280755
0.0277242
0.0312069
0.0367044
0.0419412
0.0456846
0.0483371
0.0501463
0.0513071
0.052049
0.0525366
0.0529046
0.053226
0.0535554
0.05392
0.0543249
0.054782
0.0552679
0.0557965
0.0563277
0.0157413
0.0258692
0.0228399
0.01074
-0.00567585
-0.0189688
-0.0246486
-0.0242082
-0.0129897
0.00214931
0.0169726
0.0271014
0.0356979
0.0370309
0.032135
0.0240924
0.017391
0.0160253
0.0194372
0.0278928
0.0369964
0.0433452
0.0474607
0.0500819
0.0516859
0.052611
0.0531501
0.053476
0.0537271
0.0539661
0.0542403
0.0545681
0.0549479
0.0553854
0.0558542
0.0563645
0.0568779
0.0179282
0.0267562
0.0282132
0.0164651
0.000128642
-0.016209
-0.0273587
-0.0330589
-0.0271321
-0.0150663
-0.000822312
0.0119534
0.0187172
0.0232801
0.0210467
0.0131133
0.0046994
0.000831898
0.00433474
0.0129746
0.0275693
0.038525
0.0455107
0.049601
0.0519122
0.0531811
0.0538174
0.054141
0.0543105
0.0544575
0.0546295
0.054863
0.0551668
0.0555314
0.0559565
0.0564137
0.0569097
0.0574082
0.0189945
0.0253759
0.0310594
0.021963
0.00434665
-0.0134402
-0.0294512
-0.040601
-0.0405402
-0.0326301
-0.0196944
-0.00612854
0.00486601
0.00802845
0.00740211
0.000882308
-0.00943949
-0.0161069
-0.0147032
-0.00490999
0.0135699
0.0293441
0.041244
0.0482625
0.0518712
0.0536845
0.0545513
0.0548836
0.0550013
0.0550328
0.0550961
0.0552208
0.0554302
0.0557229
0.0560816
0.0565011
0.056951
0.0574358
0.0579213
0.0174819
0.022055
0.0306854
0.0251261
0.00899747
-0.0113666
-0.0309194
-0.0468644
-0.0527694
-0.0497103
-0.0392766
-0.0251591
-0.0125028
-0.00395547
-0.00531232
-0.0125093
-0.0231437
-0.0337583
-0.0356693
-0.0265636
-0.00684205
0.0158771
0.0328645
0.0450608
0.051206
0.0540552
0.0552842
0.0557386
0.0557826
0.0557209
0.0556431
0.0556484
0.055748
0.0559504
0.0562443
0.0566056
0.0570248
0.0574703
0.0579458
0.0584198
0.0133567
0.0193735
0.0272006
0.0256187
0.0126958
-0.00875707
-0.0316823
-0.0516995
-0.0634573
-0.0655218
-0.0584434
-0.0450504
-0.0303446
-0.0190226
-0.014929
-0.0221681
-0.0365736
-0.049349
-0.0568929
-0.0505619
-0.0318875
-0.00491029
0.0188802
0.0384666
0.0491851
0.0539963
0.0559955
0.0566321
0.0567079
0.0565024
0.0562993
0.0561482
0.0561243
0.0562218
0.0564335
0.0567398
0.0571103
0.0575326
0.0579751
0.0584424
0.0589049
0.008754
0.0156987
0.0239197
0.0239506
0.0146722
-0.00517299
-0.0313757
-0.0547499
-0.0721741
-0.0793738
-0.076237
-0.0644926
-0.0486614
-0.0347149
-0.0265815
-0.0287932
-0.0433005
-0.0633189
-0.0746838
-0.0751768
-0.0580254
-0.0304334
-1.17703e-05
0.0270488
0.0445381
0.0530265
0.0564193
0.0575937
0.0576854
0.0574431
0.0570443
0.0567454
0.0565604
0.0565375
0.056655
0.0568908
0.0572181
0.0576018
0.0580285
0.0584682
0.0589269
0.0593769
0.00572523
0.0120535
0.0200957
0.021696
0.0154431
-0.00187499
-0.0277804
-0.0565731
-0.0776472
-0.090576
-0.0916009
-0.0823743
-0.066548
-0.0500182
-0.0388409
-0.0356969
-0.0476082
-0.0674261
-0.0895247
-0.0949332
-0.0851616
-0.0573984
-0.0227041
0.010687
0.0359859
0.0501619
0.0562658
0.0583467
0.0588095
0.0584317
0.0579459
0.0574202
0.0570749
0.0568967
0.0569044
0.0570619
0.0573334
0.0576871
0.0580854
0.0585162
0.0589512
0.0593996
0.0598354
0.00380814
0.00939801
0.0163679
0.0191439
0.0154974
0.0014689
-0.0228648
-0.0526443
-0.081224
-0.097642
-0.103578
-0.0974162
-0.0826139
-0.0645375
-0.0498845
-0.0424262
-0.0507017
-0.0696427
-0.0917534
-0.111
-0.105893
-0.0846871
-0.0486076
-0.0096875
0.0229614
0.0442866
0.0548164
0.0587266
0.0597262
0.059625
0.0588842
0.0582311
0.0576489
0.0573097
0.0571785
0.0572437
0.0574571
0.0577717
0.0581534
0.0585652
0.0589973
0.0594243
0.0598601
0.0602795
0.00268891
0.007388
0.0131996
0.0165094
0.0151994
0.00466214
-0.0162993
-0.045775
-0.0766906
-0.101804
-0.111366
-0.10846
-0.0955176
-0.0770367
-0.0597449
-0.048605
-0.0530695
-0.0687109
-0.0922699
-0.112953
-0.124005
-0.105889
-0.0743196
-0.0332431
0.00579178
0.0347031
0.0511961
0.0581872
0.0604315
0.0605549
0.0600369
0.0590694
0.0583244
0.0577581
0.0574777
0.05743
0.057575
0.0578545
0.0582146
0.0586226
0.0590434
0.059472
0.0598868
0.060307
0.0607071
0.0021051
0.00593887
0.0106901
0.0141442
0.0145285
0.00762254
-0.00924579
-0.0356774
-0.0674599
-0.0959397
-0.115083
-0.115122
-0.104248
-0.0862063
-0.0677046
-0.0540566
-0.0543175
-0.0663635
-0.0877062
-0.112329
-0.1277
-0.126506
-0.0956119
-0.0565872
-0.0144798
0.0211942
0.0446306
0.0561031
0.0603557
0.0615732
0.0609042
0.0600808
0.0590158
0.0582638
0.0577825
0.0576108
0.0576771
0.0579168
0.0582661
0.0586694
0.0590972
0.0595201
0.0599393
0.0603373
0.060738
0.0611159
0.00178273
0.00491801
0.00885399
0.0121324
0.0136906
0.00987081
-0.00223162
-0.0243779
-0.0536625
-0.0844664
-0.106398
-0.118034
-0.108028
-0.0914002
-0.0723428
-0.0581835
-0.053555
-0.0625739
-0.0810231
-0.105386
-0.126326
-0.13109
-0.117143
-0.0774696
-0.0353165
0.00444838
0.0344942
0.0517868
0.0590747
0.0616603
0.062063
0.060864
0.0598055
0.0587563
0.0580936
0.0577626
0.0577431
0.057945
0.0582859
0.0587017
0.0591396
0.0595775
0.059994
0.0603969
0.0607728
0.0611504
0.0615036
0.00158687
0.00421018
0.007577
0.0105655
0.012663
0.0114579
0.00368854
-0.0128442
-0.0382141
-0.0670122
-0.0934998
-0.106621
-0.109038
-0.0919268
-0.0733918
-0.0597937
-0.0512687
-0.0565996
-0.0723548
-0.096044
-0.118051
-0.130296
-0.121739
-0.0981969
-0.0555934
-0.0141612
0.021026
0.0443392
0.0561084
0.0605201
0.0621577
0.0617542
0.060407
0.0592668
0.0583472
0.0578649
0.0577437
0.0579088
0.0582564
0.058695
0.0591662
0.0596255
0.0600615
0.0604619
0.0608415
0.0611903
0.0615416
0.0618679
0.00146425
0.00372043
0.00671298
0.00943192
0.0116983
0.0120945
0.00831631
-0.00295197
-0.0224247
-0.047978
-0.0731891
-0.0923009
-0.0966268
-0.0903382
-0.0711089
-0.0579504
-0.0474754
-0.0483631
-0.0616604
-0.0836046
-0.107728
-0.123168
-0.123668
-0.104012
-0.0749394
-0.0339637
0.00441666
0.0335319
0.0503846
0.0581394
0.0609297
0.0617557
0.0609159
0.0595743
0.0585279
0.0578526
0.0576366
0.0577724
0.0581397
0.0586303
0.0591522
0.05966
0.060124
0.0605447
0.0609192
0.0612687
0.0615866
0.0619089
0.0622066
0.00138354
0.0033918
0.00613127
0.00864029
0.0109354
0.0121798
0.0110025
0.00487611
-0.0093737
-0.028992
-0.0514971
-0.0710592
-0.0811648
-0.0777664
-0.066617
-0.0521723
-0.0407506
-0.0389844
-0.0493533
-0.0690548
-0.0929772
-0.113065
-0.119615
-0.108666
-0.0836303
-0.0522323
-0.0147787
0.0186695
0.0413012
0.0532087
0.0586094
0.0605963
0.0606793
0.0596741
0.058453
0.0576655
0.0573492
0.0574723
0.0578935
0.0584634
0.0590775
0.0596581
0.0601792
0.0606292
0.0610208
0.0613603
0.0616745
0.0619585
0.06225
0.0625183
0.00133112
0.00316568
0.00574406
0.00809758
0.0103744
0.0120356
0.0123823
0.00978189
0.00118599
-0.0134221
-0.0302776
-0.0481859
-0.060497
-0.0621807
-0.0539921
-0.0425889
-0.0319157
-0.0282087
-0.0360647
-0.0530728
-0.0760872
-0.0980165
-0.110876
-0.107965
-0.0900865
-0.0663028
-0.0315568
-0.000276461
0.0278355
0.0448271
0.053823
0.0580046
0.0594024
0.0590419
0.0580218
0.0571314
0.0567753
0.0569221
0.0574353
0.0581469
0.0588965
0.0596001
0.0602073
0.0607154
0.0611322
0.0614822
0.0617797
0.0620548
0.0623033
0.0625632
0.0628023
0.00129475
0.00301328
0.00547893
0.00773377
0.00997624
0.0118456
0.012987
0.0125487
0.0089122
5.30938e-05
-0.010906
-0.0263565
-0.0383303
-0.0431735
-0.0388181
-0.0295415
-0.0191895
-0.0168913
-0.0220258
-0.0366604
-0.0576846
-0.0806
-0.0974828
-0.102368
-0.0926908
-0.0758595
-0.0494296
-0.0162437
0.00869742
0.0323342
0.0453491
0.0530055
0.0564554
0.0573113
0.0567996
0.0560584
0.0557287
0.0559698
0.0566609
0.0575849
0.0585587
0.0594432
0.0601907
0.0607877
0.061256
0.0616225
0.0619214
0.0621721
0.0624061
0.062619
0.0628476
0.063058
0.00127161
0.00290498
0.00530065
0.00748053
0.00970114
0.0116823
0.0132357
0.0139568
0.0130624
0.00939931
0.0025153
-0.00676525
-0.0178373
-0.0232177
-0.0221118
-0.014818
-0.0067818
-0.000736837
-0.00853122
-0.0201789
-0.0394469
-0.0617575
-0.0811915
-0.092181
-0.0909966
-0.0808386
-0.0611906
-0.0382254
-0.00776865
0.0129101
0.0332667
0.0441907
0.0510569
0.0538333
0.0543382
0.0540356
0.053919
0.054393
0.0553738
0.0566567
0.0579629
0.0591371
0.0600934
0.0608328
0.0613821
0.0617867
0.0620898
0.0623312
0.062533
0.062726
0.0629046
0.0631028
0.063286
0.00125179
0.00283218
0.00517322
0.00730772
0.0094993
0.0115511
0.0133486
0.0146556
0.0151912
0.0143925
0.0115541
0.0061722
-0.00138351
-0.00528648
-0.00541669
-0.000544314
0.00704695
0.0114045
0.0108811
-0.00528597
-0.0216006
-0.0431672
-0.0636498
-0.0787331
-0.084807
-0.0808507
-0.0703866
-0.0515809
-0.0338951
-0.00503349
0.0135242
0.0318508
0.041898
0.0478183
0.0499958
0.0505148
0.0509003
0.051796
0.0532949
0.0551268
0.0569795
0.0585842
0.0598689
0.0608238
0.0615018
0.0619699
0.0622929
0.0625241
0.0627055
0.0628591
0.0630132
0.0631597
0.0633295
0.0634872
0.00124199
0.00277551
0.00508594
0.00718061
0.00935463
0.0114348
0.0133841
0.0150422
0.0162667
0.0169128
0.0166736
0.0148713
0.0116661
0.00887781
0.00893054
0.0124288
0.0188122
0.0244729
0.0235212
0.0159547
-0.00614989
-0.0249354
-0.0458727
-0.0636571
-0.0754719
-0.0774441
-0.0750889
-0.0640078
-0.0491818
-0.0332032
-0.00628813
0.0121345
0.0290496
0.0381665
0.0429278
0.0448337
0.0459555
0.0476485
0.0499197
0.0526522
0.0553488
0.0576523
0.0594322
0.060722
0.0615997
0.0621689
0.0625309
0.0627609
0.0629172
0.06304
0.0631487
0.0632672
0.0633848
0.0635286
0.063663
0.00122736
0.00274183
0.00501648
0.00709054
0.00924057
0.0113384
0.0133654
0.0152379
0.0168643
0.0181893
0.0192007
0.0197084
0.0194107
0.0190534
0.0197408
0.0227996
0.0281117
0.0339112
0.0361495
0.0296824
0.0155931
-0.00959663
-0.0281501
-0.0475312
-0.0640675
-0.0720748
-0.0770587
-0.0741102
-0.0647582
-0.0500905
-0.0342785
-0.00939213
0.00977641
0.0247264
0.0323144
0.03606
0.0383545
0.0409884
0.0445564
0.0486196
0.0526897
0.0560842
0.0586576
0.0604622
0.0616469
0.0623796
0.0628053
0.0630461
0.0631797
0.0632636
0.0633326
0.0634014
0.0634889
0.0635814
0.0637015
0.0638153
0.00122628
0.00270712
0.00497283
0.00701653
0.00915433
0.0112491
0.013322
0.0153091
0.017177
0.0188833
0.0204657
0.0219895
0.0234152
0.0248496
0.0267644
0.0298791
0.0346972
0.0400983
0.04377
0.0421024
0.030677
0.0118921
-0.0139431
-0.0315704
-0.0509555
-0.0652457
-0.0769311
-0.0822259
-0.0783543
-0.0684424
-0.05242
-0.0375517
-0.0122402
0.00587992
0.0178453
0.0237393
0.0270719
0.031037
0.0360146
0.0420807
0.048335
0.0534907
0.0573084
0.0599346
0.0616025
0.0625835
0.0631226
0.0633847
0.0635004
0.0635418
0.0635603
0.0635829
0.0636185
0.0636802
0.0637513
0.0638502
0.0639448
0.00121265
0.00269656
0.00492787
0.00696696
0.00907864
0.0111731
0.0132587
0.0153113
0.0173073
0.0192396
0.0211264
0.0230668
0.0251969
0.0276039
0.030436
0.0339556
0.0384908
0.0436201
0.0478688
0.0486415
0.0433044
0.0280608
0.00624828
-0.0193745
-0.0380418
-0.0571046
-0.0742299
-0.0869765
-0.0900588
-0.085251
-0.0731406
-0.0547274
-0.0392043
-0.0158759
-0.000979656
0.00747091
0.0121134
0.0164594
0.0233974
0.0314895
0.0411226
0.0492251
0.0550122
0.0589417
0.0613785
0.062765
0.0634725
0.0637917
0.0638866
0.0638838
0.0638434
0.0638069
0.0637925
0.0638023
0.0638435
0.0638963
0.0639776
0.0640538
0.0012178
0.00267099
0.0049112
0.00691629
0.00902437
0.0110992
0.0131922
0.0152676
0.017333
0.0193806
0.0214403
0.0235774
0.0259324
0.0286762
0.0318962
0.0356799
0.0401053
0.0449898
0.0494081
0.0518659
0.0496347
0.0410442
0.0229543
-0.00152047
-0.0278449
-0.0485778
-0.0701381
-0.0884258
-0.0989738
-0.100701
-0.0923502
-0.0764016
-0.0553131
-0.0389926
-0.0227601
-0.012048
-0.00693449
-0.00221978
0.00491908
0.0149141
0.0290318
0.0420086
0.0511597
0.0571549
0.0608328
0.0628572
0.0638636
0.0642623
0.0643591
0.0642978
0.0641913
0.0640842
0.064006
0.0639648
0.0639562
0.0639823
0.0640176
0.0640859
0.0641434
0.00120949
0.00267499
0.00487735
0.0068942
0.00896804
0.0110417
0.0131184
0.0152049
0.0172931
0.0193972
0.0215361
0.0237678
0.0261914
0.0289581
0.0322126
0.0359918
0.0402848
0.0449337
0.0494122
0.0527522
0.0530287
0.0480565
0.0363229
0.0153564
-0.0126237
-0.0405572
-0.0650754
-0.0884039
-0.104965
-0.113482
-0.110588
-0.096883
-0.0762365
-0.0542237
-0.0426788
-0.0342333
-0.0280627
-0.025119
-0.0180534
-0.00793285
0.00965607
0.0297079
0.0443021
0.0540215
0.0596959
0.0627792
0.0642426
0.0648253
0.0649155
0.0648074
0.0646124
0.0644234
0.064268
0.0641621
0.0641045
0.0640843
0.0641012
0.0641233
0.0641759
0.0642159
0.0026599
0.00488013
0.0068559
0.00893994
0.0109804
0.0130559
0.0151269
0.017223
0.0193392
0.0215064
0.0237642
0.0261895
0.0288941
0.0320055
0.0356159
0.0396929
0.0440923
0.0484649
0.0522487
0.0542014
0.0521869
0.0444686
0.0291759
0.00438428
-0.0282255
-0.058562
-0.0867714
-0.108984
-0.122861
-0.126251
-0.116281
-0.0969855
-0.0736072
-0.0557067
-0.0511653
-0.0515598
-0.0488482
-0.0455989
-0.0334778
-0.0159899
0.0116371
0.0322371
0.0480363
0.0575088
0.0623094
0.0645874
0.0654288
0.0655994
0.0654109
0.0651298
0.0648315
0.0645853
0.064401
0.0642816
0.0642171
0.0641914
0.0641978
0.0642105
0.0642476
0.064271
0.00486055
0.00685594
0.00889676
0.0109464
0.012988
0.0150558
0.0171325
0.0192465
0.0214054
0.0236521
0.0260409
0.0286529
0.0315926
0.034945
0.038739
0.042866
0.047072
0.0508406
0.0537614
0.0537868
0.0495762
0.0386757
0.0188856
-0.010878
-0.0490076
-0.0811353
-0.110647
-0.129511
-0.137823
-0.133235
-0.115954
-0.0930561
-0.0720167
-0.0622382
-0.065642
-0.074838
-0.0727168
-0.0653854
-0.044507
-0.0141004
0.0143016
0.0370006
0.0529242
0.0610903
0.0647014
0.0661084
0.0663499
0.0661587
0.0657414
0.065329
0.0649629
0.0646858
0.064492
0.0643721
0.0643085
0.0642806
0.0642799
0.0642815
0.0643021
0.0643088
0.00683383
0.00889337
0.0108985
0.0129465
0.0149784
0.017047
0.0191333
0.0212733
0.0234842
0.0258161
0.0283287
0.0310942
0.0341972
0.0376682
0.0414753
0.045438
0.049233
0.0521776
0.0537927
0.0518772
0.0450546
0.0301531
0.00473325
-0.0307047
-0.0741209
-0.105699
-0.132994
-0.146138
-0.145439
-0.132298
-0.110378
-0.0887464
-0.0746221
-0.0754398
-0.0862882
-0.101959
-0.0958798
-0.0799476
-0.0477427
-0.0113847
0.0192319
0.0440238
0.0579939
0.0643249
0.0666497
0.0672609
0.0669798
0.0664962
0.0659126
0.0654165
0.0650187
0.0647368
0.0645512
0.0644417
0.0643845
0.0643567
0.0643488
0.0643368
0.0643391
0.0643257
0.00886883
0.0108913
0.0128928
0.0149275
0.0169559
0.0190261
0.021126
0.0232968
0.0255616
0.0279714
0.0305829
0.0334509
0.0366289
0.0400933
0.0437577
0.0473776
0.0505694
0.052581
0.0525558
0.0486157
0.0383331
0.0184155
-0.0134108
-0.0541477
-0.100388
-0.128713
-0.149493
-0.153901
-0.14382
-0.124565
-0.103406
-0.0867608
-0.084156
-0.0959467
-0.11116
-0.128202
-0.112292
-0.0852789
-0.0443169
-0.00519709
0.0294325
0.0513836
0.0625179
0.0668879
0.0680299
0.0680102
0.0673205
0.066623
0.0659413
0.0654094
0.0650152
0.0647523
0.0645899
0.0644986
0.0644505
0.0644227
0.0644059
0.0643742
0.0643597
0.064322
0.0108645
0.0128811
0.0148665
0.0168927
0.0189164
0.0209896
0.0231049
0.025306
0.0276176
0.0300858
0.0327598
0.0356662
0.0388271
0.0421661
0.0455522
0.0486808
0.0511042
0.0520301
0.0502478
0.0436794
0.0291265
0.00344075
-0.0345629
-0.0785967
-0.123446
-0.145169
-0.156227
-0.150013
-0.13394
-0.114206
-0.0967056
-0.0916114
-0.10184
-0.121286
-0.136634
-0.148167
-0.116562
-0.0803504
-0.0338974
0.00852216
0.0398164
0.0580008
0.0659957
0.0686752
0.0688274
0.0683575
0.067392
0.066565
0.0658509
0.0653295
0.0649708
0.0647473
0.0646189
0.0645501
0.064511
0.0644805
0.064453
0.0644022
0.0643608
0.0642954
0.0128515
0.0148494
0.0168222
0.0188375
0.0208563
0.0229323
0.0250613
0.0272857
0.0296289
0.0321285
0.0348185
0.0376953
0.040751
0.0438586
0.0468531
0.0493701
0.0508953
0.0505186
0.0467679
0.0369613
0.0175186
-0.0138954
-0.0563753
-0.0993757
-0.139141
-0.149809
-0.150413
-0.137095
-0.119862
-0.103417
-0.0967971
-0.106382
-0.123878
-0.147677
-0.157882
-0.159769
-0.112398
-0.0663707
-0.017919
0.0224159
0.0492168
0.0630525
0.0682883
0.0698283
0.0691483
0.0683364
0.0672285
0.0663561
0.0656702
0.0652017
0.0649059
0.0647369
0.0646487
0.0646023
0.0645688
0.0645308
0.0644816
0.0644092
0.064339
0.0642424
0.0148166
0.0167986
0.0187555
0.0207584
0.0227708
0.0248472
0.0269833
0.0292186
0.0315734
0.0340699
0.0367261
0.0395076
0.0423786
0.0451666
0.0476791
0.0494845
0.0500087
0.0481686
0.0421262
0.0286646
0.0043321
-0.031607
-0.0751694
-0.111281
-0.143457
-0.141956
-0.134335
-0.120161
-0.106812
-0.0998871
-0.108583
-0.124215
-0.148179
-0.169578
-0.168448
-0.154616
-0.0976306
-0.0469238
-0.000532501
0.0349848
0.0565163
0.066191
0.069603
0.0702507
0.069055
0.0680008
0.0668751
0.0660348
0.0654319
0.0650528
0.0648408
0.0647353
0.0646877
0.0646594
0.0646248
0.0645711
0.0644964
0.0643944
0.0642912
0.0641595
0.0167619
0.018724
0.0206626
0.022651
0.0246541
0.0267247
0.0288579
0.0310889
0.0334295
0.0358858
0.03846
0.041086
0.0437062
0.0461054
0.0480675
0.0490932
0.0485325
0.0450985
0.0365731
0.0195542
-0.00920303
-0.0465234
-0.0866422
-0.112522
-0.134716
-0.124762
-0.114762
-0.105587
-0.100946
-0.106203
-0.122313
-0.145987
-0.170372
-0.180954
-0.16595
-0.138649
-0.0774017
-0.0268811
0.0152988
0.044857
0.0611583
0.067642
0.0699639
0.0698531
0.0685703
0.0674197
0.0663771
0.0656435
0.065171
0.0649101
0.0647947
0.0647543
0.0647419
0.0647231
0.0646776
0.0645998
0.0644928
0.0643545
0.0642137
0.0640432
0.0186827
0.0206221
0.0225396
0.0245104
0.0264985
0.0285549
0.0306735
0.0328807
0.0351796
0.0375602
0.0400072
0.0424278
0.044745
0.0467077
0.048074
0.0482885
0.0465963
0.0415534
0.0307075
0.00990117
-0.0211607
-0.0551643
-0.0878319
-0.104022
-0.11633
-0.104237
-0.0989438
-0.0970259
-0.0998011
-0.116573
-0.140754
-0.167375
-0.184873
-0.180034
-0.150411
-0.114681
-0.0568523
-0.0094747
0.0276542
0.0512745
0.0633626
0.0679659
0.0694484
0.0689949
0.067763
0.0666734
0.0657912
0.0652269
0.0649232
0.0647995
0.0647838
0.0648026
0.0648142
0.0647923
0.0647242
0.0646129
0.0644658
0.0642854
0.0641025
0.0638899
0.0205755
0.0224891
0.0243822
0.0263299
0.028296
0.0303292
0.0324184
0.0345812
0.0368121
0.0390834
0.0413654
0.0435432
0.0455201
0.0470225
0.047777
0.0471878
0.0444205
0.0379057
0.0246525
0.000616963
-0.0274936
-0.0561256
-0.0789562
-0.0874196
-0.0931633
-0.087429
-0.0862614
-0.0903291
-0.106734
-0.131277
-0.159109
-0.182493
-0.186578
-0.166329
-0.128895
-0.0898809
-0.0390905
0.00378524
0.0356785
0.0544695
0.0637907
0.0675603
0.0684605
0.0678854
0.0667439
0.0658211
0.0651735
0.0648316
0.0647236
0.0647444
0.0648212
0.0648849
0.0649036
0.0648632
0.0647598
0.0646051
0.0644106
0.064183
0.0639535
0.0636964
0.0224367
0.0243209
0.0261845
0.0281032
0.0300402
0.0320387
0.0340829
0.036182
0.0383198
0.0404542
0.0425422
0.044453
0.0460712
0.0471153
0.047279
0.045958
0.0422683
0.0344655
0.018864
-0.00172425
-0.0270531
-0.0492325
-0.0625027
-0.066725
-0.0705268
-0.0720756
-0.0767555
-0.093698
-0.117541
-0.146632
-0.171792
-0.18464
-0.174336
-0.144748
-0.107979
-0.0678301
-0.0259943
0.0123447
0.0395686
0.0553244
0.0631932
0.0666157
0.0671189
0.0664963
0.0655812
0.0649276
0.0645833
0.0645045
0.0646051
0.0647633
0.0649139
0.0650004
0.0650054
0.0649294
0.0647775
0.0645702
0.0643219
0.0640427
0.0637631
0.0634575
0.0242623
0.0261123
0.0279412
0.0298251
0.0317243
0.0336762
0.0356613
0.0376782
0.0397019
0.0416791
0.0435546
0.0451886
0.0464521
0.0470678
0.0467104
0.0448017
0.0403995
0.0319465
0.0175506
0.000301778
-0.0207767
-0.0355192
-0.0422132
-0.0464123
-0.0501496
-0.0618994
-0.0771577
-0.10098
-0.129195
-0.157415
-0.174436
-0.174368
-0.154075
-0.123171
-0.0930413
-0.0518783
-0.0186574
0.0167562
0.0403988
0.0549193
0.0620769
0.0650732
0.0653997
0.0649121
0.0643478
0.0640651
0.0640825
0.0642907
0.0645941
0.0648667
0.0650615
0.0651435
0.0651113
0.0649822
0.0647697
0.0645019
0.0641944
0.0638603
0.0635296
0.0631682
0.0260476
0.0278583
0.0296481
0.0314902
0.0333425
0.0352377
0.0371499
0.0390694
0.0409638
0.0427717
0.0444274
0.0457919
0.0467284
0.0469782
0.0462202
0.0439531
0.0393067
0.0317327
0.0194798
0.00355043
-0.00914512
-0.0179374
-0.0220956
-0.0287024
-0.0352274
-0.0604526
-0.0813627
-0.109193
-0.137301
-0.159363
-0.166395
-0.156718
-0.134347
-0.110414
-0.0839474
-0.0435019
-0.0163129
0.0184914
0.0396975
0.0538516
0.0604874
0.0630224
0.0633848
0.0632204
0.0631332
0.0633128
0.0637337
0.0642296
0.0647068
0.0650551
0.0652573
0.0653027
0.0652098
0.0650116
0.0647282
0.0643937
0.0640235
0.0636324
0.0632531
0.0628396
0.0277879
0.0295555
0.0313007
0.0330941
0.0348923
0.0367205
0.0385484
0.0403601
0.0421161
0.0437511
0.0451932
0.0463129
0.0469744
0.0469558
0.0459749
0.0437052
0.0394642
0.033097
0.0229718
0.0125311
0.00526478
7.50157e-05
-0.00471619
-0.0156158
-0.0278271
-0.0627849
-0.0861927
-0.114753
-0.138475
-0.151842
-0.151595
-0.139197
-0.124193
-0.101886
-0.0830655
-0.0422196
-0.0162799
0.018848
0.0389874
0.0523828
0.0582923
0.0605131
0.0611608
0.0615155
0.0620395
0.0627575
0.0635953
0.0643479
0.0649468
0.0653219
0.065486
0.0654629
0.0652878
0.0650071
0.0646452
0.0642399
0.0638049
0.0633562
0.0629186
0.0624594
0.02948
0.0311997
0.0328954
0.0346349
0.0363716
0.0381247
0.0398607
0.0415585
0.0431737
0.0446419
0.0458909
0.0468067
0.0472681
0.0471181
0.0461547
0.0442558
0.0412017
0.0361912
0.0299025
0.0242222
0.0198334
0.0159165
0.00849346
-0.00808232
-0.0261415
-0.0652777
-0.0893867
-0.114406
-0.131859
-0.139448
-0.137231
-0.129284
-0.117683
-0.101852
-0.088942
-0.0444113
-0.0171543
0.0182416
0.0382583
0.0501831
0.0553809
0.0576072
0.05883
0.0599181
0.061186
0.0624887
0.0637103
0.0646535
0.065304
0.0656447
0.065727
0.0656061
0.0653312
0.0649584
0.0645133
0.0640355
0.0635352
0.0630296
0.0625358
0.0620283
0.0311202
0.032788
0.0344309
0.036111
0.0377804
0.0394533
0.0410933
0.0426762
0.0441556
0.0454733
0.0465613
0.0473305
0.0476865
0.0475874
0.0468644
0.0456908
0.0439003
0.0411858
0.0381657
0.0353853
0.0326028
0.0279243
0.0169766
-0.00471546
-0.0276722
-0.0690019
-0.0884682
-0.1078
-0.121672
-0.128574
-0.127209
-0.12623
-0.119864
-0.109959
-0.095538
-0.0503933
-0.0156567
0.0180164
0.0366767
0.0468911
0.0517195
0.0543958
0.0565321
0.0585858
0.0607095
0.062579
0.0640956
0.0651337
0.0657503
0.0659953
0.0659558
0.0657135
0.0653266
0.0648563
0.0643265
0.0637769
0.0632119
0.0626507
0.0621025
0.0615467
0.0327057
0.0343192
0.0359058
0.0375225
0.0391213
0.0407116
0.042255
0.0437272
0.0450838
0.0462755
0.0472459
0.0479381
0.0482842
0.0483727
0.0481431
0.0478734
0.0475442
0.0469859
0.0461815
0.0450419
0.0421997
0.0354656
0.0214417
-0.00359959
-0.0321157
-0.068504
-0.0828712
-0.0997948
-0.114159
-0.121617
-0.129747
-0.132809
-0.13144
-0.120117
-0.100643
-0.0536869
-0.0130372
0.0171453
0.0334521
0.0422449
0.0473322
0.051015
0.0544703
0.0577384
0.0607345
0.0630596
0.0647337
0.0657503
0.0662462
0.0663397
0.0661468
0.0657673
0.0652623
0.0646935
0.0640804
0.0634612
0.0628339
0.0622191
0.0616181
0.0610152
0.0342356
0.0357922
0.0373202
0.0388718
0.0403985
0.0419062
0.0433565