/*--------------------------------*- C++ -*----------------------------------*\
| =========                 |                                                 |
| \\      /  F ield         | OpenFOAM: The Open Source CFD Toolbox           |
|  \\    /   O peration     | Version:  2506                                  |
|   \\  /    A nd           | Website:  www.openfoam.com                      |
|    \\/     M anipulation  |                                                 |
\*---------------------------------------------------------------------------*/
FoamFile
{
    version     2.0;
    format      ascii;
    arch        "LSB;label=32;scalar=64";
    class       volVectorField;
    location    "139.9817045682689";
    object      U;
}
// * * * * * * * * * * * * * * * * * * * * * * * * * * * * * * * * * * * * * //

dimensions      [0 1 -1 0 0 0 0];

internalField   nonuniform List<vector> 
9700
(
(1.09178 0.00119283 5.8243e-22)
(1.09188 0.00386297 1.28476e-24)
(1.08807 0.00122625 7.88005e-28)
(1.09205 0.00635223 -7.72848e-22)
(1.08811 0.00401555 -6.24376e-24)
(1.08616 0.00122511 -5.71382e-22)
(1.09235 0.00908977 -1.18006e-23)
(1.0882 0.00660507 -5.96675e-35)
(1.08617 0.00403736 -5.65939e-22)
(1.0836 0.0012121 0)
(1.09277 0.0118102 6.16717e-22)
(1.08835 0.00948441 1.50218e-23)
(1.0862 0.00663642 -4.32921e-21)
(1.08356 0.00402175 -1.16277e-22)
(1.08127 0.00118233 5.45345e-22)
(1.09337 0.0147857 6.63931e-22)
(1.08856 0.0123747 -7.21614e-27)
(1.08624 0.00953613 -6.36774e-22)
(1.08352 0.00660345 1.29071e-34)
(1.08119 0.00394633 5.69808e-22)
(1.07894 0.00113829 2.39153e-27)
(1.09417 0.0179111 1.49101e-22)
(1.08885 0.0155782 9.34121e-27)
(1.0863 0.0124496 -6.54036e-22)
(1.08343 0.00949175 2.79251e-22)
(1.08108 0.00646894 4.04773e-21)
(1.07882 0.00381938 -2.3129e-23)
(1.07672 0.00108201 -4.95202e-22)
(1.09526 0.0213813 1.01399e-21)
(1.08926 0.0190021 3.12258e-22)
(1.08639 0.0156858 -5.92865e-22)
(1.08332 0.0123916 0)
(1.08088 0.0092928 4.97847e-22)
(1.07865 0.00624729 -1.8558e-35)
(1.07657 0.00364696 -4.71851e-22)
(1.0746 0.00101666 -4.03528e-21)
(1.09672 0.0252126 -2.10134e-22)
(1.0898 0.0228769 -1.42992e-21)
(1.0865 0.0191528 -2.3617e-22)
(1.08315 0.0156148 0)
(1.0806 0.012116 5.08909e-22)
(1.07835 0.00896174 5.53026e-23)
(1.07636 0.00594932 -3.42855e-25)
(1.07444 0.00343937 -4.67335e-21)
(1.07263 0.000945843 -2.23931e-24)
(1.0987 0.0296032 -1.07574e-21)
(1.09053 0.0272508 -5.09456e-22)
(1.08665 0.0230866 -7.80832e-21)
(1.08293 0.0190676 -9.0504e-37)
(1.0802 0.0152445 6.70397e-22)
(1.07792 0.0116557 -2.69738e-26)
(1.07596 0.00851491 -5.95012e-22)
(1.07419 0.00559298 -6.32269e-22)
(1.07245 0.00320871 7.06984e-22)
(1.07079 0.000873548 3.6791e-21)
(1.1013 0.0346944 8.88822e-22)
(1.09152 0.0323827 5.57268e-23)
(1.08685 0.0275365 1.41101e-21)
(1.08262 0.0229869 2.61458e-22)
(1.07966 0.018578 1.35575e-21)
(1.07731 0.0146223 3.47935e-26)
(1.07542 0.0110341 -6.04475e-22)
(1.07374 0.00797968 -4.73731e-21)
(1.07219 0.00519918 6.02025e-22)
(1.07062 0.00296865 3.83735e-21)
(1.06909 0.000803793 0)
(1.10422 0.0407636 5.05391e-23)
(1.09279 0.0384796 6.59841e-23)
(1.08712 0.0327707 6.73758e-21)
(1.0822 0.027417 1.02645e-21)
(1.07892 0.0223442 6.85472e-21)
(1.07649 0.0177513 1.17454e-21)
(1.07465 0.0137802 -4.27622e-22)
(1.07311 0.0102901 -4.29243e-21)
(1.0717 0.00738791 -1.3006e-22)
(1.07035 0.00479137 -2.95958e-25)
(1.06893 0.00273321 -2.77321e-36)
(1.06754 0.000740312 4.02419e-22)
(1.10781 0.0481529 6.72846e-21)
(1.09392 0.0458931 4.71313e-22)
(1.08745 0.0389983 -9.10131e-22)
(1.08163 0.0326272 -3.86517e-22)
(1.07793 0.0265704 -2.66332e-21)
(1.07538 0.0212533 -1.45532e-22)
(1.0736 0.0166315 4.13986e-22)
(1.07223 0.0127725 -4.35139e-21)
(1.07104 0.00946896 5.5876e-27)
(1.06987 0.00677533 3.71495e-21)
(1.06869 0.00439349 7.58704e-36)
(1.0674 0.00251563 4.31967e-22)
(1.0661 0.000686331 2.76211e-27)
(1.11606 0.0575335 -7.81763e-23)
(1.09489 0.0549674 3.45247e-34)
(1.08739 0.0465664 -7.95883e-22)
(1.08085 0.0388136 -1.49263e-21)
(1.0766 0.0315106 -5.92031e-21)
(1.07389 0.025131 -1.93994e-21)
(1.07219 0.0197741 -6.31506e-21)
(1.07103 0.0152927 -4.93692e-21)
(1.0701 0.0116612 -7.15957e-27)
(1.06921 0.008621 3.71802e-21)
(1.06824 0.00617841 -2.84647e-36)
(1.06718 0.00402802 2.64628e-25)
(1.06599 0.00232759 -2.79384e-23)
(1.06476 0.000644343 -3.46627e-22)
(1.13612 0.0696105 9.64278e-22)
(1.09927 0.0667193 -6.75671e-22)
(1.08666 0.0557086 -1.51046e-20)
(1.07942 0.0463286 -1.56262e-21)
(1.0748 0.0373226 6.88028e-22)
(1.07188 0.0296118 2.13714e-22)
(1.0703 0.0231809 -6.2059e-21)
(1.06942 0.0180072 -5.31277e-21)
(1.06883 0.0138193 1.7311e-21)
(1.06827 0.0105156 3.93049e-21)
(1.06762 0.00779751 0)
(1.06679 0.00563153 3.01953e-22)
(1.06582 0.00371468 -1.73847e-35)
(1.06468 0.00217833 -3.18289e-22)
(1.0635 0.00061587 -4.35281e-22)
(1.16899 0.083842 8.54806e-21)
(1.11484 0.083234 -2.8404e-22)
(1.08777 0.0673144 -1.36578e-21)
(1.07683 0.0553405 5.07085e-34)
(1.07215 0.0443434 1.07199e-21)
(1.0692 0.0347978 2.55782e-22)
(1.06778 0.0270439 5.03426e-21)
(1.06727 0.0208568 -4.0946e-21)
(1.06713 0.0160655 3.1173e-21)
(1.06702 0.0123044 4.8818e-21)
(1.06675 0.00940601 0)
(1.06626 0.00704676 2.96992e-22)
(1.06551 0.00516488 6.52216e-23)
(1.06457 0.00346904 -2.57783e-21)
(1.06346 0.00207392 -9.5146e-22)
(1.06229 0.000601286 -3.8204e-28)
(1.20343 0.098306 -1.20694e-21)
(1.14514 0.10586 -3.33444e-22)
(1.09786 0.0838373 -3.00164e-21)
(1.07453 0.0665632 2.10652e-21)
(1.068 0.052667 1.25692e-20)
(1.06549 0.0409979 1.8364e-21)
(1.06441 0.0313984 -7.1031e-22)
(1.0644 0.0239917 1.45939e-21)
(1.06485 0.0183095 4.19311e-21)
(1.06533 0.014073 -1.80667e-22)
(1.06559 0.0108425 -1.6741e-35)
(1.06551 0.00839887 4.94527e-22)
(1.06509 0.00641113 -3.13115e-26)
(1.06435 0.00480238 -4.257e-22)
(1.0634 0.00330115 -4.31385e-22)
(1.06228 0.00201658 3.47529e-22)
(1.06109 0.000599811 3.97233e-22)
(1.22001 0.10631 6.85236e-21)
(1.18283 0.13277 8.9833e-24)
(1.12224 0.107931 1.91723e-21)
(1.07858 0.0825009 0)
(1.06277 0.062737 5.92435e-22)
(1.06011 0.0482521 1.4594e-34)
(1.05988 0.0365087 -3.23298e-22)
(1.06058 0.0273781 -7.34778e-21)
(1.06184 0.0206548 -2.85968e-21)
(1.06309 0.0157036 -2.97418e-22)
(1.06403 0.0121554 -1.51381e-21)
(1.06451 0.00952249 1.39112e-21)
(1.0645 0.00755258 3.94669e-26)
(1.06407 0.00592428 -4.19356e-22)
(1.06329 0.0045596 -3.29597e-22)
(1.06228 0.00321452 2.71293e-21)
(1.06111 0.00200469 4.17004e-22)
(1.05989 0.000609532 -3.71955e-22)
(1.21519 0.104043 -3.64965e-21)
(1.21241 0.156594 3.43045e-21)
(1.15642 0.138749 -2.2681e-21)
(1.09563 0.107059 -4.62278e-34)
(1.06073 0.0765814 -2.12829e-21)
(1.05274 0.0567859 -2.45887e-21)
(1.05359 0.042357 -4.89279e-21)
(1.05551 0.0312229 -5.58148e-21)
(1.05782 0.0230027 -2.6554e-21)
(1.06012 0.0172486 3.61968e-21)
(1.06196 0.0132044 1.75377e-21)
(1.06318 0.010431 3.81777e-21)
(1.06373 0.00842299 1.30024e-21)
(1.06368 0.00691388 -2.30243e-22)
(1.06315 0.00560815 -4.14384e-22)
(1.06227 0.00444209 2.41048e-22)
(1.06116 0.00320601 -2.18693e-21)
(1.05994 0.0020327 -8.00774e-22)
(1.05866 0.000627593 -3.03881e-28)
(1.18198 0.0940185 8.48076e-21)
(1.2194 0.17242 6.42058e-21)
(1.18701 0.171419 -9.6714e-21)
(1.12465 0.141253 5.20746e-35)
(1.06865 0.0986904 -1.10961e-21)
(1.04575 0.067822 -1.02682e-21)
(1.04491 0.049059 -1.18523e-21)
(1.04866 0.0354365 -7.79829e-22)
(1.05253 0.0254936 3.53226e-21)
(1.05617 0.0185538 3.60507e-21)
(1.05924 0.013988 2.16466e-21)
(1.06142 0.0109675 1.82344e-21)
(1.06272 0.0090051 -1.56752e-22)
(1.06318 0.00760702 5.6712e-22)
(1.06298 0.00651349 -4.01905e-22)
(1.06228 0.0054707 4.13509e-27)
(1.06125 0.0044452 3.16657e-22)
(1.06003 0.00326579 -3.68127e-22)
(1.05873 0.00209161 2.35094e-23)
(1.05739 0.000650458 3.37079e-22)
(1.12496 0.076756 -4.39768e-20)
(1.19677 0.179038 -3.0213e-20)
(1.20034 0.200213 1.73853e-20)
(1.15492 0.181406 7.87605e-35)
(1.08891 0.132283 3.1651e-21)
(1.04473 0.085463 2.17352e-25)
(1.03454 0.0570229 -4.9751e-21)
(1.03937 0.0401213 -6.02299e-21)
(1.04548 0.0279507 5.04541e-22)
(1.051 0.0196854 3.98429e-21)
(1.05561 0.0143089 -2.47437e-21)
(1.05912 0.0110762 -2.77203e-21)
(1.06138 0.0091316 -2.03067e-21)
(1.06254 0.00796313 -3.46152e-21)
(1.06277 0.00711665 -6.82874e-22)
(1.06232 0.00636299 -5.08337e-27)
(1.06139 0.00550536 3.09216e-22)
(1.06019 0.00455388 -3.16873e-22)
(1.05884 0.00337806 7.31669e-35)
(1.05746 0.00216962 4.72006e-22)
(1.05608 0.000674211 4.3907e-24)
(1.04362 0.0478699 -1.70944e-21)
(1.14788 0.176157 -3.3589e-21)
(1.18581 0.219826 1.19878e-20)
(1.17279 0.221434 0)
(1.11493 0.175813 1.08681e-20)
(1.05419 0.114397 3.28689e-21)
(1.02615 0.0692528 1.65125e-21)
(1.0273 0.0450941 -5.67674e-21)
(1.03611 0.0304923 -3.60773e-21)
(1.0441 0.0203795 1.2179e-22)
(1.05087 0.0141502 -5.15209e-36)
(1.05603 0.0105297 2.24688e-22)
(1.05964 0.00869667 2.17535e-22)
(1.06171 0.00781098 -2.81617e-22)
(1.06254 0.00736343 -1.71838e-21)
(1.0624 0.00696839 4.06363e-22)
(1.06162 0.00645373 4.3287e-22)
(1.06044 0.00569076 -3.52792e-22)
(1.05905 0.0047438 -5.21783e-23)
(1.05759 0.00352229 3.34605e-22)
(1.05614 0.00225321 2.04837e-23)
(1.05471 0.000694906 -2.89325e-21)
(0.940477 0.00974368 -5.30466e-22)
(1.07572 0.163472 1.48242e-20)
(1.1456 0.229438 -1.49276e-20)
(1.16765 0.254572 2.49104e-35)
(1.13431 0.223304 -2.42445e-20)
(1.07203 0.156078 -2.75791e-21)
(1.02453 0.0905131 3.46959e-21)
(1.01415 0.0520905 -9.0596e-22)
(1.02362 0.0326271 3.43997e-26)
(1.0351 0.0207325 2.92232e-21)
(1.04452 0.013179 -1.40431e-35)
(1.05203 0.00921966 6.02261e-22)
(1.05731 0.00745401 2.53507e-22)
(1.06065 0.00700337 2.11877e-21)
(1.06225 0.00708524 1.23593e-21)
(1.06257 0.00723057 2.06245e-21)
(1.06198 0.00715141 9.75868e-22)
(1.06082 0.00675618 -3.41818e-22)
(1.05937 0.00599216 3.07278e-27)
(1.05782 0.00498317 8.56399e-22)
(1.05626 0.003675 7.7615e-22)
(1.05476 0.00232837 -3.25346e-21)
(1.0533 0.000708874 -1.14833e-24)
(0.832834 -0.034391 -6.64454e-21)
(0.986333 0.140926 1.02958e-21)
(1.08078 0.229816 -1.62457e-20)
(1.13576 0.278313 1.19264e-34)
(1.13514 0.267859 4.55991e-21)
(1.089 0.206394 1.17342e-21)
(1.03122 0.124994 -8.48439e-21)
(1.00332 0.064579 -7.3973e-21)
(1.00838 0.0351414 -3.93958e-21)
(1.02306 0.0201473 -1.39366e-21)
(1.03632 0.0114004 -1.49746e-35)
(1.04661 0.00677022 1.65805e-21)
(1.05429 0.00520165 1.78092e-21)
(1.05923 0.00528554 -2.81855e-22)
(1.06194 0.00610794 -7.29213e-22)
(1.06285 0.00699073 -6.1742e-22)
(1.06252 0.00755215 -9.89559e-23)
(1.0614 0.00762618 -5.80516e-22)
(1.05986 0.00722178 -3.65163e-27)
(1.05817 0.00636386 3.23661e-22)
(1.05647 0.00523548 -4.50189e-23)
(1.05485 0.00381196 -3.04939e-22)
(1.05333 0.00238186 1.77277e-22)
(1.05188 0.00071303 2.62295e-21)
(0.730133 -0.0783854 -3.49871e-23)
(0.887891 0.109988 8.14805e-22)
(0.9977 0.220972 3.13201e-21)
(1.07961 0.29291 9.70838e-35)
(1.11145 0.304754 3.55011e-20)
(1.09336 0.258525 -1.49989e-20)
(1.04121 0.171623 1.84039e-20)
(0.998136 0.0880772 -1.1393e-21)
(0.991702 0.039607 6.17399e-21)
(1.00777 0.0188976 3.80685e-21)
(1.02529 0.00820735 0)
(1.03963 0.00303226 -2.54966e-22)
(1.05017 0.00154175 3.50834e-35)
(1.05741 0.00237042 8.70621e-23)
(1.06153 0.00417787 -1.81728e-21)
(1.06329 0.00606667 -1.64546e-21)
(1.06331 0.00751486 -6.22752e-23)
(1.06224 0.0082762 -1.52766e-21)
(1.06059 0.00832652 8.69603e-23)
(1.0587 0.00778613 3.1646e-22)
(1.05681 0.00675325 -4.29167e-23)
(1.05503 0.00546301 -3.01379e-21)
(1.05338 0.00391034 2.51792e-21)
(1.05187 0.00240244 2.78113e-21)
(1.05045 0.00070517 2.63778e-22)
(0.657315 -0.113326 -6.14073e-20)
(0.789392 0.0759248 4.83571e-22)
(0.904366 0.204541 -3.82479e-22)
(1.00449 0.29837 -2.20415e-20)
(1.06335 0.332359 -1.14804e-20)
(1.07692 0.305805 -2.50395e-21)
(1.04499 0.22532 3.54884e-21)
(0.997707 0.124386 -1.36124e-20)
(0.976691 0.0510266 -2.11151e-21)
(0.988826 0.0170252 8.76751e-21)
(1.01121 0.00360538 2.93677e-35)
(1.03016 -0.00258506 -4.03409e-21)
(1.04483 -0.00386251 -2.33436e-21)
(1.05488 -0.00215164 -1.50234e-21)
(1.06107 0.000944786 -1.84211e-21)
(1.06393 0.00421721 -1.98041e-22)
(1.06447 0.00687097 1.64378e-21)
(1.06347 0.00859111 7.44296e-22)
(1.06164 0.00931317 9.3915e-23)
(1.05949 0.0091636 5.45203e-22)
(1.05732 0.00837465 5.03459e-23)
(1.0553 0.0071058 -2.8922e-21)
(1.05349 0.00563021 -4.00562e-22)
(1.05187 0.00395081 1.50493e-21)
(1.0504 0.00238193 3.61373e-22)
(1.04905 0.000684169 2.36017e-28)
(0.611655 -0.138964 -3.85865e-20)
(0.712409 0.0438335 5.8859e-21)
(0.811807 0.18418 0)
(0.917271 0.295963 3.33854e-25)
(0.995717 0.350884 8.60427e-21)
(1.03734 0.344328 1.61524e-20)
(1.03364 0.278712 -3.17037e-20)
(0.996046 0.17194 -1.74727e-20)
(0.96488 0.0726162 -7.23524e-21)
(0.967941 0.0178245 -6.20709e-22)
(0.992709 -0.00305084 -6.40239e-36)
(1.01801 -0.0103196 5.0044e-22)
(1.03746 -0.0115986 -9.92715e-22)
(1.0516 -0.00880281 -3.41979e-22)
(1.06036 -0.00400871 -8.21334e-23)
(1.06487 0.00106166 2.74208e-22)
(1.06609 0.00540651 1.71145e-22)
(1.06521 0.00843831 -4.85349e-22)
(1.06316 0.0101004 -5.02283e-36)
(1.06063 0.0105408 1.84163e-21)
(1.05807 0.0100336 4.05911e-22)
(1.05571 0.0089099 -2.86238e-21)
(1.05366 0.00737013 9.69167e-27)
(1.05188 0.00570704 2.4454e-21)
(1.05035 0.00391946 -3.71206e-21)
(1.04897 0.00231591 -1.71323e-22)
(1.0477 0.000650085 -2.36815e-22)
(0.578759 -0.160875 -7.29814e-22)
(0.661695 0.0182388 -4.39045e-23)
(0.73574 0.159023 -1.25149e-20)
(0.826139 0.287338 -4.58733e-21)
(0.915999 0.36119 -4.06121e-20)
(0.977986 0.37314 1.73208e-21)
(1.00223 0.325648 -1.21019e-20)
(0.985821 0.224675 -2.36667e-20)
(0.953848 0.10669 -2.83535e-21)
(0.946991 0.0240781 4.21979e-21)
(0.970114 -0.010338 -1.56632e-39)
(1.00157 -0.0208538 4.90759e-21)
(1.02784 -0.0221828 2.2518e-25)
(1.04686 -0.0181956 -2.81798e-21)
(1.05945 -0.0113562 1.83897e-21)
(1.0661 -0.00381501 3.43684e-22)
(1.06838 0.00275051 2.54284e-22)
(1.06768 0.00764846 -9.22294e-22)
(1.06532 0.0106115 -9.17317e-23)
(1.06228 0.011876 5.26356e-22)
(1.05917 0.0118145 -2.89444e-21)
(1.05634 0.0108281 -3.71963e-21)
(1.05393 0.00931884 -1.14535e-26)
(1.05193 0.00750292 2.65958e-21)
(1.05026 0.00567194 4.32504e-23)
(1.04885 0.00380897 1.24705e-34)
(1.04758 0.00220414 -1.41747e-22)
(1.04643 0.00060413 0)
(0.558901 -0.179139 4.42441e-21)
(0.622427 -0.00502239 -3.85515e-20)
(0.684983 0.13941 2.81004e-20)
(0.756082 0.271325 -1.7957e-20)
(0.833039 0.364887 3.01256e-20)
(0.905569 0.392707 2.2043e-21)
(0.952022 0.363297 -1.46322e-21)
(0.960439 0.275713 -2.40857e-20)
(0.939555 0.14974 -8.15789e-21)
(0.925748 0.0405133 -1.08049e-21)
(0.944324 -0.016811 0)
(0.980324 -0.0341264 -1.76295e-21)
(1.01442 -0.0361889 4.14191e-21)
(1.0404 -0.0311211 7.79633e-23)
(1.05781 -0.0217419 1.96274e-22)
(1.06775 -0.0111774 -2.10401e-22)
(1.07151 -0.0014863 -2.81976e-22)
(1.07114 0.00590448 -7.93117e-22)
(1.06839 0.0107395 -7.72955e-23)
(1.06463 0.0131631 1.17948e-22)
(1.06076 0.0137178 -9.1285e-22)
(1.05727 0.0129824 -1.64334e-21)
(1.05435 0.0114447 6.52041e-22)
(1.05201 0.00954009 2.65721e-21)
(1.05016 0.00747332 2.62377e-22)
(1.04866 0.00551376 3.88563e-22)
(1.04742 0.00361927 1.28272e-21)
(1.04629 0.00205045 1.17655e-22)
(1.04526 0.000548521 -1.99176e-21)
(0.551297 -0.194336 -1.74364e-20)
(0.595893 -0.0258866 4.86223e-21)
(0.644262 0.120461 3.39084e-20)
(0.707626 0.257537 -9.88083e-21)
(0.76638 0.361207 -2.71735e-20)
(0.828175 0.40335 6.9889e-21)
(0.888442 0.391115 5.14746e-20)
(0.918673 0.319735 -2.87463e-20)
(0.916005 0.197692 -2.66182e-21)
(0.903026 0.0654048 8.48449e-21)
(0.915725 -0.017768 1.73975e-36)
(0.954022 -0.0497668 3.95358e-21)
(0.99636 -0.0542921 -6.54738e-21)
(1.03083 -0.0482313 3.40519e-21)
(1.05519 -0.0362225 -4.48861e-21)
(1.06952 -0.0216614 1.10295e-21)
(1.07571 -0.00806759 -1.37602e-22)
(1.07594 0.00288039 -7.68719e-23)
(1.07272 0.0102649 3.63277e-23)
(1.06799 0.0143722 -1.03068e-22)
(1.06304 0.015814 -1.57358e-21)
(1.05863 0.0154133 -9.00588e-22)
(1.05499 0.0139009 2.76447e-21)
(1.05216 0.0117975 2.59732e-21)
(1.05002 0.00953027 2.62758e-22)
(1.0484 0.00726578 -2.40479e-27)
(1.04712 0.00523265 -4.52614e-22)
(1.04608 0.00335742 -9.89138e-22)
(1.0451 0.00186234 -2.01931e-21)
(1.04422 0.000486271 -9.65952e-25)
(0.557105 -0.206499 -6.76252e-21)
(0.582511 -0.0433213 3.65182e-21)
(0.615234 0.103161 -4.78172e-21)
(0.665666 0.243392 1.81783e-20)
(0.719247 0.354838 2.03809e-20)
(0.765439 0.408069 3.57894e-20)
(0.818342 0.40856 3.17059e-22)
(0.863772 0.355084 3.19087e-20)
(0.880659 0.241937 -1.35822e-20)
(0.876024 0.101642 5.92287e-22)
(0.884236 -0.0143069 -4.65906e-35)
(0.922569 -0.0649253 -2.81044e-21)
(0.972571 -0.076727 -3.42341e-21)
(1.01722 -0.0706897 4.12374e-21)
(1.05046 -0.0557706 1.21689e-21)
(1.0714 -0.0366209 2.63975e-21)
(1.08097 -0.017549 -3.52353e-22)
(1.08239 -0.00206562 -3.01234e-23)
(1.07875 0.00897459 4.89005e-36)
(1.07274 0.0154183 2.93831e-22)
(1.06632 0.0181578 -9.66579e-24)
(1.06057 0.0182641 -2.88338e-22)
(1.05594 0.0167604 -2.501e-21)
(1.05242 0.0144498 1.98453e-21)
(1.04987 0.0118264 9.28418e-22)
(1.04804 0.00926813 2.9419e-27)
(1.04672 0.00688125 -2.35005e-22)
(1.0457 0.00483984 2.98733e-22)
(1.04486 0.00303666 6.77666e-22)
(1.04405 0.00165018 -3.61916e-24)
(1.0433 0.000420972 1.77436e-21)
(0.5739 -0.215336 8.71985e-21)
(0.58124 -0.0567621 -3.37282e-20)
(0.598 0.0890418 -3.36801e-21)
(0.633916 0.229802 -1.61805e-20)
(0.678714 0.347191 6.22174e-21)
(0.721742 0.409051 8.8256e-21)
(0.759855 0.416697 1.92589e-20)
(0.801823 0.380454 2.67271e-20)
(0.833057 0.28069 -3.41025e-20)
(0.844122 0.136705 4.43027e-21)
(0.851311 0.00245794 0)
(0.885582 -0.079422 -9.61958e-21)
(0.942023 -0.102173 6.51891e-21)
(0.997695 -0.0989471 -1.16838e-20)
(1.04256 -0.0821745 -4.99086e-21)
(1.07269 -0.0575163 -6.09925e-22)
(1.08785 -0.0316331 2.41631e-21)
(1.09094 -0.0093407 1.74534e-22)
(1.08684 0.00646906 7.67551e-23)
(1.07937 0.0162473 1.88179e-22)
(1.07099 0.0208202 2.56679e-24)
(1.06341 0.0216713 -2.84923e-21)
(1.05733 0.0202275 2.29045e-21)
(1.05285 0.0175906 2.35638e-21)
(1.04971 0.0145461 2.52002e-22)
(1.04759 0.0115031 -7.27371e-23)
(1.04616 0.00875606 -2.34999e-22)
(1.04518 0.0063367 0)
(1.04442 0.00435619 -2.05007e-21)
(1.04378 0.0026752 -8.34347e-22)
(1.04313 0.00142648 1.75759e-21)
(1.04252 0.000356477 -1.67501e-21)
(0.600453 -0.221 4.88289e-21)
(0.590914 -0.0655316 9.01898e-23)
(0.592075 0.0785029 7.94777e-21)
(0.612915 0.218591 1.63456e-20)
(0.646516 0.338443 -2.26975e-20)
(0.683868 0.40828 1.11467e-20)
(0.718932 0.420398 2.51457e-21)
(0.749431 0.397604 -3.3722e-21)
(0.779079 0.308267 3.2278e-20)
(0.80217 0.172955 4.55224e-21)
(0.816461 0.0195195 -9.14565e-21)
(0.846103 -0.0859314 -2.8146e-21)
(0.903748 -0.129372 -3.87473e-23)
(0.970259 -0.131984 -1.66816e-21)
(1.02843 -0.115615 -1.59704e-21)
(1.07179 -0.0869315 -1.55455e-21)
(1.09628 -0.0523096 -3.1387e-21)
(1.10305 -0.0209806 -4.29227e-21)
(1.09812 0.00254935 -1.63269e-21)
(1.08822 0.0167923 -6.13619e-22)
(1.07746 0.0239311 1.44122e-21)
(1.06746 0.0258597 -3.12424e-21)
(1.05939 0.0245049 -4.96917e-22)
(1.05351 0.0214665 3.44493e-21)
(1.04954 0.0177887 2.39107e-21)
(1.04699 0.0141521 -8.33129e-23)
(1.04542 0.0108328 4.68962e-22)
(1.04445 0.00801921 0)
(1.04382 0.00566288 -2.03322e-21)
(1.04332 0.00381009 -5.0805e-22)
(1.04287 0.00229479 1.00841e-21)
(1.04236 0.00120474 -1.6273e-21)
(1.04187 0.000296554 -7.6336e-25)
(0.635375 -0.222891 2.6218e-20)
(0.609663 -0.0688 4.4278e-20)
(0.596037 0.0722123 -1.39945e-20)
(0.602449 0.210327 1.81023e-20)
(0.623609 0.330263 -2.80007e-20)
(0.653567 0.405499 -1.8604e-21)
(0.683417 0.421961 -6.6751e-21)
(0.712741 0.406912 5.1424e-21)
(0.734555 0.328796 -1.29142e-20)
(0.755994 0.197144 2.51129e-20)
(0.776836 0.0456224 3.61118e-25)
(0.804921 -0.0899095 3.67085e-22)
(0.860369 -0.154663 4.6677e-21)
(0.933474 -0.168169 2.14726e-20)
(1.005 -0.154692 1.73599e-21)
(1.06385 -0.124088 3.49049e-21)
(1.10333 -0.0828178 7.74835e-21)
(1.11929 -0.0393992 1.30148e-21)
(1.11524 -0.00497354 1.91083e-25)
(1.10122 0.0171264 9.09091e-23)
(1.08598 0.0277901 1.32687e-22)
(1.07298 0.0311379 7.15454e-23)
(1.06235 0.0299486 2.36189e-22)
(1.05454 0.0263201 2.38972e-21)
(1.04937 0.0218212 -2.69999e-21)
(1.04622 0.0173054 3.29505e-36)
(1.04442 0.0132778 1.63626e-22)
(1.04347 0.00985262 2.28396e-22)
(1.04297 0.00710195 -1.92719e-21)
(1.04267 0.00490111 9.04487e-27)
(1.04241 0.00323531 1.8767e-21)
(1.04212 0.00191871 5.63617e-22)
(1.04173 0.000998101 1.18669e-22)
(1.04133 0.000244698 1.50318e-21)
(0.676002 -0.220736 -1.60613e-20)
(0.635509 -0.0667141 -6.30651e-21)
(0.608444 0.0705599 -2.3613e-20)
(0.601706 0.205485 7.70501e-20)
(0.610602 0.323181 1.05829e-21)
(0.631888 0.400802 8.42806e-21)
(0.655631 0.422037 -1.26349e-21)
(0.680906 0.411736 2.48372e-20)
(0.704338 0.34131 2.01961e-20)
(0.720103 0.218859 -8.13974e-21)
(0.735747 0.0605732 3.52647e-20)
(0.763615 -0.08214 1.88214e-20)
(0.813333 -0.177583 1.01505e-21)
(0.889279 -0.204919 -3.69662e-21)
(0.970381 -0.197077 -4.58506e-20)
(1.04458 -0.167113 -1.12422e-20)
(1.10162 -0.120734 2.05582e-21)
(1.13425 -0.0679032 -5.8756e-21)
(1.13904 -0.0187376 6.21485e-35)
(1.12244 0.0152848 -4.18388e-23)
(1.09932 0.0327767 2.30955e-21)
(1.08009 0.0381043 -3.57731e-21)
(1.06627 0.0370065 -2.05465e-21)
(1.05605 0.0326001 3.03221e-21)
(1.04923 0.0268919 -5.17573e-22)
(1.04521 0.0212273 1.01485e-22)
(1.0431 0.0161595 2.06365e-21)
(1.04214 0.011978 -7.78945e-23)
(1.04181 0.0086261 -1.53148e-21)
(1.04176 0.00606321 -1.14014e-26)
(1.04176 0.00410006 1.73042e-21)
(1.04169 0.00266781 -1.82831e-21)
(1.04152 0.00156959 2.92245e-35)
(1.04122 0.000818726 1.58575e-21)
(1.04089 0.000203825 0)
(0.732615 -0.210698 -2.52726e-21)
(0.665093 -0.0585893 -2.7718e-20)
(0.627683 0.072771 -3.64771e-21)
(0.60981 0.203525 -1.64287e-21)
(0.607712 0.317376 3.52951e-20)
(0.620001 0.394509 -8.96066e-21)
(0.637206 0.420087 4.13686e-21)
(0.657091 0.412408 2.18589e-20)
(0.678861 0.347619 9.04698e-20)
(0.696749 0.233141 -8.19101e-20)
(0.706981 0.0805209 -5.27581e-20)
(0.72309 -0.0813473 -3.62709e-21)
(0.767558 -0.191581 2.2479e-21)
(0.838966 -0.24098 6.18308e-21)
(0.92649 -0.240549 6.57752e-21)
(1.01191 -0.212983 2.21123e-20)
(1.08625 -0.164101 1.00119e-20)
(1.13785 -0.102272 -2.08064e-21)
(1.16089 -0.0411615 -3.568e-21)
(1.15213 0.00876934 -2.45044e-22)
(1.12274 0.037641 1.02322e-21)
(1.09209 0.0474828 -5.90676e-21)
(1.07102 0.0464499 1.23602e-21)
(1.05792 0.04083 -8.68838e-23)
(1.04912 0.0334946 4.01578e-22)
(1.0439 0.0261368 1.07622e-22)
(1.04132 0.0197186 2.206e-22)
(1.04036 0.0144323 5.08389e-23)
(1.04025 0.0103432 -2.24451e-22)
(1.04051 0.00723622 5.64545e-22)
(1.04084 0.00497162 1.686e-21)
(1.04108 0.00331115 -1.61168e-21)
(1.04115 0.00214243 -2.81941e-22)
(1.04106 0.00126823 -5.03057e-22)
(1.04082 0.000676621 -3.15484e-23)
(1.04052 0.00017601 -1.45007e-22)
(0.798945 -0.189052 3.61797e-21)
(0.706572 -0.0413187 1.54475e-21)
(0.652184 0.0797158 -1.00755e-20)
(0.625729 0.203279 -3.94151e-20)
(0.614894 0.311876 7.18322e-20)
(0.618457 0.386546 -1.80459e-20)
(0.629466 0.415498 6.63521e-21)
(0.643158 0.408716 -3.9911e-21)
(0.661169 0.348636 -3.49455e-20)
(0.67764 0.240243 -1.74774e-20)
(0.689878 0.0963544 6.74612e-20)
(0.696829 -0.0696263 1.00107e-20)
(0.724241 -0.206659 2.18313e-20)
(0.788653 -0.272066 -3.26457e-20)
(0.874892 -0.283632 -5.089e-20)
(0.968218 -0.26017 -1.15169e-21)
(1.05541 -0.209856 3.89947e-20)
(1.12589 -0.141259 2.30067e-21)
(1.16862 -0.0673714 1.39084e-20)
(1.17927 -0.0030593 2.14535e-21)
(1.15543 0.0406726 -8.85592e-21)
(1.11509 0.0591414 5.13351e-21)
(1.07999 0.0593406 -4.18238e-21)
(1.05966 0.0518339 4.12184e-21)
(1.04873 0.0421524 -3.88057e-22)
(1.04214 0.0325243 -8.45161e-22)
(1.03894 0.0241151 -1.44814e-21)
(1.03796 0.0174168 -2.94988e-21)
(1.03815 0.0122543 -3.31987e-21)
(1.03883 0.00848957 -5.32266e-22)
(1.0396 0.00577823 1.68521e-21)
(1.04023 0.00389916 -1.55604e-21)
(1.04063 0.0025839 7.10971e-27)
(1.04077 0.00169104 1.32605e-21)
(1.04072 0.00103169 2.43185e-35)
(1.04049 0.000578809 -9.81197e-23)
(1.04019 0.000162317 -9.7716e-29)
(0.853534 -0.155089 5.81116e-20)
(0.758202 -0.0170628 -4.67827e-22)
(0.691573 0.0893494 7.2805e-21)
(0.649238 0.204681 7.236e-24)
(0.631851 0.305603 -1.0394e-20)
(0.62828 0.376553 1.22397e-21)
(0.631823 0.407056 7.93885e-21)
(0.640008 0.400488 2.39112e-20)
(0.652593 0.344554 -8.63069e-20)
(0.665472 0.2425 4.43267e-20)
(0.676215 0.104011 7.77717e-20)
(0.683612 -0.0547727 1.32977e-20)
(0.695569 -0.208967 -4.21107e-20)
(0.741171 -0.30116 -1.82723e-21)
(0.821458 -0.324029 2.15242e-20)
(0.915365 -0.306328 6.29927e-21)
(1.01185 -0.257594 -2.14356e-20)
(1.09722 -0.182432 -6.15932e-20)
(1.15964 -0.0974207 -2.80896e-20)
(1.18982 -0.017692 7.38587e-22)
(1.1856 0.0427436 1.72507e-21)
(1.14768 0.0725341 3.01048e-21)
(1.09978 0.076887 -3.53408e-21)
(1.06418 0.0668661 5.30372e-21)
(1.04723 0.0536494 4.47685e-22)
(1.03955 0.0408354 1.00599e-34)
(1.03571 0.029796 -1.87072e-22)
(1.03472 0.0210122 -1.06145e-22)
(1.03532 0.0145092 -1.55198e-22)
(1.03657 0.00978868 1.49211e-21)
(1.03792 0.00654843 5.43698e-22)
(1.03907 0.00435088 -1.54904e-21)
(1.0399 0.00291471 -8.91275e-27)
(1.04037 0.00196335 1.41519e-21)
(1.04053 0.0013397 7.17692e-23)
(1.04045 0.00087186 4.5813e-22)
(1.0402 0.000528952 7.14617e-24)
(1.03988 0.000162601 1.34662e-22)
(0.892769 -0.113863 -6.99994e-23)
(0.805999 0.0128305 -7.36188e-22)
(0.744548 0.0959064 0)
(0.689669 0.202484 9.65989e-21)
(0.65826 0.298204 -1.10556e-20)
(0.648845 0.364141 -4.9939e-22)
(0.646285 0.395042 -5.7937e-21)
(0.647862 0.388473 -3.25714e-20)
(0.653983 0.336126 -3.33673e-20)
(0.661299 0.239747 -2.38706e-20)
(0.668397 0.107765 -4.2182e-20)
(0.674776 -0.0476729 -1.57001e-20)
(0.681377 -0.201283 -2.6508e-20)
(0.708179 -0.317198 -3.55368e-22)
(0.769838 -0.361543 4.20824e-20)
(0.859403 -0.350325 7.91916e-20)
(0.95726 -0.303744 5.43829e-20)
(1.05422 -0.226865 8.96305e-21)
(1.13341 -0.129568 3.79773e-21)
(1.18383 -0.0361802 -1.08738e-21)
(1.19646 0.0414964 1.63838e-35)
(1.17853 0.0879682 5.89903e-21)
(1.12963 0.0996133 -4.8222e-21)
(1.07824 0.0884188 -8.19719e-21)
(1.04651 0.0691494 9.56514e-22)
(1.03502 0.0517703 6.51606e-22)
(1.03119 0.0370614 4.31474e-21)
(1.03033 0.0255966 1.19985e-21)
(1.0315 0.0171024 -2.00349e-21)
(1.03353 0.0112238 -5.33364e-22)
(1.03566 0.00721613 -4.62976e-22)
(1.03752 0.00465424 -7.77291e-22)
(1.03891 0.00304772 5.49585e-22)
(1.03981 0.00208054 1.34521e-21)
(1.04027 0.00148616 0)
(1.04037 0.0011065 -2.40003e-22)
(1.04022 0.00079479 -1.18366e-21)
(1.03992 0.000527038 1.14233e-22)
(1.03956 0.000175435 1.30572e-22)
(0.924491 -0.0759757 2.24538e-22)
(0.855255 0.0319676 5.06757e-21)
(0.800971 0.103472 -3.77308e-22)
(0.748122 0.193413 6.48973e-26)
(0.702549 0.283438 6.81019e-21)
(0.679096 0.349652 -1.45228e-20)
(0.671264 0.37956 9.82249e-21)
(0.666751 0.373119 -7.75611e-21)
(0.665782 0.323941 -1.8452e-20)
(0.666545 0.232753 -1.36541e-20)
(0.667974 0.106265 -9.11464e-22)
(0.670541 -0.0432204 -1.93303e-20)
(0.674519 -0.197252 -4.24509e-21)
(0.689384 -0.320835 -3.86203e-20)
(0.732813 -0.386536 -6.68217e-21)
(0.803728 -0.390538 -1.57903e-20)
(0.898626 -0.348449 -9.36372e-20)
(0.998103 -0.269164 -7.54237e-20)
(1.09139 -0.166426 4.93224e-21)
(1.16012 -0.055793 3.32129e-20)
(1.19355 0.0356798 2.45411e-20)
(1.19617 0.101395 -2.03158e-20)
(1.15896 0.12619 -2.85511e-20)
(1.10281 0.118202 1.56909e-20)
(1.05289 0.0919484 -5.66737e-22)
(1.02919 0.0660906 -3.03071e-23)
(1.02417 0.0465366 -4.87962e-22)
(1.02431 0.0312732 5.09876e-35)
(1.02634 0.0203294 -1.89105e-21)
(1.02944 0.0127093 -1.38975e-21)
(1.03265 0.00780756 3.67659e-22)
(1.03543 0.00471845 -9.28117e-22)
(1.03759 0.00293331 2.71671e-22)
(1.03906 0.00195274 1.20384e-21)
(1.03991 0.00144717 0)
(1.04027 0.00117765 -1.3287e-22)
(1.04026 0.00100059 -1.5577e-23)
(1.04001 0.000800128 7.20049e-22)
(1.03963 0.000569336 1.58616e-22)
(1.03919 0.000198328 6.92951e-29)
(0.955265 -0.0486544 -3.51171e-21)
(0.902723 0.0397988 1.11764e-21)
(0.860863 0.0965173 -4.50876e-21)
(0.811049 0.17907 1.09308e-21)
(0.765855 0.259567 3.40189e-20)
(0.727446 0.326776 -2.92996e-21)
(0.70543 0.360936 2.26678e-20)
(0.695791 0.354879 1.076e-20)
(0.688101 0.30831 3.72258e-20)
(0.68198 0.221392 1.0792e-19)
(0.676904 0.100354 -2.27978e-21)
(0.673591 -0.0439169 8.13549e-20)
(0.672716 -0.194429 2.20062e-20)
(0.678013 -0.32424 1.04367e-20)
(0.709132 -0.399732 2.6547e-20)
(0.762878 -0.419364 -3.47411e-20)
(0.838548 -0.388159 -2.43712e-20)
(0.937293 -0.312466 3.02373e-20)
(1.03486 -0.200434 1.73553e-20)
(1.11915 -0.0805472 -5.0116e-21)
(1.17351 0.0305263 -2.87652e-24)
(1.19362 0.11138 -6.55785e-22)
(1.17752 0.15418 2.98921e-20)
(1.12863 0.154315 -1.29734e-20)
(1.0696 0.125172 -3.10193e-21)
(1.02711 0.0871353 -9.40657e-27)
(1.01424 0.0583949 -1.08147e-21)
(1.01553 0.0386301 -9.26526e-22)
(1.01934 0.0240753 -2.21478e-22)
(1.02395 0.0144491 2.41988e-21)
(1.02858 0.00817335 1.17408e-21)
(1.03265 0.00450458 8.39356e-22)
(1.0358 0.00246373 5.08028e-36)
(1.03805 0.00149823 -1.63114e-21)
(1.03944 0.00113363 -3.88267e-22)
(1.04014 0.00104933 -1.25784e-22)
(1.04032 0.00105041 8.9316e-28)
(1.04014 0.0010213 1.71157e-22)
(1.03976 0.000881038 -7.00309e-22)
(1.03929 0.000648681 -4.57452e-23)
(1.03878 0.000228129 -1.23536e-22)
(0.985651 -0.0343277 5.19556e-21)
(0.946239 0.0355457 1.66249e-22)
(0.915895 0.084349 -3.01622e-22)
(0.875127 0.156654 -4.33642e-35)
(0.83479 0.230558 -3.30101e-20)
(0.795425 0.294095 6.33129e-21)
(0.757641 0.333991 -6.56329e-23)
(0.733791 0.333537 -1.33827e-20)
(0.720405 0.289438 6.2452e-21)
(0.707961 0.206085 5.34108e-20)
(0.696087 0.0899038 1.83013e-20)
(0.685655 -0.0490316 1.41821e-19)
(0.678286 -0.195081 3.83716e-20)
(0.677053 -0.326632 2.75721e-20)
(0.693271 -0.411666 -7.46352e-20)
(0.734836 -0.437928 2.90506e-20)
(0.793413 -0.418294 2.44766e-20)
(0.87259 -0.349257 1.85113e-20)
(0.973094 -0.239617 2.63491e-20)
(1.06403 -0.102461 -1.2748e-20)
(1.1341 0.0218304 -3.3022e-20)
(1.17191 0.121086 2.85001e-20)
(1.17707 0.181275 2.58302e-20)
(1.1452 0.194142 -1.84296e-20)
(1.09003 0.167565 1.41853e-20)
(1.03399 0.119192 -1.47702e-21)
(1.00441 0.0753287 1.64917e-24)
(1.00295 0.0472359 0)
(1.00958 0.0289158 -2.40717e-21)
(1.01652 0.0161323 9.07734e-22)
(1.02319 0.00841526 2.18553e-21)
(1.0289 0.00382083 -2.14513e-21)
(1.03346 0.00153769 -3.72318e-22)
(1.0367 0.000600125 1.26088e-21)