/*--------------------------------*- C++ -*----------------------------------*\
| =========                 |                                                 |
| \\      /  F ield         | OpenFOAM: The Open Source CFD Toolbox           |
|  \\    /   O peration     | Version:  2506                                  |
|   \\  /    A nd           | Website:  www.openfoam.com                      |
|    \\/     M anipulation  |                                                 |
\*---------------------------------------------------------------------------*/
FoamFile
{
    version     2.0;
    format      ascii;
    arch        "LSB;label=32;scalar=64";
    class       volVectorField;
    location    "0.7";
    object      U;
}
// * * * * * * * * * * * * * * * * * * * * * * * * * * * * * * * * * * * * * //

dimensions      [0 1 -1 0 0 0 0];

internalField   nonuniform List<vector> 
400
(
(7.8897e-05 -7.88325e-05 0)
(7.24906e-05 2.39913e-05 0)
(-0.000159996 0.000126946 0)
(-0.00112479 0.000293002 0)
(-0.00276425 0.000434754 0)
(-0.00471877 0.000489857 0)
(-0.00673308 0.000470548 0)
(-0.00819365 0.000365842 0)
(-0.0104095 0.000311827 0)
(-0.0111587 0.000104985 0)
(-1.88607e-05 -7.71631e-05 0)
(-0.000734691 0.000741438 0)
(-0.00193841 0.00150361 0)
(-0.00529888 0.00268744 0)
(-0.0101481 0.00355099 0)
(-0.0159555 0.00395278 0)
(-0.0220449 0.00385245 0)
(-0.027743 0.00332586 0)
(-0.0328436 0.00249734 0)
(-0.0363191 0.00090212 0)
(-0.000119223 0.000145984 0)
(-0.00150938 0.00194706 0)
(-0.00346758 0.00344297 0)
(-0.00849676 0.00574288 0)
(-0.0153161 0.00737387 0)
(-0.0233272 0.00811389 0)
(-0.0318557 0.0079345 0)
(-0.039748 0.00684354 0)
(-0.0463918 0.00505134 0)
(-0.0515203 0.00185859 0)
(-0.000296106 0.0011167 0)
(-0.00285166 0.00542562 0)
(-0.0061183 0.00858878 0)
(-0.0138555 0.0132126 0)
(-0.0237414 0.0163523 0)
(-0.03508 0.0177479 0)
(-0.0469543 0.0172357 0)
(-0.0580195 0.0149401 0)
(-0.0670312 0.0109025 0)
(-0.0740875 0.00402439 0)
(-0.000488819 0.00290259 0)
(-0.00416877 0.0108578 0)
(-0.00869981 0.0161521 0)
(-0.0190233 0.0235739 0)
(-0.0319845 0.0285656 0)
(-0.0464784 0.0305937 0)
(-0.0612541 0.0294301 0)
(-0.0748051 0.0253152 0)
(-0.0861304 0.0186048 0)
(-0.0946673 0.00679185 0)
(-0.000644695 0.00532213 0)
(-0.00541845 0.018251 0)
(-0.0111792 0.0262657 0)
(-0.0241334 0.037115 0)
(-0.0401147 0.0441429 0)
(-0.0576802 0.0467031 0)
(-0.075316 0.0445676 0)
(-0.0913182 0.038136 0)
(-0.104682 0.028026 0)
(-0.114756 0.0102539 0)
(-0.000775802 0.00834684 0)
(-0.00660604 0.0276242 0)
(-0.0136785 0.0392466 0)
(-0.0293229 0.0542305 0)
(-0.0482501 0.0633562 0)
(-0.0688394 0.0663036 0)
(-0.0894414 0.062895 0)
(-0.108023 0.0536669 0)
(-0.123214 0.0390971 0)
(-0.134968 0.014518 0)
(-0.000822949 0.0114376 0)
(-0.0078136 0.0390703 0)
(-0.0161293 0.0549326 0)
(-0.0346846 0.0748719 0)
(-0.0565334 0.0861848 0)
(-0.0800717 0.0893139 0)
(-0.103584 0.0841725 0)
(-0.124577 0.0715982 0)
(-0.141469 0.0517685 0)
(-0.154753 0.019685 0)
(-0.0011139 0.0169723 0)
(-0.00937167 0.0536311 0)
(-0.0190383 0.0741985 0)
(-0.0403738 0.0996117 0)
(-0.0655047 0.113319 0)
(-0.0920285 0.116127 0)
(-0.117869 0.10877 0)
(-0.140734 0.092162 0)
(-0.158634 0.0669894 0)
(-0.173803 0.025632 0)
(-0.00125389 0.0233895 0)
(-0.0112482 0.0755461 0)
(-0.0229984 0.104105 0)
(-0.0482741 0.137492 0)
(-0.0770137 0.154289 0)
(-0.106629 0.156272 0)
(-0.134937 0.14457 0)
(-0.159237 0.121266 0)
(-0.178561 0.0876626 0)
(-0.194032 0.0346439 0)
(-0.0111778 -9.85257e-05 0)
(-0.0104446 -0.000312759 0)
(-0.00820974 -0.000372582 0)
(-0.00671078 -0.000481337 0)
(-0.00465559 -0.000498941 0)
(-0.00267922 -0.00043709 0)
(-0.00104911 -0.000287366 0)
(-0.000115695 -0.000116719 0)
(9.52077e-05 -1.44516e-05 0)
(8.02303e-05 7.98598e-05 0)
(-0.0363591 -0.000864267 0)
(-0.0329104 -0.00250777 0)
(-0.0277598 -0.00337761 0)
(-0.021968 -0.00392409 0)
(-0.0157827 -0.00401022 0)
(-0.00992402 -0.00356435 0)
(-0.00509196 -0.00264859 0)
(-0.0018081 -0.00143414 0)
(-0.000662151 -0.000676197 0)
(-7.93396e-06 0.00010016 0)
(-0.0515704 -0.00179042 0)
(-0.0464753 -0.00507314 0)
(-0.0397689 -0.00694381 0)
(-0.031759 -0.00807146 0)
(-0.0231085 -0.00822281 0)
(-0.0150292 -0.00740002 0)
(-0.00822557 -0.00566951 0)
(-0.00329245 -0.00330807 0)
(-0.00141036 -0.00181838 0)
(-0.000104385 -9.59594e-05 0)
(-0.0741733 -0.0038849 0)
(-0.0671975 -0.0109407 0)
(-0.0581246 -0.0151379 0)
(-0.0469139 -0.0175093 0)
(-0.0348722 -0.0179724 0)
(-0.0234217 -0.0164176 0)
(-0.0135268 -0.0130789 0)
(-0.00589234 -0.008321 0)
(-0.00271975 -0.00516067 0)
(-0.000275218 -0.00100153 0)
(-0.0948458 -0.00650655 0)
(-0.0865353 -0.0186234 0)
(-0.0751918 -0.0256105 0)
(-0.0614782 -0.0298797 0)
(-0.0464692 -0.0309961 0)
(-0.0317739 -0.0287292 0)
(-0.0187266 -0.0234127 0)
(-0.00846326 -0.0157502 0)
(-0.00402103 -0.0104356 0)
(-0.000461786 -0.00269883 0)
(-0.115124 -0.00964315 0)
(-0.105585 -0.0279145 0)
(-0.0923139 -0.0385027 0)
(-0.0761509 -0.0452463 0)
(-0.0581825 -0.0473937 0)
(-0.0402545 -0.0445329 0)
(-0.0240198 -0.0370288 0)
(-0.011003 -0.0257778 0)
(-0.00528917 -0.0176884 0)
(-0.000616344 -0.0050245 0)
(-0.135665 -0.013228 0)
(-0.124978 -0.0386217 0)
(-0.11012 -0.0540218 0)
(-0.0914082 -0.0638686 0)
(-0.0703302 -0.0674638 0)
(-0.0491214 -0.0642108 0)
(-0.0296468 -0.0544452 0)
(-0.0136859 -0.0388202 0)
(-0.00655609 -0.0270107 0)
(-0.000753592 -0.00797136 0)
(-0.155954 -0.0171495 0)
(-0.14454 -0.0505288 0)
(-0.128384 -0.0717749 0)
(-0.107359 -0.0854978 0)
(-0.0831951 -0.0912077 0)
(-0.0586705 -0.0878921 0)
(-0.0358128 -0.0757932 0)
(-0.0165007 -0.0548678 0)
(-0.00793522 -0.0386166 0)
(-0.000817005 -0.0110466 0)
(-0.175686 -0.0209229 0)
(-0.163568 -0.0644 0)
(-0.14701 -0.0917841 0)
(-0.124309 -0.110462 0)
(-0.097645 -0.119108 0)
(-0.0696593 -0.11649 0)
(-0.0428556 -0.101938 0)
(-0.0200719 -0.0750973 0)
(-0.00981715 -0.053769 0)
(-0.00114424 -0.0166719 0)
(-0.196982 -0.0254399 0)
(-0.186428 -0.0818136 0)
(-0.169529 -0.119398 0)
(-0.145956 -0.146623 0)
(-0.116741 -0.161303 0)
(-0.0849538 -0.160551 0)
(-0.0533936 -0.143093 0)
(-0.0253792 -0.107563 0)
(-0.0123683 -0.0774728 0)
(-0.00135973 -0.0235557 0)
(-0.0015704 0.032539 0)
(-0.0137716 0.103142 0)
(-0.0278469 0.140747 0)
(-0.057109 0.182435 0)
(-0.0887742 0.200787 0)
(-0.119784 0.199885 0)
(-0.147877 0.182162 0)
(-0.170942 0.151406 0)
(-0.188421 0.108908 0)
(-0.202631 0.0443183 0)
(-0.00222636 0.0457674 0)
(-0.0173952 0.136792 0)
(-0.0338956 0.182124 0)
(-0.0664925 0.230083 0)
(-0.0993276 0.247679 0)
(-0.128033 0.240481 0)
(-0.150854 0.214346 0)
(-0.167574 0.175069 0)
(-0.178759 0.126441 0)
(-0.18833 0.0520718 0)
(-0.00244984 0.052998 0)
(-0.0206489 0.16458 0)
(-0.0397848 0.218275 0)
(-0.0745538 0.268534 0)
(-0.104537 0.28006 0)
(-0.127002 0.265095 0)
(-0.141477 0.231113 0)
(-0.149655 0.186049 0)
(-0.15214 0.131307 0)
(-0.154447 0.0557474 0)
(-0.00365357 0.0689845 0)
(-0.0260275 0.19783 0)
(-0.0479281 0.25606 0)
(-0.081999 0.302372 0)
(-0.105115 0.303954 0)
(-0.115646 0.277761 0)
(-0.11575 0.235168 0)
(-0.109699 0.184667 0)
(-0.101587 0.129375 0)
(-0.0936961 0.0548215 0)
(-0.00550027 0.0871601 0)
(-0.0343913 0.236692 0)
(-0.058577 0.295391 0)
(-0.087039 0.328885 0)
(-0.0947413 0.313102 0)
(-0.0851408 0.272952 0)
(-0.0645453 0.222353 0)
(-0.0403667 0.169562 0)
(-0.0197697 0.117196 0)
(0.000546296 0.0494206 0)
(-0.00919452 0.111531 0)
(-0.0467908 0.279599 0)
(-0.0704647 0.330759 0)
(-0.0812306 0.337408 0)
(-0.060571 0.298208 0)
(-0.0218647 0.244709 0)
(0.023734 0.189983 0)
(0.0665343 0.139887 0)
(0.100425 0.0943834 0)
(0.130531 0.0395093 0)
(-0.0167524 0.145777 0)
(-0.06214 0.321999 0)
(-0.073986 0.348996 0)
(-0.0426337 0.312074 0)
(0.0230891 0.248806 0)
(0.0965258 0.189036 0)
(0.165574 0.138498 0)
(0.221151 0.0981906 0)
(0.266183 0.0639231 0)
(0.299272 0.0265576 0)
(-0.0313162 0.212258 0)
(-0.0560432 0.337271 0)
(-0.0201335 0.311307 0)
(0.0907151 0.227575 0)
(0.206066 0.158273 0)
(0.304292 0.109306 0)
(0.382233 0.0750728 0)
(0.440739 0.0505867 0)
(0.482085 0.0322509 0)
(0.51272 0.0129365 0)
(-0.0237904 0.2679 0)
(0.0166342 0.293892 0)
(0.111302 0.231568 0)
(0.271273 0.143541 0)
(0.395445 0.0905852 0)
(0.4878 0.0589223 0)
(0.556964 0.0387497 0)
(0.605746 0.0254303 0)
(0.634899 0.016205 0)
(0.662118 0.00620826 0)
(0.264283 0.169879 0)
(0.45397 0.11214 0)
(0.610398 0.0614286 0)
(0.738825 0.0255695 0)
(0.795711 0.0135906 0)
(0.835079 0.00784076 0)
(0.862662 0.00476106 0)
(0.886488 0.00269678 0)
(0.889352 0.00190232 0)
(0.902415 0.000611025 0)
(-0.2065 -0.0283691 0)
(-0.19898 -0.0979289 0)
(-0.185268 -0.146571 0)
(-0.163843 -0.183947 0)
(-0.135198 -0.207397 0)
(-0.101582 -0.211658 0)
(-0.0659218 -0.193599 0)
(-0.0322521 -0.149091 0)
(-0.015943 -0.108737 0)
(-0.00180935 -0.0338443 0)
(-0.19219 -0.0285445 0)
(-0.189833 -0.109094 0)
(-0.183181 -0.165794 0)
(-0.169385 -0.214448 0)
(-0.147239 -0.249767 0)
(-0.116475 -0.263748 0)
(-0.0790861 -0.248577 0)
(-0.0406755 -0.197761 0)
(-0.0209399 -0.148406 0)
(-0.00269165 -0.0492948 0)
(-0.157267 -0.0270316 0)
(-0.160576 -0.108997 0)
(-0.162726 -0.172466 0)
(-0.158196 -0.228628 0)
(-0.145891 -0.274509 0)
(-0.122889 -0.299425 0)
(-0.0892708 -0.293249 0)
(-0.0482356 -0.241018 0)
(-0.025153 -0.182083 0)
(-0.00301262 -0.0584799 0)
(-0.094337 -0.0234533 0)
(-0.104434 -0.10368 0)
(-0.115573 -0.167171 0)
(-0.125563 -0.228955 0)
(-0.129353 -0.285036 0)
(-0.120895 -0.324338 0)
(-0.096507 -0.331834 0)
(-0.057352 -0.28594 0)
(-0.0313571 -0.222109 0)
(-0.00445692 -0.0776664 0)
(0.00288804 -0.0189727 0)
(-0.0143911 -0.0907576 0)
(-0.0349476 -0.149443 0)
(-0.0619179 -0.211929 0)
(-0.0874435 -0.275723 0)
(-0.102242 -0.330945 0)
(-0.0974826 -0.359939 0)
(-0.0673693 -0.331119 0)
(-0.0399768 -0.267655 0)
(-0.00649456 -0.0993261 0)
(0.135794 -0.0140154 0)
(0.11448 -0.0708268 0)
(0.0846394 -0.119971 0)
(0.0420917 -0.176547 0)
(-0.00740531 -0.241722 0)
(-0.053291 -0.309576 0)
(-0.0819417 -0.364722 0)
(-0.0756832 -0.368434 0)
(-0.0513642 -0.315202 0)
(-0.0103417 -0.127195 0)
(0.306285 -0.00917217 0)
(0.285818 -0.046878 0)
(0.248749 -0.0821031 0)
(0.197609 -0.125169 0)
(0.128501 -0.181476 0)
(0.049406 -0.251363 0)
(-0.0271617 -0.329465 0)
(-0.0706615 -0.381729 0)
(-0.063095 -0.3574 0)
(-0.0179041 -0.164088 0)
(0.51909 -0.00470034 0)
(0.500631 -0.0236099 0)
(0.468339 -0.041637 0)
(0.41724 -0.0661633 0)
(0.344245 -0.101645 0)
(0.246316 -0.154355 0)
(0.124315 -0.231851 0)
(-0.00152879 -0.329705 0)
(-0.047891 -0.36343 0)
(-0.031349 -0.231698 0)
(0.666753 -0.00245053 0)
(0.648918 -0.0120416 0)
(0.626832 -0.0209603 0)
(0.585058 -0.0338736 0)
(0.522144 -0.0539355 0)
(0.433563 -0.0864624 0)
(0.308154 -0.142682 0)
(0.138275 -0.239312 0)
(0.0328846 -0.309333 0)
(-0.0205163 -0.284001 0)
(0.903565 -0.000345926 0)
(0.893134 -0.00153978 0)
(0.891932 -0.00232619 0)
(0.870898 -0.00422143 0)
(0.84619 -0.00711677 0)
(0.8098 -0.012577 0)
(0.755296 -0.0241422 0)
(0.62839 -0.0602059 0)
(0.469628 -0.11268 0)
(0.270343 -0.17305 0)
)
;

boundaryField
{
    movingWall
    {
        type            fixedValue;
        value           uniform (1 0 0);
    }
    fixedWalls
    {
        type            noSlip;
    }
    frontAndBack
    {
        type            empty;
    }
}


// ************************************************************************* //
