/*--------------------------------*- C++ -*----------------------------------*\
| =========                 |                                                 |
| \\      /  F ield         | OpenFOAM: The Open Source CFD Toolbox           |
|  \\    /   O peration     | Version:  2506                                  |
|   \\  /    A nd           | Website:  www.openfoam.com                      |
|    \\/     M anipulation  |                                                 |
\*---------------------------------------------------------------------------*/
FoamFile
{
    version     2.0;
    format      ascii;
    arch        "LSB;label=32;scalar=64";
    class       volVectorField;
    location    "250";
    object      momentError;
}
// * * * * * * * * * * * * * * * * * * * * * * * * * * * * * * * * * * * * * //

dimensions      [0 1 -2 0 0 0 0];

internalField   nonuniform List<vector> 
10720
(
(0.0263026 -0.108366 -6.95781e-15)
(0.0178914 -0.106787 2.41198e-14)
(0.000390567 -0.0896488 -4.72416e-14)
(-0.00710528 -0.0853273 1.7776e-14)
(-0.0122882 -0.0768135 1.10266e-13)
(-0.0158084 -0.0681 -1.75136e-13)
(-0.018754 -0.0597353 9.00135e-14)
(-0.0195946 -0.0502886 -1.1108e-13)
(-0.0191815 -0.0420132 -2.54683e-13)
(-0.0179263 -0.0338283 3.44173e-13)
(-0.0159666 -0.0285137 1.24176e-13)
(-0.00945608 -0.0170885 -2.28846e-13)
(-0.0043117 -0.00979968 -3.34591e-13)
(0.000472568 -0.00338177 -5.72117e-14)
(0.00637008 0.00277553 -1.39795e-13)
(0.0129779 0.00867666 -3.1047e-13)
(0.0211745 0.0141432 -1.46798e-13)
(0.031529 0.0191572 8.32978e-13)
(0.0445688 0.0237954 4.23498e-13)
(0.0599172 0.0269018 -5.95439e-13)
(0.0743698 0.0289237 1.05431e-13)
(0.081161 0.0254231 1.53378e-13)
(0.0598997 0.0171579 -6.74895e-14)
(0.0516469 0.014313 -1.51902e-13)
(0.0511013 0.010573 3.5836e-14)
(0.0294271 0.00369008 -2.34779e-15)
(0.016537 0.000115208 4.1565e-14)
(0.00452331 -0.00234233 -1.64748e-14)
(0.00317203 -0.00305173 4.39967e-14)
(0.0129699 -0.00273547 1.54685e-13)
(0.0194066 -0.00231155 3.03771e-14)
(0.0203087 -0.0019175 -1.28809e-13)
(0.0174899 -0.00166358 -7.75034e-15)
(0.0145359 -0.00164338 -2.16112e-13)
(0.0123284 -0.00156517 -2.83045e-13)
(0.011361 -0.000292405 1.15805e-13)
(0.0133783 0.0100464 -1.14011e-14)
(0.0605975 0.0731755 -4.66787e-16)
(1.11192 -0.122551 -6.80265e-14)
(0.0300918 -0.101071 -1.07645e-14)
(0.0325065 -0.0816118 2.65564e-14)
(0.0321251 -0.0605795 1.72996e-15)
(0.0270724 -0.0438589 3.61672e-14)
(0.0223112 -0.0313218 -3.28896e-14)
(0.0171562 -0.0178342 -9.40227e-14)
(0.00720211 -0.00487359 -1.07377e-13)
(0.000350001 0.00114424 2.99489e-14)
(0.00215316 -0.00207743 -7.51798e-14)
(0.00765676 -0.00672175 9.57866e-14)
(0.0084359 -0.00538714 -6.00426e-14)
(0.0068909 -0.0036861 -1.46133e-13)
(0.00651282 -0.00326476 -1.64684e-13)
(0.00641514 -0.00284114 1.3212e-14)
(0.00576095 -0.002255 1.33048e-13)
(0.00503329 -0.00184358 3.99438e-14)
(0.00452824 -0.00156706 -5.03134e-14)
(0.00410447 -0.00133921 -3.54824e-14)
(0.00370435 -0.00114013 -2.18209e-14)
(0.00334564 -0.000976817 3.90481e-14)
(0.00304308 -0.000834241 1.73023e-14)
(0.00277631 -0.000713369 2.50601e-14)
(0.00254461 -0.000601485 -3.38535e-14)
(0.00233137 -0.000509558 -2.46681e-14)
(0.00211126 -0.000400061 1.8196e-14)
(0.00187629 -0.000372553 1.2423e-14)
(0.00170213 -0.000324183 6.94111e-15)
(0.00160446 -6.91524e-05 -1.46525e-15)
(0.0014986 0.000117502 -2.85273e-16)
(0.0014011 0.000123021 2.27308e-16)
(0.00125665 0.000105686 -4.48071e-16)
(0.00114887 0.000101486 -1.85665e-15)
(0.00103591 0.000102003 -1.27149e-15)
(0.000951014 0.000103757 -3.76329e-15)
(0.000841334 0.000101799 -2.7994e-15)
(0.000781928 9.16854e-05 1.24063e-15)
(0.000751972 5.07703e-05 -2.19133e-15)
(0.000437445 -0.000154174 -1.1103e-14)
(0.00139964 -0.00121325 -2.15541e-14)
(-0.00983027 -0.0752965 -1.31406e-14)
(-0.0181613 -0.0748784 5.88878e-15)
(-0.0235666 -0.0628684 7.82085e-15)
(-0.0316307 -0.0605923 -3.36811e-14)
(-0.0365794 -0.0561118 2.10372e-14)
(-0.0396332 -0.0509153 8.0425e-14)
(-0.0429707 -0.0452698 1.0392e-13)
(-0.044377 -0.0394628 1.00668e-13)
(-0.0441437 -0.0338317 -3.99867e-15)
(-0.0436096 -0.0288562 1.90727e-13)
(-0.0412523 -0.0229618 -2.08897e-13)
(-0.0412523 -0.0263244 -1.1956e-13)
(-0.0406293 -0.0267398 4.4871e-13)
(-0.0405574 -0.0250773 1.28293e-13)
(-0.0369781 -0.0254588 -1.19209e-13)
(-0.0338626 -0.0258257 -1.78061e-14)
(-0.0297381 -0.0272127 3.42136e-13)
(-0.0237815 -0.0290121 -1.53486e-13)
(-0.0142041 -0.0311421 -4.92002e-13)
(0.00610837 -0.0329655 1.88489e-13)
(0.0180921 -0.0275553 2.35507e-13)
(0.0662669 -0.0220285 4.67284e-14)
(0.136939 0.00478889 -1.30547e-13)
(0.149345 0.0182182 1.92587e-13)
(0.0618434 0.00422975 -4.19712e-14)
(0.0175704 -0.00213637 -7.05547e-14)
(0.0301932 -0.00062714 -3.02076e-14)
(0.0221202 -0.00506452 5.59344e-15)
(0.0264864 -0.00601468 -1.50535e-14)
(0.0333576 -0.00433444 -1.60212e-14)
(0.027236 -0.00358689 -2.04019e-14)
(0.0220598 -0.0034527 3.55308e-14)
(0.0224404 -0.00350958 -1.88503e-13)
(0.0218228 -0.00346596 -2.24106e-13)
(0.0200041 -0.0032599 1.62685e-13)
(0.0214883 -0.00282322 -3.95034e-14)
(0.0201841 -0.00109557 3.32259e-14)
(-0.0157363 0.011463 -1.42075e-14)
(-0.890297 0.107787 -3.88431e-14)
(-0.00428306 -0.0708796 -4.64008e-15)
(0.00291576 -0.0594648 1.24087e-13)
(0.00851361 -0.0464484 -7.98538e-15)
(0.0107109 -0.0361172 -1.29069e-13)
(0.0117729 -0.0266266 -2.56859e-14)
(0.0114045 -0.016869 1.27356e-13)
(0.00758982 -0.00797821 1.11431e-13)
(0.00455184 -0.00391826 5.95778e-14)
(0.00545086 -0.00489451 -8.26072e-14)
(0.00820729 -0.0058673 -1.06331e-14)
(0.00915339 -0.00416473 1.01895e-13)
(0.0085391 -0.00306542 -5.20772e-15)
(0.00812589 -0.0026181 1.22898e-14)
(0.0078252 -0.00195452 -2.47948e-14)
(0.00717514 -0.00132194 -3.25918e-14)
(0.00641296 -0.00098899 1.4157e-14)
(0.00580758 -0.000781665 1.70868e-14)
(0.0052947 -0.000617739 -5.8052e-14)
(0.00482311 -0.000485522 2.69346e-14)
(0.00439864 -0.000391387 1.78489e-14)
(0.00403394 -0.000306836 1.46826e-14)
(0.0037104 -0.000235779 3.19188e-14)
(0.00342082 -0.000167272 4.18008e-14)
(0.00314486 -9.02389e-05 1.76571e-14)
(0.00286761 8.38553e-06 -1.51734e-14)
(0.00258946 9.72558e-05 8.15527e-16)
(0.00232325 0.000148608 -5.69184e-15)
(0.00209852 0.00016313 -2.09083e-15)
(0.00190913 0.000128483 3.94719e-16)
(0.00172406 9.03918e-05 -3.72706e-17)
(0.00162413 6.93722e-05 2.76779e-16)
(0.00149857 9.33788e-05 6.09598e-16)
(0.00137702 0.000108604 1.83923e-15)
(0.0012567 0.00011905 2.30643e-15)
(0.00116497 0.000130037 7.32109e-16)
(0.00113859 0.000129536 -1.53609e-15)
(0.00121761 0.000116967 -5.46667e-17)
(0.00117177 9.57402e-05 3.80223e-15)
(0.00173566 0.000375981 9.23111e-15)
(0.00485358 -0.0602968 -5.07166e-15)
(0.000697266 -0.0596154 -8.24505e-16)
(-0.00431206 -0.0505154 -5.84503e-15)
(-0.00884437 -0.0506852 1.5562e-14)
(-0.0117333 -0.0484953 3.91529e-15)
(-0.0142202 -0.0448858 -3.37543e-14)
(-0.0166751 -0.0415299 -1.07638e-13)
(-0.0180775 -0.0377894 -9.54459e-14)
(-0.0186515 -0.0336131 -1.11345e-13)
(-0.0187407 -0.0296069 1.10122e-14)
(-0.0181325 -0.0257545 2.64117e-13)
(-0.0169806 -0.0215271 7.06341e-14)
(-0.0157891 -0.0172062 -9.93301e-14)
(-0.0139509 -0.0139942 -2.41109e-13)
(-0.0143868 -0.0105347 1.10274e-13)
(-0.0162112 -0.00759628 1.45957e-13)
(-0.018284 -0.00617773 -9.4268e-14)
(-0.0218344 -0.00595856 -1.89389e-13)
(-0.0285301 -0.00691523 3.1724e-13)
(-0.0426159 -0.0119207 -9.49149e-14)
(-0.0458048 -0.0299109 -1.19707e-13)
(-0.0658658 -0.0285674 1.78748e-13)
(-0.0928462 -0.0380763 7.36763e-14)
(-0.0810151 -0.0244288 -3.32892e-15)
(-0.00576327 0.000606231 -3.30708e-14)
(0.029447 0.0146525 3.60208e-15)
(0.0252684 0.00646951 -3.06079e-14)
(0.053751 -0.00150605 2.10898e-14)
(0.111299 -0.00137781 -3.31675e-14)
(0.0904503 -4.0592e-05 -7.22227e-14)
(0.0566441 -0.00164856 6.9705e-14)
(0.0420386 -0.00280558 3.08434e-14)
(0.0297598 -0.00335397 -1.21961e-13)
(0.0229896 -0.00372442 7.81212e-14)
(0.0203021 -0.00376924 1.6821e-14)
(0.022101 -0.00350423 -3.634e-14)
(0.0220373 -0.00281685 -1.00368e-13)
(0.0046089 -0.00192325 2.80319e-14)
(-0.0896292 0.00566972 1.02052e-14)
(0.00813178 -0.0572983 2.92147e-14)
(0.0103158 -0.0486746 -2.76841e-14)
(0.0117445 -0.0380437 -9.83351e-14)
(0.0122348 -0.0305036 4.48535e-14)
(0.0116597 -0.0232434 2.06033e-14)
(0.0102513 -0.0158743 -6.45743e-14)
(0.00774168 -0.00896999 1.35457e-14)
(0.00646751 -0.00643392 -1.1765e-13)
(0.00765216 -0.00682674 -7.91924e-14)
(0.00918743 -0.00664192 -8.81227e-14)
(0.00965606 -0.00555814 9.7542e-14)
(0.00915787 -0.00469936 1.45311e-14)
(0.0085719 -0.00403426 -1.36544e-14)
(0.00804511 -0.00328891 -8.0906e-14)
(0.00736274 -0.00263719 -5.80926e-14)
(0.00659278 -0.00219085 3.78602e-14)
(0.00592628 -0.00185126 -2.13777e-14)
(0.00536761 -0.00156144 -4.39786e-14)
(0.0048696 -0.00132156 -4.00546e-15)
(0.00442539 -0.00112798 -4.02483e-14)
(0.00404417 -0.000958495 -4.30126e-14)
(0.00370932 -0.000808828 -8.43532e-14)
(0.00340601 -0.000669193 -6.39699e-14)
(0.0031129 -0.000531397 -1.80093e-14)
(0.00282172 -0.000389609 3.95418e-15)
(0.00253368 -0.000275848 -1.15147e-15)
(0.00226429 -0.000208494 -1.05409e-14)
(0.00203286 -0.000149733 4.48198e-15)
(0.00182857 -7.8062e-05 5.83483e-16)
(0.00164334 -1.21981e-05 -1.81884e-16)
(0.00150073 7.32325e-05 -7.46229e-18)
(0.00137473 0.00010426 -5.28272e-16)
(0.00125171 0.000111927 -9.73873e-16)
(0.00114113 0.000109052 -1.45563e-15)
(0.00100862 0.000116843 1.91618e-15)
(0.000865675 0.000182964 6.50494e-17)
(0.0008939 0.000175384 1.45162e-14)
(0.000946552 7.73356e-05 8.77025e-15)
(0.00146938 0.000325509 -1.03642e-13)
(-0.00275809 -0.0469873 7.9258e-15)
(-0.00682544 -0.0463557 -2.34245e-15)
(-0.0100459 -0.0397102 6.22918e-17)
(-0.0143887 -0.0397937 -7.1297e-15)
(-0.0171787 -0.0377152 2.00611e-15)
(-0.0195908 -0.0347292 3.58309e-14)
(-0.0220156 -0.0319887 5.84853e-14)
(-0.0234897 -0.0287956 5.46477e-14)
(-0.0242132 -0.0252504 -1.33428e-13)
(-0.0244639 -0.0218128 -1.1167e-13)
(-0.0240055 -0.0184092 1.41561e-13)
(-0.0230115 -0.0152151 2.56645e-13)
(-0.0214244 -0.0128181 1.35741e-13)
(-0.0195206 -0.0112404 -4.72266e-13)
(-0.0182705 -0.00953391 -1.62209e-13)
(-0.0144512 -0.0103372 3.86008e-13)
(-0.0117124 -0.010479 8.39661e-14)
(-0.0089111 -0.0112735 -1.24318e-13)
(-0.00667911 -0.0128101 -2.28517e-13)
(-0.00637868 -0.0169808 1.9801e-13)
(-0.00776723 -0.0143427 4.36175e-14)
(-0.0217818 -0.0221614 -2.22595e-13)
(-0.0328634 -0.0172846 1.65669e-13)
(-0.0467284 -0.0130731 -1.14146e-13)
(-0.0516472 -0.00380886 -3.72448e-14)
(-0.0352827 -0.00115286 3.56684e-14)
(-0.0247488 0.00191718 -4.55966e-14)
(0.0798085 -0.0143936 1.00765e-14)
(-0.038404 -0.0055834 1.36767e-14)
(-0.0438558 0.00451097 2.11365e-14)
(0.0408831 -0.0034474 -9.15117e-15)
(0.0364261 -0.000252582 2.55548e-14)
(0.0355661 -0.00214148 2.07611e-13)
(0.0297473 -0.00289823 5.40565e-14)
(0.0234018 -0.0035244 -7.63962e-14)
(0.022724 -0.00383196 -1.16762e-13)
(0.0240524 -0.00413062 1.68119e-14)
(0.0184375 -0.00540976 -2.85867e-14)
(-0.00499607 0.0039325 4.57776e-14)
(0.000862842 -0.0448108 1.88148e-14)
(0.00408012 -0.0391106 -3.6872e-14)
(0.00676001 -0.0315273 -4.03554e-15)
(0.00840705 -0.0261788 -3.37277e-14)
(0.00907202 -0.0205355 -2.08261e-14)
(0.00868797 -0.0147006 7.34805e-14)
(0.00735197 -0.00940763 -1.84169e-13)
(0.00702233 -0.00782665 1.69126e-13)
(0.00868825 -0.00809315 2.01391e-15)
(0.00959372 -0.00729339 -1.20422e-13)
(0.00988982 -0.00605464 -7.02457e-14)
(0.00959345 -0.00494784 -1.98402e-14)
(0.00904775 -0.00402506 5.95952e-14)
(0.00846566 -0.00318506 1.2929e-13)
(0.00779792 -0.0024586 2.11148e-14)
(0.00705243 -0.00190428 -4.73431e-14)
(0.00636835 -0.00149444 2.22025e-14)
(0.00577435 -0.00117501 5.00167e-14)
(0.00524417 -0.000926967 -3.67773e-15)
(0.00476576 -0.000737183 -7.78581e-15)
(0.00434902 -0.000584498 -2.14424e-14)
(0.00397877 -0.000456957 5.28243e-14)
(0.00363751 -0.000344608 3.09472e-14)
(0.00330573 -0.000237508 -1.07701e-14)
(0.00298226 -0.000126863 -1.6925e-14)
(0.00267347 -3.44029e-05 -6.96798e-15)
(0.00238601 2.53794e-05 1.26398e-14)
(0.00213149 7.53169e-05 -8.92545e-16)
(0.00190077 0.00011647 -5.1487e-16)
(0.00169186 0.000135066 2.02543e-16)
(0.0015169 0.000123072 -3.71644e-17)
(0.00138003 0.000112386 -3.49704e-17)
(0.00126314 0.000136414 2.68733e-16)
(0.00124667 0.000458208 4.94524e-16)
(0.00165927 0.00211391 -3.29197e-15)
(0.00180075 0.00300834 7.59837e-15)
(0.000474068 -0.0015669 -1.29189e-14)
(0.000757678 -0.000232293 -3.00415e-14)
(0.00124903 0.000321275 -1.37118e-16)
(1.03744e-05 -0.0388133 -4.0408e-15)
(-0.00271709 -0.0382472 4.77667e-15)
(-0.00512484 -0.0332318 6.07166e-17)
(-0.00823771 -0.0338983 -4.18318e-15)
(-0.0101973 -0.0326559 -2.88547e-14)
(-0.0119585 -0.0306736 3.46523e-14)
(-0.0138332 -0.0291013 1.26486e-14)
(-0.0149529 -0.0269708 -7.01827e-14)
(-0.0156376 -0.0245132 -5.8249e-14)
(-0.0159486 -0.0220917 -1.21419e-13)
(-0.0156892 -0.0196003 1.74678e-14)
(-0.0150294 -0.0172361 -1.32387e-13)
(-0.013996 -0.0151441 8.04547e-15)
(-0.0128674 -0.0132555 3.54444e-13)
(-0.0115424 -0.0117138 -2.34262e-13)
(-0.0107201 -0.00961127 -1.67711e-13)
(-0.0103789 -0.00770844 1.01605e-13)
(-0.0099462 -0.00669672 -1.31993e-13)
(-0.00945486 -0.00644263 8.4929e-14)
(-0.00915889 -0.00683938 -1.44057e-13)
(-0.00951172 -0.00772055 -1.61833e-13)
(-0.0114514 -0.00826309 1.83307e-13)
(-0.0139126 -0.00765924 -4.05483e-14)
(-0.0225982 -0.00544336 8.97144e-14)
(-0.0276441 -0.00150063 5.67842e-14)
(-0.0307348 0.00378381 6.2996e-15)
(-0.0128562 0.000743208 1.08843e-13)
(-0.0897184 0.00663629 -2.11436e-14)
(-0.028516 -0.00904323 2.25139e-14)
(-0.030336 -0.00130781 -5.58046e-14)
(-0.0192637 0.00641492 -1.55537e-13)
(-0.0195552 0.00128132 1.12455e-15)
(-0.00118055 0.00171834 1.40326e-13)
(0.0069776 -0.0003558 -3.30315e-14)
(0.0159486 -0.00219015 -1.05281e-13)
(0.0207262 -0.00346723 1.18432e-13)
(0.0242516 -0.00468961 -3.99123e-14)
(0.0243083 -0.0070249 -1.68247e-14)
(0.0122897 0.00314182 -5.01178e-16)
(0.00242564 -0.0370262 2.02814e-14)
(0.00441385 -0.0326748 1.43613e-14)
(0.00608359 -0.02663 -3.1992e-14)
(0.00729602 -0.0225155 7.88737e-14)
(0.00789611 -0.0180563 1.86884e-13)
(0.00771603 -0.0134387 -6.87659e-14)
(0.00727124 -0.0100202 -7.24461e-14)
(0.00762795 -0.00888757 1.50454e-13)
(0.00897083 -0.00856235 1.26932e-13)
(0.00966834 -0.00760566 3.56516e-14)
(0.00986372 -0.00645709 -5.19411e-14)
(0.00963386 -0.00538705 5.91851e-14)
(0.00911938 -0.00445847 4.54309e-14)
(0.0085185 -0.00364186 -3.98502e-15)
(0.00786384 -0.0029379 -9.37286e-14)
(0.0071422 -0.00237201 3.96533e-15)
(0.00646097 -0.00194292 3.7301e-15)
(0.00585023 -0.00160395 2.07793e-16)
(0.00530588 -0.00133049 1.51401e-14)
(0.00481263 -0.00110993 -5.43026e-15)
(0.00437958 -0.00092717 1.23037e-14)
(0.00399418 -0.000768622 -2.67327e-14)
(0.00363801 -0.000624942 -1.53716e-14)
(0.00329123 -0.000487645 1.55101e-14)
(0.00295778 -0.000355382 2.09663e-14)
(0.00264556 -0.00024472 1.25744e-15)
(0.00235638 -0.000167045 -1.23918e-15)
(0.00209912 -0.000107284 -3.26494e-15)
(0.00186698 -5.82652e-05 6.55912e-16)
(0.00165668 -2.52724e-05 -1.05505e-16)
(0.00147278 1.10326e-06 -5.38151e-16)
(0.00132775 5.05966e-05 -3.05158e-17)
(0.00120048 2.23918e-05 1.07955e-16)
(0.00107972 -0.000462439 -3.47628e-17)
(0.000820783 -0.00284771 -9.37799e-16)
(0.000575852 -0.00378472 -7.00561e-16)
(0.000690902 0.00236655 1.03555e-14)
(0.000821953 0.000309455 -1.0894e-14)
(0.00110069 0.000158933 5.51085e-15)
(-0.00109629 -0.0319864 1.93884e-15)
(-0.0035001 -0.0314756 5.0557e-16)
(-0.00543214 -0.0275943 3.16187e-15)
(-0.00819911 -0.0281996 -2.46057e-15)
(-0.0099942 -0.0272126 -1.08537e-15)
(-0.0116199 -0.0255493 1.63552e-14)
(-0.0134086 -0.0242094 7.60977e-15)
(-0.0145385 -0.0223809 4.04931e-14)
(-0.0152916 -0.0202439 6.79932e-14)
(-0.0157562 -0.0181091 -3.20571e-14)
(-0.0157024 -0.0158975 -7.79614e-15)
(-0.0152958 -0.0137352 7.50338e-14)
(-0.0145947 -0.0117682 -1.45548e-13)
(-0.0136289 -0.0100656 -2.89464e-13)
(-0.0125336 -0.0086264 1.7527e-13)
(-0.0115172 -0.00726704 2.68433e-13)
(-0.00980763 -0.00755852 -3.5594e-13)
(-0.00866281 -0.00808312 6.06788e-14)
(-0.00773295 -0.00914259 1.11944e-13)
(-0.00736885 -0.0105553 -1.1297e-13)
(-0.00795765 -0.0118706 8.56174e-14)
(-0.00944852 -0.0123508 -8.73202e-14)
(-0.0116559 -0.0106763 -1.69348e-13)
(-0.0137694 -0.00630877 -5.0328e-14)
(-0.0143403 -0.00121516 -1.1624e-13)
(-0.0130166 0.00211856 5.63179e-14)
(-0.0172779 0.00279401 -1.62147e-14)
(-0.0116083 -0.000234039 -1.09068e-14)
(-0.0053116 -0.00230947 2.13865e-14)
(0.011807 -0.0048203 4.2602e-14)
(-0.0391888 0.00301679 3.28976e-14)
(-0.0167296 0.0015814 -4.52536e-14)
(-0.0194186 0.00248623 -1.16585e-13)
(-0.0154062 0.00154159 -1.48771e-13)
(-0.00959063 0.000282885 3.36006e-14)
(0.00287613 -0.00201319 7.36799e-14)
(0.0182661 -0.0038304 8.51439e-14)
(0.0262142 -0.00757558 3.89124e-14)
(0.0182654 0.00263587 2.8713e-14)
(0.00110276 -0.0305959 8.59375e-15)
(0.00299267 -0.027356 -2.06906e-14)
(0.00466209 -0.0226513 1.04898e-14)
(0.00592629 -0.0194546 -5.82897e-15)
(0.00663177 -0.015915 4.67688e-15)
(0.00675209 -0.0121794 -7.81768e-14)
(0.00687579 -0.00996573 -2.94244e-14)
(0.00771379 -0.00926662 -3.506e-14)
(0.00884965 -0.00871113 2.74177e-14)
(0.0094251 -0.00771451 1.3574e-13)
(0.0095969 -0.00661211 -3.03622e-14)
(0.00944174 -0.00556145 -5.88496e-14)
(0.00901377 -0.00460788 2.49884e-15)
(0.00846828 -0.00376759 -5.13013e-14)
(0.00786499 -0.00304239 1.70054e-14)
(0.00719815 -0.00243607 2.54139e-14)
(0.00654915 -0.00195581 3.93228e-14)
(0.00595046 -0.00157142 1.50512e-14)
(0.00540884 -0.00126057 -1.77058e-14)
(0.00491378 -0.00101079 2.27313e-14)
(0.00447167 -0.000808491 2.51897e-14)
(0.00407292 -0.000638675 1.82657e-14)
(0.00370075 -0.000491121 3.81708e-15)
(0.00333732 -0.000357287 -1.44164e-14)
(0.00298957 -0.000233214 1.18095e-14)
(0.00266913 -0.0001291 3.28131e-15)
(0.0023738 -5.47587e-05 -1.13817e-14)
(0.00210982 1.30599e-06 1.22467e-15)
(0.00187242 4.78247e-05 -1.1952e-16)
(0.00165801 7.86728e-05 2.06939e-16)
(0.00147139 0.000103872 6.75305e-16)
(0.00131781 0.000113375 -1.63447e-16)
(0.00118695 0.000129948 -2.70805e-16)
(0.001027 0.000261033 5.63945e-16)
(0.000669032 0.00102137 1.41241e-15)
(0.000396218 0.0010613 -1.19652e-14)
(0.00113445 -0.000745316 3.47541e-15)
(0.000921477 -5.70487e-06 4.43491e-14)
(0.00146253 -0.000293958 3.11364e-14)
(-0.000672055 -0.0269293 3.0906e-15)
(-0.00252502 -0.0265715 5.81863e-16)
(-0.00404645 -0.0236149 -1.12333e-15)
(-0.00626896 -0.0243152 4.17505e-15)
(-0.00765139 -0.0236132 -8.70231e-15)
(-0.009032 -0.0224374 -1.10026e-15)
(-0.01054 -0.0215683 2.36139e-14)
(-0.0114915 -0.0201615 -1.11522e-14)
(-0.0121414 -0.0185282 -3.96331e-14)
(-0.0125545 -0.0169202 2.65443e-14)
(-0.0125341 -0.0152089 -6.07961e-14)
(-0.0122409 -0.0135339 -1.50912e-13)
(-0.0117056 -0.0120081 1.06636e-13)
(-0.0109282 -0.0106461 3.77273e-13)
(-0.0100652 -0.00947052 -1.38939e-14)
(-0.00907772 -0.00859589 -4.01479e-13)
(-0.00822117 -0.00768346 3.32613e-13)
(-0.00782027 -0.00714862 2.33426e-13)
(-0.00765443 -0.00714088 1.24617e-13)
(-0.00787498 -0.0075766 5.87596e-14)
(-0.00880325 -0.00829939 -2.88645e-14)
(-0.010577 -0.00873764 1.62019e-13)
(-0.012719 -0.00788129 1.12043e-13)
(-0.0135658 -0.00496922 -1.01985e-14)
(-0.0119973 -0.0011664 2.14324e-13)
(-0.00813894 0.00130058 -6.57145e-14)
(-0.00380609 0.000709187 -7.6535e-15)
(-0.00359626 -0.000951468 5.67992e-15)
(-0.00476429 -0.00119693 -2.01489e-14)
(-0.00786248 2.45361e-05 -2.08256e-14)
(-0.00852664 0.000890272 -1.52729e-14)
(-0.00836856 0.00104538 4.78402e-14)
(-0.00880688 0.00126583 -2.27186e-14)
(-0.00937366 0.000832791 -1.28069e-13)
(-0.0113146 0.000211473 -2.07539e-14)
(0.0074353 -0.00709782 -1.02254e-13)
(-0.00896902 0.00109751 -5.83046e-14)
(0.0184298 -0.00717804 6.54916e-15)
(0.0224945 0.00120185 -2.59556e-14)
(0.00106259 -0.0257794 -9.66406e-15)
(0.00256124 -0.0232331 1.21938e-14)
(0.00394122 -0.0194493 -2.61352e-14)
(0.00504011 -0.0169007 -3.94359e-15)
(0.00570376 -0.0140152 7.38193e-15)
(0.00594858 -0.0109358 1.10922e-14)
(0.00638723 -0.00942874 8.0641e-14)
(0.00746018 -0.00918951 -1.01462e-13)
(0.00845299 -0.00854865 -3.28004e-14)
(0.009002 -0.00759789 -3.11495e-14)
(0.00919089 -0.00659035 1.17312e-13)
(0.00909207 -0.00561781 -4.64505e-14)
(0.00874515 -0.00471073 -4.56499e-15)
(0.00827236 -0.00390543 1.8541e-14)
(0.00772955 -0.0032068 1.7787e-14)
(0.00711868 -0.00260842 1.20878e-14)
(0.00651215 -0.00212226 -7.68378e-14)
(0.00593622 -0.00172945 -2.81453e-14)
(0.00540452 -0.00140998 3.58229e-14)
(0.00491311 -0.00114992 1.42921e-15)
(0.00446907 -0.000937439 3.63957e-14)
(0.00406295 -0.000757952 -1.03949e-14)
(0.0036818 -0.000600491 1.50885e-15)
(0.0033099 -0.000457728 2.42452e-14)
(0.00295722 -0.000328317 -2.03747e-14)
(0.00263566 -0.000220287 -6.99447e-15)
(0.00234052 -0.000140003 6.58868e-15)
(0.00207585 -7.94022e-05 2.20118e-15)
(0.00183816 -3.08783e-05 -8.49308e-19)
(0.00162456 2.59301e-06 -2.58899e-16)
(0.00143853 2.47747e-05 6.44093e-16)
(0.00128167 5.02226e-05 7.30328e-17)
(0.00116199 6.09535e-05 -1.09534e-15)
(0.00105744 5.93728e-05 5.16483e-17)
(0.000965675 3.47817e-05 -3.18722e-15)
(0.000912628 0.000162563 7.27579e-15)
(0.000814377 0.000200344 -1.53782e-15)
(0.000756827 5.46137e-06 -2.50956e-15)
(0.000947527 0.00036378 -4.23929e-14)
(-0.000745181 -0.0228117 1.40063e-15)
(-0.00234488 -0.0226513 1.50881e-15)
(-0.00359199 -0.0203222 -9.51239e-16)
(-0.00551115 -0.0209424 -1.91672e-15)
(-0.00691598 -0.0204072 -3.80924e-15)
(-0.00791356 -0.0193897 1.65212e-14)
(-0.00920045 -0.0186789 1.38876e-14)
(-0.0101296 -0.0175374 -5.19374e-14)
(-0.010795 -0.016168 2.17401e-14)
(-0.0112702 -0.0147948 1.11332e-13)
(-0.0113447 -0.0133067 4.63319e-14)
(-0.0111826 -0.0118324 2.13175e-14)
(-0.0108179 -0.0104632 -1.87944e-13)
(-0.0102402 -0.00920465 -4.29988e-13)
(-0.00954483 -0.0081097 -3.04126e-13)
(-0.00876677 -0.0071905 1.20099e-13)
(-0.00799966 -0.00640037 -7.38651e-14)
(-0.00733033 -0.00649164 -3.7722e-13)
(-0.00703986 -0.00698735 -1.94669e-13)
(-0.00712802 -0.0077234 1.60932e-13)
(-0.00785552 -0.0084542 1.61036e-13)
(-0.00936288 -0.00873105 -9.34366e-14)
(-0.0114261 -0.00785452 -3.8314e-14)
(-0.0128347 -0.00530059 2.35017e-15)
(-0.0120413 -0.00187982 -6.09854e-14)
(-0.00912855 0.000434416 6.33077e-14)
(-0.00620851 0.000169072 7.22052e-15)
(-0.00529432 -0.00136577 4.32155e-15)
(-0.00530729 -0.00150892 -4.41613e-15)
(-0.00476254 -0.000585064 5.21985e-14)
(-0.00489601 0.000262766 3.49802e-14)
(-0.00420534 0.000642052 -3.48817e-15)
(-0.00363583 0.000635199 1.13227e-13)
(-0.00310995 0.00044775 7.81668e-14)
(-0.00443797 0.00197932 -4.05373e-14)
(-0.0251599 0.00196061 6.96911e-14)
(-0.0198848 -0.0015625 5.88295e-14)
(-0.00125854 -0.00446598 -3.53222e-14)
(0.0199822 0.00052183 -2.79435e-14)
(0.00074691 -0.0218591 7.39056e-15)
(0.00206728 -0.0198375 -1.20436e-14)
(0.00328889 -0.0167923 3.27065e-15)
(0.0043023 -0.0147258 6.1088e-14)
(0.00495488 -0.0123348 3.14377e-15)
(0.00535468 -0.0101268 1.01652e-13)
(0.00604262 -0.00919346 1.36657e-13)
(0.00716041 -0.00879432 -5.30054e-14)
(0.00793083 -0.00818437 -7.25307e-14)
(0.00843926 -0.00732997 -5.54147e-14)
(0.00867121 -0.0064351 -1.0217e-13)
(0.00863815 -0.00555459 -5.53162e-15)
(0.00837212 -0.00471006 -4.30532e-14)
(0.00798228 -0.0039472 5.78157e-14)
(0.00751137 -0.00327415 1.93979e-14)
(0.006967 -0.00268323 -3.07545e-14)
(0.00641505 -0.00218929 -3.26216e-15)
(0.00587542 -0.00178104 -2.54452e-14)
(0.00536621 -0.00144346 2.79146e-15)
(0.00488832 -0.00116424 -1.77735e-14)
(0.00445031 -0.000934136 -3.33871e-14)
(0.00404419 -0.000740445 1.47995e-14)
(0.00365938 -0.000572999 -2.76357e-14)
(0.00328282 -0.000424872 -1.00707e-14)
(0.00292827 -0.000294471 6.28931e-15)
(0.00260663 -0.000186455 3.97446e-15)
(0.00231191 -0.000104607 1.56493e-15)
(0.00204696 -4.29501e-05 -1.03634e-15)
(0.00180889 5.28101e-06 -4.3587e-16)
(0.00159547 3.8917e-05 -7.71081e-17)
(0.00140941 6.27378e-05 -1.04005e-15)
(0.00124745 8.12822e-05 5.61652e-16)
(0.00113219 8.99464e-05 3.09804e-15)
(0.00103217 8.78989e-05 5.3151e-17)
(0.000937109 9.8584e-05 2.51553e-15)
(0.000833556 0.000120999 -3.432e-15)
(0.000755788 8.44137e-05 -6.50894e-15)
(0.000747418 3.68829e-05 3.80399e-15)
(0.000579579 0.000510839 -2.2667e-14)
(-0.000620899 -0.019501 2.41673e-15)
(-0.0019781 -0.0201077 4.02215e-15)
(-0.00303696 -0.0177037 -1.76214e-16)
(-0.00463597 -0.018204 8.1737e-18)
(-0.00602282 -0.0181025 -2.53616e-15)
(-0.00692698 -0.0169667 -6.74313e-15)
(-0.00809265 -0.0164193 -4.94273e-15)
(-0.00858329 -0.0155117 -5.23984e-14)
(-0.00908857 -0.0144264 -1.00746e-15)
(-0.00956164 -0.0133797 1.92918e-14)
(-0.00969744 -0.0121796 -2.32999e-14)
(-0.00961113 -0.0109815 1.41294e-13)
(-0.00934501 -0.00986694 1.49125e-13)
(-0.00888979 -0.00883035 2.6953e-14)
(-0.00832713 -0.00792363 2.76959e-13)
(-0.0076968 -0.00716394 -5.76268e-14)
(-0.00702454 -0.00662571 -7.30506e-16)
(-0.00656844 -0.00624656 2.14537e-13)
(-0.00650332 -0.00636473 9.99634e-14)
(-0.00674083 -0.00668052 -2.94479e-14)
(-0.00745568 -0.00703531 -1.21949e-13)
(-0.00868838 -0.00713235 -1.15645e-14)
(-0.0102958 -0.00644407 -9.36876e-14)
(-0.0114853 -0.00450849 -8.10393e-14)
(-0.0110406 -0.00183368 4.88792e-14)
(-0.00886061 7.75926e-05 -3.1095e-14)
(-0.00655979 -1.47788e-05 -5.65004e-14)
(-0.00577061 -0.00122598 6.45094e-15)
(-0.00610663 -0.0014212 -3.11687e-15)
(-0.00614724 -0.000574308 -3.85074e-15)
(-0.00550794 0.00019608 8.21045e-14)
(-0.00453145 0.000582086 -2.93604e-14)
(-0.00355175 0.000542266 -3.91403e-14)
(-0.00263896 0.000216339 2.27283e-13)
(-0.00215269 0.000100076 3.71439e-14)
(-0.0108229 0.00453402 -8.25776e-14)
(-0.00545152 -0.00364184 -1.58726e-14)
(-0.00996663 -0.00922537 2.62417e-14)
(0.0093214 0.00334645 -4.86811e-15)
(0.000648678 -0.0186923 -1.31425e-14)
(0.00176921 -0.0170519 -3.10131e-14)
(0.00282515 -0.0145653 5.0684e-14)
(0.0037253 -0.0128644 9.71565e-14)
(0.00433685 -0.0108647 6.43171e-14)
(0.0048501 -0.00935485 -1.65786e-13)
(0.00555498 -0.00875732 -1.14063e-13)
(0.00670393 -0.008444 -3.87787e-14)
(0.00745357 -0.00771909 7.08632e-14)
(0.00784175 -0.00695141 7.3208e-14)
(0.00808858 -0.00617298 2.7297e-14)
(0.0081175 -0.00539705 2.50472e-14)
(0.00793028 -0.00463503 -2.67444e-14)
(0.00762238 -0.00393361 -8.73442e-14)
(0.00722306 -0.0033024 1.34171e-14)
(0.0067466 -0.00273736 2.70971e-14)
(0.00625282 -0.00225478 1.8441e-14)
(0.0057537 -0.00184728 5.10936e-14)
(0.00527343 -0.00150613 -2.84863e-14)
(0.00481497 -0.00122075 -2.12654e-14)
(0.00438798 -0.000983722 -1.53234e-14)
(0.00398622 -0.000783712 -3.15596e-15)
(0.00360232 -0.000611381 2.46465e-14)
(0.00322619 -0.000459956 1.64626e-14)
(0.00287407 -0.000328908 1.90977e-14)
(0.00255597 -0.000221044 6.47453e-15)
(0.00226495 -0.000137929 2.90675e-17)
(0.00200254 -7.51283e-05 2.21557e-15)
(0.00176665 -2.66047e-05 -3.08703e-16)
(0.0015555 7.39009e-06 3.03264e-16)
(0.00137139 3.08721e-05 -3.81406e-16)
(0.00120916 4.88436e-05 3.36914e-17)
(0.00109635 6.12039e-05 -1.78028e-15)
(0.00100158 6.0534e-05 4.24057e-16)
(0.000913169 6.18725e-05 4.6717e-15)
(0.000816659 7.38468e-05 -1.10993e-15)
(0.000749783 5.8023e-05 8.93803e-16)
(0.000759731 1.2795e-07 -8.16972e-15)
(0.000955174 6.25528e-05 7.95949e-15)
(-0.000546642 -0.0167705 -2.94553e-15)
(-0.00172496 -0.017289 1.79157e-16)
(-0.00264218 -0.0159325 -1.65045e-15)
(-0.00401711 -0.0157974 -1.52318e-15)
(-0.00496165 -0.0153277 9.01568e-15)
(-0.00625577 -0.015229 -2.93805e-15)
(-0.00724259 -0.014528 2.92953e-14)
(-0.00778283 -0.013635 2.04951e-14)
(-0.00827676 -0.0127406 5.16029e-15)
(-0.00838069 -0.011907 -1.70577e-15)
(-0.00852739 -0.010917 7.11861e-15)
(-0.00853465 -0.00989983 -3.14234e-14)
(-0.00837178 -0.00894135 -1.37139e-13)
(-0.00803286 -0.00803189 3.64249e-14)
(-0.00760382 -0.0072219 1.88204e-14)
(-0.00709973 -0.00653122 5.25422e-14)
(-0.00657661 -0.00596983 -4.54797e-16)
(-0.00610841 -0.00560394 -9.40889e-14)
(-0.006068 -0.00573386 -1.3904e-13)
(-0.00628583 -0.00608235 -1.19711e-13)
(-0.00689687 -0.00639699 -6.97192e-14)
(-0.00791639 -0.00642912 -5.64379e-14)
(-0.00919331 -0.00578869 1.91489e-14)
(-0.0101379 -0.00416264 6.72368e-14)
(-0.00983329 -0.00193176 -3.61894e-14)
(-0.0081615 -0.000269976 -1.37649e-14)
(-0.0063148 -0.000175554 4.44693e-14)
(-0.00564914 -0.00103777 2.10488e-15)
(-0.00601594 -0.00122504 2.45407e-14)
(-0.00623414 -0.000564352 -3.05763e-14)
(-0.00583 0.000131543 -1.01201e-13)
(-0.00499426 0.000532006 -5.51497e-14)
(-0.00408786 0.000535501 3.49389e-14)
(-0.00338869 0.000190894 -1.50971e-14)
(-0.0024982 -0.000221218 2.04393e-14)
(0.000551978 -0.00136679 3.05273e-14)
(-0.00211301 -0.000904894 5.40075e-15)
(-0.0264458 0.00171202 -1.68227e-14)
(-0.00716071 0.00304905 4.27614e-14)
(0.000547026 -0.0160674 -2.40477e-14)
(0.00152104 -0.0147251 1.506e-14)
(0.00244471 -0.012683 4.4272e-14)
(0.00323808 -0.0112683 1.45004e-14)
(0.00380317 -0.00958496 1.02121e-13)
(0.00438502 -0.00856523 1.87069e-14)
(0.00526942 -0.00821343 -2.78554e-15)
(0.00600656 -0.00788663 -9.34352e-14)
(0.00686012 -0.00734142 -3.88191e-14)
(0.00728568 -0.00655011 5.64907e-14)
(0.00750768 -0.00584917 6.4168e-14)
(0.00756942 -0.00517056 1.04456e-13)
(0.0074457 -0.00449377 9.98193e-14)
(0.00721244 -0.00386063 -2.10612e-14)
(0.00688555 -0.00327956 -8.11424e-15)
(0.00647526 -0.00274705 1.57322e-14)
(0.00604081 -0.00228223 3.48506e-15)
(0.00558813 -0.00188054 1.13543e-14)
(0.005142 -0.00153792 3.09301e-14)
(0.00470861 -0.00124697 8.39153e-17)
(0.00429864 -0.00100223 -1.26233e-14)
(0.00390704 -0.000794502 -5.76381e-15)
(0.00352932 -0.000615753 2.63275e-15)
(0.00315784 -0.000460213 1.12671e-15)
(0.00281183 -0.000327551 -3.97321e-15)
(0.00249951 -0.000219082 -8.92125e-15)
(0.00221373 -0.000134396 5.53847e-16)
(0.00195518 -7.00173e-05 -1.42096e-15)
(0.00172245 -2.04975e-05 4.55312e-16)
(0.00151409 1.43808e-05 6.5249e-17)
(0.00133205 3.83073e-05 2.16935e-16)
(0.00117203 5.73563e-05 1.75574e-15)
(0.00105885 6.75109e-05 2.54077e-15)
(0.000968043 6.64967e-05 -1.94245e-15)
(0.000882882 6.70396e-05 -6.52238e-15)
(0.000791989 7.31831e-05 -4.91076e-16)
(0.000733279 4.90029e-05 -2.29462e-14)
(0.00073924 -1.19614e-05 6.16572e-16)
(0.00085492 6.67767e-05 1.69159e-14)
(-0.000459724 -0.0144889 -6.00221e-15)
(-0.0014808 -0.0149502 -2.47972e-15)
(-0.00228069 -0.0137887 6.66648e-16)
(-0.00345803 -0.0137314 -1.50188e-15)