/*--------------------------------*- C++ -*----------------------------------*\
| =========                 |                                                 |
| \\      /  F ield         | OpenFOAM: The Open Source CFD Toolbox           |
|  \\    /   O peration     | Version:  2506                                  |
|   \\  /    A nd           | Website:  www.openfoam.com                      |
|    \\/     M anipulation  |                                                 |
\*---------------------------------------------------------------------------*/
FoamFile
{
    version     2.0;
    format      ascii;
    arch        "LSB;label=32;scalar=64";
    class       volScalarField;
    location    "250";
    object      p;
}
// * * * * * * * * * * * * * * * * * * * * * * * * * * * * * * * * * * * * * //

dimensions      [0 2 -2 0 0 0 0];

internalField   nonuniform List<scalar> 
10720
(
-62.3201
-133.614
-217.469
-300.113
-376.481
-454.275
-523.297
-581.247
-631.591
-670.984
-700.981
-723.074
-738.392
-747.662
-751.061
-747.942
-739.213
-723.823
-703.195
-677.382
-649.725
-623.248
-600.543
-573.517
-533.246
-482.17
-429.838
-384.278
-345.057
-308.165
-271.694
-235.547
-199.769
-163.996
-127.825
-90.2203
-51.6943
-7.02014
26.1708
9.05393
74.1034
143.447
208.188
263.514
305.436
330.181
338.468
336.07
323.168
302.146
278.607
255.063
232.282
210.903
190.792
172.005
154.109
136.836
119.693
102.63
85.336
67.9035
50.7447
35.7275
23.8925
14.1789
6.29885
0.437145
-3.44092
-5.5837
-6.13905
-5.18957
-2.74125
1.21498
7.0336
15.29
29.2315
52.9565
43.16
-11.0026
-71.6826
-136.129
-202.354
-270.137
-335.923
-397.633
-454.587
-505.025
-548.738
-585.732
-615.916
-639.286
-655.662
-664.739
-667.271
-663.141
-653.398
-638.579
-621.316
-603.95
-587.58
-565.104
-528.332
-479.306
-428.214
-383.197
-344.166
-307.354
-270.913
-234.805
-199.1
-163.422
-127.357
-89.8504
-51.404
-6.71519
25.8628
91.8984
138.357
184.698
229.398
268.791
300.263
320.677
329.373
327.948
317.262
300.084
279.891
258.631
237.246
216.444
196.472
177.46
159.227
141.574
124.173
106.925
89.6245
72.3525
55.5345
40.6433
28.606
18.7396
10.6299
4.24105
-0.326717
-3.08639
-4.13224
-3.56769
-1.42528
2.29414
7.93584
16.0594
29.9222
52.7147
56.9464
8.28244
-46.511
-107.008
-169.731
-234.021
-298.31
-359.94
-417.327
-469.472
-515.125
-553.732
-584.986
-609.078
-626.243
-636.897
-641.071
-638.825
-630.805
-617.727
-601.439
-583.958
-566.449
-544.492
-511.284
-467.197
-420.345
-377.854
-340.234
-304.449
-268.857
-233.397
-198.116
-162.693
-126.797
-89.4237
-51.0831
-6.46651
25.9827
100.86
143.524
185.957
226.132
260.838
288.455
306.876
315.796
315.958
308.024
294.075
276.463
256.967
236.758
216.644
197.063
178.213
160.061
142.461
125.173
108.062
90.9876
74.0137
57.5222
42.6758
30.3782
20.2582
11.9608
5.47223
0.879978
-1.87958
-2.96401
-2.49114
-0.474929
3.11571
8.64386
16.6791
30.4073
52.316
79.5534
38.7577
-7.8456
-59.0951
-112.901
-169.194
-226.31
-282.488
-336.405
-386.903
-432.862
-473.553
-508.51
-537.584
-560.651
-577.833
-588.681
-593.15
-591.551
-584.494
-573.256
-559.375
-543.689
-523.364
-493.498
-454.041
-411.199
-371.154
-334.947
-300.274
-265.669
-231.035
-196.427
-161.544
-126.041
-88.941
-50.7831
-6.36817
26.1822
116.095
151.189
186.388
220.347
250.072
274.297
291.208
300.324
301.89
296.371
285.361
270.605
253.562
235.333
216.705
198.165
179.984
162.249
144.903
127.803
110.846
93.9579
77.2113
60.9646
46.1772
33.6991
23.3627
14.8449
8.10192
3.19575
0.0700574
-1.37929
-1.22806
0.529232
3.92778
9.32003
17.2564
30.8111
51.869
85.6827
49.36
7.6712
-38.5076
-87.1233
-138.587
-191.525
-244.326
-295.98
-345.328
-391.225
-432.861
-469.557
-500.815
-526.335
-545.806
-558.978
-565.856
-566.675
-562.053
-552.999
-540.795
-526.087
-506.861
-479.325
-443.132
-403.164
-364.901
-329.742
-295.942
-262.175
-228.296
-194.345
-160.029
-125.015
-88.3375
-50.49
-6.41098
26.2368
118.299
149.455
180.79
211.017
237.494
259.347
275.183
284.42
287.089
283.61
275.134
262.976
248.278
232
214.895
197.47
180.06
162.845
145.857
129.041
112.338
95.7207
79.2724
63.325
48.6706
36.0825
25.5525
16.8236
9.8572
4.72125
1.38904
-0.224804
-0.20209
1.44712
4.75125
10.0566
17.9007
31.2457
51.4131
89.4757
57.3171
20.2136
-20.8539
-64.1012
-110.229
-157.954
-205.998
-253.621
-299.765
-343.462
-383.943
-420.472
-452.45
-479.452
-501.1
-517.276
-527.781
-532.621
-532.156
-527.055
-518.207
-506.018
-489.032
-464.359
-431.578
-394.642
-358.411
-324.508
-291.659
-258.709
-225.534
-192.202
-158.437
-123.911
-87.6816
-50.2258
-6.6247
26.111
118.355
145.838
173.679
200.734
224.562
244.519
259.472
268.744
272.243
270.384
264.012
254.142
241.667
227.387
211.976
195.913
179.552
163.121
146.722
130.369
114.054
97.7921
81.6844
66.0462
51.5527
38.9069
28.2212
19.3157
12.1569
6.80913
3.25828
1.42112
1.22081
2.65426
5.76387
10.9008
18.5896
31.6651
50.9175
89.3971
60.3734
26.7987
-10.397
-49.4896
-91.4128
-135.03
-179.22
-223.488
-266.897
-308.607
-347.932
-384.124
-416.533
-444.642
-468
-486.197
-498.969
-506.162
-508.055
-505.186
-498.255
-487.584
-472.178
-449.875
-420.177
-386.139
-351.948
-319.335
-287.455
-255.332
-222.846
-190.085
-156.828
-122.79
-87.0472
-50.0536
-7.0463
25.778
115.488
140.238
165.438
190.03
211.771
230.207
244.407
253.632
257.744
257.154
252.504
244.591
234.115
221.723
207.992
193.346
178.127
162.589
146.883
131.08
115.224
99.369
83.6378
68.3314
54.0357
41.3896
30.5893
21.5304
14.1902
8.63236
4.85727
2.80024
2.39628
3.65114
6.6117
11.6227
19.1857
31.9871
50.3474
87.7184
61.3732
30.8333
-2.97004
-38.4015
-76.5197
-116.278
-156.7
-197.463
-237.767
-276.887
-314.251
-349.17
-381.007
-409.202
-433.246
-452.674
-467.249
-476.765
-481.286
-481.108
-476.658
-468.098
-454.708
-434.903
-408.225
-377.046
-344.957
-313.742
-282.929
-251.724
-220.013
-187.894
-155.177
-121.629
-86.3944
-49.9535
-7.65822
25.1865
111.437
133.888
156.876
179.418
199.424
216.598
230.123
239.229
243.791
244.18
240.919
234.65
225.93
215.276
203.168
189.963
175.97
161.447
146.565
131.437
116.147
100.785
85.4904
70.5547
56.5024
43.9164
33.0505
23.8722
16.377
10.6309
6.65009
4.38591
3.78146
4.84629
7.63348
12.4829
19.8755
32.335
49.7753
84.824
60.7002
32.7027
1.73669
-30.6191
-65.4876
-101.922
-139.043
-176.669
-214.104
-250.744
-286.126
-319.628
-350.653
-378.653
-403.089
-423.468
-439.422
-450.662
-457.084
-458.85
-456.251
-449.38
-437.725
-420.129
-396.176
-367.677
-337.659
-307.882
-278.177
-247.923
-217.025
-185.587
-153.456
-120.426
-85.7074
-49.8635
-8.36543
24.3198
106.574
127.131
148.281
169.105
187.647
203.752
216.66
225.601
230.476
231.621
229.473
224.569
217.363
208.269
197.676
185.873
173.129
159.678
145.699
131.327
116.677
101.868
87.0546
72.5219
58.7492
46.2734
35.3851
26.117
18.4872
12.5667
8.38651
5.9149
5.10703
5.98032
8.59476
13.2833
20.5015
32.601
49.1434
81.2772
59.0605
33.2577
4.75426
-24.9324
-56.9505
-90.4198
-124.546
-159.25
-193.922
-228.064
-261.309
-293.105
-322.932
-350.263
-374.558
-395.31
-412.109
-424.651
-432.722
-436.324
-435.584
-430.492
-420.655
-405.232
-383.871
-357.954
-330.014
-301.733
-273.186
-243.923
-213.873
-183.152
-151.639
-119.165
-84.9906
-49.7565
-9.11207
23.2309
101.343
120.284
139.864
159.216
176.501
191.672
204.013
212.756
217.837
219.558
218.3
214.521
208.605
200.886
191.678
181.209
169.699
157.351
144.334
130.79
116.854
102.663
88.3837
74.2962
60.8472
48.5366
37.6775
28.3575
20.6221
14.5497
10.1859
7.51779
6.51201
7.19242
9.62636
14.1379
21.1556
32.8477
48.4811
77.3451
56.7744
32.8733
6.50569
-20.8606
-50.3865
-81.2453
-112.714
-144.773
-176.893
-208.671
-239.824
-269.868
-298.35
-324.795
-348.689
-369.524
-386.867
-400.355
-409.697
-414.752
-415.548
-412.017
-403.846
-390.422
-371.45
-347.972
-322.072
-295.317
-267.967
-239.73
-210.563
-180.592
-149.732
-117.847
-84.2522
-49.6292
-9.90905
21.9847
95.9563
113.508
131.731
149.806
165.995
180.336
192.147
200.673
205.877
208.035
207.483
204.629
199.803
193.281
185.319
176.092
165.77
154.521
142.493
129.826
116.658
103.138
89.4383
75.8333
62.7478
50.6512
39.8684
30.533
22.7189
16.5148
11.981
9.12296
7.92168
8.40835
10.6584
14.9851
21.7879
33.0462
47.7834
73.2311
54.1034
31.8735
7.38444
-17.9448
-45.2688
-73.8047
-102.886
-132.543
-162.307
-191.848
-220.954
-249.211
-276.237
-301.603
-324.832
-345.441
-362.984
-377.069
-387.381
-393.653
-395.819
-393.751
-387.178
-375.644
-358.904
-337.734
-313.836
-288.634
-262.52
-235.345
-207.097
-177.912
-147.737
-116.476
-83.5005
-49.5002
-10.7717
20.6056
90.5712
106.91
123.944
140.891
156.117
169.709
181.019
189.319
194.578
197.062
197.073
194.976
191.066
185.578
178.723
170.63
161.43
151.253
140.22
128.457
116.099
103.296
90.2187
77.1356
64.4542
52.6205
41.9632
32.6524
24.7911
18.48
13.7944
10.7583
9.3679
9.66122
11.722
15.8513
22.4182
33.209
47.055
69.0648
51.2102
30.4614
7.63631
-15.8912
-41.2597
-67.7258
-94.665
-122.149
-149.76
-177.219
-204.378
-230.883
-256.413
-280.599
-303.007
-323.183
-340.689
-355.107
-366.11
-373.34
-376.65
-375.872
-370.763
-360.971
-346.29
-327.287
-305.333
-281.695
-256.85
-230.768
-203.473
-175.108
-145.655
-115.051
-82.7349
-49.3905
-11.7001
19.0996
85.2776
100.551
116.527
132.47
146.837
159.749
170.583
178.648
183.915
186.638
187.094
185.616
182.474
177.873
171.99
164.922
156.764
147.612
137.56
126.71
115.187
103.133
90.7147
78.1899
65.951
54.4248
43.9399
34.694
26.8172
20.4244
15.6055
12.4032
10.8298
10.9307
12.7985
16.7206
23.0343
33.3318
46.2986
64.9323
48.212
28.7873
7.44889
-14.4716
-38.0925
-62.7047
-87.7162
-113.232
-138.874
-164.403
-189.723
-214.532
-238.566
-261.512
-282.984
-302.556
-319.814
-334.33
-345.774
-353.743
-358.008
-358.372
-354.603
-346.419
-333.638
-316.665
-296.589
-274.513
-250.961
-226
-199.689
-172.18
-143.483
-113.571
-81.952
-49.3067
-12.6915
17.4815
80.1386
94.4615
109.493
124.531
138.126
150.409
160.794
168.622
173.858
176.752
177.558
176.584
174.083
170.24
165.206
159.055
151.853
143.667
134.563
124.618
113.941
102.658
90.9273
78.9927
67.232
56.0558
45.7889
36.6488
28.7902
22.3433
17.4123
14.0582
12.3102
12.2211
13.8924
17.5966
23.6386
33.4185
45.5181
60.8895
45.1895
26.956
6.95571
-13.5237
-35.5751
-58.516
-81.7902
-105.52
-129.358
-153.106
-176.703
-199.897
-222.472
-244.159
-264.622
-283.475
-300.327
-314.761
-326.439
-334.943
-339.977
-341.322
-338.753
-332.033
-320.994
-305.909
-287.632
-267.105
-244.861
-221.044
-195.746
-169.125
-141.219
-112.036
-81.1506
-49.244
-13.7438
15.7631
75.191
88.6589
102.837
117.056
129.947
141.649
151.609
159.196
164.373
167.383
168.463
167.9
165.935
162.737
158.44
153.103
146.769
139.481
131.279
122.217
112.381
101.882
90.8594
79.5411
68.29
57.5027
47.4967
38.503
30.6971
24.2245
19.2039
15.7138
13.8006
13.5249
14.9969
18.4735
24.2269
33.4693
44.7172
56.9734
42.1986
25.0439
6.25559
-12.924
-33.5551
-54.9838
-76.6843
-98.7889
-120.978
-143.087
-165.081
-186.745
-207.907
-228.345
-247.762
-265.814
-282.14
-296.342
-308.073
-316.935
-322.572
-324.747
-323.24
-317.843
-308.391
-295.057
-278.495
-259.49
-238.56
-215.905
-191.645
-165.943
-138.864
-110.444
-80.3303
-49.1995
-14.8499
13.9507
70.4558
83.1502
96.5514
110.022
122.267
133.43
142.986
150.332
155.429
158.513
159.805
159.576
158.057
155.406
151.748
147.128
141.575
135.112
127.758
119.545
110.536
100.819
90.5167
79.8357
69.1224
58.7585
49.0534
40.2455
32.5271
26.0585
20.9723
17.3637
15.2964
14.8389
16.1096
19.3494
24.7982
33.4868
43.9001
53.2089
39.276
23.1041
5.42092
-12.5796
-31.9195
-51.9757
-72.2443
-92.8672
-113.55
-134.149
-154.651
-174.877
-194.689
-213.905
-232.266
-249.468
-265.183
-279.034
-290.675
-299.738
-305.826
-308.685
-308.103
-303.885
-295.872
-284.152
-269.209
-251.69
-232.072
-210.591
-187.389
-162.636
-136.416
-108.796
-79.4909
-49.1708
-16.0018
12.0508
65.9435
77.9344
90.624
103.407
115.057
125.714
134.886
141.993
146.993
150.116
151.571
151.612
150.465
148.281
145.173
141.182
136.327
130.617
124.052
116.644
108.435
99.4911
89.9114
79.8811
69.7274
59.8172
50.4494
41.8648
34.2687
27.8344
22.7078
18.9997
16.7906
16.1573
17.2257
20.2207
25.3502
33.473
43.0705
49.6101
36.4475
21.1789
4.50457
-12.4176
-30.5816
-49.3837
-68.3469
-87.6153
-106.916
-126.123
-145.245
-164.125
-182.658
-200.691
-218.005
-234.332
-249.373
-262.782
-274.22
-283.346
-289.75
-293.16
-293.367
-290.193
-283.474
-273.231
-259.812
-243.729
-225.412
-205.111
-182.984
-159.206
-133.876
-107.09
-78.6306
-49.1572
-17.1906
10.0745
61.6582
73.0042
85.0384
97.1866
108.283
118.467
127.273
134.144
139.035
142.171
143.748
144.009
143.171
141.382
138.748
135.308
131.073
126.043
120.205
113.554
106.11
97.9199
89.0578
79.6845
70.1069
60.6756
51.6772
43.3513
35.9113
29.5419
24.4009
20.6136
18.2763
17.4748
18.3408
21.0841
25.8813
33.4305
42.2336
46.1839
33.7312
19.2929
3.54899
-12.3869
-29.4709
-47.125
-64.8914
-82.92
-100.952
-118.878
-136.719
-154.344
-171.667
-188.567
-204.856
-220.3
-234.632
-247.533
-258.68
-267.754
-274.354
-278.191
-279.061
-276.796
-271.232
-262.335
-250.337
-235.635
-218.598
-199.475
-178.436
-155.655
-131.245
-105.327
-77.7487
-49.1569
-18.4075
8.03377
57.5991
68.3507
79.7786
91.3385
101.917
111.655
120.113
126.751
131.525
134.653
136.32
136.757
136.178
134.723
132.498
129.538
125.853
121.434
116.26
110.313
103.595
96.1301
87.9717
79.2557
70.2653
61.3328
52.7314
44.6963
37.4448
31.1706
26.0417
22.1966
19.746
18.7851
19.4499
21.9358
26.3899
33.3617
41.3938
42.9339
31.1379
17.4674
2.58209
-12.4444
-28.5358
-45.1329
-61.8015
-78.6902
-95.5548
-112.297
-128.953
-145.405
-161.591
-177.413
-192.71
-207.279
-220.882
-233.23
-244.018
-252.945
-259.638
-263.791
-265.205
-263.722
-259.181
-251.501
-240.823
-227.436
-211.649
-193.698
-173.753
-151.987
-128.525
-103.507
-76.843
-49.1667
-19.644
5.94174
53.7623
63.964
74.8287
85.8405
95.9347
105.251
113.375
119.786
124.437
127.54
129.271
129.851
129.486
128.316
126.442
123.901
120.699
116.827
112.256
106.958
100.92
94.1486
86.6742
78.6083
70.2092
61.7895
53.6083
45.8924
38.86
32.7104
27.6203
23.7394
21.1917
20.0816
20.5477
22.7724
26.8746
33.2695
40.5554
39.8595
28.6733
15.7162
1.62722
-12.5596
-27.7333
-43.3562
-59.0127
-74.8508
-90.639
-106.291
-121.848
-137.21
-152.329
-167.128
-181.472
-195.183
-208.052
-219.816
-230.195
-238.901
-245.597
-249.967
-251.815
-250.998
-247.354
-240.768
-231.304
-219.162
-204.588
-187.794
-168.945
-148.209
-125.719
-101.629
-75.9114
-49.1827
-20.8905
3.81266
50.143
59.8327
70.1721
80.6711
90.3099
99.227
107.034
113.223
117.746
120.811
122.586
123.279
123.093
122.165
120.593
118.416
115.64
112.255
108.228
103.524
98.1187
92.0029
85.1869
77.7573
69.9473
62.0494
54.3061
46.9342
40.1488
34.152
29.1271
25.2331
22.6053
21.3572
21.6286
23.5899
27.3341
33.1565
39.7231
36.9586
26.3405
14.0476
0.700104
-12.7074
-27.0311
-41.7518
-56.4735
-71.3394
-86.1336
-100.777
-115.316
-129.664
-143.784
-157.62
-171.052
-183.931
-196.071
-207.236
-217.169
-225.596
-232.221
-236.721
-238.905
-238.644
-235.778
-230.169
-221.817
-210.845
-197.439
-181.78
-164.023
-144.327
-122.828
-99.6953
-74.952
-49.1999
-22.137
1.66145
46.7333
55.9453
65.7926
75.8102
85.0201
93.5599
101.062
107.034
111.429
114.446
116.247
117.03
116.993
116.27
114.959
113.098
110.697
107.744
104.206
100.043
95.2214
89.72
83.5314
76.719
69.4912
62.1183
54.8255
47.8178
41.3042
35.4867
30.5526
26.6682
23.9783
22.6045
22.6868
24.3844
27.767
33.0255
38.9015
34.2272
24.1397
12.4681
-0.187087
-12.8711
-26.4032
-40.287
-54.1417
-68.1087
-81.9813
-95.6901
-109.285
-122.689
-135.877
-148.805
-161.372
-173.45
-184.875
-195.435
-204.899
-213.006
-219.495
-224.05
-226.485
-226.679
-224.481
-219.736
-212.395
-202.516
-190.228
-175.677
-159.001
-140.349
-119.858
-97.7055
-73.962
-49.2132
-23.3741
-0.497848
43.5248
52.2909
61.676
71.2398
80.0451
88.2268
95.4369
101.198
105.462
108.425
110.238
111.092
111.179
110.633
109.545
107.96
105.887
103.316
100.215
96.5412
92.2561
87.3266
81.7312
75.5126
68.8541
62.0037
55.1692
48.5411
42.3206
36.7068
31.8878
28.0355
25.302
23.8161
23.7163
25.1521
28.1724
32.879
38.0946
31.6602
22.0698
10.9805
-1.02646
-13.0349
-25.8298
-38.9343
-51.9837
-65.1155
-78.135
-90.977
-103.695
-116.22
-128.537
-140.612
-152.36
-163.671
-174.4
-184.36
-193.341
-201.098
-207.401
-211.947
-214.555
-215.114
-213.485
-209.5
-203.073
-194.208
-182.98
-169.503
-153.893
-136.284
-116.814
-95.6609
-72.9394
-49.216
-24.5911
-2.64969
40.5098
48.8568
57.8075
66.9436
75.3658
83.2061
90.1362
95.692
99.8271
102.73
104.545
105.453
105.644
105.246
104.353
103.007
101.222
98.9892
96.2778
93.0453
89.2489
84.8481
79.8095
74.1571
68.0505
61.7152
55.3409
49.104
43.1943
37.8052
33.1246
29.3263
26.5677
24.9838
24.7108
25.8888
28.5491
32.7194
37.3064
29.2512
20.1286
9.58633
-1.8126
-13.1886
-25.2946
-37.6715
-49.9708
-62.3264
-74.5525
-86.5893
-98.492
-110.199
-121.703
-132.979
-143.954
-154.534
-164.592
-173.962
-182.453
-189.842
-195.918
-200.403
-203.118
-203.963
-202.81
-199.488
-193.88
-185.949
-175.723
-163.28
-148.715
-132.144
-113.7
-93.5634
-71.8807
-49.2021
-25.7776
-4.77918
37.6796
45.6325
54.1729
62.904
70.963
78.4782
85.1404
90.498
94.5047
97.3428
99.1508
100.101
100.379
100.108
99.382
98.2449
96.7122
94.7774
92.4124
89.5759
86.223
82.3079
77.788
72.6717
67.0956
61.2638
55.3476
49.5079
43.9225
38.7771
34.2554
30.532
27.7672
26.1002
25.6641
26.5906
28.8962
32.5489
36.5404
26.9943
18.3125
8.2852
-2.54209
-13.3249
-24.7857
-36.4823
-48.0814
-59.7132
-71.2004
-82.4887
-93.6324
-104.578
-115.323
-125.85
-136.096
-145.983
-155.398
-164.193
-172.196
-179.204
-185.026
-189.406
-192.172
-193.232
-192.472
-189.723
-184.846
-177.769
-168.483
-157.031
-143.483
-127.94
-110.524
-91.4137
-70.7843
-49.1636
-26.9231
-6.8711
35.0256
42.6066
50.759
59.1059
66.8201
74.0258
80.4303
85.5966
89.4767
92.2479
94.042
95.0239
95.3732
95.2119
94.6301
93.6746
92.3629
90.6909
88.6335
86.1513
83.1991
79.7275
75.6879
71.0751
66.0056
60.6615
55.1965
49.7561
44.5046
39.6177
35.2737
31.6448
28.8923
27.1576
26.5701
27.2536
29.2126
32.3693
35.7995
24.8832
16.6169
7.07619
-3.21273
-13.4379
-24.293
-35.3523
-46.2964
-57.2524
-68.0501
-78.641
-89.0782
-99.3144
-109.351
-119.177
-128.739
-137.968
-146.769
-155.007
-162.531
-169.154
-174.698
-178.94
-181.709
-182.923
-182.485
-180.226
-175.997
-169.697
-161.287
-150.779
-138.218
-123.684
-107.293
-89.2158
-69.6468
-49.0938
-28.0186
-8.91028
32.5389
39.7686
47.5535
55.5361
62.922
69.8327
75.9897
80.9705
84.7265
87.4292
89.2041
90.2087
90.6175
90.5495
90.0934
89.2964
88.1786
86.7382
84.9532
82.7868
80.1949
77.127
73.5294
69.3871
64.7971
59.9215
54.8968
49.8534
44.9412
40.3246
36.174
32.6578
29.9351
28.1485
27.4225
27.8737
29.4974
32.182
35.0863
22.9111
15.0381
5.95654
-3.82341
-13.5242
-23.8093
-34.27
-44.6015
-54.9246
-65.0788
-75.019
-84.7981
-94.372
-103.748
-112.917
-121.836
-130.446
-138.662
-146.366
-153.421
-159.658
-164.913
-168.99
-171.722
-173.039
-172.857
-171.016
-167.356
-161.76
-154.162
-144.546
-132.935
-119.391
-104.014
-86.9709
-68.4665
-48.9861
-29.0531
-10.8829
30.211
37.1081
44.5449
52.1806
59.2539
65.8833
71.8025
76.604
80.2386
82.872
84.6237
85.644
86.1025
86.1145
85.7672
85.1087
84.1607
82.9242
81.3802
79.4948
77.2259
74.5236
71.3313
67.6252
63.4861
59.0571
54.4586
49.8058
45.2344
40.8963
36.9525
33.5645
30.8887
29.0661
28.2156
28.4471
29.7494
31.9883
34.4024
21.0713
13.5706
4.92402
-4.37466
-13.5809
-23.3296
-33.2271
-42.9832
-52.7138
-62.2663
-71.5978
-80.7625
-89.7194
-98.4773
-107.033
-115.349
-123.375
-131.037
-138.229
-144.829
-150.685
-155.644
-159.536
-162.201
-163.578
-163.596
-162.106
-158.944
-153.981
-147.131
-138.356
-127.656
-115.074
-100.698
-84.6829
-67.2409
-48.8312
-30.0181
-12.7756
28.0339
34.6155
41.7215
49.027
55.8021
62.1625
67.854
72.482
75.9981
78.562
80.2875
81.3178
81.8173
81.8985
81.6455
81.108
80.309
79.252
77.9209
76.2853
74.3056
71.9328
69.1095
65.8061
62.0883
58.082
53.8926
49.6209
45.3881
41.333
37.6058
34.3603
31.7468
29.9037
28.9438
28.9703
29.9677
31.7886
33.749
19.3573
12.2096
3.9756
-4.86762
-13.6066
-22.8488
-32.2162
-41.4313
-50.6059
-59.5944
-68.3575
-76.9477
-85.3282
-93.5095
-101.492
-109.243
-116.72
-123.857
-130.562
-136.725
-142.207
-146.868
-150.561
-153.133
-154.534
-154.705
-153.507
-150.778
-146.382
-140.218
-132.23
-122.398
-110.748
-97.3527
-82.3558
-65.9681
-48.624
-30.9039
-14.5759
25.9996
32.2813
39.0728
46.0638
52.5543
58.6573
64.1301
68.5906
71.9914
74.4861
76.1831
77.2188
77.7518
77.8927
77.7222
77.2905
76.6225
75.7232
74.58
73.1659
71.4439
69.3673
66.8791
63.9453
60.6189
57.0101
53.2103
49.3068
45.407
41.6362
38.1328
35.041
32.504
30.6554
29.6019
29.4395
30.1509
31.5834
33.1264
17.7625
10.9501
3.1076
-5.30357
-13.6008
-22.3646
-31.2319
-39.9381
-48.5904
-57.0503
-65.2808
-73.3339
-81.1757
-88.8179
-96.2637
-103.486
-110.448
-117.09
-123.333
-129.075
-134.195
-138.561
-142.045
-144.507
-145.902
-146.184
-145.228
-142.874
-138.983
-133.445
-126.189
-117.18
-106.427
-93.9887
-79.9932
-64.6474
-48.3574
-31.703
-16.2732
24.1002
30.0971
36.5889
43.28
49.4984
55.3551
60.6175
64.9172
68.2059
70.6321
72.2984
73.3356
73.8967
74.0885
73.99
73.6512
73.0981
72.3376
71.3603
70.1422
68.6498
66.8385
64.6532
62.057
59.0923
55.8548
52.4232
48.8728
45.2972
41.8087
38.533
35.6039
33.1561
31.3165
30.1854
29.8518
30.2979
31.3722
32.5341
16.2808
9.78699
2.31659
-5.68461
-13.5637
-21.8749
-30.2702
-38.4971
-46.6583
-54.6217
-62.3534
-69.9034
-77.2414
-84.3797
-91.324
-98.051
-104.529
-110.706
-116.511
-121.853
-126.622
-130.699
-133.97
-136.307
-137.673
-138.034
-137.274
-135.242
-131.799
-126.831
-120.254
-112.022
-102.127
-90.6155
-77.6001
-63.2783
-48.0257
-32.4081
-17.8577
22.3285
28.0543
34.2605
40.6647
46.6234
52.2441
57.3045
61.449
64.6287
66.9875
68.6224
69.658
70.2419
70.4775
70.4417
70.1846
69.7322
69.0942
68.263
67.2183
65.9296
64.3554
62.4431
60.1542
57.5217
54.6288
51.5431
48.3282
45.0657
41.8544
38.8077
36.0479
33.6997
31.8827
30.6903
30.204
30.4072
31.1546
31.9712
14.9057
8.71514
1.59878
-6.01294
-13.4956
-21.3783
-29.3274
-37.1019
-44.8007
-52.2975
-59.5616
-66.6406
-73.5073
-80.1749
-86.6501
-92.9136
-98.9378
-104.678
-110.069
-115.031
-119.464
-123.258
-126.316
-128.52
-129.839
-130.249
-129.648
-127.892
-124.846
-120.392
-114.443
-106.939
-97.8623
-87.2436
-75.1818
-61.8601
-47.6244
-33.0126
-19.3204
20.6772
26.1448
32.0784
38.2086
43.9186
49.3133
54.1799
58.1743
61.2489
63.5413
65.144
66.1751
66.7774
67.0511
67.0701
66.8844
66.521
65.9902
65.288
64.3963
63.2883
61.9256
60.2583
58.2476
55.919
53.3442
50.5812
47.6832
44.7201
41.7786
38.9592
36.3726
34.133
32.3509
31.1133
30.4935
30.4775
30.9294
31.4358
13.6314
7.72964
0.950361
-6.29102
-13.3974
-20.8743
-28.4011
-35.7488
-43.0114
-50.0696
-56.8944
-63.532
-69.9573
-76.1846
-82.2216
-88.0517
-93.6513
-98.9813
-103.982
-108.584
-112.696
-116.218
-119.064
-121.129
-122.389
-122.826
-122.351
-120.83
-118.133
-114.145
-108.771
-101.948
-93.646
-83.8834
-72.7439
-60.3947
-47.1491
-33.5113
-20.6547
19.1396
24.3609
30.0342
35.9025
41.3745
46.5525
51.2324
55.0825
58.0551
60.2824
61.8523
62.877
63.4939
63.8002
63.8673
63.7445
63.4589
63.0229
62.434
61.6774
60.7292
59.5545
58.1064
56.3469
54.2952
52.0127
49.5486
46.9475
44.2688
41.5871
38.991
36.5793
34.455
32.7191
31.4519
30.7183
30.5074
30.6951
30.9257
12.4522
6.82556
0.3675
-6.52152
-13.2707
-20.3627
-27.4899
-34.4341
-41.2858
-47.9308
-54.3429
-60.5666
-66.5789
-72.394
-78.021
-83.4458
-88.648
-93.593
-98.2282
-102.49
-106.296
-109.558
-112.197
-114.121
-115.31
-115.757
-115.381
-114.061
-111.67
-108.099
-103.254
-97.0643
-89.4918
-80.5453
-70.2923
-58.8831
-46.5979
-33.9007
-21.8548
17.709
22.6953
28.1199
33.7375
38.9815
43.9516
48.4523
52.1634
55.0371
57.2006
58.7376
59.7539
60.3825
60.717
60.826
60.7581
60.5412
60.1884
59.6991
59.0616
58.2545
57.2466
55.9942
54.4606
52.6598
50.6445
48.4559
46.1313
43.7203
41.2868
38.9079
36.6704
34.6664
32.9865
31.7042
30.8766
30.4955
30.4502
30.4378
11.3624
5.99823
-0.153663
-6.70714
-13.1169
-19.8435
-26.5919
-33.1548
-39.6188
-45.8747
-51.8989
-57.7341
-63.3591
-68.7889
-74.0327
-79.0787
-83.909
-88.4936
-92.7853
-96.7265
-100.245
-103.257
-105.695
-107.479
-108.592
-109.034
-108.736
-107.584
-105.464
-102.267
-97.9039
-92.3001
-85.4122
-77.2389
-67.8338
-57.3277
-45.9696
-34.1775
-22.9168
16.3792
21.1411
26.3278
31.7055
36.7311
41.5017
45.8299
49.4067
52.185
54.2863
55.7902
56.7969
57.4343
57.7925
57.9382
57.9187
57.7622
57.4823
57.0807
56.5479
55.8652
55.0048
53.9268
52.5958
51.0215
49.249
47.3131
45.2441
43.0835
40.8851
38.7153
36.6494
34.7686
33.1534
31.8696
30.9672
30.4405
30.1925
29.9689
10.3566
5.24304
-0.616886
-6.85077
-12.9378
-19.3175
-25.707
-31.9092
-38.0067
-43.896
-49.5552
-55.0259
-60.2879
-65.3567
-70.2423
-74.9343
-79.4174
-83.6649
-87.6347
-91.2755
-94.521
-97.2971
-99.5423
-101.188
-102.222
-102.649
-102.409
-101.4
-99.5161
-96.6556
-92.7305
-87.6672
-81.4181
-73.9739
-65.3744
-55.7319
-45.2632
-34.3407
-23.8381
15.1444
19.6918
24.6509
29.7988
34.6149
39.1938
43.3561
46.8037
49.4894
51.53
53.0009
53.9966
54.6405
55.0191
55.1966
55.2195
55.1159
54.9002
54.5755
54.1345
53.5614
52.8314
51.908
50.758
49.3875
47.8349
46.1293
44.2954
42.3672
40.3898
38.4195
36.521
34.7646
33.2208
31.9482
30.9895
30.3413
29.92
29.5153
9.42986
4.55556
-1.02581
-6.95498
-12.7351
-18.7853
-24.8344
-30.6951
-36.4462
-41.99
-47.306
-52.4342
-57.3561
-62.0871
-66.6376
-70.9987
-75.1575
-79.0902
-82.7591
-86.1179
-89.1075
-91.6604
-93.7218
-95.2335
-96.1863
-96.5902
-96.3943
-95.507
-93.8297
-91.2695
-87.742
-83.1754
-77.5198
-70.759
-62.9212
-54.0998
-44.4805
-34.3897
-24.6177
13.9985
18.3411
23.0821
28.0098
32.6251
37.02
41.0226
44.3455
46.9416
48.923
50.3608
51.3446
51.9927
52.3886
52.5937
52.6538
52.5965
52.437
52.1796
51.8191
51.3425
50.7272
49.9407
48.952
47.7641
46.4098
44.9132
43.2941
41.5803
39.8091
38.0275
36.2905
34.6581
33.1912
31.9409
30.9434
30.197
29.6305
29.0732
8.57721
3.93129
-1.38399
-7.02263
-12.5109
-18.2475
-23.9738
-29.5111
-34.9352
-40.1531
-45.146
-49.9523
-54.5552
-58.9703
-63.2075
-67.2596
-71.1157
-74.7545
-78.1424
-81.2375
-83.987
-86.33
-88.2174
-89.6
-90.4725
-90.8485
-90.6849
-89.9001
-88.4041
-86.112
-82.9443
-78.8328
-73.726
-67.6027
-60.4809
-52.4357
-43.6238
-34.3263
-25.2563
12.9364
17.0829
21.6152
26.3316
30.7543
34.9723
38.8212
42.0237
44.5333
46.4569
47.8617
48.8327
49.4831
49.8933
50.1223
50.2147
50.198
50.0877
49.8893
49.5993
49.2069
48.6926
48.0271
47.1815
46.1568
44.9803
43.6724
42.2487
40.7315
39.1512
37.5468
35.9642
34.454
33.0679
31.8496
30.8296
30.0069
29.3218
28.6385
7.79393
3.3663
-1.695
-7.05651
-12.2668
-17.7056
-23.1252
-28.3563
-33.4712
-38.3815
-43.0701
-47.5741
-51.8781
-55.9971
-59.9416
-63.7053
-67.279
-70.6439
-73.7696
-76.6189
-79.1437
-81.2901
-83.0137
-84.2736
-85.0675
-85.4121
-85.2719
-84.5738
-83.2372
-81.1842
-78.3419
-74.6452
-70.0439
-64.5127
-58.06
-50.7449
-42.6965
-34.1528
-25.7557
11.9527
15.9118
20.244
24.7579
28.9956
33.0437
36.7445
39.8308
42.2565
44.1235
45.4956
46.4529
47.1038
47.5259
47.7753
47.8958
47.9146
47.8471
47.7001
47.4718
47.1531
46.7273
46.1683
45.4493
44.5698
43.5525
42.4141
41.167
39.829
38.4244
36.9851
35.5489
34.1579
32.8549
31.6771
30.6492
29.7707
28.9917
28.2073
7.07555
2.85654
-1.96212
-7.05928
-12.005
-17.1604
-22.2889
-27.2301
-32.0523
-36.6725
-41.0748
-45.2948
-49.3182
-53.1601
-56.8309
-60.3254
-63.6359
-66.7456
-69.6273
-72.2475
-74.5631
-76.5257
-78.096
-79.2398
-79.9581
-80.27
-80.1462
-79.5217
-78.325
-76.4853
-73.9363
-70.6174
-66.4796
-61.4953
-55.6652
-49.0332
-41.7031
-33.8732
-26.1188
11.0427
14.8221
18.9629
23.2824
27.3425
31.227
34.7851
37.7593
40.1036
41.9155
43.2551
44.1979
44.8478
45.2792
45.5461
45.6908
45.7403
45.7102
45.608
45.4332
45.1788
44.8304
44.3648
43.7578
43.0069
42.1313
41.1447
40.0565
38.8808
37.6369
36.3505
35.052
33.7759
32.5573
31.4267
30.404
29.4885
28.6385
27.7759
6.41775
2.39825
-2.18861
-7.03355
-11.7272
-16.6133
-21.4653
-26.1316
-30.6773
-35.0236
-39.1562
-43.1091
-46.8695
-50.452
-53.8672
-57.1107
-60.1757
-63.0478
-65.7028
-68.11
-70.2311
-72.0224
-73.45
-74.4851
-75.1315
-75.4103
-75.2975
-74.736
-73.6622
-72.013
-69.7282
-66.7519
-63.0379
-58.5566
-53.3025
-47.3067
-40.6493
-33.4924
-26.3505
10.2015
13.8091
17.766
21.8991
25.7886
29.5157
32.9364
35.8022
38.0676
39.8256
41.1328
42.0604
42.7079
43.1465
43.428
43.5935
43.6695
43.6718
43.6084
43.48
43.2815
43.0006
42.6169
42.1082
41.4711
40.7211
39.8696
38.9239
37.8945
36.7968
35.6508
34.481
33.3148
32.1805
31.1026
30.0963
29.1607
28.2605
27.3405
5.81657
1.98772
-2.37749
-6.98186
-11.4352
-16.0651
-20.6548
-25.0606
-29.3446
-33.4324
-37.3109
-41.013
-44.5266
-47.8665
-51.0428
-54.0521
-56.889
-59.5403
-61.9843
-64.194
-66.1344
-67.7672
-69.062
-69.9959
-70.5747
-70.8208
-70.7155
-70.2082
-69.2428
-67.7634
-65.7162
-63.0503
-59.722
-55.7014
-50.9781
-45.5713
-39.5411
-33.0166
-26.456
9.42472
12.8677
16.6484
20.6026
24.3281
27.9038
31.1919
33.9527
36.1416
37.8469
39.122
40.0337
40.6774
41.1211
41.4148
41.598
41.6967
41.7268
41.697
41.6089
41.4588
41.2364
40.924
40.5015
39.9647
39.3258
38.5942
37.7754
36.8774
35.9117
34.8941
33.8436
32.7818
31.7307
30.7094
29.7292
28.7882
27.8565
26.8979
5.26806
1.6216
-2.53186
-6.90654
-11.1312
-15.5173
-19.8577
-24.0165
-28.0531
-31.8969
-35.5362
-39.0024
-42.2849
-45.3975
-48.3508
-51.1418
-53.7663
-56.2125
-58.461
-60.4875
-62.2608
-63.7469
-64.9191
-65.7594
-66.2751
-66.49
-66.3893
-65.929
-65.0595
-63.7318
-61.898
-59.5124
-56.5341
-52.9339
-48.6972
-43.8335
-38.3853
-32.4525
-26.4421
8.70813
11.9934
15.6052
19.3873
22.9552
26.3852
29.5453
32.2049
34.3192
35.9729
37.216
38.1112
38.7498
39.197
39.5004
39.6984
39.8166
39.8706
39.8695
39.816
39.7076
39.5359
39.2857
38.9386
38.4895
37.9484
37.3228
36.6167
35.8359
34.9891
34.0881
33.1477
32.1841
31.2141
30.2523
29.306
28.3724
27.4257
26.4452
4.76858
1.29658
-2.65452
-6.80994
-10.8168
-14.9707
-19.0745
-22.9993
-26.8018
-30.4153
-33.8293
-37.0739
-40.1395
-43.0397
-45.7849
-48.3726
-50.7996
-53.0553
-55.1227
-56.9797
-58.5989
-59.9496
-61.0088
-61.7627
-62.2202
-62.4058
-62.308
-61.8887
-61.1043
-59.9119
-58.2699
-56.1367
-53.4753
-50.257
-46.4646
-42.0995
-37.1892
-31.8078
-26.3158
8.04773
11.1819
14.6316
18.2486
21.665
24.9546
27.9912
30.5526
32.5946
34.1977
35.4089
36.287