/*--------------------------------*- C++ -*----------------------------------*\
| =========                 |                                                 |
| \\      /  F ield         | OpenFOAM: The Open Source CFD Toolbox           |
|  \\    /   O peration     | Version:  2506                                  |
|   \\  /    A nd           | Website:  www.openfoam.com                      |
|    \\/     M anipulation  |                                                 |
\*---------------------------------------------------------------------------*/
FoamFile
{
    version     2.0;
    format      ascii;
    arch        "LSB;label=32;scalar=64";
    class       volScalarField;
    location    "250";
    object      static(p)_coeff;
}
// * * * * * * * * * * * * * * * * * * * * * * * * * * * * * * * * * * * * * //

dimensions      [0 0 0 0 0 0 0];

internalField   nonuniform List<scalar> 
10720
(
-0.184333
-0.39521
-0.643241
-0.887689
-1.11357
-1.34368
-1.54783
-1.71924
-1.86815
-1.98467
-2.0734
-2.13874
-2.18405
-2.21147
-2.22153
-2.2123
-2.18648
-2.14096
-2.07995
-2.00359
-1.92179
-1.84347
-1.77632
-1.69638
-1.57726
-1.42619
-1.2714
-1.13664
-1.02063
-0.911506
-0.80363
-0.696713
-0.590887
-0.485076
-0.378087
-0.266858
-0.152904
-0.0207645
0.0774093
0.0267802
0.219187
0.424295
0.615789
0.779435
0.903434
0.976626
1.00114
0.994045
0.955882
0.893702
0.824078
0.754438
0.687055
0.623819
0.564334
0.508765
0.455831
0.40474
0.354034
0.303564
0.252411
0.200848
0.150095
0.105677
0.0706704
0.0419391
0.0186311
0.00129301
-0.0101777
-0.0165157
-0.0181584
-0.01535
-0.00810821
0.00359373
0.0208043
0.0452255
0.0864624
0.156637
0.127661
-0.032544
-0.212026
-0.402649
-0.598533
-0.799025
-0.99361
-1.17614
-1.3446
-1.49379
-1.62308
-1.73251
-1.82179
-1.89091
-1.93935
-1.9662
-1.97369
-1.96147
-1.93265
-1.88882
-1.83776
-1.78639
-1.73797
-1.67149
-1.56273
-1.41772
-1.26659
-1.13344
-1.01799
-0.909107
-0.80132
-0.694518
-0.588908
-0.483378
-0.376703
-0.265764
-0.152045
-0.0198625
0.0764983
0.271822
0.409239
0.546309
0.678525
0.795043
0.888133
0.948514
0.974236
0.970021
0.938413
0.887603
0.827875
0.764992
0.701738
0.640209
0.581135
0.5249
0.47097
0.418755
0.367285
0.316268
0.265096
0.214008
0.164263
0.120217
0.0846122
0.0554289
0.0314416
0.0125444
-0.00096638
-0.00912908
-0.0122225
-0.0105527
-0.00421576
0.00678572
0.023473
0.0475013
0.0885054
0.155922
0.168439
0.0244982
-0.137573
-0.316514
-0.502039
-0.692199
-0.882356
-1.06465
-1.23439
-1.38863
-1.52366
-1.63786
-1.7303
-1.80156
-1.85233
-1.88385
-1.89619
-1.88955
-1.86583
-1.82714
-1.77897
-1.72726
-1.67547
-1.61053
-1.5123
-1.3819
-1.24332
-1.11764
-1.00636
-0.900514
-0.795239
-0.690353
-0.585997
-0.481221
-0.375046
-0.264502
-0.151096
-0.019127
0.0768529
0.298329
0.424522
0.550033
0.668864
0.77152
0.853207
0.907693
0.934077
0.934556
0.911089
0.86983
0.817736
0.76007
0.700295
0.6408
0.582883
0.527127
0.473436
0.421378
0.370243
0.319631
0.269128
0.218921
0.170142
0.126229
0.0898541
0.0599207
0.0353782
0.016186
0.00260284
-0.00555951
-0.0087671
-0.00736842
-0.00140477
0.0092158
0.0255672
0.0493343
0.0899402
0.154743
0.235307
0.114639
-0.0232061
-0.174794
-0.333944
-0.50045
-0.669391
-0.835557
-0.995035
-1.1444
-1.28034
-1.4007
-1.5041
-1.59009
-1.65832
-1.70914
-1.74123
-1.75445
-1.74972
-1.72885
-1.69561
-1.65455
-1.60815
-1.54803
-1.45969
-1.34298
-1.21626
-1.09782
-0.990723
-0.888165
-0.785809
-0.683367
-0.581002
-0.477823
-0.37281
-0.263074
-0.150209
-0.0188361
0.077443
0.343392
0.447194
0.551308
0.651753
0.739675
0.811329
0.861349
0.888313
0.892945
0.876621
0.844055
0.800409
0.749998
0.69608
0.640981
0.586142
0.532366
0.479908
0.428601
0.378022
0.327866
0.277913
0.228379
0.180324
0.136585
0.0996769
0.0691034
0.043909
0.0239643
0.00945255
0.000207219
-0.00407973
-0.00363242
0.00156539
0.0116178
0.0275672
0.0510418
0.0911346
0.153421
0.253437
0.145999
0.0226903
-0.1139
-0.257698
-0.40992
-0.566502
-0.72268
-0.875464
-1.02143
-1.15718
-1.28034
-1.38888
-1.48134
-1.55682
-1.61441
-1.65337
-1.67372
-1.67614
-1.66247
-1.63569
-1.59959
-1.55609
-1.49922
-1.41777
-1.31072
-1.1925
-1.07932
-0.975327
-0.875352
-0.775474
-0.675265
-0.574843
-0.473342
-0.369776
-0.261289
-0.149342
-0.0189627
0.0776045
0.349911
0.442065
0.53475
0.624157
0.702472
0.767109
0.81395
0.841272
0.849166
0.838876
0.813805
0.777843
0.734369
0.686221
0.635627
0.584087
0.53259
0.481671
0.431423
0.381684
0.332279
0.283127
0.234476
0.187306
0.14396
0.106727
0.0755805
0.0497617
0.0291561
0.0139647
0.00410857
-0.000664936
-0.000597752
0.00428036
0.0140535
0.0297459
0.0529476
0.0924201
0.152072
0.264656
0.169535
0.0597888
-0.0616827
-0.189602
-0.326041
-0.467204
-0.609311
-0.750173
-0.88666
-1.01591
-1.13565
-1.24369
-1.33828
-1.41815
-1.48218
-1.53002
-1.5611
-1.57541
-1.57404
-1.55895
-1.53278
-1.49673
-1.44648
-1.3735
-1.27654
-1.16729
-1.06013
-0.959846
-0.862683
-0.765222
-0.667096
-0.568505
-0.468633
-0.36651
-0.259349
-0.14856
-0.0195949
0.0772324
0.350076
0.431367
0.513716
0.593741
0.664221
0.72325
0.767479
0.794904
0.805254
0.799755
0.780908
0.751714
0.714815
0.672577
0.626993
0.579481
0.531088
0.482487
0.433982
0.385612
0.337355
0.289254
0.24161
0.195355
0.152485
0.115081
0.0834741
0.0571329
0.0359583
0.0201404
0.0096375
0.00420346
0.00361097
0.0078509
0.0170487
0.0322429
0.0549852
0.0936606
0.150606
0.264423
0.178575
0.0792665
-0.0307528
-0.146383
-0.270385
-0.399398
-0.530106
-0.661044
-0.789441
-0.912813
-1.02913
-1.13618
-1.23204
-1.31518
-1.38427
-1.4381
-1.47588
-1.49715
-1.50275
-1.49426
-1.47376
-1.4422
-1.39663
-1.33066
-1.24282
-1.14214
-1.04101
-0.944545
-0.850249
-0.755234
-0.659145
-0.562243
-0.463874
-0.363194
-0.257473
-0.148051
-0.0208419
0.0762474
0.341596
0.414803
0.489341
0.56208
0.626387
0.680918
0.722919
0.750205
0.762368
0.760623
0.746869
0.723463
0.692477
0.655823
0.615209
0.571888
0.526873
0.480914
0.434458
0.387715
0.340815
0.293919
0.247388
0.202114
0.159829
0.122424
0.0904785
0.0636837
0.0419725
0.0255332
0.0143671
0.00828269
0.00708784
0.0107995
0.0195564
0.0343782
0.0567484
0.094613
0.14892
0.259458
0.181533
0.0912003
-0.00878493
-0.113586
-0.226334
-0.343933
-0.463495
-0.584066
-0.703279
-0.81899
-0.929507
-1.03279
-1.12696
-1.21036
-1.28148
-1.33894
-1.38205
-1.4102
-1.42357
-1.42305
-1.40988
-1.38456
-1.34496
-1.28638
-1.20747
-1.11525
-1.02033
-0.928002
-0.836861
-0.744562
-0.650765
-0.555762
-0.45899
-0.35976
-0.255542
-0.147755
-0.0226519
0.0744979
0.329614
0.396021
0.464016
0.530691
0.589866
0.640664
0.680669
0.707603
0.721097
0.722248
0.712602
0.694059
0.668267
0.636754
0.60094
0.561882
0.520493
0.477536
0.433517
0.388771
0.343545
0.298107
0.252868
0.20869
0.167126
0.129898
0.0977584
0.0706104
0.0484407
0.0314446
0.01967
0.0129729
0.011185
0.0143346
0.0225787
0.0369225
0.0587887
0.0956421
0.147228
0.250897
0.179542
0.0967297
0.00513687
-0.0905667
-0.193702
-0.30147
-0.411268
-0.52256
-0.633287
-0.741663
-0.846318
-0.945412
-1.03718
-1.12
-1.19228
-1.25255
-1.29974
-1.33299
-1.35199
-1.35721
-1.34952
-1.3292
-1.29472
-1.24268
-1.17183
-1.08753
-0.998745
-0.910669
-0.822806
-0.733319
-0.641927
-0.548938
-0.4539
-0.356202
-0.25351
-0.147489
-0.0247437
0.0719343
0.31523
0.376034
0.438593
0.500187
0.555032
0.602668
0.640848
0.667294
0.681713
0.6851
0.678747
0.664241
0.642927
0.616028
0.584696
0.549784
0.51209
0.472304
0.430956
0.388446
0.345113
0.30131
0.257494
0.214509
0.173771
0.13687
0.104664
0.0772502
0.0546824
0.0371704
0.024806
0.0174954
0.0151058
0.0176889
0.025422
0.03929
0.0606404
0.0964289
0.145359
0.240406
0.174692
0.0983713
0.0140624
-0.0737463
-0.168451
-0.267448
-0.368388
-0.471038
-0.573592
-0.674579
-0.772913
-0.866961
-0.955184
-1.03603
-1.10789
-1.16927
-1.21896
-1.25605
-1.27993
-1.29058
-1.28839
-1.27333
-1.24423
-1.19862
-1.13543
-1.05877
-0.976132
-0.892481
-0.808043
-0.721488
-0.632604
-0.541736
-0.448525
-0.352472
-0.251389
-0.147172
-0.0269521
0.0687135
0.299757
0.355782
0.413697
0.470937
0.522063
0.566937
0.60344
0.6293
0.644329
0.64942
0.645699
0.634521
0.617022
0.594191
0.566955
0.535989
0.501944
0.465421
0.426918
0.386857
0.345637
0.303662
0.261426
0.219757
0.179977
0.143564
0.111444
0.0838772
0.0609971
0.0430358
0.0301284
0.0222365
0.0192615
0.0212741
0.0284733
0.0418178
0.0625751
0.0971586
0.1434
0.228775
0.16793
0.0972343
0.0192429
-0.0617025
-0.149036
-0.240311
-0.333391
-0.428217
-0.523223
-0.617217
-0.709363
-0.798229
-0.882474
-0.960695
-1.03137
-1.093
-1.14429
-1.18419
-1.21182
-1.22677
-1.22913
-1.21868
-1.19452
-1.15481
-1.09869
-1.02925
-0.952641
-0.873503
-0.792606
-0.709085
-0.622814
-0.534164
-0.442885
-0.348574
-0.249205
-0.146796
-0.0293095
0.0650274
0.283824
0.33574
0.38964
0.443104
0.490988
0.533407
0.568342
0.593561
0.608953
0.615336
0.613704
0.605262
0.590987
0.571696
0.548146
0.520854
0.490323
0.45705
0.421473
0.384006
0.345057
0.305067
0.264545
0.224303
0.185599
0.149819
0.117925
0.090312
0.0671991
0.0488483
0.035438
0.0269843
0.0234311
0.0248706
0.0315259
0.0443237
0.0644453
0.0977457
0.141336
0.216607
0.16003
0.094277
0.0218421
-0.053078
-0.133898
-0.218303
-0.304321
-0.392042
-0.48008
-0.567458
-0.653549
-0.737129
-0.817068
-0.892096
-0.960804
-1.02176
-1.07365
-1.11531
-1.14581
-1.16437
-1.17077
-1.16466
-1.14521
-1.1111
-1.06158
-0.998966
-0.92828
-0.853736
-0.776495
-0.696115
-0.612562
-0.526237
-0.436984
-0.344518
-0.246982
-0.146414
-0.0318611
0.0609483
0.267896
0.316224
0.366608
0.416734
0.461771
0.501974
0.535427
0.559977
0.575532
0.58288
0.582912
0.57671
0.565144
0.548912
0.528636
0.504698
0.477486
0.447384
0.41475
0.379956
0.343403
0.305534
0.266853
0.228156
0.190646
0.155644
0.124121
0.0965809
0.0733283
0.0546611
0.0408018
0.0318214
0.0277088
0.0285764
0.0346719
0.0468858
0.0663097
0.0982272
0.139182
0.204283
0.151472
0.0901002
0.0225871
-0.0470038
-0.12204
-0.200323
-0.280005
-0.361298
-0.442968
-0.524187
-0.604519
-0.682917
-0.758431
-0.82997
-0.896249
-0.955927
-1.00771
-1.05035
-1.0829
-1.10428
-1.11407
-1.11177
-1.09666
-1.0677
-1.02427
-0.968066
-0.903129
-0.833211
-0.759724
-0.682577
-0.601843
-0.517943
-0.430826
-0.340304
-0.244717
-0.14609
-0.0346071
0.0564937
0.252238
0.297415
0.344669
0.391826
0.434322
0.472514
0.504559
0.528414
0.543993
0.552047
0.553396
0.549024
0.539731
0.526122
0.508721
0.487814
0.463684
0.436614
0.406882
0.374789
0.340706
0.305052
0.26832
0.231274
0.195073
0.16098
0.129968
0.10262
0.0793212
0.0604123
0.0461587
0.0366868
0.0320329
0.0323314
0.037856
0.049457
0.068132
0.0985905
0.136944
0.19206
0.142604
0.0851485
0.0220327
-0.0428048
-0.112672
-0.185471
-0.259451
-0.334923
-0.410768
-0.486279
-0.561172
-0.634553
-0.705642
-0.773513
-0.837024
-0.894915
-0.945962
-0.988898
-1.02275
-1.04632
-1.05893
-1.06001
-1.04886
-1.02466
-0.986851
-0.936647
-0.877266
-0.811968
-0.742305
-0.668474
-0.59065
-0.509283
-0.424401
-0.335926
-0.242402
-0.145842
-0.0375395
0.0517076
0.237038
0.279403
0.323864
0.368344
0.408556
0.444887
0.475604
0.498759
0.514246
0.522806
0.52519
0.522309
0.514911
0.503544
0.488655
0.470461
0.449158
0.424945
0.398017
0.368601
0.33702
0.303647
0.268949
0.233649
0.198862
0.165805
0.135437
0.108402
0.0851571
0.0660881
0.051503
0.041582
0.0364117
0.0361482
0.0410916
0.0520481
0.0699194
0.0988469
0.134636
0.180102
0.133664
0.0797318
0.0205739
-0.0400011
-0.105226
-0.173082
-0.241923
-0.312112
-0.382622
-0.452865
-0.522661
-0.591265
-0.658039
-0.722186
-0.782712
-0.838476
-0.888322
-0.931016
-0.965557
-0.990711
-1.0056
-1.00958
-1.00198
-0.982104
-0.949452
-0.904833
-0.850772
-0.790056
-0.724262
-0.653815
-0.578987
-0.500246
-0.417705
-0.331386
-0.240031
-0.145656
-0.0406521
0.0466249
0.222404
0.26224
0.304176
0.346234
0.384364
0.418976
0.448437
0.470878
0.486191
0.495094
0.498288
0.496623
0.490811
0.481352
0.468642
0.452856
0.434121
0.412564
0.388304
0.3615
0.332406
0.301352
0.268748
0.235271
0.201992
0.170084
0.140488
0.113886
0.0907974
0.0716524
0.0568022
0.0464791
0.0408201
0.0400046
0.0443586
0.0546418
0.0716595
0.0989972
0.132267
0.168519
0.124817
0.0740761
0.0185031
-0.0382272
-0.0992509
-0.162634
-0.226821
-0.292203
-0.357835
-0.42323
-0.488285
-0.552364
-0.614958
-0.67541
-0.732843
-0.786238
-0.834528
-0.876535
-0.911234
-0.937446
-0.954119
-0.960553
-0.956095
-0.940132
-0.912174
-0.872734
-0.823746
-0.767532
-0.705625
-0.638615
-0.566857
-0.490834
-0.410739
-0.326677
-0.237605
-0.145525
-0.0439238
0.0412641
0.208398
0.245946
0.285585
0.325429
0.361647
0.394666
0.422931
0.444659
0.459736
0.468858
0.472679
0.472002
0.467509
0.459668
0.448848
0.435182
0.418758
0.399641
0.377889
0.353596
0.326949
0.298207
0.267735
0.236142
0.204454
0.173799
0.145093
0.11904
0.0962103
0.0770771
0.0620329
0.0513592
0.0452445
0.0438912
0.0476498
0.0572326
0.0733493
0.0990489
0.12985
0.157384
0.116173
0.0683385
0.0160343
-0.0372086
-0.0944131
-0.153736
-0.213688
-0.274687
-0.335864
-0.396793
-0.457434
-0.51726
-0.575861
-0.632699
-0.687008
-0.737889
-0.784371
-0.825341
-0.859773
-0.88658
-0.904587
-0.913044
-0.911322
-0.898846
-0.875145
-0.840479
-0.79628
-0.744461
-0.686434
-0.622897
-0.554268
-0.481053
-0.403498
-0.321802
-0.235122
-0.14544
-0.0473309
0.0356445
0.195051
0.230518
0.268052
0.305862
0.340321
0.371843
0.398973
0.419994
0.434783
0.444021
0.448324
0.448445
0.445053
0.438593
0.4294
0.417595
0.403235
0.386345
0.366927
0.345015
0.320734
0.29428
0.265944
0.236276
0.206243
0.17693
0.149222
0.12383
0.101362
0.08233
0.0671663
0.0561983
0.0496641
0.0477909
0.050951
0.0598098
0.0749821
0.0990081
0.127396
0.146739
0.107806
0.062644
0.0133238
-0.0367294
-0.0904558
-0.14607
-0.20216
-0.259153
-0.316241
-0.373053
-0.429613
-0.485457
-0.540275
-0.593614
-0.644826
-0.693119
-0.737608
-0.77727
-0.811102
-0.838095
-0.857037
-0.867123
-0.867735
-0.858347
-0.838473
-0.808176
-0.768485
-0.720914
-0.666735
-0.606687
-0.541239
-0.470907
-0.395985
-0.316756
-0.232577
-0.1454
-0.0508472
0.0297989
0.182376
0.215935
0.251531
0.287463
0.320285
0.350408
0.376454
0.396778
0.411245
0.42052
0.425185
0.425957
0.423478
0.418187
0.410396
0.400221
0.387694
0.372816
0.355548
0.335876
0.313857
0.289632
0.26342
0.235695
0.207366
0.179469
0.152853
0.128227
0.10622
0.0873805
0.0721742
0.0609719
0.0540585
0.0516878
0.0542493
0.0623636
0.076553
0.0988824
0.124921
0.136605
0.0997718
0.0570655
0.0104974
-0.0366386
-0.0871705
-0.139389
-0.191939
-0.245265
-0.298601
-0.351623
-0.404394
-0.456526
-0.507765
-0.557753
-0.605933
-0.651614
-0.694006
-0.732165
-0.765137
-0.791976
-0.811498
-0.822847
-0.82542
-0.818721
-0.802263
-0.775947
-0.740459
-0.696973
-0.64658
-0.590017
-0.527787
-0.460404
-0.388203
-0.311541
-0.229969
-0.145399
-0.0544466
0.0237627
0.170369
0.202171
0.235973
0.270166
0.301455
0.330259
0.355276
0.37491
0.389031
0.398283
0.403214
0.404507
0.402794
0.39849
0.391909
0.383154
0.372254
0.359184
0.34388
0.326289
0.306418
0.284338
0.260207
0.234426
0.207834
0.181413
0.155972
0.132205
0.110756
0.0921979
0.0770274
0.0656542
0.0584057
0.0555635
0.0575299
0.0648828
0.0780574
0.0986789
0.122437
0.126992
0.0921012
0.0516659
0.00763743
-0.0368087
-0.0844046
-0.133496
-0.1828
-0.232754
-0.282637
-0.332158
-0.381424
-0.430086
-0.477962
-0.524761
-0.570007
-0.6131
-0.653336
-0.689859
-0.721769
-0.748173
-0.76797
-0.780254
-0.784437
-0.78005
-0.766618
-0.743902
-0.712318
-0.672721
-0.626026
-0.57293
-0.513935
-0.449555
-0.380158
-0.306158
-0.22729
-0.145428
-0.058104
0.0175748
0.159021
0.189196
0.221332
0.253903
0.28376
0.311317
0.335346
0.354309
0.368066
0.377244
0.382364
0.38408
0.383
0.379539
0.373996
0.366481
0.357009
0.345557
0.332036
0.316366
0.298506
0.278477
0.256369
0.232512
0.207668
0.182764
0.158565
0.135743
0.114942
0.0967524
0.0816967
0.0702176
0.0626819
0.0593984
0.060777
0.0673573
0.079491
0.0984062
0.119957
0.117898
0.0848113
0.0464862
0.00481307
-0.0371494
-0.0820309
-0.128241
-0.174551
-0.221397
-0.268097
-0.314393
-0.360408
-0.405847
-0.450566
-0.494339
-0.536767
-0.577322
-0.615387
-0.650183
-0.680882
-0.706633
-0.726439
-0.739365
-0.744831
-0.742414
-0.731636
-0.712156
-0.684162
-0.648248
-0.605141
-0.555466
-0.499714
-0.43838
-0.371858
-0.300603
-0.224535
-0.145475
-0.061791
0.0112773
0.148315
0.176976
0.207559
0.238613
0.267123
0.293499
0.31659
0.334897
0.348275
0.357341
0.362591
0.364641
0.364091
0.361346
0.356696
0.350257
0.342046
0.332033
0.320122
0.306208
0.29022
0.272131
0.25197
0.229994
0.206894
0.183533
0.160629
0.138824
0.118754
0.101016
0.0861536
0.0746357
0.0668631
0.0631714
0.0639741
0.0697754
0.0808502
0.0980719
0.117495
0.109318
0.0779112
0.0415507
0.0020708
-0.0375866
-0.0799539
-0.123496
-0.16704
-0.211011
-0.25477
-0.298083
-0.341087
-0.383527
-0.425291
-0.466216
-0.505946
-0.54404
-0.579949
-0.612973
-0.642353
-0.667279
-0.686875
-0.700185
-0.706645
-0.705873
-0.697396
-0.680805
-0.656101
-0.623648
-0.583995
-0.537678
-0.485155
-0.426898
-0.363307
-0.294884
-0.221697
-0.145526
-0.0654779
0.00491432
0.13823
0.165478
0.194605
0.224235
0.251477
0.276736
0.298926
0.31659
0.32959
0.338514
0.343841
0.346157
0.346048
0.343909
0.340031
0.334527
0.327425
0.318691
0.308226
0.295912
0.281651
0.265378
0.247073
0.226923
0.205545
0.183737
0.162166
0.141438
0.122172
0.104964
0.09037
0.0788805
0.0709242
0.0668607
0.0671041
0.0721254
0.0821306
0.0976845
0.115065
0.101239
0.0714016
0.0368788
-0.000553375
-0.0380708
-0.0780967
-0.119163
-0.160143
-0.201455
-0.242488
-0.283037
-0.323249
-0.362896
-0.401904
-0.440143
-0.477314
-0.513039
-0.546832
-0.578067
-0.60606
-0.63004
-0.649233
-0.662706
-0.669909
-0.670482
-0.663981
-0.649946
-0.628232
-0.599012
-0.562666
-0.519626
-0.470301
-0.415131
-0.354522
-0.288998
-0.218768
-0.145565
-0.0691371
-0.00147256
0.12874
0.154669
0.182428
0.210717
0.236761
0.260962
0.282288
0.299328
0.311941
0.320705
0.326067
0.328593
0.328851
0.327236
0.324018
0.319329
0.313198
0.305593
0.296421
0.285554
0.27288
0.258299
0.241749
0.223355
0.20366
0.183398
0.163182
0.143577
0.125178
0.108573
0.0943193
0.0829248
0.0748395
0.0704444
0.0701492
0.0743961
0.0833297
0.0972511
0.112678
0.0936461
0.0652791
0.0324787
-0.00303611
-0.0385553
-0.0764007
-0.115162
-0.15376
-0.192602
-0.231112
-0.269096
-0.306714
-0.343761
-0.380193
-0.415909
-0.450658
-0.484114
-0.515849
-0.545309
-0.571874
-0.594818
-0.613461
-0.626907
-0.634621
-0.636275
-0.631457
-0.619669
-0.600659
-0.574438
-0.541227
-0.501364
-0.455192
-0.403108
-0.345518
-0.282951
-0.215744
-0.145574
-0.0727368
-0.00783738
0.119822
0.144511
0.170986
0.198009
0.222921
0.246111
0.266609
0.283043
0.295274
0.30386
0.309228
0.311914
0.312479
0.311302
0.30866
0.304679
0.299399
0.292795
0.284775
0.275214
0.263985
0.250968
0.236064
0.219346
0.201283
0.182544
0.16369
0.145242
0.127762
0.111822
0.0979776
0.0867428
0.0785833
0.0738983
0.0730908
0.0765752
0.0844439
0.0967791
0.110347
0.0865207
0.0595374
0.0283549
-0.0053614
-0.0390099
-0.0748176
-0.111427
-0.147806
-0.184352
-0.220515
-0.256118
-0.291325
-0.325952
-0.359979
-0.393332
-0.425794
-0.457088
-0.486838
-0.514553
-0.539669
-0.561524
-0.579496
-0.592762
-0.600792
-0.603292
-0.599881
-0.590056
-0.573468
-0.550009
-0.519762
-0.482958
-0.439877
-0.390862
-0.336308
-0.276746
-0.212612
-0.145532
-0.0762463
-0.0141361
0.111451
0.134974
0.160235
0.186061
0.209898
0.232127
0.251832
0.267679
0.279531
0.287925
0.293273
0.296084
0.296906
0.296104
0.293957
0.290594
0.28606
0.280337
0.273342
0.264952
0.255035
0.243454
0.230085
0.214952
0.198459
0.181209
0.16371
0.146437
0.129916
0.114697
0.101322
0.0903091
0.0821312
0.0772005
0.0759105
0.078651
0.0854706
0.0962748
0.108081
0.0798451
0.0541656
0.0245064
-0.00751912
-0.0394131
-0.0733124
-0.107909
-0.142218
-0.176623
-0.2106
-0.243989
-0.276951
-0.309326
-0.341108
-0.372245
-0.402552
-0.431796
-0.459644
-0.485658
-0.50933
-0.530058
-0.547279
-0.560234
-0.568416
-0.571551
-0.569303
-0.561172
-0.546747
-0.525814
-0.498347
-0.464474
-0.424401
-0.378427
-0.326913
-0.270388
-0.209369
-0.145419
-0.0796345
-0.0203237
0.1036
0.126024
0.150137
0.174826
0.197644
0.218957
0.237901
0.253182
0.264659
0.272855
0.278162
0.281066
0.2821
0.281622
0.279902
0.277075
0.273196
0.26825
0.262165
0.254823
0.24609
0.235822
0.223873
0.210229
0.195235
0.179428
0.163263
0.147171
0.131638
0.117183
0.104334
0.0936006
0.0854591
0.0803281
0.0785904
0.0806121
0.0864065
0.0957435
0.10589
0.0736008
0.0491503
0.0209303
-0.00950277
-0.0397473
-0.071855
-0.104567
-0.136938
-0.169344
-0.201282
-0.232608
-0.26348
-0.293757
-0.323444
-0.352508
-0.380791
-0.408089
-0.434121
-0.458487
-0.480742
-0.500332
-0.51673
-0.529278
-0.537468
-0.541059
-0.539763
-0.533081
-0.520573
-0.501938
-0.477063
-0.445982
-0.408828
-0.365839
-0.317357
-0.263887
-0.206005
-0.145212
-0.0828748
-0.0263553
0.0962452
0.11763
0.140656
0.164267
0.186114
0.206555
0.224766
0.239499
0.250608
0.258602
0.263852
0.266824
0.268033
0.267832
0.266483
0.264125
0.260819
0.256559
0.251279
0.244871
0.237204
0.22813
0.217489
0.205237
0.19166
0.177239
0.162376
0.147459
0.132929
0.119274
0.106997
0.0965969
0.0885435
0.083259
0.0811116
0.0824462
0.0872489
0.0951895
0.10378
0.0677676
0.0444804
0.0176185
-0.0113091
-0.0400025
-0.0704243
-0.101366
-0.131925
-0.162459
-0.192493
-0.221895
-0.25082
-0.279138
-0.306871
-0.333992
-0.360373
-0.38584
-0.410141
-0.432929
-0.453796
-0.472244
-0.487788
-0.499847
-0.507928
-0.511823
-0.511285
-0.50584
-0.495014
-0.478462
-0.455988
-0.427545
-0.393202
-0.353141
-0.307658
-0.257247
-0.202514
-0.144894
-0.0859347
-0.03219
0.0893596
0.10976
0.131757
0.154342
0.175264
0.194873
0.212381
0.226583
0.237334
0.245123
0.250304
0.253322
0.254678
0.254714
0.253686
0.251739
0.248935
0.245277
0.24071
0.235134
0.228423
0.22043
0.210987
0.200025
0.187782
0.174682
0.16108
0.147318
0.133797
0.120965
0.1093
0.0992787
0.0913641
0.0859732
0.0834575
0.0841422
0.0879943
0.0946166
0.101757
0.0623257
0.0401398
0.0145645
-0.0129396
-0.0401703
-0.0690054
-0.0982808
-0.127138
-0.155919
-0.184174
-0.211776
-0.238883
-0.265376
-0.291281
-0.316588
-0.341185
-0.364925
-0.387588
-0.408861
-0.428382
-0.445704
-0.460372
-0.471883
-0.479766
-0.483839
-0.483892
-0.479485
-0.470132
-0.455453
-0.435191
-0.409236
-0.377587
-0.340372
-0.29785
-0.250479
-0.198888
-0.144435
-0.088789
-0.0377883
0.0829201
0.102387
0.123406
0.145014
0.165054
0.183867
0.200702
0.214391
0.224791
0.232375
0.237478
0.240526
0.242003
0.242243
0.241495
0.239905
0.237542
0.234415
0.230478
0.22564
0.219785
0.212766
0.204416
0.194645
0.183648
0.171798
0.159406
0.146771
0.134251
0.122257
0.111232
0.101633
0.0939023
0.0884506
0.0856114
0.0856898
0.0886399
0.0940259
0.0998245
0.057256
0.0361142
0.0117592
-0.0143977
-0.0402463
-0.0675833
-0.0952907
-0.122548
-0.149685
-0.176271
-0.202191
-0.2276
-0.252388
-0.276587
-0.300198
-0.323124
-0.34524
-0.36635
-0.386183
-0.404412
-0.420627
-0.434413
-0.445337
-0.452944
-0.457088
-0.457594
-0.454051
-0.445979
-0.432976
-0.414744
-0.391116
-0.362035
-0.327576
-0.287955
-0.243596
-0.195124
-0.143822
-0.0914091
-0.0431133
0.0769029
0.0954832
0.115571
0.13625
0.155448
0.173499
0.189687
0.202881
0.21294
0.220319
0.225338
0.228402
0.229978
0.230395
0.229891
0.228614
0.226638
0.223978
0.220596
0.216414
0.21132
0.205178
0.197818
0.189141
0.179302
0.168627
0.157388
0.145842
0.134307
0.123154
0.112791
0.103646
0.0961419
0.0906741
0.087558
0.0870776
0.0891818
0.0934189
0.0979829
0.0525388
0.0323887
0.00919181
-0.0156872
-0.0402291
-0.0661511
-0.0923793
-0.118131
-0.143723
-0.168746
-0.193091
-0.216911
-0.240106
-0.26271
-0.284734
-0.306096
-0.326689
-0.346335
-0.3648
-0.381784
-0.396929
-0.409843
-0.420148
-0.42743
-0.431556
-0.43239
-0.429563
-0.4226
-0.411091
-0.39471
-0.373248
-0.346601
-0.314795
-0.278004
-0.236608
-0.191217
-0.143034
-0.0937727
-0.0481337
0.0712848
0.0890227
0.108224
0.128016
0.146409
0.163732
0.179297
0.192015
0.201743
0.208919
0.213848
0.216916
0.218575
0.219143
0.218851
0.217849
0.216213
0.213964
0.211073
0.20747
0.203056
0.197698
0.191234
0.183555
0.174786
0.16521
0.15506
0.144558
0.133982
0.123664
0.113975
0.105311
0.0980708
0.0926295
0.0892839
0.0882971
0.0896166
0.0927942
0.096231
0.0481562
0.0289484
0.00685212
-0.0168142
-0.0401194
-0.0647027
-0.0895347
-0.113869
-0.138008
-0.161563
-0.184432
-0.206764
-0.228468
-0.249582
-0.270123
-0.29002
-0.309181
-0.327452
-0.344622
-0.360423
-0.374529
-0.386588
-0.396263
-0.403176
-0.407216
-0.408284
-0.406036
-0.400025
-0.389842
-0.375147
-0.355693
-0.331344
-0.302076
-0.268027
-0.229529
-0.187168
-0.142053
-0.0958583
-0.0528204
0.0660443
0.0829804
0.101337
0.12028
0.137905
0.15453
0.169498
0.181757
0.191162
0.198139
0.202975
0.206038
0.207765
0.208462
0.208356
0.207595
0.206257
0.20437
0.201912
0.198822
0.19501
0.190354
0.184697
0.177927
0.170141
0.161584
0.152457
0.142948
0.133298
0.123799
0.114787
0.106624
0.0996786
0.0943042
0.0907773
0.0893389
0.0899399
0.0921506
0.094566
0.0440888
0.0257781
0.00472895
-0.0177854
-0.039918
-0.0632338
-0.086746
-0.109742
-0.132514
-0.154688
-0.176174
-0.197113
-0.217424
-0.237145
-0.256298
-0.274824
-0.292643
-0.309622
-0.325568
-0.340244
-0.353357
-0.364579
-0.373624
-0.380143
-0.384044
-0.385257
-0.383479
-0.378285
-0.369276
-0.356101
-0.338505
-0.316309
-0.289462
-0.258053
-0.222376
-0.182973
-0.140866
-0.0976463
-0.0571468
0.06116
0.0773324
0.0948831
0.113015
0.129905
0.145861
0.160256
0.172071
0.181165
0.187946
0.192686
0.195736
0.197518
0.198327
0.198383
0.197834
0.196759
0.195189
0.193112
0.190475
0.187197
0.183167
0.178235
0.172288
0.1654
0.157784
0.149612
0.14104
0.132275
0.123575
0.115235
0.107585
0.10096
0.0956891
0.0920285
0.0901952
0.0901479
0.0914845
0.0929824
0.0403196
0.0228631
0.00281102
-0.0186079
-0.0396275
-0.061743
-0.0840062
-0.10574
-0.127221
-0.148098
-0.168285
-0.187918
-0.206923
-0.225343
-0.243199
-0.260444
-0.277006
-0.292772
-0.307563
-0.321175
-0.333338
-0.343755
-0.352173
-0.358281
-0.362008
-0.363301
-0.361896
-0.357397
-0.34942
-0.337624
-0.321728
-0.301547
-0.276991
-0.248114
-0.215166
-0.178638
-0.13946
-0.0991214
-0.0610935
0.0566121
0.0720559
0.0888366
0.106194
0.12238
0.137695
0.151538
0.162926
0.171718
0.178306
0.18295
0.185981
0.187805
0.188711
0.18891
0.188547
0.187702
0.186412
0.18467
0.182432
0.179628
0.176153
0.17187
0.166666
0.160597
0.153846
0.146557
0.138864
0.13094
0.123008
0.11533
0.108196
0.101913
0.0967782
0.09303
0.0908601
0.0902363
0.0907915
0.0914736
0.0368317
0.020189
0.00108701
-0.0192897
-0.0392527
-0.0602298
-0.081311
-0.101851
-0.122117
-0.141772
-0.160738
-0.179147
-0.19693
-0.214131
-0.230774
-0.24682
-0.262207
-0.276834
-0.290544
-0.30315
-0.314408
-0.324056
-0.331862
-0.337553
-0.34107
-0.342392
-0.34128
-0.337375
-0.330303
-0.319741
-0.30541
-0.287102
-0.264703
-0.238241
-0.207914
-0.174167
-0.13783
-0.100273
-0.0646432
0.0523806
0.0671293
0.0831744
0.0997905
0.115301
0.130002
0.143315
0.154291
0.162791
0.169191
0.173737
0.176743
0.178602
0.179592
0.179914
0.179713
0.179072
0.178028
0.176581
0.174695
0.172308
0.169327
0.165622
0.161086
0.15576
0.149799
0.143325
0.136449
0.129318
0.12212
0.115084
0.108466
0.102538
0.0975691
0.0937763
0.0913283
0.0902011
0.0900671
0.0900304
0.0336083
0.0177419
-0.000454512
-0.0198387
-0.0387978
-0.0586941
-0.0786548
-0.0980669
-0.117186
-0.13569
-0.153509
-0.170769
-0.187407
-0.203467
-0.218978
-0.233903
-0.24819
-0.261751
-0.274445
-0.286102
-0.29651
-0.305419
-0.31263
-0.317907
-0.321199
-0.322506
-0.321625
-0.318217
-0.311947
-0.30249
-0.289585
-0.27301
-0.252636
-0.228461
-0.200642
-0.169567
-0.135971
-0.101092
-0.0677844
0.0484472
0.0625322
0.0778737
0.0937801
0.108645
0.122756
0.135558
0.146138
0.154355
0.160571
0.165019
0.167997
0.169882
0.170942
0.171372
0.171315
0.170852
0.170024
0.168836
0.16726
0.165241
0.162696
0.159507
0.15557
0.150914
0.145671
0.139945
0.133825
0.127435
0.120932
0.114514
0.108403
0.10284
0.0980628
0.0942655
0.0915963
0.0900384
0.0893049
0.0886435
0.0306333
0.0155081
-0.00182466
-0.0202635
-0.0382681
-0.0571383
-0.0760374
-0.0943826
-0.112418
-0.129838
-0.146577
-0.162758
-0.178323
-0.193315
-0.207766
-0.221644
-0.234905
-0.247468
-0.25921
-0.269979
-0.279579
-0.28779
-0.294431
-0.299299
-0.302357
-0.30362
-0.30291
-0.299926
-0.294354
-0.285893
-0.274283
-0.259306
-0.240822
-0.218804
-0.193368
-0.164847
-0.133882
-0.101575
-0.0705095
0.0447949
0.0582454
0.0729137
0.0881404
0.102386
0.115929
0.128241
0.138438
0.146382
0.152418
0.156769
0.159714
0.161618
0.162738
0.163263
0.163331
0.163025
0.162387
0.161426
0.160122
0.158427
0.156267
0.153536
0.150135
0.146081
0.141488
0.136444
0.131019
0.125316
0.119467
0.113639
0.108024
0.102828
0.0982621
0.094498
0.0916623
0.089745
0.0884989
0.0873018
0.0278921
0.0134747
-0.00303419
-0.0205718
-0.0376685
-0.0555641
-0.0734564
-0.0907915
-0.107802
-0.1242
-0.139924
-0.155092
-0.169651
-0.183644
-0.197104
-0.210003
-0.222305
-0.233937
-0.244789
-0.254724
-0.263567
-0.271118
-0.277215
-0.281686
-0.284505
-0.285699
-0.28512
-0.282495
-0.277534
-0.269961
-0.259528
-0.24602
-0.229292
-0.209294
-0.186111
-0.160019
-0.131567
-0.10172
-0.0728155
0.0414055
0.0542502
0.0682734
0.0828488
0.0965001
0.1095
0.121339
0.131167
0.138846
0.144707
0.14896
0.15187
0.153787
0.154958
0.155564
0.155742
0.155573
0.155101
0.154339
0.153273
0.151863
0.150043
0.147717
0.144793
0.141279
0.137273
0.132846
0.128057
0.122988
0.117749
0.11248
0.107342
0.102513
0.0981746
0.0944764
0.0915259
0.0893182
0.0876426
0.0859942
0.0253701
0.0116282
-0.00409363
-0.0207719
-0.0370054
-0.0539734
-0.0709109
-0.0872894
-0.103333
-0.118767
-0.133535
-0.147751
-0.161366
-0.174425
-0.186958
-0.198944
-0.21035
-0.221113
-0.231133
-0.240288
-0.248421
-0.255351
-0.260934
-0.265023
-0.267604
-0.268716
-0.268232
-0.265911
-0.261486
-0.254706
-0.245337
-0.233176
-0.21807
-0.199959
-0.178893
-0.155097
-0.129033
-0.101532
-0.0747043
0.0382639
0.0505286
0.0639345
0.0778849
0.0909666
0.103443
0.114827
0.1243
0.131723
0.137413
0.141568
0.14444
0.146364
0.147577
0.148254
0.148528
0.148478
0.148152
0.147565
0.146707
0.145547
0.144025
0.142057
0.139556
0.136525
0.133045
0.129176
0.124965
0.120478
0.115803
0.111058
0.106377
0.10191
0.0978099
0.0942063
0.0911893
0.0887559
0.0867295
0.0847084
0.0230533
0.00995701
-0.00501356
-0.0208721
-0.0362833
-0.0523705
-0.0684009
-0.0838737
-0.0990028
-0.113527
-0.127395
-0.140717
-0.153448
-0.165631
-0.177298
-0.188431