/*--------------------------------*- C++ -*----------------------------------*\
| =========                 |                                                 |
| \\      /  F ield         | OpenFOAM: The Open Source CFD Toolbox           |
|  \\    /   O peration     | Version:  2506                                  |
|   \\  /    A nd           | Website:  www.openfoam.com                      |
|    \\/     M anipulation  |                                                 |
\*---------------------------------------------------------------------------*/
FoamFile
{
    version     2.0;
    format      ascii;
    arch        "LSB;label=32;scalar=64";
    class       pointScalarField;
    location    "250";
    object      streamFunction;
}
// * * * * * * * * * * * * * * * * * * * * * * * * * * * * * * * * * * * * * //

dimensions      [0 3 -1 0 0 0 0];

internalField   nonuniform List<scalar> 
21812
(
0
0
0
0
0
0
0
0
0
0
0
0
0
0
0
0
0
0
0
0
0
0
0
0
0
0
0
0
0
0
0
0
0
0
0
0
0
0
0
0
0
0
0
0
0
0
0
0
0
0
0
0
0
0
0
0
0
0
0
0
0
0
0
0
0
0
0
0
0
0
0
0
0
0
0
0
0
0
0
0
0
0
0
0
0
0
0
0
0
0
0
0
0
0
0
0
0
0
0
0
0
0
0
0
0
0
0
0
0
0
0
0
0
0
0
0
0
0
0
0
0
0
0
0
0
0
0
0
0
0
0
0
0
0
0
0
0
0
0
0
0
0
0
0
0
0
0
0
0
0
0
0
0
0
0
0
4.676
5.06792
5.50786
5.88658
6.22484
6.54432
6.79886
6.99852
7.1583
7.25886
7.32012
7.3431
7.31678
7.24382
7.1206
6.93918
6.69734
6.37956
5.9722
5.4521
4.80442
4.01936
3.16326
2.3957
1.91322
1.81401
2.00426
2.2832
2.5324
2.7131
2.8252
2.87998
2.88044
2.8239
2.71268
2.54134
2.28942
1.91948
1.35374
1.33041
4.21434
3.73558
3.14784
2.50372
1.82552
1.12671
0.439138
-0.198243
-0.77747
-1.28906
-1.72814
-2.102
-2.41644
-2.67836
-2.90208
-3.09406
-3.26384
-3.41604
-3.55684
-3.68862
-3.81472
-3.93488
-4.04756
-4.1397
-4.20776
-4.2582
-4.29214
-4.31418
-4.3271
-4.33076
-4.32084
-4.29564
-4.25512
-4.20006
-4.12878
-4.0346
-3.89818
-3.6214
-3.22304
4.676
5.06792
5.50786
5.88658
6.22484
6.54432
6.79886
6.99852
7.1583
7.25886
7.32012
7.3431
7.31678
7.24382
7.1206
6.93918
6.69734
6.37956
5.9722
5.4521
4.80442
4.01936
3.16326
2.3957
1.91322
1.81401
2.00426
2.2832
2.5324
2.7131
2.8252
2.87998
2.88044
2.8239
2.71268
2.54134
2.28942
1.91948
1.35374
1.33041
4.21434
3.73558
3.14784
2.50372
1.82552
1.12671
0.439138
-0.198243
-0.77747
-1.28906
-1.72814
-2.102
-2.41644
-2.67836
-2.90208
-3.09406
-3.26384
-3.41604
-3.55684
-3.68862
-3.81472
-3.93488
-4.04756
-4.1397
-4.20776
-4.2582
-4.29214
-4.31418
-4.3271
-4.33076
-4.32084
-4.29564
-4.25512
-4.20006
-4.12878
-4.0346
-3.89818
-3.6214
-3.22304
8.93966
9.7617
10.6421
11.4813
12.2498
12.9901
13.6363
14.1904
14.6732
15.0579
15.3661
15.6034
15.7678
15.8688
15.9038
15.8606
15.7283
15.4847
15.109
14.551
13.7727
12.715
11.4127
10.0219
8.83814
8.08845
7.7168
7.51768
7.37516
7.25572
7.14738
7.0248
6.8592
6.62878
6.32064
5.91442
5.35936
4.59444
3.3545
2.76677
8.0388
7.09006
5.95206
4.72584
3.42935
2.08396
0.751546
-0.502297
-1.64461
-2.6572
-3.53186
-4.2834
-4.92676
-5.47328
-5.94626
-6.35822
-6.72458
-7.05608
-7.36408
-7.65314
-7.9299
-8.1955
-8.44702
-8.66226
-8.83224
-8.96716
-9.06624
-9.13224
-9.16698
-9.17244
-9.1488
-9.09806
-9.02056
-8.917
-8.78418
-8.60946
-8.37388
-7.88998
-7.1298
8.93966
9.7617
10.6421
11.4813
12.2498
12.9901
13.6363
14.1904
14.6732
15.0579
15.3661
15.6034
15.7678
15.8688
15.9038
15.8606
15.7283
15.4847
15.109
14.551
13.7727
12.715
11.4127
10.0219
8.83814
8.08845
7.7168
7.51768
7.37516
7.25572
7.14738
7.0248
6.8592
6.62878
6.32064
5.91442
5.35936
4.59444
3.3545
2.76677
8.0388
7.09006
5.95206
4.72584
3.42935
2.08396
0.751546
-0.502297
-1.64461
-2.6572
-3.53186
-4.2834
-4.92676
-5.47328
-5.94626
-6.35822
-6.72458
-7.05608
-7.36408
-7.65314
-7.9299
-8.1955
-8.44702
-8.66226
-8.83224
-8.96716
-9.06624
-9.13224
-9.16698
-9.17244
-9.1488
-9.09806
-9.02056
-8.917
-8.78418
-8.60946
-8.37388
-7.88998
-7.1298
13.0786
14.3346
15.6519
16.9629
18.1626
19.3128
20.3509
21.253
22.0477
22.6992
23.2344
23.6582
23.9711
24.1798
24.2911
24.293
24.1951
23.9771
23.6368
23.1328
22.4404
21.5004
20.3076
18.9419
17.6407
16.6516
15.9684
15.4066
14.8396
14.2306
13.5924
12.9481
12.3102
11.6655
10.9771
10.1904
9.21216
7.95022
5.9604
4.52002
11.741
10.3136
8.60318
6.78168
4.86312
2.87191
0.901553
-0.947929
-2.63606
-4.14277
-5.45334
-6.5861
-7.56366
-8.40288
-9.13322
-9.77398
-10.3459
-10.8649
-11.3468
-11.7991
-12.2325
-12.6481
-13.0413
-13.3837
-13.6606
-13.8845
-14.0559
-14.1784
-14.2551
-14.2878
-14.2778
-14.2263
-14.1339
-13.9998
-13.8191
-13.572
-13.2333
-12.5435
-11.4266
13.0786
14.3346
15.6519
16.9629
18.1626
19.3128
20.3509
21.253
22.0477
22.6992
23.2344
23.6582
23.9711
24.1798
24.2911
24.293
24.1951
23.9771
23.6368
23.1328
22.4404
21.5004
20.3076
18.9419
17.6407
16.6516
15.9684
15.4066
14.8396
14.2306
13.5924
12.9481
12.3102
11.6655
10.9771
10.1904
9.21216
7.95022
5.9604
4.52002
11.741
10.3136
8.60318
6.78168
4.86312
2.87191
0.901553
-0.947929
-2.63606
-4.14277
-5.45334
-6.5861
-7.56366
-8.40288
-9.13322
-9.77398
-10.3459
-10.8649
-11.3468
-11.7991
-12.2325
-12.6481
-13.0413
-13.3837
-13.6606
-13.8845
-14.0559
-14.1784
-14.2551
-14.2878
-14.2778
-14.2263
-14.1339
-13.9998
-13.8191
-13.572
-13.2333
-12.5435
-11.4266
17.0655
18.7752
20.5478
22.3594
24.0162
25.6096
27.0728
28.3654
29.5124
30.4825
31.298
31.9661
32.4876
32.8704
33.123
33.2391
33.2176
33.0403
32.7005
32.1677
31.4268
30.4437
29.2383
27.8803
26.5623
25.494
24.6807
23.9653
23.2273
22.4086
21.4887
20.4608
19.3337
18.131
16.8699
15.5224
13.9695
12.0776
9.23404
6.78114
15.28
13.3726
11.0797
8.66027
6.11837
3.47928
0.872716
-1.56492
-3.78947
-5.78283
-7.52326
-9.03396
-10.3462
-11.4818
-12.4767
-13.3546
-14.1422
-14.8591
-15.5254
-16.1518
-16.7507
-17.325
-17.8685
-18.3466
-18.7396
-19.0611
-19.3128
-19.4992
-19.6241
-19.6907
-19.7009
-19.6564
-19.5577
-19.4035
-19.1865
-18.8797
-18.4463
-17.5617
-16.0768
17.0655
18.7752
20.5478
22.3594
24.0162
25.6096
27.0728
28.3654
29.5124
30.4825
31.298
31.9661
32.4876
32.8704
33.123
33.2391
33.2176
33.0403
32.7005
32.1677
31.4268
30.4437
29.2383
27.8803
26.5623
25.494
24.6807
23.9653
23.2273
22.4086
21.4887
20.4608
19.3337
18.131
16.8699
15.5224
13.9695
12.0776
9.23404
6.78114
15.28
13.3726
11.0797
8.66027
6.11837
3.47928
0.872716
-1.56492
-3.78947
-5.78283
-7.52326
-9.03396
-10.3462
-11.4818
-12.4767
-13.3546
-14.1422
-14.8591
-15.5254
-16.1518
-16.7507
-17.325
-17.8685
-18.3466
-18.7396
-19.0611
-19.3128
-19.4992
-19.6241
-19.6907
-19.7009
-19.6564
-19.5577
-19.4035
-19.1865
-18.8797
-18.4463
-17.5617
-16.0768
20.9757
23.1554
25.4008
27.7409
29.8696
31.9258
33.8347
35.5341
37.0509
38.3595
39.4692
40.3949
41.1359
41.7056
42.1061
42.3342
42.3899
42.2606
41.942
41.401
40.6311
39.6002
38.3365
36.9112
35.5032
34.3095
33.3445
32.4742
31.5929
30.6437
29.5992
28.4315
27.108
25.5994
23.8876
21.9585
19.7299
17.0776
13.263
9.68278
18.7212
16.3192
13.4186
10.3842
7.20431
3.90434
0.65353
-2.37305
-5.13135
-7.6071
-9.77254
-11.6578
-13.304
-14.7377
-16.0008
-17.1225
-18.133
-19.0555
-19.914
-20.722
-21.4938
-22.2329
-22.9326
-23.5526
-24.068
-24.493
-24.8302
-25.0851
-25.2619
-25.3645
-25.3957
-25.3586
-25.2536
-25.0794
-24.8281
-24.4658
-23.9455
-22.8897
-21.0484
20.9757
23.1554
25.4008
27.7409
29.8696
31.9258
33.8347
35.5341
37.0509
38.3595
39.4692
40.3949
41.1359
41.7056
42.1061
42.3342
42.3899
42.2606
41.942
41.401
40.6311
39.6002
38.3365
36.9112
35.5032
34.3095
33.3445
32.4742
31.5929
30.6437
29.5992
28.4315
27.108
25.5994
23.8876
21.9585
19.7299
17.0776
13.263
9.68278
18.7212
16.3192
13.4186
10.3842
7.20431
3.90434
0.65353
-2.37305
-5.13135
-7.6071
-9.77254
-11.6578
-13.304
-14.7377
-16.0008
-17.1225
-18.133
-19.0555
-19.914
-20.722
-21.4938
-22.2329
-22.9326
-23.5526
-24.068
-24.493
-24.8302
-25.0851
-25.2619
-25.3645
-25.3957
-25.3586
-25.2536
-25.0794
-24.8281
-24.4658
-23.9455
-22.8897
-21.0484
24.8224
27.4926
30.2371
33.1333
35.758
38.2974
40.6796
42.8053
44.7178
46.3852
47.8146
49.0254
50.0133
50.7962
51.3763
51.7476
51.9175
51.8652
51.5891
51.0598
50.2704
49.1934
47.8623
46.3427
44.8044
43.4408
42.2788
41.205
40.1263
38.9894
37.7701
36.4456
34.9823
33.3339
31.4303
29.1725
26.4057
22.9911
18.1287
13.3266
22.0798
19.1668
15.6324
11.9602
8.1223
4.14288
0.233438
-3.38937
-6.68362
-9.6408
-12.2283
-14.4844
-16.4622
-18.1935
-19.7264
-21.0953
-22.3336
-23.4683
-24.5262
-25.5231
-26.4753
-27.3867
-28.2494
-29.0195
-29.6654
-30.2011
-30.631
-30.9606
-31.195
-31.3386
-31.3951
-31.3683
-31.2587
-31.0654
-30.7779
-30.3576
-29.7437
-28.5204
-26.331
24.8224
27.4926
30.2371
33.1333
35.758
38.2974
40.6796
42.8053
44.7178
46.3852
47.8146
49.0254
50.0133
50.7962
51.3763
51.7476
51.9175
51.8652
51.5891
51.0598
50.2704
49.1934
47.8623
46.3427
44.8044
43.4408
42.2788
41.205
40.1263
38.9894
37.7701
36.4456
34.9823
33.3339
31.4303
29.1725
26.4057
22.9911
18.1287
13.3266
22.0798
19.1668
15.6324
11.9602
8.1223
4.14288
0.233438
-3.38937
-6.68362
-9.6408
-12.2283
-14.4844
-16.4622
-18.1935
-19.7264
-21.0953
-22.3336
-23.4683
-24.5262
-25.5231
-26.4753
-27.3867
-28.2494
-29.0195
-29.6654
-30.2011
-30.631
-30.9606
-31.195
-31.3386
-31.3951
-31.3683
-31.2587
-31.0654
-30.7779
-30.3576
-29.7437
-28.5204
-26.331
28.6322
31.8193
35.0838
38.5675
41.7136
44.7612
47.638
50.2131
52.538
54.5848
56.3522
57.864
59.119
60.1324
60.9077
61.4406
61.7349
61.7739
61.5554
61.0531
60.2618
59.1583
57.777
56.1811
54.5259
53.0002
51.6408
50.3532
49.0558
47.6981
46.2559
44.71
43.0339
41.1913
39.1166
36.6856
33.64
29.6804
23.8496
17.7876
25.3771
21.9309
17.7336
13.3973
8.87726
4.19348
-0.394328
-4.62678
-8.46415
-11.9062
-14.9148
-17.5393
-19.8463
-21.8736
-23.6762
-25.294
-26.7638
-28.1157
-29.3789
-30.5712
-31.7103
-32.8004
-33.833
-34.7594
-35.5433
-36.1972
-36.7259
-37.136
-37.4326
-37.6213
-37.706
-37.6916
-37.579
-37.3664
-37.0426
-36.5623
-35.8509
-34.4597
-31.9325
28.6322
31.8193
35.0838
38.5675
41.7136
44.7612
47.638
50.2131
52.538
54.5848
56.3522
57.864
59.119
60.1324
60.9077
61.4406
61.7349
61.7739
61.5554
61.0531
60.2618
59.1583
57.777
56.1811
54.5259
53.0002
51.6408
50.3532
49.0558
47.6981
46.2559
44.71
43.0339
41.1913
39.1166
36.6856
33.64
29.6804
23.8496
17.7876
25.3771
21.9309
17.7336
13.3973
8.87726
4.19348
-0.394328
-4.62678
-8.46415
-11.9062
-14.9148
-17.5393
-19.8463
-21.8736
-23.6762
-25.294
-26.7638
-28.1157
-29.3789
-30.5712
-31.7103
-32.8004
-33.833
-34.7594
-35.5433
-36.1972
-36.7259
-37.136
-37.4326
-37.6213
-37.706
-37.6916
-37.579
-37.3664
-37.0426
-36.5623
-35.8509
-34.4597
-31.9325
32.4187
36.1495
39.9627
44.0673
47.7589
51.3405
54.737
57.7819
60.5432
62.9858
65.1099
66.944
68.4836
69.7456
70.736
71.4495
71.8894
72.0402
71.8997
71.4409
70.6613
69.5418
68.1177
66.4506
64.6879
63.0112
61.4642
59.9688
58.454
56.8706
55.1941
53.4034
51.4736
49.3714
47.0429
44.3819
41.1297
36.8633
30.3168
23.0828
28.6265
24.6241
19.7294
14.6986
9.46763
4.05211
-1.23847
-6.09834
-10.4899
-14.4229
-17.8546
-20.8463
-23.4806
-25.8018
-27.8727
-29.7402
-31.4433
-33.0158
-34.4889
-35.8822
-37.2139
-38.4891
-39.6982
-40.7883
-41.7176
-42.4971
-43.1317
-43.6288
-43.9932
-44.2315
-44.3485
-44.3493
-44.2356
-44.0048
-43.6436
-43.1013
-42.2886
-40.7272
-37.8724
32.4187
36.1495
39.9627
44.0673
47.7589
51.3405
54.737
57.7819
60.5432
62.9858
65.1099
66.944
68.4836
69.7456
70.736
71.4495
71.8894
72.0402
71.8997
71.4409
70.6613
69.5418
68.1177
66.4506
64.6879
63.0112
61.4642
59.9688
58.454
56.8706
55.1941
53.4034
51.4736
49.3714
47.0429
44.3819
41.1297
36.8633
30.3168
23.0828
28.6265
24.6241
19.7294
14.6986
9.46763
4.05211
-1.23847
-6.09834
-10.4899
-14.4229
-17.8546
-20.8463
-23.4806
-25.8018
-27.8727
-29.7402
-31.4433
-33.0158
-34.4889
-35.8822
-37.2139
-38.4891
-39.6982
-40.7883
-41.7176
-42.4971
-43.1317
-43.6288
-43.9932
-44.2315
-44.3485
-44.3493
-44.2356
-44.0048
-43.6436
-43.1013
-42.2886
-40.7272
-37.8724
36.1987
40.5006
44.8913
49.651
53.9159
58.0608
62.004
65.5431
68.7588
71.6193
74.1167
76.2873
78.1279
79.6557
80.8773
81.7875
82.3906
82.6689
82.6205
82.2196
81.4651
80.3416
78.885
77.1552
75.2934
73.476
71.7511
70.0541
68.3258
66.5197
64.6094
62.5728
60.3828
58.003
55.3783
52.4094
48.8663
44.349
37.3394
29.133
31.8396
27.2537
21.6262
15.8694
9.89446
3.71552
-2.30731
-7.81581
-12.7762
-17.2099
-21.069
-24.4288
-27.3891
-30.0024
-32.3401
-34.4562
-36.3937
-38.1888
-39.875
-41.4737
-43.0038
-44.4697
-45.8614
-47.1221
-48.2046
-49.1165
-49.8641
-50.4541
-50.8922
-51.185
-51.338
-51.3571
-51.2438
-50.9955
-50.597
-49.9912
-49.0737
-47.3414
-44.1708
36.1987
40.5006
44.8913
49.651
53.9159
58.0608
62.004
65.5431
68.7588
71.6193
74.1167
76.2873
78.1279
79.6557
80.8773
81.7875
82.3906
82.6689
82.6205
82.2196
81.4651
80.3416
78.885
77.1552
75.2934
73.476
71.7511
70.0541
68.3258
66.5197
64.6094
62.5728
60.3828
58.003
55.3783
52.4094
48.8663
44.349
37.3394
29.133
31.8396
27.2537
21.6262
15.8694
9.89446
3.71552
-2.30731
-7.81581
-12.7762
-17.2099
-21.069
-24.4288
-27.3891
-30.0024
-32.3401
-34.4562
-36.3937
-38.1888
-39.875
-41.4737
-43.0038
-44.4697
-45.8614
-47.1221
-48.2046
-49.1165
-49.8641
-50.4541
-50.8922
-51.185
-51.338
-51.3571
-51.2438
-50.9955
-50.597
-49.9912
-49.0737
-47.3414
-44.1708
39.9807
44.8859
49.8852
55.3379
60.2052
64.9392
69.4588
73.5155
77.2083
80.5065
83.395
85.9192
88.0784
89.8865
91.3539
92.4784
93.2592
93.681
93.7402
93.4135
92.6993
91.582
90.1025
88.3172
86.3638
84.4132
82.5161
80.622
78.6821
76.6522
74.5073
72.2237
69.7724
67.1139
64.1872
60.8863
56.9784
52.1347
44.7686
35.7814
35.0273
29.8285
23.4288
16.9089
10.1562
3.17701
-3.60892
-9.79102
-15.3384
-20.2856
-24.5789
-28.3092
-31.5957
-34.4996
-37.1022
-39.4658
-41.6372
-43.6558
-45.5578
-47.3654
-49.0976
-50.7598
-52.3402
-53.7781
-55.0208
-56.0729
-56.9401
-57.6299
-58.1474
-58.4997
-58.6932
-58.7334
-58.6229
-58.3584
-57.9221
-57.2511
-56.2263
-54.3229
-50.8476
39.9807
44.8859
49.8852
55.3379
60.2052
64.9392
69.4588
73.5155
77.2083
80.5065
83.395
85.9192
88.0784
89.8865
91.3539
92.4784
93.2592
93.681
93.7402
93.4135
92.6993
91.582
90.1025
88.3172
86.3638
84.4132
82.5161
80.622
78.6821
76.6522
74.5073
72.2237
69.7724
67.1139
64.1872
60.8863
56.9784
52.1347
44.7686
35.7814
35.0273
29.8285
23.4288
16.9089
10.1562
3.17701
-3.60892
-9.79102
-15.3384
-20.2856
-24.5789
-28.3092
-31.5957
-34.4996
-37.1022
-39.4658
-41.6372
-43.6558
-45.5578
-47.3654
-49.0976
-50.7598
-52.3402
-53.7781
-55.0208
-56.0729
-56.9401
-57.6299
-58.1474
-58.4997
-58.6932
-58.7334
-58.6229
-58.3584
-57.9221
-57.2511
-56.2263
-54.3229
-50.8476
43.7769
49.3169
54.9564
61.1407
66.6441
71.9996
77.1249
81.7223
85.9168
89.6735
92.972
95.8658
98.3565
100.461
102.191
103.542
104.516
105.096
105.278
105.039
104.377
103.279
101.785
99.9525
97.9155
95.8402
93.7795
91.6925
89.5413
87.2867
84.9029
82.3673
79.6501
76.7092
73.4788
69.8452
65.5544
60.3053
52.5673
42.884
38.1956
32.3538
25.1404
17.8186
10.2488
2.43181
-5.15263
-12.0363
-18.1921
-23.6675
-28.4044
-32.5097
-36.1241
-39.3178
-42.1838
-44.7931
-47.1974
-49.4398
-51.5584
-53.5773
-55.5159
-57.3789
-59.1532
-60.7749
-62.1848
-63.3842
-64.3783
-65.1742
-65.7774
-66.1945
-66.4325
-66.4976
-66.3921
-66.1126
-65.6384
-64.901
-63.7663
-61.6921
-57.9246
43.7769
49.3169
54.9564
61.1407
66.6441
71.9996
77.1249
81.7223
85.9168
89.6735
92.972
95.8658
98.3565
100.461
102.191
103.542
104.516
105.096
105.278
105.039
104.377
103.279
101.785
99.9525
97.9155
95.8402
93.7795
91.6925
89.5413
87.2867
84.9029
82.3673
79.6501
76.7092
73.4788
69.8452
65.5544
60.3053
52.5673
42.884
38.1956
32.3538
25.1404
17.8186
10.2488
2.43181
-5.15263
-12.0363
-18.1921
-23.6675
-28.4044
-32.5097
-36.1241
-39.3178
-42.1838
-44.7931
-47.1974
-49.4398
-51.5584
-53.5773
-55.5159
-57.3789
-59.1532
-60.7749
-62.1848
-63.3842
-64.3783
-65.1742
-65.7774
-66.1945
-66.4325
-66.4976
-66.3921
-66.1126
-65.6384
-64.901
-63.7663
-61.6921
-57.9246
47.5935
53.8044
60.1193
67.0759
73.2476
79.257
85.0198
90.188
94.907
99.1438
102.87
106.152
108.991
111.405
113.41
115.003
116.185
116.936
117.254
117.115
116.519
115.451
113.954
112.083
109.97
107.778
105.561
103.286
100.926
98.4453
95.8192
93.0256
90.0348
86.8036
83.2619
79.2915
74.6213
68.9319
60.7712
50.3991
41.3515
34.8321
26.7622
18.5967
10.1687
1.47291
-6.94907
-14.5644
-21.3522
-27.374
-32.5662
-37.0529
-40.9976
-44.4816
-47.6097
-50.4632
-53.0988
-55.5642
-57.9002
-60.1318
-62.2794
-64.3468
-66.3206
-68.1323
-69.7161
-71.0698
-72.1976
-73.1067
-73.8012
-74.2888
-74.5759
-74.6695
-74.5718
-74.2784
-73.7666
-72.9616
-71.7148
-69.4712
-65.4244
47.5935
53.8044
60.1193
67.0759
73.2476
79.257
85.0198
90.188
94.907
99.1438
102.87
106.152
108.991
111.405
113.41
115.003
116.185
116.936
117.254
117.115
116.519
115.451
113.954
112.083
109.97
107.778
105.561
103.286
100.926
98.4453
95.8192
93.0256
90.0348
86.8036
83.2619
79.2915
74.6213
68.9319
60.7712
50.3991
41.3515
34.8321
26.7622
18.5967
10.1687
1.47291
-6.94907
-14.5644
-21.3522
-27.374
-32.5662
-37.0529
-40.9976
-44.4816
-47.6097
-50.4632
-53.0988
-55.5642
-57.9002
-60.1318
-62.2794
-64.3468
-66.3206
-68.1323
-69.7161
-71.0698
-72.1976
-73.1067
-73.8012
-74.2888
-74.5759
-74.6695
-74.5718
-74.2784
-73.7666
-72.9616
-71.7148
-69.4712
-65.4244
51.4403
58.3563
65.384
73.1562
80.0332
86.7315
93.1647
98.9323
104.203
108.941
113.115
116.801
120.005
122.743
125.039
126.886
128.287
129.223
129.691
129.665
129.145
128.119
126.627
124.725
122.546
120.247
117.882
115.426
112.859
110.151
107.28
104.224
100.952
97.4204
93.5565
89.2382
84.1861
78.0501
69.4316
58.364
44.4993
37.2689
28.2951
19.2419
9.91097
0.290896
-9.00809
-17.3893
-24.8353
-31.4236
-37.0848
-41.9611
-46.2408
-50.0164
-53.406
-56.5023
-59.3675
-62.0547
-64.6075
-67.0528
-69.4111
-71.6866
-73.8641
-75.8716
-77.6356
-79.1505
-80.4189
-81.4472
-82.2396
-82.8032
-83.1445
-83.2705
-83.1834
-82.8778
-82.3285
-81.4555
-80.095
-77.6829
-73.3703
51.4403
58.3563
65.384
73.1562
80.0332
86.7315
93.1647
98.9323
104.203
108.941
113.115
116.801
120.005
122.743
125.039
126.886
128.287
129.223
129.691
129.665
129.145
128.119
126.627
124.725
122.546
120.247
117.882
115.426
112.859
110.151
107.28
104.224
100.952
97.4204
93.5565
89.2382
84.1861
78.0501
69.4316
58.364
44.4993
37.2689
28.2951
19.2419
9.91097
0.290896
-9.00809
-17.3893
-24.8353
-31.4236
-37.0848
-41.9611
-46.2408
-50.0164
-53.406
-56.5023
-59.3675
-62.0547
-64.6075
-67.0528
-69.4111
-71.6866
-73.8641
-75.8716
-77.6356
-79.1505
-80.4189
-81.4472
-82.2396
-82.8032
-83.1445
-83.2705
-83.1834
-82.8778
-82.3285
-81.4555
-80.095
-77.6829
-73.3703
55.3221
62.9822
70.7619
79.3957
87.016
94.439
101.578
107.976
113.824
119.088
123.731
127.841
131.424
134.503
137.101
139.214
140.848
141.982
142.611
142.71
142.279
141.304
139.827
137.905
135.667
133.27
130.765
128.134
125.364
122.43
119.311
115.987
112.427
108.587
104.39
99.7102
94.2646
87.6779
78.5871
66.8295
47.6463
39.6641
29.7388
19.7503
9.46998
-1.12111
-11.3425
-20.5254
-28.6591
-35.8363
-41.9822
-47.2578
-51.8782
-55.9478
-59.5988
-62.9369
-66.0303
-68.9373
-71.706
-74.3652
-76.9355
-79.4214
-81.8068
-84.0152
-85.9656
-87.648
-89.0637
-90.2182
-91.1147
-91.76
-92.1602
-92.3226
-92.2492
-91.9333
-91.3472
-90.4056
-88.9305
-86.3524
-81.7871
55.3221
62.9822
70.7619
79.3957
87.016
94.439
101.578
107.976
113.824
119.088
123.731
127.841
131.424
134.503
137.101
139.214
140.848
141.982
142.611
142.71
142.279
141.304
139.827
137.905
135.667
133.27
130.765
128.134
125.364
122.43
119.311
115.987
112.427
108.587
104.39
99.7102
94.2646
87.6779
78.5871
66.8295
47.6463
39.6641
29.7388
19.7503
9.46998
-1.12111
-11.3425
-20.5254
-28.6591
-35.8363
-41.9822
-47.2578
-51.8782
-55.9478
-59.5988
-62.9369
-66.0303
-68.9373
-71.706
-74.3652
-76.9355
-79.4214
-81.8068
-84.0152
-85.9656
-87.648
-89.0637
-90.2182
-91.1147
-91.76
-92.1602
-92.3226
-92.2492
-91.9333
-91.3472
-90.4056
-88.9305
-86.3524
-81.7871
59.245
67.6913
76.2636
85.8074
94.2101
102.397
110.28
117.339
123.794
129.612
134.745
139.297
143.277
146.708
149.624
152.017
153.895
155.238
156.041
156.275
155.943
155.03
153.577
151.642
149.354
146.868
144.233
141.433
138.464
135.305
131.938
128.342
124.488
120.33
115.79
110.736
104.882
97.8357
88.2649
75.8347
50.7944
42.0227
31.0926
20.1191
8.83942
-2.77413
-13.9638
-23.9882
-32.8401
-40.6317
-47.2796
-52.9666
-57.935
-62.3021
-66.2158
-69.7948
-73.1146
-76.2402
-79.2234
-82.0956
-84.8786
-87.577
-90.1737
-92.5877
-94.7303
-96.5864
-98.1558
-99.4426
-100.45
-101.182
-101.646
-101.85
-101.793
-101.469
-100.847
-99.8367
-98.2468
-95.5045
-90.7005
59.245
67.6913
76.2636
85.8074
94.2101
102.397
110.28
117.339
123.794
129.612
134.745
139.297
143.277
146.708
149.624
152.017
153.895
155.238
156.041
156.275
155.943
155.03
153.577
151.642
149.354
146.868
144.233
141.433
138.464
135.305
131.938
128.342
124.488
120.33
115.79
110.736
104.882
97.8357
88.2649
75.8347
50.7944
42.0227
31.0926
20.1191
8.83942
-2.77413
-13.9638
-23.9882
-32.8401
-40.6317
-47.2796
-52.9666
-57.935
-62.3021
-66.2158
-69.7948
-73.1146
-76.2402
-79.2234
-82.0956
-84.8786
-87.577
-90.1737
-92.5877
-94.7303
-96.5864
-98.1558
-99.4426
-100.45
-101.182
-101.646
-101.85
-101.793
-101.469
-100.847
-99.8367
-98.2468
-95.5045
-90.7005
63.2164
72.4921
81.8996
92.4038
101.63
110.623
119.29
127.045
134.138
140.535
146.18
151.194
155.589
159.39
162.635
165.321
167.456
169.019
170.005
170.387
170.163
169.321
167.901
165.962
163.633
161.066
158.309
155.348
152.185
148.803
145.186
141.316
137.162
132.679
127.786
122.346
116.07
108.55
98.4906
85.4083
53.9475
44.3434
32.3543
20.3431
8.01114
-4.67871
-16.8868
-27.7942
-37.3985
-45.8309
-53.0009
-59.1124
-64.4371
-69.1067
-73.2849
-77.1049
-80.6498
-83.9922
-87.1883
-90.2727
-93.2682
-96.1802
-98.9912
-101.615
-103.955
-105.991
-107.72
-109.145
-110.269
-111.094
-111.628
-111.876
-111.84
-111.51
-110.854
-109.775
-108.07
-105.167
-100.139
63.2164
72.4921
81.8996
92.4038
101.63
110.623
119.29
127.045
134.138
140.535
146.18
151.194
155.589
159.39
162.635
165.321
167.456
169.019
170.005
170.387
170.163
169.321
167.901
165.962
163.633
161.066
158.309
155.348
152.185
148.803
145.186
141.316
137.162
132.679
127.786
122.346
116.07
108.55
98.4906
85.4083
53.9475
44.3434
32.3543
20.3431
8.01114
-4.67871
-16.8868
-27.7942
-37.3985
-45.8309
-53.0009
-59.1124
-64.4371
-69.1067
-73.2849
-77.1049
-80.6498
-83.9922
-87.1883
-90.2727
-93.2682
-96.1802
-98.9912
-101.615
-103.955
-105.991
-107.72
-109.145
-110.269
-111.094
-111.628
-111.876
-111.84
-111.51
-110.854
-109.775
-108.07
-105.167
-100.139
67.2402
77.3899
87.6793
99.1975
109.293
119.134
128.627
137.114
144.877
151.882
158.064
163.563
168.389
172.576
176.166
179.156
181.559
183.354
184.534
185.072
184.967
184.205
182.826
180.891
178.529
175.891
173.019
169.904
166.552
162.949
159.083
154.935
150.478
145.662
140.406
134.571
127.859
119.852
109.293
95.5766
57.1086
46.6278
33.5224
20.4167
6.97688
-6.84555
-20.1262
-31.9605
-42.354
-51.4562
-59.1692
-65.7201
-71.4116
-76.3896
-80.8349
-84.8968
-88.6662
-92.2237
-95.6309
-98.926
-102.134
-105.26
-108.288
-111.126
-113.667
-115.887
-117.782
-119.352
-120.598
-121.523
-122.131
-122.429
-122.417
-122.084
-121.395
-120.248
-118.429
-115.368
-110.129
67.2402
77.3899
87.6793
99.1975
109.293
119.134
128.627
137.114
144.877
151.882
158.064
163.563
168.389
172.576
176.166
179.156
181.559
183.354
184.534
185.072
184.967
184.205
182.826
180.891
178.529
175.891
173.019
169.904
166.552
162.949
159.083
154.935
150.478
145.662
140.406
134.571
127.859
119.852
109.293
95.5766
57.1086
46.6278
33.5224
20.4167
6.97688
-6.84555
-20.1262
-31.9605
-42.354
-51.4562
-59.1692
-65.7201
-71.4116
-76.3896
-80.8349
-84.8968
-88.6662
-92.2237
-95.6309
-98.926
-102.134
-105.26
-108.288
-111.126
-113.667
-115.887
-117.782
-119.352
-120.598
-121.523
-122.131
-122.429
-122.417
-122.084
-121.395
-120.248
-118.429
-115.368
-110.129
71.3231
82.3948
93.6149
106.201
117.214
127.948
138.311
147.568
156.036
163.679
170.424
176.428
181.706
186.294
190.244
193.553
196.235
198.272
199.657
200.361
200.384
199.709
198.381
196.456
194.069
191.367
188.39
185.129
181.593
177.773
173.658
169.231
164.465
159.31
153.683
147.44
140.282
131.774
120.704
106.369
60.2818
48.8767
34.5931
20.3348
5.72716
-9.28817
-23.6964
-36.5062
-47.7271
-57.531
-65.8104
-72.8172
-78.8869
-84.1802
-88.8966
-93.2014
-97.1953
-100.966
-104.583
-108.087
-111.506
-114.847
-118.093
-121.148
-123.896
-126.306
-128.371
-130.092
-131.466
-132.495
-133.183
-133.536
-133.551
-133.218
-132.498
-131.284
-129.353
-126.139
-120.703
71.3231
82.3948
93.6149
106.201
117.214
127.948
138.311
147.568
156.036
163.679
170.424
176.428
181.706
186.294
190.244
193.553
196.235
198.272
199.657
200.361
200.384
199.709
198.381
196.456
194.069
191.367
188.39
185.129
181.593
177.773
173.658
169.231
164.465
159.31
153.683
147.44
140.282
131.774
120.704
106.369
60.2818
48.8767
34.5931
20.3348
5.72716
-9.28817
-23.6964
-36.5062
-47.7271
-57.531
-65.8104
-72.8172
-78.8869
-84.1802
-88.8966
-93.2014
-97.1953
-100.966
-104.583
-108.087
-111.506
-114.847
-118.093
-121.148
-123.896
-126.306
-128.371
-130.092
-131.466
-132.495
-133.183
-133.536
-133.551
-133.218
-132.498
-131.284
-129.353
-126.139
-120.703
75.4695
87.5139
99.7142
113.43
125.407
137.084
148.363
158.431
167.639
175.952
183.288
189.821
195.571
200.579
204.903
208.544
211.517
213.807
215.405
216.285
216.443
215.865
214.593
212.686
210.282
207.524
204.45
201.05
197.336
193.303
188.94
184.233
179.154
173.654
167.648
160.988
153.372
144.353
132.758
117.817
63.4692
51.0895
35.5635
20.0911
4.25278
-12.0193
-27.6153
-41.4501
-53.54
-64.0788
-72.95
-80.4311
-86.8916
-92.5088
-97.5012
-102.051
-106.27
-110.253
-114.078
-117.79
-121.419
-124.975
-128.44
-131.715
-134.672
-137.276
-139.517
-141.393
-142.901
-144.04
-144.814
-145.226
-145.272
-144.943
-144.193
-142.915
-140.873
-137.51
-131.892
75.4695
87.5139
99.7142
113.43
125.407
137.084
148.363
158.431
167.639
175.952
183.288
189.821
195.571
200.579
204.903
208.544
211.517
213.807
215.405
216.285
216.443
215.865
214.593
212.686
210.282
207.524
204.45
201.05
197.336
193.303
188.94
184.233
179.154
173.654
167.648
160.988
153.372
144.353
132.758
117.817
63.4692
51.0895
35.5635
20.0911
4.25278
-12.0193
-27.6153
-41.4501
-53.54
-64.0788
-72.95
-80.4311
-86.8916
-92.5088
-97.5012
-102.051
-106.27
-110.253
-114.078
-117.79
-121.419
-124.975
-128.44
-131.715
-134.672
-137.276
-139.517
-141.393
-142.901
-144.04
-144.814
-145.226
-145.272
-144.943
-144.193
-142.915
-140.873
-137.51
-131.892
79.6853
92.7547
105.989
120.895
133.891
146.56
158.805
169.726
179.712
188.729
196.685
203.772
210.017
215.462
220.176
224.162
227.439
229.992
231.813
232.877
233.178
232.704
231.495
229.614
227.198
224.392
221.229
217.698
213.813
209.57
204.961
199.973
194.578
188.728
182.336
175.249
167.164
157.623
145.493
129.957
66.673
53.2662
36.4296
19.6771
2.54285
-15.0533
-31.9
-46.8134
-59.8165
-71.1265
-80.6168
-88.5911
-95.4569
-101.407
-106.681
-111.48
-115.923
-120.12
-124.151
-128.069
-131.906
-135.676
-139.362
-142.859
-146.03
-148.831
-151.252
-153.289
-154.935
-156.19
-157.054
-157.53
-157.613
-157.289
-156.513
-155.172
-153.023
-149.516
-143.729
79.6853
92.7547
105.989
120.895
133.891
146.56
158.805
169.726
179.712
188.729
196.685
203.772
210.017
215.462
220.176
224.162
227.439
229.992
231.813
232.877
233.178
232.704
231.495
229.614
227.198
224.392
221.229
217.698
213.813
209.57
204.961
199.973
194.578
188.728
182.336
175.249
167.164
157.623
145.493
129.957
66.673
53.2662
36.4296
19.6771
2.54285
-15.0533
-31.9
-46.8134
-59.8165
-71.1265
-80.6168
-88.5911
-95.4569
-101.407
-106.681
-111.48
-115.923
-120.12
-124.151
-128.069
-131.906
-135.676
-139.362
-142.859
-146.03
-148.831
-151.252
-153.289
-154.935
-156.19
-157.054
-157.53
-157.613
-157.289
-156.513
-155.172
-153.023
-149.516
-143.729
83.9736
98.1252
112.45
128.612
142.68
156.397
169.658
181.477
192.282
202.039
210.643
218.312
225.073
230.975
236.097
240.442
244.036
246.862
248.917
250.173
250.625
250.26
249.121
247.272
244.85
242.003
238.758
235.101
231.053
226.605
221.754
216.484
210.772
204.566
197.78
190.258
181.696
171.623
158.947
142.825
69.8955
55.4059
37.1879
19.0857
0.585218
-18.4061
-36.5705
-52.6189
-66.5815
-78.7003
-88.8391
-97.3286
-104.615
-110.909
-116.471
-121.522
-126.193
-130.601
-134.837
-138.96
-143.005
-146.988
-150.896
-154.617
-158.003
-161.005
-163.61
-165.812
-167.602
-168.978
-169.937
-170.481
-170.605
-170.291
-169.492
-168.09
-165.837
-162.192
-156.249
83.9736
98.1252
112.45
128.612
142.68
156.397
169.658
181.477
192.282
202.039
210.643
218.312
225.073
230.975
236.097
240.442
244.036
246.862
248.917
250.173
250.625
250.26
249.121
247.272
244.85
242.003
238.758
235.101
231.053
226.605
221.754
216.484
210.772
204.566
197.78
190.258
181.696
171.623
158.947
142.825
69.8955
55.4059
37.1879
19.0857
0.585218
-18.4061
-36.5705
-52.6189
-66.5815
-78.7003
-88.8391
-97.3286
-104.615
-110.909
-116.471
-121.522
-126.193
-130.601
-134.837
-138.96
-143.005
-146.988
-150.896
-154.617
-158.003
-161.005
-163.61
-165.812
-167.602
-168.978
-169.937
-170.481
-170.605
-170.291
-169.492
-168.09
-165.837
-162.192
-156.249
88.3416
103.634
119.108
136.595
151.795
166.613
180.947
193.71
205.378
215.912
225.198
233.475
240.776
247.156
252.701
257.422
261.344
264.456
266.753
268.209
268.819
268.57
267.506
265.694
263.273
260.39
257.071
253.298
249.092
244.444
239.35
233.801
227.771
221.207
214.02
206.054
197.004
186.392
173.16
156.462
73.1389
57.5084
37.8334
18.3087
-1.6324
-22.0939
-41.6459
-58.8892
-73.8609
-86.83
-97.6476
-106.675
-114.399
-121.049
-126.907
-132.215
-137.114
-141.736
-146.177
-150.503
-154.754
-158.95
-163.079
-167.026
-170.63
-173.836
-176.629
-178.999
-180.937
-182.438
-183.498
-184.115
-184.283
-183.983
-183.164
-181.705
-179.352
-175.575
-169.49
88.3416
103.634
119.108
136.595
151.795
166.613
180.947
193.71
205.378
215.912
225.198
233.475
240.776
247.156
252.701
257.422
261.344
264.456
266.753
268.209
268.819
268.57
267.506
265.694
263.273
260.39
257.071
253.298
249.092
244.444
239.35
233.801
227.771
221.207
214.02
206.054
197.004
186.392
173.16
156.462
73.1389
57.5084
37.8334
18.3087
-1.6324
-22.0939
-41.6459
-58.8892
-73.8609
-86.83
-97.6476
-106.675
-114.399
-121.049
-126.907
-132.215
-137.114
-141.736
-146.177
-150.503
-154.754
-158.95
-163.079
-167.026
-170.63