/*--------------------------------*- C++ -*----------------------------------*\
| =========                 |                                                 |
| \\      /  F ield         | OpenFOAM: The Open Source CFD Toolbox           |
|  \\    /   O peration     | Version:  2506                                  |
|   \\  /    A nd           | Website:  www.openfoam.com                      |
|    \\/     M anipulation  |                                                 |
\*---------------------------------------------------------------------------*/
FoamFile
{
    version     2.0;
    format      ascii;
    arch        "LSB;label=32;scalar=64";
    class       volSymmTensorField;
    location    "250";
    object      turbulenceProperties:R;
}
// * * * * * * * * * * * * * * * * * * * * * * * * * * * * * * * * * * * * * //

dimensions      [0 2 -2 0 0 0 0];

internalField   nonuniform List<symmTensor> 
10720
(
(0.0144955 0.00306769 -6.83849e-22 0.0120382 -1.61285e-20 0.0134145)
(0.0172826 0.0036444 -9.93853e-23 0.0136421 1.04818e-19 0.0155721)
(0.0210736 0.00423269 -2.14161e-20 0.0153229 -3.37157e-19 0.0184276)
(0.0262438 0.00499421 9.56696e-20 0.0176153 7.06201e-19 0.0222261)
(0.0326133 0.00571256 -1.87768e-19 0.0200485 -6.93346e-19 0.0266659)
(0.0409431 0.00622281 -1.4764e-19 0.0227775 -3.8613e-19 0.0323635)
(0.0517193 0.00649312 2.86942e-19 0.0261121 1.10277e-18 0.039558)
(0.0651738 0.00617916 -7.48812e-19 0.0300784 -2.03718e-18 0.0484135)
(0.0821683 0.00491504 -1.89658e-19 0.0351236 5.55247e-19 0.0596746)
(0.103542 0.00243237 5.72681e-19 0.0419226 1.17535e-18 0.0739929)
(0.130577 -0.00179485 1.49403e-18 0.0513481 5.4611e-19 0.0925112)
(0.165419 -0.00835302 -3.39745e-18 0.0647736 -3.15536e-18 0.116987)
(0.211023 -0.0181703 6.49546e-19 0.0840693 8.38476e-19 0.149853)
(0.272265 -0.0328392 2.61388e-18 0.112255 1.23864e-18 0.195113)
(0.357418 -0.0550158 -3.9935e-18 0.154479 -6.23913e-18 0.259573)
(0.479345 -0.0890375 -4.29879e-18 0.219121 -2.54531e-18 0.353923)
(0.662943 -0.143478 1.90024e-17 0.322656 1.75966e-17 0.499189)
(0.940004 -0.230748 1.77308e-17 0.488906 3.35413e-17 0.723212)
(1.41608 -0.386826 -3.51995e-17 0.789078 -5.45528e-17 1.11543)
(2.14162 -0.640325 -1.38359e-18 1.27877 1.4522e-17 1.72842)
(3.74387 -1.21044 -2.7159e-17 2.39577 5.18478e-17 3.09883)
(6.10901 -2.11619 -1.21471e-17 4.19167 4.17675e-17 5.18956)
(13.7958 -5.11348 -1.43096e-16 10.226 -6.36906e-16 12.0889)
(26.0208 -10.3236 3.30589e-16 21.0779 5.56276e-16 23.6749)
(27.7688 -11.7019 4.19309e-17 24.6565 -7.10873e-16 26.2752)
(25.6583 -11.2951 3.67435e-16 24.6075 5.78989e-16 25.1164)
(24.5445 -11.109 -8.14466e-17 24.8639 -7.83463e-17 24.6599)
(24.4627 -11.2879 2.74552e-16 25.8213 2.30106e-16 25.1051)
(24.5375 -11.4979 7.30938e-16 26.8354 1.20685e-15 25.662)
(24.2336 -11.507 4.03967e-16 27.3985 1.99556e-15 25.8036)
(23.4979 -11.289 -1.41487e-15 27.4284 -1.92968e-15 25.4657)
(22.4174 -10.8793 -4.77479e-16 26.973 -7.25596e-16 24.7109)
(20.9683 -10.2633 -2.77905e-17 25.9615 -4.37558e-15 23.4874)
(19.1789 -9.45459 -2.58962e-15 24.3967 -7.29591e-15 21.8109)
(17.0311 -8.44517 1.00693e-15 22.2204 9.23088e-16 19.6471)
(14.5851 -7.26546 1.22923e-15 19.4719 1.14686e-15 17.0451)
(11.4211 -5.71176 -1.23125e-16 15.5851 -5.27187e-16 13.5233)
(8.39672 -4.20476 -1.5308e-15 11.5954 -2.60875e-17 9.9989)
(1.87041 -0.942314 -1.87663e-16 2.82984 -1.91628e-15 2.34904)
(0.0120276 0.00257262 1.65719e-21 0.0106504 3.85208e-20 0.011393)
(0.0101289 0.00212376 -2.37156e-21 0.00933895 1.8177e-23 0.00982368)
(0.00808174 0.00164618 -1.23312e-20 0.00782607 -8.64647e-20 0.00799845)
(0.00638487 0.00123933 2.95092e-21 0.00644427 5.55113e-20 0.00644496)
(0.00486303 0.000878963 2.15761e-21 0.00505036 -1.00465e-20 0.00497182)
(0.00355215 0.00058657 -1.70144e-20 0.00372587 5.5699e-20 0.00363874)
(0.0025298 0.000377384 -9.13875e-20 0.00261663 7.3553e-20 0.00255689)
(0.00194553 0.000261361 5.68481e-20 0.00191606 -2.71139e-20 0.00190759)
(0.00211324 0.000277898 1.01417e-19 0.00191807 -5.13011e-20 0.00199794)
(0.00295755 0.000385178 -8.01593e-20 0.00247011 2.02637e-20 0.00271125)
(0.004514 0.000623756 -2.35964e-20 0.00352057 1.11283e-19 0.00402696)
(0.00693475 0.00109489 1.74286e-19 0.00509593 7.25071e-20 0.00603417)
(0.0105114 0.00197138 3.58653e-19 0.0073279 -5.58388e-20 0.00895496)
(0.0156724 0.00349516 -6.86473e-21 0.0104662 -2.18669e-19 0.0131343)
(0.0229294 0.00591751 -7.168e-20 0.0148956 -1.54526e-19 0.0190126)
(0.0330186 0.00952989 2.47705e-20 0.0213047 -5.36531e-20 0.0273119)
(0.0472611 0.014753 -1.86021e-19 0.0308202 6.32406e-19 0.0392469)
(0.068163 0.0224746 7.12336e-19 0.0454452 2.6483e-19 0.0570892)
(0.100406 0.034438 3.18678e-19 0.0687717 -1.18395e-18 0.08498)
(0.152298 0.0539292 -1.29519e-18 0.107421 -3.39849e-19 0.130434)
(0.240305 0.0874976 -4.38498e-18 0.174673 -2.00439e-18 0.208364)
(0.39397 0.147363 -3.32929e-18 0.295623 -8.90574e-19 0.346254)
(0.683006 0.262572 6.20009e-18 0.530507 -5.75937e-19 0.609411)
(1.22859 0.486578 -7.44704e-18 0.992974 1.20501e-18 1.11623)
(2.39684 0.978432 4.06571e-18 2.02291 -7.22348e-18 2.22163)
(4.80485 2.01683 -1.26367e-16 4.23282 2.60551e-18 4.54339)
(10.5297 4.53318 -7.83387e-17 9.67106 1.23189e-17 10.1581)
(21.2709 9.37025 6.59339e-17 20.3482 8.34848e-19 20.93)
(29.5489 13.2923 8.69829e-18 29.4286 -1.2734e-19 29.645)
(32.6408 14.9594 6.2879e-17 33.8 4.82728e-19 33.3679)
(33.0597 15.3981 -4.3715e-16 35.5131 -4.92935e-18 34.4097)
(32.6473 15.4179 1.57328e-16 36.2863 2.08891e-17 34.5677)
(31.9244 15.2557 -1.88877e-15 36.6232 -1.52941e-16 34.3575)
(30.9834 14.9556 -3.45831e-15 36.6026 -2.3835e-16 33.8634)
(29.8507 14.5332 1.05821e-15 36.2472 1.08036e-16 33.1094)
(28.5638 14.0101 1.00929e-15 35.6034 1.6303e-16 32.1365)
(26.9096 13.2865 1.45025e-15 34.4273 2.6699e-16 30.7165)
(25.1154 12.4685 -2.90407e-16 32.9228 -3.65719e-17 29.0641)
(20.1392 10.0636 -4.55325e-15 27.4106 -7.83659e-16 23.7848)
(0.00226689 -0.000155223 4.13926e-23 0.00189629 1.34975e-21 0.00205156)
(0.00222389 -0.000181944 9.65145e-21 0.00191869 2.33872e-20 0.00203782)
(0.00215848 -0.000204427 -8.83503e-21 0.00194105 -1.55766e-20 0.00201023)
(0.00205916 -0.000211694 -5.88533e-21 0.00192635 -1.67666e-20 0.00194799)
(0.0019296 -0.000206734 3.91838e-20 0.00187649 7.60531e-20 0.00185468)
(0.0017897 -0.000193292 1.50773e-20 0.00180964 2.33905e-20 0.00174775)
(0.00164005 -0.000173001 7.08514e-20 0.00171454 6.50879e-20 0.00162227)
(0.00148386 -0.000149074 -3.63234e-20 0.00159436 -6.989e-21 0.00148223)
(0.00133646 -0.00012553 5.11421e-20 0.0014679 3.54351e-20 0.0013439)
(0.00119886 -0.000104528 -1.82657e-21 0.00133673 7.66014e-23 0.00120841)
(0.00107264 -8.69442e-05 -6.96661e-20 0.00120606 -5.95191e-20 0.00107988)
(0.000986946 -7.80179e-05 9.33733e-20 0.00111424 1.16248e-19 0.000989026)
(0.00097607 -8.36931e-05 6.53649e-20 0.0011062 3.28424e-20 0.00096903)
(0.00107547 -0.00011394 -1.70881e-20 0.00122259 9.2645e-21 0.00104828)
(0.0014115 -0.000213843 -1.40794e-19 0.00159155 2.31972e-20 0.00132191)
(0.00229313 -0.00051706 3.74874e-19 0.00244726 4.29025e-19 0.00199228)
(0.00461307 -0.00138006 7.62546e-19 0.00433551 -8.34323e-19 0.00367508)
(0.0101138 -0.00333954 -4.16124e-18 0.00823505 -5.3935e-18 0.00775745)
(0.0248988 -0.00838102 4.90287e-19 0.0183971 7.21994e-18 0.0192276)
(0.0613043 -0.0207506 7.24359e-18 0.0433002 -2.03626e-18 0.0484923)
(0.178886 -0.0615485 1.52709e-17 0.125275 6.0568e-18 0.14555)
(0.488966 -0.17312 -2.34273e-17 0.348547 -2.23812e-17 0.409472)
(1.46116 -0.538713 7.36128e-17 1.08392 1.85073e-16 1.2609)
(4.56871 -1.76325 1.58562e-19 3.57566 -1.52761e-16 4.06786)
(8.72562 -3.51316 -2.7133e-16 7.22028 1.67564e-16 8.0078)
(12.8156 -5.35297 -9.73395e-17 11.1953 -6.53475e-16 12.086)
(16.4442 -7.10076 1.06374e-18 15.1732 7.5085e-17 15.9155)
(18.7633 -8.34714 -2.93582e-16 18.2792 -4.41481e-16 18.6336)
(18.8316 -8.60134 -4.93214e-16 19.351 -2.81767e-15 19.1896)
(16.8669 -7.87692 -1.67314e-16 18.2329 -3.52976e-15 17.6116)
(14.0568 -6.6797 5.22062e-16 15.905 4.87866e-15 14.9938)
(11.3599 -5.46854 -9.53534e-16 13.3701 -4.06754e-17 12.338)
(9.23799 -4.48957 -7.19006e-15 11.2329 1.34074e-15 10.1908)
(7.65503 -3.7455 8.76362e-15 9.54327 1.58921e-14 8.5545)
(6.46581 -3.17944 -1.48709e-15 8.21491 -8.56001e-16 7.30412)
(5.55228 -2.73769 3.41096e-15 7.13418 -4.9944e-15 6.31239)
(4.90747 -2.42746 -1.5052e-15 6.38115 1.52433e-15 5.62414)
(4.35759 -2.13578 3.26029e-15 5.5151 4.10236e-16 4.88352)
(4.48523 -2.24881 5.37811e-15 5.96422 7.29315e-15 5.35703)
(0.00227273 -0.000117546 3.19237e-21 0.00184986 7.89783e-21 0.00203562)
(0.00226142 -7.76218e-05 -4.39034e-21 0.00180456 -3.3188e-20 0.00200865)
(0.00220988 -2.671e-05 -6.51899e-21 0.00173903 -3.88976e-20 0.00195503)
(0.00211602 3.07967e-05 -2.53114e-21 0.00166067 5.87199e-20 0.00187418)
(0.00197214 8.48906e-05 6.93682e-22 0.00156953 1.56774e-20 0.00176319)
(0.00177344 0.000127796 1.38532e-20 0.00146034 -5.32085e-20 0.00161488)
(0.00153857 0.000150817 2.90407e-20 0.00133581 -7.28317e-20 0.00143909)
(0.00131411 0.000152942 -1.19457e-19 0.00121215 3.15291e-21 0.00126824)
(0.00111346 0.000139681 1.82415e-20 0.00109247 8.08263e-20 0.00110885)
(0.000921861 0.000116342 4.58175e-22 0.000968347 -4.75385e-20 0.000948535)
(0.000751451 8.76928e-05 -2.99719e-20 0.00083961 -2.84182e-20 0.000794763)
(0.000614942 6.18728e-05 -2.10369e-20 0.000717129 -2.976e-20 0.000661665)
(0.000506743 4.21433e-05 -3.79537e-21 0.000605904 6.32061e-21 0.000549819)
(0.000418956 2.82107e-05 1.22204e-20 0.000506998 3.28864e-20 0.000455521)
(0.000346676 1.88843e-05 2.00741e-20 0.000420639 7.75629e-21 0.000376003)
(0.000286746 1.28389e-05 -2.68749e-20 0.000346584 -1.37199e-21 0.000309332)
(0.000236334 8.97581e-06 2.22282e-20 0.000283038 2.29704e-21 0.000253069)
(0.000193757 6.4568e-06 -2.36526e-21 0.000228928 -6.93792e-21 0.000205704)
(0.000156354 4.61737e-06 -6.8637e-21 0.000181389 1.09217e-20 0.000164408)
(0.000121897 3.10816e-06 -4.01046e-21 0.000138109 4.36659e-21 0.000126821)
(8.72309e-05 1.73893e-06 -6.00912e-21 9.58303e-05 6.7623e-21 8.96796e-05)
(5.24202e-05 6.64225e-07 -3.51994e-21 5.55478e-05 1.82656e-21 5.32435e-05)
(1.84592e-05 8.33597e-08 -6.75328e-22 1.88396e-05 5.81642e-23 1.85488e-05)
(3.02034e-06 2.25425e-09 8.1567e-24 3.03013e-06 7.75738e-25 3.02226e-06)
(7.73781e-06 1.61052e-08 -3.72361e-24 7.79774e-06 5.1121e-24 7.74668e-06)
(0.000851546 0.000193098 4.76129e-19 0.00142998 1.2477e-19 0.000911203)
(0.00452283 0.00133401 2.64985e-18 0.0078294 -1.89379e-19 0.00474601)
(0.0372708 0.0119782 1.08215e-18 0.062148 -4.52612e-19 0.0383562)
(0.128168 0.0459363 -7.54404e-19 0.204328 1.03954e-19 0.130662)
(0.256368 0.10274 4.9638e-17 0.386291 2.003e-18 0.261258)
(0.391124 0.170705 4.02637e-16 0.554373 9.78257e-18 0.401771)
(0.51269 0.23527 2.39503e-16 0.689884 1.30966e-17 0.533418)
(0.614598 0.289421 1.76232e-15 0.799629 1.21061e-16 0.64862)
(0.701461 0.334969 2.54456e-15 0.898182 1.70449e-16 0.750698)
(0.779007 0.375412 -5.7042e-16 0.995278 -9.77242e-17 0.845191)
(0.857147 0.415614 -4.94313e-16 1.0992 -8.68371e-17 0.940443)
(0.934681 0.456292 -1.22484e-15 1.21505 -5.16643e-16 1.04069)
(1.13465 0.552578 -2.52534e-15 1.45619 -2.48886e-18 1.25515)
(1.57608 0.776574 -2.04021e-15 1.98126 1.36203e-15 1.79407)
(0.00151767 -0.000120474 6.64503e-22 0.00125046 9.18992e-22 0.00139931)
(0.00147783 -0.000143622 -1.053e-20 0.00126618 -2.5587e-20 0.00139045)
(0.00140924 -0.000159826 -2.32678e-21 0.00127056 -1.17114e-21 0.00136142)
(0.00131972 -0.000165083 8.82161e-21 0.00126201 1.90591e-20 0.00131693)
(0.00122874 -0.000160305 -2.79789e-20 0.00125122 -5.6913e-20 0.0012696)
(0.00113503 -0.00014491 -3.19337e-20 0.00123333 -5.23377e-20 0.00121737)
(0.00104682 -0.000120371 -6.49338e-20 0.00120849 -9.59823e-20 0.00116483)
(0.000972957 -9.03366e-05 -5.24772e-21 0.00118089 -7.79173e-22 0.00111736)
(0.000914951 -5.71575e-05 -2.87143e-20 0.00115158 -6.83982e-20 0.00107657)
(0.000875212 -2.41285e-05 1.20742e-19 0.00112332 1.37402e-19 0.00104517)
(0.000850547 6.58351e-06 -1.9887e-20 0.00109552 2.70419e-20 0.00102074)
(0.000841832 3.35242e-05 1.36375e-20 0.00107423 8.38889e-21 0.0010066)
(0.000846559 5.60405e-05 -9.39627e-20 0.00106173 -1.19606e-19 0.00100232)
(0.000863882 7.53168e-05 6.12851e-20 0.00106167 -5.69428e-21 0.00100998)
(0.000877707 8.9191e-05 1.779e-20 0.00105527 5.52351e-20 0.00101083)
(0.000863481 9.30948e-05 2.0923e-20 0.00101338 1.00394e-20 0.000976594)
(0.000771673 7.76103e-05 -8.22602e-20 0.000876531 -4.79129e-20 0.000850644)
(0.000676046 6.17672e-05 5.76104e-20 0.000748567 4.29519e-20 0.000729906)
(8.18116e-05 8.97874e-07 2.69265e-22 8.27576e-05 3.41973e-24 8.2495e-05)
(0.00356189 0.00156464 -2.00592e-18 0.0050981 -3.01516e-19 0.00462508)
(0.00153991 0.000439864 6.66123e-19 0.00195507 -2.61843e-19 0.00181147)
(0.0024579 0.00115 6.34438e-20 0.00353954 1.09104e-18 0.00311266)
(0.000305886 0.000127347 4.45225e-19 0.000519412 -6.58326e-19 0.00040308)
(0.0171159 -0.00667625 -3.32127e-18 0.0138758 -3.55006e-18 0.0149671)
(0.141528 -0.0566151 4.76529e-18 0.117819 1.67457e-17 0.126763)
(0.462226 -0.191247 -2.85409e-17 0.402632 7.75769e-18 0.42618)
(1.12948 -0.482126 1.46114e-17 1.03085 1.1299e-18 1.07117)
(2.49469 -1.09277 -1.40662e-17 2.37658 7.54389e-17 2.42485)
(4.82962 -2.16205 -4.35608e-16 4.78682 2.43213e-16 4.79807)
(7.83648 -3.57751 2.14031e-16 8.07566 3.49493e-16 7.95123)
(10.4472 -4.85836 1.5536e-15 11.2064 -5.82229e-16 10.8343)
(11.5847 -5.47956 -2.75003e-15 12.9406 2.15213e-15 12.284)
(11.1247 -5.33687 5.13963e-16 12.9079 9.2855e-15 12.0399)
(9.83176 -4.76602 -4.89463e-17 11.7799 -6.34306e-15 10.8187)
(8.4216 -4.11158 3.05004e-15 10.3423 -2.29962e-15 9.38439)
(7.16352 -3.50972 -1.43083e-14 8.91803 5.19862e-16 8.0364)
(6.18956 -3.04122 4.95268e-15 7.78116 -1.62803e-15 6.98671)
(5.25619 -2.54774 5.13357e-15 6.33408 -1.53048e-15 5.77126)
(5.65897 -2.80381 -1.00539e-14 7.32042 2.90652e-15 6.51667)
(0.00155206 -9.10849e-05 -1.36233e-21 0.00123868 -2.59368e-21 0.00140927)
(0.00156555 -5.92604e-05 -5.15569e-21 0.00122362 -7.29593e-21 0.00140574)
(0.00157098 -2.04242e-05 2.13485e-20 0.00121249 4.60324e-20 0.00140032)
(0.00154378 2.08089e-05 4.37873e-21 0.0011922 -5.18513e-21 0.00137341)
(0.00148451 6.12834e-05 3.01598e-21 0.00116493 -3.39701e-20 0.00132785)
(0.00138219 9.45396e-05 -9.39574e-21 0.00112066 2.42873e-20 0.00125256)
(0.00124272 0.000115279 2.83597e-20 0.00105705 8.79056e-20 0.00114971)
(0.00108697 0.000121534 5.94003e-20 0.000979517 6.37673e-20 0.00103367)
(0.000943464 0.000117549 2.02082e-20 0.000906321 -5.07495e-20 0.000925724)
(0.000803055 0.000104274 4.50863e-20 0.000824228 2.67201e-20 0.000814244)
(0.000664103 8.44451e-05 -3.18609e-20 0.000723525 8.18797e-21 0.000694575)
(0.000538841 6.38379e-05 -4.60962e-21 0.000616377 2.70039e-20 0.000579047)
(0.000432614 4.57726e-05 2.0154e-21 0.000514411 -2.43312e-20 0.00047585)
(0.00034487 3.11645e-05 4.36026e-20 0.000422725 -3.06965e-20 0.000387119)
(0.000274796 2.00999e-05 3.3069e-21 0.000344642 -4.84087e-21 0.000313873)
(0.000219724 1.20364e-05 -4.90893e-21 0.00028008 2.02959e-20 0.000254764)
(0.000177752 6.39249e-06 3.15882e-20 0.000228851 -3.73184e-20 0.000208686)
(0.000146501 2.47444e-06 5.16332e-21 0.000189407 4.53538e-21 0.000173731)
(0.000124165 -2.96628e-07 3.68325e-20 0.000160359 -2.57482e-21 0.00014828)
(0.000108442 -2.41015e-06 3.96601e-20 0.000139144 8.88962e-21 0.000130004)
(9.79489e-05 -4.16157e-06 1.02367e-19 0.000124184 -1.35211e-20 0.000117418)
(9.16359e-05 -5.84595e-06 1.33962e-19 0.000113928 -2.0265e-20 0.000109321)
(8.90276e-05 -7.67123e-06 8.09174e-20 0.000107299 7.01669e-21 0.000104988)
(8.91536e-05 -9.44292e-06 1.89336e-20 0.00010182 -3.8736e-21 0.000102912)
(9.23191e-05 -1.05739e-05 -2.07338e-20 9.77459e-05 1.00202e-20 0.00010347)
(9.52122e-05 -1.00426e-05 7.57048e-20 9.32835e-05 -1.23117e-20 0.00010316)
(0.000104319 -9.47139e-06 -2.05227e-20 9.58374e-05 -2.00259e-21 0.000110068)
(6.25461e-05 -2.74692e-06 -6.23825e-21 5.79508e-05 1.28788e-22 6.38779e-05)
(0.000474474 -6.55949e-05 2.47024e-20 0.000295689 -7.81113e-22 0.000502393)
(0.00326073 -0.00027186 -1.42316e-18 0.0016863 -5.41466e-20 0.00340951)
(0.00933813 0.0004265 -8.62551e-18 0.00468136 -8.38923e-20 0.00965736)
(0.0187943 0.00469037 -5.47833e-17 0.0112763 -3.1788e-18 0.0193822)
(0.03863 0.0154502 -1.34272e-16 0.0317099 -4.49084e-18 0.0399841)
(0.076024 0.0342957 -3.34001e-16 0.0748102 -2.29756e-17 0.079301)
(0.130253 0.0608736 -8.55073e-16 0.139779 -7.62138e-17 0.137323)
(0.196803 0.0930009 2.15908e-16 0.218985 -1.76925e-17 0.208631)
(0.267699 0.127632 -1.17329e-15 0.305796 2.12536e-16 0.286809)
(0.333611 0.154117 2.94708e-15 0.353655 5.33184e-16 0.342386)
(0.548589 0.261294 4.63657e-15 0.615373 9.50893e-16 0.593987)
(0.00128841 -9.76817e-05 3.59976e-21 0.00106024 6.15832e-21 0.00116899)
(0.00127303 -0.000115758 -5.01306e-21 0.00108082 -9.03698e-21 0.00117103)
(0.00124314 -0.000131379 -2.27947e-21 0.00109998 -1.2551e-21 0.00116403)
(0.0012066 -0.000141519 2.70822e-20 0.00111803 3.96341e-20 0.00115331)
(0.00115881 -0.000144719 1.72118e-20 0.00112678 3.11993e-20 0.00113209)
(0.00110127 -0.00014109 2.18343e-20 0.00112584 4.19386e-20 0.00110086)
(0.00103924 -0.000131373 3.33679e-20 0.00111466 3.8605e-20 0.00106224)
(0.000972662 -0.000116691 -1.91604e-20 0.00108952 -2.97573e-20 0.00101436)
(0.000904686 -9.87922e-05 -6.85956e-20 0.00105259 -6.79643e-20 0.00095972)
(0.000836813 -7.96977e-05 8.92043e-20 0.00100413 5.02343e-20 0.000899577)
(0.000769849 -6.08727e-05 7.51512e-20 0.000945977 6.36477e-20 0.000835143)
(0.000703831 -4.35047e-05 9.74946e-20 0.000879633 4.66993e-20 0.000767409)
(0.000638439 -2.83818e-05 -1.60967e-19 0.000806592 -5.15426e-20 0.000697135)
(0.000573881 -1.58335e-05 -1.37469e-19 0.000729195 -9.23478e-20 0.000625725)
(0.000509939 -5.81011e-06 1.82846e-19 0.000648834 5.75036e-20 0.000553644)
(0.000443492 2.89457e-06 3.71411e-20 0.000563117 2.28733e-20 0.000478768)
(0.000378441 1.02403e-05 -2.73313e-20 0.000475967 2.82208e-21 0.000405174)
(0.000320944 1.57419e-05 -8.42847e-20 0.000395145 -5.52262e-20 0.000339879)
(0.000249447 1.52622e-05 1.44873e-20 0.000291087 -5.55777e-21 0.000259766)
(0.000148051 6.52247e-06 2.2331e-20 0.000159416 6.88981e-21 0.000151055)
(9.25879e-09 2.41707e-14 -9.18165e-29 9.25882e-09 -2.64065e-29 9.2588e-09)
(0.000331763 2.8331e-05 4.35322e-20 0.000358547 6.21146e-21 0.000341424)
(0.000246049 1.38445e-05 -5.41421e-21 0.000255988 -1.17366e-21 0.000249893)
(0.00377057 0.00171129 -1.32884e-18 0.0045913 6.52521e-19 0.00407197)
(0.0147918 0.00687776 3.80932e-18 0.016348 -1.21714e-18 0.0151339)
(0.0306607 0.0135237 -7.80135e-18 0.0302115 1.03629e-17 0.0295127)
(0.0184442 0.00753641 6.43641e-20 0.0160001 -1.45897e-19 0.0166181)
(0.0102233 0.00308569 3.8493e-18 0.00640122 -1.3684e-18 0.00780701)
(0.027309 -0.0095679 6.27001e-18 0.0193586 1.58248e-17 0.0225851)
(0.239799 -0.10304 2.60676e-17 0.221285 -1.18799e-16 0.228719)
(1.02312 -0.460292 -6.52534e-17 1.02483 -3.88272e-16 1.02075)
(2.73498 -1.26175 2.04406e-15 2.88545 5.42655e-16 2.80622)
(5.04833 -2.37352 2.93805e-15 5.56351 6.66047e-16 5.30454)
(6.9034 -3.29577 -1.63362e-15 7.91151 -2.21987e-15 7.4124)
(7.63027 -3.6853 -7.28815e-15 9.03981 1.41774e-15 8.3439)
(7.45068 -3.62274 4.82846e-15 9.0222 4.86875e-15 8.24032)
(6.95939 -3.39866 -1.01335e-14 8.54835 -1.3119e-16 7.76086)
(6.22426 -3.00344 -1.3e-14 7.37929 1.87743e-15 6.78642)
(6.50776 -3.19521 9.21325e-15 8.10061 -3.43557e-15 7.34661)
(0.00128945 -7.50943e-05 -5.52627e-21 0.0010329 -1.12527e-20 0.00115759)
(0.00127895 -5.12068e-05 -1.90074e-21 0.00100499 7.68252e-21 0.00113886)
(0.00125233 -2.16663e-05 1.83017e-20 0.000970722 3.48977e-20 0.00111)
(0.00121279 9.52853e-06 -7.83498e-21 0.000937701 -4.39699e-22 0.0010745)
(0.00115574 3.99819e-05 6.82666e-21 0.000903887 4.32639e-20 0.00102987)
(0.00107621 6.60777e-05 -2.37423e-21 0.000865052 -4.20709e-20 0.000970791)
(0.000980763 8.44503e-05 2.26434e-20 0.000822581 -5.87783e-22 0.000901526)
(0.000878954 9.33469e-05 -5.58885e-20 0.000777325 -3.37761e-20 0.000828156)
(0.000775147 9.34948e-05 -3.05294e-20 0.000727807 2.63966e-21 0.000751934)
(0.000668408 8.57698e-05 5.06087e-20 0.000668341 2.28402e-20 0.000669023)
(0.000565351 7.2726e-05 2.36137e-20 0.000599818 -1.93759e-21 0.000583146)
(0.000474448 5.81073e-05 2.79489e-20 0.00053 -1.7256e-20 0.000502516)
(0.000398349 4.43925e-05 -4.31441e-20 0.000464219 -2.82816e-20 0.000431141)
(0.000335836 3.26755e-05 -5.3472e-20 0.000404526 1.00934e-20 0.000369546)
(0.000285191 2.33512e-05 4.87851e-21 0.000351982 1.41308e-20 0.000317441)
(0.000244163 1.62558e-05 1.65255e-20 0.000306515 -4.91804e-21 0.000273738)
(0.000211304 1.10719e-05 -4.05676e-20 0.000268247 -3.21343e-21 0.000237761)
(0.000185059 7.34908e-06 -1.55823e-21 0.000236563 -6.4585e-21 0.000208456)
(0.000164282 4.64522e-06 -1.55654e-20 0.000210846 -3.04766e-21 0.000184932)
(0.000147522 2.56439e-06 3.26891e-20 0.000189732 -1.88348e-20 0.000165806)
(0.00013402 8.49931e-07 -3.55849e-20 0.000172454 -1.23695e-20 0.000150268)
(0.000122792 -7.18021e-07 -7.39609e-20 0.000157824 -8.73687e-21 0.000137232)
(0.000112887 -2.26672e-06 3.34485e-21 0.000144549 -1.12072e-20 0.000125545)
(0.000102625 -3.70354e-06 1.89325e-20 0.000130408 -1.07782e-20 0.000113281)
(9.22013e-05 -4.60569e-06 5.73427e-20 0.000115832 -4.0004e-21 0.000100627)
(8.36229e-05 -4.88804e-06 -5.37361e-20 0.000103757 -3.11969e-21 8.99575e-05)
(7.72218e-05 -4.83517e-06 -9.23854e-21 9.46585e-05 2.87752e-21 8.18248e-05)
(7.26505e-05 -4.67009e-06 5.59183e-21 8.81517e-05 4.91126e-22 7.58926e-05)
(6.69e-05 -4.28671e-06 -2.5611e-21 8.02334e-05 -1.03425e-22 6.89578e-05)
(5.91127e-05 -3.80498e-06 -3.71044e-21 7.0147e-05 1.84201e-22 6.02426e-05)
(4.49007e-05 -2.80333e-06 -5.48643e-21 5.21955e-05 -2.85603e-22 4.52757e-05)
(2.87215e-05 -1.69844e-06 1.3607e-20 3.25067e-05 3.91599e-22 2.86638e-05)
(0.000200413 -5.50047e-05 1.93076e-18 0.00030373 1.24997e-19 0.000184371)
(0.000395832 -4.55734e-05 1.86816e-17 0.000505736 1.74062e-18 0.000287392)
(0.00167808 0.000602273 7.87037e-17 0.00130381 1.03971e-17 0.00134054)
(0.00860674 0.00334845 -1.73642e-16 0.00676987 -2.65623e-17 0.00777876)
(0.026899 0.011225 7.42746e-16 0.0232614 1.09887e-16 0.0258005)
(0.0707402 0.0279345 -4.86152e-16 0.0567808 -1.68615e-16 0.0644972)
(0.230093 0.104556 -3.29127e-16 0.230913 -1.41296e-15 0.237684)
(0.000964142 -7.43842e-05 -5.13319e-21 0.000794114 -7.64666e-21 0.000880843)
(0.000947991 -8.78527e-05 1.00852e-21 0.000806641 1.60711e-21 0.000879796)
(0.00092227 -9.90901e-05 6.11044e-21 0.000818441 6.63572e-21 0.000873105)
(0.000888629 -0.000105904 -3.75399e-20 0.000827112 -5.33618e-20 0.000861375)
(0.000847302 -0.000107488 -2.74853e-20 0.000830067 -3.21443e-20 0.000842979)
(0.000799116 -0.00010362 6.42445e-20 0.000826454 7.69062e-20 0.00081781)
(0.000747451 -9.45727e-05 -6.82288e-20 0.000815426 -8.47271e-20 0.000787452)
(0.000694267 -8.11751e-05 -3.08577e-20 0.000796122 -2.05252e-20 0.000752266)
(0.000641585 -6.45559e-05 -7.33898e-20 0.000768919 -5.49177e-20 0.000713379)
(0.000592323 -4.63059e-05 -1.36794e-20 0.000735618 -2.49004e-20 0.000673295)
(0.000547749 -2.7722e-05 9.19683e-21 0.000697667 -3.32027e-21 0.000633238)
(0.000509084 -1.00042e-05 -5.03687e-20 0.000657165 -6.68143e-20 0.000594859)
(0.000477301 5.88667e-06 1.64231e-19 0.000616646 1.12481e-19 0.000559857)
(0.0004526 1.93798e-05 -5.4163e-20 0.000578178 -9.47078e-21 0.000529254)
(0.000434849 3.04149e-05 -1.33036e-19 0.000543386 -5.81706e-20 0.000503803)
(0.000422056 3.85748e-05 8.8461e-20 0.000512332 1.76174e-21 0.000482136)
(0.000408239 4.36191e-05 -6.4527e-20 0.000480502 -3.72192e-20 0.000458724)
(0.000389531 4.58571e-05 8.84501e-22 0.000444242 4.74902e-20 0.000430104)
(0.000368004 4.6458e-05 -1.58595e-20 0.000407026 -1.24594e-20 0.00039937)
(0.000332855 4.26358e-05 -1.09518e-19 0.000356613 -7.56834e-20 0.000354296)
(0.000229965 2.2381e-05 4.68274e-20 0.000237609 4.54745e-20 0.000237994)
(7.64394e-05 2.55523e-06 1.34078e-22 7.69739e-05 -4.12656e-21 7.70724e-05)
(1.2476e-05 6.29534e-08 3.47086e-23 1.24838e-05 1.06216e-23 1.24862e-05)
(2.08599e-06 1.55222e-09 2.17762e-24 2.08601e-06 -9.78761e-26 2.08611e-06)
(0 0 -0 0 -0 0)
(0 0 0 0 0 0)
(0.00641247 0.00265855 -2.07737e-19 0.00560597 4.66662e-21 0.00606464)
(0.00780317 0.00321229 -5.1202e-19 0.00672289 -3.17601e-19 0.00729534)
(0.0171451 0.00699808 2.0718e-20 0.0145062 1.80798e-18 0.0158448)
(0.00799622 0.00318155 -9.2414e-18 0.00655298 7.63434e-19 0.00726546)
(0.0207632 0.00785483 -9.81736e-18 0.0158554 1.64468e-18 0.0182483)
(0.0457792 0.0124283 2.63865e-17 0.0255991 -1.54484e-16 0.0353667)
(0.223916 -0.0904182 5.57739e-16 0.187042 -6.8636e-16 0.204286)
(1.21892 -0.558329 -2.91688e-15 1.26679 1.54919e-16 1.23995)
(3.0646 -1.44732 4.76447e-15 3.41738 1.7949e-15 3.23824)
(4.91201 -2.35437 -9.48388e-16 5.69709 4.21137e-16 5.30339)
(6.05009 -2.92655 -1.73003e-15 7.20281 3.97075e-15 6.63227)
(6.37647 -3.05914 6.75086e-16 7.43078 2.48542e-16 6.88785)
(6.92084 -3.37756 -1.72177e-14 8.42094 4.30755e-15 7.72685)
(0.00097342 -5.799e-05 3.27579e-21 0.000780224 1.3394e-21 0.000878618)
(0.000975172 -4.04108e-05 -1.18494e-20 0.000766549 -1.70396e-20 0.000871869)
(0.000967198 -1.88326e-05 1.51359e-21 0.000749866 7.71075e-21 0.000859453)
(0.000946549 4.46637e-06 6.46205e-21 0.000731256 -2.15595e-20 0.00083937)
(0.000911472 2.77232e-05 -5.25504e-20 0.000710653 -7.55698e-20 0.00081139)
(0.000858124 4.83602e-05 -4.66917e-20 0.000685167 3.59577e-20 0.00077165)
(0.000791944 6.39181e-05 7.53491e-20 0.000656859 3.91221e-20 0.000724216)
(0.000720057 7.29015e-05 -2.43752e-20 0.000627094 -7.08058e-20 0.000673508)
(0.000644711 7.53566e-05 -3.32824e-20 0.000594036 9.44777e-21 0.000619475)
(0.000566034 7.16107e-05 -2.26955e-20 0.000553786 -3.94116e-20 0.000560102)
(0.000489186 6.3314e-05 7.9494e-21 0.000506992 1.2001e-20 0.000498262)
(0.000418527 5.28342e-05 -1.48961e-20 0.000456679 -1.94826e-20 0.000437761)
(0.000355874 4.20648e-05 -3.07669e-20 0.000405669 4.13916e-20 0.000380959)
(0.00030127 3.21383e-05 3.26353e-20 0.000355935 1.91487e-20 0.000328868)
(0.000254409 2.36675e-05 2.77357e-20 0.000309156 -1.2756e-20 0.000282166)
(0.000214677 1.68078e-05 -5.6997e-21 0.000266557 -1.14175e-20 0.00024116)
(0.000181472 1.14772e-05 1.65637e-20 0.000228954 3.68986e-21 0.000205932)
(0.000154126 7.4218e-06 -2.45422e-20 0.000196706 6.27095e-21 0.000176315)
(0.00013199 4.34651e-06 1.73796e-20 0.000169797 -4.56695e-22 0.000151962)
(0.000114185 1.94819e-06 -2.28828e-20 0.000147605 -1.06887e-20 0.00013212)
(0.0001 -8.78651e-09 2.20809e-20 0.000129478 1.84691e-21 0.000116093)
(8.86504e-05 -1.717e-06 2.96104e-20 0.000114493 6.48015e-21 0.000103034)
(7.93426e-05 -3.28715e-06 -2.06553e-21 0.000101576 2.71868e-21 9.20088e-05)
(7.0759e-05 -4.65742e-06 -5.55217e-20 8.89151e-05 2.3937e-23 8.15013e-05)
(6.2226e-05 -5.53028e-06 -2.06714e-20 7.5856e-05 -8.8338e-21 7.08384e-05)
(5.44254e-05 -5.80799e-06 -6.09296e-21 6.37407e-05 9.39874e-21 6.09888e-05)
(4.83884e-05 -5.71848e-06 2.25732e-20 5.3879e-05 2.81659e-22 5.32164e-05)
(4.45665e-05 -5.39524e-06 8.12716e-22 4.66806e-05 -1.85639e-22 4.79437e-05)
(4.35303e-05 -5.06322e-06 -1.29382e-21 4.27267e-05 1.11052e-22 4.57652e-05)
(4.12514e-05 -4.09777e-06 1.36239e-20 3.83535e-05 6.1439e-23 4.23694e-05)
(5.17277e-05 -5.49641e-06 1.54916e-20 4.50255e-05 5.00296e-22 5.23268e-05)
(1.1884e-05 -3.19382e-07 -4.9207e-21 1.13719e-05 -2.71824e-22 1.18659e-05)
(8.49537e-05 -1.24006e-05 -5.4922e-19 6.21305e-05 -4.26192e-20 8.21565e-05)
(0.000439796 -0.000103951 -1.01711e-18 0.00023394 -1.25712e-19 0.000397313)
(0.00111217 -0.000257716 1.99513e-18 0.00056267 1.69983e-20 0.000952202)
(0.0022958 -0.000460632 -8.77908e-18 0.00107167 3.64831e-18 0.00182087)
(0.000889545 -9.20023e-05 -1.25583e-17 0.000354783 -1.04905e-17 0.000653316)
(0.00287235 0.000201351 5.26898e-17 0.00112824 3.75303e-18 0.00196981)
(0.0490694 0.0197358 -2.905e-16 0.0400142 5.24692e-17 0.046606)
(0.000790838 -6.10274e-05 4.49877e-21 0.000651673 5.22623e-21 0.000720623)
(0.000783193 -7.19069e-05 -1.13133e-20 0.00066541 -1.35992e-20 0.000723728)
(0.000768803 -8.14717e-05 -9.1388e-22 0.00067948 -1.89019e-21 0.000723231)
(0.000750084 -8.80858e-05 -4.71625e-21 0.000693114 -2.45787e-21 0.000720524)
(0.000725922 -9.09614e-05 3.73895e-20 0.000703247 4.30319e-20 0.000713295)
(0.000696823 -8.99596e-05 2.86723e-20 0.000709663 2.36557e-20 0.000701551)
(0.000664793 -8.51084e-05 3.63242e-22 0.000711151 1.15643e-20 0.000685916)
(0.000630365 -7.68229e-05 7.11357e-20 0.000706097 6.89282e-20 0.000665736)
(0.000594604 -6.58071e-05 -8.88696e-21 0.000694312 -1.18811e-21 0.000641396)
(0.000558726 -5.31225e-05 -2.45711e-20 0.000675724 -1.15355e-20 0.000613572)
(0.000523119 -3.97156e-05 4.82684e-20 0.0006505 1.80096e-20 0.000582485)
(0.000488334 -2.64932e-05 -6.49865e-20 0.00061958 -2.51838e-20 0.000548893)
(0.000454705 -1.42756e-05 -1.14709e-19 0.000584078 -8.96696e-20 0.00051356)
(0.000422297 -3.55408e-06 -4.79243e-20 0.000545203 1.23644e-20 0.000477111)
(0.000391137 5.36973e-06 2.06882e-19 0.000504213 9.34281e-20 0.000440242)
(0.000359893 1.22822e-05 -1.4958e-19 0.000460618 -6.8176e-20 0.000402098)
(0.000326217 1.76126e-05 -3.59762e-20 0.000412305 3.12118e-20 0.000360951)
(0.00029192 2.13378e-05 6.73259e-20 0.000362206 4.38875e-20 0.000319107)
(0.000259905 2.36747e-05 -4.25691e-20 0.000314577 -3.4065e-22 0.000280045)
(0.000232139 2.48864e-05 -1.40322e-20 0.000272466 3.51434e-20 0.000246127)
(0.000210415 2.54851e-05 1.99497e-20 0.000238151 -1.28311e-20 0.00021925)
(0.000179341 2.15731e-05 -1.28149e-19 0.000193242 1.24342e-20 0.000183076)
(0.000131166 1.23885e-05 7.2004e-22 0.000134108 -1.20461e-20 0.000131394)
(2.69911e-05 5.29443e-07 -2.12408e-21 2.69185e-05 2.14024e-22 2.6924e-05)
(6.74991e-06 3.17859e-08 3.4552e-23 6.73557e-06 1.01255e-23 6.74163e-06)
(3.48814e-06 8.27295e-09 -2.90225e-24 3.48258e-06 -1.22483e-23 3.48511e-06)
(1.40541e-06 1.32748e-09 -9.93761e-26 1.40439e-06 -9.28518e-27 1.40486e-06)
(2.90645e-10 5.46914e-17 9.23714e-33 2.90645e-10 2.31403e-34 2.90645e-10)
(0 0 0 0 -0 0)
(0.00107553 0.000328506 3.56797e-19 0.000861849 5.76272e-19 0.000965704)