/*--------------------------------*- C++ -*----------------------------------*\
| =========                 |                                                 |
| \\      /  F ield         | OpenFOAM: The Open Source CFD Toolbox           |
|  \\    /   O peration     | Version:  2506                                  |
|   \\  /    A nd           | Website:  www.openfoam.com                      |
|    \\/     M anipulation  |                                                 |
\*---------------------------------------------------------------------------*/
FoamFile
{
    version     2.0;
    format      ascii;
    arch        "LSB;label=32;scalar=64";
    class       volVectorField;
    location    "250";
    object      U;
}
// * * * * * * * * * * * * * * * * * * * * * * * * * * * * * * * * * * * * * //

dimensions      [0 1 -1 0 0 0 0];

internalField   nonuniform List<vector> 
10720
(
(0.226973 27.6468 6.74868e-18)
(1.96423 29.9429 -5.62392e-17)
(4.13701 32.1613 2.12893e-16)
(6.63462 33.8941 -4.10411e-16)
(9.39067 35.2243 3.14727e-16)
(12.3369 36.1096 2.00411e-16)
(15.3183 36.4518 -3.61723e-16)
(18.2392 36.2853 1.24264e-15)
(21.0145 35.6751 -8.39486e-16)
(23.5613 34.656 -5.81021e-16)
(25.8428 33.3232 3.00339e-16)
(27.8123 31.7257 1.67829e-15)
(29.4227 29.8605 6.52423e-16)
(30.6578 27.7676 5.97912e-16)
(31.4747 25.4624 1.43049e-15)
(31.8456 22.9759 1.24049e-15)
(31.7004 20.3095 -2.52935e-15)
(30.9621 17.4996 -8.97385e-15)
(29.497 14.5587 6.68093e-15)
(27.1782 11.5512 -3.12708e-16)
(23.8656 8.54139 -1.30762e-15)
(19.61 5.68932 -2.41981e-15)
(14.9456 3.24147 8.24911e-15)
(11.5025 1.45258 -2.14028e-15)
(10.1239 0.269932 1.47054e-15)
(10.7618 -0.354004 -3.14434e-15)
(12.1806 -0.59832 1.8867e-16)
(13.6863 -0.721189 -1.36874e-15)
(14.9277 -0.874359 -5.43877e-15)
(15.7496 -1.09057 -7.66477e-15)
(16.1817 -1.35139 7.70806e-15)
(16.318 -1.62538 2.68935e-15)
(16.1157 -1.87186 1.10633e-15)
(15.6083 -2.0674 3.71172e-14)
(14.7796 -2.18759 -5.57385e-15)
(13.6324 -2.21775 -5.02444e-16)
(11.7912 -2.07644 8.64352e-16)
(9.78839 -1.82542 2.17403e-15)
(3.70002 -1.10208 1.56099e-14)
(-1.14305 25.1964 7.66475e-18)
(-2.24894 22.4359 1.16863e-17)
(-3.01442 19.3292 -9.05173e-17)
(-3.31687 15.733 8.60538e-17)
(-2.99666 12.0183 -2.86072e-16)
(-2.02404 8.3206 7.07957e-16)
(-0.486875 4.95168 1.88664e-15)
(1.3642 2.18885 5.48286e-15)
(3.32249 -0.139404 -1.64512e-15)
(5.55283 -2.15963 5.08817e-16)
(7.84845 -3.66137 1.74129e-15)
(9.96474 -4.62754 2.62251e-15)
(11.8353 -5.18613 8.17111e-16)
(13.472 -5.46164 -1.38883e-15)
(14.8998 -5.55092 -1.24478e-15)
(16.1497 -5.51701 6.67232e-16)
(17.2525 -5.40751 2.50603e-16)
(18.2405 -5.25135 8.37741e-16)
(19.1449 -5.06803 -6.88064e-16)
(19.9876 -4.86031 -1.35754e-16)
(20.7867 -4.62972 -5.97525e-16)
(21.5529 -4.36678 2.95632e-16)
(22.2876 -4.05754 8.09627e-16)
(22.96 -3.67695 -2.72005e-16)
(23.5023 -3.22509 -3.03898e-16)
(23.8973 -2.74545 -2.95265e-16)
(24.1753 -2.27771 -8.41198e-18)
(24.3725 -1.77839 9.30348e-18)
(24.5041 -1.18103 1.20234e-19)
(24.5704 -0.512935 -3.35364e-18)
(24.5509 0.159963 7.39829e-17)
(24.431 0.78971 5.53083e-17)
(24.2119 1.35369 1.23896e-16)
(23.9023 1.84549 3.55881e-16)
(23.502 2.26739 9.63972e-18)
(23.0078 2.62727 2.32821e-16)
(22.3169 2.92659 8.31327e-16)
(21.3656 3.13388 2.19192e-15)
(18.7599 3.31102 2.34646e-15)
(7.15345 23.9926 -3.5466e-18)
(9.04384 25.7196 -2.16291e-17)
(11.3472 27.2837 1.5074e-17)
(14.0029 28.5803 6.47219e-17)
(16.8645 29.5495 -3.30655e-16)
(19.9369 30.1313 -1.76139e-16)
(23.1074 30.279 -5.8218e-16)
(26.2435 30.014 1.14534e-16)
(29.2913 29.346 -4.87223e-16)
(32.1679 28.3269 -8.47568e-17)
(34.8173 27.0094 1.21759e-15)
(37.2325 25.4921 -1.62265e-15)
(39.4222 23.865 -9.28208e-16)
(41.3981 22.1606 -1.68375e-17)
(43.1474 20.4097 5.61877e-16)
(44.6295 18.651 -1.17296e-15)
(45.8254 16.9078 -6.08907e-16)
(46.6985 15.2091 3.57512e-15)
(47.1879 13.5622 -5.88129e-16)
(47.1818 11.9717 -1.20944e-15)
(46.4879 10.3888 -1.7023e-15)
(44.8788 8.71628 1.48002e-15)
(42.2149 6.81712 -2.19457e-15)
(38.6974 4.75686 -2.05494e-16)
(35.1814 2.86765 1.18445e-15)
(32.0385 1.34833 1.13683e-15)
(29.242 0.24247 8.53282e-17)
(26.8572 -0.54946 5.73359e-16)
(24.9936 -1.15173 1.34731e-15)
(23.6317 -1.62542 1.07619e-15)
(22.598 -1.99669 -1.04664e-15)
(21.6689 -2.28428 -1.23192e-16)
(20.7444 -2.5096 1.44869e-14)
(19.7386 -2.67914 -1.09732e-14)
(18.5613 -2.77833 1.73847e-15)
(17.1752 -2.78959 -5.00455e-15)
(15.2112 -2.64462 1.58427e-15)
(13.1276 -2.3774 -6.6853e-16)
(7.09668 -1.48455 4.27753e-15)
(5.55851 22.1534 3.08112e-17)
(4.17345 20.1088 -9.5841e-17)
(2.95966 17.7149 -4.79969e-16)
(2.03906 14.9947 4.47297e-16)
(1.59127 12.0369 6.06241e-16)
(1.70511 8.98123 -2.53203e-17)
(2.4023 6.03989 -2.7209e-15)
(3.58746 3.43902 -4.60263e-15)
(5.08011 1.14208 3.07492e-15)
(6.84358 -0.757851 -1.62475e-15)
(8.73724 -2.124 2.21174e-16)
(10.5864 -3.01203 -5.08501e-16)
(12.3095 -3.54974 2.78629e-17)
(13.8828 -3.83686 1.49383e-16)
(15.3008 -3.9544 5.00067e-16)
(16.5748 -3.95466 -9.10539e-16)
(17.7216 -3.88203 9.7802e-16)
(18.7647 -3.76159 -2.29174e-16)
(19.7284 -3.61121 -4.23807e-16)
(20.6355 -3.42812 -2.95056e-16)
(21.5015 -3.20998 -6.67029e-16)
(22.3386 -2.93945 -7.29635e-16)
(23.1487 -2.59513 -7.91144e-16)
(23.9093 -2.13667 3.15457e-16)
(24.5683 -1.57147 -2.12193e-17)
(25.0996 -0.963334 1.35072e-16)
(25.5141 -0.336444 9.95859e-17)
(25.8061 0.27378 5.91504e-18)
(25.9677 0.821301 -1.2179e-19)
(26.0012 1.28864 2.30414e-18)
(25.9356 1.68399 -4.22255e-17)
(25.7977 2.03014 -1.87002e-17)
(25.5978 2.34672 -1.7452e-16)
(25.3368 2.64224 -1.24823e-16)
(25.0054 2.92014 -2.68048e-17)
(24.6049 3.18329 -1.09871e-16)
(24.036 3.42886 -6.39502e-16)
(23.4727 3.64786 -2.28211e-15)
(21.4954 3.71579 -2.42885e-15)
(8.30357 22.1002 2.14404e-18)
(9.64515 23.6259 1.0024e-17)
(11.2776 25.1118 5.10311e-18)
(13.1538 26.4858 -5.3638e-17)
(15.2213 27.6291 1.44142e-16)
(17.4794 28.5183 2.15262e-16)
(19.8536 29.1147 5.84882e-16)
(22.2695 29.3806 2.46105e-17)
(24.6699 29.316 6.10485e-16)
(26.9971 28.933 -1.19598e-15)
(29.1977 28.2514 -1.30104e-16)
(31.2379 27.2964 -3.34494e-16)
(33.0905 26.0977 1.512e-15)
(34.7382 24.6883 -3.33356e-16)
(36.1795 23.1022 -4.39009e-16)
(37.4733 21.3506 -6.31279e-16)
(38.6499 19.4637 1.9517e-15)
(39.7292 17.4974 -1.55561e-15)
(40.7713 15.5013 -9.25135e-16)
(41.8213 13.5486 2.37425e-15)
(42.9402 11.6807 -1.87544e-15)
(44.0481 9.88651 -3.58058e-16)
(44.8584 8.02731 -4.50693e-16)
(44.9288 6.01947 6.38861e-16)
(44.1659 4.02466 -3.69417e-16)
(42.8214 2.28199 5.95294e-16)
(41.1179 0.901646 -1.14464e-16)
(39.1067 -0.183674 -8.58429e-17)
(36.7456 -1.0742 1.53209e-15)
(34.0702 -1.8026 2.17541e-16)
(31.2854 -2.36696 -3.02976e-15)
(28.6775 -2.77413 3.16281e-15)
(26.4027 -3.04605 -7.70672e-16)
(24.3962 -3.2059 1.52964e-16)
(22.4685 -3.26616 -3.41756e-15)
(20.4898 -3.22421 1.07145e-14)
(18.0884 -3.03462 -2.40008e-15)
(15.6026 -2.6664 -3.78302e-16)
(9.81596 -1.8976 -6.216e-15)
(7.20934 20.493 3.84011e-18)
(6.24972 18.7382 -8.46873e-17)
(5.45233 16.673 2.9207e-16)
(4.812 14.3626 2.30227e-16)
(4.48382 11.8816 -6.55626e-16)
(4.51345 9.2996 -6.21913e-16)
(4.92845 6.75378 1.24973e-15)
(5.69802 4.40224 1.86473e-15)
(6.78407 2.29694 1.61158e-15)
(8.13884 0.50754 -1.3926e-15)
(9.6364 -0.905303 -1.02373e-15)
(11.1563 -1.96278 2.63536e-16)
(12.627 -2.72611 9.91761e-16)
(14.0131 -3.25331 1.40294e-15)
(15.2977 -3.59498 -2.76259e-16)
(16.4788 -3.79442 -3.25773e-17)
(17.5628 -3.88961 9.48271e-16)
(18.5633 -3.90674 1.80411e-17)
(19.4972 -3.864 7.18495e-16)
(20.3818 -3.76665 6.42052e-16)
(21.2295 -3.61682 1.49401e-15)
(22.0493 -3.40627 1.55664e-15)
(22.8414 -3.12157 6.8737e-16)
(23.5864 -2.74232 1.3473e-16)
(24.2411 -2.28357 -1.24888e-16)
(24.7813 -1.79448 3.59977e-16)
(25.2173 -1.29723 -6.99242e-17)
(25.5624 -0.79678 -3.86225e-17)
(25.8224 -0.289612 2.73999e-18)
(25.9974 0.22611 2.46519e-19)
(26.0894 0.750099 1.62306e-17)
(26.0999 1.27198 3.92145e-17)
(26.0289 1.77359 5.56962e-17)
(25.8759 2.23933 1.44201e-17)
(25.6315 2.66175 -1.95454e-16)
(25.2959 3.03923 1.0447e-16)
(24.7699 3.37347 -9.29336e-16)
(24.1688 3.62582 4.3605e-15)
(22.3677 3.7264 1.0731e-14)
(10.9046 20.2251 1.19613e-17)
(12.161 21.5201 -1.40263e-17)
(13.6677 22.7813 1.64292e-17)
(15.4015 23.9345 -2.31184e-17)
(17.3159 24.8893 -6.94664e-17)
(19.4174 25.627 -1.79029e-16)
(21.6499 26.1034 -2.87207e-16)
(23.953 26.2838 1.04018e-16)
(26.2803 26.1601 6.91718e-16)
(28.5766 25.7342 -4.55548e-16)
(30.791 25.0189 -7.66767e-16)
(32.8839 24.0375 -1.16263e-15)
(34.8197 22.8242 1.31969e-15)
(36.5719 21.4162 2.22717e-15)
(38.1299 19.8463 -1.98865e-15)
(39.4542 18.1662 -8.58955e-16)
(40.4993 16.434 1.08903e-16)
(41.2614 14.6863 1.74642e-15)
(41.7502 12.96 1.00886e-16)
(42.0138 11.2897 -2.52712e-15)
(42.1497 9.70223 3.3642e-15)
(42.3102 8.1919 -1.57332e-15)
(42.5995 6.67585 3.38452e-16)
(42.8729 5.06639 1.34313e-15)
(42.8277 3.42947 -8.01468e-16)
(42.3755 1.95144 6.70473e-16)
(41.6768 0.738807 7.41753e-17)
(40.8872 -0.256875 -3.79376e-16)
(39.9854 -1.12554 -3.03107e-16)
(38.8148 -1.89816 -4.3272e-16)
(37.1887 -2.55909 4.85091e-16)
(35.0003 -3.08089 -4.99583e-15)
(32.3445 -3.44533 -5.15594e-15)
(29.5137 -3.65361 1.44763e-15)
(26.7419 -3.71813 5.71014e-15)
(24.0656 -3.64166 -2.51293e-15)
(21.1398 -3.40527 3.33434e-15)
(18.1562 -2.92433 6.67506e-16)
(12.399 -2.21616 3.05629e-15)
(9.84943 18.8703 -5.22493e-17)
(8.90273 17.4014 -2.10379e-17)
(8.07653 15.6686 3.58776e-16)
(7.38535 13.7115 -1.58913e-16)
(6.96005 11.5995 9.40705e-16)
(6.8356 9.38101 7.95848e-16)
(7.03807 7.15982 -9.87528e-16)
(7.54177 5.0585 1.19239e-17)
(8.32454 3.13471 3.43408e-16)
(9.3535 1.45293 2.38282e-15)
(10.5376 0.0663411 1.75327e-16)
(11.7925 -1.01929 6.77849e-16)
(13.0582 -1.83574 -1.85346e-15)
(14.2938 -2.42389 -1.14704e-15)
(15.474 -2.8231 3.44712e-16)
(16.5867 -3.07245 1.9859e-16)
(17.6291 -3.20604 -9.52937e-16)
(18.6054 -3.25096 9.43406e-17)
(19.5253 -3.22687 -2.30312e-16)
(20.4003 -3.14322 5.98419e-16)
(21.2397 -3.00322 -6.30313e-16)
(22.0496 -2.80141 -9.16987e-16)
(22.8293 -2.52653 1.14732e-16)
(23.5621 -2.16106 2.24781e-16)
(24.2124 -1.71067 4.3681e-16)
(24.7561 -1.21288 -3.19962e-16)
(25.1982 -0.690734 -4.05543e-17)
(25.5499 -0.155304 1.3973e-17)
(25.8158 0.382922 -4.20647e-18)
(25.9988 0.908896 -2.57829e-18)
(26.1041 1.4068 3.64536e-18)
(26.1382 1.86096 -8.39127e-18)
(26.105 2.26819 -7.19134e-18)
(26.006 2.63159 2.30194e-17)
(25.8318 2.95791 2.02823e-16)
(25.5783 3.25144 -5.70228e-16)
(25.1466 3.52022 2.56296e-15)
(24.6138 3.69563 -1.99499e-15)
(22.9829 3.75812 -2.11008e-15)
(12.4354 18.8264 -2.29664e-17)
(13.4917 19.9757 7.30411e-18)
(14.7657 21.1178 7.11854e-19)
(16.2228 22.1903 6.15925e-17)
(17.8231 23.1106 1.12019e-16)
(19.5873 23.874 -3.03492e-16)
(21.4687 24.4409 4.33842e-16)
(23.4201 24.776 1.92255e-16)
(25.4112 24.8693 5.37867e-16)
(27.3954 24.7141 2.80667e-16)
(29.3314 24.3119 -8.40683e-17)
(31.1847 23.6747 9.63372e-16)
(32.9209 22.8214 -2.01763e-15)
(34.5133 21.7734 1.4123e-16)
(35.9409 20.5547 2.09234e-15)
(37.1833 19.1887 -1.03676e-15)
(38.2527 17.6712 1.07061e-15)
(39.1435 16.025 -2.1731e-16)
(39.8481 14.2832 6.95048e-17)
(40.3597 12.4921 2.56268e-15)
(40.6843 10.6912 -1.75481e-15)
(40.8478 8.9115 7.1598e-17)
(40.8926 7.14533 -3.85207e-16)
(40.8113 5.38712 -1.7681e-15)
(40.5119 3.70828 6.45093e-16)
(39.9566 2.22913 -2.16343e-15)
(39.2571 1.0064 -8.18236e-17)
(38.5568 -0.00841252 2.70318e-16)
(37.9225 -0.895687 -2.23337e-16)
(37.3332 -1.69017 4.06069e-15)
(36.724 -2.39476 1.55625e-15)
(35.961 -3.00572 -7.23746e-16)
(34.8127 -3.50574 -4.12125e-15)
(33.0332 -3.85705 6.56322e-15)
(30.5648 -4.02359 -4.84268e-15)
(27.643 -3.98674 3.58755e-16)
(24.3112 -3.74447 4.77648e-16)
(20.8579 -3.17755 -4.55818e-17)
(15.0069 -2.48461 -3.75965e-15)
(11.5425 17.6304 1.2126e-17)
(10.739 16.347 -1.52215e-16)
(10.0173 14.8322 5.98135e-17)
(9.38572 13.1246 3.82156e-17)
(8.96034 11.2884 -1.3403e-15)
(8.76591 9.3518 -1.15387e-15)
(8.83352 7.39068 3.56816e-15)
(9.15418 5.50464 -2.81216e-15)
(9.71843 3.75609 -1.11541e-17)
(10.5022 2.19725 3.55414e-17)
(11.4407 0.868855 -3.50149e-16)
(12.471 -0.216045 -5.1375e-16)
(13.5452 -1.07494 -1.03636e-15)
(14.6254 -1.73482 1.26908e-15)
(15.6842 -2.22149 5.40934e-16)
(16.7054 -2.56461 -1.1361e-16)
(17.6808 -2.7905 2.8779e-16)
(18.6085 -2.92139 -5.25975e-16)
(19.4925 -2.97396 3.54872e-16)
(20.3397 -2.95801 -3.43233e-16)
(21.1561 -2.87698 3.86384e-16)
(21.9454 -2.72765 3.54929e-16)
(22.7057 -2.5019 -6.26706e-17)
(23.4223 -2.18893 -5.29397e-16)
(24.0645 -1.79482 -1.31596e-16)
(24.6093 -1.35145 -4.53984e-17)
(25.0572 -0.884026 1.09956e-16)
(25.4169 -0.405337 1.21784e-18)
(25.6925 0.0752492 -3.12731e-18)
(25.886 0.54761 1.96774e-17)
(26.001 1.00354 8.72842e-18)
(26.0428 1.44304 -4.68406e-18)
(26.0156 1.86618 3.47083e-18)
(25.9226 2.26942 6.42333e-18)
(25.7583 2.64954 3.36138e-17)
(25.5248 3.00246 -1.75961e-16)
(25.1359 3.32872 -8.64723e-16)
(24.6769 3.54855 2.85921e-15)
(23.2997 3.65974 -3.12827e-15)
(13.9265 17.5926 1.59481e-17)
(14.8863 18.6096 -2.81492e-17)
(16.0394 19.6261 5.55873e-18)
(17.3537 20.5834 4.96737e-18)
(18.7904 21.4083 -7.23542e-17)
(20.3794 22.1013 -8.81331e-17)
(22.0804 22.624 -2.73612e-17)
(23.8555 22.9446 -4.37314e-16)
(25.684 23.0496 -3.89776e-17)
(27.5278 22.9279 2.02829e-16)
(29.3515 22.5753 -3.46086e-16)
(31.1254 21.995 4.24989e-16)
(32.8163 21.1973 1.45069e-15)
(34.3959 20.1971 7.5539e-16)
(35.8399 19.0127 -2.99657e-15)
(37.1287 17.6658 2.00497e-15)
(38.2354 16.1961 6.4015e-16)
(39.1323 14.6545 -1.34276e-15)
(39.8092 13.0809 5.86959e-16)
(40.2735 11.5044 1.4501e-16)
(40.5427 9.94556 -5.46496e-16)
(40.6419 8.40207 2.87296e-15)
(40.5806 6.84306 1.30992e-16)
(40.3317 5.24977 2.35938e-15)
(39.8491 3.68486 -5.06811e-16)
(39.1348 2.26752 2.25507e-16)
(38.279 1.07226 7.26214e-17)
(37.3966 0.0765738 -2.3814e-17)
(36.5473 -0.784926 -1.27689e-15)
(35.7406 -1.54862 -1.03626e-15)
(34.9841 -2.22245 1.14874e-16)
(34.3022 -2.81077 3.68931e-15)
(33.6812 -3.318 4.63683e-15)
(32.993 -3.73825 2.3555e-15)
(31.9078 -4.03693 -2.58732e-15)
(30.0463 -4.13744 -3.4298e-15)
(27.1329 -3.98093 -4.26973e-15)
(23.5807 -3.39773 -3.66677e-17)
(17.6676 -2.73069 1.02791e-15)
(13.1067 16.5379 -3.71892e-17)
(12.3654 15.4131 -2.6439e-17)
(11.6859 14.0817 8.90565e-17)
(11.0779 12.5771 -2.31464e-16)
(10.6437 10.9602 -5.55098e-16)
(10.3996 9.24954 1.10164e-15)
(10.373 7.50072 -9.85793e-16)
(10.5649 5.80049 -8.66039e-16)
(10.97 4.21111 -9.55924e-16)
(11.5677 2.7716 -9.56764e-16)
(12.3121 1.51491 1.4703e-15)
(13.1562 0.458148 -7.14353e-16)
(14.0634 -0.407122 7.96206e-16)
(15.0017 -1.09749 1.52579e-16)
(15.9451 -1.62874 -2.3998e-16)
(16.8764 -2.02214 -6.69091e-16)
(17.7844 -2.29765 -5.29066e-16)
(18.6629 -2.47352 2.90946e-16)
(19.5111 -2.56445 -1.29524e-16)
(20.3313 -2.5803 -3.94776e-16)
(21.1263 -2.52565 -3.48927e-16)
(21.8971 -2.39961 -2.48115e-16)
(22.6403 -2.19652 3.10463e-16)
(23.3423 -1.90893 -1.02737e-16)
(23.9768 -1.54123 -2.95055e-16)
(24.5215 -1.11876 3.2915e-16)
(24.9738 -0.664907 2.2075e-17)
(25.3395 -0.192084 2.18609e-18)
(25.6221 0.290718 4.28716e-18)
(25.8231 0.772981 -2.65093e-17)
(25.9456 1.24537 -4.15758e-18)
(25.9947 1.69815 1.29073e-17)
(25.9741 2.12139 -4.68833e-18)
(25.8869 2.50907 -2.18923e-17)
(25.7273 2.85964 8.98862e-17)
(25.4958 3.16973 6.68501e-16)
(25.1129 3.44496 -2.54029e-15)
(24.6511 3.59147 -3.31109e-15)
(23.4308 3.62735 1.09564e-15)
(15.1258 16.5496 -1.16242e-17)
(15.9877 17.4629 -1.86882e-18)
(17.0227 18.3833 6.63705e-18)
(18.1971 19.2562 -1.86452e-17)
(19.4724 20.0162 1.12751e-16)
(20.8836 20.6697 -4.39315e-17)
(22.3941 21.1835 -8.04142e-17)
(23.9718 21.5284 1.8553e-16)
(25.6041 21.6931 2.47916e-16)
(27.2587 21.6661 -2.20647e-16)
(28.907 21.4401 9.5684e-16)
(30.5248 21.0149 -5.01892e-16)
(32.0818 20.3954 -1.36037e-15)
(33.5511 19.591 -2.40388e-15)
(34.909 18.6158 3.53285e-15)
(36.1313 17.4893 -1.60193e-15)
(37.1984 16.2321 -2.14454e-15)
(38.1022 14.8539 -1.32606e-15)
(38.834 13.3773 -9.83179e-16)
(39.3898 11.8351 -1.41251e-16)
(39.7738 10.2591 -4.84262e-16)
(39.994 8.67417 -3.3219e-15)
(40.0477 7.08197 1.3469e-15)
(39.8988 5.4835 -3.70866e-15)
(39.4986 3.93111 2.97503e-16)
(38.8493 2.52025 3.19646e-16)
(38.0289 1.31549 -8.14747e-17)
(37.1371 0.302733 2.69913e-16)
(36.2243 -0.573318 8.39986e-16)
(35.2928 -1.34568 1.56581e-16)
(34.3427 -2.02082 1.09825e-16)
(33.3995 -2.60205 -3.16829e-15)
(32.5053 -3.09462 5.20861e-15)
(31.7147 -3.50272 1.78259e-15)
(31.0175 -3.82348 3.25725e-15)
(30.2304 -4.02262 6.96508e-15)
(28.6206 -4.0161 1.10931e-15)
(25.8718 -3.5243 -6.69231e-17)
(20.2747 -2.94133 6.60372e-16)
(14.3839 15.6048 -1.30289e-19)
(13.71 14.6034 1.00991e-16)
(13.0799 13.4161 -1.04676e-16)
(12.5032 12.0731 5.51457e-16)
(12.0721 10.633 -2.65672e-16)
(11.799 9.10556 1.17442e-16)
(11.7085 7.53229 1.17132e-15)
(11.8081 5.99184 8.67989e-16)
(12.0949 4.54441 3.71316e-16)
(12.5512 3.21805 -9.53279e-16)
(13.1432 2.03978 -4.60013e-16)
(13.8348 1.02697 7.47839e-16)
(14.5985 0.174895 8.09085e-17)
(15.4084 -0.526883 -3.10985e-17)
(16.2415 -1.08773 -5.43364e-16)
(17.0818 -1.52265 4.44858e-16)
(17.9173 -1.84602 9.94432e-16)
(18.7391 -2.07152 -5.59206e-16)
(19.5433 -2.21072 -6.36448e-17)
(20.3287 -2.27213 -5.74156e-16)
(21.0952 -2.25982 -2.90231e-16)
(21.8417 -2.17369 3.04624e-16)
(22.5635 -2.00983 -7.27165e-16)
(23.2479 -1.76354 2.51445e-16)
(23.8717 -1.43904 3.35848e-16)
(24.4138 -1.05724 -1.14025e-16)
(24.8685 -0.64006 -9.7112e-17)
(25.2396 -0.200957 -1.89182e-17)
(25.5295 0.249911 -1.3698e-18)
(25.7393 0.701341 1.93983e-18)
(25.8715 1.14255 -4.0127e-17)
(25.9308 1.56555 7.01565e-17)
(25.9203 1.96681 -6.99188e-18)
(25.8425 2.34279 6.36865e-17)
(25.6913 2.69198 7.62835e-17)
(25.4663 3.00992 -6.07193e-16)
(25.0935 3.2978 1.83859e-15)
(24.6334 3.46003 1.91656e-16)
(23.5057 3.50236 5.69347e-15)
(16.1809 15.6309 -8.40724e-20)
(16.9711 16.4549 2.65189e-18)
(17.9185 17.2888 3.24908e-18)
(18.9894 18.0814 -9.25288e-22)
(20.1455 18.7736 -2.47681e-17)
(21.4246 19.3754 -2.16029e-16)
(22.7934 19.8561 1.41918e-17)
(24.2243 20.1897 2.33203e-16)
(25.7101 20.3659 -5.6898e-16)
(27.2243 20.3723 -3.21352e-16)
(28.7435 20.2001 6.42196e-17)
(30.2485 19.8454 7.72208e-16)
(31.7131 19.3081 2.19803e-15)
(33.1129 18.5919 3.13096e-15)
(34.4247 17.7052 8.8521e-17)
(35.6247 16.6608 -1.87223e-16)
(36.6929 15.4743 2.73874e-15)
(37.6074 14.1749 2.37542e-15)
(38.3507 12.7975 -1.23586e-17)
(38.9168 11.371 -2.36132e-15)
(39.3097 9.91893 8.03594e-16)
(39.5394 8.45387 9.71703e-16)
(39.6094 6.97416 -1.75717e-16)
(39.4971 5.48013 1.44266e-15)
(39.1619 4.01365 -8.0346e-16)
(38.5968 2.65673 -3.80492e-16)
(37.8595 1.4731 -1.27486e-17)
(37.0337 0.462152 -4.18524e-16)
(36.1652 -0.417778 -1.34461e-16)
(35.2543 -1.1945 -2.57578e-15)
(34.2911 -1.87262 1.12723e-15)
(33.2777 -2.45248 -2.60147e-15)
(32.2259 -2.93632 -5.87473e-15)
(31.1704 -3.32551 3.1033e-16)
(30.1631 -3.61749 -1.90671e-15)
(29.3392 -3.80084 -7.55497e-15)
(28.487 -3.85434 1.76725e-15)
(27.1103 -3.49841 2.35869e-16)
(22.5155 -3.07637 1.8532e-15)
(15.496 14.7802 -1.63285e-17)
(14.872 13.8822 -5.80519e-17)
(14.2799 12.8153 1.06068e-16)
(13.7292 11.6066 -4.32511e-16)
(13.3036 10.3128 -3.24764e-18)
(13.012 8.93693 -1.87339e-16)
(12.8776 7.51122 -1.97369e-15)
(12.9101 6.10917 7.97202e-16)
(13.1077 4.78713 -1.1508e-16)
(13.4557 3.56478 1.03496e-15)
(13.9274 2.46508 -5.72752e-16)
(14.4946 1.50429 5.3494e-16)
(15.1365 0.679057 -7.77682e-16)
(15.8326 -0.0175413 -5.96483e-16)
(16.5639 -0.59049 3.09801e-16)
(17.3168 -1.05008 3.35119e-16)
(18.0794 -1.40574 3.36428e-16)
(18.8422 -1.66684 1.97838e-16)
(19.5991 -1.84187 -2.32257e-16)
(20.3468 -1.93761 9.28661e-16)
(21.0824 -1.95746 -2.70993e-16)
(21.8029 -1.9018 4.35272e-16)
(22.5026 -1.76793 4.53332e-16)
(23.1691 -1.5531 -1.63673e-18)
(23.7813 -1.26122 -8.82926e-17)
(24.3191 -0.909071 -6.99517e-17)
(24.775 -0.516654 1.52148e-17)
(25.1501 -0.0975828 1.99423e-17)
(25.446 0.337818 6.51298e-18)
(25.6631 0.778587 1.16648e-17)
(25.8033 1.21422 2.74709e-17)
(25.8704 1.63654 -1.35172e-16)
(25.8672 2.03751 -6.99656e-17)
(25.7961 2.41093 1.22788e-17)
(25.6513 2.7534 -1.54094e-16)
(25.432 3.05755 6.72637e-16)
(25.0691 3.3233 -6.20898e-16)
(24.6196 3.44584 2.70127e-16)
(23.572 3.43318 -3.07276e-16)
(17.0918 14.8194 -1.38994e-17)
(17.8197 15.5675 -2.59017e-17)
(18.6912 16.3276 1.07663e-17)
(19.6725 17.0518 7.88435e-18)
(20.7256 17.6857 3.54707e-17)
(21.8891 18.2425 1.00333e-16)
(23.1326 18.6945 2.39998e-16)
(24.431 19.0184 2.61684e-16)
(25.7815 19.2065 -2.56716e-16)
(27.1611 19.2468 -6.09172e-17)
(28.551 19.1302 -1.19133e-16)
(29.9364 18.8519 -1.95565e-15)
(31.2948 18.4095 5.01108e-16)
(32.6044 17.8036 -2.03161e-15)
(33.844 17.0392 -5.43608e-16)
(34.9907 16.1255 6.65257e-16)
(36.0226 15.0773 -1.84231e-15)
(36.9217 13.9109 -1.0046e-15)
(37.6741 12.6441 -4.81913e-16)
(38.2699 11.3001 1.56175e-15)
(38.7059 9.90367 1.18478e-16)
(38.9827 8.47635 7.16284e-16)
(39.0978 7.03018 1.3562e-15)
(39.0331 5.57691 -2.75778e-16)
(38.7588 4.15399 -8.18238e-18)
(38.2688 2.82753 1.17819e-15)
(37.6094 1.65352 2.18078e-16)
(36.8529 0.638332 -4.35781e-17)
(36.0443 -0.249729 2.89628e-16)
(35.1885 -1.03505 -2.6087e-16)
(34.2768 -1.7222 -2.9738e-15)
(33.3056 -2.31063 5.58955e-15)
(32.2704 -2.80061 -5.90996e-15)
(31.1699 -3.18966 -6.1635e-15)
(29.9984 -3.47074 5.73765e-15)
(28.8517 -3.62553 2.77182e-15)
(27.7949 -3.64503 -1.49617e-15)
(27.2199 -3.33926 -7.6394e-16)
(24.0206 -3.09466 -1.39467e-15)
(16.4571 14.0478 8.58595e-18)
(15.877 13.2362 1.22459e-16)
(15.3193 12.2701 -4.23261e-17)
(14.7935 11.1741 -4.67375e-16)
(14.3768 10.0031 -2.84556e-16)
(14.0744 8.75476 -6.7623e-16)
(13.9095 7.45478 -1.69562e-16)
(13.8929 6.17317 8.67467e-16)
(14.0227 4.96167 6.57987e-16)
(14.2868 3.83438 -1.89518e-16)
(14.6632 2.81065 1.58737e-15)
(15.1291 1.9054 -3.97354e-17)
(15.6685 1.11534 1.16176e-15)
(16.2653 0.435279 4.7031e-16)
(16.9044 -0.1376 -4.24382e-16)
(17.5746 -0.610166 3.84504e-17)
(18.2655 -0.988342 -8.8271e-16)
(18.9677 -1.27804 5.82674e-17)
(19.6745 -1.48483 5.13156e-16)
(20.3807 -1.61341 2.18581e-17)
(21.0819 -1.6662 3.50186e-16)
(21.7734 -1.6434 -4.41352e-16)
(22.4484 -1.54296 -2.83802e-16)
(23.095 -1.36335 -5.06276e-16)
(23.6936 -1.10812 -3.14394e-16)
(24.225 -0.791058 -2.0177e-17)
(24.6801 -0.430184 -8.78742e-17)
(25.0581 -0.0391851 -1.6551e-18)
(25.3593 0.371245 -6.42848e-18)
(25.5835 0.789965 -1.58096e-18)
(25.7321 1.20609 3.24172e-17)
(25.808 1.61036 -1.69223e-17)
(25.8138 1.99639 1.38675e-16)
(25.7513 2.35839 -3.09808e-16)
(25.6147 2.69272 3.55083e-17)
(25.4028 2.99141 -2.04972e-17)
(25.051 3.25204 3.24298e-16)
(24.6138 3.36989 3.3037e-16)
(23.6436 3.34358 -4.18464e-16)
(17.8937 14.0921 -4.02319e-18)
(18.5696 14.7742 -5.34719e-19)
(19.3778 15.4691 1.83877e-17)
(20.2846 16.1318 -1.85286e-17)
(21.2524 16.712 -1.01699e-17)
(22.3203 17.2248 -3.79003e-17)
(23.4594 17.6448 -3.6892e-16)
(24.647 17.9518 6.44186e-17)
(25.883 18.1391 -1.84043e-16)
(27.1479 18.1958 4.30876e-16)
(28.4263 18.1132 -4.38121e-16)
(29.7073 17.8854 1.24233e-15)
(30.9715 17.5084 -8.76556e-17)
(32.2008 16.9798 -7.44536e-17)
(33.376 16.3012 -3.71765e-16)
(34.4752 15.4781 -1.74087e-16)
(35.478 14.5202 6.47437e-16)
(36.3656 13.4412 1.31224e-15)
(37.1196 12.2628 1.34646e-15)
(37.727 11.0085 8.90065e-16)
(38.1814 9.69998 7.01292e-16)
(38.4811 8.35514 1.44311e-16)
(38.6218 6.98594 -9.14631e-16)
(38.5893 5.6057 -2.11138e-17)
(38.3606 4.24701 5.91542e-16)
(37.9297 2.96546 -8.82657e-16)
(37.3328 1.81294 -1.89269e-16)
(36.6314 0.802922 -1.52155e-16)
(35.8691 -0.0864491 -2.95627e-16)
(35.0557 -0.875483 2.57626e-15)
(34.1876 -1.5683 2.4361e-15)
(33.2639 -2.16393 -1.32715e-15)
(32.2812 -2.66192 2.41045e-15)
(31.232 -3.05855 -8.73991e-16)
(30.0851 -3.344 -2.97525e-15)
(28.859 -3.4938 -1.29021e-15)
(27.4703 -3.48674 1.41801e-15)
(26.8129 -3.13995 2.46111e-16)
(24.7079 -2.99665 -1.68718e-15)
(17.301 13.3889 5.85572e-17)
(16.7582 12.6512 1.77738e-16)
(16.2304 11.7716 -3.80269e-16)
(15.7274 10.7721 -7.78246e-16)
(15.321 9.70564 -7.70791e-16)
(15.0133 8.56609 2.17216e-15)
(14.8271 7.37469 1.1628e-15)
(14.7741 6.19864 4.17623e-16)
(14.8522 5.08482 -1.73151e-15)
(15.0506 4.04356 -9.84669e-16)
(15.3511 3.09165 -1.78515e-15)
(15.7345 2.24242 -1.64139e-15)
(16.188 1.49204 -3.74879e-16)
(16.6991 0.83595 2.54192e-16)
(17.2557 0.272683 -2.68313e-16)
(17.8494 -0.202772 -3.43027e-16)
(18.4714 -0.593657 3.70887e-16)
(19.1134 -0.903276 -4.94564e-16)
(19.7687 -1.13472 5.42442e-17)
(20.4313 -1.29058 1.94482e-16)
(21.0956 -1.37186 3.94713e-16)
(21.7559 -1.37835 -1.78786e-16)
(22.4046 -1.30825 -1.00112e-16)
(23.0299 -1.16055 -8.19389e-17)
(23.6134 -0.938482 2.49354e-16)
(24.1367 -0.653364 -1.229e-17)
(24.5894 -0.32102 5.51712e-17)
(24.9688 0.0452083 -7.83737e-18)
(25.2742 0.434484 -4.22815e-18)
(25.5046 0.83578 -1.34459e-17)
(25.6606 1.2381 -3.71058e-17)
(25.7446 1.63217 -1.10551e-16)
(25.7585 2.01014 1.97615e-17)
(25.7038 2.36482 3.09973e-16)
(25.5748 2.69141 3.62e-16)
(25.3703 2.97996 2.62606e-16)
(25.0303 3.22596 2.12011e-15)
(24.6071 3.32202 -2.57434e-15)
(23.7147 3.26583 2.00737e-15)
(18.6019 13.4354 1.56191e-17)
(19.2327 14.0599 1.40721e-17)
(19.9861 14.6973 -3.89011e-18)
(20.8285 15.3052 1.82633e-17)
(21.7228 15.8373 -9.98992e-17)
(22.7078 16.3097 1.15067e-17)
(23.7562 16.6995 1.34314e-16)
(24.847 16.9884 2.05507e-16)
(25.9819 17.1715 1.49264e-16)
(27.1436 17.239 -5.4445e-16)
(28.3202 17.1831 9.32155e-17)
(29.5034 16.9976 -4.156e-16)
(30.6768 16.6777 -1.18722e-16)
(31.8253 16.2199 -3.57537e-16)
(32.9318 15.6234 2.72977e-16)
(33.9767 14.8911 4.69231e-16)
(34.9403 14.0297 -1.07537e-16)
(35.8038 13.0505 -1.43337e-15)
(36.5503 11.9674 -7.87481e-16)
(37.165 10.7989 -8.68861e-16)
(37.6383 9.56432 -3.23559e-16)
(37.9641 8.2833 -6.80797e-16)
(38.1355 6.97255 -1.18055e-16)
(38.1393 5.64984 1.0826e-15)
(37.9573 4.34501 2.52062e-17)
(37.5839 3.10391 5.53589e-16)
(37.0467 1.9726 1.0531e-16)
(36.3975 0.968816 5.02096e-16)
(35.6768 0.0789833 5.17676e-16)
(34.8981 -0.712911 -2.95737e-15)
(34.0616 -1.41022 -1.00235e-15)
(33.1696 -2.01144 -4.8682e-15)
(32.2224 -2.51568 5.10908e-15)
(31.2185 -2.919 3.60767e-16)
(30.1301 -3.21156 2.39818e-15)
(28.9685 -3.36565 -7.61396e-16)
(27.5256 -3.36466 -1.86957e-15)
(26.5001 -2.96852 1.0367e-16)
(24.8739 -2.8239 7.54063e-16)
(18.0461 12.7918 6.70094e-17)
(17.5361 12.1179 -2.01045e-16)
(17.0353 11.3131 -7.60589e-18)
(16.5535 10.3971 4.40514e-16)
(16.1581 9.42109 -8.76351e-16)
(15.8492 8.3754 -1.40177e-15)
(15.6484 7.27903 -9.12323e-16)
(15.5684 6.1959 1.09958e-15)
(15.6065 5.1688 1.5329e-15)
(15.7534 4.20534 2.42984e-16)
(15.9932 3.32037 1.06554e-15)
(16.3091 2.52592 1.00168e-15)
(16.6908 1.81734 -6.01297e-16)
(17.1282 1.19001 4.02797e-16)
(17.612 0.643035 -1.04201e-16)
(18.1358 0.172577 6.91723e-16)
(18.6929 -0.223273 -4.24419e-16)
(19.2762 -0.545742 -6.92116e-16)
(19.8797 -0.795859 -2.40667e-16)
(20.4973 -0.97448 -5.7904e-16)
(21.1228 -1.08136 -5.11194e-16)
(21.7498 -1.11551 -4.52075e-16)
(22.3705 -1.07489 8.41072e-16)
(22.973 -0.958654 5.20164e-16)
(23.5397 -0.769628 8.38524e-17)
(24.0529 -0.516968 2.8352e-16)
(24.5014 -0.214537 4.79738e-17)
(24.8809 0.124879 1.29721e-17)
(25.1894 0.490394 -1.42214e-18)
(25.4253 0.871015 -2.484e-18)
(25.5885 1.25572 2.46924e-17)
(25.6805 1.63468 -3.5153e-18)
(25.7028 2.00007 7.10181e-17)
(25.6565 2.34443 1.54285e-16)
(25.5357 2.66234 -6.57875e-16)
(25.3392 2.94269 2.71391e-17)
(25.0119 3.17875 -2.47498e-15)
(24.603 3.26354 4.20421e-15)
(23.7848 3.18945 2.18062e-15)
(19.2324 12.8378 -1.08238e-17)
(19.8238 13.4114 1.20181e-17)
(20.5293 13.9975 -1.90658e-17)
(21.3158 14.5562 -1.77607e-17)
(22.1465 15.0446 1.25382e-17)
(23.06 15.4792 3.24069e-17)
(24.0297 15.8395 -1.42222e-16)
(25.0363 16.1091 -5.85827e-17)
(26.0827 16.284 4.41139e-16)
(27.1537 16.3558 2.35864e-16)
(28.2394 16.3176 3.46009e-16)
(29.334 16.1635 -1.82875e-16)
(30.4239 15.8881 -7.22125e-16)
(31.4965 15.4869 1.57409e-15)
(32.5372 14.9576 -6.48407e-16)
(33.5282 14.3006 -6.77521e-16)
(34.4515 13.5199 -4.4427e-16)
(35.2889 12.6235 1.29977e-15)
(36.0232 11.6231 1.55992e-15)
(36.6382 10.5354 4.33149e-16)
(37.1217 9.37841 -1.81488e-15)
(37.4652 8.17016 4.03415e-16)
(37.6605 6.92769 -8.1951e-17)
(37.6957 5.66989 3.34902e-16)
(37.5559 4.4238 -1.54959e-16)
(37.2355 3.22776 1.15667e-16)
(36.7554 2.12282 4.62603e-17)
(36.1577 1.13001 -2.69254e-16)
(35.4792 0.243254 4.49015e-16)
(34.7351 -0.549091 1.9161e-15)
(33.928 -1.24909 4.62978e-17)
(33.0616 -1.85443 5.01426e-15)
(32.1382 -2.36341 2.13147e-15)
(31.1602 -2.77146 -2.37225e-15)
(30.1078 -3.0695 -3.31916e-15)
(29.0049 -3.22664 -1.18533e-15)
(27.6652 -3.2406 -1.22472e-15)
(26.4385 -2.83125 -8.78988e-17)
(24.8898 -2.62714 1.60998e-15)
(18.709 12.2467 -4.74032e-17)
(18.228 11.6288 -2.57485e-17)
(17.7515 10.8893 1.74089e-16)
(17.2896 10.0466 -4.61985e-17)
(16.9055 9.14937 5.40969e-16)
(16.5982 8.18585 9.23366e-16)
(16.3879 7.17332 7.09255e-17)
(16.2876 6.17257 6.52135e-16)
(16.2949 5.22269 -1.92885e-15)
(16.401 4.32978 -1.29109e-15)
(16.5918 3.5068 8.64223e-16)
(16.8525 2.76464 1.26303e-15)
(17.1742 2.09806 -6.53926e-16)
(17.5487 1.50227 -9.16304e-17)
(17.9685 0.976363 -5.29792e-17)
(18.4293 0.51675 -1.73209e-16)
(18.9261 0.122448 6.36849e-16)
(19.4533 -0.206486 8.75349e-16)
(20.0057 -0.469595 8.18615e-17)
(20.5778 -0.666211 6.24614e-16)
(21.1633 -0.794842 2.16003e-16)
(21.7556 -0.853663 3.37422e-16)
(22.3467 -0.840281 -5.25929e-16)
(22.925 -0.753573 -4.35155e-17)
(23.4734 -0.595714 -2.67312e-16)
(23.9747 -0.37414 -3.05889e-16)
(24.4173 -0.100757 -1.14931e-16)
(24.7954 0.212444 2.83765e-17)
(25.1058 0.554713 9.43158e-18)
(25.3463 0.915267 6.16673e-18)
(25.5159 1.28312 1.26864e-18)
(25.6155 1.64827 -3.65996e-17)
(25.6458 2.00233 1.04503e-17)
(25.6076 2.33698 -2.57766e-16)
(25.4952 2.64581 1.73375e-17)
(25.3071 2.91632 -6.02073e-16)
(24.9935 3.13972 1.60802e-15)
(24.6003 3.21017 -2.36475e-15)
(23.8531 3.11743 -4.09348e-15)
(19.7963 12.2908 1.02427e-17)
(20.3529 12.819 -1.82908e-17)
(21.016 13.3591 -5.3509e-17)
(21.7531 13.8734 9.34628e-18)
(22.528 14.3222 -3.25833e-18)
(23.3785 14.7221 -9.55753e-17)
(24.2791 15.0544 1.93636e-16)
(25.2114 15.3044 -3.21134e-16)
(26.1795 15.4694 1.02801e-15)
(27.1695 15.542 4.28193e-16)
(28.1732 15.5161 -8.82325e-16)
(29.187 15.3862 -6.09299e-17)