/*--------------------------------*- C++ -*----------------------------------*\
| =========                 |                                                 |
| \\      /  F ield         | OpenFOAM: The Open Source CFD Toolbox           |
|  \\    /   O peration     | Version:  2506                                  |
|   \\  /    A nd           | Website:  www.openfoam.com                      |
|    \\/     M anipulation  |                                                 |
\*---------------------------------------------------------------------------*/
FoamFile
{
    version     2.0;
    format      ascii;
    arch        "LSB;label=32;scalar=64";
    class       surfaceScalarField;
    location    "99.978303268757969";
    object      ddtCorrDdt0(phi);
}
// * * * * * * * * * * * * * * * * * * * * * * * * * * * * * * * * * * * * * //

dimensions      [0 3 -2 0 0 0 0];

oriented        oriented;

internalField   nonuniform List<scalar> 
19160
(
0.000145265
0.000235277
0.000303296
0.000222499
0.000127291
0.000107986
0.000481653
0.00019225
0.000264716
8.50742e-05
0.00010524
2.74598e-06
0.000697524
0.000144718
0.000419109
3.78572e-05
0.000218269
-2.7955e-05
7.67026e-05
-7.39566e-05
0.000965155
7.24158e-05
0.000604637
-4.08096e-05
0.000345136
-8.90105e-05
0.000158466
-0.000109718
4.43038e-05
-0.00011826
0.00130592
-3.12842e-05
0.000833383
-0.00015633
0.000496444
-0.000192117
0.000249279
-0.000179824
9.07895e-05
-0.000156204
1.04521e-05
-0.000128713
0.00174568
-0.000177277
0.00112272
-0.000320623
0.000682316
-0.000342202
0.000356479
-0.000299317
0.000140931
-0.000229966
2.01178e-05
-0.00016587
-2.22386e-05
-0.000106474
0.00231691
-0.000380102
0.00149312
-0.000547673
0.000916509
-0.000554816
0.000486761
-0.000472484
0.000198334
-0.00035672
2.76925e-05
-0.00023754
-4.81376e-05
-0.000139971
-5.12181e-05
-5.52559e-05
0.00305726
-0.000658819
0.00197104
-0.00085802
0.00121572
-0.00084688
0.000649524
-0.000717579
0.000265831
-0.000539981
3.28478e-05
-0.000361875
-8.17742e-05
-0.000203904
-0.000108726
-8.24628e-05
-7.42515e-05
1.89955e-05
0.00401134
-0.00103933
0.00258985
-0.00127763
0.00160114
-0.00124344
0.000856405
-0.00105376
0.000347804
-0.000799552
3.42253e-05
-0.000541359
-0.000127432
-0.000316218
-0.000179082
-0.000133548
-0.000157
2.85834e-07
-8.93778e-05
0.000108373
0.00523676
-0.00154868
0.0033893
-0.00183878
0.00210019
-0.00177668
0.00112271
-0.00150975
0.00044979
-0.00115575
3.0727e-05
-0.000796053
-0.000190692
-0.000478098
-0.000270294
-0.000225005
-0.000256749
-3.37998e-05
-0.00018883
9.97383e-05
-9.54699e-05
0.000203843
0.00680008
-0.00222812
0.00442146
-0.00258084
0.00274742
-0.00248602
0.0014688
-0.00212277
0.000579577
-0.00163953
2.11493e-05
-0.00114617
-0.000278327
-0.000708419
-0.000391886
-0.000356507
-0.000384726
-9.70286e-05
-0.000308081
8.5451e-05
-0.000201797
0.000206066
-9.19772e-05
0.00029582
0.00877443
-0.00311734
0.00574555
-0.00355221
0.00358974
-0.00342315
0.00192116
-0.00293838
0.000748644
-0.00229184
4.7687e-06
-0.00162315
-0.000398713
-0.00102578
-0.000556097
-0.000544208
-0.000553775
-0.000187457
-0.000460752
5.56427e-05
-0.000329125
0.000212778
-0.000194676
0.000308764
-7.91879e-05
0.000375008
0.011249
-0.00429043
0.00743494
-0.00480673
0.00468404
-0.00464652
0.00251876
-0.00402075
0.000973657
-0.00316339
-1.7954e-05
-0.00226912
-0.000561984
-0.00145988
-0.000778351
-0.000803529
-0.000780928
-0.000317055
-0.000662039
1.38291e-05
-0.000492393
0.000218911
-0.000317839
0.000335941
-0.000168026
0.000397603
-5.79984e-05
0.000433006
0.0144325
-0.00578202
0.00953819
-0.00639368
0.00610756
-0.00623025
0.00331101
-0.00543877
0.00128177
-0.00432886
-4.33072e-05
-0.00313804
-0.000780148
-0.00205095
-0.00107839
-0.00115984
-0.0010879
-0.00049656
-0.000932537
-4.65571e-05
-0.000707919
0.000229356
-0.000476469
0.00037754
-0.000275087
0.000443002
-0.000123712
0.000463317
-3.02422e-05
0.000463249
0.0188121
-0.00747107
0.0120705
-0.0083143
0.00792461
-0.00821072
0.00436472
-0.00728396
0.00170925
-0.00586626
-6.125e-05
-0.00431092
-0.0010652
-0.00285299
-0.00148138
-0.00164797
-0.00150335
-0.000744385
-0.00129872
-0.000130373
-0.000998189
0.000243712
-0.000686604
0.000439491
-0.000414139
0.000516592
-0.000203855
0.000523145
-6.5594e-05
0.000498669
1.88687e-06
0.000461362
0.025103
-0.00877868
0.0151329
-0.0105335
0.0102062
-0.0105959
0.00573724
-0.00958324
0.00230331
-0.00787803
-5.77577e-05
-0.00586975
-0.00142954
-0.00394657
-0.00201706
-0.0023173
-0.00206496
-0.00108636
-0.00179633
-0.000246782
-0.00139226
0.000263698
-0.000970612
0.00052772
-0.00059953
0.000624882
-0.000309755
0.000622492
-0.000110392
0.000567942
1.70668e-06
0.000498849
3.57869e-05
0.000425575
0.0337937
-0.00907767
0.0192443
-0.0128901
0.0130369
-0.0133641
0.0075397
-0.0123984
0.00311925
-0.0103992
-2.14131e-05
-0.00791437
-0.00189115
-0.00540815
-0.00272455
-0.00323908
-0.00282061
-0.00156165
-0.0024732
-0.00040949
-0.00192992
0.000290881
-0.00135745
0.000650536
-0.000851439
0.000779628
-0.000452777
0.000767904
-0.00017258
0.00068468
-2.19069e-06
0.00057184
7.27133e-05
0.000461922
6.87485e-05
0.000356826
0.0446198
-0.00746183
0.025107
-0.0149404
0.0166277
-0.0164809
0.00996581
-0.0157902
0.00433562
-0.0136148
0.000101875
-0.0105225
-0.00248692
-0.0073186
-0.00366361
-0.00446909
-0.00383762
-0.00222208
-0.00339329
-0.000641558
-0.0026652
0.000325787
-0.00188709
0.000820516
-0.00119592
0.000995019
-0.000649009
0.00097586
-0.000259565
0.000854889
-1.37428e-05
0.000696232
0.000111889
0.000532664
0.000141716
0.000388954
9.82521e-05
0.000258574
0.0563518
-0.00359734
0.0334942
-0.0158491
0.0212712
-0.0195839
0.0132249
-0.01974
0.00625347
-0.0177081
0.000572254
-0.0140851
-0.00315444
-0.00985494
-0.00491886
-0.00606334
-0.00522027
-0.00308643
-0.00464926
-0.000966113
-0.00367289
0.00036613
-0.00261423
0.00105293
-0.00166899
0.00129359
-0.000919042
0.00126505
-0.000381906
0.0010982
-3.58189e-05
0.000876965
0.000153632
0.00065449
0.000222622
0.000451758
0.000203408
0.000283798
0.000121867
0.000136707
0.0667547
0.00120087
0.0449286
-0.0150317
0.0273309
-0.0219088
0.0173305
-0.0236895
0.00912144
-0.0226079
0.00178588
-0.0189217
-0.00357493
-0.0136646
-0.00642088
-0.00835292
-0.00709399
-0.00418963
-0.00638248
-0.00135321
-0.00506219
0.000423194
-0.00361636
0.00136826
-0.0023201
0.00170403
-0.00129116
0.0016657
-0.00055283
0.00143598
-7.26152e-05
0.001135
0.000199734
0.000830862
0.000315896
0.000561216
0.000321479
0.000333688
0.000252685
0.000152979
0.000137928
-1.22148e-06
0.0736053
0.00501821
0.0585959
-0.0124664
0.0351392
-0.02284
0.0221619
-0.0267402
0.0127774
-0.0273454
0.0039343
-0.0247564
-0.00334162
-0.019155
-0.00785905
-0.0122265
-0.00940787
-0.00603904
-0.00874963
-0.00182247
-0.00699203
0.000576626
-0.0050046
0.00181144
-0.00322007
0.00226824
-0.00180408
0.00221695
-0.000790115
0.00190299
-0.00012895
0.00149231
0.000252524
0.00108221
0.000427682
0.000719076
0.000460531
0.000422163
0.000400319
0.000186054
0.000286091
4.8167e-06
0.000145139
-0.000146361
0.075935
0.00644614
0.0722541
-0.00864002
0.0447806
-0.0221078
0.0277408
-0.0284189
0.0167097
-0.0306725
0.00665892
-0.03007
-0.0024804
-0.0256176
-0.00895113
-0.0180629
-0.011948
-0.00968634
-0.0117773
-0.00301135
-0.00964101
0.000826501
-0.00692761
0.00249963
-0.00446624
0.00305761
-0.00251332
0.00297748
-0.00111773
0.00254456
-0.000210637
0.00198468
0.000315667
0.00142917
0.000566332
0.000943557
0.0006304
0.000549207
0.000575707
0.000246775
0.000453675
1.84708e-05
0.000301015
-0.000151059
0.00014294
-0.0002893
0.0750895
0.00466268
0.0830542
-0.00435394
0.0559003
-0.0197597
0.0342241
-0.0285911
0.0206451
-0.0323543
0.00939928
-0.0334129
-0.00154783
-0.0310026
-0.0100462
-0.0245225
-0.0146895
-0.0153214
-0.0154462
-0.00601741
-0.0131808
0.000528425
-0.00956777
0.00346666
-0.00617297
0.00420636
-0.00349058
0.00403488
-0.00156937
0.00342912
-0.000324833
0.00265875
0.000395279
0.00190506
0.000743175
0.00125233
0.000844464
0.000729492
0.000791465
0.000333449
0.000653572
4.6878e-05
0.000477469
-0.000157984
0.000296433
-0.000304553
0.000131164
-0.000420464
0.0725946
0.00269383
0.0899055
-0.00218861
0.0670459
-0.0154995
0.0417306
-0.0272662
0.0245707
-0.0325168
0.0119254
-0.0348804
-0.000869924
-0.0340908
-0.0117249
-0.0293239
-0.0182278
-0.0209842
-0.0200674
-0.0107003
-0.0179319
-0.0012663
-0.0132556
0.00421628
-0.00850123
0.00579493
-0.0048044
0.00552017
-0.00218453
0.00465004
-0.000480064
0.00358435
0.000500687
0.00255334
0.000974849
0.00167339
0.00112025
0.000976541
0.00106464
0.000456316
0.000900154
8.68664e-05
0.000688383
-0.000164036
0.000470169
-0.00033172
0.000272087
-0.000445476
0.000110806
-0.00053127
0.0703293
0.000931953
0.0934111
-0.000811753
0.0761775
-0.0113203
0.0503351
-0.024104
0.0285704
-0.0312659
0.0141116
-0.034703
-0.000363358
-0.035387
-0.0138155
-0.0320002
-0.0229989
-0.0245528
-0.0260248
-0.0150269
-0.0244852
-0.00414701
-0.018623
0.00410108
-0.0118867
0.00760175
-0.00657063
0.00756116
-0.00298459
0.00632023
-0.000681738
0.00485171
0.000647984
0.00343705
0.00128472
0.00224347
0.00148257
0.00131107
0.00141711
0.000624072
0.00121267
0.0001438
0.000948818
-0.000173569
0.000678104
-0.000371971
0.000431452
-0.000491085
0.000229961
-0.000564632
8.32333e-05
-0.000614503
0.0684255
-8.11131e-05
0.0935179
0.000825169
0.0831122
-0.00774647
0.0588235
-0.0198087
0.0331762
-0.0287098
0.0159807
-0.033135
1.5042e-05
-0.0350814
-0.0159622
-0.0332402
-0.0280844
-0.0269147
-0.0335936
-0.016984
-0.0327769
-0.00673517
-0.026295
0.00352497
-0.0171008
0.00931522
-0.00924107
0.0102722
-0.00401471
0.00859127
-0.000909051
0.00654755
0.000863075
0.00463662
0.00170934
0.00301244
0.00196511
0.00176093
0.00187901
0.000849174
0.00161545
0.000221295
0.00127878
-0.00018616
0.000934968
-0.000430433
0.000622422
-0.000562941
0.000364536
-0.000625661
0.00017268
-0.000654078
5.01688e-05
-0.000664672
0.067109
-0.000794347
0.0928071
0.000629618
0.08594
-0.00200259
0.0663883
-0.0153113
0.0383798
-0.0250122
0.0176259
-0.030355
0.000248163
-0.0333681
-0.0179094
-0.0331343
-0.0330352
-0.0282895
-0.0412936
-0.0192147
-0.0414588
-0.00830206
-0.0360114
0.00298126
-0.0244838
0.0109079
-0.0136174
0.0136916
-0.005618
0.0118755
-0.00112099
0.00880322
0.00119908
0.00621154
0.00229962
0.00404633
0.0026185
0.00235904
0.00249024
0.00114969
0.00214113
0.000323486
0.00170327
-0.000203195
0.00126022
-0.000511409
0.000858441
-0.000666452
0.000526054
-0.00072446
0.000273608
-0.000726589
0.000103706
-0.000707616
1.38036e-05
-0.000678476
0.0664443
-0.00116124
0.091828
0.000184804
0.0874317
-0.000862133
0.0707208
-0.00633501
0.0435603
-0.0204918
0.0193255
-0.0267117
0.000185035
-0.0302919
-0.0196143
-0.0316632
-0.0375973
-0.0285721
-0.0486783
-0.0209048
-0.050553
-0.0101205
-0.0455531
0.0012396
-0.0335578
0.0120552
-0.0199978
0.0172883
-0.00853826
0.0166118
-0.00143496
0.0121895
0.00176662
0.00823568
0.00313055
0.00538061
0.00351037
0.00315447
0.00330845
0.00154083
0.00283221
0.000458612
0.00225498
-0.000228227
0.001678
-0.000620974
0.00115726
-0.000810232
0.000725888
-0.000866286
0.000395037
-0.000845888
0.000164127
-0.000787011
2.78145e-05
-0.000721627
-2.37432e-05
-0.000654733
0.0665389
-0.00120268
0.0908832
-0.000216408
0.0879283
-0.000311751
0.0741314
-0.0042728
0.0472317
-0.0100065
0.0210465
-0.0222128
-1.96343e-05
-0.0265071
-0.0211259
-0.0287803
-0.0417067
-0.0275539
-0.0557949
-0.0214555
-0.0600279
-0.0114299
-0.0546225
-0.00105104
-0.0439265
0.0116083
-0.0279039
0.0199613
-0.0133461
0.0220962
-0.00236817
0.017545
0.00270208
0.011254
0.00434103
0.0070252
0.00472975
0.00416123
0.00440889
0.00205403
0.00374718
0.00062586
0.0029761
-0.000262504
0.00221912
-0.000769353
0.00154084
-0.00100455
0.000979133
-0.00106348
0.000545632
-0.00101688
0.00023719
-0.000918952
4.35973e-05
-0.000802793
-5.01258e-05
-0.000695245
-6.00815e-05
-0.000594652
0.0671473
-0.00120049
0.0902665
-0.000586024
0.0878943
-0.000182428
0.0763933
-0.00257367
0.0506856
-0.00772667
0.0227326
-0.0116926
-0.000452374
-0.0217801
-0.0222959
-0.0253371
-0.0450376
-0.0254493
-0.0624129
-0.0209358
-0.0694458
-0.0120376
-0.0658312
-0.000221164
-0.055187
0.0102095
-0.0374954
0.0211998
-0.0199263
0.0265416
-0.00467326
0.0244012
0.00386408
0.016383
0.00624705
0.00934798
0.00640513
0.00534982
0.00588815
0.00268198
0.00496133
0.000839885
0.0039215
-0.000319548
0.00292338
-0.000966762
0.00203668
-0.00126519
0.00130447
-0.00132989
0.000737016
-0.00125486
0.000328318
-0.00110801
6.3284e-05
-0.000938639
-8.02915e-05
-0.000772628
-0.000125021
-0.000630305
-9.23328e-05
-0.000502319
0.0683859
-0.000849802
0.089781
-0.000714949
0.0875436
-0.000235339
0.0776305
-0.00141959
0.0536052
-0.00549322
0.0243553
-0.00934941
-9.75724e-05
-0.0120474
-0.0236618
-0.0204141
-0.0475048
-0.0228699
-0.067832
-0.0200303
-0.0782237
-0.012158
-0.0766163
-0.0012525
-0.0657087
0.0103006
-0.0489441
0.0216581
-0.0276938
0.0289673
-0.00866677
0.0305351
0.00453613
0.0237292
0.00912799
0.0135021
0.00890236
0.00685074
0.00784816
0.00338981
0.00657089
0.00107241
0.00516177
-0.00040038
0.00383954
-0.00123571
0.00268056
-0.00161064
0.00172509
-0.00168582
0.000983654
-0.00157652
0.000444973
-0.00137152
8.86065e-05
-0.00113333
-0.00011564
-0.00090329
-0.00019941
-0.000698239
-0.000191542
-0.000531096
-0.000117995
-0.000384324
0.0699139
-0.000548262
0.0896596
-0.000728435
0.0871656
-0.000336934
0.0780962
-0.000701026
0.0557286
-0.00354299
0.0256414
-0.00677932
0.000156817
-0.0096038
-0.0236703
-0.012039
-0.0499714
-0.0179475
-0.0725911
-0.0181108
-0.0858328
-0.0124212
-0.086638
-0.00213628
-0.07615
0.00918876
-0.0582323
0.0195889
-0.0356578
0.029622
-0.0139448
0.0342453
0.00387663
0.0311946
0.0125889
0.0202683
0.0128111
0.00959338
0.0105899
0.00410895
0.00865826
0.00130244
0.00678365
-0.000549475
0.00503156
-0.0015924
0.00351419
-0.00206934
0.00227152
-0.00215707
0.00130366
-0.00200582
0.000596618
-0.00172817
0.000122394
-0.0014053
-0.000158457
-0.00109051
-0.000287911
-0.000814789
-0.00030523
-0.000584552
-0.000245169
-0.000403922
-0.000135404
-0.000248921
0.0715619
-0.000334682
0.0896319
-0.000520549
0.0866636
-0.000226376
0.0779357
-0.000176477
0.0569693
-0.00194173
0.0262753
-0.00417685
0.000257533
-0.00688003
-0.0237037
-0.00957033
-0.0502092
-0.0118011
-0.0766738
-0.0138648
-0.093413
-0.0105307
-0.0962113
-0.00284787
-0.0863316
0.00804534
-0.0677979
0.0187543
-0.0442905
0.0282217
-0.0197903
0.0354676
0.00158808
0.0365338
0.0154697
0.0283138
0.0183119
0.0147675
0.0147755
0.00540783
0.0114126
0.00135461
0.00886505
-0.000778951
0.00657019
-0.0020881
0.00459422
-0.00267243
0.00297863
-0.00277645
0.00172118
-0.00257459
0.00079541
-0.00220461
0.000168289
-0.00177406
-0.000210925
-0.00135284
-0.00039688
-0.000981546
-0.000441266
-0.000678753
-0.00039055
-0.000439172
-0.000282153
-0.000257173
-0.000143437
-0.000105484
0.0731748
-0.000322792
0.089502
-0.000204796
0.086026
0.000117046
0.077262
0.000447314
0.0572811
-0.000488323
0.0261707
-0.00183711
-9.28695e-05
-0.00382645
-0.023378
-0.00720579
-0.0505818
-0.0091978
-0.0770206
-0.0114543
-0.0988439
-0.00843387
-0.105454
-0.00128843
-0.0966541
0.00747458
-0.0773481
0.0175956
-0.0526139
0.0270777
-0.0263684
0.0347997
-0.00191017
0.0389659
0.0168429
0.0351606
0.0244125
0.0222132
0.0211568
0.00838612
0.0153434
0.00147707
0.0114989
-0.00127925
0.00853733
-0.0027461
0.00597539
-0.00346928
0.00389496
-0.00358876
0.00226448
-0.00331975
0.001058
-0.00283718
0.000231815
-0.00226814
-0.000275547
-0.00170944
-0.000533566
-0.00121615
-0.000609658
-0.000813154
-0.000565248
-0.000504055
-0.000449374
-0.000271951
-0.000299336
-0.000101274
-0.000141831
3.63463e-05
0.0741481
-2.2097e-05
0.0890868
9.23804e-05
0.0850153
0.000805879
0.0759797
0.00139934
0.0567338
0.000994603
0.0250198
0.00066253
-0.00120891
-0.000721073
-0.0223442
-0.00486023
-0.0512372
-0.00655037
-0.0771061
-0.00911229
-0.0993752
-0.010923
-0.11097
-0.00291759
-0.104432
0.0064893
-0.0862029
0.0163294
-0.0605265
0.0255082
-0.0325552
0.0332645
-0.00594838
0.0388379
0.0166323
0.0391765
0.0297921
0.0297809
0.02939
0.0139801
0.0214397
0.00228973
0.0149689
-0.00199297
0.0109686
-0.00371049
0.00773951
-0.00451021
0.00506519
-0.00463951
0.00297278
-0.00429706
0.00140545
-0.00366721
0.000320981
-0.00292634
-0.000354562
-0.00218912
-0.000706958
-0.00153605
-0.000822647
-0.00100316
-0.000782208
-0.000596195
-0.000650957
-0.000302472
-0.000476627
-9.46609e-05
-0.000295824
5.27184e-05
-0.000130504
0.00016685
0.073142
0.00046204
0.0865117
0.00255308
0.0833132
0.00179448
0.0739799
0.0028057
0.0552511
0.00288207
0.0226512
0.00336319
-0.00256196
0.00201558
-0.0207382
-0.00232701
-0.0522689
-0.0038285
-0.077379
-0.00627749
-0.0996264
-0.00886113
-0.112405
-0.00948793
-0.110377
0.0030272
-0.0929167
0.0132031
-0.0675746
0.0233775
-0.0381236
0.0310765
-0.00979159
0.0371077
0.0153462
0.0401241
0.0335741
0.0353945
0.0382614
0.0209096
0.0301805
0.0052393
0.0200609
-0.00280218
0.0140013
-0.00502566
0.00990191
-0.00587289
0.00656192
-0.00600695
0.00388699
-0.00555372
0.00186681
-0.00475842
0.000447775
-0.003794
-0.000449628
-0.00283128
-0.000927713
-0.00196837
-0.00109544
-0.00126326
-0.00105816
-0.000727214
-0.00090187
-0.000345282
-0.000690761
-8.83388e-05
-0.000470825
8.03399e-05
-0.000271686
0.0001939
-0.00011019
0.000277039
0.0704837
0.00010484
0.0819858
0.00498788
0.0791584
0.00670787
0.0711974
0.00457696
0.0527553
0.00530147
0.0198221
0.0057112
-0.00346662
0.00426785
-0.0193309
0.000608216
-0.0535027
-0.00109317
-0.0779418
-0.00326569
-0.0998802
-0.00602371
-0.113768
-0.00749792
-0.114038
-0.0058265
-0.100389
0.0104995
-0.0745217
0.0201502
-0.0430143
0.0282682
-0.0130848
0.0343698
0.0137133
0.0387405
0.035648
0.0380502
0.0462943
0.0273615
0.041
0.01009
0.0277935
-0.00249334
0.0179984
-0.00679935
0.0125513
-0.0076751
0.00841245
-0.00772342
0.00506554
-0.0071855
0.00247879
-0.0061657
0.000629888
-0.00494053
-0.000560218
-0.00368341
-0.0012082
-0.00255079
-0.00144744
-0.00161637
-0.00141419
-0.00090722
-0.00122225
-0.000406838
-0.000957737
-7.83061e-05
-0.000682308
0.000123144
-0.000432017
0.00024067
-0.000228792
0.000312502
-8.22051e-05
0.000359244
0.065781
0.000377495
0.0759659
0.00612474
0.0740955
0.0100508
0.0661113
0.011794
0.0496401
0.00769221
0.017751
0.00737261
-0.00386355
0.00610813
-0.0189468
0.00388381
-0.0544964
0.00160186
-0.0788074
-0.000227612
-0.10017
-0.00297587
-0.114624
-0.00516735
-0.116803
-0.00473267
-0.105327
-0.000888645
-0.0812438
0.0172216
-0.0475203
0.0246562
-0.0155242
0.0307076
0.0122128
0.0358702
0.0365864
0.0378021
0.0525366
0.0318079
0.0524984
0.0158632
0.0383943
-0.000510718
0.0239926
-0.00848749
0.0157219
-0.00996994
0.0106897
-0.00995235
0.00656092
-0.0092188
0.00328972
-0.00799643
0.000895683
-0.00643149
-0.000682623
-0.00481813
-0.00156171
-0.00332991
-0.00190218
-0.00209605
-0.00187667
-0.00115389
-0.00163745
-0.00049202
-0.0012996
-6.49721e-05
-0.000946196
0.000185581
-0.000625596
0.000316723
-0.000363172
0.000375049
-0.000170017
0.000400314
-4.88512e-05
0.000408095
0.0595167
0.00117524
0.0689286
0.00741482
0.067591
0.0126293
0.0606897
0.0154724
0.0447155
0.0167186
0.0166301
0.0088131
-0.00434051
0.00784956
-0.0201356
0.00729688
-0.0550991
0.00448649
-0.079863
0.00265746
-0.100437
3.90196e-05
-0.115041
-0.00255893
-0.118502
-0.00346849
-0.10859
-0.00146912
-0.0859202
0.00378779
-0.051811
0.0215123
-0.0169623
0.0260943
0.0110116
0.0319089
0.0368741
0.0355825
0.0569628
0.0333759
0.0631518
0.0211545
0.0512568
0.00300067
0.0327009
-0.00921902
0.0200428
-0.0128083
0.013349
-0.0126293
0.00844233
-0.0118338
0.00437143
-0.0103005
0.00128519
-0.00838593
-0.000803063
-0.00631105
-0.00200214
-0.0043777
-0.00248856
-0.00274352
-0.00248125
-0.00149147
-0.00218119
-0.000610147
-0.00174433
-4.72931e-05
-0.00128462
0.000273449
-0.000867023
0.000427008
-0.000524963
0.000478514
-0.000268924
0.000473956
-0.000100151
0.000451613
-1.25768e-05
0.000420671
0.0529144
0.00217169
0.0613679
0.00873596
0.0603752
0.0146306
0.0543818
0.0189372
0.0397024
0.0204855
0.0164302
0.0169185
-0.0053899
0.00986249
-0.0227842
0.0104982
-0.0554152
0.00761298
-0.0808222
0.00544571
-0.100877
0.00309778
-0.115122
0.000119444
-0.119185
-0.00187648
-0.110553
-0.00150586
-0.0894321
0.00204275
-0.0562959
0.00827266
-0.0158201
0.0203701
0.00979287
0.027313
0.0367383
0.0320447
0.0598931
0.0326522
0.0719666
0.0245611
0.065065
0.00734629
0.0443166
-0.00861505
0.0263557
-0.0155319
0.0166296
-0.0160889
0.0107446
-0.0149316
0.00580357
-0.0132659
0.00187691
-0.0108922
-0.000894751
-0.00829425
-0.00253741
-0.00577578
-0.00324141
-0.00362485
-0.00327268
-0.0019521
-0.00289797
-0.000774693
-0.00232944
-2.50385e-05
-0.00172581
0.000393902
-0.00117658
0.000583005
-0.00072621
0.000628254
-0.000387249
0.000596838
-0.000157004
0.000530809
-2.42985e-05
0.000463334
2.39404e-05
0.00039673
0.045042
0.00166758
0.0535343
0.0100053
0.0526536
0.0164576
0.0474372
0.0215752
0.0348027
0.0238369
0.0151461
0.0217695
-0.00670082
0.0182295
-0.0262101
0.0132885
-0.0558636
0.0109466
-0.0814097
0.00820051
-0.10115
0.00571877
-0.11486
0.0028362
-0.119138
7.27394e-05
-0.11133
-0.00109958
-0.0915071
0.000569092
-0.0598864
0.00563325
-0.0171882
0.0096408
0.00826113
0.0219018
0.0357823
0.028269
0.0619011
0.0300368
0.0787702
0.0258487
0.0780843
0.0115417
0.0584009
-0.00673796
0.0350643
-0.0173237
0.020935
-0.0198373
0.0134693
-0.0188136
0.00770114
-0.0168291
0.00276022
-0.0141492
-0.000889698
-0.0108973
-0.00316441
-0.00766725
-0.00419671
-0.00482048
-0.00430807
-0.00258945
-0.00384524
-0.00100482
-0.00310554
1.41003e-06
-0.00230814
0.000557288
-0.00158027
0.000797588
-0.000983567
0.000840362
-0.000533434
0.000774439
-0.000223846
0.00066368
-3.56597e-05
0.00054217
5.19336e-05
0.00043534
5.80188e-05
0.00033871
0.0375573
0.00189489
0.0435712
0.0116307
0.0445571
0.0181018
0.039967
0.0239277
0.0293201
0.0270578
0.0123178
0.0266652
-0.00861411
0.0236828
-0.0297046
0.0217239
-0.0566748
0.0140997
-0.081682
0.0112189
-0.101203
0.00825351
-0.114442
0.00530019
-0.118359
0.00205738
-0.11105
-0.000206781
-0.0920522
-0.000554461
-0.0625376
0.0032203
-0.0188212
0.00726625
0.00508721
0.0128147
0.0338874
0.0237967
0.0630825
0.0270876
0.0840078
0.0247991
0.0894968
0.0144363
0.0734964
-0.00355381
0.0464851
-0.0181587
0.0267538
-0.0231425
0.01667
-0.023038
0.00999
-0.0211024
0.00404931
-0.0181182
-0.000722128
-0.0143168
-0.00385161
-0.0102101
-0.00538775
-0.00647621
-0.00565523
-0.00347333
-0.00510376
-0.00133093
-0.00414131
3.09427e-05
-0.00308379
0.000777063
-0.00211363
0.00109065
-0.0013184
0.00113242
-0.00071904
0.00102597
-0.000304844
0.000855436
-4.6939e-05
0.000674958
8.60651e-05
0.000508038
0.000122948
0.00037041
8.72548e-05
0.000251455
0.0287322
0.00528995
0.0334922
0.0119739
0.0354954
0.0206924
0.0320058
0.0260631
0.0231941
0.0300538
0.0085216
0.030854
-0.0107165
0.0287676
-0.0320517
0.0260299
-0.0562197
0.0212687
-0.0819827
0.0144004
-0.101272
0.0112878
-0.113801
0.00761253
-0.117197
0.00413772
-0.109778
0.000785375
-0.0912787
-0.000980265
-0.0635527
0.000460648
-0.0206778
0.00507689
0.00269157
0.00966188
0.0293205
0.0173816
0.0638534
0.0230257
0.0881923
0.0229031
0.0986916
0.0156043
0.0885025
-0.000569879
0.0603806
-0.0174493
0.0345694
-0.0259744
0.0206523
-0.0271248
0.0126511
-0.0256991
0.00570754
-0.0227606
-0.000343895
-0.0184965
-0.00461157
-0.0135568
-0.00685388
-0.00874397
-0.00739618
-0.00473526
-0.00677122
-0.00180587
-0.00553021
5.7975e-05
-0.00412445
0.0010716
-0.00282511
0.00148854
-0.00175991
0.00153215
-0.000958811
0.00137219
-0.000405531
0.00112665
-5.77622e-05
0.000866259
0.000130144
0.000630878
0.000199182
0.000431803
0.000183756
0.000273908
0.000109688
0.000141766
0.0207715
0.00625104
0.0245265
0.0142557
0.0256736
0.0217957
0.0242779
0.0284202
0.0165594
0.0326978
0.00406162
0.0345138
-0.0132826
0.03342
-0.0335671
0.030283
-0.0560377
0.0258479
-0.0799167
0.0192027
-0.1011
0.0142285
-0.11297
0.0104568
-0.115866
0.00628225
-0.107569
0.00192859
-0.0891812
-0.00131208
-0.0623629
-0.00217002
-0.0230576
0.00284045
0.00105728
0.00671118
0.025049
0.0139334
0.0614537
0.0197813
0.0909665
0.0202515
0.106647
0.0149482
0.101604
0.00250275
0.0756452
-0.0158345
0.0447549
-0.0276347
0.0256451
-0.0309671
0.0157839
-0.0302576
0.00777185
-0.0277634
0.000275419
-0.02338
-0.00547704
-0.017631
-0.00872983
-0.0116809
-0.00967324
-0.00646691
-0.00898689
-0.00251959
-0.0073955
5.94166e-05
-0.00552948
0.00146301
-0.00378195
0.00202844
-0.00234775
0.00207638
-0.00127265
0.00184599
-0.000532783
0.00149944
-6.73042e-05
0.0011362
0.000188917
0.000807486
0.000294237
0.000535823
0.00029572
0.000319839
0.000230346
0.00015325
0.000123733
1.80319e-05
0.0146277
0.00588352
0.0172487
0.0135288
0.0182483
0.0216809
0.01692
0.0291536
0.0104376
0.034542
-0.00059
0.0373494
-0.0160074
0.0372386
-0.0346989
0.0345518
-0.0554629
0.0297083
-0.0771039
0.0230352
-0.0971136
0.0152163
-0.111028
0.0122873
-0.112825
0.00741514
-0.103851
0.00256415
-0.0853612
-0.00189146
-0.0594812
-0.00419386
-0.0252324
4.7377e-06
-5.4427e-05
0.00395215
0.0218063
0.0099539
0.0595675
0.0158197
0.0894145
0.0213333
0.112139
0.0147593
0.113441
0.00311084
0.0909855
-0.0128375
0.0568497
-0.0279293
0.0319658
-0.0339554
0.019324
-0.0345072
0.010325
-0.0328108
0.00133461
-0.0288226
-0.00631396
-0.022543
-0.0110887
-0.0152721
-0.0127458
-0.00860828
-0.0120097
-0.00344411
-0.00992686
1.17674e-05
-0.00743587
0.0019658
-0.00507763
0.00275868
-0.00313702
0.00281771
-0.00168729
0.00249102
-0.000695408
0.00200862
-7.41714e-05
0.00150631
0.000269283
0.00105583
0.000416682
0.00068504
0.000433732
0.000397811
0.000369322
0.000180862
0.000259346
1.7636e-05
0.000128678
-0.000110647
0.0104691
0.00505728
0.0118238
0.0113085
0.0124646
0.0193125
0.0109173
0.0276836
0.00528978
0.0343014
-0.00450628
0.0384583
-0.0181675
0.0395095
-0.0350748
0.0376145
-0.053938
0.0330269
-0.0734102
0.0260146
-0.0911639
0.0170855
-0.10375
0.00793769
-0.107632
0.00709442
-0.0978727
0.00143657
-0.0794619
-0.00333516
-0.0553206
-0.00605203
-0.0261869
-0.00323933
-0.000812109
0.00076242
0.0203343
0.00542413
0.0579688
0.0115526
0.0880692
0.017165
0.112001
0.0214714
0.123091
0.00510948
0.104889
-0.0107932
0.0705048
-0.0264926
0.039587
-0.0355506
0.0232217
-0.0378532
0.0131291
-0.0373113
0.00294713
-0.0344233
-0.00673808
-0.0283985
-0.0136242
-0.0200075
-0.016638
-0.01138
-0.0161766
-0.00444141
-0.0134632
9.22732e-05
-0.0100653
0.00264125
-0.00684703
0.00373521
-0.0042044
0.00382606
-0.00223925
0.00336968
-0.000904738
0.00270035
-7.55883e-05
0.00201003
0.000380439
0.00139515
0.000578667
0.000893843
0.000609361
0.00050941
0.000539466
0.000227666
0.000414702
2.55048e-05
0.000269322
-0.000123008
0.000124887
-0.000235535
0.00771329
0.00394215
0.00837015
0.00851093
0.00848874
0.0152843
0.00676336
0.0234664
0.00189899
0.0310744
-0.00675684
0.036552
-0.018813
0.0391038
-0.0338426
0.0382772
-0.050711
0.0343876
-0.0678462
0.0274629
-0.0835176
0.0183683
-0.0942117
0.00754734
-0.0970883
-0.00260574
-0.0902517
-0.000526552
-0.0724932
-0.00553212
-0.0504622
-0.00819355
-0.0256096
-0.00662934
-0.00122913
-0.00282231
0.0202167
0.000880081
0.0563541
0.00703884
0.0864805
0.0131412
0.111607
0.0175584
0.125561
0.0190012
0.118994
-0.00899521
0.0835133
-0.0238016
0.0486377
-0.0355433
0.0274183
-0.0397472
0.015809
-0.0405331
0.00466692
-0.0390311
-0.00674653
-0.0344148
-0.0159415
-0.0260813
-0.0208634
-0.0157821
-0.0214031
-0.00615339
-0.0183736
0.000468924
-0.0137777
0.00380458
-0.0093054
0.00509962
-0.00566544
0.00519624
-0.00297925
0.00456607
-0.00117499
0.00363993
-6.69817e-05
0.00269174
0.000535908
0.00185456
0.000796014
0.00117781
0.000838793
0.00066441
0.000754379
0.000294496
0.000603885
3.84823e-05
0.000429851
-0.000135025
0.00026011
-0.000258232
0.000113977
-0.000349513
0.00574864
0.00277938
0.00622341
0.00608888
0.00609165
0.010908
0.00447396
0.0175737
0.000412891
0.0249525
-0.0068735
0.0311911
-0.0173012
0.0350402
-0.0303552
0.0356164
-0.0450656
0.0326318
-0.0598703
0.0264117
-0.0732893
0.0172346
-0.0825062
0.00666274
-0.0849775
-0.00456351
-0.0791852
-0.0136722
-0.065353
-0.00766674
-0.0455894
-0.0104049
-0.0241305
-0.00967266
-0.00174435
-0.00611412
0.0204441
-0.00304973
0.0543922
0.00284195
0.084654
0.00886542
0.110944
0.0138042
0.12698
0.0161394
0.125504
0.0124917
0.0961833
-0.0216653
0.058107
-0.0332709
0.0319099
-0.040035
0.0181412
-0.0420793
0.00605609
-0.0419223
-0.00709236
-0.0386852
-0.0183695
-0.0319868
-0.0253806
-0.021564
-0.0272378
-0.00994738
-0.0245003
-2.67133e-05
-0.0188448
0.00553608
-0.0127415
0.00724067
-0.00768961
0.00712379
-0.00398612
0.00620311
-0.00152527
0.00491635
-3.96754e-05
0.00361262
0.000754745
0.0024729
0.00109109
0.00155949
0.00114281
0.000873793
0.00103284
0.000385945
0.000841551
5.68294e-05
0.00062424
-0.000155908
0.000414475
-0.000289391
0.000233223
-0.000377479
9.14705e-05
-0.000440985
0.00428064
0.00182864
0.00470798
0.00429481
0.0046236
0.00755693
0.00335001
0.012032
0.000260606
0.017726
-0.00540603
0.023485
-0.0138934
0.0277833
-0.0247564
0.0294414
-0.0371741
0.0277249
-0.0496602
0.0224217
-0.0608379
0.0139602
-0.0686685
0.0033969
-0.0709425
-0.00737221
-0.0670266
-0.0167221
-0.0567702
-0.022255
-0.0409861
-0.01227
-0.0223944
-0.012141
-0.00206468
-0.00935232
0.0209047
-0.00657478
0.0525785
-0.00123603
0.0830491
0.00444684
0.110048
0.00976127
0.127975
0.0128097
0.129072
0.0125707
0.107513
0.00116238
0.0666987
-0.030257
0.0368731
-0.038234
0.0198094
-0.0417032
0.00690909
-0.0429323
-0.00800163
-0.041013
-0.0218481
-0.0352066
-0.0309096
-0.0264579
-0.0341395
-0.0146623
-0.0318323
-0.00261535
-0.0252438
0.00637227
-0.0173572
0.0101518
-0.0104442
0.00999523
-0.00535561
0.00849328
-0.0019857
0.00666354
1.96685e-05
0.00485701
0.00106603
0.00330134
0.00149455
0.00206944
0.00155006
0.00115223
0.00139872
0.000507916
0.00114749
8.0001e-05
0.000867443
-0.000186374
0.000600217
-0.000341651
0.000369319
-0.000425488
0.000184877
-0.000470887
6.2252e-05
-0.000503238
0.00318577
0.00116395
0.00354422
0.0029924
0.00355981
0.00535861
0.00268733
0.00821962
0.000513155
0.0117794
-0.00352252
0.0158425
-0.00983168
0.0194233
-0.0182764
0.0213033
-0.0281881
0.0204554
-0.0383768
0.0164415
-0.047347
0.00893088
-0.0542912
-0.00041706
-0.056559
-0.0109866
-0.0542834
-0.0201154
-0.0476687
-0.0258236