/*--------------------------------*- C++ -*----------------------------------*\
| =========                 |                                                 |
| \\      /  F ield         | OpenFOAM: The Open Source CFD Toolbox           |
|  \\    /   O peration     | Version:  2506                                  |
|   \\  /    A nd           | Website:  www.openfoam.com                      |
|    \\/     M anipulation  |                                                 |
\*---------------------------------------------------------------------------*/
FoamFile
{
    version     2.0;
    format      ascii;
    arch        "LSB;label=32;scalar=64";
    class       volScalarField;
    location    "99.978303268757969";
    object      p;
}
// * * * * * * * * * * * * * * * * * * * * * * * * * * * * * * * * * * * * * //

dimensions      [0 2 -2 0 0 0 0];

internalField   nonuniform List<scalar> 
9700
(
0.00102251
0.0010287
0.00219698
0.00102586
0.00221027
0.00401861
0.0010384
0.00220973
0.00403397
0.00564517
0.00104307
0.00223231
0.0040342
0.00566207
0.00732628
0.0010593
0.0022466
0.00406295
0.0056638
0.00734404
0.00897663
0.00107507
0.00228108
0.00408298
0.00569438
0.00734747
0.00899509
0.0106231
0.00110091
0.00232107
0.00412705
0.00571694
0.00737972
0.00900005
0.0106424
0.0122554
0.00113403
0.00238434
0.00417831
0.00576307
0.00740452
0.00903302
0.0106493
0.012276
0.0138763
0.00118231
0.00247148
0.00425704
0.00581648
0.00745151
0.00905859
0.0106835
0.0122855
0.0138988
0.0154824
0.00124975
0.00259946
0.00436422
0.00589661
0.00750428
0.00910367
0.0107104
0.0123221
0.0139121
0.0155079
0.0170713
0.00134875
0.00278116
0.00451995
0.00600442
0.00758004
0.00915119
0.0107538
0.0123515
0.013953
0.0155264
0.0171007
0.0186399
0.0014948
0.00304434
0.00474146
0.00615976
0.00767783
0.009215
0.0107955
0.0123948
0.0139876
0.0155743
0.017126
0.0186743
0.0201846
0.00171368
0.00342149
0.00506202
0.00637909
0.00781411
0.00929069
0.0108455
0.0124324
0.0140346
0.0156177
0.0171838
0.018708
0.020225
0.0217005
0.00206038
0.00396064
0.00552069
0.00669481
0.00800038
0.00938885
0.0108946
0.01247
0.0140729
0.0156736
0.0172404
0.0187789
0.0202686
0.0217475
0.0231823
0.00265027
0.00470991
0.00617576
0.00714346
0.00826255
0.00951255
0.010946
0.0124935
0.0141044
0.0157199
0.0173116
0.018853
0.0203552
0.0218021
0.0232363
0.0246257
0.00367364
0.00572686
0.00709559
0.00777653
0.00862552
0.00967563
0.010992
0.0124976
0.0141103
0.0157553
0.0173749
0.0189462
0.020451
0.0219066
0.0233025
0.0246866
0.0260257
0.00537248
0.00711362
0.00836471
0.00864959
0.00912593
0.00988307
0.0110297
0.012463
0.0140773
0.0157576
0.0174271
0.0190361
0.0205725
0.0220274
0.0234261
0.0247645
0.026093
0.0273777
0.0079132
0.00897461
0.0100645
0.00982082
0.00979675
0.0101474
0.0110409
0.0123678
0.0139746
0.0157066
0.017444
0.0191192
0.0206983
0.0221821
0.0235737
0.0249073
0.0261819
0.0274505
0.028679
0.0107539
0.0112743
0.0121917
0.0113235
0.0106639
0.0104605
0.0110041
0.0121689
0.0137617
0.0155626
0.0174014
0.0191711
0.0208257
0.0223513
0.0237648
0.0250821
0.0263428
0.0275492
0.028756
0.0299266
0.0129634
0.0136767
0.0146643
0.0131145
0.0117008
0.010792
0.0108585
0.011804
0.01337
0.0152696
0.017254
0.0191663
0.0209323
0.0225344
0.0239823
0.0253105
0.0265435
0.0277259
0.0288626
0.0300064
0.031119
0.0138815
0.01565
0.0172189
0.0150602
0.0127949
0.0110234
0.0104921
0.0111575
0.0126961
0.0147366
0.0169362
0.0190584
0.0209942
0.0227124
0.0242285
0.0255779
0.0268075
0.0279496
0.0290519
0.0301186
0.0311998
0.0322564
0.0132034
0.0175378
0.0194035
0.0168781
0.013725
0.010937
0.00963912
0.00999553
0.0115682
0.0138263
0.016344
0.0187788
0.0209681
0.0228654
0.0244894
0.0258903
0.0271232
0.0282452
0.0292942
0.0303164
0.031315
0.0323362
0.0333397
0.0116854
0.0183183
0.0215239
0.0182985
0.0142724
0.0102452
0.00794112
0.00788175
0.00957916
0.0122974
0.0153231
0.018221
0.020788
0.0229573
0.0247507
0.026239
0.0274997
0.0286039
0.0296152
0.0305716
0.0315167
0.0324518
0.033417
0.0343708
0.00968404
0.0176518
0.0222035
0.0191537
0.0142212
0.00883427
0.00507658
0.00431907
0.00617268
0.00956357
0.0135778
0.0172277
0.0203536
0.0229302
0.0249863
0.0266164
0.0279342
0.0290379
0.0300089
0.0309103
0.0317786
0.0326526
0.03353
0.0344438
0.0353523
0.00714683
0.0161996
0.0203075
0.0188866
0.0133759
0.00659627
0.00110686
-0.00112695
0.000663289
0.00484503
0.0104327
0.0154866
0.0195113
0.0226976
0.0251503
0.0270077
0.0284255
0.0295497
0.0304896
0.0313287
0.0321261
0.0329143
0.0337252
0.0345518
0.0354197
0.0362884
0.00474757
0.0127596
0.0173436
0.0166726
0.0115255
0.0036669
-0.00392421
-0.00817319
-0.00742087
-0.00311303
0.00481493
0.0123132
0.0179534
0.0221204
0.0251764
0.0273803
0.0289702
0.0301434
0.0310647
0.0318423
0.0325572
0.0332614
0.03398
0.0347369
0.0355205
0.0363492
0.0371832
0.00219674
0.00910831
0.012502
0.0129078
0.0084905
3.20359e-05
-0.00953012
-0.0164773
-0.0177189
-0.0135667
-0.00467085
0.00655213
0.0149741
0.0209186
0.0249495
0.0276906
0.0295481
0.0308266
0.031742
0.0324623
0.0330882
0.0336927
0.0343173
0.0349787
0.0356916
0.0364409
0.037237
0.0380413
-0.000566741
0.00462067
0.00763118
0.00792902
0.00420915
-0.00406978
-0.015365
-0.0251452
-0.0295382
-0.0261994
-0.0173334
-0.00234458
0.00940644
0.0184195
0.0242437
0.0278492
0.0301378
0.0315883
0.0325382
0.033199
0.0337323
0.0342243
0.0347363
0.0352975
0.035915
0.0365953
0.0373183
0.038088
0.0388678
-0.00355896
-0.00047497
0.00165439
0.00325904
-0.000324549
-0.0085473
-0.0205729
-0.0334755
-0.0414353
-0.0411767
-0.0318252
-0.015269
0.000703107
0.0135141
0.0225038
0.0276891
0.0306716
0.0324275
0.0334488
0.0340761
0.034501
0.0348705
0.0352522
0.0356926
0.036208
0.036796
0.037454
0.0381582
0.0389077
0.0396679
-0.00648989
-0.00603437
-0.00489431
-0.00262379
-0.0041298
-0.0119145
-0.0251182
-0.0399701
-0.0524504
-0.0560768
-0.0491348
-0.0328721
-0.0120626
0.0051208
0.0188171
0.0267915
0.0310365
0.0332926
0.0344896
0.0350917
0.0354226
0.0356426
0.0358786
0.0361774
0.036569
0.0370572
0.0376291
0.0382746
0.038967
0.0397017
0.0404458
-0.00953354
-0.0116118
-0.0118278
-0.00897909
-0.00886712
-0.0141921
-0.0269731
-0.0447219
-0.060457
-0.0697987
-0.0665348
-0.0517939
-0.0296528
-0.0074559
0.0121597
0.0244311
0.0309342
0.0341136
0.0356185
0.0362756
0.0364953
0.036571
0.0366262
0.0367635
0.0370093
0.0373761
0.0378547
0.0384228
0.0390645
0.0397508
0.0404742
0.0412048
-0.0122965
-0.0172332
-0.0188163
-0.015511
-0.0139015
-0.0167151
-0.0274557
-0.0450861
-0.0655898
-0.0794424
-0.0827871
-0.0709457
-0.0488422
-0.0224448
0.00176809
0.0196681
0.0298393
0.034679
0.0367961
0.0375889
0.0377596
0.0376525
0.0375241
0.0374605
0.0375374
0.0377611
0.0381259
0.0386109
0.0391863
0.0398309
0.0405146
0.0412291
0.0419482
-0.0147453
-0.0222052
-0.0254237
-0.0218751
-0.018825
-0.0190099
-0.0273761
-0.0442021
-0.0643948
-0.0850932
-0.093687
-0.0889293
-0.0685905
-0.0404955
-0.0116377
0.0118076
0.0269553
0.0346384
0.0378623
0.0390127
0.0391741
0.0389338
0.038568
0.0382931
0.0381606
0.0382167
0.0384482
0.0388321
0.0393375
0.0399282
0.04058
0.0412628
0.0419699
0.0426774
-0.0166335
-0.026224
-0.0311899
-0.0275871
-0.0232289
-0.0207565
-0.0266194
-0.0417741
-0.0617079
-0.0829321
-0.100803
-0.100315
-0.0867625
-0.0595337
-0.0277827
0.000874776
0.0215817
0.033389
0.0385824
0.040415
0.0407374
0.0403674
0.0398045
0.0392564
0.0388973
0.0387471
0.0388211
0.0390879
0.039509
0.0400456
0.0406565
0.041317
0.0419991
0.0426981
0.0433928
-0.0177573
-0.0292479
-0.0356672
-0.0321104
-0.026541
-0.0219954
-0.0250022
-0.0380831
-0.0564986
-0.0789727
-0.0984116
-0.110012
-0.0991561
-0.0770709
-0.0451735
-0.0127018
0.0134657
0.0302531
0.0385399
0.0416066
0.0423347
0.0419708
0.0411806
0.0403904
0.0397417
0.0393624
0.0392447
0.039373
0.039699
0.0401713
0.040745
0.0413775
0.0420461
0.0427253
0.0434142
0.0440941
-0.0179797
-0.0307661
-0.0388813
-0.0351134
-0.0284564
-0.0224456
-0.0226937
-0.0333665
-0.0496206
-0.071553
-0.0933975
-0.108062
-0.110104
-0.0902414
-0.061446
-0.0278217
0.00268993
0.0247523
0.0371273
0.0422986
0.0437532
0.0436327
0.0427285
0.0416418
0.0407213
0.0400548
0.03972
0.0396822
0.0398965
0.0403002
0.0408318
0.041444
0.0420964
0.0427696
0.0434416
0.0441175
0.0447798
-0.0168312
-0.0285328
-0.0402961
-0.0363053
-0.0289839
-0.0219447
-0.0200182
-0.0272682
-0.0413695
-0.062055
-0.0846968
-0.102453
-0.108799
-0.101299
-0.0747562
-0.0425625
-0.00995755
0.0166772
0.0337783
0.0419899
0.0448106
0.0450983
0.04432
0.0430441
0.041787
0.0408362
0.0402345
0.0400067
0.0400908
0.0404162
0.0409085
0.0415011
0.0421491
0.0428158
0.0434875
0.0441474
0.0448065
0.0454476
-0.014051
-0.0245743
-0.0353149
-0.0356949
-0.0277505
-0.0203325
-0.0169296
-0.0199874
-0.0318899
-0.050878
-0.0734254
-0.0935427
-0.104418
-0.101122
-0.085851
-0.0557902
-0.0232895
0.00640032
0.028025
0.0401464
0.0450397
0.0463944
0.0457213
0.0444445
0.0429573
0.0416607
0.0407831
0.0403265
0.0402624
0.0405024
0.0409547
0.0415383
0.0421879
0.0428636
0.0435357
0.0441986
0.0448405
0.0454783
0.0460946
-0.00995509
-0.0183846
-0.0282926
-0.0295842
-0.0245657
-0.0173225
-0.0125472
-0.0121284
-0.0214568
-0.0383577
-0.0600915
-0.0815919
-0.0963666
-0.0990477
-0.0874398
-0.0668704
-0.0366119
-0.00563618
0.0198033
0.0361168
0.0439845
0.0467695
0.0470461
0.0457052
0.0440779
0.0425209
0.0413175
0.0406184
0.0403821
0.0405294
0.0409476
0.0415315
0.0422008
0.0428962
0.0435874
0.0442544
0.0449004
0.0455178
0.0461296
0.0467181
-0.00521294
-0.0109419
-0.0191642
-0.0211619
-0.0175397
-0.0123822
-0.00655334
-0.00360843
-0.0105344
-0.0250277
-0.0453231
-0.0672021
-0.0849366
-0.0927529
-0.0876168
-0.0706822
-0.0483601
-0.0188788
0.00892643
0.0294307
0.0410083
0.0457704
0.0473568
0.0466896
0.0450627
0.0432735
0.0418005
0.0408247
0.0404069
0.0404566
0.0408486
0.0414532
0.0421618
0.0429018
0.043626
0.0443179
0.0449682
0.0455883
0.0461752
0.0467573
0.0473153
-0.00150438
-0.00322636
-0.00913135
-0.0110499
-0.00863518
-0.00361372
0.00198716
0.00515913
0.000645441
-0.0114644
-0.0297839
-0.0512998
-0.0708271
-0.0830037
-0.0838893
-0.0729963
-0.0562173
-0.0305973
-0.00436471
0.0195151
0.0352034
0.0432312
0.0461174
0.046764
0.045586
0.0438137
0.0420922
0.0408751
0.0402628
0.0402207
0.0406057
0.0412572
0.0420403
0.0428536
0.0436409
0.0443735
0.0450499
0.0456713
0.0462574
0.0468091
0.0473582
0.0478836
0.00197987
0.00295472
0.000238394
-0.000478817
0.00143377
0.00671194
0.0120743
0.0159521
0.0114758
0.00197592
-0.0143155
-0.0346385
-0.0550353
-0.0703914
-0.0768524
-0.0723323
-0.0606695
-0.0414685
-0.0162169
0.00591785
0.0260367
0.0376473
0.0434677
0.0453857
0.0452515
0.0438182
0.0420444
0.0406163
0.0398415
0.039726
0.0401353
0.0408816
0.0417854
0.0427208
0.0436069
0.0444129
0.0451314
0.0457755
0.046357
0.0469029
0.0474156
0.0479295
0.0484217
0.00300685
0.0074175
0.00765059
0.00905691
0.011374
0.0163254
0.0223314
0.0262015
0.0249921
0.0145431
0.000636231
-0.0182992
-0.0385837
-0.0559201
-0.0669014
-0.0685765
-0.0620234
-0.0487736
-0.0299212
-0.00668925
0.0120889
0.028999
0.037555
0.0423378
0.0435494
0.0428935
0.0413371
0.0398444
0.0389578
0.0388208
0.0393166
0.0402244
0.0413285
0.0424511
0.0434947
0.0444143
0.0452076
0.0458889
0.0464858
0.0470189
0.0475197
0.0479914
0.0484693
0.0489285
0.00375287
0.00880432
0.0123756
0.0163123
0.0197873
0.0248308
0.0309966
0.0361706
0.0363826
0.0301262
0.0142813
-0.00252704
-0.0224456
-0.0407791
-0.0549111
-0.0621509
-0.060562
-0.0538996
-0.0390039
-0.0237875
-0.00161612
0.0146969
0.0293531
0.0362466
0.0399551
0.0405239
0.0395627
0.0382229
0.0373374
0.0372719
0.0379501
0.0391395
0.0405539
0.0419723
0.043255
0.0443519
0.0452613
0.0460102
0.0466338
0.0471719
0.0476505
0.0481036
0.0485342
0.0489767
0.0494038
0.00382984
0.00898714
0.0153801
0.0208565
0.0257334
0.031344
0.037674
0.0436296
0.0464614
0.0424533
0.0310978
0.011505
-0.00644066
-0.025512
-0.0419176
-0.0535317
-0.0568112
-0.0559074
-0.0472821
-0.0350428
-0.0211423
-0.000405825
0.0145515
0.0273133
0.0334594
0.0361801
0.0362218
0.0353042
0.0345987
0.034726
0.0357483
0.037379
0.0392941
0.0411657
0.0428178
0.0441834
0.0452722
0.0461274
0.0468037
0.0473539
0.0478251
0.0482462
0.0486517
0.0490428
0.0494512
0.0498486
0.00357162
0.00846761
0.015885
0.0227066
0.028888
0.0352597
0.0419677
0.0483689
0.0527944
0.0525874
0.0443523
0.0287451
0.0071895
-0.0104719
-0.0283125
-0.043489
-0.0517805
-0.0560107
-0.0540738
-0.0462057
-0.034072
-0.0209763
-0.00164022
0.0127438
0.0239688
0.0290679
0.0307764
0.0305903
0.0302025
0.0307053
0.0322722
0.034602
0.0372645
0.0398492
0.0420696
0.0438456
0.0452077
0.0462268
0.0469889
0.0475711
0.0480372
0.0484378
0.0488021
0.0491623
0.0495169
0.0498933
0.0502644
0.00321579
0.00764755
0.0150715
0.0223951
0.0295247
0.0365915
0.0436822
0.0505453
0.0559129
0.0579996
0.0545958
0.042722
0.024219
0.00199654
-0.0152128
-0.0325659
-0.0455708
-0.0549642
-0.0594749
-0.0561464
-0.0477195
-0.0350971
-0.0224506
-0.00420514
0.00968653
0.0189871
0.0226786
0.0235537
0.0236299
0.0245182
0.0268967
0.0302464
0.0340819
0.0377169
0.0408308
0.0432386
0.0450155
0.0462872
0.0471826
0.0478224
0.0482963
0.0486739
0.0490048
0.0493158
0.0496347
0.0499569
0.0503048
0.0506512
0.00286076
0.00688323
0.0137775
0.0209132
0.0283442
0.03582
0.043205
0.0503419
0.0564844
0.0604146
0.0596037
0.0531817
0.0385161
0.0180645
-0.0043521
-0.0218436
-0.038453
-0.0524159
-0.0627008
-0.0647557
-0.060547
-0.0507386
-0.0367604
-0.0252424
-0.00722464
0.0049527
0.0117139
0.0139347
0.0144219
0.0156188
0.0188093
0.0235069
0.0290765
0.0343312
0.0388171
0.0421965
0.044616
0.0462693
0.0473752
0.0481068
0.0486058
0.048966
0.0492567
0.049523
0.0497864
0.0500698
0.0503649
0.0506895
0.0510127
0.00255692
0.0062511
0.0124677
0.0190553
0.0262599
0.0337116
0.041175
0.0484222
0.0549352
0.060062
0.0620218
0.0583578
0.0491874
0.0323003
0.0100932
-0.0127843
-0.0310753
-0.0487377
-0.063755
-0.0715316
-0.0724268
-0.0658851
-0.0536817
-0.0391199
-0.0268018
-0.0115519
-0.00235355
0.00157574
0.00263804
0.00362119
0.00731355
0.0133832
0.0211301
0.0292719
0.0356428
0.040467
0.0438666
0.0461177
0.0475403
0.0484258
0.0489692
0.0493209
0.0495704
0.0497812
0.0499911
0.0502151
0.05047
0.0507435
0.0510499
0.0513553
0.00231436
0.00572325
0.0113028
0.017259
0.0239478
0.0310424
0.0382998
0.045474
0.0521524
0.0576165
0.06137
0.0608821
0.0550335
0.0431885
0.0240344
-0.000353828
-0.0241294
-0.0443027
-0.0633618
-0.0763286
-0.0825701
-0.080382
-0.0703934
-0.0559409
-0.0400263
-0.028439
-0.0185771
-0.0129536
-0.0117766
-0.0110149
-0.00800701
-0.00103903
0.00857564
0.0207033
0.0305381
0.0376811
0.0425604
0.0457183
0.0476471
0.0487635
0.0493975
0.0497455
0.0499551
0.0501038
0.0502461
0.0504105
0.0506044
0.0508386
0.0510956
0.0513864
0.0516786
0.00212088
0.00527637
0.0103052
0.0156728
0.0217586
0.0283191
0.0351732
0.0420709
0.0486811
0.0545203
0.0586958
0.0605216
0.05791
0.0498456
0.035149
0.0131994
-0.0139767
-0.0391757
-0.0615444
-0.0794451
-0.0905957
-0.09321
-0.0865309
-0.0728706
-0.0561228
-0.0401508
-0.0333389
-0.0291409
-0.027319
-0.0281842
-0.0261305
-0.0195621
-0.00896131
0.00712994
0.0219864
0.0329823
0.0403629
0.0449172
0.0476094
0.0491121
0.0498818
0.050258
0.0504192
0.0505007
0.0505646
0.0506532
0.0507846
0.0509584
0.0511791
0.051425
0.051705
0.0519864
0.00196689
0.00489974
0.00946389
0.0143123
0.0198175
0.0257953
0.0321363
0.0386321
0.0449954
0.050861
0.0556643
0.0584389
0.0582648
0.0535849
0.0427475
0.0246357
-0.000764085
-0.0312501
-0.0577322
-0.0807183
-0.0964263
-0.103755
-0.100968
-0.089261
-0.0723496
-0.0549068
-0.0432052
-0.0416115
-0.0440109
-0.0453573
-0.046643
-0.041089
-0.0296806
-0.0109985
0.00867152
0.0248259
0.036456
0.0434232
0.0473237
0.0494068
0.0504342
0.0508523
0.0509856
0.0509809
0.050956
0.0509551
0.0510066
0.0511185
0.0512821
0.0514961
0.0517363
0.0520085
0.0522813
0.00184237
0.00458811
0.00876125
0.0131615
0.0181436
0.023564
0.0293612
0.0353793
0.0413963
0.047095
0.05208
0.0556843
0.0569844
0.0548345
0.0475805
0.0334238
0.0112132
-0.018099
-0.0518642
-0.0782651
-0.099972
-0.111271
-0.112923
-0.103948
-0.0878415
-0.069761
-0.0553238
-0.0497161
-0.0542618
-0.0632978
-0.0660261
-0.0651812
-0.0534695
-0.0345675
-0.00896935
0.0119545
0.0294288
0.0405475
0.0465368
0.0495879
0.0510005
0.0515569
0.0516484
0.0515689
0.0514288
0.0513243
0.0512811
0.0513132
0.0514187
0.0515813
0.0517949
0.0520333
0.0523002
0.052566
0.00174586
0.00433008
0.00818278
0.0121984
0.0167231
0.0216374
0.0269128
0.032434
0.0380331
0.0434736
0.0483974
0.0524037
0.0546789
0.0543513
0.0499825
0.0396952
0.0215798
-0.0052547
-0.0383407
-0.074261
-0.0984238
-0.116392
-0.121025
-0.115915
-0.101557
-0.0834357
-0.0677232
-0.0587783
-0.0609361
-0.0714626
-0.0858163
-0.0869328
-0.080826
-0.0604733
-0.0339623
-0.00612996
0.0180806
0.0350607
0.0447145
0.0494288
0.0515589
0.0523162
0.0524477
0.0522575
0.0520066
0.051768
0.0516133
0.0515511
0.0515813
0.0516926
0.0518624
0.0520804
0.0523195
0.0525825
0.052842
0.00166732
0.00412443
0.00770794
0.0114033
0.0155316
0.0199996
0.0247971
0.0298405
0.0350056
0.0401034
0.0448828
0.0489394
0.0518607
0.052738
0.050576
0.0436492
0.0297709
0.00716951
-0.024257
-0.059995
-0.0955475
-0.115594
-0.126866
-0.12368
-0.112344
-0.0951394
-0.0789196
-0.0675718
-0.0670339
-0.0773646
-0.092114
-0.108671
-0.104091
-0.0900829
-0.0610722
-0.0288633
0.00150437
0.0257994
0.0408349
0.0485371
0.0518944
0.0531448
0.0533181
0.0530931
0.0526803
0.0523062
0.0520087
0.0518343
0.0517764
0.0518208
0.0519485
0.0521316
0.0523571
0.052598
0.0528574
0.0531088
0.0016123
0.00395633
0.00732934
0.0107505
0.0145452
0.0186232
0.0229959
0.0275993
0.0323423
0.0370812
0.0416088
0.0456575
0.0487998
0.0505305
0.0499031
0.0456664
0.0357822
0.0178164
-0.00930987
-0.0443344
-0.0804563
-0.112462
-0.126553
-0.128332
-0.118953
-0.103679
-0.0876584
-0.074827
-0.0720872
-0.0810758
-0.097597
-0.114004
-0.128382
-0.11362
-0.0906465
-0.0551234
-0.0187335
0.0121407
0.0337722
0.0461075
0.0517195
0.0538108
0.0543128
0.0539993
0.0534957
0.0529287
0.0524818
0.0521659
0.052002
0.0519695
0.0520423
0.0521943
0.0523947
0.0526289
0.0528712
0.0531274
0.0533706
0.0015663
0.00383482
0.0070244
0.0102281
0.0137345
0.017481
0.0214794
0.0256887
0.0300402
0.0344222
0.0386781
0.0425831
0.0458492
0.0480155
0.0484879
0.046229
0.0396653
0.0264271
0.00430277
-0.0265793
-0.0631323
-0.0961714
-0.122252
-0.127372
-0.121359
-0.108035
-0.092863
-0.0798955
-0.0754581
-0.0836371
-0.098417
-0.119446
-0.133896
-0.141334
-0.114229
-0.0827087
-0.0431429
-0.00579331
0.0228204
0.0411171
0.0503914
0.0541033
0.0551387
0.0550611
0.0543715
0.0536733
0.0530219
0.0525532
0.0522584
0.0521329
0.0521443
0.0522562
0.0524378
0.0526566
0.0528986
0.0531401
0.0533883
0.0536219
0.00154622
0.00373538
0.00680043
0.00980907
0.0130837
0.0165407
0.0202178
0.0240774
0.0280745
0.0321222
0.0360957
0.0398258
0.0430706
0.0455148
0.0466663
0.0458226
0.0418167
0.0326763
0.0160565
-0.00967339
-0.0425674
-0.0777258
-0.103983
-0.122959
-0.118309
-0.108094
-0.0944437
-0.0827936
-0.0773692
-0.0842825
-0.0973049
-0.117982
-0.13908
-0.147216
-0.143917
-0.106349
-0.0681581
-0.0274796
0.00775296
0.0326838
0.0470579
0.0534607
0.055722
0.0559088
0.0554032
0.0544606
0.0536536
0.0529849
0.0525451
0.0523076
0.0522449
0.0523147
0.0524727
0.0526854
0.0529212
0.0531678
0.0534044
0.053643
0.0538621
0.00152799
0.0036871
0.00662451
0.00949831
0.0125624
0.0157838
0.0191776
0.0227339
0.0264138
0.0301543
0.0338579
0.0373881
0.0405629
0.0431246
0.0447288
0.0448436
0.0426553
0.0368261
0.0251281
0.00560253
-0.0226175
-0.0546215
-0.0852974
-0.103096
-0.114041
-0.103276
-0.0920796
-0.0826756
-0.0779872
-0.0816641
-0.0943561
-0.114083
-0.13654
-0.152955
-0.150055
-0.135337
-0.0913871
-0.0500039
-0.0109981
0.0202676
0.0407066
0.0512312
0.0554055
0.0567234
0.0562009
0.0553699
0.0543075
0.0534702
0.0528489
0.0524849
0.0523364
0.0523562
0.0524938
0.0527004
0.0529423
0.0531905
0.0534365
0.0536632
0.0538877
0.0540881
0.00364199
0.00653139
0.00925815
0.0121733
0.0151776
0.0183379
0.0216239
0.0250256
0.0284881
0.0319379
0.0352687
0.0383329
0.040937
0.0428111
0.0435781
0.042666
0.0391664
0.03159
0.0176922
-0.00430532
-0.032438
-0.0605853
-0.0842472
-0.0940655
-0.0979966
-0.0858347
-0.0787681
-0.0752409
-0.0763145
-0.0886722
-0.108063
-0.130842
-0.151161
-0.157852
-0.142313
-0.118939
-0.0727135
-0.0316545
0.00407185
0.0304925
0.0463844
0.0536934
0.0564711
0.0570353
0.0560531
0.0550138
0.053948
0.0531633
0.0526483
0.0524023
0.0523689
0.0524846
0.0526936
0.0529461
0.0532112
0.0534649
0.0537035
0.053914
0.0541193
0.0542964
0.00645829
0.00912569
0.0118754
0.0147232
0.017665
0.0207257
0.0238764
0.0270914
0.0303077
0.0334429
0.0363828
0.0389712
0.0410065
0.0422078
0.0421695
0.0402979
0.0356261
0.026578
0.0104376
-0.0120462
-0.0369019
-0.0598286
-0.0752101
-0.0788409
-0.0783825
-0.0711318
-0.0677065
-0.0688754
-0.0802591
-0.0990185
-0.122449
-0.143884
-0.157401
-0.151247
-0.126667
-0.0978056
-0.054058
-0.0153938
0.016303
0.0377988
0.0497512
0.0547945
0.0567081
0.0566339
0.055515
0.054414
0.0534327
0.0527756
0.0524206
0.0523281
0.0524283
0.0526458
0.0529232
0.0532141
0.053493
0.0537427
0.0539657
0.0541532
0.0543337
0.0544829
0.00902763
0.0117072
0.0143769
0.0171587
0.0200051
0.0229439
0.0259323
0.0289365
0.0318867
0.034693
0.0372352
0.0393529
0.0408389
0.0414072
0.0406377
0.0379581
0.0323286
0.0221187
0.0046167
-0.0142194
-0.0356525
-0.0523101
-0.0602162
-0.0604676
-0.0594794
-0.0574664
-0.0587193
-0.0696775
-0.087276
-0.110432
-0.133991
-0.149292
-0.151963
-0.13615
-0.107911
-0.0771258
-0.0376416
-0.00243225
0.0249974
0.0421808
0.0512149
0.0549769
0.0562085
0.0557936
0.0546631
0.0536229
0.0528127
0.0523539
0.0522057
0.0522934
0.0525361
0.0528525
0.0531885
0.0535054
0.0537858
0.0540205
0.054219
0.0543765
0.0545264
0.0546433
0.0115876
0.0141785
0.016774
0.0194612
0.0221948
0.0249892
0.0277954
0.0305724
0.0332447
0.0357172
0.0378676
0.0395352
0.0405121
0.0405194
0.0391446
0.0358768
0.0296064
0.0189221
0.00476168
-0.0128177
-0.0290698
-0.0392806
-0.0421711
-0.0422506
-0.0421618
-0.047391
-0.056799
-0.0736631
-0.0956017
-0.119793
-0.139224
-0.146978
-0.139167
-0.11793
-0.0901384
-0.0583687
-0.0249167
0.00669678
0.0301265
0.0441499
0.0513568
0.0544984
0.0551989
0.0546223
0.0535615
0.0526966
0.0521443
0.0519485
0.0520443
0.0523272
0.0527101
0.053113
0.0534915
0.0538179
0.0540851
0.0542931
0.054458
0.0545789
0.0546929
0.0547733
0.0140407
0.0165513
0.0190487
0.0216277
0.0242302
0.0268637
0.0294743
0.0320146
0.0344053
0.0365501
0.0383275
0.0395821
0.0401138
0.0396675
0.0378657
0.034308
0.0280616
0.0183234
0.0066021
-0.00824875
-0.0179193
-0.0231726
-0.0240359
-0.0259624
-0.0287218
-0.0435495
-0.0581536
-0.0792058
-0.102617
-0.124137
-0.136938
-0.136537
-0.12264
-0.100197
-0.0765513
-0.0443447
-0.0166856
0.0121547
0.0322799
0.0444641
0.0506852
0.0533952
0.05375
0.0531193
0.0522731
0.0517001
0.0514904
0.0516124
0.0519757
0.0524543
0.0529618
0.0534301
0.0538298
0.0541462
0.0543845
0.0545541
0.0546768
0.0547552
0.0548286
0.0548692
0.0163993
0.018808
0.021198
0.0236537
0.0261122
0.0285742
0.0309816
0.0332823
0.0353966
0.0372307
0.0386669
0.0395629
0.039739
0.0389787
0.036975
0.0336369
0.0280433
0.0197613
0.00920852
0.00100684
-0.00432921
-0.00657861
-0.00782809
-0.0131063
-0.0205729
-0.0432533
-0.0612035
-0.0840794
-0.105966
-0.122186
-0.128007
-0.12227
-0.106836
-0.0889837
-0.0673692
-0.0358856
-0.0127158
0.0147665
0.0324319
0.0437922
0.0494234
0.0516771
0.0518592
0.0513641
0.0508706
0.0507088
0.05092
0.0513993
0.0520354
0.0526934
0.0532937
0.0538027
0.0541962
0.0544817
0.0546757
0.0547963
0.0548694
0.0549003
0.0549293
0.0549278
0.0186457
0.0209455
0.0232171
0.0255396
0.027846
0.0301308
0.0323327
0.0343985
0.0362508
0.0378008
0.0389407
0.0395505
0.0394847
0.0385773
0.036601
0.0338117
0.0293063
0.0229336
0.0165319
0.0120381
0.00963676
0.00846609
0.00521304
-0.0045141
-0.0170397
-0.0446669
-0.0639476
-0.0862668
-0.104366
-0.114908
-0.11653
-0.108967
-0.0987317
-0.0807615
-0.0643448
-0.0328744
-0.0115494
0.0154563
0.0316797
0.0424813
0.0475249
0.0493704
0.0495945
0.0494275
0.0494425
0.0498097
0.0505052
0.0513593
0.0522502
0.0530543
0.0537123
0.0542199
0.0545794
0.0548139
0.0549497
0.0550121
0.0550297
0.0550097
0.0549908
0.0549465
0.0207769
0.022959
0.0251058
0.0272892
0.0294396
0.0315455
0.0335459
0.035389
0.0370011
0.0383043
0.0392054
0.0396144
0.0394455
0.0385667
0.0370847
0.0349874
0.0318321
0.0281618
0.025016
0.023197
0.0223037
0.020598
0.0144469
0.000220781
-0.0166366
-0.0465084
-0.0653616
-0.0843534
-0.0985348
-0.106127
-0.106583
-0.101929
-0.0923627
-0.0791219
-0.0663922
-0.0335055
-0.0117534
0.0149409
0.0306389
0.0404994
0.0448741
0.0465036
0.0470147
0.0474011
0.0480984
0.0491007
0.0503191
0.0515325
0.0526328
0.0535233
0.0541961
0.054667
0.0549656
0.0551308
0.0551968
0.0551942
0.0551524
0.0550791
0.0550103
0.0549207
0.0227882
0.024848
0.026867
0.028909
0.0309027
0.0328334
0.0346424
0.0362805
0.037682
0.0387842
0.039514
0.0398103
0.0396648
0.0390635
0.0381639
0.0370197
0.0355723
0.0342184
0.0333867
0.0332422
0.0324771
0.0291291
0.020007
0.00216446
-0.0186975
-0.0486801
-0.0639107
-0.0796539
-0.0921571
-0.0994838
-0.0998249
-0.0991337
-0.0931517
-0.0829437
-0.0702904
-0.0366343
-0.0121438
0.0140827
0.0289976
0.0375645
0.041387
0.0430919
0.0442044
0.045413
0.0469677
0.0486906
0.0504248
0.0519406
0.0531768
0.0540938
0.0547274
0.0551254
0.055339
0.0554201
0.0554081
0.0553363
0.0552327
0.0551051
0.0549874
0.0548502
0.0246785
0.0266147
0.0285059
0.0304068
0.0322473
0.0340115
0.0356436
0.0371005
0.0383284
0.0392805
0.0399115
0.0402185
0.040221
0.0400186
0.0398152
0.0397581
0.0398631
0.0402242
0.0408855
0.0412033
0.0395957
0.0340859
0.0225576
0.00215066
-0.0210496
-0.047958
-0.0607189
-0.0758018
-0.0886391
-0.0959707
-0.102767
-0.103637
-0.0999214
-0.0889341
-0.0733853
-0.0411526
-0.011244
0.0128963
0.0261422
0.0334026
0.0369757
0.039177
0.0413129
0.0436294
0.0462103
0.0486819
0.0508592
0.0525826
0.0538644
0.0547377
0.0552812
0.055574
0.0556836
0.0556704
0.0555754
0.0554327
0.0552673
0.0550856
0.0549192
0.054734
0.0264499
0.0282639
0.030029
0.0317924
0.0334875
0.0350971
0.0365712
0.0378759
0.0389701
0.0398274
0.0404391
0.0408392
0.041099
0.0413769
0.0419174
0.0428433
0.0441035
0.0455618
0.0467545
0.0466912
0.043748
0.0360919
0.0229124
0.00139423
-0.0216901
-0.0457727
-0.0596767
-0.0755848
-0.0896237
-0.102723
-0.110967
-0.113574
-0.10919
-0.0938682
-0.0784254
-0.039995
-0.0105222
0.0102361
0.021526
0.0277418
0.031578
0.0349103
0.038544
0.042293
0.0459959
0.0491362
0.0516231
0.0534306
0.0546596
0.0554194
0.0558289
0.0559915
0.0559842
0.0558714
0.0556923
0.0554794
0.0552535
0.0550191
0.0548046
0.0545727
0.0281066
0.0298011
0.0314446
0.0330779
0.0346374
0.0361078
0.037447
0.0386306
0.0396331
0.0404525
0.041111
0.0416752
0.0422568
0.0430429
0.0442508
0.0459082
0.0478833
0.0497502
0.0507486
0.0498435
0.0455112
0.0361021
0.0217865
0.000343641
-0.0230614
-0.0467552
-0.0626366
-0.0807252
-0.0986177
-0.114139
-0.124161
-0.126336
-0.117861
-0.094173
-0.0748183
-0.0368591
-0.0117548
0.00516835
0.0146252
0.020354
0.0253825
0.0305379
0.0362404
0.0417034
0.046435
0.0500584
0.0526813
0.0544326
0.0555129
0.0560994
0.0563417
0.0563581
0.056228
0.0560151
0.0557538
0.0554737
0.0551899
0.0549055
0.0546428
0.0543662
0.0296534
0.0312337
0.0327629
0.0342748
0.0357113
0.037061
0.0382898
0.0393847
0.0403376
0.041169
0.0419259
0.0426993
0.0436244
0.0448719
0.0465869
0.0486856
0.0509186
0.05264
0.0530177
0.0511317
0.0456323
0.0350421
0.0198532
-0.00181754
-0.027038
-0.0516343
-0.0710563
-0.0929025
-0.113641
-0.130676
-0.14062
-0.138444
-0.121838
-0.0940855
-0.0679758
-0.0372866
-0.016171
-0.00311357
0.00501539
0.0115384
0.0188468
0.0265921
0.0349554
0.0420518
0.0475457
0.0514048
0.0539627
0.0555198
0.0563694
0.0567383
0.0567934
0.056657
0.0564049
0.0560958
0.0557572
0.0554143
0.0550758
0.054744
0.0544344
0.0541146
0.0310973
0.032571
0.0339939
0.0353951
0.0367238
0.0379721
0.0391152
0.0401532
0.0410941
0.041976
0.0428646
0.0438636
0.0451044
0.04671
0.0487404
0.0509897
0.0531082
0.0544339
0.0539557
0.0511207
0.0446295
0.0331614
0.0167877
-0.00630433
-0.0347013
-0.0615869
-0.0860588
-0.111301
-0.133398
-0.150339
-0.15616
-0.145551
-0.120443
-0.0875091
-0.0634992
-0.041162
-0.0248673
-0.015244
-0.00697668
0.00202218
0.012623
0.0242176
0.0350815
0.0433703
0.0492769
0.0530773
0.0553686
0.0566148
0.0571747
0.057301
0.057162
0.0568756
0.056508
0.0561103
0.0557011
0.0553012
0.0549117
0.0545353
0.0541804
0.0538185
0.0324469
0.0338219
0.0351479
0.0364512
0.0376872
0.0388535
0.0399356
0.0409451
0.0419031
0.0428605
0.0438939
0.0451018
0.0465924
0.0484244
0.0505737
0.0527281
0.0545833
0.0553444
0.0539764
0.0502235
0.0427472
0.0301558
0.0117415
-0.0141157
-0.0472082
-0.0771859
-0.107104
-0.133929
-0.15564
-0.168415
-0.165869
-0.145323
-0.112561
-0.0808696
-0.0636454
-0.050272
-0.0385912
-0.0310011
-0.0202438
-0.00818934
0.00849117
0.024178
0.0366566
0.0456175
0.0514889
0.0549282
0.0567876
0.0576422
0.0578813
0.0577589
0.0574317
0.0570057
0.0565342
0.0560579
0.0555862
0.0551352
0.0546988
0.0542802
0.0538817
0.0534789
0.0337105
0.0349957
0.0362356
0.0374535
0.0386121
0.0397156
0.0407583
0.0417615
0.0427559
0.0437998
0.0449685
0.046342
0.0479943
0.0499118
0.0520117
0.0538844
0.0554183
0.0553712
0.053296
0.0485473
0.039854
0.0254974
0.00397011
-0.0259971
-0.0651383
-0.0978641
-0.132054
-0.157665
-0.176559
-0.179849
-0.166259
-0.137081
-0.102824
-0.0783792
-0.0697285
-0.0659371
-0.057243
-0.0488821
-0.0342437
-0.0156936
0.00813662
0.0261749
0.0396559
0.0486108
0.05396
0.0567931
0.0581132
0.0585376
0.058452
0.0580919
0.0575928
0.0570441
0.0564832
0.0559401
0.0554145
0.0549181
0.0544385
0.05398
0.0535393
0.0530966
0.0348966
0.0361021
0.037266
0.038411
0.0395071
0.0405647
0.0415853
0.0425971
0.0436374
0.0447625
0.0460383
0.0475175
0.0492342
0.0511064
0.0530304
0.0544837
0.0554977
0.0546671
0.0518687
0.046011
0.0356558
0.0187124
-0.00707435
-0.0421887
-0.0878345
-0.121698
-0.157012
-0.178603
-0.190362
-0.180868
-0.157146
-0.124849
-0.0964508
-0.0822805
-0.0826184
-0.0882456
-0.0791831
-0.0667369
-0.0448552
-0.0148784
0.0102852
0.0301378
0.0437993
0.051995
0.0564485
0.0585209
0.0592569
0.059253
0.0588617
0.0582886
0.0576423
0.0569918
0.0563581
0.0557602
0.0551888
0.0546523