/*--------------------------------*- C++ -*----------------------------------*\
| =========                 |                                                 |
| \\      /  F ield         | OpenFOAM: The Open Source CFD Toolbox           |
|  \\    /   O peration     | Version:  2506                                  |
|   \\  /    A nd           | Website:  www.openfoam.com                      |
|    \\/     M anipulation  |                                                 |
\*---------------------------------------------------------------------------*/
FoamFile
{
    version     2.0;
    format      ascii;
    arch        "LSB;label=32;scalar=64";
    class       surfaceScalarField;
    location    "99.978303268757969";
    object      phi_0;
}
// * * * * * * * * * * * * * * * * * * * * * * * * * * * * * * * * * * * * * //

dimensions      [0 3 -1 0 0 0 0];

oriented        oriented;

internalField   nonuniform List<scalar> 
19160
(
-0.000404373
-0.229349
-0.000810892
-0.229311
-0.000362377
-0.228987
-0.00121425
-0.229269
-0.000722146
-0.228951
-0.00034333
-0.228644
-0.00161868
-0.229168
-0.00107422
-0.228917
-0.000682475
-0.228612
-0.000324157
-0.22832
-0.00201975
-0.229049
-0.00141598
-0.228826
-0.00101208
-0.228587
-0.000642594
-0.228293
-0.000311412
-0.228008
-0.00241874
-0.228866
-0.00174037
-0.228725
-0.0013262
-0.228512
-0.000949289
-0.228281
-0.000616399
-0.227988
-0.000304518
-0.227704
-0.00281213
-0.228607
-0.0020411
-0.228566
-0.00161733
-0.228434
-0.00123622
-0.228225
-0.000908487
-0.227989
-0.000602416
-0.227691
-0.000303345
-0.2274
-0.00319795
-0.228281
-0.00230804
-0.22834
-0.00187578
-0.228307
-0.00149418
-0.228176
-0.00117841
-0.227955
-0.000887254
-0.227704
-0.000600496
-0.227393
-0.000307835
-0.227092
-0.00357095
-0.227819
-0.00252905
-0.22806
-0.00208887
-0.228127
-0.00171083
-0.228091
-0.0014161
-0.227938
-0.00114935
-0.227693
-0.000885566
-0.227419
-0.000610443
-0.227091
-0.000317067
-0.226775
-0.00392487
-0.227229
-0.00268758
-0.227661
-0.00223999
-0.227909
-0.00187042
-0.227967
-0.00160769
-0.227899
-0.00137842
-0.227709
-0.00114927
-0.22743
-0.000903012
-0.227126
-0.000630366
-0.226778
-0.000329174
-0.226446
-0.00425234
-0.226428
-0.00276251
-0.227154
-0.00230721
-0.227593
-0.00195209
-0.227827
-0.0017355
-0.227839
-0.0015601
-0.227717
-0.00138196
-0.227476
-0.00117743
-0.227155
-0.000936599
-0.22682
-0.000656433
-0.22645
-0.00034297
-0.226103
-0.00454427
-0.22536
-0.00272732
-0.226463
-0.00226233
-0.227199
-0.00192833
-0.227617
-0.00177599
-0.227787
-0.00167605
-0.227723
-0.00156997
-0.227529
-0.00142553
-0.227228
-0.00122954
-0.226862
-0.000980309
-0.226496
-0.000686119
-0.226107
-0.000356434
-0.225747
-0.00478983
-0.223971
-0.00254877
-0.225539
-0.00206921
-0.226656
-0.00176347
-0.227363
-0.00169786
-0.227695
-0.00170163
-0.227761
-0.00169573
-0.227597
-0.00163546
-0.227319
-0.00150326
-0.226954
-0.00129706
-0.226545
-0.00102997
-0.226152
-0.000715209
-0.225748
-0.000367874
-0.225379
-0.00497655
-0.222121
-0.0021867
-0.224333
-0.00168224
-0.225926
-0.00141073
-0.227009
-0.00146017
-0.227601
-0.00160372
-0.227793
-0.0017354
-0.227722
-0.00179193
-0.227441
-0.00174877
-0.227074
-0.00160356
-0.226648
-0.00137365
-0.226202
-0.00107884
-0.225789
-0.000740127
-0.225376
-0.000374958
-0.225004
-0.00512509
-0.219698
-0.00158805
-0.22272
-0.00104512
-0.22497
-0.000810712
-0.226526
-0.00100804
-0.227461
-0.00133842
-0.227866
-0.00165662
-0.227872
-0.00187391
-0.22764
-0.00195448
-0.227235
-0.00189464
-0.226783
-0.00171721
-0.226304
-0.00144945
-0.225831
-0.00112109
-0.225408
-0.000756019
-0.224995
-0.000376786
-0.224627
-0.00534413
-0.216526
-0.000694073
-0.220592
-9.39701e-05
-0.223671
0.000112336
-0.225893
-0.00027125
-0.227263
-0.000845755
-0.227954
-0.0014157
-0.228107
-0.0018525
-0.227893
-0.00210417
-0.22749
-0.00216357
-0.226966
-0.00205986
-0.22644
-0.00183038
-0.225923
-0.0015158
-0.225436
-0.00114901
-0.225015
-0.000760924
-0.224611
-0.000372297
-0.224255
-0.00587943
-0.212439
0.000546794
-0.217766
0.00123429
-0.221921
0.00144327
-0.225002
0.000840869
-0.227005
-4.83116e-05
-0.22806
-0.000952042
-0.228418
-0.00168793
-0.228272
-0.00217517
-0.227822
-0.00240066
-0.227253
-0.00240052
-0.226626
-0.0022254
-0.226045
-0.00193065
-0.225509
-0.00156147
-0.225024
-0.0011593
-0.224616
-0.000752608
-0.224231
-0.000360349
-0.223895
-0.00706824
-0.207428
0.00211105
-0.214003
0.0030024
-0.219535
0.00327593
-0.223753
0.00242884
-0.22659
0.00115392
-0.228208
-0.000187065
-0.228825
-0.0013242
-0.228781
-0.00213551
-0.228312
-0.00259201
-0.227631
-0.00273726
-0.226916
-0.00263937
-0.226212
-0.00237376
-0.225602
-0.00200238
-0.225068
-0.00158136
-0.224602
-0.00114835
-0.224221
-0.000728714
-0.223862
-0.000341512
-0.223553
-0.00930849
-0.201519
0.00387576
-0.209193
0.0052629
-0.216264
0.00571025
-0.221969
0.00461983
-0.225944
0.00287654
-0.228313
0.000979181
-0.229374
-0.000689399
-0.22946
-0.0019397
-0.228977
-0.0027172
-0.228186
-0.00306671
-0.227301
-0.00307861
-0.226477
-0.00285564
-0.22573
-0.00248353
-0.225121
-0.00203793
-0.224611
-0.00157012
-0.22418
-0.00111248
-0.223837
-0.000690389
-0.223513
-0.000316282
-0.223237
-0.0128993
-0.195048
0.00553377
-0.203177
0.00799738
-0.211927
0.0088456
-0.219399
0.00756979
-0.224919
0.00529306
-0.228361
0.00267507
-0.230009
0.000305554
-0.230369
-0.00153162
-0.229868
-0.002747
-0.228947
-0.0033829
-0.22787
-0.00355102
-0.226829
-0.00339045
-0.225942
-0.00302021
-0.225193
-0.00254349
-0.224615
-0.00202971
-0.224151
-0.0015225
-0.22377
-0.00105343
-0.223474
-0.000638677
-0.223191
-0.000285207
-0.222952
-0.0176659
-0.188025
0.00654206
-0.196056
0.0110288
-0.206208
0.0127029
-0.215784
0.0114332
-0.223262
0.00863278
-0.228259
0.00513094
-0.230817
0.00180026
-0.231503
-0.000843302
-0.231057
-0.00264982
-0.229965
-0.00367733
-0.228653
-0.00406655
-0.227355
-0.00399694
-0.226223
-0.0036332
-0.225329
-0.00311676
-0.22462
-0.00254305
-0.224102
-0.00197057
-0.223703
-0.00144088
-0.223383
-0.0009729
-0.22314
-0.000574774
-0.222901
-0.000250242
-0.222701
-0.0230314
-0.180337
0.00645382
-0.187936
0.0140613
-0.199089
0.0171434
-0.210649
0.0162264
-0.220578
0.0131045
-0.227734
0.00865927
-0.231787
0.00408359
-0.2331
0.000271302
-0.232618
-0.00238766
-0.231319
-0.00394882
-0.229694
-0.00463941
-0.22808
-0.00470057
-0.226651
-0.00435037
-0.225505
-0.00378323
-0.224663
-0.00313065
-0.224032
-0.0024727
-0.2236
-0.00186361
-0.223281
-0.00132779
-0.223028
-0.000872909
-0.222841
-0.000502745
-0.222649
-0.00021298
-0.222488
-0.0280283
-0.17207
0.00508906
-0.178972
0.0167103
-0.190585
0.0219113
-0.203856
0.0217605
-0.216183
0.0186877
-0.226161
0.0134993
-0.232574
0.0075393
-0.235243
0.00214577
-0.234975
-0.00182127
-0.233184
-0.00419659
-0.231072
-0.00529985
-0.229033
-0.00553708
-0.227244
-0.00521033
-0.225791
-0.00457724
-0.224711
-0.00382035
-0.223973
-0.00304939
-0.223456
-0.00233641
-0.223127
-0.00171246
-0.222896
-0.00118636
-0.222714
-0.000759901
-0.222584
-0.00042594
-0.222436
-0.000175455
-0.222313
-0.0318155
-0.163258
0.00282284
-0.169803
0.0187079
-0.18097
0.0266664
-0.19534
0.0277679
-0.209864
0.0250892
-0.222584
0.0195541
-0.232216
0.0123853
-0.23742
0.00519641
-0.238293
-0.000604067
-0.236192
-0.00431385
-0.233067
-0.00608792
-0.230283
-0.00656372
-0.228006
-0.00626634
-0.226187
-0.00554663
-0.224822
-0.00464966
-0.223882
-0.00372834
-0.223294
-0.00287809
-0.222914
-0.00213933
-0.2227
-0.0015218
-0.222561
-0.00102587
-0.222448
-0.000639262
-0.222371
-0.000348581
-0.222263
-0.000139402
-0.222173
-0.0342544
-0.154102
0.000448698
-0.160884
0.0198995
-0.170995
0.0311606
-0.185464
0.0339587
-0.201531
0.0319896
-0.216764
0.0264436
-0.229474
0.0184264
-0.238257
0.00956186
-0.241785
0.00165495
-0.240552
-0.00399397
-0.236512
-0.0069609
-0.232194
-0.00785926
-0.228988
-0.0075946
-0.226678
-0.00675633
-0.224978
-0.00567071
-0.223801
-0.00454664
-0.223064
-0.00351385
-0.222658
-0.00262409
-0.222429
-0.00188835
-0.222334
-0.00130442
-0.222282
-0.000854221
-0.222233
-0.000517713
-0.222202
-0.000274294
-0.222128
-0.000107014
-0.222066
-0.0350535
-0.0981463
-0.00149403
-0.152159
0.0203846
-0.161369
0.0350445
-0.174879
0.0400936
-0.191599
0.0390921
-0.208634
0.0338394
-0.22416
0.0252577
-0.236305
0.0149683
-0.243663
0.00500441
-0.245135
-0.00293153
-0.241615
-0.00772084
-0.235752
-0.00946944
-0.230584
-0.00930424
-0.227278
-0.00829226
-0.225142
-0.00695337
-0.223695
-0.00555542
-0.222792
-0.0042772
-0.2223
-0.00318748
-0.222095
-0.00229749
-0.22202
-0.0016008
-0.222037
-0.00107145
-0.222065
-0.000681141
-0.22207
-0.000401081
-0.222075
-0.000207589
-0.222027
-7.98986e-05
-0.221987
-0.0350459
-0.0950852
-0.00261106
-0.0970292
0.0206067
-0.152381
0.0381295
-0.164454
0.0458565
-0.180642
0.0461411
-0.198648
0.0414291
-0.216224
0.0326023
-0.231505
0.021095
-0.242432
0.00911833
-0.247777
-0.00108965
-0.246977
-0.00818825
-0.241147
-0.0113483
-0.233873
-0.0115377
-0.22835
-0.0102802
-0.22529
-0.00858435
-0.223511
-0.00682261
-0.222428
-0.00521355
-0.221855
-0.00385691
-0.221631
-0.00276405
-0.221628
-0.00192154
-0.221699
-0.001292
-0.221817
-0.000836328
-0.22191
-0.000515168
-0.221956
-0.000296469
-0.221986
-0.000151817
-0.221955
-5.92637e-05
-0.221927
-0.0343564
-0.0925798
-0.0030153
-0.0946809
0.0202126
-0.096635
0.040614
-0.154866
0.0509994
-0.169597
0.0528894
-0.18739
0.0489374
-0.206156
0.0401781
-0.223799
0.0277524
-0.238162
0.0138894
-0.247203
0.00127455
-0.250141
-0.00829773
-0.246867
-0.0134131
-0.239082
-0.014416
-0.230994
-0.0129449
-0.225686
-0.010688
-0.223187
-0.00842813
-0.221906
-0.00638299
-0.221258
-0.00466848
-0.221044
-0.00330764
-0.221087
-0.00227483
-0.221275
-0.00151716
-0.221474
-0.000980137
-0.221673
-0.000611033
-0.221814
-0.000366455
-0.221886
-0.000209192
-0.221929
-0.000109555
-0.221905
-4.61464e-05
-0.221881
-0.0330806
-0.0908796
-0.00270583
-0.0928893
0.0201318
-0.0946002
0.0412748
-0.0972958
0.055444
-0.159311
0.0591333
-0.175841
0.0560903
-0.194543
0.0477035
-0.213682
0.0347207
-0.230768
0.0192404
-0.243513
0.00420665
-0.250135
-0.00786933
-0.25057
-0.0155477
-0.244733
-0.0179224
-0.235576
-0.0165732
-0.227366
-0.0135309
-0.222843
-0.0104776
-0.221137
-0.00785319
-0.220436
-0.00567
-0.220257
-0.00395276
-0.220399
-0.00267148
-0.220691
-0.00174818
-0.221044
-0.00110863
-0.221346
-0.0006816
-0.221602
-0.000409401
-0.221771
-0.000242676
-0.221852
-0.000143385
-0.221895
-8.29676e-05
-0.221868
-4.09521e-05
-0.22184
-0.0313329
-0.0901896
-0.00174479
-0.0918407
0.0204871
-0.0932446
0.0419177
-0.095243
0.057244
-0.0990958
0.064682
-0.164859
0.0627199
-0.18247
0.0548673
-0.201707
0.0417243
-0.220685
0.024973
-0.2365
0.00774126
-0.247048
-0.00690545
-0.251099
-0.017316
-0.248801
-0.0218471
-0.240808
-0.021256
-0.230893
-0.0175346
-0.223362
-0.0132245
-0.220096
-0.00970138
-0.219289
-0.00691306
-0.219193
-0.00473228
-0.219477
-0.00312373
-0.219947
-0.00198692
-0.220452
-0.00121633
-0.220936
-0.000718051
-0.221309
-0.000414766
-0.221597
-0.000242008
-0.221771
-0.000149896
-0.221846
-0.000102441
-0.221875
-7.28718e-05
-0.221836
-4.36776e-05
-0.221797
-0.028998
-0.0904783
-0.000227886
-0.0917065
0.0213295
-0.092683
0.0426657
-0.0939926
0.0588309
-0.09683
0.0672368
-0.101651
0.0686044
-0.170744
0.0615168
-0.18912
0.0484755
-0.208458
0.030838
-0.22655
0.011656
-0.240415
-0.00566766
-0.248286
-0.0185617
-0.249853
-0.0258598
-0.244789
-0.0267393
-0.235325
-0.0229516
-0.225476
-0.0171556
-0.219431
-0.0121214
-0.217676
-0.00844612
-0.217756
-0.005679
-0.218246
-0.00364858
-0.218953
-0.0022336
-0.2197
-0.00129639
-0.220372
-0.000708735
-0.220946
-0.000369441
-0.221354
-0.000193838
-0.221645
-0.000117357
-0.221804
-9.29383e-05
-0.221855
-8.76932e-05
-0.221861
-7.91478e-05
-0.221801
-5.36815e-05
-0.221743
-0.0263136
-0.0922024
0.00190673
-0.0926129
0.0226464
-0.0930235
0.0436311
-0.0936485
0.0602945
-0.0954562
0.069541
-0.0991341
0.0714613
-0.104508
0.0673384
-0.176565
0.0548434
-0.195488
0.0366651
-0.214285
0.0158083
-0.230703
-0.00402686
-0.242056
-0.0197661
-0.247081
-0.0296405
-0.246073
-0.0326278
-0.2389
-0.0295662
-0.22871
-0.0226977
-0.219934
-0.0155746
-0.215978
-0.010381
-0.215741
-0.00681782
-0.216617
-0.0042589
-0.217635
-0.00248982
-0.218696
-0.0013381
-0.219658
-0.000638818
-0.220442
-0.000256424
-0.221059
-8.15634e-05
-0.221467
-3.04541e-05
-0.221732
-4.19941e-05
-0.221855
-7.37844e-05
-0.221869
-9.89562e-05
-0.221841
-0.000100422
-0.221754
-6.98843e-05
-0.221673
-0.0232398
-0.0952061
0.00443556
-0.0947312
0.0244238
-0.0943902
0.0449027
-0.0942951
0.0617255
-0.0950795
0.0716258
-0.097541
0.074057
-0.10173
0.0703011
-0.10747
0.060328
-0.18205
0.0422752
-0.201098
0.020178
-0.218655
-0.00201621
-0.232713
-0.020536
-0.241286
-0.0330706
-0.243651
-0.038568
-0.240132
-0.0368683
-0.231598
-0.0297787
-0.221629
-0.0206183
-0.21489
-0.0130719
-0.213287
-0.00818398
-0.214375
-0.00496139
-0.215915
-0.00274923
-0.217376
-0.00132879
-0.218706
-0.000488011
-0.219809
-5.3861e-05
-0.220644
0.000116166
-0.221256
0.000129901
-0.221627
6.67306e-05
-0.221841
-1.87694e-05
-0.22191
-9.21795e-05
-0.221876
-0.000134094
-0.221807
-0.00013453
-0.221689
-9.07139e-05
-0.221582
-0.0198221
-0.09954
0.00730902
-0.0980795
0.026547
-0.0968544
0.0464687
-0.0959562
0.0631712
-0.0957408
0.0734582
-0.0969119
0.0762951
-0.099779
0.0729678
-0.104397
0.063298
-0.11044
0.0470428
-0.186818
0.0243731
-0.205293
0.000371617
-0.221042
-0.0208548
-0.232395
-0.036127
-0.238229
-0.0440433
-0.238176
-0.0443471
-0.232654
-0.0378939
-0.223483
-0.0274152
-0.214832
-0.0171012
-0.210861
-0.00998333
-0.211488
-0.00573712
-0.213599
-0.00300257
-0.215661
-0.00124543
-0.217459
-0.000230838
-0.218963
0.000266621
-0.220129
0.000426988
-0.220955
0.000388207
-0.221515
0.000253666
-0.221814
9.36835e-05
-0.221953
-4.73889e-05
-0.221955
-0.000145165
-0.221865
-0.00018962
-0.221752
-0.000178362
-0.221602
-0.000114156
-0.221468
-0.016147
-0.105111
0.0104092
-0.10264
0.0289226
-0.100455
0.0482716
-0.0986573
0.0646473
-0.0974323
0.0750913
-0.097374
0.0781193
-0.0987361
0.0752987
-0.10211
0.0659617
-0.10706
0.0500432
-0.113441
0.0280229
-0.190467
0.00256396
-0.207485
-0.0208087
-0.221089
-0.0387444
-0.229777
-0.0491734
-0.233099
-0.051567
-0.230956
-0.0464276
-0.22412
-0.0356121
-0.215286
-0.0228752
-0.209058
-0.0126889
-0.208156
-0.00665782
-0.210567
-0.00320061
-0.213401
-0.0010621
-0.215845
0.000168966
-0.217859
0.000741712
-0.219438
0.000885967
-0.220588
0.000776345
-0.221343
0.000545091
-0.221806
0.00028405
-0.222004
5.06705e-05
-0.222051
-0.000123989
-0.221976
-0.000227671
-0.221827
-0.000260582
-0.22167
-0.000227777
-0.221488
-0.000138351
-0.22133
-0.00993571
-0.170409
0.0135725
-0.108274
0.0313923
-0.10511
0.0501509
-0.102334
0.0660882
-0.100098
0.0764277
-0.0987687
0.0793881
-0.0986429
0.0772471
-0.100684
0.0682496
-0.104398
0.0526982
-0.109715
0.0310027
-0.11642
0.00488224
-0.192786
-0.0206567
-0.207637
-0.0409616
-0.218871
-0.0538426
-0.225108
-0.0583932
-0.226273
-0.0548563
-0.222527
-0.0445625
-0.215169
-0.0303037
-0.207858
-0.0168516
-0.204895
-0.00799406
-0.206819
-0.00332843
-0.210439
-0.000715964
-0.213747
0.000755042
-0.216431
0.0014182
-0.218536
0.00153915
-0.220091
0.00133456
-0.221147
0.000975413
-0.221774
0.000578856
-0.222101
0.000221178
-0.222175
-5.74676e-05
-0.222118
-0.000241512
-0.221962
-0.000332568
-0.221755
-0.000340413
-0.221557
-0.000278783
-0.221348
-0.000161222
-0.221169
-0.00375702
-0.187285
0.0180589
-0.174895
0.0337533
-0.110635
0.0519173
-0.106876
0.0673742
-0.10362
0.0774295
-0.1011
0.0802589
-0.0996395
0.078771
-0.100167
0.0701132
-0.102548
0.0548986
-0.106598
0.0336806
-0.112393
0.00773951
-0.119278
-0.0196959
-0.193746
-0.042505
-0.206094
-0.0579442
-0.21477
-0.0646655
-0.218836
-0.0628557
-0.218274
-0.0536097
-0.21348
-0.038855
-0.206618
-0.0226719
-0.202037
-0.0102737
-0.202616
-0.00345129
-0.206697
-0.000148816
-0.211007
0.00159555
-0.214588
0.00235669
-0.217369
0.00244247
-0.219439
0.00211604
-0.220873
0.00158829
-0.22176
0.00101305
-0.222208
0.000489192
-0.222369
7.08914e-05
-0.222303
-0.000221175
-0.222138
-0.000390136
-0.221905
-0.000450395
-0.221645
-0.000422696
-0.221413
-0.000326944
-0.221182
-0.000180913
-0.220988
0.00198793
-0.204555
0.0220465
-0.191273
0.0363852
-0.177527
0.0533972
-0.112115
0.0683283
-0.107831
0.0779963
-0.104187
0.0806963
-0.101537
0.0797459
-0.100614
0.0715436
-0.101597
0.0565656
-0.104215
0.0358564
-0.108774
0.0102957
-0.114949
-0.017343
-0.121631
-0.0431899
-0.193061
-0.0611584
-0.20288
-0.070229
-0.209206
-0.0701975
-0.211494
-0.0622734
-0.20961
-0.0478364
-0.204499
-0.0298885
-0.199401
-0.0138941
-0.198417
-0.00392601
-0.202141
0.000706702
-0.207552
0.00277181
-0.212183
0.00362976
-0.215861
0.00367082
-0.218598
0.00318504
-0.220508
0.00244175
-0.221726
0.00163146
-0.222378
0.000888013
-0.222607
0.00028287
-0.222581
-0.000154082
-0.22237
-0.000427276
-0.222101
-0.000556831
-0.221798
-0.000571714
-0.221496
-0.000500351
-0.22124
-0.000368341
-0.220995
-0.000195418
-0.220792
0.00677508
-0.220984
0.0252746
-0.207783
0.038276
-0.193164
0.0542981
-0.178428
0.0687556
-0.112542
0.0781356
-0.10797
0.0808409
-0.104332
0.0801652
-0.101957
0.0724286
-0.101499
0.057692
-0.102723
0.0374475
-0.105806
0.0123678
-0.110846
-0.0152224
-0.11707
-0.0418078
-0.123013
-0.0636249
-0.190595
-0.0748985
-0.19821
-0.0766741
-0.20273
-0.0702257
-0.203542
-0.0566283
-0.200818
-0.0379403
-0.196447
-0.018913
-0.194383
-0.005174
-0.197169
0.00171716
-0.203152
0.00439549
-0.209176
0.00533746
-0.213891
0.00530563
-0.217496
0.0046278
-0.22004
0.00360691
-0.221673
0.00249418
-0.222589
0.00146092
-0.222951
0.000607692
-0.222932
-2.35823e-05
-0.222711
-0.000436425
-0.222361
-0.000658224
-0.222
-0.000728311
-0.221641
-0.000686195
-0.22131
-0.000567087
-0.221041
-0.000398815
-0.220791
-0.000203685
-0.220589
0.0102672
-0.235083
0.0273338
-0.223043
0.0392888
-0.208796
0.0542155
-0.193081
0.0678925
-0.177565
0.0777347
-0.112141
0.0806339
-0.107763
0.0799558
-0.104122
0.0726972
-0.102225
0.0582265
-0.102034
0.0383731
-0.103649
0.01386
-0.107298
-0.013417
-0.112652
-0.0403541
-0.118524
-0.0633047
-0.123333
-0.0787081
-0.186785
-0.0820515
-0.192833
-0.0772004
-0.195755
-0.0647921
-0.195378
-0.046159
-0.192599
-0.0250639
-0.190296
-0.0074572
-0.192099
0.0025866
-0.198038
0.00650412
-0.20526
0.00758708
-0.211425
0.00746397
-0.216049
0.00653929
-0.219407
0.00517932
-0.221613
0.00367661
-0.222856
0.00226668
-0.223395
0.0010839
-0.223427
0.000193198
-0.223148
-0.000407334
-0.22274
-0.000752709
-0.222267
-0.000895682
-0.221832
-0.000890146
-0.221438
-0.000784609
-0.221093
-0.000616281
-0.220824
-0.000416181
-0.220579
-0.000204897
-0.220384
0.012551
-0.245533
0.0281024
-0.235852
0.0392293
-0.222984
0.053071
-0.207651
0.0659874
-0.191176
0.0757204
-0.175551
0.0799465
-0.111454
0.0791024
-0.106909
0.0721672
-0.103592
0.0581533
-0.102152
0.0386703
-0.102331
0.0147151
-0.104504
-0.0120743
-0.108641
-0.038966
-0.11404
-0.0625552
-0.119273
-0.0793946
-0.122646
-0.0862159
-0.182621
-0.0829865
-0.187047
-0.0720196
-0.188527
-0.0540154
-0.187521
-0.0318094
-0.185854
-0.0108522
-0.186901
0.00302392
-0.192537
0.00901281
-0.200547
0.0105082
-0.208181
0.0102493
-0.214211
0.00905328
-0.218563
0.00726994
-0.221498
0.0052811
-0.223217
0.00338096
-0.22397
0.00176469
-0.224075
0.000526776
-0.223761
-0.000325825
-0.22323
-0.000837666
-0.222655
-0.00107792
-0.222085
-0.00111987
-0.221602
-0.00102934
-0.221193
-0.000857342
-0.220852
-0.00064441
-0.220595
-0.000418754
-0.220365
-0.000198447
-0.220185
0.013868
-0.252068
0.0277512
-0.245182
0.0380505
-0.234673
0.0508433
-0.220756
0.0629672
-0.204631
0.072601
-0.188057
0.0775047
-0.173109
0.0775398
-0.109891
0.0708093
-0.105552
0.0573558
-0.102795
0.0382851
-0.101767
0.0148889
-0.102505
-0.0112808
-0.105298
-0.0377969
-0.10981
-0.0616168
-0.114978
-0.0794391
-0.119229
-0.087575
-0.121287
-0.0873928
-0.178214
-0.0781868
-0.18088
-0.0611055
-0.181437
-0.0386091
-0.180722
-0.0151364
-0.18157
0.00276014
-0.186637
0.0116794
-0.195203
0.0141642
-0.204203
0.0138263
-0.211758
0.0122895
-0.217447
0.0100309
-0.221324
0.00743371
-0.22365
0.00490878
-0.224745
0.0027205
-0.224926
0.00102007
-0.224569
-0.000172645
-0.223914
-0.000909168
-0.223158
-0.00128047
-0.222453
-0.00138516
-0.221819
-0.00131282
-0.221319
-0.00113253
-0.220918
-0.000899196
-0.220597
-0.000648805
-0.220365
-0.000405307
-0.220158
-0.000184929
-0.22
0.0143448
-0.254105
0.0263971
-0.250714
0.0357884
-0.24292
0.047537
-0.231366
0.0588531
-0.216642
0.0682514
-0.200281
0.0736238
-0.184176
0.0740474
-0.169616
0.0686678
-0.10775
0.0557506
-0.103946
0.0372474
-0.101757
0.0144135
-0.101291
-0.0110739
-0.102712
-0.037013
-0.106082
-0.0606371
-0.11079
-0.0790249
-0.115392
-0.0883475
-0.118456
-0.0892466
-0.119434
-0.0831318
-0.17327
-0.0673247
-0.17466
-0.0449349
-0.175111
-0.0198971
-0.175961
0.00165514
-0.180465
0.0142424
-0.1892
0.0184066
-0.199446
0.018288
-0.208665
0.016412
-0.215881
0.0136089
-0.221025
0.0103038
-0.224194
0.00698611
-0.225728
0.00405222
-0.226077
0.00173184
-0.225638
8.02998e-05
-0.224822
-0.000961456
-0.223862
-0.00151034
-0.222928
-0.00169925
-0.222139
-0.00164976
-0.221482
-0.00145625
-0.220995
-0.00119231
-0.220624
-0.000906317
-0.220339
-0.000627578
-0.220143
-0.00037709
-0.219966
-0.000165037
-0.219835
0.0136098
-0.252267
0.0241639
-0.251872
0.0324621
-0.247387
0.043225
-0.238608
0.053678
-0.226191
0.0627186
-0.211109
0.0683553
-0.195013
0.0693081
-0.179436
0.064702
-0.165651
0.0532635
-0.105263
0.0354186
-0.102117
0.0132904
-0.100634
-0.011485
-0.10088
-0.0366421
-0.103083
-0.0597602
-0.106959
-0.0782184
-0.111596
-0.0885595
-0.11518
-0.0903083
-0.117394
-0.0859982
-0.116567
-0.0724199
-0.168174
-0.0506193
-0.168976
-0.024625
-0.170383
-0.000113627
-0.174192
0.0164019
-0.182624
0.023075
-0.193868
0.0235863
-0.204744
0.0215096
-0.213762
0.0181615
-0.220433
0.0140584
-0.22478
0.00978961
-0.226997
0.00589436
-0.22757
0.00274976
-0.227095
0.000473442
-0.226031
-0.000985282
-0.224798
-0.00177671
-0.223595
-0.00207975
-0.222548
-0.00206017
-0.221728
-0.00184695
-0.221092
-0.00153989
-0.220648
-0.00120339
-0.220327
-0.000876085
-0.220091
-0.000582751
-0.219937
-0.000335579
-0.219795
-0.000140091
-0.219695
0.0122182
-0.247339
0.0209243
-0.249027
0.0282393
-0.247649
0.0378861
-0.242049
0.0475287
-0.232459
0.0560763
-0.219549
0.0618065
-0.20456
0.0633207
-0.189025
0.0595119
-0.174246
0.0494189
-0.161806
0.0327044
-0.102548
0.0113703
-0.100197
-0.012524
-0.0995952
-0.0367702
-0.100752
-0.0590517
-0.103791
-0.0770975
-0.108079
-0.0881756
-0.11198
-0.0907406
-0.114748
-0.0880359
-0.115357
-0.0761278
-0.112859
-0.0553863
-0.163407
-0.0289956
-0.164605
-0.00233358
-0.168164
0.0180714
-0.175862
0.0279087
-0.187458
0.029654
-0.199936
0.0275801
-0.210815
0.0237791
-0.21938
0.0188585
-0.225234
0.0134904
-0.22848
0.0084101
-0.229513
0.00418927
-0.229009
0.00107012
-0.227691
-0.000964515
-0.226051
-0.00209105
-0.224483
-0.00255049
-0.223124
-0.00257084
-0.222037
-0.00232962
-0.221246
-0.00196249
-0.220669
-0.00155653
-0.220295
-0.0011623
-0.220041
-0.000811479
-0.219862
-0.000516752
-0.219756
-0.000283535
-0.219652
-0.000111487
-0.219584
0.0106467
-0.241591
0.0174266
-0.243842
0.0236106
-0.244398
0.031898
-0.241661
0.0405561
-0.235076
0.0484896
-0.224872
0.05414
-0.211883
0.0561159
-0.197356
0.0532094
-0.182723
0.0444219
-0.169249
0.0293959
-0.158498
0.00867461
-0.0998527
-0.0141786
-0.0985428
-0.0373544
-0.099011
-0.0585306
-0.101273
-0.0758939
-0.104995
-0.0872096
-0.109045
-0.0906656
-0.112055
-0.0892087
-0.113575
-0.0788442
-0.11264
-0.0596657
-0.10858
-0.0329144
-0.159489
-0.00449036
-0.162449
0.0190804
-0.169173
0.032656
-0.180609
0.0363013
-0.194105
0.0345825
-0.206939
0.0304798
-0.217515
0.0248182
-0.22534
0.0182674
-0.230011
0.0117593
-0.231829
0.00617393
-0.231498
0.00194478
-0.229884
-0.000871143
-0.227785
-0.00246534
-0.225677
-0.00314342
-0.22389
-0.00321836
-0.222477
-0.00293784
-0.221429
-0.00248795
-0.22072
-0.00198676
-0.220239
-0.0015018
-0.219955
-0.00107327
-0.219779
-0.00071616
-0.219663
-0.000434042
-0.219606
-0.000223887
-0.219539
-8.12571e-05
-0.219502
0.00911619
-0.237169
0.0142714
-0.238436
0.0191541
-0.239385
0.025879
-0.238379
0.0332479
-0.234353
0.0403197
-0.226906
0.0456632
-0.216395
0.0479339
-0.2037
0.045881
-0.190027
0.0384786
-0.17678
0.0252871
-0.16514
0.00655669
-0.15638
-0.0162467
-0.0977845
-0.0381229
-0.0977743
-0.0580806
-0.099461
-0.0744797
-0.102687
-0.085681
-0.106524
-0.0901287
-0.109582
-0.0894966
-0.111768
-0.0805419
-0.111877
-0.0628498
-0.109456
-0.0375653
-0.103929
-0.00673152
-0.157247
0.0198629
-0.163231
0.0369708
-0.173487
0.0432427
-0.187551
0.0423503
-0.201873
0.038197
-0.214656
0.03198
-0.224677
0.0242918
-0.231364
0.0161601
-0.234411
0.0088475
-0.234503
0.00315781
-0.232711
-0.000691845
-0.230063
-0.00291484
-0.227335
-0.00389943
-0.224921
-0.00405251
-0.223056
-0.00371754
-0.221697
-0.00315359
-0.220763
-0.00252233
-0.220185
-0.00191432
-0.219826
-0.00138161
-0.219647
-0.000941631
-0.219554
-0.000596697
-0.2195
-0.000339361
-0.21949
-0.000160916
-0.21946
-5.12149e-05
-0.219451
0.00776504
-0.234743
0.0116871
-0.234584
0.0153721
-0.234654
0.0204851
-0.233991
0.026308
-0.231439
0.0322128
-0.226246
0.0369417
-0.218184
0.0392616
-0.207723
0.0379107
-0.19573
0.0318572
-0.183406
0.0205651
-0.172058
0.00416335
-0.162747
-0.0163482
-0.156278
-0.0388111
-0.0970963
-0.0574612
-0.0983937
-0.072825
-0.101116
-0.0837247
-0.104644
-0.0889369
-0.107715
-0.0889071
-0.110172
-0.0812247
-0.111085
-0.0649989
-0.109728
-0.0410859
-0.105936
-0.0113226
-0.0993378
0.0202404
-0.157625
0.0408234
-0.167084
0.0501218
-0.180366
0.0505973
-0.195798
0.046715
-0.210391
0.0402184
-0.222894
0.0316267
-0.232012
0.0218627
-0.237067
0.0124974
-0.238061
0.00484542
-0.236191
-0.00044382
-0.232959
-0.00349716
-0.229481
-0.0048785
-0.226356
-0.00514044
-0.223833
-0.00473152
-0.222042
-0.00401024
-0.220841
-0.00320097
-0.220085
-0.00242617
-0.219673
-0.00175346
-0.219454
-0.00120359
-0.219385
-0.000776661
-0.219374
-0.000460119
-0.219379
-0.000239517
-0.219412
-9.85127e-05
-0.219413
-2.28128e-05
-0.219428
0.00663138
-0.233512
0.00965469
-0.23271
0.0124489
-0.231661
0.0161755
-0.230344
0.0204471
-0.22813
0.0249698
-0.224196
0.0287856
-0.21809
0.0308442
-0.209767
0.0299599
-0.199772
0.0251136
-0.188987
0.0157032
-0.178544
0.00163119
-0.169525
-0.0162432
-0.162852
-0.0363849
-0.158704
-0.0565157
-0.0980418
-0.0708803
-0.100338
-0.0813552
-0.103485
-0.0870734
-0.106507
-0.0875074
-0.109115
-0.0809117
-0.110485
-0.0661148
-0.109969
-0.0436157
-0.107198
-0.0148978
-0.10236
0.0165263
-0.0956238
0.0443205
-0.161122
0.0565439
-0.173506
0.0589881
-0.188757
0.055715
-0.204798
0.0492309
-0.219403
0.0400402
-0.231308
0.0289086
-0.239058
0.0174252
-0.241994
0.00737608
-0.240592
1.07493e-05
-0.236645
-0.00430194
-0.232154
-0.00620271
-0.228157
-0.00658074
-0.224916
-0.00606673
-0.222498
-0.00512749
-0.220925
-0.00407369
-0.219968
-0.00307227
-0.219439
-0.00221115
-0.219215
-0.00151502
-0.219143
-0.000980626
-0.219181
-0.000588348
-0.219246
-0.000316316
-0.219302
-0.000140665
-0.21937
-4.03569e-05
-0.219395
1.86725e-06
-0.21943
0.00567981
-0.232687
0.00804216
-0.231899
0.0102312
-0.230492
0.0129966
-0.228482
0.0160267
-0.225924
0.019223
-0.222383
0.021987
-0.217398
0.0235177
-0.210763
0.0228292
-0.202636
0.0189453
-0.193604
0.0112736
-0.184557
-0.000486108
-0.176427
-0.0158145
-0.169954
-0.0334681
-0.165769
-0.0517869
-0.163433
-0.0686465
-0.100276
-0.078651
-0.103043
-0.0846116
-0.105947
-0.0855237
-0.108491
-0.0798642
-0.110163
-0.0662985
-0.110301
-0.045124
-0.108461
-0.0175286
-0.104568
0.013343
-0.0991772
0.0425114
-0.0938147
0.0624738
-0.167052
0.067054
-0.181572
0.0648213
-0.197864
0.0586477
-0.214214
0.0491613
-0.228525
0.0369133
-0.239312
0.0235769
-0.24521
0.0110234
-0.245642
0.00106979
-0.241651
-0.0052052
-0.235742
-0.00802356
-0.230333
-0.00854036
-0.226197
-0.00784765
-0.223135
-0.00660277
-0.221023
-0.00520998
-0.219789
-0.00389917
-0.219141
-0.00278411
-0.218866
-0.00189278
-0.218837
-0.00121683
-0.218907
-0.000726657
-0.219042
-0.000390417
-0.219172
-0.000174267
-0.219269
-4.88027e-05
-0.219361
9.6365e-06
-0.219403
2.08753e-05
-0.219451
0.00486212
-0.231984
0.00673126
-0.231376
0.0084841
-0.230152
0.0106416
-0.228137
0.0128855
-0.225341
0.0151078
-0.221809
0.0169471
-0.217343
0.0178808
-0.211761
0.0171688
-0.205103
0.0140051
-0.197696
0.00777859
-0.190109
-0.00183989
-0.183203
-0.0146949
-0.177547
-0.0299542
-0.173468
-0.0464111
-0.171145
-0.0623993
-0.16968
-0.0757202
-0.103206
-0.0817093
-0.105945
-0.0829998
-0.108471
-0.0780217
-0.110333
-0.0655373
-0.110924
-0.0455851
-0.10984
-0.0191846
-0.106805
0.0110177
-0.102242
0.0404605
-0.0971263
0.0630868
-0.0944277
0.0744783
-0.174476
0.0736316
-0.190382
0.0680098
-0.207226
0.0585949
-0.223648
0.0455067
-0.237118
0.0304002
-0.246136
0.0155935
-0.24978
0.0028779
-0.24745
-0.00586599
-0.24099
-0.010274
-0.233492
-0.0112223
-0.227651
-0.0102596
-0.223785
-0.00857075
-0.221167
-0.00670707
-0.219526
-0.00496985
-0.218718
-0.00351078
-0.218414
-0.0023588
-0.2184
-0.00149564
-0.218559
-0.000878112
-0.218755
-0.000460324
-0.218973
-0.000195338
-0.219151
-4.2692e-05
-0.219275
3.01538e-05
-0.219382
4.9074e-05
-0.219431
3.36268e-05
-0.219485
0.00414396
-0.231414
0.00564341
-0.230896
0.00706219
-0.229954
0.00879374
-0.228304
0.0105748
-0.225827
0.012244
-0.222477
0.0134987
-0.21836
0.0139933
-0.213456
0.0132175
-0.20781
0.0105687
-0.201666
0.00552546
-0.195443
-0.00229915
-0.18965
-0.0128927
-0.185005
-0.025877
-0.181624
-0.0404659
-0.179413
-0.0554433
-0.178101
-0.0688783
-0.176522
-0.0784871
-0.106429
-0.080005
-0.10894
-0.0755241
-0.110969
-0.0638721
-0.111999
-0.0449652
-0.111544
-0.019724
-0.109301
0.00958326
-0.10537
0.0389433
-0.100725
0.0630946
-0.097134
0.0768109
-0.0967603
0.0816562
-0.182501
0.0769699
-0.199342
0.0678299
-0.216461
0.0543069
-0.232448
0.0376738
-0.244392
0.0204048
-0.250947
0.00518612
-0.252088
-0.00629931
-0.247016
-0.0127261
-0.238538
-0.0146854
-0.230028
-0.0135454
-0.224366
-0.0112093
-0.221147
-0.00869511
-0.219179
-0.00637105
-0.218124
-0.00444259
-0.217786
-0.00294082
-0.217832
-0.00183033
-0.218065
-0.00104619
-0.218391
-0.000523906
-0.218692