/*--------------------------------*- C++ -*----------------------------------*\
| =========                 |                                                 |
| \\      /  F ield         | OpenFOAM: The Open Source CFD Toolbox           |
|  \\    /   O peration     | Version:  2506                                  |
|   \\  /    A nd           | Website:  www.openfoam.com                      |
|    \\/     M anipulation  |                                                 |
\*---------------------------------------------------------------------------*/
FoamFile
{
    version     2.0;
    format      ascii;
    arch        "LSB;label=32;scalar=64";
    class       volVectorField;
    location    "99.978303268757969";
    object      U_0;
}
// * * * * * * * * * * * * * * * * * * * * * * * * * * * * * * * * * * * * * //

dimensions      [0 1 -1 0 0 0 0];

internalField   nonuniform List<vector> 
9700
(
(1.08501 0.000985628 3.81929e-22)
(1.08488 0.0032018 -1.00579e-24)
(1.08204 0.000882096 2.81708e-28)
(1.08462 0.0052125 -4.99827e-22)
(1.08191 0.00286399 -1.13301e-24)
(1.08082 0.000835608 -3.72937e-22)
(1.08419 0.00737056 -3.93071e-24)
(1.08168 0.00462964 -3.64035e-35)
(1.08071 0.00271355 -3.73636e-22)
(1.07911 0.00078971 0)
(1.08356 0.00941729 3.89709e-22)
(1.08127 0.00649328 3.25478e-24)
(1.08052 0.00437484 -2.76742e-21)
(1.07903 0.00255996 -1.37296e-23)
(1.07767 0.000760013 3.6193e-22)
(1.08268 0.0115206 4.02406e-22)
(1.08068 0.0081873 -1.59098e-27)
(1.08018 0.00610828 -3.83244e-22)
(1.07888 0.00411522 8.58312e-35)
(1.07761 0.00245735 3.65053e-22)
(1.0762 0.000744757 4.16927e-28)
(1.08147 0.0135599 4.0956e-23)
(1.07986 0.00984333 2.42161e-27)
(1.0797 0.00765082 -3.84437e-22)
(1.07862 0.00571713 3.8624e-23)
(1.07753 0.00394612 2.66899e-21)
(1.07618 0.00239947 -2.3585e-24)
(1.07478 0.000744443 -3.53529e-22)
(1.07983 0.015596 5.95165e-22)
(1.07873 0.011312 9.09424e-23)
(1.07902 0.00911367 -3.70914e-22)
(1.07826 0.00710892 0)
(1.07737 0.00546349 3.55473e-22)
(1.07616 0.0038554 -1.27706e-35)
(1.07478 0.00238933 -3.52748e-22)
(1.07334 0.00075751 -2.94698e-21)
(1.07763 0.017563 -7.0162e-23)
(1.07722 0.0126053 -7.62665e-22)
(1.0781 0.0103401 -2.9072e-22)
(1.07775 0.00837909 0)
(1.07716 0.00676298 3.55672e-22)
(1.07611 0.00532967 5.95101e-24)
(1.07483 0.00384833 -2.40061e-25)
(1.07337 0.00242288 -3.41127e-21)
(1.07187 0.000781364 -3.73937e-25)
(1.07467 0.0194626 -5.95639e-22)
(1.07519 0.0136064 -2.08382e-22)
(1.07686 0.0113185 -4.24778e-21)
(1.07707 0.00936478 -1.49314e-37)
(1.07686 0.00791589 3.73629e-22)
(1.07605 0.0065887 -2.73735e-27)
(1.07488 0.00532429 -3.647e-22)
(1.07347 0.00391735 -4.59699e-22)
(1.07192 0.00249302 3.79116e-22)
(1.07035 0.000812358 2.89411e-21)
(1.07074 0.0212335 4.86097e-22)
(1.0725 0.0142474 2.74231e-23)
(1.0752 0.0119119 8.62603e-22)
(1.07616 0.0100295 4.88082e-23)
(1.07647 0.00875842 4.62545e-22)
(1.07598 0.00769208 3.64733e-27)
(1.07498 0.00659866 -3.64076e-22)
(1.07362 0.00543636 -3.42089e-21)
(1.07206 0.00404984 4.56311e-22)
(1.07041 0.00258913 3.00803e-21)
(1.06876 0.000846153 0)
(1.06554 0.0228575 2.20751e-23)
(1.06892 0.0143862 3.93279e-23)
(1.07299 0.0120154 3.30955e-21)
(1.07494 0.0102167 2.18801e-22)
(1.07596 0.00923704 3.94838e-21)
(1.0759 0.00847984 1.22705e-22)
(1.07513 0.00772611 -3.4697e-22)
(1.07386 0.00677778 -3.06997e-21)
(1.07229 0.00564718 2.9257e-22)
(1.07058 0.00422696 -2.34414e-25)
(1.06883 0.00269806 -2.1757e-36)
(1.06711 0.000878108 3.38438e-22)
(1.05866 0.0242654 3.66776e-21)
(1.06418 0.0138846 3.41587e-22)
(1.07004 0.0114509 -4.17846e-22)
(1.07333 0.00978318 -9.5987e-23)
(1.07529 0.00918322 -1.08358e-21)
(1.07582 0.00888974 -1.58171e-23)
(1.07537 0.00855566 -2.7681e-22)
(1.07421 0.00799839 -3.06974e-21)
(1.07264 0.00709986 4.84018e-28)
(1.07085 0.00592833 3.01403e-21)
(1.069 0.00442556 5.57918e-36)
(1.06717 0.0028052 3.45993e-22)
(1.06539 0.000903641 8.01188e-28)
(1.04961 0.0254161 -5.73452e-23)
(1.05791 0.0125421 1.68557e-34)
(1.06612 0.0100159 -3.40651e-22)
(1.07117 0.00851198 -4.36795e-22)
(1.07441 0.0084268 -2.96331e-21)
(1.07573 0.0087495 -2.21538e-22)
(1.07571 0.009026 -3.87027e-21)
(1.07472 0.00896132 -3.41711e-21)
(1.07315 0.00847359 -5.3337e-28)
(1.07127 0.00752463 3.03187e-21)
(1.06929 0.00624462 -2.10862e-36)
(1.06733 0.00461998 2.29255e-25)
(1.06544 0.0028956 -6.77807e-24)
(1.06363 0.000918591 -3.21944e-22)
(1.03774 0.0262068 1.19013e-22)
(1.04968 0.0101347 -6.92332e-22)
(1.06089 0.00744494 -6.15821e-21)
(1.0683 0.00612851 -5.43646e-22)
(1.07322 0.00672343 3.31452e-22)
(1.07563 0.00787445 2.6276e-23)
(1.0762 0.00897094 -3.08316e-21)
(1.07545 0.00961643 -2.65747e-21)
(1.07389 0.00965033 4.25511e-22)
(1.07189 0.00909641 3.06697e-21)
(1.06974 0.00800188 0)
(1.0676 0.00655678 3.27684e-22)
(1.06557 0.00478413 -1.59679e-35)
(1.06366 0.00295523 -3.16363e-22)
(1.06185 0.000919569 -4.11771e-22)
(1.02258 0.0269049 6.43412e-21)
(1.03875 0.0063374 -3.63911e-22)
(1.05396 0.00341403 -5.90535e-22)
(1.06442 0.00229585 1.91192e-34)
(1.07163 0.00374086 3.96222e-22)
(1.0755 0.00600437 3.44616e-23)
(1.0769 0.00820772 2.80671e-21)
(1.07648 0.00981443 -3.72154e-21)
(1.07493 0.0106009 2.57735e-21)
(1.07278 0.0105482 3.13355e-21)
(1.0704 0.00979709 0)
(1.06803 0.00847525 3.32738e-22)
(1.06579 0.00682467 1.4665e-23)
(1.06373 0.0048936 -2.42249e-21)
(1.06184 0.00297225 -8.05838e-22)
(1.06007 0.000904252 -1.98705e-28)
(1.00363 0.0282913 2.07849e-21)
(1.02434 0.000871948 -1.84211e-22)
(1.04464 -0.00241599 -2.14486e-21)
(1.0592 -0.00344054 1.0546e-21)
(1.06943 -0.000911765 4.44001e-21)
(1.07532 0.00276914 2.73611e-22)
(1.07786 0.00647622 -3.23123e-22)
(1.07791 0.00939228 -3.91092e-22)
(1.0764 0.0112037 3.02295e-21)
(1.07404 0.0118799 -6.77645e-24)
(1.07134 0.0115595 -1.53337e-35)
(1.06865 0.0104968 3.66191e-22)
(1.06614 0.00888699 -6.4023e-27)
(1.06388 0.00701063 -3.56072e-22)
(1.06185 0.00492795 -4.19331e-22)
(1.06003 0.00293803 3.26441e-22)
(1.05833 0.000871571 3.91875e-22)
(0.980545 0.0319447 8.85028e-21)
(1.00531 -0.00652764 2.42595e-21)
(1.03222 -0.0103606 9.12913e-22)
(1.05193 -0.0115038 0)
(1.06633 -0.00778891 1.5165e-22)
(1.075 -0.00225647 5.3737e-35)
(1.07914 0.00339866 -2.70717e-22)
(1.07989 0.00810966 -2.74772e-21)
(1.07845 0.0113335 -2.42244e-21)
(1.07581 0.0130077 8.19465e-22)
(1.07269 0.0133242 -5.93578e-23)
(1.06956 0.0125755 4.61282e-22)
(1.06666 0.0111142 7.24233e-27)
(1.06411 0.00918275 -3.59514e-22)
(1.06189 0.00708297 -5.91463e-22)
(1.05997 0.00487248 2.7114e-21)
(1.05825 0.00284792 4.06953e-22)
(1.05667 0.000821804 -3.74821e-22)
(0.953814 0.0396886 -1.72645e-20)
(0.981251 -0.0153572 -4.95467e-21)
(1.01555 -0.0207753 2.37252e-21)
(1.04186 -0.0224464 -1.09906e-34)
(1.06171 -0.0173767 -1.09227e-21)
(1.07429 -0.00969043 -4.45683e-22)
(1.08076 -0.00145369 -1.73173e-21)
(1.08256 0.00561787 -2.79072e-21)
(1.08129 0.0107924 1.4842e-22)
(1.07829 0.0138599 2.94407e-21)
(1.07459 0.0150514 -3.56583e-24)
(1.07085 0.0147839 3.97421e-21)
(1.06743 0.0134833 1.98652e-22)
(1.06447 0.0115726 -3.18993e-22)
(1.06197 0.00931683 -4.29807e-22)
(1.05989 0.00701886 2.85545e-22)
(1.05812 0.0047195 -2.23222e-21)
(1.05655 0.00270161 -7.69844e-22)
(1.05511 0.000756502 -2.53382e-28)
(0.926546 0.0549918 -3.74201e-21)
(0.952072 -0.0249505 -3.3986e-21)
(0.993721 -0.0338142 -4.09035e-21)
(1.02783 -0.036764 8.21756e-36)
(1.0549 -0.0305156 2.28706e-23)
(1.07273 -0.0201098 -2.00955e-22)
(1.08258 -0.00869819 -1.8963e-22)
(1.08603 0.00152721 -3.16903e-22)
(1.08513 0.0092996 -8.40326e-24)
(1.08174 0.0143036 2.98584e-21)
(1.07726 0.0167353 -1.1428e-22)
(1.07269 0.0171295 3.19312e-21)
(1.06854 0.0161028 -1.80775e-23)
(1.06501 0.0141758 -1.52985e-22)
(1.06212 0.0118074 -4.39522e-22)
(1.05979 0.00925639 1.95229e-27)
(1.05791 0.0068062 3.60862e-22)
(1.05634 0.00446896 -3.81104e-22)
(1.05495 0.00250307 1.91711e-23)
(1.05368 0.000678414 3.45559e-22)
(0.897927 0.0776357 2.35137e-20)
(0.918237 -0.0324951 9.21041e-21)
(0.965748 -0.0491838 6.29397e-21)
(1.0087 -0.0549732 8.11968e-36)
(1.04473 -0.0479818 1.87212e-21)
(1.06988 -0.0347469 4.38768e-26)
(1.0845 -0.0190415 -3.67058e-23)
(1.09032 -0.00470774 -1.65914e-21)
(1.09016 0.00655911 2.63359e-22)
(1.08641 0.0141622 2.78215e-21)
(1.081 0.018326 2.90395e-22)
(1.0753 0.0196769 -3.17846e-21)
(1.07013 0.0190249 -1.34799e-22)
(1.0658 0.0171321 -4.03257e-21)
(1.06236 0.014563 -8.02451e-22)
(1.05969 0.0117722 -2.38734e-27)
(1.05763 0.00898411 3.68135e-22)
(1.05602 0.00644472 -4.45255e-22)
(1.05469 0.00412828 7.63662e-35)
(1.0535 0.0022604 5.0147e-22)
(1.05241 0.00059125 4.3795e-24)
(0.866769 0.10551 -1.30746e-22)
(0.880927 -0.0351868 5.32837e-22)
(0.931766 -0.0652747 -2.50105e-21)
(0.982825 -0.0768082 0)
(1.02958 -0.0705963 -1.46647e-21)
(1.06452 -0.0547371 6.11011e-22)
(1.0864 -0.0341851 -1.55859e-22)
(1.09595 -0.0139823 -5.46981e-22)
(1.0967 0.00215502 1.23017e-21)
(1.09253 0.0132878 8.97484e-23)
(1.08605 0.0197795 -1.78193e-36)
(1.07895 0.0224697 3.98435e-22)
(1.07239 0.0223827 8.96903e-25)
(1.06696 0.0205306 8.42687e-22)
(1.06275 0.0177466 -2.55654e-21)
(1.05959 0.0145806 4.00285e-22)
(1.05727 0.0114428 4.60196e-22)
(1.05556 0.0084998 -3.8941e-22)
(1.05425 0.00594556 -4.4929e-23)
(1.05319 0.00371198 3.4971e-22)
(1.05222 0.00198511 2.06466e-23)
(1.05132 0.000499394 -2.9776e-21)
(0.829714 0.133834 1.08341e-21)
(0.840447 -0.0319432 -2.58908e-21)
(0.892084 -0.0803592 -5.40501e-21)
(0.9496 -0.100992 -2.17502e-36)
(1.00702 -0.097702 5.35061e-21)
(1.05423 -0.081111 -2.05353e-22)
(1.08692 -0.0556421 -7.94637e-22)
(1.10324 -0.02842 1.42236e-22)
(1.10606 -0.00502035 -1.33465e-26)
(1.10085 0.0114283 2.38603e-21)
(1.09263 0.0211305 -1.23743e-35)
(1.08384 0.0256071 3.30906e-22)
(1.07558 0.0263108 -1.96081e-23)
(1.06865 0.0245633 3.34651e-21)
(1.06335 0.0214724 3.26105e-22)
(1.05951 0.0178572 2.66579e-21)
(1.05681 0.014195 8.25042e-22)
(1.05495 0.0108188 -3.97485e-22)
(1.05364 0.00781968 2.76419e-27)
(1.05266 0.00533077 8.89575e-22)
(1.05187 0.00324038 8.09207e-22)
(1.05112 0.00169105 -3.36139e-21)
(1.0504 0.000407667 -1.1948e-24)
(0.785064 0.157077 4.21958e-21)
(0.799892 -0.0209454 -1.3508e-23)
(0.847168 -0.0937487 1.80841e-21)
(0.909037 -0.126196 -1.97444e-35)
(0.975973 -0.127968 1.44118e-22)
(1.03539 -0.112572 6.62336e-22)
(1.08227 -0.0843731 5.10292e-21)
(1.1103 -0.0498228 3.66729e-21)
(1.11904 -0.0173113 5.60664e-22)
(1.11366 0.00736007 4.18311e-21)
(1.10203 0.022323 -1.3267e-35)
(1.09017 0.0293057 2.88742e-21)
(1.0798 0.031042 -3.26897e-22)
(1.07105 0.0294409 -4.25234e-22)
(1.06426 0.0259751 -6.12463e-22)
(1.05946 0.0217272 -9.66763e-22)
(1.05623 0.0174184 -6.46014e-23)
(1.05414 0.0134066 -7.24559e-22)
(1.0528 0.00992335 -3.49884e-27)
(1.05193 0.00697546 3.53255e-22)
(1.05129 0.00463116 -4.87643e-23)
(1.05076 0.00273774 -3.16274e-22)
(1.05021 0.00139354 1.91409e-22)
(1.04966 0.000321036 2.7022e-21)
(0.737227 0.172716 4.91885e-23)
(0.760758 -0.00817087 2.50201e-22)
(0.800881 -0.100475 0)
(0.863251 -0.150808 -2.76065e-35)
(0.936153 -0.160037 -1.36976e-20)
(1.00668 -0.147445 -4.95268e-21)
(1.06745 -0.118353 -1.46395e-20)
(1.11152 -0.0786479 1.01186e-21)
(1.13267 -0.0366412 -5.70571e-21)
(1.13208 -0.00122228 -2.47055e-22)
(1.11755 0.022266 0)
(1.09972 0.0337454 6.41024e-22)
(1.08517 0.0369376 1.42987e-34)
(1.07414 0.0355034 -4.87344e-22)
(1.0656 0.0315173 -7.74622e-22)
(1.05949 0.0264482 -2.87106e-21)
(1.05552 0.0212339 5.03179e-22)
(1.05309 0.0164321 -2.20327e-21)
(1.05169 0.012248 9.03381e-23)
(1.05092 0.00880061 3.57397e-22)
(1.05047 0.00601117 -4.94856e-23)
(1.05015 0.00388355 -3.12797e-21)
(1.04985 0.00223068 2.59575e-21)
(1.04948 0.00110843 2.8647e-21)
(1.04909 0.00024413 2.72606e-22)
(0.698376 0.180823 2.40605e-20)
(0.720551 0.00308108 -8.11325e-21)
(0.758413 -0.104947 1.35916e-21)
(0.814551 -0.172512 -2.47883e-21)
(0.889193 -0.192153 -2.96961e-21)
(0.967832 -0.184057 -7.59814e-22)
(1.04111 -0.155803 2.20905e-21)
(1.10062 -0.112329 1.65731e-20)
(1.13924 -0.0625345 3.05333e-21)
(1.15157 -0.0161044 -9.6168e-21)
(1.14037 0.0189549 -2.25275e-35)
(1.11664 0.0382705 3.73708e-21)
(1.09377 0.0444316 1.22341e-21)
(1.07793 0.0431997 -7.25207e-21)
(1.06724 0.0385101 -1.13026e-21)
(1.05962 0.0323026 -7.06565e-23)
(1.05462 0.0259009 3.1992e-21)
(1.05173 0.0199978 7.21327e-22)
(1.05023 0.0149444 1.08695e-22)
(1.04956 0.0107806 6.44188e-22)
(1.04934 0.00751174 6.31691e-23)
(1.0493 0.00497906 -3.03696e-21)
(1.04926 0.00312819 -4.62848e-22)
(1.04916 0.00174655 1.54394e-21)
(1.04893 0.000850925 3.70066e-22)
(1.04865 0.000180711 2.06861e-28)
(0.671602 0.183012 1.12615e-20)
(0.691134 0.0109167 -7.36592e-21)
(0.716896 -0.107091 9.23187e-23)
(0.76661 -0.190392 1.23634e-25)
(0.837947 -0.223642 -1.54438e-21)
(0.920922 -0.221067 5.1313e-21)
(1.00318 -0.194961 2.88623e-20)
(1.0767 -0.149475 2.42538e-20)
(1.13191 -0.0924602 1.4771e-20)
(1.16262 -0.035799 1.16814e-21)
(1.16441 0.0111585 -3.1481e-36)
(1.142 0.0415331 -1.26926e-21)
(1.11035 0.053534 8.62754e-22)
(1.0845 0.0531935 -4.02683e-22)
(1.06901 0.0474293 -6.89101e-22)
(1.05962 0.0397347 5.18343e-22)
(1.05349 0.0316878 5.12678e-22)
(1.04996 0.0243462 -7.25639e-22)
(1.04831 0.0180858 -7.70908e-36)
(1.04777 0.0130408 2.33589e-21)
(1.04783 0.00908863 5.70318e-22)
(1.04812 0.00612887 -3.02865e-21)
(1.04842 0.00393603 1.19043e-26)
(1.04861 0.00240646 2.46578e-21)
(1.04866 0.00131134 -3.80177e-21)
(1.04853 0.000634344 -1.59527e-22)
(1.04833 0.00013353 -2.49175e-22)
(0.649582 0.181697 5.78745e-22)
(0.672228 0.014756 1.8348e-20)
(0.687636 -0.106641 2.15804e-20)
(0.72303 -0.20537 -6.09626e-21)
(0.787141 -0.251818 2.60828e-20)
(0.868506 -0.257089 6.07518e-22)
(0.955895 -0.234518 -4.07824e-21)
(1.0397 -0.188358 3.28811e-20)
(1.11054 -0.125976 9.57115e-21)
(1.15847 -0.0586068 -1.48004e-20)
(1.17869 0.000370417 2.41458e-39)
(1.16871 0.043123 -9.54757e-21)
(1.13594 0.0637997 -3.3219e-25)
(1.09888 0.0662622 2.02653e-21)
(1.07266 0.0590894 -2.08003e-21)
(1.05914 0.0491917 4.43921e-21)
(1.05184 0.0390363 6.76261e-22)
(1.04765 0.0297007 -1.43064e-21)
(1.04578 0.0218826 -1.50296e-22)
(1.04541 0.0156176 9.0397e-22)
(1.04582 0.010836 -3.39961e-21)
(1.04654 0.00727011 -4.24467e-21)
(1.04726 0.00473005 -1.52064e-26)
(1.04783 0.0029402 2.67523e-21)
(1.04818 0.00175764 3.45115e-23)
(1.04832 0.000947611 1.28311e-34)
(1.04825 0.00046964 -1.68007e-22)
(1.04809 0.000104333 0)
(0.633949 0.177229 2.53194e-21)
(0.657144 0.014814 2.71146e-20)
(0.670437 -0.105633 -2.57776e-21)
(0.692723 -0.213937 4.68035e-20)
(0.740164 -0.277126 2.56058e-20)
(0.815147 -0.290966 9.51761e-22)
(0.901905 -0.272734 6.44718e-21)
(0.99203 -0.228059 3.23129e-20)
(1.07484 -0.161312 1.51455e-20)
(1.13959 -0.0852385 -2.91994e-21)
(1.1777 -0.0133389 0)
(1.18403 0.0429263 4.93937e-21)
(1.16331 0.0750664 -9.58068e-21)
(1.12252 0.0829322 3.5297e-22)
(1.08313 0.0749684 -9.16354e-22)
(1.05932 0.0615088 6.33667e-22)
(1.04915 0.0483217 -3.62338e-21)
(1.04446 0.0364708 -1.87142e-21)
(1.04245 0.0264901 -1.7305e-22)
(1.0423 0.018679 6.2237e-23)
(1.04317 0.0127508 -1.38166e-21)
(1.04444 0.0084626 -1.76412e-21)
(1.0457 0.00543034 9.6176e-22)
(1.04676 0.00339472 2.62054e-21)
(1.04752 0.00204662 2.60027e-22)
(1.04795 0.00121592 3.7198e-22)
(1.04812 0.000673663 1.33065e-21)
(1.04806 0.000364366 1.42891e-22)
(1.0479 9.41235e-05 -2.18037e-21)
(0.626347 0.169984 4.10924e-21)
(0.647563 0.0118684 -7.80593e-21)
(0.658116 -0.106931 -3.74859e-20)
(0.675107 -0.218015 2.26994e-20)
(0.70697 -0.294161 3.04833e-20)
(0.764896 -0.321817 4.16768e-21)
(0.846192 -0.308787 -4.4524e-20)
(0.93624 -0.266246 5.02578e-21)
(1.02712 -0.198255 -3.06679e-20)
(1.1056 -0.113781 -4.44423e-20)
(1.1612 -0.0304291 -6.79804e-36)
(1.1852 0.0388379 -4.65133e-21)
(1.18252 0.0858674 2.32945e-20)
(1.14867 0.102695 -1.01092e-20)
(1.10275 0.0966155 1.24574e-20)
(1.0646 0.0785781 -9.63278e-22)
(1.04581 0.0602673 7.11778e-22)
(1.03979 0.0449308 -6.23607e-22)
(1.03796 0.0322636 1.51139e-22)
(1.03819 0.0222998 -8.37605e-22)
(1.03968 0.014952 -2.00439e-21)
(1.04167 0.00966447 -1.96952e-22)
(1.04364 0.00606109 2.93128e-21)
(1.04532 0.00367562 2.45491e-21)
(1.04659 0.00219783 2.52419e-22)
(1.04743 0.00130305 -2.36841e-27)
(1.04787 0.00080917 -4.24014e-22)
(1.048 0.000502064 -1.04365e-21)
(1.04791 0.000322019 -2.21029e-21)
(1.0477 0.00010324 -5.36975e-25)
(0.624735 0.159729 -1.03985e-20)
(0.644698 0.00570575 -1.10142e-20)
(0.651424 -0.109899 2.11987e-22)
(0.663665 -0.222492 -1.79738e-20)
(0.686777 -0.304353 -3.7082e-20)
(0.728729 -0.343889 -3.82244e-20)
(0.792615 -0.341292 2.92306e-24)
(0.877949 -0.302607 -4.0503e-20)
(0.969745 -0.233676 -2.90319e-20)
(1.05827 -0.14486 -4.33669e-20)
(1.12898 -0.0491677 -2.46473e-34)
(1.1727 0.0329438 2.09929e-20)
(1.18614 0.0934053 2.03551e-20)
(1.16809 0.123712 -5.95088e-21)
(1.12605 0.123524 -2.5677e-21)
(1.07825 0.102916 -6.57301e-21)
(1.04533 0.0767441 9.602e-22)
(1.03338 0.0556226 -3.69454e-22)
(1.03169 0.039357 2.78432e-35)
(1.03272 0.0267666 -4.93455e-22)
(1.03508 0.0174322 -4.72714e-23)
(1.03803 0.0109421 -3.09697e-22)
(1.04092 0.00654547 -2.38475e-21)
(1.04342 0.00377222 1.40484e-21)
(1.04536 0.00210572 1.05973e-21)
(1.04671 0.00120446 2.98119e-27)
(1.04752 0.000748434 -2.32517e-22)
(1.04789 0.000556606 2.71434e-22)
(1.04793 0.000438694 7.3293e-22)
(1.04776 0.000341956 -8.60972e-23)
(1.04748 0.000130593 2.0598e-21)
(0.635067 0.146543 -1.78937e-21)
(0.649921 -0.0033731 1.66236e-20)
(0.651439 -0.115265 1.34083e-20)
(0.658589 -0.227185 1.67138e-20)
(0.67348 -0.31353 -2.505e-20)
(0.705564 -0.358436 -1.35893e-20)
(0.753366 -0.36511 -3.02907e-21)
(0.820661 -0.334765 6.91e-21)
(0.909201 -0.268669 5.39239e-20)
(1.0001 -0.174264 -9.25528e-21)
(1.08249 -0.071362 -5.16702e-35)
(1.14231 0.0263284 -3.59681e-21)
(1.17257 0.0997434 -7.29273e-20)
(1.17464 0.144433 1.60818e-20)
(1.14403 0.153515 8.86834e-21)
(1.09684 0.134679 1.16541e-21)
(1.05162 0.100956 -6.16273e-21)
(1.02747 0.0699762 -8.24434e-22)
(1.02296 0.0481466 -1.74269e-22)
(1.02532 0.0320984 4.80715e-22)
(1.02902 0.0204024 1.87935e-22)
(1.03324 0.0122135 -3.14932e-21)
(1.03736 0.00689543 1.60883e-21)
(1.04091 0.00357831 2.75514e-21)
(1.04373 0.00172739 2.06805e-22)
(1.04575 0.000807042 -7.67813e-23)
(1.04705 0.000467737 -2.22486e-22)
(1.04774 0.000409713 0)
(1.04796 0.000467262 -2.16677e-21)
(1.04786 0.000482541 -9.31824e-22)
(1.04757 0.000419417 2.07504e-21)
(1.0472 0.000172863 -2.01291e-21)
(0.654128 0.131488 -4.44908e-21)
(0.663799 -0.0152922 -1.5587e-20)
(0.658913 -0.122953 -8.51071e-21)
(0.66054 -0.232771 8.7619e-21)
(0.667541 -0.321571 3.31982e-20)
(0.689247 -0.371368 8.13306e-21)
(0.727127 -0.381517 7.1455e-21)
(0.77795 -0.358654 7.60342e-21)
(0.84785 -0.298922 4.70027e-21)
(0.938268 -0.205885 -1.35959e-20)
(1.0248 -0.0916916 -2.65138e-20)
(1.09725 0.0157562 -2.54962e-20)
(1.1442 0.10534 -7.14427e-21)
(1.16132 0.163218 2.18871e-20)
(1.14985 0.185051 2.46593e-21)
(1.11239 0.171516 -1.28019e-21)
(1.06364 0.134146 -1.77472e-21)
(1.02592 0.0913752 1.10441e-20)
(1.01272 0.0593702 1.37344e-21)
(1.01511 0.0385763 2.50008e-21)
(1.02094 0.0237395 2.23465e-21)
(1.02696 0.0136103 -3.21765e-21)
(1.03267 0.00696868 -2.00193e-21)
(1.03764 0.00305168 3.56161e-21)
(1.04158 0.00093354 1.83995e-21)
(1.04449 4.02737e-05 -9.19947e-23)
(1.04642 -0.000149764 4.07896e-22)
(1.04753 2.46841e-05 0)
(1.048 0.000299746 -2.09655e-21)
(1.04802 0.000539724 -3.57256e-22)
(1.04774 0.000625344 1.1699e-21)
(1.04731 0.00054587 -2.02022e-21)
(1.04682 0.000225164 -3.38905e-25)
(0.68293 0.113935 -4.77269e-20)
(0.687196 -0.0293215 -3.00632e-20)
(0.675042 -0.132595 4.88901e-22)
(0.670128 -0.239739 -3.55008e-21)
(0.669349 -0.328843 2.8501e-20)
(0.680691 -0.382408 2.37976e-21)
(0.70727 -0.39575 -2.40993e-21)
(0.748467 -0.375772 -1.29222e-20)
(0.801089 -0.321891 1.89062e-20)
(0.872602 -0.231413 1.75056e-21)
(0.962267 -0.117604 3.32991e-25)
(1.04121 0.00628295 4.38119e-21)
(1.10118 0.107904 3.34579e-20)
(1.13487 0.179992 -2.38065e-20)
(1.13997 0.214792 -2.30708e-21)
(1.11802 0.210613 1.12165e-20)
(1.07521 0.174417 -9.63681e-21)
(1.02997 0.122201 -2.23212e-21)
(1.00399 0.0760014 -5.43359e-26)
(1.00207 0.0462277 5.85232e-22)
(1.01006 0.0276944 -2.38403e-22)
(1.01869 0.0148788 7.00735e-23)
(1.02657 0.00681238 2.59767e-21)
(1.03333 0.00200628 1.62334e-22)
(1.03878 -0.000369233 -1.76313e-21)
(1.04283 -0.00124203 2.19399e-36)
(1.0456 -0.00119586 1.29514e-22)
(1.04727 -0.000715067 1.94206e-22)
(1.04808 -0.000106617 -1.9483e-21)
(1.04826 0.000416848 4.53884e-27)
(1.04802 0.000761745 2.09144e-21)
(1.04754 0.000851904 6.8194e-22)
(1.04696 0.000709575 5.22817e-23)
(1.04634 0.000282466 1.93544e-21)
(0.720982 0.0943591 2.77463e-20)
(0.719858 -0.0448495 2.38165e-21)
(0.699947 -0.144056 -7.18715e-21)
(0.687809 -0.247882 -3.25718e-20)
(0.679083 -0.335987 1.31456e-22)
(0.68044 -0.391501 -1.4027e-20)
(0.694843 -0.407236 2.36821e-22)
(0.725038 -0.390283 2.3645e-21)
(0.768294 -0.339361 -5.04069e-21)
(0.821525 -0.252513 -6.1346e-21)
(0.892728 -0.133823 4.01086e-21)
(0.977531 -0.0107816 1.46115e-20)
(1.04689 0.109345 2.47617e-21)
(1.09394 0.195089 -2.68049e-20)
(1.11511 0.242237 5.4252e-20)
(1.10946 0.249008 -2.03709e-20)
(1.07958 0.218433 -2.54892e-21)
(1.03576 0.161855 7.77147e-21)
(0.999472 0.101059 -2.5931e-34)
(0.98789 0.0572171 -7.43724e-21)
(0.995733 0.0317464 -2.09499e-21)
(1.00779 0.0162528 -3.22904e-21)
(1.01855 0.0060776 -1.28095e-21)
(1.02775 0.000398576 4.63958e-22)
(1.0351 -0.00239635 -1.46693e-21)
(1.04066 -0.00317825 1.26379e-22)
(1.04452 -0.00282761 1.41846e-21)
(1.04693 -0.00191482 -1.66744e-22)
(1.04819 -0.000863966 -1.61424e-21)
(1.04859 7.21992e-05 -5.19812e-27)
(1.04843 0.000744088 1.98806e-21)
(1.04791 0.0011108 -2.08009e-21)
(1.04722 0.00114127 3.64438e-35)
(1.04649 0.000896037 2.01181e-21)
(1.04574 0.0003402 0)
(0.77978 0.0674401 8.64583e-22)
(0.761217 -0.0617923 3.24613e-20)
(0.733467 -0.1563 1.65874e-20)
(0.713687 -0.25687 -2.73711e-22)
(0.696614 -0.342933 -1.89458e-20)
(0.688131 -0.398924 5.82023e-21)
(0.690944 -0.415506 4.14825e-21)
(0.708666 -0.402285 2.04314e-20)
(0.741682 -0.353622 -5.10292e-20)
(0.785758 -0.270393 6.97451e-21)
(0.838524 -0.15321 -3.18675e-21)
(0.907318 -0.0136249 -5.47908e-22)
(0.982461 0.105144 2.47543e-21)
(1.0412 0.20745 2.67966e-21)
(1.07619 0.268119 -7.14461e-21)
(1.08629 0.285633 -1.97753e-20)
(1.07186 0.262964 1.18164e-20)
(1.03744 0.207268 2.22729e-21)
(0.997845 0.135811 -4.59297e-22)
(0.975479 0.0742284 1.3912e-21)
(0.978444 0.037228 3.43419e-21)
(0.993383 0.016892 -8.30909e-22)
(1.00819 0.00493608 -3.34106e-21)
(1.02042 -0.00216615 -3.32757e-23)
(1.03035 -0.005284 2.80685e-22)
(1.03782 -0.00600364 1.44973e-22)
(1.04312 -0.00521885 1.28804e-22)
(1.04649 -0.00373611 3.53093e-23)
(1.04835 -0.00208217 -1.67605e-22)
(1.04907 -0.000597407 1.38472e-22)
(1.049 0.000538791 1.9155e-21)
(1.04846 0.00124998 -1.97223e-21)
(1.04766 0.00155565 -1.02848e-22)
(1.04677 0.00146798 -6.62397e-22)
(1.04589 0.00108902 -1.65706e-23)
(1.04503 0.000393961 -1.96941e-22)
(0.861213 0.0355598 -7.4008e-21)
(0.822321 -0.0833873 -1.43675e-22)
(0.775235 -0.168299 1.41836e-21)
(0.747245 -0.265601 1.75753e-20)
(0.721428 -0.349286 -3.04298e-20)
(0.703273 -0.404062 9.57585e-21)
(0.694634 -0.420312 1.40395e-21)
(0.700138 -0.411569 -1.61296e-21)
(0.722166 -0.365104 -3.71287e-21)
(0.756071 -0.284057 1.72229e-20)
(0.800708 -0.171194 -2.62227e-20)
(0.852681 -0.0332451 3.66537e-21)
(0.914949 0.113491 0)
(0.978774 0.216363 2.93417e-20)
(1.02571 0.290691 4.60651e-21)
(1.04971 0.319941 7.479e-21)
(1.0507 0.305978 -3.87726e-20)
(1.02992 0.254724 -2.23534e-21)
(0.995108 0.178069 3.26502e-21)
(0.965679 0.10033 -4.48848e-21)
(0.960165 0.0455707 1.57963e-21)
(0.975271 0.0175591 3.6619e-21)
(0.994531 0.00244187 5.15538e-21)
(1.01106 -0.0056507 2.69241e-21)
(1.02409 -0.00943391 -7.98462e-23)
(1.03415 -0.00993893 -1.26061e-21)
(1.04127 -0.00861899 -1.15733e-21)
(1.04594 -0.00637635 -1.65877e-21)
(1.04858 -0.00392001 -2.31713e-21)
(1.04971 -0.00169698 -7.2098e-22)
(1.0498 5.60494e-05 1.83226e-21)
(1.04922 0.0012508 -1.91902e-21)
(1.04829 0.0018906 2.1478e-27)
(1.04723 0.00205784 1.92297e-21)
(1.04616 0.00180401 3.1872e-35)
(1.04516 0.00127193 -1.68024e-22)
(1.04422 0.000439317 -8.64043e-29)
(0.94642 0.0031893 -7.71871e-20)
(0.900776 -0.104339 6.32406e-21)
(0.835625 -0.184288 0)
(0.785904 -0.27337 -2.10973e-24)
(0.752786 -0.353819 2.51419e-22)
(0.725093 -0.406913 5.14754e-21)
(0.706156 -0.422502 1.35108e-21)
(0.699581 -0.417779 -2.20962e-20)
(0.710186 -0.373737 4.10707e-20)
(0.733376 -0.29458 -6.063e-20)
(0.768145 -0.184412 -2.26098e-20)
(0.813039 -0.049247 -2.90682e-21)
(0.861803 0.0950717 9.93122e-21)
(0.914721 0.227946 -4.78443e-22)
(0.96748 0.309638 -2.05584e-20)
(1.0023 0.350502 1.75189e-20)
(1.01702 0.346047 -1.31341e-20)
(1.01083 0.301217 5.49495e-20)
(0.986516 0.224475 -9.26074e-21)
(0.956794 0.134575 -1.2274e-21)
(0.942928 0.0608135 -8.43507e-23)
(0.953953 0.0181822 -5.28321e-21)
(0.977292 -0.000957819 -8.85645e-22)
(0.998743 -0.0109361 8.4069e-22)
(1.01614 -0.0149897 -1.66494e-22)
(1.02929 -0.0153831 1.74996e-35)
(1.03888 -0.0133166 4.71738e-23)
(1.0452 -0.0100931 -5.89294e-23)
(1.04891 -0.00658495 -9.08062e-23)
(1.0506 -0.00337434 1.26299e-21)
(1.05088 -0.000794731 -4.24779e-23)
(1.05028 0.00104068 -1.85878e-21)
(1.04919 0.00214855 -1.94346e-27)
(1.04791 0.00261172 1.96901e-21)
(1.04662 0.00257466 3.17361e-23)
(1.04541 0.00212094 6.43299e-22)
(1.04432 0.00142903 6.2763e-24)
(1.04332 0.000472202 1.8717e-22)
(1.02985 -0.0245775 2.26296e-21)
(0.980227 -0.124139 1.28911e-21)
(0.909078 -0.194481 -1.28485e-20)
(0.841342 -0.281779 4.9466e-21)
(0.789485 -0.356714 4.08926e-21)
(0.752951 -0.407076 5.57588e-21)
(0.724941 -0.422585 6.80579e-21)
(0.707286 -0.420331 1.90376e-20)
(0.705814 -0.379512 -7.72042e-24)
(0.718318 -0.301854 2.48437e-20)
(0.742188 -0.194372 3.22559e-20)
(0.777992 -0.0614473 -8.93087e-21)
(0.821121 0.0833372 1.17759e-20)
(0.862992 0.220741 1.05676e-21)
(0.907629 0.32697 1.78644e-20)
(0.948136 0.377165 -3.17147e-20)
(0.973319 0.381946 -3.75888e-20)
(0.980498 0.344614 -7.44061e-21)
(0.968992 0.271263 1.57216e-21)
(0.945242 0.175157 1.23091e-21)
(0.927038 0.0830981 1.7099e-35)
(0.931473 0.0223643 3.46617e-21)
(0.955693 -0.0063533 1.18533e-21)
(0.983359 -0.0178407 -4.79872e-23)
(1.00565 -0.0226882 -1.49003e-21)
(1.02309 -0.0226504 1.46917e-21)
(1.03569 -0.019716 -2.5206e-22)
(1.04425 -0.0152232 5.05908e-22)
(1.04933 -0.0103337 -7.40117e-22)
(1.05178 -0.00583195 -9.84754e-23)
(1.05235 -0.00214157 -4.70323e-22)
(1.05172 0.000552579 -1.84758e-22)
(1.05043 0.00227678 6.05723e-23)
(1.04887 0.00315748 1.9621e-21)
(1.04729 0.00335285 0)
(1.04582 0.00306256 -2.60551e-22)
(1.04452 0.00239179 -1.69228e-21)
(1.04339 0.0015466 1.65407e-22)
(1.04237 0.000489489 1.81159e-22)
(1.10182 -0.0470354 -4.87863e-22)
(1.05423 -0.138027 -1.20746e-20)
(0.984969 -0.202488 2.7543e-21)
(0.914317 -0.282686 2.71424e-25)
(0.842026 -0.356018 7.49842e-21)
(0.785841 -0.405213 1.17994e-20)
(0.749927 -0.421108 -1.05779e-20)
(0.722692 -0.419316 3.25172e-20)
(0.709172 -0.381657 -2.09537e-20)
(0.710762 -0.305659 1.39155e-20)
(0.723895 -0.200806 -1.46898e-21)
(0.749304 -0.0707994 7.87612e-22)
(0.784714 0.073384 -6.47989e-21)
(0.823619 0.213096 1.07088e-20)
(0.857403 0.330973 1.00234e-21)
(0.891686 0.400808 -9.20465e-21)
(0.923738 0.413262 7.83978e-20)
(0.941309 0.383628 9.78503e-21)
(0.942038 0.315587 2.55112e-21)
(0.927963 0.218144 -3.09372e-20)
(0.91057 0.112804 8.80742e-21)
(0.909385 0.0311418 -1.90691e-22)
(0.930999 -0.0117458 8.73462e-22)
(0.963474 -0.0277406 -2.04443e-21)
(0.992632 -0.0326692 1.01058e-22)
(1.01488 -0.0323693 -1.8697e-22)
(1.03158 -0.0282654 7.03357e-24)
(1.04292 -0.0221835 -2.78089e-36)
(1.04989 -0.0155304 -1.79117e-22)
(1.05335 -0.00931311 -2.84385e-23)
(1.05432 -0.00416564 1.29918e-21)
(1.05366 -0.000312916 -2.43889e-21)
(1.05211 0.00223996 -6.93233e-24)
(1.05019 0.0036642 1.94998e-21)
(1.04823 0.00419407 0)
(1.04643 0.00405222 -2.03101e-22)
(1.04486 0.00348028 -1.30615e-23)
(1.04353 0.00259306 1.03619e-21)
(1.0424 0.00161403 2.28286e-22)
(1.0414 0.000489329 1.28333e-28)
(1.15198 -0.0606357 2.95436e-21)
(1.1166 -0.14536 -2.82002e-21)
(1.05479 -0.20521 1.26555e-20)
(0.985985 -0.279583 -1.86224e-20)
(0.908775 -0.348531 -4.24496e-20)
(0.83444 -0.399103 -6.65383e-21)
(0.779692 -0.41771 -1.78172e-20)
(0.744634 -0.415283 -1.2424e-20)
(0.719593 -0.379724 -1.17676e-20)
(0.710479 -0.306066 -8.81107e-20)
(0.713218 -0.203411 3.84117e-20)
(0.72823 -0.0765549 -6.71391e-20)
(0.754422 0.0652013 -1.65929e-20)
(0.787709 0.206538 -8.01832e-21)
(0.820868 0.327553 -6.55116e-21)
(0.845376 0.411856 3.22743e-20)
(0.872233 0.43864 -2.62297e-20)
(0.897411 0.417264 -2.13545e-20)
(0.907563 0.355942 1.18589e-20)
(0.903574 0.26034 4.23901e-21)
(0.891504 0.1469 -5.85351e-25)
(0.887217 0.0460448 -3.20938e-22)
(0.905216 -0.0151091 0)
(0.939793 -0.0401045 6.48111e-22)
(0.975607 -0.0460649 9.12499e-22)
(1.00461 -0.0449925 1.47892e-26)
(1.02603 -0.0395677 -3.67697e-22)
(1.04116 -0.031523 -3.99886e-22)
(1.05055 -0.0226009 5.32553e-23)
(1.05542 -0.0141848 -3.55666e-22)
(1.05694 -0.00708114 9.80098e-22)
(1.05628 -0.0016992 -3.35768e-22)
(1.05439 0.00197506 2.66546e-35)
(1.05199 0.00413356 -1.90885e-21)
(1.04953 0.00508947 -4.9241e-23)
(1.04729 0.00517259 -2.06857e-22)
(1.04536 0.00465117 7.15068e-28)
(1.04377 0.00379183 2.44199e-22)
(1.04247 0.00270665 -1.00256e-21)
(1.04138 0.00162466 -9.17395e-23)
(1.04044 0.000471221 -1.66763e-22)
(1.18617 -0.0695723 -5.0993e-21)
(1.16313 -0.146235 -3.43826e-22)
(1.11283 -0.201862 -1.1024e-21)
(1.05052 -0.271008 7.40128e-35)
(0.974965 -0.335821 3.835e-20)
(0.896377 -0.386087 1.80635e-20)
(0.823934 -0.410083 2.68918e-22)
(0.770896 -0.407669 1.21961e-20)
(0.736602 -0.373537 2.37246e-20)
(0.716321 -0.302686 -6.98824e-20)
(0.709994 -0.202428 2.76639e-20)
(0.714932 -0.0786622 -1.333e-19)
(0.731636 0.0602715 -3.76516e-20)
(0.75746 0.200156 -2.30799e-20)
(0.78747 0.324699 3.36743e-20)
(0.813742 0.413904 -2.51018e-20)
(0.830841 0.452216 2.56331e-20)
(0.852405 0.443289 2.3711e-20)
(0.869188 0.391123 2.18257e-20)
(0.873246 0.299709 -4.3776e-20)
(0.867993 0.182746 -1.0663e-20)
(0.864349 0.0661764 4.3067e-21)
(0.878515 -0.0160644 3.84225e-21)
(0.913653 -0.0534265 -6.1382e-22)
(0.954813 -0.0630423 -3.42545e-21)
(0.991094 -0.0613041 3.22498e-22)