/*--------------------------------*- C++ -*----------------------------------*\
| =========                 |                                                 |
| \\      /  F ield         | OpenFOAM: The Open Source CFD Toolbox           |
|  \\    /   O peration     | Version:  2506                                  |
|   \\  /    A nd           | Website:  www.openfoam.com                      |
|    \\/     M anipulation  |                                                 |
\*---------------------------------------------------------------------------*/
FoamFile
{
    version     2.0;
    format      ascii;
    arch        "LSB;label=32;scalar=64";
    class       volScalarField;
    location    "300";
    object      turbulenceProperties:nut;
}
// * * * * * * * * * * * * * * * * * * * * * * * * * * * * * * * * * * * * * //

dimensions      [0 2 -1 0 0 0 0];

internalField   nonuniform List<scalar> 
1340
(
6.10202e-06
6.10278e-06
6.10236e-06
6.08335e-06
6.10341e-06
6.10279e-06
6.08135e-06
6.08327e-06
6.10408e-06
6.10331e-06
6.07232e-06
6.07457e-06
6.08124e-06
6.08317e-06
6.10479e-06
6.10392e-06
6.07743e-06
6.07308e-06
6.07228e-06
6.07451e-06
6.08113e-06
6.08304e-06
6.10554e-06
6.10462e-06
6.09024e-06
6.08641e-06
6.0822e-06
6.07783e-06
6.07332e-06
6.07225e-06
6.07443e-06
6.08101e-06
6.08288e-06
6.10631e-06
6.10542e-06
6.09964e-06
6.09675e-06
6.0941e-06
6.09085e-06
6.08698e-06
6.0827e-06
6.07827e-06
6.0736e-06
6.07224e-06
6.07434e-06
6.0809e-06
6.0827e-06
6.10711e-06
6.10632e-06
6.11216e-06
6.11004e-06
6.10729e-06
6.10391e-06
6.1004e-06
6.09745e-06
6.09477e-06
6.09149e-06
6.08759e-06
6.08323e-06
6.07873e-06
6.0739e-06
6.07224e-06
6.07425e-06
6.08078e-06
6.08249e-06
6.10793e-06
6.10732e-06
6.11863e-06
6.11787e-06
6.11694e-06
6.11587e-06
6.11461e-06
6.11304e-06
6.11094e-06
6.10819e-06
6.10478e-06
6.1012e-06
6.09819e-06
6.09548e-06
6.09218e-06
6.08824e-06
6.08379e-06
6.07922e-06
6.07424e-06
6.07227e-06
6.07414e-06
6.08065e-06
6.08225e-06
6.10876e-06
6.10842e-06
6.12121e-06
6.12119e-06
6.12116e-06
6.12107e-06
6.12089e-06
6.12058e-06
6.12014e-06
6.11955e-06
6.11879e-06
6.11786e-06
6.11678e-06
6.11552e-06
6.11396e-06
6.11188e-06
6.10915e-06
6.10571e-06
6.10206e-06
6.09898e-06
6.09624e-06
6.09291e-06
6.08893e-06
6.0844e-06
6.07975e-06
6.07462e-06
6.07232e-06
6.07402e-06
6.08052e-06
6.08198e-06
6.1096e-06
6.10963e-06
6.12289e-06
6.12362e-06
6.12343e-06
6.12317e-06
6.12294e-06
6.12266e-06
6.12243e-06
6.1223e-06
6.12224e-06
6.12221e-06
6.12218e-06
6.12216e-06
6.12212e-06
6.12209e-06
6.12206e-06
6.12199e-06
6.12182e-06
6.12153e-06
6.1211e-06
6.12051e-06
6.11976e-06
6.11883e-06
6.11775e-06
6.11648e-06
6.11493e-06
6.11288e-06
6.11015e-06
6.10669e-06
6.10297e-06
6.09982e-06
6.09704e-06
6.09369e-06
6.08966e-06
6.08506e-06
6.08032e-06
6.07504e-06
6.07239e-06
6.07389e-06
6.08039e-06
6.08167e-06
6.11044e-06
6.11093e-06
6.13695e-10
3.1536e-12
0
0
0.000125853
0.000399179
0.0158993
0.0547349
0.111978
0.175245
0.234563
0.284589
0.322978
0.349269
0.364649
0.371458
0.372613
0.361597
0.32968
0.270829
0.187741
0.0989085
0.033356
0.00179944
0.000499375
0
0
0
2.05251e-09
4.87805e-07
6.351e-06
8.04607e-06
6.46633e-06
5.9143e-06
6.0353e-06
6.14107e-06
6.14148e-06
6.12823e-06
6.12611e-06
6.12569e-06
6.12431e-06
6.12359e-06
6.12354e-06
6.1235e-06
6.12335e-06
6.12322e-06
6.12316e-06
6.12314e-06
6.12311e-06
6.12308e-06
6.12305e-06
6.12302e-06
6.12295e-06
6.12279e-06
6.12252e-06
6.1221e-06
6.12152e-06
6.12078e-06
6.11985e-06
6.11876e-06
6.1175e-06
6.11596e-06
6.11392e-06
6.11122e-06
6.10774e-06
6.10395e-06
6.10071e-06
6.09789e-06
6.09452e-06
6.09045e-06
6.08576e-06
6.08093e-06
6.07551e-06
6.0725e-06
6.07376e-06
6.08024e-06
6.08134e-06
6.11127e-06
6.11233e-06
6.28037e-06
1.85976e-08
8.663e-11
0
0
8.7956e-10
0.00205196
0.00805961
0.0362823
0.0868961
0.149517
0.212188
0.267194
0.310765
0.341611
0.360313
0.369448
0.371748
0.363104
0.334776
0.279887
0.199895
0.110837
0.0391746
0.00333774
0.000936258
0
0
0
3.6614e-10
7.25019e-08
5.18554e-06
8.70125e-06
6.95701e-06
5.98711e-06
5.99698e-06
6.1212e-06
6.13227e-06
6.11898e-06
6.12187e-06
6.12695e-06
6.12673e-06
6.12492e-06
6.1242e-06
6.12423e-06
6.12427e-06
6.12421e-06
6.12414e-06
6.12411e-06
6.12408e-06
6.12405e-06
6.12402e-06
6.12396e-06
6.12382e-06
6.12356e-06
6.12315e-06
6.12259e-06
6.12185e-06
6.12093e-06
6.11983e-06
6.11857e-06
6.11704e-06
6.11502e-06
6.11234e-06
6.10885e-06
6.10499e-06
6.10166e-06
6.09879e-06
6.0954e-06
6.09129e-06
6.08651e-06
6.08159e-06
6.07602e-06
6.07266e-06
6.07363e-06
6.08009e-06
6.081e-06
6.11209e-06
6.11382e-06
7.95728e-06
6.38449e-06
1.12111e-07
5.17396e-10
0
0
0
0.000602604
0.00220876
0.020738
0.0625539
0.121973
0.186728
0.246582
0.295768
0.331867
0.354874
0.366913
0.370529
0.364179
0.339357
0.288508
0.211772
0.122774
0.0468567
0.00646728
0.00174466
0
0
0
3.13139e-12
1.74008e-10
2.87284e-06
8.2458e-06
7.27751e-06
6.07727e-06
6.00103e-06
6.1675e-06
6.18167e-06
6.13307e-06
6.11529e-06
6.12151e-06
6.1271e-06
6.12708e-06
6.12568e-06
6.12513e-06
6.12516e-06
6.12521e-06
6.12519e-06
6.12514e-06
6.1251e-06
6.12507e-06
6.12501e-06
6.12489e-06
6.12464e-06
6.12426e-06
6.12371e-06
6.12298e-06
6.12206e-06
6.12096e-06
6.11969e-06
6.11817e-06
6.11618e-06
6.11352e-06
6.11003e-06
6.10609e-06
6.10268e-06
6.09975e-06
6.09633e-06
6.09218e-06
6.08733e-06
6.08229e-06
6.07658e-06
6.07285e-06
6.07349e-06
6.07992e-06
6.08066e-06
6.11288e-06
6.1154e-06
6.22144e-06
7.81436e-06
6.35838e-06
4.91089e-07
2.29035e-09
0
0
0
9.92005e-07
2.11076e-15
0.0108831
0.0417673
0.0947188
0.159331
0.223348
0.278385
0.320312
0.348189
0.363476
0.368511
0.364319
0.342936
0.296197
0.222706
0.133872
0.0546981
0.00992405
0.00262132
0
0
0
2.47852e-16
8.22434e-09
2.00519e-06
7.92103e-06
7.65586e-06
5.99529e-06
5.68682e-06
5.99005e-06
6.1819e-06
6.17786e-06
6.13298e-06
6.11834e-06
6.12276e-06
6.12704e-06
6.12734e-06
6.12653e-06
6.1262e-06
6.12623e-06
6.12626e-06
6.12622e-06
6.12618e-06
6.12612e-06
6.12601e-06
6.12579e-06
6.12542e-06
6.12488e-06
6.12416e-06
6.12325e-06
6.12215e-06
6.12088e-06
6.11936e-06
6.1174e-06
6.11477e-06
6.11128e-06
6.10728e-06
6.10376e-06
6.10077e-06
6.09733e-06
6.09314e-06
6.0882e-06
6.08305e-06
6.0772e-06
6.0731e-06
6.07336e-06
6.07973e-06
6.0803e-06
6.11362e-06
6.11705e-06
6.01225e-06
6.22905e-06
7.46448e-06
6.46182e-06
1.86203e-06
8.54488e-09
4.63335e-16
0
0
3.31981e-23
0.00100429
0.00377562
0.0242948
0.0676872
0.128617
0.195293
0.256726
0.306088
0.340579
0.360459
0.367904
0.36554
0.347312
0.304789
0.234857
0.146694
0.0641621
0.0131617
0.00385081
0.000107998
0
0
0
3.31799e-09
7.51804e-07
6.97176e-06
9.68506e-06
7.55034e-06
6.03086e-06
5.8005e-06
6.01917e-06
6.16107e-06
6.16548e-06
6.13528e-06
6.12323e-06
6.12506e-06
6.12774e-06
6.12801e-06
6.12753e-06
6.12734e-06
6.12735e-06
6.12734e-06
6.12729e-06
6.12719e-06
6.12698e-06
6.12663e-06
6.12612e-06
6.12541e-06
6.12451e-06
6.12341e-06
6.12213e-06
6.12062e-06
6.11869e-06
6.11609e-06
6.11261e-06
6.10854e-06
6.10492e-06
6.10186e-06
6.09838e-06
6.09416e-06
6.08913e-06
6.08387e-06
6.07788e-06
6.0734e-06
6.07324e-06
6.07954e-06
6.07995e-06
6.11436e-06
6.11883e-06
6.13228e-06
6.06443e-06
6.20346e-06
6.76348e-06
6.65237e-06
4.58011e-06
1.85359e-07
8.93649e-10
2.25416e-18
0
0
0.000168359
0.000608168
0.00985224
0.0348731
0.0798562
0.139406
0.203623
0.262687
0.309889
0.342145
0.35964
0.36318
0.352475
0.320846
0.263457
0.184711
0.101521
0.0398892
0.0056662
0.00190411
1.25078e-05
0
0
6.38503e-13
2.18444e-09
3.01504e-07
4.66664e-06
8.42893e-06
7.56774e-06
6.21592e-06
5.85192e-06
5.99388e-06
6.13671e-06
6.15844e-06
6.13627e-06
6.12547e-06
6.12678e-06
6.12904e-06
6.12928e-06
6.1289e-06
6.12875e-06
6.12874e-06
6.12868e-06
6.12851e-06
6.12819e-06
6.12769e-06
6.127e-06
6.1261e-06
6.125e-06
6.12371e-06
6.1222e-06
6.12029e-06
6.11773e-06
6.11426e-06
6.11012e-06
6.10637e-06
6.1032e-06
6.09968e-06
6.09541e-06
6.09028e-06
6.08486e-06
6.07871e-06
6.0738e-06
6.0731e-06
6.07933e-06
6.07958e-06
6.11502e-06
6.12073e-06
6.13763e-06
6.1336e-06
6.08001e-06
6.13071e-06
6.38606e-06
7.23732e-06
6.07847e-06
3.18068e-06
1.53401e-09
9.56377e-12
0
0
1.32139e-09
4.63722e-05
0.00228657
0.00846149
0.0312169
0.0730747
0.130254
0.193837
0.253839
0.302706
0.336601
0.354507
0.356484
0.340625
0.301018
0.236222
0.156711
0.0812467
0.0291584
0.00242788
0.000897251
1.70447e-07
0
0
1.47362e-13
2.21267e-09
4.13328e-07
5.61386e-06
8.78688e-06
7.44113e-06
6.11993e-06
5.87735e-06
6.04862e-06
6.15718e-06
6.15475e-06
6.13262e-06
6.12722e-06
6.12975e-06
6.13116e-06
6.131e-06
6.13068e-06
6.13053e-06
6.13036e-06
6.13007e-06
6.12961e-06
6.12894e-06
6.12805e-06
6.12694e-06
6.12564e-06
6.12411e-06
6.12221e-06
6.11969e-06
6.11625e-06
6.11203e-06
6.10812e-06
6.10481e-06
6.1012e-06
6.09688e-06
6.09163e-06
6.08603e-06
6.07969e-06
6.07432e-06
6.07298e-06
6.07909e-06
6.07925e-06
6.11567e-06
6.12273e-06
6.1265e-06
6.13146e-06
6.12584e-06
6.10543e-06
6.09408e-06
6.28232e-06
6.76681e-06
7.28284e-06
5.3647e-06
8.94128e-07
4.20725e-09
1.36837e-16
0
0
0
3.68514e-05
0.00198646
0.00726927
0.0290545
0.0699418
0.126622
0.190423
0.251192
0.300854
0.334863
0.350919
0.348756
0.324818
0.275285
0.204346
0.126063
0.0586388
0.015978
0.000732631
0.000306274
0
0
0
2.50634e-13
5.83006e-09
1.23095e-06
7.29791e-06
8.38375e-06
6.70005e-06
5.90195e-06
5.94266e-06
6.11681e-06
6.16245e-06
6.1427e-06
6.12989e-06
6.13015e-06
6.13214e-06
6.13259e-06
6.13253e-06
6.13241e-06
6.13212e-06
6.13164e-06
6.13097e-06
6.1301e-06
6.12899e-06
6.12767e-06
6.12612e-06
6.12423e-06
6.12176e-06
6.11835e-06
6.11407e-06
6.11001e-06
6.10653e-06
6.10283e-06
6.09845e-06
6.09309e-06
6.0873e-06
6.08077e-06
6.07495e-06
6.0729e-06
6.07883e-06
6.07891e-06
6.11623e-06
6.12476e-06
6.12425e-06
6.12661e-06
6.12563e-06
6.11632e-06
6.08879e-06
6.1658e-06
6.40479e-06
7.2346e-06
6.75545e-06
4.10516e-06
7.38862e-08
3.61128e-10
0
0
0
0
2.86738e-05
0.0019675
0.00722397
0.0291356
0.0703832
0.12768
0.192258
0.253548
0.302702
0.334574
0.345734
0.336316
0.302447
0.243758
0.168815
0.0934221
0.0374685
0.00641547
0.00189885
8.29228e-06
0
0
0
5.83784e-10
1.0989e-07
4.48757e-06
8.67227e-06
7.55744e-06
6.16295e-06
5.89884e-06
6.06205e-06
6.15827e-06
6.15416e-06
6.13758e-06
6.13426e-06
6.13487e-06
6.13452e-06
6.13409e-06
6.134e-06
6.13376e-06
6.13316e-06
6.13227e-06
6.13115e-06
6.12981e-06
6.12825e-06
6.12636e-06
6.12393e-06
6.12057e-06
6.11625e-06
6.11205e-06
6.10839e-06
6.10457e-06
6.10013e-06
6.09467e-06
6.08869e-06
6.08194e-06
6.0757e-06
6.07288e-06
6.07853e-06
6.07854e-06
6.11666e-06
6.12678e-06
6.1227e-06
6.12325e-06
6.12413e-06
6.12625e-06
6.11706e-06
6.10519e-06
6.08118e-06
6.25179e-06
6.68523e-06
7.33047e-06
5.96833e-06
1.54169e-06
7.29101e-09
2.65654e-16
0
0
0
0
3.25517e-05
0.00220152
0.00817128
0.0314496
0.0745419
0.133603
0.199237
0.26015
0.306761
0.33368
0.338073
0.31897
0.274066
0.206609
0.129795
0.0618878
0.0183779
0.00192346
0.000572792
0
0
0
8.25617e-14
6.60571e-09
1.47055e-06
7.52528e-06
8.15396e-06
6.54415e-06
5.91624e-06
5.99855e-06
6.12926e-06
6.1468e-06
6.13372e-06
6.13373e-06
6.13788e-06
6.13817e-06
6.1367e-06
6.13578e-06
6.13525e-06
6.13452e-06
6.13343e-06
6.13207e-06
6.13049e-06
6.1286e-06
6.12621e-06
6.12291e-06
6.11858e-06
6.11425e-06
6.1104e-06
6.10643e-06
6.10192e-06
6.09636e-06
6.0902e-06
6.08323e-06
6.07657e-06
6.07293e-06
6.07822e-06
6.07815e-06
6.11697e-06
6.12878e-06
6.12253e-06
6.12269e-06
6.12286e-06
6.1237e-06
6.12457e-06
6.1228e-06
6.10956e-06
6.08282e-06
6.12569e-06
6.35028e-06
7.07542e-06
6.95954e-06
4.50397e-06
1.13935e-07
5.62984e-10
1.33961e-19
0
0
0
0
8.86986e-05
0.000107629
0.00995301
0.0361029
0.082584
0.144366
0.21084
0.269833
0.311784
0.330986
0.326087
0.295104
0.238262
0.164203
0.0899059
0.0351806
0.00552333
0.00161354
0
0
0
0
1.82424e-09
4.11724e-07
5.68533e-06
8.55586e-06
7.05788e-06
6.0536e-06
6.01483e-06
6.16451e-06
6.18057e-06
6.14125e-06
6.1275e-06
6.13372e-06
6.13893e-06
6.13919e-06
6.13794e-06
6.13686e-06
6.13579e-06
6.13447e-06
6.13287e-06
6.13098e-06
6.12862e-06
6.12539e-06
6.12108e-06
6.11664e-06
6.1126e-06
6.10845e-06
6.10386e-06
6.09821e-06
6.09186e-06
6.08465e-06
6.0776e-06
6.07308e-06
6.07787e-06
6.07773e-06
6.11709e-06
6.13075e-06
6.12284e-06
6.12296e-06
6.12309e-06
6.12318e-06
6.12371e-06
6.12429e-06
6.12547e-06
6.11644e-06
6.10004e-06
6.07056e-06
6.20597e-06
6.56766e-06
7.40209e-06
5.75151e-06
2.40724e-06
4.63455e-11
5.48978e-13
0
0
0
0
7.36111e-12
8.08993e-05
0.00331389
0.0125116
0.0438854
0.0951764
0.160106
0.226479
0.281373
0.315822
0.324675
0.307551
0.262837
0.194998
0.118862
0.0536984
0.0143241
0.00389723
3.30879e-05
0
0
0
1.43064e-10
2.4208e-08
3.27602e-06
8.25012e-06
7.3583e-06
5.91654e-06
5.75924e-06
6.06278e-06
6.21e-06
6.18714e-06
6.14617e-06
6.13552e-06
6.13831e-06
6.14017e-06
6.13962e-06
6.13835e-06
6.13693e-06
6.13532e-06
6.13342e-06
6.13109e-06
6.12794e-06
6.12368e-06
6.11917e-06
6.11493e-06
6.11057e-06
6.10587e-06
6.10014e-06
6.09361e-06
6.08616e-06
6.07871e-06
6.07334e-06
6.07756e-06
6.0773e-06
6.11718e-06
6.13264e-06
6.12341e-06
6.12352e-06
6.12364e-06
6.12374e-06
6.12389e-06
6.12404e-06
6.12488e-06
6.12561e-06
6.12426e-06
6.10926e-06
6.08509e-06
6.09275e-06
6.35459e-06
6.92768e-06
7.29387e-06
4.48504e-06
6.58483e-07
3.11605e-09
7.92085e-16
0
0
0
0
0
0.000540353
0.00172533
0.0182312
0.0555793
0.112752
0.180414
0.244623
0.292291
0.315325
0.311081
0.278259
0.218851
0.144038
0.0728388
0.0245433
0.00285129
0.000693076
0
0
0
2.33639e-14
6.89143e-09
1.62531e-06
9.16258e-06
9.6627e-06
6.93029e-06
5.76992e-06
5.8222e-06
6.07665e-06
6.16888e-06
6.16065e-06
6.14512e-06
6.14145e-06
6.14166e-06
6.14115e-06
6.13982e-06
6.13814e-06
6.13621e-06
6.1339e-06
6.13084e-06
6.12665e-06
6.12211e-06
6.11769e-06
6.11309e-06
6.10824e-06
6.10241e-06
6.09572e-06
6.08799e-06
6.0802e-06
6.07385e-06
6.07712e-06
6.07677e-06
6.11663e-06
6.1346e-06
6.12387e-06
6.12398e-06
6.1241e-06
6.12423e-06
6.12436e-06
6.12448e-06
6.12462e-06
6.1251e-06
6.12601e-06
6.12685e-06
6.11976e-06
6.09961e-06
6.07035e-06
6.19433e-06
6.57799e-06
7.40415e-06
6.56076e-06
3.43112e-06
2.13334e-07
1.05562e-09
7.47093e-16
0
0
0
0
3.8994e-07
0.00147572
0.00543104
0.0279081
0.0732124
0.137411
0.208262
0.270011
0.30983
0.319747
0.298725
0.246751
0.171745
0.0929252
0.029788
0.00141317
0.00137543
0.000441683
0.000134091
1.93061e-06
0
2.07738e-12
1.20742e-08
2.42868e-06
8.63523e-06
8.31117e-06
6.66457e-06
6.05869e-06
6.05281e-06
6.12815e-06
6.15065e-06
6.14778e-06
6.14432e-06
6.14304e-06
6.14192e-06
6.14032e-06
6.13838e-06
6.13607e-06
6.13309e-06
6.12898e-06
6.12443e-06
6.11985e-06
6.11504e-06
6.11004e-06
6.10416e-06
6.09729e-06
6.08941e-06
6.08117e-06
6.07425e-06
6.07704e-06
6.07645e-06
6.11723e-06
6.13603e-06
6.12433e-06
6.12448e-06
6.12464e-06
6.12482e-06
6.125e-06
6.12519e-06
6.12537e-06
6.12557e-06
6.1258e-06
6.1267e-06
6.12765e-06
6.12814e-06
6.11336e-06
6.09276e-06
6.07717e-06
6.30516e-06
6.835e-06
7.40539e-06
6.33422e-06
3.30159e-06
1.60574e-07
6.14269e-10
0
0
0
0
0
2.79133e-05
0.00167763
0.00573863
0.0271131
0.0680071
0.124436
0.186236
0.24049
0.276208
0.28518
0.264796
0.216794
0.151328
0.0882527
0.0428339
0.0172139
0.00548635
0.00102855
0.000226917
0
0
2.46149e-09
5.07574e-07
3.91841e-06
6.34483e-06
6.50431e-06
6.23876e-06
6.14111e-06
6.14047e-06
6.1488e-06
6.14983e-06
6.14846e-06
6.147e-06
6.14539e-06
6.14343e-06
6.14111e-06
6.1382e-06
6.13426e-06
6.1298e-06
6.12506e-06
6.11982e-06
6.11445e-06
6.10829e-06
6.10128e-06
6.09282e-06
6.08428e-06
6.0756e-06
6.07701e-06
6.07572e-06
6.11454e-06
6.13958e-06
)
;

boundaryField
{
    inlet
    {
        type            freestream;
        freestreamValue uniform 1e-05;
        value           nonuniform List<scalar> 
27
(
6.10202e-06
6.10236e-06
6.10279e-06
6.10331e-06
6.10392e-06
6.10462e-06
6.10542e-06
6.10632e-06
6.10732e-06
6.10842e-06
6.10963e-06
6.11093e-06
6.11233e-06
6.11382e-06
6.1154e-06
6.11705e-06
6.11883e-06
6.12073e-06
6.12273e-06
6.12476e-06
6.12678e-06
6.12878e-06
6.13075e-06
6.13264e-06
6.1346e-06
6.13603e-06
6.13958e-06
)
;
    }
    outlet
    {
        type            freestream;
        freestreamValue uniform 1e-05;
        value           nonuniform List<scalar> 
78
(
6.12433e-06
6.12448e-06
6.12464e-06
6.12482e-06
6.125e-06
6.12519e-06
6.12537e-06
6.12557e-06
6.1258e-06
6.1267e-06
6.12765e-06
6.12814e-06
6.11336e-06
6.09276e-06
6.07717e-06
6.30516e-06
6.835e-06
7.40539e-06
6.33422e-06
3.30159e-06
1.60574e-07
6.14269e-10
0
0
0
0
0
2.79133e-05
0.00167763
0.00573863
0.0271131
0.0680071
0.124436
0.186236
0.24049
0.276208
0.28518
0.264796
0.216794
0.151328
0.0882527
0.0428339
0.0172139
0.00548635
0.00102855
0.000226917
0
0
2.46149e-09
5.07574e-07
3.91841e-06
6.34483e-06
6.50431e-06
6.23876e-06
6.14111e-06
6.14047e-06
6.1488e-06
6.14983e-06
6.14846e-06
6.147e-06
6.14539e-06
6.14343e-06
6.14111e-06
6.1382e-06
6.13426e-06
6.1298e-06
6.12506e-06
6.11982e-06
6.11445e-06
6.10829e-06
6.10128e-06
6.09282e-06
6.08428e-06
6.0756e-06
6.07701e-06
6.07572e-06
6.11454e-06
6.13958e-06
)
;
    }
    walls
    {
        type            nutUSpaldingWallFunction;
        value           nonuniform List<scalar> 0();
    }
    frontAndBack
    {
        type            empty;
    }
    procBoundary7to3
    {
        type            processor;
        value           nonuniform List<scalar> 
16
(
5.07019e-06
7.97876e-06
6.28364e-06
6.00699e-06
6.12815e-06
6.14512e-06
6.13087e-06
6.12545e-06
6.12356e-06
6.12356e-06
6.1226e-06
6.12239e-06
6.12273e-06
6.12333e-06
6.12378e-06
6.12421e-06
)
;
    }
    procBoundary7to6
    {
        type            processor;
        value           nonuniform List<scalar> 
91
(
6.1018e-06
6.10218e-06
6.10218e-06
6.08342e-06
6.08342e-06
6.08146e-06
6.08146e-06
6.07236e-06
6.07463e-06
6.07463e-06
6.07705e-06
6.07287e-06
6.07287e-06
6.08966e-06
6.08587e-06
6.08174e-06
6.08174e-06
6.09893e-06
6.09609e-06
6.09347e-06
6.09347e-06
6.11132e-06
6.10919e-06
6.10644e-06
6.10309e-06
6.10309e-06
6.11776e-06
6.11699e-06
6.11607e-06
6.115e-06
6.11374e-06
6.11374e-06
6.12035e-06
6.12032e-06
6.12029e-06
6.1202e-06
6.12e-06
6.11969e-06
6.11924e-06
6.11924e-06
6.12376e-06
6.12315e-06
6.12257e-06
6.12214e-06
6.12183e-06
6.12162e-06
6.12148e-06
6.12138e-06
6.12132e-06
6.12129e-06
6.12127e-06
6.12125e-06
6.12125e-06
3.18259e-18
0
0
0.00117306
0.00459541
0.0285317
0.0758298
0.136556
0.198397
0.253748
0.299021
0.332772
0.355141
0.367929
0.373718
0.373517
0.359784
0.324089
0.261342
0.175539
0.0869057
0.0255708
0.00271285
0.000667273
0
0
0
4.60895e-09
1.12705e-06
7.09122e-06
7.66577e-06
6.29637e-06
5.96281e-06
6.08633e-06
6.14727e-06
6.13444e-06
6.12326e-06
6.12326e-06
)
;
    }
}


// ************************************************************************* //
