/*--------------------------------*- C++ -*----------------------------------*\
| =========                 |                                                 |
| \\      /  F ield         | OpenFOAM: The Open Source CFD Toolbox           |
|  \\    /   O peration     | Version:  2506                                  |
|   \\  /    A nd           | Website:  www.openfoam.com                      |
|    \\/     M anipulation  |                                                 |
\*---------------------------------------------------------------------------*/
FoamFile
{
    version     2.0;
    format      ascii;
    arch        "LSB;label=32;scalar=64";
    class       volScalarField;
    location    "300";
    object      turbulenceProperties:k;
}
// * * * * * * * * * * * * * * * * * * * * * * * * * * * * * * * * * * * * * //

dimensions      [0 2 -2 0 0 0 0];

internalField   nonuniform List<scalar> 
1340
(
9.39786e-07
7.14194e-07
9.53496e-07
6.9258e-07
6.91958e-07
9.53199e-07
2.89027e-07
6.83689e-07
6.77234e-07
9.57117e-07
2.58203e-07
4.74064e-07
2.86325e-07
6.76582e-07
6.64687e-07
9.63578e-07
3.67477e-07
4.31716e-07
2.5044e-07
4.65333e-07
2.83528e-07
6.70162e-07
6.54536e-07
9.70138e-07
5.18317e-07
4.54975e-07
4.5498e-07
3.5275e-07
4.19677e-07
2.42294e-07
4.56807e-07
2.80811e-07
6.64648e-07
6.47241e-07
9.76278e-07
5.9881e-07
5.61899e-07
5.17267e-07
4.95712e-07
4.34582e-07
4.38051e-07
3.37799e-07
4.07514e-07
2.33884e-07
4.48676e-07
2.78156e-07
6.60169e-07
6.42636e-07
9.81884e-07
7.5989e-07
7.08138e-07
6.58528e-07
6.11436e-07
5.6542e-07
5.32508e-07
4.90738e-07
4.72794e-07
4.14002e-07
4.20866e-07
3.22718e-07
3.95287e-07
2.25271e-07
4.40869e-07
2.7558e-07
6.56481e-07
6.40097e-07
9.87782e-07
9.61305e-07
9.059e-07
8.52343e-07
8.00772e-07
7.51258e-07
7.03831e-07
6.58564e-07
6.14837e-07
5.73299e-07
5.31895e-07
5.02904e-07
4.63997e-07
4.49564e-07
3.93231e-07
4.0342e-07
3.07505e-07
3.82952e-07
2.16477e-07
4.3323e-07
2.73131e-07
6.53314e-07
6.39186e-07
9.93012e-07
1.21794e-06
1.16724e-06
1.11637e-06
1.06555e-06
1.01509e-06
9.65239e-07
9.16228e-07
8.6826e-07
8.21507e-07
7.76083e-07
7.32093e-07
6.8964e-07
6.48741e-07
6.09587e-07
5.7146e-07
5.35264e-07
4.98365e-07
4.732e-07
4.37148e-07
4.2611e-07
3.72346e-07
3.85765e-07
2.92223e-07
3.70515e-07
2.07557e-07
4.25691e-07
2.70795e-07
6.50554e-07
6.4038e-07
9.98179e-07
1.46226e-06
1.43856e-06
1.41322e-06
1.38612e-06
1.35719e-06
1.3264e-06
1.2938e-06
1.25947e-06
1.22354e-06
1.18619e-06
1.14759e-06
1.10792e-06
1.06744e-06
1.02635e-06
9.84929e-07
9.43355e-07
9.01889e-07
8.60743e-07
8.2012e-07
7.80197e-07
7.41119e-07
7.02986e-07
6.65873e-07
6.29887e-07
5.95025e-07
5.61575e-07
5.28723e-07
4.97611e-07
4.6508e-07
4.43614e-07
4.10389e-07
4.0259e-07
3.51488e-07
3.67999e-07
2.76966e-07
3.58017e-07
1.986e-07
4.18271e-07
2.68518e-07
6.48142e-07
6.42693e-07
1.00327e-06
7.79871e-09
5.01722e-10
0
0
3.51539e-05
7.12702e-05
0.00678074
0.0868343
0.337218
0.747968
1.18704
1.49451
1.54682
1.28623
0.74009
0.0779823
0.720612
1.25806
1.42274
1.16055
0.645777
0.209303
0.0291164
0.000265171
3.06614e-05
0
0
0
2.96329e-08
4.06501e-07
1.42099e-06
1.57325e-06
1.3778e-06
1.29165e-06
1.28471e-06
1.27825e-06
1.26104e-06
1.2422e-06
1.22384e-06
1.20454e-06
1.18376e-06
1.16148e-06
1.13768e-06
1.11229e-06
1.08536e-06
1.05697e-06
1.0273e-06
9.96484e-07
9.64669e-07
9.32044e-07
8.98813e-07
8.65184e-07
8.31315e-07
7.97424e-07
7.63693e-07
7.30287e-07
6.97361e-07
6.65038e-07
6.33386e-07
6.02453e-07
5.72344e-07
5.43013e-07
5.14841e-07
4.86914e-07
4.60599e-07
4.32264e-07
4.14342e-07
3.83899e-07
3.79157e-07
3.30779e-07
3.50211e-07
2.61846e-07
3.45462e-07
1.89675e-07
4.1082e-07
2.66377e-07
6.45927e-07
6.46294e-07
1.00832e-06
8.17843e-07
3.72974e-08
2.41084e-09
0
0
5.33881e-08
0.000498055
0.000854164
0.0346649
0.190843
0.514749
0.923736
1.26597
1.40401
1.25785
0.827332
0.205173
0.490442
1.03673
1.26925
1.10232
0.6591
0.236533
0.0372312
0.000649702
5.54491e-05
0
0
0
1.0846e-08
1.32718e-07
1.06943e-06
1.36761e-06
1.19496e-06
1.08564e-06
1.07015e-06
1.06755e-06
1.055e-06
1.03977e-06
1.02521e-06
1.00982e-06
9.92732e-07
9.74154e-07
9.54284e-07
9.33127e-07
9.10681e-07
8.8707e-07
8.62432e-07
8.3689e-07
8.10606e-07
7.83761e-07
7.56525e-07
7.2904e-07
7.0149e-07
6.74023e-07
6.46786e-07
6.19902e-07
5.9347e-07
5.6754e-07
5.42118e-07
5.17304e-07
4.93003e-07
4.69674e-07
4.46302e-07
4.24476e-07
4.00136e-07
3.8558e-07
3.57853e-07
3.55967e-07
3.10369e-07
3.3252e-07
2.46945e-07
3.32894e-07
1.80798e-07
4.03422e-07
2.64166e-07
6.43792e-07
6.49973e-07
1.01367e-06
8.35953e-07
7.20425e-07
8.61276e-08
5.00037e-09
0
0
0
0.00014943
0.00024894
0.00992967
0.0936491
0.326682
0.684833
1.04045
1.24739
1.204
0.883697
0.347628
0.289442
0.833213
1.11976
1.03792
0.664871
0.261634
0.0476807
0.00159649
8.57769e-05
0
0
0
8.55942e-10
5.42679e-09
6.52735e-07
1.10677e-06
1.02412e-06
9.15887e-07
8.95122e-07
8.96282e-07
8.86783e-07
8.72015e-07
8.58552e-07
8.45798e-07
8.3188e-07
8.16384e-07
7.99615e-07
7.81771e-07
7.62938e-07
7.4321e-07
7.22681e-07
7.0151e-07
6.79849e-07
6.57855e-07
6.35657e-07
6.13406e-07
5.91227e-07
5.69251e-07
5.47571e-07
5.26278e-07
5.05372e-07
4.84863e-07
4.64809e-07
4.45058e-07
4.26168e-07
4.07001e-07
3.89323e-07
3.68804e-07
3.57415e-07
3.32355e-07
3.33088e-07
2.90342e-07
3.14927e-07
2.32345e-07
3.20355e-07
1.72043e-07
3.95716e-07
2.61823e-07
6.42239e-07
6.53813e-07
1.01933e-06
6.51883e-07
7.22623e-07
6.58468e-07
1.61278e-07
8.79508e-09
0
0
0
1.82611e-06
7.88129e-11
0.00163825
0.0387083
0.188409
0.479829
0.826978
1.08464
1.13057
0.911551
0.461707
0.123448
0.652216
0.979137
0.970415
0.662681
0.282031
0.0581669
0.00283951
0.000120456
0
0
0
7.0201e-12
3.21896e-08
4.44478e-07
8.87633e-07
8.77111e-07
7.65087e-07
7.3208e-07
7.40887e-07
7.43725e-07
7.34209e-07
7.2126e-07
7.09099e-07
6.97035e-07
6.83976e-07
6.69707e-07
6.54483e-07
6.38517e-07
6.21894e-07
6.04748e-07
5.87202e-07
5.69418e-07
5.51501e-07
5.33583e-07
5.15795e-07
4.98224e-07
4.80963e-07
4.64057e-07
4.47523e-07
4.31318e-07
4.15474e-07
3.99803e-07
3.84896e-07
3.69567e-07
3.55681e-07
3.38702e-07
3.3029e-07
3.07761e-07
3.10908e-07
2.70893e-07
2.97797e-07
2.18035e-07
3.08081e-07
1.62823e-07
3.88525e-07
2.58574e-07
6.40642e-07
6.58276e-07
1.02713e-06
5.72278e-07
5.67689e-07
6.35474e-07
5.80344e-07
2.77245e-07
1.48424e-08
3.19556e-12
0
0
7.9819e-15
0.000223989
0.00026234
0.0115227
0.0915731
0.301162
0.613214
0.905582
1.03885
0.927044
0.571332
0.075733
0.471058
0.836513
0.90284
0.66477
0.310115
0.0737699
0.00472531
0.00011471
1.04446e-05
0
0
0
1.94126e-08
2.34799e-07
6.74904e-07
8.04716e-07
7.10321e-07
6.26582e-07
6.05244e-07
6.08325e-07
6.07541e-07
5.99215e-07
5.88244e-07
5.77275e-07
5.66117e-07
5.54256e-07
5.41606e-07
5.28367e-07
5.1475e-07
5.00803e-07
4.86706e-07
4.72561e-07
4.58468e-07
4.44565e-07
4.30909e-07
4.176e-07
4.04619e-07
3.92031e-07
3.79741e-07
3.67741e-07
3.55852e-07
3.44623e-07
3.32854e-07
3.22559e-07
3.08959e-07
3.03357e-07
2.83441e-07
2.88687e-07
2.51755e-07
2.80308e-07
2.04378e-07
2.95055e-07
1.54863e-07
3.80105e-07
2.56207e-07
6.38007e-07
6.62329e-07
1.03203e-06
5.05565e-07
4.89337e-07
4.98021e-07
5.13152e-07
4.9344e-07
3.82976e-07
6.41314e-08
3.67943e-09
1.77843e-13
0
0
2.71345e-05
8.29767e-05
0.00107768
0.0224528
0.112674
0.307996
0.570724
0.790892
0.849838
0.685199
0.322891
0.14518
0.54419
0.742091
0.663335
0.398118
0.145138
0.0268486
0.00089404
9.7848e-05
1.89916e-06
0
0
2.38376e-10
1.19153e-08
1.16123e-07
4.28525e-07
5.8072e-07
5.53161e-07
4.97265e-07
4.76064e-07
4.75242e-07
4.74288e-07
4.67993e-07
4.59196e-07
4.50145e-07
4.40935e-07
4.31316e-07
4.21315e-07
4.11006e-07
4.00624e-07
3.90275e-07
3.80059e-07
3.70042e-07
3.60318e-07
3.50981e-07
3.41996e-07
3.33421e-07
3.25123e-07
3.17109e-07
3.09139e-07
3.01755e-07
2.93749e-07
2.87139e-07
2.77338e-07
2.74449e-07
2.57844e-07
2.646e-07
2.32235e-07
2.60608e-07
1.91835e-07
2.78219e-07
1.48828e-07
3.6235e-07
2.44163e-07
6.09345e-07
6.29229e-07
9.5867e-07
4.29051e-07
4.20287e-07
4.20943e-07
4.15979e-07
4.12664e-07
4.33315e-07
3.88065e-07
2.53522e-07
4.3098e-09
3.01062e-10
0
0
2.78781e-08
1.02552e-05
0.000308466
0.000754264
0.0168569
0.0872457
0.245282
0.465026
0.652283
0.697452
0.542965
0.216832
0.180909
0.496872
0.609019
0.490933
0.263295
0.0851981
0.0133352
0.000207657
4.65233e-05
1.7003e-07
0
0
8.58124e-11
8.87528e-09
9.99454e-08
3.48463e-07
4.42985e-07
4.11138e-07
3.69916e-07
3.5746e-07
3.57464e-07
3.55414e-07
3.49618e-07
3.42678e-07
3.35807e-07
3.28874e-07
3.21763e-07
3.1465e-07
3.07625e-07
3.00868e-07
2.94424e-07
2.88385e-07
2.82829e-07
2.77716e-07
2.73114e-07
2.68822e-07
2.64863e-07
2.60921e-07
2.57501e-07
2.53423e-07
2.506e-07
2.44708e-07
2.44715e-07
2.31515e-07
2.40046e-07
2.11956e-07
2.41187e-07
1.78129e-07
2.63686e-07
1.42345e-07
3.52823e-07
2.4483e-07
6.06794e-07
6.43777e-07
9.66693e-07
3.57986e-07
3.52389e-07
3.55641e-07
3.51733e-07
3.43054e-07
3.40578e-07
3.50065e-07
3.61725e-07
2.94494e-07
9.92527e-08
5.27657e-09
1.01804e-12
0
0
0
9.80513e-06
0.000287292
0.000506379
0.0140018
0.0750995
0.213806
0.405732
0.562385
0.582235
0.418392
0.111428
0.231008
0.462211
0.492475
0.34859
0.161366
0.0427629
0.00432815
1.17321e-05
1.75938e-05
0
0
0
8.29524e-11
9.98848e-09
1.20702e-07
2.88735e-07
3.17709e-07
2.85609e-07
2.64883e-07
2.61455e-07
2.61031e-07
2.57709e-07
2.52712e-07
2.47609e-07
2.42769e-07
2.38102e-07
2.33632e-07
2.29594e-07
2.26038e-07
2.23059e-07
2.20717e-07
2.18989e-07
2.17877e-07
2.17181e-07
2.16892e-07
2.16621e-07
2.16802e-07
2.16281e-07
2.16872e-07
2.14441e-07
2.17103e-07
2.07016e-07
2.1723e-07
1.92891e-07
2.23221e-07
1.64832e-07
2.50763e-07
1.34771e-07
3.45396e-07
2.43225e-07
6.07834e-07
6.54453e-07
9.73697e-07
2.90497e-07
2.95534e-07
2.93268e-07
2.87821e-07
2.8218e-07
2.79152e-07
2.81668e-07
2.98756e-07
2.84615e-07
2.0156e-07
2.12391e-08
1.35824e-09
0
0
0
0
8.64737e-06
0.000273293
0.000513983
0.013594
0.0713179
0.199075
0.368732
0.492822
0.479193
0.298309
0.0197721
0.271195
0.416413
0.380814
0.231041
0.087282
0.0173856
0.000795497
6.05857e-05
1.33259e-06
0
0
0
2.72417e-09
2.77142e-08
1.55935e-07
2.22081e-07
2.1327e-07
1.9227e-07
1.85085e-07
1.84293e-07
1.826e-07
1.7937e-07
1.76054e-07
1.73175e-07
1.70749e-07
1.68943e-07
1.67796e-07
1.67408e-07
1.67825e-07
1.69005e-07
1.709e-07
1.73276e-07
1.76107e-07
1.78936e-07
1.82133e-07
1.84544e-07
1.879e-07
1.88266e-07
1.93023e-07
1.85655e-07
1.9713e-07
1.76166e-07
2.07191e-07
1.53132e-07
2.39265e-07
1.27999e-07
3.39355e-07
2.40968e-07
6.10428e-07
6.60176e-07
9.80095e-07
2.35789e-07
2.41031e-07
2.39633e-07
2.36398e-07
2.33529e-07
2.30234e-07
2.27198e-07
2.27495e-07
2.34485e-07
2.46363e-07
2.16355e-07
9.54421e-08
5.32747e-09
1.13499e-12
0
0
0
0
9.15098e-06
0.000271229
0.000747563
0.0151201
0.0737967
0.19577
0.34483
0.432607
0.38023
0.182747
0.083601
0.293247
0.357933
0.275076
0.136674
0.0390764
0.00459974
4.18087e-05
3.00014e-05
0
0
0
2.73718e-11
5.52378e-09
6.06006e-08
1.30783e-07
1.42116e-07
1.2924e-07
1.21357e-07
1.20068e-07
1.196e-07
1.18342e-07
1.1713e-07
1.16589e-07
1.16922e-07
1.18123e-07
1.20251e-07
1.23339e-07
1.27268e-07
1.31948e-07
1.37087e-07
1.4262e-07
1.48085e-07
1.53776e-07
1.58561e-07
1.64059e-07
1.66595e-07
1.72859e-07
1.67836e-07
1.8012e-07
1.62233e-07
1.93416e-07
1.43637e-07
2.2933e-07
1.22981e-07
3.34405e-07
2.38666e-07
6.14307e-07
6.60999e-07
9.87511e-07
1.88546e-07
1.931e-07
1.92174e-07
1.89983e-07
1.88208e-07
1.86201e-07
1.84782e-07
1.82309e-07
1.80725e-07
1.82705e-07
1.9423e-07
1.93012e-07
1.46684e-07
1.96368e-08
1.38452e-09
2.73985e-14
0
0
0
0
1.69355e-05
1.17994e-05
0.00130053
0.0187643
0.0819423
0.200646
0.327001
0.373121
0.280692
0.0737546
0.155054
0.292146
0.285603
0.178226
0.0677401
0.0131534
0.000518128
5.55683e-05
0
0
0
0
2.20941e-09
2.09549e-08
6.45151e-08
8.19298e-08
7.65115e-08
6.9404e-08
6.72893e-08
6.75355e-08
6.83511e-08
6.98622e-08
7.257e-08
7.65321e-08
8.15798e-08
8.75467e-08
9.42486e-08
1.01513e-07
1.09062e-07
1.16785e-07
1.24292e-07
1.31831e-07
1.38331e-07
1.45263e-07
1.49275e-07
1.56362e-07
1.53173e-07
1.65807e-07
1.50605e-07
1.81465e-07
1.35658e-07
2.20475e-07
1.18768e-07
3.30153e-07
2.35732e-07
6.18488e-07
6.55206e-07
9.96902e-07
1.58104e-07
1.61532e-07
1.61516e-07
1.5991e-07
1.58387e-07
1.57233e-07
1.56552e-07
1.55168e-07
1.53625e-07
1.5164e-07
1.52169e-07
1.5616e-07
1.67124e-07
1.45984e-07
8.80757e-08
3.67098e-10
5.31168e-11
0
0
0
0
3.10793e-09
1.46512e-05
0.000205795
0.00237715
0.0254452
0.0959871
0.21067
0.308417
0.307535
0.178284
0.0286912
0.20229
0.263459
0.203245
0.0976007
0.0256959
0.00249241
1.15479e-06
2.58037e-06
0
0
0
3.60751e-10
1.3021e-09
1.11869e-08
1.63445e-08
1.97095e-08
2.04138e-08
2.17798e-08
2.611e-08
3.24049e-08
3.95865e-08
4.74462e-08
5.59156e-08
6.48074e-08
7.39112e-08
8.31203e-08
9.22459e-08
1.01281e-07
1.09936e-07
1.18487e-07
1.25943e-07
1.33547e-07
1.38387e-07
1.45668e-07
1.43873e-07
1.56332e-07
1.43652e-07
1.7344e-07
1.31828e-07
2.14546e-07
1.18019e-07
3.27845e-07
2.32205e-07
6.23692e-07
6.37143e-07
1.01653e-06
1.28402e-07
1.32076e-07
1.32059e-07
1.3063e-07
1.2936e-07
1.29042e-07
1.29166e-07
1.27572e-07
1.27171e-07
1.26598e-07
1.25113e-07
1.24286e-07
1.26924e-07
1.32562e-07
1.36649e-07
1.05451e-07
3.88122e-08
3.16967e-09
2.39669e-12
0
0
0
0
0
7.16076e-05
3.08301e-05
0.00489883
0.0363323
0.115465
0.220855
0.280392
0.228659
0.0721969
0.109906
0.217937
0.207179
0.12003
0.0396127
0.00574917
7.57026e-05
3.51509e-05
0
0
0
8.08714e-12
1.53073e-09
8.90052e-09
3.85189e-08
3.14665e-08
2.26972e-08
2.44661e-08
3.12599e-08
3.93423e-08
4.73793e-08
5.53465e-08
6.34963e-08
7.17812e-08
8.01265e-08
8.8336e-08
9.64452e-08
1.04242e-07
1.11982e-07
1.18815e-07
1.25666e-07
1.2999e-07
1.36242e-07
1.34623e-07
1.46125e-07
1.34771e-07
1.63271e-07
1.23828e-07
2.05508e-07
1.10719e-07
3.21768e-07
2.23206e-07
6.22814e-07
6.03924e-07
1.04883e-06
1.35906e-07
1.37878e-07
1.37739e-07
1.36308e-07
1.3493e-07
1.33981e-07
1.33406e-07
1.3192e-07
1.30934e-07
1.29792e-07
1.2801e-07
1.26436e-07
1.25252e-07
1.24911e-07
1.26699e-07
1.32392e-07
1.22485e-07
8.76474e-08
2.41048e-08
2.43815e-09
2.93383e-12
0
0
0
0
7.1827e-07
0.000151075
0.000337863
0.0101724
0.054025
0.143298
0.236727
0.255709
0.157658
0.0265451
0.168363
0.210946
0.149022
0.0605734
0.0102944
0.000132942
6.36633e-05
2.94702e-05
5.91541e-06
1.71992e-07
0
2.29867e-11
2.2952e-09
4.51396e-08
8.8591e-08
8.18617e-08
7.13863e-08
6.97554e-08
7.33263e-08
7.84059e-08
8.39089e-08
8.97927e-08
9.60518e-08
1.02508e-07
1.09068e-07
1.15578e-07
1.2218e-07
1.28197e-07
1.34165e-07
1.37971e-07
1.43273e-07
1.42171e-07
1.52267e-07
1.4289e-07
1.68582e-07
1.33145e-07
2.10206e-07
1.17968e-07
3.27901e-07
2.11755e-07
6.34451e-07
5.48075e-07
1.1612e-06
1.13757e-07
1.14625e-07
1.15293e-07
1.15885e-07
1.1625e-07
1.16593e-07
1.17225e-07
1.17986e-07
1.18628e-07
1.19006e-07
1.19371e-07
1.20006e-07
1.20573e-07
1.2116e-07
1.21675e-07
1.24365e-07
1.29104e-07
1.32644e-07
1.21574e-07
9.21152e-08
2.47223e-08
2.20549e-09
0
0
0
0
0
5.50165e-06
0.0001286
0.000443865
0.00869007
0.0410972
0.101625
0.159512
0.163705
0.090828
0.0269021
0.117342
0.134273
0.0899932
0.0378705
0.00973517
0.00128011
2.62324e-05
2.19671e-05
3.69584e-06
0
0
1.83298e-09
2.81999e-08
8.16101e-08
1.03822e-07
1.04184e-07
1.021e-07
1.02298e-07
1.03852e-07
1.05845e-07
1.08036e-07
1.10365e-07
1.12783e-07
1.15226e-07
1.1784e-07
1.20209e-07
1.22724e-07
1.23383e-07
1.24927e-07
1.2136e-07
1.28305e-07
1.17704e-07
1.40831e-07
1.03269e-07
1.79653e-07
7.90162e-08
2.92552e-07
1.75312e-07
5.77234e-07
5.46913e-07
1.14643e-06
)
;

boundaryField
{
    inlet
    {
        type            calculated;
        value           nonuniform List<scalar> 
27
(
6.10755e-06
6.11563e-06
6.13049e-06
6.15019e-06
6.17114e-06
6.19283e-06
6.21589e-06
6.24013e-06
6.26545e-06
6.29091e-06
6.31639e-06
6.34143e-06
6.36551e-06
6.38808e-06
6.4085e-06
6.42616e-06
6.44126e-06
6.41059e-06
6.41465e-06
6.413e-06
6.40246e-06
6.382e-06
6.34886e-06
6.30163e-06
6.23374e-06
6.16615e-06
6.02932e-06
)
;
    }
    outlet
    {
        type            calculated;
        value           nonuniform List<scalar> 
78
(
9.12591e-08
9.24731e-08
9.3432e-08
9.43154e-08
9.49356e-08
9.55322e-08
9.64896e-08
9.76031e-08
9.85744e-08
9.92315e-08
9.98772e-08
1.00839e-07
1.01777e-07
1.02741e-07
1.03603e-07
1.06255e-07
1.10497e-07
1.13399e-07
1.0386e-07
7.94861e-08
2.21167e-08
2.06718e-09
0
0
0
0
0
5.52721e-06
0.000128326
0.000418126
0.00861177
0.0409505
0.101502
0.159627
0.164263
0.0917996
0.0251933
0.116146
0.133578
0.089752
0.0378546
0.00976464
0.00129662
1.7335e-05
2.09531e-05
3.51358e-06
0
0
1.60397e-09
2.51194e-08
7.33478e-08
9.34741e-08
9.36576e-08
9.14786e-08
9.11919e-08
9.19552e-08
9.2959e-08
9.40178e-08
9.50983e-08
9.61972e-08
9.72684e-08
9.85485e-08
9.95546e-08
1.00953e-07
1.00262e-07
1.01313e-07
9.59867e-08
1.0457e-07
8.98203e-08
1.19736e-07
6.92076e-08
1.64671e-07
2.11836e-08
2.81595e-07
1.56996e-07
5.57843e-07
5.48243e-07
1.08518e-06
)
;
    }
    walls
    {
        type            calculated;
        value           nonuniform List<scalar> 0();
    }
    frontAndBack
    {
        type            empty;
    }
    procBoundary7to3
    {
        type            processor;
        value           nonuniform List<scalar> 
16
(
1.0891e-06
1.1988e-06
9.11351e-07
7.79602e-07
6.91669e-07
5.9294e-07
4.88046e-07
3.9989e-07
2.93938e-07
2.93938e-07
2.38318e-07
1.90917e-07
1.60204e-07
1.2908e-07
1.38516e-07
1.11606e-07
)
;
    }
    procBoundary7to6
    {
        type            processor;
        value           nonuniform List<scalar> 
91
(
9.37521e-07
7.37827e-07
7.37827e-07
7.06318e-07
7.06318e-07
2.91347e-07
2.91347e-07
2.65468e-07
4.82808e-07
4.82808e-07
3.81686e-07
4.43419e-07
4.43419e-07
5.40463e-07
4.75046e-07
4.71558e-07
4.71558e-07
6.32058e-07
5.91072e-07
5.43583e-07
5.43583e-07
8.16675e-07
7.58096e-07
7.02346e-07
6.49516e-07
6.49516e-07
1.05888e-06
9.93822e-07
9.31301e-07
8.71451e-07
8.14306e-07
8.14306e-07
1.38467e-06
1.32226e-06
1.26001e-06
1.19818e-06
1.13712e-06
1.07712e-06
1.01844e-06
1.01844e-06
1.72215e-06
1.69076e-06
1.65739e-06
1.62189e-06
1.58421e-06
1.54439e-06
1.50251e-06
1.45868e-06
1.41309e-06
1.36601e-06
1.3176e-06
1.26814e-06
1.26814e-06
6.13568e-13
0
0
0.000329041
0.000295229
0.0257863
0.179498
0.536412
1.02157
1.47031
1.72454
1.67602
1.2895
0.621823
0.222017
0.982706
1.49968
1.58155
1.21332
0.626526
0.180705
0.0201522
0.000292598
3.81405e-05
0
0
0
5.14082e-08
7.36484e-07
1.81236e-06
1.84684e-06
1.63224e-06
1.55598e-06
1.54642e-06
1.53148e-06
1.5081e-06
1.48488e-06
1.48488e-06
)
;
    }
}


// ************************************************************************* //
