/*--------------------------------*- C++ -*----------------------------------*\
| =========                 |                                                 |
| \\      /  F ield         | OpenFOAM: The Open Source CFD Toolbox           |
|  \\    /   O peration     | Version:  2506                                  |
|   \\  /    A nd           | Website:  www.openfoam.com                      |
|    \\/     M anipulation  |                                                 |
\*---------------------------------------------------------------------------*/
FoamFile
{
    version     2.0;
    format      ascii;
    arch        "LSB;label=32;scalar=64";
    class       volScalarField;
    location    "19.971824";
    object      p;
}
// * * * * * * * * * * * * * * * * * * * * * * * * * * * * * * * * * * * * * //

dimensions      [0 2 -2 0 0 0 0];

internalField   nonuniform List<scalar> 
9700
(
0.000605141
0.000545247
-0.000388055
0.000525417
-0.000459319
-1.80693e-05
0.000444264
-0.000441645
-0.000110948
9.43439e-08
0.000399174
-0.000539652
-0.000145472
-6.78382e-05
7.68263e-05
0.000327333
-0.000570841
-0.000262433
-0.000135221
2.80031e-05
0.000147703
0.000264258
-0.000625147
-0.000350064
-0.000248244
-5.57821e-05
0.000111826
0.000350935
0.000201789
-0.000665721
-0.000447107
-0.000361892
-0.000177137
2.31641e-05
0.000247571
0.000530293
0.000143715
-0.000696894
-0.000538768
-0.000478956
-0.000310251
-0.000111814
0.000141156
0.000410154
0.000577552
8.3602e-05
-0.000718246
-0.000620788
-0.000589458
-0.000449484
-0.000260702
-1.05115e-05
0.000288754
0.000587036
0.000889813
3.44793e-05
-0.000737769
-0.000688633
-0.00068883
-0.000581814
-0.000416567
-0.000174202
0.000129194
0.000481255
0.000857444
0.00133236
-4.60066e-06
-0.000731418
-0.000741917
-0.00077265
-0.000701608
-0.000564067
-0.000343971
-4.50803e-05
0.000320392
0.000749465
0.00120139
0.00167607
-3.47928e-05
-0.000705923
-0.0007689
-0.000838846
-0.000803342
-0.000697255
-0.000503646
-0.000225358
0.000139394
0.00057623
0.00107902
0.0015734
0.00207629
-5.73475e-05
-0.000667457
-0.000773538
-0.000884913
-0.000885065
-0.000810466
-0.00064728
-0.000394491
-4.96869e-05
0.000386059
0.00089256
0.00144879
0.0019785
0.00249216
-7.39589e-05
-0.00062072
-0.000763797
-0.000910154
-0.000945175
-0.000902243
-0.000769371
-0.000546425
-0.000227465
0.000187042
0.000691964
0.00125578
0.00184943
0.00239423
0.00289491
-8.82934e-05
-0.000570535
-0.000744279
-0.000919161
-0.000984925
-0.000972182
-0.000869089
-0.000675932
-0.000387758
-6.56552e-07
0.000481644
0.00104566
0.00165088
0.00226134
0.00279729
0.00326696
-0.000102969
-0.000525739
-0.000719879
-0.000915308
-0.00100709
-0.00102197
-0.000946729
-0.000782806
-0.000525572
-0.000171265
0.00028167
0.000823235
0.00143122
0.00205768
0.00266213
0.00316949
0.00359419
-0.000115053
-0.000493926
-0.000697168
-0.000904592
-0.0010161
-0.00105449
-0.00100444
-0.00086792
-0.000641117
-0.000320105
9.75191e-05
0.000608572
0.00119586
0.00182881
0.00245469
0.00303331
0.00349736
0.0038695
-0.000123574
-0.000469601
-0.000680305
-0.000890071
-0.00101573
-0.00107439
-0.00104507
-0.000933658
-0.000735667
-0.00044762
-6.63104e-05
0.000407436
0.000964554
0.00158037
0.00221796
0.00282375
0.00336162
0.00377411
0.00409241
-0.000130056
-0.000447517
-0.000665185
-0.000873347
-0.00100714
-0.00108191
-0.00107202
-0.000982585
-0.000811712
-0.000555246
-0.000210181
0.000224489
0.000743637
0.00133159
0.00195747
0.0025813
0.0031519
0.00364027
0.00399923
0.00426662
-0.000132748
-0.000426245
-0.000647461
-0.000854437
-0.000993233
-0.00107935
-0.00108606
-0.0010172
-0.000871677
-0.000645387
-0.000335419
5.98163e-05
0.000538233
0.00108947
0.00169195
0.00231097
0.00290639
0.00343241
0.00386857
0.0041762
0.00439847
-0.000133653
-0.000400401
-0.000627302
-0.000830626
-0.000975256
-0.00106735
-0.00109107
-0.00103936
-0.000917856
-0.000720255
-0.000444139
-8.7507e-05
0.000349182
0.0008598
0.00142898
0.00203091
0.00262922
0.00318666
0.00366437
0.00404976
0.00431091
0.00449462
-0.000124008
-0.000378025
-0.000599056
-0.00080332
-0.000951194
-0.00104896
-0.00108502
-0.0010519
-0.000951854
-0.000781849
-0.000538232
-0.000219125
0.000176203
0.000644346
0.00117509
0.0017491
0.00233788
0.00290595
0.00342091
0.00385053
0.00418928
0.00440993
0.00456088
-0.000104755
-0.000349238
-0.000573896
-0.000767076
-0.000923005
-0.00102502
-0.00107077
-0.00105469
-0.000975501
-0.000831639
-0.000619339
-0.000336516
1.82661e-05
0.000443637
0.000933034
0.00147277
0.00204045
0.00260698
0.00313967
0.00361131
0.00399578
0.00429344
0.00447903
0.0046059
-9.65083e-05
-0.000345625
-0.000537679
-0.000735985
-0.000885613
-0.000997596
-0.00105071
-0.00104981
-0.000989872
-0.000871112
-0.000688633
-0.000440951
-0.000125629
0.000257341
0.000704215
0.00120557
0.00174468
0.00229765
0.00283651
0.00333196
0.00376208
0.00410578
0.00436842
0.0045229
0.00463796
-9.57589e-05
-0.000364032
-0.000542184
-0.000693969
-0.000854896
-0.000961973
-0.00102793
-0.00103777
-0.000996935
-0.000900994
-0.000747327
-0.00053332
-0.000256373
8.49801e-05
0.00048903
0.000949753
0.00145496
0.00198599
0.00251884
0.0030274
0.00348624
0.0038782
0.00418608
0.00441919
0.00454719
0.00464928
-0.000104019
-0.000408662
-0.000531441
-0.000700812
-0.000813111
-0.000934568
-0.000998493
-0.0010233
-0.000996218
-0.000923361
-0.000796163
-0.000614573
-0.000374577
-7.39481e-05
0.000287557
0.000706443
0.00117432
0.00167694
0.00219474
0.00270437
0.00318226
0.00360668
0.00396452
0.00424167
0.00444917
0.00456024
0.00463943
-0.000123755
-0.000446295
-0.000578595
-0.000691727
-0.000826097
-0.000898319
-0.000977575
-0.00100351
-0.000993643
-0.000938861
-0.000837003
-0.000685307
-0.000480998
-0.000219766
9.97015e-05
0.000476293
0.000904557
0.00137414
0.00186947
0.00237075
0.00285601
0.00330435
0.00369748
0.00402534
0.00427686
0.0044625
0.00456345
0.00462424
-0.000155104
-0.000490032
-0.0006237
-0.000763851
-0.000817534
-0.00092188
-0.000952157
-0.000991742
-0.000986513
-0.000949859
-0.000871002
-0.000747022
-0.000576113
-0.000353043
-7.45432e-05
0.000259661
0.000646927
0.00108004
0.00154714
0.00203191
0.00251501
0.00297615
0.00339705
0.00376242
0.00406457
0.00429532
0.00446361
0.00455569
0.00460754
-0.000199123
-0.000524651
-0.000693214
-0.00082092
-0.000912315
-0.000916127
-0.000984879
-0.000980772
-0.000987272
-0.000957942
-0.000900049
-0.000800541
-0.000661478
-0.000474079
-0.000235516
5.69075e-05
0.000402277
0.000796471
0.00123076
0.00169228
0.00216456
0.00262907
0.00306734
0.00346353
0.00380499
0.00408587
0.0043001
0.00445558
0.00454052
0.00458777
-0.000256637
-0.000549051
-0.000762882
-0.00091394
-0.000979082
-0.00103682
-0.000986707
-0.00101966
-0.000992758
-0.000975491
-0.000926177
-0.000851423
-0.00073778
-0.000584421
-0.000383272
-0.000132002
0.000171408
0.000524811
0.000922702
0.0013553
0.00180923
0.00226815
0.00271463
0.00313209
0.00350685
0.00382846
0.00409252
0.00429419
0.00444104
0.00452193
0.00456838
-0.0003311
-0.000561854
-0.000835689
-0.0010063
-0.00109468
-0.00111263
-0.00113784
-0.00104222
-0.00104247
-0.000997548
-0.000963397
-0.000897692
-0.000810229
-0.000684525
-0.00051925
-0.000306806
-4.53226e-05
0.000266375
0.000624917
0.00102388
0.0014528
0.00189798
0.00234361
0.00277354
0.00317294
0.00352998
0.00383596
0.00408758
0.00428073
0.00442286
0.00450299
0.00455222
-0.000428416
-0.00056939
-0.00090228
-0.00110372
-0.00121111
-0.00124889
-0.00121836
-0.00122557
-0.00108854
-0.00106494
-0.0010022
-0.000955303
-0.000877297
-0.000779504
-0.000643569
-0.000468709
-0.000247233
2.2003e-05
0.000339282
0.000700501
0.00109858
0.00152251
0.00195869
0.00239208
0.00280778
0.00319244
0.00353587
0.00383064
0.00407421
0.00426295
0.00440416
0.00448662
0.00454203
-0.000536929
-0.00058071
-0.000958814
-0.00119104
-0.00133697
-0.00138689
-0.00137345
-0.00130493
-0.00129946
-0.00112731
-0.00108999
-0.00101202
-0.000955575
-0.000867664
-0.000761392
-0.000617419
-0.000435167
-0.000207085
6.72045e-05
0.000387641
0.00074958
0.00114538
0.00156385
0.0019918
0.00241496
0.00281945
0.00319334
0.00352763
0.00381576
0.00405575
0.00424416
0.0043881
0.00447631
0.00454073
-0.000625497
-0.000587993
-0.000999618
-0.00126358
-0.0014533
-0.00153882
-0.00153072
-0.00147484
-0.0013761
-0.00135662
-0.00116403
-0.00112103
-0.0010303
-0.00096627
-0.000870441
-0.000757955
-0.0006083
-0.00042125
-0.000189446
8.73439e-05
0.000408886
0.000770041
0.00116293
0.00157654
0.00199807
0.00241381
0.002811
0.00317867
0.0035086
0.00379488
0.00403574
0.00422781
0.00437809
0.0044756
0.00455116
-0.000693643
-0.000557247
-0.0010238
-0.00131161
-0.0015527
-0.00168298
-0.00170844
-0.00164859
-0.00155679
-0.00143481
-0.00140466
-0.00120548
-0.00115978
-0.00105823
-0.000988478
-0.000887373
-0.000771359
-0.000618975
-0.000430424
-0.000197773
7.92141e-05
0.000400151
0.00075972
0.00115017
0.00156065
0.00197849
0.00239074
0.0027853
0.00315178
0.00348249
0.0037718
0.00401794
0.00421761
0.00437758
0.00448749
0.00457656
-0.000756701
-0.00048359
-0.00101263
-0.00133471
-0.0016225
-0.00180968
-0.00188083
-0.00184972
-0.00174587
-0.00162482
-0.00148771
-0.0014523
-0.00125373
-0.00120637
-0.00109638
-0.00102366
-0.000920559
-0.000804568
-0.000653347
-0.000466732
-0.00023599
3.9121e-05
0.000358385
0.000716719
0.00110643
0.00151649
0.00193468
0.00234838
0.00274568
0.00311654
0.00345342
0.00375066
0.00400641
0.00421734
0.00438989
0.00451452
0.0046196
-0.000798762
-0.000376286
-0.000963981
-0.00132027
-0.00166334
-0.00190357
-0.00203935
-0.00204994
-0.00196677
-0.00182787
-0.00168604
-0.00154091
-0.00150354
-0.0013085
-0.00126036
-0.00114589
-0.00107393
-0.00097316
-0.000861974
-0.000716115
-0.000534894
-0.000308717
-3.6972e-05
0.000280736
0.000639467
0.00103119
0.00144512
0.00186897
0.00228995
0.00269612
0.00307738
0.00342594
0.00373597
0.00400537
0.00423069
0.00441822
0.00455949
0.00468213
-0.000807598
-0.000280034
-0.000861181
-0.00127289
-0.00165794
-0.00196579
-0.00216304
-0.00224273
-0.00219591
-0.00206647
-0.00190063
-0.00174615
-0.00159702
-0.00155938
-0.00136922
-0.0013225
-0.00120874
-0.00114274
-0.00105007
-0.000948976
-0.00081288
-0.000640553
-0.000421109
-0.000153024
0.000164585
0.000526484
0.000924774
0.00134839
0.00178437
0.00221949
0.00264137
0.00303934
0.00340513
0.00373252
0.00401899
0.00426127
0.00446558
0.00462467
0.00476546
-0.000797701
-0.000180699
-0.00075971
-0.00114363
-0.00162056
-0.0019733
-0.0022551
-0.00240079
-0.00242386
-0.00232357
-0.00215609
-0.00197006
-0.00180773
-0.00165649
-0.00161963
-0.00143597
-0.00139488
-0.00128853
-0.00123557
-0.00115742
-0.0010721
-0.000950416
-0.000790115
-0.000578408
-0.000312898
7.25289e-06
0.000377155
0.000788404
0.00122894
0.00168485
0.00214202
0.00258697
0.00300812
0.00339645
0.00374515
0.00405148
0.00431251
0.00453439
0.00471154
0.00487035
-0.000763721
-9.88453e-05
-0.000642096
-0.00101299
-0.00148113
-0.00195365
-0.00228269
-0.00253048
-0.00262084
-0.00258693
-0.00243776
-0.00223992
-0.00203939
-0.00187097
-0.00171886
-0.00168512
-0.00151016
-0.00148155
-0.00139109
-0.00135932
-0.00130274
-0.00123933
-0.00113651
-0.000990291
-0.000785969
-0.000520744
-0.000193097
0.000191785
0.000624134
0.00109056
0.00157567
0.00206363
0.00253935
0.00299003
0.0034056
0.00377882
0.00410688
0.00438727
0.00462635
0.00482099
0.00499648
-0.000717961
-1.64436e-05
-0.000538187
-0.000859665
-0.00133686
-0.00181097
-0.00229443
-0.00258423
-0.00279644
-0.00282709
-0.00273707
-0.00254295
-0.0023191
-0.00210791
-0.00193422
-0.00178355
-0.00175694
-0.00159546
-0.00158921
-0.00152395
-0.00152243
-0.00149525
-0.00145991
-0.00137955
-0.00124818
-0.00104974
-0.000779978
-0.000437422
-2.84703e-05
0.000435308
0.000938606
0.00146345
0.00199154
0.00250582
0.0029918
0.00343847
0.00383837
0.00418861
0.00448762
0.00474255
0.00495276
0.00514243
-0.000659447
5.44346e-05
-0.000433897
-0.000724244
-0.00115796
-0.00165558
-0.00215946
-0.00264008
-0.00288448
-0.00305485
-0.00302084
-0.00287601
-0.00264062
-0.00239315
-0.00217251
-0.00199576
-0.0018498
-0.00183762
-0.00169824
-0.00172631
-0.00169653
-0.00173533
-0.00174577
-0.00174404
-0.00168863
-0.00157187
-0.00137516
-0.00109328
-0.000725907
-0.000281071
0.000227144
0.000780125
0.00135623
0.00193423
0.0024944
0.00302058
0.003501
0.00392805
0.00429932
0.00461501
0.00488289
0.00510544
0.00530587
-0.000598768
0.000118963
-0.000342775
-0.000591669
-0.000997214
-0.00144906
-0.00199615
-0.00250197
-0.0030009
-0.00318405
-0.00330423
-0.00320285
-0.00300159
-0.00272771
-0.00245884
-0.00223017
-0.00205491
-0.00191928
-0.00193309
-0.00182688
-0.00190292
-0.00192047
-0.00201034
-0.00206637
-0.00210304
-0.00207439
-0.00196931
-0.00176722
-0.00146277
-0.00105735
-0.000561324
6.94024e-06
0.000623952
0.0012638
0.00190126
0.00251376
0.00308365
0.00359852
0.00405126
0.00444092
0.00476953
0.00504599
0.00527666
0.00548338
-0.000534805
0.000168355
-0.000262901
-0.000477243
-0.000836982
-0.00126415
-0.00176669
-0.00236557
-0.00288511
-0.00337513
-0.00347957
-0.00354459
-0.00336839
-0.0031093
-0.00279922
-0.00251303
-0.00228027
-0.00211306
-0.00199752
-0.00205144
-0.00199213
-0.00213164
-0.0022095
-0.00236146
-0.00247081
-0.00255035
-0.00254783
-0.00244845
-0.00223073
-0.00188933
-0.00142818
-0.000862079
-0.000215822
0.00048133
0.00119759
0.00190324
0.002573
0.00318786
0.00373551
0.00421065
0.00461387
0.0049499
0.00522944
0.00546297
0.00567034
-0.000472043
0.000208016
-0.000194978
-0.000374734
-0.000696066
-0.0010748
-0.00156247
-0.00213468
-0.0027997
-0.00330917
-0.00375944
-0.00377461
-0.00376639
-0.0035092
-0.00319265
-0.00284988
-0.00255268
-0.00232371
-0.00217506
-0.00209314
-0.00220357
-0.00220728
-0.00242744
-0.00257936
-0.00280481
-0.0029756
-0.00310042
-0.00312065
-0.00301774
-0.00276967
-0.00237144
-0.00183207
-0.00117358
-0.000428468
0.000365788
0.00117058
0.0019516
0.00268093
0.00333913
0.0039156
0.00440715
0.004817
0.00515362
0.00542962
0.00565957
0.00586118
-0.000410575
0.000232872
-0.000133618
-0.000286122
-0.000564761
-0.000905774
-0.00134189
-0.00189208
-0.00253356
-0.00324572
-0.00373973
-0.00415178
-0.00404887
-0.00395701
-0.00361471
-0.00324559
-0.00287715
-0.00257654
-0.00236458
-0.00224959
-0.00221743
-0.00240354
-0.00248812
-0.00280775
-0.00304848
-0.00335999
-0.00359918
-0.00376938
-0.00380602
-0.00368544
-0.00338584
-0.00290467
-0.00225969
-0.00148194
-0.000615149
0.000293224
0.0011972
0.00205776
0.00284547
0.00354246
0.00414043
0.00463981
0.00504776
0.00537685
0.00564149
0.0058607
0.00604992
-0.000340314
0.000245657
-7.94418e-05
-0.000205542
-0.000448097
-0.000745214
-0.00114045
-0.00163776
-0.0022329
-0.00298196
-0.0036665
-0.00420624
-0.00453858
-0.00428651
-0.00409989
-0.00367606
-0.00326298
-0.00287956
-0.00258921
-0.00241162
-0.00234792
-0.00238356
-0.00266833
-0.00285317
-0.00329309
-0.00363956
-0.00404931
-0.00436292
-0.00457612
-0.00461804
-0.00445842
-0.00407834
-0.0034814
-0.00269655
-0.00176903
-0.000756572
0.000281916
0.00129236
0.00223242
0.0030736
0.00380057
0.00440941
0.00490599
0.00530196
0.00561409
0.00585891
0.00606008
0.00622982
-0.000280221
0.000275101
-2.83716e-05
-0.000132787
-0.000340551
-0.000600139
-0.000946391
-0.0013959
-0.00195749
-0.00264502
-0.00347419
-0.00421754
-0.00467941
-0.00489448
-0.00446831
-0.00418044
-0.00368816
-0.00324001
-0.00285935
-0.00260196
-0.00247701
-0.00248323
-0.00260707
-0.0030169
-0.00332444
-0.00390869
-0.00437907
-0.00489928
-0.00529274
-0.00554187
-0.00557073
-0.00534168
-0.00484318
-0.00408775
-0.00312263
-0.00201174
-0.000829624
0.000351373
0.00147056
0.00248534
0.00336956
0.00411343
0.00471987
0.0052011
0.0055735
0.00585857
0.00607518
0.00625068
0.00639394
-0.000242757
0.000307456
2.14315e-05
-6.39823e-05
-0.000242971
-0.000465115
-0.000768419
-0.00116241
-0.00167617
-0.00230097
-0.00317254
-0.00394909
-0.00478318
-0.0051255
-0.00518676
-0.00457677
-0.00419194
-0.00364211
-0.0031777
-0.00282947
-0.00262758
-0.00257436
-0.00267114
-0.00290639
-0.00347173
-0.00392888
-0.0046841
-0.00529932
-0.00594311
-0.00641871
-0.00669005
-0.00667834
-0.00633793
-0.00566944
-0.00470321
-0.00351114
-0.00218086
-0.000808702
0.000521297
0.00174558
0.00282309
0.00373424
0.00447836
0.00506664
0.00551818
0.00585474
0.00610289
0.00628274
0.00642519
0.00653549
-0.000177264
0.000270381
5.98242e-05
-3.44484e-06
-0.000153256
-0.00034154
-0.00060174
-0.000946616
-0.00139533
-0.00198291
-0.00271373
-0.00364635
-0.00454969
-0.0053295
-0.00550269
-0.00538752
-0.0046073
-0.00412116
-0.00353202
-0.0030962
-0.00280658
-0.00267797
-0.00271869
-0.00293047
-0.00330392
-0.00406117
-0.00469924
-0.00565577
-0.00644269
-0.00722032
-0.00777638
-0.00804864
-0.00795428
-0.00744283
-0.00653894
-0.00529868
-0.00382591
-0.00224278
-0.000667063
0.000811344
0.00212754
0.00324796
0.00416512
0.00488958
0.00544171
0.00584838
0.00613724
0.0063386
0.00647375
0.00657653
0.00664801
-8.66078e-05
0.000192922
8.52794e-05
4.26812e-05
-7.2987e-05
-0.000227427
-0.000448474
-0.000743627
-0.00113594
-0.00164563
-0.00232103
-0.00320982
-0.00418151
-0.00514209
-0.005816
-0.00576255
-0.00547862
-0.00453902
-0.00395054
-0.00338828
-0.00301761
-0.00280286
-0.00276866
-0.00292717
-0.00328185
-0.00382639
-0.00481933
-0.00567753
-0.00687213
-0.00786015
-0.00877826
-0.00941257
-0.0096465
-0.00940525
-0.00864501
-0.00742226
-0.0058296
-0.00402305
-0.00216184
-0.000376437
0.00123719
0.00262094
0.00375784
0.00465564
0.00533761
0.0058346
0.00618183
0.0064113
0.00655692
0.00664058
0.0066979
0.00672551
-2.48619e-06
8.63927e-05
9.11915e-05
6.66028e-05
-3.11371e-06
-0.000124175
-0.000306771
-0.00055674
-0.00089095
-0.00133404
-0.00191579
-0.00269166
-0.00365036
-0.00473918
-0.00569315
-0.00621694
-0.00588725
-0.00535705
-0.00430108
-0.0037267
-0.0032455
-0.00294896
-0.00283232
-0.00291819
-0.00322162
-0.00375108
-0.00450551
-0.00578804
-0.00691938
-0.00838919
-0.00960951
-0.0106845
-0.0113759
-0.0115057
-0.011037
-0.00992252
-0.00826663
-0.0062367
-0.00405541
-0.00189733
8.78398e-05
0.00180679
0.00322446
0.00434536
0.00519449
0.00580983
0.00623347
0.00650717
0.00666685
0.00674932
0.0067759
0.00678302
0.00676289
5.53847e-05
-3.0227e-05
4.80054e-05
9.09228e-05
5.14111e-05
-3.15973e-05
-0.000177693
-0.000384031
-0.000665766
-0.0010404
-0.00153875
-0.00219752
-0.00306377
-0.00413099
-0.00527822
-0.0061737
-0.00648616
-0.00584433
-0.0049983
-0.00398147
-0.00351901
-0.00310281
-0.00290469
-0.00291261
-0.00314674
-0.00362831
-0.00437108
-0.00538145
-0.00701885
-0.00849321
-0.010272
-0.0117886
-0.0130183
-0.0137071
-0.0136669
-0.0128519
-0.0112252
-0.00899862
-0.00646189
-0.00386451
-0.00140893
0.000739178
0.00252021
0.00393
0.0049968
0.00576618
0.0062918
0.00662469
0.00681251
0.00689419
0.00690761
0.00687298
0.00682653
0.006756
0.000105214
-5.93507e-05
3.96066e-05
0.000127896
0.000100861
4.89639e-05
-6.07148e-05
-0.000226461
-0.000458373
-0.00077152
-0.00118801
-0.00174371
-0.00246655
-0.00344177
-0.00461035
-0.00574597
-0.00652757
-0.00649675
-0.00559747
-0.00461084
-0.00372392
-0.00329914
-0.00297577
-0.00290546
-0.00306449
-0.00347848
-0.00417746
-0.00518078
-0.00650386
-0.00857682
-0.0104961
-0.0126553
-0.0145257
-0.0158306
-0.0165036
-0.0161715
-0.0147921
-0.0124492
-0.00955317
-0.00642881
-0.00338165
-0.000674383
0.00157958
0.00336905
0.00472087
0.00569286
0.00635275
0.00676682
0.006994
0.00708631
0.00708386
0.00702428
0.00692606
0.00682408
0.00670176
0.000176577
-4.47162e-05
6.63463e-05
0.00014559
0.000150882
0.000119613
4.34422e-05
-8.32989e-05
-0.000269608
-0.000525606
-0.000869476
-0.00132673
-0.0019379
-0.00273315
-0.00381911
-0.00503588
-0.00607462
-0.00663031
-0.00622596
-0.0051839
-0.00424379
-0.00340757
-0.00306839
-0.00288544
-0.00297032
-0.00331299
-0.00394349
-0.00490674
-0.00622686
-0.00793926
-0.0105532
-0.0130863
-0.0156682
-0.017783
-0.0192376
-0.0198714
-0.0189376
-0.0166759
-0.0134817
-0.00982519
-0.00600918
-0.00256978
0.000308968
0.00260112
0.00433278
0.00557255
0.0064108
0.0069334
0.00721741
0.00732752
0.00731752
0.00722717
0.00709291
0.00693051
0.00677249
0.00659827
0.000251671
-6.2304e-05
8.90664e-05
0.000145852
0.000186872
0.000184492
0.000136421
4.51992e-05
-9.85867e-05
-0.000303053
-0.000581133
-0.00095325
-0.00144902
-0.00211218
-0.00305821
-0.00414386
-0.00535211
-0.00622196
-0.00642317
-0.00575245
-0.00456476
-0.00380801
-0.00306579
-0.0028691
-0.00284985
-0.00312306
-0.00368625
-0.00457718
-0.00586044
-0.00757236
-0.00978605
-0.013033
-0.0163351
-0.0190623
-0.0216166
-0.0235037
-0.0236846
-0.0218163
-0.0184353
-0.0142922
-0.0095704
-0.00513572
-0.00143129
0.00153565
0.00377885
0.0053796
0.00645594
0.00712443
0.00748642
0.0076266
0.007612
0.00749607
0.0073169
0.00710838
0.00688293
0.00666977
0.00644474
0.000306307
-8.4249e-05
0.000104122
0.000163302
0.000217584
0.000238575
0.000220607
0.00016018
5.48653e-05
-0.000102686
-0.000322446
-0.000619193
-0.0010153
-0.00155002
-0.00225152
-0.00327767
-0.00437223
-0.00550061
-0.00612842
-0.00595747
-0.00508914
-0.00377791
-0.00336192
-0.00277806
-0.00271656
-0.00289644
-0.00339164
-0.00421715
-0.00542284
-0.00709837
-0.00930568
-0.0121099
-0.0160217
-0.0201487
-0.0233574
-0.0271882
-0.0284046
-0.0277407
-0.0248056
-0.020458
-0.0144871
-0.00866889
-0.00384657
3.75388e-05
0.00298033
0.00507186
0.00647116
0.00733682
0.00780608
0.00799069
0.00797831
0.00783543
0.00761344
0.00734725
0.00706699
0.00678129
0.00651519
0.00624158
0.000362405
-0.000118024
0.000112597
0.000179027
0.000249133
0.000286692
0.000293114
0.000262862
0.000191746
7.62403e-05
-9.15985e-05
-0.000322539
-0.000633326
-0.00104768
-0.00161121
-0.00234192
-0.00334888
-0.00446334
-0.00543074
-0.00575027
-0.00525124
-0.00424486
-0.00317147
-0.00283064
-0.0025002
-0.00264176
-0.00305132
-0.00380603
-0.00494421
-0.00653419
-0.00869791
-0.011484
-0.014991
-0.0200261
-0.0254692
-0.0296177
-0.0333024
-0.0336438
-0.0318434
-0.0274871
-0.0213564
-0.0134666
-0.00726138
-0.00210743
0.00181611
0.00458626
0.00642808
0.00756324
0.00818001
0.00842931
0.00842644
0.00825806
0.00798779
0.00766296
0.00731409
0.00696657
0.00662488
0.00630923
0.00599022
0.000397038
-0.000131551
0.000112144
0.000189463
0.000276359
0.000329336
0.000356516
0.000352287
0.000313112
0.000234974
0.000113031
-6.0681e-05
-0.000297532
-0.000615825
-0.00103966
-0.00160836
-0.00249269
-0.00334739
-0.00436902
-0.0051104
-0.00508075
-0.00433289
-0.00331532
-0.00260314
-0.00230101
-0.00229554
-0.00266871
-0.00334165
-0.0044022
-0.00591669
-0.00797658
-0.0107205
-0.0142096
-0.0190557
-0.0249451
-0.0313864
-0.0358424
-0.0392883
-0.0388629
-0.0354405
-0.0287684
-0.0196196
-0.0119687
-0.00523709
9.20492e-05
0.00382317
0.00628162
0.00778854
0.00860977
0.00895192
0.00896959
0.00877607
0.00845386
0.00806125
0.00763996
0.00721511
0.00680653
0.00641437
0.00605354
0.00569311
-0.000162626
0.000113072
0.000195902
0.000297354
0.000365807
0.000411281
0.000430222
0.00041897
0.000374742
0.000293208
0.000169341
-4.89135e-06
-0.000241002
-0.000557103
-0.000981534
-0.00157287
-0.00240205
-0.00316886
-0.00408726
-0.00451319
-0.00414372
-0.00327308
-0.00237224
-0.00187391
-0.00192461
-0.00219043
-0.00281895
-0.00379915
-0.00522209
-0.00719149
-0.0098133
-0.0132564
-0.0178307
-0.0236956
-0.0294551
-0.0378722
-0.0424295
-0.0452527
-0.0431926
-0.0375272
-0.0285103
-0.0183082
-0.00987775
-0.00250873
0.00261921
0.00595514
0.00798486
0.00909226
0.00956769
0.00962191
0.00940541
0.00902521
0.0085565
0.00805047
0.00754193
0.00704981
0.00658782
0.00615167
0.00575079
0.00535354
0.00010602
0.000198177
0.000312983
0.000394351
0.000457656
0.000496681
0.000510661
0.000496224
0.000450663
0.000370063
0.00024946
8.11486e-05
-0.000145924
-0.00044937
-0.000865198
-0.001435
-0.00187382
-0.00285465
-0.00357138
-0.003632
-0.0030011
-0.00212499
-0.0014426
-0.00121018
-0.00162303
-0.00220463
-0.00311917
-0.00446064
-0.00631325
-0.00882506
-0.012128
-0.0164892
-0.0220317
-0.0283328
-0.0353639
-0.0450824
-0.0485141
-0.0499684
-0.045547
-0.0374156
-0.0268431
-0.016436
-0.00645973
0.000693362
0.00531975
0.00810058
0.00961507
0.0102834
0.0103984
0.0101636
0.00971947
0.00916298
0.00855981
0.0079527
0.00736855
0.00681954
0.00631284
0.0058399
0.00540461
0.00497549
0.000197337
0.000321518
0.000416355
0.000494113
0.00055242
0.000588326
0.000600774
0.000586736
0.000544009
0.00046917
0.000357728
0.000202876
-5.49912e-06
-0.000284681
-0.000651663
-0.00102855
-0.00153681
-0.00238633
-0.00277743
-0.00250429
-0.00172302
-0.00094726
-0.000546578
-0.00065006
-0.00140542
-0.00236436
-0.00359912
-0.00536668
-0.00772568
-0.0108846
-0.0150166
-0.0202948
-0.026483
-0.0344419
-0.041492
-0.0510314
-0.0532204
-0.0521904
-0.0451069
-0.0348755
-0.0231369
-0.0118334
-0.00234379
0.004141
0.00804121
0.0101488
0.0110994
0.0113135
0.0110697
0.0105562
0.00989899
0.00918224
0.00846079
0.00776786
0.00712169
0.00652739
0.0059854
0.00548317
0.00501935
0.00456345
0.000325493
0.000429039
0.000522361
0.000596196
0.000653008
0.00068884
0.000703062
0.000693264
0.000657814
0.000594015
0.000498336
0.000365612
0.000187586
-4.27e-05
-0.000312342
-0.000644733
-0.0012922
-0.00168132
-0.00173313
-0.00119337
-0.000374542
0.00020689
0.000290616
-0.000187757
-0.00128815
-0.00269777
-0.00429161
-0.00655819
-0.00950994
-0.0134252
-0.0184166
-0.0244979
-0.0318783
-0.0405322
-0.0466518
-0.0552824
-0.0550375
-0.0510878
-0.041682
-0.0298506
-0.0175231
-0.00647698
0.00209345
0.00762402
0.0106291
0.0120034
0.0123764
0.0121431
0.0115569
0.0107848
0.00993577
0.00907976
0.00825968
0.0074985
0.00680536
0.00617807
0.00561045
0.00508642
0.00459991
0.00412219
0.000436101
0.000539131
0.000630036
0.000703705
0.000761722
0.000800503
0.00081995
0.000818367
0.00079485
0.0007478
0.000675393
0.000574609
0.000443107
0.000284907
8.08424e-05
-0.000269163
-0.000626767
-0.000747404
-0.000491984
0.00023051
0.000984602
0.00130362
0.00104215
0.000162893
-0.00127754
-0.00323629
-0.00522993
-0.00807154
-0.0116947
-0.0164023
-0.0222264
-0.0292613
-0.0372661
-0.0456007
-0.0500576
-0.0570426
-0.0533455
-0.0467055
-0.0356341
-0.0229414
-0.0108389
-0.000749392
0.0065888
0.0109197
0.0129549
0.013587
0.0133987
0.0127434
0.0118428
0.0108404
0.00982645
0.00885621
0.00795992
0.00714975
0.00642546
0.00577771
0.00519395
0.00465525
0.00415149
0.00365652
0.000548986
0.000650383
0.000742721
0.000818695
0.000880662
0.000925442
0.000953599
0.000964253
0.000957532
0.000933573
0.000892466
0.000835006
0.000764505
0.000675817
0.00053915
0.000380326
0.000272546
0.000368595
0.000888292
0.00169939
0.00230482
0.00232127
0.00170364
0.000390057
-0.0013834
-0.00400985
-0.00643969
-0.00992003
-0.0142421
-0.0197247
-0.026373
-0.034022
-0.0417808
-0.0488828
-0.051232
-0.0552559
-0.0486327
-0.0399402
-0.0278979
-0.015116
-0.00379981
0.00496894
0.0108115
0.0138534
0.0149208
0.0148434
0.0141334
0.0130954
0.0119177
0.0107195
0.00957233
0.00851615
0.00756803
0.00672909
0.00598969
0.00533362
0.00474257
0.00419554
0.00367933
0.00317097
0.000662644
0.000766344
0.000862332
0.00094313
0.0010117
0.00106549
0.00110576
0.00113273
0.00114807
0.00115364
0.00115228
0.00114873
0.00114548
0.00113734
0.00113399
0.00116286
0.00126826
0.00162452
0.00234205
0.00315362
0.00355289
0.00324978
0.00226897
0.000482469
-0.00162035
-0.00503624
-0.00792127
-0.0120565
-0.017053
-0.0232478
-0.0304224
-0.038066
-0.0447155
-0.0499649
-0.0500709
-0.0507778
-0.0421121
-0.0319488
-0.0195603
-0.00721444
0.00301296
0.0102495
0.0145269
0.0163002
0.0164613
0.015737
0.0145604
0.013189
0.0117786
0.0104243
0.00917933
0.00806781
0.00709343
0.00624616
0.00550718
0.004854
0.0042634
0.00371324
0.00318836
0.00266945
0.00078078
0.000888853
0.000990747
0.00107869
0.00115641
0.00122204
0.00127777
0.00132534
0.00136786
0.00140938
0.00145588
0.00151361
0.00158757
0.00168819
0.00183518
0.00204322
0.00237953
0.00296292
0.00380511
0.00454655
0.004709
0.00408096
0.00273292
0.000432675
-0.00200429
-0.00630018
-0.00962444
-0.0143656
-0.0199508
-0.026611
-0.0338062
-0.0407261
-0.0458835
-0.048876
-0.0468624
-0.0445499
-0.0348506
-0.0238646
-0.0114566
0.000189248
0.00918438
0.0148267
0.017583
0.0181865
0.0175405
0.0162483
0.0146706
0.0130225
0.011429
0.00996252
0.00865777
0.00752296
0.00654819
0.00571244
0.0049882
0.00434758
0.00376357
0.00321395
0.00268289
0.00215508
0.000905205
0.00101975
0.00112951
0.00122674
0.0013159
0.00139606
0.00147069
0.00154285
0.00161742
0.00170113
0.0018019
0.00192877
0.00209469
0.00231776
0.00261633
0.00301292
0.00355982
0.0043241
0.00522135
0.00584384
0.00575909
0.00480933
0.00309418
0.000240869
-0.00254717
-0.00774052
-0.0114285
-0.0166888
-0.0226613
-0.0293826
-0.0360023
-0.0417171
-0.0452961
-0.0459911
-0.0423707
-0.0376914
-0.0279216
-0.0162937
-0.00406645
0.00677756
0.0144845
0.0185421
0.0199063
0.0194853
0.0181435
0.0163708
0.0144647
0.0126014
0.0108787
0.0093469
0.00802218
0.00689661
0.00594671
0.00514083
0.00444368
0.00382314
0.00324978
0.00270254
0.00216631
0.00162989
0.00103774
0.0011605
0.00127984
0.0013882
0.00149086
0.00158823
0.00168479
0.00178519
0.00189654
0.00202744
0.0021883
0.00239294
0.00265971
0.00300836
0.00346004
0.00403411
0.00476078
0.00565117
0.00654396
0.00701838
0.00669044
0.00543881
0.00335703
-7.51102e-05
-0.00326488
-0.00923346
-0.0131809
-0.0187856
-0.0248337
-0.0310519
-0.0367654
-0.0412458
-0.0431682
-0.042119
-0.0375976
-0.0314113
-0.0213548
-0.00953948
0.00241602
0.0124322
0.0187773
0.0213134
0.0214829
0.0201939
0.01827
0.0161091
0.0139511
0.0119383
0.0101434
0.00859519
0.00729106
0.0062067
0.00530524
0.00454517
0.0038847
0.00328902
0.00272795
0.00218289
0.00164079
0.00109462
0.00117979
0.00131224
0.0014425
0.00156355
0.00168172
0.00179851
0.00191963
0.00205177
0.00220355
0.00238571
0.00261199
0.00289986
0.00326969
0.00374275
0.0043388
0.00506777
0.00593366
0.00689336
0.00773457
0.00804637
0.00749378
0.00595014
0.00353406
-0.000458013
-0.00413613
-0.0105793
-0.0146307
-0.0202603
-0.0258692
-0.0314258
-0.0364706
-0.0397021
-0.0402036
-0.0381406
-0.0329652
-0.02573
-0.0156674
-0.00366316
0.00797168
0.0170965
0.0219841
0.0231381
0.02231
0.0203194
0.017932
0.0154767
0.013146
0.0110521
0.00924448
0.00772987
0.00648658
0.00547365
0.00464134
0.00393959
0.00332186
0.00275257
0.00220271
0.00165744
0.00110707
0.000548655
0.00133245
0.00147565
0.00161784
0.00175302
0.00188817
0.00202619
0.00217432
0.00234068
0.00253559
0.0027723
0.00306709
0.00343914