/*--------------------------------*- C++ -*----------------------------------*\
| =========                 |                                                 |
| \\      /  F ield         | OpenFOAM: The Open Source CFD Toolbox           |
|  \\    /   O peration     | Version:  2506                                  |
|   \\  /    A nd           | Website:  www.openfoam.com                      |
|    \\/     M anipulation  |                                                 |
\*---------------------------------------------------------------------------*/
FoamFile
{
    version     2.0;
    format      ascii;
    arch        "LSB;label=32;scalar=64";
    class       volScalarField;
    location    "50";
    object      div(phi);
}
// * * * * * * * * * * * * * * * * * * * * * * * * * * * * * * * * * * * * * //

dimensions      [0 0 -1 0 0 0 0];

internalField   nonuniform List<scalar> 
1340
(
-0.0573766
-0.0707451
0.102964
-0.0247658
-0.0115079
-0.0130123
0.0374532
-0.00660879
-0.0252305
-0.0313996
0.0382951
-0.00862918
-0.00201153
-0.00231246
0.0172716
-0.00267398
-0.0193134
-0.0248485
0.0317601
-0.00727823
4.39696e-05
0.000129726
0.0129128
-0.00182694
-0.0187497
-0.0238997
0.0291123
-0.00766994
2.78665e-05
5.8669e-05
0.0114843
-0.00192606
-0.0192118
-0.0238137
0.0300952
-0.00833715
-0.00037745
-0.000413004
0.0123158
-0.0026127
-0.0216509
-0.0293183
0.0366588
-0.0110473
-0.00151917
-0.00390918
0.0190688
-0.00491728
-0.0245654
-0.0386387
0.0528958
-0.0164211
-0.00194234
-0.00594537
0.0259575
-0.00817858
-0.0230716
-0.0369482
0.0526005
-0.019544
-0.0015234
-0.00421569
0.0208655
-0.00811544
-0.0201499
-0.0312147
0.044145
-0.017005
-0.00130552
-0.0025328
0.0160735
-0.0066583
-0.016687
-0.0250739
0.0363633
-0.0140213
-0.00120493
-0.00151743
0.0121964
-0.00571071
-0.0143017
-0.0214255
0.0288605
-0.0118548
-0.00130858
-0.000818054
0.00908662
-0.00479202
-0.0111333
-0.0158631
0.0222974
-0.00950958
-0.00108007
-0.000110428
0.00660259
-0.00392518
-0.00812629
-0.0108123
0.0157485
-0.00757135
-0.000881316
0.000300764
0.00446031
-0.00298584
-0.00512258
-0.0063867
0.0109264
-0.00571812
-0.000576551
0.000576521
0.00292523
-0.00205288
-0.00276143
-0.00286638
0.00689822
-0.00416442
-0.000319186
0.000642307
0.00175085
-0.00127294
-0.00133876
-0.00106653
0.00399757
-0.00275328
-0.000179227
0.000492452
0.000998904
-0.000732796
-0.000533114
-0.000319193
0.00213916
-0.0016728
0.00114852
-0.00014795
0.00033737
0.00053734
-0.000383833
0.000205703
-0.000246893
-6.5581e-05
0.00104861
-0.000934306
0.000460744
-7.6486e-05
0.000206493
0.00027613
-0.000174436
6.47961e-05
-0.000108265
2.11194e-05
0.000434395
-0.000448366
0.000318398
-2.68909e-05
0.000113006
0.000137348
-5.81941e-05
4.87816e-05
-1.70671e-05
2.41925e-05
0.000171134
-0.000198357
0.000238437
7.82906e-06
6.05591e-05
7.03763e-05
-1.18077e-05
6.45019e-05
2.65884e-05
2.51913e-05
6.52943e-05
-8.78171e-05
0.000139423
1.48191e-05
3.03628e-05
3.61559e-05
1.87166e-06
6.91714e-05
3.7963e-05
2.04248e-05
2.68366e-05
-4.23066e-05
9.15513e-05
1.15811e-05
1.81745e-05
1.54094e-05
7.34782e-06
4.63752e-05
3.04533e-05
1.53972e-05
1.09273e-05
-2.14998e-05
0.000162649
5.52421e-05
1.35684e-05
7.9837e-06
8.80882e-06
5.4178e-06
3.71063e-05
2.12814e-05
2.00505e-05
1.22192e-05
2.68863e-06
-1.12997e-05
7.64637e-05
3.71133e-05
1.31951e-05
4.981e-06
2.67506e-06
4.8785e-06
3.47009e-05
2.15548e-05
1.58528e-05
5.69735e-06
8.15104e-07
-1.01686e-05
5.71224e-05
2.29503e-05
9.96014e-06
7.6434e-07
-1.13975e-06
4.58779e-06
3.22101e-05
2.40257e-05
9.39939e-06
4.21719e-06
-1.13338e-06
-7.89443e-06
5.56943e-05
1.69293e-05
9.99719e-06
-4.59109e-07
-2.3148e-06
8.61105e-06
2.4981e-05
2.29498e-05
9.36874e-06
4.51055e-06
5.23585e-06
-1.9062e-05
4.10476e-05
8.93859e-06
1.09382e-05
2.85284e-06
-1.00961e-05
-5.74867e-07
3.84591e-05
-2.77092e-06
1.5373e-05
8.10563e-06
5.7304e-06
4.3468e-06
-1.47083e-05
-1.28241e-05
8.82598e-06
9.26541e-06
9.39897e-06
6.7192e-06
-9.72228e-06
4.86583e-07
1.37267e-06
3.37516e-06
3.55205e-06
1.08219e-05
3.97307e-06
4.39254e-06
-1.1172e-05
-6.95433e-07
-2.72313e-06
1.03447e-05
8.20638e-06
2.68365e-06
-8.949e-06
-4.32236e-06
1.49194e-06
3.14686e-06
4.65305e-06
-1.75303e-06
-1.45458e-07
-8.33367e-06
-8.20235e-06
-6.48193e-06
3.11381e-06
-7.07936e-06
3.60059e-06
-6.44408e-06
-6.13441e-06
-1.49317e-05
9.82251e-06
-7.7029e-06
7.06421e-07
2.37547e-07
-3.57227e-06
-2.90813e-06
-3.43931e-06
6.9821e-06
-3.53583e-06
-2.62936e-06
1.54648e-06
-1.60016e-06
7.24344e-07
-2.35418e-06
-3.98072e-06
3.27784e-06
-1.69283e-06
-1.02029e-06
-8.55877e-07
-1.08006e-06
4.65489e-07
-7.54952e-06
5.18719e-06
5.46094e-07
-1.38374e-06
-9.90782e-07
-7.07465e-07
1.05903e-07
-2.65845e-06
2.21201e-07
-3.52866e-07
4.51956e-06
-8.64556e-07
-5.18622e-07
7.55639e-07
-8.07047e-07
-8.80027e-07
2.07884e-06
1.5738e-06
-3.66536e-06
-1.28469e-06
3.52766e-07
-6.35937e-07
-3.78435e-07
3.07464e-06
6.66561e-07
2.00675e-06
2.18726e-06
-7.96141e-07
-3.94095e-07
-3.73555e-07
7.91091e-06
-2.15719e-06
6.10073e-06
-2.85974e-06
-1.4942e-06
-2.11692e-06
4.83024e-07
8.05547e-06
-4.66973e-07
6.08278e-06
2.38502e-07
-9.3093e-08
-1.17909e-06
-5.67797e-07
-2.2226e-07
3.77833e-06
4.66896e-07
3.23016e-06
5.36192e-07
-4.22766e-06
3.04065e-06
3.75146e-07
1.66765e-08
1.31483e-06
8.31576e-07
1.09824e-06
3.51303e-07
-2.52092e-06
1.74242e-06
-2.31251e-06
2.02701e-06
1.26156e-06
9.58114e-07
1.25229e-06
1.09316e-06
1.58256e-07
8.92158e-07
6.83902e-07
2.84946e-06
1.56839e-06
3.99095e-07
1.41136e-06
1.36705e-06
1.1795e-06
1.3035e-06
1.47709e-06
1.24793e-06
1.7242e-06
2.52216e-06
5.61143e-07
7.68545e-07
5.01535e-07
1.4903e-06
5.51959e-07
1.57448e-06
-4.26896e-07
1.68612e-06
-1.75892e-06
-3.24261e-07
4.94929e-07
1.45108e-07
4.7474e-08
1.84927e-07
3.53145e-07
-2.68403e-07
-7.02191e-08
4.61966e-07
-5.12796e-07
-5.75806e-07
-7.54725e-07
-4.25905e-07
-8.3663e-07
-4.8807e-07
-1.19019e-06
-4.78089e-07
-1.10833e-06
-2.60329e-06
-3.09385e-07
-2.21559e-06
-1.23024e-06
-1.20741e-06
-1.64895e-06
-6.32086e-07
-1.60716e-06
-8.15199e-06
6.33882e-07
-2.55786e-06
-6.29342e-07
-4.84975e-08
-9.68904e-07
2.84112e-06
-1.44982e-06
-9.16663e-07
2.6008e-06
5.1048e-06
3.85378e-06
5.62882e-06
5.45729e-06
6.85154e-06
8.96456e-06
7.26696e-06
6.19442e-06
5.56458e-06
1.98311e-05
1.75814e-05
1.51959e-05
1.67966e-05
1.71297e-05
1.78009e-05
1.79254e-05
1.62954e-05
1.15941e-05
6.64721e-06
3.55919e-05
1.61463e-05
1.8507e-05
1.46359e-05
1.67982e-05
1.5111e-05
1.61415e-05
1.03731e-05
9.57899e-06
4.41079e-06
0.0606723
0.0010254
0.0144708
-0.000582257
0.00917749
-0.00178076
0.00580531
-0.00218624
0.00408491
-0.00196944
0.00248899
-0.00141454
0.00140089
-0.000806043
0.00015176
-0.000523414
-0.000841531
-0.000396162
-0.00172176
-0.000491296
-0.00266771
-0.000658407
-0.00343446
-0.000916725
-0.00437792
-0.0013065
-0.00533822
-0.00132891
-0.00413077
-0.000521115
-0.00257215
-0.000200265
-0.00158036
-9.00543e-05
-0.000920652
-4.86056e-05
-0.000497605
-3.34513e-05
-0.0002511
-2.65933e-05
-0.00011816
-2.11145e-05
-5.22622e-05
-1.82535e-05
-2.19161e-05
-1.06918e-05
-1.0262e-05
-5.76024e-06
-2.84867e-06
-1.65967e-06
-1.9958e-07
-3.11937e-06
-7.63337e-06
-2.58008e-06
-5.27669e-06
-3.40385e-06
-2.27983e-06
-3.71643e-06
-1.15416e-05
4.41131e-06
-3.09513e-06
3.31341e-06
-6.95337e-06
6.30597e-06
5.79186e-06
3.12628e-06
6.75877e-06
-5.07659e-07
-5.2187e-06
6.03757e-06
1.79442e-06
3.02674e-06
5.36321e-07
-1.7447e-06
-8.54774e-07
-4.40739e-06
-1.39386e-07
-8.24347e-06
2.27938e-05
1.232e-05
-0.0121916
-0.011146
-0.00149168
-0.00721469
0.000485894
-0.00486131
0.00128887
-0.00321787
0.00174337
-0.00203581
0.00178794
-0.00114995
0.00185464
-0.000487193
0.00171054
-1.31094e-05
0.00165341
0.000338406
0.00147082
0.00061859
0.00153388
0.000847006
0.00166078
0.00107056
0.00180472
0.00153494
0.00192914
0.0015797
0.00105332
0.000952136
0.000369812
0.000578195
6.89248e-05
0.000361529
-4.55875e-05
0.000219698
-8.48051e-05
0.000118086
-8.00779e-05
5.03288e-05
-5.80026e-05
1.23621e-05
-3.49635e-05
-2.81054e-06
-1.74648e-05
-8.79298e-06
-5.23873e-06
-6.60402e-06
2.63564e-07
-2.04913e-06
4.04793e-06
2.54878e-07
1.83971e-06
1.63381e-06
2.68854e-06
6.39437e-07
6.1975e-06
1.5829e-06
7.00685e-06
-9.70705e-06
5.10414e-06
8.45618e-07
1.1983e-05
3.26104e-06
4.53927e-06
2.5816e-06
-5.7152e-06
-9.25131e-08
5.67456e-06
-2.74267e-06
4.93857e-06
3.32186e-06
-7.69394e-07
1.79083e-06
-7.1417e-08
4.88669e-07
-1.01346e-05
1.78628e-05
-1.29523e-05
-0.0252083
-0.0164314
-0.00417455
-0.012666
-0.00119091
-0.00996657
0.000380637
-0.00781168
0.0013338
-0.00599881
0.00169978
-0.00451137
0.00199224
-0.00327647
0.00195197
-0.00228827
0.00192117
-0.00149289
0.00184021
-0.000901812
0.00185509
-0.00050428
0.00171712
-0.000162699
0.00173827
0.000171796
0.00132883
0.000312679
0.000853172
0.000307173
0.000462543
0.000241133
0.000219269
0.000187292
8.94263e-05
0.000141125
2.22606e-05
9.56447e-05
-1.56252e-05
5.49909e-05
-2.71859e-05
2.47907e-05
-2.27713e-05
4.92049e-06
-1.35193e-05
-2.79475e-06
-5.45117e-06
-4.11711e-06
1.86515e-06
-5.6494e-07
5.52363e-06
3.91648e-06
5.78095e-06
8.18945e-06
2.12116e-06
1.07408e-05
3.80104e-06
6.21327e-06
-4.99088e-06
1.29196e-05
2.50823e-06
8.06735e-06
-1.51206e-06
8.76082e-06
6.97978e-06
2.89848e-06
5.31231e-06
1.55322e-06
-4.19751e-06
4.32272e-06
1.39267e-06
1.06234e-06
1.08876e-05
-7.27263e-06
-5.71195e-07
-6.18551e-06
8.99929e-06
-2.65974e-05
-0.0384446
-0.0237764
-0.0093435
-0.0166434
-0.00339051
-0.0118017
-0.000292203
-0.00852917
0.0011057
-0.00628667
0.00173814
-0.00470153
0.00165464
-0.0035833
0.00154166
-0.00272348
0.00108396
-0.00209079
0.000786004
-0.00154168
0.000316775
-0.00112144
-1.04567e-05
-0.000776526
-0.000320663
-0.000516227
-0.000558868
-0.000322349
-0.000640091
-0.000193105
-0.000578999
-8.9977e-05
-0.000415083
-3.2451e-05
-0.000266736
-2.76025e-06
-0.000170385
1.35978e-05
-0.000101852
1.75351e-05
-6.07196e-05
1.2114e-05
-3.58552e-05
5.83556e-06
-1.86226e-05
1.68235e-07
-5.87393e-06
-1.31789e-06
1.86824e-06
1.13122e-07
7.35057e-06
4.31256e-06
8.73527e-06
6.47432e-06
9.00786e-06
6.26459e-06
7.3368e-06
4.01691e-06
8.09698e-06
-4.0387e-06
8.13724e-06
3.4303e-06
1.30081e-05
7.40716e-06
7.07028e-06
2.64411e-06
-2.22237e-06
-7.01416e-07
4.16687e-06
1.00749e-06
3.34939e-06
7.50591e-06
2.02046e-07
-2.08905e-06
-1.50972e-06
4.11026e-06
-1.9243e-05
0.030033
0.00776552
0.00807346
0.00390952
0.00455098
0.0011367
0.00250791
-0.000502628
0.00147646
-0.00134247
0.000966573
-0.00168733
0.000675483
-0.00172099
0.000547346
-0.00158881
0.000378073
-0.00138132
0.000292305
-0.00112207
0.0001151
-0.000867208
-6.19016e-05
-0.000629404
-0.000347896
-0.000437251
-0.000573387
-0.000291874
-0.000742025
-0.000174137
-0.000672082
-7.06102e-05
-0.000477924
-6.75002e-06
-0.00030822
1.63396e-05
-0.000189166
2.13388e-05
-0.000122894
2.00882e-05
-7.7442e-05
1.77186e-05
-4.37427e-05
1.26937e-05
-2.0672e-05
8.08163e-06
-6.36432e-06
4.45989e-06
2.73676e-06
3.84791e-06
7.66848e-06
5.07206e-06
1.06376e-05
8.67476e-06
8.99371e-06
1.06689e-05
8.42008e-06
-4.07867e-06
-1.03796e-05
1.29715e-05
6.45772e-06
1.11929e-05
4.34828e-06
9.87252e-06
6.58265e-06
1.17345e-06
3.33686e-06
8.01485e-06
-5.54043e-07
2.96633e-06
3.8732e-06
2.01186e-06
1.03015e-05
-6.19776e-06
-1.63772e-06
-1.15073e-05
-0.00133821
-0.00103694
-0.000180001
-0.000941655
-9.76795e-06
-0.000875132
0.00017492
-0.000829373
0.000274835
-0.000792126
0.000406649
-0.000746751
0.000501431
-0.000681919
0.000588771
-0.000597207
0.000671728
-0.000492951
0.000713597
-0.000371258
0.000774238
-0.000224716
0.000768784
-6.6135e-05
0.000808098
9.44216e-05
0.000772677
0.000209302
0.000704095
0.00024587
0.000513108
0.000196778
0.000282127
0.000125014
0.00011741
7.87596e-05
1.83283e-05
5.4651e-05
-2.25634e-05
4.35359e-05
-2.99151e-05
3.56342e-05
-2.2754e-05
2.80828e-05
-1.15958e-05
1.96024e-05
-1.30584e-06
1.28108e-05
5.46167e-06
8.30909e-06
9.69303e-06
8.07494e-06
1.21165e-05
1.02537e-05
1.15311e-05
1.19624e-05
-5.68881e-06
-1.09881e-05
1.25712e-05
-1.53589e-06
9.94578e-06
7.02566e-06
1.24099e-05
1.71124e-05
1.52709e-06
5.24844e-06
6.61465e-06
1.9614e-07
3.64161e-06
2.30654e-06
2.73688e-06
6.77418e-06
-3.89936e-06
-3.72987e-06
-0.00368847
-0.00207539
-0.000852302
-0.00173389
-0.000380559
-0.00143963
5.29393e-06
-0.00120489
0.000213229
-0.00103025
0.000374809
-0.00088885
0.00045831
-0.00077185
0.000500763
-0.000665976
0.000524907
-0.000565379
0.000499447
-0.00046442
0.000491237
-0.000358426
0.000447542
-0.000242394
0.000463981
-0.000121385
0.000431185
-2.75281e-05
0.000390745
2.82094e-05
0.000291218
3.99332e-05
0.000177538
3.48207e-05
8.366e-05
3.21767e-05
3.16581e-05
3.7111e-05
7.22388e-06
4.19924e-05
-3.59001e-06
4.19646e-05
-4.92051e-06
3.60988e-05
-9.67597e-07
2.86108e-05
4.35928e-06
2.07015e-05
9.20746e-06
1.46639e-05
1.28411e-05
1.18094e-05
1.51392e-05
1.21341e-05
1.4302e-05
7.26143e-06
-4.46282e-06
1.0473e-05
-8.33883e-06
1.08061e-05
1.27841e-05
8.63666e-06
2.09885e-05
5.56087e-06
1.06577e-05
8.55788e-07
4.95101e-06
7.60783e-06
7.69579e-07
2.17885e-06
2.39378e-06
-1.48112e-06
-0.0138166
-0.00647016
-0.0042455
-0.00445689
-0.00224557
-0.00310009
-0.00113013
-0.00223323
-0.000464026
-0.00166001
-0.000102865
-0.00126941
8.51035e-05
-0.00100075
0.000194034
-0.000793231
0.000217601
-0.00063073
0.000235054
-0.000491072
0.000201798
-0.000380511
0.000183071
-0.000273389
0.00014939
-0.000183483
0.000131829
-0.000106292
8.81963e-05
-4.94248e-05
5.50478e-05
-1.62245e-05
1.30024e-05
1.98356e-06
-1.18218e-05
1.46227e-05
-1.8908e-05
2.51924e-05
-1.91009e-05
3.52081e-05
-1.26923e-05
4.09169e-05
-4.9671e-06
4.14235e-05
2.67315e-06
3.59657e-05
9.05014e-06
2.83522e-05
1.2983e-05
2.16909e-05
1.57373e-05
1.65063e-05
1.92287e-05
1.24509e-05
2.06106e-05
1.30953e-05
5.3039e-06
6.65374e-06
3.61702e-06
2.28467e-05
-3.5499e-06
1.80333e-05
4.95099e-06
1.66565e-05
-2.1113e-06
6.77378e-06
2.04792e-06
2.22738e-06
-3.00362e-08
0.0171297
0.00674791
0.00533155
0.0045516
0.00318149
0.00296839
0.00187172
0.00190784
0.00112358
0.00118902
0.000664715
0.000688705
0.000422554
0.000342788
0.000269924
0.00010583
0.00018345
-3.31104e-05
0.000146288
-0.000101214
0.000110309
-0.000122041
0.000109673
-0.000104166
7.68201e-05
-5.1872e-05
6.51076e-05
1.53941e-05
5.71418e-05
5.68791e-05
1.95774e-05
6.89075e-05
-9.30877e-06
6.02158e-05
-2.46693e-05
4.8861e-05
-3.35499e-05
4.7325e-05
-2.49207e-05
5.2043e-05
-1.34419e-05
5.47044e-05
-2.18212e-06
5.06147e-05
6.13408e-06
4.34681e-05
1.14247e-05
3.47501e-05
1.57203e-05
2.55959e-05
1.76995e-05
2.18472e-05
1.4911e-05
2.44046e-05
3.92671e-05
-7.93482e-06
4.19449e-05
-2.32443e-05
3.84675e-05
-2.04203e-05
1.74763e-05
-5.11726e-06
2.69327e-05
-1.47965e-06
1.0087e-05
-3.55791e-06
-0.00112593
-0.00052957
-0.000216927
-0.000500399
-0.000130991
-0.000448591
-6.81764e-05
-0.000391805
-2.07178e-05
-0.000328734
1.76166e-05
-0.000268185
5.4211e-05
-0.000204615
7.3519e-05
-0.000147833
9.15756e-05
-9.56082e-05
9.39079e-05
-5.32311e-05
9.93225e-05
-1.45167e-05
9.97868e-05
1.77158e-05
0.000103418
4.65925e-05
0.000105418
6.53302e-05
6.06824e-05
8.31468e-05
2.3277e-05
9.34716e-05
-2.73367e-06
9.62708e-05
-2.75689e-05
9.34089e-05
-2.28043e-05
8.84085e-05
-1.92175e-05
7.90526e-05
-1.33412e-05
6.72185e-05
-7.04545e-06
5.72739e-05
1.5871e-07
4.65843e-05
7.7083e-06
3.59772e-05
1.16417e-05
2.74299e-05
1.69398e-05
1.41119e-05
3.08409e-05
5.18098e-05
-1.04297e-05
7.05595e-05
-5.47487e-05
8.61575e-05
-2.9338e-05
2.9831e-05
-2.18131e-05
2.88732e-05
0.00312342
0.00195721
0.00101952
0.00162506
0.000687056
0.00137926
0.000465884
0.0011734
0.000300252
0.000985365
0.000181942
0.000799814
7.85336e-05
0.000615288
2.47051e-05
0.000465274
-5.68043e-06
0.000352489
-5.48564e-06
0.000271775
6.10808e-06
0.00021141
2.01733e-05
0.000168511
4.82345e-05
0.000149569
4.78102e-05
0.000154976
5.44703e-05
0.000157616
3.1879e-05
0.000150681
-1.54928e-05
0.000132156
-3.52513e-05
0.000110637
-5.46222e-05
8.91076e-05
-5.85034e-05
7.36582e-05
-5.22481e-05
6.36742e-05
-3.6595e-05
5.21513e-05
-2.05251e-05
4.33812e-05
-8.80681e-06
3.41239e-05
3.34549e-06
2.0506e-05
1.355e-05
4.03128e-05
3.59194e-05
1.22764e-05
6.85966e-05
-4.61336e-05
0.000106655
-0.0134483
-0.00438948
-0.00412463
-0.00283583
-0.002498
-0.00170427
-0.00153445
-0.000989394
-0.000981606
-0.000543163
-0.000652412
-0.00025012
-0.000444042
-7.59269e-05
-0.000316829
1.56416e-05
-0.000239211
5.68372e-05
-0.000189849
7.5477e-05
-0.000157287
7.76107e-05
-0.000133029
7.60506e-05
-0.000124924
6.67989e-05
-0.000115093
6.65627e-05
-0.000127748
7.5546e-05
-0.00016178
9.26223e-05
-0.000164594
0.000106952
-0.000169376
0.00010844
-0.000164433
8.9206e-05
-0.000137257
8.80274e-05
-0.000112832
6.88632e-05
-8.0021e-05
5.93756e-05
-4.51476e-05
4.89242e-05
-1.87165e-05
3.94101e-05
-2.06361e-05
6.2437e-05
0.0128911
0.00679587
0.00365711
0.00444468
0.00154541
0.00289257
0.000387329
0.00190595
-0.000295595
0.0012689
-0.000667853
0.000831675
-0.000835125
0.000539756
-0.000864569
0.000359989
-0.000856329
0.000238304
-0.000831997
0.000155037
-0.000819172
9.30625e-05
-0.00078921
5.58796e-05
-0.000760732
3.94959e-05
-0.000706813
5.08386e-05
-0.000619983
7.86245e-05
-0.000512704
9.79882e-05
-0.000372182
0.000104953
-0.000249223
0.000106199
-0.00023024
0.000286609
)
;

boundaryField
{
    inlet
    {
        type            extrapolatedCalculated;
        value           nonuniform List<scalar> 
11
(
3.55919e-05
1.61463e-05
1.8507e-05
1.46359e-05
1.67982e-05
1.5111e-05
1.61415e-05
1.03731e-05
9.57899e-06
4.41079e-06
1.232e-05
)
;
    }
    outlet
    {
        type            extrapolatedCalculated;
        value           nonuniform List<scalar> 0();
    }
    walls
    {
        type            extrapolatedCalculated;
        value           nonuniform List<scalar> 4(-0.0573766 -0.0707451 0.102964 -0.0247658);
    }
    frontAndBack
    {
        type            empty;
    }
    procBoundary6to2
    {
        type            processor;
        value           nonuniform List<scalar> 
13
(
-0.00972005
-0.0278584
-0.0299855
-0.0489696
0.020134
-0.00119555
-0.00305121
-0.0146567
0.0156182
-0.000475267
0.0037924
-0.0103474
0.0158388
)
;
    }
    procBoundary6to3
    {
        type            processor;
        value           uniform -0.0284331;
    }
    procBoundary6to5
    {
        type            processor;
        value           nonuniform List<scalar> 
86
(
0.0531503
0.0190251
0.0178885
0.00803121
0.0131913
0.005942
0.0124756
0.00554008
0.0128714
0.0063777
0.0143884
0.00807052
0.0152338
0.0085451
0.0137788
0.00747434
0.0120839
0.00632137
0.010518
0.00506788
0.00886392
0.00380784
0.00693897
0.00266304
0.0050767
0.00183664
0.00326601
0.00126063
0.00183167
0.000652756
0.000907792
0.000387238
0.000377505
0.000377505
0.000296873
0.000735724
0.000181985
0.000506004
0.000106735
0.000336226
8.5831e-05
0.000187682
8.51073e-05
8.48926e-05
8.98545e-05
1.47621e-05
1.47621e-05
-1.0719e-06
7.87369e-05
1.50193e-05
5.48606e-05
2.06094e-05
4.10195e-05
2.12096e-05
3.51242e-05
7.73633e-07
7.73633e-07
-8.9182e-06
1.12212e-05
-4.48965e-06
4.96899e-07
-2.19658e-06
6.69027e-06
-9.87237e-06
-9.87237e-06
-1.75386e-06
-2.44854e-06
3.40583e-06
-4.88139e-06
3.92025e-06
-4.75503e-06
-3.63862e-06
-3.63862e-06
-1.47149e-06
1.32961e-06
1.76239e-07
1.57412e-06
-1.64818e-06
3.85764e-06
-2.141e-06
-4.03499e-06
5.00986e-06
5.00986e-06
6.51501e-06
1.81012e-05
1.79464e-05
)
;
    }
    procBoundary6to7
    {
        type            processor;
        value           nonuniform List<scalar> 
91
(
3.32435e-05
3.32435e-05
4.05487e-05
4.05487e-05
2.15394e-05
2.15394e-05
8.17026e-06
-3.7904e-06
8.17026e-06
4.2478e-06
9.96418e-06
-3.7904e-06
-5.85339e-06
3.35893e-06
3.06168e-06
9.96418e-06
5.06918e-06
1.33316e-05
6.41374e-06
3.35893e-06
3.18552e-06
-2.34926e-06
2.19277e-05
-2.67289e-06
1.33316e-05
1.02699e-05
-5.91394e-05
4.61106e-05
-2.97761e-05
2.42214e-05
-2.34926e-06
-3.86954e-06
2.17878e-05
1.70281e-06
5.45822e-05
3.8113e-05
1.97134e-05
4.58135e-05
-5.91394e-05
2.63306e-05
-0.000230207
9.50682e-05
-6.14139e-05
8.69021e-05
-4.14108e-05
9.40249e-05
-2.5081e-05
9.20938e-05
-2.37711e-05
8.18932e-05
-2.78952e-05
2.17878e-05
8.6106e-05
-0.0257324
-0.0104348
-0.00704015
-0.00718893
-0.0039025
-0.00493126
-0.002074
-0.0034824
-0.000978009
-0.00245591
-0.000243222
-0.00163823
0.00011566
-0.0010925
0.000301865
-0.00073088
0.00036103
-0.000468492
0.00042617
-0.000250914
0.000456524
-6.67787e-05
0.00050036
9.47148e-05
0.000512525
0.000219739
0.000488612
0.000293273
0.000431557
0.000288693
0.000358177
0.000245336
0.000282665
0.000205886
0.000217752
0.000168702
-0.000230207
0.000160513
)
;
    }
}


// ************************************************************************* //
