/*--------------------------------*- C++ -*----------------------------------*\
| =========                 |                                                 |
| \\      /  F ield         | OpenFOAM: The Open Source CFD Toolbox           |
|  \\    /   O peration     | Version:  2506                                  |
|   \\  /    A nd           | Website:  www.openfoam.com                      |
|    \\/     M anipulation  |                                                 |
\*---------------------------------------------------------------------------*/
FoamFile
{
    version     2.0;
    format      ascii;
    arch        "LSB;label=32;scalar=64";
    class       volScalarField;
    location    "50";
    object      turbulenceProperties:L;
}
// * * * * * * * * * * * * * * * * * * * * * * * * * * * * * * * * * * * * * //

dimensions      [0 1 0 0 0 0 0];

internalField   nonuniform List<scalar> 
1340
(
0.0833016
0.0912503
0.0991896
0.0965464
0.234106
0.225104
0.201277
0.176568
0.341945
0.324367
0.290555
0.22975
0.409051
0.389389
0.351637
0.27297
0.451093
0.435226
0.400186
0.313442
0.47568
0.467529
0.439761
0.351565
0.485386
0.488075
0.470821
0.386716
0.482139
0.497535
0.493074
0.417383
0.469441
0.497237
0.506928
0.442841
0.454201
0.490922
0.514413
0.463678
0.448188
0.486603
0.520489
0.481199
0.475605
0.500977
0.534702
0.49099
0.591425
0.571358
0.57571
0.465828
0.188438
0.279166
0.34441
0.246252
0.0937071
0.0727086
0.109399
0.140363
0
0.0381409
0.0570418
0.0604466
0
0
0
0.0679617
0
0
0
0.0755862
2.95714
0
0
0.082641
0.284828
0.383968
0
0.0869076
0.0329407
0.0419046
5.42943
0.0873236
0.0252023
0.0221123
2.11855
0.084564
0.0251901
0.0202922
1.63012
0.0776205
0.0252742
0.0209435
1.67224
0.0630869
0.0252984
0.0224652
1.83885
0.0360883
0.0257078
0.0234838
1.84472
0
0.0262849
0.0240994
1.75116
0
0.026926
0.0247642
1.65664
0
0.0276341
0.0254759
1.56697
0
0.0284413
0.0262131
1.48398
0
0.029405
0.0270538
1.41299
0
0.030606
0.0280773
1.3571
0
0.0320756
0.0292906
1.31147
0
0.040693
0.0337461
0.0307538
1.27904
0
0.0425297
0.0356361
0.032464
0.761632
0
0.0445012
0.0377418
0.0346414
0.419234
17.6156
0.0466162
0.0408277
0.0360115
0.079214
4.13604
0.0491128
0.0442473
0.0375939
0.0585688
2.72857
0.0519765
0.0480016
0.0403979
0.0481528
1.96614
0.0552146
0.0524281
0.0439247
0.0436808
0.603198
0.0589438
0.0573963
0.0483501
0.0435228
0.155448
0.0635213
0.0624424
0.0542336
0.0454921
0.0837603
0.0692642
0.0674818
0.0617162
0.0494741
0.0604656
0.076333
0.0731352
0.0698312
0.0557376
0.0543119
0.0848666
0.0803523
0.0776146
0.0645323
0.056649
0.0985578
0.0951641
0.0897957
0.0855418
0.0748886
0.0634894
0.111284
0.107881
0.101887
0.0951789
0.0854109
0.0730658
0.127589
0.124144
0.117189
0.107666
0.0960215
0.0836039
0.14923
0.145971
0.136942
0.123544
0.107783
0.0941725
0.179764
0.177493
0.163675
0.143372
0.12141
0.104985
0.226248
0.229004
0.202035
0.167591
0.136805
0.116402
0.303921
0.336568
0.256536
0.194402
0.152871
0.128195
0.404039
0.804121
0.30599
0.216264
0.167384
0.139576
0.362453
0.405418
0.296265
0.224764
0.178159
0.149664
0.273268
0.298785
0.301711
0.264543
0.222172
0.184716
0.15802
0.255906
0.264294
0.261183
0.241701
0.216092
0.188188
0.164684
0.24322
0.245169
0.240659
0.227708
0.210706
0.190072
0.170012
0.235147
0.234182
0.229295
0.219422
0.207123
0.191497
0.174468
0.230811
0.228348
0.223337
0.215099
0.205487
0.193192
0.178555
0.229146
0.225985
0.220968
0.213732
0.205754
0.195683
0.182765
0.22931
0.225795
0.221008
0.214547
0.207694
0.199148
0.187431
0.233569
0.230884
0.227185
0.22271
0.216929
0.210978
0.203571
0.192691
0.236792
0.233711
0.229894
0.225596
0.220351
0.215145
0.20867
0.198441
0.241217
0.237832
0.233862
0.229638
0.224781
0.220137
0.214412
0.204658
0.246634
0.242844
0.238662
0.234485
0.229934
0.225768
0.220646
0.211255
0.253007
0.248721
0.244207
0.239963
0.235661
0.231936
0.22739
0.218285
0.261873
0.257027
0.251984
0.247359
0.242924
0.239306
0.235053
0.225998
0.269578
0.264747
0.259715
0.255053
0.250557
0.247048
0.242963
0.233924
0.27834
0.273718
0.268985
0.264355
0.260053
0.255926
0.252846
0.249409
0.241038
0.284618
0.2795
0.274254
0.269239
0.264775
0.260758
0.257887
0.255087
0.247366
0.294696
0.289273
0.283411
0.277624
0.272439
0.267838
0.264552
0.26183
0.2548
0.306265
0.301278
0.295626
0.289824
0.284422
0.279433
0.275488
0.271888
0.263502
0.317827
0.313043
0.307545
0.301792
0.296295
0.291163
0.287208
0.284325
0.2772
0.329179
0.325702
0.321392
0.316709
0.31202
0.30725
0.30253
0.297295
0.285718
0.341957
0.338184
0.333586
0.328703
0.324023
0.319793
0.317215
0.316791
0.311869
0.344646
0.344052
0.342449
0.34021
0.337477
0.333735
0.327452
0.318079
0.301461
0.353331
0.349138
0.345085
0.341324
0.338203
0.33618
0.33756
0.341965
0.342498
0.316783
0.32049
0.319898
0.319023
0.318154
0.316711
0.313646
0.305595
0.29276
0.278112
0.329706
0.324239
0.319349
0.314903
0.310717
0.306832
0.303198
0.299155
0.29372
0.293872
0.255649
0.270723
0.264929
0.26028
0.257162
0.254034
0.250195
0.24445
0.238803
0.247342
0.155974
0.277094
0.342963
0.323489
0.340437
0.362056
0.385186
0.409078
0.433358
0.459826
0.492177
0.530254
0.573574
0.645381
0.696684
0.693147
0.714516
0.717351
0.671015
0.597547
0.518264
0.436441
0.352243
0.259353
0.13889
0.233325
0.21787
0.211705
0.21096
0.221274
0.233608
0.240628
0.233019
0.198645
0.117316
0
0
0
0
0
2.80214
0.645266
0.162728
0.075321
0.0589721
0.059528
0.0664412
0.076014
0.0858694
0.0953436
0.10489
0.114713
0.124538
0.133928
0.142569
0.150298
0.157104
0.163118
0.168625
0.173991
0.179526
0.185403
0.191616
0.198138
0.204957
0.212087
0.219845
0.227897
0.235208
0.241415
0.249117
0.256034
0.2705
0.27469
0.30406
0.286562
0.334972
0.270058
0.300991
0.254869
0.34165
0.451852
0.465246
0.498871
0.547231
0.593953
0.644565
0.706065
0.783397
0.88021
0.996546
1.13034
1.27184
1.40427
1.52813
1.60497
1.58999
1.5114
1.41531
1.33094
1.25349
1.17281
1.09888
1.03117
0.957676
0.879243
0.808363
0.752107
0.730701
0.739108
0.735793
0.713433
0.665853
0.580459
0.375258
0.334727
0.166961
0
0
0
0
15.7675
1.50493
0.232775
0.0734394
0.0600045
0.0632504
0.0713557
0.0807228
0.0896047
0.0982157
0.107042
0.116103
0.125178
0.134033
0.142464
0.150324
0.15758
0.164343
0.17086
0.177372
0.184055
0.190926
0.197988
0.205198
0.212705
0.220687
0.228822
0.236262
0.242606
0.250232
0.256793
0.270161
0.27476
0.299268
0.286699
0.32234
0.27386
0.298645
0.506462
0.663842
0.665008
0.678929
0.715482
0.761863
0.813651
0.866904
0.920837
0.97556
1.03134
1.09078
1.15848
1.24225
1.35217
1.50355
1.72088
2.05382
2.54856
2.88234
2.54714
2.15232
1.89763
1.71255
1.53065
1.37266
1.27602
1.2336
1.22238
1.19509
1.13678
1.07986
1.04124
1.01485
0.984887
0.896338
0.598409
0.354057
0.109974
0
0
0
0
1.80102
0.244049
0.0718225
0.0623131
0.0677033
0.0763725
0.0848826
0.0927723
0.10066
0.108813
0.117168
0.125585
0.133911
0.142005
0.149787
0.157287
0.164638
0.171984
0.17945
0.187044
0.194771
0.202544
0.210577
0.218994
0.227334
0.234987
0.24177
0.249687
0.256626
0.269584
0.275339
0.297429
0.287902
0.319362
0.275254
0.63
0.930737
0.950607
0.901217
0.92362
0.936718
0.976318
1.07026
1.21827
1.40633
1.57712
1.62401
1.54174
1.4282
1.33741
1.28372
1.26801
1.29022
1.35121
1.45387
1.60524
1.81551
2.09408
2.4274
2.62438
2.47002
2.27551
2.22348
2.319
2.09499
1.62449
1.36822
1.25165
1.20544
1.19777
1.21668
1.22796
0.911624
0.394045
0.219102
0
0
0
0
1.24607
0.140674
0.0671392
0.0656575
0.072783
0.0810107
0.0885267
0.0957827
0.10325
0.111001
0.118957
0.12701
0.135047
0.14299
0.150831
0.158639
0.166503
0.174512
0.182658
0.190933
0.199211
0.207739
0.216557
0.225073
0.232957
0.240185
0.248488
0.255917
0.268827
0.275439
0.29685
0.288461
0.319896
0.206528
0.264828
0.337885
0.365665
0.400006
0.444291
0.486164
0.522038
0.558314
0.602788
0.661224
0.738434
0.845531
1.01674
1.38211
3.59719
1.63355
1.16884
1.01515
0.961068
0.956819
0.983646
1.03246
1.09791
1.17475
1.25792
1.3503
1.48176
1.75606
2.62611
2.70881
1.73011
1.44308
1.33845
1.31218
1.33616
1.42209
1.55047
1.01848
0.449251
0.238268
0.0816259
0
0
0
0.736792
0.0898947
0.0663795
0.0702608
0.0779548
0.0853505
0.0922875
0.0993359
0.106696
0.114344
0.122202
0.130176
0.138193
0.146229
0.154322
0.162519
0.170891
0.179428
0.188116
0.196815
0.205752
0.21492
0.2236
0.231675
0.239309
0.24801
0.255898
0.268924
0.276225
0.297544
0.290157
0.0389777
0.061866
0.0952086
0.123274
0.148869
0.176247
0.20544
0.234361
0.261179
0.287779
0.31671
0.347643
0.380844
0.417188
0.463991
0.537898
0.685338
0.887268
0.7464
0.652744
0.634813
0.653633
0.692868
0.745093
0.8062
0.874465
0.954202
1.06442
1.25434
1.65217
2.45213
2.01371
1.60467
1.44681
1.39601
1.40873
1.48894
1.71793
1.82422
0.904895
0.411433
0.0489694
0.0349779
0
0
3.06197
0.212048
0.0723784
0.0691402
0.0755853
0.0828504
0.089646
0.0964363
0.103532
0.110969
0.118694
0.126631
0.134716
0.14291
0.151213
0.159653
0.168295
0.177136
0.186146
0.195187
0.204504
0.213961
0.222799
0.231102
0.239151
0.24827
0.25658
0.269775
0.277814
0.19225
0.0860062
0.0428883
0.381257
0.0285289
0.0414599
0.0569601
0.0742377
0.0912472
0.106201
0.119185
0.1345
0.15491
0.183313
0.205955
0.219638
0.218289
0.282491
0.40466
0.454728
0.49148
0.53752
0.591226
0.650694
0.71493
0.784523
0.865776
0.978914
1.17212
1.56482
2.40277
2.14705
1.70339
1.52451
1.45902
1.46103
1.52863
1.72781
2.39399
1.4488
0.713699
0.328431
0.0351399
0.0899253
0
0
0.809646
0.0893476
0.0698302
0.0740353
0.080932
0.0876314
0.0942414
0.101124
0.108379
0.115985
0.123888
0.132023
0.140334
0.148797
0.157429
0.166276
0.175341
0.184592
0.193908
0.203551
0.213263
0.222246
0.230816
0.239281
0.248834
0.257558
0.045034
0.0663143
0.130059
0.374195
8.44047
1.26802
0.593641
0.285213
0.119078
0.206545
0.0553057
0.0277296
0.0271863
0.0315595
0.0424583
0.094164
0.11248
0.32727
0.473126
0.533325
0.568546
0.60669
0.651361
0.702186
0.758996
0.82377
0.905075
1.02735
1.2501
1.73579
2.76246
2.15679
1.73899
1.57079
1.50424
1.50056
1.55807
1.72571
2.31727
2.26073
1.00978
0.533499
0.232953
0.0375055
0.231165
0
1.88038
0.135922
0.072926
0.0735718
0.0797606
0.0863197
0.0927845
0.0994782
0.106559
0.114039
0.121885
0.130037
0.138422
0.147006
0.155765
0.164757
0.173975
0.183391
0.192912
0.202793
0.212705
0.221814
0.230642
0.0381554
0.0437624
0.0491895
0.0512456
0.0544083
0.058614
0.0621502
0.0740007
0.135179
0.445966
2.3956
3.60598
5.8636
0.0256197
0.124577
0.265179
0.505195
0.657577
0.712235
0.728646
0.740384
0.758473
0.785316
0.82095
0.865873
0.9239
1.00775
1.15063
1.43768
2.15642
2.95303
2.04398
1.72298
1.58874
1.53323
1.53013
1.5816
1.72725
2.18607
4.08542
1.31381
0.717044
0.376762
0.153539
0.0759195
0
3.56935
0.255669
0.0793957
0.0743953
0.0794929
0.0858178
0.0921525
0.0986808
0.105589
0.112934
0.120697
0.128825
0.137248
0.145886
0.154724
0.163806
0.173113
0.182624
0.192268
0.202299
0.0549255
0.057405
0.056212
0.0523086
0.0508168
0.0445292
0.0387671
0.0371361
0.0467816
0.0954723
0.746635
0
0.0757311
0.142844
0.328818
0.491659
0.632941
0.740992
0.810745
0.850915
0.875626
0.896066
0.919003
0.94845
0.98817
1.04591
1.14169
1.32605
1.74491
2.99093
2.5208
1.89815
1.68082
1.5865
1.54839
1.55098
1.6004
1.73181
2.10609
6.54458
1.62853
0.883853
0.501738
0.246709
0.0878431
0.0469335
7.24435
0.536059
0.088805
0.0764926
0.0801751
0.0861596
0.092371
0.0987567
0.10551
0.112711
0.120373
0.12844
0.136831
0.145473
0.154346
0.163461
0.0661001
0.0618714
0.0604656
0.0558294
0.0534106
0.0460668
0.0385916
0.0355623
0.0447326
0.294036
0
0.108919
0.208779
0.402812
0.545186
0.656454
0.746959
0.821223
0.880884
0.927488
0.963917
0.994373
1.02366
1.057
1.1012
1.16923
1.29175
1.54993
2.23203
3.3343
2.14218
1.77385
1.63309
1.57333
1.55334
1.56433
1.61484
1.7376
2.05926
3.86849
1.94564
1.03453
0.611632
0.333635
0.148019
0.0479434
0.205804
0.660836
0.0993296
0.079675
0.0817712
0.0873321
0.0934187
0.0996967
0.106318
0.113384
0.120925
0.0531352
0.0535993
0.0579906
0.0552644
0.0529623
0.0451826
0.0396233
0.0452454
0.269194
0
0.070916
0.139373
0.419157
0.581633
0.686362
0.763053
0.826303
0.882202
0.932863
0.978834
1.02054
1.05923
1.09761
1.14047
1.19668
1.28507
1.45155
1.83089
2.97653
2.61387
1.91058
1.67884
1.58848
1.55506
1.55106
1.57125
1.6251
1.74378
2.0343
3.22588
2.24647
1.17039
0.709107
0.41137
0.206805
0.0810118
0.451605
0.580261
0.108898
0.0836778
0.0438132
0.0462521
0.0533077
0.0538598
0.0529929
0.0481689
0.0428365
0.0508442
0.322277
0
0.133126
0.256067
0.533853
0.676397
0.758882
0.8182
0.869013
0.916807
0.963456
1.00943
1.05488
1.10049
1.14834
1.20321
1.27584
1.3917
1.61798
2.17935
3.36303
2.20459
1.76837
1.61185
1.55503
1.54163
1.55121
1.58018
1.63817
1.74748
)
;

boundaryField
{
    inlet
    {
        type            calculated;
        value           nonuniform List<scalar> 
11
(
0.131557
0.133549
0.130322
0.127352
0.124701
0.122291
0.119998
0.117684
0.115151
0.115815
0.111507
)
;
    }
    outlet
    {
        type            calculated;
        value           nonuniform List<scalar> 0();
    }
    walls
    {
        type            calculated;
        value           uniform 0;
    }
    frontAndBack
    {
        type            empty;
    }
    procBoundary6to2
    {
        type            processor;
        value           nonuniform List<scalar> 
13
(
0.137745
0.26438
0.378652
0.567164
0.191799
0.043172
1.05217
0.0317565
0.0353293
0.0510698
0.0661757
0.0537897
0.0438558
)
;
    }
    procBoundary6to3
    {
        type            processor;
        value           uniform 0.0396264;
    }
    procBoundary6to5
    {
        type            processor;
        value           nonuniform List<scalar> 
86
(
0.0872957
0.239143
0.341997
0.407311
0.440054
0.451581
0.446878
0.430921
0.411046
0.396361
0.40015
0.482452
0.327679
0.0590826
0.0322418
0
0
0
0.338276
0.0453122
0.0278193
0.0271736
0.0284745
0.0296624
0.0305286
0.031337
0.0321874
0.0330846
0.0340371
0.0350581
0.0361692
0.0374314
0.0389505
0.0389505
0.0403422
0.0422525
0.0444725
0.0470053
0.0499081
0.0532309
0.0571029
0.0616324
0.0668859
0.0729347
0.0799723
0.0883361
0.0883361
0.100315
0.1126
0.127938
0.147509
0.172981
0.206227
0.24677
0.282552
0.289146
0.289146
0.248294
0.243178
0.237334
0.233031
0.230905
0.230483
0.231418
0.231418
0.235378
0.239144
0.244064
0.249934
0.256847
0.266253
0.274
0.274
0.282089
0.288764
0.298885
0.309771
0.321105
0.33076
0.344322
0.342744
0.358481
0.358481
0.327575
0.32955
0.285754
)
;
    }
    procBoundary6to7
    {
        type            processor;
        value           nonuniform List<scalar> 
91
(
0.259701
0.259701
0.302197
0.302197
0.274991
0.274991
0.321086
0.299165
0.321086
0.293253
0.270919
0.299165
0.279734
0.239523
0.249518
0.270919
0.258665
0.212317
0.221506
0.239523
0.230585
0.17279
0.182332
0.192023
0.212317
0.202132
0.128889
0.137188
0.145792
0.154632
0.17279
0.163722
0.0842332
0.0893128
0.0952742
0.10148
0.108
0.114946
0.128889
0.122346
1.98115
2.88455
2.45968
1.27639
0.787934
0.476518
0.258324
0.116928
0.0577207
0.332847
0.118627
0.0842332
0.0885958
0.0400799
0.0440336
0.0525117
0.0526836
0.0500263
0.0453455
0.0528182
0.313594
0
0.179436
0.347829
0.650336
0.774156
0.83253
0.872895
0.910115
0.948472
0.989035
1.03199
1.07761
1.12698
1.18281
1.25107
1.34542
1.50002
1.81201
2.63956
2.9086
1.99346
1.68248
1.56245
1.51857
1.5093
1.51898
1.54647
1.60301
1.98115
1.71739
)
;
    }
}


// ************************************************************************* //
