/*--------------------------------*- C++ -*----------------------------------*\
| =========                 |                                                 |
| \\      /  F ield         | OpenFOAM: The Open Source CFD Toolbox           |
|  \\    /   O peration     | Version:  2506                                  |
|   \\  /    A nd           | Website:  www.openfoam.com                      |
|    \\/     M anipulation  |                                                 |
\*---------------------------------------------------------------------------*/
FoamFile
{
    version     2.0;
    format      ascii;
    arch        "LSB;label=32;scalar=64";
    class       volScalarField;
    location    "50";
    object      turbulenceProperties:I;
}
// * * * * * * * * * * * * * * * * * * * * * * * * * * * * * * * * * * * * * //

dimensions      [0 0 0 0 0 0 0];

internalField   nonuniform List<scalar> 
1340
(
0.26712
0.265124
0.238619
0.276067
0.879136
1
1
1
1
1
1
1
1
1
0.649769
0.697828
0.839944
0.638364
0.448152
0.409289
0.567474
0.464003
0.345012
0.292841
0.423395
0.36155
0.279795
0.229311
0.328153
0.290401
0.232631
0.187898
0.254056
0.234146
0.194305
0.156552
0.187711
0.183733
0.159377
0.129287
0.123057
0.133373
0.124141
0.102731
0.0612235
0.0795482
0.0845946
0.0732474
0.017424
0.0291573
0.038975
0.0382981
0.00912875
0.0118681
0.0147127
0.0125
0.00425691
0.0032244
0.00511423
0.00609867
0
0.0013973
0.00225817
0.00216774
0
0
0
0.00216049
0
0
0
0.00220344
9.37448e-06
0
0
0.00228334
4.45878e-05
3.89652e-05
0
0.00239556
0.000201233
0.00017735
7.30444e-06
0.00248684
0.000260158
0.00031357
1.36941e-05
0.00244625
0.000261938
0.000358571
1.61734e-05
0.00222877
0.000262767
0.000344895
1.57108e-05
0.00182692
0.000264706
0.000315191
1.45749e-05
0.00108316
0.000261907
0.000300763
1.44073e-05
0
0.000257136
0.000294148
1.48143e-05
0
0.000251804
0.000286949
1.52992e-05
0
0.000246003
0.000279161
1.58253e-05
0
0.000239558
0.000271225
1.63571e-05
0
0.000232106
0.0002624
1.68179e-05
0
0.000223189
0.000252188
1.71385e-05
0
0.00021296
0.000241048
1.73242e-05
0
0.000161469
0.000202368
0.000228817
1.73296e-05
0
0.000154704
0.000191466
0.000216023
2.39845e-05
0
0.000147998
0.000180468
0.000201432
3.48388e-05
2.51152e-06
0.000141391
0.000165766
0.000194572
0.000104726
7.98816e-06
0.000134279
0.000152156
0.000187443
0.000126964
1.01858e-05
0.000126939
0.000139694
0.000173306
0.000145307
1.21646e-05
0.00011955
0.000127466
0.000157717
0.00015758
2.55788e-05
0.000112043
0.000116123
0.000141582
0.000159242
6.07467e-05
0.000103992
0.00010651
0.000124711
0.000153681
8.99893e-05
9.53345e-05
9.83916e-05
0.000108596
0.00014077
0.000113087
8.64368e-05
9.06845e-05
9.5476e-05
0.000122915
0.000124347
7.76783e-05
8.24489e-05
8.56122e-05
0.000104309
0.000119726
6.66103e-05
6.92246e-05
7.36704e-05
7.74933e-05
8.89548e-05
0.000105943
5.90108e-05
6.10334e-05
6.4826e-05
6.95259e-05
7.75986e-05
9.10601e-05
5.14835e-05
5.30179e-05
5.62859e-05
6.13625e-05
6.88232e-05
7.90579e-05
4.40296e-05
4.50773e-05
4.81179e-05
5.33919e-05
6.1192e-05
6.99367e-05
3.65624e-05
3.70656e-05
4.02291e-05
4.59475e-05
5.42395e-05
6.2603e-05
2.90615e-05
2.87273e-05
3.25753e-05
3.92702e-05
4.80768e-05
5.63863e-05
2.16439e-05
1.95485e-05
2.56485e-05
3.38341e-05
4.29879e-05
5.11552e-05
1.6289e-05
8.18218e-06
2.15027e-05
3.04057e-05
3.92425e-05
4.69632e-05
1.81687e-05
1.62389e-05
2.22126e-05
2.9256e-05
3.68651e-05
4.37947e-05
2.41223e-05
2.20552e-05
2.18322e-05
2.48853e-05
2.96047e-05
3.5563e-05
4.14898e-05
2.57811e-05
2.49522e-05
2.52361e-05
2.72515e-05
3.04515e-05
3.49222e-05
3.98322e-05
2.71504e-05
2.69209e-05
2.74087e-05
2.89457e-05
3.125e-05
3.45986e-05
3.86135e-05
2.81093e-05
2.82092e-05
2.87914e-05
3.00631e-05
3.18161e-05
3.43699e-05
3.76631e-05
2.86658e-05
2.89577e-05
2.95871e-05
3.06955e-05
3.20994e-05
3.41021e-05
3.68418e-05
2.89037e-05
2.929e-05
2.99343e-05
3.09232e-05
3.20915e-05
3.37055e-05
3.60376e-05
2.89135e-05
2.93456e-05
2.99608e-05
3.08393e-05
3.18278e-05
3.3159e-05
3.51872e-05
2.8433e-05
2.87476e-05
2.91979e-05
2.97648e-05
3.05356e-05
3.137e-05
3.24799e-05
3.42743e-05
2.80769e-05
2.84314e-05
2.88865e-05
2.9418e-05
3.00972e-05
3.08008e-05
3.17284e-05
3.33287e-05
2.75926e-05
2.79706e-05
2.84293e-05
2.89347e-05
2.95405e-05
3.01413e-05
3.09206e-05
3.23635e-05
2.70171e-05
2.74249e-05
2.78906e-05
2.83712e-05
2.89149e-05
2.94282e-05
3.00888e-05
3.13992e-05
2.63666e-05
2.68083e-05
2.72902e-05
2.7758e-05
2.82485e-05
2.86839e-05
2.92373e-05
3.0433e-05
2.55031e-05
2.59727e-05
2.64802e-05
2.6962e-05
2.74397e-05
2.78383e-05
2.83241e-05
2.94381e-05
2.47968e-05
2.52392e-05
2.57174e-05
2.61755e-05
2.66322e-05
2.69961e-05
2.74342e-05
2.84761e-05
2.40439e-05
2.44411e-05
2.48619e-05
2.52873e-05
2.56947e-05
2.60974e-05
2.64022e-05
2.67521e-05
2.76653e-05
2.35331e-05
2.39562e-05
2.44061e-05
2.48516e-05
2.52608e-05
2.56393e-05
2.59131e-05
2.6185e-05
2.69881e-05
2.27479e-05
2.31677e-05
2.36398e-05
2.41248e-05
2.45754e-05
2.49883e-05
2.52884e-05
2.55403e-05
2.62324e-05
2.19073e-05
2.22644e-05
2.26843e-05
2.31321e-05
2.35646e-05
2.39776e-05
2.43125e-05
2.4625e-05
2.53977e-05
2.11288e-05
2.14472e-05
2.18259e-05
2.22369e-05
2.26439e-05
2.30368e-05
2.33471e-05
2.35762e-05
2.41735e-05
2.04174e-05
2.06318e-05
2.09048e-05
2.121e-05
2.15245e-05
2.1854e-05
2.21895e-05
2.2574e-05
2.34808e-05
1.96729e-05
1.98895e-05
2.01606e-05
2.04569e-05
2.07488e-05
2.10195e-05
2.1186e-05
2.121e-05
2.15399e-05
1.9534e-05
1.95654e-05
1.96547e-05
1.97818e-05
1.99396e-05
2.01605e-05
2.05441e-05
2.1145e-05
2.23043e-05
1.90768e-05
1.93037e-05
1.9528e-05
1.97408e-05
1.99204e-05
2.00377e-05
1.99532e-05
1.96946e-05
1.96631e-05
2.12884e-05
2.10396e-05
2.10765e-05
2.11325e-05
2.11885e-05
2.12835e-05
2.14897e-05
2.20533e-05
2.30146e-05
2.42181e-05
2.04956e-05
2.08392e-05
2.1156e-05
2.14521e-05
2.17386e-05
2.20112e-05
2.22728e-05
2.25722e-05
2.29921e-05
2.29853e-05
2.63873e-05
2.49152e-05
2.54562e-05
2.59056e-05
2.62148e-05
2.65333e-05
2.69356e-05
2.75616e-05
2.81987e-05
2.72053e-05
0.302125
0.268587
0.22547
0.210194
0.170634
0.139065
0.115531
0.0967815
0.0803549
0.0646045
0.0488904
0.0331356
0.0185163
0.00927415
0.006795
0.0069408
0.00717147
0.00771651
0.00890659
0.0105252
0.0120848
0.0130713
0.0129922
0.0112946
0.0068775
0.0127335
0.0128054
0.0135496
0.0147774
0.015805
0.0155209
0.0135893
0.010388
0.0069002
0.00339518
0
0
0
0
0
9.00435e-06
2.28512e-05
5.51506e-05
9.25844e-05
0.000112915
0.000112459
0.000100128
8.67674e-05
7.64538e-05
6.87051e-05
6.23819e-05
5.70074e-05
5.25017e-05
4.88305e-05
4.58942e-05
4.35673e-05
4.17203e-05
4.02279e-05
3.89638e-05
3.78144e-05
3.67022e-05
3.55924e-05
3.44913e-05
3.34077e-05
3.23465e-05
3.13076e-05
3.02495e-05
2.92185e-05
2.83419e-05
2.76455e-05
2.6824e-05
2.61325e-05
2.47675e-05
2.4419e-05
2.20907e-05
2.34604e-05
2.01047e-05
2.49365e-05
2.24435e-05
2.63926e-05
0.107434
0.0927563
0.0956752
0.0904536
0.0825662
0.0763098
0.0706932
0.0646979
0.0581012
0.0511889
0.044394
0.0383059
0.0334522
0.0303142
0.0286497
0.0285256
0.0304315
0.0341203
0.0390625
0.0445609
0.0504527
0.0568435
0.0630067
0.068363
0.0733575
0.0785
0.0834586
0.0898396
0.0981284
0.103961
0.100465
0.0849602
0.0610469
0.0363388
0.0152681
0.0102039
0.00442567
0
0
0
0
2.05943e-06
1.24247e-05
4.15688e-05
9.19755e-05
0.000109947
0.00010468
9.21317e-05
8.10082e-05
7.2825e-05
6.6395e-05
6.09161e-05
5.61778e-05
5.21352e-05
4.87317e-05
4.58953e-05
4.35481e-05
4.15987e-05
3.99446e-05
3.84798e-05
3.71259e-05
3.58358e-05
3.46022e-05
3.34222e-05
3.23e-05
3.121e-05
3.01287e-05
2.90962e-05
2.8212e-05
2.75069e-05
2.6702e-05
2.6053e-05
2.47967e-05
2.44112e-05
2.2443e-05
2.34486e-05
2.0891e-05
2.45918e-05
2.26165e-05
0.0492841
0.0435735
0.0483055
0.0515068
0.0529196
0.0538664
0.0546533
0.0554785
0.0563298
0.0571251
0.057807
0.058287
0.0584577
0.0581686
0.0572168
0.0552622
0.0519938
0.0470363
0.0410267
0.0393288
0.0482758
0.0619743
0.0762413
0.0915513
0.111143
0.136356
0.165028
0.195567
0.22632
0.252899
0.259547
0.232837
0.182853
0.126448
0.0755137
0.037685
0.016618
0.0088884
0.00235594
0
0
0
0
1.05058e-05
3.86333e-05
9.14666e-05
0.000105004
9.66505e-05
8.52124e-05
7.65124e-05
6.99979e-05
6.45504e-05
5.97665e-05
5.55646e-05
5.19058e-05
4.87463e-05
4.60368e-05
4.37146e-05
4.16992e-05
3.99052e-05
3.82668e-05
3.67383e-05
3.53075e-05
3.39646e-05
3.27161e-05
3.152e-05
3.03575e-05
2.92836e-05
2.83628e-05
2.76004e-05
2.6759e-05
2.60689e-05
2.48488e-05
2.43594e-05
2.25808e-05
2.33512e-05
2.10841e-05
2.44705e-05
0.0164011
0.0142994
0.0170405
0.0210491
0.0235641
0.0263539
0.0284552
0.0290319
0.0283838
0.0272489
0.0268369
0.0287201
0.033301
0.0395922
0.0466987
0.0539541
0.0608132
0.0667367
0.0712735
0.0741068
0.0750354
0.074107
0.0717551
0.0692364
0.0720221
0.0872105
0.110353
0.135616
0.159323
0.210478
0.29502
0.329371
0.293495
0.223406
0.149674
0.0864247
0.0414174
0.0197007
0.00855525
0.00409198
0
0
0
0
1.28541e-05
5.43952e-05
9.58126e-05
9.88472e-05
8.89443e-05
7.97504e-05
7.30111e-05
6.75683e-05
6.27789e-05
5.84922e-05
5.46745e-05
5.13e-05
4.83362e-05
4.57366e-05
4.34409e-05
4.13812e-05
3.9501e-05
3.77586e-05
3.61408e-05
3.46365e-05
3.32553e-05
3.19447e-05
3.06948e-05
2.95746e-05
2.86078e-05
2.77809e-05
2.68869e-05
2.61402e-05
2.49181e-05
2.43503e-05
2.26243e-05
2.33067e-05
2.10478e-05
0.00827727
0.00957777
0.0104714
0.0126599
0.0145099
0.015938
0.0174545
0.0192197
0.0210268
0.0225857
0.0236932
0.0242542
0.0241054
0.0227362
0.0188774
0.0081624
0.020302
0.0323375
0.0428737
0.0525627
0.0615113
0.0696947
0.0771107
0.083875
0.0904378
0.0976866
0.10663
0.117192
0.124244
0.107504
0.132742
0.243119
0.289734
0.263282
0.199928
0.130832
0.0714809
0.0315169
0.0173315
0.00828885
0.00367002
8.85616e-05
0
0
0
1.75825e-05
7.36584e-05
9.64487e-05
9.15864e-05
8.24402e-05
7.53628e-05
6.98374e-05
6.50279e-05
6.0679e-05
5.67473e-05
5.32165e-05
5.00664e-05
4.72641e-05
4.47621e-05
4.25037e-05
4.04426e-05
3.85383e-05
3.67762e-05
3.51438e-05
3.36518e-05
3.22471e-05
3.09243e-05
2.97662e-05
2.87638e-05
2.78811e-05
2.69377e-05
2.61416e-05
2.49086e-05
2.42812e-05
2.25714e-05
2.31714e-05
0.00197772
0.00249743
0.00283501
0.00346855
0.00418519
0.00487613
0.0055652
0.0063568
0.00727311
0.00828265
0.00937401
0.0105494
0.011852
0.0132341
0.0144251
0.0146381
0.013188
0.0119956
0.017791
0.0265033
0.03603
0.0459422
0.05588
0.0655874
0.0750198
0.0844258
0.0942634
0.10468
0.11388
0.11486
0.103581
0.161261
0.229221
0.244612
0.210876
0.154197
0.0951938
0.0462429
0.0199768
0.0139034
0.00632392
0.00059432
0.000196428
0
0
6.72848e-06
3.94232e-05
8.74569e-05
9.23476e-05
8.45904e-05
7.72769e-05
7.16054e-05
6.67571e-05
6.23596e-05
5.834e-05
5.46873e-05
5.13901e-05
4.84245e-05
4.57564e-05
4.33432e-05
4.11428e-05
3.91134e-05
3.72376e-05
3.55051e-05
3.39248e-05
3.24384e-05
3.10591e-05
2.98708e-05
2.88336e-05
2.78987e-05
2.69092e-05
2.60721e-05
2.48302e-05
2.4143e-05
6.83417e-05
0.000113374
0.000179889
3.84493e-05
0.000397549
0.000639535
0.000842757
0.00105223
0.00128764
0.00159388
0.00200871
0.0025263
0.0030035
0.00349908
0.00427107
0.00523359
0.00521721
0.00563139
0.00803306
0.0141705
0.0231618
0.0336189
0.0446453
0.055674
0.0664301
0.076901
0.0871777
0.0969386
0.10417
0.102964
0.0888675
0.127261
0.186588
0.212591
0.198743
0.158156
0.107285
0.0588378
0.0222769
0.0156174
0.00996852
0.00402207
0.000296398
7.57271e-05
0
0
1.58935e-05
7.22231e-05
9.05699e-05
8.59261e-05
7.87736e-05
7.29795e-05
6.80976e-05
6.36789e-05
5.96069e-05
5.58677e-05
5.24544e-05
4.93567e-05
4.65545e-05
4.40154e-05
4.17005e-05
3.95709e-05
3.76059e-05
3.57948e-05
3.41422e-05
3.2586e-05
3.11579e-05
2.99436e-05
2.88686e-05
2.78835e-05
2.68485e-05
2.59738e-05
0.0001786
0.000129971
7.77239e-05
3.74328e-05
4.57773e-06
1.64841e-05
2.7367e-05
4.45312e-05
8.07144e-05
5.64908e-05
0.000148043
0.000310979
0.000318681
0.000493285
0.000468755
0.000889434
0.00136541
0.00461445
0.00860192
0.0151601
0.0240725
0.034322
0.0450863
0.0558195
0.0662253
0.0761661
0.0854
0.0930424
0.0964617
0.089497
0.0724345
0.115245
0.163508
0.186386
0.18016
0.151166
0.109707
0.0659739
0.0281959
0.0138632
0.0118718
0.00621241
0.00219042
0.000210047
3.78847e-05
0
8.98209e-06
5.22115e-05
8.60009e-05
8.60334e-05
7.96379e-05
7.38517e-05
6.89779e-05
6.45852e-05
6.05125e-05
5.67352e-05
5.32515e-05
5.00619e-05
4.71609e-05
4.45245e-05
4.21258e-05
3.99212e-05
3.78908e-05
3.60218e-05
3.43135e-05
3.27047e-05
3.1238e-05
3.00014e-05
2.88906e-05
0.000201283
0.000175794
0.000156328
0.00015023
0.000142624
0.000134761
0.000129675
0.000114436
7.5607e-05
3.45534e-05
1.15864e-05
9.07357e-06
6.66691e-06
0.000373467
0.002273
0.00391227
0.00668177
0.0104282
0.016085
0.0235205
0.0322309
0.0416253
0.0511846
0.0605343
0.0694298
0.0776331
0.0845835
0.0888221
0.0869408
0.0723364
0.0658981
0.114062
0.150662
0.166886
0.162046
0.139806
0.106143
0.0681734
0.0329656
0.00919729
0.0123295
0.00760585
0.00340829
0.00110359
0.000444652
0
5.79569e-06
3.33902e-05
7.88337e-05
8.46764e-05
7.96717e-05
7.40996e-05
6.93021e-05
6.49897e-05
6.09775e-05
5.7221e-05
5.37235e-05
5.04939e-05
4.75356e-05
4.48454e-05
4.2394e-05
4.0142e-05
3.8072e-05
3.61683e-05
3.44256e-05
3.27834e-05
0.000139557
0.000133846
0.000136864
0.000146689
0.000150659
0.000173339
0.000203256
0.000211029
0.000166425
9.82901e-05
2.50117e-05
0
0.00157495
0.00325209
0.0080364
0.0127446
0.0175979
0.022908
0.0289833
0.0358631
0.0433185
0.051015
0.0586315
0.0659064
0.0726033
0.0783401
0.0822274
0.0822662
0.0742934
0.0524724
0.0751638
0.115599
0.141674
0.151535
0.145954
0.127455
0.0995526
0.0669533
0.0353245
0.0062958
0.0118403
0.00831049
0.00425271
0.00169795
0.000494395
0.000184958
3.53045e-06
2.00986e-05
7.10299e-05
8.20415e-05
7.88296e-05
7.36871e-05
6.90409e-05
6.48617e-05
6.09624e-05
5.7288e-05
5.38334e-05
5.06197e-05
4.76619e-05
4.49595e-05
4.24889e-05
4.02208e-05
0.000115104
0.00012314
0.000126126
0.000136
0.000141817
0.000165897
0.000204627
0.000222814
0.000170983
4.486e-05
0
0.00184165
0.00414221
0.0097851
0.0161422
0.0229347
0.0297269
0.0362716
0.0425271
0.0485491
0.0543808
0.059997
0.0653055
0.0701574
0.0743063
0.0772191
0.077686
0.0732042
0.0589275
0.0466214
0.0850353
0.115589
0.133452
0.138421
0.131801
0.115515
0.0917729
0.0637071
0.0357154
0.0110156
0.0108841
0.00850067
0.00476957
0.00216426
0.000791136
0.000174918
3.85355e-05
1.73098e-05
6.43663e-05
7.85988e-05
7.72042e-05
7.26497e-05
6.8227e-05
6.42171e-05
6.04732e-05
5.69283e-05
5.35732e-05
0.000141716
0.000140541
0.000129967
0.000135744
0.000141196
0.000168181
0.000197266
0.000165521
4.54689e-05
0
0.00096298
0.00214617
0.00828026
0.0155003
0.0238216
0.0323981
0.0404921
0.0476804
0.053832
0.0590099
0.0633624
0.0670331
0.0700972
0.0725181
0.0740624
0.0740948
0.0711779
0.0624202
0.043567
0.0574201
0.0898608
0.112654
0.124674
0.126345
0.119054
0.104336
0.0837159
0.0593984
0.0347954
0.0131729
0.00983996
0.00836261
0.00502946
0.00248523
0.00103804
0.000345476
2.24103e-05
1.87013e-05
5.94579e-05
7.48309e-05
0.000169923
0.000160786
0.000139586
0.000137608
0.000139343
0.000154936
0.000180807
0.000145076
3.84979e-05
0
0.00156268
0.00354649
0.010396
0.0191338
0.0290753
0.0390232
0.0480761
0.0557401
0.0618486
0.0664514
0.0697145
0.0718391
0.0729908
0.0732254
0.0723565
0.0697226
0.0637834
0.0514787
0.0372888
0.0646656
0.0905636
0.107847
0.115959
0.115581
0.108006
0.0944864
0.0761991
0.0546064
)
;

boundaryField
{
    inlet
    {
        type            calculated;
        value           nonuniform List<scalar> 
11
(
5.14027e-05
5.06246e-05
5.1874e-05
5.30779e-05
5.4201e-05
5.52641e-05
5.63147e-05
5.7414e-05
5.86607e-05
5.82926e-05
6.05413e-05
)
;
    }
    outlet
    {
        type            calculated;
        value           nonuniform List<scalar> 0();
    }
    walls
    {
        type            calculated;
        value           uniform 0;
    }
    frontAndBack
    {
        type            empty;
    }
    procBoundary6to2
    {
        type            processor;
        value           nonuniform List<scalar> 
13
(
0.163438
0.108702
0.0562077
0.0158733
0.00858558
0.00246338
2.23074e-05
0.000239653
0.000216694
0.000149837
0.00011501
0.000140268
0.000170285
)
;
    }
    procBoundary6to3
    {
        type            processor;
        value           uniform 0.000185476;
    }
    procBoundary6to5
    {
        type            processor;
        value           nonuniform List<scalar> 
86
(
0.283036
0.960561
1
1
0.777049
0.540342
0.404185
0.306904
0.225296
0.150459
0.0824018
0.0282201
0.0105744
0.00284161
0.00117042
0
0
0
3.76556e-05
0.000149178
0.000225587
0.000232651
0.000222611
0.000214498
0.000209283
0.000204719
0.000200095
0.000195403
0.00019061
0.000185665
0.000180493
0.000174856
0.0001684
0.0001684
0.00016032
0.000153498
0.000146197
0.000138625
0.000130804
0.00012282
0.000114612
0.000106266
9.79751e-05
8.98957e-05
8.20247e-05
7.4291e-05
7.4291e-05
6.52457e-05
5.81802e-05
5.12475e-05
4.44823e-05
3.79604e-05
3.18645e-05
2.66494e-05
2.32922e-05
2.27789e-05
2.27789e-05
2.65556e-05
2.71405e-05
2.78362e-05
2.83788e-05
2.86695e-05
2.8752e-05
2.86663e-05
2.86663e-05
2.82294e-05
2.78152e-05
2.72844e-05
2.66732e-05
2.59841e-05
2.50941e-05
2.4406e-05
2.4406e-05
2.37327e-05
2.32027e-05
2.24353e-05
2.16646e-05
2.09175e-05
2.03235e-05
1.95409e-05
1.96452e-05
1.88051e-05
1.88051e-05
2.05909e-05
2.05074e-05
2.36147e-05
)
;
    }
    procBoundary6to7
    {
        type            processor;
        value           nonuniform List<scalar> 
91
(
2.59046e-05
2.59046e-05
2.23466e-05
2.23466e-05
2.44967e-05
2.44967e-05
2.09691e-05
2.24494e-05
2.09691e-05
2.29281e-05
2.47262e-05
2.24494e-05
2.39787e-05
2.78562e-05
2.67761e-05
2.47262e-05
2.58642e-05
3.12949e-05
3.00438e-05
2.78562e-05
2.88992e-05
3.81395e-05
3.62246e-05
3.44692e-05
3.12949e-05
3.28112e-05
5.04333e-05
4.75314e-05
4.48573e-05
4.24088e-05
3.81395e-05
4.01567e-05
7.49384e-05
7.10581e-05
6.69158e-05
6.31011e-05
5.95413e-05
5.61629e-05
5.04333e-05
5.29584e-05
0.0324299
0.0137795
0.0087937
0.00793924
0.00504664
0.00265549
0.00120656
0.000466707
0.000114971
2.69073e-05
5.52631e-05
7.49384e-05
7.07984e-05
0.000182986
0.000166703
0.000139313
0.000138175
0.000146552
0.000170184
0.000137688
3.77995e-05
0
0.00181559
0.00407544
0.0115336
0.0215351
0.032916
0.0440999
0.0540071
0.0620847
0.0681474
0.0722338
0.0745057
0.0751793
0.0744778
0.0725599
0.0693594
0.0642945
0.0558136
0.0411853
0.0413339
0.0674228
0.0880312
0.10105
0.106214
0.104281
0.0964233
0.0837905
0.0675032
0.0324299
0.0490092
)
;
    }
}


// ************************************************************************* //
