/*--------------------------------*- C++ -*----------------------------------*\
| =========                 |                                                 |
| \\      /  F ield         | OpenFOAM: The Open Source CFD Toolbox           |
|  \\    /   O peration     | Version:  2506                                  |
|   \\  /    A nd           | Website:  www.openfoam.com                      |
|    \\/     M anipulation  |                                                 |
\*---------------------------------------------------------------------------*/
FoamFile
{
    version     2.0;
    format      ascii;
    arch        "LSB;label=32;scalar=64";
    class       volVectorField;
    location    "50";
    object      U;
}
// * * * * * * * * * * * * * * * * * * * * * * * * * * * * * * * * * * * * * //

dimensions      [0 1 -1 0 0 0 0];

internalField   nonuniform List<vector> 
1340
(
(-5.72491 1.10482 -1.20859e-15)
(-4.90134 0.938755 2.15305e-15)
(-4.64815 0.917191 1.60918e-14)
(-7.01619 1.57113 -6.57157e-16)
(-2.88307 0.598744 -9.131e-15)
(-1.77286 0.295954 3.24351e-15)
(-0.554197 0.100582 -4.43461e-15)
(-2.5507 0.352218 -3.01484e-16)
(-0.273277 0.117266 1.53499e-14)
(0.846352 -0.284436 -3.89984e-15)
(2.25096 -0.549866 -2.28688e-15)
(0.948024 -0.669825 4.16754e-16)
(2.31513 -0.359896 -3.00273e-15)
(3.36085 -0.85176 4.81096e-15)
(4.77843 -1.15834 3.85467e-15)
(3.9591 -1.52177 -2.67029e-16)
(5.01468 -0.847269 3.97411e-16)
(5.8891 -1.41675 6.70582e-16)
(7.18826 -1.73937 -2.54551e-16)
(6.58362 -2.24335 4.12613e-16)
(7.88273 -1.3453 -3.26674e-15)
(8.48161 -1.97975 -5.1925e-15)
(9.54115 -2.30101 -2.38305e-16)
(8.93847 -2.88564 -1.00393e-16)
(10.9677 -1.849 6.04991e-15)
(11.1725 -2.53541 1.22248e-15)
(11.8783 -2.84452 -3.50006e-16)
(11.1151 -3.46364 -8.08787e-17)
(14.3089 -2.34944 -6.45878e-15)
(13.9881 -3.07708 1.84785e-15)
(14.2291 -3.36596 9.16499e-16)
(13.1765 -3.98378 -3.06342e-16)
(17.9046 -2.82909 2.55622e-15)
(16.9326 -3.59404 -1.58995e-15)
(16.6064 -3.85809 -2.87789e-15)
(15.1584 -4.43919 2.58988e-16)
(21.6241 -3.24962 -1.32648e-15)
(19.9522 -4.06205 1.65677e-15)
(18.9822 -4.30395 1.01954e-15)
(17.0544 -4.81006 3.3203e-16)
(25.0584 -3.54552 -8.66849e-16)
(22.8539 -4.42759 -2.57738e-15)
(21.2599 -4.66741 4.14157e-16)
(18.8069 -5.06088 -1.79142e-16)
(27.4876 -3.65455 -1.54012e-15)
(25.2191 -4.61945 -2.07422e-15)
(23.2268 -4.89083 -3.62428e-16)
(20.2969 -5.15036 -2.88386e-16)
(28.3262 -3.56393 6.53031e-15)
(26.4248 -4.5844 2.79134e-16)
(24.4891 -4.91229 1.8675e-15)
(21.3113 -5.04248 2.74781e-16)
(28.0513 -3.35379 -8.90472e-15)
(26.3595 -4.36115 4.52491e-15)
(24.5912 -4.71633 8.2199e-16)
(21.5405 -4.75806 -2.64066e-16)
(27.6378 -3.12005 6.64511e-15)
(26.009 -4.09815 -2.01137e-15)
(24.2528 -4.47335 -3.63538e-15)
(21.4373 -4.45947 1.60625e-16)
(27.4408 -2.89685 -4.82507e-16)
(25.857 -3.85115 2.35553e-16)
(24.0725 -4.25769 3.4031e-15)
(21.4414 -4.22681 -3.68045e-17)
(27.3682 -2.67918 -1.14837e-15)
(25.8387 -3.60958 6.98129e-16)
(24.0208 -4.04546 -1.84368e-16)
(21.5434 -4.04924 5.5661e-17)
(27.3055 -2.46186 -4.00967e-16)
(25.8377 -3.36619 5.77683e-16)
(23.9958 -3.81572 -2.20973e-15)
(21.6624 -3.88879 -2.08423e-17)
(27.2187 -2.2454 2.64573e-15)
(25.8095 -3.11477 -1.15056e-15)
(23.9487 -3.55603 -1.21268e-15)
(21.761 -3.72569 -4.66657e-17)
(27.1171 -2.02948 -2.83562e-16)
(25.7575 -2.84973 2.67008e-16)
(23.8772 -3.25765 3.99097e-16)
(21.8409 -3.54631 2.08686e-17)
(27.0155 -1.80889 4.17084e-17)
(25.6941 -2.56544 9.25667e-16)
(23.7932 -2.92756 1.67643e-15)
(21.9226 -3.33477 2.84003e-18)
(26.92 -1.57759 1.11453e-15)
(25.6272 -2.26343 -8.67296e-16)
(23.702 -2.57813 -4.46036e-16)
(22.0272 -3.08585 -5.08323e-17)
(26.8299 -1.33369 -2.18387e-15)
(25.5572 -1.94701 7.98903e-16)
(23.6302 -2.23483 3.1346e-16)
(22.1407 -2.81709 1.42411e-16)
(26.7428 -1.08 3.17169e-16)
(25.4845 -1.62321 -3.70604e-16)
(23.5933 -1.90954 -4.03076e-16)
(22.2407 -2.5308 -6.58941e-17)
(26.6572 -0.821242 2.98457e-16)
(25.4126 -1.29987 9.51685e-16)
(23.5907 -1.60144 5.90122e-16)
(22.305 -2.21516 1.63706e-16)
(26.5729 -0.560734 5.18075e-16)
(25.3458 -0.979834 -4.71305e-16)
(23.6158 -1.30179 -8.08961e-16)
(22.335 -1.85803 -1.81717e-16)
(26.4907 -0.299556 -5.09916e-16)
(25.2894 -0.664075 -1.22518e-15)
(23.6597 -1.00098 -1.24158e-17)
(22.3448 -1.45165 9.60939e-17)
(26.4126 -0.0362892 -4.09481e-16)
(25.2479 -0.349677 6.6007e-16)
(23.7142 -0.689788 -3.02702e-17)
(22.3535 -1.00056 -2.52048e-16)
(26.3406 0.230965 6.83184e-16)
(25.2246 -0.0341318 4.05799e-16)
(23.7736 -0.361407 3.14486e-16)
(22.36 -0.506602 1.20632e-16)
(26.2765 0.502464 -7.15871e-16)
(25.221 0.285244 -4.26014e-16)
(23.8382 -0.0123625 -1.2872e-16)
(22.3798 0.0171986 -4.55707e-16)
(26.2221 0.776831 8.37695e-16)
(25.2369 0.607321 5.91062e-16)
(23.9141 0.356175 3.13066e-16)
(22.4286 0.546901 6.5044e-16)
(26.1783 1.0503 -3.77669e-16)
(25.2703 0.928255 -3.69739e-16)
(24.0093 0.737082 -1.8633e-16)
(22.517 1.05608 -2.69585e-16)
(26.1453 1.31852 -1.9183e-16)
(25.3188 1.2419 4.57069e-16)
(24.13 1.12003 -6.25683e-17)
(22.6514 1.52526 8.56586e-17)
(26.7318 1.74787 8.42569e-16)
(26.1225 1.57736 2.96758e-16)
(25.3785 1.54288 -1.51508e-16)
(24.2785 1.49288 2.20159e-16)
(22.8391 1.94657 -8.05669e-17)
(26.6812 1.95704 -9.14523e-16)
(26.1099 1.82432 2.83574e-16)
(25.4451 1.82796 -5.16098e-16)
(24.4528 1.84689 -1.49356e-16)
(23.0861 2.32257 2.07544e-16)
(26.6391 2.16013 2.17357e-16)
(26.108 2.05862 -3.31297e-16)
(25.5145 2.09551 1.21051e-16)
(24.6458 2.17639 -2.56107e-17)
(23.3932 2.66218 -1.02913e-16)
(26.6044 2.35547 -1.24918e-16)
(26.1175 2.28038 2.75562e-17)
(25.5852 2.34462 3.02165e-16)
(24.8466 2.47864 7.09179e-17)
(23.7494 2.97176 -1.61481e-16)
(26.5761 2.54118 3.56965e-16)
(26.1379 2.48966 -5.22648e-17)
(25.6584 2.57448 -3.00736e-16)
(25.0439 2.75094 7.38367e-17)
(24.1309 3.2497 3.2942e-17)
(26.554 2.71553 -4.95604e-16)
(26.1672 2.68568 1.17505e-16)
(25.7371 2.78444 2.88551e-16)
(25.2302 2.99097 1.62519e-17)
(24.5079 3.48901 -1.4222e-17)
(26.5381 2.87712 -2.13785e-16)
(26.2023 2.86684 -2.39701e-16)
(25.8225 2.9739 -1.92794e-16)
(25.4035 3.19718 -2.01469e-16)
(24.8558 3.68331 4.31234e-17)
(26.5276 3.02509 1.96984e-16)
(26.2403 3.03146 -1.626e-17)
(25.9128 3.14246 1.00069e-16)
(25.5657 3.37012 8.87652e-17)
(25.1625 3.83179 -1.08217e-17)
(26.5223 3.15892 2.26699e-16)
(26.2792 3.17851 3.63571e-16)
(26.004 3.29011 3.20919e-17)
(25.7185 3.5121 6.72926e-17)
(25.4274 3.93884 -3.63581e-17)
(26.521 3.27839 -2.76695e-17)
(26.3178 3.3076 -1.65772e-16)
(26.0922 3.41716 -1.63075e-16)
(25.862 3.62662 1.98765e-17)
(25.6555 4.01188 4.45818e-17)
(26.5231 3.38359 -3.50858e-16)
(26.3555 3.41912 1.25903e-16)
(26.1746 3.52439 1.26868e-16)
(25.9942 3.71716 -9.95181e-17)
(25.8525 4.05817 -5.31109e-17)
(26.5272 3.47482 2.05503e-17)
(26.3916 3.5138 2.11941e-16)
(26.2498 3.61286 3.24679e-17)
(26.1134 3.78688 8.52829e-17)
(26.0221 4.08376 -9.7312e-19)
(26.6267 3.54708 1.38833e-18)
(26.5322 3.55245 -4.72264e-17)
(26.4249 3.59256 -6.7577e-17)
(26.3168 3.68384 1.88013e-16)
(26.2181 3.83829 -1.10075e-16)
(26.1665 4.09305 1.21583e-16)
(26.611 3.60767 5.89396e-17)
(26.5368 3.61701 6.0907e-17)
(26.4545 3.65635 6.17223e-17)
(26.3752 3.73877 -2.48333e-16)
(26.308 3.87365 1.63894e-17)
(26.2871 4.08943 -1.14108e-16)
(26.597 3.65752 -4.17644e-17)
(26.5407 3.66918 1.1336e-16)
(26.4798 3.70634 5.46464e-18)
(26.4246 3.77925 -1.11546e-16)
(26.3831 3.89513 1.38409e-16)
(26.3856 4.07554 4.62781e-17)
(26.5841 3.69715 -1.47656e-16)
(26.5432 3.70978 -7.4766e-17)
(26.5005 3.74374 -1.5932e-16)
(26.4652 3.80697 1.51465e-16)
(26.4443 3.90485 -2.08924e-16)
(26.4639 4.05368 -7.04424e-17)
(26.5714 3.7272 1.76383e-16)
(26.5438 3.73981 2.91319e-17)
(26.5164 3.76997 1.80553e-16)
(26.4974 3.82368 -1.843e-16)
(26.4925 3.90484 -1.09361e-17)
(26.5242 4.0258 5.23755e-17)
(26.5581 3.74845 -7.09749e-17)
(26.5418 3.76026 6.1126e-17)
(26.5271 3.78629 2.67687e-17)
(26.5214 3.83094 1.72904e-17)
(26.5289 3.8969 6.32889e-17)
(26.5687 3.99357 1.62947e-16)
(26.544 3.76187 1.12159e-17)
(26.537 3.7723 -1.52219e-17)
(26.5326 3.79402 -5.77533e-17)
(26.5372 3.83019 1.51791e-17)
(26.5542 3.88255 -4.78054e-17)
(26.5992 3.95829 -1.39774e-16)
(26.529 3.76846 -3.09142e-16)
(26.5294 3.77706 -1.59942e-17)
(26.5331 3.79442 -9.0119e-18)
(26.5456 3.82277 1.07247e-16)
(26.5693 3.86313 1.72227e-16)
(26.6173 3.92104 2.98952e-17)
(26.5129 3.76906 9.5227e-17)
(26.5192 3.77556 -3.68381e-17)
(26.529 3.78869 4.69342e-17)
(26.5472 3.80995 -2.0179e-16)
(26.5755 3.83985 -1.42113e-16)
(26.6247 3.88274 -1.39458e-16)
(26.4869 3.76409 -7.08956e-17)
(26.4954 3.76439 -1.10952e-16)
(26.5062 3.76871 3.49715e-17)
(26.5206 3.77789 7.71267e-17)
(26.5429 3.79287 1.33948e-16)
(26.5741 3.81381 4.09414e-17)
(26.623 3.8442 2.42365e-16)
(26.4647 3.75589 1.08627e-16)
(26.4764 3.75518 -7.58075e-17)
(26.4905 3.75739 9.6496e-17)
(26.5084 3.76302 2.55559e-17)
(26.5333 3.77256 -4.3291e-17)
(26.5661 3.78594 -9.85057e-17)
(26.6138 3.80601 3.3967e-17)
(26.4418 3.74412 -7.9512e-17)
(26.4559 3.74233 1.48864e-16)
(26.4725 3.74255 1.37079e-17)
(26.4925 3.745 -1.97965e-16)
(26.5191 3.74987 1.96469e-16)
(26.5525 3.75694 -9.76976e-17)
(26.5983 3.7686 -1.14673e-16)
(26.4182 3.72947 -1.24108e-16)
(26.4339 3.72657 -2.69748e-18)
(26.4521 3.72493 -1.74185e-17)
(26.4735 3.7246 2.30292e-16)
(26.5008 3.72551 8.06088e-18)
(26.5339 3.72736 -1.76014e-16)
(26.5775 3.73221 3.21079e-16)
(26.3937 3.71256 -2.88055e-17)
(26.4105 3.70854 3.90982e-17)
(26.4296 3.7052 2.38363e-17)
(26.4517 3.70243 -6.43942e-17)
(26.479 3.70001 1.17243e-16)
(26.5113 3.69758 -1.37614e-16)
(26.5523 3.69702 5.60367e-17)
(26.3687 3.69398 -1.36976e-17)
(26.3859 3.68886 -8.6392e-17)
(26.4053 3.68397 8.86749e-18)
(26.4275 3.6791 -5.2302e-17)
(26.4542 3.67391 1.80171e-17)
(26.4852 3.66802 -1.38744e-16)
(26.5235 3.66318 1.3935e-16)
(26.3429 3.67426 5.68336e-17)
(26.3603 3.66808 -3.08867e-17)
(26.3797 3.66178 -4.22973e-17)
(26.4014 3.65513 2.11495e-16)
(26.4271 3.64767 1.58398e-16)
(26.4564 3.63904 -1.11102e-16)
(26.492 3.63088 1.34257e-17)
(26.3004 3.66072 -7.50035e-18)
(26.3165 3.65376 6.73142e-17)
(26.3338 3.64661 -4.70209e-17)
(26.3528 3.63908 7.2643e-17)
(26.3738 3.63094 -6.87429e-18)
(26.3982 3.62166 2.95152e-17)
(26.4258 3.61091 -2.02801e-17)
(26.4585 3.60022 6.56673e-17)
(26.2736 3.64053 -3.91338e-17)
(26.2894 3.63285 -1.06314e-16)
(26.3064 3.62485 8.98941e-17)
(26.3247 3.6163 1.01415e-16)
(26.3449 3.60693 3.69991e-17)
(26.3679 3.59623 -1.18245e-16)
(26.3937 3.58385 9.76133e-17)
(26.4237 3.5713 -1.60615e-16)
(26.2463 3.62017 -3.33084e-17)
(26.2617 3.61187 4.79019e-17)
(26.2781 3.60311 5.84322e-18)
(26.2957 3.59367 -1.25078e-16)
(26.3148 3.58329 7.58943e-17)
(26.3365 3.57148 2.77155e-17)
(26.3604 3.55789 9.05806e-17)
(26.3879 3.54402 -1.86093e-17)
(26.2188 3.60001 -6.10274e-17)
(26.2335 3.59119 3.21843e-17)
(26.2491 3.5818 -1.77277e-17)
(26.2659 3.57162 -8.92634e-17)
(26.284 3.56043 2.89223e-16)
(26.3042 3.54776 -2.14191e-16)
(26.3264 3.53329 -9.70338e-17)
(26.3515 3.5185 -2.12739e-17)
(26.1909 3.57997 7.07431e-17)
(26.2049 3.57069 -4.54378e-18)
(26.2196 3.56075 3.11573e-17)
(26.2355 3.54996 -7.40229e-17)
(26.2525 3.53811 -5.33655e-17)
(26.2714 3.52476 3.5943e-17)
(26.2919 3.50961 4.43391e-17)
(26.3149 3.49419 6.26604e-17)
(26.1628 3.56065 4.27001e-17)
(26.1757 3.551 -4.11263e-18)
(26.1895 3.54067 -1.04005e-16)
(26.2043 3.52946 -2.04673e-18)
(26.2202 3.51718 8.78775e-17)
(26.2377 3.50339 -1.88483e-16)
(26.2567 3.48782 4.06506e-17)
(26.2778 3.47206 -1.20558e-16)
(26.1404 3.54463 7.63179e-17)
(26.1525 3.53457 -8.32377e-17)
(26.1653 3.52379 1.36222e-16)
(26.179 3.51213 -3.63113e-17)
(26.1938 3.49938 -4.66652e-17)
(26.2101 3.48512 -4.39871e-17)
(26.2276 3.4691 1.54639e-16)
(26.2469 3.45293 -7.49927e-17)
(26.1101 3.54072 -1.57142e-17)
(26.121 3.53115 -4.33761e-17)
(26.1324 3.52091 1.55186e-17)
(26.1445 3.5099 2.65686e-17)
(26.1575 3.49797 -7.40677e-17)
(26.1712 3.48491 4.59896e-17)
(26.1863 3.47031 1.67325e-16)
(26.2025 3.45391 -2.11427e-16)
(26.2201 3.43747 1.02283e-16)
(26.0897 3.52625 -4.31341e-18)
(26.0998 3.51642 1.33434e-17)
(26.1104 3.50602 -9.37261e-17)
(26.1217 3.49488 5.14593e-17)
(26.1337 3.48279 3.70914e-17)
(26.1465 3.46955 2.04253e-17)
(26.1605 3.45477 -1.40984e-16)
(26.1755 3.43813 5.25621e-17)
(26.1917 3.4216 9.386e-17)
(26.0686 3.51179 8.52328e-19)
(26.0777 3.50176 8.28494e-17)
(26.0872 3.49123 7.12176e-17)
(26.0973 3.48001 -2.56361e-17)
(26.1082 3.46788 1.97297e-17)
(26.1198 3.45464 -5.24081e-17)
(26.1327 3.43988 1.13031e-16)
(26.1464 3.42323 -3.89525e-16)
(26.1613 3.40687 1.73962e-16)
(26.0477 3.49653 1.90221e-19)
(26.0557 3.48611 7.59428e-17)
(26.064 3.47527 -1.5979e-16)
(26.0729 3.46382 -1.13662e-17)
(26.0823 3.45154 9.4617e-17)
(26.0926 3.43823 -1.17584e-16)
(26.1039 3.42348 2.41292e-16)
(26.1164 3.40682 -2.46743e-16)
(26.13 3.39047 2.59981e-16)
(26.0259 3.48324 -2.00219e-17)
(26.0329 3.47279 -5.3512e-17)
(26.0402 3.462 7.4044e-17)
(26.0478 3.45068 4.72598e-17)
(26.0561 3.4386 -2.28471e-16)
(26.065 3.42554 1.53619e-16)
(26.0749 3.41109 1.47912e-16)
(26.0856 3.39484 -6.00546e-17)
(26.0973 3.37919 -8.89286e-17)
(26.0056 3.46559 -1.06048e-17)
(26.0117 3.4543 -1.82708e-17)
(26.018 3.44278 4.60635e-17)
(26.0245 3.43088 -3.2171e-18)
(26.0315 3.41838 -6.43557e-17)
(26.039 3.40504 -9.56881e-17)
(26.0474 3.39043 1.43997e-16)
(26.057 3.37387 -1.83601e-17)
(26.068 3.35769 3.19544e-17)
(25.9814 3.45856 1.952e-17)
(25.9867 3.44798 -1.62745e-17)
(25.9921 3.43721 -7.14649e-17)
(25.9978 3.42607 -1.62996e-17)
(26.0039 3.41435 1.01711e-17)
(26.0104 3.40183 1.2383e-17)
(26.0176 3.38813 2.24878e-17)
(26.0251 3.37293 -3.33351e-17)
(26.033 3.35864 5.95263e-17)
(25.9652 3.4297 -1.1567e-17)
(25.9701 3.41701 -3.6497e-17)
(25.9748 3.40435 -1.75588e-17)
(25.9795 3.39158 3.86671e-17)
(25.9845 3.37848 1.30343e-17)
(25.9898 3.36481 -6.4331e-18)
(25.9958 3.35006 8.40196e-17)
(26.0037 3.33317 -4.18649e-17)
(26.0135 3.31663 -7.00634e-17)
(25.9312 3.44582 1.01905e-16)
(25.9356 3.43606 -3.74772e-17)
(25.94 3.42622 1.15241e-17)
(25.9446 3.4162 -1.27735e-16)
(25.9494 3.40582 -3.75002e-17)
(25.9543 3.39492 1.37445e-16)
(25.9592 3.38321 1.02313e-16)
(25.963 3.37101 -1.24667e-16)
(25.9656 3.36005 1.91294e-17)
(25.9256 3.38759 2.97129e-17)
(25.931 3.37118 8.00768e-18)
(25.9356 3.35522 4.94044e-18)
(25.94 3.33959 7.05082e-17)
(25.9441 3.32418 -8.37526e-17)
(25.948 3.30884 1.08685e-16)
(25.9522 3.29322 -8.89079e-18)
(25.9573 3.27676 -1.23044e-16)
(25.9662 3.25769 -5.29392e-17)
(25.9779 3.23937 1.17442e-17)
(25.8595 3.48328 4.92755e-18)
(25.8631 3.47706 3.4489e-18)
(25.8669 3.47 -3.82389e-18)
(25.8711 3.46287 -3.76043e-17)
(25.8752 3.45573 -2.88513e-17)
(25.8794 3.44837 1.56959e-17)
(25.8831 3.44081 -1.94657e-17)
(25.8861 3.4329 -2.10105e-17)
(25.8845 3.42638 2.95424e-17)
(25.8796 3.42031 5.55004e-17)
(25.933 3.27132 -1.56339e-18)
(25.9387 3.24991 -4.65602e-17)
(25.9455 3.2286 2.14665e-17)
(25.9535 3.20732 1.2834e-16)
(25.9611 3.18614 -2.36206e-16)
(25.9681 3.16494 6.92895e-17)
(25.9755 3.14332 2.58318e-16)
(25.985 3.12056 -2.48808e-16)
(26.0016 3.09552 4.34406e-17)
(26.0237 3.07259 -7.55975e-18)
(12.0648 1.37216 2.66036e-17)
(8.70262 0.984329 -2.49884e-18)
(9.16406 0.241348 -3.08543e-17)
(10.8213 -0.442427 -3.06806e-18)
(12.4693 -1.06051 5.671e-18)
(13.9344 -1.64576 -7.79275e-18)
(15.2511 -2.18184 -1.31762e-18)
(16.4516 -2.65196 1.57653e-18)
(17.5486 -3.0476 2.4963e-18)
(18.5241 -3.36016 6.90357e-18)
(19.337 -3.58121 -1.90944e-18)
(19.9444 -3.71118 6.38234e-18)
(20.3234 -3.76658 -1.22322e-18)
(20.4954 -3.7835 1.34739e-18)
(20.5997 -3.80583 -5.82068e-18)
(20.7237 -3.84318 5.13723e-18)
(20.8554 -3.88336 7.99938e-18)
(20.974 -3.91185 -3.40159e-18)
(21.0704 -3.91566 -9.49581e-18)
(21.1438 -3.87891 3.17014e-18)
(21.2131 -3.78421 8.46237e-19)
(21.2845 -3.61641 1.54524e-17)
(21.3191 -3.36383 -2.64224e-17)
(21.3206 -3.02563 1.14927e-17)
(21.2895 -2.59402 -1.81638e-17)
(21.2235 -2.06915 1.36228e-17)
(21.1435 -1.45705 -2.87017e-17)
(21.0322 -0.764594 2.65794e-19)
(20.8809 0.0534862 -3.83149e-17)
(20.869 0.972592 -4.54485e-17)
(21.0808 1.87836 -1.46006e-17)
(21.4624 2.67867 3.48409e-17)
(21.9023 3.30084 -5.3793e-17)
(22.3035 3.71603 7.82378e-19)
(22.6362 3.94848 2.69473e-17)
(22.9428 4.06696 7.95218e-19)
(23.2884 4.14537 1.54302e-18)
(23.7047 4.22733 -1.56658e-17)
(24.1679 4.31785 -1.96628e-18)
(24.6259 4.39894 1.68492e-18)
(25.0347 4.45298 -5.91302e-20)
(25.3774 4.47418 4.44847e-17)
(25.658 4.46725 6.70938e-18)
(25.8882 4.44033 1.22841e-17)
(26.0783 4.40059 -6.90855e-18)
(26.2349 4.35275 -1.99862e-18)
(26.3623 4.2998 2.59524e-17)
(26.4635 4.24372 -1.02231e-17)
(26.5417 4.18603 8.76075e-18)
(26.5999 4.12793 6.37129e-18)
(26.6408 4.0704 -2.56928e-17)
(26.6669 4.01412 6.58156e-17)
(26.6801 3.95961 2.21437e-18)
(26.6825 3.9073 -9.20061e-18)
(26.6757 3.85752 -6.69495e-17)
(26.6616 3.81042 5.81625e-17)
(26.6415 3.76603 1.67648e-19)
(26.6163 3.72426 -8.6911e-17)
(26.587 3.68501 -7.0545e-18)
(26.5545 3.6482 3.03287e-17)
(26.5196 3.61381 -1.78757e-16)
(26.483 3.58178 4.60278e-17)
(26.4454 3.55204 -2.37038e-20)
(26.4072 3.52439 3.4793e-19)
(26.3687 3.49889 -1.47324e-16)
(26.3301 3.47478 7.48101e-17)
(26.2915 3.45312 -1.26561e-21)
(26.259 3.4344 3.86595e-20)
(26.231 3.41942 -1.25097e-20)
(26.2016 3.40402 -2.36533e-16)
(26.1703 3.39015 -5.97559e-17)
(26.1383 3.3741 2.46344e-17)
(26.1043 3.36426 6.62633e-17)
(26.0749 3.34205 1.33525e-19)
(26.0375 3.3461 3.73456e-20)
(26.0195 3.30087 -8.28654e-19)
(25.9671 3.35112 5.05517e-17)
(25.9842 3.22168 2.91416e-18)
(25.8779 3.41661 -2.91137e-17)
(26.0353 3.05338 2.46317e-19)
(19.1184 -1.07608 -2.33322e-17)
(18.6214 -1.52658 4.11533e-18)
(19.1686 -1.9851 1.28128e-17)
(19.8913 -2.37681 5.98304e-18)
(20.4423 -2.75929 -4.8979e-18)
(20.8065 -3.14314 1.26138e-17)
(21.0395 -3.51084 3.46334e-18)
(21.1872 -3.84274 -2.13471e-18)
(21.2765 -4.12555 -1.45175e-17)
(21.3204 -4.35415 -1.98413e-17)
(21.3214 -4.53199 5.56042e-18)
(21.2836 -4.66808 -1.07869e-17)
(21.213 -4.77252 -4.65739e-19)
(21.1117 -4.85132 -2.08264e-18)
(20.9822 -4.90727 8.47243e-18)
(20.8258 -4.93826 -6.89515e-18)
(20.6409 -4.94043 -9.63916e-18)
(20.4311 -4.90743 3.58678e-18)
(20.1999 -4.83049 8.5523e-18)
(19.9516 -4.70215 -7.54597e-18)
(19.6965 -4.51973 -6.03381e-18)
(19.4323 -4.27426 -4.33674e-18)
(19.1386 -3.95298 1.37532e-17)
(18.8431 -3.55151 -3.54135e-18)
(18.5971 -3.05528 5.74593e-18)
(18.3527 -2.43018 -1.16366e-17)
(18.0748 -1.65385 4.9482e-17)
(17.7133 -0.744957 -7.42741e-17)
(17.2662 0.390999 1.24416e-16)
(17.2666 1.67086 8.88449e-17)
(17.9282 2.97768 -5.90042e-19)
(19.1639 4.1775 -2.09317e-17)
(20.6687 5.13169 6.89216e-17)
(22.0666 5.73874 9.90781e-20)
(23.0772 5.97302 -3.53239e-18)
(23.6371 5.90542 -3.5886e-17)
(23.9018 5.67885 2.7695e-17)
(24.1079 5.43513 1.34545e-17)
(24.4029 5.25125 -9.83482e-20)
(24.7897 5.13172 -4.26028e-17)
(25.1943 5.0444 -1.05192e-20)
(25.5524 4.95997 -5.10547e-17)
(25.8413 4.86698 -2.55447e-20)
(26.0679 4.76683 -1.26109e-18)
(26.2466 4.66459 -2.5864e-19)
(26.3888 4.56403 -8.24993e-18)
(26.501 4.46704 -2.23823e-17)
(26.5874 4.37436 -1.82456e-18)
(26.6515 4.28636 8.45989e-19)
(26.6965 4.20324 6.28956e-18)
(26.7252 4.12514 1.84412e-17)
(26.7403 4.05208 2.05139e-17)
(26.7437 3.98402 1.58926e-17)
(26.7374 3.92088 -1.45849e-18)
(26.723 3.86255 -4.75902e-19)
(26.7021 3.80881 -1.17562e-16)
(26.6761 3.75932 1.646e-19)
(26.6459 3.71373 8.12013e-17)
(26.6122 3.6717 5.38901e-18)
(26.5759 3.63296 -3.07647e-17)
(26.5377 3.59732 1.10372e-16)
(26.4984 3.56455 -8.9454e-17)
(26.4584 3.53452 1.85277e-16)
(26.4182 3.5069 9.00975e-19)
(26.378 3.48169 -4.36988e-17)
(26.338 3.45802 5.45555e-19)
(26.2983 3.43695 -1.04987e-20)
(26.2649 3.41882 1.433e-18)
(26.2362 3.40447 1.4209e-19)
(26.2063 3.38961 1.47361e-16)
(26.1745 3.37656 5.95694e-17)
(26.1423 3.36084 -2.45411e-17)
(26.1078 3.35221 -6.59466e-17)
(26.0782 3.32955 -6.61062e-17)
(26.0405 3.33586 -5.12028e-17)
(26.0217 3.28856 4.13121e-17)
(25.9701 3.34314 -4.98368e-17)
(25.9841 3.20923 -3.3872e-18)
(25.8825 3.4118 6.92149e-19)
(24.678 -1.69737 -6.34044e-18)
(24.5828 -1.7954 2.79855e-18)
(24.7531 -1.83098 -4.50707e-18)
(25.0261 -1.91615 3.59143e-18)
(25.2303 -2.09883 -7.07501e-18)
(25.2946 -2.34502 9.0902e-19)
(25.2097 -2.6107 3.87324e-19)
(24.9922 -2.8671 -3.36208e-18)
(24.6641 -3.10017 8.34933e-18)
(24.25 -3.30359 1.30616e-18)
(23.7709 -3.47995 -6.36234e-19)
(23.247 -3.63558 -7.61095e-18)
(22.6938 -3.7788 4.62524e-18)
(22.1214 -3.911 -1.69061e-18)
(21.5344 -4.03048 7.47177e-18)
(20.9361 -4.12963 -6.39882e-18)
(20.3273 -4.20113 -1.08572e-17)
(19.7103 -4.23405 4.24803e-18)
(19.0858 -4.21778 1.22332e-17)
(18.455 -4.14321 2.00645e-18)
(17.8203 -4.00861 5.99013e-18)
(17.1747 -3.81022 -5.12894e-18)
(16.5064 -3.54656 7.04596e-18)
(15.8225 -3.21759 -3.31593e-17)
(15.1272 -2.79358 4.78657e-17)
(14.3025 -2.19547 -8.36874e-20)
(13.2792 -1.41302 1.51902e-17)
(12.2166 -0.475932 5.95369e-17)
(11.3691 0.632953 -7.87739e-17)
(11.2048 1.8872 4.73715e-17)
(12.1018 3.23657 7.97595e-18)
(14.136 4.59281 -3.88742e-18)
(16.9863 5.82007 7.77451e-19)
(20.0443 6.7622 -2.99914e-19)
(22.6515 7.29473 -3.9652e-18)
(24.3623 7.38221 3.10158e-17)
(25.1344 7.11311 -3.13496e-17)
(25.3037 6.66767 -6.84026e-18)
(25.3113 6.22211 8.5005e-19)
(25.4201 5.86717 3.87369e-17)
(25.6573 5.60445 1.61999e-17)
(25.9364 5.39745 4.01662e-17)
(26.1837 5.21513 -3.6416e-18)
(26.3756 5.04476 -5.73101e-18)
(26.5187 4.88486 5.87228e-18)
(26.6259 4.73666 -5.4814e-18)
(26.706 4.60052 2.40344e-17)
(26.7637 4.47584 4.91197e-18)
(26.8026 4.36174 -2.50956e-18)
(26.8254 4.25737 -1.78867e-17)
(26.8348 4.162 1.48684e-18)
(26.8331 4.07502 8.10483e-19)
(26.8221 3.99584 -1.74362e-19)
(26.8033 3.92392 -6.5709e-17)
(26.7784 3.85876 -4.17887e-17)
(26.7485 3.79978 1.1368e-16)
(26.7148 3.74638 4.74777e-20)
(26.6781 3.69794 -1.58137e-16)
(26.639 3.65395 -6.47641e-18)
(26.5981 3.61396 3.72907e-17)
(26.5561 3.57764 5.2114e-20)
(26.5136 3.54463 4.32493e-17)
(26.4709 3.51468 -3.15474e-16)
(26.4285 3.48737 -7.00453e-17)
(26.3864 3.46269 1.86237e-16)
(26.3449 3.43966 2.99699e-17)
(26.304 3.41933 1.22456e-17)
(26.2698 3.40191 1.21434e-18)
(26.2403 3.38828 1.28982e-19)
(26.2098 3.37404 8.67329e-17)
(26.1777 3.36187 1.7954e-16)
(26.1452 3.34654 -3.01236e-20)
(26.1105 3.33912 -6.84364e-17)
(26.0804 3.31618 1.17313e-16)
(26.043 3.32456 5.11293e-17)
(26.0227 3.27553 1.60343e-16)
(25.9734 3.33399 1.61741e-17)
(25.9823 3.19657 -1.23852e-16)
(27.9398 1.56284 -1.70635e-18)
(27.6716 1.59086 1.04475e-18)
(27.4248 1.69223 5.82752e-19)
(27.271 1.84981 1.64172e-18)
(27.1927 1.9825 4.5903e-19)
(27.1462 2.05622 2.92762e-19)
(27.0954 2.08695 7.15982e-19)
(27.0129 2.10541 -5.79714e-19)
(26.8779 2.1316 2.30679e-18)
(26.6752 2.17012 -8.80841e-19)
(26.3936 2.21407 1.68931e-19)
(26.0247 2.25283 -1.7778e-18)
(25.561 2.27442 -5.80283e-19)
(24.9935 2.26942 8.27435e-19)
(24.3138 2.23073 1.66197e-18)
(23.5179 2.15733 1.7862e-18)
(22.6102 2.05373 -2.46991e-18)
(21.605 1.93232 1.327e-19)
(20.5233 1.80918 4.23012e-18)
(19.3884 1.70302 1.11326e-18)
(18.2227 1.62921 -3.11227e-19)
(17.0415 1.60064 3.11815e-18)
(15.8533 1.62465 1.31705e-18)
(14.6632 1.70435 9.51866e-18)
(13.4658 1.84627 -6.21813e-18)
(12.2352 2.0657 -1.12013e-17)
(10.9585 2.36482 -5.7627e-18)
(9.66857 2.73998 1.30697e-18)
(8.49345 3.1933 4.40527e-17)
(7.763 3.73202 -6.08111e-17)
(8.00244 4.38145 2.71167e-17)
(9.66705 5.16146 -1.44795e-17)
(12.7724 6.03568 -3.28522e-17)
(16.7861 6.88773 8.66622e-19)
(20.8359 7.55158 -1.9314e-17)
(24.0609 7.87868 2.04418e-17)
(25.9683 7.81429 1.16937e-18)
(26.6458 7.43936 1.879e-17)
(26.6213 6.92622 1.45946e-17)
(26.4505 6.43316 -1.33042e-18)
(26.4109 6.03234 -5.10834e-18)
(26.509 5.71903 -1.65991e-17)
(26.653 5.46141 -5.92327e-18)
(26.7775 5.2358 -7.36667e-18)
(26.8656 5.03247 8.56049e-18)
(26.9233 4.84883 4.2789e-19)
(26.9594 4.68369 4.83395e-18)
(26.9789 4.53543 9.17983e-18)
(26.985 4.40226 -7.67537e-18)
(26.9796 4.28252 1.05742e-17)
(26.9648 4.17484 -7.0733e-18)
(26.9423 4.07807 2.83659e-18)
(26.9136 3.99121 -3.10644e-17)
(26.8799 3.91337 6.66262e-17)
(26.8422 3.84371 4.17876e-17)
(26.8016 3.78142 -1.13056e-16)
(26.7589 3.72567 -7.26102e-20)
(26.7146 3.67568 1.57089e-16)
(26.6691 3.63081 -3.97387e-17)
(26.623 3.59047 -3.72277e-17)
(26.5766 3.55421 -1.06455e-16)
(26.5304 3.52154 4.43319e-17)
(26.4847 3.49216 3.12239e-16)
(26.4397 3.46558 1.13714e-16)
(26.3956 3.44173 -1.42251e-16)
(26.3524 3.41958 7.22125e-17)
(26.3103 3.4002 -5.44692e-17)
(26.275 3.38361 5.49985e-19)
(26.2447 3.37081 6.78705e-20)
(26.2135 3.35728 -5.32872e-19)
(26.1808 3.34606 -1.79234e-16)
(26.1479 3.33123 -2.61567e-20)
(26.113 3.3251 1.65664e-17)
(26.0824 3.30202 -1.16755e-16)
(26.0452 3.3124 2.35502e-16)
(26.0236 3.26186 -3.38319e-19)
(25.9762 3.32412 2.73641e-19)
(26.5393 5.18992 -3.89286e-19)
(26.2007 5.32981 3.22509e-19)
(25.9369 5.43886 7.70492e-19)
(25.741 5.5979 4.43779e-19)
(25.6002 5.7826 1.54881e-18)
(25.5002 5.96268 -1.33641e-18)
(25.4337 6.1277 8.55271e-19)
(25.3945 6.2851 -2.74318e-19)
(25.3752 6.44823 8.38541e-19)
(25.3639 6.62483 1.99187e-18)
(25.3467 6.81445 2.383e-19)
(25.3108 7.01082 1.35302e-18)
(25.2484 7.20479 9.96558e-19)
(25.1485 7.38465 1.05599e-18)
(24.9872 7.53672 8.65186e-19)
(24.7217 7.64748 -1.21729e-18)
(24.2995 7.70609 -1.80743e-18)
(23.6774 7.70786 1.41646e-18)
(22.8376 7.65525 1.03942e-18)
(21.7915 7.55762 2.56493e-19)
(20.5739 7.42803 -2.06235e-18)
(19.2305 7.28084 -8.13375e-18)
(17.809 7.12848 1.79936e-18)
(16.3514 6.98116 2.62006e-18)
(14.8869 6.84775 4.21501e-19)
(13.4275 6.73666 -1.69571e-18)
(11.9755 6.65344 5.39941e-18)
(10.5414 6.59932 -1.36857e-18)
(9.18826 6.5658 -6.66787e-18)
(8.10636 6.53459 1.77882e-17)
(7.67968 6.50248 -3.43483e-19)
(8.43317 6.5191 6.50225e-18)
(10.7426 6.66694 1.79077e-17)
(14.4797 6.97565 -1.65919e-18)
(18.9382 7.36625 -2.34469e-17)
(23.1077 7.68113 -1.92138e-17)
(26.1059 7.76808 1.3816e-18)
(27.5913 7.57094 1.19821e-17)
(27.8817 7.16144 -9.75912e-18)
(27.6271 6.6788 -2.46493e-18)
(27.344 6.23417 -1.79002e-18)
(27.218 5.86735 -2.23141e-17)
(27.2108 5.56741 -3.91386e-18)
(27.2385 5.31192 -1.18105e-18)
(27.256 5.08643 -2.99244e-18)
(27.255 4.885 -4.44539e-18)
(27.2402 4.70509 6.39411e-18)
(27.2161 4.54466 1.21487e-17)
(27.1848 4.4016 -1.02318e-17)
(27.1477 4.27395 -1.73121e-17)
(27.1059 4.16005 -1.74074e-17)
(27.0604 4.05849 4.04513e-18)
(27.0122 3.96805 -3.1364e-18)
(26.9621 3.88764 2.17179e-18)
(26.9105 3.81623 5.89182e-19)
(26.8583 3.75285 1.16443e-16)
(26.8057 3.69656 -1.42381e-19)
(26.7533 3.6465 -7.9944e-17)
(26.701 3.60194 -3.56511e-20)
(26.6492 3.56224 1.73998e-19)
(26.5981 3.52685 -8.4204e-19)
(26.548 3.49521 2.80916e-19)
(26.4991 3.46695 -1.81149e-16)
(26.4515 3.44153 -7.02487e-17)
(26.4053 3.41886 1.41626e-16)
(26.3603 3.39787 -7.19138e-17)
(26.3167 3.37964 4.2111e-17)
(26.2803 3.36402 9.17519e-17)
(26.249 3.35215 -1.28053e-16)
(26.2171 3.33943 -2.29693e-16)
(26.1838 3.32925 -9.98508e-20)
(26.1505 3.31503 -3.16698e-20)
(26.1153 3.31025 -6.72598e-17)
(26.0841 3.2872 6.52566e-17)
(26.0471 3.29958 -1.34643e-18)
(26.0244 3.24768 -8.71643e-19)
(24.1322 6.95863 -4.37493e-19)
(23.8266 7.05263 1.4762e-19)
(23.6232 7.1108 -1.7955e-19)
(23.4734 7.1918 2.88352e-19)
(23.3608 7.29209 -9.55549e-19)
(23.2744 7.4004 9.21884e-19)
(23.2088 7.50839 4.60513e-19)
(23.1631 7.61592 -2.83973e-19)
(23.1378 7.72846 -3.28657e-18)
(23.1284 7.85156 -5.78789e-18)
(23.1257 7.98798 8.6445e-19)
(23.1251 8.13806 -5.03359e-20)
(23.1392 8.30054 -1.20397e-18)
(23.1928 8.47226 -2.62039e-18)
(23.3005 8.64677 1.23204e-18)
(23.4387 8.81421 8.94466e-19)
(23.5365 8.96218 -2.24125e-18)
(23.4948 9.07753 4.93247e-19)
(23.2231 9.14966 1.14273e-18)
(22.6702 9.17359 -2.74186e-18)
(21.8331 9.15026 -1.64883e-18)
(20.7465 9.08513 -9.85938e-19)
(19.4666 8.98598 4.66378e-18)
(18.0548 8.86156 -9.7673e-18)
(16.5663 8.72064 6.62869e-18)
(15.0419 8.57142 -1.03087e-18)
(13.5101 8.4197 3.554e-18)
(12.0044 8.26616 -9.70107e-19)
(10.5997 8.10227 -6.4787e-18)
(9.45701 7.9092 1.44074e-17)
(8.85505 7.66843 -1.78997e-18)
(9.17752 7.39007 -9.88246e-18)
(10.8004 7.13857 6.58421e-18)
(13.848 7.00688 -1.60737e-18)
(17.9578 7.0368 -2.31753e-17)
(22.3008 7.16691 -1.86638e-17)
(25.8947 7.26084 -1.74755e-17)
(28.0727 7.19526 -2.87803e-18)
(28.825 6.94029 -9.44765e-18)
(28.6889 6.56486 2.47022e-18)
(28.2869 6.16796 6.25619e-19)
(27.9711 5.81285 -2.55749e-17)
(27.804 5.51353 -1.47174e-17)
(27.7206 5.25877 -2.83053e-17)
(27.6595 5.03538 6.79166e-18)
(27.5964 4.83608 4.01431e-18)
(27.5289 4.65764 7.98505e-18)
(27.4594 4.4981 1.50653e-17)
(27.3895 4.35565 -1.26145e-17)
(27.3195 4.22857 2.29689e-18)
(27.2498 4.1153 4.04561e-17)
(27.1806 4.01453 4.97639e-18)
(27.1123 3.92507 2.95452e-17)
(27.0452 3.84579 2.70358e-18)
(26.9793 3.77565 7.39885e-19)
(26.9151 3.71362 -1.16683e-16)
(26.8525 3.65876 -1.83497e-19)
(26.7917 3.61022 8.40806e-17)
(26.7325 3.56728 4.68184e-17)
(26.6751 3.52927 2.44084e-19)
(26.6193 3.49561 1.71474e-16)
(26.5653 3.46568 4.32735e-19)
(26.5132 3.4391 2.30949e-20)
(26.4629 3.4153 -4.36634e-17)
(26.4145 3.39416 4.56775e-19)
(26.3677 3.37462 -2.92471e-17)
(26.3227 3.35778 -2.23162e-22)
(26.2851 3.34329 -9.08583e-17)
(26.253 3.33245 1.27665e-16)
(26.2202 3.32064 3.9504e-19)
(26.1864 3.31159 -1.28711e-16)
(26.1526 3.29809 4.44602e-17)
(26.1171 3.29475 1.18015e-16)
(26.0853 3.27185 -1.14966e-19)
(22.6691 7.30559 -1.28898e-20)
(22.4636 7.33972 4.44097e-20)
(22.3309 7.35349 1.16811e-19)
(22.2268 7.3732 1.73337e-19)
(22.1407 7.40146 9.39781e-20)
(22.0663 7.43551 -3.21999e-20)
(22 7.47071 3.38971e-19)
(21.9428 7.50591 -2.11534e-19)
(21.8962 7.54319 -3.79137e-19)
(21.8543 7.5853 -1.1442e-18)
(21.8022 7.63423 3.35296e-19)
(21.7306 7.69163 8.29598e-19)
(21.6539 7.75925 -1.60558e-18)
(21.6146 7.83891 -2.50086e-19)
(21.6626 7.93175 1.05801e-18)
(21.8182 8.03733 3.13397e-19)
(22.0435 8.15256 -1.73933e-18)
(22.2427 8.27019 5.00832e-19)
(22.2963 8.38007 1.27265e-18)
(22.1056 8.47252 -3.90724e-19)
(21.6213 8.54051 -8.71065e-19)
(20.8449 8.58037 -1.49285e-18)
(19.8155 8.59142 1.45932e-18)
(18.591 8.57519 -1.43381e-18)
(17.2326 8.53459 2.40632e-18)
(15.7942 8.47287 -1.27367e-18)
(14.3227 8.3919 5.17417e-19)
(12.8752 8.28967 3.05512e-18)
(11.5511 8.15753 -5.47876e-18)
(10.519 7.98002 -1.1921e-17)