/*--------------------------------*- C++ -*----------------------------------*\
| =========                 |                                                 |
| \\      /  F ield         | OpenFOAM: The Open Source CFD Toolbox           |
|  \\    /   O peration     | Version:  2506                                  |
|   \\  /    A nd           | Website:  www.openfoam.com                      |
|    \\/     M anipulation  |                                                 |
\*---------------------------------------------------------------------------*/
FoamFile
{
    version     2.0;
    format      ascii;
    arch        "LSB;label=32;scalar=64";
    class       volScalarField;
    location    "250";
    object      div(phi);
}
// * * * * * * * * * * * * * * * * * * * * * * * * * * * * * * * * * * * * * //

dimensions      [0 0 -1 0 0 0 0];

internalField   nonuniform List<scalar> 
1340
(
5.84258e-08
2.11141e-08
1.56475e-08
1.91576e-08
1.96543e-08
9.66695e-09
-8.71679e-09
2.2664e-08
3.48522e-09
6.34347e-09
1.30454e-08
2.40249e-08
-1.10712e-09
-1.6019e-09
4.87083e-09
1.06233e-09
9.50891e-10
3.78763e-09
6.65428e-09
1.33626e-08
1.0973e-08
5.74715e-10
-1.00583e-08
2.75456e-09
-3.12301e-09
4.19659e-09
-4.97743e-09
-6.22654e-10
-3.3685e-09
1.62779e-09
4.77833e-09
2.01443e-09
2.51498e-09
1.12114e-08
2.25285e-08
9.99702e-08
1.55125e-08
2.70358e-08
9.70086e-09
2.33183e-08
-1.03628e-08
-6.38333e-09
5.8509e-09
7.8586e-09
-6.07482e-09
-9.4156e-10
-2.45257e-09
3.06749e-09
3.86571e-10
-7.21982e-10
1.8824e-09
6.20299e-09
1.12778e-08
9.5483e-09
-4.64759e-09
3.95457e-08
-4.31257e-08
-1.23816e-08
-8.69699e-09
-1.82914e-08
4.04135e-08
2.16985e-08
2.84634e-08
1.57886e-08
3.61649e-08
-4.84263e-09
-3.58777e-09
1.60756e-09
9.01059e-09
1.71505e-09
4.63849e-09
-4.00474e-09
-2.38034e-10
-3.91488e-09
1.06304e-09
2.92351e-09
1.55388e-09
1.37296e-09
1.03729e-08
1.99712e-08
2.94046e-07
-7.29786e-08
8.49393e-08
-6.45167e-08
7.42338e-08
-5.80236e-08
6.09814e-08
-4.72786e-08
5.87739e-08
-4.11428e-08
5.93636e-08
-4.64462e-08
4.91478e-08
-4.21803e-08
3.53544e-08
-4.07399e-08
2.75175e-08
-7.91873e-09
2.78445e-08
2.36837e-08
1.96133e-08
3.72738e-08
1.01385e-08
1.94341e-08
-1.54856e-08
4.98448e-09
5.52205e-09
1.51536e-08
-4.08835e-09
-4.33678e-10
-3.44593e-09
2.77405e-09
-1.92251e-10
-1.1445e-09
5.22308e-10
5.60032e-09
1.06655e-08
7.43082e-09
-1.21985e-05
-5.89136e-06
-6.06709e-06
-3.91339e-06
-4.41133e-06
-2.71785e-06
-3.28579e-06
-1.9802e-06
-2.55609e-06
-1.51278e-06
-2.03298e-06
-1.19403e-06
-1.66498e-06
-9.68667e-07
-1.3745e-06
-8.01358e-07
-1.14634e-06
-6.71998e-07
-9.4491e-07
-5.63504e-07
-7.77849e-07
-4.68618e-07
-6.11005e-07
-3.8189e-07
-4.83786e-07
-3.09337e-07
-3.42736e-07
-2.50013e-07
-2.58496e-07
-2.10488e-07
-1.56289e-07
-1.93404e-07
-8.92013e-08
-1.957e-07
-5.57933e-08
-1.96902e-07
-1.5094e-08
-2.05196e-07
-4.17663e-09
-2.06848e-07
-2.21471e-08
-1.89452e-07
-1.98335e-08
-1.63137e-07
-3.09289e-08
-1.35501e-07
-1.88864e-08
-1.05345e-07
-6.2341e-09
-7.70234e-08
2.40188e-09
-5.32568e-08
8.01203e-09
-3.34808e-08
6.42366e-09
-2.12165e-08
6.43611e-09
-1.23152e-08
1.55903e-09
-4.73846e-09
9.93669e-09
1.49276e-08
1.50057e-08
2.15858e-08
1.58051e-08
4.02336e-08
-1.78225e-08
1.33052e-08
-9.02805e-09
2.56594e-08
-2.12485e-09
8.66259e-09
-3.16885e-09
7.38711e-10
-3.50402e-09
5.87598e-10
1.26784e-09
1.51198e-09
1.17542e-09
9.78784e-09
1.74749e-08
3.4283e-06
-1.04641e-06
-8.42574e-07
-9.10819e-07
-1.15602e-06
-7.10614e-07
-1.09346e-06
-4.7091e-07
-9.06609e-07
-2.70192e-07
-7.03514e-07
-1.22237e-07
-5.47766e-07
-2.48681e-08
-4.23894e-07
3.06844e-08
-3.48344e-07
4.95173e-08
-2.86585e-07
4.21141e-08
-2.53742e-07
1.7078e-08
-2.24813e-07
-1.31412e-08
-2.03743e-07
-4.16179e-08
-1.81273e-07
-6.23494e-08
-1.52704e-07
-7.10598e-08
-1.28544e-07
-5.64757e-08
-7.12081e-08
-3.19022e-08
3.77899e-08
-3.34799e-08
6.04212e-08
-6.28705e-08
4.8843e-08
-1.01763e-07
1.78077e-08
-1.31711e-07
-2.86901e-08
-1.33415e-07
-3.67088e-08
-1.17197e-07
-2.96357e-08
-9.12387e-08
-1.84519e-08
-6.87254e-08
-9.89958e-09
-4.66886e-08
-4.68831e-09
-3.07084e-08
-2.26464e-09
-1.67592e-08
-1.63025e-09
-7.89715e-09
-1.02316e-09
-1.49645e-09
2.68967e-09
8.72747e-09
8.33824e-09
9.74111e-09
3.62641e-08
-7.38418e-09
2.67882e-08
-2.46185e-08
3.09595e-08
-3.38456e-09
2.12463e-08
-5.61271e-09
6.52749e-10
-3.53417e-09
2.64375e-09
-9.44883e-10
-5.47741e-10
-9.45307e-11
6.61918e-09
1.00833e-08
6.04226e-09
-6.49784e-07
-1.24493e-06
-4.94913e-07
-1.23439e-06
-7.48639e-07
-1.10423e-06
-7.73692e-07
-9.16089e-07
-7.05624e-07
-7.44423e-07
-6.09587e-07
-6.06001e-07
-5.56085e-07
-4.95292e-07
-5.05035e-07
-4.03534e-07
-4.79936e-07
-3.31755e-07
-4.51809e-07
-2.78985e-07
-4.24114e-07
-2.43083e-07
-3.94637e-07
-2.20656e-07
-3.53515e-07
-2.04084e-07
-3.18024e-07
-1.91956e-07
-2.65587e-07
-1.79326e-07
-2.28478e-07
-1.73155e-07
-1.72438e-07
-1.67133e-07
-1.58877e-07
-1.47476e-07
-1.09682e-07
-1.20026e-07
-5.07235e-08
-9.14569e-08
-2.36761e-08
-7.28196e-08
1.08951e-08
-6.26653e-08
1.85896e-08
-5.99644e-08
1.48761e-08
-5.57299e-08
9.58859e-09
-4.75086e-08
5.7475e-09
-3.64988e-08
3.87516e-09
-2.43696e-08
2.62101e-09
-1.37092e-08
1.73195e-09
-5.58478e-09
9.54786e-10
-1.60131e-10
8.53548e-10
5.06107e-09
1.82315e-09
1.54367e-08
6.8252e-10
2.19243e-08
-1.70024e-08
1.44737e-08
-7.08281e-09
2.59918e-08
-7.12856e-09
6.4462e-09
-5.63669e-09
5.23221e-09
-3.37128e-09
6.50991e-10
5.97383e-10
2.92349e-09
1.38742e-09
9.52097e-09
1.41828e-08
-3.79565e-07
-8.30468e-07
-3.83288e-07
-5.14383e-07
-2.20955e-07
-4.16755e-07
-2.08711e-07
-3.9258e-07
-2.23062e-07
-3.92395e-07
-2.23182e-07
-3.88853e-07
-2.02836e-07
-3.70405e-07
-1.72401e-07
-3.34166e-07
-1.42045e-07
-2.87378e-07
-1.16717e-07
-2.38802e-07
-1.03994e-07
-1.98867e-07
-9.60263e-08
-1.68336e-07
-1.01561e-07
-1.48306e-07
-1.01945e-07
-1.32598e-07
-1.08812e-07
-1.19504e-07
-1.01962e-07
-1.02532e-07
-1.01213e-07
-7.83362e-08
-4.88247e-08
-5.91134e-08
-1.1891e-08
-4.80316e-08
6.09207e-09
-4.81563e-08
2.55658e-08
-5.04965e-08
1.8304e-08
-5.33994e-08
1.52711e-08
-4.8518e-08
1.65388e-08
-4.00181e-08
1.82921e-08
-3.06628e-08
1.74205e-08
-2.21119e-08
1.45165e-08
-1.54077e-08
1.00144e-08
-9.94042e-09
5.57895e-09
-5.50494e-09
2.44691e-09
-2.30473e-09
4.724e-10
-1.92391e-10
2.00034e-10
3.79562e-10
6.86145e-09
-6.65452e-09
1.98039e-09
-5.08365e-09
2.0865e-08
-6.38495e-09
1.50974e-08
-1.19512e-08
8.19654e-09
-6.2366e-09
5.28578e-09
-1.68587e-09
3.34484e-09
1.19053e-09
7.69665e-09
9.49902e-09
5.16025e-09
-3.19676e-06
-7.81296e-07
-5.14925e-07
-5.60483e-07
-2.13788e-07
-4.58622e-07
-1.06897e-07
-4.22778e-07
-9.75377e-08
-4.15833e-07
-1.01218e-07
-4.21992e-07
-1.08102e-07
-4.28015e-07
-1.20385e-07
-4.20465e-07
-1.1815e-07
-3.92442e-07
-1.20561e-07
-3.48832e-07
-1.11368e-07
-2.97185e-07
-1.06028e-07
-2.48262e-07
-9.45331e-08
-2.0624e-07
-9.05505e-08
-1.7226e-07
-7.9978e-08
-1.44373e-07
-7.66208e-08
-1.1974e-07
-6.36001e-08
-9.56377e-08
-5.63017e-08
-6.45673e-08
-1.9748e-08
-3.4261e-08
2.28959e-08
-1.00593e-08
5.35344e-08
-8.98064e-10
6.97759e-08
-3.73229e-10
7.00253e-08
-6.15208e-09
6.13302e-08
-1.24199e-08
4.6894e-08
-1.64828e-08
3.36302e-08
-1.83525e-08
2.01345e-08
-1.71848e-08
9.68847e-09
-1.29371e-08
2.47383e-09
-6.89427e-09
-2.01728e-09
-9.10145e-10
-5.25564e-09
3.28484e-09
-7.60811e-09
4.16135e-09
-8.77415e-09
8.36311e-10
-6.30162e-09
9.04641e-09
-6.73494e-09
1.96444e-08
-1.63862e-08
1.16677e-08
-1.04095e-08
9.75592e-09
-5.24037e-09
5.84758e-09
1.44843e-09
6.15365e-09
2.32036e-09
8.44183e-09
1.05178e-08
-3.10793e-07
-1.00123e-06
-8.28825e-07
-8.57767e-07
-7.75225e-07
-7.48068e-07
-6.19231e-07
-6.18715e-07
-4.92597e-07
-5.10747e-07
-3.54968e-07
-4.33581e-07
-2.68242e-07
-3.92241e-07
-1.69023e-07
-3.67813e-07
-1.05714e-07
-3.525e-07
-4.23499e-08
-3.29903e-07
-4.45315e-09
-3.0254e-07
2.60227e-08
-2.69897e-07
4.02626e-08
-2.3919e-07
4.80382e-08
-2.11808e-07
4.78878e-08
-1.90037e-07
3.89989e-08
-1.7115e-07
2.99153e-08
-1.54187e-07
2.02201e-08
-1.37821e-07
1.33056e-08
-1.22001e-07
1.35501e-08
-1.07042e-07
1.5557e-08
-9.40531e-08
2.23829e-08
-8.31717e-08
3.32716e-08
-7.4754e-08
3.31374e-08
-6.87077e-08
3.57221e-08
-6.17926e-08
3.08497e-08
-5.4643e-08
2.66079e-08
-4.57778e-08
2.33306e-08
-3.61597e-08
2.03205e-08
-2.66879e-08
1.66928e-08
-1.85183e-08
1.19363e-08
-1.21886e-08
5.60501e-09
-8.34409e-09
-1.3268e-09
-7.9468e-09
1.47373e-09
-3.77267e-09
2.10689e-08
-1.57589e-08
1.79702e-08
-1.48444e-08
1.30355e-08
-8.7065e-09
8.46271e-09
-1.73251e-09
6.25721e-09
1.16843e-09
8.84629e-09
7.62612e-09
3.66515e-09
-6.61143e-06
-1.33843e-06
-1.41205e-06
-7.52278e-07
-6.21707e-07
-5.18204e-07
-2.60047e-07
-4.47231e-07
-1.25084e-07
-4.18416e-07
-4.55933e-08
-3.88242e-07
-1.91702e-08
-3.63805e-07
1.73068e-08
-3.4666e-07
3.10288e-08
-3.38701e-07
4.9151e-08
-3.28054e-07
5.61764e-08
-3.10779e-07
6.86111e-08
-2.84408e-07
7.2993e-08
-2.5446e-07
7.79694e-08
-2.24258e-07
7.72999e-08
-1.9667e-07
7.74812e-08
-1.72283e-07
7.3919e-08
-1.50698e-07
6.86084e-08
-1.31512e-07
6.19921e-08
-1.14076e-07
5.12715e-08
-9.83406e-08
4.4675e-08
-8.24484e-08
3.47963e-08
-6.59152e-08
4.40295e-08
-4.84201e-08
5.46932e-08
-3.49516e-08
6.59491e-08
-2.69821e-08
6.72817e-08
-2.4423e-08
5.98582e-08
-2.50245e-08
4.68682e-08
-2.53264e-08
3.41886e-08
-2.34496e-08
2.33456e-08
-1.94963e-08
1.49539e-08
-1.45987e-08
7.26414e-09
-1.01311e-08
-5.61379e-10
-7.22322e-09
7.72484e-10
1.12508e-08
-7.94199e-09
2.27846e-08
-1.54923e-08
1.56012e-08
-1.1277e-08
1.24239e-08
-7.2592e-09
8.20166e-09
8.4069e-10
9.94046e-09
2.11766e-09
7.98782e-09
7.07655e-09
1.37912e-06
2.42754e-06
1.76735e-06
1.55798e-06
1.20983e-06
1.01377e-06
8.70529e-07
6.44541e-07
6.4719e-07
4.00505e-07
4.83216e-07
2.43293e-07
3.69132e-07
1.43204e-07
2.73253e-07
7.06573e-08
2.18867e-07
1.11839e-08
1.67791e-07
-4.2947e-08
1.49106e-07
-8.61833e-08
1.26118e-07
-1.1944e-07
1.16812e-07
-1.3835e-07
1.02474e-07
-1.46996e-07
9.89348e-08
-1.47668e-07
9.08048e-08
-1.45049e-07
8.2992e-08
-1.3929e-07
7.42215e-08
-1.30796e-07
6.51112e-08
-1.20259e-07
5.72132e-08
-1.08663e-07
4.81606e-08
-9.71768e-08
4.01e-08
-8.58972e-08
3.46224e-08
-7.48786e-08
3.93442e-08
-6.4971e-08
3.77497e-08
-5.7268e-08
3.93043e-08
-4.99174e-08
3.39225e-08
-4.33878e-08
2.79431e-08
-3.61096e-08
2.2654e-08
-2.86557e-08
1.8029e-08
-2.16213e-08
1.34985e-08
-1.5834e-08
8.08277e-09
-1.09029e-08
1.69735e-09
-9.24191e-09
2.99955e-09
-7.05607e-09
7.18324e-09
-7.40342e-09
1.55989e-08
-8.71034e-09
1.71768e-08
-1.09089e-08
1.11032e-08
-2.33386e-09
1.14507e-08
-1.47943e-09
1.20257e-08
6.6325e-09
2.87272e-09
-1.28991e-05
-2.31005e-06
-2.27857e-06
-2.33996e-06
-1.27693e-06
-1.26108e-06
-7.24424e-07
-7.30434e-07
-4.80984e-07
-4.40217e-07
-3.63853e-07
-2.79186e-07
-2.91251e-07
-1.58889e-07
-2.26877e-07
-8.83067e-08
-1.73382e-07
-2.78784e-08
-1.32655e-07
1.55574e-09
-1.10929e-07
3.53763e-08
-1.01799e-07
4.85375e-08
-1.02089e-07
7.08519e-08
-1.02744e-07
7.65612e-08
-1.04465e-07
8.44636e-08
-1.0339e-07
8.10941e-08
-1.01837e-07
8.14538e-08
-9.8471e-08
7.51993e-08
-9.49857e-08
7.16042e-08
-9.01656e-08
6.52933e-08
-8.45035e-08
5.76573e-08
-7.75186e-08
5.20014e-08
-6.82043e-08
4.32389e-08
-5.63312e-08
5.06416e-08
-4.2265e-08
5.77579e-08
-3.10206e-08
6.57784e-08
-2.4118e-08
6.3822e-08
-2.18098e-08
5.43512e-08
-2.2097e-08
4.02156e-08
-2.2072e-08
2.71793e-08
-2.0066e-08
1.68216e-08
-1.62132e-08
9.80382e-09
-1.14986e-08
3.39418e-09
-8.83482e-09
3.22989e-09
-5.40106e-09
4.45832e-10
1.25945e-08
-3.9878e-09
1.89002e-08
-9.26555e-09
1.42683e-08
-5.8273e-09
1.38878e-08
-4.68784e-09
1.47837e-08
2.33819e-10
7.20383e-09
5.64887e-09
1.29334e-05
3.01691e-06
2.29866e-06
1.65316e-06
1.19288e-06
5.99057e-07
6.34105e-07
1.90103e-07
3.65194e-07
3.039e-08
2.07045e-07
-1.07666e-08
1.00955e-07
-2.79667e-08
2.6661e-08
-3.2873e-08
-1.61683e-08
-4.12277e-08
-3.85339e-08
-3.21494e-08
-5.00508e-08
-3.21274e-08
-6.22591e-08
-1.19301e-08
-7.50733e-08
-3.92207e-09
-9.0194e-08
1.45761e-08
-1.0078e-07
2.15739e-08
-1.07646e-07
3.74873e-08
-1.08992e-07
4.25339e-08
-1.0883e-07
4.74988e-08
-1.06159e-07
4.6319e-08
-1.02196e-07
4.62025e-08
-9.65645e-08
4.39555e-08
-9.02402e-08
4.15038e-08
-8.31286e-08
3.7981e-08
-7.51862e-08
3.59764e-08
-6.62315e-08
4.19879e-08
-5.72662e-08
4.02308e-08
-4.9887e-08
3.99688e-08
-4.26912e-08
3.23995e-08
-3.64375e-08
2.43561e-08
-2.96565e-08
1.79206e-08
-2.28868e-08
1.33057e-08
-1.67556e-08
9.53292e-09
-1.07449e-08
5.16736e-09
-7.15458e-09
6.50316e-09
-5.60624e-09
6.04185e-09
-3.28763e-09
9.51341e-09
-2.64158e-09
1.59502e-08
-4.93439e-09
1.6937e-08
-7.99539e-09
1.61729e-08
-7.07978e-09
1.14647e-08
5.48776e-09
2.30593e-09
-6.39872e-06
-5.36495e-07
-1.01338e-06
-1.23037e-06
-4.68162e-07
-7.00549e-07
-2.06445e-07
-4.35724e-07
-1.15464e-07
-3.20196e-07
-1.02043e-07
-2.23688e-07
-1.14671e-07
-1.61837e-07
-1.32531e-07
-8.25013e-08
-1.37702e-07
-3.30538e-08
-1.34837e-07
1.50542e-08
-1.22975e-07
3.63741e-08
-1.12325e-07
6.23133e-08
-1.04643e-07
6.93762e-08
-1.03334e-07
8.64705e-08
-1.03942e-07
8.94268e-08
-1.06414e-07
9.52341e-08
-1.05962e-07
9.18318e-08
-1.0323e-07
9.15993e-08
-9.74664e-08
8.55315e-08
-9.08054e-08
8.13842e-08
-8.34515e-08
7.45572e-08
-7.62402e-08
6.61616e-08
-6.88652e-08
5.95915e-08
-6.00777e-08
4.99409e-08
-4.91824e-08
5.54028e-08
-3.62854e-08
5.93952e-08
-2.60085e-08
6.3601e-08
-1.95391e-08
5.80762e-08
-1.69763e-08
4.69294e-08
-1.64227e-08
3.32568e-08
-1.52936e-08
2.20328e-08
-1.22727e-08
1.45929e-08
-7.72654e-09
9.19531e-09
-4.46209e-09
9.09261e-09
-2.50285e-09
7.66152e-09
1.30439e-09
3.18454e-09
1.39681e-08
-1.37336e-09
1.70557e-08
-7.9968e-09
1.71129e-08
-1.20309e-08
1.52822e-08
-1.61929e-09
6.23804e-09
4.00027e-09
3.45225e-06
-1.78531e-06
4.45431e-07
3.369e-07
2.01924e-07
7.14598e-08
5.82334e-08
-5.43103e-08
-4.91353e-09
-6.88622e-08
-4.07093e-08
-7.83022e-08
-7.92648e-08
-3.61836e-08
-1.19801e-07
-1.49942e-08
-1.62299e-07
1.11718e-08
-1.89501e-07
2.08984e-08
-2.00378e-07
4.33335e-08
-1.95437e-07
5.04681e-08
-1.86239e-07
6.59628e-08
-1.7609e-07
6.93897e-08
-1.69093e-07
7.62589e-08
-1.61941e-07
7.63147e-08
-1.53903e-07
8.09435e-08
-1.43122e-07
7.98731e-08
-1.31722e-07
7.57117e-08
-1.19409e-07
6.92686e-08
-1.07015e-07
6.27683e-08
-9.53497e-08
5.65228e-08
-8.48986e-08
4.97908e-08
-7.56109e-08
4.36599e-08
-6.65446e-08
3.91961e-08
-5.7359e-08
4.23581e-08
-4.80767e-08
3.89421e-08
-3.95316e-08
3.80971e-08
-3.08331e-08
3.16122e-08
-2.30039e-08
2.54559e-08
-1.55381e-08
2.10722e-08
-9.72252e-09
1.70322e-08
-4.51003e-09
1.25655e-08
-1.33838e-09
1.24054e-08
-1.02382e-09
1.26442e-08
-1.74685e-09
7.59462e-09
2.68313e-10
1.10692e-08
-2.29574e-09
1.78404e-08
-1.32702e-08
1.82427e-08
-8.77089e-09
1.16555e-08
4.77906e-09
4.20001e-09
9.79863e-06
1.85933e-06
2.1381e-06
1.67641e-06
1.28306e-06
7.89107e-07
7.45041e-07
3.2752e-07
4.59312e-07
9.91884e-08
3.03028e-07
-1.79607e-08
2.0615e-07
-4.79386e-08
1.35645e-07
-5.92923e-08
7.66653e-08
-1.43049e-08
3.10257e-08
1.2927e-08
-7.78432e-09
5.34616e-08
-3.19172e-08
6.79917e-08
-4.88063e-08
8.99095e-08
-5.86011e-08
9.13513e-08
-6.85742e-08
1.03439e-07
-7.74844e-08
1.01715e-07
-8.72583e-08
1.03459e-07
-9.29879e-08
9.81713e-08
-9.44884e-08
9.61614e-08
-9.04517e-08
9.03517e-08
-8.3235e-08
8.59527e-08
-7.40414e-08
8.01165e-08
-6.44905e-08
7.16968e-08
-5.50183e-08
6.6097e-08
-4.43224e-08
5.70295e-08
-3.19735e-08
6.16516e-08
-1.72054e-08
6.69542e-08
-5.71999e-09
7.10859e-08
1.38829e-09
6.58524e-08
3.58848e-09
5.52295e-08
2.63951e-09
4.07539e-08
2.01617e-09
2.94374e-08
3.02041e-09
2.0897e-08
3.35785e-09
1.6748e-08
2.41687e-09
1.46701e-08
3.60802e-09
7.17767e-09
8.01436e-09
3.93668e-09
1.6749e-08
-1.11406e-08
1.87734e-08
-8.85778e-09
1.72262e-08
5.23588e-09
9.94195e-09
4.39462e-09
-6.0554e-06
-1.6271e-07
-1.21899e-06
-6.90404e-07
-7.15359e-07
-2.44719e-07
-4.7485e-07
-4.7332e-08
-3.73301e-07
1.51764e-08
-3.26378e-07
7.14556e-08
-2.94592e-07
8.47682e-08
-2.78769e-07
1.30774e-07
-2.72953e-07
1.47392e-07
-2.78974e-07
1.72311e-07
-2.81985e-07
1.8006e-07
-2.77038e-07
1.92573e-07
-2.5878e-07
1.94032e-07
-2.3283e-07
1.94322e-07
-2.03227e-07
1.88646e-07
-1.74733e-07
1.82508e-07
-1.49355e-07
1.74774e-07
-1.27048e-07
1.66142e-07
-1.06628e-07
1.57683e-07
-8.75862e-08
1.46581e-07
-6.95522e-08
1.37087e-07
-5.2695e-08
1.27612e-07
-3.81814e-08
1.19306e-07
-2.58337e-08
1.12274e-07
-1.64321e-08
1.03362e-07
-8.95947e-09
9.8565e-08
-4.32302e-09
9.29198e-08
-1.30354e-09
7.77342e-08
3.72676e-10
6.68172e-08
3.21145e-09
5.10948e-08
5.94096e-09
4.13215e-08
8.30758e-09
3.35628e-08
9.49281e-09
2.52972e-08
8.7888e-09
1.94848e-08
6.53455e-09
2.11797e-08
5.97128e-09
1.49032e-08
4.45534e-09
1.25917e-08
-4.9411e-09
1.52583e-08
-9.89057e-10
1.79224e-08
7.0732e-09
1.07675e-08
6.40588e-09
1.51563e-09
3.5596e-06
1.00209e-06
1.98057e-06
7.46245e-07
1.82557e-06
7.20034e-07
1.59174e-06
5.84032e-07
1.3521e-06
4.47542e-07
1.14263e-06
3.23081e-07
9.6995e-07
2.21788e-07
8.26047e-07
1.66734e-07
7.01782e-07
1.20882e-07
5.86767e-07
1.24084e-07
4.83727e-07
1.24197e-07
3.90891e-07
1.66634e-07
3.20233e-07
1.9239e-07
2.65543e-07
2.54107e-07
2.30944e-07
2.86341e-07
2.02449e-07
3.3758e-07
1.82056e-07
3.57606e-07
1.60825e-07
3.80726e-07
1.43642e-07
3.79846e-07
1.26779e-07
3.67967e-07
1.13866e-07
3.4464e-07
1.02932e-07
3.07371e-07
9.40886e-08
2.71742e-07
8.65064e-08
2.27082e-07
7.97597e-08
1.9302e-07
7.42095e-08
1.5474e-07
7.09752e-08
1.36405e-07
6.92709e-08
1.23707e-07
6.54257e-08
1.09969e-07
5.75049e-08
9.32674e-08
4.61928e-08
7.05669e-08
3.38168e-08
4.84919e-08
2.37051e-08
3.14029e-08
1.48809e-08
2.06462e-08
1.07512e-08
2.21452e-08
1.05795e-08
1.04166e-08
7.65283e-09
4.47288e-09
8.32403e-09
4.96543e-09
9.90062e-09
5.29269e-09
5.38618e-09
3.21078e-09
1.22594e-09
0
)
;

boundaryField
{
    inlet
    {
        type            extrapolatedCalculated;
        value           nonuniform List<scalar> 
23
(
2.11141e-08
9.66695e-09
2.40249e-08
1.0973e-08
2.25285e-08
9.5483e-09
1.99712e-08
7.43082e-09
1.74749e-08
6.04226e-09
1.41828e-08
5.16025e-09
1.05178e-08
3.66515e-09
7.07655e-09
2.87272e-09
5.64887e-09
2.30593e-09
4.00027e-09
4.20001e-09
4.39462e-09
1.51563e-09
0
)
;
    }
    outlet
    {
        type            extrapolatedCalculated;
        value           nonuniform List<scalar> 
82
(
3.5596e-06
1.98057e-06
1.00209e-06
7.46245e-07
1.82557e-06
7.20034e-07
1.59174e-06
5.84032e-07
1.3521e-06
4.47542e-07
1.14263e-06
3.23081e-07
9.6995e-07
2.21788e-07
8.26047e-07
1.66734e-07
7.01782e-07
1.20882e-07
5.86767e-07
1.24084e-07
4.83727e-07
1.24197e-07
3.90891e-07
1.66634e-07
3.20233e-07
1.9239e-07
2.65543e-07
2.54107e-07
2.30944e-07
2.86341e-07
2.02449e-07
3.3758e-07
1.82056e-07
3.57606e-07
1.60825e-07
3.80726e-07
1.43642e-07
3.79846e-07
1.26779e-07
3.67967e-07
1.13866e-07
3.4464e-07
1.02932e-07
3.07371e-07
9.40886e-08
2.71742e-07
8.65064e-08
2.27082e-07
7.97597e-08
1.9302e-07
7.42095e-08
1.5474e-07
7.09752e-08
1.36405e-07
6.92709e-08
1.23707e-07
6.54257e-08
1.09969e-07
5.75049e-08
9.32674e-08
4.61928e-08
7.05669e-08
3.38168e-08
4.84919e-08
2.37051e-08
3.14029e-08
1.48809e-08
2.06462e-08
1.07512e-08
2.21452e-08
1.05795e-08
1.04166e-08
7.65283e-09
4.47288e-09
8.32403e-09
4.96543e-09
9.90062e-09
5.29269e-09
5.38618e-09
3.21078e-09
1.22594e-09
0
)
;
    }
    walls
    {
        type            extrapolatedCalculated;
        value           nonuniform List<scalar> 0();
    }
    frontAndBack
    {
        type            empty;
    }
    procBoundary3to2
    {
        type            processor;
        value           nonuniform List<scalar> 
88
(
3.00956e-08
1.57427e-09
1.73226e-09
1.10863e-08
1.10863e-08
4.91217e-09
-9.75317e-10
-9.75317e-10
-9.94959e-09
-2.22642e-09
-4.76715e-09
-4.76715e-09
-2.44854e-08
-3.34692e-09
-1.87876e-12
5.41808e-09
-1.37549e-08
-1.37549e-08
-3.51912e-08
1.82316e-08
1.05062e-08
1.99779e-08
-1.45826e-08
-1.45826e-08
5.48241e-09
-1.54872e-08
-1.0935e-08
-1.24218e-08
-4.39405e-08
5.28918e-08
-5.08994e-08
-5.08994e-08
1.18945e-07
-3.32951e-08
9.71767e-08
-2.41618e-08
6.42386e-08
-1.00272e-08
4.67231e-08
2.59688e-09
2.72918e-08
1.55464e-08
1.62306e-08
9.86893e-09
9.86893e-09
1.58755e-06
8.85425e-07
1.40818e-06
4.29402e-07
1.14064e-06
2.56024e-07
1.00416e-06
2.14111e-07
8.94849e-07
2.22286e-07
8.0513e-07
2.40739e-07
7.21445e-07
2.45989e-07
6.40747e-07
2.33645e-07
5.64458e-07
2.10924e-07
4.92858e-07
1.84339e-07
4.44903e-07
1.58923e-07
4.00667e-07
1.32266e-07
3.61595e-07
1.07848e-07
3.34774e-07
8.66884e-08
2.81237e-07
8.54479e-08
2.98443e-07
9.31142e-08
3.62125e-07
7.82026e-08
3.49619e-07
3.46187e-08
3.26794e-07
-1.94069e-08
2.29868e-07
-5.53554e-08
2.29517e-07
-2.10708e-07
-2.10708e-07
)
;
    }
    procBoundary3to6
    {
        type            processor;
        value           uniform 3.45264e-06;
    }
    procBoundary3to7
    {
        type            processor;
        value           nonuniform List<scalar> 
16
(
-1.27025e-05
2.02871e-07
-3.38558e-06
-1.20132e-06
-2.94684e-06
-1.27054e-06
-4.63785e-06
3.74787e-06
3.74787e-06
-1.15935e-05
1.27154e-05
-4.87397e-06
1.82732e-06
9.18705e-06
-5.68677e-06
5.2588e-06
)
;
    }
}


// ************************************************************************* //
