/*--------------------------------*- C++ -*----------------------------------*\
| =========                 |                                                 |
| \\      /  F ield         | OpenFOAM: The Open Source CFD Toolbox           |
|  \\    /   O peration     | Version:  2506                                  |
|   \\  /    A nd           | Website:  www.openfoam.com                      |
|    \\/     M anipulation  |                                                 |
\*---------------------------------------------------------------------------*/
FoamFile
{
    version     2.0;
    format      ascii;
    arch        "LSB;label=32;scalar=64";
    class       volScalarField;
    location    "250";
    object      magR;
}
// * * * * * * * * * * * * * * * * * * * * * * * * * * * * * * * * * * * * * //

dimensions      [0 2 -2 0 0 0 0];

internalField   nonuniform List<scalar> 
1340
(
8.16934e-07
1.60841e-06
1.81958e-07
7.48307e-07
8.14396e-07
1.61077e-06
2.01628e-07
3.23939e-07
1.78328e-07
7.51125e-07
8.14659e-07
1.61149e-06
3.72752e-07
3.28174e-07
3.07876e-07
2.11466e-07
3.31438e-07
1.76199e-07
7.54164e-07
8.16877e-07
1.61137e-06
5.32939e-07
4.93927e-07
4.62007e-07
4.32303e-07
4.01348e-07
3.7218e-07
3.29787e-07
3.11444e-07
2.22012e-07
3.38656e-07
1.75377e-07
7.57321e-07
8.20404e-07
1.61089e-06
7.47905e-07
7.01161e-07
6.54499e-07
6.09025e-07
5.64438e-07
5.22512e-07
4.86135e-07
4.5641e-07
4.28554e-07
3.99379e-07
3.7178e-07
3.31774e-07
3.15441e-07
2.33123e-07
3.45429e-07
1.75739e-07
7.60323e-07
8.24708e-07
1.61015e-06
1.01814e-06
9.74448e-07
9.30942e-07
8.87918e-07
8.45474e-07
8.03462e-07
7.61469e-07
7.19136e-07
6.76421e-07
6.33696e-07
5.91985e-07
5.50841e-07
5.11989e-07
4.78321e-07
4.50809e-07
4.24825e-07
3.975e-07
3.7151e-07
3.34098e-07
3.19806e-07
2.44676e-07
3.51637e-07
1.77185e-07
7.63113e-07
8.29367e-07
1.60887e-06
1.37397e-06
1.34228e-06
1.30976e-06
1.2765e-06
1.24263e-06
1.20821e-06
1.17333e-06
1.13807e-06
1.10245e-06
1.06639e-06
1.02984e-06
9.92727e-07
9.55134e-07
9.17155e-07
8.79089e-07
8.41202e-07
8.03574e-07
7.66083e-07
7.28369e-07
6.90174e-07
6.51516e-07
6.12754e-07
5.74827e-07
5.3716e-07
5.01458e-07
4.70539e-07
4.45233e-07
4.21129e-07
3.95698e-07
3.71349e-07
3.36732e-07
3.24495e-07
2.56577e-07
3.57161e-07
1.7964e-07
7.65586e-07
8.33771e-07
1.60741e-06
1.45329e-06
1.51392e-06
1.33635e-06
1.35653e-06
1.35097e-06
1.40376e-06
1.43052e-06
1.45635e-06
1.47842e-06
1.49913e-06
1.51808e-06
1.53509e-06
1.54964e-06
1.5618e-06
1.57213e-06
1.57989e-06
1.58543e-06
1.58881e-06
1.59013e-06
1.58954e-06
1.58709e-06
1.58293e-06
1.57727e-06
1.57021e-06
1.56182e-06
1.5522e-06
1.54151e-06
1.52989e-06
1.51729e-06
1.50393e-06
1.48975e-06
1.47481e-06
1.45918e-06
1.4428e-06
1.42574e-06
1.40799e-06
1.38948e-06
1.37031e-06
1.35031e-06
1.32951e-06
1.30794e-06
1.28541e-06
1.26203e-06
1.23792e-06
1.21294e-06
1.187e-06
1.16027e-06
1.13286e-06
1.10478e-06
1.07616e-06
1.04708e-06
1.01751e-06
9.87411e-07
9.56715e-07
9.25315e-07
8.93272e-07
8.60714e-07
8.27846e-07
7.94884e-07
7.61909e-07
7.28824e-07
6.95335e-07
6.6126e-07
6.2664e-07
5.9183e-07
5.57665e-07
5.23472e-07
4.90952e-07
4.628e-07
4.39672e-07
4.1745e-07
3.93948e-07
3.71275e-07
3.39661e-07
3.29485e-07
2.68751e-07
3.61932e-07
1.83003e-07
7.67476e-07
8.37683e-07
1.60602e-06
1.49135e-06
1.20914e-06
1.11046e-06
1.19312e-06
1.20952e-06
1.24028e-06
1.25719e-06
1.2764e-06
1.29328e-06
1.30923e-06
1.32361e-06
1.33632e-06
1.34729e-06
1.3565e-06
1.36417e-06
1.36986e-06
1.37389e-06
1.37641e-06
1.3773e-06
1.37672e-06
1.37484e-06
1.37168e-06
1.36738e-06
1.36204e-06
1.3557e-06
1.34847e-06
1.34053e-06
1.33181e-06
1.32246e-06
1.31254e-06
1.30202e-06
1.29097e-06
1.27937e-06
1.26726e-06
1.25463e-06
1.24144e-06
1.22771e-06
1.2134e-06
1.19842e-06
1.18276e-06
1.1664e-06
1.1493e-06
1.13132e-06
1.11252e-06
1.093e-06
1.0726e-06
1.05144e-06
1.02956e-06
1.00702e-06
9.83919e-07
9.60321e-07
9.36195e-07
9.11498e-07
8.86168e-07
8.60067e-07
8.33232e-07
8.05726e-07
7.77729e-07
7.49421e-07
7.20872e-07
6.92023e-07
6.62643e-07
6.32601e-07
6.01957e-07
5.71044e-07
5.40596e-07
5.09842e-07
4.80518e-07
4.5512e-07
4.34123e-07
4.1378e-07
3.9223e-07
3.71286e-07
3.42862e-07
3.34753e-07
2.81096e-07
3.65908e-07
1.87044e-07
7.69122e-07
8.40646e-07
1.60528e-06
1.15051e-06
1.03962e-06
1.00331e-06
1.07624e-06
1.08081e-06
1.09966e-06
1.11199e-06
1.12579e-06
1.13809e-06
1.1495e-06
1.15947e-06
1.16852e-06
1.17616e-06
1.18249e-06
1.18757e-06
1.19134e-06
1.19383e-06
1.19528e-06
1.19554e-06
1.19466e-06
1.19295e-06
1.19032e-06
1.18686e-06
1.18254e-06
1.17763e-06
1.17213e-06
1.16604e-06
1.15949e-06
1.15251e-06
1.14511e-06
1.13733e-06
1.12921e-06
1.12069e-06
1.11182e-06
1.10261e-06
1.093e-06
1.08297e-06
1.07249e-06
1.0615e-06
1.04992e-06
1.03778e-06
1.02503e-06
1.01148e-06
9.97239e-07
9.82265e-07
9.66484e-07
9.50028e-07
9.32875e-07
9.15123e-07
8.96847e-07
8.78076e-07
8.58804e-07
8.38983e-07
8.18508e-07
7.97234e-07
7.75173e-07
7.52343e-07
7.28863e-07
7.04911e-07
6.80563e-07
6.55769e-07
6.30362e-07
6.04243e-07
5.77509e-07
5.50425e-07
5.23609e-07
4.96266e-07
4.70146e-07
4.47462e-07
4.28534e-07
4.10084e-07
3.90507e-07
3.71357e-07
3.46333e-07
3.40296e-07
2.93517e-07
3.69114e-07
1.91744e-07
7.69488e-07
8.4334e-07
1.60569e-06
9.9896e-07
9.47844e-07
9.17937e-07
9.67542e-07
9.66671e-07
9.79754e-07
9.88054e-07
9.97244e-07
1.00527e-06
1.01271e-06
1.01917e-06
1.02493e-06
1.02972e-06
1.03357e-06
1.03654e-06
1.03866e-06
1.03982e-06
1.04031e-06
1.03996e-06
1.03885e-06
1.03716e-06
1.03483e-06
1.03189e-06
1.02841e-06
1.02462e-06
1.02031e-06
1.01568e-06
1.01082e-06
1.0056e-06
1.00017e-06
9.94477e-07
9.8861e-07
9.82446e-07
9.76114e-07
9.69537e-07
9.62679e-07
9.5554e-07
9.48055e-07
9.40151e-07
9.3182e-07
9.23014e-07
9.13685e-07
9.03718e-07
8.93107e-07
8.81814e-07
8.69863e-07
8.57286e-07
8.44099e-07
8.30408e-07
8.1625e-07
8.01669e-07
7.86637e-07
7.71118e-07
7.54923e-07
7.37967e-07
7.202e-07
7.01543e-07
6.82187e-07
6.62246e-07
6.41765e-07
6.2078e-07
5.99151e-07
5.76768e-07
5.53777e-07
5.30372e-07
5.07045e-07
4.83012e-07
4.60018e-07
4.39969e-07
4.23028e-07
4.06442e-07
3.88827e-07
3.71546e-07
3.50073e-07
3.46114e-07
3.05736e-07
3.71651e-07
1.96181e-07
7.6911e-07
8.44477e-07
1.60957e-06
9.0268e-07
8.57145e-07
8.26597e-07
8.61703e-07
8.59007e-07
8.67388e-07
8.71945e-07
8.7726e-07
8.81641e-07
8.85914e-07
8.89503e-07
8.92568e-07
8.95143e-07
8.96976e-07
8.98328e-07
8.99202e-07
8.99383e-07
8.9907e-07
8.98331e-07
8.97068e-07
8.95426e-07
8.93346e-07
8.90895e-07
8.88204e-07
8.85228e-07
8.81983e-07
8.78697e-07
8.75179e-07
8.71439e-07
8.67584e-07
8.63762e-07
8.59725e-07
8.55627e-07
8.51306e-07
8.46919e-07
8.4257e-07
8.37724e-07
8.3273e-07
8.27487e-07
8.21932e-07
8.15904e-07
8.09548e-07
8.02611e-07
7.95035e-07
7.87036e-07
7.78352e-07
7.69168e-07
7.59527e-07
7.49383e-07
7.38949e-07
7.28126e-07
7.16915e-07
7.05332e-07
6.93068e-07
6.80038e-07
6.66255e-07
6.51503e-07
6.35961e-07
6.19845e-07
6.0305e-07
5.85723e-07
5.67809e-07
5.49108e-07
5.29805e-07
5.1005e-07
4.90216e-07
4.69485e-07
4.49652e-07
4.32238e-07
4.17304e-07
4.02611e-07
3.87031e-07
3.71817e-07
3.54121e-07
3.52384e-07
3.18114e-07
3.73481e-07
2.04465e-07
7.64322e-07
8.48881e-07
1.61384e-06
7.91239e-07
7.52195e-07
7.23425e-07
7.47639e-07
7.42414e-07
7.46362e-07
7.47092e-07
7.4816e-07
7.49935e-07
7.50732e-07
7.5145e-07
7.52624e-07
7.52858e-07
7.52761e-07
7.52941e-07
7.52853e-07
7.51737e-07
7.51143e-07
7.50052e-07
7.48672e-07
7.47302e-07
7.45345e-07
7.43666e-07
7.41866e-07
7.39686e-07
7.37667e-07
7.35652e-07
7.33532e-07
7.31411e-07
7.29073e-07
7.27134e-07
7.25104e-07
7.22932e-07
7.20565e-07
7.18636e-07
7.16532e-07
7.14015e-07
7.11459e-07
7.08861e-07
7.0602e-07
7.02703e-07
6.99336e-07
6.95167e-07
6.90712e-07
6.85989e-07
6.8044e-07
6.74712e-07
6.68673e-07
6.62065e-07
6.55467e-07
6.48516e-07
6.41192e-07
6.33741e-07
6.25532e-07
6.16565e-07
6.06911e-07
5.96318e-07
5.84778e-07
5.72718e-07
5.59977e-07
5.46669e-07
5.32836e-07
5.1823e-07
5.03063e-07
4.8737e-07
4.71388e-07
4.54363e-07
4.38102e-07
4.23576e-07
4.10832e-07
3.98297e-07
3.85083e-07
3.72325e-07
3.59185e-07
3.59453e-07
3.32674e-07
3.71976e-07
2.2055e-07
7.49828e-07
8.41032e-07
1.55958e-06
6.73001e-07
6.4608e-07
6.22154e-07
6.34993e-07
6.27856e-07
6.27632e-07
6.24696e-07
6.22788e-07
6.21682e-07
6.19664e-07
6.18295e-07
6.17411e-07
6.15726e-07
6.1419e-07
6.1338e-07
6.12159e-07
6.10286e-07
6.09445e-07
6.07801e-07
6.06595e-07
6.05466e-07
6.03584e-07
6.0258e-07
6.01638e-07
6.00098e-07
5.99127e-07
5.98029e-07
5.97101e-07
5.9643e-07
5.95505e-07
5.9488e-07
5.94546e-07
5.93923e-07
5.93361e-07
5.93359e-07
5.9289e-07
5.92431e-07
5.91986e-07
5.91538e-07
5.90823e-07
5.89955e-07
5.88837e-07
5.8718e-07
5.85574e-07
5.83382e-07
5.80842e-07
5.78274e-07
5.75409e-07
5.72266e-07
5.69192e-07
5.66001e-07
5.62477e-07
5.589e-07
5.54663e-07
5.49728e-07
5.44075e-07
5.37546e-07
5.30138e-07
5.22217e-07
5.13699e-07
5.04672e-07
4.95142e-07
4.84948e-07
4.74187e-07
4.62791e-07
4.5093e-07
4.37946e-07
4.25506e-07
4.1404e-07
4.03671e-07
3.93541e-07
3.83031e-07
3.733e-07
3.65315e-07
3.67788e-07
3.48216e-07
3.69354e-07
2.38122e-07
7.49143e-07
8.34116e-07
1.55735e-06
5.71321e-07
5.52295e-07
5.3119e-07
5.36995e-07
5.29058e-07
5.25379e-07
5.20817e-07
5.17617e-07
5.13529e-07
5.10509e-07
5.08097e-07
5.05256e-07
5.02657e-07
5.00487e-07
4.9886e-07
4.96583e-07
4.94943e-07
4.93532e-07
4.91645e-07
4.90708e-07
4.89671e-07
4.8814e-07
4.87485e-07
4.86868e-07
4.85879e-07
4.85781e-07
4.85297e-07
4.85032e-07
4.85272e-07
4.85366e-07
4.85559e-07
4.86291e-07
4.86707e-07
4.87339e-07
4.88409e-07
4.89097e-07
4.89952e-07
4.90936e-07
4.91817e-07
4.9251e-07
4.93254e-07
4.93616e-07
4.93897e-07
4.94109e-07
4.93807e-07
4.93593e-07
4.9335e-07
4.92929e-07
4.92548e-07
4.92221e-07
4.92019e-07
4.91591e-07
4.91006e-07
4.9006e-07
4.88361e-07
4.8602e-07
4.82932e-07
4.79062e-07
4.74814e-07
4.70058e-07
4.64877e-07
4.59317e-07
4.53169e-07
4.46417e-07
4.39034e-07
4.31035e-07
4.21897e-07
4.13092e-07
4.04538e-07
3.96521e-07
3.88878e-07
3.81204e-07
3.74889e-07
3.721e-07
3.77047e-07
3.63031e-07
3.6829e-07
2.55639e-07
7.56083e-07
8.12551e-07
1.55689e-06
4.88274e-07
4.45473e-07
4.69522e-07
4.49899e-07
4.52971e-07
4.43966e-07
4.38657e-07
4.33735e-07
4.29156e-07
4.24347e-07
4.20503e-07
4.17301e-07
4.13961e-07
4.10809e-07
4.08373e-07
4.06345e-07
4.03751e-07
4.02249e-07
4.00676e-07
3.99085e-07
3.98282e-07
3.97183e-07
3.9646e-07
3.95947e-07
3.95636e-07
3.95458e-07
3.95679e-07
3.959e-07
3.96211e-07
3.97108e-07
3.97922e-07
3.98776e-07
4.00265e-07
4.01394e-07
4.02873e-07
4.04704e-07
4.06158e-07
4.0798e-07
4.09879e-07
4.11597e-07
4.13372e-07
4.15073e-07
4.1662e-07
4.18185e-07
4.19562e-07
4.209e-07
4.22272e-07
4.23701e-07
4.25214e-07
4.26853e-07
4.28603e-07
4.30564e-07
4.32402e-07
4.34047e-07
4.35467e-07
4.36158e-07
4.36325e-07
4.35904e-07
4.34826e-07
4.33515e-07
4.3186e-07
4.29865e-07
4.27609e-07
4.24835e-07
4.21477e-07
4.17523e-07
4.12877e-07
4.07132e-07
4.01529e-07
3.95578e-07
3.89775e-07
3.84594e-07
3.79803e-07
3.77153e-07
3.79404e-07
3.86737e-07
3.76526e-07
3.68459e-07
2.77075e-07
7.66931e-07
7.84903e-07
1.55603e-06
4.1005e-07
3.71752e-07
3.9515e-07
3.77486e-07
3.78849e-07
3.69868e-07
3.64591e-07
3.58878e-07
3.54123e-07
3.49598e-07
3.45159e-07
3.41721e-07
3.38389e-07
3.35471e-07
3.32882e-07
3.30571e-07
3.28429e-07
3.26963e-07
3.25635e-07
3.24333e-07
3.23498e-07
3.22764e-07
3.227e-07
3.22337e-07
3.22485e-07
3.228e-07
3.23284e-07
3.24249e-07
3.24998e-07
3.26319e-07
3.27626e-07
3.29176e-07
3.31047e-07
3.32762e-07
3.34855e-07
3.37173e-07
3.39368e-07
3.41699e-07
3.44277e-07
3.46693e-07
3.49181e-07
3.51703e-07
3.54088e-07
3.56617e-07
3.59089e-07
3.61659e-07
3.64304e-07
3.67066e-07
3.70117e-07
3.73336e-07
3.76644e-07
3.80205e-07
3.83717e-07
3.8699e-07
3.90145e-07
3.92644e-07
3.94708e-07
3.96374e-07
3.97567e-07
3.98633e-07
3.99492e-07
4.00131e-07
4.00559e-07
4.00584e-07
4.00059e-07
3.98968e-07
3.97203e-07
3.94413e-07
3.9159e-07
3.87956e-07
3.84248e-07
3.81438e-07
3.79524e-07
3.80649e-07
3.87621e-07
3.96964e-07
3.89072e-07
3.70786e-07
3.05936e-07
7.81815e-07
7.52564e-07
1.55634e-06
3.42007e-07
3.09257e-07
3.28999e-07
3.13311e-07
3.13224e-07
3.05058e-07
2.99854e-07
2.94402e-07
2.90083e-07
2.85401e-07
2.81552e-07
2.7847e-07
2.75273e-07
2.72751e-07
2.70528e-07
2.6837e-07
2.66899e-07
2.65651e-07
2.64693e-07
2.63721e-07
2.63297e-07
2.63232e-07
2.63178e-07
2.6343e-07
2.64087e-07
2.64594e-07
2.6571e-07
2.67051e-07
2.68115e-07
2.69868e-07
2.71532e-07
2.73548e-07
2.75701e-07
2.7775e-07
2.80262e-07
2.82985e-07
2.85427e-07
2.88191e-07
2.91159e-07
2.93946e-07
2.96866e-07
3.00011e-07
3.0293e-07
3.06074e-07
3.0945e-07
3.12765e-07
3.16374e-07
3.20112e-07
3.24205e-07
3.28457e-07
3.32818e-07
3.37486e-07
3.42034e-07
3.46432e-07
3.5078e-07
3.54598e-07
3.58109e-07
3.61421e-07
3.64451e-07
3.67451e-07
3.70326e-07
3.73122e-07
3.75779e-07
3.78069e-07
3.79921e-07
3.81248e-07
3.81934e-07
3.81694e-07
3.8122e-07
3.79635e-07
3.77971e-07
3.77564e-07
3.78609e-07
3.83613e-07
3.94799e-07
4.05229e-07
3.97875e-07
3.72847e-07
3.39295e-07
8.00342e-07
7.12789e-07
1.56095e-06
2.85595e-07
2.58387e-07
2.75789e-07
2.6214e-07
2.61677e-07
2.54559e-07
2.49509e-07
2.45175e-07
2.41235e-07
2.3717e-07
2.34139e-07
2.31502e-07
2.28924e-07
2.26767e-07
2.25179e-07
2.23555e-07
2.22602e-07
2.21806e-07
2.21e-07
2.20574e-07
2.20639e-07
2.20873e-07
2.20944e-07
2.21459e-07
2.22606e-07
2.23249e-07
2.24515e-07
2.26029e-07
2.27409e-07
2.292e-07
2.31128e-07
2.33249e-07
2.35539e-07
2.37838e-07
2.40534e-07
2.43347e-07
2.46018e-07
2.49112e-07
2.52265e-07
2.55488e-07
2.58721e-07
2.62378e-07
2.65892e-07
2.6966e-07
2.73722e-07
2.77689e-07
2.82152e-07
2.86625e-07
2.91412e-07
2.96384e-07
3.01478e-07
3.06785e-07
3.11996e-07
3.17237e-07
3.22362e-07
3.27199e-07
3.31905e-07
3.36502e-07
3.40975e-07
3.45493e-07
3.49924e-07
3.54369e-07
3.5873e-07
3.62754e-07
3.66516e-07
3.69803e-07
3.72492e-07
3.74414e-07
3.76018e-07
3.76351e-07
3.76502e-07
3.78088e-07
3.81581e-07
3.89844e-07
4.04152e-07
4.14881e-07
4.0813e-07
3.83447e-07
3.88537e-07
8.29002e-07
6.7577e-07
1.58229e-06
2.35907e-07
2.11787e-07
2.2642e-07
2.13674e-07
2.13951e-07
2.07407e-07
2.03341e-07
1.99701e-07
1.95967e-07
1.92831e-07
1.90767e-07
1.88823e-07
1.87022e-07
1.85446e-07
1.84513e-07
1.83923e-07
1.8355e-07
1.83208e-07
1.82937e-07
1.83587e-07
1.83978e-07
1.84578e-07
1.85308e-07
1.86145e-07
1.87721e-07
1.88837e-07
1.90273e-07
1.91933e-07
1.93754e-07
1.95693e-07
1.97634e-07
2.00023e-07
2.02218e-07
2.0467e-07
2.07401e-07
2.10051e-07
2.12837e-07
2.15735e-07
2.18996e-07
2.22201e-07
2.25401e-07
2.291e-07
2.32742e-07
2.36578e-07
2.4062e-07
2.44836e-07
2.49282e-07
2.5382e-07
2.58594e-07
2.63507e-07
2.68635e-07
2.73819e-07
2.79123e-07
2.84509e-07
2.89828e-07
2.95116e-07
3.00444e-07
3.05784e-07
3.11109e-07
3.16595e-07
3.2206e-07
3.27637e-07
3.33181e-07
3.38503e-07
3.43679e-07
3.48408e-07
3.5261e-07
3.56104e-07
3.58902e-07
3.604e-07
3.62389e-07
3.66408e-07
3.73142e-07
3.85433e-07
4.02316e-07
4.10723e-07
4.00371e-07
3.77474e-07
4.2073e-07
8.46733e-07
6.13001e-07
1.6194e-06
2.07257e-07
1.88375e-07
1.99955e-07
1.9043e-07
1.89749e-07
1.85162e-07
1.82637e-07
1.80461e-07
1.77933e-07
1.76181e-07
1.75425e-07
1.74696e-07
1.74006e-07
1.73301e-07
1.73322e-07
1.73599e-07
1.73821e-07
1.74162e-07
1.74472e-07
1.7562e-07
1.76452e-07
1.77183e-07
1.78282e-07
1.79454e-07
1.80989e-07
1.82329e-07
1.83919e-07
1.85546e-07
1.87465e-07
1.89489e-07
1.91472e-07
1.93953e-07
1.96245e-07
1.98951e-07
2.01813e-07
2.04785e-07
2.0795e-07
2.11262e-07
2.15048e-07
2.187e-07
2.22677e-07
2.26892e-07
2.31143e-07
2.35544e-07
2.40096e-07
2.44763e-07
2.49345e-07
2.54131e-07
2.58919e-07
2.63807e-07
2.68954e-07
2.74182e-07
2.7972e-07
2.85381e-07
2.9122e-07
2.97134e-07
3.03102e-07
3.09083e-07
3.14925e-07
3.20835e-07
3.26663e-07
3.32586e-07
3.38527e-07
3.44393e-07
3.50203e-07
3.55691e-07
3.60862e-07
3.65612e-07
3.70212e-07
3.7361e-07
3.76397e-07
3.80464e-07
3.86762e-07
3.98151e-07
4.13486e-07
4.20388e-07
4.1541e-07
4.14547e-07
5.10611e-07
8.95114e-07
6.3364e-07
1.7801e-06
1.32619e-07
1.26392e-07
1.31309e-07
1.29866e-07
1.28539e-07
1.26849e-07
1.25881e-07
1.25525e-07
1.2571e-07
1.26262e-07
1.26907e-07
1.2795e-07
1.29289e-07
1.30709e-07
1.3225e-07
1.33833e-07
1.35635e-07
1.37442e-07
1.39241e-07
1.41207e-07
1.43053e-07
1.45018e-07
1.4692e-07
1.48852e-07
1.50868e-07
1.52871e-07
1.54866e-07
1.56827e-07
1.58953e-07
1.60999e-07
1.63133e-07
1.65344e-07
1.67512e-07
1.69879e-07
1.72204e-07
1.74684e-07
1.77191e-07
1.79777e-07
1.8248e-07
1.8513e-07
1.8795e-07
1.90745e-07
1.93541e-07
1.96336e-07
1.99192e-07
2.01972e-07
2.04761e-07
2.07679e-07
2.10644e-07
2.13852e-07
2.17262e-07
2.20946e-07
2.24946e-07
2.29117e-07
2.33566e-07
2.38145e-07
2.42929e-07
2.47842e-07
2.52873e-07
2.58225e-07
2.63748e-07
2.69554e-07
2.75518e-07
2.81551e-07
2.87587e-07
2.93311e-07
2.98702e-07
3.035e-07
3.0622e-07
3.0734e-07
3.11335e-07
3.19636e-07
3.32598e-07
3.52294e-07
3.70697e-07
3.6839e-07
3.47071e-07
3.54302e-07
4.99825e-07
7.63491e-07
5.75264e-07
1.79295e-06
)
;

boundaryField
{
    inlet
    {
        type            calculated;
        value           nonuniform List<scalar> 
23
(
6.78349e-06
6.74946e-06
6.71644e-06
6.68439e-06
6.65262e-06
6.62037e-06
6.58674e-06
6.55103e-06
6.5123e-06
6.46974e-06
6.42223e-06
6.37016e-06
6.31035e-06
6.21657e-06
6.1382e-06
6.04299e-06
5.92469e-06
5.78058e-06
5.60733e-06
5.40418e-06
5.16255e-06
4.97866e-06
4.62641e-06
)
;
    }
    outlet
    {
        type            calculated;
        value           nonuniform List<scalar> 
82
(
1.10943e-07
1.09173e-07
1.02886e-07
1.06928e-07
1.04841e-07
1.02284e-07
1.00582e-07
9.96597e-08
9.93976e-08
9.95973e-08
9.99382e-08
1.0077e-07
1.0199e-07
1.03303e-07
1.04775e-07
1.06301e-07
1.08091e-07
1.09892e-07
1.11671e-07
1.13658e-07
1.15491e-07
1.17451e-07
1.1934e-07
1.21249e-07
1.23252e-07
1.25223e-07
1.27177e-07
1.29069e-07
1.31143e-07
1.33102e-07
1.35137e-07
1.37243e-07
1.39262e-07
1.41489e-07
1.43627e-07
1.45907e-07
1.48186e-07
1.50514e-07
1.52945e-07
1.55272e-07
1.57773e-07
1.6022e-07
1.62648e-07
1.65066e-07
1.67558e-07
1.69974e-07
1.72412e-07
1.75023e-07
1.77695e-07
1.80647e-07
1.83803e-07
1.87223e-07
1.90933e-07
1.94757e-07
1.98822e-07
2.02991e-07
2.07393e-07
2.12004e-07
2.16849e-07
2.22189e-07
2.27835e-07
2.33871e-07
2.40105e-07
2.46396e-07
2.52669e-07
2.58553e-07
2.63943e-07
2.68404e-07
2.70177e-07
2.70397e-07
2.74557e-07
2.84197e-07
2.99956e-07
3.23694e-07
3.45169e-07
3.41126e-07
3.09572e-07
3.03391e-07
4.47868e-07
7.33996e-07
4.67963e-07
1.62447e-06
)
;
    }
    walls
    {
        type            calculated;
        value           nonuniform List<scalar> 0();
    }
    frontAndBack
    {
        type            empty;
    }
    procBoundary3to2
    {
        type            processor;
        value           nonuniform List<scalar> 
88
(
8.22869e-07
1.60541e-06
1.8708e-07
7.45158e-07
7.45158e-07
1.92608e-07
3.16262e-07
3.16262e-07
3.73602e-07
3.27021e-07
3.04839e-07
3.04839e-07
5.43295e-07
5.01732e-07
4.6765e-07
4.36127e-07
4.03457e-07
4.03457e-07
7.76275e-07
7.25555e-07
6.75029e-07
6.25848e-07
5.77866e-07
5.77866e-07
1.08168e-06
1.03208e-06
9.82957e-07
9.34654e-07
8.8729e-07
8.40694e-07
7.94385e-07
7.94385e-07
1.51989e-06
1.48033e-06
1.44009e-06
1.39928e-06
1.35798e-06
1.31636e-06
1.27448e-06
1.2324e-06
1.19016e-06
1.14766e-06
1.10484e-06
1.06166e-06
1.06166e-06
1.14537e-06
1.65126e-06
1.70926e-06
1.55251e-06
1.59264e-06
1.63729e-06
1.67362e-06
1.70331e-06
1.72926e-06
1.75228e-06
1.77375e-06
1.79205e-06
1.80728e-06
1.81991e-06
1.82939e-06
1.83623e-06
1.84017e-06
1.84133e-06
1.84008e-06
1.8364e-06
1.83054e-06
1.82268e-06
1.81289e-06
1.80145e-06
1.78854e-06
1.77405e-06
1.7583e-06
1.74141e-06
1.72341e-06
1.70437e-06
1.68431e-06
1.66341e-06
1.64153e-06
1.61872e-06
1.59514e-06
1.57058e-06
1.5452e-06
1.51893e-06
1.49169e-06
1.46358e-06
1.43457e-06
1.40473e-06
1.40473e-06
)
;
    }
    procBoundary3to6
    {
        type            processor;
        value           uniform 5.26169e-09;
    }
    procBoundary3to7
    {
        type            processor;
        value           nonuniform List<scalar> 
16
(
5.52183e-08
1.07369e-06
1.0969e-06
8.68155e-07
7.76604e-07
7.0326e-07
6.16075e-07
5.32876e-07
5.32876e-07
4.31128e-07
3.5831e-07
2.9651e-07
2.47062e-07
2.02054e-07
1.79362e-07
1.23771e-07
)
;
    }
}


// ************************************************************************* //
