/*--------------------------------*- C++ -*----------------------------------*\
| =========                 |                                                 |
| \\      /  F ield         | OpenFOAM: The Open Source CFD Toolbox           |
|  \\    /   O peration     | Version:  2506                                  |
|   \\  /    A nd           | Website:  www.openfoam.com                      |
|    \\/     M anipulation  |                                                 |
\*---------------------------------------------------------------------------*/
FoamFile
{
    version     2.0;
    format      ascii;
    arch        "LSB;label=32;scalar=64";
    class       volVectorField;
    location    "250";
    object      momentError;
}
// * * * * * * * * * * * * * * * * * * * * * * * * * * * * * * * * * * * * * //

dimensions      [0 1 -2 0 0 0 0];

internalField   nonuniform List<vector> 
1340
(
(3.45666e-05 1.14412e-05 6.04415e-16)
(2.74587e-05 6.26788e-05 -1.95235e-15)
(3.77282e-05 1.59876e-05 5.94482e-15)
(4.1633e-05 3.45466e-05 7.90093e-16)
(3.76603e-05 1.14939e-05 1.19934e-15)
(2.54591e-05 6.10308e-05 2.79462e-15)
(3.37458e-05 1.52497e-05 9.76079e-17)
(3.63289e-05 2.0534e-05 6.32916e-16)
(4.31295e-05 1.60896e-05 7.02656e-16)
(4.25718e-05 3.39695e-05 -3.92615e-16)
(3.35433e-05 1.15159e-05 -5.3942e-16)
(2.35745e-05 5.93479e-05 3.057e-15)
(3.57585e-05 1.1532e-05 -1.32755e-15)
(3.41031e-05 1.30021e-05 2.77014e-15)
(3.45162e-05 1.52681e-05 8.47167e-18)
(3.88288e-05 1.53999e-05 1.68438e-18)
(3.82846e-05 2.05175e-05 1.20584e-15)
(3.75705e-05 1.61726e-05 -4.17243e-15)
(3.85877e-05 3.31076e-05 -2.20981e-15)
(3.24479e-05 1.14867e-05 1.56495e-17)
(2.20705e-05 5.76076e-05 -5.43844e-15)
(4.5638e-05 4.82603e-06 2.16919e-16)
(4.47655e-05 6.42686e-06 -2.65875e-16)
(4.16604e-05 7.63851e-06 1.83347e-16)
(3.87497e-05 8.90682e-06 1.12202e-15)
(3.83189e-05 1.018e-05 -4.12299e-16)
(4.14951e-05 1.17876e-05 2.70153e-15)
(3.95064e-05 1.32482e-05 -8.2162e-16)
(3.64831e-05 1.54359e-05 -1.39497e-15)
(3.33366e-05 1.54809e-05 -1.75827e-17)
(3.41236e-05 2.02514e-05 -1.83178e-16)
(3.67118e-05 1.62942e-05 2.71668e-15)
(3.74519e-05 3.23523e-05 1.51763e-15)
(3.16103e-05 1.14675e-05 3.04889e-18)
(2.05105e-05 5.5812e-05 4.39466e-16)
(6.4115e-05 -4.2704e-06 -9.60497e-16)
(5.9167e-05 -2.11879e-06 2.21674e-16)
(5.48067e-05 -6.10934e-08 3.47489e-16)
(5.04545e-05 1.93582e-06 1.11348e-15)
(4.93341e-05 3.79279e-06 1.02674e-15)
(5.26449e-05 5.63032e-06 -3.98767e-16)
(5.3274e-05 7.26528e-06 -6.26627e-16)
(4.94522e-05 8.40983e-06 -5.66977e-16)
(4.62388e-05 9.63313e-06 1.68824e-15)
(4.11976e-05 1.0847e-05 -1.1138e-16)
(3.50846e-05 1.21241e-05 -6.81819e-16)
(3.35231e-05 1.33763e-05 8.58483e-16)
(3.20894e-05 1.53784e-05 -6.31382e-16)
(3.22872e-05 1.5537e-05 1.51745e-17)
(3.33368e-05 2.00334e-05 -1.63096e-16)
(3.61561e-05 1.6411e-05 6.20846e-16)
(3.64634e-05 3.15739e-05 7.21302e-16)
(3.07775e-05 1.1438e-05 2.62422e-17)
(1.89754e-05 5.40078e-05 -2.3111e-16)
(0.000111419 -1.67465e-05 4.63578e-16)
(0.000102959 -1.45541e-05 8.07431e-16)
(9.49754e-05 -1.25034e-05 9.94457e-16)
(8.75535e-05 -1.05226e-05 -2.56851e-16)
(8.07107e-05 -8.61383e-06 7.71969e-16)
(7.32165e-05 -6.74595e-06 -7.49601e-16)
(7.07141e-05 -4.91289e-06 -2.2907e-15)
(7.57559e-05 -2.89938e-06 -1.15964e-15)
(6.97166e-05 -7.90097e-07 6.2761e-16)
(6.43982e-05 1.10239e-06 1.02012e-16)
(5.97794e-05 3.00527e-06 1.45379e-15)
(5.28946e-05 4.83428e-06 -2.24503e-16)
(4.45093e-05 6.45985e-06 -5.2172e-17)
(4.40948e-05 7.94098e-06 8.05152e-17)
(4.11276e-05 9.01255e-06 -5.62035e-17)
(3.87299e-05 1.01846e-05 -5.40175e-16)
(3.5968e-05 1.13134e-05 1.07605e-15)
(3.40331e-05 1.25073e-05 -9.70164e-16)
(3.25144e-05 1.35708e-05 1.23422e-16)
(3.12641e-05 1.53766e-05 1.72747e-15)
(3.1614e-05 1.55861e-05 -3.73678e-17)
(3.27348e-05 1.98089e-05 1.70643e-16)
(3.56069e-05 1.64969e-05 -1.40792e-15)
(3.54563e-05 3.07643e-05 -1.67675e-15)
(2.98718e-05 1.14047e-05 -2.11183e-17)
(1.74978e-05 5.22014e-05 6.3027e-16)
(0.00026088 -3.94577e-05 -2.39522e-16)
(0.00024374 -3.69335e-05 2.68071e-16)
(0.000227432 -3.46148e-05 -1.10503e-16)
(0.000212088 -3.23816e-05 -2.15892e-16)
(0.000197698 -3.01837e-05 7.03386e-16)
(0.000184276 -2.8001e-05 -5.6405e-16)
(0.000171635 -2.58359e-05 9.9201e-17)
(0.0001597 -2.37e-05 6.16253e-16)
(0.000148529 -2.1565e-05 -6.14755e-16)
(0.000138212 -1.95359e-05 -1.85873e-15)
(0.000125161 -1.76704e-05 3.38056e-17)
(0.000121279 -1.58172e-05 -3.5456e-16)
(0.000132969 -1.39467e-05 3.28253e-16)
(0.000122726 -1.18499e-05 3.45203e-16)
(0.000113201 -9.97774e-06 -1.00421e-16)
(0.000104261 -8.24356e-06 -2.23559e-16)
(9.6063e-05 -6.4524e-06 7.12857e-16)
(8.83926e-05 -4.74541e-06 -2.74477e-16)
(7.64874e-05 -3.01736e-06 -4.00664e-16)
(6.24941e-05 -1.19629e-06 3.30423e-16)
(5.76371e-05 4.6946e-07 -1.00487e-15)
(5.33812e-05 2.17785e-06 6.40057e-16)
(4.9746e-05 3.95753e-06 -3.79557e-16)
(4.58944e-05 5.68807e-06 -5.21533e-16)
(4.31439e-05 7.20639e-06 2.87926e-16)
(4.27356e-05 8.6215e-06 2.01647e-16)
(3.99276e-05 9.6214e-06 4.20908e-16)
(3.76557e-05 1.06923e-05 -4.56701e-16)
(3.52228e-05 1.17393e-05 -7.81486e-16)
(3.34138e-05 1.28662e-05 2.6904e-16)
(3.18926e-05 1.3847e-05 4.30461e-17)
(3.06962e-05 1.54546e-05 -1.72289e-16)
(3.10242e-05 1.56533e-05 1.24209e-17)
(3.21665e-05 1.95928e-05 -1.3888e-16)
(3.50263e-05 1.65757e-05 2.83485e-15)
(3.44515e-05 2.99208e-05 -1.33393e-16)
(2.89293e-05 1.13429e-05 2.68276e-16)
(1.60774e-05 5.04021e-05 -9.54676e-17)
(0.00507896 -0.000362136 -7.57574e-17)
(0.00495237 -0.000365108 -2.38738e-17)
(0.00462353 -0.000346439 -2.76949e-18)
(0.00431438 -0.000328341 -2.61077e-17)
(0.00402414 -0.000309999 -1.17448e-17)
(0.00375151 -0.000292002 -8.87712e-18)
(0.0034956 -0.000274969 2.4787e-17)
(0.0032559 -0.000259169 6.71057e-17)
(0.00303133 -0.000244734 -2.8892e-17)
(0.0028212 -0.000231687 -5.40414e-17)
(0.00262491 -0.000219828 2.52902e-17)
(0.00244146 -0.000208885 -5.01976e-17)
(0.00227044 -0.000198586 -6.09091e-17)
(0.00211112 -0.00018872 -5.36009e-17)
(0.00196284 -0.000179122 -1.07989e-16)
(0.00182499 -0.000169751 -1.0238e-17)
(0.00169681 -0.000160584 -8.97271e-17)
(0.0015779 -0.000151717 -5.33246e-17)
(0.00146753 -0.000143197 -1.20393e-16)
(0.00136526 -0.000135123 -1.00008e-17)
(0.0012705 -0.000127547 1.40347e-16)
(0.00118269 -0.000120482 1.41486e-16)
(0.00110112 -0.000113917 -8.45112e-17)
(0.00102539 -0.000107841 5.84881e-17)
(0.000954937 -0.000102204 1.2608e-16)
(0.000889545 -9.68966e-05 1.15173e-17)
(0.000828826 -9.18653e-05 -1.07077e-16)
(0.000772597 -8.70646e-05 -7.40702e-18)
(0.000720331 -8.24903e-05 2.56212e-17)
(0.00067182 -7.80762e-05 -1.18905e-17)
(0.000626712 -7.38291e-05 -9.51522e-17)
(0.000584865 -6.97536e-05 8.1296e-17)
(0.000545832 -6.5874e-05 -2.40851e-16)
(0.000509616 -6.21196e-05 -9.33604e-17)
(0.000475938 -5.85868e-05 1.69961e-16)
(0.000444616 -5.52045e-05 3.12913e-17)
(0.000415404 -5.2016e-05 2.1028e-17)
(0.000388084 -4.89948e-05 -3.25702e-17)
(0.000362222 -4.61774e-05 4.52252e-17)
(0.000338701 -4.3331e-05 2.55526e-16)
(0.000318347 -4.11624e-05 -9.46803e-17)
(0.000283222 -3.92902e-05 2.12878e-18)
(0.000270093 -3.68983e-05 1.81395e-17)
(0.000301228 -3.55416e-05 -1.51001e-16)
(0.00028236 -3.29285e-05 7.08174e-16)
(0.00026451 -3.06399e-05 1.44958e-17)
(0.000247595 -2.84656e-05 -6.57305e-16)
(0.000231639 -2.63435e-05 5.98838e-16)
(0.000216622 -2.42752e-05 3.82758e-16)
(0.000202332 -2.22399e-05 -7.98602e-17)
(0.000188729 -2.02468e-05 9.91464e-18)
(0.000175775 -1.82438e-05 -6.37662e-16)
(0.000163954 -1.61831e-05 -1.00441e-15)
(0.000152785 -1.4344e-05 -6.10248e-17)
(0.000132174 -1.26208e-05 -2.14457e-16)
(0.000107251 -1.04558e-05 3.17319e-16)
(9.91583e-05 -8.91305e-06 -7.39011e-17)
(9.16415e-05 -7.41617e-06 -1.43875e-15)
(8.4638e-05 -5.89254e-06 -4.97725e-17)
(7.81101e-05 -4.40085e-06 4.51674e-16)
(7.22218e-05 -2.78338e-06 2.13433e-16)
(6.54259e-05 -1.14707e-06 5.01481e-16)
(6.0414e-05 3.3175e-07 4.16121e-16)
(5.57745e-05 1.77409e-06 6.61748e-16)
(5.1683e-05 3.28924e-06 1.12163e-15)
(4.82021e-05 4.84342e-06 2.59696e-17)
(4.47659e-05 6.35269e-06 1.34435e-16)
(4.22272e-05 7.81243e-06 -1.80677e-16)
(4.18403e-05 9.2345e-06 -1.64982e-16)
(3.91124e-05 1.01953e-05 8.43261e-16)
(3.6912e-05 1.12283e-05 -6.84189e-16)
(3.46299e-05 1.21978e-05 -4.30566e-17)
(3.2818e-05 1.3243e-05 -5.80881e-16)
(3.12975e-05 1.41548e-05 7.63031e-16)
(3.01685e-05 1.55901e-05 -3.18178e-16)
(3.04852e-05 1.5776e-05 4.24124e-17)
(3.16594e-05 1.93816e-05 8.82924e-17)
(3.44882e-05 1.66269e-05 -1.91322e-15)
(3.34854e-05 2.90551e-05 7.61649e-16)
(2.79711e-05 1.12887e-05 1.80052e-16)
(1.46778e-05 4.86094e-05 6.72641e-18)
(0.00491305 -0.000310361 -1.36621e-17)
(0.00480139 -0.000314238 -9.71094e-18)
(0.00449168 -0.000302508 8.60159e-18)
(0.00420138 -0.00029086 -1.06387e-18)
(0.00392814 -0.00027784 -1.18929e-17)
(0.00367109 -0.000264343 3.78353e-17)
(0.00342939 -0.00025066 1.29591e-17)
(0.00320243 -0.00023723 -1.00768e-17)
(0.0029893 -0.00022444 3.1742e-17)
(0.00278943 -0.000212607 -4.03312e-18)
(0.00260226 -0.000201834 3.44374e-17)
(0.002427 -0.000192047 5.51267e-17)
(0.00226326 -0.000183092 -3.68161e-17)
(0.00211039 -0.00017478 4.63049e-17)
(0.00196783 -0.000166874 -2.80367e-17)
(0.00183509 -0.000159207 -9.06581e-17)
(0.00171152 -0.000151624 -6.60426e-18)
(0.00159677 -0.000144119 2.18473e-17)
(0.00149023 -0.000136667 1.85176e-17)
(0.00139136 -0.00012935 -2.34333e-17)
(0.00129964 -0.000122233 -1.03699e-17)
(0.00121449 -0.000115429 -3.37162e-18)
(0.0011353 -0.000108962 -2.54737e-17)
(0.00106168 -0.000102911 -4.16966e-17)
(0.000993189 -9.72536e-05 1.27005e-17)
(0.000929549 -9.19986e-05 5.60807e-17)
(0.000870365 -8.70506e-05 -4.90525e-17)
(0.000815395 -8.24236e-05 4.72069e-17)
(0.000764174 -7.80447e-05 -2.22673e-17)
(0.000716463 -7.39142e-05 4.61757e-17)
(0.000671939 -6.99075e-05 -1.09815e-16)
(0.000630485 -6.60882e-05 -1.16735e-16)
(0.000591697 -6.23856e-05 -8.72126e-18)
(0.000555531 -5.88289e-05 -1.97967e-16)
(0.000521785 -5.53177e-05 -2.36921e-17)
(0.000490201 -5.19672e-05 8.08006e-17)
(0.000460562 -4.87081e-05 3.97957e-17)
(0.000432695 -4.56159e-05 3.12169e-17)
(0.000406255 -4.26424e-05 6.15537e-17)
(0.000380958 -3.96848e-05 1.89199e-16)
(0.000359829 -3.65751e-05 -1.58068e-17)
(0.000340348 -3.43281e-05 -1.31139e-16)
(0.00029588 -3.22459e-05 1.17852e-16)
(0.000242163 -2.83506e-05 -2.65747e-16)
(0.000226298 -2.65861e-05 -4.51933e-16)
(0.000211606 -2.48574e-05 2.55251e-17)
(0.000197785 -2.31108e-05 1.98785e-16)
(0.000184892 -2.13718e-05 -2.8957e-16)
(0.000172785 -1.96363e-05 2.64972e-16)
(0.000161357 -1.79132e-05 1.16688e-16)
(0.000150528 -1.61956e-05 2.16011e-16)
(0.000140301 -1.44718e-05 4.98047e-16)
(0.00013091 -1.26911e-05 5.41016e-16)
(0.000122376 -1.08955e-05 -2.29288e-17)
(0.000111558 -9.05895e-06 -4.92055e-17)
(0.000103667 -7.63332e-06 1.66482e-16)
(9.6009e-05 -6.34887e-06 1.84789e-16)
(8.87777e-05 -5.02604e-06 1.1268e-15)
(8.20112e-05 -3.71452e-06 1.56686e-17)
(7.57019e-05 -2.41963e-06 -1.05808e-15)
(6.99789e-05 -1.11331e-06 1.09763e-16)
(6.38642e-05 2.78646e-07 -5.13753e-16)
(5.90092e-05 1.64532e-06 -2.63763e-16)
(5.45281e-05 3.03012e-06 9.63422e-19)
(5.05503e-05 4.4225e-06 -9.21014e-16)
(4.71344e-05 5.80278e-06 1.03964e-16)
(4.3873e-05 7.12858e-06 5.7159e-17)
(4.13121e-05 8.40933e-06 -1.02402e-17)
(4.08935e-05 9.81054e-06 1.32873e-16)
(3.81857e-05 1.07134e-05 -4.40831e-16)
(3.60476e-05 1.16848e-05 2.13174e-16)
(3.38973e-05 1.26217e-05 1.0856e-16)
(3.21277e-05 1.36033e-05 4.23228e-17)
(3.06678e-05 1.44496e-05 -1.8273e-15)
(2.96528e-05 1.57307e-05 -5.39495e-16)
(3.00354e-05 1.59019e-05 -1.50494e-17)
(3.12662e-05 1.91836e-05 3.64703e-17)
(3.40124e-05 1.66898e-05 -1.43976e-15)
(3.25495e-05 2.81884e-05 4.97257e-16)
(2.69865e-05 1.12287e-05 -4.05641e-16)
(1.32872e-05 4.68261e-05 1.07418e-17)
(0.00480038 -0.000242504 -1.24653e-17)
(0.00468831 -0.00024352 -5.0972e-18)
(0.00438108 -0.00023437 1.23375e-17)
(0.0040941 -0.000226023 8.17287e-18)
(0.00382402 -0.000217054 -3.78628e-18)
(0.00357015 -0.000207653 -3.65204e-18)
(0.00333142 -0.000197661 1.39102e-17)
(0.00310716 -0.000187365 -1.0009e-17)
(0.00289625 -0.000177089 -3.13074e-18)
(0.00269831 -0.00016716 1.54708e-17)
(0.00251262 -0.000157899 -1.89594e-18)
(0.00233836 -0.000149499 2.28069e-17)
(0.00217528 -0.000142038 2.06305e-17)
(0.00202268 -0.000135417 -1.27807e-17)
(0.00188014 -0.000129496 3.65777e-17)
(0.00174712 -0.000124075 -1.04015e-17)
(0.00162318 -0.000118951 -2.52276e-17)
(0.00150787 -0.000113947 3.11777e-17)
(0.00140074 -0.000108959 1.58637e-17)
(0.00130117 -0.00010393 2.35443e-18)
(0.00120874 -9.88702e-05 -9.73183e-18)
(0.0011229 -9.38287e-05 -6.91992e-17)
(0.00104323 -8.88653e-05 3.67904e-18)
(0.000969353 -8.4053e-05 -3.64661e-17)
(0.0009009 -7.9426e-05 -1.09043e-17)
(0.000837534 -7.50591e-05 1.85061e-17)
(0.000778887 -7.09543e-05 3.51958e-17)
(0.000724597 -6.71336e-05 3.40676e-18)
(0.000674274 -6.35445e-05 8.41364e-18)
(0.000627624 -6.02116e-05 -1.09514e-17)
(0.000584422 -5.70681e-05 2.80828e-17)
(0.000544448 -5.40897e-05 -5.90193e-17)
(0.000507385 -5.11821e-05 -1.40873e-17)
(0.000473087 -4.84008e-05 3.87683e-17)
(0.000441375 -4.56416e-05 -1.15742e-16)
(0.000411932 -4.29499e-05 -6.01102e-17)
(0.000384559 -4.03008e-05 2.07911e-17)
(0.000359113 -3.77285e-05 -1.70375e-17)
(0.000335396 -3.52003e-05 -3.33162e-17)
(0.000312942 -3.26913e-05 -5.14157e-17)
(0.000293589 -3.00679e-05 3.91572e-17)
(0.000276819 -2.77201e-05 -4.01205e-17)
(0.000253364 -2.52589e-05 -1.14846e-16)
(0.000237164 -2.34307e-05 4.64746e-17)
(0.000221629 -2.17811e-05 -2.38373e-16)
(0.000207128 -2.01586e-05 3.24636e-19)
(0.000193489 -1.85789e-05 1.47547e-17)
(0.000180756 -1.70454e-05 1.70974e-16)
(0.00016877 -1.55386e-05 -3.33682e-16)
(0.000157471 -1.40641e-05 1.42492e-19)
(0.000146792 -1.25969e-05 3.58405e-16)
(0.000136758 -1.11275e-05 -1.18657e-16)
(0.000127462 -9.64035e-06 4.96442e-16)
(0.0001191 -8.20127e-06 2.98461e-17)
(0.000109326 -6.7142e-06 -6.52613e-17)
(0.000101491 -5.31342e-06 -6.43549e-17)
(9.39862e-05 -3.96984e-06 -4.19044e-18)
(8.69498e-05 -2.68131e-06 -6.34528e-16)
(8.03218e-05 -1.49373e-06 2.19502e-16)
(7.41474e-05 -3.63583e-07 6.07269e-16)
(6.84903e-05 7.46709e-07 -1.34427e-16)
(6.26756e-05 1.88911e-06 1.00828e-15)
(5.78134e-05 3.07657e-06 1.48817e-17)
(5.33512e-05 4.30419e-06 -1.84867e-16)
(4.94294e-05 5.56436e-06 -2.21905e-16)
(4.60642e-05 6.78004e-06 -2.7084e-16)
(4.29113e-05 7.95029e-06 5.21279e-16)
(4.03804e-05 9.10332e-06 1.23239e-16)
(3.99257e-05 1.03924e-05 2.62964e-16)
(3.72627e-05 1.1192e-05 -4.82081e-16)
(3.51407e-05 1.20846e-05 1.5157e-16)
(3.31132e-05 1.29704e-05 -1.12365e-16)
(3.14327e-05 1.38907e-05 -1.17146e-15)
(3.00666e-05 1.46979e-05 -3.83588e-16)
(2.91974e-05 1.58591e-05 1.39257e-16)
(2.96665e-05 1.60441e-05 9.83471e-18)
(3.09491e-05 1.90032e-05 1.82037e-16)
(3.35649e-05 1.67588e-05 2.68187e-16)
(3.16199e-05 2.73391e-05 -8.99964e-16)
(2.59877e-05 1.12022e-05 -2.03016e-16)
(1.18739e-05 4.50521e-05 -5.13801e-16)
(0.00477263 -0.000172406 6.80153e-18)
(0.00465716 -0.000171868 -2.0209e-18)
(0.00434917 -0.000165056 -8.9929e-18)
(0.00406315 -0.000159873 -2.63402e-18)
(0.00379525 -0.000155027 5.93466e-18)
(0.00354449 -0.000150273 -2.59039e-19)
(0.00330945 -0.000145011 -4.49915e-18)
(0.00308919 -0.000139094 1.85657e-18)
(0.0028824 -0.000132572 -2.01253e-17)
(0.00268848 -0.000125615 -1.31513e-17)
(0.00250667 -0.000118549 -1.01499e-17)
(0.00233599 -0.000111675 -1.96844e-18)
(0.00217607 -0.000105309 2.67734e-17)
(0.00202625 -9.95926e-05 -7.71567e-18)
(0.00188603 -9.45936e-05 -3.09813e-17)
(0.0017549 -9.02697e-05 1.47661e-17)
(0.00163234 -8.65122e-05 -1.00021e-17)
(0.00151795 -8.31436e-05 -4.73478e-17)
(0.00141122 -7.99969e-05 -6.81947e-18)
(0.00131167 -7.69351e-05 -5.65016e-19)
(0.00121892 -7.38596e-05 4.04702e-17)
(0.00113255 -7.07034e-05 5.25637e-17)
(0.00105221 -6.74472e-05 5.01757e-18)
(0.000977628 -6.41307e-05 1.89978e-17)
(0.000908433 -6.0787e-05 -3.24416e-19)
(0.000844286 -5.74928e-05 3.35871e-17)
(0.000784799 -5.42991e-05 -1.49459e-17)
(0.000729658 -5.12831e-05 -3.48684e-18)
(0.000678487 -4.84422e-05 -2.17474e-18)
(0.000631025 -4.5821e-05 7.36441e-18)
(0.000587051 -4.33922e-05 -2.84541e-18)
(0.000546347 -4.11638e-05 2.88727e-17)
(0.000508594 -3.90339e-05 -3.89918e-19)
(0.000473641 -3.702e-05 8.28384e-19)
(0.000441281 -3.50959e-05 2.11999e-17)
(0.000411191 -3.32377e-05 7.08341e-17)
(0.000383205 -3.13872e-05 -4.42077e-17)
(0.000357207 -2.95847e-05 -2.92945e-18)
(0.000333165 -2.77869e-05 4.8949e-17)
(0.000310568 -2.59443e-05 4.6002e-18)
(0.000290416 -2.3985e-05 -8.50449e-17)
(0.000272856 -2.23152e-05 3.6904e-17)
(0.000251681 -2.05131e-05 7.77042e-17)
(0.000234822 -1.88446e-05 2.01283e-16)
(0.000219147 -1.71515e-05 2.11848e-16)
(0.000204553 -1.55391e-05 4.92785e-17)
(0.000190897 -1.40387e-05 -7.54247e-18)
(0.000178148 -1.26368e-05 -1.04049e-16)
(0.000166165 -1.13031e-05 1.19926e-16)
(0.000154871 -1.00456e-05 -5.44622e-17)
(0.000144252 -8.81783e-06 -2.77406e-16)
(0.000134288 -7.60226e-06 -1.76955e-16)
(0.000125011 -6.36097e-06 -7.99374e-17)
(0.000116562 -5.17986e-06 -4.79485e-17)
(0.000107344 -3.96571e-06 4.23993e-17)
(9.94709e-05 -2.76116e-06 -4.06285e-16)
(9.19826e-05 -1.56025e-06 -1.92535e-16)
(8.50178e-05 -4.27987e-07 -2.26042e-16)
(7.85042e-05 6.15818e-07 -5.52921e-16)
(7.24104e-05 1.60885e-06 1.25438e-16)
(6.68216e-05 2.56944e-06 -1.40655e-16)
(6.12474e-05 3.54087e-06 -5.44016e-16)
(5.64207e-05 4.53152e-06 5.71304e-16)
(5.20242e-05 5.57617e-06 7.14816e-16)
(4.81777e-05 6.62599e-06 -1.12876e-16)
(4.48865e-05 7.69402e-06 -3.33124e-16)
(4.18518e-05 8.72088e-06 -7.98461e-18)
(3.93919e-05 9.72436e-06 -6.46654e-17)
(3.89933e-05 1.09525e-05 1.59125e-16)
(3.6352e-05 1.16299e-05 1.27704e-16)
(3.42601e-05 1.2421e-05 1.04736e-16)
(3.23084e-05 1.3214e-05 3.01947e-16)
(3.06836e-05 1.40858e-05 5.75529e-16)
(2.93984e-05 1.48574e-05 2.44349e-16)
(2.86803e-05 1.59124e-05 5.51409e-17)
(2.92552e-05 1.61249e-05 -1.3941e-16)
(3.05996e-05 1.87977e-05 -9.72441e-16)
(3.30554e-05 1.68344e-05 4.26435e-16)
(3.06486e-05 2.64803e-05 4.6024e-16)
(2.49494e-05 1.11795e-05 6.12779e-16)
(1.04687e-05 4.32961e-05 1.88975e-15)
(0.0047642 -0.000103223 4.94495e-19)
(0.00463843 -0.000100634 1.8203e-18)
(0.00432291 -9.51787e-05 6.01997e-18)
(0.00403193 -9.198e-05 1.81415e-18)
(0.00376121 -9.00159e-05 -3.23576e-18)
(0.00350943 -8.9035e-05 -1.43928e-18)
(0.00327477 -8.82397e-05 -2.46643e-19)
(0.00305602 -8.71552e-05 -6.65748e-20)
(0.00285161 -8.53971e-05 3.01923e-20)
(0.00266056 -8.28105e-05 -8.0277e-18)
(0.00248204 -7.9442e-05 9.66788e-18)
(0.00231485 -7.54744e-05 -7.06739e-18)
(0.00215847 -7.11959e-05 -1.723e-17)
(0.0020121 -6.69176e-05 -1.0306e-17)
(0.00187511 -6.28941e-05 -3.77003e-18)
(0.00174694 -5.93167e-05 3.26916e-18)
(0.00162698 -5.62589e-05 1.41398e-18)
(0.00151478 -5.37382e-05 -1.21812e-17)
(0.0014098 -5.16581e-05 -1.80557e-17)
(0.00131165 -4.98958e-05 -4.88532e-18)
(0.00122 -4.83029e-05 3.11065e-18)
(0.00113449 -4.67509e-05 1.95774e-17)
(0.00105479 -4.51261e-05 -2.73044e-17)
(0.000980653 -4.33672e-05 6.02353e-18)
(0.000911703 -4.14568e-05 -2.23338e-17)
(0.00084764 -3.94202e-05 1.2344e-17)
(0.000788129 -3.73046e-05 3.37245e-17)
(0.000732848 -3.51754e-05 -2.597e-17)
(0.000681452 -3.30947e-05 -4.71753e-17)
(0.000633737 -3.11209e-05 -1.33347e-17)
(0.000589525 -2.92856e-05 9.9128e-17)
(0.000548597 -2.76115e-05 6.58809e-17)
(0.000510566 -2.6079e-05 5.49151e-17)
(0.000475309 -2.46843e-05 -4.84699e-19)
(0.000442575 -2.33674e-05 -5.79734e-17)
(0.000412124 -2.21447e-05 -6.42245e-17)
(0.000383747 -2.0962e-05 4.87585e-17)
(0.000357381 -1.98087e-05 -2.02076e-17)
(0.000333128 -1.86311e-05 -6.39914e-17)
(0.000310463 -1.73975e-05 4.97781e-17)
(0.000289676 -1.60312e-05 -1.32307e-17)
(0.000271102 -1.48809e-05 3.02084e-19)
(0.000251017 -1.36528e-05 -3.83324e-17)
(0.00023391 -1.24403e-05 3.25796e-18)
(0.000217947 -1.11884e-05 -1.7265e-16)
(0.000203116 -1.00034e-05 -1.14749e-16)
(0.000189294 -8.86263e-06 -2.423e-17)
(0.00017642 -7.77842e-06 -2.30158e-16)
(0.000164329 -6.73572e-06 -1.81433e-16)
(0.000152973 -5.75229e-06 -5.94167e-17)
(0.000142339 -4.78385e-06 -1.64023e-16)
(0.000132397 -3.81754e-06 1.18381e-16)
(0.0001231 -2.81062e-06 -3.2012e-16)
(0.000114549 -1.84073e-06 -4.52658e-17)
(0.000105656 -8.43328e-07 2.1406e-16)
(9.77824e-05 1.44702e-07 4.19984e-17)
(9.0365e-05 1.11863e-06 -1.03357e-16)
(8.34692e-05 2.04422e-06 9.21139e-16)
(7.70338e-05 2.91539e-06 5.36317e-17)
(7.10343e-05 3.74843e-06 -7.8881e-16)
(6.5507e-05 4.54644e-06 1.9317e-16)
(6.01325e-05 5.34774e-06 -6.62842e-16)
(5.53974e-05 6.17033e-06 -3.64951e-17)
(5.10961e-05 7.022e-06 8.00528e-17)
(4.73339e-05 7.91011e-06 -1.72315e-15)
(4.40644e-05 8.79262e-06 4.2892e-17)
(4.11395e-05 9.67773e-06 7.8757e-17)
(3.87127e-05 1.0549e-05 -2.4699e-16)
(3.83597e-05 1.17098e-05 3.2309e-16)
(3.57349e-05 1.22713e-05 -2.2842e-17)
(3.36346e-05 1.29346e-05 1.06717e-16)
(3.16952e-05 1.36388e-05 -7.12423e-16)
(3.00722e-05 1.44017e-05 -6.83477e-16)
(2.88436e-05 1.51006e-05 6.1347e-17)
(2.82329e-05 1.60423e-05 -5.03259e-17)
(2.8912e-05 1.63028e-05 1.24042e-16)
(3.02908e-05 1.87068e-05 -6.68631e-16)
(3.26444e-05 1.70158e-05 8.53489e-17)
(2.96266e-05 2.56974e-05 -6.87846e-16)
(2.40465e-05 1.12254e-05 -8.1602e-17)
(8.8548e-06 4.16109e-05 1.45442e-15)
(0.00452145 -5.26481e-05 2.71069e-18)
(0.0043763 -4.87747e-05 4.03778e-18)
(0.0040547 -4.31866e-05 -1.013e-18)
(0.00376008 -3.91443e-05 1.98295e-18)
(0.00348796 -3.6352e-05 1.75088e-18)
(0.00323676 -3.49795e-05 -1.57664e-17)
(0.00300474 -3.4615e-05 -9.35718e-18)
(0.00279004 -3.48929e-05 -3.42507e-18)
(0.00259095 -3.53906e-05 -1.05042e-18)
(0.00240658 -3.57354e-05 4.02476e-18)
(0.00223524 -3.56631e-05 -9.09599e-18)
(0.00207603 -3.50385e-05 1.23937e-17)
(0.00192799 -3.38622e-05 2.13279e-18)
(0.00179018 -3.22267e-05 7.62493e-18)
(0.00166179 -3.03249e-05 1.89982e-17)
(0.00154226 -2.83479e-05 1.71335e-17)
(0.00143074 -2.64762e-05 1.49144e-17)
(0.00132673 -2.48468e-05 5.83159e-18)
(0.00122988 -2.35407e-05 2.60539e-17)
(0.00113951 -2.25497e-05 -1.29381e-17)
(0.00105546 -2.18342e-05 -3.83284e-17)
(0.000977205 -2.13063e-05 -8.37953e-18)
(0.000904447 -2.0873e-05 -2.41957e-18)
(0.000836944 -2.04349e-05 -1.1105e-17)
(0.000774281 -1.99175e-05 -8.52608e-18)
(0.000716117 -1.92782e-05 -2.84482e-17)
(0.000662231 -1.85076e-05 -5.4276e-18)
(0.000612358 -1.76163e-05 -1.47304e-18)
(0.000566233 -1.66391e-05 3.04553e-17)
(0.00052358 -1.56221e-05 -9.33669e-18)
(0.000484197 -1.46094e-05 1.04526e-17)
(0.000447919 -1.36411e-05 3.18167e-17)
(0.00041437 -1.27397e-05 2.61667e-17)
(0.000383387 -1.19217e-05 6.96297e-17)
(0.000354772 -1.11813e-05 5.21851e-18)
(0.000328284 -1.05135e-05 -4.58686e-17)
(0.000303826 -9.89949e-06 -6.54196e-17)
(0.000281331 -9.31278e-06 2.12864e-17)
(0.000260749 -8.71539e-06 5.9424e-17)
(0.000241586 -8.06648e-06 -3.57475e-17)
(0.00022403 -7.39327e-06 6.22174e-17)
(0.000207852 -6.80173e-06 -1.0739e-17)
(0.000192038 -6.15267e-06 2.29698e-17)
(0.000177996 -5.5057e-06 -1.29002e-16)
(0.000164995 -4.85398e-06 -3.72265e-17)
(0.000153007 -4.23604e-06 3.37531e-17)
(0.000141924 -3.63407e-06 -4.36767e-17)
(0.000131662 -3.06425e-06 -4.90021e-17)
(0.000122109 -2.51479e-06 7.65129e-17)
(0.000113216 -1.99112e-06 3.90062e-18)
(0.000104984 -1.46673e-06 1.43056e-16)
(9.73366e-05 -9.29469e-07 2.39319e-16)
(9.02403e-05 -3.65317e-07 2.83543e-17)
(8.36375e-05 1.92777e-07 7.12537e-17)
(7.7142e-05 7.84524e-07 1.27247e-17)
(7.12825e-05 1.39052e-06 1.92212e-16)
(6.58128e-05 2.00454e-06 4.33653e-17)
(6.07701e-05 2.60738e-06 -3.20782e-16)
(5.60856e-05 3.18926e-06 3.08886e-16)
(5.1747e-05 3.74612e-06 8.12938e-17)
(4.77486e-05 4.27964e-06 -5.96288e-17)
(4.395e-05 4.81176e-06 4.76835e-16)
(4.05823e-05 5.35715e-06 -1.44203e-16)
(3.75432e-05 5.9271e-06 -1.21615e-16)
(3.48989e-05 6.51384e-06 8.46298e-16)
(3.26123e-05 7.1207e-06 -6.35527e-17)
(3.06068e-05 7.73878e-06 -3.78798e-16)
(2.8957e-05 8.3822e-06 -3.62985e-18)
(2.92501e-05 9.39572e-06 -1.35339e-16)
(2.72745e-05 9.78739e-06 -3.55764e-17)
(2.5718e-05 1.02805e-05 -8.64536e-17)
(2.4315e-05 1.08049e-05 4.53815e-16)
(2.31869e-05 1.14059e-05 4.74302e-16)
(2.23958e-05 1.20082e-05 2.05335e-16)
(2.21771e-05 1.27827e-05 1.70806e-16)
(2.30598e-05 1.32216e-05 -1.19556e-16)
(2.45315e-05 1.50874e-05 7.25808e-16)
(2.685e-05 1.43118e-05 1.00157e-17)
(2.42619e-05 2.09616e-05 8.06948e-16)
(2.01524e-05 9.78603e-06 -4.1031e-16)
(6.56571e-06 3.59769e-05 -2.3447e-15)
(0.00460617 2.51401e-07 9.33666e-18)
(0.004447 2.5801e-06 -3.34742e-18)
(0.00410969 5.4015e-06 -4.57651e-18)
(0.00380102 7.78141e-06 7.099e-19)
(0.00351592 9.72177e-06 5.5141e-18)
(0.0032536 1.07776e-05 7.533e-18)
(0.00301221 1.09462e-05 -4.11827e-18)
(0.00278998 1.01887e-05 4.11203e-19)
(0.00258491 8.69308e-06 9.19912e-18)
(0.00239629 6.73288e-06 5.17969e-18)
(0.00222202 4.60291e-06 -4.45965e-18)
(0.00206107 2.61942e-06 -9.45729e-18)
(0.00191229 1.02569e-06 5.95386e-19)
(0.00177466 -4.20046e-08 5.20132e-20)
(0.00164695 -5.57326e-07 -8.27592e-19)
(0.00152873 -5.74217e-07 1.68899e-18)
(0.00141885 -2.30512e-07 1.15384e-17)
(0.00131681 2.89016e-07 5.92438e-18)
(0.00122203 8.40804e-07 -1.26936e-17)
(0.0011338 1.26532e-06 2.07424e-17)
(0.00105191 1.48828e-06 1.40998e-17)
(0.000975706 1.4818e-06 -5.87422e-18)
(0.000904719 1.26404e-06 1.40815e-18)
(0.000838793 8.95063e-07 1.58208e-17)
(0.000777487 4.704e-07 1.44918e-17)
(0.000720473 5.74876e-08 1.7099e-17)
(0.000667569 -2.69894e-07 -1.36986e-17)
(0.000618423 -4.70241e-07 -3.22803e-19)
(0.000572868 -5.26967e-07 1.85912e-17)
(0.000530662 -4.5099e-07 4.01598e-18)
(0.000491595 -2.72148e-07 -2.61314e-17)
(0.000455425 -2.95165e-08 -1.36991e-17)
(0.000421894 2.37924e-07 -6.88903e-18)
(0.000390759 4.94997e-07 2.14341e-17)
(0.000361964 7.29176e-07 4.2105e-17)
(0.000335297 9.32324e-07 4.28589e-17)
(0.000310695 1.10407e-06 3.05716e-17)
(0.00028802 1.2561e-06 -2.07966e-17)
(0.0002672 1.39041e-06 -6.52939e-17)
(0.000247683 1.53297e-06 2.87757e-17)
(0.000229457 1.69693e-06 7.79813e-18)
(0.000212809 1.81456e-06 2.60406e-17)
(0.000196968 1.9909e-06 -5.19926e-17)
(0.000182621 2.18547e-06 9.48611e-17)
(0.000169318 2.39217e-06 -3.50486e-17)
(0.000157021 2.59624e-06 1.09244e-16)
(0.000145637 2.80844e-06 3.56658e-17)
(0.00013504 3.00141e-06 -7.13321e-17)
(0.000125173 3.18735e-06 5.11713e-17)
(0.000116 3.35907e-06 1.23651e-16)
(0.000107513 3.54515e-06 3.39064e-17)
(9.96129e-05 3.73939e-06 -4.31948e-17)
(9.21903e-05 3.96743e-06 2.29673e-16)
(8.53105e-05 4.19512e-06 4.77686e-17)
(7.86514e-05 4.47973e-06 -1.14468e-16)
(7.25992e-05 4.80383e-06 -2.93855e-16)
(6.69761e-05 5.1693e-06 -2.58155e-17)
(6.17944e-05 5.55131e-06 -1.99558e-17)
(5.69921e-05 5.93925e-06 -2.52953e-16)
(5.2528e-05 6.31077e-06 1.96184e-16)
(4.84207e-05 6.66067e-06 1.18724e-16)
(4.45515e-05 7.00227e-06 2.08532e-16)
(4.10972e-05 7.34394e-06 1.96556e-16)
(3.79883e-05 7.6977e-06 -4.36321e-16)
(3.52752e-05 8.06618e-06 5.38728e-16)
(3.29049e-05 8.46085e-06 3.46305e-16)
(3.08173e-05 8.88602e-06 2.22413e-17)
(2.91432e-05 9.33555e-06 1.15419e-16)
(2.94976e-05 1.02827e-05 -2.77082e-16)
(2.74485e-05 1.0545e-05 -5.95665e-17)
(2.58162e-05 1.0911e-05 -1.97548e-17)
(2.43433e-05 1.13186e-05 4.83314e-16)
(2.31539e-05 1.17863e-05 5.50513e-16)
(2.23479e-05 1.22959e-05 4.85113e-16)
(2.21838e-05 1.29199e-05 2.12843e-16)
(2.3138e-05 1.33909e-05 1.05069e-16)
(2.46195e-05 1.49262e-05 -7.47999e-16)
(2.66054e-05 1.44409e-05 1.65606e-16)
(2.35475e-05 2.01769e-05 7.20373e-16)
(1.88549e-05 9.73293e-06 -1.44896e-16)
(5.57516e-06 3.44495e-05 -5.44577e-16)
(0.00467624 2.90821e-05 -2.25539e-18)
(0.00451417 2.81768e-05 3.93768e-18)
(0.0041711 2.74122e-05 1.72444e-18)
(0.00385498 2.69682e-05 4.81781e-19)
(0.00356174 2.71865e-05 5.43706e-19)
(0.00329118 2.75441e-05 1.37075e-18)
(0.00304116 2.78162e-05 5.03092e-18)
(0.00281095 2.76792e-05 -2.59598e-20)
(0.00259871 2.69898e-05 -7.01899e-18)
(0.00240293 2.56611e-05 -2.25313e-18)
(0.00222295 2.37828e-05 2.4428e-18)
(0.00205694 2.15178e-05 -3.433e-18)
(0.00190401 1.90984e-05 -9.50585e-19)
(0.00176293 1.67725e-05 -7.04616e-18)
(0.00163288 1.47439e-05 2.70748e-18)
(0.00151291 1.317e-05 -1.72738e-18)
(0.00140188 1.2082e-05 -4.23478e-18)
(0.00129949 1.14555e-05 1.75493e-18)
(0.0012047 1.1196e-05 3.98192e-18)
(0.00111691 1.11585e-05 -1.17509e-17)
(0.00103565 1.12014e-05 -9.80947e-18)
(0.000960361 1.1213e-05 -2.54725e-18)
(0.000890386 1.10964e-05 -1.6281e-18)
(0.000825556 1.0822e-05 -1.16209e-17)
(0.000765365 1.04111e-05 -1.06905e-17)
(0.000709479 9.88843e-06 -9.57165e-18)
(0.000657676 9.32786e-06 3.00883e-17)
(0.000609579 8.78852e-06 -5.7293e-19)
(0.000564962 8.31644e-06 -2.82732e-17)
(0.000523586 7.94235e-06 3.97204e-18)
(0.000485233 7.67711e-06 1.08137e-17)
(0.000449664 7.50851e-06 2.50145e-18)
(0.000416638 7.42113e-06 -7.96611e-18)
(0.000385991 7.38961e-06 -3.74159e-17)
(0.000357685 7.39416e-06 -7.49103e-18)
(0.000331486 7.42054e-06 1.9386e-17)
(0.00030735 7.45189e-06 2.01317e-17)
(0.00028501 7.47289e-06 5.49471e-18)
(0.00026436 7.47069e-06 -1.71837e-17)
(0.000244999 7.4576e-06 -4.93627e-17)
(0.00022694 7.45563e-06 5.45823e-18)
(0.000210434 7.4356e-06 -3.6649e-17)
(0.000195001 7.43914e-06 2.83146e-17)
(0.000180836 7.45181e-06 -2.08899e-17)
(0.000167716 7.47476e-06 6.71774e-17)
(0.000155567 7.49492e-06 -9.34166e-17)
(0.000144291 7.51584e-06 3.53386e-17)
(0.000133798 7.52364e-06 4.73078e-17)
(0.000124033 7.52512e-06 -9.73561e-17)
(0.000114978 7.51313e-06 -8.84818e-17)
(0.000106585 7.50723e-06 -5.54395e-17)
(9.87523e-05 7.49859e-06 -6.31136e-17)
(9.13629e-05 7.50884e-06 -2.78074e-18)
(8.44922e-05 7.52333e-06 -1.44496e-16)
(7.79719e-05 7.58761e-06 8.82658e-17)
(7.19895e-05 7.69337e-06 1.53861e-16)
(6.64404e-05 7.84745e-06 -1.39057e-16)
(6.13124e-05 8.03386e-06 9.87981e-17)
(5.65535e-05 8.24095e-06 2.69932e-16)
(5.21319e-05 8.44946e-06 4.75167e-17)
(4.80559e-05 8.64693e-06 1.05093e-16)
(4.42629e-05 8.83554e-06 -1.83246e-16)
(4.08493e-05 9.01513e-06 -1.65772e-16)
(3.77871e-05 9.1986e-06 3.55326e-17)
(3.50924e-05 9.38824e-06 -5.61178e-16)
(3.27209e-05 9.61145e-06 -3.2124e-16)
(3.06137e-05 9.8592e-06 3.74801e-16)
(2.89353e-05 1.01529e-05 -1.84274e-16)
(2.93199e-05 1.10259e-05 -1.90698e-16)
(2.72756e-05 1.11717e-05 4.68623e-17)
(2.5621e-05 1.14402e-05 -1.76057e-16)
(2.41341e-05 1.17329e-05 -1.09403e-16)