/*--------------------------------*- C++ -*----------------------------------*\
| =========                 |                                                 |
| \\      /  F ield         | OpenFOAM: The Open Source CFD Toolbox           |
|  \\    /   O peration     | Version:  2506                                  |
|   \\  /    A nd           | Website:  www.openfoam.com                      |
|    \\/     M anipulation  |                                                 |
\*---------------------------------------------------------------------------*/
FoamFile
{
    version     2.0;
    format      ascii;
    arch        "LSB;label=32;scalar=64";
    class       volScalarField;
    location    "250";
    object      nuTilda;
}
// * * * * * * * * * * * * * * * * * * * * * * * * * * * * * * * * * * * * * //

dimensions      [0 2 -1 0 0 0 0];

internalField   nonuniform List<scalar> 
1340
(
4.01486e-05
4.00978e-05
4.01024e-05
4.01045e-05
4.01522e-05
4.00983e-05
4.01145e-05
4.01174e-05
4.01034e-05
4.0108e-05
4.01559e-05
4.00987e-05
4.00768e-05
4.00854e-05
4.01006e-05
4.01169e-05
4.01187e-05
4.01044e-05
4.01118e-05
4.01598e-05
4.00989e-05
4.00579e-05
4.00648e-05
4.00689e-05
4.00716e-05
4.00741e-05
4.00782e-05
4.00875e-05
4.01034e-05
4.01194e-05
4.012e-05
4.01056e-05
4.01161e-05
4.01639e-05
4.00988e-05
4.0018e-05
4.0025e-05
4.00332e-05
4.0042e-05
4.00509e-05
4.00595e-05
4.00663e-05
4.00702e-05
4.00728e-05
4.00753e-05
4.00798e-05
4.00898e-05
4.01062e-05
4.0122e-05
4.01213e-05
4.01068e-05
4.01207e-05
4.01681e-05
4.00985e-05
4.00216e-05
4.00166e-05
4.00123e-05
4.00092e-05
4.00081e-05
4.00096e-05
4.00134e-05
4.0019e-05
4.00262e-05
4.00346e-05
4.00436e-05
4.00526e-05
4.00612e-05
4.00679e-05
4.00716e-05
4.00741e-05
4.00766e-05
4.00815e-05
4.00922e-05
4.01093e-05
4.01246e-05
4.01226e-05
4.01081e-05
4.01258e-05
4.01724e-05
4.00979e-05
4.00545e-05
4.00526e-05
4.00506e-05
4.00488e-05
4.00469e-05
4.00451e-05
4.00432e-05
4.0041e-05
4.00383e-05
4.00349e-05
4.00308e-05
4.00261e-05
4.0021e-05
4.00161e-05
4.00118e-05
4.00089e-05
4.00082e-05
4.00101e-05
4.00142e-05
4.00201e-05
4.00276e-05
4.00362e-05
4.00453e-05
4.00543e-05
4.0063e-05
4.00695e-05
4.0073e-05
4.00754e-05
4.0078e-05
4.00834e-05
4.00949e-05
4.01126e-05
4.01273e-05
4.01238e-05
4.01096e-05
4.01314e-05
4.01768e-05
4.0097e-05
3.98811e-05
4.28721e-05
4.14853e-05
3.9984e-05
3.98467e-05
4.00915e-05
4.01448e-05
4.01419e-05
4.0132e-05
4.01201e-05
4.01141e-05
4.01094e-05
4.01043e-05
4.00999e-05
4.00961e-05
4.00926e-05
4.00895e-05
4.00868e-05
4.00845e-05
4.00825e-05
4.00808e-05
4.00794e-05
4.00782e-05
4.00772e-05
4.00764e-05
4.00757e-05
4.00751e-05
4.00746e-05
4.00741e-05
4.00736e-05
4.0073e-05
4.00723e-05
4.00715e-05
4.00707e-05
4.00697e-05
4.00685e-05
4.00672e-05
4.00658e-05
4.00642e-05
4.00625e-05
4.00607e-05
4.00587e-05
4.00567e-05
4.00548e-05
4.00528e-05
4.00509e-05
4.0049e-05
4.00472e-05
4.00454e-05
4.00434e-05
4.00411e-05
4.00383e-05
4.00347e-05
4.00305e-05
4.00256e-05
4.00204e-05
4.00155e-05
4.00113e-05
4.00087e-05
4.00083e-05
4.00106e-05
4.00151e-05
4.00213e-05
4.00291e-05
4.00379e-05
4.00471e-05
4.00562e-05
4.00648e-05
4.00712e-05
4.00745e-05
4.00767e-05
4.00795e-05
4.00855e-05
4.00979e-05
4.01161e-05
4.013e-05
4.01251e-05
4.01113e-05
4.01376e-05
4.01813e-05
4.00957e-05
4.32758e-05
4.07673e-05
3.9988e-05
3.98876e-05
4.01008e-05
4.01558e-05
4.01384e-05
4.01275e-05
4.01183e-05
4.01123e-05
4.01081e-05
4.01037e-05
4.00996e-05
4.00961e-05
4.00929e-05
4.009e-05
4.00875e-05
4.00853e-05
4.00834e-05
4.00818e-05
4.00804e-05
4.00792e-05
4.00782e-05
4.00774e-05
4.00768e-05
4.00762e-05
4.00757e-05
4.00752e-05
4.00747e-05
4.00742e-05
4.00736e-05
4.00729e-05
4.00721e-05
4.00712e-05
4.00702e-05
4.0069e-05
4.00676e-05
4.00661e-05
4.00645e-05
4.00627e-05
4.00609e-05
4.00589e-05
4.0057e-05
4.0055e-05
4.0053e-05
4.00512e-05
4.00493e-05
4.00476e-05
4.00457e-05
4.00437e-05
4.00412e-05
4.00382e-05
4.00345e-05
4.003e-05
4.0025e-05
4.00197e-05
4.00148e-05
4.00108e-05
4.00085e-05
4.00085e-05
4.00113e-05
4.00161e-05
4.00226e-05
4.00307e-05
4.00397e-05
4.0049e-05
4.00581e-05
4.00667e-05
4.00729e-05
4.0076e-05
4.00782e-05
4.00811e-05
4.00877e-05
4.0101e-05
4.01198e-05
4.01328e-05
4.01263e-05
4.01131e-05
4.01443e-05
4.01858e-05
4.00939e-05
4.04133e-05
3.99178e-05
3.99796e-05
4.011e-05
4.01573e-05
4.01342e-05
4.01209e-05
4.01147e-05
4.01096e-05
4.01058e-05
4.01022e-05
4.00986e-05
4.00954e-05
4.00925e-05
4.009e-05
4.00877e-05
4.00857e-05
4.0084e-05
4.00825e-05
4.00812e-05
4.00801e-05
4.00792e-05
4.00784e-05
4.00778e-05
4.00772e-05
4.00768e-05
4.00763e-05
4.00759e-05
4.00754e-05
4.00748e-05
4.00742e-05
4.00735e-05
4.00727e-05
4.00717e-05
4.00706e-05
4.00694e-05
4.0068e-05
4.00664e-05
4.00648e-05
4.0063e-05
4.00611e-05
4.00591e-05
4.00572e-05
4.00552e-05
4.00533e-05
4.00514e-05
4.00496e-05
4.00479e-05
4.0046e-05
4.00438e-05
4.00413e-05
4.00381e-05
4.00341e-05
4.00295e-05
4.00243e-05
4.0019e-05
4.00142e-05
4.00104e-05
4.00084e-05
4.00089e-05
4.00121e-05
4.00172e-05
4.0024e-05
4.00324e-05
4.00416e-05
4.0051e-05
4.00602e-05
4.00688e-05
4.00747e-05
4.00776e-05
4.00797e-05
4.00829e-05
4.00902e-05
4.01045e-05
4.01237e-05
4.01356e-05
4.01274e-05
4.01152e-05
4.01516e-05
4.01902e-05
4.00917e-05
3.9865e-05
4.00527e-05
4.01232e-05
4.01469e-05
4.01277e-05
4.01138e-05
4.01097e-05
4.01061e-05
4.01029e-05
4.00999e-05
4.00969e-05
4.00941e-05
4.00917e-05
4.00895e-05
4.00875e-05
4.00858e-05
4.00842e-05
4.00829e-05
4.00818e-05
4.00808e-05
4.008e-05
4.00793e-05
4.00787e-05
4.00782e-05
4.00778e-05
4.00774e-05
4.0077e-05
4.00766e-05
4.00761e-05
4.00755e-05
4.00749e-05
4.00741e-05
4.00732e-05
4.00722e-05
4.00711e-05
4.00697e-05
4.00683e-05
4.00667e-05
4.0065e-05
4.00632e-05
4.00613e-05
4.00593e-05
4.00573e-05
4.00554e-05
4.00535e-05
4.00517e-05
4.005e-05
4.00482e-05
4.00462e-05
4.0044e-05
4.00413e-05
4.00379e-05
4.00337e-05
4.00288e-05
4.00235e-05
4.00182e-05
4.00135e-05
4.00099e-05
4.00083e-05
4.00093e-05
4.00129e-05
4.00184e-05
4.00257e-05
4.00343e-05
4.00436e-05
4.00532e-05
4.00624e-05
4.00709e-05
4.00765e-05
4.00792e-05
4.00812e-05
4.00848e-05
4.00929e-05
4.01083e-05
4.01278e-05
4.01384e-05
4.01285e-05
4.01176e-05
4.01595e-05
4.01944e-05
4.0089e-05
4.00864e-05
4.0131e-05
4.01303e-05
4.01179e-05
4.01069e-05
4.0104e-05
4.01018e-05
4.00993e-05
4.00968e-05
4.00944e-05
4.00922e-05
4.00902e-05
4.00885e-05
4.00868e-05
4.00854e-05
4.00841e-05
4.0083e-05
4.0082e-05
4.00812e-05
4.00805e-05
4.00799e-05
4.00795e-05
4.0079e-05
4.00787e-05
4.00784e-05
4.0078e-05
4.00776e-05
4.00772e-05
4.00767e-05
4.00761e-05
4.00754e-05
4.00746e-05
4.00737e-05
4.00726e-05
4.00714e-05
4.007e-05
4.00685e-05
4.00669e-05
4.00652e-05
4.00633e-05
4.00614e-05
4.00595e-05
4.00575e-05
4.00556e-05
4.00538e-05
4.0052e-05
4.00503e-05
4.00485e-05
4.00465e-05
4.00441e-05
4.00412e-05
4.00375e-05
4.00331e-05
4.00281e-05
4.00227e-05
4.00173e-05
4.00127e-05
4.00095e-05
4.00083e-05
4.00099e-05
4.00139e-05
4.00198e-05
4.00274e-05
4.00363e-05
4.00458e-05
4.00554e-05
4.00647e-05
4.00731e-05
4.00784e-05
4.00808e-05
4.00829e-05
4.00869e-05
4.0096e-05
4.01125e-05
4.01321e-05
4.01412e-05
4.01295e-05
4.01203e-05
4.01682e-05
4.01984e-05
4.00855e-05
4.01184e-05
4.01092e-05
4.01037e-05
4.00988e-05
4.00968e-05
4.00955e-05
4.00938e-05
4.00921e-05
4.00905e-05
4.0089e-05
4.00877e-05
4.00864e-05
4.00853e-05
4.00843e-05
4.00834e-05
4.00826e-05
4.0082e-05
4.00814e-05
4.00809e-05
4.00805e-05
4.00802e-05
4.00799e-05
4.00796e-05
4.00794e-05
4.00791e-05
4.00788e-05
4.00784e-05
4.00779e-05
4.00774e-05
4.00768e-05
4.0076e-05
4.00752e-05
4.00742e-05
4.0073e-05
4.00717e-05
4.00703e-05
4.00687e-05
4.00671e-05
4.00653e-05
4.00634e-05
4.00615e-05
4.00596e-05
4.00577e-05
4.00559e-05
4.00541e-05
4.00524e-05
4.00506e-05
4.00488e-05
4.00467e-05
4.00441e-05
4.00409e-05
4.0037e-05
4.00323e-05
4.0027e-05
4.00215e-05
4.00162e-05
4.00119e-05
4.0009e-05
4.00085e-05
4.00108e-05
4.00153e-05
4.00217e-05
4.00297e-05
4.00389e-05
4.00486e-05
4.00584e-05
4.00676e-05
4.00757e-05
4.00807e-05
4.00828e-05
4.0085e-05
4.00896e-05
4.00999e-05
4.01176e-05
4.01372e-05
4.01442e-05
4.01305e-05
4.01239e-05
4.01782e-05
4.02025e-05
4.00816e-05
4.00924e-05
4.00906e-05
4.00895e-05
4.00888e-05
4.00883e-05
4.00875e-05
4.00867e-05
4.00859e-05
4.00852e-05
4.00845e-05
4.00839e-05
4.00834e-05
4.00829e-05
4.00825e-05
4.00821e-05
4.00818e-05
4.00815e-05
4.00813e-05
4.00811e-05
4.0081e-05
4.00809e-05
4.00807e-05
4.00805e-05
4.00803e-05
4.00801e-05
4.00797e-05
4.00793e-05
4.00788e-05
4.00782e-05
4.00775e-05
4.00767e-05
4.00757e-05
4.00746e-05
4.00734e-05
4.0072e-05
4.00705e-05
4.00689e-05
4.00672e-05
4.00654e-05
4.00635e-05
4.00617e-05
4.00598e-05
4.0058e-05
4.00562e-05
4.00545e-05
4.00528e-05
4.00511e-05
4.00491e-05
4.00468e-05
4.00439e-05
4.00404e-05
4.0036e-05
4.0031e-05
4.00255e-05
4.00199e-05
4.00149e-05
4.00109e-05
4.00086e-05
4.0009e-05
4.00121e-05
4.00173e-05
4.00242e-05
4.00327e-05
4.00423e-05
4.00522e-05
4.0062e-05
4.00712e-05
4.00789e-05
4.00834e-05
4.00852e-05
4.00876e-05
4.00931e-05
4.01049e-05
4.01239e-05
4.0143e-05
4.01474e-05
4.01316e-05
4.01292e-05
4.01899e-05
4.02061e-05
4.00765e-05
4.00821e-05
4.00825e-05
4.00825e-05
4.00825e-05
4.00824e-05
4.00823e-05
4.00821e-05
4.0082e-05
4.00819e-05
4.00819e-05
4.00818e-05
4.00818e-05
4.00818e-05
4.00817e-05
4.00818e-05
4.00818e-05
4.00818e-05
4.00818e-05
4.00818e-05
4.00818e-05
4.00818e-05
4.00817e-05
4.00815e-05
4.00813e-05
4.0081e-05
4.00807e-05
4.00802e-05
4.00796e-05
4.0079e-05
4.00782e-05
4.00772e-05
4.00762e-05
4.0075e-05
4.00737e-05
4.00722e-05
4.00707e-05
4.0069e-05
4.00673e-05
4.00655e-05
4.00636e-05
4.00618e-05
4.006e-05
4.00583e-05
4.00566e-05
4.0055e-05
4.00533e-05
4.00515e-05
4.00493e-05
4.00467e-05
4.00435e-05
4.00395e-05
4.00348e-05
4.00294e-05
4.00238e-05
4.00183e-05
4.00134e-05
4.00099e-05
4.00085e-05
4.00098e-05
4.00137e-05
4.00196e-05
4.00271e-05
4.00361e-05
4.00459e-05
4.0056e-05
4.00658e-05
4.00749e-05
4.00822e-05
4.00861e-05
4.00877e-05
4.00905e-05
4.0097e-05
4.01106e-05
4.01308e-05
4.0149e-05
4.01503e-05
4.01328e-05
4.01364e-05
4.02023e-05
4.0209e-05
4.00705e-05
4.00775e-05
4.00769e-05
4.00779e-05
4.00782e-05
4.00786e-05
4.0079e-05
4.00794e-05
4.00798e-05
4.00801e-05
4.00804e-05
4.00807e-05
4.0081e-05
4.00813e-05
4.00816e-05
4.00819e-05
4.00821e-05
4.00823e-05
4.00825e-05
4.00826e-05
4.00827e-05
4.00828e-05
4.00827e-05
4.00826e-05
4.00825e-05
4.00822e-05
4.00819e-05
4.00815e-05
4.00809e-05
4.00803e-05
4.00795e-05
4.00786e-05
4.00776e-05
4.00764e-05
4.00752e-05
4.00738e-05
4.00723e-05
4.00707e-05
4.0069e-05
4.00673e-05
4.00655e-05
4.00637e-05
4.0062e-05
4.00603e-05
4.00587e-05
4.00571e-05
4.00554e-05
4.00537e-05
4.00517e-05
4.00493e-05
4.00464e-05
4.00427e-05
4.00383e-05
4.00332e-05
4.00276e-05
4.00218e-05
4.00165e-05
4.0012e-05
4.00092e-05
4.00087e-05
4.00111e-05
4.00158e-05
4.00223e-05
4.00304e-05
4.00398e-05
4.00499e-05
4.00601e-05
4.00699e-05
4.00788e-05
4.00855e-05
4.00888e-05
4.00904e-05
4.00937e-05
4.01016e-05
4.0117e-05
4.01382e-05
4.01551e-05
4.01528e-05
4.01343e-05
4.01455e-05
4.02153e-05
4.02107e-05
4.00635e-05
4.00752e-05
4.0075e-05
4.00757e-05
4.00763e-05
4.00769e-05
4.00776e-05
4.00783e-05
4.0079e-05
4.00796e-05
4.00801e-05
4.00807e-05
4.00812e-05
4.00817e-05
4.00821e-05
4.00825e-05
4.00828e-05
4.00831e-05
4.00834e-05
4.00835e-05
4.00836e-05
4.00837e-05
4.00836e-05
4.00835e-05
4.00833e-05
4.00829e-05
4.00825e-05
4.0082e-05
4.00814e-05
4.00806e-05
4.00798e-05
4.00788e-05
4.00777e-05
4.00764e-05
4.00751e-05
4.00737e-05
4.00721e-05
4.00705e-05
4.00689e-05
4.00672e-05
4.00655e-05
4.00638e-05
4.00622e-05
4.00606e-05
4.0059e-05
4.00575e-05
4.00558e-05
4.00539e-05
4.00517e-05
4.0049e-05
4.00456e-05
4.00415e-05
4.00366e-05
4.00312e-05
4.00254e-05
4.00197e-05
4.00146e-05
4.00108e-05
4.00088e-05
4.00094e-05
4.00128e-05
4.00182e-05
4.00254e-05
4.00341e-05
4.00439e-05
4.00542e-05
4.00645e-05
4.00743e-05
4.00828e-05
4.00889e-05
4.00916e-05
4.00932e-05
4.00973e-05
4.01069e-05
4.01242e-05
4.01461e-05
4.01609e-05
4.01548e-05
4.01362e-05
4.01567e-05
4.02287e-05
4.0211e-05
4.00556e-05
4.00746e-05
4.00742e-05
4.00753e-05
4.00759e-05
4.00767e-05
4.00776e-05
4.00784e-05
4.00792e-05
4.00799e-05
4.00806e-05
4.00813e-05
4.00819e-05
4.00824e-05
4.00829e-05
4.00833e-05
4.00837e-05
4.0084e-05
4.00842e-05
4.00843e-05
4.00844e-05
4.00844e-05
4.00843e-05
4.00841e-05
4.00838e-05
4.00834e-05
4.00829e-05
4.00823e-05
4.00816e-05
4.00807e-05
4.00798e-05
4.00787e-05
4.00775e-05
4.00763e-05
4.00749e-05
4.00734e-05
4.00719e-05
4.00703e-05
4.00687e-05
4.00671e-05
4.00655e-05
4.0064e-05
4.00624e-05
4.0061e-05
4.00594e-05
4.00578e-05
4.00561e-05
4.0054e-05
4.00515e-05
4.00483e-05
4.00444e-05
4.00398e-05
4.00346e-05
4.00288e-05
4.0023e-05
4.00175e-05
4.00129e-05
4.00097e-05
4.00088e-05
4.00107e-05
4.0015e-05
4.00212e-05
4.0029e-05
4.00383e-05
4.00485e-05
4.00589e-05
4.00692e-05
4.00788e-05
4.00869e-05
4.00922e-05
4.00945e-05
4.00964e-05
4.01016e-05
4.01131e-05
4.01323e-05
4.01545e-05
4.01665e-05
4.01564e-05
4.01389e-05
4.01703e-05
4.02423e-05
4.02096e-05
4.00463e-05
4.00749e-05
4.00745e-05
4.00757e-05
4.00764e-05
4.00773e-05
4.00781e-05
4.0079e-05
4.00799e-05
4.00807e-05
4.00814e-05
4.0082e-05
4.00826e-05
4.00832e-05
4.00836e-05
4.0084e-05
4.00844e-05
4.00846e-05
4.00848e-05
4.00849e-05
4.00849e-05
4.00848e-05
4.00846e-05
4.00843e-05
4.00839e-05
4.00834e-05
4.00829e-05
4.00822e-05
4.00814e-05
4.00805e-05
4.00795e-05
4.00783e-05
4.00771e-05
4.00758e-05
4.00745e-05
4.0073e-05
4.00715e-05
4.007e-05
4.00685e-05
4.00671e-05
4.00656e-05
4.00642e-05
4.00627e-05
4.00613e-05
4.00598e-05
4.00581e-05
4.00561e-05
4.00537e-05
4.00507e-05
4.00471e-05
4.00427e-05
4.00376e-05
4.0032e-05
4.00261e-05
4.00204e-05
4.00152e-05
4.00112e-05
4.0009e-05
4.00094e-05
4.00124e-05
4.00176e-05
4.00246e-05
4.00331e-05
4.00429e-05
4.00533e-05
4.00639e-05
4.00742e-05
4.00836e-05
4.00911e-05
4.00956e-05
4.00974e-05
4.00999e-05
4.01065e-05
4.01202e-05
4.01412e-05
4.01631e-05
4.01717e-05
4.01575e-05
4.01426e-05
4.01862e-05
4.02556e-05
4.02059e-05
4.00376e-05
4.00756e-05
4.00752e-05
4.00764e-05
4.00772e-05
4.0078e-05
4.00789e-05
4.00798e-05
4.00807e-05
4.00814e-05
4.00821e-05
4.00827e-05
4.00833e-05
4.00838e-05
4.00842e-05
4.00845e-05
4.00848e-05
4.0085e-05
4.00851e-05
4.00851e-05
4.0085e-05
4.00848e-05
4.00846e-05
4.00842e-05
4.00838e-05
4.00832e-05
4.00826e-05
4.00818e-05
4.0081e-05
4.008e-05
4.0079e-05
4.00778e-05
4.00766e-05
4.00754e-05
4.0074e-05
4.00727e-05
4.00713e-05
4.00699e-05
4.00685e-05
4.00671e-05
4.00658e-05
4.00644e-05
4.00631e-05
4.00616e-05
4.00599e-05
4.0058e-05
4.00557e-05
4.00529e-05
4.00494e-05
4.00452e-05
4.00403e-05
4.00348e-05
4.0029e-05
4.00232e-05
4.00177e-05
4.00131e-05
4.001e-05
4.0009e-05
4.00108e-05
4.0015e-05
4.00211e-05
4.00288e-05
4.0038e-05
4.00482e-05
4.00589e-05
4.00695e-05
4.00797e-05
4.00887e-05
4.00954e-05
4.00991e-05
4.01009e-05
4.01042e-05
4.01128e-05
4.01289e-05
4.01515e-05
4.01721e-05
4.01762e-05
4.01583e-05
4.01482e-05
4.02052e-05
4.02682e-05
4.02007e-05
4.00322e-05
4.00765e-05
4.00761e-05
4.00772e-05
4.00779e-05
4.00786e-05
4.00794e-05
4.00802e-05
4.0081e-05
4.00818e-05
4.00824e-05
4.0083e-05
4.00835e-05
4.00839e-05
4.00843e-05
4.00845e-05
4.00847e-05
4.00848e-05
4.00849e-05
4.00848e-05
4.00847e-05
4.00844e-05
4.00841e-05
4.00837e-05
4.00832e-05
4.00825e-05
4.00818e-05
4.0081e-05
4.00802e-05
4.00792e-05
4.00781e-05
4.0077e-05
4.00758e-05
4.00746e-05
4.00734e-05
4.00721e-05
4.00709e-05
4.00696e-05
4.00684e-05
4.00672e-05
4.00659e-05
4.00647e-05
4.00633e-05
4.00618e-05
4.006e-05
4.00578e-05
4.00551e-05
4.00518e-05
4.00478e-05
4.00431e-05
4.00378e-05
4.0032e-05
4.0026e-05
4.00202e-05
4.00151e-05
4.00111e-05
4.0009e-05
4.00094e-05
4.00124e-05
4.00174e-05
4.00243e-05
4.00327e-05
4.00424e-05
4.0053e-05
4.00638e-05
4.00745e-05
4.00846e-05
4.00931e-05
4.0099e-05
4.0102e-05
4.01036e-05
4.01079e-05
4.01183e-05
4.01367e-05
4.01607e-05
4.018e-05
4.01797e-05
4.01581e-05
4.0153e-05
4.02228e-05
4.02793e-05
4.01928e-05
4.00261e-05
4.00763e-05
4.0076e-05
4.0077e-05
4.00776e-05
4.00784e-05
4.00792e-05
4.008e-05
4.00807e-05
4.00814e-05
4.0082e-05
4.00825e-05
4.00829e-05
4.00832e-05
4.00835e-05
4.00837e-05
4.00838e-05
4.00839e-05
4.00838e-05
4.00837e-05
4.00835e-05
4.00832e-05
4.00828e-05
4.00824e-05
4.00818e-05
4.00812e-05
4.00805e-05
4.00798e-05
4.0079e-05
4.00781e-05
4.00771e-05
4.00762e-05
4.00752e-05
4.00742e-05
4.00731e-05
4.00721e-05
4.0071e-05
4.00699e-05
4.00688e-05
4.00676e-05
4.00663e-05
4.00649e-05
4.00632e-05
4.00611e-05
4.00587e-05
4.00557e-05
4.00521e-05
4.00479e-05
4.00431e-05
4.00377e-05
4.0032e-05
4.00262e-05
4.00207e-05
4.00158e-05
4.0012e-05
4.00099e-05
4.001e-05
4.00126e-05
4.00174e-05
4.0024e-05
4.00322e-05
4.00417e-05
4.00522e-05
4.00631e-05
4.0074e-05
4.00845e-05
4.00939e-05
4.01011e-05
4.01055e-05
4.01079e-05
4.01109e-05
4.01185e-05
4.01332e-05
4.01553e-05
4.01791e-05
4.01923e-05
4.01826e-05
4.01604e-05
4.01759e-05
4.02595e-05
4.02917e-05
4.01825e-05
4.00302e-05
)
;

boundaryField
{
    inlet
    {
        type            freestream;
        freestreamValue uniform 4e-05;
        value           uniform 4e-05;
    }
    outlet
    {
        type            freestream;
        freestreamValue uniform 4e-05;
        value           nonuniform List<scalar> 
82
(
4.00763e-05
4.0077e-05
4.0076e-05
4.00776e-05
4.00784e-05
4.00792e-05
4.008e-05
4.00807e-05
4.00814e-05
4.0082e-05
4.00825e-05
4.00829e-05
4.00832e-05
4.00835e-05
4.00837e-05
4.00838e-05
4.00839e-05
4.00838e-05
4.00837e-05
4.00835e-05
4.00832e-05
4.00828e-05
4.00824e-05
4.00818e-05
4.00812e-05
4.00805e-05
4.00798e-05
4.0079e-05
4.00781e-05
4.00771e-05
4.00762e-05
4.00752e-05
4.00742e-05
4.00731e-05
4.00721e-05
4.0071e-05
4.00699e-05
4.00688e-05
4.00676e-05
4.00663e-05
4.00649e-05
4.00632e-05
4.00611e-05
4.00587e-05
4.00557e-05
4.00521e-05
4.00479e-05
4.00431e-05
4.00377e-05
4.0032e-05
4.00262e-05
4.00207e-05
4.00158e-05
4.0012e-05
4.00099e-05
4.001e-05
4.00126e-05
4.00174e-05
4.0024e-05
4.00322e-05
4.00417e-05
4.00522e-05
4.00631e-05
4.0074e-05
4.00845e-05
4.00939e-05
4.01011e-05
4.01055e-05
4.01079e-05
4.01109e-05
4.01185e-05
4.01332e-05
4.01553e-05
4.01791e-05
4.01923e-05
4.01826e-05
4.01604e-05
4.01759e-05
4.02595e-05
4.02917e-05
4.01825e-05
4.00302e-05
)
;
    }
    walls
    {
        type            fixedValue;
        value           nonuniform List<scalar> 0();
    }
    frontAndBack
    {
        type            empty;
    }
    procBoundary3to2
    {
        type            processor;
        value           nonuniform List<scalar> 
88
(
4.01452e-05
4.00972e-05
4.01015e-05
4.01013e-05
4.01013e-05
4.01122e-05
4.01161e-05
4.01161e-05
4.00754e-05
4.00835e-05
4.00981e-05
4.00981e-05
4.00564e-05
4.00634e-05
4.00676e-05
4.00705e-05
4.00729e-05
4.00729e-05
4.00171e-05
4.00238e-05
4.00318e-05
4.00406e-05
4.00494e-05
4.00494e-05
4.00221e-05
4.00171e-05
4.00127e-05
4.00095e-05
4.00081e-05
4.00092e-05
4.00127e-05
4.00127e-05
4.00543e-05
4.00523e-05
4.00504e-05
4.00485e-05
4.00467e-05
4.00448e-05
4.00429e-05
4.00408e-05
4.00382e-05
4.0035e-05
4.00311e-05
4.00266e-05
4.00266e-05
3.48928e-05
4.3295e-05
4.19594e-05
3.99597e-05
3.98726e-05
4.00801e-05
4.01326e-05
4.0146e-05
4.01324e-05
4.01206e-05
4.01151e-05
4.01096e-05
4.01041e-05
4.00995e-05
4.00954e-05
4.00917e-05
4.00885e-05
4.00858e-05
4.00834e-05
4.00814e-05
4.00797e-05
4.00783e-05
4.00771e-05
4.00761e-05
4.00753e-05
4.00746e-05
4.0074e-05
4.00735e-05
4.00729e-05
4.00724e-05
4.00717e-05
4.0071e-05
4.00701e-05
4.00692e-05
4.00681e-05
4.00669e-05
4.00655e-05
4.00639e-05
4.00622e-05
4.00604e-05
4.00585e-05
4.00565e-05
4.00565e-05
)
;
    }
    procBoundary3to6
    {
        type            processor;
        value           uniform 2.24353e-06;
    }
    procBoundary3to7
    {
        type            processor;
        value           nonuniform List<scalar> 
16
(
9.19557e-06
4.09352e-05
4.33168e-05
4.03076e-05
3.98944e-05
4.00984e-05
4.01029e-05
4.00821e-05
4.00821e-05
4.0077e-05
4.00742e-05
4.00737e-05
4.00739e-05
4.00745e-05
4.00755e-05
4.00755e-05
)
;
    }
}


// ************************************************************************* //
