/*--------------------------------*- C++ -*----------------------------------*\
| =========                 |                                                 |
| \\      /  F ield         | OpenFOAM: The Open Source CFD Toolbox           |
|  \\    /   O peration     | Version:  2506                                  |
|   \\  /    A nd           | Website:  www.openfoam.com                      |
|    \\/     M anipulation  |                                                 |
\*---------------------------------------------------------------------------*/
FoamFile
{
    version     2.0;
    format      ascii;
    arch        "LSB;label=32;scalar=64";
    class       volScalarField;
    location    "250";
    object      p;
}
// * * * * * * * * * * * * * * * * * * * * * * * * * * * * * * * * * * * * * //

dimensions      [0 2 -2 0 0 0 0];

internalField   nonuniform List<scalar> 
1340
(
5.06406
12.9777
7.6235
8.94908
5.0477
12.723
8.49562
8.41156
7.51349
8.77784
5.01815
12.4652
9.30173
8.98982
8.70308
8.32545
8.24305
7.39129
8.59387
4.9729
12.2063
10.3973
10.1175
9.87039
9.61105
9.33951
9.05962
8.76685
8.49624
8.14092
8.05963
7.25602
8.39605
4.91404
11.9413
11.4126
11.1581
10.8915
10.6143
10.328
10.0361
9.77977
9.55247
9.31297
9.06124
8.80073
8.52759
8.27338
7.94119
7.86071
7.10698
8.18352
4.84277
11.667
11.9852
11.8782
11.7537
11.6119
11.4529
11.2773
11.0855
10.8785
10.6572
10.4229
10.1769
9.92059
9.65739
9.42457
9.21707
8.9975
8.76573
8.52481
8.2716
8.03403
7.7256
7.64581
6.94345
7.95592
4.75911
11.3821
10.9894
11.071
11.1441
11.2078
11.2612
11.3032
11.3331
11.35
11.3531
11.3416
11.3149
11.2724
11.2135
11.138
11.0456
10.9362
10.8099
10.6669
10.5077
10.3329
10.1432
9.93992
9.7242
9.49711
9.26203
9.05237
8.86449
8.66474
8.45291
8.23164
7.99851
7.77774
7.49349
7.41446
6.76465
7.71284
4.6631
11.085
6.37656
6.41711
6.45569
6.49668
6.5394
6.58426
6.63122
6.68042
6.7319
6.78576
6.84208
6.90092
6.96237
7.0265
7.09339
7.16307
7.23562
7.31108
7.38951
7.47092
7.55533
7.64275
7.73317
7.82657
7.92288
8.02204
8.12396
8.22849
8.3355
8.44478
8.55612
8.66924
8.78382
8.89954
9.01599
9.13272
9.24924
9.36501
9.47942
9.59185
9.70161
9.80796
9.91009
10.0072
10.0984
10.1828
10.2595
10.3276
10.3861
10.4341
10.4708
10.4951
10.5064
10.5038
10.4867
10.4544
10.4064
10.3423
10.2619
10.1652
10.052
9.92285
9.77803
9.61823
9.44434
9.25749
9.05859
8.85079
8.66373
8.49509
8.31488
8.12278
7.92105
7.70798
7.50412
7.24421
7.16618
6.56985
7.45349
4.55523
10.7724
5.72804
5.76347
5.79737
5.83337
5.87093
5.9104
5.95175
5.9951
6.04051
6.08807
6.13784
6.18991
6.24435
6.30124
6.36065
6.42264
6.48729
6.55466
6.62479
6.69773
6.77353
6.8522
6.93377
7.01824
7.1056
7.19582
7.28884
7.38459
7.48298
7.58387
7.68712
7.79252
7.89984
8.00883
8.11917
8.2305
8.34242
8.45449
8.5662
8.67699
8.78629
8.89342
8.99768
9.09834
9.19459
9.28559
9.37048
9.44838
9.51838
9.57954
9.63097
9.67175
9.701
9.71789
9.72163
9.71152
9.68694
9.64739
9.59246
9.52191
9.43564
9.33374
9.21646
9.08428
8.93792
8.7783
8.60621
8.42454
8.25929
8.10932
7.94816
7.77542
7.59294
7.3997
7.21274
6.97718
6.90051
6.35854
7.17673
4.43677
10.4392
5.16054
5.19152
5.22131
5.25292
5.28594
5.32065
5.35705
5.39524
5.43527
5.47722
5.52116
5.56718
5.61534
5.66572
5.71838
5.77341
5.83086
5.89082
5.95332
6.01843
6.08621
6.15669
6.22991
6.30588
6.38463
6.46615
6.55042
6.63741
6.72705
6.81928
6.91399
7.01103
7.11025
7.21146
7.31441
7.41883
7.52441
7.63077
7.73752
7.84419
7.95027
8.05521
8.15839
8.25915
8.35679
8.45056
8.53966
8.62325
8.70048
8.77045
8.83226
8.88503
8.92785
8.95986
8.98022
8.98817
8.98301
8.96411
8.93097
8.8832
8.82057
8.74298
8.65053
8.54355
8.42252
8.28819
8.14125
7.98429
7.83981
7.70771
7.56492
7.41092
7.24724
7.07343
6.90326
6.69179
6.61679
6.13045
6.88027
4.31038
10.079
4.65729
4.68442
4.71062
4.7384
4.76744
4.79799
4.83004
4.86368
4.89896
4.93596
4.97475
5.01539
5.05795
5.10251
5.14914
5.19789
5.24885
5.30209
5.35765
5.41561
5.47602
5.53892
5.60438
5.67241
5.74306
5.81632
5.89222
5.97075
6.05186
6.13554
6.2217
6.31026
6.4011
6.49409
6.58906
6.68578
6.78401
6.88348
6.98385
7.08476
7.18577
7.28642
7.3862
7.48454
7.58081
7.67435
7.76446
7.85036
7.93126
8.00635
8.07476
8.13563
8.18809
8.23124
8.26429
8.2864
8.29679
8.29482
8.27986
8.25139
8.20912
8.15278
8.0823
7.99784
7.89976
7.78858
7.66486
7.53089
7.40598
7.29081
7.16548
7.02941
6.88387
6.72893
6.57534
6.3876
6.31402
5.88631
6.55982
4.18319
9.67945
4.21763
4.24125
4.26411
4.28834
4.3137
4.34037
4.36838
4.39778
4.42864
4.46103
4.49499
4.53061
4.56794
4.60705
4.64802
4.69089
4.73574
4.78264
4.83165
4.88283
4.93625
4.99195
5.04999
5.11042
5.17327
5.23858
5.30637
5.37662
5.44934
5.52454
5.6022
5.68221
5.76452
5.84902
5.93564
6.02417
6.1144
6.20615
6.29919
6.39318
6.48779
6.58262
6.67723
6.77117
6.8639
6.95483
7.04335
7.12878
7.21038
7.28744
7.35914
7.42468
7.48325
7.53393
7.57595
7.60853
7.6308
7.64209
7.64175
7.62912
7.60385
7.56559
7.51404
7.44927
7.37149
7.28106
7.17836
7.06542
6.9586
6.85922
6.75024
6.6311
6.50286
6.36594
6.22844
6.0642
5.99042
5.62795
6.20908
4.0645
9.23175
3.68902
3.70887
3.72814
3.74855
3.76991
3.79241
3.81603
3.84085
3.86693
3.8943
3.92304
3.95321
3.98485
4.01802
4.05281
4.08925
4.12739
4.16735
4.20914
4.25285
4.29852
4.34621
4.396
4.44793
4.50203
4.55835
4.61694
4.67781
4.74098
4.80646
4.87428
4.94438
5.01672
5.09127
5.16801
5.24676
5.3274
5.4098
5.49384
5.57925
5.66578
5.75312
5.84093
5.92889
6.01657
6.10346
6.1891
6.27288
6.35416
6.43236
6.50671
6.57653
6.64108
6.69946
6.75093
6.79477
6.83011
6.85615
6.8723
6.87778
6.8721
6.8548
6.82549
6.78404
6.73045
6.66487
6.58761
6.50018
6.41548
6.33552
6.24676
6.14871
6.04215
5.92794
5.81084
5.6776
5.60172
5.33083
5.77934
3.95893
8.68336
3.14206
3.15787
3.17331
3.18965
3.20678
3.22483
3.24379
3.26373
3.2847
3.30674
3.3299
3.35424
3.37977
3.40659
3.43476
3.46429
3.49525
3.52772
3.56174
3.59739
3.6347
3.67372
3.71456
3.75724
3.80178
3.84828
3.89677
3.9473
3.9999
4.05459
4.1114
4.17034
4.23139
4.29459
4.35991
4.42727
4.4966
4.56785
4.64092
4.71565
4.7919
4.86944
4.94806
5.02753
5.10747
5.1876
5.26752
5.34675
5.42479
5.50117
5.57527
5.64646
5.71414
5.77754
5.83595
5.88867
5.93493
5.97394
6.00501
6.02739
6.04046
6.04369
6.0366
6.01888
5.99029
5.95082
5.90061
5.84083
5.78037
5.72187
5.65575
5.5815
5.49971
5.41142
5.31972
5.21877
5.15593
4.95503
5.35364
3.70435
8.33042
2.68039
2.69316
2.70567
2.71889
2.73277
2.74739
2.76277
2.77896
2.79596
2.81386
2.83268
2.85244
2.8732
2.89503
2.91796
2.94201
2.96726
2.99376
3.02155
3.05071
3.08124
3.1132
3.14668
3.18172
3.21835
3.25666
3.29664
3.33837
3.38191
3.42726
3.47446
3.52355
3.57453
3.62744
3.68228
3.739
3.7976
3.85805
3.92027
3.98418
4.04971
4.1167
4.18503
4.25449
4.32486
4.39593
4.46741
4.53892
4.6101
4.68057
4.74988
4.81746
4.88284
4.94541
5.00452
5.05958
5.10989
5.15474
5.19348
5.22539
5.24986
5.26634
5.27426
5.27322
5.26291
5.24314
5.21396
5.17625
5.13565
5.09504
5.04815
4.99445
4.93451
4.8694
4.8013
4.72971
4.68224
4.54375
4.91527
3.40736
7.98429
2.25936
2.24758
2.26966
2.27976
2.29046
2.30168
2.31351
2.32597
2.33907
2.35284
2.36735
2.3826
2.39864
2.41549
2.43322
2.45185
2.4714
2.49197
2.51355
2.5362
2.55998
2.58491
2.61104
2.63842
2.66711
2.69715
2.72859
2.76145
2.79579
2.83166
2.86909
2.90811
2.94877
2.99106
3.03505
3.08073
3.12808
3.17713
3.22785
3.28021
3.33417
3.38967
3.44664
3.50496
3.56451
3.62515
3.68671
3.74899
3.81171
3.87461
3.93737
3.99966
4.06106
4.12115
4.17949
4.23552
4.28875
4.3386
4.38442
4.42571
4.46179
4.49208
4.51607
4.53321
4.54306
4.54531
4.53967
4.52611
4.5053
4.48037
4.4542
4.42312
4.38668
4.34543
4.30045
4.25364
4.20827
4.17626
4.09591
4.44121
3.0859
7.54635
1.86677
1.85749
1.87491
1.88291
1.89139
1.90028
1.90965
1.91952
1.92991
1.94084
1.95233
1.96444
1.97719
1.99059
2.00468
2.01949
2.03506
2.05144
2.06864
2.0867
2.10567
2.12559
2.14651
2.16843
2.19142
2.21551
2.24075
2.26718
2.29482
2.32373
2.35395
2.38551
2.41844
2.45276
2.48853
2.52575
2.56441
2.60454
2.64617
2.68925
2.73377
2.7797
2.82699
2.87559
2.9254
2.97635
3.02827
3.08106
3.13453
3.18847
3.24262
3.29676
3.35057
3.4037
3.45585
3.50651
3.55534
3.60185
3.64553
3.6859
3.72243
3.7546
3.78196
3.804
3.82031
3.8306
3.83457
3.83216
3.82382
3.81086
3.796
3.77753
3.75513
3.7294
3.7013
3.67289
3.64974
3.63204
3.60262
3.92124
2.71677
7.02569
1.50558
1.49844
1.51186
1.51803
1.52456
1.53141
1.53864
1.54625
1.55427
1.56269
1.57156
1.58091
1.59074
1.60108
1.61195
1.62338
1.6354
1.64805
1.66133
1.67528
1.68994
1.70534
1.7215
1.73846
1.75626
1.77491
1.79447
1.81496
1.8364
1.85884
1.88233
1.90688
1.93252
1.95928
1.98721
2.01631
2.04658
2.07808
2.1108
2.14474
2.1799
2.21628
2.25382
2.29253
2.33235
2.3732
2.41501
2.45768
2.50112
2.54515
2.58962
2.63435
2.67909
2.72361
2.76766
2.81088
2.85296
2.89357
2.93228
2.9687
3.0024
3.033
3.06006
3.08318
3.10201
3.11627
3.12572
3.13029
3.13027
3.12578
3.11913
3.11002
3.09826
3.08452
3.06967
3.05608
3.05035
3.04424
3.0569
3.34797
2.28189
6.42116
1.12817
1.12291
1.13283
1.1374
1.14226
1.14735
1.15273
1.15841
1.16439
1.17068
1.17731
1.1843
1.19165
1.1994
1.20756
1.21614
1.22519
1.2347
1.2447
1.25522
1.26629
1.27793
1.29014
1.30299
1.31649
1.33064
1.3455
1.36108
1.3774
1.3945
1.41241
1.43115
1.45073
1.47119
1.49255
1.51481
1.538
1.56215
1.58724
1.61329
1.64029
1.66826
1.69714
1.72695
1.75764
1.78915
1.82147
1.85449
1.88818
1.92241
1.95708
1.99205
2.02715
2.06225
2.09713
2.13157
2.16535
2.1982
2.22984
2.25997
2.28827
2.31447
2.3382
2.35917
2.37715
2.39185
2.4031
2.41087
2.41535
2.41594
2.41463
2.41181
2.40743
2.40215
2.39658
2.39335
2.39873
2.39835
2.44059
2.70158
1.75016
5.67309
0.826142
0.822557
0.829264
0.832285
0.835498
0.838863
0.842406
0.846132
0.850047
0.85417
0.858515
0.863079
0.867869
0.872901
0.878197
0.883766
0.889612
0.895742
0.902181
0.908955
0.91606
0.92351
0.93132
0.939521
0.948136
0.957156
0.966606
0.976512
0.986891
0.997757
1.00913
1.02104
1.03348
1.04649
1.06009
1.07427
1.08907
1.10451
1.12061
1.13736
1.15475
1.17284
1.19158
1.21098
1.23103
1.25171
1.27301
1.29487
1.31725
1.34011
1.36338
1.38695
1.41074
1.43465
1.45853
1.48224
1.50566
1.52857
1.55077
1.57211
1.59235
1.6113
1.62872
1.6444
1.65822
1.66994
1.67949
1.68686
1.69217
1.69491
1.69589
1.69592
1.69508
1.69404
1.69325
1.69586
1.70716
1.70772
1.76593
1.99474
1.13421
4.71628
0.337973
0.335595
0.340106
0.342236
0.344506
0.346892
0.349417
0.352077
0.354874
0.357836
0.360972
0.364275
0.367748
0.371409
0.375277
0.379351
0.383635
0.388141
0.392886
0.397889
0.403133
0.408639
0.41443
0.42051
0.426884
0.433559
0.440549
0.44786
0.455507
0.463487
0.471808
0.480487
0.489512
0.498899
0.508635
0.518722
0.529161
0.539956
0.551102
0.562576
0.574389
0.586525
0.598954
0.611672
0.624676
0.637937
0.651424
0.665127
0.678999
0.693011
0.707128
0.721295
0.735482
0.749619
0.763656
0.777526
0.791173
0.80451
0.817452
0.829954
0.841876
0.853123
0.863567
0.873108
0.88168
0.889121
0.895404
0.900551
0.904661
0.907096
0.908923
0.9107
0.912564
0.914709
0.916443
0.919505
0.926624
0.912698
0.951045
1.13813
0.368503
3.23095
0.304963
0.304981
0.30492
0.304834
0.304734
0.304612
0.304474
0.304319
0.304133
0.303923
0.303689
0.303424
0.303125
0.302787
0.302414
0.301999
0.301539
0.301028
0.300466
0.299855
0.299179
0.298444
0.297652
0.296793
0.295866
0.294874
0.293817
0.292692
0.291509
0.290262
0.288957
0.287606
0.286208
0.284775
0.283308
0.281825
0.280336
0.278853
0.277388
0.275954
0.274579
0.273267
0.272028
0.270881
0.269847
0.268929
0.268141
0.2675
0.267004
0.266664
0.266481
0.266464
0.266615
0.266908
0.267333
0.267847
0.268419
0.268995
0.269541
0.270046
0.270453
0.270756
0.270943
0.271023
0.27101
0.270902
0.270799
0.270663
0.270633
0.271969
0.271232
0.269173
0.266049
0.2626
0.259732
0.261301
0.271939
0.275326
0.30952
0.409863
0.00592629
1.35234
)
;

boundaryField
{
    inlet
    {
        type            freestreamPressure;
        freestreamValue uniform 0;
        value           nonuniform List<scalar> 
23
(
7.31622
7.17271
7.02745
6.8816
6.73225
6.57771
6.41724
6.2499
6.07383
5.8862
5.68336
5.45841
5.20633
4.89745
4.69893
4.50436
4.25811
3.96526
3.62513
3.20396
2.66477
1.8264
0.765048
)
;
    }
    outlet
    {
        type            freestreamPressure;
        freestreamValue uniform 0;
        value           nonuniform List<scalar> 
82
(
0.000910007
0.000909966
0.000909973
0.000909802
0.000909606
0.000909346
0.000909046
0.000908697
0.000908265
0.000907768
0.000907207
0.000906561
0.00090582
0.000904973
0.000904034
0.000902977
0.000901796
0.000900477
0.000899019
0.000897427
0.000895659
0.000893726
0.000891644
0.000889378
0.000886927
0.000884302
0.000881508
0.000878534
0.000875409
0.00087212
0.000868687
0.000865144
0.000861498
0.000857777
0.000853993
0.000850199
0.000846435
0.000842729
0.000839128
0.000835675
0.000832456
0.000829492
0.000826813
0.000824485
0.000822579
0.000821114
0.000820137
0.000819713
0.000819844
0.000820576
0.000821927
0.000823937
0.000826627
0.000829937
0.000833848
0.000838254
0.000843071
0.000848157
0.000853413
0.000858836
0.000864261
0.000869684
0.000875091
0.000880525
0.000886059
0.000891703
0.000897806
0.00090429
0.000911648
0.000922986
0.000926718
0.00092665
0.000923604
0.000920153
0.000919547
0.000935625
0.000985957
0.00101357
0.00115645
0.00155913
2.37534e-05
0.00500656
)
;
    }
    walls
    {
        type            zeroGradient;
    }
    frontAndBack
    {
        type            empty;
    }
    procBoundary3to2
    {
        type            processor;
        value           nonuniform List<scalar> 
88
(
5.07816
13.2105
7.72299
9.1063
9.1063
8.65238
8.56588
8.56588
9.5276
9.19712
8.89454
8.89454
10.7405
10.4373
10.1706
9.89168
9.60066
9.60066
11.9327
11.6438
11.344
11.035
10.7182
10.7182
12.7649
12.6225
12.4626
12.2852
12.0908
11.8801
11.6537
11.6537
12.0477
12.1141
12.1702
12.2151
12.248
12.2679
12.2741
12.2659
12.2424
12.2031
12.1474
12.0749
12.0749
7.173
7.21687
7.26352
7.31205
7.363
7.41627
7.47201
7.53028
7.59116
7.65473
7.72107
7.79024
7.8623
7.93732
8.01534
8.0964
8.18054
8.26775
8.35807
8.45147
8.54791
8.64735
8.74971
8.85489
8.96277
9.07316
9.18589
9.30074
9.41743
9.53567
9.65508
9.7753
9.89588
10.0163
10.1361
10.2546
10.3712
10.4853
10.596
10.7026
10.8043
10.9002
10.9002
)
;
    }
    procBoundary3to6
    {
        type            processor;
        value           uniform 7.12655;
    }
    procBoundary3to7
    {
        type            processor;
        value           nonuniform List<scalar> 
16
(
6.32765
5.68564
5.12368
4.6252
4.18978
3.6658
3.12371
2.66571
2.66571
2.23493
1.84752
1.49076
1.11725
0.818711
0.333013
0.30502
)
;
    }
}


// ************************************************************************* //
