/*--------------------------------*- C++ -*----------------------------------*\
| =========                 |                                                 |
| \\      /  F ield         | OpenFOAM: The Open Source CFD Toolbox           |
|  \\    /   O peration     | Version:  2506                                  |
|   \\  /    A nd           | Website:  www.openfoam.com                      |
|    \\/     M anipulation  |                                                 |
\*---------------------------------------------------------------------------*/
FoamFile
{
    version     2.0;
    format      ascii;
    arch        "LSB;label=32;scalar=64";
    class       surfaceScalarField;
    location    "250";
    object      phi;
}
// * * * * * * * * * * * * * * * * * * * * * * * * * * * * * * * * * * * * * //

dimensions      [0 3 -1 0 0 0 0];

oriented        oriented;

internalField   nonuniform List<scalar> 
2575
(
-0.582809
17.0054
18.697
-0.606234
14.0163
-0.610559
15.4047
-0.612209
17.007
18.7069
-0.632179
11.5935
-0.634498
12.7458
-0.636183
14.018
-0.64074
15.4093
-0.643063
17.0094
18.7169
-0.655128
8.71126
-0.657884
9.58428
-0.6606
10.5428
-0.66306
11.5959
-0.665604
12.7483
-0.667616
14.02
-0.672461
15.4141
-0.675465
17.0124
18.7269
-0.67255
7.76426
-0.675277
5.9471
-0.678081
6.54383
-0.68097
7.19831
-0.683892
7.92087
-0.686877
8.71424
-0.689869
9.58727
-0.692807
10.5457
-0.695502
11.5986
-0.698283
12.7511
-0.700644
14.0224
-0.705796
15.4193
-0.709498
17.0161
18.7371
-0.683504
5.93416
-0.68801
6.26275
-0.692443
6.60952
-0.696751
6.97515
-0.700941
7.3607
-0.704993
7.76831
-0.707891
5.95
-0.710866
6.54681
-0.713911
7.20136
-0.717064
7.92402
-0.720249
8.71743
-0.723484
9.59051
-0.72665
10.5489
-0.729589
11.6016
-0.732575
12.7541
-0.735353
14.0251
-0.74079
15.4247
-0.7452
17.0205
18.7473
-0.683086
4.07505
-0.68792
4.3
-0.692768
4.53773
-0.697618
4.78843
-0.702475
5.05316
-0.707281
5.33269
-0.712065
5.62759
-0.716795
5.93889
-0.721469
6.26742
-0.726029
6.61408
-0.730508
6.97963
-0.734884
7.36508
-0.739163
7.77259
-0.742184
5.95302
-0.745328
6.54995
-0.748574
7.20461
-0.751915
7.92736
-0.755351
8.72087
-0.758786
9.59394
-0.762187
10.5523
-0.765379
11.6047
-0.768645
12.7574
-0.771797
14.0283
-0.777597
15.4305
-0.782772
17.0257
18.7578
-0.667037
2.14425
-0.670641
2.26219
-0.674365
2.38654
-0.678232
2.5177
-0.682226
2.6562
-0.686357
2.80245
-0.690593
2.9567
-0.694926
3.11962
-0.699376
3.29138
-0.703921
3.47287
-0.708548
3.66426
-0.713248
3.86644
-0.718007
4.07981
-0.722814
4.30481
-0.72767
4.54259
-0.732538
4.7933
-0.737405
5.05802
-0.742286
5.33757
-0.747166
5.63246
-0.751982
5.9437
-0.756763
6.2722
-0.761491
6.61881
-0.766127
6.98427
-0.770662
7.36961
-0.775116
7.77704
-0.778316
5.95622
-0.781626
6.55326
-0.785057
7.20804
-0.788587
7.93089
-0.792229
8.72451
-0.795931
9.59765
-0.799573
10.5559
-0.803024
11.6082
-0.806521
12.7609
-0.810068
14.0318
-0.816283
15.4367
-0.822163
17.0315
18.7684
-0.650164
0.216863
-0.650478
0.227323
-0.650833
0.239835
-0.651181
0.253012
-0.651559
0.266935
-0.651957
0.28161
-0.652387
0.297107
-0.652815
0.313412
-0.653279
0.330665
-0.653768
0.34883
-0.654284
0.367994
-0.65484
0.388234
-0.655403
0.409562
-0.656011
0.432069
-0.656654
0.455793
-0.657347
0.480846
-0.658056
0.507257
-0.65882
0.535114
-0.659629
0.564492
-0.660488
0.595508
-0.6614
0.628199
-0.662367
0.662692
-0.663406
0.699091
-0.664484
0.737445
-0.665654
0.777946
-0.66687
0.820633
-0.668174
0.865684
-0.669558
0.913162
-0.671026
0.963312
-0.672583
1.01625
-0.674233
1.07204
-0.675981
1.1307
-0.677832
1.19288
-0.67979
1.25843
-0.681871
1.32737
-0.684057
1.40033
-0.686361
1.47708
-0.68879
1.55825
-0.691334
1.64373
-0.694033
1.73402
-0.696853
1.82926
-0.699797
1.92971
-0.702903
2.03567
-0.706123
2.14747
-0.709496
2.26556
-0.713008
2.39006
-0.716659
2.52135
-0.720461
2.66
-0.724371
2.80636
-0.728426
2.96075
-0.732606
3.1238
-0.736919
3.29569
-0.74133
3.47728
-0.745829
3.66876
-0.750432
3.87104
-0.755129
4.08451
-0.75988
4.30956
-0.764676
4.54738
-0.769533
4.79816
-0.774441
5.06293
-0.779358
5.34249
-0.784266
5.63737
-0.789191
5.94863
-0.794056
6.27707
-0.798891
6.62364
-0.803668
6.98905
-0.808394
7.37434
-0.813012
7.78166
-0.816341
5.95955
-0.819813
6.55674
-0.823427
7.21165
-0.827191
7.93465
-0.831042
8.72836
-0.834921
9.60153
-0.838838
10.5598
-0.842632
11.612
-0.846424
12.7647
-0.850526
14.0359
-0.856983
15.4432
-0.863545
17.0381
18.7793
-0.697279
0.216961
-0.697563
0.227607
-0.697862
0.240134
-0.698188
0.253338
-0.698518
0.267265
-0.698865
0.281957
-0.699218
0.29746
-0.699615
0.313809
-0.700008
0.331058
-0.700448
0.34927
-0.700899
0.368445
-0.701363
0.388698
-0.701867
0.410066
-0.7024
0.432602
-0.702977
0.456369
-0.703562
0.481431
-0.704208
0.507903
-0.704868
0.535773
-0.705593
0.565218
-0.70635
0.596265
-0.707154
0.629003
-0.707995
0.663534
-0.708903
0.699998
-0.709879
0.738422
-0.710892
0.778959
-0.711982
0.821723
-0.713153
0.866855
-0.714384
0.914393
-0.715692
0.96462
-0.717081
1.01764
-0.718557
1.07352
-0.720123
1.13227
-0.721785
1.19454
-0.723547
1.26019
-0.725402
1.32923
-0.727378
1.40231
-0.729469
1.47917
-0.731678
1.56046
-0.734011
1.64606
-0.736471
1.73648
-0.739062
1.83185
-0.7418
1.93245
-0.74465
2.03852
-0.747653
2.15048
-0.750811
2.26872
-0.7541
2.39334
-0.757533
2.52479
-0.761097
2.66357
-0.764819
2.81009
-0.768681
2.96461
-0.772695
3.12781
-0.776815
3.29981
-0.781073
3.48154
-0.785463
3.67315
-0.789948
3.87552
-0.794518
4.08908
-0.79919
4.31423
-0.803942
4.55213
-0.808765
4.80298
-0.813647
5.06781
-0.818574
5.34742
-0.823545
5.64234
-0.828498
5.95358
-0.833472
6.28204
-0.838395
6.62856
-0.843298
6.99395
-0.848155
7.3792
-0.852972
7.78648
-0.856498
5.96308
-0.860098
6.56034
-0.863815
7.21537
-0.867752
7.93859
-0.871888
8.73249
-0.876145
9.60578
-0.88028
10.564
-0.884114
11.6158
-0.888203
12.7687
-0.892703
14.0404
-0.899965
15.4504
-0.907047
17.0452
18.7906
-0.746185
0.217051
-0.746446
0.227869
-0.746696
0.240383
-0.746971
0.253613
-0.74726
0.267554
-0.747565
0.282262
-0.747886
0.297781
-0.748225
0.314147
-0.748581
0.331415
-0.748958
0.349647
-0.749356
0.368843
-0.749776
0.389118
-0.750221
0.410511
-0.750692
0.433073
-0.751191
0.456868
-0.75172
0.48196
-0.75228
0.508464
-0.752875
0.536368
-0.753507
0.56585
-0.754178
0.596936
-0.754892
0.629716
-0.75565
0.664292
-0.756457
0.700805
-0.757315
0.73928
-0.758228
0.779872
-0.759212
0.822707
-0.760234
0.867876
-0.761334
0.915494
-0.762504
0.965791
-0.76375
1.01888
-0.765074
1.07484
-0.766483
1.13368
-0.767979
1.19604
-0.769569
1.26178
-0.771257
1.33091
-0.773049
1.4041
-0.774947
1.48107
-0.776959
1.56248
-0.779089
1.64819
-0.781341
1.73873
-0.783719
1.83423
-0.786229
1.93496
-0.788874
2.04117
-0.791658
2.15326
-0.794585
2.27164
-0.797657
2.39642
-0.800876
2.52801
-0.804244
2.66693
-0.807761
2.8136
-0.811427
2.96828
-0.81524
3.13163
-0.819196
3.30376
-0.823291
3.48564
-0.827516
3.67737
-0.831865
3.87987
-0.836331
4.09354
-0.840904
4.3188
-0.845593
4.55682
-0.850359
4.80775
-0.855193
5.07265
-0.860109
5.35233
-0.865078
5.64731
-0.870125
5.95863
-0.875028
6.28695
-0.880167
6.6337
-0.88512
6.9989
-0.890066
7.38414
-0.895009
7.79142
-0.89865
5.96672
-0.902433
6.56412
-0.906402
7.21934
-0.910707
7.9429
-0.914868
8.73665
-0.919274
9.61019
-0.923659
10.5683
-0.927925
11.6201
-0.932335
12.7732
-0.937304
14.0454
-0.944995
15.4581
-0.952985
17.0532
18.8026
-0.796983
0.217125
-0.797202
0.228088
-0.797432
0.240613
-0.797675
0.253856
-0.79793
0.267809
-0.798199
0.282531
-0.798483
0.298064
-0.798782
0.314446
-0.799111
0.331744
-0.799432
0.349968
-0.799784
0.369195
-0.80017
0.389504
-0.800565
0.410906
-0.800983
0.433491
-0.801413
0.457299
-0.801884
0.48243
-0.802383
0.508963
-0.802926
0.53691
-0.803476
0.5664
-0.804075
0.597535
-0.804711
0.630353
-0.805402
0.664982
-0.806123
0.701526
-0.806877
0.740035
-0.807695
0.780689
-0.808566
0.823578
-0.809493
0.868804
-0.810481
0.916481
-0.811533
0.966843
-0.812654
1.02
-0.813848
1.07604
-0.815119
1.13495
-0.816472
1.19739
-0.817911
1.26322
-0.819442
1.33245
-0.821083
1.40574
-0.822811
1.4828
-0.824647
1.56431
-0.826594
1.65013
-0.828644
1.74078
-0.830843
1.83643
-0.833143
1.93726
-0.835587
2.04361
-0.838181
2.15585
-0.840889
2.27435
-0.843755
2.39928
-0.846769
2.53102
-0.849947
2.67011
-0.853265
2.81692
-0.856737
2.97175
-0.860348
3.13524
-0.864124
3.30754
-0.868033
3.48954
-0.872141
3.68148
-0.876275
3.88401
-0.880637
4.09791
-0.885125
4.32329
-0.889634
4.56133
-0.89434
4.81245
-0.899251
5.07756
-0.904051
5.35713
-0.908999
5.65226
-0.914019
5.96365
-0.919226
6.29216
-0.924169
6.63864
-0.929274
7.00401
-0.934532
7.3894
-0.939636
7.79652
-0.943206
5.97029
-0.947136
6.56805
-0.951429
7.22363
-0.955629
7.9471
-0.960318
8.74134
-0.964812
9.61468
-0.969451
10.573
-0.973997
11.6246
-0.978921
12.7781
-0.98418
14.0507
-0.992635
15.4666
-1.0008
17.0613
18.8155
-0.849871
0.217187
-0.850065
0.228281
-0.850268
0.240817
-0.850483
0.25407
-0.850709
0.268036
-0.850948
0.282769
-0.8512
0.298316
-0.851466
0.314712
-0.851747
0.332025
-0.852044
0.350265
-0.852358
0.36951
-0.852678
0.389824
-0.853031
0.411259
-0.853418
0.433878
-0.853815
0.457695
-0.854236
0.482851
-0.854683
0.50941
-0.855158
0.537385
-0.855663
0.566905
-0.8562
0.598072
-0.856772
0.630924
-0.85738
0.665591
-0.858015
0.702161
-0.858719
0.740738
-0.859454
0.781425
-0.860186
0.824309
-0.861008
0.869626
-0.861938
0.917412
-0.86294
0.967845
-0.863966
1.02103
-0.864966
1.07704
-0.866156
1.13614
-0.867342
1.19857
-0.868741
1.26462
-0.870025
1.33373
-0.871506
1.40722
-0.873148
1.48444
-0.874863
1.56603
-0.876578
1.65185
-0.878483
1.74269
-0.880465
1.83841
-0.882608
1.9394
-0.88492
2.04592
-0.887296
2.15823
-0.889783
2.27684
-0.892522
2.40202
-0.895258
2.53376
-0.898254
2.67311
-0.901391
2.82006
-0.904643
2.975
-0.908135
3.13873
-0.911688
3.31109
-0.915409
3.49327
-0.91931
3.68538
-0.9235
3.8882
-0.927554
4.10196
-0.931889
4.32763
-0.936504
4.56595
-0.940966
4.81691
-0.945695
5.08229
-0.950535
5.36198
-0.955474
5.6572
-0.960495
5.96867
-0.965582
6.29724
-0.970723
6.64379
-0.976055
7.00934
-0.981124
7.39447
-0.986362
7.80176
-0.9902
5.97413
-0.994272
6.57212
-0.998584
7.22794
-1.00313
7.95165
-1.00789
8.7461
-1.01278
9.61957
-1.01768
10.5779
-1.02266
11.6296
-1.0277
12.7831
-1.03364
14.0566
-1.04301
15.4759
-1.05105
17.0694
18.83
-1.43777
0.217651
-1.43773
0.22824
-1.43762
0.24071
-1.43754
0.253992
-1.43749
0.267987
-1.43733
0.282605
-1.4373
0.298289
-1.43726
0.314665
-1.43704
0.331813
-1.43707
0.350287
-1.43689
0.369331
-1.43677
0.38971
-1.43669
0.411172
-1.4366
0.433794
-1.4364
0.457496
-1.4363
0.482752
-1.43628
0.509387
-1.43606
0.537161
-1.436
0.566854
-1.43582
0.597892
-1.43576
0.630857
-1.43563
0.665468
-1.43544
0.701972
-1.43526
0.740553
-1.4352
0.781367
-1.43513
0.824237
-1.43507
0.86957
-1.43483
0.917164
-1.43466
0.967677
-1.43457
1.02094
-1.43458
1.07704
-1.43441
1.13597
-1.43448
1.19864
-1.43426
1.26439
-1.43428
1.33375
-1.43429
1.40723
-1.43416
1.48431
-1.43416
1.56603
-1.43417
1.65186
-1.4342
1.74271
-1.43424
1.83845
-1.43432
1.93948
-1.43442
2.04603
-1.43444
2.15824
-1.43464
2.27704
-1.43462
2.402
-1.4348
2.53394
-1.43477
2.67308
-1.43495
2.82024
-1.43492
2.97497
-1.43496
3.13877
-1.43493
3.31106
-1.43482
3.49316
-1.43463
3.68519
-1.43421
3.88777
-1.43383
4.10158
-1.43306
4.32686
-1.43218
4.56506
-1.43116
4.8159
-1.42972
5.08084
-1.42811
5.36036
-1.42616
5.65525
-1.42355
5.96606
-1.42054
6.29423
-1.41711
6.64036
-1.41294
7.00517
-1.4083
7.38983
-1.40287
7.79633
-1.39813
5.96939
-1.39276
6.56676
-1.38646
7.22163
-1.37918
7.94437
-1.37071
8.73764
-1.36092
9.60978
-1.34931
10.5663
-1.33566
11.616
-1.32022
12.7677
-1.30367
14.0401
-1.2876
15.4599
-1.2694
17.0512
18.8092
-1.53697
0.218265
-1.53679
0.228056
-1.53661
0.240537
-1.53659
0.253968
-1.53631
0.267707
-1.53631
0.282608
-1.53606
0.29804
-1.53583
0.314433
-1.53575
0.331731
-1.53542
0.349958
-1.53524
0.369154
-1.53509
0.389555
-1.53482
0.410906
-1.53458
0.433554
-1.53437
0.45728
-1.53418
0.482566
-1.53376
0.508963
-1.53363
0.537036
-1.53328
0.566497
-1.53296
0.59757
-1.53254
0.630442
-1.5323
0.66523
-1.53197
0.701643
-1.5317
0.740274
-1.53133
0.781007
-1.53089
0.823796
-1.53051
0.86919
-1.5302
0.916846
-1.52981
0.967293
-1.52936
1.0205
-1.529
1.07667
-1.52857
1.13555
-1.5281
1.19817
-1.52773
1.26401
-1.52731
1.33334
-1.52674
1.40666
-1.5264
1.48398
-1.52579
1.56541
-1.52543
1.6515
-1.52493
1.74222
-1.52444
1.83796
-1.52395
1.93899
-1.52322
2.0453
-1.52278
2.15781
-1.52224
2.2765
-1.52161
2.40137
-1.52102
2.53335
-1.52049
2.67255
-1.51975
2.81949
-1.5192
2.97443
-1.51831
3.13788
-1.51762
3.31037
-1.51672
3.49226
-1.5156
3.68407
-1.51454
3.88672
-1.51326
4.1003
-1.51189
4.32549
-1.51015
4.56332
-1.50831
4.81406
-1.50622
5.07875
-1.50386
5.358
-1.5009
5.65229
-1.49777
5.96293
-1.49414
6.29061
-1.49
6.63622
-1.48533
7.00049
-1.47994
7.38444
-1.47397
7.79036
-1.46887
5.96429
-1.46303
6.56092
-1.45629
7.21489
-1.44863
7.93671
-1.43967
8.72867
-1.4294
9.59951
-1.41704
10.5539
-1.40272
11.6017
-1.38677
12.7517
-1.3699
14.0232
-1.3532
15.4432
-1.33443
17.0324
18.7872
-1.63812
0.218751
-1.6379
0.227834
-1.63782
0.240461
-1.63749
0.253633
-1.63744
0.267655
-1.63713
0.282297
-1.63683
0.297742
-1.63654
0.31415
-1.63641
0.331599
-1.63602
0.34957
-1.63579
0.368919
-1.63544
0.389205
-1.63524
0.410712
-1.6348
0.433108
-1.63451
0.456993
-1.63411
0.482169
-1.63374
0.50859
-1.63326
0.536557
-1.63281
0.566047
-1.63239
0.597152
-1.63201
0.630059
-1.63153
0.664749
-1.63109
0.7012
-1.63055
0.739737
-1.62992
0.780379
-1.62934
0.823215
-1.62881
0.868663
-1.6282
0.916236
-1.62752
0.966606
-1.62689
1.01987
-1.6262
1.07598
-1.62544
1.13479
-1.62476
1.1975
-1.62389
1.26314
-1.62311
1.33255
-1.62242
1.40596
-1.62141
1.48298
-1.62065
1.56465
-1.61973
1.65058
-1.61879
1.74127
-1.61784
1.83701
-1.61674
1.9379
-1.61593
2.04449
-1.61485
2.15673
-1.61366
2.27531
-1.61264
2.40034
-1.61137
2.53208
-1.61015
2.67133
-1.60883
2.81818
-1.60744
2.97303
-1.60596
3.1364
-1.6044
3.30882
-1.60277
3.49062
-1.60106
3.68236
-1.59914
3.88479
-1.597
4.09816
-1.5948
4.32329
-1.59252
4.56104
-1.58988
4.81142
-1.58701
5.07588
-1.58376
5.35474
-1.58024
5.64877
-1.57644
5.95912
-1.57204
6.28621
-1.56718
6.63135
-1.56183
6.99515
-1.55582
7.37844
-1.549
7.78353
-1.54352
5.95881
-1.53719
6.55459
-1.53001
7.20771
-1.5218
7.9285
-1.51248
8.71935
-1.50142
9.58846
-1.48862
10.5411
-1.47382
11.5868
-1.45723
12.7351
-1.44013
14.0061
-1.42283
15.4258
-1.40364
17.0132
18.7638
-1.74178
1.74128
0.219244
0.231366
-1.74167
0.227722
-1.74143
0.240221
-1.74106
0.253265
-1.74084
0.267436
-1.74049
0.281951
-1.7403
0.297545
-1.73997
0.313828
-1.73953
0.331155
-1.73937
0.349414
-1.73896
0.368504
-1.73856
0.388806
-1.73804
0.410194
-1.73768
0.432746
-1.7372
0.456514
-1.73675
0.481712
-1.73617
0.508018
-1.73577
0.536148
-1.73525
0.565526
-1.73475
0.59666
-1.73415
0.62946
-1.73331
0.663906
-1.73278
0.700668
-1.73201
0.738966
-1.73142
0.779786
-1.73073
0.822527
-1.72981
0.867745
-1.72908
0.915505
-1.72826
0.965788
-1.72736
1.01898
-1.72639
1.07501
-1.72547
1.13388
-1.72435
1.19637
-1.72344
1.26223
-1.72233
1.33144
-1.72117
1.4048
-1.72009
1.4819
-1.71884
1.56339
-1.71754
1.64928
-1.71622
1.73995
-1.71487
1.83566
-1.71351
1.93654
-1.71186
2.04284
-1.71035
2.15522
-1.70871
2.27367
-1.70709
2.39872
-1.70535
2.53034
-1.70351
2.66948
-1.70156
2.81623
-1.69966
2.97114
-1.69767
3.13441
-1.69546
3.3066
-1.69316
3.48833
-1.69065
3.67985
-1.68806
3.88221
-1.68542
4.09551
-1.68242
4.32029
-1.67923
4.55785
-1.67583
4.80803
-1.67208
5.07213
-1.66825
5.35091
-1.66405
5.64457
-1.6593
5.95437
-1.65429
6.2812
-1.64871
6.62577
-1.64254
6.98898
-1.63592
7.37182
-1.62869
7.7763
-1.62268
5.9528
-1.61587
6.54778
-1.6081
7.19994
-1.59933
7.91974
-1.58934
8.70936
-1.57781
9.57693
-1.56429
10.5276
-1.54873
11.5713
-1.53178
12.7182
-1.51423
13.9885
-1.49671
15.4083
-1.47747
16.994
18.739
-1.84821
1.84757
0.219887
0.232013
-1.84795
0.227454
-1.84755
0.239823
-1.84743
0.253152
-1.84692
0.266918
-1.84668
0.28172
-1.84633
0.297187
-1.84598
0.313481
-1.84565
0.330821
-1.84519
0.348955
-1.84474
0.368058
-1.84431
0.388376
-1.84376
0.409641
-1.84336
0.432349
-1.84284
0.455996
-1.8422
0.481076
-1.84173
0.50754
-1.84099
0.535415
-1.84042
0.564957
-1.83974
0.595976
-1.83894
0.628665
-1.83832
0.663279
-1.83744
0.699795
-1.83674
0.738264
-1.8358
0.778843
-1.83489
0.821621
-1.83403
0.86688
-1.83307
0.914545
-1.83202
0.964736
-1.83101
1.01797
-1.82979
1.07378
-1.82876
1.13285
-1.82751
1.19513
-1.82619
1.26091
-1.8248
1.33005
-1.82348
1.40349
-1.82197
1.48039
-1.8204
1.56183
-1.81879
1.64767
-1.81714
1.7383
-1.81531
1.83384
-1.8136
1.93483
-1.81173
2.04097
-1.8097
2.1532
-1.80768
2.27165
-1.80553
2.39656
-1.80338
2.5282
-1.80098
2.66708
-1.79861
2.81386
-1.79599
2.96852
-1.79328
3.13169
-1.79047
3.3038
-1.78758
3.48543
-1.78447
3.67674
-1.78129
3.87903
-1.77776
4.09199
-1.77418
4.31671
-1.77026
4.55393
-1.7663
4.80407
-1.762
5.06783
-1.75721
5.34612
-1.7522
5.63956
-1.74683
5.949
-1.74109
6.27546
-1.73482
6.6195
-1.728
6.98217
-1.72049
7.3643
-1.71256
7.76837
-1.70604
5.94628
-1.69875
6.54049
-1.69054
7.19173
-1.68124
7.91044
-1.67059
8.69871
-1.65829
9.56462
-1.64422
10.5135
-1.62815
11.5552
-1.61052
12.7006
-1.59312
13.9711
-1.57553
15.3907
-1.55588
16.9743
18.7133
-1.95746
1.95667
0.220682
0.232672
-1.95704
0.22703
-1.95676
0.239546
-1.95635
0.252745
-1.9561
0.266659
-1.95571
0.281332
-1.95519
0.296668
-1.95482
0.313113
-1.95433
0.330326
-1.95384
0.348471
-1.95337
0.367588
-1.95292
0.38792
-1.95247
0.409199
-1.95177
0.431645
-1.95122
0.455448
-1.95055
0.480406
-1.9499
0.50689
-1.94927
0.534786
-1.94853
0.56421
-1.94766
0.595112
-1.94696
0.627967
-1.94615
0.662468
-1.94523
0.698873
-1.9442
0.737233
-1.94334
0.777986
-1.94224
0.820517
-1.94117
0.865815
-1.94001
0.913381
-1.93889
0.963614
-1.93753
1.01662
-1.93637
1.07261
-1.93483
1.13131
-1.9335
1.19379
-1.93194
1.25935
-1.93045
1.32856
-1.92875
1.40179
-1.92699
1.47862
-1.9253
1.56014
-1.92343
1.64579
-1.9215
1.73637
-1.91939
1.83173
-1.91725
1.93269
-1.91494
2.03866
-1.91261
2.15088
-1.91028
2.26931
-1.90765
2.39394
-1.90504
2.52559
-1.90229
2.66433
-1.89943
2.811
-1.89631
2.9654
-1.89322
3.12861
-1.8899
3.30047
-1.88634
3.48188
-1.8827
3.6731
-1.87871
3.87504
-1.87481
4.08808
-1.87042
4.31233
-1.866
4.54951
-1.8611
4.79917
-1.85617
5.0629
-1.85075
5.34071
-1.84515
5.63396
-1.83906
5.94292
-1.83233
6.26873
-1.82541
6.61257
-1.81783
6.97459
-1.8099
7.35637
-1.80116
7.75964
-1.79414
5.93926
-1.78624
6.53259
-1.77747
7.18296
-1.76765
7.90061
-1.75636
8.68742
-1.74347
9.55174
-1.72862
10.4987
-1.71198
11.5386
-1.69429
12.6829
-1.67663
13.9535
-1.65892
15.373
-1.63961
16.955
18.6874
-2.06951
2.06898
0.221213
0.233491
-2.06922
0.226742
-2.06894
0.239267
-2.06853
0.252333
-2.06813
0.266255
-2.06774
0.280938
-2.06735
0.296283
-2.06684
0.312599
-2.06633
0.329823
-2.06584
0.34798
-2.06536
0.367109
-2.06476
0.387314
-2.06416
0.408607
-2.06359
0.431067
-2.06289
0.454746
-2.0622
0.47972
-2.06153
0.506223
-2.06075
0.533998
-2.05984
0.563301
-2.05909
0.594367
-2.05809
0.626963
-2.05725
0.661631
-2.0563
0.697921
-2.05524
0.736168
-2.05406
0.776812
-2.05306
0.819517
-2.05181
0.864568
-2.05046
0.91203
-2.04915
0.962304
-2.04774
1.01521
-2.04624
1.07111
-2.04478
1.12986
-2.0431
1.19211
-2.04147
1.25773
-2.03977
1.32686
-2.03784
1.39986
-2.03599
1.47677
-2.03379
1.55794
-2.03167
1.64367
-2.0295
1.7342
-2.02714
1.82937
-2.0246
1.93015
-2.02218
2.03623
-2.01958
2.14828
-2.01669
2.26641
-2.01379
2.39104
-2.01074
2.52254
-2.00756
2.66115
-2.00411
2.80755
-2.00069
2.96197
-1.99701
3.12493
-1.99309
3.29655
-1.98908
3.47786
-1.98499
3.66901
-1.98054
3.87059
-1.97575
4.08329
-1.97107
4.30764
-1.96592
4.54436
-1.96059
4.79384
-1.9548
5.05711
-1.94884
5.33475
-1.94241
5.62753
-1.93566
5.93617
-1.92845
6.26152
-1.92078
6.6049
-1.91264
6.96645
-1.90374
7.34747
-1.89455
7.75044
-1.88692
5.93163
-1.87845
6.52412
-1.86929
7.17381
-1.85882
7.89014
-1.84691
8.67552
-1.8333
9.53813
-1.8177
10.4831
-1.80057
11.5214
-1.78254
12.6648
-1.76505
13.936
-1.74795
15.3559
-1.72888
16.936
18.6627
-2.18411
2.18343
0.22189
0.234173
-2.18381
0.226443
-2.18338
0.238834
-2.18295
0.251908
-2.18253
0.265839
-2.18199
0.280389
-2.18159
0.295886
-2.1812
0.312212
-2.18068
0.329305
-2.18004
0.347332
-2.1794
0.366474
-2.17878
0.386692
-2.17817
0.408
-2.17744
0.430333
-2.17672
0.454028
-2.17602
0.47902
-2.1752
0.5054
-2.17439
0.533194
-2.17347
0.562377
-2.17257
0.593465
-2.17169
0.626085
-2.17055
0.660495
-2.16944
0.696813
-2.16837
0.735089
-2.16718
0.775622
-2.16588
0.818218
-2.16461
0.863306
-2.16325
0.910663
-2.16178
0.960836
-2.16036
1.01379
-2.1587
1.06945
-2.15709
1.12825
-2.15524
1.19027
-2.15346
1.25594
-2.15145
1.32485
-2.14951
1.39792
-2.14736
1.47462
-2.14514
1.55572
-2.14285
1.64139
-2.14023
1.73158
-2.13785
1.82698
-2.13514
1.92744
-2.13239
2.03348
-2.12933
2.14522
-2.12626
2.26334
-2.12317
2.38795
-2.11964
2.51902
-2.11627
2.65778
-2.11262
2.8039
-2.1087
2.95806
-2.10467
3.1209
-2.10039
3.29227
-2.09602
3.47349
-2.09114
3.66413
-2.08634
3.86579
-2.0812
4.07816
-2.07574
4.30218
-2.0701
4.53872
-2.06414
4.78789
-2.05788
5.05084
-2.05131
5.32818
-2.04429
5.62051
-2.03682
5.9287
-2.02907
6.25376
-2.02073
6.59656
-2.01181
6.95754
-2.00262
7.33828
-1.99243
7.74025
-1.98436
5.92356
-1.97565
6.51541
-1.96554
7.1637
-1.95444
7.87904
-1.94197
8.66304
-1.92771
9.52388
-1.91164
10.467
-1.89387
11.5037
-1.876
12.647
-1.85882
13.9188
-1.8419
15.339
-1.82396
16.918
18.6425
-2.30357
2.30273
0.222728
0.235018
-2.30314
0.22601
-2.30271
0.238408
-2.30229
0.251489
-2.30188
0.26543
-2.30134
0.279846
-2.30081
0.295353
-2.30028
0.311689
-2.29963
0.32865
-2.29913
0.34683
-2.29849
0.365841
-2.29787
0.386073
-2.29713
0.407252
-2.29639
0.429599
-2.29567
0.453309
-2.29483
0.478174
-2.294
0.504571
-2.29304
0.532241
-2.29211
0.561442
-2.29119
0.592552
-2.29002
0.624908
-2.28886
0.659341
-2.28773
0.695683
-2.28663
0.733986
-2.28527
0.774263
-2.28394
0.81689
-2.28251
0.861867
-2.28096
0.909117
-2.27945
0.959328
-2.2777
1.01203
-2.27599
1.06774
-2.27404
1.1263
-2.27214
1.18837
-2.27016
1.25396
-2.26795
1.32264
-2.26566
1.39563
-2.2633
1.47225
-2.26101
1.55343
-2.25838
1.63876
-2.25569
1.72889
-2.25281
1.8241
-2.24989
1.92452
-2.24679
2.03039
-2.24353
2.14196
-2.24025
2.26006
-2.23653
2.38423
-2.23295
2.51544
-2.22894
2.65377
-2.22495
2.79991
-2.22085
2.95395
-2.21634
3.1164
-2.21174
3.28767
-2.20677
3.46852
-2.20173
3.65909
-2.19635
3.86041
-2.19079
4.07259
-2.18506
4.29644
-2.17887
4.53253
-2.17237
4.78139
-2.16558
5.04405
-2.15849
5.32109
-2.15097
5.61299
-2.14302
5.92075
-2.1345
6.24525
-2.12557
6.58763
-2.11609
6.94805
-2.10593
7.32812
-2.09541
7.72973
-2.087
5.91515
-2.07752
6.50592
-2.06712
7.15329
-2.05542
7.86735
-2.04202
8.64964
-2.02684
9.5087
-2.00981
10.45
-1.99171
11.4856
-1.97322
12.6285
-1.95675
13.9023
-1.94146
15.3237
-1.92026
16.8968
18.6375
-2.42113
2.42031
-2.42068
-2.42023
-2.41979
-2.41922
-2.4188
-2.41824
-2.41756
-2.41702
-2.41636
-2.41571
-2.41493
-2.41417
-2.41342
-2.41255
-2.4117
-2.41072
-2.40976
-2.40883
-2.40764
-2.40661
-2.40547
-2.40422
-2.40286
-2.40153
-2.40009
-2.39856
-2.39706
-2.39532
-2.39364
-2.39186
-2.38999
-2.38804
-2.38587
-2.38376
-2.38144
-2.37906
-2.37647
-2.37383
-2.37114
-2.36826
-2.3652
-2.36197
-2.35872
-2.35516
-2.3516
-2.34775
-2.34376
-2.3395
-2.33498
-2.33036
-2.3255
-2.32042
-2.31512
-2.30949
-2.30368
-2.29741
-2.29097
-2.28424
-2.27707
-2.26947
-2.26145
-2.25302
-2.2442
-2.23469
-2.22482
-2.2143
-2.20318
-2.19403
-2.18403
-2.173
-2.16057
-2.14668
-2.13088
-2.11356
-2.09527
-2.07697
-2.06091
-2.04787
-2.0168
)
;

boundaryField
{
    inlet
    {
        type            calculated;
        value           nonuniform List<scalar> 
23
(
-0.592649
-0.622127
-0.653069
-0.685527
-0.71963
-0.755478
-0.793186
-0.832785
-0.874455
-0.918375
-0.96493
-1.01374
-1.06556
-1.2486
-1.31239
-1.38021
-1.4527
-1.53017
-1.61375
-1.70416
-1.80378
-1.91528
-2.04614
)
;
    }
    outlet
    {
        type            calculated;
        value           nonuniform List<scalar> 
82
(
0.223553
0.225556
0.235849
0.237961
0.25105
0.264857
0.279424
0.294799
0.311003
0.328118
0.346168
0.365192
0.385295
0.406489
0.428852
0.452436
0.47732
0.503594
0.531285
0.560509
0.591358
0.623883
0.658202
0.694431
0.732623
0.772934
0.815455
0.860329
0.907622
0.957592
1.01034
1.06596
1.12443
1.18642
1.25179
1.32053
1.39332
1.46987
1.55085
1.63612
1.7262
1.82123
1.92146
2.02716
2.13871
2.2565
2.38066
2.51159
2.64979
2.79565
2.94943
3.11177
3.28281
3.46344
3.6538
3.85478
4.06678
4.29017
4.52609
4.77466
5.03688
5.31349
5.60497
5.91233
6.23642
6.57813
6.93818
7.3176
7.71861
5.906
6.49592
7.14226
7.85492
8.63575
9.4929
10.4326
11.4673
12.6102
13.8863
15.3107
16.8657
18.6669
)
;
    }
    walls
    {
        type            calculated;
        value           nonuniform List<scalar> 0();
    }
    frontAndBack
    {
        type            empty;
    }
    procBoundary3to2
    {
        type            processor;
        value           nonuniform List<scalar> 
88
(
-17.0044
-18.6871
-14.0149
0.58178
-15.4004
-11.5912
0.604879
-12.7435
-8.70847
-9.58153
0.629944
-10.54
-7.7604
-5.94438
-6.54103
-7.19543
0.652338
-7.91794
-5.92953
-6.25824
-6.60508
-6.97085
0.668688
-7.35651
-4.07026
-4.29517
-4.53288
-4.78358
-5.0483
-5.32789
0.678883
-5.6228
-2.14077
-2.25858
-2.38282
-2.51384
-2.6522
-2.79832
-2.95246
-3.11529
-3.28693
-3.46833
-3.65963
0.678292
-3.86174
-0.227009
-0.23948
-0.252664
-0.266557
-0.281213
-0.296677
-0.312984
-0.330202
-0.348342
-0.367478
-0.387677
-0.408999
-0.431461
-0.45515
-0.480153
-0.506549
-0.53435
-0.563683
-0.594649
-0.627288
-0.661725
-0.698052
-0.736368
-0.776777
-0.819417
-0.86438
-0.911779
-0.961844
-1.01469
-1.07039
-1.12895
-1.19103
-1.25647
-1.32529
-1.39815
-1.47478
-1.55583
-1.64118
-1.73132
-1.82644
-1.92677
0.663555
-2.03257
)
;
    }
    procBoundary3to6
    {
        type            processor;
        value           uniform -0.216715;
    }
    procBoundary3to7
    {
        type            processor;
        value           nonuniform List<scalar> 
16
(
0.650015
0.697181
0.746095
0.796909
0.849809
1.4373
1.53635
1.63764
-0.230731
1.74065
1.84692
1.95601
2.06816
2.18275
2.30188
2.41948
)
;
    }
}


// ************************************************************************* //
