/*--------------------------------*- C++ -*----------------------------------*\
| =========                 |                                                 |
| \\      /  F ield         | OpenFOAM: The Open Source CFD Toolbox           |
|  \\    /   O peration     | Version:  2506                                  |
|   \\  /    A nd           | Website:  www.openfoam.com                      |
|    \\/     M anipulation  |                                                 |
\*---------------------------------------------------------------------------*/
FoamFile
{
    version     2.0;
    format      ascii;
    arch        "LSB;label=32;scalar=64";
    class       volScalarField;
    location    "250";
    object      turbulenceProperties:I;
}
// * * * * * * * * * * * * * * * * * * * * * * * * * * * * * * * * * * * * * //

dimensions      [0 0 0 0 0 0 0];

internalField   nonuniform List<scalar> 
1340
(
2.65926e-05
3.72845e-05
1.25915e-05
2.55181e-05
2.65497e-05
3.72924e-05
1.32207e-05
1.67667e-05
1.24648e-05
2.55587e-05
2.65515e-05
3.72817e-05
1.79723e-05
1.68607e-05
1.63301e-05
1.35364e-05
1.69562e-05
1.23889e-05
2.56025e-05
2.6584e-05
3.72612e-05
2.15019e-05
2.06951e-05
2.00117e-05
1.93544e-05
1.86454e-05
1.79523e-05
1.68968e-05
1.64199e-05
1.38665e-05
1.7136e-05
1.2358e-05
2.56477e-05
2.66364e-05
3.72364e-05
2.54964e-05
2.46785e-05
2.38356e-05
2.29857e-05
2.21222e-05
2.12793e-05
2.05212e-05
1.9881e-05
1.9262e-05
1.85922e-05
1.7936e-05
1.69419e-05
1.65199e-05
1.42055e-05
1.73023e-05
1.23679e-05
2.56897e-05
2.67001e-05
3.72085e-05
2.9775e-05
2.91233e-05
2.84597e-05
2.77879e-05
2.7109e-05
2.64199e-05
2.57131e-05
2.49811e-05
2.42211e-05
2.34374e-05
2.26472e-05
2.1841e-05
2.10523e-05
2.03452e-05
1.97491e-05
1.91694e-05
1.85406e-05
1.79224e-05
1.6995e-05
1.66284e-05
1.45492e-05
1.74525e-05
1.24151e-05
2.57273e-05
2.6768e-05
3.7174e-05
3.45608e-05
3.41622e-05
3.37477e-05
3.33178e-05
3.28735e-05
3.2415e-05
3.19432e-05
3.14583e-05
3.09602e-05
3.04473e-05
2.99178e-05
2.93704e-05
2.88051e-05
2.82224e-05
2.7626e-05
2.70194e-05
2.6403e-05
2.57743e-05
2.51262e-05
2.44529e-05
2.37528e-05
2.30303e-05
2.23017e-05
2.15547e-05
2.08227e-05
2.01681e-05
1.96167e-05
1.90767e-05
1.84903e-05
1.79111e-05
1.70554e-05
1.67441e-05
1.48943e-05
1.75841e-05
1.24964e-05
2.57589e-05
2.68304e-05
3.71373e-05
3.53611e-05
3.6063e-05
3.38945e-05
3.41614e-05
3.40928e-05
3.47511e-05
3.50811e-05
3.53974e-05
3.56658e-05
3.59162e-05
3.6144e-05
3.63479e-05
3.65217e-05
3.66671e-05
3.67907e-05
3.68841e-05
3.69515e-05
3.69941e-05
3.70128e-05
3.70095e-05
3.69847e-05
3.694e-05
3.6878e-05
3.67995e-05
3.67055e-05
3.65967e-05
3.6475e-05
3.63418e-05
3.61967e-05
3.60417e-05
3.58761e-05
3.57006e-05
3.55157e-05
3.53205e-05
3.51159e-05
3.49012e-05
3.46756e-05
3.444e-05
3.4192e-05
3.39316e-05
3.36591e-05
3.33717e-05
3.30701e-05
3.27557e-05
3.24263e-05
3.208e-05
3.17186e-05
3.1343e-05
3.09531e-05
3.05498e-05
3.0134e-05
2.97047e-05
2.92607e-05
2.88005e-05
2.83217e-05
2.78245e-05
2.73099e-05
2.67803e-05
2.62382e-05
2.56844e-05
2.51164e-05
2.45283e-05
2.39154e-05
2.32767e-05
2.26171e-05
2.19512e-05
2.12647e-05
2.05911e-05
1.99904e-05
1.94834e-05
1.89837e-05
1.84406e-05
1.79014e-05
1.71224e-05
1.68662e-05
1.52386e-05
1.76959e-05
1.26077e-05
2.57799e-05
2.68834e-05
3.71008e-05
3.57497e-05
3.22082e-05
3.08722e-05
3.20014e-05
3.22195e-05
3.26268e-05
3.28494e-05
3.31004e-05
3.33197e-05
3.35258e-05
3.37109e-05
3.3874e-05
3.40145e-05
3.41326e-05
3.4231e-05
3.43047e-05
3.43576e-05
3.43917e-05
3.44055e-05
3.44013e-05
3.43809e-05
3.43446e-05
3.4294e-05
3.42306e-05
3.41544e-05
3.40669e-05
3.39702e-05
3.38635e-05
3.37484e-05
3.36256e-05
3.34946e-05
3.33563e-05
3.32102e-05
3.30569e-05
3.28959e-05
3.27265e-05
3.25491e-05
3.23628e-05
3.21664e-05
3.19594e-05
3.17412e-05
3.15112e-05
3.1267e-05
3.10092e-05
3.07388e-05
3.0453e-05
3.01533e-05
2.98396e-05
2.95126e-05
2.91731e-05
2.88215e-05
2.84572e-05
2.80789e-05
2.76851e-05
2.72732e-05
2.68429e-05
2.63944e-05
2.59298e-05
2.54512e-05
2.4959e-05
2.44515e-05
2.39236e-05
2.33718e-05
2.27956e-05
2.21998e-05
2.15974e-05
2.09722e-05
2.03586e-05
1.98123e-05
1.93494e-05
1.88901e-05
1.83912e-05
1.78933e-05
1.71955e-05
1.69939e-05
1.55793e-05
1.77871e-05
1.27403e-05
2.57959e-05
2.69197e-05
3.70711e-05
3.13894e-05
2.98406e-05
2.93151e-05
3.03611e-05
3.04258e-05
3.06908e-05
3.08633e-05
3.10552e-05
3.12253e-05
3.13826e-05
3.15197e-05
3.16439e-05
3.17488e-05
3.18358e-05
3.19059e-05
3.19585e-05
3.19938e-05
3.20155e-05
3.20213e-05
3.20119e-05
3.19915e-05
3.19589e-05
3.19152e-05
3.18599e-05
3.17968e-05
3.17255e-05
3.16461e-05
3.15603e-05
3.14684e-05
3.13707e-05
3.12673e-05
3.11589e-05
3.10446e-05
3.09251e-05
3.08003e-05
3.06693e-05
3.05318e-05
3.03872e-05
3.02346e-05
3.00727e-05
2.99016e-05
2.97205e-05
2.95265e-05
2.93209e-05
2.91027e-05
2.88705e-05
2.86259e-05
2.83683e-05
2.80986e-05
2.78179e-05
2.75261e-05
2.72229e-05
2.69071e-05
2.65766e-05
2.62285e-05
2.58625e-05
2.54779e-05
2.50761e-05
2.46592e-05
2.42279e-05
2.37804e-05
2.3313e-05
2.28227e-05
2.231e-05
2.17788e-05
2.12402e-05
2.0677e-05
2.01248e-05
1.96331e-05
1.92134e-05
1.87953e-05
1.83412e-05
1.78862e-05
1.72744e-05
1.71269e-05
1.59139e-05
1.78586e-05
1.28928e-05
2.57894e-05
2.69505e-05
3.70536e-05
2.92264e-05
2.84668e-05
2.80143e-05
2.87615e-05
2.87492e-05
2.89439e-05
2.9067e-05
2.92027e-05
2.9321e-05
2.94303e-05
2.95252e-05
2.96097e-05
2.96801e-05
2.9737e-05
2.97812e-05
2.98132e-05
2.98316e-05
2.98404e-05
2.98374e-05
2.98234e-05
2.98012e-05
2.977e-05
2.97299e-05
2.9682e-05
2.96297e-05
2.95698e-05
2.95052e-05
2.94372e-05
2.93639e-05
2.92872e-05
2.92066e-05
2.91232e-05
2.90351e-05
2.89444e-05
2.88497e-05
2.87505e-05
2.86467e-05
2.85373e-05
2.84211e-05
2.82978e-05
2.81668e-05
2.80269e-05
2.78765e-05
2.7715e-05
2.75418e-05
2.73569e-05
2.71606e-05
2.69529e-05
2.67351e-05
2.65076e-05
2.62709e-05
2.60243e-05
2.57669e-05
2.54953e-05
2.52075e-05
2.49022e-05
2.45773e-05
2.42355e-05
2.3878e-05
2.35049e-05
2.31162e-05
2.27085e-05
2.2279e-05
2.18292e-05
2.1362e-05
2.08863e-05
2.0385e-05
1.98939e-05
1.94559e-05
1.90782e-05
1.87009e-05
1.82918e-05
1.78816e-05
1.73591e-05
1.72652e-05
1.62354e-05
1.79132e-05
1.30339e-05
2.57693e-05
2.69549e-05
3.70745e-05
2.77588e-05
2.70487e-05
2.6563e-05
2.71216e-05
2.70798e-05
2.72123e-05
2.72844e-05
2.73682e-05
2.74373e-05
2.75046e-05
2.75612e-05
2.76097e-05
2.76506e-05
2.76801e-05
2.77022e-05
2.7717e-05
2.77212e-05
2.77179e-05
2.7708e-05
2.76902e-05
2.76665e-05
2.76361e-05
2.76e-05
2.75602e-05
2.75159e-05
2.74675e-05
2.74183e-05
2.73655e-05
2.73092e-05
2.72509e-05
2.71931e-05
2.71319e-05
2.70695e-05
2.70035e-05
2.69363e-05
2.68695e-05
2.67947e-05
2.67172e-05
2.66355e-05
2.65485e-05
2.64535e-05
2.63528e-05
2.62421e-05
2.61204e-05
2.59909e-05
2.58493e-05
2.56984e-05
2.55387e-05
2.53693e-05
2.51935e-05
2.50095e-05
2.48173e-05
2.46168e-05
2.44025e-05
2.41726e-05
2.39269e-05
2.36608e-05
2.3377e-05
2.30788e-05
2.27636e-05
2.24336e-05
2.20873e-05
2.17198e-05
2.13342e-05
2.09325e-05
2.05215e-05
2.00833e-05
1.96553e-05
1.92719e-05
1.8937e-05
1.86016e-05
1.82392e-05
1.78784e-05
1.74504e-05
1.74129e-05
1.6554e-05
1.79501e-05
1.32983e-05
2.56739e-05
2.70115e-05
3.70976e-05
2.59655e-05
2.53164e-05
2.48281e-05
2.52406e-05
2.51528e-05
2.52202e-05
2.52331e-05
2.52518e-05
2.52825e-05
2.52967e-05
2.53095e-05
2.53301e-05
2.5335e-05
2.53343e-05
2.53383e-05
2.53378e-05
2.53201e-05
2.53113e-05
2.5294e-05
2.5272e-05
2.52501e-05
2.52184e-05
2.51913e-05
2.51623e-05
2.51267e-05
2.50939e-05
2.50612e-05
2.50267e-05
2.49921e-05
2.49539e-05
2.49224e-05
2.48894e-05
2.48539e-05
2.48151e-05
2.47838e-05
2.47494e-05
2.47079e-05
2.46656e-05
2.46226e-05
2.45753e-05
2.45195e-05
2.44628e-05
2.43918e-05
2.43156e-05
2.42343e-05
2.4138e-05
2.4038e-05
2.39318e-05
2.38148e-05
2.36973e-05
2.35726e-05
2.34402e-05
2.33047e-05
2.31542e-05
2.29886e-05
2.28088e-05
2.26096e-05
2.23904e-05
2.21588e-05
2.19112e-05
2.16494e-05
2.13738e-05
2.1079e-05
2.07686e-05
2.04427e-05
2.01057e-05
1.97405e-05
1.93855e-05
1.9063e-05
1.87756e-05
1.84884e-05
1.81807e-05
1.7879e-05
1.75641e-05
1.75771e-05
1.69202e-05
1.79053e-05
1.38017e-05
2.54126e-05
2.68714e-05
3.64458e-05
2.39247e-05
2.34411e-05
2.30035e-05
2.324e-05
2.31095e-05
2.31059e-05
2.30522e-05
2.30176e-05
2.29977e-05
2.29609e-05
2.29361e-05
2.29203e-05
2.28897e-05
2.28618e-05
2.28474e-05
2.28254e-05
2.27913e-05
2.27763e-05
2.27464e-05
2.27247e-05
2.27045e-05
2.26701e-05
2.26521e-05
2.26354e-05
2.26075e-05
2.25902e-05
2.25706e-05
2.25542e-05
2.25427e-05
2.25264e-05
2.25158e-05
2.25108e-05
2.25003e-05
2.2491e-05
2.24923e-05
2.24848e-05
2.24776e-05
2.24706e-05
2.24637e-05
2.24516e-05
2.24367e-05
2.24171e-05
2.23871e-05
2.23581e-05
2.23178e-05
2.22707e-05
2.22229e-05
2.21692e-05
2.21099e-05
2.20517e-05
2.1991e-05
2.19236e-05
2.1855e-05
2.17731e-05
2.16772e-05
2.15667e-05
2.1438e-05
2.12908e-05
2.11321e-05
2.09599e-05
2.07757e-05
2.05794e-05
2.03674e-05
2.01413e-05
1.98992e-05
1.96443e-05
1.93615e-05
1.90869e-05
1.88303e-05
1.8595e-05
1.83623e-05
1.81176e-05
1.78888e-05
1.77008e-05
1.77683e-05
1.73009e-05
1.78321e-05
1.43299e-05
2.53829e-05
2.67416e-05
3.64029e-05
2.20258e-05
2.16558e-05
2.12385e-05
2.13545e-05
2.11965e-05
2.11231e-05
2.10316e-05
2.09673e-05
2.08847e-05
2.08237e-05
2.07749e-05
2.07172e-05
2.06643e-05
2.06201e-05
2.05871e-05
2.05406e-05
2.05072e-05
2.04785e-05
2.04398e-05
2.0421e-05
2.04e-05
2.03687e-05
2.03557e-05
2.03435e-05
2.03235e-05
2.03221e-05
2.03127e-05
2.0308e-05
2.03138e-05
2.03165e-05
2.03214e-05
2.03376e-05
2.03472e-05
2.03613e-05
2.03846e-05
2.04e-05
2.04188e-05
2.04404e-05
2.04598e-05
2.04754e-05
2.0492e-05
2.05007e-05
2.05077e-05
2.05133e-05
2.05082e-05
2.05049e-05
2.0501e-05
2.04934e-05
2.04865e-05
2.04808e-05
2.04777e-05
2.04698e-05
2.04587e-05
2.04402e-05
2.0406e-05
2.03583e-05
2.02947e-05
2.02145e-05
2.01259e-05
2.0026e-05
1.99164e-05
1.97982e-05
1.96668e-05
1.95214e-05
1.93614e-05
1.91865e-05
1.89848e-05
1.87886e-05
1.85959e-05
1.84132e-05
1.82375e-05
1.80594e-05
1.79127e-05
1.78513e-05
1.79785e-05
1.76543e-05
1.77956e-05
1.48356e-05
2.54803e-05
2.63719e-05
3.63796e-05
2.03475e-05
1.94345e-05
1.99529e-05
1.95319e-05
1.95987e-05
1.94032e-05
1.92871e-05
1.91789e-05
1.90777e-05
1.89709e-05
1.88851e-05
1.88134e-05
1.87382e-05
1.86671e-05
1.8612e-05
1.85661e-05
1.85071e-05
1.8473e-05
1.84372e-05
1.8401e-05
1.83828e-05
1.83579e-05
1.83416e-05
1.83301e-05
1.83233e-05
1.83197e-05
1.83253e-05
1.83308e-05
1.83385e-05
1.83598e-05
1.83791e-05
1.83994e-05
1.84343e-05
1.84609e-05
1.84955e-05
1.85381e-05
1.8572e-05
1.86143e-05
1.86583e-05
1.86981e-05
1.87392e-05
1.87785e-05
1.88143e-05
1.88504e-05
1.88823e-05
1.89132e-05
1.89448e-05
1.89777e-05
1.90123e-05
1.90498e-05
1.90896e-05
1.91341e-05
1.91758e-05
1.92132e-05
1.92457e-05
1.92621e-05
1.92671e-05
1.9259e-05
1.92365e-05
1.92087e-05
1.91733e-05
1.91303e-05
1.90816e-05
1.90214e-05
1.89482e-05
1.88616e-05
1.87591e-05
1.86313e-05
1.85062e-05
1.83718e-05
1.82394e-05
1.81207e-05
1.80107e-05
1.79519e-05
1.80118e-05
1.81952e-05
1.79676e-05
1.7788e-05
1.54318e-05
2.564e-05
2.5896e-05
3.63483e-05
1.86343e-05
1.77423e-05
1.82926e-05
1.78794e-05
1.79118e-05
1.76984e-05
1.7572e-05
1.7434e-05
1.73183e-05
1.72076e-05
1.70982e-05
1.7013e-05
1.69301e-05
1.68572e-05
1.67922e-05
1.67341e-05
1.668e-05
1.66429e-05
1.66094e-05
1.65764e-05
1.65552e-05
1.65367e-05
1.65353e-05
1.65263e-05
1.65303e-05
1.65386e-05
1.65513e-05
1.65763e-05
1.65957e-05
1.66297e-05
1.66633e-05
1.6703e-05
1.67507e-05
1.67944e-05
1.68475e-05
1.69061e-05
1.69615e-05
1.70201e-05
1.70846e-05
1.71449e-05
1.72068e-05
1.72694e-05
1.73283e-05
1.73906e-05
1.74513e-05
1.75142e-05
1.75787e-05
1.76457e-05
1.77194e-05
1.77969e-05
1.78762e-05
1.79611e-05
1.80446e-05
1.81222e-05
1.81969e-05
1.82561e-05
1.83051e-05
1.83449e-05
1.83737e-05
1.83996e-05
1.84207e-05
1.84369e-05
1.84484e-05
1.8451e-05
1.84413e-05
1.84188e-05
1.83812e-05
1.832e-05
1.82582e-05
1.81768e-05
1.80928e-05
1.80298e-05
1.79881e-05
1.80196e-05
1.81912e-05
1.84206e-05
1.82517e-05
1.78311e-05
1.62008e-05
2.58623e-05
2.53324e-05
3.63278e-05
1.70073e-05
1.61721e-05
1.66807e-05
1.62784e-05
1.62762e-05
1.60628e-05
1.59254e-05
1.57801e-05
1.56641e-05
1.55373e-05
1.54324e-05
1.53478e-05
1.52596e-05
1.51897e-05
1.51278e-05
1.50674e-05
1.50262e-05
1.49912e-05
1.49643e-05
1.49369e-05
1.4925e-05
1.49233e-05
1.49219e-05
1.49292e-05
1.49479e-05
1.49624e-05
1.49941e-05
1.5032e-05
1.50621e-05
1.51114e-05
1.51581e-05
1.52144e-05
1.52743e-05
1.53312e-05
1.54005e-05
1.54754e-05
1.55422e-05
1.56175e-05
1.5698e-05
1.57732e-05
1.58516e-05
1.59356e-05
1.60132e-05
1.60964e-05
1.61852e-05
1.62719e-05
1.63658e-05
1.64625e-05
1.65677e-05
1.66763e-05
1.67871e-05
1.69048e-05
1.70189e-05
1.71286e-05
1.72365e-05
1.73309e-05
1.74175e-05
1.74989e-05
1.75731e-05
1.76465e-05
1.77166e-05
1.77848e-05
1.78498e-05
1.79062e-05
1.79525e-05
1.79867e-05
1.80062e-05
1.80042e-05
1.79971e-05
1.79634e-05
1.79272e-05
1.7921e-05
1.79498e-05
1.80735e-05
1.83434e-05
1.85967e-05
1.84429e-05
1.78661e-05
1.70439e-05
2.6138e-05
2.46271e-05
3.6353e-05
1.55326e-05
1.4774e-05
1.52637e-05
1.48813e-05
1.48683e-05
1.46648e-05
1.45187e-05
1.43921e-05
1.42761e-05
1.41554e-05
1.40648e-05
1.39854e-05
1.39074e-05
1.38418e-05
1.37933e-05
1.37436e-05
1.37143e-05
1.36898e-05
1.3665e-05
1.36518e-05
1.36539e-05
1.36612e-05
1.36634e-05
1.36794e-05
1.37148e-05
1.37346e-05
1.37736e-05
1.38199e-05
1.38621e-05
1.39166e-05
1.3975e-05
1.40391e-05
1.41079e-05
1.41766e-05
1.42568e-05
1.43399e-05
1.44184e-05
1.45089e-05
1.46005e-05
1.46935e-05
1.47862e-05
1.48904e-05
1.49899e-05
1.50957e-05
1.52091e-05
1.53189e-05
1.54416e-05
1.55636e-05
1.56931e-05
1.58265e-05
1.59622e-05
1.61023e-05
1.62389e-05
1.63751e-05
1.65075e-05
1.66315e-05
1.67514e-05
1.68679e-05
1.69805e-05
1.70936e-05
1.72041e-05
1.73144e-05
1.74224e-05
1.75219e-05
1.76151e-05
1.76968e-05
1.77644e-05
1.7814e-05
1.78564e-05
1.78681e-05
1.78749e-05
1.79162e-05
1.80031e-05
1.8203e-05
1.85433e-05
1.88014e-05
1.86639e-05
1.81023e-05
1.82192e-05
2.65693e-05
2.39506e-05
3.65658e-05
1.41073e-05
1.33665e-05
1.38207e-05
1.34262e-05
1.3435e-05
1.3228e-05
1.30977e-05
1.298e-05
1.28582e-05
1.2755e-05
1.26866e-05
1.26218e-05
1.25615e-05
1.25085e-05
1.2477e-05
1.24571e-05
1.24445e-05
1.24329e-05
1.24237e-05
1.24457e-05
1.2459e-05
1.24792e-05
1.25039e-05
1.25321e-05
1.2585e-05
1.26223e-05
1.26702e-05
1.27253e-05
1.27855e-05
1.28492e-05
1.29128e-05
1.29905e-05
1.30616e-05
1.31405e-05
1.32278e-05
1.33119e-05
1.33998e-05
1.34907e-05
1.35922e-05
1.36912e-05
1.37894e-05
1.39019e-05
1.40119e-05
1.41268e-05
1.42468e-05
1.4371e-05
1.45007e-05
1.4632e-05
1.47689e-05
1.49085e-05
1.50529e-05
1.51975e-05
1.53442e-05
1.54918e-05
1.56363e-05
1.57788e-05
1.59211e-05
1.60626e-05
1.62025e-05
1.63456e-05
1.64871e-05
1.66305e-05
1.67723e-05
1.69078e-05
1.7039e-05
1.71588e-05
1.72653e-05
1.73544e-05
1.74266e-05
1.74667e-05
1.75181e-05
1.76187e-05
1.77844e-05
1.80816e-05
1.84833e-05
1.86895e-05
1.84682e-05
1.79417e-05
1.89339e-05
2.68132e-05
2.27745e-05
3.69409e-05
1.32172e-05
1.26007e-05
1.29824e-05
1.26695e-05
1.26468e-05
1.24931e-05
1.24076e-05
1.23335e-05
1.22469e-05
1.21865e-05
1.21603e-05
1.2135e-05
1.2111e-05
1.20864e-05
1.20872e-05
1.20968e-05
1.21045e-05
1.21163e-05
1.21271e-05
1.21669e-05
1.21956e-05
1.22208e-05
1.22585e-05
1.22987e-05
1.23511e-05
1.23966e-05
1.24505e-05
1.25053e-05
1.25697e-05
1.26372e-05
1.2703e-05
1.27849e-05
1.28601e-05
1.29482e-05
1.30409e-05
1.31363e-05
1.32373e-05
1.33421e-05
1.34608e-05
1.35744e-05
1.3697e-05
1.38258e-05
1.39544e-05
1.40863e-05
1.42215e-05
1.43587e-05
1.44922e-05
1.46303e-05
1.47672e-05
1.49057e-05
1.50503e-05
1.51958e-05
1.53485e-05
1.55031e-05
1.56611e-05
1.58195e-05
1.59779e-05
1.61352e-05
1.62875e-05
1.64403e-05
1.65898e-05
1.67408e-05
1.68912e-05
1.70389e-05
1.71845e-05
1.73215e-05
1.74503e-05
1.75686e-05
1.7683e-05
1.77677e-05
1.78372e-05
1.7937e-05
1.80898e-05
1.83613e-05
1.87223e-05
1.88927e-05
1.8796e-05
1.87844e-05
2.08353e-05
2.75305e-05
2.31185e-05
3.86681e-05
1.05634e-05
1.03125e-05
1.05112e-05
1.04533e-05
1.03998e-05
1.03313e-05
1.02918e-05
1.02772e-05
1.02848e-05
1.03074e-05
1.03337e-05
1.0376e-05
1.04302e-05
1.04873e-05
1.05489e-05
1.06117e-05
1.06829e-05
1.07538e-05
1.08239e-05
1.08999e-05
1.09709e-05
1.10459e-05
1.11179e-05
1.11907e-05
1.12661e-05
1.13405e-05
1.14141e-05
1.1486e-05
1.15634e-05
1.16374e-05
1.1714e-05
1.17929e-05
1.18698e-05
1.19531e-05
1.20343e-05
1.21204e-05
1.22068e-05
1.22952e-05
1.23869e-05
1.24762e-05
1.25704e-05
1.26632e-05
1.27552e-05
1.28465e-05
1.29392e-05
1.30287e-05
1.31179e-05
1.32106e-05
1.33042e-05
1.34048e-05
1.3511e-05
1.36248e-05
1.37474e-05
1.38742e-05
1.40082e-05
1.41448e-05
1.42863e-05
1.44302e-05
1.45762e-05
1.47302e-05
1.48876e-05
1.50516e-05
1.52186e-05
1.53861e-05
1.55523e-05
1.5709e-05
1.58558e-05
1.5986e-05
1.60612e-05
1.60938e-05
1.6201e-05
1.64193e-05
1.6754e-05
1.72505e-05
1.77065e-05
1.76653e-05
1.71594e-05
1.73398e-05
2.05718e-05
2.53688e-05
2.19673e-05
3.86603e-05
)
;

boundaryField
{
    inlet
    {
        type            calculated;
        value           nonuniform List<scalar> 
23
(
7.59943e-05
7.57868e-05
7.5585e-05
7.53882e-05
7.51923e-05
7.49932e-05
7.47855e-05
7.4565e-05
7.43264e-05
7.40644e-05
7.37722e-05
7.34511e-05
7.30827e-05
7.25186e-05
7.20458e-05
7.14688e-05
7.07465e-05
6.98589e-05
6.87785e-05
6.74891e-05
6.59174e-05
6.4669e-05
6.22252e-05
)
;
    }
    outlet
    {
        type            calculated;
        value           nonuniform List<scalar> 
82
(
9.66814e-06
9.5911e-06
9.31179e-06
9.49279e-06
9.40036e-06
9.28556e-06
9.20847e-06
9.16648e-06
9.15468e-06
9.16405e-06
9.17981e-06
9.21798e-06
9.27361e-06
9.33302e-06
9.39924e-06
9.46731e-06
9.54658e-06
9.62565e-06
9.70308e-06
9.78888e-06
9.86735e-06
9.95057e-06
1.00301e-05
1.01099e-05
1.01929e-05
1.02739e-05
1.03535e-05
1.04301e-05
1.05134e-05
1.05914e-05
1.06718e-05
1.07545e-05
1.0833e-05
1.09191e-05
1.1001e-05
1.10877e-05
1.11737e-05
1.12608e-05
1.1351e-05
1.14367e-05
1.15281e-05
1.16167e-05
1.1704e-05
1.17903e-05
1.18786e-05
1.19635e-05
1.20486e-05
1.21391e-05
1.2231e-05
1.23318e-05
1.24387e-05
1.25535e-05
1.26771e-05
1.28031e-05
1.29359e-05
1.30708e-05
1.32117e-05
1.33578e-05
1.35096e-05
1.36752e-05
1.38483e-05
1.40311e-05
1.42178e-05
1.44042e-05
1.45882e-05
1.47592e-05
1.4915e-05
1.50437e-05
1.50968e-05
1.5106e-05
1.52244e-05
1.54922e-05
1.59196e-05
1.65431e-05
1.70925e-05
1.70057e-05
1.62157e-05
1.6059e-05
1.94835e-05
2.4887e-05
1.98083e-05
3.68175e-05
)
;
    }
    walls
    {
        type            calculated;
        value           nonuniform List<scalar> 0();
    }
    frontAndBack
    {
        type            empty;
    }
    procBoundary3to2
    {
        type            processor;
        value           nonuniform List<scalar> 
88
(
2.66897e-05
3.72685e-05
1.27674e-05
2.54714e-05
2.54714e-05
1.29242e-05
1.657e-05
1.657e-05
1.79985e-05
1.6836e-05
1.62536e-05
1.62536e-05
2.17207e-05
2.08677e-05
2.01423e-05
1.94476e-05
1.87013e-05
1.87013e-05
2.59958e-05
2.51224e-05
2.42228e-05
2.33155e-05
2.23966e-05
2.23966e-05
3.07264e-05
3.00061e-05
2.92755e-05
2.8539e-05
2.77981e-05
2.70498e-05
2.62855e-05
2.62855e-05
3.64089e-05
3.59335e-05
3.54426e-05
3.49372e-05
3.44174e-05
3.38847e-05
3.33396e-05
3.2782e-05
3.22121e-05
3.16277e-05
3.10276e-05
3.04101e-05
3.04101e-05
3.14646e-05
3.77108e-05
3.838e-05
3.65955e-05
3.70667e-05
3.75815e-05
3.79966e-05
3.83332e-05
3.86257e-05
3.88838e-05
3.91233e-05
3.9327e-05
3.94964e-05
3.96371e-05
3.97433e-05
3.9821e-05
3.98675e-05
3.9884e-05
3.98747e-05
3.98392e-05
3.97803e-05
3.96996e-05
3.95978e-05
3.94778e-05
3.93414e-05
3.9187e-05
3.90181e-05
3.88357e-05
3.864e-05
3.84316e-05
3.82102e-05
3.79778e-05
3.77325e-05
3.74747e-05
3.72059e-05
3.69233e-05
3.66284e-05
3.63202e-05
3.59972e-05
3.56603e-05
3.53087e-05
3.49427e-05
3.49427e-05
)
;
    }
    procBoundary3to6
    {
        type            processor;
        value           uniform 2.13623e-06;
    }
    procBoundary3to7
    {
        type            processor;
        value           nonuniform List<scalar> 
16
(
6.91073e-06
3.03489e-05
3.06252e-05
2.72414e-05
2.5747e-05
2.44781e-05
2.28893e-05
2.12709e-05
2.12709e-05
1.91188e-05
1.74183e-05
1.58351e-05
1.44465e-05
1.30556e-05
1.22956e-05
1.0205e-05
)
;
    }
}


// ************************************************************************* //
