# Force and moment coefficients
# dragDir     : (1.000000e+00 0.000000e+00 0.000000e+00)
# sideDir     : (0.000000e+00 0.000000e+00 -1.000000e+00)
# liftDir     : (0.000000e+00 1.000000e+00 0.000000e+00)
# rollAxis    : (1.000000e+00 0.000000e+00 0.000000e+00)
# pitchAxis   : (0.000000e+00 0.000000e+00 -1.000000e+00)
# yawAxis     : (0.000000e+00 1.000000e+00 0.000000e+00)
# magUInf     : 1.000000e+00
# lRef        : 1.000000e+00
# Aref        : 1.000000e+00
# CofR        : (0.000000e+00 0.000000e+00 0.000000e+00)
#
# Time        	Cd            	Cd(f)         	Cd(r)         	Cl            	Cl(f)         	Cl(r)         	CmPitch       	CmRoll        	CmYaw         	Cs            	Cs(f)         	Cs(r)         
150.053165661066259	1.504765e+00	7.523825e-01	7.523825e-01	-1.056154e+00	-5.288803e-01	-5.272740e-01	-8.031298e-04	8.087398e-20	-7.734820e-21	2.976005e-19	1.410655e-19	1.565351e-19
150.106674526601694	1.518859e+00	7.594295e-01	7.594295e-01	-1.110442e+00	-5.559902e-01	-5.544520e-01	-7.691001e-04	8.445537e-20	-8.094918e-21	3.006353e-19	1.422227e-19	1.584126e-19
150.159506515536691	1.541289e+00	7.706446e-01	7.706446e-01	-1.145251e+00	-5.733543e-01	-5.718963e-01	-7.290184e-04	8.687745e-20	-8.015176e-21	3.039692e-19	1.439694e-19	1.599998e-19
150.211718543562256	1.573695e+00	7.868477e-01	7.868477e-01	-1.180743e+00	-5.910515e-01	-5.896912e-01	-6.801447e-04	8.905350e-20	-8.222444e-21	3.060667e-19	1.448109e-19	1.612558e-19
150.263370881103185	1.597183e+00	7.985914e-01	7.985914e-01	-1.212976e+00	-6.071136e-01	-6.058625e-01	-6.255204e-04	9.114652e-20	-9.092853e-21	3.060598e-19	1.439370e-19	1.621227e-19
150.314485499680444	1.621691e+00	8.108453e-01	8.108453e-01	-1.239664e+00	-6.203967e-01	-6.192669e-01	-5.648876e-04	9.235383e-20	-1.051046e-20	3.035565e-19	1.412678e-19	1.622887e-19
150.365115639096047	1.640943e+00	8.204716e-01	8.204716e-01	-1.258719e+00	-6.298610e-01	-6.288577e-01	-5.016609e-04	9.317595e-20	-1.148917e-20	3.024930e-19	1.397573e-19	1.627357e-19
150.415322570458414	1.657523e+00	8.287613e-01	8.287613e-01	-1.259802e+00	-6.303366e-01	-6.294656e-01	-4.355049e-04	9.305871e-20	-1.248456e-20	3.013614e-19	1.381961e-19	1.631652e-19
150.46516780599714	1.668921e+00	8.344605e-01	8.344605e-01	-1.266075e+00	-6.334048e-01	-6.326701e-01	-3.673812e-04	9.346381e-20	-1.400383e-20	2.998401e-19	1.359162e-19	1.639239e-19
150.51470675004623	1.686715e+00	8.433576e-01	8.433576e-01	-1.267631e+00	-6.341119e-01	-6.335188e-01	-2.965306e-04	9.281125e-20	-1.387197e-20	3.009051e-19	1.365806e-19	1.643245e-19
150.563988162853462	1.706116e+00	8.530579e-01	8.530579e-01	-1.266028e+00	-6.332416e-01	-6.327862e-01	-2.277272e-04	9.241920e-20	-1.452596e-20	3.004752e-19	1.357116e-19	1.647636e-19
150.613053946248868	1.721033e+00	8.605165e-01	8.605165e-01	-1.256676e+00	-6.284999e-01	-6.281761e-01	-1.619181e-04	9.170743e-20	-1.511271e-20	2.997021e-19	1.347384e-19	1.649638e-19
150.661939359920012	1.732684e+00	8.663418e-01	8.663418e-01	-1.242259e+00	-6.212262e-01	-6.210330e-01	-9.657378e-05	9.067218e-20	-1.551681e-20	3.001763e-19	1.345714e-19	1.656050e-19
150.710675152468809	1.743528e+00	8.717640e-01	8.717640e-01	-1.223858e+00	-6.119612e-01	-6.118967e-01	-3.223524e-05	8.929503e-20	-1.579558e-20	3.005989e-19	1.345039e-19	1.660950e-19
150.759287504641776	1.740755e+00	8.703773e-01	8.703773e-01	-1.195905e+00	-5.979214e-01	-5.979833e-01	3.098527e-05	8.737697e-20	-1.617126e-20	2.988418e-19	1.332497e-19	1.655922e-19
150.807803771370772	1.749917e+00	8.749587e-01	8.749587e-01	-1.165906e+00	-5.828629e-01	-5.830427e-01	8.989148e-05	8.540919e-20	-1.646129e-20	2.993027e-19	1.331900e-19	1.661126e-19
150.856247350559158	1.750265e+00	8.751324e-01	8.751324e-01	-1.137395e+00	-5.685513e-01	-5.688438e-01	1.462277e-04	8.361528e-20	-1.662215e-20	2.994605e-19	1.331081e-19	1.663524e-19
150.904636850530153	1.747817e+00	8.739083e-01	8.739083e-01	-1.101962e+00	-5.507841e-01	-5.511775e-01	1.966819e-04	8.131918e-20	-1.664427e-20	3.002505e-19	1.334810e-19	1.667695e-19
150.952991091081827	1.743644e+00	8.718221e-01	8.718221e-01	-1.062509e+00	-5.310086e-01	-5.315001e-01	2.457635e-04	7.888461e-20	-1.641830e-20	3.017627e-19	1.344630e-19	1.672996e-19
151.001333086949927	1.745782e+00	8.728911e-01	8.728911e-01	-1.022864e+00	-5.111420e-01	-5.117219e-01	2.899584e-04	7.653013e-20	-1.605375e-20	3.046721e-19	1.362823e-19	1.683898e-19
151.049690162857843	1.740132e+00	8.700658e-01	8.700658e-01	-9.702250e-01	-4.847910e-01	-4.854340e-01	3.215336e-04	7.345272e-20	-1.624870e-20	3.052711e-19	1.363868e-19	1.688842e-19
151.098098700833674	1.735149e+00	8.675745e-01	8.675745e-01	-9.168256e-01	-4.580604e-01	-4.587652e-01	3.524269e-04	7.043713e-20	-1.640174e-20	3.071089e-19	1.371527e-19	1.699562e-19
151.146592232184446	1.728860e+00	8.644300e-01	8.644300e-01	-8.651738e-01	-4.322032e-01	-4.329706e-01	3.836577e-04	6.758271e-20	-1.648258e-20	3.079732e-19	1.375040e-19	1.704692e-19
151.195194076838675	1.716125e+00	8.580625e-01	8.580625e-01	-8.069793e-01	-4.030808e-01	-4.038986e-01	4.089154e-04	6.438082e-20	-1.654943e-20	3.098690e-19	1.383851e-19	1.714839e-19
151.243921663371822	1.691265e+00	8.456326e-01	8.456326e-01	-7.312684e-01	-3.652072e-01	-3.660611e-01	4.269678e-04	6.001013e-20	-1.679423e-20	3.109369e-19	1.386742e-19	1.722627e-19
151.292794403474034	1.661559e+00	8.307794e-01	8.307794e-01	-6.648818e-01	-3.319973e-01	-3.328845e-01	4.436003e-04	5.639362e-20	-1.728340e-20	3.118489e-19	1.386411e-19	1.732079e-19
151.3418297577266	1.634041e+00	8.170205e-01	8.170205e-01	-5.819873e-01	-2.905305e-01	-2.914568e-01	4.631145e-04	5.198036e-20	-1.794478e-20	3.127118e-19	1.384111e-19	1.743007e-19
151.391046023489508	1.612612e+00	8.063058e-01	8.063058e-01	-4.988523e-01	-2.489395e-01	-2.499128e-01	4.866315e-04	4.821094e-20	-1.890154e-20	3.123912e-19	1.372941e-19	1.750972e-19
151.440422059155054	1.583245e+00	7.916224e-01	7.916224e-01	-3.987016e-01	-1.988414e-01	-1.998602e-01	5.094236e-04	4.316882e-20	-1.960276e-20	3.141096e-19	1.374520e-19	1.766576e-19
151.489980682881964	1.562243e+00	7.811217e-01	7.811217e-01	-3.064072e-01	-1.526605e-01	-1.537467e-01	5.431302e-04	3.928867e-20	-2.026234e-20	3.133982e-19	1.364367e-19	1.769614e-19
151.539746983820038	1.539913e+00	7.699567e-01	7.699567e-01	-2.076455e-01	-1.032342e-01	-1.044113e-01	5.885805e-04	3.491457e-20	-2.084370e-20	3.121097e-19	1.352112e-19	1.768986e-19
151.589743664469495	1.521017e+00	7.605085e-01	7.605085e-01	-9.004867e-02	-4.438274e-02	-4.566594e-02	6.415999e-04	2.958226e-20	-2.093567e-20	3.137012e-19	1.359150e-19	1.777863e-19
151.639994859980078	1.496219e+00	7.481094e-01	7.481094e-01	3.270616e-02	1.704484e-02	1.566131e-02	6.917644e-04	2.532532e-20	-2.437026e-20	3.076155e-19	1.294375e-19	1.781780e-19
151.6905299177252	1.483297e+00	7.416483e-01	7.416483e-01	1.431176e-01	7.230035e-02	7.081725e-02	7.415507e-04	1.925966e-20	-2.309324e-20	3.109728e-19	1.323932e-19	1.785796e-19
151.741377696631105	1.479401e+00	7.397004e-01	7.397004e-01	2.630489e-01	1.323083e-01	1.307406e-01	7.838334e-04	1.153367e-20	-1.972339e-20	3.192179e-19	1.398856e-19	1.793323e-19
151.792558526665886	1.476161e+00	7.380807e-01	7.380807e-01	3.898820e-01	1.957610e-01	1.941211e-01	8.199444e-04	4.453064e-21	-1.763789e-20	3.247578e-19	1.447410e-19	1.800168e-19
151.844093550208385	1.474640e+00	7.373199e-01	7.373199e-01	5.090747e-01	2.553898e-01	2.536849e-01	8.524576e-04	-1.761851e-21	-1.586915e-20	3.299339e-19	1.490978e-19	1.808361e-19
151.896007414489873	1.475007e+00	7.375035e-01	7.375035e-01	6.091704e-01	3.054643e-01	3.037061e-01	8.791012e-04	-6.779660e-21	-1.399470e-20	3.331465e-19	1.525785e-19	1.805679e-19
151.948329763716117	1.478328e+00	7.391640e-01	7.391640e-01	7.064032e-01	3.540943e-01	3.523089e-01	8.927149e-04	-1.207774e-20	-1.074220e-20	3.383062e-19	1.584109e-19	1.798953e-19
152.001082053037919	1.488969e+00	7.444847e-01	7.444847e-01	7.939787e-01	3.978887e-01	3.960899e-01	8.993892e-04	-1.656885e-20	-9.390891e-21	3.397147e-19	1.604665e-19	1.792482e-19
152.054268326160411	1.503718e+00	7.518592e-01	7.518592e-01	8.671553e-01	4.344765e-01	4.326788e-01	8.988388e-04	-2.047124e-20	-7.069597e-21	3.427466e-19	1.643037e-19	1.784429e-19
152.106946925974086	1.520100e+00	7.600500e-01	7.600500e-01	9.420749e-01	4.719311e-01	4.701438e-01	8.936259e-04	-2.396645e-20	-5.057896e-21	3.470465e-19	1.684653e-19	1.785811e-19
152.159133021349788	1.534170e+00	7.670849e-01	7.670849e-01	1.017964e+00	5.098655e-01	5.080988e-01	8.833420e-04	-2.749504e-20	-3.327408e-21	3.499868e-19	1.716660e-19	1.783208e-19
152.210847048600215	1.549231e+00	7.746157e-01	7.746157e-01	1.088569e+00	5.451507e-01	5.434186e-01	8.660804e-04	-3.108470e-20	-1.893203e-21	3.523167e-19	1.742652e-19	1.780516e-19
152.262121855127418	1.560029e+00	7.800146e-01	7.800146e-01	1.136076e+00	5.688785e-01	5.671974e-01	8.405588e-04	-3.312268e-20	-1.093639e-21	3.535309e-19	1.756718e-19	1.778591e-19
152.312998071696143	1.584179e+00	7.920897e-01	7.920897e-01	1.188578e+00	5.950886e-01	5.934895e-01	7.995174e-04	-3.544863e-20	-3.733015e-22	3.538498e-19	1.765516e-19	1.772982e-19
152.363511077788957	1.599766e+00	7.998828e-01	7.998828e-01	1.220604e+00	6.110584e-01	6.095455e-01	7.564447e-04	-3.694298e-20	-2.517324e-22	3.526384e-19	1.760675e-19	1.765709e-19
152.413696189809201	1.631216e+00	8.156082e-01	8.156082e-01	1.249870e+00	6.256423e-01	6.242272e-01	7.075801e-04	-3.806067e-20	-1.525281e-22	3.524849e-19	1.760899e-19	1.763950e-19
152.463581993285374	1.657299e+00	8.286493e-01	8.286493e-01	1.281006e+00	6.411575e-01	6.398486e-01	6.544428e-04	-3.954606e-20	7.541076e-22	3.537285e-19	1.776184e-19	1.761102e-19
152.513190569245666	1.674028e+00	8.370140e-01	8.370140e-01	1.305507e+00	6.533463e-01	6.521612e-01	5.925449e-04	-4.133650e-20	2.131567e-21	3.543001e-19	1.792816e-19	1.750185e-19
152.562545174324839	1.691658e+00	8.458288e-01	8.458288e-01	1.331225e+00	6.661387e-01	6.650861e-01	5.263380e-04	-4.322142e-20	3.228056e-21	3.546695e-19	1.805628e-19	1.741067e-19
152.61166660766628	1.715023e+00	8.575115e-01	8.575115e-01	1.330911e+00	6.659130e-01	6.649981e-01	4.574596e-04	-4.369626e-20	4.343060e-21	3.560513e-19	1.823687e-19	1.736826e-19
152.660577481601052	1.729890e+00	8.649452e-01	8.649452e-01	1.331655e+00	6.662141e-01	6.654405e-01	3.867933e-04	-4.424093e-20	5.219540e-21	3.563583e-19	1.833987e-19	1.729596e-19
152.709300622242608	1.743700e+00	8.718500e-01	8.718500e-01	1.336018e+00	6.683183e-01	6.677002e-01	3.090028e-04	-4.509247e-20	6.033622e-21	3.575581e-19	1.848127e-19	1.727454e-19
152.757854173896618	1.765229e+00	8.826147e-01	8.826147e-01	1.327092e+00	6.637856e-01	6.633066e-01	2.395022e-04	-4.523826e-20	6.375935e-21	3.569600e-19	1.848559e-19	1.721041e-19
152.806257494988984	1.775228e+00	8.876142e-01	8.876142e-01	1.313591e+00	6.569652e-01	6.566260e-01	1.695802e-04	-4.490084e-20	6.927094e-21	3.568268e-19	1.853405e-19	1.714863e-19
152.854533704394896	1.790788e+00	8.953938e-01	8.953938e-01	1.299092e+00	6.496467e-01	6.494456e-01	1.005145e-04	-4.459705e-20	7.265235e-21	3.561885e-19	1.853595e-19	1.708290e-19
152.902703773580072	1.800524e+00	9.002618e-01	9.002618e-01	1.278609e+00	6.393386e-01	6.392706e-01	3.401668e-05	-4.393000e-20	7.540915e-21	3.564437e-19	1.857627e-19	1.706809e-19
152.950788137373848	1.800880e+00	9.004398e-01	9.004398e-01	1.249037e+00	6.244862e-01	6.245504e-01	-3.208126e-05	-4.285881e-20	7.576562e-21	3.543126e-19	1.847328e-19	1.695797e-19
152.998810895944501	1.808775e+00	9.043873e-01	9.043873e-01	1.210102e+00	6.049580e-01	6.051443e-01	-9.314146e-05	-4.112624e-20	7.591148e-21	3.533620e-19	1.842721e-19	1.690898e-19
153.046794999588116	1.801521e+00	9.007603e-01	9.007603e-01	1.179226e+00	5.894655e-01	5.897605e-01	-1.475157e-04	-3.952723e-20	7.561601e-21	3.519143e-19	1.835188e-19	1.683956e-19
153.09475604449031	1.801094e+00	9.005471e-01	9.005471e-01	1.143181e+00	5.713912e-01	5.717894e-01	-1.990893e-04	-3.758229e-20	7.451889e-21	3.506610e-19	1.827824e-19	1.678786e-19
153.142708195246541	1.799023e+00	8.995113e-01	8.995113e-01	1.101439e+00	5.504711e-01	5.509678e-01	-2.483093e-04	-3.524371e-20	7.268117e-21	3.492438e-19	1.818900e-19	1.673538e-19
153.190670309143286	1.794768e+00	8.973839e-01	8.973839e-01	1.059865e+00	5.296381e-01	5.302272e-01	-2.945698e-04	-3.276717e-20	6.988514e-21	3.493439e-19	1.816605e-19	1.676834e-19
153.238660843634023	1.785764e+00	8.928822e-01	8.928822e-01	1.014128e+00	5.067300e-01	5.073978e-01	-3.339334e-04	-3.020665e-20	6.983246e-21	3.491387e-19	1.815526e-19	1.675861e-19
153.286698936383118	1.781489e+00	8.907446e-01	8.907446e-01	9.528110e-01	4.760391e-01	4.767718e-01	-3.663434e-04	-2.675253e-20	7.106029e-21	3.489304e-19	1.815712e-19	1.673592e-19
153.334807082345009	1.772134e+00	8.860671e-01	8.860671e-01	8.953257e-01	4.472638e-01	4.480619e-01	-3.990699e-04	-2.337042e-20	7.082343e-21	3.498073e-19	1.819860e-19	1.678213e-19
153.383011857017465	1.754940e+00	8.774701e-01	8.774701e-01	8.344777e-01	4.168104e-01	4.176673e-01	-4.284162e-04	-1.961765e-20	7.092229e-21	3.490284e-19	1.816064e-19	1.674220e-19
153.431340306603119	1.733897e+00	8.669486e-01	8.669486e-01	7.611100e-01	3.801046e-01	3.810055e-01	-4.504485e-04	-1.494208e-20	7.340910e-21	3.497934e-19	1.822376e-19	1.675558e-19
153.479818137663187	1.704386e+00	8.521932e-01	8.521932e-01	6.801455e-01	3.395982e-01	3.405473e-01	-4.745211e-04	-9.710739e-21	7.749873e-21	3.496665e-19	1.825831e-19	1.670834e-19
153.5284676130739	1.670816e+00	8.354080e-01	8.354080e-01	5.858348e-01	2.924131e-01	2.934217e-01	-5.043384e-04	-3.966649e-21	8.360623e-21	3.507246e-19	1.837229e-19	1.670017e-19
153.577310359533953	1.645314e+00	8.226569e-01	8.226569e-01	4.982219e-01	2.485690e-01	2.496529e-01	-5.419886e-04	1.420620e-21	9.096220e-21	3.513740e-19	1.847832e-19	1.665908e-19
153.626356744093755	1.620564e+00	8.102822e-01	8.102822e-01	3.898325e-01	1.943434e-01	1.954891e-01	-5.728106e-04	7.454309e-21	9.350923e-21	3.521864e-19	1.854441e-19	1.667423e-19
153.675598533585287	1.595462e+00	7.977312e-01	7.977312e-01	2.821049e-01	1.404326e-01	1.416722e-01	-6.197949e-04	1.317796e-20	9.146639e-21	3.520654e-19	1.851793e-19	1.668861e-19
153.72506631523359	1.573674e+00	7.868369e-01	7.868369e-01	1.668243e-01	8.273816e-02	8.408618e-02	-6.740133e-04	1.930134e-20	8.570652e-21	3.503311e-19	1.837362e-19	1.665949e-19
153.774788286464315	1.557945e+00	7.789727e-01	7.789727e-01	5.380184e-02	2.616993e-02	2.763192e-02	-7.309932e-04	2.553539e-20	8.398797e-21	3.493625e-19	1.830800e-19	1.662824e-19
153.824786912577338	1.538001e+00	7.690005e-01	7.690005e-01	-8.815641e-02	-4.486278e-02	-4.329363e-02	-7.845718e-04	3.474143e-20	1.145864e-20	3.579236e-19	1.904204e-19	1.675031e-19
153.875084802543171	1.528509e+00	7.642543e-01	7.642543e-01	-2.055180e-01	-1.035939e-01	-1.019241e-01	-8.348916e-04	3.980193e-20	9.200114e-21	3.523972e-19	1.853987e-19	1.669985e-19
153.92571268455481	1.521585e+00	7.607927e-01	7.607927e-01	-3.226649e-01	-1.622098e-01	-1.604551e-01	-8.773902e-04	4.483594e-20	5.695430e-21	3.436034e-19	1.774971e-19	1.661063e-19
153.976689989429701	1.520217e+00	7.601083e-01	7.601083e-01	-4.496699e-01	-2.257492e-01	-2.239207e-01	-9.142310e-04	5.117738e-20	4.328326e-21	3.416276e-19	1.751421e-19	1.664855e-19
154.028035400998448	1.522580e+00	7.612900e-01	7.612900e-01	-5.762431e-01	-2.890666e-01	-2.871765e-01	-9.450870e-04	5.780261e-20	3.059766e-21	3.392117e-19	1.726656e-19	1.665461e-19
154.079777689605777	1.525812e+00	7.629059e-01	7.629059e-01	-6.777449e-01	-3.398379e-01	-3.379070e-01	-9.654407e-04	6.304587e-20	1.461024e-21	3.361780e-19	1.695500e-19	1.666280e-19
154.131948947615399	1.528428e+00	7.642142e-01	7.642142e-01	-7.763281e-01	-3.891404e-01	-3.871877e-01	-9.763596e-04	6.754632e-20	-1.552801e-21	3.283565e-19	1.626255e-19	1.657311e-19
154.184572154289839	1.542332e+00	7.711660e-01	7.711660e-01	-8.559581e-01	-4.289592e-01	-4.269989e-01	-9.801330e-04	7.178324e-20	-2.569854e-21	3.250310e-19	1.599457e-19	1.650854e-19
154.237285572635642	1.554947e+00	7.774736e-01	7.774736e-01	-9.388473e-01	-4.704018e-01	-4.684455e-01	-9.781344e-04	7.639207e-20	-4.230333e-21	3.212583e-19	1.563988e-19	1.648595e-19
154.289485305495731	1.570891e+00	7.854453e-01	7.854453e-01	-1.008358e+00	-5.051468e-01	-5.032110e-01	-9.678815e-04	8.060108e-20	-5.941309e-21	3.171435e-19	1.526304e-19	1.645130e-19
154.341200116902769	1.585982e+00	7.929908e-01	7.929908e-01	-1.089099e+00	-5.455028e-01	-5.435964e-01	-9.531863e-04	8.464350e-20	-6.787054e-21	3.166323e-19	1.515291e-19	1.651032e-19
154.392458581923592	1.597357e+00	7.986783e-01	7.986783e-01	-1.153953e+00	-5.779073e-01	-5.760455e-01	-9.308896e-04	8.759542e-20	-7.408390e-21	3.163989e-19	1.507911e-19	1.656078e-19
154.443293921388232	1.621034e+00	8.105172e-01	8.105172e-01	-1.212415e+00	-6.071019e-01	-6.053134e-01	-8.942469e-04	9.062059e-20	-7.480890e-21	3.172358e-19	1.511370e-19	1.660988e-19
154.49373732037904	1.636371e+00	8.181856e-01	8.181856e-01	-1.259641e+00	-6.306685e-01	-6.289728e-01	-8.478358e-04	9.306522e-20	-8.040532e-21	3.178705e-19	1.508947e-19	1.669758e-19
154.543817002497661	1.654156e+00	8.270781e-01	8.270781e-01	-1.286089e+00	-6.438435e-01	-6.422459e-01	-7.987989e-04	9.502738e-20	-6.923281e-21	3.199864e-19	1.530699e-19	1.669165e-19
154.593568381813554	1.682045e+00	8.410225e-01	8.410225e-01	-1.320730e+00	-6.611121e-01	-6.596174e-01	-7.473652e-04	9.720420e-20	-7.331356e-21	3.211193e-19	1.532283e-19	1.678910e-19
154.643020427076607	1.703574e+00	8.517870e-01	8.517870e-01	-1.336798e+00	-6.690845e-01	-6.677138e-01	-6.853295e-04	9.795722e-20	-7.960631e-21	3.200245e-19	1.520516e-19	1.679729e-19
154.692199673371306	1.722124e+00	8.610618e-01	8.610618e-01	-1.363081e+00	-6.821586e-01	-6.809225e-01	-6.180471e-04	9.902297e-20	-9.018069e-21	3.185890e-19	1.502764e-19	1.683125e-19
154.741130252454838	1.750411e+00	8.752054e-01	8.752054e-01	-1.388588e+00	-6.948383e-01	-6.937498e-01	-5.442568e-04	9.979565e-20	-1.053880e-20	3.156740e-19	1.472982e-19	1.683758e-19
154.789830363021508	1.761019e+00	8.805096e-01	8.805096e-01	-1.378304e+00	-6.896191e-01	-6.886851e-01	-4.670240e-04	9.911620e-20	-1.175598e-20	3.130351e-19	1.447616e-19	1.682735e-19
154.838325175730404	1.779875e+00	8.899377e-01	8.899377e-01	-1.378538e+00	-6.896562e-01	-6.888817e-01	-3.872720e-04	9.871991e-20	-1.279921e-20	3.111257e-19	1.427636e-19	1.683620e-19
154.886638188501337	1.806127e+00	9.030633e-01	9.030633e-01	-1.371390e+00	-6.860030e-01	-6.853869e-01	-3.080328e-04	9.787775e-20	-1.309571e-20	3.123814e-19	1.430950e-19	1.692864e-19
154.934787843972344	1.818130e+00	9.090652e-01	9.090652e-01	-1.358166e+00	-6.793155e-01	-6.788500e-01	-2.327833e-04	9.694626e-20	-1.375986e-20	3.116194e-19	1.420499e-19	1.695696e-19
154.982794932963571	1.824770e+00	9.123849e-01	9.123849e-01	-1.345763e+00	-6.730405e-01	-6.727226e-01	-1.589515e-04	9.593908e-20	-1.427801e-20	3.100224e-19	1.407332e-19	1.692892e-19
155.030681988374226	1.837982e+00	9.189911e-01	9.189911e-01	-1.326820e+00	-6.634962e-01	-6.633233e-01	-8.644777e-05	9.451230e-20	-1.453690e-20	3.104343e-19	1.406802e-19	1.697541e-19
155.078472007194193	1.844947e+00	9.224736e-01	9.224736e-01	-1.299842e+00	-6.499363e-01	-6.499052e-01	-1.555853e-05	9.262323e-20	-1.480242e-20	3.098452e-19	1.401202e-19	1.697250e-19
155.126190510823335	1.842275e+00	9.211376e-01	9.211376e-01	-1.270287e+00	-6.350908e-01	-6.351963e-01	5.274350e-05	9.057977e-20	-1.508933e-20	3.089362e-19	1.393788e-19	1.695574e-19
155.173863503326174	1.846599e+00	9.232995e-01	9.232995e-01	-1.222980e+00	-6.113770e-01	-6.116034e-01	1.132188e-04	8.749949e-20	-1.548663e-20	3.088640e-19	1.389454e-19	1.699186e-19
155.221516309252308	1.843143e+00	9.215717e-01	9.215717e-01	-1.188222e+00	-5.939406e-01	-5.942815e-01	1.704441e-04	8.527607e-20	-1.572588e-20	3.089990e-19	1.387736e-19	1.702254e-19
155.26916620998395	1.841557e+00	9.207787e-01	9.207787e-01	-1.153843e+00	-5.766985e-01	-5.771448e-01	2.231738e-04	8.306420e-20	-1.561360e-20	3.099109e-19	1.393419e-19	1.705691e-19
155.316827839732099	1.829364e+00	9.146822e-01	9.146822e-01	-1.114621e+00	-5.570352e-01	-5.575860e-01	2.754098e-04	8.060328e-20	-1.540468e-20	3.115999e-19	1.403953e-19	1.712046e-19
155.364517574853124	1.824936e+00	9.124681e-01	9.124681e-01	-1.059734e+00	-5.295465e-01	-5.301875e-01	3.204819e-04	7.716828e-20	-1.562374e-20	3.132602e-19	1.410064e-19	1.722538e-19
155.412254396018938	1.815432e+00	9.077158e-01	9.077158e-01	-1.016990e+00	-5.081368e-01	-5.088528e-01	3.580209e-04	7.463816e-20	-1.562381e-20	3.152973e-19	1.420248e-19	1.732725e-19
155.460053319486462	1.807620e+00	9.038102e-01	9.038102e-01	-9.541413e-01	-4.766728e-01	-4.774685e-01	3.978440e-04	7.091039e-20	-1.578560e-20	3.166431e-19	1.425360e-19	1.741072e-19
155.507931173870929	1.793082e+00	8.965408e-01	8.965408e-01	-8.923318e-01	-4.457348e-01	-4.465970e-01	4.310597e-04	6.701110e-20	-1.578005e-20	3.189941e-19	1.437170e-19	1.752771e-19
155.555907591297455	1.778001e+00	8.890004e-01	8.890004e-01	-8.278461e-01	-4.134616e-01	-4.143845e-01	4.614527e-04	6.335979e-20	-1.617719e-20	3.208867e-19	1.442662e-19	1.766205e-19
155.604007420669717	1.751563e+00	8.757817e-01	8.757817e-01	-7.487736e-01	-3.738989e-01	-3.748747e-01	4.878762e-04	5.917696e-20	-1.683725e-20	3.215862e-19	1.439558e-19	1.776303e-19
155.652260971286807	1.715517e+00	8.577585e-01	8.577585e-01	-6.532158e-01	-3.260920e-01	-3.271238e-01	5.158778e-04	5.409262e-20	-1.749775e-20	3.234624e-19	1.442335e-19	1.792290e-19
155.700699340820222	1.684995e+00	8.424977e-01	8.424977e-01	-5.563285e-01	-2.776093e-01	-2.787192e-01	5.549755e-04	4.930928e-20	-1.858672e-20	3.240523e-19	1.434394e-19	1.806129e-19
155.749346781031164	1.660521e+00	8.302603e-01	8.302603e-01	-4.603234e-01	-2.295691e-01	-2.307542e-01	5.925596e-04	4.514662e-20	-1.985317e-20	3.227495e-19	1.415216e-19	1.812279e-19
155.798221218258476	1.637092e+00	8.185459e-01	8.185459e-01	-3.500535e-01	-1.743855e-01	-1.756680e-01	6.412516e-04	4.015452e-20	-2.067953e-20	3.226337e-19	1.406373e-19	1.819964e-19
155.8473077465936	1.612223e+00	8.061114e-01	8.061114e-01	-2.249397e-01	-1.117722e-01	-1.131675e-01	6.976757e-04	3.431312e-20	-2.125070e-20	3.234139e-19	1.404562e-19	1.829576e-19
155.896630408546912	1.589559e+00	7.947795e-01	7.947795e-01	-1.055101e-01	-5.199927e-02	-5.351083e-02	7.557800e-04	2.862341e-20	-2.115706e-20	3.251476e-19	1.414168e-19	1.837309e-19
155.946222295441544	1.577126e+00	7.885630e-01	7.885630e-01	2.127922e-02	1.144951e-02	9.829709e-03	8.099027e-04	2.339004e-20	-2.260580e-20	3.232035e-19	1.389960e-19	1.842076e-19
155.996110872028737	1.560171e+00	7.800854e-01	7.800854e-01	1.575776e-01	7.965002e-02	7.792760e-02	8.612094e-04	1.726257e-20	-2.390252e-20	3.222489e-19	1.372220e-19	1.850270e-19
156.046320088002062	1.556006e+00	7.780029e-01	7.780029e-01	2.791714e-01	1.404916e-01	1.386798e-01	9.059030e-04	1.011432e-20	-2.108683e-20	3.292606e-19	1.435435e-19	1.857171e-19
156.096877049283762	1.548626e+00	7.743130e-01	7.743130e-01	3.914694e-01	1.966775e-01	1.947918e-01	9.428453e-04	3.349182e-21	-1.779825e-20	3.360036e-19	1.502036e-19	1.858001e-19
156.147801783805988	1.545937e+00	7.729686e-01	7.729686e-01	5.246076e-01	2.632798e-01	2.613278e-01	9.759801e-04	-3.520332e-21	-1.610737e-20	3.399032e-19	1.538442e-19	1.860590e-19
156.199112688391352	1.548658e+00	7.743290e-01	7.743290e-01	6.434978e-01	3.227495e-01	3.207483e-01	1.000625e-03	-9.441798e-21	-1.437948e-20	3.423069e-19	1.567740e-19	1.855329e-19
156.250835218771698	1.555072e+00	7.775360e-01	7.775360e-01	7.495874e-01	3.758085e-01	3.737789e-01	1.014824e-03	-1.479929e-20	-1.199045e-20	3.464190e-19	1.612190e-19	1.851999e-19
156.302998476794983	1.556778e+00	7.783889e-01	7.783889e-01	8.417687e-01	4.219086e-01	4.198601e-01	1.024214e-03	-2.001252e-20	-8.917358e-21	3.510757e-19	1.666205e-19	1.844552e-19
156.355625396339775	1.573839e+00	7.869194e-01	7.869194e-01	9.237826e-01	4.629154e-01	4.608672e-01	1.024136e-03	-2.409197e-20	-7.554795e-21	3.521547e-19	1.685225e-19	1.836321e-19
156.407824053525246	1.586679e+00	7.933394e-01	7.933394e-01	1.003863e+00	5.029484e-01	5.009150e-01	1.016666e-03	-2.789777e-20	-5.585775e-21	3.562015e-19	1.725150e-19	1.836865e-19
156.459528799893121	1.603401e+00	8.017005e-01	8.017005e-01	1.072938e+00	5.374728e-01	5.354651e-01	1.003874e-03	-3.086634e-20	-3.560055e-21	3.601522e-19	1.765160e-19	1.836362e-19
156.510771350770256	1.619618e+00	8.098088e-01	8.098088e-01	1.150106e+00	5.760387e-01	5.740669e-01	9.858962e-04	-3.495557e-20	-1.840704e-21	3.629688e-19	1.796437e-19	1.833251e-19
156.561583194911861	1.633132e+00	8.165659e-01	8.165659e-01	1.218166e+00	6.100367e-01	6.081291e-01	9.538084e-04	-3.831192e-20	-8.308295e-22	3.637841e-19	1.810612e-19	1.827229e-19
156.611990779221941	1.657881e+00	8.289405e-01	8.289405e-01	1.272967e+00	6.373923e-01	6.355749e-01	9.087377e-04	-4.097323e-20	4.896245e-23	3.659124e-19	1.830052e-19	1.829072e-19
156.662020191226247	1.665121e+00	8.325604e-01	8.325604e-01	1.312766e+00	6.572467e-01	6.555191e-01	8.638038e-04	-4.266974e-20	6.216768e-23	3.650015e-19	1.825629e-19	1.824386e-19
156.711702626828782	1.690579e+00	8.452894e-01	8.452894e-01	1.339564e+00	6.705965e-01	6.689680e-01	8.142119e-04	-4.381684e-20	-3.415594e-22	3.628368e-19	1.810768e-19	1.817600e-19
156.761070087332172	1.714284e+00	8.571421e-01	8.571421e-01	1.368709e+00	6.851138e-01	6.835950e-01	7.594172e-04	-4.533470e-20	5.938451e-22	3.644480e-19	1.828178e-19	1.816301e-19
156.810148111032731	1.733179e+00	8.665894e-01	8.665894e-01	1.383077e+00	6.922312e-01	6.908459e-01	6.926245e-04	-4.644089e-20	1.033706e-21	3.637224e-19	1.828949e-19	1.808275e-19
156.858962288907577	1.751735e+00	8.758673e-01	8.758673e-01	1.406076e+00	7.036586e-01	7.024169e-01	6.208583e-04	-4.847948e-20	2.360229e-21	3.648837e-19	1.848021e-19	1.800816e-19
156.907536643106596	1.778177e+00	8.890883e-01	8.890883e-01	1.425194e+00	7.131411e-01	7.120532e-01	5.439721e-04	-5.014427e-20	4.148608e-21	3.673750e-19	1.878361e-19	1.795389e-19
156.955889869603425	1.787177e+00	8.935885e-01	8.935885e-01	1.412234e+00	7.065810e-01	7.056525e-01	4.642417e-04	-5.017289e-20	5.571824e-21	3.684193e-19	1.897815e-19	1.786378e-19
157.00404745929626	1.811893e+00	9.059466e-01	9.059466e-01	1.409090e+00	7.049278e-01	7.041627e-01	3.825584e-04	-5.101232e-20	5.852942e-21	3.679774e-19	1.898416e-19	1.781357e-19
157.052031614229577	1.833810e+00	9.169049e-01	9.169049e-01	1.398200e+00	6.994016e-01	6.987986e-01	3.015216e-04	-5.098819e-20	6.621047e-21	3.693880e-19	1.913151e-19	1.780730e-19
157.099862210804503	1.842891e+00	9.214453e-01	9.214453e-01	1.378979e+00	6.897169e-01	6.892619e-01	2.274904e-04	-5.031156e-20	7.337529e-21	3.693217e-19	1.919984e-19	1.773233e-19
157.147562953415871	1.850008e+00	9.250039e-01	9.250039e-01	1.366660e+00	6.834826e-01	6.831772e-01	1.526862e-04	-5.030608e-20	7.384514e-21	3.683011e-19	1.915351e-19	1.767660e-19
157.195155859383334	1.860159e+00	9.300796e-01	9.300796e-01	1.342481e+00	6.713203e-01	6.711609e-01	7.971571e-05	-4.940403e-20	7.550482e-21	3.664398e-19	1.907704e-19	1.756694e-19
157.242664439008792	1.860259e+00	9.301295e-01	9.301295e-01	1.316086e+00	6.580493e-01	6.580370e-01	6.156963e-06	-4.824993e-20	7.462994e-21	3.641003e-19	1.895131e-19	1.745872e-19
157.2901150628729	1.862087e+00	9.310433e-01	9.310433e-01	1.277305e+00	6.385887e-01	6.387163e-01	-6.380919e-05	-4.629859e-20	7.392914e-21	3.619038e-19	1.883448e-19	1.735590e-19
157.337536235607132	1.865741e+00	9.328705e-01	9.328705e-01	1.227665e+00	6.137046e-01	6.139603e-01	-1.278307e-04	-4.358118e-20	7.437891e-21	3.598153e-19	1.873455e-19	1.724698e-19
157.384953911787761	1.865067e+00	9.325336e-01	9.325336e-01	1.195321e+00	5.974747e-01	5.978460e-01	-1.856466e-04	-4.170610e-20	7.452620e-21	3.591110e-19	1.870081e-19	1.721029e-19
157.432385515373966	1.854870e+00	9.274348e-01	9.274348e-01	1.159899e+00	5.797084e-01	5.801906e-01	-2.410829e-04	-3.954188e-20	7.241842e-21	3.567564e-19	1.856200e-19	1.711363e-19
157.479844769098889	1.843464e+00	9.217320e-01	9.217320e-01	1.114625e+00	5.570206e-01	5.576047e-01	-2.920432e-04	-3.707407e-20	7.132931e-21	3.556514e-19	1.849586e-19	1.706928e-19
157.527350301091815	1.839778e+00	9.198891e-01	9.198891e-01	1.056893e+00	5.281110e-01	5.287819e-01	-3.354415e-04	-3.392602e-20	7.313628e-21	3.563412e-19	1.854842e-19	1.708570e-19
157.574921413033053	1.825745e+00	9.128725e-01	9.128725e-01	1.011428e+00	5.053342e-01	5.060934e-01	-3.796008e-04	-3.127253e-20	7.265594e-21	3.563593e-19	1.854452e-19	1.709140e-19
157.622570547544029	1.813772e+00	9.068862e-01	9.068862e-01	9.425004e-01	4.708334e-01	4.716670e-01	-4.168107e-04	-2.738205e-20	7.352558e-21	3.561067e-19	1.854059e-19	1.707008e-19
157.670312849858931	1.799522e+00	8.997612e-01	8.997612e-01	8.801518e-01	4.396250e-01	4.405268e-01	-4.508818e-04	-2.355248e-20	7.734714e-21	3.572007e-19	1.863351e-19	1.708656e-19
157.718164495129912	1.784089e+00	8.920447e-01	8.920447e-01	8.139884e-01	4.065113e-01	4.074772e-01	-4.829580e-04	-1.926002e-20	8.164068e-21	3.575951e-19	1.869616e-19	1.706335e-19
157.766148341115695	1.754517e+00	8.772583e-01	8.772583e-01	7.205909e-01	3.597857e-01	3.608052e-01	-5.097685e-04	-1.347096e-20	8.481891e-21	3.581022e-19	1.875330e-19	1.705692e-19
157.814296984283146	1.713853e+00	8.569264e-01	8.569264e-01	6.225277e-01	3.107164e-01	3.118114e-01	-5.475135e-04	-7.439450e-21	8.985656e-21	3.589752e-19	1.884733e-19	1.705020e-19
157.862643030242339	1.688517e+00	8.442585e-01	8.442585e-01	5.210798e-01	2.599515e-01	2.611284e-01	-5.884545e-04	-1.002560e-21	9.967250e-21	3.608286e-19	1.903816e-19	1.704471e-19
157.911210603323639	1.664258e+00	8.321292e-01	8.321292e-01	4.210508e-01	2.098912e-01	2.111596e-01	-6.342091e-04	4.853303e-21	1.029361e-20	3.606516e-19	1.906194e-19	1.700322e-19
157.960017330966281	1.640190e+00	8.200949e-01	8.200949e-01	2.994430e-01	1.490315e-01	1.504115e-01	-6.899749e-04	1.150353e-20	1.001843e-20	3.603665e-19	1.902017e-19	1.701648e-19
158.009042696028303	1.616686e+00	8.083431e-01	8.083431e-01	1.728483e-01	8.567390e-02	8.717444e-02	-7.502697e-04	1.813370e-20	9.364801e-21	3.590078e-19	1.888687e-19	1.701391e-19
158.058320658790649	1.597368e+00	7.986840e-01	7.986840e-01	4.727700e-02	2.283044e-02	2.444656e-02	-8.080585e-04	2.500384e-20	9.263356e-21	3.591429e-19	1.888348e-19	1.703081e-19