/*--------------------------------*- C++ -*----------------------------------*\
| =========                 |                                                 |
| \\      /  F ield         | OpenFOAM: The Open Source CFD Toolbox           |
|  \\    /   O peration     | Version:  2506                                  |
|   \\  /    A nd           | Website:  www.openfoam.com                      |
|    \\/     M anipulation  |                                                 |
\*---------------------------------------------------------------------------*/
FoamFile
{
    version     2.0;
    format      ascii;
    arch        "LSB;label=32;scalar=64";
    class       volScalarField;
    location    "19.971824";
    object      mag(vorticity);
}
// * * * * * * * * * * * * * * * * * * * * * * * * * * * * * * * * * * * * * //

dimensions      [0 0 -1 0 0 0 0];

internalField   nonuniform List<scalar> 
9700
(
6.14635e-05
6.0095e-05
0.00062517
0.00294311
0.0024803
0.00111085
0.00566639
0.00569929
0.00460445
0.00161261
0.00746712
0.00970332
0.00926956
0.00693369
0.00251384
0.00992026
0.0132127
0.0141606
0.0132531
0.01004
0.00355707
0.0120871
0.0172913
0.0188138
0.0192855
0.0178621
0.013398
0.00460211
0.0143537
0.0214214
0.0235662
0.0252167
0.0254197
0.0228555
0.0167669
0.00476252
0.016632
0.0254921
0.0281369
0.0308025
0.0323977
0.031792
0.0278261
0.019514
0.0034216
0.0187875
0.0295514
0.0324921
0.0360026
0.0387071
0.0397434
0.0380527
0.0324065
0.0219837
0.00614812
0.020582
0.0334202
0.036603
0.0407836
0.0443064
0.046584
0.0467757
0.0436667
0.0362228
0.0251706
0.00733977
0.0222037
0.037069
0.040455
0.0451371
0.0492129
0.0523232
0.0538795
0.0528645
0.0480833
0.0388959
0.0262231
0.00739193
0.0236806
0.0407244
0.0440035
0.0490726
0.053471
0.0570547
0.0594503
0.0599157
0.0573812
0.0507836
0.0399651
0.0259169
0.00699271
0.0232208
0.0442148
0.0472426
0.0525978
0.0571268
0.0608932
0.0636755
0.0649989
0.06405
0.0597706
0.0513753
0.0391826
0.0245369
0.00628829
0.0212238
0.0474397
0.0501653
0.0557012
0.0602304
0.0639564
0.0667715
0.0684177
0.0683638
0.0657561
0.0596601
0.0496862
0.0366227
0.0222106
0.0053842
0.0196469
0.0503757
0.0527222
0.0583775
0.0628153
0.0663496
0.0689477
0.0705044
0.0707458
0.0690948
0.0647255
0.0569482
0.0458338
0.0325955
0.019208
0.00439358
0.0186271
0.0530141
0.0548909
0.0606173
0.0649106
0.0681614
0.0703814
0.0715724
0.0716601
0.0703314
0.0669918
0.0609497
0.0518604
0.0402355
0.0275964
0.0158825
0.00342329
0.0179885
0.0551877
0.0566441
0.06243
0.0665381
0.0694765
0.0712165
0.0718872
0.0715253
0.0700383
0.0670956
0.0621637
0.0547625
0.0449298
0.0335386
0.022207
0.0125937
0.00256198
0.0173924
0.0567583
0.0579747
0.0638088
0.0677313
0.070331
0.0715712
0.0716502
0.0706831
0.0687347
0.065709
0.0612846
0.0550554
0.0468133
0.0369364
0.0264985
0.0169932
0.00964236
0.0018662
0.0163543
0.0576435
0.0588588
0.0647659
0.0684998
0.0707606
0.0715366
0.0710127
0.0693871
0.0668288
0.0634107
0.0590345
0.0534456
0.046395
0.0379564
0.0287323
0.0198142
0.0124058
0.00720898
0.00135261
0.0145932
0.0575383
0.059167
0.0652641
0.068869
0.0708299
0.0711824
0.0700851
0.0678201
0.0646081
0.0606547
0.0560317
0.0506507
0.0443551
0.037078
0.0290929
0.021098
0.0140304
0.00869901
0.00536378
0.00100619
0.0115566
0.0559965
0.0586065
0.0652025
0.0688281
0.0705746
0.0705556
0.0689556
0.0661036
0.0622716
0.0577489
0.0527337
0.0472871
0.0413711
0.0349114
0.0279998
0.0210178
0.0146043
0.00943758
0.00594614
0.00406368
0.00078735
0.00822548
0.0526206
0.0567681
0.0643524
0.0683168
0.0699977
0.0696882
0.0676817
0.0643173
0.0599401
0.0548893
0.0494457
0.0437946
0.0379985
0.0320481
0.0259588
0.0199056
0.0142695
0.00953503
0.0060872
0.0040589
0.00320724
0.000662145
0.00544542
0.0475918
0.0532402
0.0623549
0.0671478
0.069066
0.0686273
0.0662976
0.0625196
0.0576794
0.0521762
0.0463433
0.0404447
0.0346328
0.0289655
0.0234507
0.0181573
0.0132722
0.00908982
0.00589455
0.00383653
0.00286084
0.00267807
0.000596535
0.00440598
0.0413078
0.0480632
0.0587729
0.0650284
0.0676366
0.0673263
0.0648415
0.0607356
0.0555363
0.0496616
0.0435051
0.0373813
0.031505
0.0259851
0.0208573
0.0161373
0.0118937
0.00826718
0.00543121
0.0034954
0.00245009
0.00214808
0.00235606
0.00059989
0.00484951
0.0377742
0.041897
0.0535139
0.0615329
0.0654635
0.0656981
0.0632776
0.0589989
0.0535324
0.0473706
0.0409672
0.034664
0.0287195
0.0232873
0.0184182
0.0141162
0.0103854
0.00725414
0.00479857
0.00306941
0.0020496
0.00165513
0.00174355
0.00214973
0.000689263
0.00683564
0.0367451
0.0371861
0.0470864
0.0564707
0.062186
0.063558
0.0615532
0.0572979
0.051671
0.0453109
0.0387252
0.0322966
0.0263082
0.0209399
0.0162561
0.0122642
0.00892679
0.00620879
0.00409809
0.00259602
0.00166995
0.00124793
0.001231
0.0015147
0.00199455
0.000691632
0.00962588
0.0381419
0.0359282
0.041762
0.0500596
0.0575496
0.0606069
0.0595338
0.0555837
0.0499395
0.0434757
0.0367628
0.030257
0.0242547
0.01895
0.0144213
0.0106652
0.00762757
0.00523445
0.00341898
0.00213215
0.00132073
0.000916374
0.000839671
0.00101229
0.00137612
0.00186167
0.000576577
0.0123245
0.0411264
0.0372976
0.0402409
0.0442458
0.0515373
0.0565513
0.0569783
0.0537645
0.0483277
0.0414413
0.0350734
0.028521
0.0225277
0.0172931
0.012897
0.0093305
0.00652714
0.00438899
0.00281514
0.00171611
0.00101741
0.000652365
0.000546195
0.000641792
0.000889223
0.00127829
0.00178723
0.000512566
0.0146613
0.0451722
0.0404112
0.0416292
0.0426009
0.0454695
0.0513115
0.0535985
0.0516516
0.0467654
0.0404125
0.0336328
0.0270672
0.0210945
0.0159282
0.0116478
0.00824269
0.00562753
0.00369102
0.0023075
0.00136506
0.000771962
0.000450327
0.00033499
0.000377921
0.000539699
0.000810607
0.00119796
0.00169076
0.000488909
0.0188831
0.0497495
0.0447149
0.04494
0.0440205
0.04383
0.0453811
0.0493822
0.0489993
0.0451046
0.0391253
0.0324311
0.0258746
0.0199206
0.0148161
0.0106397
0.00736929
0.00491094
0.00313065
0.00189926
0.00108234
0.000578379
0.000299755
0.000189615
0.000197626
0.000300938
0.000480876
0.00074644
0.00110748
0.00161411
0.00045982
0.0264513
0.0542379
0.0495939
0.0496287
0.0475118
0.0452629
0.0438342
0.0441624
0.0458586
0.043185
0.0378878
0.0314231
0.0249124
0.018986
0.0139268
0.00983628
0.00667489
0.00434233
0.00269458
0.00158007
0.000862432
0.0004307
0.000193995
9.33566e-05
8.40744e-05
0.00014171
0.000259978
0.00043731
0.000705809
0.00105541
0.00154759
0.000399958
0.0342889
0.0580846
0.0543091
0.0550471
0.0526285
0.0488805
0.0451939
0.042708
0.0419664
0.0409936
0.0365991
0.0305586
0.0241636
0.0182621
0.0132357
0.00920375
0.00613045
0.00389891
0.00235571
0.0013348
0.000698695
0.000321778
0.000122756
3.41449e-05
1.54136e-05
4.37565e-05
0.000117979
0.00022846
0.000404608
0.000639357
0.000968005
0.00145179
0.000371771
0.0408548
0.0612868
0.0581717
0.0602997
0.0587351
0.0544473
0.0488033
0.0438689
0.0405125
0.0385872
0.0352429
0.0297639
0.0236038
0.0177369
0.0127235
0.00872104
0.00571055
0.00355642
0.0020902
0.00114608
0.000573864
0.000244156
7.35303e-05
3.96835e-06
2.66214e-05
1.17586e-05
1.76503e-05
9.44198e-05
0.000202664
0.000349224
0.000587731
0.000929035
0.00135779
0.000332251
0.0429775
0.0630457
0.0606817
0.0645069
0.0648105
0.0614026
0.054755
0.0473135
0.0413766
0.0372382
0.0339211
0.0291088
0.0232012
0.0174138
0.0123841
0.00838225
0.00539891
0.00329496
0.00189007
0.0010032
0.000478459
0.000187617
3.72403e-05
2.86307e-05
4.8426e-05
4.35031e-05
2.16587e-05
4.18828e-06
7.45027e-05
0.000181465
0.000336266
0.000543953
0.000856675
0.00127362
0.000301926
0.0437021
0.0633515
0.0616578
0.0670198
0.0697322
0.0686362
0.0626261
0.0534951
0.0445082
0.0378099
0.0329218
0.0285188
0.0230674
0.0172928
0.012222
0.00817672
0.0051839
0.00310459
0.0017397
0.000896614
0.000405153
0.0001424
1.33116e-05
4.37533e-05
6.30121e-05
6.14146e-05
4.73324e-05
2.55951e-05
1.68854e-05
8.80169e-05
0.000160768
0.000290306
0.00052349
0.000810355
0.00120783
0.000247676
0.0438372
0.062992
0.0611042
0.067529
0.0726114
0.0747894
0.0713064
0.0622194
0.0507235
0.0405694
0.0333486
0.0278955
0.0229906
0.0175039
0.0122775
0.0081182
0.00506378
0.00297401
0.00162629
0.000813139
0.000350764
0.000108801
6.97513e-06
5.65426e-05
7.17797e-05
7.26054e-05
7.12622e-05
4.76771e-05
1.92189e-05
2.02187e-05
5.88527e-05
0.000136546
0.000278411
0.000473001
0.000731504
0.00112112
0.000212837
0.0429291
0.0612894
0.0586588
0.0659678
0.0729479
0.0786529
0.079197
0.0724834
0.0601088
0.0466035
0.0357415
0.0282865
0.0226591
0.0177755
0.0127131
0.00826906
0.00505914
0.00290672
0.00155147
0.000747882
0.000305558
8.18251e-05
2.49164e-05
6.5261e-05
7.83419e-05
8.19861e-05
7.78685e-05
6.46054e-05
5.62127e-05
4.37167e-05
5.9932e-06
5.35576e-05
0.000130139
0.000249731
0.000409555
0.000679648
0.001044
0.000171498
0.0416297
0.0586467
0.0540762
0.0617268
0.0706547
0.0794739
0.0847468
0.082548
0.0719005
0.0563547
0.0414033
0.0303485
0.023047
0.0176699
0.0131942
0.00883446
0.00524546
0.00291922
0.00150696
0.000699435
0.000265766
5.49513e-05
3.94549e-05
7.51887e-05
8.68082e-05
8.83052e-05
7.40194e-05
7.48301e-05
6.39421e-05
7.35299e-05
4.16534e-05
1.49973e-05
4.69614e-05
0.000118388
0.000226009
0.000374236
0.000620372
0.000959847
0.000122281
0.0401893
0.0558742
0.0488401
0.0547775
0.0648522
0.0769649
0.086798
0.0904734
0.0843488
0.0694111
0.0511505
0.0354813
0.024793
0.0180394
0.0132702
0.00944752
0.00588072
0.00309922
0.00151806
0.000666415
0.000232982
2.63368e-05
5.88861e-05
8.94447e-05
9.83174e-05
9.76036e-05
8.77236e-05
9.64004e-05
0.000101091
7.85063e-05
7.25303e-05
2.1939e-05
1.36453e-06
4.18099e-05
0.000127177
0.000206868
0.000338106
0.000566304
0.000851621
9.81426e-05
0.0387906
0.0533074
0.043891
0.0472883
0.0554256
0.0700434
0.0847852
0.0946431
0.0952115
0.0841913
0.0650244
0.0448383
0.0292714
0.0194688
0.0136092
0.00968228
0.00661278
0.00374414
0.00166747
0.000665612
0.000202002
4.13456e-06
8.07617e-05
0.00010869
0.000112588
0.000111366
0.000125946
9.68671e-05
0.000102694
8.28383e-05
6.63084e-05
6.82909e-05
3.63572e-05
7.92431e-06
4.50186e-05
0.000114152
0.000192875
0.000295449
0.000481358
0.000748871
6.89809e-05
0.0375203
0.0509214
0.0398121
0.0403503
0.0454851
0.0583692
0.0775026
0.0940406
0.102377
0.098287
0.0817872
0.0589294
0.0378486
0.0231997
0.0147234
0.0100004
0.00697599
0.00458556
0.0022573
0.00076461
0.000185353
3.65267e-05
0.000109271
0.00013224
0.000129503
0.000126486
0.000130462
0.000117474
0.000114442
0.000102053
8.43063e-05
7.46366e-05
4.54645e-05
3.30621e-05
1.72213e-05
4.36267e-05
8.70651e-05
0.000137435
0.000239831
0.000399265
0.0006566
3.60587e-05
0.0363193
0.0486889
0.0364866
0.0348241
0.0362716
0.0459662
0.0640308
0.0874067
0.104143
0.109145
0.0990728
0.0770414
0.0514933
0.0306823
0.0176615
0.0108084
0.00728128
0.00506173
0.00315988
0.00125037
0.000237685
6.25634e-05
0.000148756
0.000159699
0.000154856
0.000148115
0.000131601
0.000154247
0.000136614
0.0001175
0.000103933
9.40117e-05
7.23973e-05
4.94049e-05
2.28965e-05
1.2873e-05
5.07417e-06
5.41767e-05
8.80307e-05
0.000162753
0.000305214
0.00055522
1.35542e-06
0.0351235
0.046484
0.0337879
0.0307204
0.0291657
0.0344922
0.0489218
0.0728468
0.0994133
0.114245
0.114016
0.0970989
0.0701082
0.0432341
0.0238263
0.0129536
0.00782304
0.00538454
0.00372378
0.00210819
0.000594102
5.08654e-05
0.000187038
0.000203619
0.00019097
0.000177519
0.000158489
0.000149497
0.000142934
0.000129514
0.000133533
0.000113993
9.33987e-05
6.37355e-05
1.96858e-05
3.03591e-05
2.67345e-05
2.85726e-05
2.25372e-05
3.48599e-06
7.82646e-05
0.000182862
0.000424014
3.45062e-05
0.0338342
0.0440984
0.0314386
0.0276671
0.0241365
0.0255774
0.0353859
0.0542098
0.0851377
0.112909
0.123222
0.116115
0.0921326
0.0613895
0.0347614
0.0177033
0.00924479
0.0057314
0.0040897
0.00270499
0.00128459
0.000192975
0.000198762
0.000245863
0.000237201
0.000214091
0.0002024
0.000177676
0.00017462
0.000178789
0.000147016
0.000120887
8.49423e-05
7.4622e-05
6.10341e-05
4.61373e-05
4.5374e-05
7.48363e-05
5.98548e-05
8.74762e-05
9.26043e-05
4.90246e-05
8.49334e-05
0.000288363
4.13032e-05
0.0324522
0.0415198
0.0292064
0.0252289
0.0207047
0.0193746
0.0242843
0.0395954
0.0652711
0.100639
0.126699
0.129909
0.114758
0.0842901
0.0515248
0.0266618
0.0126177
0.00654448
0.00433012
0.00311573
0.00182888
0.000667879
2.43066e-05
0.000270017
0.000276951
0.000259535
0.000241727
0.000235902
0.000210162
0.000205632
0.00017157
0.000152784
0.00013146
9.87918e-05
0.00010502
8.0879e-05
6.06406e-05
9.40929e-05
0.000121836
0.000162239
0.000205068
0.000209262
0.000186738
5.61267e-05
0.000172485
6.64281e-05
0.0309028
0.0388843
0.0270236
0.0231642
0.0182844
0.0154329
0.0165554
0.025914
0.0472458
0.0805022
0.118559
0.139347
0.133267
0.109596
0.0740223
0.0412629
0.0194526
0.00868446
0.00469923
0.00333429
0.00225461
0.00107184
0.000271613
0.000123927
0.000296395
0.000288354
0.000273982
0.000267108
0.000264576
0.000221064
0.000225144
0.000193287
0.000188616
0.0001345
9.78031e-05
0.000107978
9.20807e-05
0.000119494
0.000192231
0.000248323
0.000316858
0.000372558
0.000386945
0.000329382
0.000215881
5.18789e-05
6.35606e-05
0.0292937
0.0359902
0.0248165
0.0212362
0.0164279
0.0129478
0.0118038
0.0160774
0.0306851
0.0566091
0.0992791
0.137562
0.149338
0.132447
0.100683
0.0621021
0.031372
0.0134721
0.00584459
0.00346036
0.00251983
0.00145595
0.000500123
9.75565e-05
0.000132443
0.000273673
0.00026751
0.000262405
0.000268223
0.000268136
0.000263581
0.000250057
0.00021666
0.000175112
0.000148945
0.000134086
0.000162387
0.000153621
0.000213593
0.00030219
0.000416071
0.000485308
0.000546144
0.00056993
0.000499147
0.000325603
5.26068e-05
6.59002e-05
0.0277552
0.0330422
0.0226902
0.0193681
0.0148129
0.0112406
0.00905545
0.0100492
0.018146
0.0385981
0.0707644
0.121296
0.15587
0.155385
0.126969
0.0885139
0.0494902
0.0225173
0.00885024
0.00391755
0.00256375
0.00176051
0.000795492
0.000194714
0.000125206
4.00074e-05
0.000176472
0.000171474
0.000182244
0.000239349
0.000267158
0.000299876
0.000265173
0.000272422
0.000228005
0.000205431
0.000213593
0.000234449
0.000272999
0.000367836
0.000478361
0.000592563
0.000707543
0.000783612
0.000756091
0.000652174
0.000461493
0.000122604
6.01255e-05
0.0257844
0.0302083
0.020776
0.0175727
0.01334
0.00997173
0.00741381
0.0066594
0.0101979
0.023018
0.0496893
0.0956978
0.145025
0.171596
0.156499
0.116741
0.0740041
0.0372199
0.0151593
0.00551875
0.00262806
0.00184454
0.00110387
0.000375392
0.000158734
0.000336489
0.000200125
5.92572e-05
5.21847e-05
2.81792e-05
0.000127674
0.000255887
0.000337888
0.000360618
0.000319197
0.000287526
0.00027294
0.000304495
0.000363721
0.000455413
0.000552383
0.000709859
0.00085113
0.000940645
0.00101089
0.000950815
0.000820708
0.000538441
0.000212925
3.36056e-05
0.0235569
0.0250244
0.0190612
0.0158449
0.01195
0.00885578
0.0063435
0.00488871
0.00574654
0.0123879
0.0309121
0.0645826
0.120709
0.16838
0.182952
0.151919
0.102248
0.0584236
0.0262577
0.00948455
0.00326725
0.00175855
0.0012533
0.00065663
0.000251075
0.000402034
0.000745485
0.000618903
0.000468504
0.00041129
0.000212089
2.66547e-05
0.00029097
0.000410911
0.000466871
0.00042861
0.00040593
0.000399463
0.000448177
0.000546186
0.00066613
0.000837566
0.00100075
0.00113869
0.00122705
0.00123615
0.00114391
0.000948938
0.00061745
0.00026251
5.88131e-06
0.021722
0.0197333
0.017278
0.0141344
0.0106436
0.00782651
0.00551786
0.00390453
0.00350216
0.00616077
0.0166921
0.0421638
0.0886229
0.147416
0.18911
0.188477
0.141338
0.0846595
0.0432677
0.0173364
0.00542707
0.00184144
0.0011761
0.000852073
0.000505259
0.000435519
0.000863695
0.00130027
0.0011309
0.000937431
0.000689596
0.000289252
0.000143446
0.000496266
0.000697685
0.00071139
0.000628225
0.000581216
0.000603175
0.000661895
0.000813537
0.000991702
0.00117209
0.00133088
0.00144712
0.00150755
0.00143212
0.0012869
0.00101121
0.000668838
0.000259729
1.86669e-05
0.0201052
0.0166436
0.0152536
0.0126218
0.00945373
0.00693158
0.00481499
0.00324917
0.00240147
0.00308721
0.00798406
0.0234046
0.0571999
0.11328
0.174649
0.205167
0.18695
0.125251
0.0663526
0.030391
0.0104339
0.00274214
0.00101435
0.000845327
0.000724565
0.000652016
0.000848169
0.00141794
0.00169744
0.0012974
0.000917528
0.00028325
0.000514212
0.00109973
0.00137176
0.00138335
0.00120014
0.000953086
0.000833152
0.00085659
0.00098668
0.00114592
0.0013324
0.00151262
0.00166311
0.00176954
0.00174032
0.00160763
0.00138718
0.00103407
0.00066618
0.000242014
5.11196e-05
0.0186911
0.0152989
0.0138394
0.0128396
0.00841886
0.00609957
0.00421408
0.00277153
0.00185542
0.00167689
0.00350437
0.0112922
0.0327833
0.0761007
0.140453
0.199992
0.215167
0.177507
0.102095
0.0495212
0.0204016
0.00549768
0.00114543
0.000617219
0.000761526
0.000856487
0.00100882
0.00125618
0.00159822
0.00108739
6.22275e-05
0.000960374
0.00248069
0.00382849
0.00434791
0.003896
0.00303116
0.00217696
0.00145067
0.00117793
0.00120649
0.00132414
0.00151484
0.00172894
0.00190726
0.00199651
0.00202952
0.00194844
0.00173581
0.00143598
0.00102493
0.00060968
0.000224031
8.68713e-05
0.0167412
0.0159401
0.0122277
0.011249
0.00761931
0.00533198
0.00364244
0.00240824
0.00152
0.00105556
0.00152249
0.0047166
0.0162849
0.0451942
0.0986282
0.168856
0.220388
0.217474
0.16016
0.0765013
0.0412994
0.0115206
0.00227675
0.000330578
0.000527344
0.000875223
0.00109567
0.00121635
0.00104508
0.000279448
0.00239472
0.00540457
0.00749983
0.0106516
0.0126277
0.0124118
0.0098258
0.00653408
0.00395256
0.00219561
0.00158123
0.00156844
0.00175297
0.00195711
0.00214223
0.00226806
0.00231948
0.00224634
0.00207607
0.00177601
0.00140705
0.000972218
0.000571748
0.000172957
0.000121695
0.0143571
0.0133017
0.0100379
0.00836689
0.00647254
0.00450982
0.00314635
0.00204764
0.00124386
0.000780568
0.000729342
0.00181544
0.00674586
0.0231811
0.0605912
0.124192
0.196092
0.232941
0.209638
0.136143
0.056169
0.0262421
0.00556038
0.000396175
9.39489e-06
0.0005671
0.000951448
0.00100887
0.000513471
0.00111931
0.00479056
0.0121175
0.0185825
0.0233217
0.0290121
0.031308
0.0289693
0.0217228
0.0132352
0.00688324
0.00315078
0.00204741
0.00200804
0.00221172
0.0024057
0.0025398
0.00260763
0.00256103
0.00238905
0.00210261
0.00174243
0.0013255
0.000865818
0.00048225
7.83605e-05
0.000136363
0.0118704
0.0107689
0.00822066
0.00689713
0.00540419
0.00383675
0.00259253
0.00171018
0.00104456
0.000611733
0.000412322
0.000673347
0.00250605
0.00971659
0.0320642
0.0784769
0.151564
0.219203
0.236355
0.191905
0.10919
0.0409006
0.0130139
0.00157163
0.000629525
0.000162936
0.000417317
0.000479055
0.00028446
0.00255105
0.00762644
0.0173383
0.0334123
0.0448931
0.054713
0.0637167
0.0652388
0.058134
0.0425982
0.0246598
0.0113644
0.00439197
0.0024741
0.00243128
0.00267343
0.00283382
0.00289787
0.00287134
0.00270146
0.00244062
0.00206253
0.00162899
0.00117033
0.000740885
0.000339676
2.20176e-05
0.000175667
0.00921446
0.0086216
0.0067668
0.00572799
0.00441982
0.00331794
0.00219144
0.00139248
0.000850985
0.000484403
0.00028272
0.000261876
0.000835411
0.00365594
0.0140622
0.0392949
0.0994121
0.178695
0.235592
0.230413
0.166889
0.0789606
0.0321433
0.00460324
0.000998095
0.00135286
0.000676026
0.000547288
0.00150702
0.00427902
0.0102417
0.0219378
0.0429875
0.0704833
0.0876681
0.108112
0.120324
0.118945
0.102536
0.0749422
0.0431932
0.0173641
0.00569827
0.00279933
0.00281198
0.00313216
0.00324047
0.00319559
0.00306547
0.00278473
0.00239184
0.00194665
0.00147688
0.000989011
0.000581964
0.000233042
5.9113e-05
0.000191147
0.00634721
0.00663532
0.0054826
0.00473305
0.00364685
0.00272772
0.00188174
0.00117467
0.00068128
0.000378099
0.000194585
0.000108932
0.000252805
0.00114991
0.00534249
0.0204726
0.0539288
0.123384
0.202965
0.242947
0.214968
0.137433
0.0512089
0.0249795
0.00068909
0.00288033
0.00249846
0.00229324
0.00338152
0.00653612
0.0131109
0.0254404
0.0475313
0.087901
0.111638
0.127364
0.187199
0.201412
0.19325
0.161741
0.118258
0.0650464
0.0236693
0.00704801
0.00305122
0.00321292
0.00354919
0.00354995
0.00341557
0.00312012
0.00271963
0.00225902
0.00174404
0.00125312
0.000800204
0.000414971
0.000127878
0.000137375
0.000182878
2.11763e-05
0.00472736
0.00438593
0.00385097
0.0029826
0.00220297
0.00156873
0.00100876
0.000589524
0.00029073
0.0001299
5.93661e-05
4.32797e-05
0.000282097
0.00162896
0.00772203
0.0279912
0.0686084
0.148501
0.221683
0.240631
0.191501
0.106336
0.0399377
0.00509957
0.0043431
0.0051057
0.00502589
0.00618776
0.00967158
0.0167375
0.0294815
0.0510654
0.0846204
0.124635
0.157009
0.245618
0.2919
0.303696
0.28263
0.21414
0.146167
0.0940536
0.0308842
0.00829869
0.00321432
0.00358185
0.00387975
0.00375423
0.00346569
0.00308709
0.00257843
0.00202968
0.00150776
0.0010114
0.000590608
0.00025796
3.06388e-05
0.000189061
0.000199449
0.0013004
0.00333056
0.00312191
0.00245296
0.00182892
0.00127641
0.000822699
0.000467183
0.000243033
8.57907e-05
2.50493e-05
8.89185e-06
5.74707e-05
0.00039555
0.00230415
0.0107499
0.0321902
0.08812
0.171809
0.232688
0.2289
0.162756
0.0780171
0.0222784
0.00374279
0.00815113
0.00894576
0.0102839
0.0140316
0.0215796
0.0348205
0.0565011
0.0899094
0.136062
0.195776
0.307081
0.380402
0.410047
0.414055
0.376359
0.300036
0.178864
0.107698
0.040188
0.00917216
0.00339829
0.00395557
0.00412155
0.00386363
0.00344032
0.00291503
0.00232809
0.00172742
0.00120926
0.000770488
0.000407106
0.000119837
8.26334e-05
0.000265292
0.000180402
0.000829474
0.00251604
0.00209146
0.00158984
0.00105819
0.00068391
0.00038632
0.000188521
6.19426e-05
1.98099e-06
1.4591e-05
1.46065e-05
5.62012e-05
0.000487302
0.00318593
0.0153935
0.0343594
0.109473
0.190652
0.234984
0.209282
0.131729
0.0529582
0.00601443
0.0114001
0.0135578
0.0159384
0.0200281
0.0280168
0.0418083
0.0639397
0.0977099
0.146578
0.21732
0.32368
0.429427
0.494044
0.520887
0.511225
0.461477
0.378118
0.254938
0.1333
0.0461435
0.00946171
0.00367618
0.00425771
0.00424873
0.00380446
0.00322434
0.0026269
0.00198861
0.00140784
0.000899954
0.000511892
0.000190096
1.94781e-07
0.00014793
0.000302656
0.000144979
0.00059804
0.00183995
0.00142936
0.000988627
0.000622911
0.000343922
0.000144025
5.96391e-05
1.5084e-05
4.73603e-06
2.68041e-05
4.15863e-06
7.94529e-05
0.000635109
0.00422757
0.0217366
0.043936
0.128032
0.203219
0.228801
0.184223
0.10112
0.0298711
0.00851362
0.0200192
0.0222705
0.0279384
0.036411
0.0506881
0.0732653
0.107253
0.156519
0.225901
0.322799
0.435298
0.52708
0.586427
0.598916
0.571481
0.50982
0.414859
0.283209
0.147121
0.0476337
0.00900327
0.00400992
0.00449403
0.0041952
0.00360263
0.00295041
0.00226486
0.00162958
0.00106027
0.000613708
0.000272475
5.60994e-05
0.000112268
0.000201748
0.000335188
0.00012894
0.000418738
0.00139454
0.00101487
0.000639642
0.000343186
0.000158206
4.43653e-05
9.52106e-06
3.82658e-06
3.45798e-05
1.86259e-05
1.11106e-05
5.71396e-05
0.000775645
0.00543019
0.0265766
0.0643526
0.142189
0.208819
0.215571
0.156417
0.0724836
0.00839322
0.0228058
0.0317091
0.0361818
0.0469781
0.0617008
0.0844733
0.118297
0.166593
0.233281
0.32214
0.42509
0.521738
0.588949
0.637462
0.624298
0.579302
0.510856
0.416374
0.29118
0.148367
0.0443719
0.00803037
0.00436623
0.00454211
0.00403214
0.00329498
0.00256631
0.00186459
0.00124841
0.000723231
0.000365333
7.30407e-05
7.96491e-05
0.000187834
0.000262022
0.000352151
8.98752e-05
0.000317074
0.00109482
0.000730086
0.000429597
0.000208479
6.63962e-05
8.8359e-06
2.05537e-05
1.57525e-05
3.85677e-05
2.04647e-05
6.86285e-06
7.32738e-05
0.000922081
0.00607099
0.0250929
0.07704
0.153102
0.207784
0.197452
0.128283
0.0458986
0.0119816
0.0388317
0.0483292
0.0571182
0.0748808
0.0976507
0.130749
0.177252
0.240099
0.321205
0.417737
0.505149
0.570575
0.614065
0.632847
0.591584
0.535871
0.471357
0.393497
0.281264
0.138111
0.0372455
0.00687317
0.00464542
0.00444761
0.00368371
0.00287593
0.00211853
0.00140634
0.000839461
0.000435927
0.000103069
8.09856e-05
0.000195055
0.000229271
0.000279904
0.000368131
6.44874e-05
0.000241628
0.000879726
0.000575441
0.00031541
0.000148474
4.87071e-05
2.58556e-05
3.37192e-05
1.06168e-05
3.68741e-05
1.15539e-06
1.65096e-05
4.92428e-05
0.00107027
0.00729313
0.0312174
0.0865468
0.159422
0.201249
0.176842
0.101678
0.021593
0.0321378
0.0581699
0.0712912
0.0863799
0.112508
0.144481
0.188393
0.246635
0.320074
0.405771
0.492176
0.550879
0.573704
0.586903
0.565375
0.510667
0.455511
0.406489
0.355352
0.25876
0.118927
0.0281909
0.00599615
0.0047365
0.00414087
0.00323268
0.00237363
0.00161267
0.00100294
0.000488672
0.000143674
7.82724e-05
0.000198408
0.000277742
0.000292073
0.000327576
0.000375093
2.67999e-05
0.000201801
0.000768733
0.000474017
0.000262735
8.30464e-05
2.67209e-05
1.83731e-05
8.10511e-06
2.34354e-05
2.96394e-05
1.17013e-06
1.60728e-05
2.95285e-05
0.00126705
0.00899286
0.0362795
0.0934418
0.160787
0.190767
0.156077
0.0779954
0.000128669
0.0526398
0.0814163
0.100976
0.12393
0.158736
0.199576
0.252362
0.317669
0.392634
0.467662
0.527184
0.551647
0.524015
0.498235
0.455095
0.401295
0.357194
0.332471
0.312677
0.228396
0.0942883
0.0194248
0.00543736
0.00459188
0.00368638
0.00270097
0.00188137
0.00115743
0.00059468
0.000207558
6.50162e-05
0.000242945
0.000323467
0.000346702
0.000317964
0.000337299
0.000341699
1.85059e-05
0.000188715
0.000673649
0.000425941
0.000224105
0.000106856
2.47438e-05
1.61063e-05
5.30351e-06
1.96215e-05
2.70973e-06
3.83882e-06
4.56681e-05
1.17334e-05
0.00147152
0.0104806
0.040018
0.096946
0.157681
0.177955
0.13715
0.0585502
0.0185381
0.0728942
0.107448
0.135916
0.16736
0.209289
0.256264
0.312772
0.376547
0.440197
0.489549
0.511111
0.496571
0.432974
0.37657
0.329064
0.285468
0.257982
0.263079
0.273432
0.192852
0.0679922
0.0126354
0.00511235
0.00419588
0.00312456
0.00216008
0.00135311
0.00073194
0.000281211
6.41174e-05
0.000262638
0.000375093
0.000392971
0.000379712
0.000345858
0.000336511
0.000330981
5.12658e-05
0.000180679
0.000604436
0.000391636
0.000206404
8.46105e-05
2.4474e-05
7.04233e-06
2.17757e-06
1.39621e-05
1.45996e-05
4.52379e-06
7.01819e-05
3.23839e-05
0.00163379
0.0115638
0.042085
0.0967046
0.150727
0.16432
0.121604
0.0446836
0.0320469
0.090522
0.132795
0.171777
0.210918
0.25599
0.303506
0.35569
0.407116
0.447118
0.462171
0.445053
0.396143
0.318708
0.251341
0.210701
0.179234
0.16963
0.208336
0.240338
0.153488
0.04409
0.00838651
0.00476908
0.00363683
0.00250492
0.00158307
0.000870046
0.000331087
3.01612e-05
0.000267256
0.00039823
0.000448124
0.000469718
0.000429529
0.000392333
0.000352095
0.000287013
8.34453e-05
0.000173172
0.000575514
0.000360008
0.000197382
9.72174e-05
9.85403e-06
6.37737e-06
2.20782e-05
2.04926e-05
1.43379e-05
2.98088e-06
8.96915e-05
9.21625e-05
0.00172388
0.0120751
0.0420678
0.0928412
0.140643
0.150844
0.11034
0.0376111
0.0382956
0.101336
0.151401
0.200846
0.245241
0.287212
0.327491
0.366578
0.396534
0.406378
0.388801
0.344833
0.279345
0.202962
0.139796
0.113185
0.0897365
0.0989353
0.174026
0.210619
0.112375
0.0257415
0.00619942
0.00423357
0.00295104
0.00186818
0.00102403
0.00043567
1.67175e-05
0.000267192
0.000410312
0.000507232
0.000540795
0.00050396
0.000456432
0.00037914
0.000338487
0.000269991
0.000112281
0.00019461
0.000556887
0.000370212
0.000187387
8.56103e-05
1.24208e-05
8.08117e-06
5.22743e-07
2.02515e-06
2.63568e-05
1.76589e-05
0.000103658
0.000140238
0.0017041
0.0118655
0.0399511
0.0857036
0.128052
0.137812
0.10331
0.037835
0.0349459
0.100575
0.155795
0.212851
0.258578
0.290427
0.316501
0.336378
0.340157
0.322826
0.287307
0.234545
0.17095
0.0969951
0.0675352
0.0368509
0.0167437
0.0505463
0.160502
0.178116
0.0737501
0.0141234
0.00507688
0.0035182
0.00223399
0.00126969
0.000581442
7.48058e-05
0.0002204
0.000427419
0.000543755
0.000566898
0.0005736
0.00054371
0.000467887
0.000414746
0.000318008
0.000219457
0.000135297
0.000211404
0.000567579
0.00034498
0.000191705
8.55603e-05
4.03329e-05
1.54296e-05
6.27751e-06
1.19713e-05
1.11913e-05
1.81514e-05
0.000122381
0.000190186
0.00154447
0.0109427
0.0359926
0.0758816
0.113363
0.124804
0.0991632
0.0442558
0.0212763
0.0853927
0.140559
0.198535
0.24035
0.256756
0.266066
0.263301
0.246418
0.22534
0.186789
0.137084
0.083798
0.0432875
0.00860325
0.025672
0.0416618
0.0290333
0.160821
0.138598
0.0427211
0.00813223
0.00425328
0.00274232
0.00158459
0.000747626
0.000168501
0.000185687
0.000436959
0.000576343
0.000617037
0.00066042
0.000614978
0.00056702
0.000492484
0.000414512
0.000308619
0.000189888
0.000151316
0.000222052
0.000556817
0.000326075
0.000202264
8.59038e-05
3.17339e-05
1.0369e-05
1.27465e-05
2.08171e-05
1.60409e-05
2.03977e-05
0.000132563
0.000217768
0.00130513
0.00945089
0.0305773
0.0640696
0.0968976
0.110867
0.0953297
0.0537823
1.42357e-05
0.0567106
0.110478
0.162699
0.197879
0.213055
0.210326
0.196643
0.170669
0.136026
0.100184
0.0645526
0.0186038
0.00103502
0.0411713
0.0815803
0.0832694
0.0364291
0.160523
0.0953176
0.0214765
0.00550353
0.00341845
0.00198765
0.000966543
0.000312799
0.000150034
0.000410273
0.000593592
0.000682073
0.000688409
0.00069116
0.000641388
0.000597284
0.000530043
0.00042932
0.000322708
0.000161241
0.000162594
0.000241132
0.000544984
0.000331833
0.00018768
7.62651e-05
2.07562e-05
2.52955e-05
1.18645e-05
1.2009e-05
3.45366e-05
1.39447e-05
0.000101209
0.000232923
0.000993732
0.00754907
0.0243724
0.0512317
0.0790983
0.0950928
0.0887681
0.061925
0.0225771
0.0219053
0.0631777
0.102776
0.127358
0.126458
0.124168
0.114259
0.0853871
0.0630823
0.0415392
0.0197066
0.00753363
0.0402232
0.0911249
0.133341
0.0999825
0.0655693
0.141151
0.0567408
0.0103326
0.00422305
0.00255185
0.00131007
0.000505565
4.60613e-05
0.00037011
0.000568401
0.000698864
0.000733021
0.000759053
0.000732588
0.00067504
0.000604173
0.000524923
0.000431112
0.000318893
0.000109448
0.000187505
0.000251897
0.000529096
0.000333532
0.000164381
7.11076e-05
2.08103e-05
2.2318e-06
1.26966e-05
3.2146e-05
3.5651e-05
1.31898e-05
9.47769e-05
0.000223024
0.000697118
0.00559566
0.0180756
0.0384098
0.0608133
0.0769754
0.0775619
0.0637191
0.0392778
0.00916741
0.0213033
0.0471106
0.0617475
0.0561406
0.0469751
0.0390718
0.0306606
0.0214917
0.0105969
0.00715371
0.0393797
0.08422
0.147492
0.174905
0.0825762
0.0970104
0.0985587
0.0285457
0.00592157
0.00323618
0.0017826
0.000757846
0.000118755
0.000295064
0.000531766
0.00068132
0.000789689
0.000785882
0.000793895
0.000741417
0.00068444
0.00061803
0.000504775
0.00042935
0.000272249
7.70901e-05
0.000192986
0.000253389
0.00052994
0.000350145