/*--------------------------------*- C++ -*----------------------------------*\
| =========                 |                                                 |
| \\      /  F ield         | OpenFOAM: The Open Source CFD Toolbox           |
|  \\    /   O peration     | Version:  2506                                  |
|   \\  /    A nd           | Website:  www.openfoam.com                      |
|    \\/     M anipulation  |                                                 |
\*---------------------------------------------------------------------------*/
FoamFile
{
    version     2.0;
    format      ascii;
    arch        "LSB;label=32;scalar=64";
    class       surfaceScalarField;
    location    "19.971824";
    object      phi;
}
// * * * * * * * * * * * * * * * * * * * * * * * * * * * * * * * * * * * * * //

dimensions      [0 3 -1 0 0 0 0];

oriented        oriented;

internalField   nonuniform List<scalar> 
19160
(
-0.000949258
-0.193548
-0.00189294
-0.193581
-0.000951271
-0.192597
-0.0027833
-0.193666
-0.00189269
-0.192639
-0.000918518
-0.191678
-0.00362869
-0.193906
-0.00276389
-0.192795
-0.00181805
-0.19174
-0.00086486
-0.190814
-0.00440762
-0.194227
-0.00357921
-0.19309
-0.002643
-0.19197
-0.00169166
-0.190913
-0.000770834
-0.190043
-0.00511502
-0.194641
-0.00430403
-0.193503
-0.00339301
-0.19234
-0.00244206
-0.19122
-0.00149012
-0.190194
-0.000631774
-0.189411
-0.0057455
-0.195123
-0.00493606
-0.194009
-0.00404071
-0.192855
-0.00309825
-0.191684
-0.00212655
-0.190583
-0.0012054
-0.18962
-0.000443296
-0.188968
-0.00629847
-0.195689
-0.00547054
-0.194588
-0.00458085
-0.193469
-0.0036395
-0.192314
-0.0026552
-0.191155
-0.00169093
-0.190098
-0.000834093
-0.189229
-0.00021982
-0.188748
-0.0067764
-0.196287
-0.00591071
-0.195249
-0.00501346
-0.194156
-0.00406056
-0.193048
-0.00305941
-0.191909
-0.002061
-0.190785
-0.00113328
-0.189799
-0.000391549
-0.189058
1.7536e-05
-0.188765
-0.00718605
-0.196945
-0.00626187
-0.195936
-0.00534383
-0.194918
-0.00436389
-0.193852
-0.00333496
-0.192772
-0.00230119
-0.191669
-0.00131467
-0.190604
-0.000469737
-0.18972
0.000106758
-0.189147
0.000291761
-0.189057
-0.00753155
-0.197618
-0.00653574
-0.196672
-0.00558098
-0.195698
-0.00455834
-0.194724
-0.00348758
-0.1937
-0.00241001
-0.192663
-0.00136797
-0.191616
-0.000437472
-0.190636
0.00027821
-0.189892
0.000653984
-0.189509
0.000590782
-0.189648
-0.00781725
-0.198295
-0.00673981
-0.197414
-0.00573767
-0.196515
-0.00465695
-0.1956
-0.00352999
-0.194682
-0.0023968
-0.193713
-0.00129529
-0.192736
-0.000288433
-0.191765
0.000541062
-0.190899
0.0010812
-0.190319
0.00122117
-0.190139
0.00087238
-0.19052
-0.00804816
-0.199002
-0.00688229
-0.198153
-0.00582521
-0.197326
-0.00467518
-0.196497
-0.00347918
-0.195651
-0.00227813
-0.1948
-0.00110949
-0.193899
-2.8312e-05
-0.192996
0.00089866
-0.192123
0.00157616
-0.191394
0.00189659
-0.190994
0.0017632
-0.19103
0.00112129
-0.191642
-0.00822965
-0.199697
-0.00697275
-0.198912
-0.00585555
-0.198123
-0.00462928
-0.197372
-0.00335431
-0.196622
-0.00207469
-0.195854
-0.0008303
-0.195079
0.000327433
-0.194254
0.00134284
-0.19344
0.00213607
-0.192682
0.00261233
-0.19211
0.00267152
-0.191903
0.00224509
-0.192154
0.00132448
-0.192966
-0.00836726
-0.200415
-0.00702107
-0.199649
-0.00584155
-0.198926
-0.00453512
-0.198217
-0.00317481
-0.197552
-0.00180871
-0.196888
-0.000481137
-0.196203
0.000757169
-0.195509
0.00185688
-0.194768
0.00275037
-0.194054
0.0033582
-0.193428
0.00358678
-0.193025
0.00335817
-0.193016
0.00263635
-0.193466
0.00147385
-0.19444
-0.00846699
-0.201128
-0.0070368
-0.200399
-0.00579591
-0.199695
-0.00440831
-0.199053
-0.00295943
-0.198432
-0.00150211
-0.197858
-8.60874e-05
-0.197283
0.00123643
-0.196682
0.00241911
-0.196071
0.00340233
-0.19542
0.00412142
-0.194818
0.00449411
-0.194336
0.00444289
-0.19411
0.0039118
-0.194291
0.00292216
-0.194914
0.00156652
-0.196006
-0.00853684
-0.201838
-0.00702976
-0.201135
-0.00573073
-0.200465
-0.00426358
-0.199839
-0.00272578
-0.199286
-0.00117534
-0.198759
0.000331864
-0.198276
0.00174097
-0.197787
0.00300604
-0.197269
0.00407211
-0.196741
0.0048864
-0.196185
0.00537972
-0.195703
0.00548186
-0.195375
0.00512696
-0.195325
0.00431303
-0.195682
0.00309771
-0.196445
0.00160354
-0.19761
-0.00858577
-0.202573
-0.0070118
-0.201856
-0.00565784
-0.201207
-0.00411481
-0.200613
-0.00249003
-0.200075
-0.000846915
-0.199615
0.000751976
-0.199179
0.0022484
-0.198784
0.00359524
-0.198376
0.00473931
-0.197937
0.00563692
-0.197492
0.00623068
-0.197036
0.00646174
-0.196683
0.00626307
-0.196511
0.0056184
-0.19663
0.00455678
-0.197141
0.0031657
-0.198008
0.00159626
-0.199206
-0.00862078
-0.203291
-0.00699394
-0.202591
-0.00558959
-0.201924
-0.00397494
-0.201347
-0.0022669
-0.200837
-0.000533526
-0.200388
0.00115614
-0.200019
0.00273925
-0.19967
0.00416677
-0.199355
0.00538533
-0.199022
0.0063575
-0.198657
0.0070358
-0.198297
0.0073734
-0.197948
0.00730833
-0.197728
0.00681918
-0.197712
0.00591383
-0.197987
0.00464821
-0.198624
0.00314886
-0.19956
0.00155683
-0.200763
-0.008646
-0.204014
-0.00698457
-0.2033
-0.00553696
-0.202644
-0.00385646
-0.202042
-0.00206971
-0.201545
-0.000249748
-0.20112
0.00152854
-0.200761
0.00319707
-0.200477
0.00470384
-0.200207
0.00599427
-0.199964
0.00703495
-0.1997
0.00778586
-0.199407
0.00821157
-0.199135
0.00825793
-0.198898
0.00790579
-0.198815
0.00715047
-0.198948
0.00602157
-0.199361
0.00462092
-0.200096
0.00307102
-0.201074
0.00149563
-0.202259
-0.0086637
-0.204684
-0.00698917
-0.204009
-0.00550929
-0.203328
-0.00377101
-0.202729
-0.00191119
-0.202201
-8.56128e-06
-0.201786
0.00185565
-0.201447
0.00360808
-0.201172
0.00519291
-0.200966
0.00655339
-0.200766
0.00765871
-0.200588
0.00847415
-0.200388
0.00897383
-0.200169
0.00911255
-0.19999
0.00887755
-0.199869
0.00825947
-0.199924
0.00726892
-0.200196
0.00598503
-0.200725
0.0045091
-0.201534
0.00295215
-0.202531
0.00142633
-0.203685
-0.00867585
-0.205251
-0.0070098
-0.204664
-0.00551341
-0.204005
-0.00372885
-0.20337
-0.00180292
-0.202838
0.000178022
-0.202388
0.00212554
-0.202056
0.00396073
-0.2018
0.00562292
-0.201602
0.00705284
-0.201465
0.00822084
-0.201328
0.00909604
-0.20121
0.00966016
-0.201074
0.00987627
-0.200933
0.00974033
-0.200852
0.00924358
-0.200853
0.00838518
-0.20104
0.00722639
-0.201437
0.00584691
-0.202063
0.00434068
-0.202922
0.00281853
-0.203923
0.0013564
-0.205041
-0.00868891
-0.205683
-0.0070449
-0.205216
-0.00555214
-0.204625
-0.00373752
-0.203996
-0.00175516
-0.203418
0.000299165
-0.202959
0.00232771
-0.20259
0.00424487
-0.20234
0.00598493
-0.202162
0.00748492
-0.202034
0.00871567
-0.20196
0.00964872
-0.201881
0.0102719
-0.201822
0.0105552
-0.201753
0.0105035
-0.201696
0.0101125
-0.201721
0.0093754
-0.201844
0.00834163
-0.202156
0.00707192
-0.202662
0.00564093
-0.203363
0.00415266
-0.204257
0.00268434
-0.205251
0.00129152
-0.206333
-0.00871459
-0.205895
-0.00709315
-0.205635
-0.00562259
-0.205145
-0.00380019
-0.204562
-0.0017758
-0.203976
0.000345036
-0.203463
0.00245235
-0.203083
0.00445172
-0.202797
0.00627112
-0.202626
0.00784346
-0.202521
0.00913893
-0.202457
0.0101306
-0.202442
0.0108109
-0.20242
0.0111557
-0.202422
0.0111781
-0.202428
0.0108793
-0.202463
0.0102514
-0.202597
0.00933691
-0.202839
0.00818193
-0.203266
0.00684257
-0.203864
0.00541237
-0.204623
0.00396441
-0.205537
0.00256042
-0.20652
0.0012321
-0.207565
-0.00877578
-0.205954
-0.00715691
-0.205831
-0.0057195
-0.205538
-0.00391285
-0.205033
-0.00186857
-0.20447
0.000307686
-0.203938
0.00249048
-0.203502
0.00457292
-0.203205
0.00647453
-0.203
0.00812311
-0.202906
0.00948724
-0.202869
0.0105407
-0.202867
0.0112794
-0.20291
0.0116837
-0.202948
0.0117743
-0.203018
0.011558
-0.203107
0.0110282
-0.20324
0.0102246
-0.203485
0.00918315
-0.20384
0.00794414
-0.204367
0.00658934
-0.205041
0.00518407
-0.205842
0.00379082
-0.206767
0.00244696
-0.207735
0.00118054
-0.208746
-0.00901027
-0.137385
-0.00726012
-0.205851
-0.00583922
-0.205711
-0.00406729
-0.205384
-0.00202948
-0.204872
0.000183006
-0.204345
0.00243455
-0.203882
0.00460061
-0.203529
0.00658856
-0.203319
0.00831885
-0.203196
0.00975745
-0.203176
0.010878
-0.203206
0.0116789
-0.203267
0.0121444
-0.203371
0.012301
-0.203475
0.0121613
-0.203622
0.011721
-0.203799
0.0110199
-0.204035
0.0100873
-0.204389
0.00895119
-0.204847
0.00768252
-0.20546
0.00633674
-0.206193
0.00497374
-0.207025
0.00363153
-0.207952
0.00234815
-0.208902
0.00113655
-0.209882
-0.00912079
-0.137539
-0.00753707
-0.137108
-0.00599653
-0.205694
-0.0042529
-0.205526
-0.00224871
-0.205165
-2.58615e-05
-0.204663
0.0022803
-0.204191
0.00452783
-0.20381
0.00660666
-0.203547
0.00842577
-0.203426
0.00994635
-0.203385
0.0111412
-0.203439
0.0120104
-0.203538
0.0125412
-0.203664
0.0127652
-0.203835
0.0126997
-0.204013
0.0123436
-0.204244
0.0117378
-0.204517
0.0109084
-0.204856
0.00987397
-0.205312
0.00869648
-0.205861
0.00742163
-0.206545
0.00610413
-0.207324
0.00477991
-0.208173
0.00349266
-0.209096
0.0022619
-0.210028
0.00109621
-0.210978
-0.00913162
-0.137719
-0.00769315
-0.137383
-0.0063289
-0.136776
-0.00447854
-0.205468
-0.00250872
-0.205266
-0.000308963
-0.204882
0.00202932
-0.204412
0.0043504
-0.204013
0.00652251
-0.203725
0.00843844
-0.20356
0.0100504
-0.20353
0.0113284
-0.203572
0.012274
-0.203703
0.0128764
-0.203873
0.0131715
-0.20407
0.0131812
-0.204317
0.0129068
-0.204576
0.0123916
-0.204898
0.0116602
-0.205269
0.0107245
-0.205707
0.00963966
-0.206255
0.00844234
-0.206882
0.00718147
-0.207622
0.00588851
-0.208432
0.0046103
-0.209291
0.00337106
-0.210205
0.00218198
-0.211114
0.00105833
-0.212037
-0.00906242
-0.13795
-0.00774945
-0.137663
-0.00653566
-0.137176
-0.00487735
-0.136377
-0.00281291
-0.205164
-0.000646081
-0.204929
0.00169087
-0.204543
0.0040682
-0.20413
0.0063321
-0.203823
0.00835179
-0.203639
0.0100652
-0.203575
0.0114372
-0.203638
0.0124687
-0.203767
0.0131508
-0.203977
0.0135231
-0.204225
0.0136112
-0.2045
0.0134189
-0.204829
0.0129921
-0.205177
0.0123549
-0.205593
0.0115148
-0.206059
0.010522
-0.206589
0.0094056
-0.207218
0.0082086
-0.207909
0.00695713
-0.208691
0.00569904
-0.209521
0.00446096
-0.210381
0.00325731
-0.211281
0.00210872
-0.212164
0.00102162
-0.213058
-0.00893889
-0.138242
-0.00772519
-0.137974
-0.00664397
-0.137554
-0.00515166
-0.136902
-0.00328499
-0.135905
-0.00103077
-0.204779
0.001283
-0.204521
0.00368929
-0.204164
0.00603397
-0.203832
0.0081618
-0.203633
0.00998707
-0.203561
0.0114646
-0.203602
0.012593
-0.203763
0.0133643
-0.20398
0.0138212
-0.204275
0.0139928
-0.204606
0.0138853
-0.204966
0.0135469
-0.205384
0.0130021
-0.205824
0.0122554
-0.206333
0.0113534
-0.206891
0.0103193
-0.207503
0.00919086
-0.208201
0.00798819
-0.20894
0.00675909
-0.209751
0.0055311
-0.210591
0.00431986
-0.211444
0.00315232
-0.212324
0.00203809
-0.21318
0.000986135
-0.214044
-0.00877623
-0.138609
-0.00764312
-0.138324
-0.00667896
-0.137939
-0.00532797
-0.137378
-0.00363054
-0.136556
-0.00157667
-0.135359
0.000823897
-0.20432
0.003226
-0.204058
0.00563451
-0.203765
0.00786635
-0.203536
0.00981183
-0.203458
0.0114071
-0.203503
0.0126443
-0.203654
0.0135156
-0.203914
0.0140659
-0.204225
0.0143276
-0.20461
0.0143092
-0.20503
0.0140613
-0.205481
0.013609
-0.205991
0.0129546
-0.206523
0.0121428
-0.207123
0.0111917
-0.207763
0.0101346
-0.208446
0.00898607
-0.209199
0.0077928
-0.209974
0.0065823
-0.210802
0.00537029
-0.211641
0.00418858
-0.21248
0.00305041
-0.213337
0.00196876
-0.214163
0.000949103
-0.214994
-0.00860172
-0.139039
-0.00751659
-0.138735
-0.00665132
-0.138351
-0.00543536
-0.137832
-0.00388698
-0.137121
-0.00199846
-0.136134
0.000210678
-0.134746
0.0027072
-0.203802
0.00514182
-0.203565
0.00746945
-0.203368
0.00953716
-0.203261
0.0112609
-0.203311
0.0126197
-0.203479
0.0136026
-0.203741
0.0142561
-0.204104
0.0146156
-0.204513
0.0146918
-0.204993
0.014538
-0.205507
0.0141801
-0.206052
0.0136187
-0.206655
0.0128972
-0.207278
0.0120299
-0.207961
0.0110464
-0.208675
0.00995601
-0.209416
0.00880408
-0.21021
0.00761709
-0.211009
0.00641022
-0.211842
0.00521913
-0.212672
0.00405984
-0.213489
0.00294967
-0.214317
0.00189575
-0.21511
0.000911077
-0.215905
-0.00844184
-0.139529
-0.00736819
-0.139187
-0.00659054
-0.138796
-0.0054948
-0.138292
-0.00408247
-0.137636
-0.00233525
-0.136785
-0.000281665
-0.135642
0.00203787
-0.134076
0.00458565
-0.203245
0.00697785
-0.203073
0.00916466
-0.202995
0.0110235
-0.203024
0.0125159
-0.203208
0.0136228
-0.203499
0.0143901
-0.203875
0.0148558
-0.204344
0.0150333
-0.204854
0.0149783
-0.205433
0.0147179
-0.206045
0.0142516
-0.206685
0.0136219
-0.207379
0.01284
-0.208088
0.0119325
-0.208847
0.0109036
-0.209623
0.00979751
-0.21041
0.00863932
-0.211232
0.0074426
-0.212041
0.00624646
-0.21287
0.00506898
-0.213681
0.00393134
-0.214471
0.0028427
-0.215264
0.00182054
-0.216019
0.000871379
-0.216776
-0.00832813
-0.140059
-0.00722239
-0.139675
-0.00650522
-0.139273
-0.00552037
-0.13877
-0.00424013
-0.138134
-0.00262011
-0.137352
-0.000691815
-0.136375
0.00148928
-0.135093
0.00387158
-0.133362
0.00641389
-0.202681
0.00870024
-0.202609
0.0106948
-0.202667
0.0123301
-0.202838
0.0135732
-0.203158
0.0144655
-0.203574
0.0150466
-0.204065
0.0153326
-0.204644
0.0153819
-0.205258
0.0152233
-0.205938
0.0148554
-0.206648
0.0143201
-0.207383
0.0136262
-0.208166
0.0127976
-0.208953
0.0118341
-0.209777
0.0107782
-0.210603
0.0096534
-0.211424
0.00847155
-0.212261
0.00727415
-0.213069
0.00608121
-0.213882
0.00491727
-0.214667
0.00379335
-0.215422
0.00273179
-0.216176
0.00174177
-0.21689
0.000828313
-0.217604
-0.00829217
-0.140597
-0.00711046
-0.140171
-0.00642264
-0.139758
-0.00553075
-0.139262
-0.00437637
-0.138634
-0.00288367
-0.137871
-0.00106332
-0.13698
0.0010168
-0.135902
0.00328058
-0.134502
0.0056771
-0.132626
0.00815826
-0.202139
0.0102792
-0.202193
0.0120612
-0.202398
0.013451
-0.202716
0.0144796
-0.203172
0.0151858
-0.203713
0.0155881
-0.204321
0.0157478
-0.20501
0.0156958
-0.20573
0.0154305
-0.206513
0.0149935
-0.207322
0.0143914
-0.208148
0.0136457
-0.209014
0.0127517
-0.209871
0.0117507
-0.21075
0.0106642
-0.211614
0.00950166
-0.212454
0.00830683
-0.213294
0.00710086
-0.214088
0.00591173
-0.214876
0.00475202
-0.215626
0.00364902
-0.216339
0.00261494
-0.217049
0.00165593
-0.217717
0.0007831
-0.218387
-0.00771051
-0.212195
-0.00706718
-0.14064
-0.00636587
-0.140227
-0.00553794
-0.139751
-0.00450312
-0.139135
-0.00314347
-0.138374
-0.00142976
-0.137504
0.000571789
-0.136535
0.00276135
-0.135383
0.00506148
-0.133887
0.00741833
-0.131886
0.00978543
-0.201646
0.011712
-0.201844
0.0132546
-0.202201
0.0144299
-0.202666
0.0152712
-0.203257
0.0157977
-0.203923
0.0160742
-0.204647
0.0161342
-0.205448
0.0159761
-0.206276
0.0156421
-0.207162
0.0151365
-0.208067
0.0144787
-0.208981
0.0136598
-0.209922
0.0127191
-0.210839
0.0116764
-0.211762
0.010538
-0.21265
0.0093496
-0.213497
0.00813326
-0.214326
0.00691985
-0.215096
0.00572377
-0.215848
0.00457722
-0.216554
0.0034957
-0.21722
0.00248689
-0.21788
0.00156532
-0.218499
0.000735064
-0.219122
-0.00699804
-0.21378
-0.00646478
-0.212797
-0.00636598
-0.14064
-0.00556898
-0.140196
-0.00463717
-0.139616
-0.00341151
-0.138867
-0.00181526
-0.137989
0.000114664
-0.137047
0.00226349
-0.136037
0.00451687
-0.134838
0.00679856
-0.133267
0.00906501
-0.131165
0.0112873
-0.201221
0.0129853
-0.201575
0.0143144
-0.202086
0.0153002
-0.202695
0.0159595
-0.203419
0.0163592
-0.204208
0.0165364
-0.20505
0.0164907
-0.205962
0.0162646
-0.206899
0.0158611
-0.207887
0.0152974
-0.208886
0.01456
-0.209881
0.0136866
-0.210889
0.012694
-0.211857
0.0115856
-0.21281
0.0104082
-0.213709
0.00918429
-0.214548
0.00794782
-0.215354
0.00671456
-0.216087
0.00552217
-0.216793
0.00438957
-0.217448
0.00332635
-0.218059
0.00235104
-0.218665
0.00146891
-0.219233
0.00068467
-0.219807
-0.00619397
-0.215295
-0.00571522
-0.214529
-0.00583033
-0.213333
-0.00564943
-0.14056
-0.0047949
-0.140039
-0.0036957
-0.139332
-0.00222853
-0.138454
-0.000383399
-0.137491
0.00173874
-0.136522
0.00398877
-0.135509
0.00625327
-0.134293
0.00846605
-0.132668
0.0105994
-0.130477
0.0126459
-0.200881
0.0141335
-0.201394
0.015271
-0.202057
0.0160711
-0.202807
0.0166009
-0.203661
0.0169004
-0.204572
0.0169718
-0.205531
0.0168589
-0.206557
0.0165635
-0.207601
0.0161008
-0.20869
0.0154528
-0.209778
0.0146545
-0.210849
0.0137201
-0.211915
0.0126489
-0.21292
0.0114881
-0.21389
0.0102605
-0.214785
0.00900248
-0.215602
0.0077315
-0.216371
0.00649059
-0.217056
0.00530287
-0.217706
0.00418012
-0.218302
0.00314547
-0.218853
0.00220589
-0.219402
0.00136767
-0.219916
0.00063127
-0.220438
-0.00533788
-0.216694
-0.00487001
-0.216141
-0.00513089
-0.215229
-0.00522875
-0.213753
-0.00499613
-0.140358
-0.00400793
-0.139726
-0.00267623
-0.138885
-0.000938522
-0.137899
0.00114985
-0.136902
0.00342672
-0.13596
0.00572841
-0.134984
0.0079432
-0.13377
0.0100412
-0.13211
0.0120163
-0.129848
0.0138894
-0.200637
0.0151833
-0.201306
0.0161313
-0.202117
0.0167974
-0.203004
0.0172243
-0.203985
0.017417
-0.205017
0.017422
-0.206094
0.0172406
-0.207234
0.0168863
-0.208386
0.0163364
-0.209574
0.0156231
-0.210747
0.0147565
-0.211886
0.0137314
-0.212998
0.0125947
-0.214026
0.0113686
-0.214998
0.0100916
-0.215874
0.00878255
-0.216653
0.00749055
-0.217371
0.00624302
-0.217996
0.00505491
-0.218581
0.00395446
-0.219111
0.00295099
-0.219599
0.00205288
-0.220088
0.00126017
-0.220545
0.000576442
-0.221015
-0.00446314
-0.218009
-0.00397946
-0.217585
-0.00432209
-0.216949
-0.00461538
-0.215842
-0.00474796
-0.214001
-0.00436285
-0.140003
-0.00316316
-0.139239
-0.00155119
-0.138272
0.000477048
-0.137226
0.00278094
-0.136256
0.00515782
-0.13539
0.0074436
-0.134485
0.00956577
-0.133295
0.0115144
-0.131608
0.0133216
-0.12928
0.0150397
-0.200494
0.0161388
-0.201314
0.0169476
-0.202267
0.0175065
-0.203286
0.0178241
-0.204392
0.0179507
-0.205546
0.0178886
-0.206742
0.0176501
-0.207998
0.0172076
-0.209258
0.0165901
-0.210541
0.0158031
-0.211793
0.0148353
-0.212989
0.0137325
-0.214136
0.0125151
-0.215173
0.0112232
-0.216129
0.00987684
-0.216969
0.0085312
-0.217694
0.00721896
-0.218347
0.00595864
-0.2189
0.00478483
-0.219411
0.00370987
-0.219869
0.00274486
-0.220291
0.00188989
-0.220717
0.0011496
-0.221118
0.000520721
-0.221536
-0.00359424
-0.219224
-0.00308643
-0.218902
-0.00345923
-0.218447
-0.00386813
-0.217697
-0.00426961
-0.21632
-0.004341
-0.214023
-0.00369746
-0.139469
-0.00222126
-0.138569
-0.000286194
-0.137509
0.00202253
-0.136468
0.00449603
-0.135594
0.00690715
-0.134853
0.00912008
-0.134039
0.0111039
-0.132884
0.0128811
-0.131168
0.0145372
-0.128777
0.016097
-0.200452
0.0170504
-0.201416
0.0177463
-0.202507
0.0181913
-0.203653
0.018442
-0.204883
0.0185032
-0.20616
0.0183869
-0.207479
0.0180613
-0.208851
0.0175515
-0.210219
0.0168576
-0.211595
0.0159609
-0.212919
0.0149044
-0.214161
0.0137058
-0.215326
0.0124054
-0.216355
0.0110241
-0.217277
0.00962321
-0.218061
0.00824107
-0.218716
0.00690099
-0.219289
0.00564478
-0.21976
0.00448916
-0.220191
0.0034487
-0.220573
0.00252421
-0.220925
0.00172171
-0.22129
0.00103706
-0.221635
0.000464097
-0.222
-0.00274901
-0.220357
-0.00221925
-0.220092
-0.00259155
-0.219769
-0.00304737
-0.219268
-0.00362227
-0.218344
-0.00404329
-0.216618
-0.00395136
-0.213769
-0.00294993
-0.13874
-0.00113275
-0.137723
0.0011409
-0.136627
0.00369563
-0.135667
0.00626913
-0.134956
0.00864816
-0.134381
0.0107356
-0.133671
0.012547
-0.13255
0.0141679
-0.130798
0.0156597
-0.12834
0.0171088
-0.200511
0.0179429
-0.201613
0.0185182
-0.202834
0.0188936
-0.204105
0.01908
-0.20546
0.019091
-0.206865
0.0188909
-0.208308
0.018501
-0.209801
0.017915
-0.211276
0.0171057
-0.21274
0.0161115
-0.214126
0.0149451
-0.215401
0.0136462
-0.216567
0.0122347
-0.217566
0.0107784
-0.218432
0.00932164
-0.219141
0.0078934
-0.219709
0.00654447
-0.220189
0.00529697
-0.220567
0.00417053
-0.220913
0.00316733
-0.221216
0.00229549
-0.221499
0.00155007
-0.221803
0.000922574
-0.222093
0.00040829
-0.222408
-0.0019399
-0.221455
-0.0013969
-0.221179
-0.00175251
-0.220931
-0.00221016
-0.220606
-0.00286939
-0.220021
-0.00353061
-0.218857
-0.00388088
-0.216688
-0.00352163
-0.213198
-0.00205737
-0.137816
0.000142704
-0.136725
0.00274145
-0.135673
0.00548102
-0.134879
0.00807773
-0.134386
0.0103554
-0.134001
0.0122768
-0.1334
0.0139162
-0.132298
0.0153695
-0.130508
0.0167328
-0.127964
0.0180981
-0.200666
0.0188047
-0.2019
0.0193047
-0.203245
0.0196156
-0.20464
0.0197561
-0.206125
0.0196885
-0.207662
0.01943
-0.209237
0.0189676
-0.210854
0.0182642
-0.212435
0.0173518
-0.21398
0.0162355
-0.215417
0.0149521
-0.216707
0.0135191
-0.217852
0.0120096
-0.218797
0.0104747
-0.219585
0.00894977
-0.220198
0.00749621
-0.22066
0.00614362
-0.221036
0.00491799
-0.221315
0.00382446
-0.22157
0.00287392
-0.221795
0.00206111
-0.22201
0.00137512
-0.222255
0.000809642
-0.222494
0.000354002
-0.222762
-0.00117835
-0.222488
-0.000631464
-0.222221
-0.000963663
-0.221968
-0.00139782
-0.221743
-0.00207462
-0.221401
-0.00286783
-0.220684
-0.00353794
-0.2192
-0.00372949
-0.216481
-0.00297627
-0.212279
-0.000959511
-0.136714
0.00163171
-0.135615
0.00450737
-0.134699
0.00735065
-0.134152
0.00988825
-0.133919
0.0120069
-0.133731
0.0137445
-0.133229
0.0152004
-0.132129
0.0165088
-0.130284
0.0177683
-0.127634
0.019051
-0.200912
0.0196753
-0.20227
0.0201077
-0.203737
0.0203767
-0.205261
0.0204454
-0.206882
0.0203281
-0.20856
0.0200048
-0.210274
0.0194276
-0.212017
0.0186195
-0.213703
0.0175761
-0.215321
0.0163276
-0.216792
0.0148867
-0.218074
0.0133305
-0.219173
0.0117161
-0.220038
0.0100864
-0.220722
0.00851529
-0.221217
0.00704188
-0.221559
0.00570105
-0.221819
0.00450232
-0.221993
0.00346087
-0.222157
0.00257164
-0.222305
0.00182149
-0.222456
0.00120223
-0.222648
0.000699727
-0.22284
0.000302423
-0.223064
-0.000472917
-0.223501
6.7028e-05
-0.223186
-0.000238747
-0.222946
-0.000637164
-0.222729
-0.0012907
-0.222527
-0.00212274
-0.222146
-0.00298895
-0.221233
-0.00359094
-0.219338
-0.00350933
-0.215948
-0.00223322
-0.211005
0.00038422
-0.135466
0.00334291
-0.13445
0.00641921
-0.133768
0.0092709
-0.133535
0.0116689
-0.133581
0.0135859
-0.133573
0.0151156
-0.133144
0.0164149
-0.132035
0.0176051
-0.130121
0.0187796
-0.127363
0.020005
-0.201242
0.0205557
-0.202718
0.0209485
-0.204309
0.0211532
-0.205969
0.0211837
-0.207738
0.0210134
-0.209569
0.0205827
-0.211429
0.0199047
-0.213302
0.0189614
-0.215088
0.0177738
-0.216767
0.0163454
-0.218251
0.0147545
-0.219498
0.0130635
-0.22052
0.0113224
-0.221274
0.00962022
-0.221827
0.00800804
-0.222183
0.00653242
-0.22239
0.00520992
-0.222526
0.00406161
-0.222593
0.00308379
-0.222669
0.00226133
-0.222745
0.00158405
-0.222838
0.00103378
-0.222982
0.000595271
-0.223133
0.000254151
-0.223319
0.00016787
-0.224468
0.000692548
-0.224126
0.000414118
-0.223839
5.59745e-05
-0.223639
-0.000552325
-0.223467
-0.00136356
-0.223286
-0.002304
-0.222831
-0.00317336
-0.22165
-0.00361301
-0.219235
-0.00311986
-0.215061
-0.00122817
-0.209393
0.00200116
-0.134124
0.00526302
-0.133294
0.0084388
-0.132936
0.011191
-0.133057
0.0133982
-0.133393
0.0150821
-0.133539
0.0164193
-0.133148
0.0175757
-0.132006
0.0186682
-0.13001
0.0197754
-0.127133
0.0209593
-0.201645
0.0214687
-0.203238
0.0218047
-0.20496
0.0219847
-0.20677
0.0219776
-0.208702
0.0217131
-0.210699
0.0211917
-0.212716
0.020381
-0.214722
0.0192868
-0.216601
0.0178995
-0.218321
0.0162941
-0.21979
0.014535
-0.22097
0.0126797
-0.221877
0.0108333
-0.222487
0.00906238
-0.222881
0.00742874
-0.223079
0.00595919
-0.223139
0.00468358
-0.223148
0.00360084
-0.22311
0.0026947
-0.223102
0.00195275
-0.223114
0.00135232
-0.223156
0.000873634
-0.22326
0.000497596
-0.223376
0.000210728
-0.223529
0.000736349
-0.225391
0.00123876
-0.225014
0.000989993
-0.224702
0.00067321
-0.224456
0.000119958
-0.224311
-0.000636856
-0.224194
-0.00156766
-0.224022
-0.00256107
-0.223444
-0.00334994
-0.221913
-0.00351448
-0.21884
-0.00249245
-0.213797
9.92901e-05
-0.207491
0.00389257
-0.132754
0.00735667
-0.132212
0.0105078
-0.132253
0.0130869
-0.132746
0.0150323
-0.133343
0.0164914
-0.133611
0.0176544
-0.133227
0.0186934
-0.132031
0.0197064
-0.129941
0.0207631
-0.126937
0.0219371
-0.202114
0.0223942
-0.203828
0.02272
-0.205696
0.0228815
-0.207674
0.0227985
-0.209787
0.0224608
-0.211968
0.021817
-0.214152
0.0208562
-0.216291
0.0195478
-0.218249
0.0179582
-0.219985
0.0161492
-0.221404
0.0141825
-0.222472
0.0121812
-0.223225
0.0102301
-0.223655
0.00841137
-0.223864
0.0067662
-0.223886
0.00533703
-0.223793
0.00412796
-0.223675
0.0031224
-0.223538
0.00230601
-0.223455
0.00165088
-0.223413
0.00113182
-0.223415
0.000724019
-0.223487
0.000409862
-0.223576
0.000173086
-0.223702
0.00122984
-0.226304
0.00169961
-0.225852
0.00148513
-0.225509
0.00121013
-0.225239
0.000715221
-0.225052
2.85214e-05
-0.224977
-0.000843629
-0.224918
-0.00184735
-0.224736
-0.00283027
-0.223963
-0.00345111
-0.221977
-0.00325048
-0.218082
-0.0015331
-0.212164
0.00177827
-0.205377
0.00602308
-0.13142
0.00957032
-0.131275
0.0125893
-0.131755
0.014901
-0.132614
0.0165724
-0.133424
0.0178158
-0.133773
0.0188419
-0.133376
0.0197775
-0.132102
0.0207294
-0.129907
0.0217535
-0.126753
0.0229203
-0.20264
0.0233804
-0.204488
0.0237091
-0.206523
0.0238182
-0.208693
0.0236863
-0.211013
0.0232458
-0.213397
0.0224626
-0.215759
0.0212816
-0.218025
0.0197509
-0.220042
0.0179221
-0.221758
0.0158569
-0.223079
0.0136948
-0.223986
0.0115427
-0.224538
0.00950777
-0.224752
0.00765228
-0.22475
0.00603635
-0.224586
0.00467279
-0.224338
0.00354662
-0.2241
0.00264177
-0.223874
0.0019246
-0.223729
0.00136328
-0.223644
0.00092601
-0.223617
0.000589866
-0.223667
0.000334001
-0.223737
0.000141887
-0.223844
0.00164647
-0.227169
0.0020701
-0.226674
0.00189772
-0.226265
0.00166426
-0.225963
0.00122844
-0.225752
0.000617035
-0.22564
-0.00017261
-0.225648
-0.00111802
-0.225647
-0.00214628
-0.22542
-0.00304663
-0.224368
-0.00344048
-0.221787
-0.0026662
-0.216949
-0.000181794
-0.210204
0.00379684
-0.20315
0.00834592
-0.130196
0.0118431
-0.130528
0.0146081
-0.131462
0.0166075
-0.132649
0.018007
-0.133615
0.0190629
-0.133994
0.0199609
-0.133559
0.0208324
-0.132205
0.0217446
-0.129898
0.0227628
-0.126596
0.0239621
-0.203221
0.0244472
-0.205226
0.0247503
-0.207455
0.0248422
-0.209849
0.0246364
-0.212403
0.0240793
-0.215014
0.0230816
-0.217559
0.0216671
-0.219941
0.0198654
-0.221985
0.0177284
-0.22363
0.0154093
-0.224793
0.0130379
-0.225481
0.0107532
-0.225783
0.00864574
-0.225745
0.00680138
-0.225515
0.00524674
-0.22516
0.00397144
-0.224762
0.00295868
-0.224416
0.00216833
-0.224118
0.00156059
-0.223926
0.00109509
-0.223813
0.000741838
-0.223769
0.000474253
-0.223807
0.000271414
-0.223866
0.000118173
-0.223962
0.00197535
-0.228033
0.00234702
-0.227446
0.00222765
-0.227004
0.00203466
-0.226635
0.00165755
-0.226392
0.00112193
-0.226257
0.000422627
-0.226235
-0.000429996
-0.226336
-0.00140837
-0.226385
-0.00240776
-0.226059
-0.00315939
-0.224649
-0.00318277
-0.22127
-0.00169042
-0.21544
0.00158096
-0.207988
0.00612044
-0.200925
0.0107922
-0.129145
0.0140785
-0.129999
0.0165137
-0.131368
0.0181819
-0.132824
0.0193495
-0.133902
0.0202427
-0.134276
0.0210495
-0.133776
0.0218712
-0.132332
0.022768
-0.129903
0.023812
-0.126446
0.0250874
-0.203862
0.0255775
-0.206053
0.0258991
-0.208512
0.025956
-0.211169
0.0256686
-0.213992
0.0249183
-0.21685
0.0236898
-0.219581
0.0219812
-0.222057
0.0198198
-0.224076
0.0173626
-0.225583
0.0147612
-0.226517
0.0121923
-0.22692
0.00978432
-0.226922
0.00765943
-0.226603
0.00586635
-0.226134
0.00440392
-0.225592
0.00325642
-0.22506
0.00237679
-0.224625
0.00171544
-0.224272
0.00122144
-0.224053
0.000855636
-0.223927
0.000583767
-0.223878
0.000379476
-0.223915
0.000224202
-0.223972
0.000102397
-0.224065
0.00220426
-0.228833
0.00253015
-0.228216
0.00247119
-0.22769
0.00232052
-0.22729
0.00200224
-0.22698
0.00154102
-0.226811
0.000932379
-0.226767
0.000183829
-0.226849
-0.000695946
-0.227048
-0.00166526
-0.227128
-0.0025829
-0.226635
-0.00310314
-0.224728
-0.00256081
-0.2204
-0.000287959
-0.213571
0.00374104
-0.205609
0.00868754
-0.19882
0.0132517
-0.128318
0.0162127
-0.129698
0.0182606
-0.131447
0.019623
-0.133098
0.02058
-0.134239
0.0213655
-0.134592
0.0221092
-0.134014
0.0228964
-0.13246
0.0238115
-0.129903
0.0249392
-0.126298
0.0262828
-0.204567
0.0268343
-0.206989
0.0271654
-0.209722
0.0271889
-0.212689
0.0267461
-0.21582
0.0257877
-0.218948
0.0242581
-0.221858
0.0221444
-0.224382
0.0195924
-0.226306
0.0167654
-0.227587
0.0138809
-0.228205
0.0111175
-0.228253
0.00864824
-0.22791
0.00655551
-0.227292
0.00485537
-0.226586
0.0035365
-0.225872
0.00254465
-0.225228
0.00181847
-0.224728
0.00129373
-0.224345
0.000919354
-0.224117
0.00065112
-0.223994
0.000455232
-0.223954
0.000308743
-0.223999
0.000193286
-0.224063
9.4888e-05
-0.22416
0.00232683
-0.229574
0.00262901
-0.228932
0.00261727
-0.228363
0.00252067
-0.22789
0.00226345
-0.227551
0.00187461
-0.227313
0.00135374
-0.227233
0.000709351
-0.227292
-5.53197e-05
-0.22749
-0.000926964
-0.227786
-0.00184745
-0.227863
-0.00261352
-0.227125
-0.00275735
-0.224532
-0.00154442
-0.219143
0.00155785
-0.211388
0.00625521
-0.203177
0.0113878
-0.196956
0.0156329
-0.127739
0.0181707
-0.129608
0.0198404
-0.131664
0.0209409
-0.133459
0.0217405
-0.134614
0.0224441
-0.134926
0.0231679
-0.134286
0.0239681
-0.132617
0.0249366
-0.1299
0.0261328
-0.126148
0.0276163
-0.205349
0.0282329
-0.208056
0.0285861
-0.211119
0.0285092
-0.214452
0.0279028
-0.217935
0.0266618
-0.221352
0.0247005
-0.224414
0.0221282
-0.226917
0.0191062
-0.228647
0.0158877
-0.229594
0.0127104
-0.229798
0.00981944
-0.229425
0.0073486
-0.228703
0.00534336
-0.22778
0.00380317
-0.226852
0.00266693
-0.225994
0.00185907
-0.225269
0.00129869
-0.224733
0.00091903
-0.224344
0.000662771
-0.224128
0.000486455
-0.224025
0.000360632
-0.224006
0.000263476
-0.22407
0.000179304
-0.224147
9.54678e-05
-0.224255
0.00233598
-0.230297
0.00265022
-0.229595
0.00267734
-0.228992
0.00263447
-0.228476
0.00244228
-0.228069
0.00212458
-0.227801
0.0016875
-0.227647
0.00114253
-0.227666
0.000493083
-0.227841
-0.00025669
-0.22816
-0.00108717
-0.228547
-0.00190953
-0.228567
-0.00243457
-0.227448
-0.00207922
-0.223997
-9.88015e-05
-0.217487
0.00383764
-0.208971
0.00903324
-0.200822
0.0141178
-0.195441
0.0178451
-0.127413
0.0199224
-0.12969
0.0212641