/*--------------------------------*- C++ -*----------------------------------*\
| =========                 |                                                 |
| \\      /  F ield         | OpenFOAM: The Open Source CFD Toolbox           |
|  \\    /   O peration     | Version:  2506                                  |
|   \\  /    A nd           | Website:  www.openfoam.com                      |
|    \\/     M anipulation  |                                                 |
\*---------------------------------------------------------------------------*/
FoamFile
{
    version     2.0;
    format      ascii;
    arch        "LSB;label=32;scalar=64";
    class       surfaceScalarField;
    location    "19.971824";
    object      phi_0;
}
// * * * * * * * * * * * * * * * * * * * * * * * * * * * * * * * * * * * * * //

dimensions      [0 3 -1 0 0 0 0];

oriented        oriented;

internalField   nonuniform List<scalar> 
19160
(
-0.000944582
-0.193821
-0.00188502
-0.193847
-0.000955504
-0.192866
-0.00277536
-0.19392
-0.00190305
-0.192899
-0.000931157
-0.191935
-0.00362397
-0.194141
-0.00278384
-0.193039
-0.00184568
-0.191984
-0.000888053
-0.191046
-0.00440995
-0.194442
-0.0036127
-0.193312
-0.00268897
-0.192196
-0.00174065
-0.191132
-0.000806207
-0.19024
-0.00512846
-0.194832
-0.00435586
-0.193699
-0.00346133
-0.19254
-0.00251989
-0.191416
-0.00156332
-0.190375
-0.000680984
-0.189559
-0.00577405
-0.19529
-0.00501064
-0.194178
-0.00413581
-0.193025
-0.00320844
-0.191852
-0.00223974
-0.19074
-0.00130463
-0.189751
-0.00050731
-0.189052
-0.00634569
-0.195833
-0.00557196
-0.194729
-0.00470682
-0.193607
-0.00378575
-0.192447
-0.00281096
-0.19128
-0.00184104
-0.190204
-0.000958043
-0.1893
-0.000290453
-0.188762
-0.00684528
-0.196408
-0.00604235
-0.195362
-0.0051738
-0.194262
-0.00424614
-0.193146
-0.00326011
-0.191998
-0.00226329
-0.190858
-0.00131823
-0.189843
-0.000534201
-0.189057
-5.77129e-05
-0.188704
-0.00727869
-0.197045
-0.0064262
-0.196024
-0.00554117
-0.194995
-0.00459129
-0.193917
-0.0035824
-0.192824
-0.0025562
-0.191705
-0.00156011
-0.190616
-0.000683636
-0.189694
-5.08719e-05
-0.189063
0.000204758
-0.188909
-0.00764978
-0.1977
-0.00673401
-0.196737
-0.00581687
-0.195748
-0.00482901
-0.194757
-0.00378264
-0.193717
-0.00271746
-0.192663
-0.00167205
-0.191593
-0.000718557
-0.190581
4.3138e-05
-0.189788
0.000484613
-0.189343
0.000501282
-0.18941
-0.00796186
-0.198361
-0.00697315
-0.197461
-0.0060125
-0.196542
-0.00497117
-0.195606
-0.00387243
-0.194667
-0.00275544
-0.193679
-0.00165512
-0.19268
-0.000631695
-0.19168
0.000235522
-0.190774
0.000835281
-0.190139
0.00105178
-0.189894
0.000791711
-0.190202
-0.0082192
-0.199054
-0.00715035
-0.198184
-0.0061387
-0.197335
-0.00503212
-0.196481
-0.00386764
-0.195611
-0.00268569
-0.194737
-0.0015213
-0.193812
-0.000427885
-0.192883
0.00053066
-0.191975
0.00126136
-0.1912
0.00165436
-0.190741
0.0016073
-0.190709
0.00105235
-0.191254
-0.0084264
-0.199736
-0.00727413
-0.19893
-0.00620633
-0.198116
-0.00502702
-0.19734
-0.00378637
-0.196562
-0.00252797
-0.195769
-0.00128963
-0.194969
-0.000122085
-0.194118
0.000920935
-0.193274
0.00176218
-0.192476
0.00230623
-0.191852
0.00244903
-0.191583
0.00211196
-0.191769
0.00127073
-0.192525
-0.00858819
-0.200445
-0.00735345
-0.199657
-0.00622708
-0.198909
-0.00497096
-0.198172
-0.00364722
-0.197479
-0.00230372
-0.196786
-0.000982929
-0.196075
0.000264318
-0.195355
0.00138972
-0.194587
0.00232783
-0.193839
0.00299918
-0.193169
0.00330814
-0.192711
0.00316901
-0.19264
0.00253308
-0.193031
0.00143729
-0.193962
-0.00870977
-0.201149
-0.00739716
-0.200401
-0.00621293
-0.199671
-0.00487869
-0.199001
-0.00346826
-0.198351
-0.00203431
-0.197748
-0.000624967
-0.197144
0.000706863
-0.196518
0.00191502
-0.195881
0.00294131
-0.1952
0.00372094
-0.194561
0.00417079
-0.194032
0.00420789
-0.19375
0.00376605
-0.193873
0.00285241
-0.194447
0.00154709
-0.195509
-0.00879811
-0.201854
-0.00741426
-0.201132
-0.00617532
-0.200439
-0.00476442
-0.199786
-0.00326659
-0.199203
-0.00173989
-0.198646
-0.000238622
-0.198135
0.00118107
-0.197619
0.00247271
-0.197076
0.00358197
-0.196521
0.00445535
-0.195935
0.00502326
-0.195413
0.00521179
-0.195036
0.00494735
-0.194931
0.0042154
-0.195236
0.00306117
-0.195961
0.00159936
-0.197108
-0.00886167
-0.202586
-0.0074156
-0.201852
-0.00612539
-0.201182
-0.00464146
-0.200562
-0.00305813
-0.199994
-0.00143885
-0.199504
0.00015526
-0.19904
0.00166415
-0.198618
0.00303956
-0.198185
0.00422819
-0.197722
0.00518486
-0.197251
0.00585164
-0.196763
0.00616705
-0.196369
0.00605845
-0.196147
0.00549908
-0.196215
0.00450633
-0.196681
0.00315848
-0.19752
0.00160402
-0.198712
-0.00890715
-0.203303
-0.00741207
-0.20259
-0.00607493
-0.201903
-0.00452238
-0.201301
-0.00285728
-0.200762
-0.00114778
-0.200285
0.0005383
-0.199887
0.00213604
-0.199512
0.00359465
-0.199173
0.00485999
-0.198817
0.00589229
-0.198429
0.00664309
-0.198042
0.00706333
-0.19766
0.00708702
-0.197397
0.00668433
-0.197332
0.00585288
-0.197561
0.00463903
-0.198162
0.00316445
-0.19908
0.00157266
-0.200285
-0.00893842
-0.204027
-0.0074117
-0.203303
-0.00603476
-0.20263
-0.00441937
-0.202006
-0.00267727
-0.201481
-0.000881445
-0.201029
0.000894432
-0.200641
0.0025797
-0.200331
0.00412025
-0.200037
0.00546008
-0.199773
0.00656268
-0.199488
0.00738642
-0.199173
0.00789358
-0.198872
0.00802701
-0.1986
0.00776091
-0.198474
0.00708208
-0.198561
0.00601109
-0.198933
0.00464354
-0.199641
0.00310187
-0.200609
0.00151577
-0.201801
-0.00895764
-0.2047
-0.00741953
-0.204019
-0.00601385
-0.203324
-0.00434389
-0.202705
-0.00253075
-0.202152
-0.000652973
-0.20171
0.00120956
-0.201344
0.00298066
-0.201042
0.00460183
-0.200812
0.00601442
-0.200591
0.00718378
-0.200394
0.00807291
-0.200174
0.00865338
-0.199932
0.00887743
-0.199723
0.00872704
-0.199566
0.0081861
-0.199578
0.00725726
-0.199807
0.00601305
-0.200303
0.00455281
-0.201092
0.00299103
-0.202085
0.00144775
-0.203249
-0.00896733
-0.205269
-0.00743742
-0.204682
-0.00601878
-0.204014
-0.00430602
-0.203362
-0.00242936
-0.202807
-0.000474542
-0.202331
0.00147143
-0.201972
0.00332671
-0.20169
0.00502748
-0.201468
0.00651202
-0.20131
0.00774617
-0.201154
0.00869617
-0.201017
0.00934076
-0.200861
0.00964058
-0.200695
0.00958728
-0.200583
0.00916688
-0.200546
0.00837198
-0.200693
0.00725754
-0.201052
0.0059002
-0.20165
0.00439533
-0.202496
0.00285966
-0.203497
0.00137703
-0.204626
-0.0089755
-0.205706
-0.00746447
-0.205242
-0.00605226
-0.204648
-0.00431318
-0.204007
-0.00238339
-0.203408
-0.000357234
-0.202924
0.00166912
-0.202528
0.0036071
-0.202252
0.00538746
-0.20205
0.00694414
-0.2019
0.00824294
-0.201807
0.00925188
-0.20171
0.00995535
-0.201632
0.0103209
-0.201542
0.0103497
-0.201458
0.0100333
-0.20145
0.00935984
-0.201534
0.00837328
-0.201808
0.00713086
-0.202283
0.00570716
-0.202962
0.00421024
-0.203847
0.00272382
-0.204843
0.00131025
-0.205936
-0.00899641
-0.205923
-0.00750081
-0.205669
-0.00611199
-0.205182
-0.00436844
-0.204593
-0.00240069
-0.203989
-0.000311077
-0.203454
0.00179248
-0.203047
0.00381252
-0.202734
0.00567323
-0.202538
0.00730379
-0.20241
0.0086688
-0.202326
0.0097373
-0.202292
0.0104978
-0.202252
0.0109234
-0.202234
0.011024
-0.202216
0.0107976
-0.202222
0.0102324
-0.202322
0.00936633
-0.202527
0.00824238
-0.20292
0.00691559
-0.203491
0.00548193
-0.204234
0.00401957
-0.205142
0.00259618
-0.206129
0.00124853
-0.207184
-0.0090515
-0.205994
-0.00755122
-0.205872
-0.00619383
-0.205587
-0.00446807
-0.205083
-0.00248489
-0.204509
-0.000344062
-0.203956
0.00183225
-0.203494
0.00393416
-0.203169
0.00587721
-0.202938
0.0075849
-0.202819
0.0090196
-0.20276
0.0101505
-0.202739
0.0109691
-0.202763
0.0114531
-0.202782
0.0116196
-0.20283
0.0114731
-0.202892
0.0110043
-0.202994
0.0102492
-0.203205
0.00924116
-0.203526
0.00801904
-0.204023
0.00666589
-0.204675
0.00525064
-0.205465
0.00384078
-0.206387
0.00247835
-0.207359
0.00119478
-0.208379
-0.00928051
-0.137419
-0.00764091
-0.205904
-0.00629565
-0.205771
-0.00460464
-0.205451
-0.00263202
-0.204935
-0.000460268
-0.204393
0.00178069
-0.203905
0.00396379
-0.203523
0.00599236
-0.203284
0.00778188
-0.203135
0.00929154
-0.203091
0.0104897
-0.2031
0.0113703
-0.20314
0.0119141
-0.203224
0.0121446
-0.203307
0.0120722
-0.203429
0.0116907
-0.203578
0.0110373
-0.203782
0.0101394
-0.204103
0.00902341
-0.204531
0.00776101
-0.205118
0.00640998
-0.205834
0.0050341
-0.206658
0.00367543
-0.207584
0.0023755
-0.20854
0.00114888
-0.209528
-0.00938614
-0.137574
-0.00790562
-0.137154
-0.0064354
-0.205765
-0.00476985
-0.205605
-0.00283261
-0.20525
-0.000656323
-0.204739
0.00163349
-0.204245
0.00389424
-0.203835
0.00601163
-0.203543
0.00788929
-0.203392
0.00948091
-0.203324
0.0107533
-0.203354
0.0117017
-0.203431
0.0123095
-0.203536
0.0126054
-0.203685
0.0126049
-0.203839
0.0123052
-0.204043
0.0117458
-0.204287
0.0109514
-0.204594
0.00993953
-0.205019
0.00877224
-0.205542
0.00749676
-0.206205
0.00617064
-0.206971
0.00483311
-0.207816
0.00353102
-0.208739
0.00228599
-0.209677
0.00110736
-0.210635
-0.00939259
-0.137753
-0.00804958
-0.13743
-0.00675212
-0.136837
-0.00497393
-0.205561
-0.00307063
-0.205367
-0.000922226
-0.204984
0.00139266
-0.204499
0.00372122
-0.204072
0.00592849
-0.203752
0.00790146
-0.203555
0.00958372
-0.203494
0.010939
-0.20351
0.011963
-0.203616
0.0126413
-0.203763
0.0130066
-0.203937
0.0130789
-0.204159
0.0128588
-0.204393
0.0123884
-0.204686
0.0116917
-0.205027
0.0107801
-0.205435
0.00970862
-0.205956
0.0085149
-0.20656
0.00724983
-0.207284
0.00594735
-0.208085
0.00465701
-0.208942
0.00340502
-0.209859
0.00220371
-0.210773
0.00106891
-0.211704
-0.00931974
-0.137979
-0.00809334
-0.13771
-0.00694276
-0.13724
-0.00535425
-0.136457
-0.00335174
-0.205279
-0.00123792
-0.205052
0.00106766
-0.204659
0.00344501
-0.204222
0.00573879
-0.203883
0.00781276
-0.203664
0.00959539
-0.203566
0.011044
-0.203599
0.0121532
-0.2037
0.0129101
-0.203885
0.0133509
-0.204107
0.0134996
-0.204357
0.0133595
-0.20466
0.0129759
-0.20498
0.0123728
-0.205367
0.0115577
-0.205805
0.0105807
-0.206307
0.00947167
-0.206912
0.00827474
-0.207585
0.00701787
-0.208355
0.00575102
-0.209179
0.00450261
-0.210039
0.00328819
-0.210943
0.00212906
-0.211833
0.00103181
-0.212736
-0.0091939
-0.13826
-0.00805597
-0.138017
-0.00703377
-0.137619
-0.00560933
-0.136985
-0.00380448
-0.136004
-0.00160028
-0.204917
0.000677683
-0.204662
0.00307399
-0.204288
0.00544133
-0.203925
0.00761914
-0.203689
0.0095116
-0.20358
0.0110648
-0.203587
0.0122702
-0.203716
0.0131155
-0.203905
0.0136395
-0.204173
0.01387
-0.204478
0.0138129
-0.204811
0.0135162
-0.2052
0.0130048
-0.205612
0.0122835
-0.206093
0.0113992
-0.206623
0.0103756
-0.207211
0.00925111
-0.207889
0.00804718
-0.208614
0.00681312
-0.209417
0.00557785
-0.210254
0.00435805
-0.211109
0.00318145
-0.211995
0.00205785
-0.212859
0.000996264
-0.213732
-0.00903064
-0.138611
-0.00796062
-0.138356
-0.00704993
-0.138001
-0.00576454
-0.137463
-0.00412947
-0.13666
-0.0021279
-0.135477
0.000237638
-0.204477
0.00262205
-0.20421
0.00504301
-0.20389
0.0073186
-0.203624
0.00932828
-0.203506
0.010998
-0.203513
0.0123116
-0.203629
0.0132561
-0.203857
0.0138725
-0.204138
0.0141917
-0.204495
0.0142221
-0.204887
0.0140145
-0.205309
0.0135949
-0.20579
0.0129661
-0.206295
0.0121734
-0.206867
0.0112353
-0.207483
0.0101857
-0.208145
0.00903994
-0.208882
0.00784565
-0.209647
0.00663136
-0.210471
0.00541362
-0.21131
0.00422495
-0.212153
0.00307892
-0.213016
0.00198864
-0.213852
0.000959508
-0.214692
-0.00885753
-0.13902
-0.00782092
-0.138751
-0.00700135
-0.138404
-0.00584793
-0.137917
-0.00436322
-0.13723
-0.00253006
-0.136258
-0.000360088
-0.134879
0.00211632
-0.203971
0.00455272
-0.203719
0.0069158
-0.203487
0.00904307
-0.203339
0.0108395
-0.203347
0.0122741
-0.203475
0.0133297
-0.203702
0.0140487
-0.204033
0.0144646
-0.204411
0.0145885
-0.204861
0.0144739
-0.205346
0.0141479
-0.205862
0.0136122
-0.206436
0.0129107
-0.207032
0.0120585
-0.20769
0.0110856
-0.208383
0.0100017
-0.209107
0.00885263
-0.209889
0.0076656
-0.210681
0.00645628
-0.211513
0.00526091
-0.212346
0.00409583
-0.21317
0.00297858
-0.214006
0.00191629
-0.214809
0.00092204
-0.215614
-0.00870052
-0.139485
-0.00766018
-0.139181
-0.00691838
-0.138834
-0.0058801
-0.138372
-0.00453234
-0.137748
-0.00284489
-0.136915
-0.000835892
-0.135782
0.00145848
-0.134221
0.0040015
-0.20342
0.00641775
-0.203221
0.00865821
-0.203102
0.0105868
-0.203086
0.0121542
-0.203227
0.0133337
-0.203479
0.0141662
-0.20382
0.0146879
-0.204256
0.0149122
-0.204735
0.0148955
-0.205283
0.0146664
-0.205865
0.0142256
-0.206475
0.0136167
-0.207142
0.0128516
-0.207825
0.0119573
-0.208562
0.0109383
-0.209319
0.0098388
-0.210093
0.0086844
-0.210907
0.00748884
-0.211713
0.00629156
-0.212544
0.0051109
-0.213361
0.00396823
-0.214159
0.0028728
-0.214963
0.00184222
-0.215729
0.000883065
-0.216497
-0.00859128
-0.139987
-0.00750265
-0.139643
-0.0068098
-0.13929
-0.005875
-0.138839
-0.00465863
-0.138246
-0.00310327
-0.13749
-0.00122699
-0.136524
0.000922252
-0.135246
0.00329433
-0.133514
0.0058495
-0.202852
0.00817997
-0.202743
0.0102402
-0.202756
0.0119491
-0.202881
0.0132648
-0.203158
0.0142226
-0.203536
0.0148597
-0.203991
0.0151921
-0.204536
0.0152792
-0.205119
0.0151513
-0.205768
0.0148088
-0.206448
0.0142948
-0.207154
0.0136191
-0.20791
0.0128058
-0.208674
0.0118551
-0.209479
0.0108094
-0.21029
0.0096922
-0.211101
0.00851529
-0.211934
0.00732027
-0.212742
0.00612722
-0.21356
0.00496083
-0.214354
0.00383216
-0.215119
0.00276377
-0.215884
0.00176494
-0.216611
0.000840773
-0.217338
-0.00856241
-0.1405
-0.00737981
-0.14011
-0.00670422
-0.139748
-0.00585223
-0.139312
-0.00475818
-0.13874
-0.00333451
-0.138014
-0.00157522
-0.137141
0.000464186
-0.136066
0.00271056
-0.134662
0.00511322
-0.132778
0.00762499
-0.202297
0.00980473
-0.202308
0.011658
-0.202465
0.0131204
-0.202737
0.014215
-0.203151
0.0149777
-0.203654
0.0154266
-0.204226
0.0156239
-0.204881
0.0156023
-0.20557
0.0153623
-0.206321
0.0149469
-0.2071
0.0143638
-0.207898
0.0136353
-0.208739
0.0127567
-0.209575
0.0117691
-0.210439
0.0106939
-0.211292
0.00954015
-0.212126
0.00835149
-0.212965
0.0071489
-0.213764
0.00596038
-0.21456
0.00479846
-0.21532
0.00369064
-0.216045
0.00264933
-0.216769
0.00168079
-0.217451
0.000796415
-0.218134
-0.00799372
-0.212007
-0.00732882
-0.140551
-0.00662539
-0.140188
-0.00582491
-0.139776
-0.00484355
-0.139227
-0.00355496
-0.138519
-0.00191157
-0.137678
3.73621e-05
-0.136715
0.00219977
-0.135555
0.00449863
-0.134047
0.00687861
-0.132031
0.00929067
-0.201783
0.0112841
-0.201934
0.0128986
-0.202243
0.0141409
-0.202663
0.0150397
-0.203213
0.0156136
-0.203841
0.0159279
-0.20453
0.0160181
-0.205297
0.0158853
-0.206093
0.015573
-0.206947
0.0150872
-0.207823
0.0144479
-0.208711
0.0136465
-0.209629
0.0127221
-0.210528
0.0116941
-0.211439
0.0105684
-0.21232
0.00939015
-0.213164
0.00818104
-0.213997
0.00697175
-0.214775
0.0057765
-0.215538
0.00462764
-0.216257
0.00354085
-0.216937
0.002524
-0.217612
0.00159202
-0.218246
0.000749298
-0.218883
-0.00729637
-0.213548
-0.00671776
-0.212618
-0.00660578
-0.140571
-0.00582163
-0.140192
-0.00493324
-0.139686
-0.00377707
-0.139005
-0.00225932
-0.138171
-0.000395705
-0.137245
0.0017129
-0.136228
0.00395534
-0.135012
0.00625278
-0.133421
0.00855736
-0.131298
0.0108334
-0.201332
0.0126014
-0.201637
0.0139981
-0.2021
0.0150429
-0.202666
0.0157508
-0.20335
0.0161892
-0.204102
0.0163969
-0.204909
0.0163764
-0.205788
0.0161721
-0.206692
0.0157888
-0.207649
0.0152445
-0.20862
0.0145263
-0.209591
0.0136715
-0.210579
0.0126969
-0.211531
0.011605
-0.212475
0.0104417
-0.213371
0.00922926
-0.214213
0.00800087
-0.215026
0.006772
-0.215771
0.00558031
-0.21649
0.00444487
-0.217161
0.00337545
-0.217788
0.0023911
-0.218411
0.00149748
-0.218994
0.000699778
-0.219583
-0.00650672
-0.215033
-0.00596375
-0.214302
-0.00604395
-0.21318
-0.00586924
-0.140523
-0.00504548
-0.14008
-0.00400993
-0.139453
-0.0026259
-0.138638
-0.000861258
-0.137706
0.00120375
-0.136736
0.00342964
-0.135702
0.00570094
-0.13446
0.00794534
-0.132809
0.0101277
-0.130592
0.012232
-0.200963
0.0137874
-0.201426
0.0149855
-0.202043
0.0158361
-0.202751
0.0164058
-0.203567
0.0167366
-0.204442
0.0168334
-0.205366
0.0167423
-0.206358
0.016467
-0.20737
0.0160242
-0.208429
0.0153965
-0.20949
0.014619
-0.210538
0.0137053
-0.211587
0.0126541
-0.21258
0.0115117
-0.213545
0.0102999
-0.214442
0.00905427
-0.215266
0.00779177
-0.216046
0.00655515
-0.216746
0.00536753
-0.217413
0.00424088
-0.218026
0.00319883
-0.218596
0.00224892
-0.219163
0.00139804
-0.219693
0.000647131
-0.22023
-0.00566223
-0.216415
-0.00511614
-0.21588
-0.00532499
-0.21502
-0.00540332
-0.213646
-0.00520186
-0.140367
-0.00426784
-0.139822
-0.00301939
-0.13906
-0.00137415
-0.138125
0.000638197
-0.13714
0.00287276
-0.136179
0.00516883
-0.13517
0.00740821
-0.133923
0.00955069
-0.132232
0.0115811
-0.129941
0.0135111
-0.200686
0.0148671
-0.201308
0.0158677
-0.202074
0.0165758
-0.202921
0.0170353
-0.203865
0.0172539
-0.204862
0.0172806
-0.205904
0.0171192
-0.20701
0.0167848
-0.208131
0.0162558
-0.209288
0.0155646
-0.210436
0.0147211
-0.211554
0.0137192
-0.212652
0.0126049
-0.213674
0.0113991
-0.214644
0.0101393
-0.215527
0.00884342
-0.216318
0.00755991
-0.217051
0.00631606
-0.217694
0.00512686
-0.218299
0.00402108
-0.218849
0.00300868
-0.219356
0.0020988
-0.219863
0.00129212
-0.220338
0.000592924
-0.220823
-0.00479477
-0.217725
-0.00422337
-0.217307
-0.00450215
-0.216703
-0.00475445
-0.215669
-0.00488996
-0.213958
-0.00456779
-0.140067
-0.00344662
-0.139394
-0.00193467
-0.138499
-1.31291e-06
-0.137486
0.00223827
-0.136506
0.00459223
-0.135602
0.00689254
-0.134654
0.00905435
-0.133426
0.0110561
-0.131707
0.0129201
-0.12935
0.0146906
-0.20051
0.0158446
-0.201284
0.0166979
-0.202196
0.0172913
-0.203177
0.0176359
-0.204247
0.0177843
-0.205366
0.0177417
-0.206527
0.0175227
-0.207748
0.0171011
-0.208976
0.0165064
-0.21023
0.0157441
-0.211459
0.0148023
-0.212637
0.0137257
-0.213773
0.0125332
-0.214808
0.0112637
-0.215769
0.00993563
-0.216619
0.00860339
-0.217361
0.00729913
-0.218034
0.00604117
-0.218608
0.00486462
-0.219143
0.00378248
-0.219622
0.00280675
-0.220064
0.00193835
-0.22051
0.00118285
-0.220928
0.000537649
-0.221361
-0.00392824
-0.218946
-0.00332637
-0.218622
-0.00362912
-0.21818
-0.00398073
-0.217477
-0.00436043
-0.216199
-0.00446488
-0.21406
-0.00391877
-0.139594
-0.00254441
-0.138785
-0.000719768
-0.137781
0.00150029
-0.136748
0.0039276
-0.135841
0.00633847
-0.135048
0.00858474
-0.134185
0.0106199
-0.13299
0.0124547
-0.131242
0.0141647
-0.128824
0.0157703
-0.200435
0.0167707
-0.201357
0.0175039
-0.202409
0.0179776
-0.203519
0.0182506
-0.204714
0.0183308
-0.205955
0.0182331
-0.207237
0.0179278
-0.208575
0.0174407
-0.20991
0.0167723
-0.211258
0.0159037
-0.21256
0.0148768
-0.213788
0.0137076
-0.214947
0.0124349
-0.215979
0.0110776
-0.216911
0.00969576
-0.217712
0.00832671
-0.218389
0.00699326
-0.218986
0.00573757
-0.219481
0.004577
-0.219937
0.00352717
-0.220343
0.00258985
-0.220715
0.0017723
-0.221099
0.00107125
-0.221461
0.000481232
-0.221842
-0.00308019
-0.22009
-0.00245265
-0.21982
-0.00275281
-0.219498
-0.00314143
-0.21902
-0.00367432
-0.218163
-0.00410058
-0.216563
-0.00407637
-0.213903
-0.00320761
-0.138931
-0.00151087
-0.137994
0.00065103
-0.136931
0.00313222
-0.135953
0.00568376
-0.135186
0.00808532
-0.134549
0.010222
-0.133787
0.0120923
-0.132628
0.0137699
-0.130847
0.0153104
-0.128365
0.0167977
-0.200462
0.0176717
-0.201525
0.0182786
-0.20271
0.0186774
-0.203946
0.0188825
-0.205265
0.0189109
-0.206633
0.0187297
-0.208039
0.0183615
-0.209496
0.0178008
-0.210939
0.0170209
-0.212375
0.0160589
-0.213742
0.0149261
-0.215007
0.0136603
-0.216173
0.0122791
-0.21718
0.0108482
-0.218063
0.00941061
-0.218796
0.00799424
-0.21939
0.00664995
-0.219898
0.00540039
-0.220305
0.00426632
-0.220676
0.0032511
-0.221004
0.00236431
-0.221307
0.00160223
-0.22163
0.000957224
-0.221937
0.000425386
-0.222268
-0.00226317
-0.221203
-0.00162053
-0.220922
-0.00190497
-0.220667
-0.00229138
-0.220348
-0.00289478
-0.219799
-0.00353706
-0.218726
-0.00392383
-0.216716
-0.00367053
-0.21344
-0.00237205
-0.13807
-0.000302261
-0.13704
0.00219398
-0.135993
0.00488336
-0.135152
0.00748534
-0.134587
0.00980687
-0.134134
0.0117889
-0.133483
0.0134895
-0.132347
0.0149959
-0.130533
0.0164009
-0.127968
0.0177974
-0.200588
0.0185385
-0.201785
0.0190641
-0.203097
0.0193938
-0.204457
0.0195504
-0.205905
0.0194997
-0.207403
0.0192609
-0.208938
0.0188227
-0.210518
0.0181486
-0.212066
0.01727
-0.213586
0.0161909
-0.215007
0.0149457
-0.216292
0.0135496
-0.217443
0.0120728
-0.218405
0.0105642
-0.219217
0.00905751
-0.219859
0.00761379
-0.220354
0.00626292
-0.220761
0.00503202
-0.22107
0.00392756
-0.221353
0.00296224
-0.221602
0.00213233
-0.221837
0.00142807
-0.222101
0.000844236
-0.222356
0.000370775
-0.222638
-0.00148882
-0.222254
-0.000841943
-0.221982
-0.00110605
-0.221721
-0.00146908
-0.22149
-0.00208397
-0.221159
-0.0028395
-0.220497
-0.00351844
-0.219132
-0.00377796
-0.216608
-0.00317549
-0.212636
-0.00134848
-0.137024
0.0011136
-0.13596
0.00390656
-0.135016
0.00672954
-0.134396
0.00929996
-0.13408
0.0114798
-0.133825
0.0132842
-0.133278
0.0147995
-0.132151
0.0161547
-0.130286
0.017449
-0.127619
0.0187578
-0.200807
0.0194108
-0.202132
0.019863
-0.203566
0.0201467
-0.205053
0.0202298
-0.206635
0.0201294
-0.208271
0.0198277
-0.209943
0.0192784
-0.211647
0.0185044
-0.213301
0.0175006
-0.214896
0.0162951
-0.216356
0.0148977
-0.21764
0.0133821
-0.218753
0.0118023
-0.219643
0.0101987
-0.220358
0.00864397
-0.220889
0.00717722
-0.221268
0.00583433
-0.221563
0.00462626
-0.221769
0.00357037
-0.221961
0.00266348
-0.222133
0.00189401
-0.222303
0.00125517
-0.222512
0.000733679
-0.222719
0.000318579
-0.222957
-0.00076627
-0.223288
-0.000127153
-0.222969
-0.000369165
-0.222719
-0.000699399
-0.22249
-0.0012904
-0.222283
-0.00207522
-0.221923
-0.00292663
-0.221089
-0.00356479
-0.219345
-0.00359575
-0.216188
-0.00250744
-0.211477
-9.11454e-05
-0.135819
0.00275177
-0.134805
0.00577526
-0.134062
0.0086399
-0.133736
0.0110956
-0.133695
0.0130856
-0.133626
0.0146833
-0.133162
0.0160365
-0.132033
0.0172664
-0.130104
0.0184701
-0.127332
0.0197169
-0.201113
0.0202897
-0.202558
0.0206964
-0.204115
0.0209127
-0.205736
0.0209563
-0.207462
0.0208038
-0.209247
0.0203979
-0.211063
0.0197526
-0.212896
0.0188499
-0.21465
0.0177089
-0.21631
0.0163303
-0.217789
0.0147884
-0.219047
0.0131414
-0.220092
0.0114358
-0.22088
0.00975831
-0.221472
0.00815929
-0.221871
0.00668601
-0.22212
0.00535651
-0.222293
0.0041944
-0.222393
0.00319835
-0.222496
0.00235523
-0.222594
0.00165671
-0.222705
0.00108578
-0.222864
0.000627967
-0.223028
0.000269358
-0.223226
-0.000104512
-0.224278
0.00051719
-0.223932
0.00029749
-0.223635
3.05793e-06
-0.223421
-0.000545676
-0.223235
-0.00130714
-0.223051
-0.0022184
-0.222632
-0.00309922
-0.221554
-0.00361194
-0.219329
-0.00327302
-0.215422
-0.00159915
-0.209969
0.00143394
-0.134501
0.00460699
-0.133637
0.00776677
-0.133189
0.0105653
-0.133206
0.0128492
-0.133459
0.0146119
-0.133555
0.0160134
-0.133139
0.0172164
-0.131983
0.0183421
-0.129976
0.0194738
-0.127089
0.0206734
-0.201497
0.0211972
-0.203059
0.0215421
-0.204745
0.0217308
-0.206511
0.0217365
-0.208395
0.021492
-0.210341
0.0209998
-0.21231
0.0202283
-0.214274
0.0191826
-0.216124
0.0178506
-0.21783
0.0163026
-0.219303
0.0145981
-0.220503
0.0127894
-0.221445
0.0109781
-0.2221
0.00922887
-0.222542
0.00760361
-0.222789
0.00613049
-0.222894
0.00484227
-0.222941
0.00374082
-0.222936
0.00281241
-0.222953
0.00204711
-0.222985
0.00142377
-0.223043
0.000923698
-0.22316
0.000528341
-0.223287
0.000224674
-0.223451
0.000488857
-0.225227
0.001084
-0.224845
0.000888563
-0.224523
0.00063034
-0.224263
0.000131794
-0.224099
-0.000577267
-0.223965
-0.00147349
-0.223796
-0.00245825
-0.223273
-0.00328955
-0.221877
-0.00355942
-0.219042
-0.00273788
-0.214284
-0.000384805
-0.208151
0.00323831
-0.133133
0.00665079
-0.132521
0.00982643
-0.13245
0.0124805
-0.132837
0.0145158
-0.133363
0.0160526
-0.133594
0.0172724
-0.133195
0.0183505
-0.131991
0.0193911
-0.129893
0.0204668
-0.126882
0.0216491
-0.201949
0.0221131
-0.20363
0.0224429
-0.205457
0.0226111
-0.207385
0.0225417
-0.209444
0.0222273
-0.211569
0.021619
-0.213701
0.0207061
-0.215797
0.0194565
-0.21773
0.0179323
-0.21946
0.016189
-0.220894
0.0142819
-0.221996
0.0123286
-0.222796
0.0104103
-0.223281
0.00860817
-0.223547
0.00696447
-0.223623
0.00552477
-0.223576
0.00429677
-0.223497
0.00326712
-0.22339
0.00242473
-0.223331
0.00174381
-0.223305
0.00120062
-0.22332
0.000771044
-0.223402
0.000438005
-0.223501
0.000185461
-0.223636
0.00101055
-0.226169
0.00156657
-0.22571
0.00139983
-0.225357
0.00117806
-0.225071
0.000732246
-0.224863
8.8812e-05
-0.224765
-0.000749155
-0.224689
-0.00173469
-0.22452
-0.00273195
-0.22383
-0.00341947
-0.222017
-0.003367
-0.218413
-0.00190032
-0.212768
0.00117743
-0.20609
0.00529588
-0.131778
0.00883524
-0.13153
0.0119179
-0.131888
0.0143276
-0.132649
0.0160932
-0.133403
0.0174076
-0.133729
0.0184812
-0.133325
0.0194489
-0.132049
0.0204227
-0.129849
0.0214585
-0.126692
0.0226249
-0.202461
0.0230846
-0.204272
0.0234131
-0.206259
0.0235279
-0.208372
0.0234112
-0.210628
0.0229994
-0.212949
0.0222604
-0.215255
0.0211391
-0.21748
0.0196797
-0.219477
0.017928
-0.221199
0.015937
-0.222549
0.0138385
-0.223506
0.0117335
-0.224119
0.00972652
-0.2244
0.00787982
-0.224462
0.00625685
-0.224355
0.00487465
-0.224154
0.00372245
-0.223953
0.00278841
-0.223754
0.00204181
-0.223629
0.00145279
-0.223557
0.000990553
-0.223539
0.00063281
-0.223597
0.000358902
-0.223674
0.000152389
-0.223789
0.00145505
-0.227062
0.00195852
-0.226561
0.00182907
-0.226139
0.00164345
-0.225822
0.00125104
-0.22559
0.000677543
-0.225452
-8.15729e-05
-0.225432
-0.00100677
-0.225417
-0.00203373
-0.225218
-0.00297187
-0.224278
-0.00345975
-0.221924
-0.00290683
-0.217407
-0.000684617
-0.210906
0.00308706
-0.203881
0.00756655
-0.130509
0.0111033
-0.130715
0.0139672
-0.131527
0.0160777
-0.132634
0.0175667
-0.133563
0.0186828
-0.133931
0.0196193
-0.133496
0.0205159
-0.132142
0.0214426
-0.129833
0.0224633
-0.12653
0.0236528
-0.203029
0.0241306
-0.20499
0.0244304
-0.207161
0.0245273
-0.209488
0.0243404
-0.211969
0.0238198
-0.214509
0.0228787
-0.216995
0.0215389
-0.219339
0.0198241
-0.221373
0.0177771
-0.223039
0.0155402
-0.224251
0.0132342
-0.225006
0.0109928
-0.225385
0.00890466
-0.225424
0.00705883
-0.225264
0.00548684
-0.224967
0.00418358
-0.224615
0.00313786
-0.224302
0.00231353
-0.224026
0.00167355
-0.223849
0.00117895
-0.223745
0.000800613
-0.223707
0.000512104
-0.22375
0.000292453
-0.223814
0.000126564
-0.223915
0.00181064
-0.227952
0.00225884
-0.227362
0.00217535
-0.226907
0.00202511
-0.226521
0.00168607
-0.226257
0.00118298
-0.226095
0.000509419
-0.226043
-0.000325279
-0.226114
-0.00129705
-0.226154
-0.00231262
-0.225877
-0.00312704
-0.22461
-0.00330305
-0.221528
-0.00206779
-0.216024
0.000941489
-0.208761
0.00531851
-0.201633
0.00998832
-0.129394
0.0133625
-0.13011
0.0159216
-0.131371
0.0177011
-0.132768
0.0189458
-0.133826
0.0198877
-0.134199
0.0207243
-0.133704
0.021563
-0.132262
0.0224649
-0.129835
0.0235011
-0.126378
0.0247567
-0.203655
0.0252333
-0.205792
0.0255485
-0.208183
0.0256114
-0.210759
0.0253488
-0.213498
0.024647
-0.216277
0.0234918
-0.218948
0.0218774
-0.221392
0.0198214
-0.223418
0.0174676
-0.224966
0.0149547
-0.225971
0.0124494
-0.226463
0.010076
-0.226557
0.00795845
-0.226324
0.00615094
-0.225928
0.00465894
-0.225442
0.00347411
-0.224951
0.00255487
-0.224543
0.00185552
-0.224208
0.00132712
-0.223997
0.000931745
-0.223876
0.000635317
-0.22383
0.000411259
-0.223869
0.000240894
-0.223929
0.000108495
-0.224024
0.00206711
-0.228784
0.00246919
-0.228162
0.00243466
-0.227621
0.00232159
-0.227204
0.0020367
-0.226872
0.0016031
-0.226677
0.00101539
-0.226601
0.00028085
-0.226649
-0.000592779
-0.226818
-0.00156887
-0.226898
-0.00252285
-0.226482
-0.00313924
-0.224774
-0.00281155
-0.220784
-0.000811471
-0.214271
0.00297452
-0.206417
0.00782023
-0.199465
0.0124583
-0.12849
0.0155473
-0.129736
0.0177288
-0.131399
0.0191898
-0.133012
0.0202097
-0.134148
0.0210322
-0.134507
0.0217963
-0.133937
0.0225909
-0.132388
0.0235001
-0.129834
0.0246087
-0.12623
0.0259226
-0.204344
0.0264539
-0.206698
0.0267766
-0.209348
0.0268092
-0.212219
0.0264013
-0.215252
0.0255082
-0.218293
0.0240745
-0.221145
0.0220796
-0.223651
0.0196538
-0.225604
0.0169428
-0.226955
0.0141493
-0.227671
0.011442
-0.227829
0.00899356
-0.227592
0.00689203
-0.227065
0.00516149
-0.226431
0.00380038
-0.225769
0.00276202
-0.225158
0.00199053
-0.224678
0.00142461
-0.224305
0.0010149
-0.224081
0.000717476
-0.223959
0.000498172
-0.223917
0.000333706
-0.223962
0.000205266
-0.224025
9.85978e-05
-0.224122
0.0022178
-0.229558
0.00259216
-0.228907
0.0025976
-0.228325
0.00253089
-0.227831
0.00230343
-0.22747
0.00193805
-0.227207
0.00143383
-0.227096
0.000799404
-0.22712
3.80055e-05
-0.22728
-0.000838597
-0.227548
-0.00178009
-0.227641
-0.00260858
-0.227012
-0.00290091
-0.224685
-0.00193123
-0.219664
0.000885281
-0.212181
0.0053829
-0.203979
0.010493
-0.1975
0.014887
-0.127829
0.0175761
-0.129583
0.0193685
-0.131577
0.0205512
-0.133353
0.0213994
-0.134515
0.0221281
-0.134839
0.0228613
-0.134208
0.0236573
-0.132546
0.024608
-0.129833
0.025774
-0.126082
0.0272171
-0.205107
0.0278074
-0.207729
0.0281519
-0.210691
0.0280912
-0.213909
0.0275349
-0.217279
0.0263833
-0.220602
0.0245474
-0.223613
0.0221229
-0.22612
0.019249
-0.22791
0.016156
-0.228961
0.0130649
-0.229294
0.0102153
-0.229051
0.0077457
-0.228445
0.00571086
-0.227615
0.00412312
-0.226753
0.00293197
-0.225939
0.00206957
-0.225238
0.00145928
-0.224713
0.00103687
-0.224327
0.00074549
-0.224109
0.000541188
-0.224002
0.000393911
-0.223977
0.000281069
-0.224038
0.000186387
-0.224113
9.679e-05
-0.224219
0.00225318
-0.230315
0.00262864
-0.229594
0.00267185
-0.228981
0.00264853
-0.228443
0.00248696
-0.228014
0.00218944
-0.227722
0.00176541
-0.227538
0.0012269
-0.227523
0.000577553
-0.227659
-0.00017878
-0.22794
-0.00102515
-0.228303
-0.00188641
-0.228363
-0.00250665
-0.227407
-0.00233834
-0.224278
-0.000635782
-0.218143
0.00302644
-0.209825
0.00808775
-0.201574
0.0132368
-0.195849