/*--------------------------------*- C++ -*----------------------------------*\
| =========                 |                                                 |
| \\      /  F ield         | OpenFOAM: The Open Source CFD Toolbox           |
|  \\    /   O peration     | Version:  2506                                  |
|   \\  /    A nd           | Website:  www.openfoam.com                      |
|    \\/     M anipulation  |                                                 |
\*---------------------------------------------------------------------------*/
FoamFile
{
    version     2.0;
    format      ascii;
    arch        "LSB;label=32;scalar=64";
    class       pointScalarField;
    location    "19.971824";
    object      streamFunction;
}
// * * * * * * * * * * * * * * * * * * * * * * * * * * * * * * * * * * * * * //

dimensions      [0 3 -1 0 0 0 0];

internalField   nonuniform List<scalar> 
19880
(
0
0.0026382
0.00089949
-0.00600091
-0.0182299
-0.0360599
0
-0.00136399
-0.00917281
-0.0222126
-0.039791
-0.0616169
0
-0.00357033
-0.0140712
-0.0288923
-0.0463365
-0.0653387
0
-0.00436612
-0.0143713
-0.0265351
-0.0382347
-0.0471322
0
-0.00519192
-0.0128999
-0.0192562
-0.0206819
-0.0129593
0
-0.00617686
-0.00951231
-0.00420098
0.0136683
0.0458756
0
0.0026382
0.00089949
-0.00600091
-0.0182299
-0.0360599
0
-0.00136399
-0.00917281
-0.0222126
-0.039791
-0.0616169
0
-0.00357033
-0.0140712
-0.0288923
-0.0463365
-0.0653387
0
-0.00436612
-0.0143713
-0.0265351
-0.0382347
-0.0471322
0
-0.00519192
-0.0128999
-0.0192562
-0.0206819
-0.0129593
0
-0.00617686
-0.00951231
-0.00420098
0.0136683
0.0458756
6e-08
6e-08
-1e-08
-1e-09
0
0.0424879
0.0241229
0.00986936
0.00021683
-0.00486323
0.143995
0.104069
0.0624998
0.0267664
0.00246507
0.265443
0.213845
0.15032
0.0849696
0.0308063
0.389145
0.33313
0.256716
0.167664
0.0813482
0.511217
0.453267
0.369657
0.264761
0.151075
6e-08
6e-08
-1e-08
-1e-09
0
0.0424879
0.0241229
0.00986936
0.00021683
-0.00486323
0.143995
0.104069
0.0624998
0.0267664
0.00246507
0.265443
0.213845
0.15032
0.0849696
0.0308063
0.389145
0.33313
0.256716
0.167664
0.0813482
0.511217
0.453267
0.369657
0.264761
0.151075
-6e-08
-5e-08
-5e-08
-4e-08
6e-08
0.0811409
0.0858874
0.0838255
0.0754787
0.0609606
0.17745
0.193633
0.199466
0.194026
0.17523
0.270199
0.29944
0.315321
0.316012
0.299746
0.359181
0.401381
0.427528
0.435299
0.422923
0.445476
0.500512
0.536781
0.551745
0.543667
-6e-08
-5e-08
-5e-08
-4e-08
6e-08
0.0811409
0.0858874
0.0838255
0.0754787
0.0609606
0.17745
0.193633
0.199466
0.194026
0.17523
0.270199
0.29944
0.315321
0.316012
0.299746
0.359181
0.401381
0.427528
0.435299
0.422923
0.445476
0.500512
0.536781
0.551745
0.543667
-0.00335194
-0.00296752
-0.00246999
-0.0018273
-0.00100826
-6e-08
0.0997001
0.0807676
0.061201
0.0405775
0.0185739
-6e-08
0.19933
0.161633
0.122666
0.0816831
0.0381424
-6e-08
0.292327
0.236886
0.179627
0.119592
0.0560477
-6e-08
0.375556
0.303734
0.229656
0.152237
0.0708423
-6e-08
-0.00335194
-0.00296752
-0.00246999
-0.0018273
-0.00100826
-6e-08
0.0997001
0.0807676
0.061201
0.0405775
0.0185739
-6e-08
0.19933
0.161633
0.122666
0.0816831
0.0381424
-6e-08
0.292327
0.236886
0.179627
0.119592
0.0560477
-6e-08
0.375556
0.303734
0.229656
0.152237
0.0708423
-6e-08
-0.456072
-0.368688
-0.278215
-0.183369
-0.0842778
-1.2e-07
-0.384673
-0.311886
-0.236531
-0.157472
-0.0736287
4e-08
-0.300345
-0.244022
-0.185604
-0.124055
-0.0584748
4e-08
-0.206603
-0.168086
-0.128046
-0.0856575
-0.0402664
4e-08
-0.106543
-0.0868283
-0.0662438
-0.0442957
-0.0205784
-6e-08
-0.456072
-0.368688
-0.278215
-0.183369
-0.0842778
-1.2e-07
-0.384673
-0.311886
-0.236531
-0.157472
-0.0736287
4e-08
-0.300345
-0.244022
-0.185604
-0.124055
-0.0584748
4e-08
-0.206603
-0.168086
-0.128046
-0.0856575
-0.0402664
4e-08
-0.106543
-0.0868283
-0.0662438
-0.0442957
-0.0205784
-6e-08
-0.513192
-0.552126
-0.570465
-0.56671
-0.539738
-0.412762
-0.441342
-0.452187
-0.443738
-0.414787
-0.309078
-0.327046
-0.330374
-0.317458
-0.28712
-0.200903
-0.208335
-0.204889
-0.188609
-0.159801
-0.0900258
-0.0887946
-0.0813794
-0.0676151
-0.0495045
1.8e-07
-8e-08
-6e-08
-6e-08
-6e-08
-0.513192
-0.552126
-0.570465
-0.56671
-0.539738
-0.412762
-0.441342
-0.452187
-0.443738
-0.414787
-0.309078
-0.327046
-0.330374
-0.317458
-0.28712
-0.200903
-0.208335
-0.204889
-0.188609
-0.159801
-0.0900258
-0.0887946
-0.0813794
-0.0676151
-0.0495045
1.8e-07
-8e-08
-6e-08
-6e-08
-6e-08
-0.488523
-0.413215
-0.316864
-0.207604
-0.0999294
-0.364529
-0.294392
-0.209385
-0.121224
-0.0451128
-0.239677
-0.179059
-0.113069
-0.0533271
-0.00845973
-0.121318
-0.0793559
-0.0408609
-0.0114043
0.00791394
-0.0305878
-0.0151449
-0.00395427
0.00316872
0.00750723
-6e-08
-6e-08
-6e-08
-6e-08
-6e-08
-0.488523
-0.413215
-0.316864
-0.207604
-0.0999294
-0.364529
-0.294392
-0.209385
-0.121224
-0.0451128
-0.239677
-0.179059
-0.113069
-0.0533271
-0.00845973
-0.121318
-0.0793559
-0.0408609
-0.0114043
0.00791394
-0.0305878
-0.0151449
-0.00395427
0.00316872
0.00750723
-6e-08
-6e-08
-6e-08
-6e-08
-6e-08
-6e-08
0.0108373
0.0197996
0.0195435
0.00566209
-0.0239841
-6e-08
0.0124536
0.025249
0.0323808
0.0305604
0.018402
-6e-08
0.0112748
0.0229463
0.0302782
0.031374
0.025536
0
0.00742818
0.0132493
0.0144055
0.0101137
-0.00034081
-6e-08
0.0108373
0.0197996
0.0195435
0.00566209
-0.0239841
-6e-08
0.0124536
0.025249
0.0323808
0.0305604
0.018402
-6e-08
0.0112748
0.0229463
0.0302782
0.031374
0.025536
0
0.00742818
0.0132493
0.0144055
0.0101137
-0.00034081
-0.0854177
-0.153754
-0.229632
-0.298687
-0.34424
-0.355671
-0.329024
-0.267624
-0.180386
-0.0781558
0.031006
0.142175
0.251905
0.351699
0.42768
0.468371
0.4686
0.430677
0.362435
0.273992
0.175122
0.0734506
-0.0278654
-0.128191
-0.227664
-0.324767
-0.413175
-0.482675
-0.523835
-0.53145
-0.505465
-0.450575
-0.374869
-0.287954
-0.198234
-0.108902
-0.0220271
0.0616793
0.142379
0.219163
0.288644
0.345339
0.383997
0.401509
0.397498
0.374308
0.336144
0.28788
0.233993
0.177902
0.121931
0.0674746
0.0151478
-0.0349536
-0.0828584
-0.128247
-0.170018
-0.206259
-0.23474
-0.25335
-0.260665
-0.256548
-0.242144
-0.219532
-0.191178
-0.15941
-0.126073
-0.0924927
-0.0595221
-0.0276387
0.00294859
0.0322002
0.0601635
0.0869192
0.112543
0.13709
0.160587
0.18303
0.204396
0.224639
0.243702
0.261518
0.278009
0.293091
0.306677
0.318684
0.32904
0.337688
0.344594
0.349753
0.35318
0.354918
0.355033
0.353603
0.35072
0.346479
0.340985
0.334333
0.32669
0.593987
-0.112131
-0.175382
-0.241534
-0.296462
-0.326247
-0.323095
-0.28355
-0.211451
-0.116605
-0.0105117
0.0983653
0.206238
0.311703
0.410686
0.492142
0.543114
0.555662
0.529421
0.470628
0.388711
0.293336
0.192291
0.0895776
-0.0138864
-0.117295
-0.218197
-0.309194
-0.379616
-0.420435
-0.426888
-0.399164
-0.34221
-0.264479
-0.176158
-0.0861889
0.00233611
0.0870069
0.167276
0.243644
0.316008
0.382169
0.437552
0.476928
0.496819
0.496432
0.477523
0.443738
0.399447
0.348778
0.295026
0.24048
0.186616
0.134086
0.0831204
0.0339156
-0.0127471
-0.0553188
-0.0915606
-0.119024
-0.135537
-0.139986
-0.132621
-0.114973
-0.0894312
-0.0587192
-0.0252305
0.00926459
0.0435813
0.0769319
0.108948
0.139499
0.168612
0.196345
0.22282
0.248131
0.272345
0.295513
0.317622
0.338672
0.358633
0.377475
0.395129
0.411548
0.426664
0.440408
0.452685
0.463421
0.472541
0.479984
0.485713
0.489702
0.491965
0.492537
0.491474
0.488854
0.484771
0.479336
0.472657
0.464932
0.455869
-0.110603
-0.164069
-0.217503
-0.259102
-0.276994
-0.264424
-0.217786
-0.141073
-0.0442326
0.0614894
0.167641
0.270367
0.368598
0.461821
0.544412
0.604313
0.630483
0.61902
0.573333
0.501488
0.412667
0.314755
0.212415
0.107529
0.00197967
-0.10137
-0.194707
-0.266947
-0.309342
-0.317269
-0.290687
-0.234327
-0.156733
-0.0684137
0.0212887
0.108704
0.191245
0.268356
0.340639
0.408578
0.471161
0.525133
0.56569
0.588778
0.592921
0.579181
0.550495
0.510726
0.463667
0.412522
0.35962
0.306445
0.253795
0.202082
0.151812
0.104123
0.0609721
0.024921
-0.0014234
-0.0159777
-0.0178855
-0.00771463
0.0127071
0.0407133
0.0733962
0.108265
0.143653
0.178515
0.212161
0.244278
0.274795
0.30377
0.331325
0.357586
0.382661
0.406629
0.429525
0.451397
0.472229
0.492007
0.5107
0.528276
0.544691
0.559891
0.573807
0.586354
0.597458
0.607024
0.614967
0.62122
0.625737
0.628499
0.629515
0.628824
0.626488
0.622601
0.617273
0.610629
0.60288
0.593748
-0.0816973
-0.121985
-0.161964
-0.192248
-0.202303
-0.184356
-0.135448
-0.0595327
0.0344082
0.136119
0.237837
0.335062
0.425974
0.510836
0.589009
0.653514
0.692378
0.697222
0.667549
0.609096
0.530017
0.438033
0.338434
0.234242
0.128379
0.0241215
-0.0711466
-0.146056
-0.191817
-0.203685
-0.181075
-0.127965
-0.0526475
0.0343037
0.123187
0.209345
0.290046
0.364584
0.433432
0.497349
0.556292
0.608378
0.649803
0.676367
0.685624
0.677715
0.65476
0.620048
0.577074
0.528926
0.477957
0.425748
0.373258
0.321113
0.270069
0.221672
0.178165
0.142369
0.117056
0.104213
0.104433
0.116881
0.139538
0.169569
0.203869
0.239787
0.275902
0.311222
0.345118
0.377331
0.407843
0.436753
0.464205
0.490342
0.515278
0.53909
0.561858
0.583602
0.604332
0.624038
0.642706
0.660312
0.67682
0.69219
0.706358
0.719239
0.730753
0.740794
0.74926
0.756059
0.761121
0.764401
0.76589
0.765609
0.76361
0.75998
0.754828
0.748292
0.740599
0.731478
-0.0346607
-0.0601376
-0.0867101
-0.106982
-0.1111
-0.0908851
-0.0434947
0.0277552
0.115345
0.210727
0.306811
0.398772
0.483835
0.561226
0.631894
0.694703
0.741827
0.762315
0.750243
0.708014
0.641785
0.55877
0.464705
0.363551
0.259038
0.155228
0.0587566
-0.0192977
-0.0698852
-0.0881601
-0.0720591
-0.0244833
0.0467578
0.131052
0.218471
0.303275
0.382488
0.455161
0.521498
0.582194
0.637755
0.687545
0.729096
0.758687
0.773187
0.771487
0.754813
0.725722
0.687368
0.642701
0.594103
0.543272
0.491349
0.439208
0.3878
0.338961
0.295295
0.259794
0.235328
0.223797
0.225625
0.239792
0.264169
0.295811
0.331442
0.368214
0.40491
0.440638
0.474779
0.507129
0.537708
0.566648
0.59411
0.620243
0.645182
0.668994
0.691757
0.71351
0.734273
0.754049
0.772828
0.790597
0.80733
0.822989
0.837526
0.850848
0.862864
0.873464
0.882529
0.889947
0.895624
0.899496
0.901534
0.901744
0.900168
0.896883
0.892005
0.885676
0.878139
0.869129
0.0308665
0.0147124
-0.0014631
-0.0129167
-0.0116819
0.00897035
0.0518931
0.115352
0.194135
0.281491
0.371083
0.457992
0.538798
0.611434
0.675734
0.732937
0.781266
0.812351
0.816814
0.792661
0.742282
0.671546
0.586184
0.490812
0.389725
0.287722
0.191148
0.110279
0.0541208
0.0280319
0.0354769
0.0754704
0.1408
0.220918
0.305891
0.38913
0.467167
0.538679
0.603537
0.662162
0.715125
0.762563
0.803364
0.834881
0.853951
0.858399
0.848447
0.825602
0.792518
0.751947
0.706321
0.657442
0.606636
0.554988
0.503789
0.454928
0.411279
0.376054
0.352213
0.34162
0.344547
0.359907
0.385503
0.418357
0.45497
0.492421
0.529641
0.565774
0.600196
0.632763
0.663538
0.692641
0.720258
0.746541
0.771628
0.79559
0.81851
0.840447
0.861406
0.881412
0.900462
0.918561
0.93567
0.951766
0.966806
0.980696
0.993341
1.00463
1.01441
1.02257
1.02899
1.03357
1.03628
1.0371
1.03607
1.03326
1.02878
1.02278
1.01552
0.731509
-0.0854177
-0.153754
-0.229632
-0.298687
-0.34424
-0.355671
-0.329024
-0.267624
-0.180386
-0.0781558
0.031006
0.142175
0.251905
0.351699
0.42768
0.468371
0.4686
0.430677
0.362435
0.273992
0.175122
0.0734506
-0.0278654
-0.128191
-0.227664
-0.324767
-0.413175
-0.482675
-0.523835
-0.53145
-0.505465
-0.450575
-0.374869
-0.287954
-0.198234
-0.108902
-0.0220271
0.0616793
0.142379
0.219163
0.288644
0.345339
0.383997
0.401509
0.397498
0.374308
0.336144
0.28788
0.233993
0.177902
0.121931
0.0674746
0.0151478
-0.0349536
-0.0828584
-0.128247
-0.170018
-0.206259
-0.23474
-0.25335
-0.260665
-0.256548
-0.242144
-0.219532
-0.191178
-0.15941
-0.126073
-0.0924927
-0.0595221
-0.0276387
0.00294859
0.0322002
0.0601635
0.0869192
0.112543
0.13709
0.160587
0.18303
0.204396
0.224639
0.243702
0.261518
0.278009
0.293091
0.306677
0.318684
0.32904
0.337688
0.344594
0.349753
0.35318
0.354918
0.355033
0.353603
0.35072
0.346479
0.340985
0.334333
0.32669
0.593987
-0.112131
-0.175382
-0.241534
-0.296462
-0.326247
-0.323095
-0.28355
-0.211451
-0.116605
-0.0105117
0.0983653
0.206238
0.311703
0.410686
0.492142
0.543114
0.555662
0.529421
0.470628
0.388711
0.293336
0.192291
0.0895776
-0.0138864
-0.117295
-0.218197
-0.309194
-0.379616
-0.420435
-0.426888
-0.399164
-0.34221
-0.264479
-0.176158
-0.0861889
0.00233611
0.0870069
0.167276
0.243644
0.316008
0.382169
0.437552
0.476928
0.496819
0.496432
0.477523
0.443738
0.399447
0.348778
0.295026
0.24048
0.186616
0.134086
0.0831204
0.0339156
-0.0127471
-0.0553188
-0.0915606
-0.119024
-0.135537
-0.139986
-0.132621
-0.114973
-0.0894312
-0.0587192
-0.0252305
0.00926459
0.0435813
0.0769319
0.108948
0.139499
0.168612
0.196345
0.22282
0.248131
0.272345
0.295513
0.317622
0.338672
0.358633
0.377475
0.395129
0.411548
0.426664
0.440408
0.452685
0.463421
0.472541
0.479984
0.485713
0.489702
0.491965
0.492537
0.491474
0.488854
0.484771
0.479336
0.472657
0.464932
0.455869
-0.110603
-0.164069
-0.217503
-0.259102
-0.276994
-0.264424
-0.217786
-0.141073
-0.0442326
0.0614894
0.167641
0.270367
0.368598
0.461821
0.544412
0.604313
0.630483
0.61902
0.573333
0.501488
0.412667
0.314755
0.212415
0.107529
0.00197967
-0.10137
-0.194707
-0.266947
-0.309342
-0.317269
-0.290687
-0.234327
-0.156733
-0.0684137
0.0212887
0.108704
0.191245
0.268356
0.340639
0.408578
0.471161
0.525133
0.56569
0.588778
0.592921
0.579181
0.550495
0.510726
0.463667
0.412522
0.35962
0.306445
0.253795
0.202082
0.151812
0.104123
0.0609721
0.024921
-0.0014234
-0.0159777
-0.0178855
-0.00771463
0.0127071
0.0407133
0.0733962
0.108265
0.143653
0.178515
0.212161
0.244278
0.274795
0.30377
0.331325
0.357586
0.382661
0.406629
0.429525
0.451397
0.472229
0.492007
0.5107
0.528276
0.544691
0.559891
0.573807
0.586354
0.597458
0.607024
0.614967
0.62122
0.625737
0.628499
0.629515
0.628824
0.626488
0.622601
0.617273
0.610629
0.60288
0.593748
-0.0816973
-0.121985
-0.161964
-0.192248
-0.202303
-0.184356
-0.135448
-0.0595327
0.0344082
0.136119
0.237837
0.335062
0.425974
0.510836
0.589009
0.653514
0.692378
0.697222
0.667549
0.609096
0.530017
0.438033
0.338434
0.234242
0.128379
0.0241215
-0.0711466
-0.146056
-0.191817
-0.203685
-0.181075
-0.127965
-0.0526475
0.0343037
0.123187
0.209345
0.290046
0.364584
0.433432
0.497349
0.556292
0.608378
0.649803
0.676367
0.685624
0.677715
0.65476
0.620048
0.577074
0.528926
0.477957
0.425748
0.373258
0.321113
0.270069
0.221672
0.178165
0.142369
0.117056
0.104213
0.104433
0.116881
0.139538
0.169569
0.203869
0.239787
0.275902
0.311222
0.345118
0.377331
0.407843
0.436753
0.464205
0.490342
0.515278
0.53909
0.561858
0.583602
0.604332
0.624038
0.642706
0.660312
0.67682
0.69219
0.706358
0.719239
0.730753
0.740794
0.74926
0.756059
0.761121
0.764401
0.76589
0.765609
0.76361
0.75998
0.754828
0.748292
0.740599
0.731478
-0.0346607
-0.0601376
-0.0867101
-0.106982
-0.1111
-0.0908851
-0.0434947
0.0277552
0.115345
0.210727
0.306811
0.398772
0.483835
0.561226
0.631894
0.694703
0.741827
0.762315
0.750243
0.708014
0.641785
0.55877
0.464705
0.363551
0.259038
0.155228
0.0587566
-0.0192977
-0.0698852
-0.0881601
-0.0720591
-0.0244833
0.0467578
0.131052
0.218471
0.303275
0.382488
0.455161
0.521498
0.582194
0.637755
0.687545
0.729096
0.758687
0.773187
0.771487
0.754813
0.725722
0.687368
0.642701
0.594103
0.543272
0.491349
0.439208
0.3878
0.338961
0.295295
0.259794
0.235328
0.223797
0.225625
0.239792
0.264169
0.295811
0.331442
0.368214
0.40491
0.440638
0.474779
0.507129
0.537708
0.566648
0.59411
0.620243
0.645182
0.668994
0.691757
0.71351
0.734273
0.754049
0.772828
0.790597
0.80733
0.822989
0.837526
0.850848
0.862864
0.873464
0.882529
0.889947
0.895624
0.899496
0.901534
0.901744
0.900168
0.896883
0.892005
0.885676
0.878139
0.869129
0.0308665
0.0147124
-0.0014631
-0.0129167
-0.0116819
0.00897035
0.0518931
0.115352
0.194135
0.281491
0.371083
0.457992
0.538798
0.611434
0.675734
0.732937
0.781266
0.812351
0.816814
0.792661
0.742282
0.671546
0.586184
0.490812
0.389725
0.287722
0.191148
0.110279
0.0541208
0.0280319
0.0354769
0.0754704
0.1408
0.220918
0.305891
0.38913
0.467167
0.538679
0.603537
0.662162
0.715125
0.762563
0.803364
0.834881
0.853951
0.858399
0.848447
0.825602
0.792518
0.751947
0.706321
0.657442
0.606636
0.554988
0.503789
0.454928
0.411279
0.376054
0.352213
0.34162
0.344547
0.359907
0.385503
0.418357
0.45497
0.492421
0.529641
0.565774
0.600196
0.632763
0.663538
0.692641
0.720258
0.746541
0.771628
0.79559
0.81851
0.840447
0.861406
0.881412
0.900462
0.918561
0.93567
0.951766
0.966806
0.980696
0.993341
1.00463
1.01441
1.02257
1.02899
1.03357
1.03628
1.0371
1.03607
1.03326
1.02878
1.02278
1.01552
0.731509
0.270153
0.247506
0.229888
0.219219
0.217601
0.2295
0.256681
0.299774
0.357402
0.425801
0.499944
0.575071
0.647326
0.713836
0.772436
0.821664
0.861553
0.893062
0.914237
0.919582
0.902711
0.863034
0.80306
0.727142
0.640021
0.546768
0.453295
0.3669
0.296648
0.250393
0.232485
0.247058
0.290736
0.355559
0.431686
0.510646
0.586962
0.657873
0.722401
0.780435
0.832138
0.877739
0.917436
0.951037
0.977426
0.994579
1.00047
0.993988
0.975683
0.947261
0.910899
0.868751
0.822581
0.77388
0.724073
0.674956
0.628876
0.58897
0.558548
0.540364
0.535768
0.54438
0.56447
0.593498
0.628451
0.66579
0.703186
0.739838
0.77504
0.808415
0.839945
0.869757
0.89799
0.924825
0.950403
0.974849
0.99823
1.02062
1.04209
1.06265
1.08232
1.10113
1.11907
1.13612
1.15226
1.16744
1.18158
1.19456
1.20627
1.21655
1.22525
1.23223
1.23737
1.2406
1.24188
1.24124
1.23873
1.23448
1.22864
1.22148
0.937525
0.535703
0.515512
0.500379
0.492454
0.493524
0.505754
0.530515
0.567919
0.61597
0.671472
0.730933
0.790919
0.848455
0.901136
0.946991
0.984317
1.01196
1.02986
1.03775
1.03515
1.01914
0.986651
0.936808
0.871667
0.795292
0.713019
0.631282
0.557614
0.500128
0.465957
0.459518
0.481152
0.526392
0.587626
0.656707
0.727037
0.794462
0.856952
0.913772
0.964752
1.00983
1.04892
1.08195
1.10886
1.1294
1.14276
1.14762
1.14286
1.12805
1.10384
1.07165
1.03325
0.990382
0.944715
0.898026
0.852552
0.811025
0.776627
0.752468
0.740761
0.742217
0.755903
0.779606
0.810511
0.845737
0.882315
0.918567
0.953709
0.98728
1.0191
1.04923
1.07781
1.10498
1.13088
1.15563
1.17934
1.20206
1.22386
1.24481
1.26492
1.28422
1.30274
1.32049
1.33744
1.35357
1.36884
1.38315
1.39641
1.40847
1.41916
1.42833
1.4358
1.44143
1.44512
1.44681
1.4465
1.44425
1.44019
1.43447
1.42737
0.731604
0.805172
0.787718
0.775688
0.770381
0.772822
0.784093
0.804959
0.835074
0.872985
0.916435
0.962896
1.00984
1.05494
1.09614
1.13163
1.15972
1.17894
1.18832
1.18711
1.17576
1.15491
1.1236
1.08037
1.02536
0.96116
0.892423
0.825321
0.7669
0.724282
0.703222
0.706263
0.731861
0.775339
0.830318
0.890479
0.950993
1.00892
1.06279
1.11196
1.15612
1.19501
1.22833
1.25575
1.27704
1.29214
1.30094
1.30313
1.29798
1.28495
1.26396
1.23569
1.20138
1.1626
1.12116
1.07913
1.03904
1.00376
0.976282
0.959233
0.954122
0.960981
0.978392
1.00394
1.03491
1.06876
1.10339
1.13748
1.1704
1.20188
1.23184
1.26035
1.28754
1.31349
1.33833
1.36215
1.38503
1.40702
1.42817
1.44855
1.46816
1.48706
1.50525
1.52275
1.53955
1.55562
1.57092
1.58535
1.5988
1.61113
1.62216
1.6317
1.63956
1.6456
1.64966
1.65169
1.65167
1.64964
1.64572
1.6401
1.63306
0.937301
1.06931
1.05474
1.04523
1.04141
1.04402
1.05361
1.07047
1.09425
1.12384
1.15764
1.19378
1.23035
1.26548
1.29744
1.32467
1.34571
1.35916
1.36376
1.35843
1.34317
1.31889
1.28647
1.24624
1.19876
1.14585
1.09107
1.03943
0.996622
0.968276
0.958563
0.968059
0.994137
1.03292
1.07964
1.12979
1.18013
1.22865
1.2742
1.31608
1.35384
1.38708
1.41535
1.43824
1.45533
1.46637
1.47128
1.47016
1.46313
1.4501
1.43097
1.40595
1.37582
1.34186
1.30583
1.26989
1.23662
1.20872
1.18881
1.17886
1.17965
1.19056
1.20988
1.23538
1.26477
1.29609
1.32781
1.35903
1.38928
1.41839
1.44629
1.47304
1.4987
1.52334
1.54703
1.56983
1.5918
1.61299
1.63343
1.65319
1.67227
1.69071
1.70853
1.72576
1.74236
1.75832
1.77359
1.78807
1.80164
1.81416
1.82542
1.83523
1.84339
1.84973
1.85408
1.85636
1.85654
1.85467
1.85087
1.84532
1.83831
0.732038
1.32672
1.31446
1.30674
1.30381
1.30614
1.31403
1.32751
1.34621
1.36928
1.39556
1.42363
1.45202
1.47923
1.50387
1.52461
1.54023
1.54963
1.55176
1.54569
1.53095
1.50784
1.47737
1.44085
1.39987
1.35658
1.31399
1.27594
1.24661
1.22967
1.22681
1.23764
1.2606
1.29268
1.33034
1.37073
1.41169
1.45172
1.48976
1.52506
1.55704
1.58521
1.60909
1.62823
1.64221
1.65063
1.65327
1.65017
1.64167
1.62813
1.60986
1.5872
1.56085
1.5319
1.50191
1.47286
1.44707
1.42682
1.41414
1.41029
1.41534
1.42825
1.44745
1.47121
1.49779
1.52579
1.55414
1.58222
1.60966
1.63632
1.66211
1.68703
1.71111
1.73435
1.75681
1.77853
1.79954
1.81987
1.83956
1.85865
1.87715
1.8951
1.91252
1.92942
1.94578
1.96158
1.97676
1.99123
2.00485
2.01747
2.02888
2.03886
2.04722
2.05374
2.05827
2.0607
2.06101
2.05923
2.05549
2.04998
2.04299
0.93674
1.5787
1.56828
1.56179
1.55935
1.56121
1.56751
1.57816
1.5928
1.61078
1.63119
1.65296
1.67492
1.69591
1.71478
1.73047
1.74198
1.74846
1.74913
1.74341
1.73091
1.7117
1.68642
1.65626
1.62297
1.58879
1.55638
1.52869
1.50857
1.49793
1.49733
1.50668
1.5249
1.54982
1.57923
1.61123
1.64424
1.67699
1.7085
1.73802
1.7649
1.78861
1.8087
1.82473
1.8363
1.84306
1.84477
1.84135
1.83299
1.82007
1.80314
1.78286
1.76011
1.73598
1.71189
1.68951
1.6707
1.65715
1.65015
1.65031
1.65725
1.67005
1.68765
1.70867
1.73191
1.75637
1.78133
1.80631
1.83101
1.85527
1.87896
1.90204
1.9245
1.94632
1.96751
1.9881
2.0081
2.02753
2.04642
2.06481
2.0827
2.10012
2.11709
2.13363
2.1497
2.16529
2.18034
2.19473
2.20833
2.22097
2.23244
2.2425
2.25094
2.25755
2.26215
2.26464
2.26499
2.26323
2.2595
2.25399
2.24701
0.732701
1.82642
1.81748
1.81188
1.80966
1.81097
1.81584
1.82413
1.83551
1.84946
1.86526
1.88207
1.89899
1.91509
1.92946
1.94124
1.94966
1.95404
1.95384
1.94868
1.93841
1.92317
1.90344
1.88016
1.8547
1.82886
1.80474
1.78447
1.76994
1.76238
1.76219
1.7693
1.78303
1.80208
1.82496
1.8503
1.87686
1.90358
1.92956
1.95409
1.97655
1.99643
2.01328
2.02672
2.03642
2.04209
2.04355
2.04069
2.03363
2.02266
2.0083
1.99126
1.9725
1.95311
1.93437
1.91767
1.90439
1.89566
1.89216
1.894
1.90093
1.91246
1.92771
1.9457
1.96561
1.98676
2.0086
2.03073
2.05287
2.07485
2.09652
2.1178
2.13866
2.15904
2.17894
2.19837
2.21734
2.23584
2.2539
2.27155
2.28879
2.30565
2.32214
2.33827
2.35402
2.36935
2.38421
2.39847
2.41198
2.42457
2.43601
2.44606
2.45449
2.46108
2.46565
2.4681
2.4684
2.4666
2.46283
2.45729
2.4503
0.936027
2.07062
2.06288
2.05794
2.05581
2.05657
2.0602
2.06653
2.07528
2.08602
2.09818
2.1111
2.12408
2.13637
2.14725
2.15604
2.16214
2.16504
2.16435
2.15982
2.15143
2.13938
2.12412
2.10641
2.0873
2.06809
2.05029
2.03538
2.02468
2.01909
2.01902
2.02445
2.03495
2.04969
2.06766
2.08783
2.10923
2.13099
2.15234
2.17264
2.19133
2.20794
2.22206
2.23334
2.24152
2.24639
2.24782
2.24576
2.24034
2.23178
2.22052
2.20719
2.1926
2.17772
2.16363
2.15139
2.14201
2.13624
2.13449
2.13682
2.14309
2.15296
2.16585
2.1811
2.19812
2.21641
2.23551
2.25511
2.27493
2.29479
2.31454
2.33409
2.35338
2.37234
2.39096
2.40922
2.42714
2.44469
2.4619
2.47878
2.49535
2.51161
2.52759
2.54328
2.55867
2.5737
2.58831
2.60238
2.61575
2.62821
2.63954
2.64949
2.65781
2.66428
2.66873
2.67106
2.67124
2.66933
2.66547
2.65988
2.65287
0.733405
2.31179
2.30504
2.30061
2.29852
2.29878
2.30135
2.30608
2.31273
2.32092
2.33021
2.34008
2.34998
2.3593
2.36749
2.37401
2.3784
2.38027
2.37934
2.37546
2.36866
2.35913
2.3473
2.33377
2.31936
2.30504
2.29187
2.28092
2.27311
2.2691
2.26926
2.27359
2.28184
2.29343
2.30767
2.3238
2.34108
2.3588
2.37632
2.39308
2.4086
2.42244
2.43425
2.44375
2.4507
2.45495
2.45641
2.45509
2.45113
2.44473
2.43629
2.42629
2.41541
2.4044
2.39408
2.38525
2.37864
2.37481
2.37408
2.37653
2.3821
2.39055
2.40151
2.41452
2.42917
2.44506
2.46182
2.47918
2.49691
2.51483
2.53279
2.55069
2.56847
2.58604
2.60339
2.6205
2.63736
2.65395
2.67028
2.68638
2.70225
2.71789
2.73332
2.74854
2.76352
2.77821
2.79254
2.80636
2.81951
2.83178
2.84293
2.85269
2.86081
2.86708
2.87132
2.87345
2.87344
2.87137
2.8674
2.86174
2.85471
0.935313
2.55043
2.54451
2.54049
2.5384
2.53824
2.53995
2.54339
2.54835
2.55453
2.56157
2.56905
2.57654
2.58357
2.58969
2.5945
2.59762
2.59878
2.59777
2.5945
2.58903
2.58154
2.57237
2.56203
2.55113
2.54041
2.53065
2.52262
2.51697
2.51421
2.5146
2.51818
2.52478
2.53402
2.5454
2.55838
2.57236
2.5868
2.60117
2.61499
2.62785
2.63938
2.64927
2.65728
2.66322
2.66696
2.66847
2.66777
2.66499
2.66033
2.65414
2.6468
2.63886
2.63087
2.62346
2.61723
2.61272
2.61035
2.61039
2.61294
2.61797
2.62534
2.63481
2.64605
2.65876
2.67264
2.6874
2.70281
2.71867
2.73482
2.75111
2.76746
2.78379
2.80002
2.81613
2.8321
2.8479
2.86352
2.87897
2.89427
2.90941
2.9244
2.93926
2.95398
2.96851
2.98282
2.99681
3.01034
3.02322
3.03522
3.0461
3.05559
3.06343
3.06942
3.07338
3.07524
3.07499
3.07272
3.0686
3.06287
3.05584
0.734086
2.78696
2.78171
2.77805
2.77597
2.77547
2.77648
2.77889
2.78251
2.78711
2.79238
2.798
2.80363
2.80888
2.81343
2.81694
2.81913
2.8198
2.81881
2.81609
2.81172
2.80585
2.79877
2.79087
2.78263
2.77461
2.76738
2.7615
2.75746
2.75563
2.7562
2.75923
2.7646
2.77204
2.78122
2.79171
2.80306
2.81485
2.82663
2.83802
2.84867
2.85827
2.86655
2.87332
2.87841
2.88174
2.88329
2.88308
2.88124
2.87795
2.8735
2.86821
2.8625
2.85682
2.85162
2.84736
2.84446
2.84323
2.84389
2.84654
2.85118
2.85774
2.86603
2.87585
2.88697
2.89916
2.9122
2.92589
2.94007
2.95461
2.96936
2.98425
2.9992
3.01415
3.02905
3.04389
3.05865
3.0733
3.08786
3.10234
3.11673
3.13105
3.1453
3.15948
3.17354
3.18743
3.20104
3.21421
3.22675
3.23843
3.24897
3.25811
3.2656
3.27122
3.27483
3.27636
3.27582
3.27333
3.26907
3.26327
3.25625
0.934639
3.02169
3.01703
3.01367
3.01162
3.01086
3.01133
3.01293
3.0155
3.01886
3.02275
3.02693
3.03111
3.035
3.03834
3.04088
3.0424
3.04274
3.04181
3.03957
3.03609
3.03151
3.02605
3.02003
3.01381
3.00782
3.00247
2.9982
2.99535
2.9942
2.9949
2.9975
3.00192
3.00799
3.01543
3.02395
3.0332
3.04283
3.0525
3.06189
3.07071
3.0787
3.08565
3.09137
3.09576
3.09873
3.10029
3.10045
3.09934
3.09712
3.09402
3.0903
3.08629
3.08235
3.07882
3.07606
3.07437
3.07401
3.07515
3.07788
3.08221
3.08811
3.09546
3.1041
3.11389
3.12464
3.13618
3.14837
3.16104
3.17411
3.18744
3.20096
3.21461
3.22831
3.24204
3.25577
3.2695
3.28318
3.29684
3.31049
3.32411
3.33773
3.35135
3.36496
3.37851
3.39193
3.40511
3.41788
3.43002
3.4413
3.45143
3.46015
3.4672
3.47239
3.47559
3.47674
3.4759
3.47317
3.46876
3.46292
3.45595
0.73476
3.25496
3.2508
3.24772
3.24571
3.24477
3.24482
3.2458
3.24756
3.24995
3.25278
3.25584
3.25891
3.26176
3.26419
3.26599
3.26702
3.26714
3.2663
3.26447
3.26171
3.25815
3.25395
3.24937
3.24469
3.24022
3.23629
3.23321
3.23124
3.23058
3.23137
3.23362
3.2373
3.24227
3.24835
3.25529
3.26285
3.27074
3.27868
3.28642
3.29373
3.30038
3.3062
3.31106
3.31484
3.3175
3.31904
3.31948
3.31893
3.31752
3.31545
3.31292
3.31021
3.30758
3.30531
3.30366
3.30288
3.30316
3.30464
3.3074
3.31147
3.31681
3.32337
3.33103
3.33967
3.34918
3.35941
3.37024
3.38156
3.39328
3.40529
3.41753
3.42993
3.44245
3.45504
3.46769
3.48038
3.4931
3.50586
3.51865
3.53149
3.54439
3.55735
3.57035
3.58334
3.59624
3.60894
3.62125
3.63293
3.64374
3.65339
3.66161
3.66816
3.67287
3.67561
3.67636
3.67519
3.67222
3.66769
3.66183
3.65495
0.933993
3.48697
3.48326
3.48044
3.4785
3.47744
3.47719
3.47769
3.47883
3.48049
3.4825
3.4847
3.48692
3.48898
3.49071
3.49198
3.49265
3.49263
3.49188
3.4904
3.48822
3.48545
3.48224
3.47876
3.47525
3.47193
3.46906
3.46686
3.46553
3.46523
3.46605
3.46801
3.4711
3.4752
3.48019
3.48587
3.49205
3.49852
3.50505
3.51144
3.51749
3.52303
3.52791
3.53203
3.53529
3.53767
3.53916
3.53979
3.53965
3.53885
3.53755
3.53593
3.53419
3.53254
3.5312
3.53038
3.53027
3.531
3.5327
3.53544
3.53925
3.5441
3.54997
3.55677
3.56442
3.57283
3.58189
3.59152
3.6016
3.61208
3.62286
3.63388
3.6451
3.65647
3.66796
3.67955
3.69122
3.70297
3.71481
3.72674
3.73877
3.75091
3.76317
3.77552
3.78791
3.80026
3.81242
3.82419
3.83535
3.84562
3.85472
3.86238
3.86837
3.87254
3.87479
3.87512
3.87362
3.87044
3.86581
3.85999
3.85324
0.735412
3.71795
3.71465
3.71208
3.71024
3.70912
3.70866
3.70882
3.70949
3.71058
3.71197
3.71352
3.7151
3.71656
3.71778
3.71864
3.71905
3.71895
3.7183
3.7171
3.71539
3.71324
3.71079
3.70816
3.70553
3.70308
3.701
3.69945
3.69859
3.69854
3.69936
3.70107
3.70367
3.70707
3.71117
3.71583
3.72089
3.7262
3.73156
3.73683
3.74184
3.74645
3.75054
3.75403
3.75684
3.75896
3.76037
3.76112
3.76128
3.76093
3.7602
3.75925
3.75822
3.7573
3.75664
3.75642
3.75677
3.75781
3.75963
3.7623
3.76583
3.77024
3.77548
3.78152
3.78829
3.79572
3.80372
3.81224
3.82119
3.83051
3.84013
3.85001
3.8601
3.87036
3.88077
3.89131
3.90197
3.91275
3.92366
3.9347
3.94589
3.95725
3.96876
3.98042
3.99216
4.00388
4.01544
4.02662
4.03717
4.04683
4.05531
4.06234
4.06773
4.07132
4.07306
4.07298
4.07117
4.06781
4.06314
4.0574
4.05086
0.933376
3.94806
3.94514
3.94282
3.9411
3.93997
3.93938
3.93929
3.93963
3.9403
3.94123
3.94228
3.94338
3.94439
3.94523
3.9458
3.94603
3.94588
3.94532
3.94436
3.94301
3.94136
3.93949
3.93751
3.93555
3.93375
3.93226
3.93119
3.93067
3.93078
3.93157
3.93307
3.93525
3.93807
3.94144
3.94526
3.94942
3.95376
3.95817
3.9625
3.96664
3.97047
3.97389
3.97684
3.97926
3.98112
3.98245
3.98325
3.9836
3.98357
3.98326
3.98279
3.98228
3.98188
3.98171
3.98189
3.98255
3.98377
3.98562
3.98817
3.99142
3.9954
4.00007
4.00541
4.01137
4.0179
4.02494
4.03244
4.04033
4.04857
4.0571
4.06588
4.07489
4.08407
4.09342
4.10292
4.11258
4.12237
4.13233
4.14246
4.15279
4.1633
4.17403
4.18494
4.19596
4.20699
4.21787
4.22837
4.23825
4.24722
4.25501
4.26136
4.2661
4.26911
4.27034
4.26986
4.26779
4.26431
4.25965
4.25407
4.24781
0.736021
4.17744
4.17488
4.17281
4.17123
4.17013
4.16947
4.16922
4.16932
4.16969
4.17028
4.17097
4.17171
4.17239
4.17295
4.17331
4.17342
4.17325
4.17277
4.172
4.17095
4.16968
4.16826
4.16678
4.16533
4.16402
4.16296
4.16225
4.16196
4.16217
4.16291
4.1642
4.16604
4.16837
4.17114
4.17427
4.17766
4.18121
4.18482
4.18837
4.19178
4.19494
4.19779
4.20027
4.20234
4.20397
4.20519
4.206
4.20647
4.20665
4.20662
4.20649
4.20634
4.2063
4.20645
4.2069
4.20774
4.20904
4.21085
4.21323
4.21619
4.21974
4.22386
4.22855
4.23376
4.23946
4.2456
4.25215
4.25904