/*--------------------------------*- C++ -*----------------------------------*\
| =========                 |                                                 |
| \\      /  F ield         | OpenFOAM: The Open Source CFD Toolbox           |
|  \\    /   O peration     | Version:  2506                                  |
|   \\  /    A nd           | Website:  www.openfoam.com                      |
|    \\/     M anipulation  |                                                 |
\*---------------------------------------------------------------------------*/
FoamFile
{
    version     2.0;
    format      ascii;
    arch        "LSB;label=32;scalar=64";
    class       volVectorField;
    location    "19.971824";
    object      U_0;
}
// * * * * * * * * * * * * * * * * * * * * * * * * * * * * * * * * * * * * * //

dimensions      [0 1 -1 0 0 0 0];

internalField   nonuniform List<vector> 
9700
(
(0.919276 0.00247403 0)
(0.919517 0.00736894 -2.71048e-24)
(0.912669 0.00252383 -6.77815e-28)
(0.919553 0.0121821 -1.07425e-23)
(0.912952 0.00744073 0)
(0.908763 0.00247311 -8.03095e-24)
(0.920608 0.0166519 8.60424e-24)
(0.913323 0.0122491 5.08979e-36)
(0.909062 0.00724165 -5.82733e-23)
(0.904352 0.00235243 0)
(0.921697 0.0209333 2.44241e-23)
(0.914616 0.0166819 -2.06121e-24)
(0.909805 0.0118792 -1.16506e-22)
(0.90469 0.00687926 8.92225e-23)
(0.900332 0.00215167 1.26006e-23)
(0.923311 0.0248133 1.58888e-23)
(0.916207 0.0207767 8.14618e-28)
(0.911318 0.0160505 -1.00301e-23)
(0.90581 0.0111556 5.73078e-36)
(0.900889 0.00621965 2.94187e-24)
(0.896772 0.00183284 -9.29039e-28)
(0.925199 0.0283566 -1.03028e-22)
(0.918292 0.0244058 -6.67722e-28)
(0.913309 0.0198274 -7.53088e-24)
(0.907674 0.0149834 -1.47884e-22)
(0.90237 0.0099874 1.2031e-22)
(0.89757 0.00522921 1.18962e-23)
(0.893902 0.00138722 -4.57139e-23)
(0.927395 0.03151 4.74741e-25)
(0.920767 0.0275529 -1.05782e-23)
(0.915785 0.0230567 -3.34339e-23)
(0.910169 0.0182818 0)
(0.904705 0.0132419 4.32562e-23)
(0.899451 0.00829229 -8.97533e-37)
(0.894991 0.00387976 -5.06376e-23)
(0.8919 0.000835315 -1.78411e-22)
(0.929841 0.0342807 8.4881e-23)
(0.923551 0.0302178 2.46175e-23)
(0.91865 0.0257451 -1.2264e-22)
(0.913182 0.020972 0)
(0.907753 0.0159046 3.40199e-23)
(0.902307 0.0107939 -2.51618e-23)
(0.897294 0.00605398 -1.88229e-26)
(0.893298 0.0022206 -3.64688e-22)
(0.891237 0.000235126 1.97903e-25)
(0.932549 0.036702 3.62558e-23)
(0.926557 0.0324204 4.67353e-24)
(0.921809 0.0278985 8.77408e-24)
(0.916587 0.0230538 2.10155e-37)
(0.911342 0.0179004 -1.93217e-23)
(0.905956 0.012663 1.00005e-26)
(0.900707 0.00762424 1.14512e-23)
(0.896047 0.00330836 -4.72423e-23)
(0.892703 0.000377146 -4.76226e-23)
(0.891365 -0.000444248 6.72694e-22)
(0.935412 0.0387854 -2.22958e-23)
(0.929752 0.0341965 -2.29281e-26)
(0.925175 0.0295528 4.95994e-23)
(0.920257 0.0245505 -4.32553e-23)
(0.915308 0.0192443 -1.66133e-22)
(0.910165 0.013831 -1.00099e-26)
(0.904977 0.00855452 8.24188e-24)
(0.900023 0.00379006 -3.36986e-22)
(0.895888 0.000150961 6.41046e-23)
(0.893365 -0.00169929 5.73112e-22)
(0.893064 -0.0011918 0)
(0.938359 0.0405518 -1.931e-24)
(0.933003 0.035593 3.58174e-25)
(0.928676 0.0307595 -1.03867e-22)
(0.924086 0.0255179 -1.15651e-22)
(0.919493 0.0199764 -1.72185e-23)
(0.914718 0.0143317 -2.52256e-22)
(0.909811 0.00878695 -4.83213e-23)
(0.9049 0.00366351 -2.82492e-22)
(0.900378 -0.000588295 3.13758e-22)
(0.896932 -0.00331257 -4.44517e-26)
(0.895327 -0.0039802 -3.85963e-37)
(0.89618 -0.00195832 7.80362e-23)
(0.941371 0.0420197 -8.438e-23)
(0.936305 0.0366548 1.05471e-23)
(0.932256 0.0315798 1.73689e-23)
(0.927988 0.0260246 2.74677e-23)
(0.923773 0.0201743 1.19968e-22)
(0.919428 0.0142244 2.24191e-23)
(0.914941 0.00837617 -2.17209e-22)
(0.910326 0.00289185 -2.62394e-22)
(0.905797 -0.00184788 -2.03607e-27)
(0.901838 -0.00533519 5.87341e-22)
(0.899193 -0.0069293 6.54798e-37)
(0.898571 -0.00621254 6.2304e-23)
(0.900558 -0.00265471 -2.13494e-27)
(0.94442 0.0432144 1.42939e-24)
(0.939648 0.037421 -1.74686e-35)
(0.935858 0.0320662 2.43951e-23)
(0.931896 0.0261492 5.80869e-23)
(0.928049 0.0199266 8.32746e-23)
(0.924147 0.0136078 2.0628e-22)
(0.920145 0.00739923 -1.27975e-22)
(0.915984 0.00154738 -2.72653e-22)
(0.911735 -0.00364485 2.01779e-27)
(0.907686 -0.00773802 5.60761e-22)
(0.904399 -0.0102085 -2.62574e-37)
(0.902625 -0.0104638 5.97416e-26)
(0.903036 -0.00822015 2.03098e-23)
(0.906101 -0.00323992 -1.02101e-22)
(0.947507 0.0441626 -1.92558e-23)
(0.94302 0.0379373 -3.51508e-23)
(0.939458 0.03228 4.34838e-22)
(0.935764 0.0259709 2.64164e-23)
(0.932254 0.0193311 -9.93147e-24)
(0.928769 0.0125896 -1.50123e-23)
(0.925256 0.00597287 1.83459e-23)
(0.921618 -0.000279131 2.68109e-23)
(0.917829 -0.0058955 -2.20484e-22)
(0.91401 -0.0105256 4.70272e-22)
(0.910526 -0.0136988 0)
(0.907995 -0.0149121 1.33691e-22)
(0.907147 -0.0136747 -4.78591e-36)
(0.908576 -0.00990748 -1.24245e-22)
(0.912565 -0.00368601 -1.20022e-22)
(0.950645 0.0448891 -2.25824e-22)
(0.946407 0.0382489 -1.72201e-23)
(0.943033 0.0322819 3.17144e-23)
(0.939563 0.0255675 -1.60353e-35)
(0.936341 0.0184834 -2.17242e-23)
(0.933223 0.0112834 -1.12617e-23)
(0.930161 0.00421887 8.70146e-23)
(0.927045 -0.00246021 -4.50153e-22)
(0.923794 -0.0085033 3.55289e-22)
(0.92041 -0.0136063 2.4932e-22)
(0.917077 -0.0173899 0)
(0.91423 -0.0193836 1.2304e-22)
(0.912516 -0.0191491 -3.71873e-23)
(0.912607 -0.0163636 -7.09417e-22)
(0.914964 -0.0111899 -6.16472e-23)
(0.919683 -0.00397982 3.54212e-28)
(0.95386 0.0454218 -1.47992e-23)
(0.94981 0.0383987 2.12154e-23)
(0.946573 0.0321332 4.28775e-24)
(0.943276 0.0250144 6.98806e-24)
(0.940283 0.0174752 -2.64546e-22)
(0.937467 0.00979747 -4.76074e-23)
(0.934793 0.00226099 -5.07198e-24)
(0.932151 -0.004868 -1.81203e-22)
(0.929436 -0.0113403 3.28728e-22)
(0.926577 -0.0168869 2.82629e-23)
(0.923623 -0.0211859 -3.14114e-36)
(0.920826 -0.0238523 4.28712e-23)
(0.918675 -0.0244528 1.48115e-26)
(0.917806 -0.0226683 -4.51826e-23)
(0.918796 -0.0183918 -1.21014e-22)
(0.921948 -0.0120274 5.86365e-23)
(0.927178 -0.00412566 8.999e-23)
(0.957158 0.0458033 -3.14887e-22)
(0.953261 0.0384329 4.60765e-23)
(0.950071 0.0318919 -5.32622e-23)
(0.946894 0.0243828 0)
(0.944067 0.0163927 -1.98841e-23)
(0.941481 0.00823233 -1.26469e-36)
(0.939116 0.000213047 -1.63079e-23)
(0.936872 -0.00737725 -6.96349e-23)
(0.93464 -0.0142831 -2.96432e-22)
(0.932311 -0.0202501 2.63637e-22)
(0.929845 -0.0250049 2.64591e-22)
(0.927346 -0.0282259 -1.89702e-22)
(0.92513 -0.0295483 -1.50988e-26)
(0.92371 -0.028623 -5.04753e-23)
(0.923678 -0.0253 -5.01931e-22)
(0.925486 -0.0197024 7.37763e-22)
(0.929266 -0.0124326 6.98581e-23)
(0.934795 -0.00414298 -8.00483e-23)
(0.960502 0.046078 7.15863e-22)
(0.956733 0.0384151 -6.19695e-23)
(0.953531 0.0316173 7.18595e-23)
(0.950417 0.0237399 1.41892e-35)
(0.947689 0.0153136 -2.91994e-23)
(0.945261 0.00667892 8.30318e-24)
(0.94312 -0.00182308 -3.79176e-23)
(0.941188 -0.00987665 -1.87854e-22)
(0.939355 -0.0172147 1.31765e-22)
(0.937503 -0.0235875 3.9761e-22)
(0.93554 -0.0287508 -2.24679e-22)
(0.933467 -0.0324417 8.42298e-22)
(0.931449 -0.0343556 -3.93125e-22)
(0.929848 -0.0341846 -1.33416e-22)
(0.929173 -0.0317118 -1.16836e-22)
(0.929937 -0.0269826 1.37236e-22)
(0.932446 -0.020323 -5.50418e-22)
(0.936681 -0.0124644 7.16228e-24)
(0.942334 -0.00406188 3.39079e-28)
(0.96381 0.0462743 1.47803e-22)
(0.960197 0.0383952 -3.58533e-23)
(0.956956 0.03137 3.26781e-22)
(0.953849 0.0231487 -1.45186e-36)
(0.951153 0.0143106 3.38149e-23)
(0.948807 0.00521595 1.06471e-24)
(0.946811 -0.0037583 1.72149e-25)
(0.945099 -0.0122701 -2.27271e-23)
(0.943573 -0.0200353 -6.9527e-23)
(0.942114 -0.0268008 3.8852e-22)
(0.940608 -0.0323402 -2.02116e-22)
(0.938993 -0.0364329 7.80592e-22)
(0.937322 -0.0388369 3.69737e-23)
(0.935811 -0.0392907 -3.99677e-22)
(0.934848 -0.0375852 -1.13139e-22)
(0.93491 -0.0336662 -2.78287e-27)
(0.936397 -0.0277631 1.49646e-22)
(0.939476 -0.0203535 -8.22496e-23)
(0.94401 -0.0122128 -2.61465e-23)
(0.949648 -0.00391626 5.01835e-23)
(0.966932 0.0464006 -1.21832e-21)
(0.963593 0.038412 1.14338e-22)
(0.960339 0.0311996 -5.86148e-22)
(0.957197 0.0226728 -1.90013e-36)
(0.954466 0.0134479 -2.37246e-24)
(0.952132 0.00391886 4.77337e-28)
(0.950201 -0.00551475 1.43428e-23)
(0.948622 -0.0144763 -1.48353e-22)
(0.947311 -0.0226615 2.83925e-23)
(0.946151 -0.0298092 3.39017e-22)
(0.945024 -0.0357016 1.68377e-22)
(0.943835 -0.040149 -5.3603e-22)
(0.942563 -0.0429602 3.72295e-22)
(0.941308 -0.0439311 -8.40965e-22)
(0.940331 -0.0428768 -1.91617e-22)
(0.94002 -0.039717 2.9691e-27)
(0.940784 -0.0345579 1.42593e-22)
(0.942902 -0.0277804 -4.43987e-22)
(0.946422 -0.0199401 1.42396e-35)
(0.951124 -0.0117779 2.34931e-22)
(0.956655 -0.00373743 -5.20757e-24)
(0.969625 0.0464755 5.05256e-24)
(0.966788 0.0384733 2.68402e-23)
(0.963629 0.0311544 -9.26314e-23)
(0.960456 0.0223653 0)
(0.957639 0.0127923 -1.83055e-22)
(0.955245 0.00284764 2.17827e-23)
(0.953311 -0.00702388 0)
(0.95178 -0.016427 -1.15619e-22)
(0.950598 -0.0250255 8.29852e-23)
(0.949646 -0.0325484 1.10988e-23)
(0.94881 -0.0387796 -1.70954e-37)
(0.94798 -0.0435507 6.57507e-23)
(0.947093 -0.0467109 -3.09763e-23)
(0.946169 -0.0481088 4.25845e-22)
(0.945357 -0.0476027 -6.92163e-22)
(0.94494 -0.0451095 1.42356e-23)
(0.945276 -0.04068 4.38317e-23)
(0.946685 -0.0345616 -8.24497e-23)
(0.949338 -0.0272294 5.19517e-23)
(0.953179 -0.0192428 5.30186e-23)
(0.957949 -0.0112521 -2.44341e-23)
(0.963324 -0.00354959 -2.59224e-22)
(0.971636 0.0464973 -2.28183e-23)
(0.969537 0.0386006 -5.34339e-23)
(0.966709 0.0312468 5.5198e-22)
(0.963588 0.0222818 -4.52883e-37)
(0.960674 0.0123956 3.18926e-22)
(0.958163 0.00207023 -5.19239e-23)
(0.95615 -0.00823301 1.7746e-23)
(0.954599 -0.018062 -1.50041e-23)
(0.953468 -0.0270725 -2.93009e-28)
(0.952642 -0.0349681 2.98562e-22)
(0.952011 -0.0415327 -1.53729e-36)
(0.951463 -0.0466109 3.21189e-23)
(0.950912 -0.0500835 -2.81525e-23)
(0.950327 -0.051844 5.73578e-22)
(0.949774 -0.0517967 -3.57117e-22)
(0.949437 -0.049881 4.76108e-22)
(0.949595 -0.0461178 -2.88048e-22)
(0.950554 -0.0406796 -8.14525e-23)
(0.952543 -0.0339114 -2.86326e-27)
(0.955628 -0.0263191 -1.92051e-22)
(0.95969 -0.0184069 9.89101e-23)
(0.964462 -0.0107073 -2.23096e-22)
(0.969664 -0.00336816 1.36843e-24)
(0.972751 0.0465603 -6.83929e-23)
(0.97155 0.0387459 -3.33404e-24)
(0.969355 0.0315073 9.12342e-23)
(0.966496 0.0224349 -1.38608e-36)
(0.963545 0.0123175 -1.13916e-23)
(0.960896 0.00163186 -3.94682e-23)
(0.958744 -0.00907402 1.34465e-23)
(0.957107 -0.0193366 -9.10162e-23)
(0.955955 -0.0287555 -1.45266e-22)
(0.955181 -0.0370288 3.17333e-22)
(0.95468 -0.0439299 -1.61978e-36)
(0.954339 -0.0493125 3.36732e-22)
(0.95406 -0.0530796 -1.54713e-22)
(0.953785 -0.0551624 -5.23238e-23)
(0.953521 -0.0555083 1.86121e-23)
(0.953374 -0.0540883 -1.77356e-22)
(0.953541 -0.0509226 5.16321e-23)
(0.954275 -0.0461318 -1.4056e-22)
(0.955819 -0.0399785 3.17346e-27)
(0.958308 -0.0328525 5.56013e-23)
(0.961733 -0.0252365 4.9613e-23)
(0.965937 -0.0175437 -3.03303e-23)
(0.970673 -0.0101899 -2.12096e-22)
(0.975699 -0.00320067 1.29047e-22)
(0.973235 0.046712 -1.6486e-25)
(0.972566 0.0389822 1.4173e-24)
(0.97129 0.0318526 4.79564e-23)
(0.968983 0.0228618 -1.31302e-36)
(0.966176 0.0125699 -3.10317e-22)
(0.963429 0.00159377 1.45865e-22)
(0.961106 -0.00951049 -4.50802e-23)
(0.959327 -0.0201935 -7.53156e-24)
(0.958088 -0.0300338 4.67548e-24)
(0.957302 -0.0386967 2.17471e-22)
(0.956866 -0.0459481 0)
(0.956665 -0.0516436 5.86096e-23)
(0.956598 -0.0557046 1.57474e-35)
(0.956587 -0.058091 -8.59595e-23)
(0.956605 -0.0587883 2.38763e-22)
(0.956699 -0.0578018 -3.82884e-22)
(0.956993 -0.055165 4.68035e-22)
(0.957682 -0.0509759 -5.70001e-22)
(0.958979 -0.0454317 -7.10161e-23)
(0.961052 -0.0388442 5.62094e-23)
(0.96396 -0.0316005 4.5545e-23)
(0.967642 -0.0241232 -4.89033e-22)
(0.971931 -0.0167245 1.88365e-22)
(0.976607 -0.00972368 4.19794e-24)
(0.981456 -0.00304903 8.79907e-24)
(0.973327 0.0470625 -4.3087e-22)
(0.972776 0.0392675 -1.23388e-22)
(0.972255 0.0323737 -5.42046e-22)
(0.970783 0.0234497 4.10559e-23)
(0.968407 0.0131988 3.11972e-23)
(0.965703 0.0019682 1.37396e-23)
(0.963231 -0.00948421 -4.34086e-23)
(0.961272 -0.0205971 -6.14385e-23)
(0.959891 -0.0308692 1.43527e-23)
(0.959039 -0.0399436 1.57646e-22)
(0.95861 -0.0475668 3.37221e-37)
(0.958495 -0.0535962 1.56414e-22)
(0.958584 -0.0579639 1.26111e-22)
(0.958791 -0.0606542 -7.04112e-22)
(0.959065 -0.0616833 1.3759e-22)
(0.959413 -0.0610892 5.55447e-23)
(0.959902 -0.0589261 4.75728e-22)
(0.960668 -0.0552864 -4.513e-22)
(0.961883 -0.0503286 -7.30582e-23)
(0.963709 -0.044295 9.90467e-23)
(0.966244 -0.0375077 -5.15973e-23)
(0.969493 -0.0303164 -3.26322e-22)
(0.973364 -0.0230682 4.52514e-22)
(0.977691 -0.0159845 7.93144e-23)
(0.982293 -0.00931285 -1.10985e-22)
(0.986981 -0.00291801 0)
(0.973556 0.0474171 -3.39316e-22)
(0.972612 0.0398093 -7.86829e-23)
(0.972301 0.0328864 1.45198e-25)
(0.971617 0.0243091 -1.37239e-28)
(0.969994 0.0140747 -4.09138e-23)
(0.967594 0.00280691 -6.72979e-23)
(0.965077 -0.00898138 8.0506e-23)
(0.962941 -0.0204978 -3.42236e-23)
(0.961385 -0.0312284 -9.77222e-24)
(0.960416 -0.0407385 8.03052e-24)
(0.959949 -0.0487679 -1.08786e-36)
(0.959871 -0.0551612 -5.32212e-23)
(0.960072 -0.0598617 4.28884e-23)
(0.960454 -0.0628708 -1.65999e-23)
(0.960954 -0.0642314 -6.09741e-23)
(0.961548 -0.0640096 9.62541e-24)
(0.962264 -0.0622821 8.04741e-23)
(0.963185 -0.0591465 7.23431e-23)
(0.964439 -0.0547399 -3.19231e-36)
(0.966165 -0.0492575 1.57594e-22)
(0.968469 -0.0429566 -4.08478e-22)
(0.971397 -0.0361388 -3.38737e-22)
(0.974913 -0.0290999 -1.06661e-26)
(0.978912 -0.022114 4.03473e-22)
(0.98324 -0.0153325 -1.21837e-22)
(0.987761 -0.00894661 2.10354e-22)
(0.992313 -0.00283339 7.95863e-25)
(0.974113 0.0477919 4.46765e-24)
(0.972726 0.040342 6.96339e-22)
(0.972004 0.0336826 1.78349e-22)
(0.97149 0.025117 -4.25741e-23)
(0.970681 0.0153143 3.41037e-22)
(0.968889 0.00397779 -1.70782e-24)
(0.966554 -0.00794972 4.76296e-23)
(0.964311 -0.0198807 -4.57199e-24)
(0.962573 -0.0310667 -3.18001e-24)
(0.961454 -0.0410584 1.84034e-22)
(0.960907 -0.0495298 -3.71411e-40)
(0.960828 -0.0563294 -6.32254e-23)
(0.961102 -0.061398 -7.92455e-27)
(0.961625 -0.0647542 1.59226e-22)
(0.962321 -0.0664609 -3.16814e-22)
(0.963145 -0.0666094 3.61529e-22)
(0.964097 -0.0652974 1.32937e-23)
(0.965219 -0.0626329 3.71521e-22)
(0.966597 -0.0587439 7.30524e-23)
(0.968338 -0.0537938 -4.91214e-22)
(0.970539 -0.047992 -3.6922e-22)
(0.973262 -0.041586 3.27754e-22)
(0.976512 -0.0348411 1.23375e-26)
(0.980226 -0.0279978 1.70109e-22)
(0.984301 -0.0212685 2.51704e-22)
(0.988607 -0.0147592 4.37777e-36)
(0.993031 -0.00861517 -1.12262e-22)
(0.997446 -0.00275331 0)
(0.975157 0.0481409 1.71954e-22)
(0.973275 0.0408821 4.7411e-24)
(0.972051 0.0344444 5.71763e-22)
(0.970997 0.0262414 8.74715e-22)
(0.97036 0.0164856 2.68174e-22)
(0.969374 0.00560288 1.10794e-24)
(0.967482 -0.00650561 1.46993e-23)
(0.965318 -0.0186973 1.87163e-23)
(0.963442 -0.0303707 -3.31487e-23)
(0.962157 -0.040863 1.31059e-22)
(0.961501 -0.0498346 0)
(0.961388 -0.0570864 1.57612e-22)
(0.961704 -0.0625701 -1.23541e-22)
(0.96234 -0.0663105 1.72622e-23)
(0.963207 -0.0683908 -4.33344e-23)
(0.964245 -0.0689219 7.22999e-23)
(0.965431 -0.0680215 -2.74492e-22)
(0.966778 -0.0658092 2.73578e-22)
(0.968335 -0.0624117 7.1763e-23)
(0.970177 -0.0579726 2.00725e-22)
(0.972381 -0.0526653 2.81315e-22)
(0.97501 -0.0466947 -1.97805e-22)
(0.978089 -0.040285 -6.97918e-22)
(0.981588 -0.0336616 1.81527e-22)
(0.985439 -0.0270177 1.13572e-23)
(0.98955 -0.0205183 -4.19733e-22)
(0.993808 -0.0142455 2.8563e-24)
(0.99812 -0.00831279 6.12743e-23)
(1.00241 -0.00265535 3.76546e-23)
(0.976771 0.0483719 -1.64439e-22)
(0.97447 0.0414084 -1.5476e-22)
(0.972582 0.0352012 -4.47361e-22)
(0.970934 0.0273143 2.84394e-22)
(0.96966 0.0179854 5.10702e-22)
(0.968838 0.00717894 6.6561e-23)
(0.967699 -0.00453796 -1.56188e-22)
(0.965818 -0.0170341 4.64191e-24)
(0.963943 -0.0290962 6.44418e-24)
(0.96252 -0.0401422 1.42302e-22)
(0.961736 -0.04965 -1.20099e-38)
(0.961564 -0.0574184 -2.02558e-22)
(0.961899 -0.0633687 1.78034e-22)
(0.962624 -0.0675412 -1.83726e-22)
(0.963641 -0.0700306 3.88612e-22)
(0.964879 -0.0709687 -2.76852e-22)
(0.966294 -0.0704891 8.27004e-23)
(0.967877 -0.0687241 -4.42508e-23)
(0.969648 -0.0658024 -5.37974e-23)
(0.971652 -0.0618565 5.3239e-22)
(0.973944 -0.0570342 -2.18846e-22)
(0.976576 -0.0515059 -1.02696e-21)
(0.979578 -0.0454615 -8.27979e-23)
(0.982942 -0.0390986 2.57482e-22)
(0.986625 -0.0326067 1.22755e-23)
(0.990562 -0.0261425 2.53334e-27)
(0.994667 -0.019841 2.30465e-22)
(0.998853 -0.0137701 9.03157e-24)
(1.00305 -0.00802862 1.89455e-23)
(1.00719 -0.0025606 1.08733e-24)
(0.97901 0.0484052 -4.83668e-22)
(0.976431 0.0418071 -2.89851e-22)
(0.973837 0.0359659 -8.58471e-23)
(0.971409 0.0283739 6.35487e-23)
(0.969466 0.019416 -7.17367e-22)
(0.967913 0.0090563 -4.60459e-22)
(0.966934 -0.00254194 1.78352e-24)
(0.965687 -0.014815 -6.82075e-23)
(0.963976 -0.0273003 -7.04444e-23)
(0.962509 -0.0388514 5.79913e-24)
(0.961613 -0.048969 1.72291e-36)
(0.961366 -0.0573014 4.03918e-23)
(0.961699 -0.0637837 1.0026e-22)
(0.962494 -0.0684397 -1.0768e-22)
(0.963645 -0.071384 -4.77806e-23)
(0.965068 -0.0727607 -1.733e-22)
(0.966705 -0.0727223 3.514e-22)
(0.968529 -0.0714111 -3.96725e-22)
(0.970536 -0.0689608 -1.28952e-37)
(0.972747 -0.0654973 4.88603e-22)
(0.975192 -0.0611514 1.82232e-23)
(0.977909 -0.0560665 -2.99416e-23)
(0.980921 -0.0504028 -2.1359e-22)
(0.984231 -0.0443332 8.56776e-22)
(0.987813 -0.0380309 -6.6898e-22)
(0.991623 -0.0316569 -3.00643e-27)
(0.995594 -0.0253449 -2.01626e-24)
(0.999658 -0.019211 -1.37406e-22)
(1.00375 -0.0133148 -1.21509e-23)
(1.00781 -0.00775026 -1.75222e-22)
(1.01181 -0.00246666 -4.3628e-23)
(0.981867 0.0481508 -1.706e-23)
(0.979208 0.0419865 -3.51177e-22)
(0.975961 0.0366202 3.77653e-22)
(0.972698 0.0294806 2.21295e-22)
(0.969835 0.0208251 -4.97656e-22)
(0.967556 0.0108596 -2.38875e-22)
(0.965785 -0.000327485 1.57163e-22)
(0.964682 -0.0124301 2.87575e-22)
(0.963427 -0.0249431 3.81772e-23)
(0.962057 -0.0370325 1.15549e-23)
(0.961105 -0.0477443 1.09563e-37)
(0.960789 -0.0567288 8.10614e-23)
(0.961105 -0.0637955 -2.77769e-22)
(0.961956 -0.0690001 1.53013e-22)
(0.963228 -0.0724457 8.96027e-23)
(0.964826 -0.0743024 1.73553e-23)
(0.96668 -0.0747318 -1.73223e-22)
(0.968745 -0.073891 -2.76252e-23)
(0.971002 -0.0719174 4.99382e-23)
(0.97345 -0.0689346 2.94082e-23)
(0.976098 -0.0650608 -6.15861e-23)
(0.978965 -0.0604196 -1.80962e-22)
(0.982067 -0.0551466 5.28789e-22)
(0.985403 -0.0493915 -7.85038e-22)
(0.988957 -0.0433116 2.97406e-23)
(0.992697 -0.0370607 7.25454e-23)
(0.996575 -0.0307822 -2.19083e-24)
(1.00053 -0.0245948 0)
(1.00452 -0.0186038 7.555e-23)
(1.0085 -0.0128646 1.94476e-23)
(1.01242 -0.00746897 1.65198e-23)
(1.01626 -0.00236918 3.22467e-23)
(0.985406 0.0475729 -8.8638e-23)
(0.982755 0.0418402 -5.26851e-22)
(0.979019 0.0370787 -1.26178e-22)
(0.974985 0.0305115 9.93095e-22)
(0.971081 0.0223341 8.48028e-22)
(0.967757 0.0126323 4.72196e-22)
(0.965232 0.00182689 2.1135e-22)
(0.963326 -0.00995595 6.55283e-23)
(0.962164 -0.0222735 2.37971e-22)
(0.961058 -0.0346541 -8.64118e-24)
(0.960171 -0.0460232 -1.23774e-22)
(0.959815 -0.055652 -7.3802e-23)
(0.960116 -0.0633994 -2.69585e-23)
(0.961012 -0.0692018 1.19452e-22)
(0.962394 -0.0732121 1.19168e-23)
(0.964159 -0.0755888 -5.6437e-23)
(0.966223 -0.0765219 -2.58305e-22)
(0.96853 -0.0761737 2.14469e-22)
(0.971046 -0.0746911 -3.98071e-22)
(0.973751 -0.0721952 -3.63068e-22)
(0.97664 -0.0687962 1.20056e-22)
(0.979712 -0.064602 -2.05331e-22)
(0.98297 -0.0597285 8.48883e-22)
(0.986408 -0.0543045 -6.37399e-22)
(0.990007 -0.0484712 8.2389e-23)
(0.993745 -0.0423741 8.07302e-23)
(0.997581 -0.036156 -6.91851e-22)
(1.00147 -0.0299493 0)
(1.00538 -0.0238634 7.47584e-23)
(1.00927 -0.017998 4.09122e-22)
(1.0131 -0.0124063 -2.44555e-23)
(1.01685 -0.00717818 -6.82657e-23)
(1.02053 -0.00226551 8.58337e-25)
(0.989471 0.0466294 -3.66556e-22)
(0.986959 0.0412902 1.10381e-22)
(0.982964 0.0372281 -3.40685e-22)
(0.97836 0.031385 4.52381e-22)
(0.973435 0.0238211 5.65317e-22)
(0.968866 0.0145693 8.40395e-23)
(0.965195 0.00393802 -3.19425e-22)
(0.962542 -0.00750341 -1.19488e-22)
(0.960612 -0.0196377 9.33522e-24)
(0.959484 -0.0319112 1.99336e-22)
(0.958723 -0.0437303 3.09707e-27)
(0.958421 -0.0541233 2.81209e-23)
(0.958718 -0.062546 1.36637e-22)
(0.959657 -0.0690454 -2.48033e-23)
(0.961142 -0.0736626 -3.88983e-24)
(0.963067 -0.076617 1.71357e-22)
(0.965336 -0.0780873 -2.0202e-23)
(0.967884 -0.0782625 -1.97219e-23)
(0.970663 -0.0772901 2.05458e-26)
(0.973642 -0.0752954 1.32962e-23)
(0.976799 -0.0723805 5.93503e-23)
(0.980119 -0.0686421 2.88414e-24)
(0.983591 -0.0641789 -9.5202e-22)
(0.987197 -0.059102 9.5109e-22)
(0.990915 -0.0535364 -7.72519e-23)
(0.994721 -0.047618 3.73697e-37)
(0.998579 -0.0414875 1.87062e-23)
(1.00245 -0.0352813 -5.90472e-23)
(1.00631 -0.0291256 -1.1079e-23)
(1.01012 -0.023125 -1.00825e-26)
(1.01387 -0.0173759 -1.79462e-22)
(1.01754 -0.0119291 -1.10282e-23)
(1.02111 -0.00687233 -1.77224e-22)
(1.0246 -0.00215603 1.34073e-23)
(0.993785 0.0452855 1.40558e-22)
(0.991718 0.0403107 -3.92627e-23)
(0.987664 0.0369753 -9.87946e-22)
(0.982777 0.0319739 9.92137e-22)
(0.977032 0.0252186 9.76703e-23)
(0.971176 0.0165559 -1.00978e-21)
(0.966056 0.00628402 -6.00603e-23)
(0.9622 -0.00510584 6.09926e-22)
(0.95957 -0.0169625 2.21972e-22)
(0.957732 -0.029181 -1.16329e-22)
(0.956793 -0.0411118 3.19925e-22)
(0.956541 -0.0520306 1.05284e-22)
(0.956897 -0.061291 1.69743e-23)
(0.957879 -0.0684802 -1.29578e-22)
(0.959466 -0.073801 -1.91818e-23)
(0.961545 -0.0773673 -2.5483e-22)
(0.964017 -0.0794253 -1.98523e-24)
(0.966803 -0.0801513 1.49123e-23)
(0.969848 -0.0797166 -4.63039e-36)
(0.973109 -0.0782414 -5.27174e-23)
(0.976555 -0.0758274 4.79209e-22)
(0.980158 -0.0725591 -4.90833e-23)
(0.983891 -0.068522 -2.20472e-23)
(0.987727 -0.0638102 5.58944e-22)
(0.991632 -0.0585338 9.06485e-22)
(0.995577 -0.0528177 -9.47416e-23)
(0.999526 -0.0467981 -2.44958e-23)
(1.00344 -0.0406147 -6.92205e-22)
(1.0073 -0.0344015 -3.74381e-22)
(1.01108 -0.0282817 1.23106e-26)
(1.01475 -0.0223579 -4.73764e-23)
(1.01833 -0.0167228 2.63187e-22)
(1.0218 -0.0114244 -1.05216e-36)
(1.02518 -0.00654762 -8.48748e-23)
(1.02847 -0.00204242 0)
(0.999293 0.0431217 1.15445e-23)
(0.996738 0.0388819 8.04213e-23)
(0.992916 0.0362716 7.20567e-22)
(0.988072 0.0321658 -1.26148e-22)
(0.981842 0.0263892 2.31722e-23)
(0.974882 0.0185465 6.01908e-23)
(0.96818 0.00876398 3.87337e-22)
(0.962699 -0.00240979 9.23393e-22)
(0.958865 -0.0143467 1.21521e-21)
(0.956414 -0.0263779 -8.82073e-22)
(0.954801 -0.0383867 -5.37743e-22)
(0.954239 -0.0496649 -3.72145e-23)
(0.954609 -0.0594964 2.45555e-23)
(0.955672 -0.067566 5.52012e-23)
(0.957353 -0.0735759 1.2529e-23)
(0.959586 -0.0778455 6.11908e-23)
(0.962258 -0.0805165 1.94129e-22)
(0.965282 -0.0818375 -4.23748e-24)
(0.968593 -0.0819633 -1.02352e-22)
(0.972143 -0.0810339 -6.92111e-24)
(0.975891 -0.0791408 -8.07755e-23)
(0.979801 -0.076364 -4.81612e-22)
(0.983835 -0.0727738 9.55193e-22)
(0.987952 -0.0684499 1.1664e-24)
(0.992109 -0.0634868 -8.29897e-23)
(0.996265 -0.0579981 -1.0066e-22)
(1.00038 -0.0521133 -2.81536e-23)
(1.0044 -0.0459728 -1.77876e-24)
(1.00832 -0.0397181 7.25885e-23)
(1.01211 -0.0334837 -7.372e-22)
(1.01575 -0.0273923 -5.64368e-23)
(1.01925 -0.0215438 3.78205e-23)
(1.02263 -0.0160269 4.09733e-22)
(1.02589 -0.0108864 -5.86481e-24)
(1.02905 -0.00620177 5.97064e-23)
(1.03212 -0.00192316 -9.89818e-24)
(1.00607 0.0398135 -2.03921e-23)
(1.00313 0.0365827 9.14517e-23)
(0.998497 0.0350695 -2.58597e-22)
(0.993996 0.0318906 1.04447e-22)
(0.987689 0.0271968 4.68433e-22)
(0.979997 0.0203999 -7.28666e-22)
(0.971837 0.0113598 2.73295e-22)
(0.964479 0.000507546 -1.29749e-22)
(0.958902 -0.0113898 -7.47551e-22)
(0.955306 -0.0236308 -1.9737e-22)
(0.953196 -0.0355671 6.22855e-22)
(0.951962 -0.0470797 9.1118e-23)
(0.951936 -0.0574844 2.63567e-22)
(0.95301 -0.0661437 -1.12176e-22)
(0.954802 -0.0730522 -3.74359e-22)
(0.957179 -0.078 2.64837e-23)
(0.960051 -0.0813689 1.03838e-22)
(0.963311 -0.0833012 8.54958e-24)
(0.966889 -0.0840271 2.58768e-22)
(0.97073 -0.0836639 5.79552e-23)
(0.974789 -0.0823195 -4.36844e-22)
(0.979024 -0.0800583 -1.56456e-22)
(0.983389 -0.0769428 -1.35494e-21)
(0.987832 -0.0730349 -6.87261e-22)
(0.992297 -0.0684147 1.44556e-23)
(0.996731 -0.0631823 8.11097e-22)
(1.00108 -0.0574592 1.01276e-21)
(1.00529 -0.0513836 9.77069e-22)
(1.00934 -0.0451025 6.16098e-22)
(1.01319 -0.038762 -3.06533e-22)
(1.01685 -0.032499 -1.34684e-22)
(1.02032 -0.0264355 4.73893e-23)
(1.02361 -0.0206678 -1.03535e-26)
(1.02675 -0.01528 2.49527e-22)
(1.02977 -0.0103117 -1.94104e-36)
(1.0327 -0.0058341 -1.09369e-22)
(1.03555 -0.00179549 2.15409e-28)
(1.0127 0.0358818 -1.36519e-22)
(1.01082 0.033022 2.09402e-22)
(1.0056 0.0329968 1.25074e-22)
(1.00027 0.0310728 2.83881e-25)
(0.994276 0.0275463 5.93404e-23)
(0.986345 0.0219561 -4.30929e-22)
(0.977109 0.0139386 -3.25212e-23)
(0.967899 0.00365917 6.52742e-22)
(0.960184 -0.00813449 -1.65086e-21)
(0.954809 -0.0205249 5.31817e-22)
(0.951669 -0.0327976 9.84986e-22)
(0.950061 -0.0443635 1.26961e-22)
(0.949359 -0.0551528 -4.96885e-22)
(0.949981 -0.0645631 -2.49871e-23)
(0.951801 -0.0720545 7.68083e-23)
(0.954323 -0.0779004 1.43747e-22)
(0.957384 -0.0819302 -2.21728e-22)
(0.960883 -0.0845523 -2.5939e-22)
(0.964726 -0.0858865 -3.7983e-22)
(0.968859 -0.0861272 2.05146e-23)
(0.973232 -0.085352 4.91978e-23)
(0.977803 -0.0836385 7.31705e-22)
(0.98252 -0.0810281 1.40689e-22)
(0.987324 -0.0775717 -3.17282e-22)
(0.992148 -0.07333 5.59037e-23)
(0.996923 -0.0683893 -1.31246e-35)
(1.00158 -0.0628598 -6.46716e-23)
(1.00606 -0.0568755 8.63148e-23)
(1.01031 -0.0505862 1.34715e-23)
(1.01431 -0.0441479 -1.20639e-22)
(1.01804 -0.0377134 -7.61472e-22)
(1.02151 -0.0314219 1.46031e-22)
(1.02475 -0.0253929 1.28882e-26)
(1.02779 -0.019719 1.70762e-23)
(1.03067 -0.0144771 -1.3675e-22)
(1.03344 -0.0096988 3.5511e-23)
(1.03612 -0.0054453 -1.77372e-23)
(1.03873 -0.00166171 2.11913e-23)
(1.01905 0.0316028 0)
(1.01807 0.0287813 1.53983e-23)
(1.01389 0.0296562 -1.20193e-21)
(1.00818 0.0294546 1.9369e-22)
(1.00126 0.0273264 -2.18789e-22)
(0.993588 0.0230924 -1.61109e-22)
(0.983847 0.0163221 -2.91329e-22)
(0.973136 0.00693884 -7.82534e-22)
(0.963167 -0.00453415 -6.62162e-22)
(0.955465 -0.0170652 -3.72092e-22)
(0.950598 -0.0296734 -5.61378e-22)
(0.948119 -0.0416945 -1.83699e-22)
(0.947161 -0.0526501 -2.86595e-22)
(0.947109 -0.0625723 7.66249e-24)
(0.948444 -0.0709556 7.1698e-22)
(0.951019 -0.0773607 4.74784e-22)
(0.954259 -0.0822753 2.29174e-22)
(0.957984 -0.0855373 3.86749e-23)
(0.962098 -0.0875533 4.14754e-23)
(0.966519 -0.0883995 -2.16019e-23)
(0.971207 -0.088232 -5.17023e-37)
(0.976115 -0.0870896 -3.02009e-22)
(0.981197 -0.0850232 -3.32192e-22)
(0.986388 -0.082057 4.18922e-22)
(0.991611 -0.0782379 5.59233e-22)
(0.996784 -0.0736319 -8.69155e-22)
(1.00182 -0.068336 -4.33042e-22)
(1.00664 -0.0624761 -7.9653e-22)
(1.01119 -0.0562021 2.72921e-22)
(1.01541 -0.0496781 4.57352e-22)
(1.01929 -0.0430718 4.64174e-23)
(1.02283 -0.0365425 8.26487e-22)
(1.02606 -0.0302299 -7.95515e-22)
(1.02903 -0.0242509 1.09574e-23)
(1.03178 -0.0186909 0)
(1.03438 -0.0136162 2.16466e-22)
(1.03687 -0.00904881 -1.46417e-22)
(1.03929 -0.0050376 7.74174e-23)
(1.04166 -0.00152338 2.74481e-23)
(1.0251 0.0271126 -2.5834e-25)
(1.0248 0.024231 -1.63986e-22)
(1.02153 0.0255577 1.06699e-21)
(1.01729 0.0265509 5.11591e-27)
(1.01006 0.0264294 1.46723e-22)
(1.00132 0.0236463 -3.13681e-22)
(0.991689 0.0183636 2.29463e-22)
(0.9801 0.0101567 -4.49032e-22)
(0.968139 -0.000651097 -2.37167e-22)
(0.957817 -0.0131708 -2.41736e-22)
(0.950536 -0.0261681 -1.43913e-23)
(0.946469 -0.0386906 -2.68406e-22)
(0.944826 -0.0501999 -2.13368e-23)
(0.944631 -0.060371 -5.65026e-22)
(0.945297 -0.0693679 -1.00533e-22)
(0.947368 -0.0767686 -3.18238e-22)
(0.950683 -0.0822116 -3.11534e-22)
(0.954621 -0.0863375 -5.52506e-22)
(0.958989 -0.0889713 4.68758e-23)
(0.963704 -0.0904934 5.24241e-22)
(0.968699 -0.090931 5.3425e-23)
(0.973945 -0.090402 -4.58211e-22)
(0.979394 -0.0889091 -5.52373e-22)
(0.984986 -0.0864812 1.12396e-22)
(0.990638 -0.0831333 3.89987e-23)
(0.996258 -0.0789151 1.1547e-22)
(1.00174 -0.0739026 1.41605e-22)
(1.00699 -0.0682099 -1.36666e-35)
(1.01191 -0.0619831 2.49483e-22)
(1.01644 -0.0553916 1.21561e-21)
(1.02056 -0.048617 7.9441e-22)
(1.02424 -0.0418392 -9.32978e-22)
(1.02753 -0.0352222 -3.90168e-22)
(1.03047 -0.0289058 8.08705e-23)
(1.03312 -0.0230005 0)
(1.03556 -0.0175805 -1.2459e-23)
(1.03785 -0.0126988 4.11997e-23)
(1.04005 -0.00836559 1.2766e-22)
(1.04221 -0.00461462 -5.90298e-23)
(1.04433 -0.001382 -1.79855e-28)
(1.03085 0.0225883 2.72334e-23)
(1.03098 0.0195388 -3.11248e-23)
(1.02841 0.0211144 2.31304e-22)
(1.02547 0.0227484 -2.93724e-22)
(1.0201 0.0242493 7.43423e-22)
(1.01111 0.0237097 -8.65635e-23)
(1.00018 0.0198308 3.80151e-22)
(0.988433 0.0131566 2.05898e-22)
(0.975108 0.00332748 6.20317e-22)
(0.962281 -0.00884767 1.97106e-21)
(0.952097 -0.0221689 -4.17115e-23)
(0.945647 -0.0353083 1.27918e-21)
(0.942626 -0.0474478 3.49136e-22)
(0.941941 -0.0582369 1.01463e-22)
(0.942572 -0.0675257 4.52281e-22)
(0.943978 -0.0756197 -1.17392e-22)
(0.946774 -0.0821346 -6.27652e-22)
(0.9508 -0.0867557 1.26217e-22)
(0.955413 -0.0902297 1.86474e-22)
(0.960401 -0.0923481 -6.95803e-23)
(0.965706 -0.0934607 -2.93228e-26)
(0.971277 -0.0935415 4.08076e-23)
(0.977089 -0.0926714 7.11512e-22)
(0.983084 -0.0908204 5.60004e-22)
(0.989184 -0.0880032 -7.25433e-22)
(0.995287 -0.0842328 -1.09647e-26)
(1.00127 -0.0795659 7.82552e-22)
(1.00702 -0.0740959 8.25397e-22)
(1.01241 -0.0679599 5.01243e-23)
(1.01736 -0.0613286 -2.05999e-21)
(1.0218 -0.0543955 -2.04663e-22)
(1.02573 -0.0473614 -1.07033e-21)
(1.02915 -0.0404169 1.31846e-35)
(1.03211 -0.0337305 8.98801e-22)
(1.0347 -0.0274377 8.24672e-22)
(1.037 -0.0216374 -1.29919e-23)
(1.03909 -0.0163893 -2.56663e-27)
(1.04107 -0.0117302 -1.03356e-22)
(1.04298 -0.00765535 -1.65714e-22)
(1.04487 -0.00418086 1.44745e-22)
(1.04674 -0.00123953 -4.00575e-23)
(1.03634 0.0181159 -2.5484e-23)
(1.0367 0.0149249 -3.24816e-24)
(1.03457 0.0165157 9.25828e-23)