/*--------------------------------*- C++ -*----------------------------------*\
| =========                 |                                                 |
| \\      /  F ield         | OpenFOAM: The Open Source CFD Toolbox           |
|  \\    /   O peration     | Version:  2506                                  |
|   \\  /    A nd           | Website:  www.openfoam.com                      |
|    \\/     M anipulation  |                                                 |
\*---------------------------------------------------------------------------*/
FoamFile
{
    version     2.0;
    format      ascii;
    arch        "LSB;label=32;scalar=64";
    class       volScalarField;
    location    "450";
    object      magR;
}
// * * * * * * * * * * * * * * * * * * * * * * * * * * * * * * * * * * * * * //

dimensions      [0 2 -2 0 0 0 0];

internalField   nonuniform List<scalar> 
1340
(
0.000592104
0.000585158
0.000577505
0.000567968
0.000555439
0.000502712
0.00049649
0.000489865
0.000481863
0.000471376
0.000459293
0.000429701
0.000424133
0.000418329
0.000411551
0.000402717
0.000392756
0.00038179
0.000369349
0.000364394
0.000359296
0.000353503
0.000346033
0.000337756
0.000328837
0.000319185
0.000319052
0.000314624
0.000310149
0.000305147
0.000298802
0.00029188
0.000284526
0.000276586
0.000268051
0.000276794
0.000272827
0.00026889
0.000264551
0.000259126
0.000253302
0.000247166
0.00024058
0.000233592
0.000226421
0.000241036
0.000237494
0.000234006
0.00023023
0.000225566
0.000220638
0.000215469
0.000209957
0.000204191
0.000198336
0.000210594
0.000207438
0.000204343
0.000201031
0.000197006
0.000192812
0.000188419
0.000183773
0.000178982
0.000174165
0.000169296
0.00018454
0.000181723
0.000178975
0.000176058
0.000172567
0.00016898
0.000165217
0.000161275
0.000157265
0.000153271
0.000149266
0.000162134
0.000159616
0.00015717
0.000154593
0.000151556
0.000148463
0.000145226
0.000141859
0.000138481
0.000135144
0.000131828
0.000128508
0.000142778
0.000140527
0.000138344
0.000136063
0.000133416
0.000130726
0.000127928
0.000125039
0.000122171
0.000119364
0.000116598
0.00011385
0.000125993
0.00012398
0.000122029
0.000120007
0.00011769
0.00011534
0.000112907
0.000110417
0.000107968
0.000105591
0.000103267
0.000100973
0.000111386
0.000109587
0.000107839
0.000106042
0.000104009
0.000101947
9.98234e-05
9.76664e-05
9.55633e-05
9.35361e-05
9.15676e-05
8.96422e-05
8.77417e-05
9.86356e-05
9.70281e-05
9.54602e-05
9.38605e-05
9.20699e-05
9.02533e-05
8.83939e-05
8.65152e-05
8.46997e-05
8.29607e-05
8.1283e-05
7.96517e-05
7.80535e-05
8.74756e-05
8.6035e-05
8.46326e-05
8.32041e-05
8.1623e-05
8.00184e-05
7.83837e-05
7.67412e-05
7.51636e-05
7.36621e-05
7.22222e-05
7.08331e-05
6.94801e-05
6.81357e-05
7.76818e-05
7.63903e-05
7.51346e-05
7.38571e-05
7.24582e-05
7.10375e-05
6.95944e-05
6.8154e-05
6.67777e-05
6.54735e-05
6.42305e-05
6.30381e-05
6.18825e-05
6.07401e-05
6.90658e-05
6.791e-05
6.6784e-05
6.56393e-05
6.44e-05
6.31392e-05
6.18617e-05
6.05945e-05
5.93874e-05
5.82492e-05
5.71693e-05
5.61396e-05
5.51466e-05
5.41698e-05
6.14716e-05
6.04373e-05
5.94278e-05
5.84007e-05
5.73005e-05
5.61796e-05
5.50452e-05
5.39267e-05
5.28653e-05
5.18672e-05
5.09234e-05
5.00277e-05
4.91688e-05
4.83282e-05
4.74848e-05
5.4766e-05
5.38389e-05
5.29343e-05
5.20131e-05
5.10342e-05
5.00362e-05
4.90281e-05
4.80371e-05
4.71001e-05
4.6221e-05
4.53921e-05
4.46085e-05
4.38604e-05
4.31315e-05
4.24047e-05
4.88338e-05
4.80025e-05
4.71928e-05
4.63665e-05
4.54931e-05
4.4604e-05
4.3707e-05
4.28271e-05
4.19973e-05
4.12199e-05
4.0489e-05
3.98003e-05
3.91447e-05
3.8509e-05
3.78777e-05
4.35779e-05
4.28328e-05
4.21077e-05
4.13671e-05
4.05864e-05
3.97939e-05
3.89948e-05
3.82122e-05
3.74751e-05
3.67857e-05
3.61382e-05
3.55296e-05
3.49531e-05
3.43959e-05
3.38444e-05
3.32877e-05
3.89153e-05
3.82473e-05
3.75977e-05
3.6934e-05
3.62362e-05
3.55289e-05
3.48164e-05
3.41195e-05
3.34634e-05
3.28502e-05
3.22748e-05
3.17357e-05
3.12249e-05
3.07335e-05
3.02504e-05
2.97646e-05
3.41745e-05
3.35929e-05
3.29979e-05
3.23742e-05
3.17426e-05
3.1107e-05
3.04857e-05
2.9901e-05
2.93545e-05
2.88417e-05
2.83618e-05
2.79088e-05
2.74738e-05
2.70476e-05
2.66212e-05
2.61834e-05
3.05527e-05
3.00326e-05
2.94992e-05
2.89414e-05
2.83778e-05
2.78105e-05
2.72561e-05
2.67346e-05
2.62468e-05
2.57893e-05
2.53611e-05
2.49576e-05
2.4571e-05
2.41938e-05
2.38183e-05
2.34344e-05
2.73288e-05
2.68637e-05
2.63859e-05
2.58872e-05
2.53843e-05
2.48781e-05
2.43836e-05
2.39179e-05
2.3482e-05
2.30731e-05
2.26902e-05
2.23301e-05
2.19862e-05
2.16511e-05
2.13191e-05
2.0982e-05
2.44561e-05
2.40404e-05
2.36128e-05
2.31672e-05
2.27186e-05
2.22671e-05
2.1826e-05
2.14101e-05
2.10207e-05
2.06549e-05
2.03123e-05
1.99904e-05
1.96831e-05
1.93852e-05
1.90913e-05
1.8794e-05
1.84856e-05
2.18941e-05
2.15227e-05
2.11404e-05
2.07426e-05
2.03427e-05
1.99405e-05
1.95471e-05
1.91761e-05
1.88281e-05
1.85009e-05
1.81942e-05
1.79061e-05
1.76317e-05
1.73663e-05
1.71053e-05
1.68426e-05
1.65719e-05
1.96075e-05
1.92758e-05
1.89343e-05
1.85797e-05
1.82236e-05
1.78654e-05
1.75151e-05
1.71842e-05
1.68737e-05
1.65811e-05
1.63067e-05
1.60489e-05
1.58034e-05
1.55669e-05
1.53353e-05
1.5103e-05
1.48648e-05
1.75651e-05
1.72689e-05
1.69642e-05
1.66486e-05
1.6332e-05
1.60135e-05
1.57019e-05
1.54075e-05
1.51305e-05
1.4869e-05
1.46238e-05
1.43932e-05
1.4174e-05
1.39632e-05
1.37573e-05
1.35519e-05
1.33421e-05
1.31228e-05
1.57394e-05
1.54753e-05
1.52036e-05
1.49232e-05
1.46423e-05
1.43595e-05
1.40829e-05
1.38213e-05
1.35747e-05
1.33417e-05
1.31227e-05
1.29167e-05
1.27211e-05
1.25332e-05
1.23505e-05
1.2169e-05
1.19844e-05
1.17923e-05
1.41064e-05
1.38713e-05
1.36294e-05
1.33807e-05
1.31318e-05
1.28814e-05
1.26364e-05
1.24045e-05
1.21856e-05
1.19783e-05
1.17831e-05
1.15994e-05
1.14251e-05
1.1258e-05
1.10959e-05
1.09356e-05
1.07734e-05
1.06053e-05
1.2645e-05
1.24358e-05
1.22209e-05
1.20008e-05
1.17809e-05
1.15597e-05
1.13432e-05
1.11382e-05
1.09444e-05
1.07604e-05
1.05869e-05
1.04235e-05
1.02685e-05
1.01202e-05
9.97684e-06
9.83553e-06
9.69309e-06
9.54606e-06
9.39037e-06
1.13364e-05
1.11504e-05
1.096e-05
1.07657e-05
1.05719e-05
1.03769e-05
1.01864e-05
1.00058e-05
9.83482e-06
9.672e-06
9.51825e-06
9.37334e-06
9.23582e-06
9.10456e-06
8.97794e-06
8.85356e-06
8.7288e-06
8.6008e-06
8.46569e-06
1.01641e-05
9.99893e-06
9.83044e-06
9.65951e-06
9.48927e-06
9.31808e-06
9.15096e-06
8.99252e-06
8.84216e-06
8.69874e-06
8.56292e-06
8.43483e-06
8.31321e-06
8.1973e-06
8.08584e-06
7.97673e-06
7.86775e-06
7.75642e-06
7.63935e-06
9.11331e-06
8.96693e-06
8.81819e-06
8.66836e-06
8.51928e-06
8.36953e-06
8.22361e-06
8.08525e-06
7.95375e-06
7.82784e-06
7.70828e-06
7.59539e-06
7.4883e-06
7.38636e-06
7.28861e-06
7.19311e-06
7.09816e-06
7.00165e-06
6.90072e-06
6.79202e-06
8.17108e-06
8.04153e-06
7.91072e-06
7.77976e-06
7.64978e-06
7.51939e-06
7.3927e-06
7.27257e-06
7.15799e-06
7.04793e-06
6.94324e-06
6.84416e-06
6.75018e-06
6.66084e-06
6.5754e-06
6.49222e-06
6.40991e-06
6.32659e-06
6.23968e-06
6.14642e-06
7.32586e-06
7.2114e-06
7.09676e-06
6.98282e-06
6.87001e-06
6.75708e-06
6.64775e-06
6.54406e-06
6.44486e-06
6.34917e-06
6.25784e-06
6.1713e-06
6.08918e-06
6.01125e-06
5.93692e-06
5.86482e-06
5.7937e-06
5.72196e-06
5.64747e-06
5.56797e-06
6.56739e-06
6.46645e-06
6.36636e-06
6.26777e-06
6.17031e-06
6.07314e-06
5.97953e-06
5.8907e-06
5.80536e-06
5.7226e-06
5.64335e-06
5.56815e-06
5.49678e-06
5.42913e-06
5.36472e-06
5.3025e-06
5.24137e-06
5.17996e-06
5.1165e-06
5.04894e-06
4.97472e-06
5.88654e-06
5.79771e-06
5.71071e-06
5.62592e-06
5.54226e-06
5.45928e-06
5.37985e-06
5.30438e-06
5.23147e-06
5.16037e-06
5.09199e-06
5.02702e-06
4.96536e-06
4.90697e-06
4.85151e-06
4.79814e-06
4.74592e-06
4.6936e-06
4.63971e-06
4.58256e-06
4.52001e-06
5.27515e-06
5.19721e-06
5.12193e-06
5.04955e-06
4.97826e-06
4.90805e-06
4.84143e-06
4.77794e-06
4.71616e-06
4.65553e-06
4.59693e-06
4.54115e-06
4.48824e-06
4.43822e-06
4.3908e-06
4.3453e-06
4.30089e-06
4.25661e-06
4.2112e-06
4.16312e-06
4.11062e-06
4.72597e-06
4.65782e-06
4.59307e-06
4.53181e-06
4.47155e-06
4.41289e-06
4.3578e-06
4.30503e-06
4.25317e-06
4.20188e-06
4.15209e-06
4.1046e-06
4.05957e-06
4.01704e-06
3.97682e-06
3.9383e-06
3.90084e-06
3.86358e-06
3.82551e-06
3.78531e-06
3.74154e-06
4.23256e-06
4.17317e-06
4.11789e-06
4.06654e-06
4.01616e-06
3.96794e-06
3.92317e-06
3.87996e-06
3.83695e-06
3.79401e-06
3.75213e-06
3.7121e-06
3.67412e-06
3.6383e-06
3.60447e-06
3.57214e-06
3.54077e-06
3.50964e-06
3.47789e-06
3.44446e-06
3.4081e-06
3.36712e-06
3.78916e-06
3.73759e-06
3.69082e-06
3.64832e-06
3.60677e-06
3.56795e-06
3.53246e-06
3.49768e-06
3.46255e-06
3.42708e-06
3.39229e-06
3.35897e-06
3.32732e-06
3.29745e-06
3.26925e-06
3.2423e-06
3.21619e-06
3.19037e-06
3.16406e-06
3.13637e-06
3.10631e-06
3.07245e-06
3.39061e-06
3.34604e-06
3.30691e-06
3.27226e-06
3.23861e-06
3.2083e-06
3.18107e-06
3.15374e-06
3.12559e-06
3.09681e-06
3.06839e-06
3.04105e-06
3.01499e-06
2.99032e-06
2.96701e-06
2.94474e-06
2.92314e-06
2.90178e-06
2.88002e-06
2.85717e-06
2.83235e-06
2.80436e-06
3.0323e-06
2.99397e-06
2.96172e-06
2.93403e-06
2.90744e-06
2.88483e-06
2.86494e-06
2.84412e-06
2.82219e-06
2.79942e-06
2.77667e-06
2.75461e-06
2.73341e-06
2.71323e-06
2.69405e-06
2.67567e-06
2.65781e-06
2.64013e-06
2.62215e-06
2.60325e-06
2.58271e-06
2.55958e-06
2.71013e-06
2.67737e-06
2.6513e-06
2.62973e-06
2.60948e-06
2.59385e-06
2.58041e-06
2.56528e-06
2.54893e-06
2.53154e-06
2.51379e-06
2.49627e-06
2.47918e-06
2.4627e-06
2.44689e-06
2.43165e-06
2.41681e-06
2.4021e-06
2.38712e-06
2.37139e-06
2.3543e-06
2.33504e-06
2.31266e-06
2.4204e-06
2.39261e-06
2.37209e-06
2.35591e-06
2.34137e-06
2.33206e-06
2.32422e-06
2.31405e-06
2.30273e-06
2.29014e-06
2.27668e-06
2.26293e-06
2.24914e-06
2.23557e-06
2.22239e-06
2.20958e-06
2.19707e-06
2.18466e-06
2.17204e-06
2.1588e-06
2.14446e-06
2.12832e-06
2.10957e-06
2.15983e-06
2.13648e-06
2.12093e-06
2.10945e-06
2.10007e-06
2.09649e-06
2.09344e-06
2.08759e-06
2.0809e-06
2.07251e-06
2.06258e-06
2.05174e-06
2.04043e-06
2.029e-06
2.01774e-06
2.00676e-06
1.99602e-06
1.9854e-06
1.97465e-06
1.9634e-06
1.95126e-06
1.93765e-06
1.92189e-06
1.92547e-06
1.90607e-06
1.89497e-06
1.88758e-06
1.88292e-06
1.8845e-06
1.88544e-06
1.88343e-06
1.88103e-06
1.8762e-06
1.86889e-06
1.86012e-06
1.85052e-06
1.84059e-06
1.83074e-06
1.82114e-06
1.8118e-06
1.80264e-06
1.79342e-06
1.78384e-06
1.77356e-06
1.76212e-06
1.74892e-06
1.71469e-06
1.69881e-06
1.69168e-06
1.68783e-06
1.6875e-06
1.69365e-06
1.69783e-06
1.69932e-06
1.70098e-06
1.69894e-06
1.69332e-06
1.68582e-06
1.67735e-06
1.66849e-06
1.65976e-06
1.65133e-06
1.64324e-06
1.63538e-06
1.62754e-06
1.61948e-06
1.61091e-06
1.60139e-06
1.59046e-06
1.52511e-06
1.51239e-06
1.50876e-06
1.50798e-06
1.51169e-06
1.52183e-06
1.52853e-06
1.53332e-06
1.53878e-06
1.53862e-06
1.53378e-06
1.527e-06
1.51939e-06
1.5115e-06
1.50385e-06
1.49661e-06
1.48976e-06
1.48317e-06
1.47668e-06
1.47004e-06
1.46301e-06
1.45522e-06
1.4463e-06
1.43611e-06
1.3546e-06
1.3447e-06
1.34418e-06
1.34604e-06
1.35356e-06
1.36707e-06
1.37567e-06
1.38375e-06
1.39271e-06
1.39333e-06
1.38853e-06
1.38232e-06
1.37566e-06
1.3689e-06
1.36246e-06
1.35647e-06
1.35086e-06
1.34551e-06
1.34023e-06
1.33484e-06
1.32912e-06
1.32278e-06
1.31547e-06
1.30709e-06
1.20127e-06
1.19389e-06
1.19606e-06
1.2002e-06
1.21132e-06
1.22752e-06
1.23757e-06
1.24922e-06
1.26131e-06
1.26147e-06
1.25622e-06
1.25085e-06
1.24551e-06
1.24007e-06
1.23489e-06
1.23007e-06
1.22554e-06
1.22117e-06
1.21683e-06
1.21235e-06
1.20756e-06
1.2022e-06
1.19598e-06
1.1888e-06
1.06347e-06
1.05834e-06
1.06281e-06
1.06887e-06
1.08336e-06
1.10146e-06
1.1126e-06
1.12812e-06
1.14313e-06
1.14183e-06
1.13611e-06
1.13207e-06
1.12831e-06
1.12409e-06
1.11986e-06
1.11583e-06
1.11195e-06
1.10812e-06
1.10424e-06
1.1002e-06
1.09585e-06
1.09096e-06
1.08528e-06
1.07871e-06
9.39726e-07
9.36678e-07
9.43067e-07
9.50807e-07
9.68443e-07
9.87613e-07
9.99444e-07
1.01857e-06
1.03622e-06
1.03336e-06
1.02778e-06
1.02547e-06
1.02305e-06
1.01948e-06
1.01555e-06
1.01167e-06
1.00784e-06
1.004e-06
1.0001e-06
9.96051e-07
9.91733e-07
9.8693e-07
9.81377e-07
9.75017e-07
8.2867e-07
8.27527e-07
8.35565e-07
8.44917e-07
8.65552e-07
8.85182e-07
8.97493e-07
9.1971e-07
9.39286e-07
9.34773e-07
9.30123e-07
9.29617e-07
9.27772e-07
9.23961e-07
9.19671e-07
9.15442e-07
9.11251e-07
9.07087e-07
9.02905e-07
8.98632e-07
8.94155e-07
8.89261e-07
8.83682e-07
8.77397e-07
7.29162e-07
7.29602e-07
7.38919e-07
7.49864e-07
7.73238e-07
7.92942e-07
8.05957e-07
8.32798e-07
8.54347e-07
8.45227e-07
8.40757e-07
8.42137e-07
8.40207e-07
8.3544e-07
8.30445e-07
8.25763e-07
8.21204e-07
8.16728e-07
8.12312e-07
8.07895e-07
8.03317e-07
7.9838e-07
7.92838e-07
7.86663e-07
7.80116e-07
6.41461e-07
6.43058e-07
6.52875e-07
6.64914e-07
6.8999e-07
7.08575e-07
7.21669e-07
7.5524e-07
7.83249e-07
7.65447e-07
7.58413e-07
7.6222e-07
7.60606e-07
7.54901e-07
7.49299e-07
7.4438e-07
7.39661e-07
7.35009e-07
7.30495e-07
7.26038e-07
7.21456e-07
7.1655e-07
7.11108e-07
7.05065e-07
6.98675e-07
5.70793e-07
5.72888e-07
5.81929e-07
5.93441e-07
6.17673e-07
6.31773e-07
6.41534e-07
6.81562e-07
7.16938e-07
6.9243e-07
6.83809e-07
6.9094e-07
6.91262e-07
6.86011e-07
6.80635e-07
6.76063e-07
6.71648e-07
6.67213e-07
6.62858e-07
6.58537e-07
6.54112e-07
6.49361e-07
6.44075e-07
6.382e-07
6.31989e-07
5.14801e-07
5.16871e-07
5.24355e-07
5.34208e-07
5.55284e-07
5.62688e-07
5.69192e-07
6.05669e-07
6.45807e-07
6.23395e-07
6.17139e-07
6.26885e-07
6.30131e-07
6.26844e-07
6.22505e-07
6.18703e-07
6.14986e-07
6.1117e-07
6.07299e-07
6.03387e-07
5.99349e-07
5.94988e-07
5.90066e-07
5.84532e-07
5.78659e-07
4.63559e-07
4.65567e-07
4.71593e-07
4.80284e-07
4.98172e-07
5.00033e-07
5.06121e-07
5.34238e-07
5.74478e-07
5.59489e-07
5.56771e-07
5.67297e-07
5.72855e-07
5.71811e-07
5.68736e-07
5.6571e-07
5.62691e-07
5.59508e-07
5.5621e-07
5.52821e-07
5.49279e-07
5.45412e-07
5.40991e-07
5.35932e-07
5.30513e-07
4.13503e-07
4.15415e-07
4.20042e-07
4.28079e-07
4.42547e-07
4.40809e-07
4.47972e-07
4.68088e-07
5.08843e-07
5.01961e-07
5.02307e-07
5.12245e-07
5.18873e-07
5.19551e-07
5.17666e-07
5.15451e-07
5.13159e-07
5.10585e-07
5.07777e-07
5.0483e-07
5.01717e-07
4.9828e-07
4.94328e-07
4.89703e-07
4.84642e-07
3.6591e-07
3.67633e-07
3.70976e-07
3.78649e-07
3.8942e-07
3.86178e-07
3.9443e-07
4.07443e-07
4.49235e-07
4.49859e-07
4.5325e-07
4.6248e-07
4.69533e-07
4.71287e-07
4.70184e-07
4.68647e-07
4.67179e-07
4.65446e-07
4.63299e-07
4.60832e-07
4.5808e-07
4.54974e-07
4.51318e-07
4.4697e-07
4.42098e-07
3.20988e-07
3.22312e-07
3.24424e-07
3.31722e-07
3.38612e-07
3.36243e-07
3.44606e-07
3.52477e-07
3.96382e-07
4.03459e-07
4.09365e-07
4.18069e-07
4.25613e-07
4.28394e-07
4.27655e-07
4.25892e-07
4.24271e-07
4.22804e-07
4.21212e-07
4.19312e-07
4.16985e-07
4.14125e-07
4.10503e-07
4.06059e-07
4.00957e-07
2.79297e-07
2.79899e-07
2.80695e-07
2.87076e-07
2.89957e-07
2.9072e-07
2.97362e-07
3.03362e-07
3.5061e-07
3.63185e-07
3.71125e-07
3.78749e-07
3.85844e-07
3.89646e-07
3.903e-07
3.88958e-07
3.86574e-07
3.83753e-07
3.80912e-07
3.78194e-07
3.75442e-07
3.72298e-07
3.68247e-07
3.62863e-07
3.56197e-07
2.41241e-07
2.40864e-07
2.4023e-07
2.44631e-07
2.43316e-07
2.48222e-07
2.50066e-07
2.59271e-07
3.11684e-07
3.28644e-07
3.39683e-07
3.46316e-07
3.49893e-07
3.50419e-07
3.50125e-07
3.5011e-07
3.49738e-07
3.47893e-07
3.4435e-07
3.39659e-07
3.34343e-07
3.28546e-07
3.21996e-07
3.14333e-07
3.0549e-07
2.95615e-07
2.06798e-07
2.05342e-07
2.03247e-07
2.04576e-07
1.99399e-07
2.07457e-07
2.00541e-07
2.20758e-07
2.79649e-07
2.96578e-07
3.11699e-07
3.19843e-07
3.20815e-07
3.15244e-07
3.06766e-07
2.996e-07
2.95732e-07
2.94352e-07
2.93347e-07
2.91033e-07
2.86619e-07
2.7995e-07
2.71039e-07
2.60307e-07
2.4846e-07
2.36252e-07
1.7606e-07
1.73071e-07
1.68814e-07
1.66177e-07
1.58866e-07
1.6885e-07
1.53242e-07
1.97276e-07
2.57454e-07
2.68272e-07
2.84126e-07
2.89803e-07
2.91521e-07
2.90478e-07
2.82114e-07
2.66513e-07
2.49601e-07
2.37407e-07
2.32521e-07
2.34158e-07
2.39763e-07
2.46392e-07
2.5038e-07
2.4832e-07
2.40522e-07
2.3059e-07
1.51231e-07
1.45391e-07
1.3643e-07
1.27525e-07
1.191e-07
1.31016e-07
1.19221e-07
1.99446e-07
2.47583e-07
2.66547e-07
3.05154e-07
3.15108e-07
3.03413e-07
2.84167e-07
2.71519e-07
2.73866e-07
2.86042e-07
2.97358e-07
3.02685e-07
3.0307e-07
3.01258e-07
3.0015e-07
3.04191e-07
3.18839e-07
3.44231e-07
3.7463e-07
1.36145e-07
1.26702e-07
1.10551e-07
9.08151e-08
7.59513e-08
8.66803e-08
9.78931e-08
2.02091e-07
2.20774e-07
2.57816e-07
3.29181e-07
3.90547e-07
4.52461e-07
5.15985e-07
5.73971e-07
6.21882e-07
6.58504e-07
6.88335e-07
7.17314e-07
7.48985e-07
7.8436e-07
8.22716e-07
8.62164e-07
8.97912e-07
9.25071e-07
9.4617e-07
1.29202e-07
1.18012e-07
9.72006e-08
6.70882e-08
3.56605e-08
4.27149e-08
8.74804e-08
1.52612e-07
2.20652e-07
4.82911e-07
7.3738e-07
9.66079e-07
1.1476e-06
1.27873e-06
1.36597e-06
1.42418e-06
1.46864e-06
1.51051e-06
1.55349e-06
1.59693e-06
1.63866e-06
1.67832e-06
1.71756e-06
1.76211e-06
1.80757e-06
1.84611e-06
)
;

boundaryField
{
    inlet
    {
        type            calculated;
        value           nonuniform List<scalar> 
26
(
1.30096e-07
1.19106e-07
9.81439e-08
6.65943e-08
3.06934e-08
4.38121e-08
1.03855e-07
1.11286e-07
4.98193e-07
1.02032e-06
1.613e-06
2.20419e-06
2.74242e-06
3.2058e-06
3.58407e-06
3.88656e-06
4.12879e-06
4.32735e-06
4.49774e-06
4.65258e-06
4.80147e-06
4.95466e-06
5.12428e-06
5.31936e-06
5.52677e-06
5.72488e-06
)
;
    }
    outlet
    {
        type            calculated;
        value           nonuniform List<scalar> 0();
    }
    walls
    {
        type            calculated;
        value           nonuniform List<scalar> 0();
    }
    frontAndBack
    {
        type            empty;
    }
    procBoundary0to1
    {
        type            processor;
        value           nonuniform List<scalar> 
94
(
0.000659564
0.000540625
0.000540625
0.000445617
0.000445617
0.000369917
0.000369917
0.000308676
0.000308676
0.000259194
0.000259194
0.000219051
0.000192369
0.000192369
0.000164344
0.000145226
0.000145226
0.000125169
0.000111103
9.86951e-05
9.86951e-05
8.58332e-05
7.64565e-05
7.64565e-05
6.67642e-05
5.95831e-05
5.31849e-05
5.31849e-05
4.6619e-05
4.16624e-05
3.72371e-05
3.72371e-05
3.27105e-05
2.9263e-05
2.9263e-05
2.5723e-05
2.30333e-05
2.06307e-05
2.06307e-05
1.81588e-05
1.62861e-05
1.46143e-05
1.46143e-05
1.28874e-05
1.15869e-05
1.04263e-05
1.04263e-05
9.22099e-06
8.31908e-06
7.51281e-06
7.51281e-06
6.67158e-06
6.04355e-06
5.48045e-06
5.48045e-06
4.8907e-06
4.44932e-06
4.05141e-06
3.69216e-06
3.69216e-06
3.3196e-06
3.03313e-06
2.77189e-06
2.53269e-06
2.53269e-06
2.28672e-06
2.08788e-06
1.90372e-06
1.73376e-06
1.57797e-06
1.57797e-06
1.42491e-06
1.29785e-06
1.18086e-06
1.07147e-06
9.6811e-07
8.70689e-07
8.70689e-07
7.73521e-07
6.92314e-07
6.25818e-07
5.72816e-07
5.25065e-07
4.79434e-07
4.36922e-07
3.95457e-07
3.48735e-07
3.48735e-07
2.84848e-07
2.24217e-07
2.21438e-07
4.05414e-07
9.64946e-07
1.87671e-06
)
;
    }
    procBoundary0to4
    {
        type            processor;
        value           nonuniform List<scalar> 
72
(
0.00059753
0.000507792
0.000434433
0.000373706
0.000323029
0.0002804
0.000244305
0.000213557
0.000187219
0.000164547
0.000144951
0.000127953
0.000113151
0.000100227
8.89083e-05
7.89715e-05
7.02284e-05
6.25192e-05
5.57087e-05
4.96833e-05
4.43436e-05
3.96047e-05
3.47733e-05
3.47733e-05
3.10896e-05
2.781e-05
2.48872e-05
2.22804e-05
1.99532e-05
1.7874e-05
1.60152e-05
1.43526e-05
1.28645e-05
1.15318e-05
1.03377e-05
9.26746e-06
8.30772e-06
7.44675e-06
6.67413e-06
5.98058e-06
5.35784e-06
4.79852e-06
4.29605e-06
3.84457e-06
3.43881e-06
3.0741e-06
2.74624e-06
2.45147e-06
2.18644e-06
1.94814e-06
1.73387e-06
1.54123e-06
1.36804e-06
1.21237e-06
1.07249e-06
9.4693e-07
8.34299e-07
7.33472e-07
6.44779e-07
5.73575e-07
5.17253e-07
4.65667e-07
4.15287e-07
3.67412e-07
3.22294e-07
2.80531e-07
2.42545e-07
2.08313e-07
1.78032e-07
1.54004e-07
1.39771e-07
1.3319e-07
)
;
    }
    procBoundary0to5
    {
        type            processor;
        value           nonuniform List<scalar> 4(0.000702353 0.000694767 0.000685984 0.000674636);
    }
}


// ************************************************************************* //
