/*--------------------------------*- C++ -*----------------------------------*\
| =========                 |                                                 |
| \\      /  F ield         | OpenFOAM: The Open Source CFD Toolbox           |
|  \\    /   O peration     | Version:  2506                                  |
|   \\  /    A nd           | Website:  www.openfoam.com                      |
|    \\/     M anipulation  |                                                 |
\*---------------------------------------------------------------------------*/
FoamFile
{
    version     2.0;
    format      ascii;
    arch        "LSB;label=32;scalar=64";
    class       volScalarField;
    location    "450";
    object      turbulenceProperties:epsilon;
}
// * * * * * * * * * * * * * * * * * * * * * * * * * * * * * * * * * * * * * //

dimensions      [0 2 -3 0 0 0 0];

internalField   nonuniform List<scalar> 
1340
(
0.000197875
0.00019326
0.000188239
0.000182074
0.00017413
0.000142638
0.000139129
0.000135442
0.000131053
0.000125411
0.000119063
0.000104215
0.000101532
9.87721e-05
9.5598e-05
9.15381e-05
8.70657e-05
8.22714e-05
7.69961e-05
7.49444e-05
7.28624e-05
7.05323e-05
6.75831e-05
6.43884e-05
6.10324e-05
5.75024e-05
5.74538e-05
5.58701e-05
5.42924e-05
5.25555e-05
5.0393e-05
4.80852e-05
4.56923e-05
4.31778e-05
4.05544e-05
4.32425e-05
4.20118e-05
4.08083e-05
3.95021e-05
3.78987e-05
3.62142e-05
3.4481e-05
3.2668e-05
3.07976e-05
2.89359e-05
3.27917e-05
3.18348e-05
3.09067e-05
2.99174e-05
2.87177e-05
2.74766e-05
2.62042e-05
2.48808e-05
2.35329e-05
2.22027e-05
2.50316e-05
2.42869e-05
2.35678e-05
2.28101e-05
2.1906e-05
2.09831e-05
2.00379e-05
1.90618e-05
1.8081e-05
1.71208e-05
1.61769e-05
1.92212e-05
1.86389e-05
1.80794e-05
1.74949e-05
1.68081e-05
1.61166e-05
1.54069e-05
1.46804e-05
1.39594e-05
1.32594e-05
1.25755e-05
1.4837e-05
1.43798e-05
1.39424e-05
1.34889e-05
1.29644e-05
1.24406e-05
1.19039e-05
1.13584e-05
1.08239e-05
1.03085e-05
9.80889e-06
9.3211e-06
1.1506e-05
1.1146e-05
1.08025e-05
1.04492e-05
1.00466e-05
9.64562e-06
9.23707e-06
8.82464e-06
8.42443e-06
8.04174e-06
7.67336e-06
7.31592e-06
8.95967e-06
8.67561e-06
8.4048e-06
8.12852e-06
7.81784e-06
7.50867e-06
7.19523e-06
6.88136e-06
6.57959e-06
6.29305e-06
6.01911e-06
5.75465e-06
7.00265e-06
6.77831e-06
6.56371e-06
6.34686e-06
6.10588e-06
5.86613e-06
5.6243e-06
5.38388e-06
5.15451e-06
4.93816e-06
4.7325e-06
4.53557e-06
4.3453e-06
5.49123e-06
5.31369e-06
5.14334e-06
4.97242e-06
4.78453e-06
4.59759e-06
4.41011e-06
4.22464e-06
4.0492e-06
3.88464e-06
3.72912e-06
3.58095e-06
3.43869e-06
4.31893e-06
4.17784e-06
4.04274e-06
3.90743e-06
3.76036e-06
3.61397e-06
3.46782e-06
3.32401e-06
3.18876e-06
3.06264e-06
2.94408e-06
2.83192e-06
2.72477e-06
2.62034e-06
3.40597e-06
3.29365e-06
3.18627e-06
3.07884e-06
2.96333e-06
2.84826e-06
2.73372e-06
2.62174e-06
2.51692e-06
2.41957e-06
2.32858e-06
2.24292e-06
2.16145e-06
2.08238e-06
2.69234e-06
2.60297e-06
2.51737e-06
2.43181e-06
2.34087e-06
2.25011e-06
2.15998e-06
2.0724e-06
1.99065e-06
1.91509e-06
1.84473e-06
1.77888e-06
1.71651e-06
1.65624e-06
2.13281e-06
2.06164e-06
1.99334e-06
1.92504e-06
1.8532e-06
1.78141e-06
1.71019e-06
1.6414e-06
1.57742e-06
1.51843e-06
1.46367e-06
1.41263e-06
1.36455e-06
1.31829e-06
1.27268e-06
1.69288e-06
1.63605e-06
1.58153e-06
1.52696e-06
1.47003e-06
1.41311e-06
1.35674e-06
1.30245e-06
1.25214e-06
1.20583e-06
1.16297e-06
1.12317e-06
1.08581e-06
1.05002e-06
1.01493e-06
1.346e-06
1.30056e-06
1.25706e-06
1.21343e-06
1.16814e-06
1.12293e-06
1.07823e-06
1.03525e-06
9.95522e-07
9.59008e-07
9.25302e-07
8.94091e-07
8.6488e-07
8.37018e-07
8.09798e-07
1.07186e-06
1.03552e-06
1.00075e-06
9.65862e-07
9.2975e-07
8.93799e-07
8.58265e-07
8.2416e-07
7.92673e-07
7.63778e-07
7.37128e-07
7.12509e-07
6.89575e-07
6.67766e-07
6.46522e-07
6.25428e-07
8.54762e-07
8.2567e-07
7.97859e-07
7.69942e-07
7.41127e-07
7.12476e-07
6.84187e-07
6.57073e-07
6.32046e-07
6.09096e-07
5.87945e-07
5.68468e-07
5.50318e-07
5.33132e-07
5.16503e-07
5.00046e-07
6.59187e-07
6.3694e-07
6.1458e-07
5.91567e-07
5.68714e-07
5.46165e-07
5.24567e-07
5.04639e-07
4.86361e-07
4.69519e-07
4.54023e-07
4.39635e-07
4.26039e-07
4.12923e-07
4.00006e-07
3.86959e-07
5.26872e-07
5.09086e-07
4.91163e-07
4.72765e-07
4.54534e-07
4.36542e-07
4.19311e-07
4.03422e-07
3.88835e-07
3.75396e-07
3.63034e-07
3.51574e-07
3.40767e-07
3.30386e-07
3.20209e-07
3.09969e-07
4.21547e-07
4.07322e-07
3.92963e-07
3.78249e-07
3.63698e-07
3.49336e-07
3.35588e-07
3.22891e-07
3.11231e-07
3.00486e-07
2.90594e-07
2.81444e-07
2.72842e-07
2.64589e-07
2.56537e-07
2.48489e-07
3.37584e-07
3.26204e-07
3.14703e-07
3.0294e-07
2.91321e-07
2.79857e-07
2.68881e-07
2.58731e-07
2.49406e-07
2.40801e-07
2.3288e-07
2.25557e-07
2.18675e-07
2.12107e-07
2.05723e-07
1.99366e-07
1.92877e-07
2.70558e-07
2.61457e-07
2.52251e-07
2.42848e-07
2.33576e-07
2.2443e-07
2.15663e-07
2.07555e-07
2.00091e-07
1.93196e-07
1.86844e-07
1.80974e-07
1.7547e-07
1.70226e-07
1.65148e-07
1.60115e-07
1.55009e-07
2.16996e-07
2.09716e-07
2.02352e-07
1.94843e-07
1.87447e-07
1.8015e-07
1.73155e-07
1.66676e-07
1.60707e-07
1.55181e-07
1.50089e-07
1.4538e-07
1.40966e-07
1.3678e-07
1.3274e-07
1.28748e-07
1.24719e-07
1.74144e-07
1.68321e-07
1.62433e-07
1.56446e-07
1.50553e-07
1.44739e-07
1.39161e-07
1.33991e-07
1.29217e-07
1.2479e-07
1.20707e-07
1.16932e-07
1.13397e-07
1.10048e-07
1.06827e-07
1.03661e-07
1.00477e-07
9.72012e-08
1.39824e-07
1.35172e-07
1.30468e-07
1.257e-07
1.21012e-07
1.16383e-07
1.11943e-07
1.07824e-07
1.04011e-07
1.0047e-07
9.71991e-08
9.41708e-08
9.13406e-08
8.86625e-08
8.60969e-08
8.35842e-08
8.10674e-08
7.84895e-08
1.12316e-07
1.08603e-07
1.04848e-07
1.01057e-07
9.73334e-08
9.36563e-08
9.01286e-08
8.68506e-08
8.38119e-08
8.09849e-08
7.83669e-08
7.59428e-08
7.36774e-08
7.15385e-08
6.94936e-08
6.74994e-08
6.55124e-08
6.34842e-08
9.02497e-08
8.7288e-08
8.4298e-08
8.12887e-08
7.83373e-08
7.5423e-08
7.26254e-08
7.00243e-08
6.76079e-08
6.53538e-08
6.32637e-08
6.13263e-08
5.95159e-08
5.78092e-08
5.61829e-08
5.46026e-08
5.30326e-08
5.1436e-08
4.97719e-08
7.25372e-08
7.01762e-08
6.77997e-08
6.54172e-08
6.30837e-08
6.07788e-08
5.85674e-08
5.65094e-08
5.45946e-08
5.2802e-08
5.11366e-08
4.95915e-08
4.81471e-08
4.67883e-08
4.54959e-08
4.42441e-08
4.3006e-08
4.17539e-08
4.04524e-08
5.83105e-08
5.64308e-08
5.45452e-08
5.2665e-08
5.08252e-08
4.90081e-08
4.72661e-08
4.56436e-08
4.413e-08
4.27101e-08
4.13869e-08
4.01581e-08
3.90083e-08
3.79282e-08
3.69037e-08
3.59145e-08
3.494e-08
3.39581e-08
3.29407e-08
4.68772e-08
4.53835e-08
4.38905e-08
4.24118e-08
4.09657e-08
3.95383e-08
3.81717e-08
3.68982e-08
3.57077e-08
3.45862e-08
3.35378e-08
3.25627e-08
3.1651e-08
3.07952e-08
2.99855e-08
2.92049e-08
2.8439e-08
2.76709e-08
2.68789e-08
2.60388e-08
3.7685e-08
3.64996e-08
3.53219e-08
3.41622e-08
3.30303e-08
3.1914e-08
3.08478e-08
2.98534e-08
2.89202e-08
2.80378e-08
2.72111e-08
2.64401e-08
2.5719e-08
2.50427e-08
2.44044e-08
2.37909e-08
2.31914e-08
2.25925e-08
2.1976e-08
2.1324e-08
3.0292e-08
2.93528e-08
2.84271e-08
2.75217e-08
2.66398e-08
2.57712e-08
2.49441e-08
2.41721e-08
2.34448e-08
2.27539e-08
2.2104e-08
2.1497e-08
2.09287e-08
2.03964e-08
1.98951e-08
1.94149e-08
1.89469e-08
1.84806e-08
1.80026e-08
1.74993e-08
2.43443e-08
2.36017e-08
2.28768e-08
2.21739e-08
2.14897e-08
2.08183e-08
2.01815e-08
1.95864e-08
1.9023e-08
1.84846e-08
1.79762e-08
1.75004e-08
1.70547e-08
1.66375e-08
1.62451e-08
1.58704e-08
1.55066e-08
1.51454e-08
1.47766e-08
1.43889e-08
1.3969e-08
1.95583e-08
1.89725e-08
1.84075e-08
1.7865e-08
1.73377e-08
1.68224e-08
1.63365e-08
1.58815e-08
1.5448e-08
1.5031e-08
1.46353e-08
1.42642e-08
1.39165e-08
1.35911e-08
1.32856e-08
1.2995e-08
1.27136e-08
1.24349e-08
1.2151e-08
1.18535e-08
1.15321e-08
1.57066e-08
1.52459e-08
1.48075e-08
1.4392e-08
1.39886e-08
1.35968e-08
1.32303e-08
1.28856e-08
1.25546e-08
1.22339e-08
1.19279e-08
1.16402e-08
1.13706e-08
1.11185e-08
1.08822e-08
1.06579e-08
1.04412e-08
1.02273e-08
1.00102e-08
9.78293e-09
9.53779e-09
1.26065e-08
1.22456e-08
1.19075e-08
1.15921e-08
1.12859e-08
1.09917e-08
1.07191e-08
1.04611e-08
1.02106e-08
9.96587e-09
9.73114e-09
9.50984e-09
9.30233e-09
9.10843e-09
8.92696e-09
8.75488e-09
8.58912e-09
8.42585e-09
8.26059e-09
8.08791e-09
7.90195e-09
1.01116e-08
9.82984e-09
9.57118e-09
9.33404e-09
9.1042e-09
8.88692e-09
8.68757e-09
8.49729e-09
8.30998e-09
8.12508e-09
7.94672e-09
7.77809e-09
7.61975e-09
7.47191e-09
7.33362e-09
7.20266e-09
7.07669e-09
6.95283e-09
6.8276e-09
6.69697e-09
6.5563e-09
6.39959e-09
8.10403e-09
7.88496e-09
7.68888e-09
7.51284e-09
7.34276e-09
7.18558e-09
7.04335e-09
6.90539e-09
6.7674e-09
6.6295e-09
6.49561e-09
6.36864e-09
6.2492e-09
6.13752e-09
6.03299e-09
5.93395e-09
5.83876e-09
5.74538e-09
5.651e-09
5.55254e-09
5.44663e-09
5.32852e-09
6.48889e-09
6.31944e-09
6.17252e-09
6.04388e-09
5.92025e-09
5.80998e-09
5.71182e-09
5.6141e-09
5.51436e-09
5.41332e-09
5.31443e-09
5.22017e-09
5.13109e-09
5.04748e-09
4.9691e-09
4.89477e-09
4.82324e-09
4.753e-09
4.68199e-09
4.608e-09
4.52828e-09
4.43923e-09
5.18992e-09
5.05957e-09
4.95116e-09
4.85905e-09
4.7714e-09
4.69748e-09
4.63296e-09
4.56591e-09
4.4958e-09
4.42358e-09
4.35198e-09
4.28309e-09
4.21745e-09
4.1554e-09
4.09688e-09
4.04115e-09
3.98739e-09
3.93452e-09
3.88113e-09
3.82538e-09
3.76525e-09
3.69812e-09
4.14569e-09
4.04608e-09
3.96768e-09
3.90343e-09
3.84356e-09
3.79766e-09
3.75844e-09
3.71453e-09
3.66734e-09
3.61748e-09
3.56694e-09
3.51741e-09
3.46943e-09
3.42345e-09
3.37966e-09
3.33769e-09
3.29707e-09
3.25706e-09
3.21658e-09
3.17433e-09
3.12874e-09
3.07776e-09
3.01904e-09
3.30669e-09
3.2312e-09
3.17603e-09
3.13286e-09
3.09432e-09
3.06978e-09
3.04919e-09
3.0226e-09
2.99311e-09
2.96048e-09
2.92581e-09
2.89058e-09
2.85546e-09
2.82111e-09
2.78795e-09
2.75591e-09
2.72479e-09
2.69411e-09
2.66307e-09
2.63071e-09
2.59586e-09
2.55694e-09
2.51209e-09
2.63305e-09
2.57642e-09
2.53907e-09
2.51167e-09
2.48941e-09
2.48095e-09
2.47374e-09
2.45997e-09
2.44422e-09
2.42458e-09
2.4014e-09
2.37625e-09
2.35013e-09
2.32387e-09
2.29816e-09
2.2732e-09
2.24894e-09
2.22509e-09
2.20105e-09
2.17605e-09
2.14923e-09
2.11936e-09
2.08502e-09
2.09265e-09
2.05069e-09
2.02688e-09
2.01112e-09
2.0012e-09
2.00458e-09
2.00659e-09
2.00234e-09
1.99726e-09
1.98702e-09
1.97158e-09
1.95313e-09
1.93303e-09
1.91233e-09
1.89193e-09
1.87214e-09
1.85299e-09
1.8343e-09
1.81559e-09
1.79624e-09
1.77561e-09
1.75277e-09
1.72661e-09
1.65956e-09
1.62897e-09
1.61532e-09
1.60799e-09
1.60738e-09
1.61914e-09
1.62715e-09
1.63002e-09
1.63321e-09
1.6293e-09
1.61855e-09
1.60425e-09
1.58817e-09
1.57146e-09
1.55505e-09
1.53931e-09
1.52426e-09
1.5097e-09
1.49527e-09
1.48051e-09
1.46487e-09
1.44761e-09
1.42792e-09
1.31288e-09
1.29107e-09
1.2849e-09
1.28357e-09
1.28991e-09
1.30728e-09
1.31882e-09
1.32711e-09
1.3366e-09
1.33633e-09
1.32794e-09
1.31623e-09
1.30314e-09
1.28965e-09
1.27663e-09
1.26437e-09
1.25282e-09
1.24178e-09
1.23092e-09
1.21989e-09
1.20824e-09
1.19542e-09
1.18081e-09
1.16423e-09
1.03573e-09
1.02065e-09
1.01987e-09
1.0227e-09
1.03417e-09
1.05492e-09
1.06824e-09
1.08084e-09
1.09489e-09
1.09587e-09
1.08833e-09
1.07863e-09
1.06826e-09
1.05779e-09
1.04787e-09
1.03868e-09
1.03011e-09
1.02196e-09
1.01395e-09
1.00582e-09
9.97223e-10
9.87722e-10
9.76843e-10
9.64432e-10
8.14531e-10
8.0455e-10
8.07492e-10
8.13088e-10
8.28235e-10
8.50542e-10
8.64539e-10
8.80896e-10
8.98043e-10
8.98266e-10
8.90816e-10
8.83219e-10
8.75695e-10
8.68064e-10
8.60827e-10
8.54129e-10
8.47849e-10
8.41816e-10
8.35835e-10
8.29694e-10
8.23146e-10
8.15854e-10
8.0744e-10
7.97775e-10
6.38374e-10
6.32237e-10
6.37586e-10
6.44887e-10
6.62497e-10
6.84826e-10
6.98757e-10
7.18394e-10
7.3764e-10
7.35973e-10
7.28622e-10
7.23452e-10
7.18653e-10
7.13287e-10
7.07927e-10
7.02846e-10
6.97965e-10
6.93164e-10
6.88318e-10
6.83288e-10
6.7789e-10
6.71861e-10
6.6488e-10
6.5685e-10
4.98461e-10
4.95235e-10
5.02016e-10
5.10294e-10
5.29404e-10
5.50576e-10
5.63851e-10
5.85649e-10
6.06127e-10
6.02788e-10
5.96302e-10
5.93615e-10
5.90825e-10
5.86709e-10
5.82191e-10
5.77749e-10
5.73378e-10
5.69017e-10
5.64602e-10
5.60043e-10
5.55196e-10
5.49831e-10
5.4366e-10
5.36634e-10
3.87608e-10
3.86541e-10
3.94089e-10
4.02963e-10
4.2289e-10
4.42294e-10
4.54687e-10
4.77481e-10
4.98028e-10
4.93258e-10
4.88364e-10
4.87832e-10
4.85897e-10
4.81912e-10
4.77445e-10
4.73063e-10
4.6874e-10
4.64465e-10
4.60191e-10
4.55845e-10
4.51313e-10
4.46385e-10
4.40801e-10
4.34552e-10
3.0011e-10
3.00473e-10
3.08198e-10
3.17398e-10
3.37497e-10
3.5492e-10
3.6667e-10
3.91504e-10
4.1203e-10
4.03282e-10
3.99027e-10
4.00337e-10
3.98503e-10
3.93992e-10
3.89293e-10
3.84915e-10
3.80674e-10
3.76535e-10
3.72473e-10
3.68432e-10
3.64268e-10
3.59803e-10
3.54824e-10
3.49318e-10
3.43526e-10
2.3226e-10
2.33419e-10
2.40601e-10
2.49558e-10
2.68739e-10
2.83414e-10
2.93989e-10
3.2198e-10
3.46307e-10
3.30745e-10
3.24692e-10
3.27958e-10
3.26569e-10
3.21687e-10
3.16928e-10
3.12779e-10
3.08825e-10
3.04951e-10
3.01216e-10
2.9755e-10
2.93806e-10
2.89823e-10
2.85436e-10
2.80604e-10
2.7554e-10
1.83905e-10
1.85258e-10
1.91152e-10
1.98792e-10
2.15359e-10
2.25307e-10
2.32325e-10
2.62224e-10
2.90153e-10
2.70653e-10
2.63954e-10
2.69486e-10
2.69735e-10
2.6565e-10
2.61502e-10
2.57999e-10
2.54639e-10
2.51286e-10
2.48016e-10
2.44792e-10
2.41512e-10
2.38015e-10
2.34155e-10
2.29902e-10
2.25448e-10
1.49595e-10
1.50801e-10
1.552e-10
1.61089e-10
1.74052e-10
1.78727e-10
1.82884e-10
2.07078e-10
2.35436e-10
2.19376e-10
2.14992e-10
2.21833e-10
2.24135e-10
2.21801e-10
2.18739e-10
2.16074e-10
2.13485e-10
2.10843e-10
2.0818e-10
2.05506e-10
2.02764e-10
1.99823e-10
1.9653e-10
1.9286e-10
1.89003e-10
1.21297e-10
1.2235e-10
1.25539e-10
1.30209e-10
1.4009e-10
1.41141e-10
1.44601e-10
1.61114e-10
1.86303e-10
1.76704e-10
1.74987e-10
1.81664e-10
1.85239e-10
1.84563e-10
1.82582e-10
1.80643e-10
1.7872e-10
1.76703e-10
1.74625e-10
1.72503e-10
1.70299e-10
1.67909e-10
1.65197e-10
1.62121e-10
1.58859e-10
9.65155e-11
9.74105e-11
9.9593e-11
1.03442e-10
1.10553e-10
1.09688e-10
1.13283e-10
1.23686e-10
1.46167e-10
1.42234e-10
1.42426e-10
1.48115e-10
1.51971e-10
1.52367e-10
1.51263e-10
1.4997e-10
1.48639e-10
1.47151e-10
1.45536e-10
1.43851e-10
1.42082e-10
1.40142e-10
1.37927e-10
1.35358e-10
1.32574e-10
7.55774e-11
7.62911e-11
7.7685e-11
8.09324e-11
8.56032e-11
8.41851e-11
8.78224e-11
9.37133e-11
1.13929e-10
1.1424e-10
1.15964e-10
1.20733e-10
1.24442e-10
1.25372e-10
1.24785e-10
1.2397e-10
1.23195e-10
1.22282e-10
1.21156e-10
1.19869e-10
1.18441e-10
1.1684e-10
1.1497e-10
1.12764e-10
1.10319e-10
5.81598e-11
5.86408e-11
5.94119e-11
6.21155e-11
6.47236e-11
6.38219e-11
6.70367e-11
7.01341e-11
8.87004e-11
9.18885e-11
9.45943e-11
9.8658e-11
1.0225e-10
1.0359e-10
1.03232e-10
1.02382e-10
1.01604e-10
1.00902e-10
1.00143e-10
9.92413e-11
9.81429e-11
9.6801e-11
9.51145e-11
9.30662e-11
9.07417e-11
4.4033e-11
4.42232e-11
4.44754e-11
4.65207e-11
4.74599e-11
4.77106e-11
4.99162e-11
5.19505e-11
6.9399e-11
7.44589e-11
7.77467e-11
8.09721e-11
8.40335e-11
8.56974e-11
8.59846e-11
8.5394e-11
8.43499e-11
8.31232e-11
8.18966e-11
8.07319e-11
7.95611e-11
7.82339e-11
7.65401e-11
7.43183e-11
7.16123e-11
3.28514e-11
3.27488e-11
3.25768e-11
3.37815e-11
3.34196e-11
3.47815e-11
3.53004e-11
3.79466e-11
5.48452e-11
6.09698e-11
6.51312e-11
6.76981e-11
6.91037e-11
6.93105e-11
6.9194e-11
6.91874e-11
6.90404e-11
6.83136e-11
6.6929e-11
6.51175e-11
6.30949e-11
6.09259e-11
5.85205e-11
5.57679e-11
5.2674e-11
4.93231e-11
2.41405e-11
2.38017e-11
2.33188e-11
2.36249e-11
2.24446e-11
2.42956e-11
2.27027e-11
2.75102e-11
4.41524e-11
4.96534e-11
5.48435e-11
5.77437e-11
5.80945e-11
5.60939e-11
5.31174e-11
5.06654e-11
4.93654e-11
4.89051e-11
4.85709e-11
4.78071e-11
4.63674e-11
4.42343e-11
4.14631e-11
3.82441e-11
3.48421e-11
3.15022e-11
1.74975e-11
1.69085e-11
1.6087e-11
1.55885e-11
1.42472e-11
1.60946e-11
1.32569e-11
2.19689e-11
3.74249e-11
4.06267e-11
4.55695e-11
4.74068e-11
4.79725e-11
4.7634e-11
4.49307e-11
4.00955e-11
3.51651e-11
3.18119e-11
3.05168e-11
3.09496e-11
3.24503e-11
3.4271e-11
3.53909e-11
3.48134e-11
3.26648e-11
3.00285e-11
1.29105e-11
1.19326e-11
1.05071e-11
9.18024e-12
8.00741e-12
9.69001e-12
8.02657e-12
2.24556e-11
3.46106e-11
4.01042e-11
5.25658e-11
5.60611e-11
5.1974e-11
4.55805e-11
4.16138e-11
4.23521e-11
4.62268e-11
4.99795e-11
5.18028e-11
5.19471e-11
5.13403e-11
5.09803e-11
5.23857e-11
5.75742e-11
6.71198e-11
7.94953e-11
1.04633e-11
9.06215e-12
6.89915e-12
4.65572e-12
3.25641e-12
4.24141e-12
5.41459e-12
2.3055e-11
2.75136e-11
3.75326e-11
6.11656e-11
8.61234e-11
1.15673e-10
1.50547e-10
1.86406e-10
2.18915e-10
2.45483e-10
2.6819e-10
2.91175e-10
3.17378e-10
3.48013e-10
3.8288e-10
4.20556e-10
4.56301e-10
4.84463e-10
5.06896e-10
9.42349e-12
7.8619e-12
5.33371e-12
2.54103e-12
7.1799e-13
1.02999e-12
4.32008e-12
1.31515e-11
2.75913e-11
1.32231e-10
3.08146e-10
5.28813e-10
7.46141e-10
9.26291e-10
1.05673e-09
1.14833e-09
1.22068e-09
1.29075e-09
1.3648e-09
1.44191e-09
1.51813e-09
1.59263e-09
1.66839e-09
1.75666e-09
1.84887e-09
1.92859e-09
)
;

boundaryField
{
    inlet
    {
        type            calculated;
        value           nonuniform List<scalar> 
26
(
8.64284e-12
7.24484e-12
4.91971e-12
2.26536e-12
4.81086e-13
9.82337e-13
5.51525e-12
6.38154e-12
1.28196e-10
5.37513e-10
1.34221e-09
2.50532e-09
3.87729e-09
5.29689e-09
6.61863e-09
7.78038e-09
8.77747e-09
9.63918e-09
1.04111e-08
1.11395e-08
1.18645e-08
1.26362e-08
1.35213e-08
1.45763e-08
1.57386e-08
1.68875e-08
)
;
    }
    outlet
    {
        type            calculated;
        value           nonuniform List<scalar> 0();
    }
    walls
    {
        type            calculated;
        value           nonuniform List<scalar> 0();
    }
    frontAndBack
    {
        type            empty;
    }
    procBoundary0to1
    {
        type            processor;
        value           nonuniform List<scalar> 
94
(
0.000245536
0.000164965
0.000164965
0.000112079
0.000112079
7.72343e-05
7.72343e-05
5.37783e-05
5.37783e-05
3.79189e-05
3.79189e-05
2.70829e-05
2.0887e-05
2.0887e-05
1.52446e-05
1.19041e-05
1.19041e-05
8.84303e-06
6.96722e-06
5.49792e-06
5.49792e-06
4.15833e-06
3.29942e-06
3.29942e-06
2.51591e-06
2.00381e-06
1.59656e-06
1.59656e-06
1.22669e-06
9.79711e-07
7.8264e-07
7.8264e-07
6.03928e-07
4.83334e-07
4.83334e-07
3.73468e-07
2.99449e-07
2.40236e-07
2.40236e-07
1.86119e-07
1.4971e-07
1.20551e-07
1.20551e-07
9.3744e-08
7.57792e-08
6.1359e-08
6.1359e-08
4.79925e-08
3.90634e-08
3.18585e-08
3.18585e-08
2.51235e-08
2.06162e-08
1.69535e-08
1.69535e-08
1.35012e-08
1.11742e-08
9.26497e-09
7.69475e-09
7.69475e-09
6.22024e-09
5.19302e-09
4.33703e-09
3.62082e-09
3.62082e-09
2.95169e-09
2.46071e-09
2.04578e-09
1.69681e-09
1.40558e-09
1.40558e-09
1.14614e-09
9.50843e-10
7.87152e-10
6.48065e-10
5.29057e-10
4.27931e-10
4.27931e-10
3.37741e-10
2.70544e-10
2.21067e-10
1.85205e-10
1.55612e-10
1.2974e-10
1.07751e-10
8.82692e-11
6.8643e-11
6.8643e-11
4.57953e-11
2.83743e-11
2.76997e-11
9.3087e-11
5.2725e-10
1.99294e-09
)
;
    }
    procBoundary0to4
    {
        type            processor;
        value           nonuniform List<scalar> 
72
(
0.000201518
0.000145535
0.000106523
7.88236e-05
5.88954e-05
4.43767e-05
3.36872e-05
2.57411e-05
1.97833e-05
1.52819e-05
1.18589e-05
9.24061e-06
7.2264e-06
5.66983e-06
4.46157e-06
3.52001e-06
2.78374e-06
2.20613e-06
1.75166e-06
1.39324e-06
1.10986e-06
8.85315e-07
6.82491e-07
6.82491e-07
5.45551e-07
4.36522e-07
3.49589e-07
2.80188e-07
2.24714e-07
1.80322e-07
1.44768e-07
1.1627e-07
9.34098e-08
7.50586e-08
6.03196e-08
4.84764e-08
3.89559e-08
3.12999e-08
2.5142e-08
2.01882e-08
1.62028e-08
1.29965e-08
1.04172e-08
8.34275e-09
6.67469e-09
5.33398e-09
4.2569e-09
3.39211e-09
2.69831e-09
2.14219e-09
1.69689e-09
1.34077e-09
1.05638e-09
8.29644e-10
6.49252e-10
5.06131e-10
3.92892e-10
3.03667e-10
2.34668e-10
1.85701e-10
1.51023e-10
1.22402e-10
9.73502e-11
7.61986e-11
5.86339e-11
4.44231e-11
3.32073e-11
2.44955e-11
1.78916e-11
1.33883e-11
1.1028e-11
1.0014e-11
)
;
    }
    procBoundary0to5
    {
        type            processor;
        value           nonuniform List<scalar> 4(0.000278424 0.000272442 0.000265599 0.000256885);
    }
}


// ************************************************************************* //
