/*--------------------------------*- C++ -*----------------------------------*\
| =========                 |                                                 |
| \\      /  F ield         | OpenFOAM: The Open Source CFD Toolbox           |
|  \\    /   O peration     | Version:  2506                                  |
|   \\  /    A nd           | Website:  www.openfoam.com                      |
|    \\/     M anipulation  |                                                 |
\*---------------------------------------------------------------------------*/
FoamFile
{
    version     2.0;
    format      ascii;
    arch        "LSB;label=32;scalar=64";
    class       volScalarField;
    location    "39.983397905";
    object      p;
}
// * * * * * * * * * * * * * * * * * * * * * * * * * * * * * * * * * * * * * //

dimensions      [0 2 -2 0 0 0 0];

internalField   nonuniform List<scalar> 
9700
(
0.000547897
0.000542724
0.00151122
0.000531739
0.00152361
0.00257471
0.00051578
0.00154707
0.00258532
0.00360437
0.000493845
0.00158594
0.00260565
0.00361888
0.00462777
0.000463529
0.00164144
0.00263625
0.00364611
0.0046448
0.00563343
0.000421899
0.00171303
0.00267604
0.00368642
0.00467621
0.00565428
0.00661991
0.000365135
0.00180128
0.0027225
0.00373764
0.00472212
0.00569185
0.00664526
0.00758189
0.000276836
0.00190756
0.0027719
0.0037958
0.00477888
0.00574711
0.0066899
0.00761262
0.00851534
0.000151512
0.00203194
0.00281832
0.0038546
0.00484129
0.00581509
0.0067564
0.00766562
0.00855215
0.00941474
-1.524e-05
0.00219394
0.00285354
0.0039041
0.00490064
0.00589008
0.00683852
0.00774582
0.00861453
0.00945812
0.0102747
-0.000251368
0.00236595
0.00287702
0.00392851
0.00494376
0.00596183
0.00693082
0.00784588
0.00871035
0.00953057
0.0103248
0.0110904
-0.000679174
0.00243392
0.00285116
0.00390027
0.00494965
0.00601534
0.00702234
0.0079613
0.00883134
0.00964335
0.0104076
0.0111471
0.0118576
-0.00118877
0.00214576
0.00265087
0.00376452
0.00488488
0.00602652
0.00709771
0.00808126
0.00897452
0.00978741
0.0105378
0.0112399
0.0119205
0.0125724
-0.00170693
0.00162346
0.00208456
0.00343025
0.00469068
0.00595767
0.00713219
0.00819126
0.00912986
0.00996167
0.0107058
0.0113873
0.0120226
0.0126407
0.013232
-0.00236542
0.00100375
0.00114571
0.00278375
0.00427958
0.00574978
0.007088
0.00826775
0.00928482
0.0101574
0.0109127
0.0115789
0.0121858
0.0127509
0.0133047
0.0138351
-0.00322576
3.95679e-05
-0.000174906
0.00173065
0.00354733
0.00531903
0.00690721
0.00827529
0.00941844
0.0103647
0.0111513
0.0118181
0.0123994
0.0129279
0.0134213
0.0139109
0.0143808
-0.00421972
-0.00138137
-0.00194802
0.000102479
0.00242319
0.00456684
0.00650824
0.00816002
0.00949949
0.0105661
0.0114146
0.0120993
0.0126687
0.0131606
0.0136093
0.0140319
0.0144583
0.0148696
-0.00530969
-0.0032408
-0.00394835
-0.0021811
0.000824306
0.00339577
0.00579284
0.00784679
0.00948031
0.0107357
0.0116892
0.0124187
0.0129898
0.0134562
0.0138573
0.0142274
0.0145814
0.0149472
0.015303
-0.0063141
-0.00544732
-0.0065386
-0.00487581
-0.00121813
0.00171752
0.00464987
0.00724405
0.00929439
0.0108334
0.0119549
0.0127666
0.0133617
0.0138121
0.0141739
0.0144861
0.0147808
0.0150702
0.0153789
0.0156836
-0.00700737
-0.00776561
-0.0097494
-0.00803742
-0.00448792
-0.000497956
0.00294644
0.00624767
0.00885968
0.0108023
0.0121795
0.0131286
0.0137783
0.01423
0.0145579
0.0148175
0.015045
0.0152694
0.0154995
0.0157555
0.016013
-0.00742114
-0.00991474
-0.0132515
-0.0121239
-0.0087718
-0.00382876
0.000336367
0.00472811
0.00808066
0.0105708
0.0123165
0.0134802
0.0142303
0.0147066
0.0150128
0.0152215
0.0153843
0.0155337
0.0156944
0.0158714
0.0160813
0.0162945
-0.00764947
-0.0117426
-0.01684
-0.0166832
-0.0136332
-0.00847316
-0.00302641
0.00244437
0.0068269
0.0100514
0.0123043
0.0137844
0.0146998
0.015237
0.0155377
0.0157027
0.0157991
0.0158735
0.0159532
0.0160581
0.0161891
0.0163609
0.0165355
-0.00767289
-0.0132815
-0.0201113
-0.0213898
-0.0190041
-0.0137397
-0.00724002
-0.000751845
0.00488913
0.00911746
0.0120637
0.0139889
0.0151585
0.0158087
0.016131
0.0162622
0.016295
0.0162897
0.0162862
0.0163061
0.0163639
0.0164556
0.0165921
0.0167377
-0.00759594
-0.0143033
-0.0228976
-0.0257486
-0.0245604
-0.0195748
-0.0125271
-0.00488089
0.00207244
0.00757511
0.0114769
0.014022
0.015562
0.0164004
0.0167845
0.0169006
0.0168742
0.0167882
0.0166942
0.0166249
0.0165959
0.0166159
0.0166786
0.0167858
0.016907
-0.00726426
-0.0149354
-0.0246916
-0.0295132
-0.0297476
-0.0256277
-0.0184703
-0.00999471
-0.00171492
0.00523117
0.0103703
0.0137753
0.0158452
0.0169743
0.0174819
0.0176124
0.0175386
0.0173719
0.0171834
0.0170155
0.0168938
0.0168273
0.0168197
0.0168603
0.0169463
0.0170489
-0.00678264
-0.0145902
-0.0255866
-0.0319424
-0.0342766
-0.0313447
-0.0246788
-0.0157801
-0.00642928
0.00197328
0.00855367
0.0130954
0.015908
0.0174709
0.0181909
0.0183854
0.0182846
0.0180433
0.0177563
0.0174836
0.0172583
0.0170981
0.017006
0.0169804
0.0170071
0.0170791
0.0171693
-0.00615766
-0.0139751
-0.024985
-0.0331712
-0.037172
-0.0363372
-0.0306288
-0.021865
-0.0118321
-0.00218355
0.00589341
0.0118057
0.0156143
0.0177969
0.018857
0.0191911
0.0191024
0.0187995
0.018416
0.0180315
0.0176944
0.0174286
0.0172441
0.0171384
0.0171044
0.0171254
0.0171901
0.0172741
-0.00539378
-0.0129275
-0.0238846
-0.0324888
-0.0389238
-0.0395651
-0.0358057
-0.0277853
-0.0175837
-0.00704877
0.00237089
0.00975582
0.0148049
0.0178281
0.0193914
0.0199794
0.0199663
0.0196322
0.0191594
0.0186617
0.0182038
0.0178227
0.0175334
0.0173391
0.0172315
0.0171987
0.0172217
0.0172857
0.0173692
-0.00451821
-0.0115555
-0.0220354
-0.0311778
-0.0381765
-0.0419016
-0.0393019
-0.0329601
-0.02328
-0.0123383
-0.00188701
0.0068815
0.0133218
0.0174207
0.0196769
0.0206652
0.0208299
0.0205175
0.019979
0.0193709
0.0187881
0.0182813
0.0178767
0.0175814
0.0173914
0.0172933
0.0172706
0.0173028
0.0173721
0.0174605
-0.00350585
-0.00991558
-0.0196998
-0.0288686
-0.0366741
-0.0412077
-0.0418752
-0.036652
-0.0283341
-0.0177007
-0.00666689
0.00323529
0.0110552
0.0164181
0.0195792
0.0211337
0.0216128
0.021413
0.0208517
0.0201514
0.0194434
0.0188049
0.0182736
0.0178662
0.0175819
0.0174099
0.0173319
0.0173278
0.0173755
0.0174557
0.0175536
-0.00252135
-0.00801636
-0.016929
-0.0259235
-0.0340904
-0.0396702
-0.0413612
-0.0393776
-0.0321971
-0.0226026
-0.0116731
-0.00104797
0.0079789
0.0146765
0.0189458
0.0212513
0.0221962
0.0222433
0.0217387
0.0209804
0.0201613
0.0193884
0.0187229
0.0181918
0.0178023
0.0175455
0.0174044
0.0173564
0.0173779
0.0174467
0.0175421
0.017653
-0.00146488
-0.00607042
-0.0138163
-0.0223961
-0.0307439
-0.0370275
-0.0401258
-0.0391191
-0.0351934
-0.026655
-0.0164713
-0.00573691
0.00414445
0.0120963
0.0176168
0.0208712
0.0224451
0.0228847
0.0225689
0.0218216
0.0209189
0.0200223
0.0192185
0.0185553
0.018049
0.0176971
0.0174834
0.0173851
0.0173754
0.0174288
0.0175227
0.0176365
0.0177629
-0.000424782
-0.00397503
-0.0104847
-0.0184331
-0.0267014
-0.0335505
-0.0376894
-0.038347
-0.0353495
-0.029907
-0.0207753
-0.0105218
-0.00028765
0.00864441
0.0154355
0.0198315
0.0222151
0.0232376
0.0232219
0.0226064
0.0216812
0.0206836
0.0197491
0.0189485
0.0183167
0.0178589
0.0175638
0.0174078
0.0173625
0.0173981
0.0174874
0.0176088
0.0177431
0.0178859
0.000639825
-0.00187364
-0.00706071
-0.0141738
-0.0221518
-0.0293083
-0.0343645
-0.0363481
-0.03508
-0.0306831
-0.0243534
-0.0152067
-0.00513629
0.00440391
0.0122892
0.0179368
0.0213457
0.0230651
0.0236334
0.0232253
0.0223818
0.0213376
0.0202915
0.0193584
0.0185951
0.0180229
0.0176371
0.0174168
0.0173312
0.0173471
0.0174327
0.0175602
0.0177099
0.0178648
0.0180235
0.00189899
0.000153854
-0.00361692
-0.00979766
-0.0172738
-0.0245043
-0.0302219
-0.0334396
-0.0336694
-0.0310204
-0.0259116
-0.0193013
-0.0102432
-0.000559622
0.00817638
0.015012
0.0196234
0.0222359
0.0234629
0.0235884
0.0229241
0.0219208
0.0208103
0.0197606
0.0188686
0.018176
0.0176921
0.0174006
0.0172711
0.0172663
0.0173491
0.0174866
0.0176524
0.0178291
0.0180025
0.0181754
0.00342649
0.00254492
-0.000342169
-0.0053905
-0.0122742
-0.0193557
-0.0254805
-0.029681
-0.0313683
-0.0303679
-0.0268835
-0.0221145
-0.0147933
-0.00613475
0.00306381
0.0109654
0.0168311
0.0205865
0.0226056
0.0234006
0.0231799
0.0223447
0.021245
0.0201186
0.0191106
0.0182989
0.0177117
0.017344
0.0171675
0.0171422
0.0172254
0.0173774
0.0175662
0.0177676
0.0179676
0.0181564
0.0183394
0.00502116
0.00485171
0.00356499
-0.00138991
-0.00728596
-0.0140882
-0.0203592
-0.0253061
-0.0282292
-0.0288738
-0.0270768
-0.0238579
-0.0186316
-0.0111689
-0.00303779
0.00569864
0.0127871
0.017845
0.0209461
0.0225343
0.0229443
0.0224789
0.0215115
0.0203735
0.0192828
0.0183619
0.0176722
0.0172253
0.0170004
0.0169566
0.0170454
0.0172196
0.0174397
0.0176757
0.0179075
0.0181253
0.0183248
0.0185126
0.00625669
0.00690796
0.00716374
0.00347183
-0.00273087
-0.00887796
-0.0150662
-0.0205171
-0.0244575
-0.0265516
-0.0265323
-0.0247081
-0.0212828
-0.0160413
-0.00862902
-0.000950563
0.00738371
0.0137438
0.0181931
0.0208155
0.0220559
0.0221492
0.0214875
0.020444
0.0193261
0.0183231
0.0175389
0.0170147
0.0167425
0.0166845
0.016787
0.0169946
0.0172587
0.0175414
0.0178172
0.0180718
0.0183003
0.0185039
0.0186903
0.00723218
0.0081932
0.0102048
0.00793974
0.0028658
-0.00404729
-0.00978107
-0.0155067
-0.0202576
-0.02355
-0.0252447
-0.024733
-0.023442
-0.0192272
-0.0147971
-0.00710031
0.000211639
0.00824164
0.0139943
0.0180114
0.0202706
0.0211804
0.0210119
0.0202142
0.0191601
0.0181208
0.0172642
0.0166705
0.0163565
0.016292
0.0164205
0.0166771
0.0170026
0.0173495
0.017685
0.0179903
0.0182582
0.0184886
0.0186889
0.0188673
0.00789545
0.00891357
0.0121044
0.0116047
0.00801181
0.00197516
-0.00506309
-0.0104608
-0.015781
-0.0200952
-0.0231775
-0.0241869
-0.0246038
-0.022128
-0.0188574
-0.0144997
-0.0065167
0.000635441
0.008456
0.0137003
0.0174127
0.0193226
0.0199104
0.0195359
0.018673
0.0176725
0.01678
0.0161358
0.0157905
0.0157326
0.0159044
0.016232
0.0166433
0.0170786
0.0174955
0.0178703
0.0181925
0.0184623
0.0186847
0.0188741
0.0190373
0.0081654
0.00916565
0.0131179
0.0138821
0.0121973
0.00748928
0.0009659
-0.00603631
-0.0112511
-0.0163174
-0.0205444
-0.0232192
-0.0247304
-0.0245563
-0.0228001
-0.0193525
-0.0150283
-0.00670289
0.00056469
0.00820408
0.0130863
0.0164125
0.0179511
0.0182411
0.0177258
0.0168666
0.0159975
0.0153318
0.0149743
0.0149417
0.0151819
0.0156106
0.0161415
0.0166984
0.017227
0.0176965
0.0180941
0.0184184
0.0186778
0.0188826
0.0190527
0.0191939
0.00789856
0.009048
0.0133795
0.0150877
0.0148345
0.0119899
0.00658015
-0.000261208
-0.00725633
-0.0124389
-0.0175536
-0.0217039
-0.024388
-0.0264703
-0.0262327
-0.024314
-0.0205764
-0.0160812
-0.0072751
0.000112382
0.00749029
0.0120982
0.0149721
0.0161213
0.016158
0.0155696
0.0147992
0.0141571
0.0138119
0.0138308
0.0141733
0.0147448
0.0154418
0.0161669
0.0168489
0.0174482
0.0179488
0.01835
0.0186604
0.0188972
0.0190747
0.019218
0.0193309
0.00712073
0.00846602
0.0130925
0.015397
0.0162918
0.0148975
0.0112167
0.00526065
-0.00190514
-0.00898825
-0.0144104
-0.0196984
-0.0239134
-0.027881
-0.0291537
-0.0288276
-0.0264815
-0.0222164
-0.0169907
-0.00804077
-0.00045378
0.00651756
0.0106796
0.0130215
0.0137885
0.0136265
0.0130511
0.0124801
0.0121794
0.0122797
0.0127688
0.0135373
0.0144656
0.0154237
0.0163177
0.0170954
0.0177376
0.0182442
0.0186286
0.0189098
0.0191123
0.0192537
0.0193635
0.0194426
0.00608984
0.00753968
0.0122861
0.0150601
0.0168953
0.016625
0.0143312
0.00989856
0.00340538
-0.00420019
-0.0115525
-0.0173937
-0.0230449
-0.0283767
-0.0314722
-0.0328711
-0.0320228
-0.0289428
-0.0235958
-0.0180554
-0.00879567
-0.00114055
0.00517606
0.00871376
0.0104758
0.0108857
0.010599
0.0101549
0.00991773
0.0101247
0.0108174
0.0118516
0.0130976
0.0143838
0.0155706
0.0165954
0.0174325
0.0180851
0.0185713
0.0189193
0.0191567
0.0193143
0.0194123
0.0194831
0.0195242
0.00506805
0.00656907
0.0111531
0.0142029
0.016671
0.0174922
0.0163059
0.0131595
0.00797058
0.000835606
-0.00739448
-0.0151705
-0.0216312
-0.0280356
-0.0330509
-0.0362545
-0.0371621
-0.0353825
-0.0310891
-0.0246717
-0.0188783
-0.00927237
-0.00211027
0.00328026
0.00606537
0.00722597
0.007326
0.00702411
0.00686361
0.00716952
0.00810906
0.00949195
0.011169
0.0129197
0.0145202
0.0158865
0.0169941
0.0178479
0.018476
0.0189165
0.0192096
0.0193906
0.019495
0.0195438
0.0195714
0.0195715
0.00419093
0.0056911
0.00993061
0.0130602
0.0157491
0.0174152
0.0172755
0.0153326
0.0113476
0.00530259
-0.00264117
-0.011697
-0.0200249
-0.0273375
-0.0339332
-0.0388725
-0.0416227
-0.0414746
-0.0382724
-0.0325576
-0.02533
-0.0186999
-0.00989752
-0.00363893
0.000634859
0.00257766
0.00313889
0.00301453
0.00286259
0.0032409
0.00444422
0.00622236
0.00842836
0.0108425
0.0130322
0.0148799
0.0163646
0.017498
0.0183223
0.0188929
0.0192643
0.0194871
0.0196018
0.0196467
0.0196426
0.0196242
0.0195815
0.00349592
0.00491002
0.00873053
0.0117556
0.0146319
0.0165511
0.0173876
0.0164643
0.0137204
0.00880646
0.00174452
-0.00720141
-0.0172809
-0.0262214
-0.0342101
-0.040783
-0.0452613
-0.0468788
-0.0451238
-0.0401791
-0.0330876
-0.0249156
-0.0184375
-0.0110227
-0.00597697
-0.00297252
-0.00192723
-0.00192683
-0.0021106
-0.00182408
-0.000428922
0.00183849
0.00456315
0.0078794
0.0109117
0.0134389
0.0154581
0.0169841
0.0180817
0.018833
0.0193161
0.019599
0.0197396
0.0197811
0.0197628
0.019704
0.0196383
0.0195525
0.00295464
0.00420522
0.00760521
0.01044
0.0133044
0.0155101
0.0168051
0.0168017
0.0151193
0.011415
0.00542538
-0.00285304
-0.0129806
-0.0242175
-0.0335773
-0.0419629
-0.04808
-0.0513875
-0.0512643
-0.0474726
-0.0407636
-0.0324518
-0.0240588
-0.0186823
-0.0129449
-0.00938373
-0.0077672
-0.00763153
-0.0080604
-0.0079739
-0.00674889
-0.00408933
-0.000946921
0.00363875
0.00788607
0.0113598
0.0141422
0.0162288
0.0177114
0.0187152
0.0193544
0.0197255
0.0199057
0.0199563
0.019921
0.0198381
0.0197244
0.0196112
0.0194838
0.00251381
0.00358935
0.00658287
0.00919479
0.0119339
0.0142412
0.0158864
0.0165033
0.0157238
0.0131281
0.00834314
0.00108783
-0.00860337
-0.0200082
-0.0323381
-0.0417227
-0.0500569
-0.0549053
-0.0564328
-0.0540218
-0.0481
-0.0399194
-0.0311039
-0.0236334
-0.0196467
-0.0159995
-0.0141078
-0.0139742
-0.0146489
-0.0151685
-0.0142552
-0.0115782
-0.00799917
-0.00237905
0.00364429
0.00834677
0.0122131
0.0151119
0.0171458
0.0185059
0.0193645
0.0198605
0.0201023
0.020171
0.020128
0.0200154
0.0198686
0.0197017
0.0195421
0.0193735
0.00214118
0.00307018
0.00569493
0.00805931
0.0106169
0.0128975
0.0147333
0.0157739
0.0156922
0.0140746
0.0104636
0.00441967
-0.00429091
-0.0155154
-0.0281014
-0.0412324
-0.0500877
-0.0574577
-0.060369
-0.0595497
-0.0546826
-0.0469542
-0.0380655
-0.02979
-0.0238632
-0.021783
-0.0204817
-0.0203874
-0.0217395
-0.0228697
-0.0228517
-0.0204068
-0.0159332
-0.00965707
-0.00173772
0.00415085
0.00937732
0.0134457
0.0162816
0.0181532
0.0193224
0.0199958
0.0203276
0.0204301
0.0203838
0.0202475
0.0200596
0.0198519
0.0196347
0.019432
0.0192229
0.00182629
0.00264131
0.00494714
0.00706219
0.00940305
0.0115895
0.0134796
0.0147907
0.0152177
0.0143898
0.0118472
0.00706942
-0.000414718
-0.010698
-0.0234009
-0.0368189
-0.0501603
-0.0576641
-0.0633297
-0.0636218
-0.0601837
-0.0532414
-0.0444877
-0.0359104
-0.0290533
-0.0252237
-0.0253449
-0.0266789
-0.0283892
-0.0309459
-0.0318083
-0.0303834
-0.0256339
-0.0185652
-0.0090513
-0.00133334
0.00538625
0.0109734
0.0149552
0.0175731
0.0191895
0.0201161
0.0205786
0.0207348
0.0206951
0.0205354
0.0203097
0.0200511
0.0197871
0.0195235
0.019281
0.0190342
0.00156739
0.00229072
0.0043253
0.00620945
0.00832729
0.0103721
0.0122371
0.0136844
0.0144613
0.0142381
0.0126
0.00901463
0.00291097
-0.0061341
-0.017941
-0.0318161
-0.0454364
-0.0580361
-0.0638859
-0.0667771
-0.0641182
-0.0583765
-0.0501624
-0.0414665
-0.0341721
-0.029419
-0.0280051
-0.0305145
-0.0348383
-0.0379899
-0.0410335
-0.0405629
-0.0367524
-0.0289612
-0.01906
-0.00878037
-0.000120965
0.00749884
0.0129486
0.0166296
0.0189013
0.0201946
0.0208472
0.0210866
0.0210654
0.0208871
0.02062
0.0203115
0.019989
0.0196743
0.0193688
0.0190893
0.0188086
0.0013599
0.00200798
0.00381339
0.00549425
0.00739941
0.0092827
0.011068
0.0125619
0.0135556
0.0137723
0.0128545
0.0103209
0.00556463
-0.00197675
-0.0125538
-0.0255969
-0.0400548
-0.0529947
-0.0641129
-0.0676368
-0.0668874
-0.0619487
-0.0546676
-0.0462625
-0.038725
-0.0334924
-0.0311732
-0.0324249
-0.0375232
-0.0449027
-0.0485848
-0.0509854
-0.0479322
-0.0408916
-0.0299716
-0.0179937
-0.00694079
0.00286964
0.0100995
0.0151431
0.0183493
0.0201843
0.0211166
0.0214827
0.0214993
0.0213074
0.0209992
0.0206343
0.0202521
0.0198735
0.0195146
0.0191726
0.0188602
0.0185487
0.00119816
0.00178349
0.00339736
0.00490358
0.00661472
0.0083348
0.0100107
0.0114901
0.0126023
0.0131213
0.012751
0.0110822
0.00756174
0.00153578
-0.00742617
-0.0192872
-0.0330127
-0.0472482
-0.0584129
-0.0674842
-0.0673713
-0.0640713
-0.0576546
-0.0499351
-0.042508
-0.0369737
-0.0341164
-0.0344712
-0.0388929
-0.0465593
-0.0561363
-0.0591158
-0.0594836
-0.0527511
-0.0421942
-0.0287081
-0.015122
-0.00310787
0.00628169
0.0129745
0.0173883
0.0200013
0.0213539
0.0219136
0.0219977
0.0218026
0.0214529
0.0210281
0.0205776
0.0201324
0.0197063
0.0193101
0.0189372
0.0185958
0.0182569
0.00107345
0.00161092
0.00306425
0.00442211
0.00596201
0.00752663
0.00908236
0.0105086
0.0116711
0.0123851
0.012413
0.011423
0.00894599
0.00436087
-0.0029323
-0.0130981
-0.025764
-0.0393971
-0.0524928
-0.0609071
-0.067326
-0.0638136
-0.0591327
-0.0521466
-0.0451922
-0.039626
-0.0363103
-0.0361145
-0.0399384
-0.0477712
-0.0564761
-0.0674395
-0.0680245
-0.0651429
-0.0543861
-0.040616
-0.025202
-0.0106896
0.00121471
0.00998009
0.0158867
0.0195274
0.0214946
0.0223572
0.0225557
0.0223758
0.0219879
0.0214984
0.0209735
0.0204514
0.0199544
0.0194902
0.019064
0.0186654
0.018299
0.017936
0.000982061
0.00148089
0.00280424
0.00403489
0.00542657
0.00684972
0.00828446
0.00963793
0.0108035
0.011635
0.0119415
0.0114621
0.0098221
0.00648617
0.00082955
-0.00754498
-0.0185139
-0.0313066
-0.043973
-0.0550484
-0.0605466
-0.0639155
-0.0583838
-0.0529094
-0.0464375
-0.0411534
-0.0375739
-0.0371498
-0.0407323
-0.0474218
-0.0575019
-0.0668982
-0.0771441
-0.0735089
-0.0669927
-0.0528237
-0.0364457
-0.0199277
-0.00541342
0.0058389
0.0136698
0.0186271
0.0214417
0.0227623
0.0231585
0.0230249
0.0226081
0.0220519
0.0214445
0.0208375
0.0202586
0.019722
0.0192291
0.0187797
0.0183606
0.017973
0.017589
0.00091567
0.00138817
0.00260476
0.00372993
0.00499338
0.00629095
0.00761127
0.00888283
0.0100234
0.0109163
0.0114114
0.0113044
0.010306
0.00799439
0.00379481
-0.00275981
-0.0119083
-0.0231089
-0.0352327
-0.0461813
-0.0546336
-0.0574166
-0.058257
-0.0517269
-0.0463409
-0.0413353
-0.0380985
-0.0377489
-0.0406559
-0.0463854
-0.0559968
-0.0679917
-0.076405
-0.0841284
-0.074856
-0.0649192
-0.04825
-0.0303085
-0.0136276
0.000205108
0.0103875
0.0170938
0.0210513
0.023049
0.0237625
0.023739
0.0233126
0.0226924
0.0219966
0.0212946
0.0206245
0.0200041
0.0194399
0.0189272
0.0184612
0.0180264
0.017621
0.0172187
0.000882351
0.00131825
0.00246037
0.00349275
0.00464986
0.00583632
0.00705196
0.00824067
0.0093393
0.0102564
0.0108732
0.0110315
0.0105115
0.00899297
0.00601877
0.00110577
-0.00611522
-0.0156272
-0.0262735
-0.0370441
-0.0458329
-0.0514328
-0.0518985
-0.050991
-0.0446816
-0.040365
-0.037813
-0.0374482
-0.0394452
-0.044675
-0.0537459
-0.0655217
-0.0775036
-0.0841383
-0.0871762
-0.0731052
-0.059507
-0.0413525
-0.0230167
-0.00695821
0.00569795
0.0145628
0.0200953
0.0230665
0.0243032
0.0244782
0.0240921
0.0234185
0.0226323
0.021827
0.0210545
0.0203406
0.0196941
0.0191137
0.0185897
0.0181131
0.0176664
0.0172462
0.0168278
0.000873643
0.0012828
0.00235263
0.00331858
0.00438131
0.00547358
0.0065942
0.00770337
0.00875181
0.00966815
0.0103594
0.0107025
0.010531
0.00960926
0.00759525
0.00404962
-0.00139024
-0.00921779
-0.0181139
-0.0276331
-0.0365564
-0.0429793
-0.0459029
-0.0448683
-0.0430197
-0.038242
-0.0360762
-0.0356727
-0.0372701
-0.0421707
-0.0508351
-0.0621312
-0.0744099
-0.0849115
-0.0876792
-0.0848653
-0.0678308
-0.0516369
-0.0331009
-0.0153445
-0.000476004
0.0107136
0.0181912
0.0225786
0.0246221
0.0251926
0.0249089
0.0242206
0.0233493
0.0224356
0.0215511
0.0207323
0.019994
0.0193357
0.0187498
0.0182219
0.0177396
0.0172844
0.0168515
0.0164186
0.00125361
0.00229576
0.00318852
0.00418235
0.0051885
0.00622689
0.0072608
0.00825609
0.0091561
0.00988836
0.0103572
0.0104362
0.0099523
0.00866008
0.00621523
0.00224083
-0.00395826
-0.0111593
-0.0189713
-0.0271345
-0.0338654
-0.0379919
-0.0388489
-0.0372036
-0.0353878
-0.0331024
-0.0326254
-0.0342482
-0.0388869
-0.0469606
-0.0579133
-0.0702649
-0.0813156
-0.088396
-0.0852939
-0.0788753
-0.0599605
-0.0425094
-0.0244682
-0.00793881
0.00541686
0.015039
0.0211793
0.0244895
0.0257077
0.0257253
0.0250635
0.024136
0.0231164
0.0221132
0.0211794
0.0203382
0.0195934
0.018937
0.0183551
0.0178296
0.0173455
0.0168838
0.0164396
0.0159929
0.00225472
0.00311679
0.0040342
0.00497574
0.00593687
0.0069036
0.00784473
0.00871905
0.00946913
0.0100208
0.0102771
0.0101112
0.00934731
0.00774214
0.00495146
0.000618219
-0.00536418
-0.0111929
-0.0183959
-0.0247809
-0.0293243
-0.0315083
-0.0311371
-0.0297371
-0.0287746
-0.0289919
-0.0304089
-0.0348253
-0.0421978
-0.0525912
-0.0649127
-0.0768639
-0.0850139
-0.0868785
-0.0790885
-0.070414
-0.0508077
-0.0332421
-0.0162417
-0.00124446
0.0104792
0.0185712
0.023488
0.0258302
0.0263526
0.0259124
0.0249589
0.0238553
0.0227344
0.0216784
0.0207247
0.0198833
0.0191489
0.0185064
0.0179365
0.0174183
0.0169349
0.0164678
0.0160125
0.0155519
0.00306429
0.0039503
0.00481742
0.00571915
0.00662014
0.00751042
0.00835276
0.00910482
0.00970819
0.0100888
0.0101504
0.00977061
0.00877573
0.00693193
0.00392437
-0.000335262
-0.00471995
-0.0106422
-0.0163662
-0.0208041
-0.0234749
-0.02427
-0.0235257
-0.0230435
-0.0232882
-0.0262307
-0.0298877
-0.0367883
-0.0463794
-0.0583247
-0.0706678
-0.08056
-0.0846283
-0.081605
-0.0710403
-0.060241
-0.0415263
-0.0246563
-0.00890633
0.00448574
0.0145932
0.0212934
0.0251305
0.0266978
0.0265862
0.0257773
0.0246195
0.0233983
0.0222205
0.0211472
0.0202006
0.01938
0.0186713
0.0180529
0.0175014
0.0169934
0.0165116
0.0160386
0.0155715
0.0150957
0.00389106
0.00472576
0.00555697
0.00640628
0.00724367
0.00805247
0.00879494
0.00942756
0.00989302
0.0101185
0.0100132
0.00946116
0.00829978
0.00632073
0.00338947
-0.000279026
-0.00430044
-0.0091892
-0.0129305
-0.0156779
-0.0169321
-0.0169691
-0.0165538
-0.0173777
-0.0190438
-0.0249428
-0.0306279
-0.0396442
-0.0507937
-0.0631002
-0.0739679
-0.0805256
-0.0804298
-0.0739093
-0.06192
-0.0499427
-0.0330788
-0.0171826
-0.00269416
0.00913166
0.0177402
0.0232465
0.0261842
0.0270755
0.0264337
0.0253604
0.0240722
0.0227868
0.0215942
0.0205362
0.0196225
0.0188417
0.0181719
0.0175857
0.0170565
0.0165599
0.0160788
0.015598
0.0151169
0.0146235
0.00466316
0.00546154
0.00624651
0.00704125
0.00781118
0.0085377
0.00918274
0.0097033
0.0100449
0.0101378
0.00990178
0.00923061
0.00798912
0.00604448
0.00343294
0.000287882
-0.00337113
-0.00617302
-0.00854716
-0.00992348
-0.0102735
-0.0101374
-0.0105092
-0.0128746
-0.0160656
-0.0249033
-0.0322984
-0.0428348
-0.0544918
-0.0658466
-0.0740868
-0.0769663
-0.0735328
-0.0650371
-0.0530839
-0.040951
-0.0258507
-0.0109723
0.00230823
0.0126646
0.0199899
0.0244995
0.0266711
0.0268871
0.025947
0.0247023
0.0233436
0.0220441
0.0208754
0.0198639
0.0190066
0.0182825
0.0176621
0.0171136
0.0166081
0.0161216
0.0156384
0.0151463
0.0146478
0.0141335
0.00539927
0.00615229
0.00688959
0.00762682
0.00832892
0.00897532
0.00952913
0.00994916
0.0101849
0.0101758
0.00985251
0.00912942
0.0079198
0.00616872
0.00393196
0.00147798
-0.000743384
-0.00248013
-0.00363302
-0.00403231
-0.00397062
-0.00410744
-0.00552772
-0.00958509
-0.014315
-0.0258607
-0.0343638
-0.0455101
-0.0566264
-0.0659203
-0.0710813
-0.0708648
-0.0654646
-0.0564313
-0.0456098
-0.0333754
-0.0200442
-0.00604854
0.00607766
0.0151486
0.0214637
0.0251363
0.0265679
0.0262826
0.0251797
0.0238352
0.0224619
0.0211938
0.0200862
0.01915
0.0183704
0.0177168
0.0171533
0.0166448
0.0161616
0.0156814
0.0151913
0.0146828
0.0141624
0.0136227
0.00609048
0.00679995
0.0074883
0.00816794
0.00880429
0.00937583
0.00984784
0.0101828
0.0103368
0.0102612
0.00990244
0.00920656
0.00813354
0.00667453
0.00497331
0.00346846
0.00231645
0.00162414
0.00141216
0.00157839
0.00165107
0.000938701
-0.00165742
-0.00746278
-0.0137352
-0.0272522
-0.0359666
-0.0470103
-0.0566346
-0.063354
-0.0658043
-0.0636636
-0.0576867
-0.0490468
-0.039866
-0.0275468
-0.0156943
-0.00238659
0.00864949
0.0167479
0.0222826
0.0252249
0.0259823
0.0253848
0.024165
0.0227906
0.0214542
0.0202611
0.0192496
0.0184155
0.0177319
0.0171592
0.0166563
0.0161864
0.0157208
0.0152405
0.0147368
0.0142054
0.0136575
0.0130871
0.00674056
0.00740592
0.00804641
0.00867065
0.00924583
0.00975032
0.0101532
0.0104226
0.0105236
0.0104211
0.0100846
0.00949176
0.00863738
0.00757978
0.00656619
0.0059188
0.00568604
0.00583645
0.00623194
0.00660608
0.00639503
0.0049138
0.00111848
-0.00635357
-0.0140442
-0.0281801
-0.0369628
-0.0467626
-0.0544582
-0.0589267
-0.0596331
-0.0568858
-0.0510819
-0.0440993
-0.0358381
-0.0232676
-0.0127748
7.97967e-05
0.0101761
0.017677
0.0225314
0.0247909
0.0250276
0.0242093
0.022941
0.0215982
0.0203488
0.0192728
0.0183908
0.0176827
0.0171096
0.0166237
0.0161806
0.0157437
0.0152878
0.0147985
0.0142726
0.0137107
0.0131287
0.0125219
0.00735081
0.00797361
0.00856895
0.00914199
0.00966251
0.0101104
0.01046
0.0106861
0.0107651
0.010679
0.0104198
0.00999367
0.00943606
0.00886859
0.00853666
0.00864567
0.00914616
0.00986188
0.0105617
0.01086
0.0101615
0.00779808
0.00288843
-0.0059371
-0.0146777
-0.0294155
-0.0367327
-0.0447859
-0.0508389
-0.053874
-0.0540048
-0.0514306
-0.0469342
-0.040604
-0.0336329
-0.0204095
-0.0111994
0.00154135
0.010941
0.0180891
0.0222525
0.0238661
0.0237347
0.0227899
0.021541
0.0202881
0.0191755
0.018258
0.0175369
0.0169749
0.0165217
0.0161232
0.0157337
0.0153199
0.0148621
0.0143527
0.0137946
0.0131939
0.012571
0.011922
0.00792467
0.00850743
0.00906185
0.00958937
0.0100637
0.0104678
0.0107817
0.0109888
0.0110785
0.0110496
0.0109154
0.0107107
0.0105078
0.0104471
0.0107327
0.0114575
0.0124603
0.0134882
0.0142333
0.0142435
0.0129334
0.00965339
0.00383933
-0.00587864
-0.01531
-0.0293093
-0.0350634
-0.0419024
-0.0469205
-0.049464
-0.0498799
-0.047765
-0.0447204
-0.0389175
-0.0331731
-0.0190311
-0.0106699
0.00234786
0.0112464
0.0180241
0.0214483
0.0225077
0.0221414
0.0211612
0.0199959
0.0188919
0.0179672
0.0172489
0.0167168
0.0163159
0.0159854
0.0156679
0.0153202
0.0149153
0.0144412
0.0138986
0.0132974
0.0126493
0.0119786
0.0112819
0.0084661
0.00901277
0.00953136
0.0100205
0.0104592
0.0108334
0.0111303
0.0113434
0.0114745
0.0115382
0.0115685
0.0116237
0.0117923
0.0122064
0.0130077
0.0141714
0.0154638
0.0165805
0.0171671
0.0167465
0.0147832
0.010642
0.00420033
-0.00607597
-0.015884
-0.0277985
-0.0330595
-0.0391346
-0.0437972
-0.0466266
-0.047351
-0.0470447
-0.0440341
-0.0390789
-0.034333
-0.0191217
-0.0105669
0.00276478
0.0113152
0.0174508
0.0201384
0.0207752
0.020287
0.0193512
0.0183377
0.0174452
0.0167614
0.0162813
0.0159612
0.0157285
0.0155154
0.0152654
0.0149415
0.0145268
0.0140194
0.0134295
0.0127742
0.0120703
0.0113456
0.0105962
0.00897971
0.00949514
0.00998406
0.0104436
0.0108576
0.0112164
0.0115157
0.0117579
0.0119568
0.0121421
0.0123636
0.0126912
0.0132134
0.0140366
0.0152207
0.016652
0.0180504
0.0190759
0.0193638
0.0184402
0.0158602
0.0109889
0.00413775
-0.00612771
-0.0157263
-0.0264938
-0.0315213
-0.0373313
-0.042267
-0.04569
-0.0475007
-0.0479027
-0.0452781
-0.0410225
-0.0366564
-0.0199453
-0.0105597
0.00285194
0.0110877
0.0163219
0.0183581
0.0187085
0.0181978
0.017388
0.0166027
0.0159895
0.0156007
0.0153942
0.0153006
0.0152335
0.0151227
0.0149182
0.0145945
0.014148
0.0135888
0.0129371
0.0122171
0.0114501
0.0106663
0.00986049
0.00947058
0.0099604
0.0104269
0.0108657
0.0112663
0.0116249
0.0119439
0.012235
0.0125231
0.0128491
0.013271
0.0138595
0.0146917
0.0158306
0.0172608
0.0188087
0.0201643
0.0209697
0.0208876
0.0194476
0.0163345
0.0109164
0.00378171
-0.00620274
-0.0157844
-0.0257588
-0.0309909
-0.0371303
-0.0427109
-0.0467768
-0.0503292
-0.0501374
-0.0487247
-0.0441729
-0.0387431
-0.0211984
-0.0102147
0.00284709
0.0103693
0.0146125
0.016142
0.0163313
0.0158961
0.0153047
0.0148347
0.0145749
0.0145348
0.0146285
0.0147641
0.0148472
0.0148126
0.0146236
0.0142716
0.013769
0.0131391
0.0124119
0.0116179
0.0107821
0.00993545
0.00907116
0.00994413
0.0104148
0.010866
0.0112931
0.0116919
0.0120633
0.012417
0.0127729
0.013164
0.0136374
0.0142517
0.0150712
0.0161482
0.0174998
0.0190493
0.0205879
0.0217833
0.0222948
0.0218231
0.019899
0.0163314
0.0105574
0.00319187
-0.00660872
-0.0164336
-0.0261792
-0.0320142
-0.0388834
-0.0452053
-0.0509345
-0.0540491
-0.0552411
-0.0534567
-0.0473561
-0.0399591
-0.0223361
-0.0094897
0.00255897
0.00898297
0.012331
0.013509
0.013654
0.0134069
0.0131426
0.0130893
0.0132632
0.0136177
0.0140248
0.0143766
0.0145795
0.0145834
0.0143726
0.0139604
0.0133768
0.0126581
0.0118435
0.0109682
0.01006
0.00914857
0.00822606
0.0104062
0.0108639
0.0113065
0.011731
0.0121379
0.0125333
0.0129333
0.0133642
0.0138631
0.0144783
0.0152641
0.0162683
0.0175147
0.0189787
0.0205368
0.0219615
0.0229228
0.0230994
0.0222457
0.0198904
0.0159153
0.00985631
0.00218437
-0.00771813
-0.0180924
-0.02824
-0.0349558
-0.0427742
-0.0503056
-0.0568799
-0.0608952
-0.0617587
-0.0583299
-0.04941
-0.0407217
-0.0216365
-0.00872306
0.0015939
0.00685351
0.00948391
0.0104536
0.0106832
0.0107622
0.0109573
0.0114413
0.012126
0.0129059
0.0136209
0.0141547
0.0144301
0.014424
0.0141502
0.0136448
0.012956
0.0121327
0.0112214
0.0102605
0.00927903
0.00830339
0.00732498
0.0108617
0.0113122
0.0117532
0.0121825
0.0126055
0.0130336
0.0134874
0.0139965
0.0145993
0.0153411
0.016265
0.0173992
0.0187386
0.0202232
0.0216976
0.0229364
0.0236613
0.0234492
0.0222092
0.019453
0.015077
0.00867417
0.00052919
-0.00983071
-0.0211584
-0.0321844
-0.040145
-0.0492029
-0.0586714
-0.0652955
-0.0693935
-0.0683944
-0.0620104
-0.0497772
-0.0389837
-0.0202841
-0.00864392
-0.000250938
0.00395101
0.00604095
0.006956
0.00743043