/*--------------------------------*- C++ -*----------------------------------*\
| =========                 |                                                 |
| \\      /  F ield         | OpenFOAM: The Open Source CFD Toolbox           |
|  \\    /   O peration     | Version:  2506                                  |
|   \\  /    A nd           | Website:  www.openfoam.com                      |
|    \\/     M anipulation  |                                                 |
\*---------------------------------------------------------------------------*/
FoamFile
{
    version     2.0;
    format      ascii;
    arch        "LSB;label=32;scalar=64";
    class       volVectorField;
    location    "39.983397905";
    object      U_0;
}
// * * * * * * * * * * * * * * * * * * * * * * * * * * * * * * * * * * * * * //

dimensions      [0 1 -1 0 0 0 0];

internalField   nonuniform List<vector> 
9700
(
(1.07411 0.000183815 2.31267e-22)
(1.07423 0.000534156 -2.94009e-24)
(1.07356 0.00025859 2.46716e-28)
(1.07445 0.000801181 -3.02697e-22)
(1.07374 0.000769853 -2.95759e-24)
(1.07308 0.00033816 -2.28052e-22)
(1.07478 0.000917657 3.61227e-24)
(1.07413 0.00121889 -2.548e-35)
(1.07328 0.00101116 -2.28443e-22)
(1.07236 0.000435594 0)
(1.07524 0.000802051 2.21427e-22)
(1.07473 0.00154411 7.83458e-24)
(1.07372 0.00163937 -1.70415e-21)
(1.07259 0.00131057 -2.27094e-23)
(1.07148 0.000543603 2.23132e-22)
(1.07586 0.000366576 1.95919e-22)
(1.07561 0.0016798 -3.8884e-27)
(1.07442 0.00216974 -2.37976e-22)
(1.07308 0.00216139 5.38574e-35)
(1.0717 0.00164245 2.30179e-22)
(1.07037 0.000656144 3.60778e-28)
(1.07668 -0.000495399 -7.01644e-23)
(1.07679 0.00154959 4.90994e-27)
(1.07542 0.00255114 -2.36154e-22)
(1.07389 0.00294838 4.91558e-23)
(1.07222 0.00273846 1.66708e-21)
(1.07059 0.00199005 -4.21203e-24)
(1.06906 0.000766475 -2.13448e-22)
(1.07772 -0.00190775 2.30588e-22)
(1.07833 0.00106161 1.62455e-22)
(1.07678 0.00272139 -2.20213e-22)
(1.07505 0.00363736 0)
(1.07308 0.00380907 2.18305e-22)
(1.07111 0.00334146 -7.92112e-36)
(1.06925 0.00233232 -2.11701e-22)
(1.06755 0.000868106 -1.75544e-21)
(1.07897 -0.0040299 8.37923e-23)
(1.08033 0.000103664 -6.06605e-22)
(1.07857 0.00260444 -1.72457e-22)
(1.07662 0.00418533 0)
(1.07431 0.00483863 2.20581e-22)
(1.07197 0.00470915 8.65679e-24)
(1.06974 0.00393406 -1.48028e-25)
(1.06771 0.00264918 -2.06019e-21)
(1.06585 0.000954957 -5.15074e-25)
(1.08041 -0.00716976 -9.85766e-23)
(1.08285 -0.0014687 -2.77441e-22)
(1.08089 0.00210456 -2.3615e-21)
(1.07871 0.00453897 -7.79975e-38)
(1.07599 0.00580727 2.37653e-22)
(1.07322 0.00609604 -3.57766e-27)
(1.07056 0.00559425 -2.35983e-22)
(1.06814 0.00448144 -2.79582e-22)
(1.06596 0.00292165 2.70547e-22)
(1.06401 0.00102164 1.64438e-21)
(1.08227 -0.0116361 1.17666e-22)
(1.08578 -0.00391419 2.72215e-23)
(1.08386 0.00109529 4.98443e-22)
(1.08142 0.00462931 9.62275e-24)
(1.07822 0.0066891 2.71225e-22)
(1.07492 0.00750791 3.43318e-27)
(1.07176 0.00733353 -2.37299e-22)
(1.06887 0.0064124 -2.10714e-21)
(1.06631 0.00495081 2.72023e-22)
(1.06407 0.00313294 1.74139e-21)
(1.06206 0.00106383 0)
(1.08428 -0.0175969 -5.99068e-23)
(1.08918 -0.00752504 1.14375e-23)
(1.0876 -0.000607897 1.47958e-21)
(1.0849 0.00435922 -2.82954e-23)
(1.08113 0.00745043 2.51175e-21)
(1.07719 0.00894864 6.649e-23)
(1.07339 0.00918416 -2.17144e-22)
(1.06994 0.00847835 -1.92301e-21)
(1.06692 0.00711459 7.46323e-23)
(1.06431 0.00531324 -1.3613e-25)
(1.06206 0.00326952 -1.2562e-36)
(1.06006 0.00107854 1.80864e-22)
(1.08648 -0.0252813 -5.65133e-23)
(1.09319 -0.0124708 -2.32087e-23)
(1.0922 -0.00325011 -1.3258e-22)
(1.0893 0.0035991 4.61543e-23)
(1.0849 0.00804155 -5.28477e-22)
(1.08016 0.0104235 -5.53866e-25)
(1.07557 0.0111801 -1.63894e-22)
(1.07142 0.010737 -1.9686e-21)
(1.06781 0.00946185 1.1809e-27)
(1.06476 0.0076577 1.75695e-21)
(1.06219 0.00554562 3.40772e-36)
(1.05999 0.00332201 1.96955e-22)
(1.05805 0.00106419 1.22594e-27)
(1.08786 -0.0348397 9.11652e-23)
(1.0981 -0.0189668 5.47081e-35)
(1.09748 -0.00703831 -1.60244e-22)
(1.09468 0.00220475 3.74691e-22)
(1.08968 0.00839506 -1.83014e-21)
(1.084 0.0119333 1.20872e-22)
(1.07842 0.0133667 -2.62434e-21)
(1.07338 0.0132502 -2.26046e-21)
(1.06904 0.012073 -1.29902e-27)
(1.06542 0.0102238 1.80369e-21)
(1.06245 0.0080074 -1.29936e-36)
(1.05999 0.00563207 1.23783e-25)
(1.05792 0.00328531 -1.3243e-23)
(1.05609 0.00102067 -1.52186e-22)
(1.08739 -0.0460999 4.66113e-22)
(1.10225 -0.0270059 5.35282e-22)
(1.10287 -0.0119652 -7.04397e-22)
(1.10087 7.91824e-05 6.55221e-22)
(1.09553 0.00844473 2.24985e-22)
(1.08889 0.0134794 -3.11061e-23)
(1.08211 0.0157967 -2.07392e-21)
(1.07595 0.0161012 -1.86079e-21)
(1.07068 0.0150338 4.14816e-22)
(1.06634 0.0131105 1.91631e-21)
(1.06284 0.0107166 0)
(1.06005 0.00814036 1.52987e-22)
(1.05779 0.00556425 -8.09537e-36)
(1.0559 0.00315886 -1.40152e-22)
(1.05423 0.000949308 -1.86886e-22)
(1.08448 -0.0590364 -2.29448e-21)
(1.10416 -0.0364581 3.10954e-22)
(1.10747 -0.017891 1.97279e-22)
(1.1072 -0.00272662 6.36519e-35)
(1.10213 0.0081988 8.66257e-23)
(1.09482 0.0150846 -6.36468e-23)
(1.08681 0.0185393 2.1071e-21)
(1.07928 0.0193913 -2.77299e-21)
(1.07282 0.01846 1.74154e-21)
(1.06755 0.0164217 2.18086e-21)
(1.06339 0.0137854 0)
(1.06016 0.0109083 1.58953e-22)
(1.05764 0.00804466 3.01364e-23)
(1.05565 0.00534176 -1.18327e-21)
(1.054 0.00294648 -4.51908e-22)
(1.05253 0.000852687 -2.54724e-28)
(1.07816 -0.0736202 -6.3112e-22)
(1.10313 -0.0473506 -1.84374e-23)
(1.11021 -0.0248715 2.17974e-21)
(1.11269 -0.00605523 -1.6765e-21)
(1.10869 0.00784351 2.54809e-21)
(1.10137 0.0168661 -6.79024e-22)
(1.09244 0.0217015 -2.42003e-22)
(1.0835 0.0232531 -5.10562e-22)
(1.07559 0.0224944 2.21706e-21)
(1.06914 0.0202978 -2.88977e-23)
(1.06412 0.017329 -9.30213e-36)
(1.06031 0.0140556 2.40733e-22)
(1.05745 0.0107832 -1.41717e-26)
(1.0553 0.00772027 -2.06988e-22)
(1.05363 0.00497178 -1.92867e-22)
(1.05225 0.00265577 1.55528e-22)
(1.05102 0.000734579 1.58822e-22)
(1.06776 -0.0897993 -2.79895e-21)
(1.09841 -0.0596525 -2.26814e-21)
(1.11014 -0.0328696 -6.87638e-22)
(1.11634 -0.00987603 0)
(1.11427 0.00762239 4.09358e-22)
(1.10764 0.0191107 6.22208e-35)
(1.09847 0.0254932 -3.79163e-22)
(1.08848 0.0278689 -2.02626e-21)
(1.07908 0.0273232 -1.9446e-21)
(1.0712 0.0249127 4.46974e-22)
(1.06508 0.0215033 -3.38625e-22)
(1.06052 0.0177013 5.49512e-22)
(1.0572 0.0139013 1.72509e-26)
(1.05482 0.0103425 -2.1086e-22)
(1.05309 0.00717847 -8.29275e-23)
(1.05178 0.00446798 1.1664e-21)
(1.05072 0.00229779 1.78539e-22)
(1.04975 0.000599716 -1.38398e-22)
(1.05306 -0.107309 5.50016e-21)
(1.08934 -0.0737076 4.56077e-21)
(1.10666 -0.0420259 -2.95197e-21)
(1.11728 -0.01441 1.59913e-35)
(1.11827 0.00763619 2.99196e-21)
(1.11278 0.0221328 1.5707e-21)
(1.10391 0.0302645 -2.00019e-21)
(1.09356 0.0335181 -2.92896e-21)
(1.08308 0.0331883 2.67461e-22)
(1.07375 0.0304919 2.30735e-21)
(1.0663 0.0265006 3.14411e-22)
(1.06079 0.022007 2.38862e-21)
(1.05688 0.0175148 5.4442e-22)
(1.05418 0.013326 -1.21035e-22)
(1.05234 0.00960298 -1.99621e-22)
(1.05108 0.00644012 8.7915e-23)
(1.05017 0.00385001 -8.92009e-22)
(1.04943 0.00188626 -3.73005e-22)
(1.04875 0.000453392 -2.62418e-28)
(1.03331 -0.125825 1.71295e-21)
(1.07515 -0.0892922 3.13236e-21)
(1.09907 -0.053076 4.60676e-21)
(1.11526 -0.0199797 -5.94396e-36)
(1.1194 0.00696486 -6.67012e-22)
(1.11674 0.0259443 7.93881e-22)
(1.10813 0.0363325 -3.63029e-23)
(1.09775 0.0405839 -4.32538e-22)
(1.08688 0.0404111 -2.52223e-22)
(1.07654 0.0373159 2.62504e-21)
(1.06777 0.0325681 2.70376e-22)
(1.06111 0.0271701 1.75363e-21)
(1.05645 0.0217817 -6.17098e-23)
(1.05334 0.0167771 2.75297e-22)
(1.05134 0.0123541 -2.0568e-22)
(1.0501 0.00859468 3.00387e-27)
(1.04933 0.00553472 1.07798e-22)
(1.04883 0.00314195 -1.4043e-22)
(1.04842 0.00143647 2.17669e-23)
(1.04802 0.000301131 1.07707e-22)
(1.00732 -0.144747 -2.4437e-20)
(1.0555 -0.106003 -9.19004e-21)
(1.08621 -0.0657149 -1.0012e-20)
(1.10912 -0.0273342 -1.92901e-35)
(1.11874 0.00498279 -5.25043e-21)
(1.11948 0.0294357 -2.33019e-25)
(1.11159 0.0435077 2.89493e-21)
(1.10068 0.0493602 -3.56912e-21)
(1.08946 0.0493767 3.68478e-22)
(1.0788 0.0457173 2.89459e-21)
(1.06921 0.040003 -1.47604e-22)
(1.06144 0.033442 -2.18392e-21)
(1.05588 0.0268917 -7.36115e-22)
(1.05224 0.0208419 -2.17582e-21)
(1.05003 0.0155237 -3.79078e-22)
(1.04879 0.0110277 -3.74127e-27)
(1.04816 0.00735932 1.09054e-22)
(1.04789 0.00449818 4.06881e-23)
(1.04778 0.00237047 2.55993e-35)
(1.0477 0.000965235 7.21882e-23)
(1.04758 0.000147751 3.83819e-24)
(0.977009 -0.16373 -2.81091e-22)
(1.03077 -0.123209 -4.39227e-22)
(1.0675 -0.0795373 2.99051e-21)
(1.09742 -0.0361574 0)
(1.11438 0.00193003 -6.42581e-23)
(1.11931 0.0315108 -5.82682e-21)
(1.1149 0.0511115 -1.41383e-22)
(1.10322 0.0596293 -3.60124e-21)
(1.09073 0.0603774 2.06087e-21)
(1.07954 0.0560495 1.15283e-22)
(1.06981 0.049122 -2.1648e-36)
(1.06146 0.0411157 2.76674e-22)
(1.05506 0.0330842 7.00139e-23)
(1.05081 0.0256923 4.97264e-23)
(1.04832 0.0192394 -1.06237e-21)
(1.04706 0.0138129 2.42071e-22)
(1.04659 0.00940398 2.25377e-22)
(1.04657 0.00594699 -1.3956e-22)
(1.04678 0.00336995 -5.02899e-23)
(1.04705 0.00156447 1.0675e-22)
(1.04729 0.000490158 1.97715e-23)
(1.04743 -5.47012e-06 -7.56522e-22)
(0.943928 -0.182163 -7.02077e-22)
(1.00143 -0.140794 3.01415e-21)
(1.04299 -0.0939751 1.6421e-20)
(1.0795 -0.0460654 -1.00229e-35)
(1.10368 -0.00211804 3.23407e-21)
(1.11546 0.033081 1.15645e-20)
(1.11596 0.058072 -5.88155e-21)
(1.10599 0.0709176 -6.22786e-22)
(1.09195 0.0733267 -1.82436e-26)
(1.07883 0.0686084 4.00974e-21)
(1.0686 0.0602201 -1.41866e-35)
(1.06038 0.0504738 3.56013e-22)
(1.05368 0.0406313 6.85683e-23)
(1.04892 0.0315421 1.8643e-21)
(1.04613 0.0236475 7.6005e-22)
(1.04484 0.0170549 1.22838e-21)
(1.04453 0.0117219 7.25384e-22)
(1.04481 0.00755053 -1.395e-22)
(1.04538 0.00441216 3.09982e-27)
(1.04603 0.00219269 4.59093e-22)
(1.04665 0.000753364 2.21506e-22)
(1.04717 2.84967e-05 -8.88392e-22)
(1.04755 -0.000146971 -9.13405e-25)
(0.910675 -0.19982 -3.60223e-21)
(0.968716 -0.157957 2.08562e-22)
(1.01353 -0.108873 -2.58054e-21)
(1.05554 -0.0565177 -1.76521e-35)
(1.08652 -0.00720896 7.42868e-21)
(1.10556 0.03416 7.98556e-21)
(1.11193 0.0644964 -1.63207e-21)
(1.10722 0.0824782 -5.07421e-21)
(1.09397 0.0877802 -4.13817e-21)
(1.07827 0.0834842 6.49261e-21)
(1.06571 0.0735843 -1.90701e-35)
(1.05725 0.0617372 2.65531e-21)
(1.05101 0.049772 3.66593e-22)
(1.04625 0.0386295 -2.72159e-22)
(1.04327 0.0289266 -5.17776e-22)
(1.04198 0.0208694 -4.1453e-22)
(1.04189 0.0143923 -9.09533e-23)
(1.04252 0.00934053 -2.47616e-22)
(1.0435 0.00554 -3.88458e-27)
(1.04459 0.00281318 1.00417e-22)
(1.04565 0.00100972 -4.58199e-23)
(1.04657 -3.4105e-05 -7.67331e-23)
(1.04733 -0.000403873 1.54657e-22)
(1.04792 -0.000272801 5.43745e-22)
(0.878995 -0.215876 -9.49718e-24)
(0.934678 -0.17466 1.7578e-22)
(0.980232 -0.123276 3.33279e-21)
(1.02621 -0.0676184 -4.13281e-35)
(1.06304 -0.0127705 -7.15969e-21)
(1.08905 0.0344084 -2.54856e-20)
(1.10258 0.0704906 4.39233e-21)
(1.10406 0.0936239 -7.47402e-22)
(1.09501 0.103066 -4.31059e-21)
(1.079 0.100411 4.91587e-21)
(1.06297 0.0895006 0)
(1.05214 0.0751567 4.77673e-22)
(1.0461 0.0606486 1.03295e-34)
(1.04214 0.0471471 -1.86098e-22)
(1.03946 0.0352724 -1.18735e-21)
(1.03833 0.0253943 -1.34058e-21)
(1.03852 0.0174977 -2.81355e-22)
(1.03958 0.0113695 -5.54148e-22)
(1.04105 0.00676361 9.96776e-23)
(1.04267 0.00344928 9.60279e-23)
(1.04423 0.00120885 -4.61718e-23)
(1.04562 -0.000137138 -6.14533e-22)
(1.0468 -0.00076994 5.50979e-22)
(1.04775 -0.000792071 6.17472e-22)
(1.04851 -0.000379286 4.84786e-23)
(0.854937 -0.227664 -2.4911e-20)
(0.900479 -0.189533 -1.31185e-22)
(0.945296 -0.137561 -2.50317e-20)
(0.992684 -0.0782284 -6.44045e-21)
(1.03389 -0.0190414 -7.73582e-21)
(1.06604 0.0342337 -2.34024e-21)
(1.08649 0.0761358 8.20493e-21)
(1.09494 0.104428 -7.8651e-21)
(1.09197 0.11844 3.68902e-21)
(1.07939 0.118737 1.93706e-21)
(1.06186 0.10801 3.12341e-36)
(1.04691 0.0911883 1.38955e-21)
(1.03887 0.0734397 -6.38729e-23)
(1.03568 0.0571661 -4.51017e-21)
(1.03412 0.0428313 -1.37267e-21)
(1.03358 0.0307778 -1.58701e-22)
(1.03424 0.0211337 1.16803e-21)
(1.03584 0.0136871 8.90283e-22)
(1.03793 0.00810921 1.18174e-22)
(1.04017 0.00409026 1.60662e-22)
(1.04233 0.00135513 5.78129e-23)
(1.04428 -0.000344351 -6.34173e-22)
(1.04594 -0.00120816 -3.62833e-22)
(1.0473 -0.00142851 2.83321e-22)
(1.04839 -0.00112266 1.10222e-22)
(1.04929 -0.000463067 1.12081e-28)
(0.837887 -0.235915 -1.70325e-20)
(0.87378 -0.20065 8.37498e-22)
(0.909656 -0.14989 -1.81201e-23)
(0.95708 -0.0893292 7.24739e-26)
(1.00036 -0.0249021 2.94785e-22)
(1.03716 0.0334197 1.01841e-20)
(1.06386 0.0814197 -3.99283e-21)
(1.07907 0.115195 -8.29377e-21)
(1.08289 0.133786 9.78147e-21)
(1.07613 0.137688 9.20482e-22)
(1.06107 0.128576 -3.22755e-35)
(1.04342 0.110235 -9.90278e-22)
(1.03101 0.0886878 9.75114e-23)
(1.02658 0.0687616 -4.14924e-22)
(1.0264 0.0516185 -3.50597e-22)
(1.02724 0.0371211 3.28415e-22)
(1.02877 0.0253996 1.51948e-22)
(1.03113 0.0163476 -4.5687e-22)
(1.03399 0.00959497 3.01785e-37)
(1.037 0.00473723 7.03506e-22)
(1.03988 0.0014182 5.12157e-22)
(1.04248 -0.000669375 -5.54513e-22)
(1.04471 -0.00179304 9.20853e-27)
(1.04656 -0.0021663 2.67953e-22)
(1.04804 -0.00198745 -5.97684e-22)
(1.04922 -0.00138458 -8.81356e-23)
(1.05019 -0.000521165 -3.52071e-23)
(0.823337 -0.243095 -1.42321e-22)
(0.854288 -0.208563 1.18217e-20)
(0.881475 -0.159272 -3.84355e-21)
(0.919921 -0.098194 1.22106e-22)
(0.964246 -0.0318835 1.27384e-20)
(1.00388 0.0327119 7.13731e-22)
(1.0354 0.0861963 -8.38024e-21)
(1.05677 0.12566 -8.81148e-21)
(1.06714 0.149121 7.84486e-21)
(1.06699 0.15684 1.21676e-20)
(1.0573 0.150269 -1.58018e-38)
(1.04091 0.132 -1.9489e-21)
(1.02469 0.107138 -5.78432e-26)
(1.0162 0.082444 -5.16503e-22)
(1.01583 0.0615956 -3.63552e-23)
(1.01857 0.0444006 1.83424e-21)
(1.0217 0.0303519 3.43826e-22)
(1.02517 0.0194032 -1.27331e-21)
(1.02903 0.011237 -1.56592e-22)
(1.03299 0.00537925 8.53286e-22)
(1.03676 0.0013758 -6.44717e-22)
(1.04016 -0.00116049 -1.29056e-21)
(1.04308 -0.00255562 -1.14701e-26)
(1.0455 -0.00308765 3.61491e-22)
(1.04745 -0.00297874 -1.0781e-22)
(1.04899 -0.00242802 1.64274e-35)
(1.05019 -0.00156882 2.08736e-24)
(1.05119 -0.000551623 0)
(0.811736 -0.249146 3.69798e-21)
(0.837285 -0.215203 -1.10065e-20)
(0.860725 -0.16618 3.26468e-20)
(0.890215 -0.105774 1.38768e-20)
(0.92623 -0.0362191 1.08809e-21)
(0.967468 0.0305418 6.12875e-22)
(1.00254 0.0905803 1.39258e-21)
(1.02887 0.135625 -7.15735e-21)
(1.04521 0.164138 -1.00905e-20)
(1.05141 0.175924 1.89026e-20)
(1.04807 0.172312 0)
(1.03633 0.155433 6.50854e-21)
(1.01992 0.128872 -1.89996e-21)
(1.00681 0.0991906 5.81929e-22)
(1.00328 0.0731288 -4.56182e-22)
(1.00698 0.0524809 1.29017e-22)
(1.0124 0.0359423 -1.18971e-21)
(1.01763 0.0228668 -1.33683e-21)
(1.02283 0.0130441 -1.74774e-22)
(1.02798 0.00599838 -2.35646e-22)
(1.03284 0.00119071 -6.7125e-22)
(1.0372 -0.00186138 -1.93842e-22)
(1.04097 -0.00356004 7.05757e-22)
(1.04409 -0.00424004 2.53602e-22)
(1.0466 -0.00418436 2.64261e-23)
(1.04856 -0.00361834 1.94772e-22)
(1.05008 -0.00273509 1.55064e-22)
(1.05125 -0.00166908 1.0149e-23)
(1.05221 -0.000553658 -2.71981e-22)
(0.803411 -0.253978 -8.77718e-21)
(0.823179 -0.220617 -1.05664e-21)
(0.842435 -0.171684 7.64854e-21)
(0.868167 -0.111802 -7.54864e-21)
(0.895647 -0.0417921 1.07332e-20)
(0.92962 0.0311487 3.26317e-22)
(0.966289 0.0935568 3.0537e-21)
(0.996656 0.144758 -1.31079e-20)
(1.01803 0.178534 -1.3614e-20)
(1.02998 0.194596 2.35933e-20)
(1.03275 0.194205 -2.31295e-36)
(1.02699 0.179414 -1.25511e-20)
(1.01414 0.152897 4.80273e-21)
(0.99924 0.119559 -1.80535e-21)
(0.990884 0.0872407 5.8667e-21)
(0.992834 0.0615192 7.42935e-22)
(1.00023 0.0419722 1.0278e-22)
(1.00798 0.0266729 -1.53979e-22)
(1.01508 0.0149888 1.45909e-22)
(1.02175 0.00656561 -1.02881e-21)
(1.02795 0.000815341 -1.81225e-22)
(1.0335 -0.0028327 1.07148e-21)
(1.03828 -0.00486946 4.54712e-22)
(1.04226 -0.00570131 5.55941e-23)
(1.04546 -0.00566633 1.42755e-23)
(1.04795 -0.00504673 -1.20445e-27)
(1.04984 -0.00406312 -9.60229e-23)
(1.05126 -0.00289818 -1.09294e-22)
(1.05233 -0.00168217 -2.56386e-22)
(1.05322 -0.000527429 5.29677e-26)
(0.798513 -0.257701 -8.36033e-21)
(0.812283 -0.224777 -3.05252e-21)
(0.827028 -0.176012 -3.71773e-21)
(0.848414 -0.116383 2.48138e-20)
(0.872844 -0.046752 -1.46035e-21)
(0.898923 0.027549 -3.71201e-21)
(0.929056 0.0983771 0)
(0.961335 0.152399 6.91162e-21)
(0.986859 0.191732 -1.19447e-20)
(1.00373 0.212446 3.65685e-21)
(1.01199 0.215533 2.88793e-34)
(1.01207 0.203182 3.71823e-21)
(1.0046 0.177818 4.09032e-21)
(0.991762 0.142868 -4.52666e-21)
(0.980139 0.104937 -1.09035e-21)
(0.977836 0.0723723 -2.3471e-21)
(0.985156 0.0483928 -6.63375e-22)
(0.995631 0.0305955 7.90016e-22)
(1.00535 0.0169895 8.40435e-36)
(1.01403 0.00701694 -9.57832e-22)
(1.0219 0.000188062 -3.57253e-23)
(1.02889 -0.00414765 -4.60714e-26)
(1.03492 -0.00656527 5.05527e-23)
(1.03994 -0.00755213 -6.72506e-22)
(1.04398 -0.00751419 4.60903e-22)
(1.04713 -0.00678756 1.45037e-27)
(1.04949 -0.0056451 -1.16451e-23)
(1.05122 -0.00429775 3.73686e-23)
(1.05247 -0.00291212 7.33637e-23)
(1.0534 -0.00160811 -3.08387e-23)
(1.05416 -0.000474205 2.74558e-22)
(0.797967 -0.259897 5.21944e-21)
(0.804797 -0.227689 -1.33424e-20)
(0.814828 -0.179047 3.63272e-21)
(0.831437 -0.119934 -7.76273e-21)
(0.852127 -0.0503453 1.89955e-20)
(0.875738 0.0239439 -5.62275e-23)
(0.899196 0.0970833 -1.76666e-21)
(0.925397 0.159961 2.23071e-21)
(0.953192 0.203135 -1.69224e-20)
(0.973962 0.228776 6.90176e-21)
(0.98689 0.235802 4.40833e-35)
(0.992144 0.226218 1.52547e-20)
(0.990152 0.202574 -1.53307e-20)
(0.981758 0.167625 9.93605e-21)
(0.970373 0.126086 3.34256e-21)
(0.963856 0.0863127 3.66757e-22)
(0.968292 0.0557401 -1.5612e-21)
(0.980285 0.0344378 -1.73082e-22)
(0.993147 0.0188173 -1.48271e-22)
(1.00448 0.00725342 2.90384e-23)
(1.01445 -0.000785535 1.30946e-22)
(1.02321 -0.00589576 1.04294e-22)
(1.03074 -0.0087431 -6.87602e-22)
(1.03703 -0.00989224 7.03249e-22)
(1.0421 -0.00982399 -3.32532e-23)
(1.04605 -0.00893994 -3.53405e-23)
(1.04901 -0.00756515 1.34069e-24)
(1.05114 -0.00595851 0)
(1.05263 -0.00431444 -1.57659e-22)
(1.05365 -0.00277711 -9.62827e-23)
(1.05438 -0.00145042 2.76409e-22)
(1.05498 -0.000396414 -2.95687e-22)
(0.800364 -0.260778 1.69898e-21)
(0.800794 -0.228942 -6.12935e-21)
(0.805954 -0.180726 2.05736e-21)
(0.81763 -0.122249 2.36261e-20)
(0.834064 -0.0531919 -1.28412e-20)
(0.854519 0.0213918 -1.56764e-20)
(0.876387 0.0949473 -2.84633e-21)
(0.896799 0.16168 -1.31658e-21)
(0.919363 0.213323 3.20309e-21)
(0.942329 0.243049 5.61856e-21)
(0.958827 0.254298 -9.45715e-21)
(0.968418 0.247975 -5.50305e-21)
(0.97123 0.226499 -1.66543e-21)
(0.967751 0.192483 5.14746e-21)
(0.959427 0.149393 8.31002e-22)
(0.951277 0.103849 5.85204e-23)
(0.951463 0.0652631 2.71563e-22)
(0.962466 0.0383773 2.09509e-21)
(0.978063 0.0202064 1.06737e-21)
(0.992691 0.00705329 1.0763e-21)
(1.00531 -0.00222412 -1.53247e-22)
(1.01623 -0.00819614 5.01129e-22)
(1.02559 -0.0115166 -1.16483e-21)
(1.03341 -0.0128373 2.81282e-22)
(1.03974 -0.0127118 -3.81702e-22)
(1.04468 -0.011613 -3.91743e-23)
(1.04838 -0.00992956 2.17433e-22)
(1.05103 -0.0079713 0)
(1.05284 -0.0059759 -6.96836e-23)
(1.05401 -0.0041131 2.92208e-23)
(1.05475 -0.00249925 1.33889e-22)
(1.05524 -0.00121615 -3.18531e-22)
(1.05563 -0.000297564 3.13624e-25)
(0.806718 -0.260365 -8.4122e-22)
(0.800519 -0.228579 1.69163e-20)
(0.800459 -0.18111 -7.88677e-21)
(0.807188 -0.123258 1.34093e-20)
(0.819127 -0.0549789 -2.65267e-20)
(0.835871 0.0192161 3.23124e-23)
(0.855305 0.0934956 5.9011e-21)
(0.874977 0.16111 2.43177e-21)
(0.89215 0.217486 -3.9074e-21)
(0.910859 0.255383 3.25017e-21)
(0.929526 0.270508 1.51704e-25)
(0.942321 0.267777 3.55114e-21)
(0.949035 0.249009 8.74167e-21)
(0.949873 0.216573 -1.20285e-20)
(0.945601 0.173341 -7.28112e-22)
(0.938734 0.124219 1.91454e-21)
(0.935841 0.0779772 -1.95449e-21)
(0.943598 0.0433448 -3.82546e-22)
(0.960173 0.0210472 -4.05703e-26)
(0.978257 0.00614378 -1.63564e-24)
(0.99415 -0.00434099 -1.31238e-22)
(1.00772 -0.0111878 -1.76636e-23)
(1.01927 -0.0150256 1.35352e-21)
(1.02893 -0.0165226 -1.71935e-21)
(1.03678 -0.0163115 7.02111e-22)
(1.04294 -0.0149371 -9.4888e-37)
(1.04757 -0.0128579 -3.48051e-23)
(1.05087 -0.0104468 -1.1032e-23)
(1.0531 -0.0079906 4.47347e-23)
(1.05449 -0.00569639 -1.44453e-27)
(1.05529 -0.00370222 1.61021e-22)
(1.05571 -0.0020907 9.06593e-23)
(1.05592 -0.000915622 -5.54176e-23)
(1.05608 -0.000182108 3.65055e-22)
(0.816309 -0.25857 -2.1802e-22)
(0.803604 -0.226503 -3.45786e-21)
(0.798466 -0.18002 -1.37272e-20)
(0.80018 -0.123036 4.41142e-20)
(0.807548 -0.0556836 1.26576e-21)
(0.820303 0.0178025 7.92966e-21)
(0.836755 0.0919714 1.47507e-21)
(0.854789 0.160708 -9.46231e-21)
(0.871951 0.21826 -1.75051e-21)
(0.885849 0.26131 1.95265e-21)
(0.900834 0.284095 5.24695e-21)
(0.915629 0.285086 -1.44137e-20)
(0.925074 0.269517 8.38729e-22)
(0.929237 0.239262 -7.63875e-21)
(0.928637 0.196825 1.57505e-20)
(0.924582 0.145989 -4.32885e-21)
(0.92105 0.0938592 -4.22905e-22)
(0.925218 0.0505728 1.08687e-21)
(0.940322 0.0217763 -1.5154e-35)
(0.961 0.00424034 1.51339e-22)
(0.980631 -0.00738951 -9.35848e-22)
(0.997391 -0.0150774 1.16728e-21)
(1.01157 -0.0194285 6.99776e-22)
(1.02344 -0.021107 -1.72334e-21)
(1.03312 -0.0207785 -7.58576e-22)
(1.04076 -0.0190632 4.19145e-23)
(1.04653 -0.0164929 -5.49632e-22)
(1.05066 -0.0135121 1.87824e-22)
(1.05343 -0.0104703 1.57465e-22)
(1.05513 -0.00762044 2.40011e-27)
(1.05603 -0.00513066 1.25485e-22)
(1.05641 -0.00309915 -1.63991e-22)
(1.05647 -0.0015692 5.42851e-36)
(1.0564 -0.000562516 3.39629e-22)
(1.05631 -5.43194e-05 0)
(0.832124 -0.254264 -1.47507e-21)
(0.809779 -0.222555 -9.32735e-21)
(0.799714 -0.177577 -1.59572e-21)
(0.796551 -0.121483 -5.10676e-22)
(0.799427 -0.055339 2.76217e-20)
(0.808086 0.0170879 -1.89547e-20)
(0.821254 0.090746 -5.03275e-21)
(0.837106 0.159702 -1.49136e-20)
(0.853413 0.218669 -1.10153e-20)
(0.867953 0.263295 7.91092e-21)
(0.878524 0.291408 1.53858e-21)
(0.890041 0.299196 -7.12375e-22)
(0.901152 0.28749 1.04237e-21)
(0.907377 0.260095 7.51091e-22)
(0.90941 0.219116 -1.88302e-21)
(0.908186 0.167871 -3.52314e-21)
(0.905867 0.111915 2.97265e-21)
(0.907825 0.0606597 2.44498e-22)
(0.92002 0.023596 -1.62077e-22)
(0.94131 0.00134432 0)
(0.964475 -0.0117225 -6.01447e-22)
(0.984978 -0.020098 2.21502e-21)
(1.00226 -0.0249289 -1.23525e-21)
(1.01673 -0.0267674 3.65464e-23)
(1.0286 -0.0262913 -9.72015e-23)
(1.03802 -0.024166 3.88161e-23)
(1.04519 -0.0210008 -7.13605e-23)
(1.05036 -0.0173193 -1.55189e-23)
(1.05383 -0.0135458 4.21949e-23)
(1.05594 -0.00999407 -1.82576e-22)
(1.05702 -0.00687301 3.689e-23)
(1.05738 -0.00430143 -1.85679e-22)
(1.0573 -0.00232953 1.53921e-22)
(1.057 -0.000958235 -1.23659e-22)
(1.05663 -0.000173274 2.09841e-23)
(1.05629 7.88948e-05 -4.70672e-23)
(0.853802 -0.246379 -2.75386e-22)
(0.821525 -0.2155 2.50657e-21)
(0.804074 -0.173502 -6.05936e-21)
(0.796239 -0.118952 -2.87945e-20)
(0.794831 -0.0538959 5.13164e-20)
(0.799373 0.0170717 -4.22056e-21)
(0.809116 0.0897253 -1.14891e-21)
(0.822442 0.158434 1.90967e-21)
(0.837334 0.217937 1.2357e-20)
(0.851721 0.26434 -3.99203e-22)
(0.86328 0.294543 1.08629e-21)
(0.870644 0.307213 -2.38115e-21)
(0.878893 0.301876 6.17902e-21)
(0.886084 0.27863 1.17979e-20)
(0.889398 0.239869 -3.83748e-21)
(0.890055 0.188979 1.8927e-21)
(0.88948 0.130852 -4.87515e-21)
(0.890904 0.0734102 -2.02516e-22)
(0.900242 0.0272037 1.57967e-21)
(0.920261 -0.00163213 1.25376e-22)
(0.945819 -0.0175167 3.31503e-23)
(0.970194 -0.0265879 -2.11882e-21)
(0.99111 -0.0317468 1.35337e-21)
(1.00861 -0.0337107 -1.60606e-21)
(1.02305 -0.0330466 1.96399e-22)
(1.03461 -0.0304456 -2.33757e-22)
(1.04349 -0.0265757 7.78186e-23)
(1.04994 -0.0220481 9.59007e-22)
(1.0543 -0.0173751 1.0457e-21)
(1.05695 -0.0129476 4.44037e-23)
(1.05828 -0.00903093 -1.04384e-22)
(1.05868 -0.00577637 -1.17767e-22)
(1.05847 -0.00324296 -4.44551e-27)
(1.05793 -0.00142763 4.56226e-22)
(1.05726 -0.000285943 5.71469e-36)
(1.0566 0.000234014 -8.09648e-23)
(1.05603 0.00020976 5.70374e-29)
(0.878013 -0.23441 1.77587e-20)
(0.839191 -0.2048 4.54728e-21)
(0.813808 -0.166961 7.09884e-21)
(0.798956 -0.114967 1.05537e-24)
(0.793626 -0.0518303 -1.2491e-20)
(0.794267 0.0177494 1.78772e-20)
(0.800527 0.0889431 1.57984e-20)
(0.811159 0.15683 -1.83772e-20)
(0.824246 0.216382 2.69696e-20)
(0.837891 0.263757 -7.41137e-22)
(0.849846 0.296329 -6.76011e-21)
(0.858068 0.311487 -2.60266e-22)
(0.862582 0.310995 -9.30849e-21)
(0.866954 0.293608 -6.02535e-22)
(0.870307 0.25878 -4.02051e-21)
(0.871516 0.208972 6.73969e-21)
(0.871985 0.149652 -6.39964e-21)
(0.873824 0.0877663 4.20814e-21)
(0.88118 0.0334136 -4.43057e-21)
(0.898823 -0.00420702 4.20053e-23)
(0.925143 -0.0244812 9.93167e-23)
(0.953005 -0.0347947 2.4704e-21)
(0.977853 -0.040168 1.47943e-21)
(0.998856 -0.042152 -2.55281e-21)
(1.01628 -0.0412631 -2.81632e-22)
(1.03037 -0.0381224 -5.63085e-35)
(1.04132 -0.0334411 1.78549e-22)
(1.04936 -0.0279109 2.15835e-23)
(1.05484 -0.022148 7.57091e-23)
(1.0582 -0.0166398 -4.89551e-22)
(1.05989 -0.0117287 -3.6375e-22)
(1.06036 -0.00761394 1.38875e-23)
(1.06003 -0.00437409 6.41642e-27)
(1.05924 -0.00200162 3.50149e-22)
(1.05825 -0.000434837 -5.6275e-23)
(1.05723 0.000416159 1.60785e-22)
(1.05631 0.000640267 -4.90352e-24)
(1.05552 0.00033248 5.2984e-23)
(0.902546 -0.219058 7.31928e-22)
(0.859571 -0.191 1.14536e-22)
(0.82959 -0.157703 3.09996e-22)
(0.806539 -0.109167 1.14411e-20)
(0.79517 -0.0484647 -5.77669e-21)
(0.792934 0.0188316 1.00725e-20)
(0.795557 0.0883345 1.41863e-20)
(0.803428 0.154939 1.6654e-20)
(0.814542 0.213962 8.10689e-21)
(0.826986 0.2618 4.06104e-21)
(0.838864 0.296092 2.21449e-21)
(0.847506 0.314128 3.50569e-21)
(0.852687 0.316249 -3.87756e-21)
(0.853577 0.304434 6.65032e-22)
(0.853766 0.274306 2.06293e-20)
(0.854108 0.227699 5.87995e-21)
(0.854501 0.167808 -1.4055e-21)
(0.856378 0.102796 -4.52867e-22)
(0.862743 0.0415704 8.03678e-22)
(0.877799 -0.00497472 -4.55441e-23)
(0.903206 -0.0321502 -2.77163e-36)
(0.93358 -0.0447846 -2.2893e-21)
(0.962385 -0.050455 -1.90101e-22)
(0.987234 -0.0523313 3.72749e-21)
(1.00807 -0.0511612 -3.18934e-22)
(1.02512 -0.0474371 -9.95825e-23)
(1.03853 -0.0418467 -3.19824e-21)
(1.04853 -0.0351566 -4.75221e-22)
(1.05543 -0.0280925 1.3536e-21)
(1.05971 -0.0212653 2.9117e-22)
(1.06188 -0.0151197 1.34055e-22)
(1.0625 -0.00992601 5.13827e-22)
(1.06206 -0.00579662 -4.65677e-22)
(1.061 -0.00272643 3.33902e-22)
(1.05965 -0.000634033 0)
(1.05824 0.000602598 3.54112e-23)
(1.05692 0.00111458 -4.73883e-22)
(1.05577 0.00102581 6.61706e-23)
(1.05479 0.000442314 5.40674e-23)
(0.925609 -0.20059 2.36154e-22)
(0.880908 -0.174822 -1.97486e-21)
(0.848413 -0.145545 -5.9961e-21)
(0.820189 -0.102091 1.68776e-25)
(0.80132 -0.0443261 1.05683e-20)
(0.793839 0.0211167 2.49899e-21)
(0.793857 0.0877975 -8.56007e-21)
(0.799276 0.152667 3.06571e-20)
(0.808375 0.210726 -6.71538e-21)
(0.819436 0.258527 3.49438e-21)
(0.830669 0.29395 2.17373e-22)
(0.839616 0.314896 1.74505e-21)
(0.844733 0.319388 3.24988e-21)
(0.846332 0.311692 -1.26575e-20)
(0.842724 0.287062 -2.51712e-21)
(0.839629 0.243088 -1.05102e-20)
(0.838271 0.185376 5.90785e-21)
(0.839493 0.117629 -1.2342e-20)
(0.844701 0.0512174 1.38907e-21)
(0.857667 -0.00407968 1.12539e-21)
(0.881019 -0.0393418 1.82741e-21)
(0.912333 -0.0563006 -2.27768e-21)
(0.944697 -0.06276 2.51176e-22)
(0.973592 -0.0644839 -3.22436e-21)
(0.998194 -0.0629613 3.03718e-22)
(1.01862 -0.05863 5.62772e-23)
(1.03496 -0.0520678 3.67984e-22)
(1.04734 -0.0440694 -4.24674e-35)
(1.05604 -0.0354828 1.762e-21)
(1.06151 -0.0270628 9.44048e-22)
(1.06434 -0.0193957 1.1072e-22)
(1.06518 -0.012853 -4.92236e-22)
(1.06466 -0.00760319 -2.70745e-22)
(1.0633 -0.00365499 3.62968e-22)
(1.06154 -0.00090791 0)
(1.05967 0.000796019 -5.5073e-23)
(1.0579 0.00163534 1.33632e-23)
(1.05633 0.00177559 3.17378e-22)
(1.05499 0.0013718 4.97034e-23)
(1.05387 0.000534069 1.49614e-29)
(0.945752 -0.179565 -1.41562e-21)
(0.901659 -0.156611 -2.12731e-22)
(0.868381 -0.131712 1.52e-21)
(0.837258 -0.0924946 -6.57861e-21)
(0.813891 -0.0408389 -5.73797e-21)
(0.799273 0.0224652 -7.28554e-21)
(0.795326 0.0881488 -3.84463e-21)
(0.798473 0.149948 -6.7296e-21)
(0.805764 0.206571 -4.19622e-21)
(0.815413 0.254003 -2.91171e-20)
(0.825638 0.290126 2.53555e-21)
(0.834485 0.313483 -3.97323e-21)
(0.839368 0.320579 2.33439e-22)
(0.840876 0.316854 -1.39531e-21)
(0.837656 0.296631 1.02068e-20)
(0.830563 0.257282 1.52221e-21)
(0.825396 0.199481 -2.42786e-20)
(0.823965 0.132753 -5.03406e-22)
(0.827862 0.0609815 7.25897e-21)
(0.83851 -0.00120088 -1.71889e-22)
(0.859411 -0.0457246 -4.88585e-25)
(0.890103 -0.0686152 2.37834e-22)
(0.924937 -0.077091 3.30145e-21)
(0.957837 -0.0787515 4.07111e-21)
(0.986456 -0.0768623 -1.39949e-21)
(1.01065 -0.0719323 -1.14376e-26)
(1.03039 -0.0643825 1.09022e-21)
(1.04565 -0.0549713 5.87697e-22)
(1.05659 -0.0446408 2.56476e-22)
(1.06361 -0.0343272 -1.96362e-21)
(1.06734 -0.0247976 -9.26646e-22)
(1.06852 -0.016574 -9.5655e-22)
(1.06794 -0.00991274 1.19467e-35)
(1.06625 -0.00485426 3.52901e-22)
(1.064 -0.00128511 5.07126e-22)
(1.0616 0.000996544 -5.92915e-23)
(1.05929 0.00222015 -9.51495e-28)
(1.05724 0.002613 3.28144e-23)
(1.05548 0.00236715 -3.27765e-22)
(1.05402 0.00166173 -9.34555e-24)
(1.05279 0.000603051 -5.10956e-23)
(0.961977 -0.156963 3.96238e-22)
(0.920451 -0.137069 -5.6611e-24)
(0.888206 -0.116506 -9.70288e-22)
(0.855926 -0.0821173 1.3108e-35)
(0.830146 -0.0352252 2.23854e-21)
(0.81158 0.0211087 1.1334e-20)
(0.801543 0.0857289 1.50239e-22)
(0.801006 0.147502 3.71667e-21)
(0.806603 0.2015 1.47073e-20)
(0.814897 0.248162 -2.35304e-20)
(0.824028 0.284812 4.40344e-21)
(0.832204 0.309889 -1.2782e-20)
(0.836839 0.320591 -1.41092e-21)
(0.837663 0.319967 3.72587e-21)
(0.834527 0.303923 -2.58491e-20)
(0.827385 0.268763 2.25705e-21)
(0.818168 0.21435 3.76971e-20)
(0.812183 0.144049 2.11848e-20)
(0.812604 0.0722684 1.52686e-20)
(0.821074 0.00186656 -1.42309e-20)
(0.838981 -0.050311 -7.44216e-21)
(0.867785 -0.0812261 6.33554e-21)
(0.903672 -0.0930579 7.74972e-21)
(0.939964 -0.0952342 -2.01175e-21)