/*--------------------------------*- C++ -*----------------------------------*\
| =========                 |                                                 |
| \\      /  F ield         | OpenFOAM: The Open Source CFD Toolbox           |
|  \\    /   O peration     | Version:  2506                                  |
|   \\  /    A nd           | Website:  www.openfoam.com                      |
|    \\/     M anipulation  |                                                 |
\*---------------------------------------------------------------------------*/
FoamFile
{
    version     2.0;
    format      ascii;
    arch        "LSB;label=32;scalar=64";
    class       volScalarField;
    location    "400";
    object      magR;
}
// * * * * * * * * * * * * * * * * * * * * * * * * * * * * * * * * * * * * * //

dimensions      [0 2 -2 0 0 0 0];

internalField   nonuniform List<scalar> 
10720
(
0.0235381
0.0274623
0.0324772
0.0392892
0.0473601
0.0576335
0.0707699
0.0870426
0.107706
0.134069
0.16813
0.213099
0.273426
0.356423
0.474565
0.64744
0.913681
1.32394
2.04425
3.16555
5.69272
9.51395
22.2737
43.4773
48.1815
46.0961
45.2973
46.1257
47.1515
47.411
46.7833
45.3869
43.1308
40.0431
36.0557
31.2624
24.7578
18.2975
4.2652
0.0200322
0.0171885
0.0140008
0.011267
0.00868562
0.00635918
0.00448043
0.00335175
0.00350619
0.00474344
0.00705507
0.0106247
0.0158801
0.0234976
0.0343386
0.0497157
0.0718249
0.104784
0.156208
0.239903
0.383332
0.637031
1.121
2.0526
4.08367
8.35114
18.6656
38.4621
54.503
61.3866
63.3392
63.6591
63.2924
62.397
61.0191
59.2335
56.6214
53.5796
43.8857
0.0036047
0.00358441
0.00354306
0.0034405
0.00328198
0.00309977
0.00288485
0.00264314
0.002404
0.0021695
0.00194595
0.00179067
0.00176931
0.00194391
0.00252452
0.00397259
0.00759019
0.0159219
0.0384723
0.0942992
0.278476
0.770325
2.36012
7.57303
14.848
22.3688
29.436
34.438
35.432
32.507
27.7014
22.838
18.8944
15.8725
13.5508
11.7092
10.4221
9.08002
9.75022
0.00357221
0.00352404
0.00342527
0.00327881
0.00307844
0.00281405
0.00250372
0.0022027
0.00192413
0.00164764
0.00138453
0.00115677
0.000964331
0.000801119
0.000662812
0.000546299
0.000447477
0.000363859
0.000290609
0.000223739
0.000157663
9.31616e-05
3.22838e-05
5.26536e-06
1.34236e-05
0.00191624
0.010375
0.0836559
0.281747
0.551416
0.824379
1.06463
1.26666
1.44423
1.61013
1.78085
1.96131
2.36386
3.28781
0.00241978
0.00240069
0.00234654
0.00226375
0.00217718
0.00208203
0.00198582
0.00189929
0.00182489
0.00176714
0.00172254
0.00169696
0.00169017
0.00170497
0.00170976
0.00165712
0.00144905
0.00124712
0.000141821
0.00806881
0.00318838
0.00558875
0.000696148
0.0294524
0.245367
0.815577
2.03209
4.57992
9.03148
14.9029
20.2133
22.8239
22.3127
20.0353
17.3836
14.8936
12.9422
10.7144
12.0394
0.00243863
0.00243563
0.00242914
0.00238586
0.00230912
0.00218028
0.00200263
0.00179981
0.00161135
0.00141749
0.00120889
0.00100687
0.000826098
0.000670422
0.000541883
0.000438112
0.000357224
0.000295865
0.000251244
0.000219189
0.000197111
0.000182768
0.000174887
0.000170574
0.000170349
0.000169182
0.00017995
0.000106718
0.000756703
0.00502254
0.0142339
0.0299798
0.0675861
0.141423
0.250391
0.383909
0.528959
0.633133
1.08066
0.00204214
0.00204638
0.00203607
0.00201909
0.00198411
0.00193206
0.00186713
0.00178606
0.00169341
0.00159096
0.00148087
0.00136465
0.00124345
0.00111951
0.00099384
0.000862115
0.000730752
0.000612237
0.000463502
0.000264148
5.60983e-10
0.000607358
0.000434372
0.00778077
0.0289569
0.0561076
0.0317326
0.0148106
0.0454976
0.441564
1.95452
5.33086
9.99594
13.8718
15.5418
15.3173
14.4045
12.6076
13.5773
0.00202025
0.00198707
0.00193497
0.00187224
0.00179357
0.00169056
0.00157029
0.00144231
0.00130906
0.00116444
0.00101495
0.000874826
0.000751028
0.000644314
0.00055416
0.000478577
0.0004164
0.000365748
0.000325109
0.00029201
0.00026512
0.000242539
0.000222291
0.000201005
0.000179136
0.000160935
0.000147194
0.000137316
0.000125336
0.000109898
8.24773e-05
5.19332e-05
0.000414965
0.000706254
0.002648
0.0142184
0.0466575
0.117923
0.429294
0.0015321
0.00152939
0.00151745
0.00149616
0.00146321
0.00141851
0.0013645
0.00130203
0.00123306
0.00116186
0.00109069
0.00102243
0.000960132
0.000905689
0.000860412
0.000822354
0.00078237
0.000733507
0.000681779
0.000606631
0.000407669
0.000130235
2.14561e-05
3.42084e-06
0
0
0.0114719
0.0139757
0.029604
0.0130586
0.0347118
0.0648579
0.410655
2.39919
6.15739
9.97591
12.3879
12.8399
14.2915
0.00152813
0.00151735
0.0014958
0.00146132
0.00141276
0.0013439
0.00126153
0.00117309
0.00107878
0.00097526
0.000867593
0.00076223
0.000663254
0.000572429
0.000490965
0.000419369
0.000357806
0.000306013
0.000263402
0.000228652
0.000200596
0.000177738
0.000158421
0.000139988
0.000121269
0.000103982
9.02323e-05
8.07438e-05
7.65759e-05
7.07134e-05
8.65994e-05
2.03233e-05
0.000134496
0.000653489
0.00160879
0.00318507
0.00116471
0.00365588
0.0832135
0.00125583
0.00126118
0.00126065
0.00125615
0.00124382
0.00122382
0.001197
0.0011624
0.00112066
0.00107287
0.00101955
0.000961857
0.000901211
0.000838659
0.000775339
0.000709722
0.000638231
0.00056483
0.000495854
0.000435961
0.000388252
0.000321384
0.000228193
4.41498e-05
1.16254e-05
5.84086e-06
2.51385e-06
3.58769e-12
0
0.00170378
0.00827392
0.0451167
0.00835545
0.111357
0.243962
2.28269
6.36906
10.2654
13.637
0.00124442
0.00122869
0.00120583
0.00117564
0.00113689
0.00108596
0.00102734
0.000964459
0.000896057
0.000820466
0.000741293
0.000662472
0.000587058
0.000516806
0.000452921
0.000396188
0.000346883
0.00030485
0.000269605
0.000240247
0.000215729
0.00019477
0.000175934
0.000157176
0.000137704
0.000119173
0.000102985
8.94651e-05
7.80967e-05
6.86655e-05
6.05714e-05
5.32167e-05
4.21016e-05
2.69908e-05
1.81166e-08
5.37891e-07
0.000195065
0.000838934
0.00946786
0.00101587
0.00102031
0.00102104
0.00101845
0.00101034
0.000996295
0.000976662
0.000950824
0.000919067
0.000882216
0.000840924
0.00079625
0.0007495
0.00070206
0.000655061
0.000610006
0.000569163
0.000531124
0.000492263
0.000451751
0.00041367
0.000381726
0.000347838
0.000286634
0.000193269
0.000103396
3.7692e-05
4.4452e-11
4.03303e-06
4.27469e-07
0
0
0.00106074
0.0351833
0.0267652
0.15706
1.04612
5.23484
10.9409
0.00100753
0.00099623
0.000979792
0.000957172
0.000927814
0.000890163
0.000847833
0.000801684
0.000750876
0.000695173
0.000636593
0.000577402
0.000519382
0.000463752
0.000411553
0.000363626
0.000320436
0.000282255
0.000249087
0.000220542
0.00019606
0.000174827
0.000155809
0.000137537
0.000119228
0.000101895
8.66507e-05
7.3806e-05
6.31354e-05
5.4455e-05
4.79658e-05
4.37581e-05
4.13024e-05
3.84534e-05
3.51624e-05
1.60093e-05
1.5445e-06
7.58503e-08
0.000274988
0.000841981
0.000847722
0.000851136
0.000852504
0.000850177
0.000843811
0.000833635
0.000818946
0.000799711
0.000776337
0.000748801
0.000717636
0.000683482
0.000646859
0.000608413
0.000568959
0.000527994
0.000484469
0.000440353
0.000398603
0.000361883
0.000332445
0.000310646
0.000293845
0.000267091
0.000226483
0.0001783
0.00012119
7.34852e-05
6.74456e-06
3.65087e-06
1.43608e-07
0
0
0.00386471
0.0663997
0.121834
1.19043
6.55604
0.000833343
0.00082292
0.000808979
0.000790461
0.000767249
0.000738514
0.0007071
0.000672459
0.000634139
0.000592541
0.000548633
0.000503783
0.000459089
0.000415399
0.00037357
0.000334403
0.000298397
0.000265979
0.00023732
0.000212245
0.000190355
0.000171033
0.000153431
0.000136465
0.000119544
0.000103395
8.89247e-05
7.63375e-05
6.54214e-05
5.58955e-05
4.77007e-05
4.0679e-05
3.4699e-05
2.95607e-05
2.59997e-05
2.27153e-05
1.60787e-05
1.81331e-06
1.87764e-05
0.000702362
0.000707883
0.000711926
0.000714433
0.000714342
0.000711295
0.000705315
0.00069579
0.000682625
0.000665923
0.000645644
0.000622066
0.00059565
0.000566773
0.000536052
0.00050401
0.000471389
0.000439414
0.000408237
0.000377797
0.00034864
0.000322195
0.000298882
0.00027777
0.000256013
0.000230519
0.000203377
0.000177586
0.000151401
0.000109564
7.17034e-05
2.8847e-06
1.86174e-06
0
0
0
0.0383382
0.164733
2.60942
0.000694768
0.00068597
0.000674637
0.000659568
0.00064119
0.000618996
0.000595087
0.000568595
0.000539308
0.000507824
0.000474579
0.000440364
0.00040584
0.000371524
0.000338004
0.000305891
0.000275672
0.000247753
0.000222376
0.000199582
0.000179194
0.000160835
0.000143899
0.000127645
0.00011169
9.64807e-05
8.27661e-05
7.08061e-05
6.04496e-05
5.15356e-05
4.40068e-05
3.78977e-05
3.32589e-05
3.00245e-05
2.8182e-05
2.84348e-05
3.04364e-05
3.21101e-05
1.21342e-06
0.000592101
0.000597529
0.000602053
0.000605549
0.000607186
0.000606765
0.000604243
0.000599038
0.000591067
0.000580365
0.000566706
0.000550257
0.000531191
0.000509749
0.000486232
0.000460995
0.000434587
0.00040693
0.00037823
0.000349702
0.000322868
0.00029889
0.000277935
0.00025803
0.000236429
0.00021213
0.000187707
0.000166969
0.000150817
0.000137401
0.000123828
8.93881e-05
3.71907e-05
3.29332e-06
0
0
0
0.0573602
0.673172
0.000585153
0.000577526
0.000567969
0.000555425
0.000540629
0.00052332
0.000504678
0.000484063
0.000461459
0.000437333
0.000411892
0.00038563
0.00035885
0.000331847
0.000305063
0.000278929
0.000253833
0.00023017
0.000208203
0.00018805
0.000169669
0.000152836
0.000137151
0.000122115
0.000107403
9.33824e-05
8.06278e-05
6.93714e-05
5.9492e-05
5.08554e-05
4.33752e-05
3.70503e-05
3.17626e-05
2.76147e-05
2.45842e-05
2.39902e-05
2.36154e-05
3.97035e-05
1.63792e-05
0.000502725
0.000507797
0.000512349
0.000516204
0.000518664
0.000519662
0.000519058
0.000516453
0.000511675
0.000504682
0.000495233
0.00048343
0.000469295
0.000452921
0.000434549
0.000414499
0.000393007
0.000370574
0.000347745
0.000324947
0.00030291
0.000282217
0.000263136
0.000244596
0.00022439
0.000201529
0.000177712
0.000156406
0.000139489
0.000127352
0.000118357
0.000112838
9.8434e-05
5.6949e-05
3.78022e-06
0
0
0.00305694
0.171939
0.00049649
0.000489865
0.00048186
0.000471375
0.000459291
0.000445624
0.000430843
0.000414551
0.00039694
0.00037827
0.000358633
0.000338286
0.000317422
0.000296193
0.000274816
0.000253598
0.000232839
0.000212838
0.000193869
0.000176079
0.000159506
0.00014404
0.000129438
0.0001154
0.000101737
8.86925e-05
7.67285e-05
6.6088e-05
5.67089e-05
4.84915e-05
4.14007e-05
3.54591e-05
3.0638e-05
2.7025e-05
2.45469e-05
2.42499e-05
2.41276e-05
3.42558e-05
4.26725e-05
0.000429717
0.00043444
0.000438871
0.000442837
0.000445809
0.000447741
0.000448488
0.000447689
0.000445232
0.000441014
0.000434896
0.000426761
0.000416646
0.000404594
0.000390698
0.000375123
0.0003581
0.000339976
0.000320898
0.000301281
0.000281979
0.00026365
0.000246478
0.000229692
0.000211678
0.000191485
0.0001701
0.000150101
0.000133273
0.000119834
0.000108981
0.000101959
9.84883e-05
9.46822e-05
6.17756e-05
3.04464e-06
0
0.000985388
0.059788
0.000424134
0.000418333
0.000411558
0.000402723
0.000392755
0.000381788
0.000369925
0.000356896
0.000343024
0.000328425
0.000313118
0.000297261
0.000280963
0.000264201
0.000247141
0.000229967
0.000212872
0.000196087
0.000179835
0.000164287
0.000149523
0.000135529
0.000122149
0.0001092
9.66316e-05
8.46216e-05
7.35199e-05
6.35534e-05
5.47039e-05
4.69027e-05
4.0104e-05
3.43291e-05
2.9546e-05
2.58249e-05
2.31716e-05
2.24869e-05
2.27371e-05
2.92275e-05
4.66762e-05
0.00036935
0.000373706
0.000377928
0.000381818
0.000384995
0.000387424
0.000388977
0.000389354
0.000388423
0.000386124
0.000382254
0.000376739
0.000369573
0.000360696
0.000350178
0.000338083
0.000324579
0.000309975
0.000294468
0.000278372
0.000262195
0.000246429
0.000231201
0.000216008
0.000199794
0.000181845
0.00016287
0.000144785
0.000129107
0.000115979
0.000104819
9.55641e-05
8.91014e-05
8.65678e-05
9.11261e-05
4.66653e-05
6.5963e-08
0.000312233
0.0198624
0.000364395
0.000359285
0.0003535
0.000346039
0.000337762
0.00032883
0.000319186
0.000308679
0.000297642
0.000286126
0.000274096
0.000261653
0.000248833
0.000235583
0.000221948
0.000208063
0.000194028
0.000180017
0.000166178
0.000152672
0.000139612
0.000127012
0.000114805
0.000102925
9.13661e-05
8.03001e-05
7.00043e-05
6.06812e-05
5.23296e-05
4.4939e-05
3.84645e-05
3.2951e-05
2.83931e-05
2.48654e-05
2.23732e-05
2.16347e-05
2.19413e-05
2.69063e-05
4.29067e-05
0.000319047
0.000323019
0.000326993
0.000330737
0.000333941
0.000336625
0.000338674
0.000339817
0.000339941
0.000338975
0.000336756
0.000333218
0.000328295
0.000321931
0.000314113
0.000304913
0.000294374
0.000282759
0.000270194
0.000256828
0.000243102
0.00022949
0.00021607
0.000202508
0.000188073
0.000172179
0.00015539
0.000139169
0.000124844
0.000112628
0.00010209
9.29162e-05
8.52283e-05
7.952e-05
7.83824e-05
9.48977e-05
9.26246e-08
3.10215e-05
0.00498474
0.00031462
0.000310149
0.000305146
0.000298798
0.000291876
0.000284528
0.000276579
0.000268049
0.0002592
0.000250021
0.000240492
0.00023067
0.000220535
0.000210008
0.000199114
0.000187908
0.000176402
0.000164737
0.000153025
0.000141385
0.000129909
0.000118655
0.000107611
9.6789e-05
8.62382e-05
7.60924e-05
6.65889e-05
5.79001e-05
5.00718e-05
4.30833e-05
3.69426e-05
3.1669e-05
2.72631e-05
2.37862e-05
2.12918e-05
2.04295e-05
2.06105e-05
2.49119e-05
3.86026e-05
0.000276794
0.0002804
0.00028408
0.00028761
0.000290746
0.000293538
0.000295831
0.000297443
0.000298259
0.000298217
0.000297188
0.000295074
0.000291819
0.00028734
0.000281617
0.000274654
0.00026652
0.000257309
0.000247214
0.000236321
0.000224875
0.00021327
0.00020159
0.00018961
0.000176821
0.000162792
0.00014794
0.00013342
0.000120345
0.000109028
9.91973e-05
9.06547e-05
8.31791e-05
7.75867e-05
6.9812e-05
8.72738e-05
4.39301e-05
4.21987e-07
0.000325352
0.000272821
0.000268889
0.000264555
0.00025912
0.000253297
0.000247164
0.000240574
0.000233591
0.000226429
0.000219052
0.000211448
0.000203635
0.000195575
0.000187197
0.000178467
0.00016941
0.000160006
0.000150331
0.000140449
0.00013046
0.000120453
0.000110486
0.000100575
9.07607e-05
8.11431e-05
7.18713e-05
6.31277e-05
5.50614e-05
4.77416e-05
4.11523e-05
3.5331e-05
3.03031e-05
2.60696e-05
2.27119e-05
2.02741e-05
1.93474e-05
1.94149e-05
2.30475e-05
3.48088e-05
0.000241035
0.000244319
0.000247702
0.000250963
0.000253997
0.00025679
0.000259191
0.000261065
0.000262344
0.000262944
0.000262733
0.000261645
0.000259633
0.000256595
0.000252511
0.000247356
0.000241155
0.000233959
0.000225917
0.000217089
0.000207578
0.000197735
0.000187634
0.000177167
0.000165899
0.0001536
0.000140526
0.000127585
0.000115701
0.000105249
9.60794e-05
8.8101e-05
8.10735e-05
7.59001e-05
6.91106e-05
7.01305e-05
8.41877e-05
1.76237e-07
2.16709e-05
0.000237491
0.000234001
0.000230235
0.000225565
0.000220645
0.000215464
0.00020996
0.000204187
0.000198341
0.00019237
0.000186257
0.000180007
0.000173567
0.000166863
0.000159858
0.000152518
0.000144839
0.000136822
0.000128523
0.000120003
0.000111317
0.000102539
9.36975e-05
8.48639e-05
7.61541e-05
6.77142e-05
5.96906e-05
5.22333e-05
4.54084e-05
3.9232e-05
3.37271e-05
2.89407e-05
2.48751e-05
2.16154e-05
1.91983e-05
1.81818e-05
1.81478e-05
2.11947e-05
3.1377e-05
0.000210593
0.000213551
0.000216661
0.000219683
0.000222552
0.000225267
0.000227685
0.00022969
0.000231241
0.000232255
0.000232618
0.000232265
0.000231167
0.000229242
0.000226414
0.000222679
0.000218009
0.000212451
0.000206109
0.000199015
0.000191207
0.000182935
0.000174305
0.000165214
0.000155399
0.000144653
0.000133192
0.000121704
0.000110977
0.000101373
9.28461e-05
8.53455e-05
7.88012e-05
7.35212e-05
6.94221e-05
6.12105e-05
9.21166e-05
4.58942e-07
4.32093e-10
0.00020745
0.000204341
0.000201025
0.000197008
0.000192808
0.000188426
0.000183781
0.000178981
0.000174159
0.000169298
0.000164347
0.000159308
0.00015413
0.000148745
0.000143105
0.000137156
0.000130874
0.000124248
0.000117301
0.000110057
0.000102566
9.48803e-05
8.70344e-05
7.91227e-05
7.12691e-05
6.36085e-05
5.62813e-05
4.94054e-05
4.30551e-05
3.7281e-05
3.20914e-05
2.75411e-05
2.36565e-05
2.05009e-05
1.81251e-05
1.70318e-05
1.68971e-05
1.942e-05
2.82038e-05
0.000184537
0.00018722
0.000190041
0.000192849
0.00019552
0.000198101
0.000200489
0.000202538
0.000204245
0.000205497
0.000206249
0.00020646
0.000206024
0.00020489
0.000203032
0.000200389
0.000196972
0.000192732
0.000187785
0.000182134
0.000175789
0.000168886
0.000161575
0.000153763
0.000145283
0.000135959
0.000125954
0.00011582
0.000106184
9.7401e-05
8.9521e-05
8.24991e-05
7.64045e-05
7.10778e-05
6.80567e-05
5.95357e-05
7.80956e-05
2.9448e-05
5.90792e-07
0.000181721
0.000178981
0.000176058
0.000172566
0.000168974
0.000165219
0.000161271
0.000157271
0.000153263
0.000149264
0.000145222
0.000141139
0.000136961
0.000132611
0.000128039
0.000123208
0.000118066
0.000112589
0.000106789
0.000100649
9.42169e-05
8.75316e-05
8.06202e-05
7.35671e-05
6.65071e-05
5.95805e-05
5.29134e-05
4.66022e-05
4.07202e-05
3.53216e-05
3.04508e-05
2.61269e-05
2.24075e-05
1.93617e-05
1.70245e-05
1.58554e-05
1.56296e-05
1.77218e-05
2.52553e-05
0.000162129
0.00016455
0.000167119
0.000169694
0.000172172
0.000174614
0.00017691
0.000178942
0.000180711
0.00018213
0.000183132
0.000183687
0.000183729
0.000183206
0.000182079
0.000180293
0.000177838
0.000174687
0.000170871
0.000166422
0.000161315
0.000155616
0.000149465
0.000142842
0.000135554
0.000127519
0.000118836
0.000109933
0.000101325
9.33646e-05
8.61173e-05
7.95865e-05
7.38796e-05
6.87968e-05
6.55474e-05
5.99571e-05
6.37645e-05
5.98532e-05
7.05616e-06
0.000159615
0.00015717
0.000154595
0.000151558
0.000148462
0.00014522
0.000141855
0.000138479
0.000135149
0.000131828
0.000128508
0.000125171
0.000121772
0.000118232
0.000114519
0.000110587
0.000106364
0.000101847
9.70003e-05
9.18171e-05
8.63168e-05
8.05132e-05
7.44475e-05
6.81963e-05
6.18839e-05
5.56522e-05
4.96004e-05
4.3827e-05
3.8402e-05
3.33763e-05
2.88027e-05
2.47107e-05
2.11634e-05
1.82087e-05
1.59006e-05
1.46661e-05
1.43697e-05
1.60967e-05
2.25328e-05
0.00014278
0.000144947
0.000147285
0.000149639
0.00015193
0.000154224
0.000156397
0.000158382
0.000160138
0.000161632
0.000162793
0.000163593
0.000163977
0.000163902
0.000163333
0.000162208
0.000160501
0.000158202
0.000155304
0.000151853
0.000147791
0.000143142
0.000138019
0.00013243
0.000126236
0.000119342
0.000111862
0.00010408
9.64523e-05
8.92649e-05
8.26333e-05
7.66012e-05
7.12544e-05
6.655e-05
6.28597e-05
5.95698e-05
5.62513e-05
6.43946e-05
3.00597e-05
0.000140523
0.000138348
0.000136062
0.000133422
0.000130726
0.000127923
0.000125039
0.000122167
0.000119368
0.000116602
0.00011385
0.000111103
0.000108321
0.000105429
0.000102399
9.91786e-05
9.57098e-05
9.19781e-05
8.7928e-05
8.35644e-05
7.88709e-05
7.38667e-05
6.85676e-05
6.30424e-05
5.74274e-05
5.1832e-05
4.6354e-05
4.10877e-05
3.60991e-05
3.14374e-05
2.71487e-05
2.32998e-05
1.99081e-05
1.70584e-05
1.4787e-05
1.34933e-05
1.31161e-05
1.45528e-05
2.004e-05
0.000125996
0.000127951
0.000130077
0.000132214
0.000134324
0.000136461
0.000138506
0.000140402
0.000142127
0.000143637
0.00014488
0.000145833
0.000146451
0.000146698
0.000146522
0.000145903
0.000144788
0.000143165
0.000141014
0.000138376
0.000135197
0.00013144
0.000127228
0.000122548
0.000117324
0.000111462
0.000105045
9.83034e-05
9.15696e-05
8.51169e-05
7.90936e-05
7.35596e-05
6.85549e-05
6.42101e-05
6.03634e-05
5.79151e-05
5.32947e-05
5.79373e-05
4.69134e-05
0.000123978
0.000122027
0.000120007
0.000117694
0.000115346
0.000112909
0.000110416
0.00010797
0.00010559
0.000103271
0.000100972
9.86953e-05
9.63968e-05
9.40281e-05
9.1543e-05
8.88871e-05
8.60352e-05
8.294e-05
7.95688e-05
7.58897e-05
7.18973e-05
6.75915e-05
6.29821e-05
5.81253e-05
5.31362e-05
4.81303e-05
4.31973e-05
3.84088e-05
3.38301e-05
2.95162e-05
2.55156e-05
2.18819e-05
1.86569e-05
1.59036e-05
1.36672e-05
1.23185e-05
1.18745e-05
1.30777e-05
1.77564e-05
0.000111388
0.000113153
0.00011507
0.000117017
0.000118966
0.000120935
0.00012284
0.000124638
0.000126305
0.0001278
0.000129074
0.000130115
0.000130888
0.000131346
0.000131463
0.000131217
0.000130565
0.000129478
0.000127932
0.000125948
0.000123485
0.000120498
0.000117068
0.000113202
0.000108832
0.000103893
9.84101e-05
9.25985e-05
8.66932e-05
8.09591e-05
7.55122e-05
7.04519e-05
6.58052e-05
6.17525e-05
5.80151e-05
5.55715e-05
5.17705e-05
5.1425e-05
5.08127e-05
0.000109595
0.000107835
0.000106038
0.000104006
0.000101951
9.9826e-05
9.76644e-05
9.55661e-05
9.35371e-05
9.15692e-05
8.96444e-05
8.77446e-05
8.58334e-05
8.38709e-05
8.18149e-05
7.96336e-05
7.72766e-05
7.47027e-05
7.18872e-05
6.87912e-05
6.54025e-05
6.17012e-05
5.7696e-05
5.34429e-05
4.90354e-05
4.45709e-05
4.0133e-05
3.57942e-05
3.16062e-05
2.76271e-05
2.39005e-05
2.04782e-05
1.74128e-05
1.47456e-05
1.25498e-05
1.11565e-05
1.06605e-05
1.16799e-05
1.56788e-05
9.86338e-05
0.000100229
0.000101963
0.000103734
0.000105516
0.00010733
0.000109107
0.000110788
0.000112369
0.000113814
0.000115097
0.000116177
0.000117044
0.000117649
0.00011799
0.000118012
0.000117704
0.000117031
0.000115964
0.000114518
0.000112641
0.000110305
0.000107538
0.000104386
0.00010077
9.66286e-05
9.19874e-05
8.69872e-05
8.18615e-05
7.67827e-05
7.18935e-05
6.72887e-05
6.30074e-05
5.92124e-05
5.56969e-05
5.30563e-05
5.01233e-05
4.71799e-05
4.83098e-05
9.70305e-05
9.54647e-05
9.38589e-05
9.20671e-05
9.02522e-05
8.83991e-05
8.65161e-05
8.46957e-05
8.2959e-05
8.12822e-05
7.96491e-05
7.80523e-05
7.6453e-05
7.48204e-05
7.3115e-05
7.1308e-05
6.93456e-05
6.72125e-05
6.48539e-05
6.22444e-05
5.93633e-05
5.61937e-05
5.27343e-05
4.90174e-05
4.51252e-05
4.11602e-05
3.71857e-05
3.32619e-05
2.94396e-05
2.57742e-05
2.23127e-05
1.90978e-05
1.61781e-05
1.36102e-05
1.14591e-05
1.00261e-05
9.47301e-06
1.03601e-05
1.37986e-05
8.74777e-05
8.89063e-05
9.04774e-05
9.20924e-05
9.37169e-05
9.53783e-05
9.70194e-05
9.85923e-05
0.000100084
0.00010147
0.000102707
0.000103796
0.000104714
0.000105424
0.000105906
0.000106135
0.000106084
0.000105722
0.000105036
0.000104018
0.000102629
0.000100831
9.86343e-05
9.60813e-05
9.31161e-05
8.96721e-05
8.57713e-05
8.15241e-05
7.70863e-05
7.26202e-05
6.82621e-05
6.40922e-05
6.01711e-05
5.66214e-05
5.33293e-05
5.05824e-05
4.80487e-05
4.43864e-05
4.44402e-05
8.60352e-05
8.46315e-05
8.32083e-05
8.16251e-05
8.00151e-05
7.83828e-05
7.67441e-05
7.516e-05
7.36599e-05
7.2219e-05
7.083e-05
6.94788e-05
6.81372e-05
6.67674e-05
6.53394e-05
6.38228e-05
6.21945e-05
6.04119e-05
5.84239e-05
5.62312e-05
5.37902e-05
5.10814e-05
4.80898e-05
4.48449e-05
4.14259e-05
3.79086e-05
3.43553e-05
3.08155e-05
2.73408e-05
2.39743e-05
2.07617e-05
1.77432e-05
1.49748e-05
1.24984e-05
1.03831e-05
8.91584e-06
8.32004e-06
9.11265e-06
1.20935e-05
7.76798e-05
7.897e-05
8.03896e-05
8.18503e-05
8.33327e-05
8.48619e-05
8.63752e-05
8.78301e-05
8.92253e-05
9.05351e-05
9.17304e-05
9.28027e-05
9.37301e-05
9.44974e-05
9.50764e-05
9.5451e-05
9.5592e-05
9.54751e-05
9.50737e-05
9.43926e-05
9.33977e-05
9.20452e-05
9.0328e-05
8.82856e-05
8.58823e-05
8.30507e-05
7.97961e-05
7.62097e-05
7.23876e-05
6.84942e-05
6.46276e-05
6.08742e-05
5.72987e-05
5.39966e-05
5.09098e-05
4.81733e-05
4.57187e-05
4.21044e-05
4.09022e-05
7.63934e-05
7.51348e-05
7.38576e-05
7.24617e-05
7.10406e-05
6.95896e-05
6.81554e-05
6.6782e-05
6.54777e-05
6.42289e-05
6.30378e-05
6.18877e-05
6.07433e-05
5.95819e-05
5.83879e-05
5.71196e-05
5.57529e-05
5.42479e-05
5.25873e-05
5.07341e-05
4.86598e-05
4.63421e-05
4.37599e-05
4.09405e-05
3.79412e-05
3.48258e-05
3.16541e-05
2.84705e-05
2.53145e-05
2.22299e-05
1.9253e-05
1.64311e-05
1.38027e-05
1.142e-05
9.3375e-06
7.84152e-06
7.20911e-06
7.94292e-06
1.05706e-05
6.90632e-05
7.02275e-05
7.15097e-05
7.28382e-05
7.41876e-05
7.55783e-05
7.69683e-05
7.8313e-05
7.96111e-05
8.08405e-05
8.19789e-05
8.30186e-05
8.39404e-05
8.47286e-05
8.53654e-05
8.58358e-05
8.61161e-05
8.61831e-05
8.60092e-05
8.55873e-05
8.49084e-05
8.39228e-05
8.26038e-05
8.10005e-05
7.90755e-05
7.67639e-05
7.40702e-05
7.10479e-05
6.77946e-05
6.44187e-05
6.10126e-05
5.76548e-05
5.44131e-05
5.13511e-05
4.84582e-05
4.57901e-05
4.33186e-05
3.98966e-05
3.78824e-05
6.79087e-05
6.67875e-05
6.56365e-05
6.4397e-05
6.314e-05
6.18627e-05
6.0596e-05
5.93886e-05
5.8253e-05
5.71692e-05
5.6139e-05
5.51453e-05
5.41688e-05
5.3185e-05
5.21674e-05
5.11017e-05
4.9947e-05
4.86821e-05
4.72828e-05
4.57121e-05
4.39567e-05
4.19687e-05
3.97464e-05
3.72928e-05
3.46595e-05
3.19095e-05
2.9092e-05
2.62339e-05
2.33736e-05
2.05522e-05
1.78035e-05
1.51621e-05
1.26771e-05
1.03827e-05
8.33887e-06
6.81001e-06
6.14505e-06
6.85432e-06
9.21211e-06
6.14702e-05
6.25188e-05
6.36783e-05
6.48792e-05
6.61055e-05
6.73761e-05
6.86439e-05
6.98838e-05
7.10908e-05
7.22396e-05
7.33083e-05
7.43007e-05
7.5204e-05
7.59901e-05
7.66571e-05
7.71894e-05
7.75631e-05
7.77596e-05
7.77636e-05
7.75473e-05
7.71136e-05
7.6425e-05
7.54386e-05
7.4198e-05
7.26705e-05
7.0807e-05
6.85987e-05
6.60764e-05
6.33285e-05
6.04179e-05
5.74317e-05
5.44491e-05
5.15182e-05
4.86993e-05
4.59856e-05
4.34157e-05
4.09409e-05
3.76752e-05
3.52136e-05
6.04363e-05
5.94275e-05
5.84031e-05
5.72979e-05
5.61779e-05
5.50457e-05
5.39276e-05
5.28643e-05
5.18669e-05
5.09266e-05
5.00281e-05
4.91643e-05
4.83309e-05
4.74842e-05
4.66141e-05
4.57098e-05
4.47337e-05
4.36626e-05
4.24787e-05
4.1153e-05
3.96517e-05
3.79543e-05
3.60354e-05
3.39038e-05
3.16019e-05
2.91796e-05
2.66744e-05
2.41098e-05
2.15257e-05
1.89508e-05
1.64163e-05
1.39518e-05
1.15978e-05
9.39513e-06
7.38888e-06
5.83391e-06
5.13512e-06
5.84748e-06
8.00623e-06
5.47626e-05
5.57084e-05
5.67583e-05
5.78424e-05
5.89552e-05
6.01137e-05
6.1273e-05
6.24127e-05
6.35202e-05
6.45888e-05
6.55967e-05
6.65298e-05
6.73929e-05
6.8169e-05
6.88457e-05
6.94123e-05
6.98457e-05
7.01382e-05
7.02668e-05
7.02155e-05
6.99738e-05
6.95142e-05
6.88072e-05
6.78583e-05
6.66708e-05
6.51838e-05
6.33921e-05
6.13043e-05
5.8989e-05
5.64984e-05
5.39022e-05
5.12687e-05
4.86255e-05
4.60482e-05
4.35131e-05
4.10555e-05
3.86066e-05
3.54638e-05
3.27622e-05
5.3838e-05
5.29312e-05
5.20153e-05
5.10373e-05
5.00362e-05
4.90294e-05
4.80354e-05
4.71029e-05
4.62211e-05
4.53917e-05
4.46133e-05
4.38622e-05
4.31303e-05
4.23993e-05
4.16632e-05
4.08908e-05
4.00555e-05
3.91435e-05
3.81437e-05
3.70063e-05
3.57291e-05
3.42763e-05
3.26185e-05
3.07742e-05
2.87576e-05
2.66247e-05
2.43991e-05
2.21072e-05
1.97772e-05
1.74314e-05
1.50974e-05
1.28078e-05
1.05826e-05
8.46506e-06
6.50374e-06
4.9163e-06
4.18276e-06
4.9252e-06
6.94438e-06
4.8831e-05
4.96866e-05
5.06283e-05
5.16106e-05
5.26207e-05
5.36732e-05
5.47321e-05
5.57721e-05
5.67915e-05
5.77772e-05
5.87177e-05
5.95983e-05
6.04181e-05
6.11658e-05
6.18336e-05
6.24163e-05
6.2889e-05
6.32396e-05
6.34624e-05
6.35333e-05
6.34447e-05
6.31641e-05
6.26738e-05
6.19782e-05
6.10676e-05
5.98977e-05
5.84464e-05
5.67391e-05
5.48063e-05
5.26875e-05
5.04459e-05
4.81252e-05
4.57614e-05
4.34099e-05
4.10545e-05
3.87104e-05
3.6319e-05
3.32946e-05
3.04755e-05
4.80035e-05
4.71928e-05
4.63636e-05
4.54965e-05
4.46023e-05
4.37081e-05
4.28253e-05
4.1995e-05
4.12187e-05
4.04891e-05
3.98033e-05
3.91442e-05
3.85046e-05
3.78763e-05
3.72404e-05
3.65687e-05
3.5854e-05
3.50848e-05
3.42214e-05
3.32591e-05
3.21686e-05
3.09134e-05
2.94904e-05
2.78856e-05
2.61265e-05
2.42482e-05
2.22741e-05
2.02322e-05
1.81302e-05
1.5995e-05
1.38553e-05
1.1728e-05
9.64066e-06
7.61049e-06
5.69273e-06
4.06717e-06
3.29349e-06
4.09448e-06
6.01207e-06
4.35776e-05
4.43455e-05
4.51952e-05
4.60848e-05
4.69961e-05
4.7952e-05
4.89178e-05
4.98692e-05
5.08065e-05
5.1715e-05
5.2581e-05
5.34037e-05
5.41792e-05
5.48963e-05
5.55459e-05
5.61201e-05
5.6615e-05
5.7008e-05
5.72898e-05
5.7448e-05
5.74759e-05
5.73434e-05
5.7019e-05
5.65281e-05
5.58402e-05
5.49367e-05
5.37808e-05
5.23924e-05
5.07874e-05
4.89993e-05
4.70741e-05
4.50377e-05
4.29362e-05
4.07994e-05
3.86192e-05
3.63999e-05
3.40835e-05
3.11893e-05
2.83363e-05
4.28298e-05
4.21114e-05
4.13632e-05
4.05853e-05
3.97963e-05
3.8995e-05
3.82133e-05
3.7473e-05
3.6785e-05
3.6141e-05
3.55284e-05
3.49535e-05
3.43949e-05
3.3845e-05
3.32908e-05
3.27076e-05
3.20977e-05
3.14367e-05
3.06977e-05
2.98763e-05
2.89346e-05
2.78606e-05
2.66334e-05
2.5239e-05
2.37009e-05
2.20461e-05
2.03016e-05
1.84792e-05
1.65907e-05
1.46547e-05
1.26932e-05
1.07224e-05
8.76736e-06
6.83661e-06
4.96543e-06
3.30734e-06
2.4664e-06
3.36162e-06
5.2167e-06
3.89185e-05
3.96074e-05
4.0371e-05
4.11711e-05
4.20023e-05
4.28713e-05
4.37455e-05
4.46153e-05
4.54717e-05
4.63022e-05
4.71054e-05
4.78702e-05
4.85941e-05
4.92744e-05
4.98979e-05
5.04595e-05
5.09545e-05
5.13726e-05
5.16975e-05
5.19138e-05
5.2026e-05
5.20044e-05
5.18201e-05
5.14852e-05
5.09866e-05
5.02908e-05
4.93827e-05
4.82651e-05
4.69405e-05
4.54455e-05
4.37952e-05
4.20244e-05
4.0161e-05
3.82288e-05
3.62219e-05
3.41326e-05
3.19059e-05
2.91529e-05
2.63325e-05
3.82442e-05
3.75981e-05
3.69344e-05
3.62321e-05
3.55268e-05
3.48178e-05
3.41194e-05
3.34621e-05
3.28491e-05
3.22731e-05
3.17325e-05
3.12248e-05
3.07348e-05
3.02536e-05
2.97636e-05
2.92631e-05
2.87345e-05
2.81569e-05
2.75299e-05
2.6822e-05
2.60142e-05
2.50922e-05
2.40276e-05
2.28133e-05
2.14713e-05
2.00179e-05
1.84774e-05
1.68549e-05
1.51597e-05
1.34088e-05
1.16174e-05
9.8018e-06
7.97332e-06
6.1434e-06
4.33163e-06
2.63981e-06
1.70524e-06
2.7403e-06
4.54789e-06
3.47756e-05
3.5393e-05
3.60814e-05
3.68099e-05
3.7562e-05
3.83461e-05
3.91388e-05
3.99276e-05
4.07126e-05
4.14768e-05
4.22102e-05
4.29185e-05
4.35936e-05
4.42298e-05
4.4825e-05
4.53694e-05
4.58547e-05
4.62784e-05
4.66268e-05
4.68882e-05
4.70556e-05
4.7117e-05
4.70423e-05
4.68312e-05
4.64831e-05
4.59636e-05
4.52519e-05
4.43606e-05
4.32828e-05
4.20334e-05
4.06282e-05
3.90959e-05
3.7452e-05
3.57125e-05
3.38737e-05
3.19134e-05
2.97972e-05
2.71955e-05
2.44547e-05
3.41746e-05
3.35938e-05
3.30012e-05
3.23745e-05
3.17421e-05
3.11063e-05
3.04857e-05
2.99029e-05
2.93535e-05
2.88391e-05
2.83635e-05
2.7909e-05
2.74749e-05
2.70472e-05
2.66201e-05
2.61857e-05
2.57214e-05
2.5225e-05
2.46828e-05
2.40723e-05
2.33783e-05
2.25815e-05
2.16627e-05
2.06088e-05
1.94338e-05
1.81611e-05
1.67973e-05
1.53517e-05
1.38396e-05
1.22612e-05
1.06287e-05
8.96098e-06
7.26545e-06
5.54558e-06
3.8069e-06
2.0995e-06
1.01358e-06
2.24834e-06
3.99372e-06
3.10897e-05
3.16467e-05
3.22713e-05
3.29257e-05
3.36019e-05
3.43108e-05
3.50333e-05
3.57507e-05
3.64637e-05
3.71633e-05
3.78372e-05
3.84876e-05
3.91136e-05
3.97076e-05
4.0268e-05
4.07873e-05
4.12595e-05
4.16784e-05
4.2039e-05
4.23271e-05
4.25368e-05
4.26524e-05
4.26598e-05
4.25458e-05
4.23087e-05
4.1935e-05
4.13963e-05
4.06857e-05
3.98114e-05
3.8774e-05
3.75889e-05