/*--------------------------------*- C++ -*----------------------------------*\
| =========                 |                                                 |
| \\      /  F ield         | OpenFOAM: The Open Source CFD Toolbox           |
|  \\    /   O peration     | Version:  2506                                  |
|   \\  /    A nd           | Website:  www.openfoam.com                      |
|    \\/     M anipulation  |                                                 |
\*---------------------------------------------------------------------------*/
FoamFile
{
    version     2.0;
    format      ascii;
    arch        "LSB;label=32;scalar=64";
    class       volScalarField;
    location    "400";
    object      p;
}
// * * * * * * * * * * * * * * * * * * * * * * * * * * * * * * * * * * * * * //

dimensions      [0 2 -2 0 0 0 0];

internalField   nonuniform List<scalar> 
10720
(
-62.2776
-133.564
-217.413
-300.051
-376.411
-454.199
-523.214
-581.158
-631.495
-670.881
-700.869
-722.955
-738.265
-747.524
-750.912
-747.778
-739.03
-723.617
-702.965
-677.137
-649.491
-623.083
-600.479
-573.519
-533.278
-482.199
-429.826
-384.23
-344.985
-308.067
-271.575
-235.414
-199.628
-163.847
-127.669
-90.057
-51.5563
-6.92191
26
9.08991
74.1314
143.469
208.204
263.523
305.438
330.179
338.464
336.064
323.159
302.13
278.586
255.041
232.257
210.877
190.764
171.975
154.078
136.804
119.66
102.596
85.3011
67.8678
50.7081
35.6899
23.854
14.1395
6.25822
0.395082
-3.48458
-5.62904
-6.18652
-5.23973
-2.7949
1.15666
6.96851
15.2145
29.1382
52.8281
43.2078
-10.9468
-71.6192
-136.058
-202.277
-270.053
-335.832
-397.536
-454.483
-504.914
-548.621
-585.61
-615.787
-639.148
-655.514
-664.579
-667.097
-662.952
-653.195
-638.373
-621.134
-603.839
-587.569
-565.161
-528.407
-479.359
-428.217
-383.16
-344.103
-307.264
-270.799
-234.675
-198.962
-163.276
-127.204
-89.6892
-51.2674
-6.61755
25.6904
91.9381
138.389
184.723
229.415
268.801
300.267
320.675
329.369
327.941
317.252
300.069
279.872
258.609
237.222
216.418
196.444
177.431
159.196
141.542
124.14
106.891
89.5895
72.3166
55.4978
40.6056
28.5673
18.6998
10.5891
4.19901
-0.370323
-3.13172
-4.17972
-3.61787
-1.47895
2.23582
7.87076
15.984
29.8291
52.5881
56.9864
8.32979
-46.4566
-106.947
-169.664
-233.946
-298.228
-359.85
-417.23
-469.369
-515.014
-553.612
-584.857
-608.94
-626.094
-636.737
-640.899
-638.641
-630.61
-617.531
-601.264
-583.84
-566.419
-544.536
-511.358
-467.258
-420.363
-377.833
-340.184
-304.371
-268.754
-233.276
-197.983
-162.55
-126.645
-89.2637
-50.9472
-6.36799
25.8126
100.893
143.55
185.977
226.146
260.846
288.457
306.875
315.793
315.951
308.014
294.061
276.444
256.946
236.734
216.619
197.036
178.184
160.03
142.429
125.14
108.028
90.9526
73.9778
57.4853
42.6381
30.3395
20.2184
11.92
5.43006
0.836192
-1.92507
-3.01162
-2.54139
-0.528644
3.05738
8.57881
16.6038
30.3144
52.1918
79.5942
38.8058
-7.79033
-59.0329
-112.832
-169.118
-226.226
-282.397
-336.306
-386.797
-432.749
-473.433
-508.383
-537.449
-560.508
-577.682
-588.52
-592.98
-591.374
-584.318
-573.098
-559.262
-543.644
-523.38
-493.54
-454.078
-411.205
-371.128
-334.896
-300.198
-265.57
-230.92
-196.301
-161.406
-125.893
-88.7834
-50.6482
-6.26867
26.0186
116.129
151.215
186.409
220.361
250.08
274.299
291.207
300.32
301.883
296.361
285.347
270.587
253.541
235.309
216.68
198.137
179.955
162.218
144.872
127.769
110.811
93.9228
77.1752
60.9276
46.1393
33.6601
23.3227
14.8038
8.05958
3.15187
0.0245235
-1.4269
-1.27832
0.475525
3.86947
9.25504
17.1813
30.7188
51.7474
85.7198
49.4038
7.72175
-38.4506
-87.0596
-138.516
-191.447
-244.241
-295.887
-345.229
-391.118
-432.748
-469.436
-500.686
-526.197
-545.66
-558.823
-565.693
-566.506
-561.884
-552.846
-540.679
-526.028
-506.852
-479.341
-443.145
-403.153
-364.862
-329.682
-295.862
-262.075
-228.182
-194.221
-159.894
-124.872
-88.1842
-50.3572
-6.31069
26.0825
118.33
149.48
180.809
211.03
237.501
259.35
275.182
284.416
287.082
283.599
275.12
262.959
248.258
231.978
214.87
197.443
180.031
162.814
145.826
129.008
112.304
95.6856
79.2363
63.288
48.6326
36.0435
25.5125
16.7825
9.8148
4.67732
1.34343
-0.272505
-0.252427
1.39336
4.69292
9.99163
17.8258
31.154
51.2943
89.5116
57.3595
20.2626
-20.7985
-64.039
-110.159
-157.878
-205.915
-253.53
-299.667
-343.357
-383.831
-420.353
-452.324
-479.318
-500.959
-517.128
-527.628
-532.465
-532.003
-526.917
-518.102
-505.959
-489.016
-464.365
-431.583
-394.625
-358.369
-324.446
-291.577
-258.609
-225.42
-192.079
-158.305
-123.77
-87.5321
-50.0954
-6.524
25.9683
118.385
145.862
173.697
200.747
224.57
244.522
259.472
268.741
272.236
270.374
263.999
254.126
241.648
227.365
211.951
195.887
179.524
163.091
146.691
130.336
114.02
97.7569
81.6482
66.009
51.5145
38.8677
28.1809
19.2744
12.1143
6.76506
3.21253
1.37333
1.17042
2.60049
5.70558
10.8359
18.5149
31.5742
50.8016
89.4311
60.4135
26.845
-10.3445
-49.4306
-91.3469
-134.957
-179.14
-223.402
-266.804
-308.507
-347.825
-384.01
-416.413
-444.515
-467.866
-486.057
-498.823
-506.015
-507.911
-505.055
-498.151
-487.518
-472.15
-449.868
-420.17
-386.116
-351.902
-319.27
-287.372
-255.231
-222.732
-189.963
-156.698
-122.652
-86.9021
-49.9261
-6.94599
25.6496
115.516
140.261
165.456
190.042
211.779
230.21
244.408
253.629
257.737
257.144
252.491
244.574
234.096
221.701
207.968
193.32
178.098
162.559
146.851
131.047
115.19
99.3339
83.6016
68.2942
53.9975
41.3503
30.549
21.489
14.1476
8.58824
4.8115
2.75243
2.34591
3.59739
6.55347
11.558
19.1114
31.8971
50.2345
87.7512
61.4117
30.8778
-2.9195
-38.3447
-76.4563
-116.208
-156.623
-197.379
-237.677
-276.79
-314.148
-349.06
-380.89
-409.079
-433.117
-452.54
-467.111
-476.626
-481.151
-480.985
-476.558
-468.031
-454.673
-434.887
-408.21
-377.018
-344.909
-313.677
-282.847
-251.625
-219.901
-187.773
-155.049
-121.495
-86.2547
-49.8309
-7.56064
25.0747
111.464
133.911
156.893
179.43
199.432
216.602
230.124
239.226
243.784
244.171
240.906
234.633
225.911
215.255
203.144
189.937
175.942
161.417
146.534
131.404
116.113
100.75
85.4542
70.5174
56.4641
43.8771
33.0101
23.8307
16.3343
10.5867
6.60423
4.33804
3.73105
4.79255
7.57531
12.4184
19.8016
32.246
49.6654
84.8554
60.7371
32.7455
1.78516
-30.5647
-65.4267
-101.855
-138.969
-176.589
-214.018
-250.651
-286.027
-319.523
-350.542
-378.536
-402.967
-423.341
-439.292
-450.532
-456.958
-458.733
-456.154
-449.31
-437.682
-420.103
-396.153
-367.642
-337.608
-307.816
-278.094
-247.825
-216.915
-185.469
-153.33
-120.295
-85.5729
-49.7475
-8.27352
24.2246
106.601
127.152
148.298
169.117
187.655
203.756
216.661
225.598
230.47
231.611
229.46
224.553
217.344
208.248
197.652
185.847
173.101
159.649
145.668
131.294
116.644
101.833
87.0185
72.4846
58.7109
46.234
35.3447
26.0755
18.4444
12.5225
8.34063
5.86704
5.05665
5.92666
8.53671
13.219
20.4281
32.5132
49.0367
81.3075
59.096
33.2988
4.801
-24.88
-56.892
-90.3551
-124.475
-159.173
-193.838
-227.975
-261.214
-293.004
-322.825
-350.151
-374.441
-395.189
-411.986
-424.528
-432.603
-436.213
-435.49
-430.421
-420.606
-405.198
-383.84
-357.915
-329.961
-301.665
-273.103
-243.826
-213.765
-183.035
-151.516
-119.038
-84.8608
-49.6473
-9.02648
23.1488
101.369
120.305
139.881
159.228
176.509
191.676
204.014
212.753
217.831
219.549
218.288
214.506
208.587
200.865
191.655
181.184
169.672
157.322
144.303
130.758
116.821
102.628
88.3476
74.259
60.8089
48.4972
37.637
28.3159
20.5793
14.5054
10.14
7.46992
6.46165
7.13883
9.56845
14.0739
21.0828
32.7612
48.3776
77.3744
56.8086
32.913
6.55069
-20.8101
-50.3303
-81.1832
-112.646
-144.699
-176.813
-208.586
-239.732
-269.771
-298.248
-324.688
-348.577
-369.409
-386.75
-400.238
-409.583
-414.647
-415.457
-411.944
-403.792
-390.381
-371.413
-347.928
-322.016
-295.248
-267.885
-239.634
-210.457
-180.478
-149.611
-117.723
-84.1267
-49.5259
-9.82821
21.9132
95.981
113.528
131.747
149.817
166.003
180.341
192.149
200.671
205.871
208.026
207.471
204.614
199.785
193.261
185.297
176.067
165.743
154.492
142.463
129.794
116.625
103.103
89.4024
75.7962
62.7096
50.6119
39.828
30.4914
22.6761
16.4706
11.9351
9.07513
7.87141
8.35488
10.6006
14.9214
21.7158
32.9611
47.683
73.2594
54.1364
31.9117
7.42784
-17.8961
-45.2146
-73.745
-102.82
-132.472
-162.23
-191.766
-220.866
-249.118
-276.139
-301.5
-324.725
-345.331
-362.873
-376.959
-387.273
-393.552
-395.73
-393.677
-387.12
-375.597
-358.861
-337.685
-313.777
-288.563
-262.438
-235.251
-206.993
-177.8
-147.619
-116.355
-83.3794
-49.4018
-10.695
20.5441
90.5952
106.93
123.959
140.903
156.125
169.714
181.02
189.316
194.572
197.053
197.061
194.961
191.049
185.558
178.7
170.606
161.403
151.224
140.19
128.425
116.066
103.261
90.1829
77.0986
64.4161
52.5812
41.9228
32.6109
24.7484
18.4358
13.7485
10.7105
9.31772
9.6079
11.6645
15.788
22.3468
33.1254
46.9579
69.0923
51.2422
30.4983
7.67818
-15.8443
-41.2075
-67.6682
-94.602
-122.081
-149.687
-177.14
-204.294
-230.793
-256.319
-280.501
-302.905
-323.078
-340.583
-355.001
-366.007
-373.244
-376.562
-375.798
-370.701
-360.919
-346.241
-327.235
-305.273
-281.624
-256.768
-230.675
-203.371
-174.999
-145.54
-114.934
-82.6183
-49.2963
-11.6278
19.0474
85.301
100.571
116.542
132.482
146.845
159.753
170.585
178.646
183.91
186.63
187.082
185.601
182.456
177.853
171.968
164.898
156.738
147.584
137.53
126.679
115.155
103.099
90.6792
78.1531
65.913
54.3857
43.8996
34.6526
26.7745
20.3803
15.5597
12.3555
10.7797
10.8776
12.7413
16.6578
22.9637
33.2498
46.2048
64.959
48.243
28.8229
7.48933
-14.4263
-38.0422
-62.6492
-87.6556
-113.167
-138.803
-164.328
-189.642
-214.446
-238.476
-261.418
-282.887
-302.456
-319.713
-334.229
-345.676
-353.649
-357.922
-358.297
-354.538
-346.363
-333.585
-316.609
-296.526
-274.442
-250.88
-225.908
-199.589
-172.073
-143.371
-113.458
-81.84
-49.2165
-12.6235
17.4374
80.1613
94.4804
109.509
124.542
138.134
150.414
160.796
168.62
173.852
176.744
177.546
176.57
174.066
170.22
165.184
159.031
151.827
143.64
134.533
124.587
113.908
102.624
90.892
78.9561
67.1942
56.0168
45.7487
36.6075
28.7477
22.2992
17.3666
14.0107
12.2603
12.1682
13.8355
17.5342
23.5689
33.3383
45.4275
60.9154
45.2195
26.9905
6.99478
-13.48
-35.5265
-58.4625
-81.7318
-105.457
-129.29
-153.033
-176.626
-199.815
-222.386
-244.069
-264.529
-283.38
-300.231
-314.665
-326.345
-334.852
-339.893
-341.246
-338.687
-331.974
-320.937
-305.851
-287.568
-267.033
-244.78
-220.954
-195.647
-169.02
-141.11
-111.926
-81.0431
-49.1579
-13.6795
15.7269
75.2131
88.6775
102.852
117.067
129.955
141.654
151.61
159.194
164.368
167.375
168.452
167.886
165.918
162.718
158.419
153.08
146.744
139.454
131.25
122.186
112.349
101.848
90.8244
79.5049
68.2525
57.4639
47.4567
38.4619
30.6546
24.1806
19.1584
15.6664
13.7509
13.4723
14.9404
18.4117
24.1582
33.3909
44.63
56.9985
42.2276
25.0773
6.29335
-12.8818
-33.5083
-54.9323
-76.6281
-98.728
-120.912
-143.017
-165.006
-186.666
-207.825
-228.259
-247.673
-265.723
-282.048
-296.249
-307.982
-316.848
-322.491
-324.672
-323.173
-317.781
-308.332
-294.996
-278.429
-259.417
-238.48
-215.816
-191.548
-165.841
-138.758
-110.338
-80.2272
-49.1173
-14.7892
13.9221
70.4773
83.1683
96.566
110.033
122.275
133.435
142.987
150.33
155.424
158.504
159.794
159.562
158.04
155.388
151.727
147.105
141.55
135.086
127.73
119.515
110.504
100.786
90.4821
79.7998
69.0852
58.72
49.0136
40.2045
32.4848
26.0148
20.927
17.3166
15.2469
14.7866
16.0535
19.2883
24.7305
33.4104
43.8161
53.2333
39.3041
23.1364
5.45742
-12.5389
-31.8743
-51.926
-72.1901
-92.8086
-113.487
-134.081
-154.579
-174.802
-194.61
-213.822
-232.181
-249.381
-265.094
-278.945
-290.588
-299.654
-305.746
-308.611
-308.034
-303.821
-295.81
-284.088
-269.142
-251.616
-231.992
-210.503
-187.295
-162.537
-136.313
-108.693
-79.3921
-49.0923
-15.9444
12.0293
65.9645
77.9521
90.6382
103.418
115.064
125.718
134.887
141.991
146.987
150.108
151.56
151.599
150.449
148.262
145.152
141.16
136.303
130.591
124.024
116.615
108.404
99.4583
89.8771
79.8455
69.6905
59.779
50.4099
41.8241
34.2266
27.791
22.6627
18.9528
16.7414
16.1053
17.1701
20.1603
25.2837
33.3986
42.9899
49.6338
36.4748
21.2101
4.53988
-12.3782
-30.5379
-49.3357
-68.2947
-87.5588
-106.856
-126.059
-145.176
-164.053
-182.582
-200.612
-217.923
-234.248
-249.288
-262.697
-274.136
-283.264
-289.671
-293.086
-293.298
-290.127
-283.41
-273.166
-259.744
-243.655
-225.332
-205.024
-182.892
-159.109
-133.776
-106.991
-78.5361
-49.0821
-17.1363
10.0597
61.6785
73.0214
85.0523
97.1973
108.291
118.471
127.274
134.141
139.03
142.163
143.737
143.995
143.155
141.363
138.728
135.285
131.049
126.017
120.177
113.524
106.079
97.8875
89.0239
79.6493
70.0703
60.6377
51.6381
43.3109
35.8695
29.4987
24.3561
20.567
18.2275
17.4232
18.2857
21.0245
25.816
33.3581
42.1562
46.2069
33.7576
19.3232
3.58314
-12.3488
-29.4287
-47.0787
-64.841
-82.8656
-100.894
-118.816
-136.653
-154.274
-171.594
-188.492
-204.777
-220.22
-234.55
-247.452
-258.599
-267.674
-274.277
-278.118
-278.991
-276.729
-271.167
-262.269
-250.268
-235.561
-218.519
-199.39
-178.346
-155.56
-131.149
-105.232
-77.6582
-49.085
-18.356
8.02513
57.6189
68.3675
79.7922
91.3489
101.925
111.66
120.114
126.749
131.52
134.644
136.309
136.744
136.162
134.705
132.478
129.516
125.829
121.408
116.233
110.284
103.564
96.0981
87.9383
79.2208
70.2291
61.2953
52.6926
44.6561
37.4034
31.1276
25.9972
22.1502
19.6975
18.734
19.3955
21.8771
26.3259
33.2915
41.3196
42.9562
31.1635
17.4967
2.61513
-12.4076
-28.495
-45.0882
-61.7529
-78.6378
-95.4986
-112.238
-128.89
-145.339
-161.521
-177.341
-192.635
-207.202
-220.804
-233.151
-243.939
-252.868
-259.563
-263.719
-265.135
-263.655
-259.115
-251.434
-240.753
-227.362
-211.571
-193.614
-173.665
-151.896
-128.432
-103.415
-76.7565
-49.0979
-19.5949
5.9387
53.7815
63.9803
74.8419
85.8507
95.9419
105.255
113.376
119.784
124.432
127.532
129.261
129.837
129.47
128.298
126.423
123.879
120.676
116.802
112.229
106.93
100.89
94.1171
86.6412
78.5739
70.1734
61.7524
53.5698
45.8527
38.8189
32.6679
27.5762
23.6935
21.1437
20.031
20.4939
22.7146
26.812
33.2014
40.4844
39.8811
28.698
15.7446
1.65918
-12.524
-27.6939
-43.313
-58.9658
-74.8003
-90.5849
-106.233
-121.787
-137.146
-152.262
-167.059
-181.4
-195.109
-207.977
-219.74
-230.119
-238.826
-245.524
-249.896
-251.746
-250.931
-247.287
-240.7
-231.234
-219.089
-204.511
-187.712
-168.86
-148.12
-125.629
-101.541
-75.8287
-49.1165
-20.8436
3.8147
50.1616
59.8485
70.185
80.681
90.3169
99.2309
107.034
113.22
117.741
120.803
122.575
123.265
123.078
122.147
120.574
118.394
115.617
112.23
108.202
103.496
98.0892
91.9719
85.1544
77.7234
69.912
62.0127
54.2681
46.8948
40.1081
34.1099
29.0833
25.1876
22.5578
21.3072
21.5756
23.5331
27.2729
33.0907
39.6552
36.9795
26.3646
14.0751
0.731028
-12.673
-26.993
-41.7102
-56.4283
-71.2907
-86.0815
-100.721
-115.258
-129.602
-143.72
-157.553
-170.983
-183.86
-195.999
-207.163
-217.096
-225.524
-232.15
-236.651
-238.837
-238.577
-235.711
-230.101
-221.747
-210.773
-197.363
-181.701
-163.94
-144.241
-122.741
-99.6107
-74.8729
-49.1365
-22.0918
1.66804
46.7514
55.9607
65.8051
75.8198
85.0268
93.5636
101.062
107.031
111.423
114.438
116.236
117.017
116.978
116.253
114.94
113.077
110.675
107.72
104.18
100.015
95.1924
89.6895
83.4994
76.6856
69.4564
62.0821
54.7879
47.7789
41.2639
35.445
30.5093
26.6231
23.9313
22.5552
22.6346
24.3288
27.7074
32.9618
38.8366
34.2475
24.163
12.4947
-0.157172
-12.8378
-26.3665
-40.2468
-54.0981
-68.0617
-81.931
-95.6367
-109.229
-122.63
-135.815
-148.741
-161.306
-173.381
-184.805
-195.365
-204.828
-212.935
-219.425
-223.981
-226.417
-226.611
-224.414
-219.668
-212.326
-202.445
-190.153
-175.599
-158.92
-140.265
-119.774
-97.6243
-73.8865
-49.1522
-23.3306
-0.487186
43.5424
52.3059
61.6882
71.2492
80.0516
88.2302
95.4372
101.195
105.456
108.417
110.228
111.079
111.165
110.616
109.526
107.939
105.865
103.292
100.189
96.5142
92.2276
87.2966
81.6996
75.4797
68.8198
61.968
55.1321
48.5026
42.2808
36.6655
31.845
27.991
25.2556
23.7674
23.6649
25.0976
28.1143
32.8176
38.0327
31.6799
22.0924
11.0062
-0.997513
-13.0028
-25.7942
-38.8954
-51.9416
-65.0702
-78.0865
-90.9256
-103.641
-116.163
-128.477
-140.55
-152.296
-163.605
-174.333
-184.292
-193.272
-201.029
-207.333
-211.879
-214.488
-215.048
-213.418
-209.433
-203.004
-194.137
-182.907
-169.427
-153.814
-136.204
-116.733
-95.583
-72.8671
-49.1573
-24.5489
-2.63544
40.5269
48.8713
57.8193
66.9526
75.372
83.2093
90.1364
95.6892
99.8215
102.722
104.534
105.44
105.629
105.23
104.334
102.987
101.2
98.9657
96.2527
93.0187
89.2208
84.8186
79.7785
74.1247
68.0167
61.68
55.3044
49.0661
43.155
37.7645
33.0824
29.2824
26.522
24.936
24.6604
25.8355
28.4927
32.6603
37.2474
29.2702
20.1504
9.61123
-1.78459
-13.1574
-25.2603
-37.634
-49.9302
-62.2827
-74.5058
-86.5398
-98.4398
-110.145
-121.646
-132.919
-143.893
-154.471
-164.527
-173.896
-182.387
-189.775
-195.852
-200.337
-203.052
-203.897
-202.744
-199.421
-193.813
-185.879
-175.651
-163.205
-148.638
-132.067
-113.622
-93.4886
-71.8116
-49.1456
-25.7366
-4.76179
37.6961
45.6465
54.1843
62.9127
70.9689
78.4812
85.1404
90.4951
94.4991
97.3346
99.1403
100.089
100.364
100.092
99.3636
98.2248
96.6905
94.7543
92.3878
89.5498
86.1955
82.2789
77.7575
72.6399
67.0623
61.2291
55.3116
49.4705
43.8838
38.7369
34.2137
30.4887
27.7221
26.0532
25.6147
26.5386
28.8414
32.492
36.4841
27.0128
18.3336
8.30929
-2.51499
-13.2948
-24.7525
-36.4461
-48.0421
-59.671
-71.1554
-82.441
-93.5821
-104.525
-115.268
-125.792
-136.037
-145.922
-155.335
-164.129
-172.132
-179.14
-184.961
-189.341
-192.107
-193.167
-192.407
-189.657
-184.779
-177.701
-168.413
-156.959
-143.409
-127.865
-110.449
-91.3419
-70.7182
-49.1091
-26.883
-6.85099
35.0416
42.6203
50.7701
59.1143
66.8259
74.0287
80.4302
85.5936
89.4711
92.2397
94.0315
95.0114
95.3588
95.1957
94.6121
93.6548
92.3415
90.6682
88.6093
86.1256
83.1721
79.699
75.658
71.0438
65.9729
60.6274
55.1611
49.7193
44.4664
39.5782
35.2327
31.6022
28.8479
27.1114
26.5217
27.2028
29.1595
32.3147
35.746
24.9011
16.6374
7.09951
-3.18652
-13.4088
-24.2609
-35.3173
-46.2586
-57.2116
-68.0066
-78.595
-89.0298
-99.2636
-109.298
-119.122
-128.682
-137.91
-146.709
-154.946
-162.469
-169.091
-174.635
-178.877
-181.645
-182.859
-182.421
-180.162
-175.931
-169.63
-161.218
-150.708
-138.146
-123.612
-107.221
-89.147
-69.5835
-49.0411
-27.9792
-8.8878
32.5544
39.7818
47.5643
55.5443
62.9275
69.8354
75.9895
80.9674
84.7209
87.4211
89.1937
90.1963
90.6032
90.5335
90.0757
89.277
88.1576
86.7158
84.9294
82.7617
80.1684
77.099
73.5001
69.3564
64.765
59.888
54.862
49.8172
44.9037
40.2857
36.1337
32.6159
29.8916
28.1032
27.3752
27.8243
29.4461
32.1296
35.0354
22.9285
15.0579
5.9791
-3.79804
-13.496
-23.7783
-34.2362
-44.5649
-54.8853
-65.037
-74.9746
-84.7513
-94.323
-103.697
-112.864
-121.781
-130.389
-138.604
-146.306
-153.36
-159.597
-164.851
-168.928
-171.66
-172.977
-172.794
-170.952
-167.292
-161.694
-154.094
-144.477
-132.865
-119.322
-103.945
-86.9048
-68.4058
-48.9351
-29.0143
-10.8584
30.226
37.1209
44.5553
52.1885
59.2591
65.8858
71.8022
76.6009
80.2329
82.8639
84.6134
85.6318
86.0884
86.0987
85.7498
85.0897
84.1401
82.9022
81.3569
79.4702
77.1999
74.4963
71.3025
67.5951
63.4546
59.0243
54.4244
49.7703
45.1975
40.8581
36.9128
33.5234
30.8461
29.0218
28.1695
28.3992
29.6998
31.938
34.354
21.0881
13.5898
4.94585
-4.35013
-13.5537
-23.2996
-33.1944
-42.9479
-52.6759
-62.2259
-71.5551
-80.7175
-89.6722
-98.428
-106.982
-115.296
-123.321
-130.981
-138.172
-144.771
-150.626
-155.585
-159.475
-162.14
-163.517
-163.534
-162.043
-158.881
-153.917
-147.066
-138.289
-127.588
-115.007
-100.632
-84.6195
-67.1826
-48.7818
-29.9799
-12.7495
28.0485
34.6279
41.7315
49.0345
55.8072
62.1648
67.8535
72.4788
75.9924
78.554
80.2773
81.3056
81.8034
81.8829
81.6284
81.0893
80.2888
79.2304
77.898
76.2611
74.2801
71.9059
69.0813
65.7766
62.0574
58.0498
53.8591
49.586
45.3519
41.2955
37.5669
34.32
31.7051
29.8604
28.8989
28.9237
29.9199
31.7405
33.703
19.3735
12.2281
3.99671
-4.84389
-13.5803
-22.8198
-32.1846
-41.3971
-50.5693
-59.5554
-68.3162
-76.9043
-85.2827
-93.462
-101.442
-109.192
-116.667
-123.803
-130.507
-136.668
-142.15
-146.811
-150.502
-153.075
-154.474
-154.645
-153.446
-150.717
-146.319
-140.155
-132.165
-122.333
-110.683
-97.289
-82.295
-65.9122
-48.5761
-30.8661
-14.5484
26.0137
32.2933
39.0826
46.0711
52.5591
58.6594
64.1295
68.5873
71.9857
74.4781
76.173
77.2068
77.7381
77.8773
77.7053
77.2723
76.6027
75.702
74.5575
73.1422
71.4189
69.341
66.8515
63.9165
60.5887
56.9786
53.1775
49.2727
45.3716
41.5995
38.0947
35.0016
32.4632
30.6132
29.5582
29.3945
30.1049
31.5374
33.0826
17.7783
10.9681
3.12803
-5.28062
-13.5754
-22.3366
-31.2014
-39.9051
-48.555
-57.0127
-65.241
-73.2919
-81.1318
-88.7722
-96.2162
-103.437
-110.397
-117.038
-123.279
-129.021
-134.14
-138.505
-141.989
-144.45
-145.844
-146.126
-145.169
-142.814
-138.922
-133.383
-126.127
-117.118
-106.365
-93.9275
-79.9348
-64.5936
-48.3108
-31.6656
-16.2446
24.1139
30.1087
36.5983
43.287
49.503
55.3571
60.6168
64.9138
68.2001
70.6241
72.2884
73.3237
73.8831
74.0733
73.9734
73.6332
73.0788
72.3169
71.3382
70.119
68.6253
66.8128
64.6262
62.0288
59.0628
55.8239
52.3911
48.8394
45.2626
41.7728
38.4958
35.5655
33.1163
31.2754
30.143
29.8082
30.2536
31.3283
32.4926
16.296
9.80438
2.33634
-5.66241
-13.5391
-21.8478
-30.2407
-38.4653
-46.6242
-54.5853
-62.3149
-69.863
-77.1991
-84.3355
-91.2782
-98.0035
-104.48
-110.656
-116.459
-121.8
-126.569
-130.644
-133.915
-136.252
-137.617
-137.977
-137.216
-135.184
-131.74
-126.771
-120.194
-111.961
-102.067
-90.5568
-77.544
-63.2266
-47.9805
-32.371
-17.8283
22.3417
28.0655
34.2696
40.6715
46.6277
52.2459
57.3037
61.4456
64.623
66.9795
68.6125
69.6463
70.2285
70.4626
70.4254
70.1669
69.7133
69.0739
68.2415
67.1955
65.9056
64.3303
62.4168
60.1266
57.4928
54.5987
51.5117
48.2956
45.0319
41.8193
38.7714
36.0104
33.661
31.8427
30.6492
30.1619
30.3647
31.1126
31.9317
14.9205
8.73197
1.6179
-5.99147
-13.4718
-21.3521
-29.2989
-37.0712
-44.7678
-52.2624
-59.5245
-66.6016
-73.4665
-80.1323
-86.6059
-92.8678
-98.8906
-104.63
-110.019
-114.98
-119.412
-123.206
-126.263
-128.466
-129.784
-130.194
-129.592
-127.835
-124.788
-120.334
-114.385
-106.881
-97.8045
-87.1872
-75.1279
-61.8103
-47.5804
-32.976
-19.2904
20.69
26.1556
32.0872
38.2151
43.9228
49.315
54.1789
58.1709
61.2432
63.5335
65.1341
66.1635
66.7642
67.0364
67.0541
66.8671
66.5024
65.9703
65.2669
64.3741
63.2649
61.9011
60.2325
58.2206
55.8908
53.3148
50.5505
47.6513
44.6871
41.7444
38.9238
36.3361
34.0953
32.3121
31.0736
30.453
30.4367
30.8893
31.3984
13.6457
7.74592
0.968851
-6.27025
-13.3744
-20.849
-28.3735
-35.7191
-42.9796
-50.0358
-56.8586
-63.4944
-69.9179
-76.1436
-82.179
-88.0076
-93.6058
-98.9345
-103.934
-108.535
-112.646
-116.167
-119.013
-121.077
-122.336
-122.772
-122.296
-120.775
-118.078
-114.089
-108.715
-101.892
-93.5904
-83.8292
-72.6921
-60.3467
-47.1062
-33.4751
-20.6242
19.1519
24.3714
30.0427
35.9088
41.3784
46.554
51.2314
55.0791
58.0494
60.2746
61.8425
62.8656
63.4809
63.7858
63.8516
63.7275
63.4408
63.0035
62.4133
61.6557
60.7064
59.5305
58.0813
56.3206
54.2677
51.984
49.5187
46.9165
44.2366
41.5538
38.9566
36.5438
34.4185
32.6815
31.4135
30.6793
30.4683
30.657
30.8901
12.466
6.84131
0.385387
-6.50143
-13.2485
-20.3382
-27.4633
-34.4055
-41.2551
-47.8982
-54.3084
-60.5304
-66.5409
-72.3544
-77.9799
-83.4033
-88.6041
-93.5479
-98.1819
-102.442
-106.248
-109.508
-112.147
-114.07
-115.259
-115.705
-115.329
-114.007
-111.617
-108.045
-103.2
-97.0102
-89.4384
-80.4932
-70.2425
-58.8367
-46.5562
-33.8648
-21.8239
17.7209
22.7054
28.1281
33.7435
38.9852
43.953
48.4512
52.1599
55.0314
57.1929
58.728
59.7426
60.3697
60.7028
60.8106
60.7414
60.5234
60.1695
59.679
59.0404
58.2322
57.2232
55.9698
54.435
52.6331
50.6166
48.4269
46.1011
43.689
41.2544
38.8745
36.6359
34.6309
32.9502
31.6672
30.8391
30.458
30.4138
30.404
11.3757
6.01347
-0.136362
-6.68771
-13.0954
-19.8199
-26.5662
-33.1271
-39.5892
-45.8431
-51.8656
-57.6991
-63.3225
-68.7507
-73.9931
-79.0377
-83.8667
-88.4501
-92.7406
-96.6808
-100.198
-103.209
-105.647
-107.43
-108.543
-108.984
-108.685
-107.533
-105.412
-102.215
-97.8517
-92.248
-85.3608
-77.1888
-67.7858
-57.2829
-45.9289
-34.142
-22.8857
16.3908
21.1509
26.3357
31.7113
36.7346
41.5029
45.8287
49.4032
52.1793
54.2787
55.7808
56.7857
57.4217
57.7786
57.9231
57.9024
57.7448
57.4639
57.0611
56.5271
55.8434
54.982
53.9029
52.5708
50.9954
49.2219
47.2849
45.2147
43.0531
40.8537
38.6828
36.616
34.7343
33.1183
31.834
30.9312
30.4047
30.1579
29.9368
10.3695
5.25778
-0.60015
-6.83198
-12.917
-19.2947
-25.6821
-31.8824
-37.9781
-43.8656
-49.523
-54.9921
-60.2526
-65.32
-70.204
-74.8948
-79.3766
-83.6229
-87.5917
-91.2314
-94.4759
-97.2511
-99.4956
-101.141
-102.174
-102.6
-102.359
-101.351
-99.466
-96.6054
-92.6802
-87.6171
-81.3687
-73.9257
-65.3282
-55.6886
-45.2236
-34.3056
-23.807
15.1556
19.7013
24.6585
29.8043
34.6183
39.1949
43.3549
46.8002
49.4838
51.5225
52.9915
53.9857
54.6281
55.0055
55.1817
55.2036
55.0989
54.8822
54.5564
54.1143
53.5402
52.8092
51.8848
50.7338
49.3622
47.8085
46.1019
44.2669
42.3377
40.3594
38.3881
36.4887
34.7315
33.187
31.9139
30.955
30.3072
29.887
29.4848
9.44236
4.56981
-1.00963
-6.9368
-12.715
-18.7632
-24.8104
-30.6692
-36.4186
-41.9607
-47.275
-52.4016
-57.322
-62.0516
-66.6008
-70.9606
-75.1182
-79.0498
-82.7176
-86.0754
-89.064
-91.6161
-93.6767
-95.1877
-96.1399
-96.5432
-96.3468
-95.4591
-93.7814
-91.2211
-87.6936
-83.1273
-77.4724
-70.7126
-62.8767
-54.0579
-44.4419
-34.3551
-24.5866
14.0094
18.3503
23.0894
28.0151
32.6283
37.021
41.0213
44.342
46.9361
48.9156
50.3516
51.3339
51.9806
52.3752
52.5792
52.6382
52.5799
52.4194
52.1611
51.7996
51.3219
50.7056
49.9182
48.9284
47.7396
46.3842
44.8866
43.2665
41.5518
39.7796
37.9972
36.2593
34.6262
33.1587
31.908
30.9104
30.1644
29.5991
29.0441
8.5893
3.94508
-1.36833
-7.00505
-12.4914
-18.2262
-23.9506
-29.4861
-34.9086
-40.1247
-45.1161
-49.9209
-54.5224
-58.9361
-63.172
-67.2228
-71.0778
-74.7155
-78.1024
-81.1966
-83.9451
-86.2873
-88.1739
-89.556
-90.4278
-90.8032
-90.6392
-89.8539
-88.3577
-86.0654
-82.8978
-78.7865
-73.6804
-67.5582
-60.438
-52.3951
-43.5861
-34.2922
-25.2254
12.9469
17.0918
21.6223
26.3367
30.7574
34.9732
38.8199
42.0202
44.5278
46.4496
47.8527
48.8222
49.4712
49.8802
50.1081
50.1994
50.1818
50.0705
49.8713
49.5803
49.1869
48.6717
48.0053
47.1587
46.133
44.9556
43.6467
42.222
40.7039
39.1227
37.5175
35.9342
34.4233
33.0367
31.8181
30.7981
29.9759
29.2919
28.6109
7.80562
3.37964
-1.67986
-7.03952
-12.248
-17.6849
-23.1028
-28.3322
-33.4454
-38.3542
-43.0412
-47.5439
-51.8464
-55.9642
-59.9074
-63.6699
-67.2425
-70.6063
-73.7311
-76.5795
-79.1034
-81.249
-82.9718
-84.2311
-85.0244
-85.3685
-85.2279
-84.5294
-83.1925
-81.1394
-78.2971
-74.6007
-70
-64.4698
-58.0186
-50.7056
-42.6597
-34.1193
-25.725
11.9629
15.9203
20.2509
24.7629
28.9986
33.0445
36.7432
39.8273
42.2511
44.1163
45.4868
46.4426
47.0922
47.5131
47.7615
47.881
47.8988
47.8304
47.6826
47.4533
47.1337
46.707
46.1472
45.4273
44.5468
43.5285
42.3893
41.1413
39.8024
38.397
36.9569
35.5201
34.1284
32.825
31.6469
30.6191
29.7411
28.9633
28.1811
7.08686
2.86944
-1.94748
-7.04285
-11.9868
-17.1405
-22.2673
-27.2068
-32.0274
-36.6461
-41.047
-45.2656
-49.2876
-53.1284
-56.798
-60.2913
-63.6007
-66.7094
-69.5902
-72.2095
-74.5243
-76.4861
-78.0557
-79.1989
-79.9167
-80.2281
-80.1038
-79.479
-78.282
-76.4423
-73.8933
-70.5747
-66.4375
-61.4541
-55.6253
-48.9952
-41.6674
-33.8403
-26.0884
11.0525
14.8304
18.9695
23.2871
27.3453
31.2277
34.7837
37.7559
40.0983
41.9085
43.2464
44.1878
44.8365
45.2667
45.5326
45.6763
45.7249
45.694
45.591
45.4153
45.16
44.8108
44.3444
43.7365
42.9847
42.1081
41.1207
40.0317
38.8552
37.6105
36.3233
35.0243
33.7476
32.5287
31.3979
30.3753
29.4603
28.6115
27.7509
6.42869
2.41072
-2.17445
-7.01766
-11.7096
-16.594
-21.4444
-26.1091
-30.6533
-34.9981
-39.1294
-43.081
-46.8401
-50.4214
-53.8355
-57.0778
-60.1419
-63.013
-65.667
-68.0734
-70.1937
-71.9843
-73.4112
-74.4457
-75.0916
-75.37
-75.2568
-74.695
-73.6209
-71.9716
-69.6869
-66.7109
-62.9974
-58.5169
-53.2641
-47.2698
-40.6145
-33.4601
-26.3204
10.211
13.8171
17.7724
21.9037
25.7912
29.5164
32.935
35.7988
38.0623
39.8187
41.1243
42.0506
42.6968
43.1343
43.4148
43.5794
43.6546
43.6561
43.5919
43.4628
43.2634
42.9816
42.5971
42.0876
41.4496
40.6988
39.8465
38.9
37.8699
36.7714
35.6248
34.4544
33.2878
32.1531
31.0751
30.069
29.1339
28.2349
27.3167
5.82715
1.99978
-2.3638
-6.9665
-11.4183
-16.0465
-20.6346
-25.0389
-29.3214
-33.4078
-37.285
-40.9858
-44.4983
-47.837
-51.0122
-54.0205
-56.8564
-59.5068
-61.9499
-64.1588
-66.0985
-67.7306
-69.0247
-69.958
-70.5363
-70.7821
-70.6764
-70.1688
-69.2031
-67.7237
-65.6766
-63.0109
-59.683
-55.6633
-50.941
-45.5356
-39.5072
-32.9849
-26.4264
9.43387
12.8754
16.6546
20.6069
24.3306
27.9045
31.1905
33.9494
36.1365
37.8401
39.1137
40.0241
40.6666
41.1093
41.402
41.5843
41.6823
41.7116
41.681
41.5922
41.4413
41.2181
40.9049
40.4817
39.944
39.3043
38.572
37.7524
36.8537
35.8873
34.8691
33.8182
32.7559
31.7045
30.6832
29.7033
28.7627
27.8322
26.8753
5.27829
1.63326
-2.51862
-6.89169
-11.1148
-15.4993
-19.8382
-23.9955
-28.0307
-31.8732
-35.5113
-38.9763
-42.2576
-45.3691
-48.3214
-51.1114
-53.7349
-56.1802
-58.428
-60.4536
-62.2263
-63.7117
-64.8833
-65.723
-66.2383
-66.4528
-66.3517
-65.8912
-65.0215
-63.6937
-61.86
-59.4746
-56.4967
-52.8971
-48.6614
-43.799
-38.3524
-32.4215
-26.4129
8.71698
12.0009
15.6112
19.3916
22.9577
26.3858
29.544
32.2016
34.3143
35.9663
37.208
38.1019
38.7393
39.1855
39.4879
39.6852
39.8026
39.8558
39.854
39.7999
39.6907
39.5183
39.2673
38.9194
38.4696
37.9278
37.3014
36.5946
35.8132
34.9657
34.0643
33.1233
32.1594
31.1892
30.2274
29.2813
28.3482
27.4026
26.4238
4.77848
1.30786
-2.64172
-6.79559
-10.801
-14.9534
-19.0557
-22.9791
-26.7802
-30.3924
-33.8052
-37.0487
-40.1132
-43.0124
-45.7566
-48.3433
-50.7694
-53.0243
-55.0909
-56.9472
-58.5657
-59.9158
-60.9744
-61.7278
-62.1849
-62.3701
-62.272
-61.8524
-61.0678
-59.8754
-58.2334
-56.1004
-53.4394
-50.2217
-46.4301
-42.0662
-37.1572
-31.7775
-26.2872
8.05629
11.1891
14.6374
18.2527
21.6674
24.9552
27.9898
30.5494
32.5897
34.1913
35.4011
36.2779