/*--------------------------------*- C++ -*----------------------------------*\
| =========                 |                                                 |
| \\      /  F ield         | OpenFOAM: The Open Source CFD Toolbox           |
|  \\    /   O peration     | Version:  2506                                  |
|   \\  /    A nd           | Website:  www.openfoam.com                      |
|    \\/     M anipulation  |                                                 |
\*---------------------------------------------------------------------------*/
FoamFile
{
    version     2.0;
    format      ascii;
    arch        "LSB;label=32;scalar=64";
    class       volScalarField;
    location    "400";
    object      turbulenceProperties:nut;
}
// * * * * * * * * * * * * * * * * * * * * * * * * * * * * * * * * * * * * * //

dimensions      [0 2 -1 0 0 0 0];

internalField   nonuniform List<scalar> 
10720
(
2.58081e-05
2.95348e-05
3.45226e-05
4.09852e-05
4.9309e-05
6.00255e-05
7.38549e-05
9.11591e-05
0.000112976
0.000140349
0.000175234
0.000220746
0.000281313
0.000364893
0.000485069
0.000663864
0.000945889
0.00139527
0.0022174
0.00358943
0.00690183
0.0127117
0.0339137
0.0760462
0.0937365
0.0946669
0.0957082
0.0992378
0.10275
0.104484
0.10446
0.103211
0.100844
0.0974134
0.0927936
0.0869111
0.0784474
0.0683166
0.0332553
2.25825e-05
1.98038e-05
1.70737e-05
1.45838e-05
1.22498e-05
1.01071e-05
8.24455e-06
6.9612e-06
8.0965e-06
1.07909e-05
1.54813e-05
2.3227e-05
3.55759e-05
5.4454e-05
8.13874e-05
0.000117945
0.000167178
0.000236276
0.000339383
0.00050181
0.000773253
0.00124196
0.00211757
0.00376989
0.00732807
0.0147229
0.0324776
0.0663215
0.0934695
0.105025
0.108433
0.109375
0.109471
0.108975
0.107974
0.106577
0.104431
0.101996
0.0924617
5.08548e-06
4.98033e-06
4.88546e-06
4.80683e-06
4.71662e-06
4.6338e-06
4.57245e-06
4.51875e-06
4.49564e-06
4.51593e-06
4.54347e-06
4.81845e-06
5.87878e-06
8.65257e-06
1.64112e-05
3.68065e-05
8.38864e-05
0.000162845
0.000315355
0.000588362
0.00131686
0.00282582
0.00708055
0.0204177
0.0394404
0.0632812
0.092557
0.123708
0.148732
0.162672
0.167957
0.168779
0.167199
0.163854
0.159345
0.153843
0.148531
0.13951
0.139923
5.16908e-06
5.28233e-06
5.37885e-06
5.50984e-06
5.64413e-06
5.78002e-06
5.91116e-06
6.02176e-06
5.95914e-06
5.8177e-06
5.6246e-06
5.39031e-06
5.12407e-06
4.82944e-06
4.49571e-06
4.11975e-06
3.67668e-06
3.16245e-06
2.54829e-06
1.84351e-06
1.07405e-06
4.20533e-07
5.41014e-08
1.46923e-09
9.30682e-09
9.37204e-05
0.000539953
0.00415675
0.0141155
0.0287196
0.0437273
0.0550626
0.0618255
0.0656073
0.0680051
0.0699954
0.0717271
0.075299
0.0784604
6.26617e-06
6.2835e-06
6.30148e-06
6.32081e-06
6.34451e-06
6.37101e-06
6.40133e-06
6.43679e-06
6.47863e-06
6.52764e-06
6.58586e-06
6.65747e-06
6.73668e-06
6.88028e-06
6.88816e-06
6.46471e-06
5.01935e-06
3.83536e-06
5.49604e-08
0.000102156
3.45423e-05
0.000136097
0.000111013
0.000793962
0.00323211
0.00767039
0.0156444
0.0310873
0.0573819
0.0937452
0.132758
0.164472
0.184898
0.196753
0.203455
0.206338
0.207581
0.201488
0.210284
6.25291e-06
6.23388e-06
6.21933e-06
6.19775e-06
6.17921e-06
6.15929e-06
6.14154e-06
6.12752e-06
6.1323e-06
6.14726e-06
6.16689e-06
6.19087e-06
6.22021e-06
6.25306e-06
6.29009e-06
6.33101e-06
6.3775e-06
6.43079e-06
6.49449e-06
6.57194e-06
6.67139e-06
6.79895e-06
6.98022e-06
7.17352e-06
7.4359e-06
7.15666e-06
7.24724e-06
2.48428e-06
8.3688e-05
0.00079035
0.00301745
0.00754198
0.0142528
0.0224361
0.0311581
0.0396021
0.0470025
0.053672
0.0631653
6.08614e-06
6.08374e-06
6.08314e-06
6.08351e-06
6.08443e-06
6.08709e-06
6.09199e-06
6.09873e-06
6.10878e-06
6.12238e-06
6.14034e-06
6.16384e-06
6.19445e-06
6.23326e-06
6.28433e-06
6.34169e-06
6.24294e-06
5.82687e-06
3.97635e-06
1.23986e-06
4.16703e-18
3.13316e-06
1.22786e-06
0.000150672
0.000674558
0.00168887
0.00145669
0.00175462
0.00372976
0.0133463
0.0355178
0.0727047
0.1188
0.161332
0.193236
0.215374
0.231957
0.239153
0.25525
6.08681e-06
6.08916e-06
6.09228e-06
6.09447e-06
6.09827e-06
6.10031e-06
6.10162e-06
6.10255e-06
6.10041e-06
6.09772e-06
6.09423e-06
6.09049e-06
6.08703e-06
6.08361e-06
6.08028e-06
6.0768e-06
6.07313e-06
6.06913e-06
6.06407e-06
6.05899e-06
6.05362e-06
6.0479e-06
6.04109e-06
6.03482e-06
6.02804e-06
6.03038e-06
6.02311e-06
6.08259e-06
5.99876e-06
5.95275e-06
5.20471e-06
4.15848e-06
0.000226549
0.00104738
0.00305682
0.00692176
0.0131129
0.0218347
0.0392218
6.1112e-06
6.11176e-06
6.11203e-06
6.11292e-06
6.11447e-06
6.11644e-06
6.11911e-06
6.12269e-06
6.12739e-06
6.13357e-06
6.14165e-06
6.15223e-06
6.16611e-06
6.18393e-06
6.2081e-06
6.23633e-06
6.2802e-06
6.3234e-06
6.49646e-06
6.30021e-06
3.48767e-06
3.84942e-07
8.86529e-09
1.73628e-10
0
0
0.000308253
0.00037885
0.000835256
0.000416819
0.00155562
0.00795186
0.0295696
0.0707274
0.124151
0.175081
0.217193
0.24805
0.278275
6.11125e-06
6.10987e-06
6.11057e-06
6.10951e-06
6.11039e-06
6.10919e-06
6.10707e-06
6.10519e-06
6.10412e-06
6.10387e-06
6.10386e-06
6.10377e-06
6.10411e-06
6.10465e-06
6.10562e-06
6.10685e-06
6.1084e-06
6.11024e-06
6.11243e-06
6.11491e-06
6.11767e-06
6.12071e-06
6.12414e-06
6.12795e-06
6.13288e-06
6.13717e-06
6.15041e-06
6.13006e-06
6.27274e-06
5.69506e-06
8.70857e-06
5.80833e-07
2.55659e-05
0.000245473
0.000716066
0.00164913
0.000736531
0.00164495
0.0136906
6.10508e-06
6.10485e-06
6.10515e-06
6.10541e-06
6.10551e-06
6.10591e-06
6.10651e-06
6.10728e-06
6.1085e-06
6.11019e-06
6.11251e-06
6.11573e-06
6.12009e-06
6.12599e-06
6.13411e-06
6.14495e-06
6.16045e-06
6.1758e-06
6.21064e-06
6.31097e-06
6.51918e-06
5.60575e-06
3.21408e-06
1.21904e-07
8.06145e-09
2.0368e-09
3.777e-10
7.07191e-22
0
6.4145e-05
0.000346175
0.00181497
0.000378533
0.00875821
0.0381048
0.0933198
0.16042
0.223995
0.278325
6.10461e-06
6.10391e-06
6.10482e-06
6.10461e-06
6.10631e-06
6.10604e-06
6.10467e-06
6.10346e-06
6.10249e-06
6.10189e-06
6.10145e-06
6.10097e-06
6.10072e-06
6.10055e-06
6.10055e-06
6.10057e-06
6.1007e-06
6.10089e-06
6.10115e-06
6.1014e-06
6.10163e-06
6.10176e-06
6.10183e-06
6.10147e-06
6.10141e-06
6.10173e-06
6.10213e-06
6.10392e-06
6.10353e-06
6.11286e-06
6.09581e-06
6.18561e-06
5.45103e-06
3.42973e-06
2.55351e-12
3.07995e-09
0.000163767
0.000430325
0.00238061
6.10532e-06
6.10553e-06
6.10569e-06
6.10574e-06
6.10586e-06
6.10595e-06
6.10613e-06
6.10647e-06
6.10695e-06
6.10766e-06
6.10869e-06
6.11016e-06
6.11222e-06
6.11509e-06
6.11905e-06
6.12462e-06
6.13216e-06
6.14036e-06
6.14904e-06
6.15808e-06
6.26084e-06
6.51701e-06
6.61249e-06
5.56044e-06
3.24684e-06
1.24367e-06
2.24002e-07
4.00381e-19
3.75941e-09
4.11719e-11
0
0
5.62092e-05
0.00205843
0.00168635
0.0217562
0.0782505
0.16621
0.25232
6.10484e-06
6.10379e-06
6.10417e-06
6.10385e-06
6.10551e-06
6.10544e-06
6.10425e-06
6.10309e-06
6.1022e-06
6.10169e-06
6.10133e-06
6.10113e-06
6.10101e-06
6.10107e-06
6.10102e-06
6.10106e-06
6.10122e-06
6.10146e-06
6.10179e-06
6.10221e-06
6.10271e-06
6.10329e-06
6.10397e-06
6.10477e-06
6.10575e-06
6.10703e-06
6.1087e-06
6.1108e-06
6.11343e-06
6.11667e-06
6.12014e-06
6.12432e-06
6.17621e-06
5.87245e-06
5.32438e-06
1.16802e-06
1.09806e-08
1.69623e-11
6.03486e-05
6.10489e-06
6.10503e-06
6.10532e-06
6.10529e-06
6.10511e-06
6.10498e-06
6.10483e-06
6.10467e-06
6.10462e-06
6.10463e-06
6.10471e-06
6.10494e-06
6.10532e-06
6.10591e-06
6.1068e-06
6.10816e-06
6.11017e-06
6.11281e-06
6.11502e-06
6.11593e-06
6.12344e-06
6.15696e-06
6.26706e-06
6.57257e-06
6.70528e-06
6.43084e-06
5.65938e-06
3.78494e-06
1.93704e-06
2.14784e-08
7.50518e-09
1.25103e-11
0
0
0.000387816
0.00542556
0.016168
0.0904758
0.200084
6.10429e-06
6.10315e-06
6.10315e-06
6.10274e-06
6.10435e-06
6.1045e-06
6.1036e-06
6.10256e-06
6.10175e-06
6.10129e-06
6.10098e-06
6.10081e-06
6.10074e-06
6.10084e-06
6.10092e-06
6.10103e-06
6.1011e-06
6.10111e-06
6.10119e-06
6.10129e-06
6.10142e-06
6.10156e-06
6.10172e-06
6.10188e-06
6.102e-06
6.10218e-06
6.10241e-06
6.10266e-06
6.10292e-06
6.10302e-06
6.10351e-06
6.10116e-06
6.11448e-06
6.08674e-06
6.29138e-06
5.5848e-06
2.99773e-06
1.77839e-08
5.77081e-07
6.10482e-06
6.10495e-06
6.10509e-06
6.10491e-06
6.10472e-06
6.10444e-06
6.10421e-06
6.1041e-06
6.10397e-06
6.10391e-06
6.10394e-06
6.10404e-06
6.10427e-06
6.10467e-06
6.10529e-06
6.10624e-06
6.10766e-06
6.10958e-06
6.11144e-06
6.11305e-06
6.11356e-06
6.11827e-06
6.11503e-06
6.15203e-06
6.30328e-06
6.54216e-06
6.87089e-06
7.19611e-06
7.1085e-06
5.05418e-06
2.89331e-06
6.08951e-09
2.94575e-09
0
0
0
0.00442824
0.0309948
0.132953
6.10424e-06
6.10299e-06
6.10264e-06
6.10205e-06
6.10359e-06
6.10384e-06
6.10315e-06
6.10219e-06
6.10149e-06
6.10105e-06
6.10081e-06
6.10068e-06
6.10062e-06
6.10069e-06
6.10079e-06
6.10093e-06
6.10107e-06
6.10121e-06
6.1013e-06
6.1013e-06
6.10137e-06
6.10149e-06
6.10165e-06
6.10184e-06
6.10206e-06
6.1024e-06
6.1029e-06
6.10357e-06
6.10442e-06
6.10548e-06
6.10684e-06
6.10829e-06
6.11064e-06
6.1093e-06
6.14484e-06
6.2115e-06
6.61296e-06
4.50393e-06
2.6099e-09
6.10473e-06
6.10474e-06
6.10475e-06
6.10448e-06
6.10417e-06
6.10388e-06
6.10359e-06
6.10336e-06
6.10314e-06
6.10296e-06
6.10281e-06
6.1027e-06
6.10262e-06
6.10256e-06
6.10253e-06
6.10253e-06
6.1026e-06
6.10268e-06
6.10292e-06
6.10352e-06
6.10427e-06
6.10743e-06
6.10939e-06
6.09796e-06
6.09258e-06
6.12628e-06
6.25409e-06
6.52571e-06
6.90442e-06
7.30695e-06
7.54982e-06
5.11248e-06
1.15059e-06
1.06481e-08
0
0
0
0.00871561
0.0716775
6.10424e-06
6.10296e-06
6.10231e-06
6.10154e-06
6.10294e-06
6.10329e-06
6.10273e-06
6.10185e-06
6.10125e-06
6.10086e-06
6.10072e-06
6.10054e-06
6.10047e-06
6.10052e-06
6.10059e-06
6.10075e-06
6.10091e-06
6.10109e-06
6.10125e-06
6.1014e-06
6.1015e-06
6.10159e-06
6.10158e-06
6.1016e-06
6.10164e-06
6.10174e-06
6.10192e-06
6.10219e-06
6.10253e-06
6.10295e-06
6.10338e-06
6.1041e-06
6.10375e-06
6.10935e-06
6.09188e-06
6.19292e-06
5.82553e-06
8.7617e-06
5.67682e-07
6.10461e-06
6.10448e-06
6.10435e-06
6.104e-06
6.10365e-06
6.10332e-06
6.10303e-06
6.10283e-06
6.10264e-06
6.1025e-06
6.10241e-06
6.10234e-06
6.10233e-06
6.10237e-06
6.10247e-06
6.10267e-06
6.103e-06
6.1035e-06
6.10408e-06
6.10465e-06
6.10505e-06
6.10564e-06
6.10826e-06
6.10846e-06
6.09918e-06
6.08382e-06
6.07679e-06
6.11245e-06
6.21119e-06
6.46808e-06
6.8888e-06
7.64502e-06
7.14169e-06
2.98121e-06
1.57038e-08
0
0
0.000680803
0.0326361
6.10425e-06
6.103e-06
6.10214e-06
6.1012e-06
6.10245e-06
6.10283e-06
6.10236e-06
6.10157e-06
6.10105e-06
6.10073e-06
6.10057e-06
6.10041e-06
6.10031e-06
6.10032e-06
6.10037e-06
6.10051e-06
6.10067e-06
6.10087e-06
6.10105e-06
6.10123e-06
6.10139e-06
6.10154e-06
6.10165e-06
6.10174e-06
6.10179e-06
6.10186e-06
6.102e-06
6.10223e-06
6.10256e-06
6.103e-06
6.10351e-06
6.10437e-06
6.10434e-06
6.10886e-06
6.09365e-06
6.16481e-06
5.85584e-06
7.14988e-06
4.36773e-06
6.10444e-06
6.10415e-06
6.10391e-06
6.10353e-06
6.10316e-06
6.10282e-06
6.10253e-06
6.10233e-06
6.10214e-06
6.10201e-06
6.10191e-06
6.10182e-06
6.10176e-06
6.10173e-06
6.10173e-06
6.10177e-06
6.10184e-06
6.10197e-06
6.10219e-06
6.10261e-06
6.10321e-06
6.10382e-06
6.10502e-06
6.10739e-06
6.10831e-06
6.1044e-06
6.09337e-06
6.08103e-06
6.07215e-06
6.09964e-06
6.17578e-06
6.51859e-06
7.21547e-06
7.76335e-06
3.98863e-06
1.05176e-08
0
0.000278199
0.0129045
6.10424e-06
6.10306e-06
6.10205e-06
6.10096e-06
6.10207e-06
6.10244e-06
6.10204e-06
6.10132e-06
6.10085e-06
6.10056e-06
6.10041e-06
6.10028e-06
6.10014e-06
6.10012e-06
6.10014e-06
6.10025e-06
6.10039e-06
6.10058e-06
6.10078e-06
6.10099e-06
6.1012e-06
6.10141e-06
6.10159e-06
6.10175e-06
6.10189e-06
6.10197e-06
6.10201e-06
6.1021e-06
6.10226e-06
6.10249e-06
6.10279e-06
6.10322e-06
6.10348e-06
6.10506e-06
6.10162e-06
6.11928e-06
6.05964e-06
6.20415e-06
6.16171e-06
6.10419e-06
6.10378e-06
6.10347e-06
6.10308e-06
6.10271e-06
6.10237e-06
6.1021e-06
6.10192e-06
6.10176e-06
6.10167e-06
6.1016e-06
6.10155e-06
6.10153e-06
6.10153e-06
6.10155e-06
6.10161e-06
6.10172e-06
6.1019e-06
6.10215e-06
6.10247e-06
6.10287e-06
6.10333e-06
6.10389e-06
6.10501e-06
6.10683e-06
6.10842e-06
6.10793e-06
6.10401e-06
6.095e-06
6.08258e-06
6.06634e-06
6.07684e-06
6.25772e-06
6.79697e-06
8.51475e-06
2.51228e-06
5.25646e-12
7.1281e-05
0.00427741
6.10416e-06
6.10311e-06
6.10202e-06
6.1008e-06
6.10176e-06
6.10212e-06
6.10176e-06
6.1011e-06
6.10068e-06
6.1004e-06
6.10024e-06
6.1001e-06
6.09996e-06
6.09991e-06
6.0999e-06
6.09998e-06
6.10011e-06
6.10029e-06
6.1005e-06
6.10074e-06
6.10098e-06
6.10123e-06
6.10145e-06
6.10165e-06
6.10184e-06
6.10199e-06
6.10205e-06
6.10209e-06
6.10217e-06
6.10232e-06
6.10256e-06
6.10288e-06
6.1033e-06
6.10368e-06
6.10475e-06
6.10286e-06
6.11692e-06
6.05231e-06
6.25714e-06
6.1039e-06
6.1034e-06
6.10305e-06
6.10267e-06
6.1023e-06
6.10197e-06
6.10173e-06
6.10158e-06
6.10147e-06
6.10141e-06
6.10138e-06
6.10136e-06
6.10135e-06
6.10136e-06
6.10137e-06
6.10141e-06
6.10147e-06
6.10158e-06
6.10173e-06
6.10195e-06
6.10228e-06
6.10271e-06
6.10321e-06
6.10385e-06
6.1049e-06
6.10644e-06
6.10821e-06
6.10955e-06
6.10976e-06
6.1066e-06
6.09862e-06
6.07345e-06
6.05575e-06
6.08825e-06
6.69316e-06
1.02546e-05
1.13804e-11
1.23603e-06
0.00108286
6.10403e-06
6.10312e-06
6.102e-06
6.1007e-06
6.1015e-06
6.10183e-06
6.1015e-06
6.10089e-06
6.1005e-06
6.10022e-06
6.10006e-06
6.09993e-06
6.09977e-06
6.0997e-06
6.09967e-06
6.09974e-06
6.09986e-06
6.10003e-06
6.10024e-06
6.10048e-06
6.10073e-06
6.10099e-06
6.10124e-06
6.10148e-06
6.10171e-06
6.1019e-06
6.10203e-06
6.10209e-06
6.10211e-06
6.10218e-06
6.10232e-06
6.10251e-06
6.10283e-06
6.10303e-06
6.10411e-06
6.1021e-06
6.11259e-06
6.0812e-06
6.14636e-06
6.10356e-06
6.10304e-06
6.10267e-06
6.10229e-06
6.10193e-06
6.10162e-06
6.10143e-06
6.10133e-06
6.10126e-06
6.10125e-06
6.10125e-06
6.10127e-06
6.10128e-06
6.10132e-06
6.10135e-06
6.1014e-06
6.10146e-06
6.10155e-06
6.10168e-06
6.10186e-06
6.1021e-06
6.10242e-06
6.10282e-06
6.10331e-06
6.104e-06
6.10499e-06
6.10635e-06
6.10801e-06
6.10999e-06
6.11185e-06
6.11306e-06
6.11126e-06
6.08183e-06
6.11173e-06
5.63967e-06
9.24566e-06
2.65252e-06
2.61092e-10
5.8224e-05
6.10383e-06
6.10309e-06
6.10198e-06
6.10063e-06
6.10129e-06
6.10157e-06
6.10126e-06
6.10071e-06
6.10032e-06
6.10004e-06
6.09987e-06
6.09974e-06
6.09959e-06
6.0995e-06
6.09947e-06
6.09951e-06
6.09961e-06
6.09977e-06
6.09997e-06
6.1002e-06
6.10045e-06
6.10073e-06
6.10101e-06
6.10127e-06
6.10153e-06
6.10175e-06
6.10193e-06
6.10205e-06
6.10211e-06
6.10213e-06
6.1022e-06
6.10233e-06
6.10254e-06
6.10276e-06
6.10327e-06
6.10312e-06
6.10556e-06
6.10204e-06
6.10726e-06
6.10324e-06
6.10271e-06
6.10231e-06
6.10194e-06
6.10161e-06
6.10134e-06
6.1012e-06
6.10115e-06
6.10114e-06
6.10117e-06
6.10122e-06
6.10126e-06
6.10131e-06
6.10136e-06
6.10139e-06
6.10144e-06
6.10149e-06
6.10157e-06
6.10167e-06
6.10181e-06
6.10199e-06
6.10225e-06
6.10257e-06
6.10298e-06
6.10352e-06
6.10426e-06
6.10526e-06
6.10652e-06
6.10803e-06
6.11008e-06
6.11191e-06
6.11892e-06
6.10297e-06
6.16844e-06
5.82076e-06
6.45522e-06
9.72283e-06
5.02411e-11
4.69077e-07
6.10361e-06
6.10301e-06
6.10195e-06
6.10058e-06
6.1011e-06
6.10134e-06
6.10105e-06
6.10053e-06
6.10015e-06
6.09987e-06
6.0997e-06
6.09957e-06
6.0994e-06
6.0993e-06
6.09926e-06
6.0993e-06
6.09939e-06
6.09954e-06
6.09972e-06
6.09995e-06
6.1002e-06
6.10048e-06
6.10077e-06
6.10105e-06
6.10134e-06
6.10159e-06
6.1018e-06
6.10197e-06
6.10208e-06
6.10214e-06
6.10216e-06
6.10222e-06
6.10234e-06
6.10252e-06
6.10278e-06
6.10316e-06
6.10337e-06
6.10573e-06
6.10268e-06
6.10293e-06
6.10239e-06
6.10197e-06
6.10163e-06
6.10134e-06
6.10112e-06
6.10104e-06
6.10105e-06
6.10108e-06
6.10115e-06
6.10123e-06
6.1013e-06
6.10136e-06
6.10142e-06
6.10146e-06
6.10152e-06
6.10157e-06
6.10164e-06
6.10173e-06
6.10184e-06
6.10199e-06
6.1022e-06
6.10246e-06
6.10279e-06
6.10324e-06
6.10384e-06
6.10465e-06
6.10568e-06
6.10686e-06
6.10842e-06
6.10966e-06
6.11429e-06
6.11262e-06
6.12562e-06
6.19349e-06
5.26892e-06
1.21124e-05
3.69896e-10
2.24509e-16
6.10336e-06
6.10291e-06
6.1019e-06
6.10055e-06
6.10093e-06
6.10112e-06
6.10084e-06
6.10036e-06
6.09998e-06
6.09969e-06
6.09952e-06
6.09938e-06
6.09922e-06
6.09913e-06
6.09909e-06
6.09912e-06
6.09919e-06
6.09932e-06
6.09949e-06
6.09971e-06
6.09995e-06
6.10024e-06
6.10053e-06
6.10083e-06
6.10113e-06
6.1014e-06
6.10164e-06
6.10184e-06
6.10199e-06
6.1021e-06
6.10215e-06
6.10217e-06
6.10223e-06
6.10235e-06
6.10253e-06
6.10285e-06
6.10297e-06
6.10489e-06
6.10358e-06
6.10263e-06
6.1021e-06
6.10166e-06
6.10136e-06
6.10111e-06
6.10096e-06
6.10094e-06
6.101e-06
6.10107e-06
6.10117e-06
6.10127e-06
6.10135e-06
6.10143e-06
6.10151e-06
6.10156e-06
6.10162e-06
6.10168e-06
6.10174e-06
6.10182e-06
6.10192e-06
6.10204e-06
6.10221e-06
6.10242e-06
6.1027e-06
6.10307e-06
6.10358e-06
6.10426e-06
6.10513e-06
6.10617e-06
6.10741e-06
6.10882e-06
6.10978e-06
6.1185e-06
6.0836e-06
6.31266e-06
5.3099e-06
9.47907e-06
1.60763e-06
4.93506e-10
6.10309e-06
6.10277e-06
6.10183e-06
6.10051e-06
6.10078e-06
6.10091e-06
6.10065e-06
6.10019e-06
6.09981e-06
6.09952e-06
6.09935e-06
6.0992e-06
6.09905e-06
6.09896e-06
6.09891e-06
6.09894e-06
6.09901e-06
6.09912e-06
6.09928e-06
6.09949e-06
6.09973e-06
6.1e-06
6.1003e-06
6.10061e-06
6.10091e-06
6.1012e-06
6.10146e-06
6.10168e-06
6.10187e-06
6.10202e-06
6.10212e-06
6.10217e-06
6.10219e-06
6.10225e-06
6.10237e-06
6.10258e-06
6.10279e-06
6.10405e-06
6.10382e-06
6.10235e-06
6.10182e-06
6.10138e-06
6.10112e-06
6.10094e-06
6.10085e-06
6.10089e-06
6.10099e-06
6.10109e-06
6.10121e-06
6.10132e-06
6.10142e-06
6.10151e-06
6.10159e-06
6.10165e-06
6.10172e-06
6.10177e-06
6.10183e-06
6.1019e-06
6.10199e-06
6.10209e-06
6.10223e-06
6.10241e-06
6.10264e-06
6.10296e-06
6.10339e-06
6.10397e-06
6.10472e-06
6.10565e-06
6.10667e-06
6.10831e-06
6.1078e-06
6.11861e-06
6.08115e-06
6.24484e-06
5.7434e-06
6.92924e-06
6.83879e-06
8.15888e-08
6.10282e-06
6.10261e-06
6.10174e-06
6.10046e-06
6.10063e-06
6.10072e-06
6.10046e-06
6.10002e-06
6.09964e-06
6.09936e-06
6.09918e-06
6.09902e-06
6.09888e-06
6.0988e-06
6.09876e-06
6.09878e-06
6.09884e-06
6.09895e-06
6.0991e-06
6.09929e-06
6.09952e-06
6.09979e-06
6.10008e-06
6.10038e-06
6.10069e-06
6.10099e-06
6.10126e-06
6.1015e-06
6.10172e-06
6.10191e-06
6.10205e-06
6.10215e-06
6.10219e-06
6.10221e-06
6.10228e-06
6.10241e-06
6.10261e-06
6.10359e-06
6.10357e-06
6.10208e-06
6.10157e-06
6.10113e-06
6.10093e-06
6.10082e-06
6.10079e-06
6.10088e-06
6.101e-06
6.10112e-06
6.10126e-06
6.10138e-06
6.10149e-06
6.10159e-06
6.10167e-06
6.10175e-06
6.10182e-06
6.10188e-06
6.10195e-06
6.10202e-06
6.1021e-06
6.10219e-06
6.10231e-06
6.10246e-06
6.10265e-06
6.10291e-06
6.10327e-06
6.10377e-06
6.1044e-06
6.10522e-06
6.10611e-06
6.10762e-06
6.10747e-06
6.1146e-06
6.09729e-06
6.15244e-06
6.07667e-06
5.87581e-06
8.49196e-06
1.67718e-06
6.10255e-06
6.10244e-06
6.10164e-06
6.10041e-06
6.10049e-06
6.10054e-06
6.10027e-06
6.09985e-06
6.09948e-06
6.09921e-06
6.09902e-06
6.09886e-06
6.09872e-06
6.09864e-06
6.09861e-06
6.09863e-06
6.09869e-06
6.09879e-06
6.09893e-06
6.09911e-06
6.09932e-06
6.09958e-06
6.09987e-06
6.10017e-06
6.10047e-06
6.10076e-06
6.10104e-06
6.1013e-06
6.10154e-06
6.10175e-06
6.10192e-06
6.10206e-06
6.10215e-06
6.10219e-06
6.10223e-06
6.10231e-06
6.10246e-06
6.10331e-06
6.10328e-06
6.10183e-06
6.10134e-06
6.10092e-06
6.10079e-06
6.10074e-06
6.10076e-06
6.10088e-06
6.10102e-06
6.10115e-06
6.1013e-06
6.10144e-06
6.10156e-06
6.10167e-06
6.10177e-06
6.10185e-06
6.10193e-06
6.102e-06
6.10208e-06
6.10215e-06
6.10223e-06
6.10231e-06
6.10242e-06
6.10256e-06
6.10272e-06
6.10294e-06
6.10325e-06
6.10367e-06
6.10421e-06
6.10491e-06
6.10571e-06
6.1069e-06
6.10756e-06
6.11044e-06
6.11001e-06
6.10403e-06
6.19496e-06
5.73211e-06
7.57749e-06
4.59073e-06
6.10228e-06
6.10225e-06
6.10152e-06
6.10035e-06
6.10035e-06
6.10036e-06
6.10009e-06
6.09968e-06
6.09933e-06
6.09906e-06
6.09886e-06
6.09869e-06
6.09857e-06
6.0985e-06
6.09848e-06
6.0985e-06
6.09856e-06
6.09865e-06
6.09878e-06
6.09894e-06
6.09914e-06
6.09938e-06
6.09965e-06
6.09994e-06
6.10023e-06
6.10052e-06
6.1008e-06
6.10107e-06
6.10132e-06
6.10156e-06
6.10176e-06
6.10193e-06
6.10206e-06
6.10216e-06
6.10216e-06
6.10221e-06
6.10232e-06
6.10305e-06
6.10304e-06
6.1016e-06
6.10114e-06
6.10074e-06
6.10068e-06
6.10068e-06
6.10075e-06
6.10088e-06
6.10104e-06
6.10119e-06
6.10135e-06
6.10149e-06
6.10163e-06
6.10175e-06
6.10186e-06
6.10195e-06
6.10204e-06
6.10212e-06
6.1022e-06
6.10227e-06
6.10235e-06
6.10244e-06
6.10254e-06
6.10266e-06
6.1028e-06
6.103e-06
6.10326e-06
6.10363e-06
6.1041e-06
6.1047e-06
6.10543e-06
6.10635e-06
6.10748e-06
6.10812e-06
6.11391e-06
6.0944e-06
6.18562e-06
5.89146e-06
6.61675e-06
6.1468e-06
6.10203e-06
6.10205e-06
6.1014e-06
6.10028e-06
6.10021e-06
6.10018e-06
6.09991e-06
6.09951e-06
6.09917e-06
6.09891e-06
6.0987e-06
6.09854e-06
6.09843e-06
6.09838e-06
6.09836e-06
6.09837e-06
6.09842e-06
6.0985e-06
6.09861e-06
6.09876e-06
6.09894e-06
6.09917e-06
6.09943e-06
6.09971e-06
6.1e-06
6.10029e-06
6.10057e-06
6.10084e-06
6.10111e-06
6.10136e-06
6.10159e-06
6.1018e-06
6.10196e-06
6.10209e-06
6.10216e-06
6.10219e-06
6.10224e-06
6.10285e-06
6.10284e-06
6.10139e-06
6.10096e-06
6.10061e-06
6.1006e-06
6.10065e-06
6.10073e-06
6.10089e-06
6.10106e-06
6.10123e-06
6.1014e-06
6.10156e-06
6.1017e-06
6.10183e-06
6.10195e-06
6.10206e-06
6.10215e-06
6.10224e-06
6.10233e-06
6.10241e-06
6.10249e-06
6.10258e-06
6.10268e-06
6.10279e-06
6.10292e-06
6.10309e-06
6.10332e-06
6.10364e-06
6.10405e-06
6.10457e-06
6.10524e-06
6.10599e-06
6.10717e-06
6.10738e-06
6.11266e-06
6.1003e-06
6.1462e-06
6.04409e-06
6.17142e-06
6.41513e-06
6.10178e-06
6.10185e-06
6.10126e-06
6.10019e-06
6.10007e-06
6.1e-06
6.09972e-06
6.09933e-06
6.099e-06
6.09875e-06
6.09854e-06
6.09839e-06
6.0983e-06
6.09824e-06
6.09822e-06
6.09824e-06
6.09828e-06
6.09835e-06
6.09845e-06
6.09859e-06
6.09876e-06
6.09897e-06
6.09921e-06
6.09948e-06
6.09977e-06
6.10005e-06
6.10033e-06
6.10061e-06
6.10088e-06
6.10115e-06
6.1014e-06
6.10162e-06
6.10182e-06
6.10199e-06
6.1021e-06
6.10215e-06
6.10218e-06
6.10269e-06
6.1027e-06
6.10119e-06
6.10082e-06
6.10051e-06
6.10055e-06
6.10062e-06
6.10072e-06
6.1009e-06
6.10108e-06
6.10126e-06
6.10145e-06
6.10162e-06
6.10177e-06
6.10191e-06
6.10204e-06
6.10216e-06
6.10226e-06
6.10236e-06
6.10245e-06
6.10254e-06
6.10263e-06
6.10272e-06
6.10282e-06
6.10293e-06
6.10305e-06
6.10321e-06
6.10341e-06
6.10369e-06
6.10405e-06
6.10451e-06
6.1051e-06
6.10577e-06
6.10679e-06
6.10729e-06
6.11035e-06
6.10685e-06
6.1195e-06
6.1138e-06
6.06173e-06
6.28518e-06
6.10155e-06
6.10165e-06
6.10111e-06
6.1001e-06
6.09993e-06
6.09982e-06
6.09953e-06
6.09915e-06
6.09883e-06
6.09859e-06
6.09839e-06
6.09824e-06
6.09815e-06
6.09811e-06
6.09809e-06
6.0981e-06
6.09814e-06
6.0982e-06
6.09829e-06
6.09842e-06
6.09857e-06
6.09877e-06
6.099e-06
6.09926e-06
6.09954e-06
6.09981e-06
6.10008e-06
6.10036e-06
6.10064e-06
6.10092e-06
6.10118e-06
6.10143e-06
6.10165e-06
6.10185e-06
6.102e-06
6.10209e-06
6.10211e-06
6.10252e-06
6.10257e-06
6.10101e-06
6.10068e-06
6.10042e-06
6.1005e-06
6.10059e-06
6.10072e-06
6.10091e-06
6.10111e-06
6.1013e-06
6.1015e-06
6.10168e-06
6.10184e-06
6.10199e-06
6.10213e-06
6.10226e-06
6.10238e-06
6.10248e-06
6.10259e-06
6.10268e-06
6.10278e-06
6.10288e-06
6.10298e-06
6.10309e-06
6.1032e-06
6.10335e-06
6.10353e-06
6.10377e-06
6.10409e-06
6.1045e-06
6.10502e-06
6.10564e-06
6.10647e-06
6.10726e-06
6.10877e-06
6.10984e-06
6.10952e-06
6.12729e-06
6.07391e-06
6.16486e-06
6.10133e-06
6.10144e-06
6.10095e-06
6.09999e-06
6.09978e-06
6.09964e-06
6.09934e-06
6.09897e-06
6.09865e-06
6.09842e-06
6.09822e-06
6.09809e-06
6.098e-06
6.09796e-06
6.09794e-06
6.09795e-06
6.09798e-06
6.09804e-06
6.09813e-06
6.09824e-06
6.09839e-06
6.09857e-06
6.09879e-06
6.09904e-06
6.0993e-06
6.09956e-06
6.09983e-06
6.10011e-06
6.10039e-06
6.10067e-06
6.10095e-06
6.10121e-06
6.10146e-06
6.10168e-06
6.10186e-06
6.102e-06
6.10201e-06
6.10234e-06
6.10242e-06
6.10085e-06
6.10055e-06
6.10034e-06
6.10045e-06
6.10057e-06
6.10071e-06
6.10093e-06
6.10114e-06
6.10134e-06
6.10155e-06
6.10174e-06
6.10192e-06
6.10208e-06
6.10223e-06
6.10236e-06
6.10249e-06
6.10261e-06
6.10272e-06
6.10282e-06
6.10293e-06
6.10303e-06
6.10314e-06
6.10325e-06
6.10337e-06
6.1035e-06
6.10367e-06
6.10389e-06
6.10417e-06
6.10453e-06
6.10499e-06
6.10556e-06
6.10626e-06
6.10714e-06
6.10803e-06
6.11018e-06
6.10825e-06
6.12156e-06
6.10047e-06
6.11766e-06
6.10112e-06
6.10124e-06
6.10078e-06
6.09988e-06
6.09962e-06
6.09945e-06
6.09915e-06
6.09877e-06
6.09846e-06
6.09824e-06
6.09805e-06
6.09793e-06
6.09784e-06
6.0978e-06
6.09778e-06
6.09779e-06
6.09783e-06
6.09788e-06
6.09796e-06
6.09807e-06
6.0982e-06
6.09838e-06
6.09858e-06
6.09882e-06
6.09907e-06
6.09932e-06
6.09958e-06
6.09985e-06
6.10014e-06
6.10042e-06
6.10071e-06
6.10099e-06
6.10126e-06
6.1015e-06
6.10171e-06
6.10189e-06
6.10191e-06
6.10214e-06
6.10226e-06
6.10069e-06
6.10043e-06
6.10027e-06
6.1004e-06
6.10054e-06
6.10071e-06
6.10094e-06
6.10116e-06
6.10138e-06
6.1016e-06
6.1018e-06
6.10198e-06
6.10216e-06
6.10232e-06
6.10246e-06
6.1026e-06
6.10273e-06
6.10285e-06
6.10296e-06
6.10308e-06
6.10319e-06
6.1033e-06
6.10342e-06
6.10354e-06
6.10367e-06
6.10383e-06
6.10403e-06
6.10428e-06
6.10461e-06
6.10501e-06
6.10553e-06
6.10615e-06
6.10698e-06
6.10775e-06
6.10957e-06
6.10919e-06
6.11514e-06
6.11322e-06
6.11083e-06
6.10092e-06
6.10104e-06
6.10061e-06
6.09975e-06
6.09946e-06
6.09926e-06
6.09894e-06
6.09857e-06
6.09827e-06
6.09805e-06
6.09787e-06
6.09775e-06
6.09768e-06
6.09764e-06
6.09762e-06
6.09763e-06
6.09767e-06
6.09772e-06
6.09779e-06
6.09789e-06
6.09801e-06
6.09817e-06
6.09837e-06
6.09859e-06
6.09883e-06
6.09907e-06
6.09933e-06
6.09959e-06
6.09987e-06
6.10016e-06
6.10045e-06
6.10074e-06
6.10103e-06
6.10129e-06
6.10153e-06
6.10174e-06
6.10182e-06
6.10198e-06
6.10213e-06
6.10054e-06
6.10032e-06
6.10019e-06
6.10036e-06
6.10052e-06
6.10071e-06
6.10095e-06
6.10119e-06
6.10142e-06
6.10165e-06
6.10186e-06
6.10206e-06
6.10224e-06
6.10241e-06
6.10256e-06
6.10271e-06
6.10284e-06
6.10298e-06
6.1031e-06
6.10322e-06
6.10334e-06
6.10346e-06
6.10359e-06
6.10371e-06
6.10384e-06
6.104e-06
6.10418e-06
6.10442e-06
6.10471e-06
6.10508e-06
6.10554e-06
6.10611e-06
6.10685e-06
6.10763e-06
6.10897e-06
6.10979e-06
6.11209e-06
6.11533e-06
6.11432e-06
6.10073e-06
6.10084e-06
6.10044e-06
6.09962e-06
6.09929e-06
6.09906e-06
6.09874e-06
6.09837e-06
6.09807e-06
6.09786e-06
6.09769e-06
6.09757e-06
6.0975e-06
6.09746e-06
6.09745e-06
6.09746e-06
6.09749e-06
6.09754e-06
6.09761e-06
6.0977e-06
6.09782e-06
6.09797e-06
6.09815e-06
6.09837e-06
6.09859e-06
6.09882e-06
6.09906e-06
6.09932e-06
6.0996e-06
6.09989e-06
6.10018e-06
6.10048e-06
6.10077e-06
6.10106e-06
6.10132e-06
6.10155e-06
6.10169e-06
6.1018e-06
6.10201e-06
6.10039e-06
6.10021e-06
6.10012e-06
6.10031e-06
6.10049e-06
6.1007e-06
6.10096e-06
6.10121e-06
6.10146e-06
6.1017e-06
6.10192e-06
6.10212e-06
6.10231e-06
6.10249e-06
6.10266e-06
6.10282e-06
6.10296e-06
6.10311e-06
6.10324e-06
6.10337e-06
6.1035e-06
6.10363e-06
6.10376e-06
6.10389e-06
6.10402e-06
6.10417e-06
6.10435e-06
6.10457e-06
6.10484e-06
6.10517e-06
6.1056e-06
6.10612e-06
6.10678e-06
6.10755e-06
6.1086e-06
6.1098e-06
6.11123e-06
6.11392e-06
6.11669e-06
6.10054e-06
6.10064e-06
6.10026e-06
6.09947e-06
6.09911e-06
6.09886e-06
6.09852e-06
6.09815e-06
6.09786e-06
6.09765e-06
6.09749e-06
6.09738e-06
6.09731e-06
6.09728e-06
6.09727e-06
6.09728e-06
6.09731e-06
6.09736e-06
6.09742e-06
6.09751e-06
6.09762e-06
6.09776e-06
6.09793e-06
6.09813e-06
6.09834e-06
6.09856e-06
6.0988e-06
6.09905e-06
6.09932e-06
6.0996e-06
6.0999e-06
6.1002e-06
6.10051e-06
6.10081e-06
6.10109e-06
6.10134e-06
6.10154e-06
6.1016e-06
6.10185e-06
6.10025e-06
6.1001e-06
6.10005e-06
6.10026e-06
6.10047e-06
6.10069e-06
6.10097e-06
6.10123e-06
6.10149e-06
6.10174e-06
6.10197e-06
6.10219e-06
6.10239e-06
6.10258e-06
6.10275e-06
6.10292e-06
6.10308e-06
6.10323e-06
6.10338e-06
6.10352e-06
6.10366e-06
6.1038e-06
6.10393e-06
6.10407e-06
6.10421e-06
6.10436e-06
6.10453e-06
6.10473e-06
6.10498e-06
6.10529e-06
6.10568e-06
6.10616e-06
6.10676e-06
6.10749e-06
6.10841e-06
6.10956e-06
6.11107e-06
6.1125e-06
6.1168e-06
6.10036e-06
6.10044e-06
6.10007e-06
6.09931e-06
6.09893e-06
6.09865e-06
6.0983e-06
6.09793e-06
6.09764e-06
6.09744e-06
6.09728e-06
6.09718e-06
6.09712e-06
6.09709e-06
6.09708e-06
6.09709e-06
6.09712e-06
6.09716e-06
6.09722e-06
6.0973e-06
6.0974e-06
6.09753e-06
6.0977e-06
6.09788e-06
6.09809e-06
6.09829e-06
6.09852e-06
6.09876e-06
6.09902e-06
6.09931e-06
6.0996e-06
6.09991e-06
6.10022e-06
6.10053e-06
6.10083e-06
6.1011e-06
6.10135e-06
6.10142e-06
6.10172e-06
6.1001e-06
6.09999e-06
6.09997e-06
6.10021e-06
6.10044e-06
6.10068e-06
6.10097e-06
6.10125e-06
6.10152e-06
6.10178e-06
6.10202e-06
6.10225e-06
6.10246e-06
6.10266e-06
6.10285e-06
6.10302e-06
6.10319e-06
6.10335e-06
6.10351e-06
6.10366e-06
6.10381e-06
6.10396e-06
6.10411e-06
6.10425e-06
6.1044e-06
6.10455e-06
6.10471e-06
6.10491e-06
6.10515e-06
6.10544e-06
6.10579e-06
6.10623e-06
6.10678e-06
6.10746e-06
6.10832e-06
6.10932e-06
6.11095e-06
6.11174e-06
6.11601e-06
6.10018e-06
6.10025e-06
6.09989e-06
6.09914e-06
6.09874e-06
6.09843e-06
6.09807e-06
6.0977e-06
6.09742e-06
6.09722e-06
6.09707e-06
6.09697e-06
6.09691e-06
6.09688e-06
6.09687e-06
6.09689e-06
6.09691e-06
6.09695e-06
6.09701e-06
6.09709e-06
6.09718e-06
6.0973e-06
6.09745e-06
6.09763e-06
6.09782e-06
6.09801e-06
6.09823e-06
6.09846e-06
6.09872e-06
6.09899e-06
6.09928e-06
6.09959e-06
6.09991e-06
6.10022e-06
6.10054e-06
6.10083e-06
6.10112e-06
6.10123e-06
6.1016e-06
6.09996e-06
6.09988e-06
6.0999e-06
6.10016e-06
6.1004e-06
6.10067e-06
6.10098e-06
6.10127e-06
6.10155e-06
6.10182e-06
6.10207e-06
6.10231e-06
6.10253e-06
6.10274e-06
6.10293e-06
6.10312e-06
6.1033e-06
6.10348e-06
6.10364e-06
6.10381e-06
6.10397e-06
6.10413e-06
6.10428e-06
6.10443e-06
6.10458e-06
6.10474e-06
6.10491e-06
6.1051e-06
6.10532e-06
6.1056e-06
6.10593e-06
6.10634e-06
6.10685e-06
6.10747e-06
6.10828e-06
6.10916e-06
6.11076e-06
6.11137e-06
6.11522e-06
6.1e-06
6.10005e-06
6.09969e-06
6.09896e-06
6.09853e-06
6.0982e-06
6.09783e-06
6.09746e-06
6.09718e-06
6.09698e-06
6.09684e-06
6.09674e-06
6.09669e-06
6.09666e-06
6.09665e-06
6.09666e-06
6.09669e-06
6.09673e-06
6.09678e-06
6.09685e-06
6.09693e-06
6.09705e-06
6.09719e-06
6.09735e-06
6.09753e-06
6.09772e-06
6.09792e-06
6.09814e-06
6.09839e-06