/*--------------------------------*- C++ -*----------------------------------*\
| =========                 |                                                 |
| \\      /  F ield         | OpenFOAM: The Open Source CFD Toolbox           |
|  \\    /   O peration     | Version:  2506                                  |
|   \\  /    A nd           | Website:  www.openfoam.com                      |
|    \\/     M anipulation  |                                                 |
\*---------------------------------------------------------------------------*/
FoamFile
{
    version     2.0;
    format      ascii;
    arch        "LSB;label=32;scalar=64";
    class       volScalarField;
    location    "400";
    object      turbulenceProperties:epsilon;
}
// * * * * * * * * * * * * * * * * * * * * * * * * * * * * * * * * * * * * * //

dimensions      [0 2 -3 0 0 0 0];

internalField   nonuniform List<scalar> 
10720
(
0.259339
0.340061
0.452945
0.623536
0.840163
1.13481
1.53074
2.03489
2.68402
3.51443
4.57783
5.96434
7.80218
10.2909
13.771
18.7578
26.2362
37.3537
56.0417
83.0172
139.627
211.741
435.006
739.145
736.428
667.434
637.49
637.51
643.41
639.715
623.031
593.489
548.533
489.458
416.588
334.385
232.34
145.726
16.2665
0.194104
0.147053
0.100346
0.0666549
0.0405372
0.0221685
0.011177
0.00631146
0.00685255
0.0122583
0.0258979
0.0542431
0.107193
0.197729
0.340201
0.553771
0.870454
1.35303
2.122
3.40241
5.64711
9.71464
17.6457
33.2322
67.6696
140.858
318.994
663.278
945.048
1066.93
1100.18
1101.75
1088.14
1062.38
1025.39
978.925
912.873
836.94
619.386
0.00736072
0.00727973
0.00711417
0.00670935
0.00610623
0.00544779
0.00471916
0.00396205
0.00327808
0.00267033
0.00214889
0.00181991
0.00177255
0.00210474
0.00330694
0.00670994
0.0165566
0.0442187
0.13901
0.449733
1.75217
6.2454
23.3933
83.524
166.216
235.123
278.377
285.077
250.998
193.162
135.857
91.8915
63.491
45.7208
34.2665
26.5006
21.7456
17.5738
20.2081
0.0072271
0.00703146
0.00664089
0.00608249
0.0053592
0.00447583
0.00354114
0.00273952
0.002091
0.00153416
0.00108411
0.000757366
0.000526725
0.000363723
0.00024904
0.00016913
0.000113323
7.46795e-05
4.72823e-05
2.75716e-05
1.31806e-05
4.21849e-06
4.01316e-07
6.84221e-09
5.59421e-08
0.000986786
0.00606628
0.0512906
0.170779
0.319797
0.466713
0.615406
0.773864
0.946815
1.13462
1.34811
1.59537
2.20749
4.09688
0.0033024
0.00325031
0.00310513
0.0028898
0.00267287
0.00244423
0.0022235
0.00203384
0.00187746
0.00176032
0.00167225
0.0016224
0.00160871
0.00163551
0.00164443
0.00154819
0.00119003
0.000880756
7.75919e-06
0.0162179
0.00436679
0.00626359
0.000113594
0.0324831
0.553995
2.57885
7.84903
20.0639
42.269
70.448
91.5151
94.1812
80.0665
60.6663
44.166
31.9666
23.994
16.9422
20.4968
0.00335422
0.00334627
0.00332864
0.0032114
0.0030084
0.00268229
0.00226319
0.00182811
0.00146528
0.00113382
0.000824599
0.000571958
0.000384965
0.000253509
0.000165595
0.000108231
7.19483e-05
4.93505e-05
3.55845e-05
2.70804e-05
2.18943e-05
1.88159e-05
1.72149e-05
1.63644e-05
1.63049e-05
1.6119e-05
1.82328e-05
6.37711e-06
0.00016758
0.000992375
0.00208862
0.00364294
0.00959444
0.0265344
0.0598401
0.110667
0.177011
0.222086
0.549853
0.002354
0.00236382
0.00234009
0.00230124
0.00222222
0.00210715
0.00196791
0.00180074
0.00161877
0.00142883
0.00123792
0.00105124
0.000872779
0.000707445
0.000557488
0.000419457
0.000301557
0.000212068
0.000121763
3.74112e-05
6.63767e-18
0.000207967
0.000101078
0.011165
0.0369381
0.0554447
0.0205638
0.00372345
0.0165094
0.434425
3.19827
11.6228
25.0097
35.4667
37.1702
32.3929
26.5992
19.7638
21.4755
0.0023038
0.00222871
0.00211333
0.00197851
0.0018157
0.00161311
0.00139175
0.00117413
0.000967219
0.000765319
0.000581447
0.000431984
0.000318378
0.000234333
0.000173348
0.000129289
9.78798e-05
7.55189e-05
5.96722e-05
4.81436e-05
3.96877e-05
3.32175e-05
2.79053e-05
2.2819e-05
1.81268e-05
1.46337e-05
1.22459e-05
1.06587e-05
8.88665e-06
6.83588e-06
3.86013e-06
1.53103e-06
2.28552e-05
1.51665e-05
6.8502e-05
0.000868536
0.00493809
0.0189386
0.139772
0.00132482
0.00132014
0.00129961
0.0012634
0.00120835
0.00113565
0.00105081
0.000956785
0.000858109
0.000761865
0.000671391
0.000589986
0.000520276
0.00046294
0.000417793
0.000381617
0.000345337
0.000303476
0.000261935
0.000207574
9.395e-05
8.16843e-06
1.42066e-07
2.21218e-09
0
0
0.0125706
0.0152478
0.0311842
0.0121156
0.0230301
0.0157308
0.169587
2.42002
9.08074
16.9022
21.0101
19.7633
21.8259
0.00131797
0.00129943
0.00126279
0.00120525
0.00112647
0.00101933
0.000898219
0.000776707
0.000656847
0.000536831
0.000424844
0.000327921
0.000248288
0.000184943
0.000136049
9.92625e-05
7.2258e-05
5.2853e-05
3.91586e-05
2.9508e-05
2.27112e-05
1.78304e-05
1.41657e-05
1.10615e-05
8.30164e-06
6.1043e-06
4.59763e-06
3.68332e-06
3.31215e-06
2.83216e-06
4.17186e-06
2.07349e-07
8.53386e-06
5.13393e-05
0.00010812
0.00018336
5.47783e-05
0.000241612
0.0150521
0.000890135
0.000897734
0.000896983
0.000890591
0.000873191
0.000845337
0.000808696
0.000762617
0.000708823
0.000649658
0.000586684
0.000522167
0.000458396
0.000396971
0.00033929
0.000284292
0.000229898
0.000180052
0.000138741
0.000107193
8.49186e-05
5.84253e-05
2.9377e-05
8.2629e-07
4.12186e-08
8.76948e-09
1.31642e-09
9.17191e-23
0
0.00095849
0.00583901
0.0333475
0.00545448
0.0421017
0.0464456
1.66034
7.51918
13.9891
19.8687
0.000874039
0.000852081
0.000820661
0.000780091
0.000729507
0.000665609
0.0005957
0.000525007
0.00045318
0.000379947
0.000310157
0.000247707
0.00019452
0.00015075
0.000115784
8.85942e-05
6.79157e-05
5.24535e-05
4.10259e-05
3.25778e-05
2.62676e-05
2.14117e-05
1.74707e-05
1.3944e-05
1.07033e-05
8.01656e-06
5.98695e-06
4.51853e-06
3.44364e-06
2.66264e-06
2.07282e-06
1.60002e-06
1.00464e-06
4.12125e-07
3.66169e-14
7.83022e-11
6.59668e-06
4.86049e-05
0.00112068
0.000582465
0.000587566
0.000588405
0.000585429
0.000576136
0.000560233
0.000538371
0.000510261
0.000476744
0.000439279
0.000399119
0.000357838
0.000317051
0.000278185
0.000242184
0.000210014
0.00018283
0.000159204
0.000136754
0.000115164
9.65165e-05
8.20737e-05
6.81111e-05
4.64757e-05
2.10779e-05
5.73271e-06
6.4541e-07
3.10978e-20
4.51251e-09
2.88576e-11
0
0
0.000396932
0.0178814
0.0126312
0.033715
0.415869
4.90264
14.1073
0.000572947
0.000560165
0.000541831
0.000517103
0.000485865
0.000447232
0.000405711
0.000362748
0.000318226
0.000272764
0.000228732
0.000188173
0.000152256
0.000121387
9.55991e-05
7.463e-05
5.79542e-05
4.49661e-05
3.50189e-05
2.74525e-05
2.1696e-05
1.7251e-05
1.3702e-05
1.06766e-05
8.02341e-06
5.86008e-06
4.23787e-06
3.07465e-06
2.24997e-06
1.67394e-06
1.29895e-06
1.08126e-06
9.63231e-07
8.36092e-07
7.00379e-07
1.36791e-07
7.55882e-10
8.13266e-13
2.58067e-05
0.000400128
0.000405603
0.000408876
0.000410192
0.000407956
0.000401869
0.000392235
0.000378534
0.000360962
0.00034017
0.000316467
0.000290673
0.000263663
0.000236164
0.000208925
0.000182707
0.000157344
0.000132471
0.000109443
8.9674e-05
7.391e-05
6.23642e-05
5.44236e-05
4.8617e-05
4.01369e-05
2.89039e-05
1.79769e-05
8.31348e-06
2.98192e-06
1.56552e-08
4.02923e-09
2.80641e-12
0
0
0.00113943
0.0241638
0.0273002
0.465758
6.38801
0.000391961
0.00038222
0.000369379
0.000352663
0.000332253
0.000307831
0.000282202
0.00025523
0.000226971
0.00019817
0.000169889
0.000143249
0.000118959
9.73944e-05
7.87673e-05
6.31166e-05
5.02563e-05
3.99297e-05
3.17886e-05
2.5426e-05
2.04518e-05
1.65105e-05
1.3287e-05
1.0511e-05
8.06604e-06
6.03395e-06
4.46322e-06
3.28913e-06
2.41573e-06
1.76348e-06
1.28435e-06
9.34143e-07
6.79721e-07
4.93456e-07
3.81406e-07
2.92016e-07
1.45575e-07
1.1057e-09
1.76843e-07
0.000278431
0.000282825
0.000286064
0.000288083
0.000288009
0.000285558
0.000280777
0.000273245
0.000263003
0.000250291
0.000235279
0.000218409
0.000200253
0.000181307
0.000162184
0.000143374
0.000125415
0.000108977
9.40609e-05
8.05563e-05
6.86017e-05
5.85876e-05
5.04166e-05
4.35381e-05
3.69569e-05
2.99253e-05
2.32488e-05
1.76901e-05
1.28652e-05
6.79996e-06
2.8913e-06
2.45118e-09
9.32861e-10
0
0
0
0.00986995
0.0260374
1.52306
0.000272443
0.000265588
0.000256885
0.000245539
0.000232044
0.000216258
0.000199875
0.000182476
0.000164163
0.000145555
0.000127122
0.000109453
9.29635e-05
7.7907e-05
6.44831e-05
5.28124e-05
4.28932e-05
3.4645e-05
2.79111e-05
2.24825e-05
1.81237e-05
1.46003e-05
1.16874e-05
9.19615e-06
7.04093e-06
5.25388e-06
3.86638e-06
2.8297e-06
2.06246e-06
1.49904e-06
1.09305e-06
8.10647e-07
6.24348e-07
5.08836e-07
4.48236e-07
4.5615e-07
5.21538e-07
5.8438e-07
3.9035e-10
0.000197873
0.000201518
0.00020458
0.000206964
0.000208085
0.000207796
0.000206073
0.000202538
0.000197184
0.000190108
0.000181265
0.000170896
0.000159258
0.00014666
0.00013344
0.000119948
0.000106599
9.34628e-05
8.07443e-05
6.9023e-05
5.88363e-05
5.04211e-05
4.35987e-05
3.75792e-05
3.15517e-05
2.53953e-05
1.9872e-05
1.57012e-05
1.27824e-05
1.05822e-05
8.58068e-06
4.5256e-06
7.37275e-07
3.42371e-09
0
0
0
0.0112263
0.188092
0.000193257
0.000188253
0.000182075
0.000174122
0.000164967
0.000154573
0.000143757
0.000132253
0.00012019
0.000107951
9.57566e-05
8.39355e-05
7.26823e-05
6.21554e-05
5.25271e-05
4.39126e-05
3.63662e-05
2.9902e-05
2.44668e-05
1.99595e-05
1.62483e-05
1.31842e-05
1.0617e-05
8.41663e-06
6.5108e-06
4.92188e-06
3.66919e-06
2.7162e-06
1.99764e-06
1.45973e-06
1.0619e-06
7.74789e-07
5.69424e-07
4.30405e-07
3.41151e-07
3.24711e-07
3.15154e-07
8.74153e-07
1.34356e-07
0.000142645
0.000145538
0.000148159
0.000150397
0.000151834
0.00015242
0.000152066
0.000150543
0.00014777
0.000143759
0.000138427
0.000131907
0.000124306
0.000115783
0.000106581
9.69718e-05
8.71763e-05
7.75082e-05
6.82526e-05
5.95964e-05
5.17873e-05
4.49532e-05
3.90794e-05
3.37666e-05
2.84194e-05
2.29251e-05
1.78274e-05
1.38066e-05
1.09761e-05
9.13706e-06
7.87292e-06
7.12034e-06
5.43696e-06
1.82561e-06
4.73235e-09
0
0
0.00040784
0.0269744
0.000139129
0.000135441
0.000131052
0.000125411
0.000119063
0.000112082
0.00010477
9.69967e-05
8.8931e-05
8.07618e-05
7.25945e-05
6.45912e-05
5.68693e-05
4.9517e-05
4.26273e-05
3.62989e-05
3.05995e-05
2.55684e-05
2.12138e-05
1.74991e-05
1.43601e-05
1.17104e-05
9.45634e-06
7.5165e-06
5.84192e-06
4.43991e-06
3.32287e-06
2.46516e-06
1.8151e-06
1.32718e-06
9.67418e-07
7.09662e-07
5.29806e-07
4.12211e-07
3.40106e-07
3.31812e-07
3.28935e-07
6.58437e-07
1.0321e-06
0.000104222
0.000106526
0.00010871
0.000110684
0.000112175
0.000113149
0.000113527
0.000113123
0.000111886
0.000109776
0.000106751
0.000102795
9.79797e-05
9.2393e-05
8.61555e-05
7.94234e-05
7.23784e-05
6.52376e-05
5.8121e-05
5.12321e-05
4.48779e-05
3.92332e-05
3.42888e-05
2.9777e-05
2.52895e-05
2.06951e-05
1.63315e-05
1.27178e-05
1.00265e-05
8.10518e-06
6.70111e-06
5.8551e-06
5.44036e-06
5.00916e-06
2.16154e-06
2.92172e-09
0
0.000102436
0.00824906
0.000101532
9.8774e-05
9.5601e-05
9.15408e-05
8.7065e-05
8.22706e-05
7.72376e-05
7.18926e-05
6.64128e-05
6.08802e-05
5.53375e-05
4.98748e-05
4.45558e-05
3.9398e-05
3.44741e-05
2.98493e-05
2.55764e-05
2.17022e-05
1.82537e-05
1.52338e-05
1.26189e-05
1.03673e-05
8.42128e-06
6.73042e-06
5.27035e-06
4.0417e-06
3.05077e-06
2.2797e-06
1.68903e-06
1.24164e-06
9.07767e-07
6.65155e-07
4.92713e-07
3.76419e-07
3.0305e-07
2.85382e-07
2.91849e-07
4.81921e-07
1.22945e-06
7.69967e-05
7.88236e-05
8.0615e-05
8.22831e-05
8.36584e-05
8.47174e-05
8.53983e-05
8.55636e-05
8.51552e-05
8.41501e-05
8.24719e-05
8.01094e-05
7.70907e-05
7.34316e-05
6.92117e-05
6.45133e-05
5.94625e-05
5.42317e-05
4.89415e-05
4.3737e-05
3.88014e-05
3.42753e-05
3.01702e-05
2.63351e-05
2.25297e-05
1.86634e-05
1.49717e-05
1.18316e-05
9.4084e-06
7.59269e-06
6.20234e-06
5.15515e-06
4.47757e-06
4.21409e-06
4.61375e-06
1.21807e-06
5.31278e-13
3.04023e-05
0.00274572
7.49447e-05
7.28578e-05
7.05309e-05
6.75855e-05
6.43905e-05
6.10299e-05
5.75029e-05
5.37794e-05
5.00025e-05
4.6208e-05
4.24041e-05
3.86417e-05
3.49479e-05
3.13251e-05
2.78039e-05
2.4434e-05
2.12486e-05
1.82908e-05
1.55866e-05
1.3156e-05
1.10013e-05
9.10524e-06
7.4392e-06
5.97925e-06
4.71163e-06
3.63942e-06
2.76598e-06
2.07831e-06
1.54559e-06
1.13985e-06
8.35065e-07
6.12825e-07
4.55012e-07
3.48971e-07
2.82521e-07
2.64179e-07
2.71705e-07
4.08708e-07
1.0384e-06
5.74519e-05
5.88918e-05
6.03498e-05
6.17397e-05
6.2942e-05
6.39578e-05
6.47389e-05
6.51768e-05
6.52242e-05
6.48539e-05
6.40076e-05
6.26697e-05
6.08319e-05
5.84961e-05
5.56894e-05
5.24751e-05
4.89102e-05
4.51268e-05
4.12051e-05
3.72293e-05
3.33562e-05
2.97253e-05
2.63505e-05
2.31463e-05
1.99639e-05
1.67321e-05
1.36281e-05
1.09313e-05
8.7967e-06
7.15957e-06
5.8826e-06
4.8735e-06
4.10073e-06
3.56929e-06
3.45693e-06
4.93029e-06
1.15373e-12
5.1579e-07
0.000682744
5.58689e-05
5.42923e-05
5.25552e-05
5.03917e-05
4.80838e-05
4.56931e-05
4.31757e-05
4.05537e-05
3.79204e-05
3.52822e-05
3.26442e-05
3.00322e-05
2.74511e-05
2.48929e-05
2.23773e-05
1.99295e-05
1.75635e-05
1.53174e-05
1.32168e-05
1.12826e-05
9.5253e-06
7.94653e-06
6.53599e-06
5.28753e-06
4.1976e-06
3.26801e-06
2.50267e-06
1.89217e-06
1.4151e-06
1.04766e-06
7.70291e-07
5.66068e-07
4.19516e-07
3.19338e-07
2.55872e-07
2.35567e-07
2.39748e-07
3.50315e-07
8.40961e-07
4.32423e-05
4.43765e-05
4.55492e-05
4.66883e-05
4.77119e-05
4.86327e-05
4.93956e-05
4.99355e-05
5.02097e-05
5.01958e-05
4.98499e-05
4.91433e-05
4.80649e-05
4.66009e-05
4.47629e-05
4.25767e-05
4.00922e-05
3.73689e-05
3.44942e-05
3.15214e-05
2.8542e-05
2.56719e-05
2.29371e-05
2.02918e-05
1.76468e-05
1.49576e-05
1.23527e-05
1.00468e-05
8.17407e-06
6.709e-06
5.55364e-06
4.63834e-06
3.90544e-06
3.39746e-06
2.75615e-06
4.20674e-06
1.08185e-06
3.5423e-11
3.67258e-05
4.20101e-05
4.08079e-05
3.95031e-05
3.7897e-05
3.62128e-05
3.44805e-05
3.26662e-05
3.07975e-05
2.8938e-05
2.70832e-05
2.52355e-05
2.34051e-05
2.1589e-05
1.9779e-05
1.79772e-05
1.61989e-05
1.44503e-05
1.27556e-05
1.11337e-05
9.60637e-06
8.18918e-06
6.88996e-06
5.70932e-06
4.64941e-06
3.71625e-06
2.91549e-06
2.24927e-06
1.71118e-06
1.28645e-06
9.55846e-07
7.04549e-07
5.18293e-07
3.83591e-07
2.91144e-07
2.31996e-07
2.11272e-07
2.12748e-07
2.99813e-07
6.83909e-07
3.27914e-05
3.3691e-05
3.46305e-05
3.55485e-05
3.64132e-05
3.72184e-05
3.79176e-05
3.84681e-05
3.88459e-05
3.90237e-05
3.89612e-05
3.86392e-05
3.80471e-05
3.71618e-05
3.59885e-05
3.45339e-05
3.28243e-05
3.08944e-05
2.8807e-05
2.65997e-05
2.432e-05
2.20682e-05
1.98712e-05
1.7716e-05
1.55341e-05
1.33162e-05
1.11456e-05
9.18729e-06
7.55545e-06
6.25205e-06
5.21004e-06
4.38054e-06
3.70985e-06
3.25049e-06
2.69915e-06
2.77104e-06
3.89854e-06
5.02863e-12
2.30797e-07
3.1834e-05
3.09054e-05
2.99187e-05
2.87174e-05
2.74782e-05
2.6203e-05
2.48814e-05
2.35321e-05
2.22039e-05
2.08871e-05
1.95808e-05
1.82887e-05
1.70036e-05
1.57153e-05
1.44237e-05
1.31295e-05
1.18407e-05
1.05662e-05
9.32317e-06
8.12813e-06
6.99407e-06
5.93448e-06
4.95517e-06
4.06488e-06
3.27332e-06
2.58798e-06
2.01101e-06
1.53991e-06
1.16379e-06
8.68724e-07
6.42034e-07
4.72735e-07
3.49245e-07
2.63709e-07
2.08029e-07
1.86583e-07
1.85886e-07
2.53542e-07
5.5571e-07
2.50316e-05
2.57396e-05
2.64948e-05
2.72392e-05
2.79554e-05
2.86417e-05
2.92598e-05
2.97773e-05
3.01809e-05
3.04461e-05
3.05415e-05
3.04487e-05
3.01615e-05
2.96614e-05
2.8934e-05
2.79873e-05
2.68257e-05
2.54752e-05
2.39771e-05
2.23548e-05
2.06352e-05
1.88883e-05
1.71482e-05
1.54061e-05
1.36299e-05
1.18101e-05
1.00128e-05
8.35998e-06
6.95111e-06
5.80001e-06
4.86533e-06
4.1109e-06
3.50465e-06
3.05055e-06
2.71898e-06
2.1213e-06
4.56566e-06
4.3762e-11
6.48182e-18
2.42898e-05
2.35673e-05
2.28087e-05
2.19065e-05
2.09823e-05
2.00394e-05
1.90635e-05
1.80807e-05
1.71197e-05
1.61774e-05
1.5245e-05
1.43245e-05
1.34085e-05
1.24879e-05
1.15588e-05
1.06179e-05
9.66741e-06
8.71331e-06
7.76619e-06
6.83663e-06
5.93757e-06
5.08108e-06
4.27549e-06
3.5335e-06
2.86685e-06
2.28367e-06
1.78785e-06
1.37768e-06
1.04629e-06
7.84468e-07
5.8127e-07
4.28119e-07
3.15866e-07
2.37218e-07
1.85421e-07
1.63728e-07
1.61147e-07
2.12861e-07
4.48988e-07
1.92205e-05
1.97837e-05
2.03842e-05
2.09911e-05
2.15766e-05
2.21501e-05
2.26873e-05
2.31534e-05
2.35453e-05
2.3835e-05
2.40096e-05
2.40587e-05
2.39573e-05
2.36944e-05
2.32665e-05
2.26646e-05
2.18984e-05
2.09656e-05
1.99033e-05
1.87232e-05
1.74416e-05
1.60986e-05
1.47349e-05
1.33446e-05
1.19131e-05
1.0433e-05
8.95407e-06
7.57113e-06
6.36373e-06
5.35446e-06
4.52311e-06
3.84135e-06
3.29461e-06
2.85172e-06
2.61153e-06
2.00659e-06
3.36179e-06
4.7347e-07
7.51775e-11
1.86385e-05
1.80806e-05
1.7495e-05
1.68079e-05
1.61155e-05
1.54072e-05
1.46796e-05
1.39606e-05
1.3258e-05
1.25752e-05
1.19034e-05
1.12435e-05
1.05876e-05
9.92577e-06
9.25317e-06
8.56807e-06
7.8679e-06
7.15479e-06
6.43662e-06
5.71777e-06
5.01029e-06
4.32448e-06
3.66853e-06
3.05471e-06
2.49654e-06
2.0036e-06
1.58027e-06
1.22579e-06
9.35883e-07
7.04176e-07
5.23356e-07
3.85279e-07
2.83391e-07
2.11587e-07
1.63586e-07
1.41892e-07
1.37879e-07
1.7726e-07
3.60016e-07
1.48362e-05
1.52825e-05
1.57636e-05
1.62531e-05
1.67311e-05
1.72091e-05
1.76648e-05
1.80729e-05
1.8432e-05
1.87226e-05
1.89292e-05
1.90439e-05
1.90527e-05
1.89444e-05
1.8712e-05
1.83467e-05
1.78505e-05
1.72234e-05
1.64793e-05
1.56323e-05
1.46876e-05
1.36681e-05
1.2609e-05
1.15162e-05
1.03711e-05
9.17797e-06
7.97067e-06
6.82109e-06
5.7946e-06
4.9199e-06
4.18571e-06
3.57493e-06
3.08046e-06
2.67165e-06
2.42333e-06
2.03213e-06
2.28456e-06
2.014e-06
2.01347e-08
1.43795e-05
1.39424e-05
1.34893e-05
1.29646e-05
1.24404e-05
1.1903e-05
1.13578e-05
1.08237e-05
1.03094e-05
9.80887e-06
9.32104e-06
8.84323e-06
8.36952e-06
7.89001e-06
7.40223e-06
6.90266e-06
6.38558e-06
5.85467e-06
5.31071e-06
4.75831e-06
4.20529e-06
3.65881e-06
3.12828e-06
2.62498e-06
2.16152e-06
1.7481e-06
1.38858e-06
1.08414e-06
8.32355e-07
6.2875e-07
4.68237e-07
3.44644e-07
2.52796e-07
1.87136e-07
1.42701e-07
1.21403e-07
1.16546e-07
1.46242e-07
2.86579e-07
1.15062e-05
1.18583e-05
1.22438e-05
1.26384e-05
1.30283e-05
1.34247e-05
1.38058e-05
1.41583e-05
1.4474e-05
1.47453e-05
1.4958e-05
1.51053e-05
1.51763e-05
1.51625e-05
1.50573e-05
1.48506e-05
1.45397e-05
1.41261e-05
1.36133e-05
1.30151e-05
1.23281e-05
1.15648e-05
1.07517e-05
9.89861e-06
8.99427e-06
8.03875e-06
7.06262e-06
6.11402e-06
5.25072e-06
4.49732e-06
3.85389e-06
3.31177e-06
2.86548e-06
2.4998e-06
2.22967e-06
2.00311e-06
1.78774e-06
2.30433e-06
4.94686e-07
1.11454e-05
1.0803e-05
1.04491e-05
1.00475e-05
9.64552e-06
9.2364e-06
8.82464e-06
8.42393e-06
8.04234e-06
7.67398e-06
7.31604e-06
6.96726e-06
6.62263e-06
6.2738e-06
5.9183e-06
5.55192e-06
5.17035e-06
4.77503e-06
4.36376e-06
3.94139e-06
3.51107e-06
3.07966e-06
2.65365e-06
2.24321e-06
1.86141e-06
1.51635e-06
1.21277e-06
9.52854e-07
7.35521e-07
5.57821e-07
4.16005e-07
3.06411e-07
2.23696e-07
1.64239e-07
1.23414e-07
1.02762e-07
9.70984e-08
1.19533e-07
2.26676e-07
8.96006e-06
9.24041e-06
9.54995e-06
9.8664e-06
1.01838e-05
1.05105e-05
1.08277e-05
1.11262e-05
1.14013e-05
1.16449e-05
1.18474e-05
1.20036e-05
1.21057e-05
1.21465e-05
1.21173e-05
1.20151e-05
1.18322e-05
1.15684e-05
1.12233e-05
1.08075e-05
1.03165e-05
9.7512e-06
9.13621e-06
8.47643e-06
7.76915e-06
7.01217e-06
6.22795e-06
5.45422e-06
4.73257e-06
4.08907e-06
3.5308e-06
3.05399e-06
2.65253e-06
2.32697e-06
2.05657e-06
1.8923e-06
1.60568e-06
1.87808e-06
1.2474e-06
8.67538e-06
8.40447e-06
8.12856e-06
7.8183e-06
7.50941e-06
7.19555e-06
6.88122e-06
6.57981e-06
6.29285e-06
6.01949e-06
5.75451e-06
5.49794e-06
5.24485e-06
4.99025e-06
4.72997e-06
4.45949e-06
4.17792e-06
3.88271e-06
3.57349e-06
3.25067e-06
2.91764e-06
2.57863e-06
2.23892e-06
1.90693e-06
1.59362e-06
1.3075e-06
1.05322e-06
8.32654e-07
6.45964e-07
4.91725e-07
3.67462e-07
2.70253e-07
1.96463e-07
1.42755e-07
1.05428e-07
8.56476e-08
7.95852e-08
9.653e-08
1.77958e-07
7.00292e-06
7.22663e-06
7.47351e-06
7.72866e-06
7.98827e-06
8.25487e-06
8.51697e-06
8.76807e-06
9.00419e-06
9.21857e-06
9.40328e-06
9.55551e-06
9.66937e-06
9.73727e-06
9.75462e-06
9.71811e-06
9.62168e-06
9.46216e-06
9.23765e-06
8.95334e-06
8.60658e-06
8.19522e-06
7.73525e-06
7.23285e-06
6.68513e-06
6.0922e-06
5.46609e-06
4.83954e-06
4.24194e-06
3.69935e-06
3.2183e-06
2.8014e-06
2.44404e-06
2.15221e-06
1.89976e-06
1.74233e-06
1.51417e-06
1.48865e-06
1.45699e-06
6.7792e-06
6.56322e-06
6.34638e-06
6.10544e-06
5.86665e-06
5.62459e-06
5.38366e-06
5.15482e-06
4.93827e-06
4.73267e-06
4.53579e-06
4.34559e-06
4.15835e-06
3.97037e-06
3.77809e-06
3.57933e-06
3.37057e-06
3.14978e-06
2.91682e-06
2.671e-06
2.41433e-06
2.14879e-06
1.87887e-06
1.61208e-06
1.35714e-06
1.12126e-06
9.09091e-07
7.23151e-07
5.63827e-07
4.30796e-07
3.22415e-07
2.36692e-07
1.71135e-07
1.22722e-07
8.88947e-08
7.02515e-08
6.41446e-08
7.69975e-08
1.38751e-07
5.49102e-06
5.67012e-06
5.86799e-06
6.07359e-06
6.28405e-06
6.50202e-06
6.71899e-06
6.9277e-06
7.12677e-06
7.31129e-06
7.47708e-06
7.61798e-06
7.7321e-06
7.81229e-06
7.85755e-06
7.86061e-06
7.81962e-06
7.73037e-06
7.59003e-06
7.40193e-06
7.16136e-06
6.86731e-06
6.52716e-06
6.15007e-06
5.73142e-06
5.26999e-06
4.77588e-06
4.27078e-06
3.78229e-06
3.32752e-06
2.91723e-06
2.55549e-06
2.24064e-06
1.97881e-06
1.75092e-06
1.58849e-06
1.41839e-06
1.25595e-06
1.31521e-06
5.31395e-06
5.14383e-06
4.97225e-06
4.78424e-06
4.59748e-06
4.41063e-06
4.22473e-06
4.04882e-06
3.88448e-06
3.72905e-06
3.58071e-06
3.43858e-06
3.29911e-06
3.15972e-06
3.01732e-06
2.87002e-06
2.71423e-06
2.54981e-06
2.374e-06
2.18679e-06
1.98904e-06
1.7823e-06
1.56961e-06
1.35614e-06
1.14933e-06
9.56225e-07
7.80469e-07
6.2445e-07
4.89179e-07
3.7495e-07
2.81e-07
2.05859e-07
1.47726e-07
1.04551e-07
7.41145e-08
5.67368e-08
5.06498e-08
6.05797e-08
1.07468e-07
4.31914e-06
4.46136e-06
4.62045e-06
4.78686e-06
4.95723e-06
5.13454e-06
5.31276e-06
5.48642e-06
5.65364e-06
5.8114e-06
5.95388e-06
6.08078e-06
6.18884e-06
6.27305e-06
6.3306e-06
6.35801e-06
6.35186e-06
6.30861e-06
6.22701e-06
6.1068e-06
5.94485e-06
5.73839e-06
5.49104e-06
5.21046e-06
4.89381e-06
4.5385e-06
4.15222e-06
3.75119e-06
3.3539e-06
2.97652e-06
2.62998e-06
2.31847e-06
2.04345e-06
1.80944e-06
1.60518e-06
1.44399e-06
1.30299e-06
1.1122e-06
1.1137e-06
4.17786e-06
4.04264e-06
3.90782e-06
3.76055e-06
3.61367e-06
3.46774e-06
3.32426e-06
3.18845e-06
3.06245e-06
2.94381e-06
2.83166e-06
2.72466e-06
2.62046e-06
2.51616e-06
2.40968e-06
2.29912e-06
2.18329e-06
2.05994e-06
1.92659e-06
1.78469e-06
1.63311e-06
1.47276e-06
1.3053e-06
1.13509e-06
9.6861e-07
8.11112e-07
6.66178e-07
5.35972e-07
4.21917e-07
3.24412e-07
2.43293e-07
1.7769e-07
1.26567e-07
8.81677e-08
6.08494e-08
4.48668e-08
3.90708e-08
4.68694e-08
8.25489e-08
3.4058e-06
3.51987e-06
3.64757e-06
3.78132e-06
3.91953e-06
4.0647e-06
4.21096e-06
4.35401e-06
4.49343e-06
4.62632e-06
4.74928e-06
4.86096e-06
4.95859e-06
5.04011e-06
5.10206e-06
5.14234e-06
5.15754e-06
5.14493e-06
5.10176e-06
5.02892e-06
4.92347e-06
4.78191e-06
4.60514e-06
4.39924e-06
4.16298e-06
3.89299e-06
3.59385e-06
3.27806e-06
2.95749e-06
2.6479e-06
2.35737e-06
2.0915e-06
1.85302e-06
1.64558e-06
1.46281e-06
1.30978e-06
1.17961e-06
1.00072e-06
9.43988e-07
3.29392e-06
3.18628e-06
3.07888e-06
2.96362e-06
2.84851e-06
2.73334e-06
2.62184e-06
2.51725e-06
2.41988e-06
2.32846e-06
2.2429e-06
2.16181e-06
2.0826e-06
2.00372e-06
1.92422e-06
1.84153e-06
1.75446e-06
1.66102e-06
1.56088e-06
1.45281e-06
1.33644e-06
1.21215e-06
1.08083e-06
9.46046e-07
8.1251e-07
6.84553e-07
5.65542e-07
4.57504e-07
3.61694e-07
2.78919e-07
2.09218e-07
1.52382e-07
1.0753e-07
7.36089e-08
4.9211e-08
3.47058e-08
2.93335e-08
3.5609e-08
6.30673e-08
2.69213e-06
2.78367e-06
2.88625e-06
2.99448e-06
3.10646e-06
3.22401e-06
3.34369e-06
3.46154e-06
3.57725e-06
3.68858e-06
3.7932e-06
3.89001e-06
3.97687e-06
4.05191e-06
4.11305e-06
4.1585e-06
4.1857e-06
4.19221e-06
4.17531e-06
4.13444e-06
4.06912e-06
3.97519e-06
3.85121e-06
3.70316e-06
3.52924e-06
3.32591e-06
3.09659e-06
2.84904e-06
2.59409e-06
2.34217e-06
2.10103e-06
1.87613e-06
1.67108e-06
1.48829e-06
1.32531e-06
1.1834e-06
1.05903e-06
8.98411e-07
8.09926e-07
2.60288e-06
2.51764e-06
2.43161e-06
2.34065e-06
2.25017e-06
2.16005e-06
2.0725e-06
1.99073e-06
1.91533e-06
1.84473e-06
1.77884e-06
1.71643e-06
1.65618e-06
1.59656e-06
1.53606e-06
1.47394e-06
1.40808e-06
1.33766e-06
1.26187e-06
1.17943e-06
1.09058e-06
9.94168e-07
8.91667e-07
7.84975e-07
6.78034e-07
5.74707e-07
4.77697e-07
3.88446e-07
3.08357e-07
2.38408e-07
1.78901e-07
1.29755e-07
9.07071e-08
6.08449e-08
3.92478e-08
2.61756e-08
2.13134e-08
2.65173e-08
4.78985e-08
2.13271e-06
2.2061e-06
2.28869e-06
2.37582e-06
2.46649e-06
2.56221e-06
2.65954e-06
2.75648e-06
2.85252e-06
2.94545e-06
3.03325e-06
3.11592e-06
3.19214e-06
3.25922e-06
3.31669e-06
3.36291e-06
3.39554e-06
3.41277e-06
3.41312e-06
3.39416e-06
3.3563e-06
3.29662e-06
3.21207e-06
3.10729e-06
2.98067e-06
2.82976e-06
2.656e-06
2.46427e-06
2.26357e-06
2.06028e-06
1.86164e-06
1.6733e-06
1.498e-06
1.33855e-06
1.19352e-06
1.06385e-06
9.45994e-07
8.01104e-07
6.99848e-07
2.06157e-06
1.99332e-06
1.9252e-06
1.85303e-06
1.7813e-06
1.71022e-06
1.64145e-06
1.57737e-06
1.51841e-06
1.46385e-06
1.41266e-06
1.3643e-06
1.31844e-06
1.27265e-06
1.22643e-06
1.17931e-06
1.12948e-06
1.07604e-06
1.01848e-06
9.55899e-07
8.87428e-07
8.13073e-07
7.32937e-07
6.48791e-07
5.63681e-07
4.80578e-07
4.01603e-07
3.28088e-07
2.6153e-07
2.02704e-07
1.52109e-07
1.09866e-07
7.59201e-08
4.98205e-08
3.08147e-08
1.92097e-08
1.48834e-08
1.92991e-08
3.61792e-08
1.69267e-06
1.75164e-06
1.81829e-06
1.88841e-06
1.96177e-06
2.03962e-06
2.11905e-06
2.19861e-06
2.27733e-06
2.35459e-06
2.42865e-06
2.49824e-06
2.56347e-06
2.62285e-06
2.67518e-06
2.71939e-06
2.75346e-06
2.77657e-06
2.78675e-06
2.78268e-06
2.76356e-06
2.72738e-06
2.67218e-06
2.59898e-06
2.50881e-06
2.39815e-06
2.26812e-06
2.12118e-06
1.96398e-06
1.80164e-06
1.63986e-06
1.48353e-06
1.3345e-06
1.19678e-06
1.06863e-06
9.51319e-07
8.41206e-07
7.09814e-07
6.05791e-07
1.63599e-06
1.58134e-06
1.52709e-06
1.47021e-06
1.41311e-06
1.35681e-06
1.30236e-06
1.25228e-06
1.20584e-06
1.16295e-06
1.12341e-06
1.0859e-06
1.04996e-06
1.01467e-06
9.79749e-07
9.43757e-07
9.05597e-07
8.64826e-07
8.21212e-07
7.72967e-07
7.20532e-07
6.63127e-07
6.00532e-07
5.34543e-07
4.6678e-07
4.00107e-07
3.36011e-07
2.7585e-07
2.20768e-07
1.71501e-07
1.28649e-07
9.25872e-08
6.32108e-08
4.04448e-08
2.38742e-08
1.3642e-08
9.87482e-09
1.36914e-08
2.72188e-08
1.34585e-06
1.39342e-06
1.44674e-06
1.50342e-06
1.56285e-06
1.62599e-06
1.69078e-06
1.75564e-06
1.82041e-06
1.88415e-06
1.94598e-06
2.00478e-06
2.06032e-06
2.11162e-06
2.15798e-06
2.19884e-06
2.23228e-06
2.25723e-06
2.27317e-06
2.27825e-06
2.27189e-06
2.25184e-06
2.21702e-06
2.16807e-06
2.10483e-06
2.02496e-06
1.92802e-06
1.81702e-06
1.69534e-06
1.56678e-06
1.4363e-06
1.30719e-06
1.18192e-06
1.06357e-06
9.51279e-07
8.45745e-07
7.44472e-07
6.25641e-07
5.24171e-07
1.30062e-06
1.25706e-06
1.21327e-06
1.16832e-06
1.12285e-06
1.07828e-06
1.03516e-06
9.95413e-07
9.58955e-07
9.25305e-07
8.94227e-07
8.64856e-07
8.36825e-07
8.09738e-07
7.82779e-07
7.54797e-07
7.25579e-07
6.94781e-07
6.61008e-07
6.24355e-07
5.84083e-07
5.39391e-07
4.90873e-07
4.38904e-07
3.85274e-07
3.31869e-07
2.80033e-07
2.31043e-07
1.85528e-07
1.44403e-07
1.08352e-07
7.76339e-08
5.24586e-08
3.2691e-08
1.82913e-08
9.33657e-09
6.12232e-09
9.46237e-09
2.0401e-08
1.07184e-06
1.10995e-06
1.15289e-06
1.19872e-06
1.2466e-06
1.29783e-06
1.35063e-06
1.40368e-06
1.45694e-06
1.5095e-06
1.56048e-06
1.6097e-06
1.65678e-06
1.70093e-06
1.74142e-06
1.7776e-06
1.8091e-06
1.83429e-06
1.85248e-06
1.86272e-06
1.86453e-06
1.85594e-06
1.835e-06
1.80354e-06
1.75991e-06
1.70342e-06
1.63249e-06
1.54929e-06
1.45582e-06
1.35511e-06
1.25071e-06
1.14484e-06
1.04049e-06
9.39498e-07
8.41769e-07
7.47801e-07
6.55648e-07
5.49023e-07
4.53165e-07
1.03537e-06
1.00093e-06
9.65678e-07
9.29701e-07
8.93905e-07
8.58272e-07
8.24207e-07
7.92584e-07
7.63751e-07
7.37241e-07
7.12463e-07
6.89592e-07
6.67728e-07
6.46547e-07
6.25546e-07
6.03821e-07
5.81512e-07
5.57808e-07
5.31891e-07
5.03806e-07
4.72548e-07
4.38119e-07
4.00371e-07
3.59545e-07
3.17058e-07
2.74329e-07
2.3263e-07
1.9274e-07
1.55359e-07
1.21215e-07
9.09387e-08
6.48915e-08
4.33853e-08
2.63806e-08
1.39161e-08
6.17392e-09
3.43344e-09
6.3782e-09
1.53601e-08
8.54903e-07
8.85438e-07
9.19905e-07
9.56729e-07
9.95748e-07
1.03738e-06
1.08011e-06
1.12349e-06
1.16703e-06
1.21005e-06
1.2524e-06
1.29339e-06
1.33281e-06
1.37038e-06
1.40528e-06
1.43709e-06
1.46543e-06
1.48957e-06
1.50847e-06
1.52112e-06
1.5277e-06
1.52643e-06
1.51563e-06
1.4961e-06
1.46726e-06
1.42749e-06
1.3764e-06
1.3148e-06
1.24362e-06
1.16567e-06
1.08255e-06
9.9677e-07
9.10331e-07
8.24842e-07
7.40507e-07
6.57543e-07
5.74545e-07
4.7967e-07
3.91341e-07
8.25533e-07
7.97876e-07
7.69956e-07
7.40957e-07
7.12391e-07
6.84243e-07
6.57071e-07
6.31998e-07
6.09056e-07
5.87883e-07
5.68355e-07
5.50312e-07
5.33178e-07
5.16612e-07
5.00013e-07
4.83337e-07
4.66034e-07
4.47487e-07
4.27781e-07
4.06063e-07
3.81972e-07
3.55376e-07
3.2586e-07
2.93754e-07
2.60211e-07
2.26176e-07
1.92703e-07
1.60347e-07
1.29715e-07
1.01481e-07
7.61769e-08
5.42272e-08
3.58825e-08
2.13021e-08
1.05902e-08
3.93323e-09
1.64126e-09
4.23838e-09
1.1674e-08
6.82579e-07
7.07034e-07
7.34806e-07
7.64776e-07
7.96343e-07
8.29936e-07
8.64603e-07
8.99806e-07
9.35532e-07
9.70982e-07
1.00562e-06
1.03965e-06
1.07262e-06
1.10415e-06
1.13407e-06
1.16178e-06
1.18677e-06
1.2088e-06
1.22707e-06
1.24086e-06
1.24974e-06
1.253e-06
1.24903e-06
1.23784e-06
1.21951e-06
1.1924e-06
1.15576e-06
1.11068e-06
1.05736e-06
9.97201e-07
9.31639e-07
8.6269e-07
7.91662e-07
7.19831e-07
6.47607e-07
5.74821e-07
5.01112e-07
4.17422e-07
3.37518e-07
6.59191e-07
6.36977e-07
6.14702e-07
5.91578e-07
5.68695e-07
5.4614e-07
5.24567e-07
5.04704e-07
4.86329e-07
4.69432e-07
4.54078e-07
4.39643e-07
4.26073e-07
4.12912e-07
3.99973e-07
3.87025e-07
3.73423e-07
3.59149e-07
3.43873e-07
3.27075e-07
3.08486e-07
2.87817e-07
2.64872e-07
2.39725e-07
2.13169e-07
1.86162e-07
1.59253e-07
1.33021e-07
1.08107e-07
8.48536e-08
6.37628e-08
4.53228e-08
2.97941e-08
1.7358e-08
8.1799e-09
2.48791e-09
5.79857e-10
2.85316e-09
9.00237e-09
5.45556e-07
5.65276e-07
5.87813e-07
6.1189e-07
6.37281e-07
6.64454e-07
6.9273e-07
7.21393e-07
7.50451e-07
7.79523e-07
8.0805e-07
8.36068e-07
8.63483e-07
8.89911e-07
9.15205e-07
9.38963e-07
9.60827e-07
9.80438e-07
9.97472e-07
1.01119e-06
1.02124e-06
1.02679e-06
1.02715e-06
1.02166e-06
1.01031e-06