/*--------------------------------*- C++ -*----------------------------------*\
| =========                 |                                                 |
| \\      /  F ield         | OpenFOAM: The Open Source CFD Toolbox           |
|  \\    /   O peration     | Version:  2506                                  |
|   \\  /    A nd           | Website:  www.openfoam.com                      |
|    \\/     M anipulation  |                                                 |
\*---------------------------------------------------------------------------*/
FoamFile
{
    version     2.0;
    format      ascii;
    arch        "LSB;label=32;scalar=64";
    class       volVectorField;
    location    "400";
    object      U;
}
// * * * * * * * * * * * * * * * * * * * * * * * * * * * * * * * * * * * * * //

dimensions      [0 1 -1 0 0 0 0];

internalField   nonuniform List<vector> 
10720
(
(0.227305 27.6471 6.74496e-18)
(1.96454 29.9433 -5.62202e-17)
(4.13735 32.1617 2.12831e-16)
(6.635 33.8946 -4.10314e-16)
(9.39109 35.2248 3.1465e-16)
(12.3373 36.1102 2.00365e-16)
(15.3188 36.4525 -3.61642e-16)
(18.2398 36.286 1.24239e-15)
(21.0151 35.6758 -8.39334e-16)
(23.5619 34.6566 -5.80901e-16)
(25.8434 33.3239 3.00297e-16)
(27.8127 31.7263 1.67794e-15)
(29.4229 29.8609 6.52295e-16)
(30.6576 27.7678 5.97806e-16)
(31.4739 25.4622 1.43021e-15)
(31.8438 22.9751 1.24024e-15)
(31.6969 20.3078 -2.52892e-15)
(30.9557 17.4968 -8.97272e-15)
(29.4861 14.5542 6.68072e-15)
(27.1601 11.5446 -3.12733e-16)
(23.8371 8.53225 -1.30836e-15)
(19.5669 5.67754 -2.42341e-15)
(14.89 3.22849 8.27115e-15)
(11.4424 1.44079 -2.14885e-15)
(10.0609 0.261299 1.47818e-15)
(10.6989 -0.35836 -3.15953e-15)
(12.1182 -0.598999 1.89373e-16)
(13.6252 -0.719436 -1.37271e-15)
(14.8683 -0.87123 -5.45189e-15)
(15.6918 -1.08666 -7.68095e-15)
(16.1255 -1.34691 7.72208e-15)
(16.2633 -1.62031 2.69346e-15)
(16.0624 -1.86605 1.10768e-15)
(15.5555 -2.06064 3.71541e-14)
(14.726 -2.17966 -5.57774e-15)
(13.5771 -2.20854 -5.02603e-16)
(11.731 -2.06536 8.64057e-16)
(9.73143 -1.81431 2.14949e-15)
(3.62748 -1.08788 1.55592e-14)
(-1.1427 25.1966 7.66917e-18)
(-2.24857 22.4361 1.16854e-17)
(-3.01405 19.3293 -9.05211e-17)
(-3.31648 15.7331 8.60575e-17)
(-2.9963 12.0183 -2.86092e-16)
(-2.02377 8.32075 7.07938e-16)
(-0.486689 4.9518 1.88663e-15)
(1.36439 2.18882 5.48267e-15)
(3.32266 -0.13951 -1.64501e-15)
(5.553 -2.15989 5.0879e-16)
(7.84877 -3.66176 1.74119e-15)
(9.96511 -4.62794 2.62232e-15)
(11.8356 -5.18647 8.17039e-16)
(13.4722 -5.46193 -1.3887e-15)
(14.9 -5.55117 -1.24463e-15)
(16.1499 -5.51722 6.67136e-16)
(17.2526 -5.40769 2.50562e-16)
(18.2406 -5.2515 8.37583e-16)
(19.145 -5.06815 -6.87911e-16)
(19.9876 -4.8604 -1.3572e-16)
(20.7866 -4.62979 -5.97339e-16)
(21.5528 -4.36685 2.95515e-16)
(22.2875 -4.05759 8.09218e-16)
(22.9598 -3.67699 -2.7182e-16)
(23.5021 -3.22513 -3.03586e-16)
(23.897 -2.74548 -2.94831e-16)
(24.175 -2.27773 -8.40504e-18)
(24.3721 -1.77844 9.26109e-18)
(24.5037 -1.18113 1.2358e-19)
(24.5699 -0.51306 -3.41157e-18)
(24.5503 0.159841 7.46473e-17)
(24.4305 0.789601 5.57193e-17)
(24.2114 1.3536 1.25333e-16)
(23.9018 1.84542 3.63629e-16)
(23.5017 2.26734 9.75908e-18)
(23.0077 2.62726 2.30765e-16)
(22.3174 2.92665 8.27299e-16)
(21.3672 3.1342 2.18487e-15)
(18.7648 3.31175 2.34048e-15)
(7.15396 23.9923 -3.54616e-18)
(9.04436 25.7194 -2.15986e-17)
(11.3478 27.2835 1.5053e-17)
(14.0035 28.5801 6.46879e-17)
(16.8651 29.5494 -3.3053e-16)
(19.9374 30.1312 -1.76097e-16)
(23.108 30.279 -5.81999e-16)
(26.2441 30.014 1.1448e-16)
(29.292 29.3461 -4.87099e-16)
(32.1687 28.327 -8.47209e-17)
(34.8181 27.0096 1.21731e-15)
(37.2334 25.4925 -1.62227e-15)
(39.4232 23.8655 -9.27968e-16)
(41.3993 22.1614 -1.68269e-17)
(43.1488 20.4109 5.61699e-16)
(44.6308 18.6527 -1.17259e-15)
(45.8267 16.9103 -6.08667e-16)
(46.6993 15.2127 3.57362e-15)
(47.1876 13.5672 -5.87838e-16)
(47.1791 11.9783 -1.2088e-15)
(46.4798 10.3967 -1.70148e-15)
(44.8608 8.72374 1.47965e-15)
(42.1808 6.82171 -2.19509e-15)
(38.644 4.75811 -2.05686e-16)
(35.111 2.86676 1.18633e-15)
(31.9567 1.34615 1.13909e-15)
(29.1556 0.240369 8.55018e-17)
(26.7736 -0.550218 5.74353e-16)
(24.9186 -1.15061 1.34898e-15)
(23.5667 -1.62235 1.07692e-15)
(22.5401 -1.99184 -1.04678e-15)
(21.6146 -2.27808 -1.2312e-16)
(20.6912 -2.50247 1.44801e-14)
(19.6854 -2.6712 -1.09644e-14)
(18.5069 -2.76941 1.73637e-15)
(17.1185 -2.77937 -4.99533e-15)
(15.1486 -2.63243 1.58e-15)
(13.0635 -2.36433 -6.59184e-16)
(7.02234 -1.47 4.2508e-15)
(5.55903 22.1531 3.08212e-17)
(4.17397 20.1084 -9.58632e-17)
(2.96018 17.7146 -4.80016e-16)
(2.03959 14.9945 4.47339e-16)
(1.59179 12.0368 6.06263e-16)
(1.70557 8.98113 -2.53138e-17)
(2.40263 6.03983 -2.72085e-15)
(3.58768 3.43891 -4.60251e-15)
(5.08025 1.14188 3.07486e-15)
(6.84371 -0.758208 -1.62471e-15)
(8.73744 -2.12439 2.21165e-16)
(10.5866 -3.01232 -5.08471e-16)
(12.3097 -3.54995 2.78653e-17)
(13.8829 -3.83701 1.49372e-16)
(15.3008 -3.95451 5.00025e-16)
(16.5748 -3.95472 -9.10422e-16)
(17.7215 -3.88206 9.77879e-16)
(18.7646 -3.7616 -2.29135e-16)
(19.7282 -3.6112 -4.23721e-16)
(20.6353 -3.42809 -2.94986e-16)
(21.5012 -3.20995 -6.66841e-16)
(22.3382 -2.93941 -7.29375e-16)
(23.1482 -2.59509 -7.90777e-16)
(23.9088 -2.13663 3.15254e-16)
(24.5677 -1.57144 -2.11983e-17)
(25.099 -0.963324 1.34864e-16)
(25.5135 -0.336454 9.93709e-17)
(25.8055 0.273769 5.90577e-18)
(25.967 0.821306 -1.18843e-19)
(26.0005 1.28865 2.20735e-18)
(25.9349 1.68399 -4.281e-17)
(25.7971 2.03013 -1.89976e-17)
(25.5971 2.3467 -1.76811e-16)
(25.3361 2.64221 -1.28439e-16)
(25.0049 2.92011 -2.58668e-17)
(24.6045 3.18329 -1.089e-16)
(24.0359 3.42892 -6.36492e-16)
(23.4731 3.64811 -2.2753e-15)
(21.4976 3.71657 -2.42357e-15)
(8.30382 22.0998 2.14498e-18)
(9.64535 23.6255 9.99675e-18)
(11.2778 25.1114 5.09776e-18)
(13.1539 26.4854 -5.36104e-17)
(15.2214 27.6287 1.44071e-16)
(17.4794 28.518 2.15192e-16)
(19.8536 29.1144 5.84717e-16)
(22.2694 29.3804 2.46047e-17)
(24.6698 29.3158 6.10347e-16)
(26.9969 28.9329 -1.19568e-15)
(29.1975 28.2514 -1.30082e-16)
(31.2377 27.2963 -3.34414e-16)
(33.0901 26.0977 1.51168e-15)
(34.7378 24.6883 -3.3328e-16)
(36.179 23.1023 -4.38905e-16)
(37.4729 21.3508 -6.31106e-16)
(38.6497 19.464 1.95107e-15)
(39.7296 17.4981 -1.55499e-15)
(40.773 15.5027 -9.24666e-16)
(41.8253 13.5514 2.37269e-15)
(42.9478 11.6857 -1.87388e-15)
(44.0597 9.89361 -3.57727e-16)
(44.8712 8.03508 -4.50293e-16)
(44.9371 6.02615 6.38441e-16)
(44.1657 4.02924 -3.69291e-16)
(42.8115 2.28431 5.95223e-16)
(41.0977 0.902631 -1.14474e-16)
(39.0742 -0.18305 -8.58529e-17)
(36.6989 -1.07329 1.5324e-15)
(34.0107 -1.80073 2.17516e-16)
(31.2194 -2.36354 -3.0285e-15)
(28.6125 -2.76896 3.15988e-15)
(26.3422 -3.03923 -7.69348e-16)
(24.3388 -3.19763 1.52573e-16)
(22.4113 -3.25663 -3.40901e-15)
(20.4308 -3.2133 1.06795e-14)
(18.0242 -3.02185 -2.38989e-15)
(15.5361 -2.65265 -3.71944e-16)
(9.73793 -1.8833 -6.16666e-15)
(7.20963 20.4926 3.83898e-18)
(6.25004 18.7379 -8.46965e-17)
(5.45267 16.6726 2.92104e-16)
(4.81236 14.3623 2.30236e-16)
(4.48419 11.8814 -6.55634e-16)
(4.5138 9.29943 -6.21897e-16)
(4.92873 6.75363 1.2497e-15)
(5.69821 4.40207 1.86471e-15)
(6.78417 2.29673 1.61156e-15)
(8.13891 0.507269 -1.39259e-15)
(9.63649 -0.905567 -1.02371e-15)
(11.1564 -1.96299 2.63523e-16)
(12.627 -2.72627 9.91705e-16)
(14.0131 -3.25344 1.40284e-15)
(15.2976 -3.59508 -2.76236e-16)
(16.4787 -3.79449 -3.25747e-17)
(17.5627 -3.88965 9.48145e-16)
(18.5631 -3.90676 1.80345e-17)
(19.4969 -3.86401 7.18354e-16)
(20.3814 -3.76664 6.41901e-16)
(21.2291 -3.6168 1.49359e-15)
(22.0489 -3.40624 1.5561e-15)
(22.8409 -3.12154 6.87057e-16)
(23.5858 -2.74229 1.34657e-16)
(24.2405 -2.28354 -1.24786e-16)
(24.7806 -1.79446 3.59541e-16)
(25.2165 -1.29722 -6.97889e-17)
(25.5617 -0.796781 -3.84974e-17)
(25.8216 -0.289633 2.72243e-18)
(25.9965 0.226062 3.60297e-19)
(26.0885 0.750029 1.64326e-17)
(26.0991 1.27189 3.97918e-17)
(26.028 1.7735 5.65478e-17)
(25.8751 2.23925 1.59582e-17)
(25.6309 2.66169 -1.92198e-16)
(25.2955 3.0392 1.03744e-16)
(24.7698 3.37352 -9.25319e-16)
(24.1693 3.62611 4.34783e-15)
(22.3696 3.7274 1.0708e-14)
(10.905 20.2245 1.19703e-17)
(12.1614 21.5194 -1.40376e-17)
(13.6681 22.7807 1.64237e-17)
(15.4018 23.9338 -2.30602e-17)
(17.3162 24.8886 -6.94236e-17)
(19.4176 25.6263 -1.78958e-16)
(21.6501 26.1028 -2.87116e-16)
(23.9532 26.2832 1.0398e-16)
(26.2804 26.1596 6.91526e-16)
(28.5767 25.7337 -4.55386e-16)
(30.791 25.0185 -7.66569e-16)
(32.8839 24.0371 -1.16233e-15)
(34.8196 22.8239 1.31936e-15)
(36.5717 21.416 2.22662e-15)
(38.1297 19.8462 -1.98815e-15)
(39.4538 18.1664 -8.58701e-16)
(40.4986 16.4347 1.08875e-16)
(41.2604 14.6876 1.7458e-15)
(41.7488 12.9622 1.00845e-16)
(42.0124 11.2931 -2.52589e-15)
(42.1494 9.70739 3.36219e-15)
(42.3134 8.19898 -1.57219e-15)
(42.6087 6.68423 3.38208e-16)
(42.8886 5.07484 1.34197e-15)
(42.8483 3.43675 -8.00801e-16)
(42.3984 1.95683 6.69889e-16)
(41.6995 0.742558 7.41131e-17)
(40.9084 -0.254197 -3.79032e-16)
(40.0025 -1.12353 -3.02834e-16)
(38.8217 -1.89626 -4.3221e-16)
(37.178 -2.55657 4.84397e-16)
(34.9684 -3.077 -4.98696e-15)
(32.2951 -3.43961 -5.14443e-15)
(29.4558 -3.64597 1.44353e-15)
(26.6821 -3.70864 5.69079e-15)
(24.0044 -3.63024 -2.50229e-15)
(21.0739 -3.39184 3.31702e-15)
(18.0874 -2.90973 6.55598e-16)
(12.3184 -2.20177 3.03071e-15)
(9.84987 18.8697 -5.22603e-17)
(8.90317 17.4008 -2.10354e-17)
(8.07697 15.6681 3.58819e-16)
(7.38579 13.711 -1.58917e-16)
(6.96046 11.5991 9.40729e-16)
(6.83595 9.38074 7.9586e-16)
(7.03834 7.15958 -9.87522e-16)
(7.54194 5.05827 1.19226e-17)
(8.32462 3.13446 3.43404e-16)
(9.35354 1.45264 2.38278e-15)
(10.5377 0.0660504 1.75326e-16)
(11.7925 -1.01955 6.77827e-16)
(13.0582 -1.83596 -1.85336e-15)
(14.2937 -2.42408 -1.14695e-15)
(15.4739 -2.82325 3.44682e-16)
(16.5865 -3.07256 1.98569e-16)
(17.6289 -3.20613 -9.52817e-16)
(18.6051 -3.25102 9.43233e-17)
(19.5249 -3.22691 -2.3027e-16)
(20.3999 -3.14324 5.98287e-16)
(21.2392 -3.00323 -6.30145e-16)
(22.0491 -2.80141 -9.16677e-16)
(22.8287 -2.52653 1.14684e-16)
(23.5615 -2.16106 2.24664e-16)
(24.2117 -1.71068 4.36473e-16)
(24.7554 -1.21289 -3.19594e-16)
(25.1974 -0.69076 -4.04915e-17)
(25.549 -0.155344 1.3926e-17)
(25.8149 0.382866 -4.18178e-18)
(25.9978 0.908832 -2.53817e-18)
(26.1032 1.40673 3.72288e-18)
(26.1373 1.86089 -8.66366e-18)
(26.1041 2.26812 -8.00676e-18)
(26.0052 2.63153 2.10391e-17)
(25.831 2.95787 1.99476e-16)
(25.5777 3.25145 -5.66362e-16)
(25.1463 3.52034 2.55208e-15)
(24.6142 3.69604 -1.98935e-15)
(22.9849 3.75935 -2.10583e-15)
(12.4356 18.8257 -2.29767e-17)
(13.4919 19.975 7.30659e-18)
(14.7658 21.117 7.24436e-19)
(16.2229 22.1896 6.15057e-17)
(17.8231 23.1099 1.1195e-16)
(19.5873 23.8733 -3.0333e-16)
(21.4685 24.4402 4.33671e-16)
(23.4199 24.7754 1.92193e-16)
(25.4109 24.8687 5.37697e-16)
(27.395 24.7135 2.80595e-16)
(29.331 24.3115 -8.40401e-17)
(31.1841 23.6743 9.63131e-16)
(32.9203 22.8211 -2.01713e-15)
(34.5125 21.7733 1.41182e-16)
(35.94 20.5547 2.09185e-15)
(37.1823 19.1889 -1.03649e-15)
(38.2516 17.6716 1.07028e-15)
(39.1423 16.0257 -2.17234e-16)
(39.847 14.2843 6.9477e-17)
(40.3587 12.4938 2.56152e-15)
(40.6838 10.6938 -1.7539e-15)
(40.8485 8.9149 7.15469e-17)
(40.8957 7.1492 -3.84967e-16)
(40.8182 5.39087 -1.7671e-15)
(40.5229 3.71133 6.44707e-16)
(39.9712 2.23105 -2.16213e-15)
(39.2746 1.00725 -8.17696e-17)
(38.5767 -0.0081805 2.70108e-16)
(37.9452 -0.895635 -2.23132e-16)
(37.359 -1.69004 4.05512e-15)
(36.7508 -2.39446 1.55342e-15)
(35.9825 -3.00503 -7.22018e-16)
(34.819 -3.50391 -4.10911e-15)
(33.016 -3.85292 6.53974e-15)
(30.5249 -4.01637 -4.82194e-15)
(27.5884 -3.97628 3.56963e-16)
(24.2468 -3.73109 4.74808e-16)
(20.788 -3.16226 -4.46954e-17)
(14.9245 -2.46984 -3.72779e-15)
(11.5428 17.6298 1.21312e-17)
(10.7393 16.3464 -1.52234e-16)
(10.0176 14.8316 5.98204e-17)
(9.38608 13.1241 3.82068e-17)
(8.96069 11.2879 -1.34035e-15)
(8.76622 9.35143 -1.15389e-15)
(8.83376 7.39035 3.56815e-15)
(9.15433 5.50433 -2.81214e-15)
(9.71851 3.75577 -1.11536e-17)
(10.5022 2.19693 3.55402e-17)
(11.4407 0.868546 -3.50141e-16)
(12.471 -0.216319 -5.13729e-16)
(13.5452 -1.07517 -1.0363e-15)
(14.6253 -1.73501 1.26899e-15)
(15.684 -2.22165 5.40888e-16)
(16.7052 -2.56473 -1.13598e-16)
(17.6806 -2.79058 2.87753e-16)
(18.6082 -2.92145 -5.25893e-16)
(19.4922 -2.97399 3.54808e-16)
(20.3393 -2.95803 -3.43157e-16)
(21.1556 -2.87698 3.86283e-16)
(21.9449 -2.72764 3.54813e-16)
(22.7052 -2.50188 -6.26417e-17)
(23.4216 -2.18892 -5.29101e-16)
(24.0638 -1.79482 -1.3149e-16)
(24.6086 -1.35144 -4.53589e-17)
(25.0564 -0.884029 1.09789e-16)
(25.4161 -0.405348 1.21366e-18)
(25.6916 0.0752286 -3.11585e-18)
(25.8851 0.547582 1.95212e-17)
(26 1.0035 8.59594e-18)
(26.0419 1.44299 -3.95979e-18)
(26.0147 1.86612 5.56533e-18)
(25.9218 2.26936 6.89314e-18)
(25.7576 2.6495 3.32482e-17)
(25.5242 3.00245 -1.751e-16)
(25.1356 3.32883 -8.61015e-16)
(24.6771 3.54896 2.85151e-15)
(23.3014 3.66101 -3.12246e-15)
(13.9267 17.5917 1.59568e-17)
(14.8866 18.6088 -2.8172e-17)
(16.0396 19.6253 5.55589e-18)
(17.3538 20.5825 4.95921e-18)
(18.7905 21.4074 -7.22702e-17)
(20.3794 22.1004 -8.80724e-17)
(22.0803 22.6232 -2.73514e-17)
(23.8553 22.9437 -4.37131e-16)
(25.6838 23.0488 -3.89773e-17)
(27.5275 22.9272 2.02767e-16)
(29.3511 22.5746 -3.45968e-16)
(31.125 21.9944 4.24866e-16)
(32.8157 21.1968 1.4503e-15)
(34.3952 20.1966 7.5518e-16)
(35.8391 19.0125 -2.99581e-15)
(37.1279 17.6657 2.00448e-15)
(38.2344 16.1964 6.39941e-16)
(39.1311 14.6553 -1.34229e-15)
(39.8079 13.0823 5.86732e-16)
(40.2722 11.5068 1.44959e-16)
(40.5418 9.94905 -5.46239e-16)
(40.6418 8.40652 2.87151e-15)
(40.5817 6.84787 1.30938e-16)
(40.3343 5.25423 2.35833e-15)
(39.8532 3.68849 -5.06616e-16)
(39.1401 2.27005 2.25448e-16)
(38.2853 1.0738 7.25949e-17)
(37.404 0.0774966 -2.38047e-17)
(36.5562 -0.784325 -1.27611e-15)
(35.7526 -1.54811 -1.03535e-15)
(35.0009 -2.22194 1.1472e-16)
(34.3248 -2.8103 3.6825e-15)
(33.7083 -3.31757 4.62489e-15)
(33.0175 -3.73738 2.34712e-15)
(31.9164 -4.03417 -2.57522e-15)
(30.0272 -4.13073 -3.4094e-15)
(27.0859 -3.96962 -4.23951e-15)
(23.5155 -3.38269 -3.57914e-17)
(17.5853 -2.71564 1.01816e-15)
(13.107 16.5371 -3.7198e-17)
(12.3658 15.4123 -2.64406e-17)
(11.6863 14.081 8.90682e-17)
(11.0782 12.5764 -2.31485e-16)
(10.644 10.9597 -5.55115e-16)
(10.3998 9.24908 1.10167e-15)
(10.3732 7.5003 -9.85794e-16)
(10.5651 5.8001 -8.66026e-16)
(10.9701 4.21073 -9.55906e-16)
(11.5677 2.77122 -9.56738e-16)
(12.3122 1.51456 1.47026e-15)
(13.1562 0.457829 -7.14319e-16)
(14.0634 -0.407403 7.96166e-16)
(15.0016 -1.09773 1.52568e-16)
(15.945 -1.62894 -2.39962e-16)
(16.8762 -2.02232 -6.69022e-16)
(17.7842 -2.29779 -5.28999e-16)
(18.6627 -2.47364 2.90902e-16)
(19.5108 -2.56454 -1.29499e-16)
(20.331 -2.58038 -3.94687e-16)
(21.1259 -2.52571 -3.4883e-16)
(21.8966 -2.39965 -2.4803e-16)
(22.6397 -2.19656 3.1034e-16)
(23.3417 -1.90896 -1.02688e-16)
(23.9761 -1.54127 -2.94851e-16)
(24.5208 -1.1188 3.28834e-16)
(24.973 -0.664953 2.20533e-17)
(25.3387 -0.192138 2.18085e-18)
(25.6213 0.290653 4.27194e-18)
(25.8222 0.772907 -2.63255e-17)
(25.9447 1.24529 -4.03693e-18)
(25.9938 1.69806 1.2203e-17)
(25.9732 2.12131 -5.31149e-18)
(25.8861 2.509 -2.1275e-17)
(25.7266 2.85961 8.9117e-17)
(25.4952 3.16976 6.64444e-16)
(25.1127 3.44514 -2.53046e-15)
(24.6512 3.59202 -3.30223e-15)
(23.4323 3.6288 1.09351e-15)
(15.126 16.5487 -1.16275e-17)
(15.9878 17.462 -1.8692e-18)
(17.0228 18.3823 6.67246e-18)
(18.1971 19.2552 -1.86415e-17)
(19.4723 20.0152 1.12622e-16)
(20.8834 20.6687 -4.39011e-17)
(22.3938 21.1826 -8.03825e-17)
(23.9714 21.5275 1.85441e-16)
(25.6037 21.6923 2.47812e-16)
(27.2582 21.6653 -2.20573e-16)
(28.9064 21.4394 9.56537e-16)
(30.5241 21.0143 -5.01748e-16)
(32.081 20.3949 -1.36e-15)
(33.5502 19.5907 -2.40323e-15)
(34.908 18.6157 3.53195e-15)
(36.1302 17.4894 -1.60154e-15)
(37.1972 16.2325 -2.14396e-15)
(38.1009 14.8546 -1.32561e-15)
(38.8327 13.3786 -9.82811e-16)
(39.3887 11.8369 -1.41186e-16)
(39.7731 10.2616 -4.84039e-16)
(39.9942 8.67747 -3.32031e-15)
(40.0491 7.08565 1.34627e-15)
(39.9014 5.48699 -3.70713e-15)
(39.5021 3.93394 2.97393e-16)
(38.8531 2.52217 3.19562e-16)
(38.0326 1.3166 -8.14507e-17)
(37.1405 0.303352 2.69821e-16)
(36.2276 -0.572906 8.39633e-16)
(35.2964 -1.34523 1.56484e-16)
(34.3475 -2.02018 1.09735e-16)
(33.4074 -2.60123 -3.16466e-15)
(32.5183 -3.09376 5.19999e-15)
(31.735 -3.50189 1.77812e-15)
(31.0437 -3.82245 3.24469e-15)
(30.2511 -4.01995 6.92533e-15)
(28.6131 -4.00921 1.10072e-15)
(25.8274 -3.51153 -6.55157e-17)
(20.1988 -2.92691 6.54064e-16)
(14.3842 15.6039 -1.28984e-19)
(13.7103 14.6026 1.01007e-16)
(13.0802 13.4153 -1.04692e-16)
(12.5035 12.0724 5.51498e-16)
(12.0724 10.6324 -2.65681e-16)
(11.7992 9.10501 1.1745e-16)
(11.7087 7.53179 1.17133e-15)
(11.8083 5.99137 8.67976e-16)
(12.095 4.54396 3.71307e-16)
(12.5513 3.21762 -9.53256e-16)
(13.1432 2.03938 -4.59993e-16)
(13.8348 1.02661 7.47804e-16)
(14.5985 0.17457 8.08992e-17)
(15.4083 -0.527167 -3.10977e-17)
(16.2414 -1.08797 -5.43316e-16)
(17.0817 -1.52285 4.44805e-16)
(17.9171 -1.84619 9.94299e-16)
(18.7389 -2.07166 -5.59123e-16)
(19.543 -2.21084 -6.36312e-17)
(20.3284 -2.27222 -5.74032e-16)
(21.0949 -2.25989 -2.90158e-16)
(21.8413 -2.17375 3.04526e-16)
(22.563 -2.00987 -7.26879e-16)
(23.2474 -1.76357 2.5132e-16)
(23.8711 -1.43908 3.35626e-16)
(24.4131 -1.05727 -1.13913e-16)
(24.8679 -0.640093 -9.69858e-17)
(25.2389 -0.200993 -1.88855e-17)
(25.5288 0.249871 -1.36546e-18)
(25.7385 0.7013 1.91829e-18)
(25.8707 1.14251 -3.97964e-17)
(25.9299 1.56551 6.92798e-17)
(25.9195 1.96678 -7.03186e-18)
(25.8417 2.34277 6.28995e-17)
(25.6907 2.69199 7.58144e-17)
(25.4658 3.00999 -6.03937e-16)
(25.0933 3.29801 1.83153e-15)
(24.6336 3.46062 1.91108e-16)
(23.5071 3.50383 5.68332e-15)
(16.1811 15.63 -8.41399e-20)
(16.9712 16.4539 2.6504e-18)
(17.9185 17.2878 3.24424e-18)
(18.9894 18.0804 -2.53786e-20)
(20.1454 18.7725 -2.47358e-17)
(21.4244 19.3744 -2.15856e-16)
(22.7932 19.8551 1.41775e-17)
(24.2239 20.1887 2.33104e-16)
(25.7097 20.365 -5.68741e-16)
(27.2238 20.3715 -3.21243e-16)
(28.7429 20.1993 6.41864e-17)
(30.2478 19.8446 7.71959e-16)
(31.7122 19.3075 2.19738e-15)
(33.112 18.5914 3.1301e-15)
(34.4237 17.7049 8.84889e-17)
(35.6236 16.6607 -1.8717e-16)
(36.6917 15.4745 2.73809e-15)
(37.6061 14.1755 2.37462e-15)
(38.3494 12.7986 -1.23531e-17)
(38.9156 11.3728 -2.36039e-15)
(39.3089 9.9215 8.03246e-16)
(39.5394 8.45714 9.71276e-16)
(39.6105 6.9778 -1.75638e-16)
(39.4994 5.48364 1.4421e-15)
(39.1652 4.0166 -8.03166e-16)
(38.6005 2.65886 -3.80356e-16)
(37.8632 1.47449 -1.27434e-17)
(37.0371 0.463077 -4.18381e-16)
(36.1681 -0.417049 -1.34404e-16)
(35.2567 -1.19373 -2.57443e-15)
(34.2932 -1.87162 1.12647e-15)
(33.2799 -2.45118 -2.5992e-15)
(32.2292 -2.93473 -5.86784e-15)
(31.1767 -3.32369 3.09853e-16)
(30.1757 -3.61544 -1.90177e-15)
(29.3624 -3.79841 -7.52188e-15)
(28.5109 -3.85065 1.75487e-15)
(27.1016 -3.48947 2.31907e-16)
(22.4588 -3.06422 1.83658e-15)
(15.4962 14.7793 -1.63318e-17)
(14.8723 13.8813 -5.8061e-17)
(14.2801 12.8145 1.0608e-16)
(13.7295 11.6058 -4.32549e-16)
(13.3039 10.3121 -3.24755e-18)
(13.0123 8.9363 -1.87338e-16)
(12.8778 7.51064 -1.97368e-15)
(12.9103 6.10863 7.97201e-16)
(13.1079 4.78661 -1.15076e-16)
(13.4558 3.5643 1.03493e-15)
(13.9274 2.46463 -5.72733e-16)
(14.4946 1.50388 5.34911e-16)
(15.1365 0.678682 -7.77635e-16)
(15.8325 -0.0178744 -5.9644e-16)
(16.5639 -0.590783 3.0977e-16)
(17.3167 -1.05033 3.35086e-16)
(18.0793 -1.40596 3.36383e-16)
(18.842 -1.66703 1.97803e-16)
(19.5989 -1.84203 -2.32214e-16)
(20.3465 -1.93774 9.28461e-16)
(21.0821 -1.95757 -2.70925e-16)
(21.8026 -1.9019 4.35138e-16)
(22.5022 -1.76801 4.53151e-16)
(23.1686 -1.55317 -1.63622e-18)
(23.7808 -1.26129 -8.82302e-17)
(24.3185 -0.909135 -6.98866e-17)
(24.7743 -0.516717 1.5198e-17)
(25.1495 -0.0976468 1.99075e-17)
(25.4453 0.337751 6.49698e-18)
(25.6624 0.778519 1.16122e-17)
(25.8026 1.21415 2.72383e-17)
(25.8696 1.63647 -1.33617e-16)
(25.8665 2.03745 -6.92678e-17)
(25.7955 2.41089 1.23324e-17)
(25.6507 2.75341 -1.52802e-16)
(25.4316 3.05764 6.69148e-16)
(25.0689 3.32356 -6.18699e-16)
(24.6199 3.44653 2.6943e-16)
(23.5732 3.43479 -3.06654e-16)
(17.092 14.8184 -1.39058e-17)
(17.8198 15.5665 -2.59235e-17)
(18.6912 16.3266 1.07594e-17)
(19.6724 17.0508 7.96657e-18)
(20.7254 17.6846 3.5413e-17)
(21.8889 18.2414 1.00259e-16)
(23.1323 18.6935 2.39845e-16)
(24.4306 19.0174 2.61559e-16)
(25.781 19.2055 -2.56595e-16)
(27.1605 19.2458 -6.0893e-17)
(28.5503 19.1294 -1.19091e-16)
(29.9356 18.8512 -1.95502e-15)
(31.2938 18.4088 5.00942e-16)
(32.6034 17.8031 -2.03103e-15)
(33.8429 17.0389 -5.43461e-16)
(34.9894 16.1254 6.65089e-16)
(36.0213 15.0775 -1.84187e-15)
(36.9204 13.9115 -1.00427e-15)
(37.6728 12.6452 -4.81743e-16)
(38.2687 11.3017 1.56116e-15)
(38.7051 9.90586 1.18433e-16)
(38.9826 8.4791 7.15986e-16)
(39.0986 7.03326 1.35564e-15)
(39.035 5.57993 -2.7567e-16)
(38.7616 4.15658 -8.16455e-18)
(38.2722 2.82946 1.17782e-15)
(37.613 1.65483 2.18008e-16)
(36.8564 0.639242 -4.35626e-17)
(36.0476 -0.24898 2.89503e-16)
(35.1915 -1.03425 -2.60722e-16)
(34.2795 -1.72118 -2.97179e-15)
(33.308 -2.30926 5.58481e-15)
(32.2725 -2.79884 -5.90368e-15)
(31.1719 -3.18741 -6.15495e-15)
(30.0014 -3.46789 5.72642e-15)
(28.8602 -3.62189 2.76297e-15)
(27.8177 -3.64103 -1.48796e-15)
(27.2407 -3.3335 -7.52182e-16)
(23.994 -3.08632 -1.38205e-15)
(16.4572 14.0468 8.58834e-18)
(15.8772 13.2353 1.22481e-16)
(15.3195 12.2692 -4.23381e-17)
(14.7938 11.1733 -4.67414e-16)
(14.377 10.0023 -2.8457e-16)
(14.0746 8.75406 -6.76247e-16)
(13.9097 7.45413 -1.69555e-16)
(13.893 6.17256 8.6746e-16)
(14.0229 4.9611 6.57968e-16)
(14.2869 3.83383 -1.89511e-16)
(14.6633 2.81015 1.5873e-15)
(15.1292 1.90493 -3.97367e-17)
(15.6685 1.11492 1.16168e-15)
(16.2653 0.434898 4.70269e-16)
(16.9044 -0.137939 -4.24341e-16)
(17.5746 -0.610465 3.84453e-17)
(18.2654 -0.988603 -8.82592e-16)
(18.9676 -1.27827 5.82577e-17)
(19.6743 -1.48502 5.13059e-16)
(20.3805 -1.61358 2.1854e-17)
(21.0816 -1.66634 3.50094e-16)
(21.773 -1.64352 -4.41216e-16)
(22.4481 -1.54306 -2.83697e-16)
(23.0946 -1.36344 -5.06038e-16)
(23.6931 -1.10819 -3.14201e-16)
(24.2245 -0.791128 -2.01573e-17)
(24.6796 -0.430248 -8.7779e-17)
(25.0576 -0.0392452 -1.65343e-18)
(25.3587 0.371187 -6.41308e-18)
(25.5829 0.789911 -1.57519e-18)
(25.7314 1.20604 3.22516e-17)
(25.8074 1.61032 -1.69269e-17)
(25.8132 1.99637 1.37245e-16)
(25.7508 2.35839 -3.07172e-16)
(25.6142 2.69278 3.53146e-17)
(25.4025 2.99155 -2.03535e-17)
(25.0509 3.25235 3.23107e-16)
(24.6141 3.37065 3.29568e-16)
(23.6447 3.34526 -4.17678e-16)
(17.8937 14.0911 -4.02602e-18)
(18.5696 14.7732 -5.32978e-19)
(19.3778 15.468 1.84334e-17)
(20.2844 16.1307 -1.85449e-17)
(21.2522 16.7108 -1.01321e-17)
(22.32 17.2236 -3.78508e-17)
(23.459 17.6437 -3.68672e-16)
(24.6465 17.9507 6.43792e-17)
(25.8825 18.1381 -1.83956e-16)
(27.1472 18.1949 4.30692e-16)
(28.4256 18.1123 -4.37959e-16)
(29.7064 17.8847 1.2419e-15)
(30.9705 17.5077 -8.76456e-17)
(32.1997 16.9792 -7.44271e-17)
(33.3748 16.3008 -3.71658e-16)
(34.474 15.478 -1.7404e-16)
(35.4767 14.5204 6.47276e-16)
(36.3642 13.4417 1.31187e-15)
(37.1183 12.2637 1.34599e-15)
(37.7258 11.0099 8.89741e-16)
(38.1806 9.70195 7.01025e-16)
(38.4808 8.35762 1.44253e-16)
(38.6224 6.98873 -9.14293e-16)
(38.5908 5.60846 -2.11056e-17)
(38.3629 4.24942 5.91354e-16)
(37.9326 2.96731 -8.82379e-16)
(37.3359 1.81424 -1.89209e-16)
(36.6346 0.803861 -1.52098e-16)
(35.8721 -0.0856636 -2.95502e-16)
(35.0587 -0.874663 2.57488e-15)
(34.1907 -1.56728 2.43445e-15)
(33.267 -2.16259 -1.32602e-15)
(32.2842 -2.66019 2.40787e-15)
(31.2347 -3.05629 -8.72807e-16)
(30.0872 -3.341 -2.96991e-15)
(28.8611 -3.48975 -1.28684e-15)
(27.4792 -3.4814 1.41212e-15)
(26.8405 -3.13449 2.42808e-16)
(24.7092 -2.99202 -1.67448e-15)
(17.3011 13.3879 5.85699e-17)
(16.7584 12.6503 1.7777e-16)
(16.2305 11.7706 -3.80322e-16)
(15.7277 10.7712 -7.78322e-16)
(15.3212 9.70483 -7.70846e-16)
(15.0135 8.56533 2.17223e-15)
(14.8273 7.37398 1.1628e-15)
(14.7743 6.19797 4.17617e-16)
(14.8523 5.08419 -1.73148e-15)
(15.0508 4.04297 -9.84638e-16)
(15.3512 3.09109 -1.78508e-15)
(15.7346 2.24191 -1.6413e-15)
(16.1881 1.49157 -3.74853e-16)
(16.6991 0.835522 2.5417e-16)
(17.2558 0.272298 -2.68287e-16)
(17.8494 -0.203117 -3.42986e-16)
(18.4713 -0.593962 3.70835e-16)
(19.1133 -0.903545 -4.94486e-16)
(19.7685 -1.13496 5.42373e-17)
(20.4311 -1.29079 1.94443e-16)
(21.0954 -1.37203 3.94612e-16)
(21.7556 -1.3785 -1.7873e-16)
(22.4043 -1.30838 -1.00076e-16)
(23.0296 -1.16066 -8.1902e-17)
(23.6131 -0.938585 2.49206e-16)
(24.1363 -0.653457 -1.22825e-17)
(24.5889 -0.321104 5.51078e-17)
(24.9684 0.0451317 -7.82654e-18)
(25.2737 0.434413 -4.21932e-18)
(25.5041 0.835715 -1.34094e-17)
(25.6601 1.23805 -3.69299e-17)
(25.7441 1.63212 -1.1001e-16)
(25.758 2.01012 1.971e-17)
(25.7034 2.36483 3.07561e-16)
(25.5744 2.69147 3.60001e-16)
(25.3701 2.98012 2.61525e-16)
(25.0304 3.22632 2.11319e-15)
(24.6075 3.32285 -2.56826e-15)
(23.7158 3.2676 2.00413e-15)
(18.6019 13.4343 1.56264e-17)
(19.2327 14.0588 1.40835e-17)
(19.986 14.6961 -3.9005e-18)
(20.8283 15.3041 1.82318e-17)
(21.7225 15.8362 -9.96941e-17)
(22.7075 16.3086 1.1462e-17)
(23.7557 16.6983 1.34218e-16)
(24.8464 16.9873 2.05392e-16)
(25.9812 17.1705 1.49205e-16)
(27.1429 17.238 -5.44209e-16)
(28.3194 17.1822 9.31872e-17)
(29.5024 16.9968 -4.15461e-16)
(30.6758 16.677 -1.18689e-16)
(31.8242 16.2193 -3.57418e-16)
(32.9306 15.6231 2.72897e-16)
(33.9754 14.891 4.69105e-16)
(34.939 14.0298 -1.07514e-16)
(35.8025 13.0509 -1.43304e-15)
(36.5489 11.9683 -7.87209e-16)
(37.1638 10.8001 -8.68552e-16)
(37.6374 9.56607 -3.23445e-16)
(37.9638 8.28548 -6.80552e-16)
(38.1359 6.975 -1.1802e-16)
(38.1405 5.6523 1.08223e-15)
(37.9592 4.34719 2.51981e-17)
(37.5863 3.10563 5.53425e-16)
(37.0494 1.97386 1.05277e-16)
(36.4002 0.96976 5.0192e-16)
(35.6795 0.0797922 5.1746e-16)
(34.9007 -0.712069 -2.95583e-15)
(34.0644 -1.40919 -1.0017e-15)
(33.1725 -2.01011 -4.86417e-15)
(32.2256 -2.51398 5.10374e-15)
(31.2219 -2.9168 3.60277e-16)
(30.1335 -3.20862 2.39396e-15)
(28.9715 -3.36172 -7.59574e-16)
(27.5274 -3.35904 -1.863e-15)
(26.5192 -2.96179 1.02587e-16)
(24.8893 -2.82137 7.4893e-16)
(18.0462 12.7907 6.70294e-17)
(17.5363 12.1169 -2.01085e-16)
(17.0354 11.3121 -7.6051e-18)
(16.5537 10.3962 4.40561e-16)
(16.1583 9.42023 -8.76418e-16)
(15.8494 8.37458 -1.40182e-15)
(15.6486 7.27826 -9.12318e-16)
(15.5686 6.19518 1.09957e-15)
(15.6067 5.16811 1.53287e-15)
(15.7536 4.2047 2.4298e-16)
(15.9933 3.31977 1.0655e-15)
(16.3093 2.52536 1.00162e-15)
(16.6909 1.81682 -6.01251e-16)
(17.1283 1.18953 4.02762e-16)
(17.6121 0.642605 -1.04193e-16)
(18.1359 0.172189 6.91639e-16)
(18.6929 -0.223621 -4.24359e-16)
(19.2762 -0.546051 -6.92002e-16)
(19.8797 -0.796132 -2.40623e-16)
(20.4972 -0.97472 -5.78918e-16)
(21.1227 -1.08157 -5.11064e-16)
(21.7497 -1.11569 -4.51934e-16)
(22.3703 -1.07505 8.4076e-16)
(22.9727 -0.958794 5.19926e-16)
(23.5395 -0.769749 8.3807e-17)
(24.0526 -0.517074 2.83311e-16)
(24.501 -0.21463 4.79255e-17)
(24.8805 0.124798 1.29558e-17)
(25.189 0.490323 -1.42034e-18)
(25.4249 0.870955 -2.48233e-18)
(25.5881 1.25567 2.46052e-17)
(25.6801 1.63465 -3.66155e-18)
(25.7024 2.00006 7.06771e-17)
(25.6561 2.34447 1.53457e-16)
(25.5354 2.66244 -6.54299e-16)
(25.339 2.9429 2.71237e-17)
(25.012 3.17916 -2.46704e-15)
(24.6034 3.26444 4.19445e-15)
(23.7858 3.19128 2.17723e-15)
(19.2324 12.8367 -1.08269e-17)
(19.8238 13.4103 1.20229e-17)
(20.5292 13.9963 -1.90871e-17)
(21.3156 14.555 -1.78543e-17)
(22.1463 15.0434 1.25252e-17)
(23.0596 15.4781 3.239e-17)
(24.0292 15.8384 -1.42082e-16)
(25.0357 16.108 -5.85422e-17)
(26.0821 16.2829 4.40911e-16)
(27.1529 16.3548 2.35756e-16)
(28.2385 16.3167 3.45865e-16)
(29.3331 16.1626 -1.82814e-16)
(30.4229 15.8874 -7.21881e-16)
(31.4954 15.4863 1.57358e-15)
(32.536 14.9572 -6.48209e-16)
(33.5269 14.3004 -6.77329e-16)
(34.4502 13.52 -4.44163e-16)
(35.2876 12.6239 1.29946e-15)
(36.0219 11.6238 1.55939e-15)
(36.6371 10.5365 4.33e-16)
(37.1208 9.37994 -1.81423e-15)
(37.4648 8.17208 4.03274e-16)
(37.6607 6.92986 -8.19249e-17)
(37.6965 5.67209 3.34777e-16)
(37.5574 4.42579 -1.5491e-16)
(37.2375 3.22938 1.15632e-16)
(36.7576 2.12405 4.62449e-17)
(36.16 1.13096 -2.69162e-16)
(35.4815 0.244086 4.48825e-16)
(34.7373 -0.548226 1.91514e-15)
(33.9304 -1.24805 4.62686e-17)
(33.0641 -1.8531 5.01026e-15)
(32.141 -2.36171 2.12934e-15)
(31.1635 -2.76928 -2.36917e-15)
(30.1114 -3.06663 -3.31344e-15)
(29.0096 -3.22283 -1.18257e-15)
(27.6675 -3.23545 -1.2209e-15)
(26.4491 -2.82398 -8.71176e-17)
(24.9071 -2.62524 1.60178e-15)
(18.709 12.2456 -4.74171e-17)
(18.2281 11.6277 -2.57538e-17)
(17.7516 10.8883 1.74117e-16)
(17.2898 10.0456 -4.62002e-17)
(16.9057 9.14846 5.41007e-16)
(16.5984 8.18499 9.23384e-16)
(16.3881 7.1725 7.09306e-17)
(16.2878 6.17179 6.52128e-16)
(16.2951 5.22196 -1.9288e-15)
(16.4012 4.32909 -1.29104e-15)
(16.592 3.50616 8.64182e-16)
(16.8527 2.76404 1.26295e-15)
(17.1743 2.0975 -6.53876e-16)
(17.5488 1.50175 -9.16204e-17)
(17.9687 0.97589 -5.29752e-17)
(18.4294 0.516321 -1.73188e-16)
(18.9262 0.12206 6.36758e-16)
(19.4533 -0.206835 8.75203e-16)
(20.0057 -0.469906 8.1842e-17)
(20.5778 -0.666487 6.24473e-16)
(21.1633 -0.795087 2.15944e-16)
(21.7555 -0.853878 3.37313e-16)
(22.3466 -0.84047 -5.25735e-16)
(22.9248 -0.753738 -4.34935e-17)
(23.4732 -0.595857 -2.67164e-16)
(23.9745 -0.374264 -3.05667e-16)
(24.417 -0.100864 -1.14823e-16)
(24.7951 0.212353 2.83437e-17)
(25.1055 0.554635 9.41522e-18)
(25.346 0.915205 6.14753e-18)
(25.5156 1.28308 1.27239e-18)
(25.6151 1.64824 -3.65662e-17)
(25.6455 2.00233 1.05047e-17)
(25.6074 2.33703 -2.56272e-16)
(25.4951 2.64593 1.71503e-17)
(25.3071 2.91656 -5.99691e-16)
(24.9937 3.14018 1.60311e-15)
(24.6008 3.21113 -2.35937e-15)
(23.854 3.11932 -4.08682e-15)
(19.7963 12.2896 1.02472e-17)
(20.3529 12.8178 -1.83014e-17)
(21.0158 13.3579 -5.35804e-17)
(21.7528 13.8723 9.37829e-18)
(22.5277 14.321 -3.23839e-18)
(23.3781 14.7209 -9.54694e-17)
(24.2786 15.0532 1.93471e-16)
(25.2108 15.3033 -3.20927e-16)
(26.1788 15.4683 1.02747e-15)
(27.1687 15.541 4.27983e-16)
(28.1724 15.5151 -8.81956e-16)
(29.186 15.3854 -6.09153e-17)