/*--------------------------------*- C++ -*----------------------------------*\
| =========                 |                                                 |
| \\      /  F ield         | OpenFOAM: The Open Source CFD Toolbox           |
|  \\    /   O peration     | Version:  2506                                  |
|   \\  /    A nd           | Website:  www.openfoam.com                      |
|    \\/     M anipulation  |                                                 |
\*---------------------------------------------------------------------------*/
FoamFile
{
    version     2.0;
    format      ascii;
    arch        "LSB;label=32;scalar=64";
    class       volScalarField;
    location    "33";
    object      p;
}
// * * * * * * * * * * * * * * * * * * * * * * * * * * * * * * * * * * * * * //

dimensions      [0 2 -2 0 0 0 0];

internalField   nonuniform List<scalar> 
400
(
-2.4624e-09
-0.000148248
-0.000521033
-0.00104402
-0.001688
-0.00242765
-0.00310097
-0.00350324
-0.00346729
-0.00284131
-0.00147654
0.000654003
0.00324711
0.00549857
0.00654775
0.00600632
0.00416086
0.00235433
0.00132569
0.00124969
0.000116982
-5.33163e-05
-0.00036213
-0.000740925
-0.00121148
-0.00183789
-0.00262812
-0.00343427
-0.003948
-0.00380312
-0.00273174
-0.000747633
0.00172892
0.00398581
0.00517503
0.0048549
0.00329052
0.00159574
0.000819682
0.000898286
0.000522343
0.000261996
-6.89972e-05
-0.00053874
-0.00130243
-0.00249289
-0.00407256
-0.0057749
-0.00714602
-0.00767094
-0.00700964
-0.00524437
-0.00271845
-5.35539e-05
0.00193082
0.00259658
0.00192401
0.000743053
-0.000149975
-0.00016053
0.00110787
0.000711307
0.00018545
-0.000743432
-0.00235436
-0.0047473
-0.00769685
-0.0107199
-0.0132256
-0.014662
-0.0146973
-0.013367
-0.0108801
-0.00767971
-0.00445382
-0.00194041
-0.000613217
-0.000454187
-0.0010357
-0.00166787
0.00149235
0.000909434
-3.72039e-05
-0.00185162
-0.00480537
-0.00882065
-0.0133933
-0.0178184
-0.0214498
-0.0238264
-0.0246904
-0.0239237
-0.021641
-0.0181185
-0.013782
-0.0092297
-0.00524995
-0.00266952
-0.00194622
-0.00374385
0.00117581
0.000366981
-0.00118935
-0.00414931
-0.00865117
-0.0143083
-0.0202965
-0.0257691
-0.0301187
-0.0330291
-0.0343742
-0.0340572
-0.0321522
-0.0287962
-0.0241196
-0.0183331
-0.0120285
-0.00660177
-0.00412376
-0.00621869
-0.000153402
-0.00120024
-0.00342802
-0.00752085
-0.0133977
-0.0203161
-0.0272038
-0.0331823
-0.0377555
-0.0407632
-0.0422166
-0.04214
-0.0405964
-0.0376468
-0.033258
-0.0273023
-0.0198878
-0.0122424
-0.00752503
-0.00747322
-0.00249759
-0.0037272
-0.00652837
-0.0114938
-0.018319
-0.0259674
-0.0332327
-0.0392914
-0.0437901
-0.0466957
-0.0481047
-0.0481185
-0.0468167
-0.0442407
-0.0403293
-0.0348327
-0.0274759
-0.0187613
-0.0114232
-0.00772048
-0.00549453
-0.00680515
-0.00997858
-0.0154585
-0.0227665
-0.0306839
-0.0379692
-0.0438911
-0.0482162
-0.0509898
-0.0523447
-0.0523971
-0.0512249
-0.048881
-0.045362
-0.0404883
-0.0338208
-0.025171
-0.0161854
-0.00965582
-0.0085952
-0.00987905
-0.0132058
-0.018857
-0.0262579
-0.0341308
-0.041263
-0.0470009
-0.0511795
-0.0538708
-0.0552051
-0.0552804
-0.0541649
-0.0519262
-0.0486317
-0.0442459
-0.0384228
-0.0305974
-0.0216485
-0.0138472
-0.0112909
-0.0124762
-0.0157505
-0.0212892
-0.0284933
-0.036138
-0.0430707
-0.0486695
-0.0527781
-0.0554508
-0.0567949
-0.056886
-0.0557803
-0.053552
-0.0503294
-0.0462181
-0.0411203
-0.0343623
-0.026417
-0.0185509
-0.0132961
-0.0142978
-0.0173538
-0.0225258
-0.0292975
-0.0365888
-0.0433305
-0.0488805
-0.0530188
-0.055747
-0.0571336
-0.057235
-0.0560991
-0.0538019
-0.0505236
-0.0464832
-0.0418887
-0.0360305
-0.0292249
-0.0217314
-0.0145759
-0.0152496
-0.0178673
-0.0224577
-0.0286123
-0.0354606
-0.0420299
-0.0476202
-0.051892
-0.0547556
-0.0562252
-0.0563348
-0.0551277
-0.0527015
-0.0492615
-0.0450906
-0.0407484
-0.0353757
-0.0294906
-0.02226
-0.0152189
-0.0154394
-0.017358
-0.0210924
-0.026434
-0.0327508
-0.0391544
-0.0448578
-0.0493674
-0.052463
-0.0540816
-0.0542274
-0.052929
-0.0503084
-0.0466139
-0.0422129
-0.0377269
-0.0324282
-0.0275234
-0.0198124
-0.0153492
-0.0150694
-0.0160201
-0.0185873
-0.0228928
-0.0285697
-0.0347958
-0.0406707
-0.0455178
-0.0489516
-0.0508038
-0.0510252
-0.0496583
-0.0468008
-0.0427676
-0.0379767
-0.0330828
-0.0276651
-0.0239187
-0.0142021
-0.0150866
-0.0143816
-0.0140631
-0.0151184
-0.0181768
-0.0231134
-0.0291459
-0.0352351
-0.040507
-0.0443889
-0.0465883
-0.0469865
-0.0456132
-0.0425399
-0.0381202
-0.0327939
-0.0273057
-0.0215847
-0.0181683
-0.00400965
-0.0145196
-0.0135129
-0.0116397
-0.0109923
-0.0127326
-0.0169228
-0.0227812
-0.0291168
-0.0348765
-0.0393025
-0.0419736
-0.0426752
-0.0414062
-0.0382071
-0.0333874
-0.0273216
-0.0207345
-0.0136623
-0.0073902
0.0155045
-0.0145139
-0.0126236
-0.0087118
-0.00636318
-0.00697038
-0.0106057
-0.0163939
-0.0230105
-0.0292932
-0.0343274
-0.0375846
-0.0387306
-0.0377161
-0.0345472
-0.0293691
-0.022206
-0.0132793
-0.00149354
0.0156709
0.0561973
-0.0118009
-0.0118878
-0.00594431
-0.00210085
-0.0020492
-0.00550942
-0.0114029
-0.0183316
-0.0251031
-0.0306948
-0.034547
-0.0362408
-0.0356842
-0.0326094
-0.0268654
-0.0176552
-0.00376662
0.0194496
0.0595029
0.128823
-0.029505
-0.0107503
-0.000916832
0.00266468
0.00206637
-0.0017653
-0.00793445
-0.0151755
-0.022303
-0.0282696
-0.0324924
-0.0345302
-0.0342533
-0.0312483
-0.0248743
-0.0129494
0.00883528
0.0501956
0.121794
0.225165
)
;

boundaryField
{
    movingWall
    {
        type            zeroGradient;
    }
    fixedWalls
    {
        type            zeroGradient;
    }
    frontAndBack
    {
        type            empty;
    }
}


// ************************************************************************* //
