/*--------------------------------*- C++ -*----------------------------------*\
| =========                 |                                                 |
| \\      /  F ield         | OpenFOAM: The Open Source CFD Toolbox           |
|  \\    /   O peration     | Version:  2506                                  |
|   \\  /    A nd           | Website:  www.openfoam.com                      |
|    \\/     M anipulation  |                                                 |
\*---------------------------------------------------------------------------*/
FoamFile
{
    version     2.0;
    format      ascii;
    arch        "LSB;label=32;scalar=64";
    class       surfaceScalarField;
    location    "1";
    object      phi;
}
// * * * * * * * * * * * * * * * * * * * * * * * * * * * * * * * * * * * * * //

dimensions      [0 3 -1 0 0 0 0];

oriented        oriented;

internalField   nonuniform List<scalar> 
760
(
-3.47454e-06
3.47454e-06
-8.52841e-06
5.05387e-06
-1.36056e-05
5.07716e-06
-1.83718e-05
4.76622e-06
-2.26956e-05
4.32385e-06
-2.6472e-05
3.7764e-06
-2.96067e-05
3.13468e-06
-3.20167e-05
2.41e-06
-3.36316e-05
1.61485e-06
-3.43946e-05
7.63079e-07
-3.42648e-05
-1.29874e-07
-3.32191e-05
-1.0457e-06
-3.1256e-05
-1.96311e-06
-2.83988e-05
-2.85719e-06
-2.46993e-05
-3.69953e-06
-2.02405e-05
-4.45874e-06
-1.51397e-05
-5.10084e-06
-9.56707e-06
-5.5726e-06
-3.9348e-06
-5.63227e-06
-3.9348e-06
-5.2469e-06
8.72144e-06
-1.24334e-05
1.22403e-05
-1.96113e-05
1.22551e-05
-2.63457e-05
1.15006e-05
-3.24411e-05
1.04193e-05
-3.77456e-05
9.08091e-06
-4.21275e-05
7.51659e-06
-4.54737e-05
5.75621e-06
-4.76904e-05
3.83156e-06
-4.87043e-05
1.77695e-06
-4.84644e-05
-3.69793e-07
-4.69435e-05
-2.56654e-06
-4.41448e-05
-4.76186e-06
-4.0104e-05
-6.89797e-06
-3.48954e-05
-8.90818e-06
-2.86359e-05
-1.07182e-05
-2.14912e-05
-1.22455e-05
-1.3705e-05
-1.33589e-05
-5.81382e-06
-1.35234e-05
-9.74861e-06
-5.69321e-06
1.44147e-05
-1.34783e-05
2.00255e-05
-2.12361e-05
2.00129e-05
-2.85065e-05
1.8771e-05
-3.50841e-05
1.69968e-05
-4.08081e-05
1.48048e-05
-4.55393e-05
1.22479e-05
-4.91591e-05
9.37603e-06
-5.15689e-05
6.24129e-06
-5.26905e-05
2.89859e-06
-5.24677e-05
-5.92569e-07
-5.0868e-05
-4.16625e-06
-4.78885e-05
-7.74134e-06
-4.35603e-05
-1.12263e-05
-3.79549e-05
-1.45135e-05
-3.11916e-05
-1.74815e-05
-2.34449e-05
-1.99922e-05
-1.49752e-05
-2.18286e-05
-6.36184e-06
-2.21368e-05
-1.61105e-05
-6.0629e-06
2.04776e-05
-1.43727e-05
2.83353e-05
-2.26483e-05
2.82885e-05
-3.03995e-05
2.65222e-05
-3.74124e-05
2.40098e-05
-4.3521e-05
2.09134e-05
-4.85826e-05
1.73094e-05
-5.24754e-05
1.32689e-05
-5.50975e-05
8.86341e-06
-5.6366e-05
4.167e-06
-5.62169e-05
-7.41604e-07
-5.46066e-05
-5.77661e-06
-5.15194e-05
-1.08285e-05
-4.69725e-05
-1.57731e-05
-4.10258e-05
-2.04603e-05
-3.37917e-05
-2.47156e-05
-2.54482e-05
-2.83357e-05
-1.62751e-05
-3.10017e-05
-6.91309e-06
-3.14988e-05
-2.30235e-05
-6.56175e-06
2.70393e-05
-1.5565e-05
3.73385e-05
-2.45259e-05
3.72494e-05
-3.29137e-05
3.491e-05
-4.05022e-05
3.15983e-05
-4.71191e-05
2.75302e-05
-5.26185e-05
2.28089e-05
-5.6877e-05
1.75273e-05
-5.97897e-05
1.17761e-05
-6.12682e-05
5.64551e-06
-6.12395e-05
-7.70314e-07
-5.96422e-05
-7.37398e-06
-5.64411e-05
-1.40296e-05
-5.16305e-05
-2.05837e-05
-4.52481e-05
-2.68428e-05
-3.73914e-05
-3.25722e-05
-2.82387e-05
-3.74885e-05
-1.80965e-05
-4.11438e-05
-7.69496e-06
-4.19003e-05
-3.07185e-05
-7.22388e-06
3.42632e-05
-1.71386e-05
4.72533e-05
-2.69954e-05
4.71062e-05
-3.62108e-05
4.41253e-05
-4.45425e-05
3.993e-05
-5.18122e-05
3.47999e-05
-5.7873e-05
2.88697e-05
-6.2602e-05
2.22564e-05
-6.58942e-05
1.50683e-05
-6.76566e-05
7.4079e-06
-6.78068e-05
-6.20059e-07
-6.62577e-05
-8.92316e-06
-6.2947e-05
-1.73403e-05
-5.78332e-05
-2.56974e-05
-5.09164e-05
-3.37597e-05
-4.22641e-05
-4.12245e-05
-3.20453e-05
-4.77072e-05
-2.05983e-05
-5.25908e-05
-8.77645e-06
-5.37222e-05
-3.94949e-05
-8.07118e-06
4.23344e-05
-1.91458e-05
5.83279e-05
-3.01333e-05
5.80937e-05
-4.0383e-05
5.43751e-05
-4.96347e-05
4.91816e-05
-5.77055e-05
4.28708e-05
-6.44524e-05
3.56165e-05
-6.97589e-05
2.7563e-05
-7.35247e-05
1.8834e-05
-7.56553e-05
9.53855e-06
-7.60659e-05
-2.09471e-07
-7.46267e-05
-1.03624e-05
-7.12439e-05
-2.07231e-05
-6.58214e-05
-3.11199e-05
-5.8297e-05
-4.12841e-05
-4.86815e-05
-5.08399e-05
-3.71133e-05
-5.92754e-05
-2.39594e-05
-6.57447e-05
-1.02395e-05
-6.74422e-05
-4.97344e-05
-9.13365e-06
5.1468e-05
-2.16542e-05
7.08484e-05
-3.40355e-05
7.04751e-05
-4.55428e-05
6.58823e-05
-5.58963e-05
5.95352e-05
-6.49148e-05
5.18892e-05
-7.24674e-05
4.31692e-05
-7.8455e-05
3.35506e-05
-8.27911e-05
2.31701e-05
-8.5382e-05
1.21294e-05
-8.61678e-05
5.76299e-07
-8.49353e-05
-1.15948e-05
-8.15704e-05
-2.4088e-05
-7.58926e-05
-3.67977e-05
-6.774e-05
-4.94367e-05
-5.70206e-05
-6.15593e-05
-4.37983e-05
-7.24977e-05
-2.84499e-05
-8.10931e-05
-1.22126e-05
-8.36794e-05
-6.1947e-05
-1.04555e-05
6.19235e-05
-2.47606e-05
8.51535e-05
-3.88356e-05
8.455e-05
-5.18407e-05
7.88874e-05
-6.3479e-05
7.11734e-05
-7.35811e-05
6.19913e-05
-8.20446e-05
5.16327e-05
-8.88049e-05
4.03109e-05
-9.38084e-05
2.81736e-05
-9.699e-05
1.5311e-05
-9.82249e-05
1.81123e-06
-9.73782e-05
-1.24416e-05
-9.42036e-05
-2.72626e-05
-8.84195e-05
-4.25818e-05
-7.97137e-05
-5.81425e-05
-6.78168e-05
-7.34562e-05
-5.26337e-05
-8.76808e-05
-3.44945e-05
-9.92323e-05
-1.49066e-05
-0.000103267
-7.68536e-05
-1.21034e-05
7.4027e-05
-2.86072e-05
0.000101657
-4.47229e-05
0.000100666
-5.94826e-05
9.36472e-05
-7.25799e-05
8.42708e-05
-8.38771e-05
7.32885e-05
-9.33247e-05
6.10803e-05
-0.000100919
4.79047e-05
-0.000106661
3.39159e-05
-0.000110522
1.91726e-05
-0.000112419
3.70828e-06
-0.000112161
-1.27005e-05
-0.000109448
-2.99752e-05
-0.000103852
-4.81779e-05
-9.48352e-05
-6.71591e-05
-8.18326e-05
-8.64588e-05
-6.44341e-05
-0.000105079
-4.27845e-05
-0.000120882
-1.86854e-05
-0.000127366
-9.5539e-05
-1.41807e-05
8.82077e-05
-3.34071e-05
0.000120884
-5.19713e-05
0.00011923
-6.87536e-05
0.000110429
-8.34585e-05
9.89757e-05
-9.60142e-05
8.58443e-05
-0.000106463
7.15288e-05
-0.000114898
5.63405e-05
-0.000121416
4.04337e-05
-0.000126066
2.38219e-05
-0.000128785
6.42766e-06
-0.000129425
-1.20607e-05
-0.000127594
-3.18058e-05
-0.0001227
-5.30726e-05
-0.000113897
-7.59614e-05
-0.000100152
-0.000100204
-8.04665e-05
-0.000124765
-5.449e-05
-0.000146859
-2.42219e-05
-0.000157635
-0.000119761
-1.68535e-05
0.000105061
-3.949e-05
0.00014352
-6.09857e-05
0.000140726
-8.00548e-05
0.000129499
-9.64598e-05
0.000115381
-0.000110253
9.96373e-05
-0.000121624
8.29004e-05
-0.00013082
6.55363e-05
-0.000138075
4.76888e-05
-0.000143556
2.93023e-05
-0.000147314
1.01855e-05
-0.000149213
-1.0161e-05
-0.000148854
-3.2165e-05
-0.000145479
-5.64473e-05
-0.00013787
-8.35705e-05
-0.000124301
-0.000113773
-0.000102732
-0.000146334
-7.16755e-05
-0.000177915
-3.28635e-05
-0.000196447
-0.000152624
-2.03992e-05
0.00012546
-4.73804e-05
0.000170501
-7.23751e-05
0.00016572
-9.39565e-05
0.00015108
-0.000112046
0.00013347
-0.000126915
0.000114506
-0.000138984
9.497e-05
-0.000148721
7.52723e-05
-0.000156559
5.55269e-05
-0.000162845
3.55892e-05
-0.00016777
1.51102e-05
-0.000171353
-6.57857e-06
-0.000173232
-3.02858e-05
-0.000172583
-5.70959e-05
-0.000167831
-8.8323e-05
-0.000156353
-0.000125251
-0.00013441
-0.000168276
-9.81242e-05
-0.000214202
-4.75375e-05
-0.000247033
-0.000200162
-2.53014e-05
0.000150762
-5.79404e-05
0.00020314
-8.70719e-05
0.000194852
-0.000111274
0.000175282
-0.000130833
0.000153029
-0.000146394
0.000130067
-0.000158718
0.000107294
-0.000168572
8.51265e-05
-0.000176657
6.36126e-05
-0.000183561
4.24928e-05
-0.000189698
2.12468e-05
-0.000195333
-9.43578e-07
-0.000200319
-2.5299e-05
-0.000204003
-5.34124e-05
-0.000204694
-8.76322e-05
-0.000198902
-0.000131042
-0.00018047
-0.000186708
-0.000140954
-0.000253717
-7.49984e-05
-0.000312989
-0.00027516
-3.24459e-05
0.000183208
-7.26389e-05
0.000243333
-0.000106519
0.000228732
-0.00013316
0.000201923
-0.000153625
0.000173494
-0.000169153
0.000145596
-0.000180976
0.000119117
-0.000190248
9.43986e-05
-0.000197995
7.13586e-05
-0.000205088
4.95862e-05
-0.000212243
2.84014e-05
-0.000220101
6.91484e-06
-0.000228944
-1.64558e-05
-0.000238761
-4.35951e-05
-0.000248437
-7.79562e-05
-0.000254335
-0.000125145
-0.000247697
-0.000193346
-0.000212275
-0.00028914
-0.000128781
-0.000396483
-0.000403941
-4.36193e-05
0.000226827
-9.40864e-05
0.0002938
-0.000132929
0.000267575
-0.000161182
0.000230176
-0.000181377
0.000193689
-0.000195617
0.000159835
-0.000205724
0.000129224
-0.00021331
0.000101985
-0.000219763
7.78115e-05
-0.000226251
5.60742e-05
-0.000233826
3.59764e-05
-0.000243442
1.65303e-05
-0.000256282
-3.61511e-06
-0.000273438
-2.64394e-05
-0.000295602
-5.57922e-05
-0.00032079
-9.99564e-05
-0.000338615
-0.000175522
-0.000320639
-0.000307115
-0.000219594
-0.000497528
-0.000623535
-6.13101e-05
0.000288137
-0.000127214
0.000359704
-0.000169816
0.000310177
-0.00019704
0.0002574
-0.000214344
0.000210993
-0.000224779
0.00017027
-0.000230811
0.000135256
-0.0002346
0.000105774
-0.000237903
8.11148e-05
-0.000242092
6.02626e-05
-0.000248407
4.2292e-05
-0.000258164
2.62868e-05
-0.000273121
1.13421e-05
-0.000295914
-3.64686e-06
-0.000329892
-2.18134e-05
-0.000376245
-5.36037e-05
-0.00042436
-0.000127407
-0.000429867
-0.000301609
-0.000315409
-0.000611985
-0.000938944
-8.69573e-05
0.000375095
-0.000175917
0.000448664
-0.000218312
0.000352572
-0.000235348
0.000274435
-0.000239349
0.000214995
-0.000236326
0.000167247
-0.000229993
0.000128923
-0.000223167
9.89482e-05
-0.000217762
7.57094e-05
-0.000214827
5.73275e-05
-0.000215298
4.27633e-05
-0.00022011
3.10992e-05
-0.000231219
2.24507e-05
-0.000250711
1.58447e-05
-0.000283503
1.09791e-05
-0.000331079
-6.02756e-06
-0.000387487
-7.09988e-05
-0.000392868
-0.000296228
-0.000307102
-0.000697751
-0.00124605
-0.000341429
0.000716524
-0.000308613
0.000415848
-0.000209527
0.000253485
-0.000127608
0.000192516
-6.11789e-05
0.000148566
-5.31792e-06
0.000111386
4.06921e-05
8.29131e-05
7.72768e-05
6.23635e-05
0.000105594
4.73919e-05
0.000126741
3.61808e-05
0.000141468
2.80364e-05
0.00015067
2.1897e-05
0.000153526
1.95951e-05
0.000151174
1.81967e-05
0.000140353
2.17994e-05
0.000123231
1.1095e-05
0.000102141
-4.99083e-05
5.37545e-05
-0.000247842
7.65109e-05
-0.000720508
-0.00116954
0.000716524
0.00113237
0.00138586
0.00157837
0.00172694
0.00183832
0.00192124
0.0019836
0.00203099
0.00206717
0.00209521
0.00211711
0.0021367
0.0021549
0.0021767
0.00218779
0.00213789
0.00189004
0.00116954
)
;

boundaryField
{
    movingWall
    {
        type            calculated;
        value           uniform 0;
    }
    fixedWalls
    {
        type            calculated;
        value           uniform 0;
    }
    frontAndBack
    {
        type            empty;
    }
}


// ************************************************************************* //
