/*--------------------------------*- C++ -*----------------------------------*\
| =========                 |                                                 |
| \\      /  F ield         | OpenFOAM: The Open Source CFD Toolbox           |
|  \\    /   O peration     | Version:  2506                                  |
|   \\  /    A nd           | Website:  www.openfoam.com                      |
|    \\/     M anipulation  |                                                 |
\*---------------------------------------------------------------------------*/
FoamFile
{
    version     2.0;
    format      ascii;
    arch        "LSB;label=32;scalar=64";
    class       pointScalarField;
    location    "1";
    object      streamFunction;
}
// * * * * * * * * * * * * * * * * * * * * * * * * * * * * * * * * * * * * * //

dimensions      [0 3 -1 0 0 0 0];

internalField   nonuniform List<scalar> 
882
(
0
0
0
0
0
0
0
0
0
0
0
0
0
0
0
0
0
0
0
0
0
0
-3.47523e-05
-8.527e-05
-0.000136087
-0.000183678
-0.000226966
-0.000264664
-0.000296091
-0.000320158
-0.000336281
-0.000343901
-0.000342641
-0.000332198
-0.000312543
-0.00028399
-0.000247005
-0.000202378
-0.000151458
-9.5634e-05
-3.93934e-05
0
0
-8.72213e-05
-0.000209604
-0.0003322
-0.000447135
-0.000551377
-0.00064212
-0.000717366
-0.000774895
-0.000813185
-0.000830944
-0.000827285
-0.000801633
-0.000753991
-0.00068503
-0.000595959
-0.000488737
-0.00036637
-0.000232684
-9.75316e-05
0
0
-0.000144153
-0.000344387
-0.000544561
-0.0007322
-0.000902218
-0.0010502
-0.00117276
-0.00126649
-0.00132887
-0.00135785
-0.00135196
-0.00131031
-0.00123288
-0.00112063
-0.000975508
-0.000800653
-0.000600819
-0.000382436
-0.00016115
0
0
-0.000204782
-0.000488114
-0.000771044
-0.00103619
-0.00127634
-0.00148541
-0.00165859
-0.00179124
-0.00187985
-0.00192151
-0.00191413
-0.00185638
-0.00174807
-0.00159036
-0.00138577
-0.00113857
-0.000855301
-0.000545187
-0.000230281
0
0
-0.0002704
-0.000643764
-0.0010163
-0.00136533
-0.00168136
-0.0019566
-0.00218477
-0.00236001
-0.00247775
-0.00253419
-0.00252653
-0.0024528
-0.00231248
-0.00210666
-0.00183825
-0.00151248
-0.00113769
-0.000726152
-0.00030723
0
0
-0.000342639
-0.00081515
-0.00128626
-0.00172744
-0.00212679
-0.00247472
-0.0027635
-0.00298603
-0.00313669
-0.00321076
-0.00320459
-0.00311538
-0.00294195
-0.002685
-0.00234741
-0.00193512
-0.00145814
-0.000932135
-0.000394995
0
0
-0.00042335
-0.00100661
-0.00158759
-0.00213127
-0.00262314
-0.00305178
-0.00340802
-0.00368362
-0.00387193
-0.00396731
-0.00396525
-0.00386165
-0.00365439
-0.00334321
-0.00293038
-0.00242194
-0.00182927
-0.00117173
-0.00049739
0
0
-0.000514687
-0.00122315
-0.00192795
-0.0025867
-0.0031821
-0.00370093
-0.0041327
-0.00446817
-0.00469985
-0.00482113
-0.00482693
-0.004711
-0.00447009
-0.00410214
-0.00360778
-0.00299215
-0.00226726
-0.00145623
-0.000619516
0
0
-0.000619242
-0.00147076
-0.0023163
-0.0031051
-0.00381689
-0.00443674
-0.00495314
-0.00535622
-0.00563793
-0.00579103
-0.00580918
-0.00568478
-0.00541213
-0.00498633
-0.00440492
-0.00367031
-0.00279359
-0.00180117
-0.000768582
0
0
-0.000740276
-0.00175683
-0.00276353
-0.00369993
-0.00454269
-0.00527551
-0.00588639
-0.00636541
-0.00670454
-0.00689625
-0.00693337
-0.00680639
-0.00650661
-0.00602485
-0.00535327
-0.00448864
-0.00343793
-0.00222902
-0.000955436
0
0
-0.000882083
-0.0020909
-0.00328324
-0.00438747
-0.00537727
-0.00623565
-0.00695102
-0.00751439
-0.0079187
-0.00815691
-0.00822122
-0.00810064
-0.00778255
-0.00725185
-0.00649224
-0.00549016
-0.0042426
-0.00277392
-0.00119765
0
0
-0.00105062
-0.0024858
-0.0038931
-0.00518801
-0.00634187
-0.00733818
-0.00816726
-0.00882259
-0.00929945
-0.00959247
-0.00969436
-0.00959277
-0.00927109
-0.00870664
-0.00787094
-0.00673317
-0.00526992
-0.00349067
-0.00152629
0
0
-0.00125461
-0.0029596
-0.00461685
-0.00612758
-0.00746233
-0.00860733
-0.0095571
-0.0103098
-0.010865
-0.0112209
-0.0113721
-0.0113063
-0.0110034
-0.0104325
-0.00954925
-0.0082967
-0.00661402
-0.00447191
-0.00200166
0
0
-0.00150762
-0.00353901
-0.00548757
-0.00724032
-0.00877066
-0.0100713
-0.0111443
-0.0119955
-0.0126316
-0.0130565
-0.013269
-0.0132596
-0.0130066
-0.0124725
-0.0115962
-0.0102857
-0.00841872
-0.00588145
-0.00275165
0
0
-0.00183208
-0.0042654
-0.00655276
-0.00857192
-0.0103069
-0.0117628
-0.012954
-0.013898
-0.0146116
-0.0151074
-0.0153915
-0.0154606
-0.015296
-0.0148601
-0.0140806
-0.0128291
-0.0108957
-0.0080042
-0.00403946
0
0
-0.00226828
-0.00520626
-0.00788205
-0.0101837
-0.0121207
-0.013719
-0.0150113
-0.0160311
-0.0168092
-0.0173699
-0.0177297
-0.0178951
-0.0178589
-0.0175945
-0.0170366
-0.016037
-0.0142818
-0.0112106
-0.0062354
0
0
-0.00288138
-0.0064784
-0.00958021
-0.0121541
-0.0142641
-0.0159668
-0.0173194
-0.0183771
-0.0191882
-0.0197908
-0.0202138
-0.0204767
-0.0205901
-0.0205536
-0.0203355
-0.0197994
-0.0185254
-0.0155093
-0.00938949
0
0
-0.00375095
-0.00823757
-0.0117633
-0.0145076
-0.0166576
-0.01833
-0.0196193
-0.0206088
-0.0213658
-0.0219391
-0.0223668
-0.0226778
-0.0229023
-0.0230607
-0.0231705
-0.0231102
-0.0224003
-0.0194379
-0.0124605
0
0
-0.00716524
-0.0113237
-0.0138586
-0.0157837
-0.0172694
-0.0183832
-0.0192124
-0.019836
-0.0203099
-0.0206717
-0.0209521
-0.0211711
-0.021367
-0.021549
-0.021767
-0.0218779
-0.0213789
-0.0189004
-0.0116954
0
0
0
0
0
0
0
0
0
0
0
0
0
0
0
0
0
0
0
0
0
0
0
0
0
0
0
0
0
0
0
0
0
0
0
0
0
0
0
0
0
0
0
0
-3.47523e-05
-8.527e-05
-0.000136087
-0.000183678
-0.000226966
-0.000264664
-0.000296091
-0.000320158
-0.000336281
-0.000343901
-0.000342641
-0.000332198
-0.000312543
-0.00028399
-0.000247005
-0.000202378
-0.000151458
-9.5634e-05
-3.93934e-05
0
0
-8.72213e-05
-0.000209604
-0.0003322
-0.000447135
-0.000551377
-0.00064212
-0.000717366
-0.000774895
-0.000813185
-0.000830944
-0.000827285
-0.000801633
-0.000753991
-0.00068503
-0.000595959
-0.000488737
-0.00036637
-0.000232684
-9.75316e-05
0
0
-0.000144153
-0.000344387
-0.000544561
-0.0007322
-0.000902218
-0.0010502
-0.00117276
-0.00126649
-0.00132887
-0.00135785
-0.00135196
-0.00131031
-0.00123288
-0.00112063
-0.000975508
-0.000800653
-0.000600819
-0.000382436
-0.00016115
0
0
-0.000204782
-0.000488114
-0.000771044
-0.00103619
-0.00127634
-0.00148541
-0.00165859
-0.00179124
-0.00187985
-0.00192151
-0.00191413
-0.00185638
-0.00174807
-0.00159036
-0.00138577
-0.00113857
-0.000855301
-0.000545187
-0.000230281
0
0
-0.0002704
-0.000643764
-0.0010163
-0.00136533
-0.00168136
-0.0019566
-0.00218477
-0.00236001
-0.00247775
-0.00253419
-0.00252653
-0.0024528
-0.00231248
-0.00210666
-0.00183825
-0.00151248
-0.00113769
-0.000726152
-0.00030723
0
0
-0.000342639
-0.00081515
-0.00128626
-0.00172744
-0.00212679
-0.00247472
-0.0027635
-0.00298603
-0.00313669
-0.00321076
-0.00320459
-0.00311538
-0.00294195
-0.002685
-0.00234741
-0.00193512
-0.00145814
-0.000932135
-0.000394995
0
0
-0.00042335
-0.00100661
-0.00158759
-0.00213127
-0.00262314
-0.00305178
-0.00340802
-0.00368362
-0.00387193
-0.00396731
-0.00396525
-0.00386165
-0.00365439
-0.00334321
-0.00293038
-0.00242194
-0.00182927
-0.00117173
-0.00049739
0
0
-0.000514687
-0.00122315
-0.00192795
-0.0025867
-0.0031821
-0.00370093
-0.0041327
-0.00446817
-0.00469985
-0.00482113
-0.00482693
-0.004711
-0.00447009
-0.00410214
-0.00360778
-0.00299215
-0.00226726
-0.00145623
-0.000619516
0
0
-0.000619242
-0.00147076
-0.0023163
-0.0031051
-0.00381689
-0.00443674
-0.00495314
-0.00535622
-0.00563793
-0.00579103
-0.00580918
-0.00568478
-0.00541213
-0.00498633
-0.00440492
-0.00367031
-0.00279359
-0.00180117
-0.000768582
0
0
-0.000740276
-0.00175683
-0.00276353
-0.00369993
-0.00454269
-0.00527551
-0.00588639
-0.00636541
-0.00670454
-0.00689625
-0.00693337
-0.00680639
-0.00650661
-0.00602485
-0.00535327
-0.00448864
-0.00343793
-0.00222902
-0.000955436
0
0
-0.000882083
-0.0020909
-0.00328324
-0.00438747
-0.00537727
-0.00623565
-0.00695102
-0.00751439
-0.0079187
-0.00815691
-0.00822122
-0.00810064
-0.00778255
-0.00725185
-0.00649224
-0.00549016
-0.0042426
-0.00277392
-0.00119765
0
0
-0.00105062
-0.0024858
-0.0038931
-0.00518801
-0.00634187
-0.00733818
-0.00816726
-0.00882259
-0.00929945
-0.00959247
-0.00969436
-0.00959277
-0.00927109
-0.00870664
-0.00787094
-0.00673317
-0.00526992
-0.00349067
-0.00152629
0
0
-0.00125461
-0.0029596
-0.00461685
-0.00612758
-0.00746233
-0.00860733
-0.0095571
-0.0103098
-0.010865
-0.0112209
-0.0113721
-0.0113063
-0.0110034
-0.0104325
-0.00954925
-0.0082967
-0.00661402
-0.00447191
-0.00200166
0
0
-0.00150762
-0.00353901
-0.00548757
-0.00724032
-0.00877066
-0.0100713
-0.0111443
-0.0119955
-0.0126316
-0.0130565
-0.013269
-0.0132596
-0.0130066
-0.0124725
-0.0115962
-0.0102857
-0.00841872
-0.00588145
-0.00275165
0
0
-0.00183208
-0.0042654
-0.00655276
-0.00857192
-0.0103069
-0.0117628
-0.012954
-0.013898
-0.0146116
-0.0151074
-0.0153915
-0.0154606
-0.015296
-0.0148601
-0.0140806
-0.0128291
-0.0108957
-0.0080042
-0.00403946
0
0
-0.00226828
-0.00520626
-0.00788205
-0.0101837
-0.0121207
-0.013719
-0.0150113
-0.0160311
-0.0168092
-0.0173699
-0.0177297
-0.0178951
-0.0178589
-0.0175945
-0.0170366
-0.016037
-0.0142818
-0.0112106
-0.0062354
0
0
-0.00288138
-0.0064784
-0.00958021
-0.0121541
-0.0142641
-0.0159668
-0.0173194
-0.0183771
-0.0191882
-0.0197908
-0.0202138
-0.0204767
-0.0205901
-0.0205536
-0.0203355
-0.0197994
-0.0185254
-0.0155093
-0.00938949
0
0
-0.00375095
-0.00823757
-0.0117633
-0.0145076
-0.0166576
-0.01833
-0.0196193
-0.0206088
-0.0213658
-0.0219391
-0.0223668
-0.0226778
-0.0229023
-0.0230607
-0.0231705
-0.0231102
-0.0224003
-0.0194379
-0.0124605
0
0
-0.00716524
-0.0113237
-0.0138586
-0.0157837
-0.0172694
-0.0183832
-0.0192124
-0.019836
-0.0203099
-0.0206717
-0.0209521
-0.0211711
-0.021367
-0.021549
-0.021767
-0.0218779
-0.0213789
-0.0189004
-0.0116954
0
0
0
0
0
0
0
0
0
0
0
0
0
0
0
0
0
0
0
0
0
0
)
;

boundaryField
{
    movingWall
    {
        type            calculated;
    }
    fixedWalls
    {
        type            calculated;
    }
    frontAndBack
    {
        type            empty;
    }
}


// ************************************************************************* //
