/*--------------------------------*- C++ -*----------------------------------*\
| =========                 |                                                 |
| \\      /  F ield         | OpenFOAM: The Open Source CFD Toolbox           |
|  \\    /   O peration     | Version:  2506                                  |
|   \\  /    A nd           | Website:  www.openfoam.com                      |
|    \\/     M anipulation  |                                                 |
\*---------------------------------------------------------------------------*/
FoamFile
{
    version     2.0;
    format      ascii;
    arch        "LSB;label=32;scalar=64";
    class       volScalarField;
    location    "450";
    object      nuTilda;
}
// * * * * * * * * * * * * * * * * * * * * * * * * * * * * * * * * * * * * * //

dimensions      [0 2 -1 0 0 0 0];

internalField   nonuniform List<scalar> 
1340
(
4.00638e-05
4.00652e-05
4.00644e-05
4.00292e-05
4.00664e-05
4.00652e-05
4.00255e-05
4.0029e-05
4.00676e-05
4.00662e-05
4.00087e-05
4.00129e-05
4.00252e-05
4.00288e-05
4.00689e-05
4.00673e-05
4.00182e-05
4.00101e-05
4.00086e-05
4.00128e-05
4.0025e-05
4.00286e-05
4.00703e-05
4.00686e-05
4.0042e-05
4.00349e-05
4.00271e-05
4.0019e-05
4.00106e-05
4.00086e-05
4.00126e-05
4.00248e-05
4.00283e-05
4.00717e-05
4.00701e-05
4.00594e-05
4.00541e-05
4.00492e-05
4.00431e-05
4.0036e-05
4.0028e-05
4.00198e-05
4.00111e-05
4.00086e-05
4.00125e-05
4.00246e-05
4.0028e-05
4.00732e-05
4.00718e-05
4.00826e-05
4.00787e-05
4.00736e-05
4.00673e-05
4.00608e-05
4.00554e-05
4.00504e-05
4.00443e-05
4.00371e-05
4.0029e-05
4.00206e-05
4.00117e-05
4.00086e-05
4.00123e-05
4.00244e-05
4.00276e-05
4.00747e-05
4.00736e-05
4.00945e-05
4.00931e-05
4.00914e-05
4.00894e-05
4.00871e-05
4.00842e-05
4.00803e-05
4.00752e-05
4.00689e-05
4.00623e-05
4.00567e-05
4.00517e-05
4.00456e-05
4.00383e-05
4.003e-05
4.00216e-05
4.00123e-05
4.00086e-05
4.00121e-05
4.00242e-05
4.00271e-05
4.00762e-05
4.00756e-05
4.00992e-05
4.00992e-05
4.00991e-05
4.0099e-05
4.00986e-05
4.00981e-05
4.00973e-05
4.00962e-05
4.00948e-05
4.00931e-05
4.00911e-05
4.00888e-05
4.00859e-05
4.00821e-05
4.0077e-05
4.00706e-05
4.00639e-05
4.00582e-05
4.00531e-05
4.0047e-05
4.00396e-05
4.00312e-05
4.00225e-05
4.0013e-05
4.00087e-05
4.00119e-05
4.00239e-05
4.00266e-05
4.00778e-05
4.00779e-05
4.01022e-05
4.01035e-05
4.01032e-05
4.01027e-05
4.01023e-05
4.01018e-05
4.01014e-05
4.01012e-05
4.01011e-05
4.0101e-05
4.0101e-05
4.01009e-05
4.01009e-05
4.01008e-05
4.01008e-05
4.01007e-05
4.01004e-05
4.00998e-05
4.0099e-05
4.0098e-05
4.00966e-05
4.00949e-05
4.00929e-05
4.00906e-05
4.00877e-05
4.00839e-05
4.00789e-05
4.00725e-05
4.00656e-05
4.00597e-05
4.00546e-05
4.00484e-05
4.00409e-05
4.00324e-05
4.00236e-05
4.00138e-05
4.00089e-05
4.00116e-05
4.00237e-05
4.0026e-05
4.00793e-05
4.00803e-05
3.67452e-06
9.85501e-07
0
0
0.000155574
0.00045718
0.016113
0.0551974
0.11267
0.176094
0.235518
0.285626
0.324083
0.350423
0.365821
0.372625
0.373756
0.362759
0.330902
0.272113
0.188981
0.0997089
0.0326463
0.00160745
0.000467012
0
0
0
4.96367e-06
1.94693e-05
4.01911e-05
4.33091e-05
4.07e-05
3.96917e-05
3.9932e-05
4.01358e-05
4.01372e-05
4.01121e-05
4.01081e-05
4.01074e-05
4.01048e-05
4.01034e-05
4.01034e-05
4.01033e-05
4.01031e-05
4.01029e-05
4.01028e-05
4.01027e-05
4.01027e-05
4.01026e-05
4.01026e-05
4.01025e-05
4.01024e-05
4.01022e-05
4.01017e-05
4.01009e-05
4.00998e-05
4.00985e-05
4.00968e-05
4.00948e-05
4.00924e-05
4.00896e-05
4.00858e-05
4.00808e-05
4.00744e-05
4.00674e-05
4.00614e-05
4.00562e-05
4.00499e-05
4.00424e-05
4.00337e-05
4.00247e-05
4.00147e-05
4.00091e-05
4.00114e-05
4.00234e-05
4.00254e-05
4.00809e-05
4.00829e-05
4.03855e-05
8.82743e-06
2.30594e-06
0
0
4.79796e-06
0.00209097
0.00821665
0.0366873
0.0875656
0.150385
0.213186
0.268288
0.311939
0.342848
0.36159
0.37073
0.373002
0.364368
0.336094
0.281247
0.20119
0.112197
0.0399992
0.00371214
0.00102986
0
0
0
3.19429e-06
1.19904e-05
3.81199e-05
4.43976e-05
4.16061e-05
3.98396e-05
3.98582e-05
4.00976e-05
4.012e-05
4.00945e-05
4.00998e-05
4.01097e-05
4.01095e-05
4.01061e-05
4.01047e-05
4.01047e-05
4.01048e-05
4.01047e-05
4.01046e-05
4.01045e-05
4.01045e-05
4.01044e-05
4.01044e-05
4.01043e-05
4.0104e-05
4.01036e-05
4.01028e-05
4.01018e-05
4.01004e-05
4.00987e-05
4.00967e-05
4.00944e-05
4.00916e-05
4.00879e-05
4.00829e-05
4.00764e-05
4.00693e-05
4.00632e-05
4.00578e-05
4.00516e-05
4.00439e-05
4.00351e-05
4.0026e-05
4.00156e-05
4.00094e-05
4.00111e-05
4.00231e-05
4.00248e-05
4.00824e-05
4.00856e-05
4.32356e-05
4.05716e-05
1.39645e-05
3.63348e-06
0
0
0
0.000623985
0.00228899
0.0211241
0.0633323
0.122985
0.187869
0.247797
0.297042
0.333198
0.356247
0.368297
0.371884
0.365539
0.340765
0.289979
0.213217
0.12402
0.0476641
0.00675403
0.00181835
0
0
0
8.68371e-07
2.16458e-06
3.2312e-05
4.36755e-05
4.21681e-05
4.00203e-05
3.98655e-05
4.01831e-05
4.02138e-05
4.01224e-05
4.00873e-05
4.00984e-05
4.01094e-05
4.01099e-05
4.01074e-05
4.01064e-05
4.01064e-05
4.01065e-05
4.01065e-05
4.01064e-05
4.01064e-05
4.01063e-05
4.01062e-05
4.0106e-05
4.01056e-05
4.01049e-05
4.01039e-05
4.01025e-05
4.01008e-05
4.00988e-05
4.00965e-05
4.00937e-05
4.009e-05
4.00851e-05
4.00786e-05
4.00714e-05
4.0065e-05
4.00596e-05
4.00533e-05
4.00456e-05
4.00366e-05
4.00273e-05
4.00167e-05
4.00097e-05
4.00109e-05
4.00228e-05
4.00242e-05
4.00839e-05
4.00886e-05
4.02845e-05
4.30169e-05
4.05241e-05
2.03832e-05
5.29632e-06
0
0
0
4.45295e-05
8.16971e-05
0.0107553
0.0420739
0.0955891
0.160498
0.224661
0.279771
0.321748
0.349661
0.364956
0.36996
0.365766
0.344423
0.297748
0.224281
0.135236
0.0555291
0.0102248
0.00270044
0
0
0
7.47777e-08
7.30109e-06
2.93487e-05
4.31467e-05
4.28104e-05
3.98843e-05
3.92598e-05
3.98403e-05
4.02101e-05
4.02089e-05
4.01251e-05
4.00952e-05
4.01019e-05
4.01096e-05
4.01103e-05
4.01089e-05
4.01084e-05
4.01084e-05
4.01085e-05
4.01084e-05
4.01084e-05
4.01083e-05
4.01081e-05
4.01077e-05
4.0107e-05
4.0106e-05
4.01047e-05
4.0103e-05
4.0101e-05
4.00987e-05
4.00959e-05
4.00923e-05
4.00874e-05
4.00809e-05
4.00735e-05
4.0067e-05
4.00615e-05
4.00551e-05
4.00474e-05
4.00382e-05
4.00287e-05
4.00178e-05
4.00102e-05
4.00106e-05
4.00224e-05
4.00235e-05
4.00852e-05
4.00916e-05
3.98962e-05
4.03012e-05
4.2455e-05
4.07065e-05
2.88708e-05
7.39424e-06
1.11615e-07
0
0
9.14904e-07
0.000972529
0.00364376
0.0244355
0.0683077
0.129667
0.196618
0.258196
0.307634
0.342162
0.362048
0.369484
0.3671
0.348911
0.306472
0.236558
0.148154
0.065097
0.0135469
0.00395313
0.000132238
0
0
0
5.77362e-06
2.25461e-05
4.14465e-05
4.58572e-05
4.26604e-05
3.996e-05
3.94793e-05
3.98845e-05
4.01581e-05
4.01771e-05
4.01259e-05
4.01038e-05
4.01065e-05
4.01111e-05
4.01116e-05
4.01108e-05
4.01105e-05
4.01105e-05
4.01105e-05
4.01104e-05
4.01102e-05
4.01099e-05
4.01093e-05
4.01083e-05
4.0107e-05
4.01054e-05
4.01033e-05
4.0101e-05
4.00982e-05
4.00946e-05
4.00898e-05
4.00834e-05
4.00759e-05
4.00692e-05
4.00635e-05
4.00571e-05
4.00493e-05
4.004e-05
4.00302e-05
4.00191e-05
4.00107e-05
4.00104e-05
4.00221e-05
4.00228e-05
4.00866e-05
4.00949e-05
4.01203e-05
3.99949e-05
4.02542e-05
4.12677e-05
4.10387e-05
3.69431e-05
1.58311e-05
4.16123e-06
3.00032e-08
0
0
0.000170163
0.000577372
0.00992539
0.0352186
0.0805993
0.140529
0.205027
0.264263
0.311557
0.343855
0.361356
0.364873
0.354185
0.322616
0.265236
0.186317
0.102717
0.0405684
0.00590416
0.00197151
5.3117e-05
0
0
6.78769e-07
5.16042e-06
1.76376e-05
3.68862e-05
4.3932e-05
4.27139e-05
4.03948e-05
3.96472e-05
3.98684e-05
4.01205e-05
4.01632e-05
4.0126e-05
4.01072e-05
4.01095e-05
4.01136e-05
4.0114e-05
4.01133e-05
4.01131e-05
4.01131e-05
4.0113e-05
4.01127e-05
4.01121e-05
4.01112e-05
4.01099e-05
4.01083e-05
4.01063e-05
4.01039e-05
4.01011e-05
4.00976e-05
4.00929e-05
4.00865e-05
4.00788e-05
4.00719e-05
4.0066e-05
4.00595e-05
4.00516e-05
4.00421e-05
4.0032e-05
4.00206e-05
4.00115e-05
4.00102e-05
4.00217e-05
4.00222e-05
4.00878e-05
4.00984e-05
4.01309e-05
4.01236e-05
4.00238e-05
4.01204e-05
4.05923e-05
4.20628e-05
4.00104e-05
3.31941e-05
4.84633e-06
1.3643e-06
0
0
4.42056e-06
8.00471e-05
0.00231962
0.00858923
0.0316025
0.073834
0.131401
0.195298
0.255508
0.304493
0.338434
0.356355
0.35833
0.342503
0.302924
0.238049
0.158261
0.0823253
0.029729
0.00260669
0.000948367
1.79812e-05
0
0
4.64408e-07
5.19485e-06
1.92432e-05
3.81796e-05
4.40903e-05
4.23114e-05
4.01435e-05
3.96757e-05
3.99722e-05
4.01641e-05
4.01598e-05
4.01202e-05
4.01105e-05
4.01151e-05
4.01176e-05
4.01172e-05
4.01166e-05
4.01164e-05
4.01161e-05
4.01156e-05
4.01147e-05
4.01135e-05
4.01119e-05
4.01099e-05
4.01074e-05
4.01046e-05
4.01011e-05
4.00965e-05
4.00901e-05
4.00823e-05
4.00751e-05
4.0069e-05
4.00623e-05
4.00543e-05
4.00446e-05
4.00342e-05
4.00224e-05
4.00125e-05
4.00099e-05
4.00213e-05
4.00215e-05
4.0089e-05
4.01021e-05
4.01109e-05
4.01199e-05
4.01097e-05
4.00715e-05
4.00529e-05
4.03978e-05
4.12754e-05
4.21112e-05
3.84742e-05
2.44571e-05
6.34363e-06
8.68771e-08
0
0
0
7.31644e-05
0.00202637
0.00742419
0.0294743
0.0707426
0.127829
0.191968
0.252967
0.302758
0.336824
0.352911
0.350766
0.326854
0.277294
0.206178
0.127512
0.0595568
0.0163996
0.000836712
0.000339666
0
0
0
5.34151e-07
6.93287e-06
2.70078e-05
4.19571e-05
4.38065e-05
4.1142e-05
3.97172e-05
3.97786e-05
4.00936e-05
4.01752e-05
4.01384e-05
4.01148e-05
4.01156e-05
4.01194e-05
4.01202e-05
4.01201e-05
4.01199e-05
4.01193e-05
4.01185e-05
4.01173e-05
4.01157e-05
4.01136e-05
4.01112e-05
4.01084e-05
4.01049e-05
4.01003e-05
4.0094e-05
4.00861e-05
4.00786e-05
4.00722e-05
4.00653e-05
4.00572e-05
4.00473e-05
4.00366e-05
4.00244e-05
4.00136e-05
4.00098e-05
4.00208e-05
4.00209e-05
4.009e-05
4.01058e-05
4.01069e-05
4.01114e-05
4.01097e-05
4.00927e-05
4.00417e-05
4.01833e-05
4.0637e-05
4.19961e-05
4.12961e-05
3.61547e-05
1.32625e-05
3.49588e-06
0
0
0
0
6.67792e-05
0.00201328
0.00740205
0.0295963
0.0712452
0.12897
0.193907
0.25544
0.304735
0.336677
0.347881
0.338486
0.304616
0.245824
0.170588
0.0947043
0.038183
0.00667059
0.00197683
1.54016e-06
0
0
0
4.01232e-06
1.49598e-05
3.67861e-05
4.4314e-05
4.25961e-05
4.01925e-05
3.96905e-05
3.99917e-05
4.01694e-05
4.0161e-05
4.01293e-05
4.01229e-05
4.01242e-05
4.01237e-05
4.0123e-05
4.01228e-05
4.01224e-05
4.01213e-05
4.01197e-05
4.01176e-05
4.01151e-05
4.01123e-05
4.01088e-05
4.01043e-05
4.00981e-05
4.00901e-05
4.00824e-05
4.00756e-05
4.00685e-05
4.00603e-05
4.00502e-05
4.00391e-05
4.00266e-05
4.0015e-05
4.00098e-05
4.00202e-05
4.00202e-05
4.00908e-05
4.01096e-05
4.01043e-05
4.01054e-05
4.01072e-05
4.01112e-05
4.00946e-05
4.00709e-05
4.00303e-05
4.03425e-05
4.1089e-05
4.22224e-05
3.99388e-05
2.78243e-05
7.1934e-06
9.78887e-08
0
0
0
0
7.03072e-05
0.00225453
0.00837802
0.0319673
0.0754905
0.135003
0.20101
0.262175
0.308935
0.335935
0.34036
0.321275
0.276322
0.208658
0.131424
0.0629488
0.0192179
6.77233e-05
0.000137664
0
0
0
4.39573e-07
6.90446e-06
2.69802e-05
4.24552e-05
4.35298e-05
4.08659e-05
3.97075e-05
3.98643e-05
4.01134e-05
4.01479e-05
4.01228e-05
4.0122e-05
4.01297e-05
4.01304e-05
4.01278e-05
4.01261e-05
4.01251e-05
4.01238e-05
4.01218e-05
4.01193e-05
4.01164e-05
4.01129e-05
4.01085e-05
4.01024e-05
4.00944e-05
4.00864e-05
4.00793e-05
4.0072e-05
4.00636e-05
4.00534e-05
4.00419e-05
4.0029e-05
4.00166e-05
4.00099e-05
4.00196e-05
4.00195e-05
4.00914e-05
4.01133e-05
4.01041e-05
4.01045e-05
4.0105e-05
4.01066e-05
4.01084e-05
4.01052e-05
4.00797e-05
4.0033e-05
4.01071e-05
4.05078e-05
4.17784e-05
4.16135e-05
3.68744e-05
1.41153e-05
3.73656e-06
1.22269e-08
0
0
0
0
0.00012719
0.000184599
0.0102002
0.0367016
0.0836504
0.145905
0.212761
0.27201
0.314105
0.333388
0.328521
0.297526
0.240553
0.166139
0.0912745
0.0350895
0.0053407
0.00157975
0
0
0
0
4.92752e-06
1.9146e-05
3.91205e-05
4.4179e-05
4.17955e-05
3.99735e-05
3.98888e-05
4.01748e-05
4.02104e-05
4.01379e-05
4.01109e-05
4.01219e-05
4.01317e-05
4.01324e-05
4.01301e-05
4.01281e-05
4.01261e-05
4.01237e-05
4.01208e-05
4.01173e-05
4.0113e-05
4.0107e-05
4.00991e-05
4.00909e-05
4.00834e-05
4.00757e-05
4.00672e-05
4.00568e-05
4.0045e-05
4.00316e-05
4.00185e-05
4.00101e-05
4.0019e-05
4.00187e-05
4.00916e-05
4.01169e-05
4.01048e-05
4.01051e-05
4.01054e-05
4.01057e-05
4.01068e-05
4.01081e-05
4.01101e-05
4.00935e-05
4.00637e-05
4.00073e-05
4.0251e-05
4.0897e-05
4.2339e-05
3.93868e-05
3.10367e-05
1.66754e-06
5.76607e-07
0
0
0
0
1.85756e-06
0.000108155
0.00339337
0.0128244
0.0445984
0.0963959
0.161816
0.22857
0.283713
0.318304
0.327217
0.310115
0.265317
0.19723
0.12073
0.0546827
0.0146983
0.00399687
7.19546e-05
0
0
0
2.51058e-06
8.96403e-06
3.34142e-05
4.36495e-05
4.23234e-05
3.9738e-05
3.94025e-05
3.99779e-05
4.02609e-05
4.0223e-05
4.01465e-05
4.01257e-05
4.01306e-05
4.01341e-05
4.01332e-05
4.01309e-05
4.01283e-05
4.01253e-05
4.01218e-05
4.01175e-05
4.01117e-05
4.01039e-05
4.00955e-05
4.00877e-05
4.00796e-05
4.00709e-05
4.00603e-05
4.00482e-05
4.00344e-05
4.00206e-05
4.00106e-05
4.00184e-05
4.00179e-05
4.00918e-05
4.01204e-05
4.01058e-05
4.01062e-05
4.01065e-05
4.01068e-05
4.01072e-05
4.01076e-05
4.01093e-05
4.01106e-05
4.01084e-05
4.00811e-05
4.00359e-05
4.00467e-05
4.05243e-05
4.15359e-05
4.21544e-05
3.67195e-05
2.19443e-05
5.71537e-06
1.27464e-07
0
0
0
0
0
0.000576297
0.00185968
0.0186469
0.0564539
0.11417
0.182328
0.246904
0.294794
0.317951
0.313752
0.2809
0.221294
0.14599
0.074082
0.0250898
0.00297113
0.000725198
0
0
0
2.80787e-07
6.95562e-06
2.7645e-05
4.49532e-05
4.58435e-05
4.16128e-05
3.94463e-05
3.95228e-05
4.00076e-05
4.01859e-05
4.01729e-05
4.01438e-05
4.01366e-05
4.01369e-05
4.0136e-05
4.01336e-05
4.01305e-05
4.0127e-05
4.01227e-05
4.01171e-05
4.01093e-05
4.0101e-05
4.00928e-05
4.00843e-05
4.00753e-05
4.00645e-05
4.00522e-05
4.00378e-05
4.00234e-05
4.00116e-05
4.00176e-05
4.00169e-05
4.00908e-05
4.0124e-05
4.01067e-05
4.0107e-05
4.01074e-05
4.01077e-05
4.01081e-05
4.01085e-05
4.01088e-05
4.01099e-05
4.01117e-05
4.01134e-05
4.01007e-05
4.00637e-05
4.00078e-05
4.02376e-05
4.09287e-05
4.23543e-05
4.08631e-05
3.40891e-05
1.63816e-05
4.33493e-06
1.2483e-07
0
0
0
0
2.09379e-05
0.00152909
0.00563918
0.0284741
0.0743119
0.139104
0.21047
0.272586
0.312619
0.322615
0.301591
0.249464
0.174015
0.0944547
0.0304972
0.00156435
0.00143038
0.000453119
0.000152491
3.03954e-05
0
9.1575e-07
8.01305e-06
3.0709e-05
4.42139e-05
4.38425e-05
4.11225e-05
3.99894e-05
3.99673e-05
4.01092e-05
4.01532e-05
4.01484e-05
4.01419e-05
4.01395e-05
4.01374e-05
4.01345e-05
4.01309e-05
4.01267e-05
4.01212e-05
4.01136e-05
4.01052e-05
4.00968e-05
4.00879e-05
4.00787e-05
4.00678e-05
4.00551e-05
4.00405e-05
4.00252e-05
4.00123e-05
4.00175e-05
4.00163e-05
4.00919e-05
4.01266e-05
4.01077e-05
4.01081e-05
4.01085e-05
4.0109e-05
4.01094e-05
4.01099e-05
4.01104e-05
4.01109e-05
4.01115e-05
4.01133e-05
4.01152e-05
4.01165e-05
4.00893e-05
4.00514e-05
4.00216e-05
4.04447e-05
4.13918e-05
4.23487e-05
4.04453e-05
3.37214e-05
1.51538e-05
3.75907e-06
0
0
0
0
0
6.72179e-05
0.00173169
0.00594111
0.027645
0.0690165
0.125982
0.188279
0.242925
0.278923
0.288059
0.267702
0.219479
0.153494
0.0897131
0.0436448
0.0175875
0.0056266
0.00106638
0.000241815
0
0
5.34779e-06
2.03675e-05
3.52374e-05
4.04744e-05
4.08065e-05
4.03233e-05
4.01368e-05
4.01339e-05
4.01497e-05
4.01519e-05
4.01495e-05
4.01468e-05
4.01438e-05
4.01402e-05
4.0136e-05
4.01306e-05
4.01234e-05
4.01151e-05
4.01064e-05
4.00967e-05
4.00868e-05
4.00754e-05
4.00625e-05
4.00468e-05
4.00309e-05
4.00148e-05
4.00174e-05
4.0015e-05
4.00869e-05
4.01332e-05
)
;

boundaryField
{
    inlet
    {
        type            freestream;
        freestreamValue uniform 4e-05;
        value           nonuniform List<scalar> 
27
(
4.00638e-05
4.00644e-05
4.00652e-05
4.00662e-05
4.00673e-05
4.00686e-05
4.00701e-05
4.00718e-05
4.00736e-05
4.00756e-05
4.00779e-05
4.00803e-05
4.00829e-05
4.00856e-05
4.00886e-05
4.00916e-05
4.00949e-05
4.00984e-05
4.01021e-05
4.01058e-05
4.01096e-05
4.01133e-05
4.01169e-05
4.01204e-05
4.0124e-05
4.01266e-05
4.01332e-05
)
;
    }
    outlet
    {
        type            freestream;
        freestreamValue uniform 4e-05;
        value           nonuniform List<scalar> 
78
(
4.01077e-05
4.01081e-05
4.01085e-05
4.0109e-05
4.01094e-05
4.01099e-05
4.01104e-05
4.01109e-05
4.01115e-05
4.01133e-05
4.01152e-05
4.01165e-05
4.00893e-05
4.00514e-05
4.00216e-05
4.04447e-05
4.13918e-05
4.23487e-05
4.04453e-05
3.37214e-05
1.51538e-05
3.75907e-06
0
0
0
0
0
6.72179e-05
0.00173169
0.00594111
0.027645
0.0690165
0.125982
0.188279
0.242925
0.278923
0.288059
0.267702
0.219479
0.153494
0.0897131
0.0436448
0.0175875
0.0056266
0.00106638
0.000241815
0
0
5.34779e-06
2.03675e-05
3.52374e-05
4.04744e-05
4.08065e-05
4.03233e-05
4.01368e-05
4.01339e-05
4.01497e-05
4.01519e-05
4.01495e-05
4.01468e-05
4.01438e-05
4.01402e-05
4.0136e-05
4.01306e-05
4.01234e-05
4.01151e-05
4.01064e-05
4.00967e-05
4.00868e-05
4.00754e-05
4.00625e-05
4.00468e-05
4.00309e-05
4.00148e-05
4.00174e-05
4.0015e-05
4.00869e-05
4.01332e-05
)
;
    }
    walls
    {
        type            fixedValue;
        value           nonuniform List<scalar> 0();
    }
    frontAndBack
    {
        type            empty;
    }
    procBoundary7to3
    {
        type            processor;
        value           nonuniform List<scalar> 
16
(
3.80324e-05
4.32591e-05
4.03939e-05
3.98861e-05
4.01125e-05
4.01445e-05
4.01188e-05
4.01089e-05
4.01056e-05
4.01056e-05
4.0104e-05
4.01037e-05
4.01044e-05
4.01055e-05
4.01064e-05
4.01073e-05
)
;
    }
    procBoundary7to6
    {
        type            processor;
        value           nonuniform List<scalar> 
91
(
4.00634e-05
4.00641e-05
4.00641e-05
4.00293e-05
4.00293e-05
4.00257e-05
4.00257e-05
4.00088e-05
4.0013e-05
4.0013e-05
4.00175e-05
4.00097e-05
4.00097e-05
4.00409e-05
4.00339e-05
4.00262e-05
4.00262e-05
4.00581e-05
4.00528e-05
4.0048e-05
4.0048e-05
4.0081e-05
4.00771e-05
4.0072e-05
4.00658e-05
4.00658e-05
4.00929e-05
4.00915e-05
4.00898e-05
4.00878e-05
4.00855e-05
4.00855e-05
4.00976e-05
4.00976e-05
4.00975e-05
4.00974e-05
4.0097e-05
4.00964e-05
4.00956e-05
4.00956e-05
4.01038e-05
4.01027e-05
4.01016e-05
4.01008e-05
4.01003e-05
4.00999e-05
4.00996e-05
4.00995e-05
4.00994e-05
4.00993e-05
4.00993e-05
4.00993e-05
4.00993e-05
3.11811e-08
0
0
0.00119372
0.00467816
0.0287917
0.0763134
0.137216
0.199173
0.25461
0.299957
0.333772
0.356187
0.368986
0.374742
0.374531
0.360833
0.325207
0.262516
0.176668
0.0878362
0.0264146
0.000133649
7.36327e-05
0
0
0
6.30495e-06
2.51344e-05
4.15214e-05
4.27452e-05
4.0427e-05
3.98034e-05
4.00361e-05
4.01493e-05
4.01242e-05
4.01029e-05
4.01029e-05
)
;
    }
}


// ************************************************************************* //
