/*--------------------------------*- C++ -*----------------------------------*\
| =========                 |                                                 |
| \\      /  F ield         | OpenFOAM: The Open Source CFD Toolbox           |
|  \\    /   O peration     | Version:  2506                                  |
|   \\  /    A nd           | Website:  www.openfoam.com                      |
|    \\/     M anipulation  |                                                 |
\*---------------------------------------------------------------------------*/
FoamFile
{
    version     2.0;
    format      ascii;
    arch        "LSB;label=32;scalar=64";
    class       volScalarField;
    location    "450";
    object      turbulenceProperties:I;
}
// * * * * * * * * * * * * * * * * * * * * * * * * * * * * * * * * * * * * * //

dimensions      [0 0 0 0 0 0 0];

internalField   nonuniform List<scalar> 
1340
(
3.02095e-05
2.64679e-05
3.04408e-05
2.60157e-05
2.60488e-05
3.04458e-05
1.6809e-05
2.58545e-05
2.57678e-05
3.05165e-05
1.58701e-05
2.1515e-05
1.67317e-05
2.57262e-05
2.55262e-05
3.06279e-05
1.89125e-05
2.05118e-05
1.56332e-05
2.13214e-05
1.66515e-05
2.56106e-05
2.53291e-05
3.0741e-05
2.24272e-05
2.10249e-05
2.10376e-05
1.85358e-05
2.023e-05
1.53805e-05
2.11307e-05
1.65734e-05
2.55118e-05
2.51868e-05
3.08472e-05
2.40793e-05
2.33383e-05
2.24036e-05
2.19434e-05
2.05574e-05
2.06508e-05
1.81451e-05
1.99412e-05
1.5115e-05
2.09475e-05
1.64971e-05
2.54326e-05
2.50969e-05
3.09447e-05
2.7089e-05
2.61617e-05
2.52408e-05
2.43341e-05
2.34132e-05
2.2733e-05
2.18333e-05
2.14407e-05
2.00738e-05
2.025e-05
1.77418e-05
1.96463e-05
1.4838e-05
2.07703e-05
1.6423e-05
2.53684e-05
2.50478e-05
3.10465e-05
3.0466e-05
2.95769e-05
2.86931e-05
2.78169e-05
2.69501e-05
2.60938e-05
2.52501e-05
2.44077e-05
2.35795e-05
2.27231e-05
2.2105e-05
2.12417e-05
2.09179e-05
1.95727e-05
1.98342e-05
1.73251e-05
1.93441e-05
1.45495e-05
2.05956e-05
1.63526e-05
2.53142e-05
2.50311e-05
3.11377e-05
3.43809e-05
3.36456e-05
3.28938e-05
3.21278e-05
3.13512e-05
3.05668e-05
2.97777e-05
2.89865e-05
2.81959e-05
2.74076e-05
2.66233e-05
2.5845e-05
2.50735e-05
2.43127e-05
2.35486e-05
2.27997e-05
2.20093e-05
2.1455e-05
2.06293e-05
2.03753e-05
1.90548e-05
1.94037e-05
1.68955e-05
1.90341e-05
1.42507e-05
2.04217e-05
1.62855e-05
2.52679e-05
2.50561e-05
3.12278e-05
3.79234e-05
3.7597e-05
3.72462e-05
3.68693e-05
3.64644e-05
3.60307e-05
3.55677e-05
3.50758e-05
3.45556e-05
3.40087e-05
3.34361e-05
3.28398e-05
3.22219e-05
3.15848e-05
3.09313e-05
3.02634e-05
2.95842e-05
2.88965e-05
2.82029e-05
2.7506e-05
2.6808e-05
2.61103e-05
2.54143e-05
2.47219e-05
2.40331e-05
2.33539e-05
2.26676e-05
2.19982e-05
2.12751e-05
2.07857e-05
1.99989e-05
1.98152e-05
1.85222e-05
1.89599e-05
1.6455e-05
1.87172e-05
1.39439e-05
2.02492e-05
1.62201e-05
2.52283e-05
2.51035e-05
3.13167e-05
2.65948e-06
6.76261e-07
0
0
0.000197072
0.000283021
0.00262973
0.00938177
0.0185812
0.0279855
0.0358401
0.041029
0.0426428
0.0396666
0.0305656
0.0100177
0.0299879
0.0390901
0.0406633
0.0358178
0.0261292
0.0146476
0.00534563
0.000488943
0.000168588
0
0
0
5.16682e-06
1.90033e-05
3.72066e-05
3.93882e-05
3.68698e-05
3.56912e-05
3.55934e-05
3.54968e-05
3.52441e-05
3.49655e-05
3.46918e-05
3.44029e-05
3.40902e-05
3.37533e-05
3.33911e-05
3.30022e-05
3.25863e-05
3.21438e-05
3.16764e-05
3.11854e-05
3.0672e-05
3.01383e-05
2.95865e-05
2.90192e-05
2.84381e-05
2.78462e-05
2.7246e-05
2.66399e-05
2.60301e-05
2.54187e-05
2.48068e-05
2.41951e-05
2.35855e-05
2.29771e-05
2.2378e-05
2.17684e-05
2.11784e-05
2.05235e-05
2.00999e-05
1.93533e-05
1.92397e-05
1.79768e-05
1.85041e-05
1.60059e-05
1.83929e-05
1.36312e-05
2.00744e-05
1.61587e-05
2.51926e-05
2.51763e-05
3.14047e-05
2.84728e-05
5.94317e-06
1.5133e-06
0
0
8.30598e-06
0.000708707
0.000943551
0.00592515
0.0139252
0.0230601
0.0313266
0.037349
0.0401441
0.0387618
0.0319607
0.0161716
0.0245807
0.0353966
0.0384071
0.0349538
0.0264332
0.0156141
0.00617272
0.000852899
0.000245416
0
0
0
3.09408e-06
1.08105e-05
3.2382e-05
3.67756e-05
3.43627e-05
3.27207e-05
3.24764e-05
3.24327e-05
3.22323e-05
3.1987e-05
3.17507e-05
3.15003e-05
3.12211e-05
3.09158e-05
3.05871e-05
3.02347e-05
2.98576e-05
2.94572e-05
2.90349e-05
2.8592e-05
2.81303e-05
2.76523e-05
2.716e-05
2.66555e-05
2.61414e-05
2.56199e-05
2.50934e-05
2.45639e-05
2.40332e-05
2.35021e-05
2.29706e-05
2.24407e-05
2.19102e-05
2.13894e-05
2.08552e-05
2.03442e-05
1.97582e-05
1.94009e-05
1.86954e-05
1.86516e-05
1.74216e-05
1.80387e-05
1.55501e-05
1.80621e-05
1.33127e-05
1.98993e-05
1.60952e-05
2.51584e-05
2.5251e-05
3.14977e-05
2.8744e-05
2.66868e-05
9.09597e-06
2.19365e-06
0
0
0
0.000391234
0.000500281
0.00318375
0.00974644
0.0182845
0.0267668
0.0335282
0.0374231
0.0374981
0.0326847
0.0207849
0.0187349
0.0316447
0.0360676
0.0339613
0.0265937
0.0164204
0.006972
0.00129362
0.000295894
0
0
0
7.76769e-07
1.78466e-06
2.51818e-05
3.30512e-05
3.18186e-05
3.0057e-05
2.96975e-05
2.97141e-05
2.95507e-05
2.92935e-05
2.90558e-05
2.88295e-05
2.85823e-05
2.83057e-05
2.80042e-05
2.76808e-05
2.73364e-05
2.6972e-05
2.65887e-05
2.61887e-05
2.57741e-05
2.53472e-05
2.49101e-05
2.44653e-05
2.40147e-05
2.35608e-05
2.31054e-05
2.26502e-05
2.21953e-05
2.17406e-05
2.12876e-05
2.08327e-05
2.03889e-05
1.9929e-05
1.94959e-05
1.89801e-05
1.86894e-05
1.80267e-05
1.80513e-05
1.68582e-05
1.75628e-05
1.50896e-05
1.77254e-05
1.29905e-05
1.97149e-05
1.60275e-05
2.51358e-05
2.53289e-05
3.15956e-05
2.53319e-05
2.66999e-05
2.54976e-05
1.24923e-05
2.91911e-06
0
0
0
7.45373e-05
0.000117536
0.00128111
0.00623961
0.013829
0.0222598
0.0296331
0.0345463
0.0359562
0.0328659
0.0237216
0.0120795
0.027909
0.0337085
0.0328695
0.0265888
0.0170645
0.00769329
0.00171229
0.000346977
0
0
0
6.42166e-08
5.59051e-06
2.07588e-05
2.95751e-05
2.94526e-05
2.74782e-05
2.685e-05
2.70059e-05
2.7059e-05
2.6882e-05
2.66358e-05
2.6401e-05
2.61669e-05
2.59129e-05
2.56338e-05
2.53335e-05
2.50154e-05
2.46808e-05
2.43318e-05
2.39701e-05
2.35988e-05
2.32196e-05
2.28349e-05
2.24473e-05
2.20586e-05
2.16708e-05
2.12851e-05
2.09017e-05
2.05199e-05
2.01404e-05
1.97586e-05
1.93892e-05
1.90024e-05
1.86457e-05
1.81995e-05
1.7976e-05
1.73559e-05
1.74486e-05
1.62914e-05
1.70861e-05
1.46234e-05
1.73893e-05
1.26418e-05
1.95416e-05
1.59317e-05
2.51126e-05
2.54188e-05
3.17269e-05
2.36935e-05
2.36195e-05
2.50313e-05
2.39092e-05
1.64307e-05
3.80271e-06
5.53054e-08
0
0
1.38631e-06
0.000462349
0.000491243
0.00340208
0.00960949
0.0175355
0.0253125
0.0312583
0.0341058
0.0328098
0.0261456
0.00972033
0.0236428
0.0311561
0.0317576
0.0266847
0.0179141
0.00866052
0.00220446
0.000331842
0.000104287
0
0
0
4.30884e-06
1.49535e-05
2.57056e-05
2.82016e-05
2.65099e-05
2.48653e-05
2.44075e-05
2.44593e-05
2.44435e-05
2.42754e-05
2.40486e-05
2.38173e-05
2.35795e-05
2.3325e-05
2.30514e-05
2.27624e-05
2.24618e-05
2.21503e-05
2.18317e-05
2.15078e-05
2.11809e-05
2.0854e-05
2.05285e-05
2.02069e-05
1.98889e-05
1.95763e-05
1.92669e-05
1.89606e-05
1.86529e-05
1.83582e-05
1.80447e-05
1.77667e-05
1.73917e-05
1.72367e-05
1.66646e-05
1.68218e-05
1.57126e-05
1.65841e-05
1.41638e-05
1.70244e-05
1.2333e-05
1.93356e-05
1.58625e-05
2.50695e-05
2.55003e-05
3.18146e-05
2.22265e-05
2.18862e-05
2.21142e-05
2.24624e-05
2.20113e-05
1.93779e-05
7.80811e-06
1.87354e-06
1.32595e-08
0
0
0.000159382
0.000277272
0.00104865
0.00475146
0.0106682
0.0177657
0.024477
0.0292724
0.0308739
0.0281696
0.0195854
0.0129796
0.0251319
0.028944
0.0268583
0.020434
0.0121823
0.00521763
0.00096619
0.000313873
4.62065e-05
0
0
4.76118e-07
3.34815e-06
1.03784e-05
2.04057e-05
2.39124e-05
2.34035e-05
2.21954e-05
2.16801e-05
2.16331e-05
2.15998e-05
2.14526e-05
2.12471e-05
2.10326e-05
2.08116e-05
2.05788e-05
2.03345e-05
2.008e-05
1.9821e-05
1.95598e-05
1.92989e-05
1.90401e-05
1.87859e-05
1.8539e-05
1.82988e-05
1.80671e-05
1.78406e-05
1.76197e-05
1.73977e-05
1.71902e-05
1.69628e-05
1.67735e-05
1.64878e-05
1.64045e-05
1.59032e-05
1.61134e-05
1.5099e-05
1.59986e-05
1.37285e-05
1.65388e-05
1.20949e-05
1.88859e-05
1.54896e-05
2.45086e-05
2.48593e-05
3.06738e-05
2.04315e-05
2.02412e-05
2.02904e-05
2.01792e-05
2.01024e-05
2.05988e-05
1.94867e-05
1.5618e-05
2.05641e-06
5.46535e-07
0
0
4.97821e-06
0.000101027
0.000552521
0.000879752
0.00411694
0.00937771
0.0158268
0.0220407
0.0264975
0.0278513
0.0249412
0.0159555
0.0144124
0.0238031
0.0259886
0.0229318
0.0165323
0.00931127
0.00367792
0.000473604
0.00021917
1.48213e-05
0
0
2.81955e-07
2.89961e-06
9.69765e-06
1.8115e-05
2.07247e-05
2.00936e-05
1.91129e-05
1.87798e-05
1.87652e-05
1.87037e-05
1.85471e-05
1.8359e-05
1.81708e-05
1.79788e-05
1.778e-05
1.75793e-05
1.7379e-05
1.71844e-05
1.6997e-05
1.68197e-05
1.66551e-05
1.65026e-05
1.63644e-05
1.62348e-05
1.61149e-05
1.59951e-05
1.5891e-05
1.57663e-05
1.56803e-05
1.54974e-05
1.55e-05
1.50784e-05
1.53563e-05
1.44325e-05
1.53989e-05
1.32355e-05
1.61084e-05
1.18335e-05
1.86432e-05
1.55161e-05
2.4465e-05
2.51513e-05
3.08099e-05
1.86156e-05
1.8487e-05
1.86085e-05
1.85148e-05
1.82875e-05
1.82216e-05
1.84816e-05
1.87714e-05
1.68744e-05
1.00121e-05
2.31571e-06
3.29229e-08
0
0
0
9.92341e-05
0.000534145
0.000723214
0.00375061
0.0086923
0.0147608
0.0205642
0.0245694
0.0253944
0.0218244
0.0114176
0.0162056
0.0227675
0.0231672
0.01918
0.0128787
0.0065846
0.00210153
0.000119051
0.000137749
0
0
0
2.79355e-07
3.22272e-06
1.12971e-05
1.68019e-05
1.76712e-05
1.6783e-05
1.61712e-05
1.60579e-05
1.60382e-05
1.5932e-05
1.57739e-05
1.56112e-05
1.54552e-05
1.53033e-05
1.51565e-05
1.50225e-05
1.49035e-05
1.4803e-05
1.47233e-05
1.46641e-05
1.46258e-05
1.46019e-05
1.4592e-05
1.45832e-05
1.45901e-05
1.45739e-05
1.45955e-05
1.45157e-05
1.46076e-05
1.42661e-05
1.46161e-05
1.37753e-05
1.48217e-05
1.2738e-05
1.57158e-05
1.15193e-05
1.8453e-05
1.54708e-05
2.44935e-05
2.53663e-05
3.09288e-05
1.67419e-05
1.68986e-05
1.68585e-05
1.67074e-05
1.65457e-05
1.64582e-05
1.65419e-05
1.701e-05
1.66465e-05
1.40837e-05
4.71747e-06
1.19885e-06
0
0
0
0
9.3568e-05
0.000521113
0.000728496
0.00369322
0.00846653
0.0142409
0.0196058
0.0229987
0.0230195
0.0183899
0.00483101
0.0174567
0.0214303
0.0201994
0.015507
0.00943345
0.0041962
0.000908332
0.000246436
1.32292e-06
0
0
0
1.73248e-06
5.55084e-06
1.24148e-05
1.48041e-05
1.45136e-05
1.37823e-05
1.35181e-05
1.34852e-05
1.34205e-05
1.32986e-05
1.31723e-05
1.30615e-05
1.29672e-05
1.28959e-05
1.28497e-05
1.28325e-05
1.28465e-05
1.28899e-05
1.29607e-05
1.30496e-05
1.31555e-05
1.32609e-05
1.33795e-05
1.3469e-05
1.35926e-05
1.36079e-05
1.37807e-05
1.35168e-05
1.39303e-05
1.31709e-05
1.42863e-05
1.22833e-05
1.5358e-05
1.12309e-05
1.82981e-05
1.54047e-05
2.45536e-05
2.54847e-05
3.1039e-05
1.50402e-05
1.52186e-05
1.52003e-05
1.5104e-05
1.50163e-05
1.49119e-05
1.48178e-05
1.48294e-05
1.50497e-05
1.54417e-05
1.45102e-05
9.66885e-06
2.29375e-06
3.31993e-08
0
0
0
0
9.63461e-05
0.000518546
0.00087519
0.00389223
0.00861227
0.0141315
0.0189806
0.0215688
0.0205051
0.0143768
0.00962494
0.0180324
0.0197002
0.0170273
0.0118547
0.00629639
0.00218486
3.43424e-05
8.22454e-05
0
0
0
1.74435e-07
2.31713e-06
7.6589e-06
1.13577e-05
1.18568e-05
1.13081e-05
1.09547e-05
1.08947e-05
1.08723e-05
1.08127e-05
1.07539e-05
1.07256e-05
1.07374e-05
1.07891e-05
1.08828e-05
1.10189e-05
1.11908e-05
1.1393e-05
1.16118e-05
1.18434e-05
1.20684e-05
1.22988e-05
1.249e-05
1.27064e-05
1.28064e-05
1.30469e-05
1.28577e-05
1.33219e-05
1.26451e-05
1.38095e-05
1.19017e-05
1.50423e-05
1.10132e-05
1.81713e-05
1.53371e-05
2.46398e-05
2.55089e-05
3.11664e-05
1.34105e-05
1.35871e-05
1.35851e-05
1.3516e-05
1.34576e-05
1.33883e-05
1.33402e-05
1.32535e-05
1.31963e-05
1.32681e-05
1.36847e-05
1.36532e-05
1.19147e-05
4.32338e-06
1.15926e-06
4.30369e-09
0
0
0
0
0.000138811
0.000131076
0.00114919
0.00433321
0.00907959
0.0143273
0.0185207
0.0200658
0.0176256
0.00914837
0.0130966
0.0178649
0.017446
0.0136018
0.00830643
0.0036078
0.000706875
0.000229326
0
0
0
0
1.4447e-06
4.44271e-06
7.98277e-06
9.03169e-06
8.73062e-06
8.30778e-06
8.17507e-06
8.1868e-06
8.2314e-06
8.3155e-06
8.4683e-06
8.69025e-06
8.96721e-06
9.28548e-06
9.63162e-06
9.99427e-06
1.03585e-05
1.07191e-05
1.10589e-05
1.13905e-05
1.16696e-05
1.19605e-05
1.21269e-05
1.24137e-05
1.22882e-05
1.27871e-05
1.21887e-05
1.3382e-05
1.15715e-05
1.47555e-05
1.08276e-05
1.80629e-05
1.52489e-05
2.47326e-05
2.5406e-05
3.13269e-05
1.23018e-05
1.24442e-05
1.2468e-05
1.24113e-05
1.2355e-05
1.23125e-05
1.22891e-05
1.22366e-05
1.21778e-05
1.21004e-05
1.21217e-05
1.22788e-05
1.27069e-05
1.18699e-05
9.22018e-06
4.95979e-07
1.98876e-07
0
0
0
0
2.54225e-06
0.000121193
0.000448498
0.00154912
0.00504459
0.00983902
0.0147166
0.0180395
0.0182589
0.014058
0.005551
0.0148858
0.0168277
0.0145946
0.0100092
0.00510181
0.00159272
6.61533e-05
5.1917e-05
0
0
0
5.64183e-07
1.07757e-06
3.2781e-06
4.06693e-06
4.50237e-06
4.56466e-06
4.68749e-06
5.10254e-06
5.66401e-06
6.24818e-06
6.83335e-06
7.41458e-06
7.98098e-06
8.52308e-06
9.03925e-06
9.52383e-06
9.98105e-06
1.04007e-05
1.07998e-05
1.1137e-05
1.14709e-05
1.16798e-05
1.19858e-05
1.19137e-05
1.24212e-05
1.19088e-05
1.30883e-05
1.14118e-05
1.45621e-05
1.07982e-05
1.80071e-05
1.51411e-05
2.48461e-05
2.50634e-05
3.16492e-05
1.1112e-05
1.12768e-05
1.12933e-05
1.12352e-05
1.11823e-05
1.11704e-05
1.11788e-05
1.11101e-05
1.10947e-05
1.1072e-05
1.10083e-05
1.09726e-05
1.1089e-05
1.13306e-05
1.14992e-05
1.00918e-05
6.08614e-06
1.75384e-06
4.79096e-08
0
0
0
0
0
0.000271803
0.000176939
0.00221726
0.00602937
0.0108127
0.015117
0.0172595
0.0157793
0.00896414
0.0109503
0.0153386
0.0147868
0.0111236
0.00634065
0.00241331
0.000283821
0.000189489
0
0
0
8.32692e-08
1.23215e-06
2.82639e-06
6.06373e-06
5.48539e-06
4.64651e-06
4.84134e-06
5.49399e-06
6.18119e-06
6.79631e-06
7.35468e-06
7.88436e-06
8.38851e-06
8.86755e-06
9.31503e-06
9.73711e-06
1.01267e-05
1.04995e-05
1.08185e-05
1.11296e-05
1.13229e-05
1.15952e-05
1.15284e-05
1.20135e-05
1.15394e-05
1.27043e-05
1.10649e-05
1.42586e-05
1.04637e-05
1.78479e-05
1.48518e-05
2.48409e-05
2.44109e-05
3.21752e-05
1.15439e-05
1.16252e-05
1.16193e-05
1.15571e-05
1.14979e-05
1.14577e-05
1.14341e-05
1.13709e-05
1.1329e-05
1.12799e-05
1.1203e-05
1.11349e-05
1.10832e-05
1.10692e-05
1.11465e-05
1.13928e-05
1.0941e-05
9.25117e-06
4.80183e-06
1.53101e-06
5.26076e-08
0
0
0
0
2.84763e-05
0.00038868
0.000590529
0.00318954
0.00736234
0.0120875
0.0157268
0.0165641
0.0131512
0.00535438
0.0135237
0.0149928
0.0124453
0.00785355
0.00322777
0.000381878
0.00025305
0.000171936
7.7542e-05
1.35273e-05
0
1.48347e-07
1.46894e-06
6.52647e-06
9.27209e-06
8.93402e-06
8.3402e-06
8.24234e-06
8.45547e-06
8.75106e-06
9.06034e-06
9.37915e-06
9.70645e-06
1.00328e-05
1.03539e-05
1.06631e-05
1.09679e-05
1.1239e-05
1.15019e-05
1.16679e-05
1.18937e-05
1.18505e-05
1.22672e-05
1.18858e-05
1.29138e-05
1.14777e-05
1.44262e-05
1.0805e-05
1.80244e-05
1.44716e-05
2.50832e-05
2.32635e-05
3.3886e-05
1.06733e-05
1.07085e-05
1.07233e-05
1.07444e-05
1.07584e-05
1.07727e-05
1.08002e-05
1.08333e-05
1.0861e-05
1.08769e-05
1.08922e-05
1.09196e-05
1.09437e-05
1.09692e-05
1.09914e-05
1.11122e-05
1.13214e-05
1.147e-05
1.09641e-05
9.53191e-06
4.84151e-06
1.4442e-06
0
0
0
0
0
7.52858e-05
0.000357589
0.000672621
0.00294521
0.00641635
0.0101633
0.0128683
0.0131829
0.00991185
0.00534553
0.0112024
0.0118925
0.00964504
0.0062097
0.00313697
0.00113889
0.00016097
0.000149617
6.15296e-05
0
0
1.31134e-06
5.14148e-06
8.87641e-06
1.00603e-05
1.0091e-05
9.99218e-06
1.00046e-05
1.00847e-05
1.0186e-05
1.02959e-05
1.04113e-05
1.05297e-05
1.06479e-05
1.07728e-05
1.08852e-05
1.10031e-05
1.1037e-05
1.11098e-05
1.09528e-05
1.12655e-05
1.07923e-05
1.18094e-05
1.01131e-05
1.33451e-05
8.8462e-06
1.70384e-05
1.31718e-05
2.39544e-05
2.32311e-05
3.3769e-05
)
;

boundaryField
{
    inlet
    {
        type            calculated;
        value           nonuniform List<scalar> 
27
(
7.72749e-05
7.73428e-05
7.74504e-05
7.75866e-05
7.77307e-05
7.788e-05
7.80378e-05
7.82027e-05
7.8374e-05
7.8546e-05
7.8718e-05
7.8887e-05
7.905e-05
7.92037e-05
7.93444e-05
7.94687e-05
7.95789e-05
7.94047e-05
7.94413e-05
7.94418e-05
7.93889e-05
7.92762e-05
7.90877e-05
7.88142e-05
7.8425e-05
7.80384e-05
7.7294e-05
)
;
    }
    outlet
    {
        type            calculated;
        value           nonuniform List<scalar> 
78
(
9.61571e-06
9.67059e-06
9.69867e-06
9.73519e-06
9.76269e-06
9.79055e-06
9.83639e-06
9.88936e-06
9.93525e-06
9.9657e-06
9.99551e-06
1.00406e-05
1.0084e-05
1.01292e-05
1.01693e-05
1.02973e-05
1.04989e-05
1.06287e-05
1.01547e-05
8.87317e-06
4.58785e-06
1.39949e-06
0
0
0
0
0
7.5462e-05
0.00035718
0.000653277
0.00293204
0.00640494
0.0101569
0.0128722
0.0132041
0.00996341
0.00516824
0.0111436
0.0118605
0.00963159
0.00620824
0.00314167
0.00114615
0.000130699
0.000146126
6.00024e-05
0
0
1.22616e-06
4.85109e-06
8.41344e-06
9.54424e-06
9.5662e-06
9.45687e-06
9.44466e-06
9.48825e-06
9.54462e-06
9.6036e-06
9.66335e-06
9.72368e-06
9.78224e-06
9.85092e-06
9.90548e-06
9.97922e-06
9.94914e-06
1.00049e-05
9.74086e-06
1.01706e-05
9.4281e-06
1.08895e-05
8.27968e-06
1.27767e-05
4.57554e-06
1.67161e-05
1.24648e-05
2.35482e-05
2.32591e-05
3.28542e-05
)
;
    }
    walls
    {
        type            calculated;
        value           nonuniform List<scalar> 0();
    }
    frontAndBack
    {
        type            empty;
    }
    procBoundary7to3
    {
        type            processor;
        value           nonuniform List<scalar> 
16
(
3.29397e-05
3.45079e-05
3.00355e-05
2.7737e-05
2.60862e-05
2.41105e-05
2.18283e-05
1.97149e-05
1.68275e-05
1.68275e-05
1.5101e-05
1.34712e-05
1.23644e-05
1.11263e-05
1.16554e-05
1.0592e-05
)
;
    }
    procBoundary7to6
    {
        type            processor;
        value           nonuniform List<scalar> 
91
(
3.01653e-05
2.69083e-05
2.69083e-05
2.62655e-05
2.62655e-05
1.6875e-05
1.6875e-05
1.60884e-05
2.17073e-05
2.17073e-05
1.92684e-05
2.07817e-05
2.07817e-05
2.28905e-05
2.14745e-05
2.14092e-05
2.14092e-05
2.47231e-05
2.39227e-05
2.29542e-05
2.29542e-05
2.80575e-05
2.70462e-05
2.60471e-05
2.50629e-05
2.50629e-05
3.19367e-05
3.09438e-05
2.99603e-05
2.89891e-05
2.80315e-05
2.80315e-05
3.66133e-05
3.57654e-05
3.49024e-05
3.40265e-05
3.31417e-05
3.22513e-05
3.13583e-05
3.13583e-05
4.11383e-05
4.07391e-05
4.03123e-05
3.98558e-05
3.93679e-05
3.88482e-05
3.82967e-05
3.77137e-05
3.71003e-05
3.64588e-05
3.57901e-05
3.50965e-05
3.50965e-05
2.36452e-08
0
0
0.000578012
0.000545744
0.0051158
0.013517
0.0235563
0.0329672
0.0403006
0.0446041
0.0449592
0.0402213
0.028352
0.0167406
0.0352283
0.0427813
0.0428702
0.0365736
0.0257
0.0136208
0.00457264
0.000118015
5.83586e-05
0
0
0
7.06461e-06
2.66477e-05
4.20885e-05
4.27322e-05
4.01771e-05
3.92056e-05
3.90707e-05
3.88653e-05
3.85494e-05
3.82335e-05
3.82335e-05
)
;
    }
}


// ************************************************************************* //
