/*--------------------------------*- C++ -*----------------------------------*\
| =========                 |                                                 |
| \\      /  F ield         | OpenFOAM: The Open Source CFD Toolbox           |
|  \\    /   O peration     | Version:  2506                                  |
|   \\  /    A nd           | Website:  www.openfoam.com                      |
|    \\/     M anipulation  |                                                 |
\*---------------------------------------------------------------------------*/
FoamFile
{
    version     2.0;
    format      ascii;
    arch        "LSB;label=32;scalar=64";
    class       surfaceScalarField;
    location    "109.96836736776783";
    object      ddtCorrDdt0(phi);
}
// * * * * * * * * * * * * * * * * * * * * * * * * * * * * * * * * * * * * * //

dimensions      [0 3 -2 0 0 0 0];

oriented        oriented;

internalField   nonuniform List<scalar> 
19160
(
0.000128466
-1.31296e-05
0.000269587
-3.83422e-05
9.62828e-05
-0.000109412
0.000427852
-8.5339e-05
0.000201221
-0.000143281
6.93344e-05
-0.000178746
0.000620335
-0.000167332
0.000318287
-0.000202404
0.000144276
-0.000218222
3.65829e-05
-0.000215329
0.000858792
-0.000286062
0.000459474
-0.000308519
0.000227738
-0.000285866
7.55209e-05
-0.000257159
3.17324e-06
-0.000218502
0.00116279
-0.000455781
0.000633172
-0.00045976
0.00032707
-0.000407851
0.000117658
-0.000328002
5.39125e-06
-0.000259377
-2.88535e-05
-0.000189648
0.001555
-0.000689208
0.000853113
-0.000675721
0.000448512
-0.000581202
0.000166123
-0.000456316
5.31049e-06
-0.000327921
-6.1948e-05
-0.000226282
-5.6765e-05
-0.000132883
0.00206653
-0.00100958
0.00113503
-0.000971125
0.000601343
-0.000828553
0.000223352
-0.000638431
1.62455e-06
-0.00045263
-0.00010281
-0.000287059
-0.000120809
-0.000162238
-7.84115e-05
-5.44706e-05
0.00273143
-0.00143961
0.00149764
-0.00137219
0.000797212
-0.00116699
0.000293361
-0.000898562
-7.21096e-06
-0.000629595
-0.000157102
-0.000398337
-0.000197535
-0.000210333
-0.000166638
-7.40111e-05
-9.20584e-05
3.75885e-05
0.00358753
-0.00201173
0.00197144
-0.00191341
0.00105165
-0.00162663
0.00038155
-0.00125518
-2.2869e-05
-0.000882903
-0.000230443
-0.000556254
-0.000296646
-0.000299226
-0.00027153
-0.000105439
-0.000195695
2.96262e-05
-9.6412e-05
0.000134001
0.00469217
-0.0027668
0.00259284
-0.00263312
0.00138519
-0.00224696
0.000495401
-0.00174048
-4.68858e-05
-0.00123117
-0.000330401
-0.000782944
-0.000427514
-0.000425386
-0.000406172
-0.000164583
-0.000318707
1.7573e-05
-0.000205159
0.000138374
-9.11736e-05
0.000225176
0.00611565
-0.00375283
0.00341156
-0.00358552
0.00182317
-0.0030711
0.000646167
-0.00239772
-8.06862e-05
-0.00170668
-0.000465846
-0.00109572
-0.000603364
-0.000607094
-0.000583064
-0.000248493
-0.000476562
-6.72808e-06
-0.000334427
0.000146841
-0.000194353
0.000241555
-7.66327e-05
0.000301809
0.00794888
-0.00503045
0.00448382
-0.00482509
0.00240857
-0.00417092
0.000849589
-0.00327452
-0.000124736
-0.00235367
-0.000647885
-0.00152464
-0.000840213
-0.00085887
-0.000820329
-0.000369828
-0.000683956
-4.10984e-05
-0.000500767
0.000159612
-0.00031752
0.000270009
-0.000163884
0.000328807
-5.39093e-05
0.000355719
0.0102628
-0.00665996
0.00590249
-0.00644912
0.00319406
-0.00561058
0.00113508
-0.00445641
-0.000176031
-0.00322323
-0.00089019
-0.00211137
-0.00115908
-0.00120577
-0.00114026
-0.000538939
-0.0009626
-9.11843e-05
-0.000719859
0.000177995
-0.000476888
0.000318981
-0.000268904
0.00037503
-0.00011614
0.000391039
-2.47133e-05
0.000380434
0.0131522
-0.00864577
0.00772352
-0.00848099
0.00425976
-0.00751483
0.00154273
-0.00601823
-0.000223675
-0.00440877
-0.00120567
-0.00290775
-0.00158726
-0.00168318
-0.00157297
-0.000773061
-0.00133947
-0.000162072
-0.00101516
0.00020412
-0.000687777
0.000388885
-0.000406164
0.000456241
-0.000192413
0.000451304
-5.47506e-05
0.000421077
8.54236e-06
0.000371892
0.0168371
-0.010974
0.00999462
-0.0109169
0.00565626
-0.00987749
0.00212066
-0.00809275
-0.000249939
-0.00599197
-0.00160725
-0.00400719
-0.00215562
-0.0023394
-0.00215837
-0.00109778
-0.00185175
-0.000260776
-0.001416
0.000238769
-0.00097328
0.000489623
-0.000589259
0.00057198
-0.000294233
0.000558061
-9.3904e-05
0.000490458
1.51783e-05
0.000414443
4.32823e-05
0.000328611
0.0218286
-0.0135884
0.0127778
-0.0137571
0.00751168
-0.0127723
0.00289661
-0.0106534
-0.000259339
-0.00808335
-0.00211315
-0.00548606
-0.00290483
-0.00325798
-0.0029457
-0.00155207
-0.00254934
-0.000400187
-0.00196334
0.000286559
-0.00136233
0.000627821
-0.000838748
0.000739113
-0.000432253
0.000710001
-0.00014977
0.000613929
1.83454e-05
0.000487292
8.8206e-05
0.00036952
7.67088e-05
0.000251904
0.028739
-0.0161982
0.0163414
-0.017152
0.0100835
-0.016329
0.00408345
-0.0139591
-0.000221617
-0.0106912
-0.00279374
-0.00740277
-0.00390189
-0.004489
-0.00400506
-0.00219862
-0.00349775
-0.000603662
-0.00271254
0.000349017
-0.00189553
0.000819761
-0.00118035
0.000969423
-0.000622588
0.000929448
-0.000229129
0.00078936
1.49012e-05
0.000617374
0.000135528
0.000439971
0.000158426
0.000287804
0.000106309
0.000145596
0.0381379
-0.0177936
0.0208497
-0.0207064
0.0136487
-0.0207172
0.00612043
-0.0183659
0.000200712
-0.0143815
-0.00359443
-0.00989047
-0.00527622
-0.00602844
-0.00545561
-0.00303845
-0.00479398
-0.000902378
-0.00373992
0.000423714
-0.00262804
0.00108153
-0.00165002
0.00128943
-0.000885262
0.0012321
-0.000342187
0.00104251
2.45833e-06
0.000801804
0.000186706
0.000566197
0.000248122
0.000350275
0.000220516
0.000173599
0.000129921
1.56762e-05
0.0499301
-0.0168436
0.0265159
-0.0234598
0.0180814
-0.0251392
0.00933444
-0.0239312
0.00156862
-0.0197339
-0.00407199
-0.0139039
-0.00693625
-0.00823044
-0.0074637
-0.00402035
-0.00659778
-0.00123465
-0.00515984
0.000517549
-0.00363853
0.00143421
-0.0022967
0.00172821
-0.00124785
0.00165202
-0.000501447
0.00139136
-2.25024e-05
0.00106747
0.000243824
0.000744688
0.000351597
0.000462723
0.000347569
0.000223223
0.000269892
3.36294e-05
0.000145598
-0.000129921
0.0626842
-0.0134048
0.0342855
-0.0246133
0.023037
-0.0284154
0.0133877
-0.0291924
0.00402068
-0.0263833
-0.00369655
-0.0201093
-0.00843267
-0.0124075
-0.00993028
-0.00576386
-0.00908962
-0.00152851
-0.00714471
0.000750217
-0.00504279
0.00192181
-0.00319178
0.00232928
-0.00174784
0.0022282
-0.000723378
0.00187395
-6.40679e-05
0.00143292
0.000310134
0.00100116
0.000475063
0.000621222
0.000497
0.000313294
0.000426557
6.65595e-05
0.000302465
-0.000123236
0.000152359
-0.000282278
0.0742823
-0.00874114
0.0446746
-0.0237938
0.0284603
-0.0300365
0.0175912
-0.0326188
0.00698891
-0.0321607
-0.00270061
-0.0273792
-0.00947864
-0.0190633
-0.0125512
-0.00978653
-0.0122523
-0.00260122
-0.00987256
0.00119934
-0.00699131
0.00269874
-0.00443566
0.00316569
-0.00244037
0.00302182
-0.00103021
0.00253503
-0.00012635
0.00193623
0.000389897
0.00135316
0.000627956
0.000848269
0.000678486
0.000439737
0.000612286
0.000127565
0.000478615
-0.000109589
0.000316255
-0.000287131
0.000149544
-0.00043182
0.0824188
-0.00423763
0.0573575
-0.0214241
0.0346208
-0.0299544
0.0216566
-0.0341019
0.00980982
-0.0354397
-0.00186467
-0.0329966
-0.0107545
-0.0261034
-0.0154485
-0.0161661
-0.016086
-0.00595282
-0.0135101
0.0010363
-0.00964353
0.00385156
-0.00613281
0.00439588
-0.00339843
0.00412375
-0.00145392
0.00344553
-0.000214663
0.00262335
0.00049111
0.00183502
0.000821967
0.00115915
0.000906525
0.00062023
0.000839369
0.000212656
0.000688176
-8.19944e-05
0.000500662
-0.000293994
0.000310108
-0.000447694
0.000137258
-0.000569076
0.0858381
-0.00114253
0.0704954
-0.0173755
0.0417554
-0.0285587
0.025612
-0.0339098
0.0123416
-0.0366337
-0.00142478
-0.0358796
-0.0129353
-0.0308158
-0.0195098
-0.0220421
-0.0211391
-0.011113
-0.0185212
-0.000941672
-0.013371
0.00476372
-0.00840784
0.00612659
-0.00467492
0.00567238
-0.00203347
0.0047033
-0.000334541
0.00356541
0.000624651
0.00248981
0.00107558
0.00158141
0.00119875
0.000866926
0.00112592
0.000333683
0.000945076
-4.42423e-05
0.000720357
-0.000301688
0.000490945
-0.000474829
0.000284509
-0.000594943
0.000116065
-0.00068514
0.0860983
-0.000601533
0.0812035
-0.0118507
0.0498912
-0.0255112
0.0294912
-0.0324379
0.0145437
-0.036112
-0.0010908
-0.0369677
-0.0155586
-0.0332563
-0.0250361
-0.0252894
-0.027796
-0.0153852
-0.0257197
-0.00391452
-0.0190121
0.00469945
-0.0117665
0.00812242
-0.00634376
0.00779542
-0.00277609
0.006415
-0.000489546
0.00485831
0.000810365
0.0033797
0.00141314
0.00215225
0.0015816
0.00119856
0.00149376
0.000499081
0.00126943
9.32611e-06
0.000989941
-0.000313825
0.000706491
-0.000517232
0.000450303
-0.000640622
0.000240681
-0.000719557
8.77104e-05
-0.000772848
0.0846757
-1.18122e-05
0.0886173
-0.0080153
0.0586484
-0.0206079
0.0336145
-0.0296346
0.016302
-0.0341962
-0.000751694
-0.0364511
-0.0180704
-0.0344559
-0.0307559
-0.0275366
-0.0361452
-0.0169401
-0.0348272
-0.00627768
-0.027233
0.00430641
-0.0171809
0.0101139
-0.00891664
0.0106953
-0.00368367
0.008703
-0.000651229
0.00657668
0.0010768
0.00459187
0.00187496
0.00291789
0.00208909
0.00164476
0.00197431
0.000718012
0.00168548
8.30305e-05
0.00133001
-0.000330744
0.00097106
-0.000578393
0.000647957
-0.000714885
0.000380729
-0.000780668
0.00018193
-0.000813775
5.41595e-05
-0.000827006
0.0828538
-0.000408195
0.0911196
-0.00251413
0.0663614
-0.0157283
0.0385861
-0.0255795
0.0176904
-0.031023
-0.00046928
-0.0344786
-0.0201782
-0.0343433
-0.0361132
-0.0290986
-0.0443093
-0.0193725
-0.0438283
-0.007939
-0.037478
0.00396733
-0.0249105
0.012036
-0.0133644
0.0145616
-0.00510547
0.0121171
-0.000742963
0.00879474
0.00147813
0.00617535
0.00251467
0.00395216
0.00277494
0.00223204
0.00260741
0.00101166
0.0022266
0.000176893
0.00176558
-0.000352536
0.00130439
-0.000664069
0.000890581
-0.000821016
0.000547717
-0.000881872
0.000287477
-0.000886214
0.000111984
-0.000871598
1.74268e-05
-0.000844431
0.0811557
-0.000912038
0.0920024
-0.00129098
0.070637
-0.00678972
0.0435947
-0.0207369
0.0190877
-0.0269767
-0.000515646
-0.0309766
-0.0218734
-0.0327835
-0.0409178
-0.0295386
-0.0521046
-0.0213033
-0.053195
-0.0100058
-0.0473659
0.00194891
-0.0342103
0.0132671
-0.0199696
0.0186412
-0.00789881
0.017355
-0.000824234
0.0121984
0.00214011
0.00813276
0.0034061
0.00528392
0.00370851
0.00301858
0.00345281
0.00138663
0.00293513
0.000303141
0.00232945
-0.000386971
0.00173077
-0.000778919
0.00119596
-0.000969444
0.000752711
-0.00102601
0.000413298
-0.00100769
0.000176443
-0.000950671
3.52686e-05
-0.000889438
-2.03181e-05
-0.00082411
0.0799402
-0.00111311
0.0917745
-0.000684174
0.0739088
-0.0045628
0.0470534
-0.0102485
0.0204548
-0.022104
-0.00077068
-0.0267217
-0.0232796
-0.0295704
-0.0451465
-0.0285548
-0.0595739
-0.0220693
-0.0631787
-0.0113196
-0.0568781
-0.000493667
-0.0450709
0.0128095
-0.02813
0.0214274
-0.0127291
0.0234715
-0.00144079
0.0179715
0.00329259
0.0110459
0.00467614
0.00686272
0.00498071
0.00401172
0.00458591
0.00188549
0.00387042
0.00045134
0.00306395
-0.000431362
0.00228052
-0.000936718
0.00158634
-0.0011693
0.00101065
-0.00122738
0.000567801
-0.00118051
0.000253124
-0.00108437
5.45806e-05
-0.000969981
-4.29402e-05
-0.000866814
-5.6644e-05
-0.000767464
0.0793636
-0.00113263
0.0910898
-0.000428406
0.0759389
-0.00271427
0.0503615
-0.00787087
0.0217631
-0.0115567
-0.00136543
-0.0215093
-0.0242505
-0.0257509
-0.0484751
-0.0262417
-0.0664833
-0.0216454
-0.0730698
-0.0121782
-0.0684555
0.000257906
-0.056785
0.0112205
-0.0378982
0.0225778
-0.0194376
0.0281359
-0.00351059
0.0255413
0.00486928
0.0163949
0.00672214
0.0089999
0.00668808
0.00515535
0.00610976
0.00248787
0.00510654
0.000649364
0.00402347
-0.000508175
0.00299408
-0.00114492
0.00208831
-0.00143869
0.00134046
-0.00149911
0.000762417
-0.00142199
0.000347108
-0.00127449
7.73121e-05
-0.0011071
-6.98588e-05
-0.00094306
-0.000117557
-0.000805899
-8.85996e-05
-0.000678862
0.079233
-0.00116844
0.0903558
-0.000398582
0.0769405
-0.00142997
0.0531315
-0.00548424
0.0230258
-0.00913358
-0.00130666
-0.0116155
-0.025479
-0.0202807
-0.0507955
-0.0234305
-0.0720889
-0.0206361
-0.0822391
-0.0124761
-0.0797648
-0.000868998
-0.0675881
0.0110609
-0.0494815
0.0228037
-0.0272618
0.030402
-0.00744376
0.0320691
0.00599305
0.0244175
0.00998352
0.0131335
0.00922892
0.00645906
0.00809192
0.00317319
0.00674723
0.000847185
0.00527774
-0.000604911
0.00391828
-0.00143237
0.00273879
-0.0017954
0.00176425
-0.00186247
0.00101139
-0.00174808
0.000465352
-0.00154023
0.000105058
-0.00130224
-0.000102559
-0.0010744
-0.000188628
-0.000871987
-0.000183658
-0.000710838
-0.000113201
-0.000565659
0.0798245
-0.000736523
0.0894761
-0.00028876
0.0770962
-0.000554273
0.0550917
-0.00339022
0.0240408
-0.00649919
-0.00143026
-0.00900998
-0.0255537
-0.0115409
-0.0530983
-0.0179779
-0.0770378
-0.0184816
-0.0902936
-0.0125816
-0.0905148
-0.001726
-0.0784563
0.00999925
-0.0591123
0.0206918
-0.035287
0.0308289
-0.0127826
0.0357408
0.00557053
0.0324916
0.0140259
0.0203751
0.0133635
0.0089989
0.0108149
0.00373604
0.00885353
0.00106689
0.00691657
-0.000791647
0.00511838
-0.00180501
0.00357655
-0.00227013
0.00231363
-0.00234479
0.00133217
-0.00218325
0.000618502
-0.00190123
0.00013979
-0.00157497
-0.000143698
-0.0012611
-0.000274338
-0.000988686
-0.000293704
-0.000761939
-0.000236081
-0.000587955
-0.000129262
-0.000436395
0.0808048
-0.000209129
0.0888015
-6.19171e-05
0.0767341
7.32933e-05
0.0561252
-0.00158774
0.0244314
-0.00378081
-0.00173644
-0.00619301
-0.025721
-0.00884269
-0.0533694
-0.0112698
-0.0811167
-0.013899
-0.0983441
-0.0104312
-0.100488
-0.00260884
-0.0890729
0.0088906
-0.0690742
0.0199612
-0.0441248
0.0295296
-0.0187712
0.0368175
0.0032875
0.0380239
0.0173661
0.0291514
0.0194213
0.0143173
0.0150359
0.00477789
0.0115713
0.00101823
0.00901551
-0.00103205
0.00666046
-0.00233372
0.00466234
-0.00289081
0.00302045
-0.00297694
0.00174947
-0.00276209
0.000816566
-0.00238131
0.000185087
-0.00194653
-0.000195594
-0.00152307
-0.000381656
-0.00115378
-0.000426961
-0.000855427
-0.000377053
-0.000620964
-0.000271278
-0.000445937
-0.000136231
-0.000300162
0.0819162
0.000412088
0.0880861
0.000506287
0.0758853
0.000786895
0.0563143
-0.000115807
0.0239883
-0.0011447
-0.00230831
-0.00320893
-0.0255404
-0.00637362
-0.053688
-0.00852409
-0.0813673
-0.0110192
-0.103873
-0.00837039
-0.110093
-0.000825845
-0.0999382
0.0082565
-0.0790552
0.0188716
-0.0526352
0.0284716
-0.0253552
0.0361136
-0.000267954
0.0403729
0.0189403
0.0364497
0.026162
0.0224108
0.0217821
0.00757117
0.0154009
0.000948349
0.0116259
-0.00159212
0.00864025
-0.00301184
0.00604243
-0.0037138
0.00393768
-0.00380804
0.00228924
-0.0035167
0.00107654
-0.00302207
0.000246081
-0.0024423
-0.000261557
-0.00188056
-0.000518032
-0.00138669
-0.000593464
-0.000987272
-0.000548406
-0.000684072
-0.000433054
-0.000459186
-0.000286716
-0.00029545
-0.000133443
-0.000166716
0.0827836
0.00124121
0.0871005
0.00139764
0.0745944
0.00179723
0.0557402
0.00136098
0.0224051
0.00146744
-0.00329851
-0.0001545
-0.0247544
-0.00399493
-0.0543466
-0.005715
-0.0813245
-0.00856692
-0.104319
-0.0105724
-0.115658
-0.00280521
-0.1076
0.00683541
-0.0882414
0.0174427
-0.0607034
0.0269398
-0.0314876
0.034604
-0.0042703
0.0401159
0.0187696
0.0405437
0.0319943
0.0306173
0.0306764
0.0135165
0.0215642
0.00140782
0.0149729
-0.00239869
0.0110596
-0.00401148
0.00781261
-0.00478203
0.00510038
-0.0048765
0.0029935
-0.0045123
0.00141836
-0.00385852
0.000330193
-0.00310618
-0.000344184
-0.00235968
-0.00069303
-0.00170556
-0.000806014
-0.00117414
-0.000762762
-0.000772914
-0.000630359
-0.000486765
-0.000457675
-0.000288224
-0.000280724
-0.000148167
-0.000121062
-4.5652e-05
0.0819136
0.00448754
0.0857323
0.0026094
0.0726794
0.00331259
0.0540645
0.00347289
0.0196538
0.00411224
-0.00442525
0.00259418
-0.0234891
-0.00141981
-0.0554422
-0.00289931
-0.0814422
-0.00559731
-0.104489
-0.00839757
-0.117157
-0.00907301
-0.114023
0.00361863
-0.0954441
0.0140381
-0.0679513
0.0246906
-0.037
0.0324522
-0.00799485
0.0383286
0.0174973
0.0413882
0.0359811
0.0365569
0.0402217
0.021072
0.0307421
0.00433864
0.0198976
-0.00351692
0.0140232
-0.00536233
0.00996718
-0.00616605
0.00659648
-0.00627813
0.00389854
-0.00578154
0.00187195
-0.00496589
0.000448717
-0.00397704
-0.000445921
-0.00300444
-0.000917717
-0.00213499
-0.0010806
-0.00143097
-0.00103724
-0.000899657
-0.000877482
-0.000525789
-0.00066661
-0.000277828
-0.000448153
-0.000120792
-0.000254077
-1.51487e-05
-9.97015e-05
5.40527e-05
0.0792542
0.00565499
0.0817054
0.00851444
0.070041
0.00524777
0.0513509
0.00602626
0.0167165
0.00641025
-0.0052235
0.00491049
-0.0223308
0.00143595
-0.0566892
-0.00017287
-0.0818543
-0.00248716
-0.104597
-0.00548876
-0.11855
-0.00700469
-0.118012
-0.00508416
-0.103214
0.0113886
-0.07522
0.0213068
-0.0418825
0.0295731
-0.0111373
0.0355946
0.0159469
0.039879
0.0380922
0.0392772
0.0487296
0.0280489
0.0422467
0.00956737
0.0277093
-0.00347302
0.0177871
-0.0072808
0.0126044
-0.00799952
0.00843738
-0.00800694
0.00506805
-0.00744764
0.00247281
-0.0063824
0.000618964
-0.00513614
-0.000566745
-0.00385622
-0.00120556
-0.00271659
-0.00143647
-0.00177911
-0.00139335
-0.00107486
-0.00119529
-0.000581843
-0.000928766
-0.00026363
-0.000652925
-7.30533e-05
-0.000405625
3.07586e-05
-0.000208554
9.37068e-05
-7.0875e-05
0.00012493
0.0744972
0.00691553
0.076035
0.0113254
0.0654569
0.0130986
0.0481016
0.00849705
0.0145765
0.00816623
-0.00566801
0.00685477
-0.0218984
0.00447811
-0.0577893
0.00253607
-0.0825551
0.000527954
-0.104621
-0.00246399
-0.11935
-0.00468876
-0.12084
-0.00417677
-0.108201
-9.67713e-05
-0.0822654
0.018434
-0.0464928
0.0259171
-0.0135062
0.031942
0.0145816
0.0369599
0.0390507
0.0389204
0.0552025
0.0328043
0.0544383
0.0158573
0.0387424
-0.00146572
0.0235763
-0.00926222
0.015631
-0.0103074
0.0107179
-0.01028
0.00655074
-0.00948962
0.00326866
-0.00824349
0.000869084
-0.00663252
-0.000704172
-0.00499871
-0.00157022
-0.00349155
-0.00189896
-0.00225411
-0.00185941
-0.00131305
-0.00160976
-0.000660392
-0.00126684
-0.000243766
-0.000910284
-6.26967e-06
-0.000590906
0.00011223
-0.000332863
0.00015507
-0.000147607
0.000170441
-3.66529e-05
0.000161586
0.0685167
0.00892718
0.068835
0.0141155
0.0598581
0.0169242
0.0432122
0.017988
0.0134093
0.00966429
-0.00614295
0.00864117
-0.0228623
0.00781863
-0.0585104
0.00519921
-0.0835051
0.00348604
-0.104691
0.000598903
-0.11964
-0.00217387
-0.122455
-0.00307436
-0.111464
-0.000914628
-0.0870345
0.00467235
-0.0503014
0.0222426
-0.0148391
0.0272501
0.0135223
0.0330014
0.039392
0.0366187
0.0597012
0.0344217
0.0656523
0.0215903
0.0522964
0.00230332
0.0323573
-0.0102467
0.0197156
-0.0133468
0.0133419
-0.0129314
0.00842969
-0.012159
0.00433456
-0.0105555
0.00123581
-0.00861022
-0.000844982
-0.00649171
-0.00202781
-0.00454113
-0.00249704
-0.00289347
-0.00247074
-0.00164278
-0.00215414
-0.000768671
-0.00170921
-0.000218017
-0.00124283
8.87812e-05
-0.000824026
0.000226853
-0.000484606
0.000263976
-0.000235356
0.000242822
-7.56251e-05
0.000209417
2.01697e-07
0.000161387
0.0622638
0.0107973
0.0613957
0.0163665
0.0534897
0.0204839
0.0382326
0.0219038
0.0135607
0.0178365
-0.00711865
0.01064
-0.0252678
0.0110467
-0.0588626
0.00817079
-0.0842983
0.00599237
-0.104747
0.00354199
-0.119414
0.000372489
-0.123062
-0.00156601
-0.113395
-0.00114324
-0.0905878
0.00263865
-0.0546626
0.00903347
-0.0139413
0.0213448
0.0123293
0.028443
0.0393472
0.0330461
0.0626547
0.0336652
0.0747889
0.0252851
0.0668882
0.00699846
0.0443407
-0.00968004
0.0258549
-0.016386
0.0164902
-0.0164951
0.010764
-0.0152657
0.00575963
-0.0135841
0.00180524
-0.0111249
-0.000966483
-0.00848872
-0.00258697
-0.00593254
-0.00326864
-0.00376952
-0.0032723
-0.00209191
-0.00287455
-0.000922373
-0.00229354
-0.000184343
-0.00167903
0.000218181
-0.00112554
0.0003903
-0.000675565
0.000417815
-0.000342103
0.000370725
-0.000120151
0.000287351
1.70656e-06
0.000207915
3.6932e-05
0.000124459
0.0550946
0.0111165
0.0540192
0.0181738
0.0466954
0.0231608
0.0335187
0.0251978
0.0127999
0.0226647
-0.00868342
0.0194013
-0.0285195
0.0138917
-0.059192
0.0113761
-0.0847543
0.00862687
-0.104849
0.00609363
-0.118804
0.00293207
-0.122853
0.000162826
-0.114031
-0.000930204
-0.0926975
0.000966477
-0.0583999
0.006376
-0.0151046
0.0101968
0.0105308
0.0231434
0.0384859
0.0293044
0.0647413
0.0309595
0.0817635
0.0266906
0.0805661
0.0116071
0.0590711
-0.00773191
0.034546
-0.0183711
0.0206049
-0.0205007
0.0135078
-0.019239
0.0077062
-0.0172123
0.00267918
-0.014458
-0.000988399
-0.011103
-0.00324829
-0.0078274
-0.00425075
-0.00495043
-0.00432482
-0.002717
-0.00382983
-0.00113662
-0.00307213
-0.000143778
-0.0022574
0.000394029
-0.00152155
0.000614187
-0.000922443
0.00063718
-0.000476245
0.000551959
-0.000173773
0.000424349
3.60469e-06
0.000285456
7.87273e-05
0.000166123
7.07145e-05
5.37473e-05
0.0458381
0.0121869
0.0455627
0.019573
0.0393528
0.0255164
0.0281497
0.0285299
0.0102361
0.0277616
-0.0108175
0.0247988
-0.0319819
0.0228637
-0.0597248
0.0144245
-0.0849363
0.0115581
-0.104689
0.00846698
-0.118159
0.00544878
-0.121908
0.00198716
-0.113651
-0.000216476
-0.0931461
-0.000481606
-0.0610846
0.00365112
-0.0164196
0.00769102
0.0068496
0.0138779
0.0368362
0.0247931
0.0660655
0.0279802
0.0871441
0.0255789
0.0924901
0.0147666
0.0749458
-0.00426759
0.0461911
-0.019377
0.0262358
-0.0240021
0.016633
-0.0236259
0.0100741
-0.0216068
0.0039952
-0.0185283
-0.000835185
-0.0146112
-0.00396396
-0.0103874
-0.00547781
-0.00660034
-0.0056978
-0.00357744
-0.00510057
-0.00144627
-0.00411313
-9.56166e-05
-0.00303088
0.000629709
-0.00204777
0.000920256
-0.00124665
0.000938393
-0.0006492
0.000810137
-0.000240755
0.000618944
6.93781e-06
0.000421019
0.000126795
0.000237391
0.000149569
8.72712e-05
9.91242e-05
-4.5373e-05
0.0355459
0.0136503
0.0358269
0.0219227
0.0313616
0.0275641
0.0221591
0.031507
0.00667563
0.0320903
-0.0128991
0.0298431
-0.0343601
0.0271769
-0.0590197
0.0221586
-0.085141
0.0146292
-0.104599
0.0114683
-0.117421
0.0077288
-0.120586
0.00412723
-0.112357
0.000693092
-0.0922482
-0.00111436
-0.0623265
0.000760331
-0.0181758
0.00540725
0.00386912
0.0106715
0.0327173
0.0179968
0.0669794
0.0238792
0.0915193
0.023605
0.102019
0.0160504
0.0907637
-0.00105133
0.0606303
-0.0187068
0.0339259
-0.027067
0.0204967
-0.0278658
0.0127849
-0.0263367
0.00569864
-0.0233103
-0.000475481
-0.018888
-0.00475713
-0.013818
-0.00697473
-0.00889044
-0.00746999
-0.00482815
-0.00678922
-0.00188879
-0.00551635
-4.30457e-05
-0.00407104
0.000944545
-0.00275298
0.00133492
-0.00167745
0.00135106
-0.000875784
0.00116498
-0.000326298
0.000895681
1.18781e-05
0.000614006
0.000186643
0.000361174
0.000239994
0.000146969
0.000209139
-2.27399e-05
0.000120166
-0.000165536
0.0264074
0.0149027
0.0261275
0.0233497
0.0234867
0.0297976
0.0155626
0.0341607
0.00233948
0.0358431
-0.0154008
0.0345921
-0.0359011
0.0313841
-0.058652
0.0268092
-0.0829532
0.0199708
-0.104316
0.0143458
-0.116378
0.0104255
-0.119099
0.00624158
-0.109959
0.00172871
-0.0900253
-0.00152979
-0.0613884
-0.00205248
-0.0205263
0.00311088
0.00177186
0.00750451
0.0288081
0.0145807
0.0647172
0.020259
0.0944078
0.0209907
0.110288
0.0153355
0.104493
0.00232108
0.0766371
-0.0170581
0.0441908
-0.0289717
0.0253371
-0.0319074
0.0159638
-0.0310448
0.00784062
-0.0284787
0.00012175
-0.0239075
-0.00570158
-0.0179435
-0.00892054
-0.0118722
-0.00978135
-0.00657908
-0.00902647
-0.0025909
-0.0073911
-1.40379e-05
-0.0054777
0.00136361
-0.00370465
0.00189622
-0.00225466
0.00191213
-0.00117584
0.00165112
-0.000437369
0.00127605
1.97662e-05
0.000887796
0.000262747
0.000537906
0.000351541
0.00024963
0.000335057
2.10539e-05
0.0002531
-0.00015567
0.000132433
-0.000297965
0.0187399
0.0144081
0.0179809
0.0230493
0.0161885
0.0306479
0.00928586
0.0360743
-0.00229549
0.0387957
-0.0181295
0.0385718
-0.0370525
0.0357435
-0.0580238
0.0307559
-0.0800068
0.0238629
-0.100205
0.0158598
-0.114208
0.0121753
-0.115781
0.00710703
-0.105843
0.00212544
-0.0859971
-0.00229947
-0.0585139
-0.0044043
-0.0229604
0.000381588
0.000540805
0.00434194
0.0256943
0.0106183
0.0629101
0.0163877
0.0930059
0.021661
0.116052
0.0152272
0.116859
0.0029699
0.0928274
-0.0138692
0.0565585
-0.0294259
0.0315083
-0.0351428
0.019544
-0.0354876
0.0105496
-0.0337538
0.0012481
-0.029605
-0.00660389
-0.0230052
-0.0114115
-0.0154525
-0.0129623
-0.00869128
-0.0120876
-0.00351795
-0.00993511
-4.68841e-05
-0.00738853
0.0018968
-0.00499595
0.00265491
-0.00303367
0.00267523
-0.00157632
0.00231261
-0.000582493
0.00179625
3.18922e-05
0.00126393
0.000362729
0.000787816
0.000492474
0.000396976
0.000489757
9.4933e-05
0.000405104
-0.000130947
0.000278359
-0.000301592
0.000135176
-0.000433138
0.0128856
0.011986
0.011835
0.020554
0.0100615
0.0291763
0.00401251
0.0359213
-0.00627677
0.0400556
-0.0203255
0.0409917
-0.0375017
0.039021
-0.0564677
0.0341874
-0.0762314
0.0269805
-0.0940727
0.017731
-0.106599
0.00825099
-0.110246
0.00664096
-0.0995245
0.00078899
-0.0797862
-0.0040855
-0.0543023
-0.00651108
-0.0244053
-0.00295934
5.23294e-05
0.000870064
0.0241
0.00593621
0.0613092
0.0122192
0.0918094
0.0175842
0.116014
0.0216989
0.127308
0.00477752
0.107369
-0.0115714
0.0707418
-0.0280525
0.039011
-0.0369286
0.0234173
-0.0390162
0.0135708
-0.0385088
0.00306212
-0.0355678
-0.00693984
-0.0292691
-0.0139918
-0.020425
-0.0169937
-0.0114211
-0.0163805
-0.0043984
-0.0135206
6.7571e-05
-0.0100227
0.00258725
-0.00676095
0.0036618
-0.00409006
0.00371131
-0.00211397
0.00321288
-0.000773385
0.00250351
5.15393e-05
0.0017766
0.000495742
0.00113092
0.000675905
0.000604387
0.000684541
0.000202194
0.000591324
-9.12843e-05
0.000445411
-0.000297996
0.000282676
-0.000449089
0.000128726
-0.000561859
0.00913712
0.00881991
0.00781451
0.0160065
0.0059931
0.0246224
0.000664812
0.032524
-0.00847661
0.0381211
-0.020902
0.0406321
-0.0362164
0.0397063
-0.053183
0.0357363
-0.0704557
0.0284117
-0.0861183
0.0190261
-0.0966396
0.00777151
-0.099073
-0.0029221
-0.0915093
-0.00137423
-0.0726183
-0.00637897
-0.0495815
-0.00880621
-0.0242724
-0.00664402
2.79306e-05
-0.00293495
0.0233986
0.00157153
0.0594469
0.0077985
0.0903111
0.0137175
0.115896
0.0177014
0.129899
0.0191087
0.121965
-0.00981845
0.0843678
-0.0251974
0.0480631
-0.0371046
0.0274983
-0.0410096
0.0164363
-0.0418817
0.00503572
-0.0404824
-0.00675282
-0.0357548
-0.0161905
-0.0270703
-0.0211941
-0.0162246
-0.0216966
-0.00610503
-0.0185318
0.000612799
-0.0137677
0.00381261
-0.0092188
0.0050451
-0.00553996
0.00511171
-0.0028386
0.00443594
-0.00102424
0.00346373
8.27043e-05
0.00247234
0.000676061
0.00159629
0.000917743
0.000889084
0.000936822
0.000352108
0.00082525
-3.17285e-05
0.000649497
-0.000295367
0.000452505
-0.000467821
0.000266273
-0.000586632
0.000109793
-0.000671649
0.00680995
0.0061632
0.00560682
0.0110276
0.00397032
0.0180293
-0.000518588
0.0258058
-0.00825961
0.032307
-0.0190434
0.0362625
-0.0323626
0.0367783
-0.0472077
0.0337311
-0.0619847
0.0272652
-0.0753148
0.0176082
-0.0842294
0.00661579
-0.0862215
-0.00508004
-0.0798919
-0.0145395
-0.0653333
-0.00865918
-0.0448862
-0.0110743
-0.0232139
-0.00986468
-0.000555592
-0.00606049
0.0227497
-0.00228611
0.0573229
0.00369558
0.0885921
0.00951747
0.115582
0.0140319
0.13149
0.0161102
0.129311
0.0117618
0.0976002
-0.0230508
0.0576978
-0.0348321
0.0317548
-0.0413612
0.0188701
-0.0434433
0.00665834
-0.0435043
-0.00696488
-0.0402703
-0.0185457
-0.0333995
-0.0256502
-0.0226142
-0.0274857
-0.0104355
-0.0246744
3.75469e-05
-0.0188713
0.00571645
-0.0126675
0.00726132
-0.00755929
0.00706443
-0.0038311
0.00610421
-0.00135416
0.00476587
0.000134322
0.00341212
0.000922091
0.00222632
0.00124135
0.00127268
0.00126771
0.0005582
0.00112714
5.02258e-05
0.000905485
-0.000287714
0.000659352
-0.000502211
0.000426407
-0.000627952
0.000231656
-0.000708492
8.2037e-05
-0.000753682
0.00515335
0.00428519
0.00435006
0.00741996
0.00309642
0.0119015
-0.000267686
0.0177784
-0.00623314
0.0237793
-0.0150206
0.0282841
-0.0261019
0.0300019
-0.0385846
0.0281552
-0.0510939
0.0228402
-0.0619491
0.0138995
-0.0694948
0.00287363
-0.071289
-0.00831668
-0.0670873
-0.0178846
-0.0565348
-0.0233381
-0.0405685
-0.0129769
-0.0219083
-0.0123799
-0.0012831
-0.00913718
0.0226209
-0.00593162
0.0554814
-0.000444636
0.0871584
0.00512927
0.114963
0.0101365
0.132908
0.0126135
0.133166
0.0122557
0.109579
-0.000217347
0.0662855
-0.0316386
0.0364945
-0.0395718
0.0204501
-0.0429412
0.00771877
-0.0445038
-0.00779007
-0.0426791
-0.0221509
-0.0366651
-0.0313569
-0.0276928
-0.0345847
-0.0155153
-0.0320489
-0.00306098
-0.0252529
0.00641906
-0.0172596
0.0103086
-0.0103017
0.0100037
-0.0051941
0.00842744
-0.00179529
0.00654533
0.000218327
0.00468187
0.00126355
0.00307066
0.00167686
0.00179081
0.00170708
0.000833313
0.0015215
0.000163834
0.00123494
-0.000279229
0.000918646
-0.000547004
0.000621182
-0.000696983
0.000368615
-0.000764906
0.000175832
-0.000802283
5.06226e-05
-0.000804301
0.00387568
0.00293288
0.00340729
0.00522795
0.00256414
0.00795224
0.000257375
0.0113764
-0.00388043
0.0154257
-0.0103245
0.0190833
-0.0188671
0.0210493
-0.0287743
0.0201915
-0.0388832
0.0159446
-0.0477273
0.00861847
-0.0541288
-0.00146656
-0.0561619
-0.0122535
-0.0538089
-0.0215951
-0.0472646
-0.0271548
-0.0363854
-0.0275211
-0.0203536
-0.0145316
-0.00137221
-0.0122908
0.0228775
-0.0093938
0.0543752
-0.00482545
0.0863939
0.000319853
0.11467
0.0054227
0.133695
0.00934968
0.136303
0.00947651
0.118389
0.00344576
0.0767843
-0.0107161
0.0405196
-0.0356636
0.0215616
-0.0406833
0.00778281
-0.0430052
-0.00919483
-0.043099
-0.0266063
-0.0382237
-0.0392717
-0.0287503
-0.0440587
-0.0182188
-0.0420477
-0.00551644
-0.033635
0.00532119
-0.0233801
0.0125396
-0.0139066
0.0139135
-0.00693465
0.0117443
-0.00237026
0.00900241
0.000355546
0.00640812
0.00173927
0.00420615
0.00227009
0.00247743
0.00229347
0.00120442
0.00204196
0.000312858
0.001664
-0.000265216
0.00125184
-0.000612419
0.000865448
-0.000791267
0.000537533
-0.000865898
0.000281967
-0.000871037
0.000107753
-0.00085941
1.45837e-05
-0.00081888
0.00290733
0.00195115
0.00262305
0.00371712
0.00208408
0.00570802
0.00051223
0.00769739
-0.00225931
0.00975532
-0.00660902
0.0117102
-0.0126028
0.012819
-0.0198794
0.0121544
-0.0275877
0.00889606
-0.0346183
0.00283563
-0.0398598
-0.00565052
-0.0424663
-0.0151622
-0.0419569
-0.0241055
-0.0386756
-0.030184