/*--------------------------------*- C++ -*----------------------------------*\
| =========                 |                                                 |
| \\      /  F ield         | OpenFOAM: The Open Source CFD Toolbox           |
|  \\    /   O peration     | Version:  2506                                  |
|   \\  /    A nd           | Website:  www.openfoam.com                      |
|    \\/     M anipulation  |                                                 |
\*---------------------------------------------------------------------------*/
FoamFile
{
    version     2.0;
    format      ascii;
    arch        "LSB;label=32;scalar=64";
    class       volScalarField;
    location    "100";
    object      nut;
}
// * * * * * * * * * * * * * * * * * * * * * * * * * * * * * * * * * * * * * //

dimensions      [0 2 -1 0 0 0 0];

internalField   nonuniform List<scalar> 
1340
(
6.08238e-06
6.08129e-06
6.08251e-06
6.07111e-06
6.0815e-06
6.08271e-06
6.07179e-06
6.07105e-06
6.08172e-06
6.08297e-06
6.07881e-06
6.0749e-06
6.07197e-06
6.07101e-06
6.08195e-06
6.08329e-06
6.08696e-06
6.08339e-06
6.0793e-06
6.0753e-06
6.07218e-06
6.07101e-06
6.08219e-06
6.08367e-06
6.09511e-06
6.09304e-06
6.09047e-06
6.08742e-06
6.08387e-06
6.07979e-06
6.07572e-06
6.07241e-06
6.07104e-06
6.08245e-06
6.08412e-06
6.09963e-06
6.09825e-06
6.09698e-06
6.09541e-06
6.09339e-06
6.09085e-06
6.08786e-06
6.08434e-06
6.0803e-06
6.07617e-06
6.07268e-06
6.07111e-06
6.08271e-06
6.08463e-06
6.1029e-06
6.10282e-06
6.10225e-06
6.10119e-06
6.09982e-06
6.09844e-06
6.09721e-06
6.0957e-06
6.09372e-06
6.09121e-06
6.08828e-06
6.08481e-06
6.08081e-06
6.07664e-06
6.07298e-06
6.07121e-06
6.08299e-06
6.08522e-06
6.09868e-06
6.09994e-06
6.10098e-06
6.10183e-06
6.10247e-06
6.10285e-06
6.10284e-06
6.10234e-06
6.10133e-06
6.09999e-06
6.09862e-06
6.09743e-06
6.09598e-06
6.09404e-06
6.09156e-06
6.08869e-06
6.08527e-06
6.08133e-06
6.07713e-06
6.07332e-06
6.07135e-06
6.08328e-06
6.08587e-06
6.08687e-06
6.08802e-06
6.08964e-06
6.09145e-06
6.09332e-06
6.09514e-06
6.09683e-06
6.09834e-06
6.09964e-06
6.10074e-06
6.10164e-06
6.10233e-06
6.10278e-06
6.10285e-06
6.10243e-06
6.10147e-06
6.10015e-06
6.09879e-06
6.09764e-06
6.09625e-06
6.09435e-06
6.0919e-06
6.08908e-06
6.08573e-06
6.08185e-06
6.07765e-06
6.07369e-06
6.07153e-06
6.08358e-06
6.0866e-06
2.71622e-06
7.59264e-06
7.0182e-06
6.18686e-06
6.06812e-06
6.10488e-06
6.11512e-06
6.10796e-06
6.09994e-06
6.09376e-06
6.08946e-06
6.08752e-06
6.08732e-06
6.08816e-06
6.08955e-06
6.09122e-06
6.093e-06
6.09478e-06
6.09646e-06
6.09799e-06
6.09933e-06
6.10048e-06
6.10143e-06
6.10218e-06
6.10269e-06
6.10284e-06
6.1025e-06
6.1016e-06
6.10031e-06
6.09896e-06
6.09784e-06
6.09651e-06
6.09466e-06
6.09223e-06
6.08946e-06
6.08617e-06
6.08238e-06
6.07818e-06
6.07409e-06
6.07176e-06
6.08388e-06
6.08741e-06
6.08764e-06
6.2987e-06
7.24524e-06
4.91981e-06
1.79826e-07
8.57178e-10
0
0
0
0.000305735
0.000920392
0.0419185
0.135745
0.26121
0.393185
0.518362
0.630952
0.728034
0.808022
0.870736
0.918017
0.954301
0.986751
1.02198
1.04452
1.03505
0.975111
0.847993
0.644597
0.387135
0.154673
0.0308404
0.000633704
0.000118629
0
0
0
1.01911e-08
2.52771e-06
7.34735e-06
6.77977e-06
6.17882e-06
6.10378e-06
6.11866e-06
6.11313e-06
6.10263e-06
6.09542e-06
6.09089e-06
6.08865e-06
6.08805e-06
6.08852e-06
6.08963e-06
6.09111e-06
6.09276e-06
6.09447e-06
6.09613e-06
6.09767e-06
6.09903e-06
6.10022e-06
6.10121e-06
6.10202e-06
6.10259e-06
6.10282e-06
6.10256e-06
6.10173e-06
6.10046e-06
6.09912e-06
6.09803e-06
6.09677e-06
6.09497e-06
6.09255e-06
6.08982e-06
6.08661e-06
6.0829e-06
6.07873e-06
6.07453e-06
6.07203e-06
6.08419e-06
6.08829e-06
6.15395e-06
6.06275e-06
6.33189e-06
7.16355e-06
6.04517e-06
1.03884e-06
4.8059e-09
0
0
0
6.72592e-08
0.00708922
0.0282536
0.108409
0.226249
0.355931
0.481017
0.59419
0.691948
0.772495
0.835557
0.882904
0.919086
0.95151
0.986682
1.00876
0.998036
0.935773
0.805208
0.598913
0.346146
0.130519
0.0233216
0.00565972
0
0
0
4.78557e-15
3.1976e-12
3.17384e-06
6.92164e-06
6.49014e-06
6.13222e-06
6.11051e-06
6.1194e-06
6.1092e-06
6.09845e-06
6.09254e-06
6.08995e-06
6.08902e-06
6.08913e-06
6.08992e-06
6.09115e-06
6.09262e-06
6.09422e-06
6.09583e-06
6.09736e-06
6.09875e-06
6.09996e-06
6.10099e-06
6.10184e-06
6.10248e-06
6.10278e-06
6.10262e-06
6.10186e-06
6.10062e-06
6.09928e-06
6.09822e-06
6.09703e-06
6.09529e-06
6.09288e-06
6.09018e-06
6.08704e-06
6.08343e-06
6.0793e-06
6.07501e-06
6.07235e-06
6.08451e-06
6.08924e-06
6.16487e-06
6.12678e-06
6.08708e-06
6.27384e-06
6.9846e-06
6.84395e-06
1.99213e-06
9.33407e-09
0
0
0
0
0.00471143
0.0187501
0.084357
0.193469
0.320145
0.44526
0.559464
0.658361
0.73979
0.803327
0.850784
0.886958
0.919519
0.954781
0.976276
0.963828
0.898169
0.762275
0.551992
0.304868
0.107242
0.0162053
0.00390068
0
0
0
4.94177e-11
2.98789e-08
4.11626e-06
6.72948e-06
6.30189e-06
6.11362e-06
6.12617e-06
6.12154e-06
6.10453e-06
6.09487e-06
6.09141e-06
6.09023e-06
6.09002e-06
6.09047e-06
6.09141e-06
6.09266e-06
6.0941e-06
6.0956e-06
6.09708e-06
6.09847e-06
6.09971e-06
6.10078e-06
6.10167e-06
6.10237e-06
6.10275e-06
6.10267e-06
6.10199e-06
6.10079e-06
6.09945e-06
6.09842e-06
6.09729e-06
6.09562e-06
6.09322e-06
6.09053e-06
6.08746e-06
6.08396e-06
6.07989e-06
6.07552e-06
6.07271e-06
6.08482e-06
6.09027e-06
6.14609e-06
6.14069e-06
6.12432e-06
6.1096e-06
6.20144e-06
6.82112e-06
7.15253e-06
2.84752e-06
1.37239e-08
1.58058e-17
0
0
0
0.00264122
0.0103274
0.0634831
0.162923
0.285974
0.411093
0.526538
0.626768
0.709168
0.773183
0.820728
0.856918
0.889735
0.925251
0.945968
0.931075
0.860619
0.717959
0.503527
0.264093
0.0854418
0.0104662
0.00251048
0
0
0
6.59334e-10
2.52486e-07
5.26506e-06
6.61685e-06
5.98476e-06
5.96618e-06
6.09596e-06
6.12148e-06
6.1047e-06
6.09418e-06
6.09138e-06
6.09096e-06
6.09118e-06
6.09183e-06
6.09285e-06
6.09413e-06
6.09551e-06
6.09691e-06
6.09824e-06
6.09947e-06
6.10055e-06
6.10149e-06
6.10224e-06
6.1027e-06
6.10272e-06
6.10213e-06
6.10097e-06
6.09963e-06
6.09862e-06
6.09756e-06
6.09596e-06
6.09357e-06
6.09088e-06
6.08786e-06
6.08448e-06
6.08048e-06
6.07607e-06
6.07312e-06
6.08512e-06
6.09134e-06
6.13671e-06
6.1385e-06
6.14351e-06
6.13919e-06
6.10961e-06
6.14023e-06
6.6979e-06
7.19074e-06
4.61474e-06
1.01352e-09
6.90994e-12
0
0
0
0.000979024
0.00361622
0.0446279
0.132644
0.250785
0.376224
0.494063
0.596818
0.681062
0.745993
0.793632
0.829511
0.86209
0.897427
0.91742
0.900077
0.82449
0.674797
0.457141
0.226182
0.0629799
0.00655643
0.00182066
0
0
0
1.51994e-09
4.56431e-07
7.30268e-06
8.23446e-06
6.44042e-06
5.94995e-06
6.03017e-06
6.0982e-06
6.1028e-06
6.09556e-06
6.09245e-06
6.09201e-06
6.0924e-06
6.09315e-06
6.09419e-06
6.09545e-06
6.09679e-06
6.0981e-06
6.09931e-06
6.10039e-06
6.10133e-06
6.1021e-06
6.10261e-06
6.10273e-06
6.10224e-06
6.10114e-06
6.09982e-06
6.09882e-06
6.09783e-06
6.09631e-06
6.09393e-06
6.09122e-06
6.08825e-06
6.085e-06
6.08109e-06
6.07665e-06
6.07359e-06
6.08544e-06
6.09251e-06
6.13672e-06
6.14417e-06
6.15636e-06
6.15396e-06
6.14063e-06
6.12827e-06
6.14513e-06
6.49162e-06
7.13397e-06
5.19901e-06
5.68386e-07
2.6928e-09
2.77451e-23
0
0
6.86918e-06
0.00559958
0.0216431
0.0832227
0.181853
0.299918
0.419393
0.528545
0.62102
0.694222
0.748875
0.789361
0.822597
0.856084
0.878164
0.866597
0.799456
0.66158
0.460848
0.244502
0.0880721
0.0131976
0.00382931
3.26235e-05
0
0
1.49002e-12
8.28523e-09
1.31093e-06
6.92823e-06
7.13827e-06
6.25465e-06
6.03966e-06
6.07058e-06
6.09514e-06
6.09691e-06
6.09454e-06
6.09363e-06
6.09389e-06
6.0946e-06
6.09554e-06
6.09668e-06
6.09794e-06
6.0992e-06
6.10035e-06
6.10137e-06
6.10224e-06
6.10284e-06
6.10304e-06
6.10263e-06
6.10158e-06
6.10025e-06
6.09925e-06
6.09831e-06
6.09687e-06
6.0945e-06
6.09174e-06
6.08877e-06
6.08561e-06
6.0818e-06
6.0773e-06
6.07416e-06
6.08576e-06
6.09376e-06
6.15335e-06
6.16892e-06
6.18746e-06
6.187e-06
6.17192e-06
6.17949e-06
6.20303e-06
6.22193e-06
6.2503e-06
7.14511e-06
6.99471e-06
3.37018e-06
8.12598e-15
3.03911e-15
0
0
0
0.000487165
0.00116897
0.0303299
0.0994449
0.201633
0.318728
0.434354
0.537843
0.623303
0.688843
0.736724
0.773741
0.80668
0.834784
0.837389
0.79069
0.676539
0.496679
0.290643
0.12229
0.0298859
0.00237578
0.000677997
0
0
0
9.98088e-10
1.89162e-07
4.81253e-06
7.13184e-06
6.49414e-06
6.10092e-06
6.06457e-06
6.08917e-06
6.09744e-06
6.09699e-06
6.09618e-06
6.09647e-06
6.09725e-06
6.09809e-06
6.09895e-06
6.09989e-06
6.10084e-06
6.10168e-06
6.10242e-06
6.10306e-06
6.1034e-06
6.10315e-06
6.10218e-06
6.10083e-06
6.09978e-06
6.09889e-06
6.09755e-06
6.0952e-06
6.09236e-06
6.08935e-06
6.08627e-06
6.08256e-06
6.07802e-06
6.07481e-06
6.08611e-06
6.09509e-06
6.17965e-06
6.19586e-06
6.22504e-06
6.23105e-06
6.21122e-06
6.19869e-06
6.23212e-06
6.2879e-06
6.2414e-06
6.15713e-06
6.65554e-06
7.43771e-06
6.46159e-06
1.89435e-07
9.03455e-10
0
0
0
5.12452e-08
0.00176648
0.00620763
0.0464855
0.127483
0.235457
0.351973
0.462494
0.557785
0.63337
0.689413
0.730803
0.763698
0.794939
0.807713
0.776421
0.680289
0.517879
0.32216
0.149858
0.046447
0.00486594
0.00136409
0
0
0
6.3567e-11
9.35629e-09
3.33305e-06
6.93262e-06
6.63813e-06
6.16529e-06
6.07148e-06
6.08487e-06
6.09547e-06
6.09678e-06
6.09612e-06
6.09637e-06
6.09743e-06
6.09859e-06
6.09962e-06
6.10071e-06
6.10191e-06
6.10295e-06
6.10359e-06
6.10386e-06
6.10366e-06
6.1028e-06
6.10149e-06
6.10039e-06
6.0995e-06
6.09826e-06
6.09596e-06
6.09303e-06
6.08994e-06
6.08692e-06
6.08333e-06
6.07877e-06
6.07551e-06
6.08644e-06
6.09643e-06
6.19411e-06
6.22035e-06
6.2339e-06
6.21478e-06
6.18533e-06
6.191e-06
6.26194e-06
6.33598e-06
6.18456e-06
5.91037e-06
6.19198e-06
7.87015e-06
8.00112e-06
1.66576e-06
7.89353e-09
1.87703e-17
0
0
0
2.85843e-05
0.00479265
0.0183797
0.0761244
0.170466
0.28263
0.396033
0.498509
0.582862
0.646782
0.692813
0.727868
0.75871
0.776686
0.756326
0.674753
0.527686
0.341652
0.170219
0.0578883
0.00905459
0.00243754
5.51589e-08
0
0
4.30871e-14
3.10988e-14
2.28625e-06
6.57148e-06
6.6828e-06
6.22111e-06
6.09222e-06
6.08993e-06
6.09808e-06
6.10005e-06
6.09943e-06
6.09931e-06
6.10018e-06
6.10114e-06
6.10155e-06
6.10177e-06
6.10247e-06
6.10353e-06
6.1043e-06
6.1043e-06
6.10349e-06
6.10218e-06
6.10106e-06
6.10017e-06
6.09903e-06
6.09677e-06
6.09376e-06
6.09055e-06
6.08758e-06
6.08409e-06
6.07956e-06
6.07626e-06
6.08675e-06
6.09778e-06
6.15927e-06
6.17427e-06
6.19874e-06
6.19668e-06
6.16742e-06
6.14901e-06
6.18801e-06
6.28491e-06
6.30899e-06
6.07006e-06
5.68669e-06
5.91741e-06
8.12927e-06
9.12576e-06
4.18546e-06
4.35878e-09
2.19272e-11
0
0
0
0
0.00115987
0.00410811
0.0436241
0.122261
0.226355
0.338871
0.445659
0.53703
0.608183
0.659412
0.696425
0.725437
0.745544
0.732626
0.662576
0.527922
0.351409
0.182802
0.0666911
0.0133612
0.000384328
7.33611e-05
0
0
6.22471e-20
7.5864e-09
1.90727e-06
6.29571e-06
6.6499e-06
6.23823e-06
6.10385e-06
6.09378e-06
6.10052e-06
6.10349e-06
6.10289e-06
6.10204e-06
6.10279e-06
6.10439e-06
6.10506e-06
6.10451e-06
6.10396e-06
6.10419e-06
6.10452e-06
6.10412e-06
6.10295e-06
6.10177e-06
6.10087e-06
6.09983e-06
6.09766e-06
6.09455e-06
6.09119e-06
6.08822e-06
6.08484e-06
6.08037e-06
6.07704e-06
6.08704e-06
6.09911e-06
6.16155e-06
6.16591e-06
6.1932e-06
6.21107e-06
6.19567e-06
6.16324e-06
6.15887e-06
6.21872e-06
6.3111e-06
6.27925e-06
5.92357e-06
5.50069e-06
6.07536e-06
8.14158e-06
9.15612e-06
6.47095e-06
1.06321e-07
5.04554e-10
0
0
0
0
9.66619e-06
0.00566238
0.0221915
0.0864841
0.180717
0.289586
0.398134
0.494718
0.572245
0.628813
0.668011
0.695355
0.715217
0.706869
0.645207
0.520422
0.352412
0.187973
0.0718545
0.0169223
0.000419541
0.000123188
0
0
0
7.27112e-09
1.88372e-06
6.18415e-06
6.62287e-06
6.26513e-06
6.12415e-06
6.09434e-06
6.09212e-06
6.09544e-06
6.09698e-06
6.09701e-06
6.09865e-06
6.10257e-06
6.10611e-06
6.10705e-06
6.1062e-06
6.10528e-06
6.10459e-06
6.10358e-06
6.1025e-06
6.1016e-06
6.10066e-06
6.09862e-06
6.09545e-06
6.09189e-06
6.08888e-06
6.08559e-06
6.08122e-06
6.07785e-06
6.08727e-06
6.10043e-06
6.23752e-06
6.23701e-06
6.25659e-06
6.28354e-06
6.28954e-06
6.26615e-06
6.23946e-06
6.2549e-06
6.33468e-06
6.41272e-06
6.30416e-06
5.88766e-06
5.61999e-06
6.27177e-06
7.87399e-06
9.5236e-06
7.21102e-06
8.53012e-07
3.97495e-09
2.32084e-17
0
0
0
0
0.00298834
0.0117527
0.0607295
0.144037
0.247232
0.355378
0.455525
0.538581
0.600444
0.642401
0.670115
0.688073
0.68146
0.625104
0.507567
0.346636
0.187264
0.0736335
0.0172148
0.00144952
0.000441586
2.95934e-13
0
0
6.44861e-09
1.64613e-06
5.76679e-06
6.32043e-06
6.16449e-06
6.13362e-06
6.12189e-06
6.10943e-06
6.10556e-06
6.10392e-06
6.10003e-06
6.09718e-06
6.09907e-06
6.10383e-06
6.10709e-06
6.10735e-06
6.10607e-06
6.10453e-06
6.10325e-06
6.10229e-06
6.10143e-06
6.09955e-06
6.09638e-06
6.09262e-06
6.0895e-06
6.08629e-06
6.08203e-06
6.0787e-06
6.08756e-06
6.1017e-06
6.42126e-06
6.43608e-06
6.45801e-06
6.49538e-06
6.53185e-06
6.54569e-06
6.5369e-06
6.53547e-06
6.58233e-06
6.6813e-06
6.74438e-06
6.5726e-06
6.1466e-06
5.99014e-06
6.63132e-06
8.06385e-06
9.95567e-06
8.45216e-06
2.46902e-06
4.21894e-09
2.18593e-11
0
0
0
0
0.00100837
0.0037491
0.0413416
0.114189
0.210411
0.315937
0.417202
0.503772
0.569839
0.614861
0.643556
0.659969
0.653986
0.601165
0.489355
0.335377
0.182992
0.0742183
0.0210866
0.00380468
2.54713e-07
6.31458e-10
0
2.97787e-13
1.63027e-10
2.87735e-06
6.77516e-06
6.4793e-06
6.0719e-06
6.07189e-06
6.11732e-06
6.12313e-06
6.1202e-06
6.11811e-06
6.1122e-06
6.10428e-06
6.10077e-06
6.10293e-06
6.10623e-06
6.10727e-06
6.10634e-06
6.10474e-06
6.10342e-06
6.10248e-06
6.1007e-06
6.09755e-06
6.09356e-06
6.0903e-06
6.08706e-06
6.08302e-06
6.07958e-06
6.08751e-06
6.10303e-06
6.8865e-06
6.9539e-06
7.01316e-06
7.08223e-06
7.15725e-06
7.21909e-06
7.25222e-06
7.26312e-06
7.28422e-06
7.35152e-06
7.45485e-06
7.47114e-06
7.21025e-06
6.78477e-06
6.6686e-06
7.20432e-06
8.55464e-06
1.03693e-05
9.85155e-06
4.77475e-06
1.34355e-07
6.77914e-10
2.90267e-18
0
0
0
8.77321e-06
0.00698176
0.0279451
0.0932385
0.186144
0.292203
0.396626
0.487433
0.557184
0.603984
0.63144
0.644032
0.635163
0.5806
0.467776
0.313914
0.163244
0.0580505
0.00759704
0.00282554
0.000328542
2.24115e-05
5.0898e-12
3.56772e-16
6.76258e-09
1.58497e-06
6.87234e-06
7.00592e-06
6.27769e-06
6.07853e-06
6.08474e-06
6.10107e-06
6.10947e-06
6.11607e-06
6.1167e-06
6.11097e-06
6.10552e-06
6.10443e-06
6.10575e-06
6.10622e-06
6.10541e-06
6.10418e-06
6.10317e-06
6.10148e-06
6.09831e-06
6.09415e-06
6.09066e-06
6.0876e-06
6.08348e-06
6.08048e-06
6.08829e-06
6.104e-06
7.83301e-06
7.94217e-06
8.03248e-06
8.11872e-06
8.20703e-06
8.29081e-06
8.35447e-06
8.38518e-06
8.38896e-06
8.39893e-06
8.45889e-06
8.56853e-06
8.60092e-06
8.36989e-06
7.93854e-06
7.66151e-06
7.93629e-06
9.11659e-06
1.13032e-05
1.29419e-05
1.04418e-05
2.46455e-06
4.13872e-10
1.54308e-12
0
0
0
0
0.00198914
0.00708333
0.0458322
0.1165
0.208155
0.307638
0.402038
0.481381
0.540581
0.580388
0.601947
0.603701
0.568513
0.481342
0.350913
0.211262
0.100383
0.0371161
0.0105273
0.0018062
3.13698e-06
8.11746e-09
0
2.96688e-09
6.81634e-07
4.65138e-06
6.27184e-06
6.2511e-06
6.12912e-06
6.10004e-06
6.09937e-06
6.10305e-06
6.10851e-06
6.11191e-06
6.11126e-06
6.10889e-06
6.10766e-06
6.10722e-06
6.10672e-06
6.10577e-06
6.10487e-06
6.1034e-06
6.10048e-06
6.09592e-06
6.09208e-06
6.08852e-06
6.08512e-06
6.08144e-06
6.08725e-06
6.10641e-06
)
;

boundaryField
{
    inlet
    {
        type            freestream;
        freestreamValue uniform 1e-05;
        value           nonuniform List<scalar> 
27
(
6.08238e-06
6.08251e-06
6.08271e-06
6.08297e-06
6.08329e-06
6.08367e-06
6.08412e-06
6.08463e-06
6.08522e-06
6.08587e-06
6.0866e-06
6.08741e-06
6.08829e-06
6.08924e-06
6.09027e-06
6.09134e-06
6.09251e-06
6.09376e-06
6.09509e-06
6.09643e-06
6.09778e-06
6.09911e-06
6.10043e-06
6.1017e-06
6.10303e-06
6.104e-06
6.10641e-06
)
;
    }
    outlet
    {
        type            freestream;
        freestreamValue uniform 1e-05;
        value           nonuniform List<scalar> 
78
(
7.83301e-06
7.94217e-06
8.03248e-06
8.11872e-06
8.20703e-06
8.29081e-06
8.35447e-06
8.38518e-06
8.38896e-06
8.39893e-06
8.45889e-06
8.56853e-06
8.60092e-06
8.36989e-06
7.93854e-06
7.66151e-06
7.93629e-06
9.11659e-06
1.13032e-05
1.29419e-05
1.04418e-05
2.46455e-06
4.13872e-10
1.54308e-12
0
0
0
0
0.00198914
0.00708333
0.0458322
0.1165
0.208155
0.307638
0.402038
0.481381
0.540581
0.580388
0.601947
0.603701
0.568513
0.481342
0.350913
0.211262
0.100383
0.0371161
0.0105273
0.0018062
3.13698e-06
8.11746e-09
0
2.96688e-09
6.81634e-07
4.65138e-06
6.27184e-06
6.2511e-06
6.12912e-06
6.10004e-06
6.09937e-06
6.10305e-06
6.10851e-06
6.11191e-06
6.11126e-06
6.10889e-06
6.10766e-06
6.10722e-06
6.10672e-06
6.10577e-06
6.10487e-06
6.1034e-06
6.10048e-06
6.09592e-06
6.09208e-06
6.08852e-06
6.08512e-06
6.08144e-06
6.08725e-06
6.10641e-06
)
;
    }
    walls
    {
        type            nutUSpaldingWallFunction;
        value           nonuniform List<scalar> 0();
    }
    frontAndBack
    {
        type            empty;
    }
    procBoundary7to3
    {
        type            processor;
        value           nonuniform List<scalar> 
16
(
6.18229e-06
6.17229e-06
6.15398e-06
6.14654e-06
6.14396e-06
6.14368e-06
6.15553e-06
6.18854e-06
6.19019e-06
6.19019e-06
6.1736e-06
6.17517e-06
6.2351e-06
6.38291e-06
6.77303e-06
7.67399e-06
)
;
    }
    procBoundary7to6
    {
        type            processor;
        value           nonuniform List<scalar> 
91
(
6.08231e-06
6.08108e-06
6.08108e-06
6.07119e-06
6.07119e-06
6.07164e-06
6.07164e-06
6.07833e-06
6.07453e-06
6.07453e-06
6.0865e-06
6.08292e-06
6.08292e-06
6.09479e-06
6.09268e-06
6.09007e-06
6.09007e-06
6.09944e-06
6.09803e-06
6.09673e-06
6.09673e-06
6.10293e-06
6.10277e-06
6.10214e-06
6.10103e-06
6.10103e-06
6.09902e-06
6.10022e-06
6.10121e-06
6.10201e-06
6.10259e-06
6.10259e-06
6.08664e-06
6.08806e-06
6.08985e-06
6.09178e-06
6.09371e-06
6.09555e-06
6.09722e-06
6.09722e-06
7.7721e-06
7.16264e-06
6.18988e-06
6.02837e-06
6.08933e-06
6.11861e-06
6.11502e-06
6.10519e-06
6.09746e-06
6.09191e-06
6.08817e-06
6.08666e-06
6.08666e-06
6.32633e-06
7.33056e-06
4.55206e-06
1.2274e-09
7.77423e-12
0
0
0
0.00187628
0.00720693
0.0606857
0.166335
0.29795
0.432233
0.558202
0.67117
0.768544
0.848801
0.911751
0.95918
0.995532
1.028
1.0634
1.08633
1.07775
1.01943
0.89439
0.69162
0.428237
0.179886
0.0384199
0.00127975
0.000295661
0
0
0
1.03787e-08
1.03787e-08
)
;
    }
}


// ************************************************************************* //
