/*--------------------------------*- C++ -*----------------------------------*\
| =========                 |                                                 |
| \\      /  F ield         | OpenFOAM: The Open Source CFD Toolbox           |
|  \\    /   O peration     | Version:  2506                                  |
|   \\  /    A nd           | Website:  www.openfoam.com                      |
|    \\/     M anipulation  |                                                 |
\*---------------------------------------------------------------------------*/
FoamFile
{
    version     2.0;
    format      ascii;
    arch        "LSB;label=32;scalar=64";
    class       surfaceScalarField;
    location    "100";
    object      phi;
}
// * * * * * * * * * * * * * * * * * * * * * * * * * * * * * * * * * * * * * //

dimensions      [0 3 -1 0 0 0 0];

oriented        oriented;

internalField   nonuniform List<scalar> 
2574
(
18.3405
0.513492
16.5426
18.3381
0.540747
15.1051
0.538841
16.5445
18.3357
0.565988
13.7116
0.567111
15.104
0.565476
16.5461
18.3334
0.593016
11.3516
0.593727
12.4848
0.593617
13.7117
0.594782
15.1028
0.593353
16.5476
18.3311
0.620373
9.394
0.621221
10.3277
0.621834
11.351
0.622604
12.484
0.622593
13.7117
0.623797
15.1016
0.622586
16.5488
18.3288
0.647091
7.07019
0.648313
7.77374
0.649439
8.54474
0.650437
9.393
0.651376
10.3267
0.652056
11.3503
0.652891
12.4832
0.652983
13.7116
0.654235
15.1004
0.653217
16.5498
18.3266
0.674268
7.46152
0.675711
5.84923
0.677114
6.42974
0.678448
7.06886
0.679727
7.77246
0.680918
8.54355
0.681998
9.39192
0.682979
10.3258
0.683727
11.3496
0.684661
12.4823
0.684833
13.7114
0.686163
15.099
0.685361
16.5506
18.3244
0.697512
6.03428
0.700167
6.36314
0.702643
6.70941
0.704933
7.07407
0.707064
7.45939
0.708532
5.84776
0.70997
6.4283
0.711379
7.06745
0.712708
7.77113
0.71396
8.5423
0.71507
9.39081
0.716141
10.3247
0.716961
11.3488
0.717993
12.4812
0.718254
13.7112
0.719661
15.0976
0.71906
16.5512
18.3221
0.717742
4.62216
0.720731
4.87539
0.723689
5.14215
0.726603
5.42335
0.729411
5.71954
0.732115
6.03158
0.734677
6.36058
0.737117
6.70697
0.739425
7.07176
0.741545
7.45727
0.743029
5.84627
0.744491
6.42684
0.745919
7.06602
0.747292
7.76976
0.7486
8.54099
0.749802
9.38961
0.750943
10.3236
0.751837
11.3479
0.752918
12.4802
0.753322
13.7108
0.754779
15.0962
0.75424
16.5517
18.3198
0.737375
3.17483
0.739554
3.35007
0.741866
3.53482
0.744322
3.72946
0.746885
3.93484
0.749538
4.15106
0.752254
4.37909
0.755009
4.6194
0.757795
4.8726
0.760541
5.1394
0.763268
5.42062
0.76594
5.71687
0.768532
6.02899
0.771045
6.35807
0.773428
6.70458
0.775672
7.06952
0.777812
7.45513
0.779301
5.84479
0.780778
6.42536
0.782215
7.06458
0.783641
7.76833
0.784998
8.53963
0.786225
9.38838
0.787435
10.3223
0.788436
11.3469
0.789551
12.479
0.7901
13.7102
0.791627
15.0947
0.791388
16.552
18.3175
0.769664
1.66004
0.769643
1.75257
0.769718
1.85019
0.769928
1.95325
0.770269
2.06177
0.770749
2.17625
0.771395
2.29705
0.772211
2.42444
0.773206
2.55864
0.774365
2.70033
0.775678
2.84959
0.777184
3.00716
0.778852
3.17316
0.780687
3.34824
0.782667
3.53284
0.784788
3.72734
0.787027
3.9326
0.789374
4.14871
0.791816
4.37665
0.794292
4.61693
0.796822
4.87007
0.799386
5.13684
0.801928
5.41808
0.804426
5.71437
0.806891
6.02652
0.809285
6.35567
0.811594
6.70227
0.813817
7.06729
0.815898
7.45305
0.81738
5.8433
0.818862
6.42388
0.820348
7.0631
0.821771
7.76691
0.823171
8.53823
0.824501
9.38705
0.825809
10.321
0.826805
11.3459
0.828068
12.4778
0.828683
13.7096
0.830288
15.0931
0.830225
16.552
18.3152
0.849017
0.225451
0.84889
0.237816
0.848696
0.250888
0.848499
0.26467
0.848262
0.279199
0.848003
0.294515
0.847693
0.310702
0.847374
0.32773
0.847128
0.345668
0.847027
0.364704
0.846842
0.384927
0.845643
0.406266
0.841988
0.428056
0.834596
0.449142
0.822835
0.468328
0.806676
0.484942
0.786558
0.498841
0.763436
0.510381
0.738637
0.520343
0.714131
0.530008
0.692278
0.541268
0.675778
0.556625
0.667109
0.579002
0.668004
0.611278
0.679028
0.655651
0.699522
0.713199
0.727518
0.78367
0.759205
0.865063
0.788624
0.953699
0.809169
1.04263
0.818105
1.12481
0.81894
1.19807
0.817335
1.26629
0.816287
1.3359
0.815963
1.41011
0.815835
1.4891
0.815658
1.5725
0.815502
1.66021
0.815377
1.75269
0.815367
1.8502
0.815455
1.95317
0.81566
2.06157
0.81598
2.17593
0.816435
2.2966
0.817042
2.42384
0.81777
2.55792
0.818663
2.69944
0.81973
2.84853
0.820939
3.00595
0.822292
3.17181
0.823812
3.34672
0.825496
3.53116
0.827302
3.72553
0.829237
3.93067
0.831285
4.14667
0.833416
4.37452
0.835657
4.61469
0.837928
4.8678
0.840254
5.13451
0.842599
5.41573
0.844957
5.71202
0.847275
6.0242
0.849536
6.35341
0.851752
6.70005
0.853892
7.06515
0.855961
7.45098
0.857411
5.84185
0.85884
6.42245
0.860365
7.06157
0.861889
7.76539
0.863233
8.53689
0.864581
9.3857
0.865922
10.3197
0.867042
11.3448
0.86839
12.4764
0.869117
13.7089
0.870814
15.0914
0.871072
16.5518
18.3127
0.891219
0.225636
0.891005
0.238039
0.890778
0.251114
0.890558
0.264899
0.890276
0.279481
0.889999
0.294804
0.889682
0.311019
0.889353
0.328072
0.888946
0.346076
0.888626
0.365036
0.888441
0.385112
0.888287
0.406433
0.887299
0.429043
0.884105
0.452347
0.877282
0.475149
0.866022
0.496211
0.850191
0.514671
0.830293
0.530288
0.807249
0.543385
0.78248
0.554785
0.757999
0.565748
0.736257
0.578375
0.720069
0.595189
0.711973
0.619383
0.713707
0.653915
0.725772
0.701141
0.747354
0.762088
0.776224
0.8362
0.808226
0.921695
0.837157
1.01371
0.856631
1.10533
0.864686
1.19002
0.865308
1.26567
0.863905
1.33731
0.863063
1.41095
0.862846
1.48932
0.862771
1.57257
0.862651
1.66033
0.862541
1.7528
0.862495
1.85025
0.862522
1.95314
0.862641
2.06146
0.862864
2.17571
0.86318
2.29629
0.863592
2.42343
0.864147
2.55737
0.864829
2.69876
0.865651
2.84771
0.866611
3.00499
0.86773
3.17069
0.868975
3.34547
0.870346
3.52979
0.871866
3.72401
0.873515
3.92902
0.875281
4.1449
0.877154
4.37265
0.879119
4.61272
0.881176
4.86574
0.883276
5.13242
0.885401
5.41361
0.887562
5.70986
0.889723
6.02204
0.891851
6.35128
0.894007
6.6979
0.895988
7.06317
0.897999
7.44897
0.899438
5.84041
0.901027
6.42086
0.902347
7.06025
0.903821
7.76391
0.905451
8.53526
0.906848
9.3843
0.908094
10.3184
0.909289
11.3436
0.910888
12.4748
0.911722
13.7081
0.913373
15.0897
0.913602
16.5516
18.31
0.935493
0.22583
0.935317
0.238251
0.935113
0.251341
0.934899
0.265141
0.934668
0.279724
0.934398
0.295097
0.934121
0.311304
0.933796
0.328416
0.93343
0.346447
0.933032
0.365451
0.932646
0.385502
0.932432
0.406662
0.932307
0.42917
0.931593
0.453076
0.928846
0.477897
0.922556
0.502514
0.911739
0.525488
0.896167
0.545872
0.876307
0.563244
0.853167
0.577936
0.828199
0.590716
0.803554
0.60303
0.781767
0.616976
0.765799
0.635361
0.758266
0.661448
0.7609
0.698517
0.774089
0.748898
0.79684
0.813458
0.826611
0.891924
0.858917
0.981413
0.887237
1.07701
0.90558
1.17168
0.912785
1.25846
0.91328
1.33682
0.912099
1.41213
0.911492
1.48993
0.911401
1.57266
0.911405
1.66033
0.91137
1.75283
0.911322
1.85031
0.911315
1.95315
0.911362
2.06141
0.911492
2.17558
0.911706
2.29608
0.912007
2.42313
0.912413
2.55697
0.912924
2.69825
0.913554
2.84708
0.914302
3.00424
0.915178
3.16982
0.91618
3.34447
0.917312
3.52866
0.918572
3.72276
0.919956
3.92764
0.921458
4.1434
0.923071
4.37104
0.924754
4.61104
0.926524
4.86397
0.928415
5.13053
0.930333
5.41169
0.932415
5.70777
0.934365
6.02009
0.936336
6.34931
0.938328
6.69591
0.940451
7.06105
0.942221
7.4472
0.943785
5.83885
0.945069
6.41957
0.946698
7.05862
0.948022
7.76259
0.949521
8.53376
0.950962
9.38286
0.952594
10.3168
0.95386
11.3423
0.955248
12.4734
0.956171
13.7071
0.958295
15.0876
0.958448
16.5514
18.3071
0.982116
0.225996
0.98195
0.238425
0.981784
0.251507
0.981589
0.265348
0.98139
0.279925
0.981203
0.295297
0.980958
0.311551
0.98072
0.328667
0.980446
0.346722
0.980146
0.365763
0.979788
0.385859
0.979455
0.407007
0.979266
0.429358
0.979275
0.453079
0.978823
0.478346
0.976595
0.504753
0.970861
0.531219
0.960449
0.556294
0.944982
0.578708
0.924915
0.598012
0.901283
0.614344
0.875753
0.628568
0.850542
0.642184
0.828486
0.657425
0.812609
0.677321
0.805749
0.705385
0.809527
0.745118
0.824226
0.798766
0.848556
0.867591
0.879561
0.950414
0.912273
1.0443
0.939977
1.14398
0.957033
1.2414
0.963195
1.33067
0.963283
1.41204
0.962168
1.49105
0.96172
1.57311
0.961791
1.66026
0.961912
1.75271
0.961955
1.85026
0.961961
1.95314
0.96201
2.06137
0.962072
2.17551
0.96221
2.29594
0.962426
2.42291
0.962708
2.55669
0.963073
2.69788
0.963583
2.84657
0.964055
3.00377
0.964713
3.16916
0.965483
3.3437
0.966402
3.52774
0.9675
3.72166
0.96864
3.9265
0.96982
4.14222
0.971173
4.36969
0.972677
4.60954
0.974402
4.86225
0.975902
5.12903
0.977785
5.40981
0.979415
5.70614
0.981243
6.01827
0.983254
6.3473
0.984964
6.6942
0.986828
7.05918
0.988836
7.44519
0.990044
5.83764
0.991458
6.41816
0.992916
7.05716
0.994558
7.76095
0.995926
8.53239
0.997403
9.38139
0.998955
10.3153
1.00027
11.341
1.00197
12.4718
1.00293
13.7062
1.00513
15.0854
1.00543
16.5511
18.3038
1.03098
0.226111
1.0309
0.238542
1.03082
0.251627
1.03073
0.265472
1.03063
0.280057
1.03049
0.295454
1.03037
0.311688
1.03023
0.328834
1.03006
0.346905
1.02987
0.365966
1.02964
0.386096
1.02937
0.407288
1.0291
0.42964
1.02896
0.453229
1.029
0.478309
1.0288
0.504972
1.0271
0.532919
1.02227
0.561131
1.01291
0.588076
0.998368
0.612561
0.978827
0.633885
0.95527
0.652133
0.929374
0.668079
0.903577
0.68323
0.880666
0.700231
0.864001
0.722058
0.856629
0.752489
0.860325
0.795077
0.875395
0.85252
0.900243
0.925572
0.931926
1.01262
0.964787
1.11113
0.99241
1.21378
1.00945
1.31364
1.01598
1.4055
1.01651
1.49053
1.01551
1.5741
1.01487
1.66091
1.01468
1.7529
1.01476
1.85018
1.01477
1.95312
1.01472
2.06142
1.0148
2.17543
1.01472
2.29603
1.01489
2.42273
1.01503
2.55655
1.01522
2.69769
1.01553
2.84627
1.01592
3.00338
1.0164
3.16868
1.01714
3.34296
1.01783
3.52705
1.01848
3.72101
1.0194
3.92558
1.02058
4.14104
1.02172
4.36854
1.02297
4.60829
1.02417
4.86105
1.02577
5.12743
1.02715
5.40844
1.02876
5.70454
1.03042
6.0166
1.03213
6.34559
1.03403
6.6923
1.03564
7.05758
1.03741
7.44342
1.03874
5.83631
1.04012
6.41678
1.04157
7.05571
1.04305
7.75947
1.04462
8.53083
1.04612
9.37989
1.04779
10.3136
1.04912
11.3397
1.05105
12.4698
1.05194
13.7053
1.05458
15.0827
1.05479
16.5509
18.2998
1.7164
0.226806
1.7158
0.239116
1.71511
0.252289
1.71451
0.266054
1.71363
0.280921
1.71293
0.296132
1.71205
0.31256
1.71114
0.329729
1.71001
0.348029
1.70908
0.366883
1.70787
0.387297
1.70663
0.408522
1.70531
0.430944
1.70375
0.454785
1.70241
0.47964
1.70125
0.506135
1.70001
0.534145
1.69731
0.563829
1.69073
0.594644
1.67782
0.625474
1.65717
0.654529
1.62805
0.681252
1.59153
0.70459
1.55008
0.724681
1.50707
0.743226
1.46738
0.761751
1.43625
0.783609
1.41883
0.812497
1.41863
0.852715
1.43676
0.907443
1.47098
0.978397
1.51652
1.06559
1.56495
1.16534
1.60606
1.27253
1.63197
1.37959
1.64172
1.48078
1.64112
1.57469
1.6364
1.66562
1.63153
1.75777
1.62687
1.85485
1.62254
1.95745
1.61793
2.06602
1.61282
2.18053
1.60772
2.30114
1.60219
2.42825
1.59658
2.56216
1.59074
2.70353
1.58454
2.85248
1.57829
3.00963
1.57186
3.17512
1.56478
3.35004
1.55769
3.53415
1.55043
3.72827
1.54269
3.93332
1.53464
4.14909
1.52627
4.37692
1.51756
4.61699
1.50837
4.87025
1.49868
5.13712
1.48862
5.41849
1.47787
5.71529
1.46657
6.02791
1.45438
6.35778
1.44159
6.70508
1.42804
7.07113
1.41354
7.45792
1.40179
5.84806
1.38868
6.42988
1.37422
7.07018
1.35804
7.77564
1.34019
8.54867
1.32021
9.39987
1.29829
10.3355
1.27364
11.3643
1.24679
12.4967
1.21581
13.7363
1.18366
15.1149
1.1443
16.5903
18.3331
1.80892
0.227179
1.8082
0.239827
1.80747
0.253026
1.80654
0.266975
1.8059
0.281557
1.80492
0.297112
1.80391
0.313569
1.80287
0.330769
1.8018
0.349101
1.80054
0.368146
1.7994
0.388437
1.79791
0.410011
1.79653
0.432318
1.79494
0.456373
1.79331
0.481272
1.79173
0.507714
1.7902
0.535671
1.78865
0.565373
1.78645
0.596838
1.78183
0.630091
1.77209
0.664275
1.75532
0.69801
1.73051
0.729398
1.69725
0.757937
1.65782
0.782658
1.61501
0.804555
1.5733
0.825323
1.53829
0.847498
1.51549
0.875514
1.50935
0.91358
1.52184
0.965904
1.5517
1.03573
1.59405
1.12299
1.6412
1.22538
1.6832
1.33759
1.71214
1.45184
1.72511
1.56172
1.72673
1.664
1.7226
1.76189
1.71703
1.86043
1.71171
1.96276
1.70651
2.07123
1.70126
2.18578
1.69569
2.3067
1.6898
2.43414
1.68364
2.56833
1.67706
2.71011
1.6704
2.85913
1.66351
3.01651
1.65611
3.18252
1.64851
3.35764
1.64072
3.54193
1.63245
3.73655
1.624
3.94177
1.61506
4.15802
1.60581
4.38618
1.59607
4.62673
1.58601
4.88031
1.57546
5.14768
1.56425
5.4297
1.55253
5.72701
1.54014
6.04031
1.5272
6.37072
1.51338
6.7189
1.49884
7.08568
1.4834
7.47337
1.47077
5.86069
1.45698
6.44368
1.44153
7.08562
1.42441
7.79277
1.40565
8.56743
1.3848
9.42072
1.36174
10.3586
1.33581
11.3902
1.30774
12.5247
1.27552
13.7685
1.24174
15.1487
1.20063
16.6314
18.3675
1.90502
1.9041
0.240673
1.90315
0.253906
1.90219
0.267887
1.90103
0.282658
1.90002
0.298084
1.89882
0.314728
1.89761
0.331956
1.89637
0.350317
1.89494
0.369548
1.89334
0.390026
1.89186
0.411473
1.8902
0.433964
1.88851
0.458052
1.88661
0.483157
1.88466
0.50966
1.88254
0.537779
1.88075
0.567157
1.87896
0.598626
1.87719
0.631857
1.87424
0.667223
1.86778
0.704466
1.85529
0.741884
1.83497
0.77826
1.80595
0.811675
1.76923
0.841278
1.72694
0.867613
1.68345
0.890986
1.64393
0.91504
1.61482
0.942689
1.6015
0.979224
1.60736
1.02987
1.63194
1.09841
1.67128
1.18603
1.71771
1.29117
1.76115
1.4084
1.79307
1.5298
1.8094
1.64766
1.81277
1.75854
1.80912
1.86407
1.80317
1.96873
1.79719
2.0772
1.79134
2.19163
1.78535
2.31269
1.77906
2.44043
1.77245
2.57495
1.76555
2.71701
1.75838
2.8663
1.75067
3.02423
1.74288
3.19031
1.73471
3.3658
1.72619
3.55045
1.71732
3.74542
1.70796
3.95114
1.69841
4.16757
1.68838
4.39621
1.67786
4.63724
1.66671
4.89146
1.65524
5.15915
1.64312
5.44182
1.6305
5.73962
1.61723
6.05358
1.60329
6.38467
1.5885
6.73368
1.57286
7.10132
1.55635
7.48988
1.54303
5.874
1.52841
6.4583
1.51201
7.10203
1.49428
7.81051
1.47446
8.58724
1.45246
9.44272
1.42825
10.3828
1.40127
11.4172
1.37177
12.5542
1.33815
13.8021
1.30277
15.1841
1.26004
16.6741
18.4033
1.99944
0.241647
1.99852
0.2549
1.99755
0.268895
1.99642
0.283834
1.99526
0.299272
1.99409
0.315925
1.99274
0.333319
1.99139
0.351689
1.99
0.370931
1.98862
0.391422
1.98705
0.413042
1.98547
0.435552
1.98386
0.459657
1.98208
0.484942
1.9801
0.511644
1.97805
0.539829
1.9758
0.569406
1.97382
0.600608
1.97203
0.633644
1.97032
0.668934
1.96846
0.706317
1.96439
0.745954
1.95553
0.787116
1.93938
0.827823
1.91439
0.866269
1.88079
0.901211
1.83966
0.932116
1.79509
0.959609
1.75193
0.985849
1.71684
1.0143
1.69634
1.05037
1.69507
1.09969
1.71412
1.16698
1.75007
1.25522
1.79571
1.36276
1.84056
1.48495
1.87493
1.6133
1.89411
1.73935
1.89939
1.85879
1.89618
1.97195
1.89001
2.08337
1.88354
2.1981
1.87701
2.31922
1.87037
2.44707
1.86343
2.58189
1.85616
2.72428
1.84845
2.87401
1.84048
3.03221
1.8321
3.19868
1.82334
3.37457
1.8142
3.55959
1.8047
3.75493
1.79483
3.961
1.78448
4.17793
1.77362
4.40706
1.76228
4.64859
1.75061
4.90313
1.73815
5.17161
1.72537
5.45461
1.71179
5.7532
1.69756
6.0678
1.68253
6.3997
1.66683
6.74938
1.65031
7.11784
1.63294
7.50724
1.61881
5.88813
1.60324
6.47387
1.58623
7.11904
1.56728
7.82945
1.5466
8.60793
1.52362
9.46571
1.49831
10.4081
1.46981
11.4457
1.43911
12.5849
1.40409
13.8371
1.36693
15.2212
1.32253
16.7185
18.4406
2.0918
0.242568
2.09085
0.255809
2.08976
0.269946
2.08871
0.284868
2.08767
0.300289
2.08649
0.317082
2.0855
0.334304
2.08436
0.352819
2.08308
0.372207
2.0818
0.39269
2.08069
0.414149
2.07926
0.436973
2.07784
0.461083
2.07624
0.486532
2.0748
0.513087
2.07317
0.541455
2.07133
0.571247
2.06927
0.602669
2.06725
0.635659
2.06555
0.67064
2.06406
0.707801
2.06284
0.747178
2.06058
0.78938
2.05474
0.83366
2.04253
0.878478
2.02155
0.922196
1.99133
0.962334
1.95225
0.998694
1.90728
1.03082
1.86149
1.0601
1.82123
1.09063
1.79395
1.12697
1.78565
1.17528
1.79873
1.24214
1.83104
1.33045
1.87542
1.44057
1.92136
1.56737
1.958
1.70271
1.97947
1.83732
1.98641
1.965
1.98384
2.08594
1.97747
2.20447
1.97053
2.32616
1.9635
2.45411
1.95638
2.58901
1.94895
2.73171
1.94086
2.8821
1.93261
3.04045
1.92362
3.20767
1.91469
3.3835
1.9049
3.56939
1.89488
3.76495
1.88449
3.97139
1.87343
4.18899
1.86202
4.41847
1.85011
4.66049
1.83756
4.91568
1.82453
5.18465
1.81071
5.46843
1.79641
5.7675
1.78132
6.08289
1.76559
6.41543
1.74891
6.76607
1.73141
7.13534
1.71309
7.52556
1.69819
5.90304
1.68171
6.49035
1.66382
7.13694
1.64401
7.84926
1.62203
8.62991
1.59795
9.48979
1.57141
10.4346
1.54207
11.4751
1.50975
12.6173
1.47318
13.8737
1.43454
15.2599
1.38831
16.7647
18.4791
2.18826
0.24326
2.18746
0.256624
2.1867
0.270732
2.18594
0.285628
2.18506
0.301183
2.18435
0.3178
2.18334
0.33532
2.18249
0.353664
2.18166
0.373041
2.18068
0.393674
2.17954
0.415288
2.1784
0.438114
2.1771
0.462385
2.17595
0.487684
2.17449
0.514556
2.17317
0.542771
2.17153
0.572891
2.17
0.604201
2.16809
0.637571
2.16619
0.672546
2.16453
0.709456
2.16315
0.748569
2.1622
0.790326
2.16101
0.834868
2.15732
0.882162
2.14845
0.931073
2.13131
0.979472
2.10438
1.02563
2.0678
1.0674
2.02336
1.10455
1.97555
1.13844
1.93095
1.17157
1.89726
1.20897
1.88212
1.25728
1.88885
1.32372
1.91695
1.41248
1.95934
1.52497
2.00554
1.65651
2.0441
1.79876
2.06742
1.94169
2.07555
2.07781
2.07341
2.20661
2.06666
2.33291
2.05893
2.46183
2.05126
2.59668
2.0434
2.73956
2.03529
2.89021
2.02655
3.04919
2.01752
3.2167
2.00791
3.3931
1.99807
3.57923
1.98768
3.77533
1.97659
3.98247
1.96514
4.20045
1.95317
4.43044
1.94069
4.67297
1.92756
4.92881
1.91378
5.19843
1.89936
5.48285
1.88431
5.78255
1.86847
6.09874
1.85183
6.43207
1.83441
6.7835
1.81603
7.15372
1.79653
7.54506
1.7809
5.91866
1.76389
6.50736
1.74501
7.15582
1.72408
7.87018
1.70132
8.65268
1.67618
9.51493
1.64847
10.4623
1.61754
11.506
1.58381
12.651
1.54575
13.9118
1.5054
15.3002
1.45741
16.8127
18.5184
2.29539
0.243728
2.29502
0.257225
2.29466
0.271323
2.29426
0.286219
2.29368
0.301941
2.29289
0.318734
2.29237
0.335966
2.29148
0.354655
2.29038
0.374224
2.28939
0.394739
2.28817
0.416551
2.28676
0.439577
2.28544
0.463737
2.28393
0.489233
2.28221
0.516299
2.28031
0.544697
2.27853
0.574677
2.27645
0.606317
2.27429
0.639724
2.27194
0.674916
2.26957
0.711831
2.26728
0.750874
2.26542
0.792174
2.26445
0.835859
2.26352
0.883086
2.26113
0.933469
2.25446
0.986136
2.24061
1.03949
2.21693
1.09107
2.18285
1.13863
2.13962
1.18166
2.09098
1.22022
2.04309
1.25685
2.00376
1.29661
1.98169
1.34578
1.98166
1.4125
2.00455
1.50208
2.04414
1.61692
2.08993
1.75296
2.12963
1.90199
2.15483
2.0526
2.1643
2.19714
2.16289
2.33431
2.15667
2.46806
2.14884
2.6045
2.14077
2.74763
2.13255
2.89843
2.12383
3.05791
2.11471
3.22582
2.1048
3.40301
2.09445
3.58957
2.08355
3.78623
2.07227
3.99375
2.06031
4.21241
2.04783
4.44292
2.03469
4.68611
2.02105
4.94245
2.00661
5.21287
1.99168
5.49777
1.97581
5.79842
1.95931
6.11524
1.94171
6.44967
1.92347
6.80173
1.90429
7.1729
1.884
7.56536
1.86772
5.93494
1.84975
6.52533
1.82994
7.17563
1.80826
7.89186
1.78445
8.67648
1.758
9.54139
1.729
10.4913
1.69685
11.5381
1.66177
12.6861
1.62211
13.9514
1.58036
15.342
1.53
16.8631
18.5576
2.42216
0.244067
2.42166
0.257434
2.42116
0.271584
2.42042
0.286713
2.41965
0.30253
2.41875
0.319439
2.41765
0.336955
2.41637
0.355786
2.41502
0.375504
2.41332
0.396328
2.41154
0.418293
2.4094
0.44163
2.40719
0.465937
2.40462
0.491731
2.402
0.518925
2.39904
0.547591
2.39608
0.577658
2.39283
0.609518
2.38945
0.643127
2.38595
0.678368
2.38215
0.715653
2.37828
0.754696
2.37473
0.795757
2.37148
0.839064
2.36927
0.885327
2.36796
0.934744
2.36616
0.987956
2.36094
1.04468
2.34944
1.10259
2.3285
1.15955
2.29707
1.2131
2.25581
1.26146
2.20778
1.30489
2.15868
1.3457
2.11673
1.38775
2.09051
1.43871
2.08623
1.50636
2.10559
1.59755
2.1428
1.71575
2.18738
1.85741
2.2264
2.01358
2.25075
2.17279
2.25878
2.32628
2.25533
2.47151
2.24694
2.61289
2.23772
2.75685
2.2287
2.90745
2.21984
3.06676
2.21058
3.23507
2.20102
3.41257
2.19067
3.59991
2.17989
3.79701
2.16854
4.00509
2.15649
4.22446
2.14388
4.45552
2.13059
4.69941
2.1166
4.95643
2.10195
5.22752
2.08647
5.51325
2.07017
5.81472
2.05291
6.1325
2.035
6.46758
2.01597
6.82076
1.99599
7.19289
1.97504
7.5863
1.95788
5.95211
1.9392
6.54402
1.91869
7.19614
1.89604
7.91451
1.87112
8.70141
1.84358
9.56892
1.81337
10.5216
1.77991
11.5716
1.74339
12.7226
1.70215
13.9927
1.6588
15.3853
1.60562
16.9163
18.5943
2.59624
0.245444
2.59448
0.259059
2.59239
0.273633
2.58996
0.289043
2.58716
0.305316
2.58415
0.322375
2.58075
0.340365
2.57696
0.359513
2.57278
0.379704
2.56806
0.400994
2.56313
0.423255
2.558
0.446715
2.55237
0.4716
2.54642
0.497637
2.54017
0.525208
2.53367
0.554064
2.52692
0.584444
2.51984
0.616573
2.51274
0.65025
2.50541
0.685678
2.49796
0.723135
2.49044
0.762197
2.4827
0.803525
2.47507
0.846682
2.46848
0.891929
2.46299
0.940237
2.45925
0.991704
2.45657
1.04736
2.45225
1.10693
2.44284
1.16896
2.42474
1.23121
2.39533
1.29088
2.35418
1.34605
2.30396
1.39593
2.24903
1.44268
2.19837
1.48938
2.16172
1.54302
2.14754
1.61173
2.16011
1.70319
2.19639
1.82114
2.24606
1.96392
2.29479
2.12407
2.33073
2.29035
2.34921
2.45303
2.35269
2.60942
2.34738
2.76216
2.33858
2.91626
2.32861
3.07673
2.31842
3.24527
2.30769
3.42331
2.29678
3.61084
2.28503
3.80876
2.27296
4.01718
2.2604
4.23703
2.24706
4.46887
2.23309
4.71339
2.21849
4.97105
2.20324
5.24277
2.18705
5.52945
2.17022
5.83156
2.15245
6.15029
2.13371
6.48632
2.11403
6.84046
2.09307
7.21385
2.07098
7.6084
2.05341
5.96969
2.03371
6.56372
2.01238
7.21748
1.98875
7.93814
1.96272
8.72745
1.93406
9.59759
1.9027
10.5529
1.86754
11.6068
1.82972
12.7604
1.78564
14.0367
1.7427
15.4283
1.68307
16.9759
18.6234
2.67773
2.6753
2.67257
2.66965
2.66644
2.66286
2.65883
2.6546
2.65009
2.64538
2.64027
2.6348
2.62911
2.62309
2.61687
2.61034
2.60347
2.59649
2.58923
2.58173
2.57415
2.56618
2.55812
2.54987
2.54155
2.53395
2.52749
2.52222
2.51753
2.51152
2.50146
2.48518
2.4613
2.42961
2.39237
2.35308
2.3178
2.2934
2.28561
2.29606
2.32147
2.35405
2.38421
2.40469
2.41417
2.41511
2.41117
2.40519
2.39822
2.39064
2.38214
2.37295
2.36266
2.35155
2.33957
2.3267
2.31289
2.2981
2.28242
2.26567
2.24803
2.22919
2.20918
2.18813
2.16574
2.14743
2.12752
2.10539
2.08114
2.05444
2.02475
1.99255
1.9555
1.91788
1.869
1.82992
1.75598
)
;

boundaryField
{
    inlet
    {
        type            calculated;
        value           nonuniform List<scalar> 
27
(
0.491603
0.51589
0.541262
0.5678
0.59565
0.624852
0.655478
0.687566
0.721356
0.756504
0.793688
0.832591
0.873544
0.916243
0.961352
1.00876
1.05878
1.11104
1.16624
1.22423
1.28523
1.34984
1.41806
1.49082
1.56887
1.65397
1.68768
)
;
    }
    outlet
    {
        type            calculated;
        value           nonuniform List<scalar> 
78
(
0.247549
0.261536
0.276347
0.292
0.30852
0.325986
0.344383
0.363775
0.384203
0.405724
0.428365
0.452195
0.477284
0.503673
0.531427
0.560612
0.591305
0.623569
0.657514
0.693185
0.730719
0.770174
0.811596
0.854936
0.900263
0.947846
0.998169
1.05264
1.11163
1.17498
1.24128
1.30717
1.36993
1.42764
1.47993
1.52868
1.57831
1.63615
1.71099
1.8107
1.93852
2.0915
2.26021
2.43257
2.59998
2.76124
2.92023
3.08273
3.25228
3.43091
3.61937
3.81797
4.02752
4.24815
4.4809
4.72627
4.98491
5.25757
5.54517
5.84833
6.16795
6.50517
6.8605
7.23491
7.63079
5.98801
6.58364
7.2396
7.9624
8.75415
9.62728
10.5851
11.6438
12.7981
14.0856
15.4673
17.0498
18.6917
)
;
    }
    walls
    {
        type            calculated;
        value           nonuniform List<scalar> 0();
    }
    frontAndBack
    {
        type            empty;
    }
    procBoundary7to3
    {
        type            processor;
        value           nonuniform List<scalar> 
16
(
-0.849108
-0.891392
-0.935621
-0.982259
-1.03102
-1.71713
-1.80934
-1.90601
0.227993
-2.00023
-2.0929
-2.18888
-2.29528
-2.42303
-2.59783
-2.67991
)
;
    }
    procBoundary7to6
    {
        type            processor;
        value           nonuniform List<scalar> 
91
(
-18.3428
-0.489387
-16.5405
-0.515557
-15.1062
-0.539633
-13.7114
-11.3522
-0.566171
-12.4855
-9.39493
-0.592468
-10.3285
-7.07149
-7.77496
-0.61944
-8.54586
-7.46365
-5.85067
-0.645792
-6.43114
-6.03708
-6.3658
-6.71188
-0.672144
-7.07636
-4.62518
-4.87837
-5.14511
-5.42626
-0.694724
-5.72235
-3.17686
-3.35225
-3.53713
-3.73191
-3.9374
-4.15371
-0.714731
-4.38181
-1.65989
-1.75254
-1.85026
-1.95346
-2.06211
-2.17672
-2.2977
-2.42525
-2.55964
-2.70149
-2.85091
-0.735343
-3.00866
-0.225295
-0.237654
-0.250671
-0.264444
-0.278947
-0.294233
-0.310382
-0.327391
-0.345416
-0.364585
-0.38474
-0.405052
-0.4244
-0.441737
-0.456567
-0.468771
-0.478725
-0.487249
-0.495545
-0.505492
-0.519416
-0.540115
-0.570334
-0.612165
-0.666675
-0.733685
-0.811666
-0.896742
-0.983118
-1.06317
-1.13375
-1.19889
-1.26469
-1.33485
-1.40979
-1.48896
-0.769818
-1.57232
)
;
    }
}


// ************************************************************************* //
