/*--------------------------------*- C++ -*----------------------------------*\
| =========                 |                                                 |
| \\      /  F ield         | OpenFOAM: The Open Source CFD Toolbox           |
|  \\    /   O peration     | Version:  2506                                  |
|   \\  /    A nd           | Website:  www.openfoam.com                      |
|    \\/     M anipulation  |                                                 |
\*---------------------------------------------------------------------------*/
FoamFile
{
    version     2.0;
    format      ascii;
    arch        "LSB;label=32;scalar=64";
    class       volScalarField;
    location    "100";
    object      turbulenceProperties:nuEff;
}
// * * * * * * * * * * * * * * * * * * * * * * * * * * * * * * * * * * * * * //

dimensions      [0 2 -1 0 0 0 0];

internalField   nonuniform List<scalar> 
1340
(
1.60824e-05
1.60813e-05
1.60825e-05
1.60711e-05
1.60815e-05
1.60827e-05
1.60718e-05
1.6071e-05
1.60817e-05
1.6083e-05
1.60788e-05
1.60749e-05
1.6072e-05
1.6071e-05
1.6082e-05
1.60833e-05
1.6087e-05
1.60834e-05
1.60793e-05
1.60753e-05
1.60722e-05
1.6071e-05
1.60822e-05
1.60837e-05
1.60951e-05
1.6093e-05
1.60905e-05
1.60874e-05
1.60839e-05
1.60798e-05
1.60757e-05
1.60724e-05
1.6071e-05
1.60824e-05
1.60841e-05
1.60996e-05
1.60982e-05
1.6097e-05
1.60954e-05
1.60934e-05
1.60908e-05
1.60879e-05
1.60843e-05
1.60803e-05
1.60762e-05
1.60727e-05
1.60711e-05
1.60827e-05
1.60846e-05
1.61029e-05
1.61028e-05
1.61022e-05
1.61012e-05
1.60998e-05
1.60984e-05
1.60972e-05
1.60957e-05
1.60937e-05
1.60912e-05
1.60883e-05
1.60848e-05
1.60808e-05
1.60766e-05
1.6073e-05
1.60712e-05
1.6083e-05
1.60852e-05
1.60987e-05
1.60999e-05
1.6101e-05
1.61018e-05
1.61025e-05
1.61028e-05
1.61028e-05
1.61023e-05
1.61013e-05
1.61e-05
1.60986e-05
1.60974e-05
1.6096e-05
1.6094e-05
1.60916e-05
1.60887e-05
1.60853e-05
1.60813e-05
1.60771e-05
1.60733e-05
1.60713e-05
1.60833e-05
1.60859e-05
1.60869e-05
1.6088e-05
1.60896e-05
1.60915e-05
1.60933e-05
1.60951e-05
1.60968e-05
1.60983e-05
1.60996e-05
1.61007e-05
1.61016e-05
1.61023e-05
1.61028e-05
1.61028e-05
1.61024e-05
1.61015e-05
1.61001e-05
1.60988e-05
1.60976e-05
1.60962e-05
1.60944e-05
1.60919e-05
1.60891e-05
1.60857e-05
1.60819e-05
1.60776e-05
1.60737e-05
1.60715e-05
1.60836e-05
1.60866e-05
1.27162e-05
1.75926e-05
1.70182e-05
1.61869e-05
1.60681e-05
1.61049e-05
1.61151e-05
1.6108e-05
1.60999e-05
1.60938e-05
1.60895e-05
1.60875e-05
1.60873e-05
1.60882e-05
1.60896e-05
1.60912e-05
1.6093e-05
1.60948e-05
1.60965e-05
1.6098e-05
1.60993e-05
1.61005e-05
1.61014e-05
1.61022e-05
1.61027e-05
1.61028e-05
1.61025e-05
1.61016e-05
1.61003e-05
1.6099e-05
1.60978e-05
1.60965e-05
1.60947e-05
1.60922e-05
1.60895e-05
1.60862e-05
1.60824e-05
1.60782e-05
1.60741e-05
1.60718e-05
1.60839e-05
1.60874e-05
1.60876e-05
1.62987e-05
1.72452e-05
1.49198e-05
1.01798e-05
1.00009e-05
1e-05
1e-05
1e-05
0.000315735
0.000930392
0.0419285
0.135755
0.26122
0.393195
0.518372
0.630962
0.728044
0.808032
0.870746
0.918027
0.954311
0.986761
1.02199
1.04453
1.03506
0.975121
0.848003
0.644607
0.387145
0.154683
0.0308504
0.000643704
0.000128629
1e-05
1e-05
1e-05
1.00102e-05
1.25277e-05
1.73473e-05
1.67798e-05
1.61788e-05
1.61038e-05
1.61187e-05
1.61131e-05
1.61026e-05
1.60954e-05
1.60909e-05
1.60887e-05
1.60881e-05
1.60885e-05
1.60896e-05
1.60911e-05
1.60928e-05
1.60945e-05
1.60961e-05
1.60977e-05
1.6099e-05
1.61002e-05
1.61012e-05
1.6102e-05
1.61026e-05
1.61028e-05
1.61026e-05
1.61017e-05
1.61005e-05
1.60991e-05
1.6098e-05
1.60968e-05
1.6095e-05
1.60926e-05
1.60898e-05
1.60866e-05
1.60829e-05
1.60787e-05
1.60745e-05
1.6072e-05
1.60842e-05
1.60883e-05
1.61539e-05
1.60628e-05
1.63319e-05
1.71636e-05
1.60452e-05
1.10388e-05
1.00048e-05
1e-05
1e-05
1e-05
1.00673e-05
0.00709922
0.0282636
0.108419
0.226259
0.355941
0.481027
0.5942
0.691958
0.772505
0.835567
0.882914
0.919096
0.95152
0.986692
1.00877
0.998046
0.935783
0.805218
0.598923
0.346156
0.130529
0.0233316
0.00566972
1e-05
1e-05
1e-05
1e-05
1e-05
1.31738e-05
1.69216e-05
1.64901e-05
1.61322e-05
1.61105e-05
1.61194e-05
1.61092e-05
1.60984e-05
1.60925e-05
1.60899e-05
1.6089e-05
1.60891e-05
1.60899e-05
1.60911e-05
1.60926e-05
1.60942e-05
1.60958e-05
1.60974e-05
1.60987e-05
1.61e-05
1.6101e-05
1.61018e-05
1.61025e-05
1.61028e-05
1.61026e-05
1.61019e-05
1.61006e-05
1.60993e-05
1.60982e-05
1.6097e-05
1.60953e-05
1.60929e-05
1.60902e-05
1.6087e-05
1.60834e-05
1.60793e-05
1.6075e-05
1.60723e-05
1.60845e-05
1.60892e-05
1.61649e-05
1.61268e-05
1.60871e-05
1.62738e-05
1.69846e-05
1.68439e-05
1.19921e-05
1.00093e-05
1e-05
1e-05
1e-05
1e-05
0.00472143
0.0187601
0.084367
0.193479
0.320155
0.44527
0.559474
0.658371
0.7398
0.803337
0.850794
0.886968
0.919529
0.954791
0.976286
0.963838
0.898179
0.762285
0.552002
0.304878
0.107252
0.0162153
0.00391068
1e-05
1e-05
1e-05
1e-05
1.00299e-05
1.41163e-05
1.67295e-05
1.63019e-05
1.61136e-05
1.61262e-05
1.61215e-05
1.61045e-05
1.60949e-05
1.60914e-05
1.60902e-05
1.609e-05
1.60905e-05
1.60914e-05
1.60927e-05
1.60941e-05
1.60956e-05
1.60971e-05
1.60985e-05
1.60997e-05
1.61008e-05
1.61017e-05
1.61024e-05
1.61027e-05
1.61027e-05
1.6102e-05
1.61008e-05
1.60995e-05
1.60984e-05
1.60973e-05
1.60956e-05
1.60932e-05
1.60905e-05
1.60875e-05
1.6084e-05
1.60799e-05
1.60755e-05
1.60727e-05
1.60848e-05
1.60903e-05
1.61461e-05
1.61407e-05
1.61243e-05
1.61096e-05
1.62014e-05
1.68211e-05
1.71525e-05
1.28475e-05
1.00137e-05
1e-05
1e-05
1e-05
1e-05
0.00265122
0.0103374
0.0634931
0.162933
0.285984
0.411103
0.526548
0.626778
0.709178
0.773193
0.820738
0.856928
0.889745
0.925261
0.945978
0.931085
0.860629
0.717969
0.503537
0.264103
0.0854518
0.0104762
0.00252048
1e-05
1e-05
1e-05
1.00007e-05
1.02525e-05
1.52651e-05
1.66169e-05
1.59848e-05
1.59662e-05
1.6096e-05
1.61215e-05
1.61047e-05
1.60942e-05
1.60914e-05
1.6091e-05
1.60912e-05
1.60918e-05
1.60929e-05
1.60941e-05
1.60955e-05
1.60969e-05
1.60982e-05
1.60995e-05
1.61006e-05
1.61015e-05
1.61022e-05
1.61027e-05
1.61027e-05
1.61021e-05
1.6101e-05
1.60996e-05
1.60986e-05
1.60976e-05
1.6096e-05
1.60936e-05
1.60909e-05
1.60879e-05
1.60845e-05
1.60805e-05
1.60761e-05
1.60731e-05
1.60851e-05
1.60913e-05
1.61367e-05
1.61385e-05
1.61435e-05
1.61392e-05
1.61096e-05
1.61402e-05
1.66979e-05
1.71907e-05
1.46147e-05
1.0001e-05
1e-05
1e-05
1e-05
1e-05
0.000989024
0.00362622
0.0446379
0.132654
0.250795
0.376234
0.494073
0.596828
0.681072
0.746003
0.793642
0.829521
0.8621
0.897437
0.91743
0.900087
0.8245
0.674807
0.457151
0.226192
0.0629899
0.00656643
0.00183066
1e-05
1e-05
1e-05
1.00015e-05
1.04564e-05
1.73027e-05
1.82345e-05
1.64404e-05
1.595e-05
1.60302e-05
1.60982e-05
1.61028e-05
1.60956e-05
1.60924e-05
1.6092e-05
1.60924e-05
1.60931e-05
1.60942e-05
1.60954e-05
1.60968e-05
1.60981e-05
1.60993e-05
1.61004e-05
1.61013e-05
1.61021e-05
1.61026e-05
1.61027e-05
1.61022e-05
1.61011e-05
1.60998e-05
1.60988e-05
1.60978e-05
1.60963e-05
1.60939e-05
1.60912e-05
1.60883e-05
1.6085e-05
1.60811e-05
1.60766e-05
1.60736e-05
1.60854e-05
1.60925e-05
1.61367e-05
1.61442e-05
1.61564e-05
1.6154e-05
1.61406e-05
1.61283e-05
1.61451e-05
1.64916e-05
1.7134e-05
1.5199e-05
1.05684e-05
1.00027e-05
1e-05
1e-05
1e-05
1.68692e-05
0.00560958
0.0216531
0.0832327
0.181863
0.299928
0.419403
0.528555
0.62103
0.694232
0.748885
0.789371
0.822607
0.856094
0.878174
0.866607
0.799466
0.66159
0.460858
0.244512
0.0880821
0.0132076
0.00383931
4.26235e-05
1e-05
1e-05
1e-05
1.00083e-05
1.13109e-05
1.69282e-05
1.71383e-05
1.62547e-05
1.60397e-05
1.60706e-05
1.60951e-05
1.60969e-05
1.60945e-05
1.60936e-05
1.60939e-05
1.60946e-05
1.60955e-05
1.60967e-05
1.60979e-05
1.60992e-05
1.61003e-05
1.61014e-05
1.61022e-05
1.61028e-05
1.6103e-05
1.61026e-05
1.61016e-05
1.61003e-05
1.60992e-05
1.60983e-05
1.60969e-05
1.60945e-05
1.60917e-05
1.60888e-05
1.60856e-05
1.60818e-05
1.60773e-05
1.60742e-05
1.60858e-05
1.60938e-05
1.61533e-05
1.61689e-05
1.61875e-05
1.6187e-05
1.61719e-05
1.61795e-05
1.6203e-05
1.62219e-05
1.62503e-05
1.71451e-05
1.69947e-05
1.33702e-05
1e-05
1e-05
1e-05
1e-05
1e-05
0.000497165
0.00117897
0.0303399
0.0994549
0.201643
0.318738
0.434364
0.537853
0.623313
0.688853
0.736734
0.773751
0.80669
0.834794
0.837399
0.7907
0.676549
0.496689
0.290653
0.1223
0.0298959
0.00238578
0.000687997
1e-05
1e-05
1e-05
1.0001e-05
1.01892e-05
1.48125e-05
1.71318e-05
1.64941e-05
1.61009e-05
1.60646e-05
1.60892e-05
1.60974e-05
1.6097e-05
1.60962e-05
1.60965e-05
1.60973e-05
1.60981e-05
1.6099e-05
1.60999e-05
1.61008e-05
1.61017e-05
1.61024e-05
1.61031e-05
1.61034e-05
1.61032e-05
1.61022e-05
1.61008e-05
1.60998e-05
1.60989e-05
1.60976e-05
1.60952e-05
1.60924e-05
1.60893e-05
1.60863e-05
1.60826e-05
1.6078e-05
1.60748e-05
1.60861e-05
1.60951e-05
1.61797e-05
1.61959e-05
1.6225e-05
1.62311e-05
1.62112e-05
1.61987e-05
1.62321e-05
1.62879e-05
1.62414e-05
1.61571e-05
1.66555e-05
1.74377e-05
1.64616e-05
1.01894e-05
1.00009e-05
1e-05
1e-05
1e-05
1.00512e-05
0.00177648
0.00621763
0.0464955
0.127493
0.235467
0.351983
0.462504
0.557795
0.63338
0.689423
0.730813
0.763708
0.794949
0.807723
0.776431
0.680299
0.517889
0.32217
0.149868
0.046457
0.00487594
0.00137409
1e-05
1e-05
1e-05
1.00001e-05
1.00094e-05
1.3333e-05
1.69326e-05
1.66381e-05
1.61653e-05
1.60715e-05
1.60849e-05
1.60955e-05
1.60968e-05
1.60961e-05
1.60964e-05
1.60974e-05
1.60986e-05
1.60996e-05
1.61007e-05
1.61019e-05
1.61029e-05
1.61036e-05
1.61039e-05
1.61037e-05
1.61028e-05
1.61015e-05
1.61004e-05
1.60995e-05
1.60983e-05
1.6096e-05
1.6093e-05
1.60899e-05
1.60869e-05
1.60833e-05
1.60788e-05
1.60755e-05
1.60864e-05
1.60964e-05
1.61941e-05
1.62204e-05
1.62339e-05
1.62148e-05
1.61853e-05
1.6191e-05
1.62619e-05
1.6336e-05
1.61846e-05
1.59104e-05
1.6192e-05
1.78701e-05
1.80011e-05
1.16658e-05
1.00079e-05
1e-05
1e-05
1e-05
1e-05
3.85843e-05
0.00480265
0.0183897
0.0761344
0.170476
0.28264
0.396043
0.498519
0.582872
0.646792
0.692823
0.727878
0.75872
0.776696
0.756336
0.674763
0.527696
0.341662
0.170229
0.0578983
0.00906459
0.00244754
1.00552e-05
1e-05
1e-05
1e-05
1e-05
1.22863e-05
1.65715e-05
1.66828e-05
1.62211e-05
1.60922e-05
1.60899e-05
1.60981e-05
1.61e-05
1.60994e-05
1.60993e-05
1.61002e-05
1.61011e-05
1.61015e-05
1.61018e-05
1.61025e-05
1.61035e-05
1.61043e-05
1.61043e-05
1.61035e-05
1.61022e-05
1.61011e-05
1.61002e-05
1.6099e-05
1.60968e-05
1.60938e-05
1.60906e-05
1.60876e-05
1.60841e-05
1.60796e-05
1.60763e-05
1.60867e-05
1.60978e-05
1.61593e-05
1.61743e-05
1.61987e-05
1.61967e-05
1.61674e-05
1.6149e-05
1.6188e-05
1.62849e-05
1.6309e-05
1.60701e-05
1.56867e-05
1.59174e-05
1.81293e-05
1.91258e-05
1.41855e-05
1.00044e-05
1e-05
1e-05
1e-05
1e-05
1e-05
0.00116987
0.00411811
0.0436341
0.122271
0.226365
0.338881
0.445669
0.53704
0.608193
0.659422
0.696435
0.725447
0.745554
0.732636
0.662586
0.527932
0.351419
0.182812
0.0667011
0.0133712
0.000394328
8.33611e-05
1e-05
1e-05
1e-05
1.00076e-05
1.19073e-05
1.62957e-05
1.66499e-05
1.62382e-05
1.61039e-05
1.60938e-05
1.61005e-05
1.61035e-05
1.61029e-05
1.6102e-05
1.61028e-05
1.61044e-05
1.61051e-05
1.61045e-05
1.6104e-05
1.61042e-05
1.61045e-05
1.61041e-05
1.61029e-05
1.61018e-05
1.61009e-05
1.60998e-05
1.60977e-05
1.60946e-05
1.60912e-05
1.60882e-05
1.60848e-05
1.60804e-05
1.6077e-05
1.6087e-05
1.60991e-05
1.61616e-05
1.61659e-05
1.61932e-05
1.62111e-05
1.61957e-05
1.61632e-05
1.61589e-05
1.62187e-05
1.63111e-05
1.62792e-05
1.59236e-05
1.55007e-05
1.60754e-05
1.81416e-05
1.91561e-05
1.6471e-05
1.01063e-05
1.00005e-05
1e-05
1e-05
1e-05
1e-05
1.96662e-05
0.00567238
0.0222015
0.0864941
0.180727
0.289596
0.398144
0.494728
0.572255
0.628823
0.668021
0.695365
0.715227
0.706879
0.645217
0.520432
0.352422
0.187983
0.0718645
0.0169323
0.000429541
0.000133188
1e-05
1e-05
1e-05
1.00073e-05
1.18837e-05
1.61842e-05
1.66229e-05
1.62651e-05
1.61242e-05
1.60943e-05
1.60921e-05
1.60954e-05
1.6097e-05
1.6097e-05
1.60987e-05
1.61026e-05
1.61061e-05
1.6107e-05
1.61062e-05
1.61053e-05
1.61046e-05
1.61036e-05
1.61025e-05
1.61016e-05
1.61007e-05
1.60986e-05
1.60955e-05
1.60919e-05
1.60889e-05
1.60856e-05
1.60812e-05
1.60779e-05
1.60873e-05
1.61004e-05
1.62375e-05
1.6237e-05
1.62566e-05
1.62835e-05
1.62895e-05
1.62662e-05
1.62395e-05
1.62549e-05
1.63347e-05
1.64127e-05
1.63042e-05
1.58877e-05
1.562e-05
1.62718e-05
1.7874e-05
1.95236e-05
1.7211e-05
1.0853e-05
1.0004e-05
1e-05
1e-05
1e-05
1e-05
1e-05
0.00299834
0.0117627
0.0607395
0.144047
0.247242
0.355388
0.455535
0.538591
0.600454
0.642411
0.670125
0.688083
0.68147
0.625114
0.507577
0.346646
0.187274
0.0736435
0.0172248
0.00145952
0.000451586
1e-05
1e-05
1e-05
1.00064e-05
1.16461e-05
1.57668e-05
1.63204e-05
1.61645e-05
1.61336e-05
1.61219e-05
1.61094e-05
1.61056e-05
1.61039e-05
1.61e-05
1.60972e-05
1.60991e-05
1.61038e-05
1.61071e-05
1.61073e-05
1.61061e-05
1.61045e-05
1.61033e-05
1.61023e-05
1.61014e-05
1.60995e-05
1.60964e-05
1.60926e-05
1.60895e-05
1.60863e-05
1.6082e-05
1.60787e-05
1.60876e-05
1.61017e-05
1.64213e-05
1.64361e-05
1.6458e-05
1.64954e-05
1.65318e-05
1.65457e-05
1.65369e-05
1.65355e-05
1.65823e-05
1.66813e-05
1.67444e-05
1.65726e-05
1.61466e-05
1.59901e-05
1.66313e-05
1.80639e-05
1.99557e-05
1.84522e-05
1.2469e-05
1.00042e-05
1e-05
1e-05
1e-05
1e-05
1e-05
0.00101837
0.0037591
0.0413516
0.114199
0.210421
0.315947
0.417212
0.503782
0.569849
0.614871
0.643566
0.659979
0.653996
0.601175
0.489365
0.335387
0.183002
0.0742283
0.0210966
0.00381468
1.02547e-05
1.00006e-05
1e-05
1e-05
1.00002e-05
1.28774e-05
1.67752e-05
1.64793e-05
1.60719e-05
1.60719e-05
1.61173e-05
1.61231e-05
1.61202e-05
1.61181e-05
1.61122e-05
1.61043e-05
1.61008e-05
1.61029e-05
1.61062e-05
1.61073e-05
1.61063e-05
1.61047e-05
1.61034e-05
1.61025e-05
1.61007e-05
1.60976e-05
1.60936e-05
1.60903e-05
1.60871e-05
1.6083e-05
1.60796e-05
1.60875e-05
1.6103e-05
1.68865e-05
1.69539e-05
1.70132e-05
1.70822e-05
1.71573e-05
1.72191e-05
1.72522e-05
1.72631e-05
1.72842e-05
1.73515e-05
1.74548e-05
1.74711e-05
1.72103e-05
1.67848e-05
1.66686e-05
1.72043e-05
1.85546e-05
2.03693e-05
1.98516e-05
1.47747e-05
1.01344e-05
1.00007e-05
1e-05
1e-05
1e-05
1e-05
1.87732e-05
0.00699176
0.0279551
0.0932485
0.186154
0.292213
0.396636
0.487443
0.557194
0.603994
0.63145
0.644042
0.635173
0.58061
0.467786
0.313924
0.163254
0.0580605
0.00760704
0.00283554
0.000338542
3.24115e-05
1e-05
1e-05
1.00068e-05
1.1585e-05
1.68723e-05
1.70059e-05
1.62777e-05
1.60785e-05
1.60847e-05
1.61011e-05
1.61095e-05
1.61161e-05
1.61167e-05
1.6111e-05
1.61055e-05
1.61044e-05
1.61057e-05
1.61062e-05
1.61054e-05
1.61042e-05
1.61032e-05
1.61015e-05
1.60983e-05
1.60942e-05
1.60907e-05
1.60876e-05
1.60835e-05
1.60805e-05
1.60883e-05
1.6104e-05
1.7833e-05
1.79422e-05
1.80325e-05
1.81187e-05
1.8207e-05
1.82908e-05
1.83545e-05
1.83852e-05
1.8389e-05
1.83989e-05
1.84589e-05
1.85685e-05
1.86009e-05
1.83699e-05
1.79385e-05
1.76615e-05
1.79363e-05
1.91166e-05
2.13032e-05
2.29419e-05
2.04418e-05
1.24646e-05
1.00004e-05
1e-05
1e-05
1e-05
1e-05
1e-05
0.00199914
0.00709333
0.0458422
0.11651
0.208165
0.307648
0.402048
0.481391
0.540591
0.580398
0.601957
0.603711
0.568523
0.481352
0.350923
0.211272
0.100393
0.0371261
0.0105373
0.0018162
1.3137e-05
1.00081e-05
1e-05
1.0003e-05
1.06816e-05
1.46514e-05
1.62718e-05
1.62511e-05
1.61291e-05
1.61e-05
1.60994e-05
1.6103e-05
1.61085e-05
1.61119e-05
1.61113e-05
1.61089e-05
1.61077e-05
1.61072e-05
1.61067e-05
1.61058e-05
1.61049e-05
1.61034e-05
1.61005e-05
1.60959e-05
1.60921e-05
1.60885e-05
1.60851e-05
1.60814e-05
1.60873e-05
1.61064e-05
)
;

boundaryField
{
    inlet
    {
        type            calculated;
        value           nonuniform List<scalar> 
27
(
1.60824e-05
1.60825e-05
1.60827e-05
1.6083e-05
1.60833e-05
1.60837e-05
1.60841e-05
1.60846e-05
1.60852e-05
1.60859e-05
1.60866e-05
1.60874e-05
1.60883e-05
1.60892e-05
1.60903e-05
1.60913e-05
1.60925e-05
1.60938e-05
1.60951e-05
1.60964e-05
1.60978e-05
1.60991e-05
1.61004e-05
1.61017e-05
1.6103e-05
1.6104e-05
1.61064e-05
)
;
    }
    outlet
    {
        type            calculated;
        value           nonuniform List<scalar> 
78
(
1.7833e-05
1.79422e-05
1.80325e-05
1.81187e-05
1.8207e-05
1.82908e-05
1.83545e-05
1.83852e-05
1.8389e-05
1.83989e-05
1.84589e-05
1.85685e-05
1.86009e-05
1.83699e-05
1.79385e-05
1.76615e-05
1.79363e-05
1.91166e-05
2.13032e-05
2.29419e-05
2.04418e-05
1.24646e-05
1.00004e-05
1e-05
1e-05
1e-05
1e-05
1e-05
0.00199914
0.00709333
0.0458422
0.11651
0.208165
0.307648
0.402048
0.481391
0.540591
0.580398
0.601957
0.603711
0.568523
0.481352
0.350923
0.211272
0.100393
0.0371261
0.0105373
0.0018162
1.3137e-05
1.00081e-05
1e-05
1.0003e-05
1.06816e-05
1.46514e-05
1.62718e-05
1.62511e-05
1.61291e-05
1.61e-05
1.60994e-05
1.6103e-05
1.61085e-05
1.61119e-05
1.61113e-05
1.61089e-05
1.61077e-05
1.61072e-05
1.61067e-05
1.61058e-05
1.61049e-05
1.61034e-05
1.61005e-05
1.60959e-05
1.60921e-05
1.60885e-05
1.60851e-05
1.60814e-05
1.60873e-05
1.61064e-05
)
;
    }
    walls
    {
        type            calculated;
        value           nonuniform List<scalar> 0();
    }
    frontAndBack
    {
        type            empty;
    }
    procBoundary7to3
    {
        type            processor;
        value           nonuniform List<scalar> 
16
(
1.61823e-05
1.61723e-05
1.6154e-05
1.61465e-05
1.6144e-05
1.61437e-05
1.61555e-05
1.61885e-05
1.61902e-05
1.61902e-05
1.61736e-05
1.61752e-05
1.62351e-05
1.63829e-05
1.6773e-05
1.7674e-05
)
;
    }
    procBoundary7to6
    {
        type            processor;
        value           nonuniform List<scalar> 
91
(
1.60823e-05
1.60811e-05
1.60811e-05
1.60712e-05
1.60712e-05
1.60716e-05
1.60716e-05
1.60783e-05
1.60745e-05
1.60745e-05
1.60865e-05
1.60829e-05
1.60829e-05
1.60948e-05
1.60927e-05
1.60901e-05
1.60901e-05
1.60994e-05
1.6098e-05
1.60967e-05
1.60967e-05
1.61029e-05
1.61028e-05
1.61021e-05
1.6101e-05
1.6101e-05
1.6099e-05
1.61002e-05
1.61012e-05
1.6102e-05
1.61026e-05
1.61026e-05
1.60866e-05
1.60881e-05
1.60899e-05
1.60918e-05
1.60937e-05
1.60955e-05
1.60972e-05
1.60972e-05
1.77721e-05
1.71626e-05
1.61899e-05
1.60284e-05
1.60893e-05
1.61186e-05
1.6115e-05
1.61052e-05
1.60975e-05
1.60919e-05
1.60882e-05
1.60867e-05
1.60867e-05
1.63263e-05
1.73306e-05
1.45521e-05
1.00012e-05
1e-05
1e-05
1e-05
1e-05
0.00188628
0.00721693
0.0606957
0.166345
0.29796
0.432243
0.558212
0.67118
0.768554
0.848811
0.911761
0.95919
0.995542
1.02801
1.06341
1.08634
1.07776
1.01944
0.8944
0.69163
0.428247
0.179896
0.0384299
0.00128975
0.000305661
1e-05
1e-05
1e-05
1.00104e-05
1.00104e-05
)
;
    }
}


// ************************************************************************* //
