/*--------------------------------*- C++ -*----------------------------------*\
| =========                 |                                                 |
| \\      /  F ield         | OpenFOAM: The Open Source CFD Toolbox           |
|  \\    /   O peration     | Version:  2506                                  |
|   \\  /    A nd           | Website:  www.openfoam.com                      |
|    \\/     M anipulation  |                                                 |
\*---------------------------------------------------------------------------*/
FoamFile
{
    version     2.0;
    format      ascii;
    arch        "LSB;label=32;scalar=64";
    class       volScalarField;
    location    "450";
    object      div(phi);
}
// * * * * * * * * * * * * * * * * * * * * * * * * * * * * * * * * * * * * * //

dimensions      [0 0 -1 0 0 0 0];

internalField   nonuniform List<scalar> 
1340
(
-1.24719e-08
-1.92272e-08
-3.64946e-09
-2.06533e-08
-3.44842e-09
-4.9687e-09
-1.37985e-08
-1.19296e-09
-7.02383e-09
-1.78392e-09
-8.91981e-09
-1.49643e-08
1.9797e-09
-6.95861e-09
-1.02773e-09
-3.5298e-09
1.163e-08
-2.08617e-08
1.67981e-09
2.11925e-09
-6.11327e-09
7.92302e-10
-4.92145e-09
-7.01813e-10
-1.60344e-09
9.30238e-09
-2.32977e-09
4.21128e-09
6.10407e-09
-3.39582e-09
-7.28182e-09
2.15808e-09
-4.93887e-09
4.12667e-10
-2.45136e-09
-6.53024e-09
2.14487e-08
-7.62121e-09
3.38478e-09
2.24974e-09
1.16978e-08
1.45419e-09
-6.11878e-09
7.60752e-10
2.42497e-09
-5.90102e-09
1.89332e-09
-3.6297e-09
-5.70229e-11
-3.27406e-08
1.30993e-08
1.47813e-08
-1.81032e-08
1.70981e-08
-2.40784e-10
3.73541e-09
-5.12518e-10
7.29616e-09
-3.06017e-09
2.90299e-09
6.435e-09
-3.0544e-09
-7.25128e-09
2.5349e-09
-4.3978e-09
1.16965e-09
-1.90291e-09
-2.07165e-08
5.29797e-08
-5.1255e-08
4.52599e-08
-3.04534e-08
1.72521e-08
-1.13372e-08
-6.7477e-09
1.38188e-08
1.10164e-11
8.3576e-09
-4.91486e-09
1.87794e-09
-1.14394e-09
1.00921e-08
1.93138e-09
-5.61702e-09
2.08887e-10
3.10004e-09
-6.15783e-09
2.33113e-09
-2.9745e-09
3.00512e-10
2.65344e-08
2.05638e-08
2.44431e-08
3.33416e-08
1.53427e-08
3.41227e-08
1.3617e-08
2.13178e-08
-5.95652e-09
1.68422e-08
-1.94286e-08
1.1982e-08
-2.26354e-08
1.72276e-09
-5.7005e-09
-9.7635e-09
5.10527e-09
-5.48311e-09
1.73414e-09
-1.45932e-09
7.70279e-09
-3.5076e-09
1.81017e-09
6.55594e-09
-2.36096e-09
-6.9875e-09
2.99477e-09
-3.90504e-09
1.52387e-09
-1.35699e-09
2.9977e-07
-9.07086e-08
1.23108e-07
-4.80168e-08
9.44742e-08
-3.0271e-08
5.61564e-08
-1.66344e-08
4.7476e-08
1.48915e-09
4.0835e-08
9.34491e-09
2.75618e-08
1.83598e-08
2.50368e-08
2.70075e-08
1.58344e-08
2.57125e-08
1.14055e-08
8.12559e-09
7.28315e-09
-9.43484e-09
2.01869e-09
-1.87253e-08
4.96222e-09
-2.03932e-08
-1.32087e-08
-8.35809e-09
-6.53607e-09
6.88495e-10
-6.63922e-09
8.27648e-10
-7.55489e-09
8.22132e-09
2.91457e-09
-5.39457e-09
-9.00326e-12
3.68007e-09
-5.54639e-09
2.59209e-09
-2.42248e-09
4.99635e-10
8.28153e-07
-1.29737e-06
-3.4114e-07
-8.91549e-07
-1.40899e-07
-7.31997e-07
-3.73961e-08
-6.03976e-07
6.17533e-08
-4.99469e-07
9.08026e-08
-4.46311e-07
1.22809e-07
-4.205e-07
1.26137e-07
-4.0872e-07
1.44758e-07
-3.89407e-07
1.44457e-07
-3.81642e-07
1.58953e-07
-3.78784e-07
1.71769e-07
-3.64464e-07
1.78005e-07
-3.32995e-07
1.91123e-07
-2.90393e-07
1.80457e-07
-2.26657e-07
2.02661e-07
-1.59273e-07
2.13062e-07
-1.14348e-07
1.97332e-07
-7.49631e-08
1.56756e-07
-4.73577e-08
1.21607e-07
-3.13334e-08
9.02895e-08
-1.5284e-08
6.52627e-08
3.88493e-09
5.68266e-08
1.57223e-08
4.64124e-08
2.33314e-08
3.27052e-08
2.95762e-08
2.8324e-08
2.62153e-08
2.33396e-08
2.43498e-08
1.57047e-08
1.92196e-08
1.12998e-08
3.8554e-09
2.56286e-09
-4.51865e-09
3.18633e-09
-1.53896e-08
-6.85487e-09
-1.34629e-08
-9.32491e-09
-4.7225e-09
-1.0864e-08
-3.27701e-09
-1.07747e-08
5.24323e-09
-7.14636e-09
-4.27494e-10
5.73175e-09
-1.01505e-09
-6.0858e-09
3.57804e-09
-3.70279e-09
1.67979e-09
-1.12316e-09
1.94401e-06
-7.98485e-07
3.95949e-07
-5.65973e-07
4.21414e-07
-4.76593e-07
4.10257e-07
-4.14569e-07
4.03495e-07
-3.51931e-07
3.59784e-07
-3.03577e-07
3.29934e-07
-2.69761e-07
2.98366e-07
-2.49111e-07
2.75603e-07
-2.30916e-07
2.45217e-07
-2.18528e-07
2.22957e-07
-2.1071e-07
2.04795e-07
-2.01739e-07
1.85824e-07
-1.84133e-07
1.67286e-07
-1.58825e-07
1.45312e-07
-1.34832e-07
1.53912e-07
-1.12929e-07
1.24647e-07
-8.58347e-08
1.29513e-07
-5.95613e-08
1.18716e-07
-3.67535e-08
9.73967e-08
-1.56256e-08
8.45782e-08
-7.80453e-10
7.02164e-08
6.92936e-09
5.17825e-08
1.73384e-08
3.92214e-08
2.32764e-08
3.46412e-08
2.18287e-08
2.43503e-08
2.56647e-08
1.86054e-08
2.03876e-08
1.80079e-08
1.73487e-08
1.26832e-08
1.04121e-08
8.44948e-09
5.21601e-09
9.67319e-11
3.43099e-10
-4.88861e-09
-5.61973e-09
-5.09696e-09
-6.49636e-09
-3.69015e-09
-9.96344e-09
-1.3559e-09
-1.39754e-08
4.40694e-09
2.1848e-09
-4.1658e-09
-9.29989e-10
4.28544e-09
-5.1311e-09
2.83808e-09
-2.22725e-09
5.67344e-10
2.03894e-06
-8.06195e-07
3.66165e-07
-4.94412e-07
4.35391e-07
-3.83678e-07
4.52999e-07
-3.36528e-07
4.37457e-07
-3.06029e-07
4.03327e-07
-2.69278e-07
3.53749e-07
-2.34325e-07
3.13102e-07
-2.05874e-07
2.81811e-07
-1.83281e-07
2.52675e-07
-1.63541e-07
2.26293e-07
-1.46779e-07
2.02374e-07
-1.35992e-07
1.86261e-07
-1.24207e-07
1.57942e-07
-1.11849e-07
1.40996e-07
-8.82159e-08
1.13801e-07
-5.77867e-08
1.30958e-07
-3.66424e-08
1.20878e-07
-2.9228e-08
1.02682e-07
-3.00531e-08
8.47577e-08
-3.18092e-08
5.61337e-08
-2.55213e-08
3.69879e-08
-8.51563e-09
3.40211e-08
2.67342e-09
3.14409e-08
1.08408e-08
2.19484e-08
1.8905e-08
2.09893e-08
1.69259e-08
1.82597e-08
1.80699e-08
1.35854e-08
1.65413e-08
1.35117e-08
1.24077e-08
9.89186e-09
8.42012e-09
5.25367e-09
3.3452e-09
1.09187e-09
-8.31583e-10
-1.76253e-09
-1.93538e-09
-4.57216e-09
-2.62076e-09
-1.19639e-08
4.5964e-09
-6.28211e-09
-1.10382e-09
2.38372e-10
-1.07706e-10
-5.36775e-09
4.01599e-09
-3.15205e-09
1.83398e-09
-8.0661e-10
1.73187e-06
-6.81637e-07
3.95175e-07
-4.72572e-07
4.02572e-07
-3.80282e-07
3.97848e-07
-3.25603e-07
3.78994e-07
-2.97683e-07
3.56211e-07
-2.73762e-07
3.1124e-07
-2.44746e-07
2.66516e-07
-2.15192e-07
2.3334e-07
-1.91646e-07
2.08309e-07
-1.69639e-07
1.85429e-07
-1.4882e-07
1.66442e-07
-1.30884e-07
1.50977e-07
-1.15148e-07
1.35024e-07
-9.9927e-08
1.17293e-07
-8.69573e-08
1.0094e-07
-7.78674e-08
8.44415e-08
-6.44851e-08
6.97117e-08
-5.00001e-08
7.24236e-08
-3.46774e-08
6.10453e-08
-2.16006e-08
5.61235e-08
-1.20733e-08
4.93527e-08
-1.02683e-08
3.27265e-08
-3.1361e-09
2.15186e-08
5.34298e-09
2.2484e-08
8.85608e-09
1.66101e-08
1.58266e-08
1.38424e-08
1.57969e-08
1.45488e-08
1.44681e-08
1.12903e-08
1.14693e-08
8.89842e-09
7.42227e-09
5.65761e-09
3.72293e-09
2.49904e-09
1.4611e-09
4.33334e-12
1.58127e-10
5.86015e-10
-3.86428e-09
2.40891e-09
-1.07486e-08
2.40452e-09
-4.52064e-09
-3.64206e-09
-7.42102e-09
2.64996e-09
-4.36908e-09
3.11702e-09
-1.6985e-09
7.11996e-10
1.26737e-06
-8.68423e-07
1.04327e-07
-5.24977e-07
2.46826e-07
-3.75754e-07
2.79927e-07
-2.92372e-07
2.95327e-07
-2.43183e-07
2.92737e-07
-2.12464e-07
2.8212e-07
-1.85576e-07
2.51114e-07
-1.6021e-07
2.20096e-07
-1.4033e-07
1.94883e-07
-1.27049e-07
1.69848e-07
-1.16173e-07
1.47913e-07
-1.05166e-07
1.28636e-07
-9.653e-08
1.137e-07
-8.6951e-08
9.75895e-08
-7.75371e-08
8.26219e-08
-6.73115e-08
6.9516e-08
-6.14743e-08
6.31805e-08
-5.86119e-08
4.40175e-08
-5.77638e-08
3.47596e-08
-5.50914e-08
2.19267e-08
-4.91506e-08
7.67722e-09
-3.21753e-08
1.03075e-08
-1.56986e-08
1.6454e-08
-2.68495e-09
1.32125e-08
9.4189e-09
1.57332e-08
1.14832e-08
1.39688e-08
1.25678e-08
9.31265e-09
1.13899e-08
8.22127e-09
8.69231e-09
6.16411e-09
5.67828e-09
4.65764e-09
2.51451e-09
3.57889e-09
1.15332e-09
1.80218e-09
6.39075e-10
2.56613e-09
1.23302e-09
-8.7947e-09
2.96306e-09
-8.7089e-09
-3.50457e-09
-8.68977e-09
-1.87317e-09
-7.42569e-09
3.33705e-09
-2.71259e-09
1.97481e-09
-6.66306e-10
1.07573e-06
-6.68109e-07
1.81821e-07
-4.74502e-07
2.43074e-07
-3.80305e-07
2.47436e-07
-3.15921e-07
2.49667e-07
-2.69561e-07
2.3707e-07
-2.44163e-07
2.21912e-07
-2.28819e-07
1.97257e-07
-2.09972e-07
1.66912e-07
-1.86997e-07
1.40984e-07
-1.69619e-07
1.20682e-07
-1.55088e-07
1.0432e-07
-1.41889e-07
9.24738e-08
-1.2955e-07
8.46353e-08
-1.19513e-07
7.96487e-08
-1.07905e-07
7.47753e-08
-9.62835e-08
6.68865e-08
-8.42892e-08
6.27931e-08
-7.33741e-08
5.30647e-08
-6.27497e-08
4.92821e-08
-4.99247e-08
3.70933e-08
-3.44147e-08
4.41601e-08
-2.21697e-08
3.99119e-08
-1.27103e-08
2.89859e-08
-3.94391e-09
3.09389e-08
-2.42036e-10
2.04183e-08
3.71809e-09
1.21078e-08
6.21131e-09
1.05001e-08
7.87331e-09
6.12879e-09
7.80647e-09
3.97133e-09
6.29085e-09
2.21077e-09
4.14127e-09
1.49494e-09
2.81021e-09
4.76671e-10
1.70021e-09
2.20032e-09
-4.86506e-09
2.10863e-09
-7.66751e-09
-2.11179e-09
-6.1425e-09
-4.88628e-09
-7.95139e-09
-2.30254e-10
-4.99887e-09
2.71301e-09
-1.61961e-09
7.49346e-10
9.95314e-07
-7.63864e-07
1.00383e-08
-5.18782e-07
8.9422e-08
-4.06523e-07
1.10391e-07
-3.34748e-07
1.20447e-07
-2.81997e-07
1.18111e-07
-2.42583e-07
1.16691e-07
-2.13322e-07
1.12223e-07
-1.89213e-07
1.10116e-07
-1.64448e-07
1.00356e-07
-1.43486e-07
9.01718e-08
-1.27783e-07
7.83259e-08
-1.16895e-07
7.11471e-08
-1.07808e-07
6.32193e-08
-1.01881e-07
5.74314e-08
-9.69969e-08
5.22918e-08
-9.02212e-08
4.68343e-08
-8.09662e-08
4.26615e-08
-7.01405e-08
3.89542e-08
-5.86494e-08
3.56273e-08
-4.85437e-08
3.27396e-08
-4.12891e-08
2.49301e-08
-3.22506e-08
1.77341e-08
-2.36773e-08
2.21669e-08
-1.68622e-08
1.16288e-08
-9.4842e-09
1.09279e-08
-3.89567e-09
1.01673e-08
2.29182e-10
4.89457e-09
2.55033e-09
3.52781e-09
3.45514e-09
1.30917e-09
3.23141e-09
8.41741e-11
2.26011e-09
2.70637e-10
1.73343e-09
-2.89964e-11
1.43259e-09
1.2205e-09
6.24035e-12
-2.68129e-10
-1.75247e-09
-2.83795e-10
-4.98819e-09
-4.96699e-09
-3.78709e-09
-7.22463e-09
1.41112e-09
-3.26286e-09
1.71995e-09
-6.27228e-10
1.24764e-06
-6.70971e-07
9.7038e-08
-4.80484e-07
1.15248e-07
-3.77367e-07
1.25868e-07
-2.97548e-07
1.33232e-07
-2.36077e-07
1.38738e-07
-1.89993e-07
1.36126e-07
-1.56456e-07
1.30871e-07
-1.32586e-07
1.24648e-07
-1.13497e-07
1.17689e-07
-9.59058e-08
1.07558e-07
-7.9969e-08
9.73763e-08
-6.66113e-08
8.86213e-08
-5.51729e-08
8.27111e-08
-4.61687e-08
7.69184e-08
-3.97846e-08
7.21863e-08
-3.63063e-08
6.56023e-08
-3.37573e-08
5.74791e-08
-3.20715e-08
4.95372e-08
-2.99188e-08
4.17543e-08
-2.81e-08
3.44128e-08
-2.58557e-08
2.86527e-08
-2.6179e-08
2.29724e-08
-2.66291e-08
1.06512e-08
-2.50656e-08
9.45943e-09
-2.18207e-08
5.46448e-09
-1.75763e-08
1.4611e-09
-1.29301e-08
1.06722e-09
-7.88747e-09
-7.81813e-10
-3.59202e-09
-1.29663e-09
1.1219e-10
-1.45827e-09
2.7105e-09
-1.33176e-09
4.2269e-09
-1.8661e-09
5.24959e-09
-2.38022e-09
6.63465e-09
-2.14398e-09
4.43477e-09
-2.17189e-09
-3.60595e-10
-3.62553e-09
-6.35031e-09
-8.29584e-10
-5.75056e-09
2.15537e-09
-1.7389e-09
6.83132e-10
5.69294e-07
-2.81079e-07
1.13344e-07
-2.44526e-07
1.03984e-07
-2.11801e-07
9.97197e-08
-1.78409e-07
9.81433e-08
-1.47686e-07
9.92181e-08
-1.20884e-07
9.67842e-08
-9.90041e-08
9.62212e-08
-8.14326e-08
9.30824e-08
-6.88679e-08
9.23378e-08
-5.88511e-08
8.58203e-08
-5.07312e-08
8.00711e-08
-4.38378e-08
7.2559e-08
-3.92675e-08
6.65357e-08
-3.58849e-08
5.99799e-08
-3.41853e-08
5.3419e-08
-3.33383e-08
4.70814e-08
-3.21889e-08
3.9161e-08
-3.00497e-08
3.37147e-08
-2.72435e-08
2.65812e-08
-2.37062e-08
2.28289e-08
-1.82189e-08
1.7048e-08
-1.1776e-08
2.26549e-08
-8.70807e-09
1.75004e-08
-9.07608e-09
1.07396e-08
-9.78272e-09
6.32183e-09
-9.49466e-09
2.35863e-10
-6.6491e-09
-4.64609e-10
-2.18762e-09
6.62382e-10
1.55747e-09
1.66782e-09
3.81098e-09
2.12021e-09
4.56486e-09
2.20456e-09
4.56451e-09
1.67257e-09
6.02797e-09
1.8042e-09
3.80906e-09
1.25836e-09
1.7549e-09
-6.33195e-10
-2.6854e-09
-1.70032e-09
-6.59528e-09
1.59168e-09
-3.474e-09
1.44755e-09
-6.6769e-10
4.73853e-07
-2.61929e-07
7.19328e-08
-2.21765e-07
6.45853e-08
-1.88614e-07
6.32365e-08
-1.56173e-07
6.44698e-08
-1.27494e-07
6.73537e-08
-1.03378e-07
6.61259e-08
-8.49128e-08
6.80634e-08
-7.10542e-08
6.44498e-08
-6.24438e-08
6.25803e-08
-5.73098e-08
5.69864e-08
-5.40597e-08
5.19412e-08
-5.07849e-08
4.47487e-08
-4.81935e-08
3.84952e-08
-4.58898e-08
3.2849e-08
-4.39326e-08
2.79553e-08
-4.15671e-08
2.42345e-08
-3.83176e-08
2.11969e-08
-3.41424e-08
1.85153e-08
-2.9776e-08
1.61114e-08
-2.55397e-08
1.34435e-08
-2.21685e-08
1.19928e-08
-2.02691e-08
7.25791e-09
-1.77611e-08
3.5078e-09
-1.51967e-08
3.36053e-09
-1.1236e-08
8.69586e-10
-7.21266e-09
2.33956e-09
-2.89424e-09
3.29216e-09
3.67146e-10
3.58214e-09
2.78666e-09
3.48928e-09
4.07904e-09
3.28227e-09
4.40487e-09
2.86276e-09
4.15318e-09
2.32493e-09
5.14489e-09
2.16534e-09
3.10243e-09
1.60453e-09
1.1814e-09
3.42489e-10
-8.31793e-10
-4.803e-09
7.45583e-10
-5.30613e-09
1.86774e-09
-1.91069e-09
6.18145e-10
3.56253e-07
-2.00505e-07
4.96199e-08
-1.80454e-07
5.43877e-08
-1.57034e-07
5.88612e-08
-1.32677e-07
6.19977e-08
-1.10829e-07
6.20515e-08
-9.29879e-08
5.99448e-08
-7.86796e-08
5.58812e-08
-6.7114e-08
5.312e-08
-5.7561e-08
4.90485e-08
-5.0346e-08
4.61336e-08
-4.51042e-08
4.25567e-08
-4.04259e-08
3.89953e-08
-3.60055e-08
3.53546e-08
-3.21791e-08
3.2423e-08
-2.80799e-08
2.96625e-08
-2.39151e-08
2.71293e-08
-2.08573e-08
2.4362e-08
-1.8598e-08
2.12662e-08
-1.69622e-08
1.79143e-08
-1.55063e-08
1.47075e-08
-1.43938e-08
1.12892e-08
-1.34844e-08
9.09676e-09
-1.42005e-08
5.57804e-09
-1.48661e-08
2.81891e-10
-1.48222e-08
-1.87579e-09
-1.25501e-08
-3.48074e-09
-8.70209e-09
-2.51036e-09
-4.26313e-09
-7.21831e-10
-7.06012e-10
6.67233e-10
1.41817e-09
1.14387e-09
2.3537e-09
1.1788e-09
2.66812e-09
9.72203e-10
3.42172e-09
1.08748e-09
1.78636e-09
8.07316e-10
4.16641e-10
9.09459e-11
-2.04373e-09
6.79551e-11
-5.84553e-09
1.87215e-09
-3.41287e-09
1.15353e-09
-1.44623e-10
6.37862e-08
-2.19653e-07
3.96324e-08
-1.6149e-07
5.35595e-08
-1.26828e-07
5.55987e-08
-1.0275e-07
5.45076e-08
-8.44282e-08
5.18122e-08
-7.06257e-08
4.93356e-08
-6.009e-08
4.53204e-08
-5.19445e-08
4.23658e-08
-4.52295e-08
3.7535e-08
-4.06962e-08
3.37837e-08
-3.80389e-08
2.92733e-08
-3.66999e-08
2.45896e-08
-3.5466e-08
1.97847e-08
-3.39743e-08
1.46906e-08
-3.20251e-08
1.08058e-08
-3.02587e-08
7.52444e-09
-2.84376e-08
5.70803e-09
-2.64084e-08
4.2698e-09
-2.36929e-08
4.19388e-09
-2.07126e-08
3.50717e-09
-1.74882e-08
4.27948e-09
-1.42987e-08
3.11732e-09
-1.03688e-08
4.98233e-09
-6.74887e-09
6.00539e-09
-4.11167e-09
5.77551e-09
-2.52732e-09
5.1535e-09
-1.81514e-09
3.41685e-09
-1.47924e-09
1.68783e-09
-9.07918e-10
4.89911e-10
-2.37707e-10
-8.27359e-11
1.7651e-10
-3.38166e-10
4.54514e-10
-6.23873e-10
8.3101e-10
-7.38927e-10
5.86149e-10
-3.56502e-10
-2.75516e-10
-6.04205e-10
-4.28209e-10
-4.60205e-09
1.71048e-09
-4.28626e-09
9.06513e-10
-1.20044e-09
-5.35824e-11
1.01779e-07
-1.62762e-07
3.18806e-09
-1.34645e-07
2.00948e-08
-1.10527e-07
2.96954e-08
-8.99663e-08
3.57223e-08
-7.30944e-08
3.73887e-08
-6.03476e-08
3.6714e-08
-5.10348e-08
3.35238e-08
-4.44561e-08
3.03085e-08
-3.97533e-08
2.55681e-08
-3.6787e-08
2.0529e-08
-3.50942e-08
1.56354e-08
-3.41535e-08
1.17341e-08
-3.32192e-08
8.69921e-09
-3.15148e-08
6.37156e-09
-2.90817e-08
4.59495e-09
-2.67355e-08
3.15799e-09
-2.44504e-08
2.2433e-09
-2.21485e-08
1.79196e-09
-1.97464e-08
1.4589e-09
-1.73423e-08
1.51217e-09
-1.50044e-08
9.73678e-10
-1.29817e-08
1.04539e-09
-1.1785e-08
1.20272e-09
-1.1572e-08
-1.15206e-09
-1.15619e-08
-2.17742e-09
-1.08771e-08
-3.72387e-09
-9.39813e-09
-4.30204e-09
-7.07722e-09
-3.74224e-09
-4.79913e-09
-3.0098e-09
-3.06747e-09
-2.50608e-09
-1.78848e-09
-2.05617e-09
-7.45772e-10
-1.7493e-09
-4.02242e-10
-1.51927e-09
-3.36646e-10
-1.03594e-09
-9.06774e-10
-6.25873e-10
-2.57048e-09
1.33553e-09
-3.81708e-09
1.07896e-10
-2.33266e-09
-9.74874e-10
-4.69208e-10
4.00637e-08
-9.89421e-08
1.35201e-08
-7.25313e-08
2.36573e-08
-5.75344e-08
2.52598e-08
-4.85326e-08
2.34244e-08
-4.27014e-08
2.12191e-08
-3.86118e-08
1.83168e-08
-3.56909e-08
1.66578e-08
-3.34832e-08
1.44718e-08
-3.19235e-08
1.28359e-08
-3.03764e-08
1.09971e-08
-2.87444e-08
1.02902e-08
-2.67514e-08
9.59182e-09
-2.44146e-08
9.43392e-09
-2.20781e-08
9.57952e-09
-1.99911e-08
9.18262e-09
-1.72291e-08
8.11794e-09
-1.36001e-08
7.10812e-09
-1.1217e-08
6.16547e-09
-1.06133e-08
4.87665e-09
-1.03542e-08
4.08416e-09
-9.38172e-09
2.91777e-09
-8.2477e-09
2.78789e-09
-6.82395e-09
1.60012e-09
-5.14993e-09
2.18739e-09
-3.34467e-09
2.52673e-09
-2.12993e-09
2.17922e-09
-1.63355e-09
1.675e-09
-1.80375e-09
2.51375e-10
-2.14668e-09
-1.09028e-09
-2.10005e-09
-1.68015e-09
-1.7696e-09
-1.74854e-09
-1.33661e-09
-1.65949e-09
-1.54815e-09
-2.0412e-09
-1.00097e-09
-1.54092e-09
-5.86981e-10
-1.12466e-09
5.07897e-10
-2.2189e-09
-4.70312e-10
-2.17172e-09
-1.33969e-09
-7.01568e-10
-1.73159e-10
1.28258e-08
-3.33016e-08
-8.99119e-09
-3.34708e-08
-1.14345e-08
-3.33471e-08
-1.12224e-08
-3.27239e-08
-1.20951e-08
-3.2578e-08
-1.12164e-08
-3.29093e-08
-1.20527e-08
-3.40611e-08
-1.20101e-08
-3.52421e-08
-1.29432e-08
-3.62651e-08
-1.22244e-08
-3.66106e-08
-1.21334e-08
-3.65424e-08
-1.07377e-08
-3.57107e-08
-9.78944e-09
-3.44025e-08
-7.98538e-09
-3.24699e-08
-6.15193e-09
-3.01449e-08
-4.30221e-09
-2.66195e-08
-2.59114e-09
-2.2402e-08
-1.64421e-09
-1.87206e-08
-6.26458e-10
-1.58074e-08
-4.64703e-10
-1.30333e-08
-2.08825e-10
-1.02219e-08
-1.59013e-10
-7.72028e-09
-6.3411e-10
-5.94211e-09
-7.25404e-10
-5.25943e-09
-1.36659e-09
-5.57581e-09
-3.0946e-09
-6.27455e-09
-4.24168e-09
-6.57506e-09
-5.30763e-09
-6.19282e-09
-5.28077e-09
-5.11917e-09
-4.38613e-09
-3.82576e-09
-3.32267e-09
-2.65213e-09
-2.3902e-09
-1.61138e-09
-1.93746e-09
-1.69967e-09
-1.61857e-09
-7.63183e-10
-7.61226e-10
-4.72037e-10
-2.50369e-10
-6.22881e-10
-3.70963e-10
-9.07848e-10
-6.72633e-10
-3.51409e-10
-1.05935e-10
0
)
;

boundaryField
{
    inlet
    {
        type            extrapolatedCalculated;
        value           nonuniform List<scalar> 
27
(
-1.24719e-08
-3.64946e-09
-4.9687e-09
-1.78392e-09
-3.5298e-09
-7.01813e-10
-2.45136e-09
-5.70229e-11
-1.90291e-09
3.00512e-10
-1.35699e-09
4.99635e-10
-1.12316e-09
5.67344e-10
-8.0661e-10
7.11996e-10
-6.66306e-10
7.49346e-10
-6.27228e-10
6.83132e-10
-6.6769e-10
6.18145e-10
-1.44623e-10
-5.35824e-11
-4.69208e-10
-1.73159e-10
0
)
;
    }
    outlet
    {
        type            extrapolatedCalculated;
        value           nonuniform List<scalar> 
78
(
1.28258e-08
-3.33016e-08
-8.99119e-09
-3.34708e-08
-1.14345e-08
-3.33471e-08
-1.12224e-08
-3.27239e-08
-1.20951e-08
-3.2578e-08
-1.12164e-08
-3.29093e-08
-1.20527e-08
-3.40611e-08
-1.20101e-08
-3.52421e-08
-1.29432e-08
-3.62651e-08
-1.22244e-08
-3.66106e-08
-1.21334e-08
-3.65424e-08
-1.07377e-08
-3.57107e-08
-9.78944e-09
-3.44025e-08
-7.98538e-09
-3.24699e-08
-6.15193e-09
-3.01449e-08
-4.30221e-09
-2.66195e-08
-2.59114e-09
-2.2402e-08
-1.64421e-09
-1.87206e-08
-6.26458e-10
-1.58074e-08
-4.64703e-10
-1.30333e-08
-2.08825e-10
-1.02219e-08
-1.59013e-10
-7.72028e-09
-6.3411e-10
-5.94211e-09
-7.25404e-10
-5.25943e-09
-1.36659e-09
-5.57581e-09
-3.0946e-09
-6.27455e-09
-4.24168e-09
-6.57506e-09
-5.30763e-09
-6.19282e-09
-5.28077e-09
-5.11917e-09
-4.38613e-09
-3.82576e-09
-3.32267e-09
-2.65213e-09
-2.3902e-09
-1.61138e-09
-1.93746e-09
-1.69967e-09
-1.61857e-09
-7.63183e-10
-7.61226e-10
-4.72037e-10
-2.50369e-10
-6.22881e-10
-3.70963e-10
-9.07848e-10
-6.72633e-10
-3.51409e-10
-1.05935e-10
0
)
;
    }
    walls
    {
        type            extrapolatedCalculated;
        value           nonuniform List<scalar> 0();
    }
    frontAndBack
    {
        type            empty;
    }
    procBoundary7to3
    {
        type            processor;
        value           nonuniform List<scalar> 
16
(
-4.76683e-06
-2.22484e-06
-1.80972e-06
-1.95466e-06
-1.86299e-06
-1.4621e-06
-1.59319e-06
-1.21554e-06
-3.71689e-07
-3.71689e-07
-3.85934e-07
-2.64737e-07
-3.29693e-07
-2.07457e-07
-1.47917e-07
-4.85276e-08
)
;
    }
    procBoundary7to6
    {
        type            processor;
        value           nonuniform List<scalar> 
91
(
-6.11096e-09
-5.61733e-09
-5.61733e-09
-2.37935e-09
-2.37935e-09
4.36364e-09
4.36364e-09
6.67329e-09
5.03017e-09
5.03017e-09
3.03018e-09
1.02053e-08
1.02053e-08
1.12718e-08
7.3163e-09
1.77039e-08
1.77039e-08
3.61978e-08
-1.41195e-09
1.63616e-08
1.63616e-08
3.65074e-08
-2.50723e-09
-1.31148e-08
3.54367e-08
3.54367e-08
3.18956e-08
-2.98817e-08
4.20074e-08
-4.25389e-08
4.82509e-08
4.82509e-08
1.3363e-08
2.2493e-08
1.9709e-08
1.46218e-08
3.11591e-08
-8.73073e-09
4.91575e-08
4.91575e-08
1.06783e-07
-1.14179e-07
8.22623e-08
-5.0974e-08
6.62801e-08
-1.8914e-08
4.33299e-08
3.63266e-10
2.59819e-08
1.22881e-08
2.20409e-08
3.28381e-09
3.28381e-09
-1.52423e-06
1.70966e-06
-1.11019e-06
1.85809e-06
-9.88385e-07
1.72373e-06
-8.92295e-07
1.51767e-06
-7.69608e-07
1.32475e-06
-6.83894e-07
1.19128e-06
-6.22056e-07
1.07805e-06
-5.75041e-07
9.61193e-07
-5.22005e-07
8.62966e-07
-4.84888e-07
7.79311e-07
-4.58531e-07
7.08729e-07
-4.27678e-07
6.02821e-07
-3.84119e-07
5.18634e-07
-3.40561e-07
4.29982e-07
-2.95667e-07
3.69033e-07
-2.54454e-07
2.93308e-07
-1.99125e-07
2.42895e-07
-1.57816e-07
2.85116e-07
-3.39106e-07
-3.39106e-07
)
;
    }
}


// ************************************************************************* //
