/*--------------------------------*- C++ -*----------------------------------*\
| =========                 |                                                 |
| \\      /  F ield         | OpenFOAM: The Open Source CFD Toolbox           |
|  \\    /   O peration     | Version:  2506                                  |
|   \\  /    A nd           | Website:  www.openfoam.com                      |
|    \\/     M anipulation  |                                                 |
\*---------------------------------------------------------------------------*/
FoamFile
{
    version     2.0;
    format      ascii;
    arch        "LSB;label=32;scalar=64";
    class       volScalarField;
    location    "450";
    object      p;
}
// * * * * * * * * * * * * * * * * * * * * * * * * * * * * * * * * * * * * * //

dimensions      [0 2 -2 0 0 0 0];

internalField   nonuniform List<scalar> 
1340
(
-8.35232
-1.17348
-8.061
-5.9414
-1.23469
-7.87211
-3.90486
-5.81938
-1.24943
-7.73221
-5.35812
-5.61024
-3.82421
-5.68605
-1.26186
-7.57534
-6.23177
-6.00683
-5.19695
-5.45265
-3.7386
-5.53924
-1.27304
-7.39845
-7.12145
-6.76939
-6.46664
-5.99729
-5.79735
-5.02789
-5.28647
-3.64541
-5.38558
-1.27326
-7.21728
-7.5616
-7.29798
-7.04239
-6.78185
-6.4623
-6.19063
-5.75455
-5.57925
-4.8508
-5.11255
-3.5433
-5.22692
-1.26042
-7.03642
-7.8939
-7.74558
-7.56423
-7.35316
-7.11387
-6.88744
-6.6636
-6.43482
-6.14737
-5.90618
-5.50354
-5.35245
-4.66547
-4.93049
-3.4323
-5.06206
-1.23677
-6.85326
-7.22581
-7.31386
-7.36147
-7.36927
-7.33831
-7.27005
-7.16638
-7.02921
-6.86154
-6.66427
-6.4732
-6.27986
-6.08169
-5.82565
-5.61412
-5.24479
-5.11733
-4.4721
-4.74019
-3.31271
-4.8902
-1.20376
-6.66559
-4.68014
-5.02086
-5.3361
-5.62319
-5.87972
-6.10359
-6.29306
-6.44681
-6.56393
-6.64397
-6.68691
-6.69316
-6.66356
-6.59941
-6.50203
-6.37405
-6.21574
-6.05784
-5.89344
-5.72441
-5.49874
-5.31577
-4.97932
-4.87465
-4.27115
-4.54201
-3.18485
-4.71139
-1.16178
-6.47338
0.568171
0.201123
-0.173488
-0.554351
-0.939919
-1.32842
-1.71789
-2.10617
-2.49086
-2.86946
-3.23928
-3.59756
-3.94148
-4.26822
-4.575
-4.85914
-5.11815
-5.34974
-5.55189
-5.72292
-5.86148
-5.96662
-6.0378
-6.07488
-6.0781
-6.04826
-5.98607
-5.89379
-5.77107
-5.64385
-5.50655
-5.36493
-5.16829
-5.01249
-4.70816
-4.62525
-4.06319
-4.33637
-3.04901
-4.5258
-1.11178
-6.27673
6.33859
6.2862
6.23264
6.17652
6.11682
6.05369
5.98744
5.91796
5.84456
5.76705
5.68627
5.60329
5.51865
5.4324
5.34397
5.25218
5.15551
5.05239
4.94058
4.81741
4.68104
4.53146
4.3698
4.19721
4.01499
3.82421
3.62461
3.41534
3.19588
2.96605
2.72581
2.47504
2.21371
1.94184
1.65958
1.36715
1.06493
0.75341
0.43325
0.105253
-0.229609
-0.570164
-0.915046
-1.26271
-1.61142
-1.95923
-2.30405
-2.6436
-2.9755
-3.29726
-3.60631
-3.90008
-4.17602
-4.43167
-4.66469
-4.87293
-5.0545
-5.20774
-5.33135
-5.42436
-5.48619
-5.51659
-5.51586
-5.4842
-5.42348
-5.33276
-5.23351
-5.12124
-5.00505
-4.83583
-4.70559
-4.43234
-4.36994
-3.84874
-4.12355
-2.90557
-4.33322
-1.05473
-6.07451
5.69501
5.64962
5.60317
5.55452
5.50281
5.44806
5.39037
5.32976
5.26622
5.19935
5.1286
5.05435
4.97762
4.8992
4.81932
4.73764
4.6532
4.56475
4.47093
4.36983
4.25901
4.13655
4.00205
3.85641
3.70074
3.5363
3.3642
3.18439
2.9961
2.79877
2.59224
2.37645
2.15131
1.9168
1.67291
1.41976
1.15756
0.886623
0.607382
0.3204
0.0263703
-0.273837
-0.579183
-0.888472
-1.20033
-1.5132
-1.82534
-2.13488
-2.43977
-2.73787
-3.02689
-3.30453
-3.56841
-3.81622
-4.04567
-4.25459
-4.44098
-4.60304
-4.73921
-4.84823
-4.92916
-4.98134
-5.0047
-4.99894
-4.96556
-4.90312
-4.82895
-4.73947
-4.64656
-4.50292
-4.3964
-4.15293
-4.10955
-3.62861
-3.9038
-2.7554
-4.13302
-0.992427
-5.86475
5.13244
5.09299
5.0526
5.0103
4.96536
4.9178
4.86765
4.81477
4.7591
4.70076
4.63958
4.57493
4.50666
4.4356
4.3627
4.28836
4.21245
4.13427
4.05278
3.96678
3.87469
3.7744
3.664
3.54282
3.41151
3.27102
3.12255
2.96721
2.80504
2.63526
2.45734
2.27111
2.07659
1.87373
1.66251
1.4429
1.21502
0.979056
0.735299
0.484131
0.226042
-0.0383342
-0.308211
-0.58268
-0.860673
-1.14094
-1.42209
-1.70256
-1.98066
-2.25455
-2.52227
-2.78176
-3.03089
-3.26753
-3.48951
-3.69475
-3.88124
-4.04712
-4.19069
-4.31049
-4.40534
-4.47427
-4.51691
-4.53252
-4.52226
-4.48432
-4.43225
-4.36316
-4.29119
-4.17113
-4.08628
-3.8711
-3.8449
-3.40371
-3.67708
-2.59981
-3.92409
-0.926859
-5.64397
4.6336
4.59927
4.56407
4.52723
4.4881
4.4467
4.40306
4.35703
4.30846
4.25728
4.20359
4.14743
4.08829
4.02563
3.95981
3.89191
3.82262
3.75196
3.67943
3.60414
3.52506
3.44079
3.34938
3.24899
3.13909
3.02035
2.8936
2.75967
2.61961
2.47356
2.32068
2.16024
1.99215
1.81652
1.6334
1.44274
1.24454
1.0389
0.826009
0.606144
0.379654
0.147001
-0.091224
-0.334328
-0.581478
-0.831695
-1.08386
-1.3367
-1.58884
-1.83871
-2.08465
-2.32488
-2.55749
-2.7806
-2.99223
-3.1904
-3.37317
-3.53869
-3.68526
-3.81129
-3.91543
-3.99653
-4.05393
-4.08662
-4.0954
-4.07816
-4.04515
-3.99403
-3.94056
-3.84193
-3.77635
-3.58827
-3.57631
-3.17572
-3.44254
-2.44169
-3.70254
-0.862707
-5.40623
4.19737
4.16758
4.13703
4.10507
4.07115
4.03527
3.99746
3.9576
3.91553
3.87121
3.82467
3.77605
3.7253
3.67154
3.61277
3.54736
3.4756
3.39919
3.32003
3.2396
3.1593
3.08079
3.00547
2.9328
2.85956
2.7808
2.69115
2.58607
2.46455
2.3311
2.19213
2.05018
1.90397
1.75148
1.59179
1.42503
1.25155
1.07156
0.88514
0.692378
0.493466
0.288733
0.0786243
-0.136361
-0.355569
-0.578255
-0.803543
-1.03039
-1.25769
-1.48416
-1.70835
-1.92878
-2.14382
-2.35176
-2.55086
-2.73928
-2.91525
-3.07695
-3.22274
-3.351
-3.46031
-3.54937
-3.61732
-3.66294
-3.68682
-3.68656
-3.66947
-3.63389
-3.59619
-3.51708
-3.4676
-3.3062
-3.30366
-2.94707
-3.19799
-2.28505
-3.4645
-0.807058
-5.14531
3.67296
3.64805
3.62245
3.59568
3.56731
3.53729
3.50564
3.47229
3.43712
3.40001
3.3608
3.31938
3.27567
3.2299
3.18252
3.13352
3.08209
3.02757
2.97042
2.91174
2.85211
2.791
2.72746
2.66054
2.58916
2.51156
2.42637
2.33421
2.23638
2.13248
2.02154
1.90403
1.78116
1.65326
1.52
1.38099
1.23608
1.08525
0.928595
0.766211
0.59822
0.424799
0.246225
0.0628121
-0.124973
-0.316612
-0.511474
-0.708792
-0.907721
-1.10727
-1.3063
-1.50363
-1.69792
-1.88772
-2.0715
-2.24769
-2.41464
-2.57071
-2.71426
-2.84371
-2.95757
-3.05444
-3.13324
-3.19261
-3.23264
-3.25117
-3.25131
-3.23373
-3.21257
-3.15749
-3.12287
-2.99731
-2.997
-2.70324
-2.91873
-2.12901
-3.1898
-0.769722
-4.85344
3.13109
3.11141
3.09117
3.07001
3.04758
3.02385
2.99884
2.97249
2.94472
2.91541
2.88441
2.85169
2.81733
2.78161
2.74518
2.70879
2.67293
2.63709
2.59968
2.55895
2.51403
2.46458
2.41022
2.35028
2.28465
2.21422
2.14017
2.06335
1.98428
1.90278
1.81724
1.72563
1.62761
1.52445
1.41713
1.30551
1.18908
1.06756
0.940915
0.809176
0.672448
0.530787
0.384325
0.233244
0.0777874
-0.0816904
-0.244796
-0.411016
-0.579739
-0.750267
-0.92181
-1.09341
-1.26404
-1.43259
-1.59777
-1.75827
-1.91269
-2.05953
-2.19732
-2.32453
-2.43971
-2.54141
-2.62843
-2.69926
-2.75369
-2.78943
-2.80651
-2.8058
-2.80249
-2.76907
-2.75459
-2.6573
-2.67517
-2.4216
-2.64294
-1.91923
-2.95235
-0.656884
-4.6682
2.67219
2.65645
2.64024
2.62329
2.60533
2.58632
2.56627
2.54516
2.52289
2.49941
2.47463
2.4485
2.42094
2.39186
2.36121
2.32894
2.29509
2.25981
2.2232
2.18487
2.14392
2.09982
2.05311
2.00487
1.95589
1.9061
1.85489
1.80129
1.74372
1.68083
1.61251
1.53935
1.46148
1.37871
1.29141
1.20033
1.10563
1.00699
0.904071
0.796758
0.685095
0.569119
0.448921
0.324583
0.196235
0.0640887
-0.0716109
-0.21051
-0.352207
-0.496198
-0.641921
-0.78867
-0.935673
-1.08206
-1.22685
-1.36895
-1.50723
-1.64043
-1.76726
-1.88637
-1.99645
-2.0961
-2.18415
-2.25909
-2.32057
-2.36627
-2.39421
-2.4051
-2.41453
-2.39741
-2.39868
-2.32398
-2.35801
-2.13702
-2.36841
-1.69705
-2.72109
-0.521916
-4.49422
2.24085
2.22783
2.2142
2.19976
2.18448
2.16836
2.15138
2.13349
2.1146
2.09467
2.07368
2.05153
2.02815
2.00352
1.97754
1.95017
1.92139
1.89122
1.85982
1.82729
1.79323
1.75685
1.71766
1.67621
1.63358
1.59038
1.54651
1.50119
1.45325
1.40135
1.34473
1.28371
1.21862
1.14927
1.07569
0.998548
0.918377
0.835043
0.748185
0.657605
0.563269
0.465252
0.363632
0.258489
0.149941
0.0381344
-0.0766977
-0.19429
-0.31427
-0.436258
-0.559732
-0.684109
-0.80875
-0.932873
-1.05564
-1.17615
-1.29338
-1.40626
-1.51362
-1.61435
-1.7072
-1.79111
-1.86466
-1.92746
-1.97726
-2.01098
-2.02902
-2.04665
-2.04126
-2.05374
-1.99743
-2.04321
-1.85205
-2.08847
-1.47036
-2.47713
-0.383345
-4.28442
1.85248
1.84221
1.83146
1.82008
1.80805
1.79535
1.78198
1.76788
1.75301
1.73733
1.72078
1.70334
1.68493
1.66554
1.64509
1.62352
1.6008
1.57688
1.55174
1.52543
1.49811
1.46977
1.43996
1.40792
1.3733
1.33674
1.29933
1.26161
1.22331
1.18362
1.14134
1.09543
1.04558
0.992083
0.934957
0.874103
0.809957
0.743192
0.673948
0.60193
0.526836
0.448579
0.367197
0.282769
0.195379
0.105108
0.0120924
-0.0834844
-0.181381
-0.281312
-0.382919
-0.48577
-0.589384
-0.69318
-0.796509
-0.898657
-0.998822
-1.09614
-1.18965
-1.27843
-1.36141
-1.43767
-1.50596
-1.56592
-1.61541
-1.65094
-1.67257
-1.69471
-1.69712
-1.71699
-1.67506
-1.72889
-1.5637
-1.80163
-1.23406
-2.21819
-0.233236
-4.04006
1.49518
1.48724
1.47894
1.47016
1.46087
1.45106
1.44073
1.42983
1.41834
1.40621
1.39342
1.37993
1.3657
1.35071
1.3349
1.31821
1.30061
1.28206
1.26251
1.24195
1.22038
1.19787
1.17453
1.15031
1.12469
1.09689
1.06681
1.03523
1.00318
0.971008
0.938261
0.904071
0.867354
0.827423
0.784277
0.738028
0.688592
0.636202
0.581515
0.524915
0.466233
0.405177
0.341604
0.275531
0.207037
0.136179
0.0630204
-0.0123356
-0.0897573
-0.169031
-0.249931
-0.332144
-0.415328
-0.499067
-0.582873
-0.666205
-0.748455
-0.828954
-0.906952
-0.981686
-1.0523
-1.11806
-1.17786
-1.23147
-1.27695
-1.31091
-1.33297
-1.35634
-1.36299
-1.38673
-1.35523
-1.41367
-1.27012
-1.5066
-0.983926
-1.942
-0.0626555
-3.75733
1.12114
1.11528
1.10916
1.10268
1.09583
1.08861
1.08101
1.07299
1.06453
1.05561
1.04621
1.0363
1.02586
1.01485
1.00325
0.991017
0.978128
0.964549
0.95023
0.935147
0.919284
0.902637
0.885245
0.867184
0.848545
0.829174
0.808449
0.785732
0.761182
0.735767
0.710352
0.685085
0.659455
0.632617
0.603778
0.572577
0.538957
0.502762
0.464002
0.423158
0.38068
0.336465
0.290149
0.241545
0.19071
0.137804
0.0829766
0.0263292
-0.0320388
-0.0919864
-0.153333
-0.215854
-0.279294
-0.34335
-0.407672
-0.471864
-0.535488
-0.598061
-0.659029
-0.717824
-0.773801
-0.826423
-0.874798
-0.918809
-0.956788
-0.985974
-1.00553
-1.02702
-1.03451
-1.05871
-1.03378
-1.09331
-0.966893
-1.1983
-0.715415
-1.63897
0.130983
-3.39485
0.820829
0.816846
0.812677
0.808257
0.803578
0.798649
0.793447
0.787941
0.782137
0.776014
0.769544
0.76272
0.755526
0.747921
0.739891
0.731426
0.722493
0.713061
0.703109
0.69261
0.681527
0.669841
0.657555
0.644681
0.631268
0.617415
0.603146
0.588131
0.571646
0.553274
0.533526
0.513416
0.493453
0.473287
0.452089
0.429022
0.403753
0.376477
0.347372
0.316462
0.284261
0.251509
0.218406
0.184596
0.149639
0.113335
0.0756975
0.0368117
-0.00324074
-0.0443924
-0.0865584
-0.129621
-0.173423
-0.217783
-0.262468
-0.307215
-0.351724
-0.395676
-0.438682
-0.480359
-0.520255
-0.558024
-0.592987
-0.625168
-0.653195
-0.675364
-0.690179
-0.707389
-0.71295
-0.734827
-0.713031
-0.77081
-0.656824
-0.879818
-0.431392
-1.30538
0.340458
-2.90392
0.336804
0.334131
0.331333
0.328371
0.325238
0.321932
0.318441
0.314749
0.310852
0.306737
0.30238
0.297771
0.292905
0.287751
0.282285
0.276498
0.270362
0.263848
0.256931
0.249581
0.241756
0.233417
0.224526
0.215051
0.204952
0.194161
0.182515
0.169831
0.155956
0.140777
0.124856
0.110603
0.102495
0.105263
0.121208
0.148695
0.182218
0.213738
0.235246
0.241469
0.231507
0.208918
0.179995
0.150265
0.122125
0.0954359
0.0693085
0.0432011
0.0170442
-0.00904546
-0.0349904
-0.0607705
-0.0863772
-0.111787
-0.13695
-0.161792
-0.186222
-0.210132
-0.233373
-0.255794
-0.27719
-0.297443
-0.316134
-0.333457
-0.348342
-0.360522
-0.368019
-0.37831
-0.379156
-0.395765
-0.374419
-0.425809
-0.324962
-0.523349
-0.135745
-0.874264
0.485223
-2.03261
0.302917
0.302911
0.302895
0.302873
0.302847
0.302815
0.302776
0.302736
0.3027
0.302665
0.302628
0.302595
0.302578
0.302579
0.302603
0.30266
0.302761
0.302924
0.30317
0.303521
0.304014
0.304671
0.305482
0.306383
0.30728
0.308229
0.309737
0.31314
0.320702
0.334823
0.356107
0.380937
0.400499
0.402941
0.377857
0.320774
0.235825
0.13606
0.0405317
-0.0319652
-0.0706521
-0.0774649
-0.0646265
-0.046333
-0.0314072
-0.021954
-0.0164904
-0.0132573
-0.0115006
-0.0111707
-0.0123162
-0.0148381
-0.0185326
-0.0231883
-0.028616
-0.0346359
-0.0410751
-0.0477751
-0.0545845
-0.06138
-0.0680198
-0.0744732
-0.0805008
-0.0863956
-0.0914936
-0.0966556
-0.0988793
-0.10358
-0.101691
-0.112247
-0.0958546
-0.132093
-0.0639199
-0.193487
0.0461776
-0.376175
0.39056
-0.878376
)
;

boundaryField
{
    inlet
    {
        type            freestreamPressure;
        freestreamValue uniform 0;
        value           nonuniform List<scalar> 
27
(
-3.68367
-3.55532
-3.47223
-3.4108
-3.34188
-3.26414
-3.1845
-3.105
-3.02448
-2.94195
-2.8574
-2.77087
-2.68184
-2.58946
-2.49217
-2.38734
-2.27225
-2.1434
-2.06161
-1.98476
-1.89201
-1.78395
-1.65888
-1.49854
-1.28145
-0.89663
-0.387254
)
;
    }
    outlet
    {
        type            freestreamPressure;
        freestreamValue uniform 0;
        value           nonuniform List<scalar> 
78
(
0.000904415
0.000904315
0.000904178
0.000904018
0.000903843
0.000903643
0.000903414
0.000903177
0.000902943
0.000902703
0.000902452
0.000902203
0.00090199
0.000901821
0.000901711
0.00090169
0.000901783
0.000902048
0.00090254
0.000903327
0.000904521
0.0009062
0.000908362
0.000910841
0.000913327
0.000915861
0.000919699
0.000928505
0.000948794
0.000987817
0.001048
0.00111988
0.00117888
0.00119055
0.00112255
0.000958288
0.000707243
0.000408426
0.000121403
-9.53252e-05
-0.000209622
-0.000228819
-0.00019034
-0.000136278
-9.23562e-05
-6.45741e-05
-4.85184e-05
-3.90147e-05
-3.38506e-05
-3.28857e-05
-3.62667e-05
-4.37069e-05
-5.46118e-05
-6.83675e-05
-8.44258e-05
-0.00010227
-0.000121404
-0.000141376
-0.000161758
-0.000182202
-0.000202309
-0.000222003
-0.000240599
-0.000258967
-0.000275182
-0.000291594
-0.000299292
-0.000314425
-0.000310286
-0.000343218
-0.000295971
-0.000406512
-0.000201403
-0.000594664
0.000151692
-0.00111969
0.00141853
-0.00227726
)
;
    }
    walls
    {
        type            zeroGradient;
    }
    frontAndBack
    {
        type            empty;
    }
    procBoundary7to3
    {
        type            processor;
        value           nonuniform List<scalar> 
16
(
6.3874
5.7373
5.1692
4.66561
4.22515
3.69612
3.14938
2.68684
2.25349
2.25349
1.86242
1.50285
1.1268
0.824684
0.339379
0.302926
)
;
    }
    procBoundary7to6
    {
        type            processor;
        value           nonuniform List<scalar> 
91
(
-8.5389
-1.02565
-1.02565
-6.08405
-6.08405
-3.97836
-3.97836
-5.51058
-5.7564
-5.7564
-6.45737
-6.20701
-6.20701
-7.45312
-7.06833
-6.73405
-6.73405
-8.00524
-7.70293
-7.41462
-7.41462
-8.53079
-8.33298
-8.10338
-7.84555
-7.84555
-8.05808
-8.10866
-8.11597
-8.08138
-8.00665
-8.00665
-5.52337
-5.87258
-6.19
-6.47311
-6.71975
-6.92819
-7.09715
-7.09715
0.318857
-0.101858
-0.529405
-0.962014
-1.39765
-1.83404
-2.26869
-2.69894
-3.12191
-3.53462
-3.93396
-4.31683
-4.31683
7.08156
7.02091
6.95899
6.89407
6.82509
6.7524
6.67597
6.59522
6.51038
6.42255
6.33266
6.24108
6.14766
6.05159
5.95135
5.84528
5.73144
5.60721
5.4697
5.31719
5.15008
4.96976
4.77746
4.57455
4.36194
4.1392
3.90543
3.66015
3.40319
3.13446
2.85388
2.56139
2.25705
1.94104
1.61364
1.27528
0.926532
0.926532
)
;
    }
}


// ************************************************************************* //
