/*--------------------------------*- C++ -*----------------------------------*\
| =========                 |                                                 |
| \\      /  F ield         | OpenFOAM: The Open Source CFD Toolbox           |
|  \\    /   O peration     | Version:  2506                                  |
|   \\  /    A nd           | Website:  www.openfoam.com                      |
|    \\/     M anipulation  |                                                 |
\*---------------------------------------------------------------------------*/
FoamFile
{
    version     2.0;
    format      ascii;
    arch        "LSB;label=32;scalar=64";
    class       volScalarField;
    location    "350";
    object      div(phi);
}
// * * * * * * * * * * * * * * * * * * * * * * * * * * * * * * * * * * * * * //

dimensions      [0 0 -1 0 0 0 0];

internalField   nonuniform List<scalar> 
1340
(
2.77057e-07
-1.17165e-06
-1.76426e-07
-1.79889e-06
1.50459e-06
3.41495e-07
-3.72204e-07
-7.9581e-07
-2.38752e-07
-5.98866e-07
7.83829e-07
-9.35751e-08
-5.24904e-07
-3.79424e-07
-3.7611e-07
9.7658e-08
-4.4768e-07
3.86428e-07
1.03514e-07
-1.24183e-07
-2.83519e-07
-3.6779e-08
-2.86345e-07
1.30546e-07
-2.46904e-07
6.90715e-07
1.44061e-07
-1.40651e-07
-7.62e-08
-1.51689e-07
1.51285e-07
-2.10959e-07
1.36064e-07
-6.27676e-08
3.5377e-07
6.4546e-08
8.30291e-08
-3.36318e-08
4.80274e-08
-1.81339e-07
1.36774e-07
-1.07539e-07
1.15739e-07
-1.02374e-07
-2.15632e-07
2.26061e-07
2.37524e-08
4.0392e-08
-4.15018e-08
1.49519e-07
-1.44985e-07
1.06084e-07
-3.74214e-08
1.07091e-08
-7.44295e-08
1.45332e-07
1.47067e-07
5.35309e-08
7.95808e-08
-1.16686e-07
1.10477e-07
-8.85397e-08
6.74995e-08
-3.03536e-09
-3.31207e-08
-1.14646e-07
2.1791e-07
6.309e-08
8.15993e-08
4.16627e-09
1.29674e-07
-1.04798e-07
7.11425e-08
-4.05302e-08
5.44015e-08
1.57079e-08
-2.8526e-08
1.18828e-07
1.45484e-07
7.60521e-08
7.74533e-08
-7.77859e-08
9.14129e-08
-8.40701e-08
6.7222e-08
2.51095e-09
5.08384e-08
-5.33304e-08
2.19082e-07
1.97004e-07
7.9533e-08
7.77335e-08
2.10087e-08
1.05812e-07
-8.65561e-08
5.26314e-08
-5.40761e-08
8.12866e-08
9.01342e-09
9.20907e-08
-1.07646e-07
1.30058e-07
1.28141e-07
7.48185e-08
6.67056e-08
-5.95126e-08
6.306e-08
-8.35562e-08
4.952e-08
-7.4883e-09
4.66038e-08
3.17635e-09
2.04477e-07
1.65353e-07
7.20735e-08
7.27562e-08
2.21489e-08
7.99142e-08
-7.62044e-08
3.47586e-08
-6.53184e-08
5.94915e-08
2.07978e-08
6.75529e-08
-8.80533e-08
1.57674e-07
1.09474e-07
1.0817e-07
6.51533e-08
5.24554e-08
-4.76102e-08
4.71222e-08
-8.41932e-08
3.35227e-08
-2.62147e-08
5.14222e-08
2.54979e-08
3.49288e-08
-2.1496e-08
1.49892e-07
6.50067e-08
5.77535e-08
2.11761e-08
6.02716e-08
-6.8738e-08
1.83558e-08
-7.6505e-08
4.67197e-08
2.27143e-08
4.29308e-08
-1.19308e-08
-2.4558e-08
1.63396e-08
1.02046e-07
9.40599e-08
5.40193e-08
4.09658e-08
-3.93892e-08
2.86069e-08
-8.26596e-08
1.53009e-08
-3.60663e-08
4.5437e-08
2.78538e-08
3.30896e-08
-4.51106e-09
-6.22198e-10
1.41512e-07
4.70109e-08
5.19506e-08
1.85605e-08
4.43796e-08
-6.14342e-08
8.03676e-09
-8.16071e-08
3.75787e-08
2.32432e-08
3.20256e-08
-2.49465e-08
2.82976e-09
2.69448e-08
7.79174e-08
8.79057e-08
3.62013e-08
3.24491e-08
-3.11436e-08
2.09207e-08
-7.94731e-08
8.96904e-09
-4.36542e-08
3.58737e-08
1.45461e-08
3.46537e-08
1.61355e-08
-4.83692e-08
2.78268e-07
2.15317e-07
-2.20542e-08
2.2514e-08
1.11356e-08
3.32438e-08
-5.44032e-08
7.49516e-10
-8.24229e-08
2.59395e-08
8.94799e-09
2.37765e-08
-2.81226e-08
-4.2827e-08
1.91304e-07
-1.30988e-07
-4.12956e-08
4.7652e-08
-1.58155e-08
1.398e-08
-2.70206e-08
1.19412e-08
-7.40437e-08
7.7209e-10
-5.1264e-08
2.28065e-08
-1.1101e-09
2.57065e-08
4.00924e-08
-9.84881e-08
4.23483e-07
2.31648e-07
-7.15824e-08
-2.83435e-08
-3.01157e-09
2.27953e-08
-4.82086e-08
-1.8842e-09
-8.03699e-08
1.96065e-08
-4.60888e-09
2.12923e-08
-3.9785e-08
-4.94916e-08
9.20538e-08
9.00022e-08
4.50266e-07
-6.11434e-08
3.44277e-09
-6.82864e-09
9.84083e-09
-2.29347e-08
9.30672e-09
-6.8346e-08
2.8681e-10
-5.52318e-08
1.53796e-08
-9.40323e-09
1.65393e-08
-1.14525e-08
5.77493e-08
5.48023e-08
4.40879e-07
-3.89875e-08
-4.33662e-09
8.89429e-10
1.77617e-08
-4.26096e-08
-3.94864e-09
-7.60875e-08
1.18307e-08
-9.97157e-09
1.13065e-08
-4.74322e-08
-5.11637e-08
9.31639e-08
1.49578e-07
1.05826e-08
3.81119e-07
-8.22379e-09
5.18101e-09
1.25081e-08
-1.8259e-08
5.50345e-09
-6.19049e-08
-3.05367e-09
-5.43804e-08
7.471e-09
-1.31288e-08
9.58061e-09
-1.48274e-09
8.76959e-09
1.48918e-07
7.79832e-08
-7.92691e-08
3.12817e-09
6.32871e-09
4.62177e-09
1.50378e-08
-3.74971e-08
-3.34613e-09
-7.05897e-08
1.08495e-08
-1.13229e-08
1.17313e-08
-5.75384e-08
-3.51267e-08
7.39236e-08
1.74496e-07
-1.19228e-07
2.46381e-07
-7.84329e-09
9.59095e-09
1.34488e-08
-1.47413e-08
5.56445e-09
-5.59261e-08
-6.95661e-10
-5.18044e-08
8.61807e-09
-1.75926e-08
9.96459e-09
-1.24034e-08
1.29566e-07
-7.52015e-10
1.47239e-07
-2.04532e-07
2.80525e-07
8.69409e-09
1.01841e-08
6.21033e-09
1.30127e-08
-3.29475e-08
-3.26504e-09
-6.44965e-08
9.38315e-09
-1.16625e-08
7.04945e-09
-6.38267e-08
3.23013e-08
5.95632e-08
1.84749e-07
-4.20846e-08
3.0001e-08
-1.36528e-07
-4.54727e-09
1.23156e-08
1.32832e-08
-1.21066e-08
4.00566e-09
-4.9736e-08
-1.19659e-09
-4.7858e-08
6.26712e-09
-2.04477e-08
1.00226e-08
2.48631e-08
1.01247e-07
6.39261e-08
3.90092e-08
-1.70578e-07
2.34681e-07
1.46068e-08
1.16186e-08
6.50909e-09
1.15407e-08
-2.8845e-08
-1.48069e-09
-5.81943e-08
1.09626e-08
-1.13565e-08
3.7823e-09
-5.36613e-08
1.08232e-08
1.07558e-07
6.25601e-08
-3.75123e-08
2.70008e-09
-2.05277e-07
2.86426e-07
-1.91441e-09
1.17731e-08
1.21959e-08
-1.02625e-08
4.89207e-09
-4.40864e-08
1.81224e-09
-4.37261e-08
6.54202e-09
-2.19981e-08
7.17098e-09
2.54303e-08
6.17311e-08
5.7095e-08
-1.24411e-08
-1.00643e-07
4.0242e-09
-6.992e-08
1.35693e-08
1.10223e-08
6.02511e-09
1.01885e-08
-2.51322e-08
-6.69026e-10
-5.17909e-08
9.79853e-09
-1.12548e-08
7.5355e-10
-5.17681e-08
1.34234e-09
7.91838e-08
4.24243e-08
-6.49861e-08
-9.40212e-09
-2.33312e-07
2.20067e-07
-8.41499e-10
1.13199e-08
1.0892e-08
-8.76835e-09
4.21964e-09
-3.84756e-08
1.88379e-09
-3.94432e-08
4.57599e-09
-2.11454e-08
3.25229e-09
1.26855e-08
3.69624e-08
2.9365e-08
-2.59097e-08
-1.78277e-07
-6.40164e-09
-1.78364e-07
2.15805e-07
1.43915e-08
9.94349e-09
5.2791e-09
9.21109e-09
-2.18024e-08
1.20057e-09
-4.57202e-08
1.08746e-08
-1.0393e-08
6.8066e-10
-5.01212e-08
-6.87609e-09
5.42651e-08
2.02135e-08
-6.64941e-08
-5.9877e-08
-1.69872e-07
2.97013e-08
-1.00686e-07
-7.17725e-10
9.3836e-09
9.4279e-09
-7.62535e-09
5.16284e-09
-3.35486e-08
4.38929e-09
-3.52335e-08
5.04966e-09
-1.94498e-08
2.13088e-09
6.43403e-09
2.69502e-08
2.47244e-08
-1.53625e-08
-1.70185e-07
8.79953e-09
-2.2834e-07
2.65203e-07
1.12772e-08
8.37218e-09
4.40728e-09
8.20254e-09
-1.88063e-08
1.93583e-09
-3.99625e-08
9.84864e-09
-9.56172e-09
-3.14894e-11
-4.55089e-08
-6.17805e-09
5.20268e-08
2.59818e-08
-4.22915e-08
-2.80281e-08
-2.18411e-07
4.92454e-08
-1.58923e-07
2.07184e-07
-1.17714e-09
8.27437e-09
8.10467e-09
-6.59167e-09
4.72471e-09
-2.88903e-08
4.3565e-09
-3.11101e-08
3.98474e-09
-1.72528e-08
3.2546e-09
8.51034e-09
2.94165e-08
3.35859e-08
2.84473e-09
-1.29014e-07
-8.94161e-09
-1.3634e-07
4.36227e-08
-6.53904e-08
1.07031e-08
6.99909e-09
3.6223e-09
7.50076e-09
-1.61778e-08
3.33669e-09
-3.47807e-08
1.07068e-08
-8.17261e-09
1.25669e-09
-3.88206e-08
-2.81755e-09
5.25455e-08
3.18855e-08
-2.47442e-08
-5.00207e-11
-1.96334e-07
4.86987e-08
-1.63502e-07
3.16938e-08
-1.61655e-09
6.44506e-09
6.86216e-09
-5.77141e-09
5.41089e-09
-2.49324e-08
6.15424e-09
-2.72073e-08
4.94481e-09
-1.44015e-08
5.43061e-09
1.12971e-08
3.01998e-08
3.59245e-08
1.447e-08
-1.02106e-07
1.37348e-08
-1.71317e-07
-1.72636e-08
-1.0906e-07
6.57866e-08
7.77782e-09
5.59819e-09
2.87956e-09
6.70588e-09
-1.38703e-08
3.68862e-09
-3.0022e-08
9.89677e-09
-6.76747e-09
1.93742e-09
-3.24102e-08
-1.01003e-11
4.98363e-08
3.24337e-08
-1.70541e-08
1.08804e-08
-1.61779e-07
2.08392e-08
-1.14443e-07
5.29819e-08
-6.33286e-08
-2.07926e-09
5.50557e-09
5.78512e-09
-5.04092e-09
4.88593e-09
-2.12747e-08
5.8294e-09
-2.34912e-08
4.6356e-09
-1.16129e-08
7.59079e-09
1.27259e-08
2.80677e-08
3.33707e-08
1.95161e-08
-8.58164e-08
1.60703e-08
-1.50214e-07
3.41096e-08
-1.77335e-08
1.63033e-08
7.16272e-09
4.49146e-09
2.25236e-09
6.06233e-09
-1.18646e-08
4.43545e-09
-2.57984e-08
1.04977e-08
-5.12224e-09
3.80341e-09
-2.63956e-08
1.54473e-09
4.51322e-08
3.0693e-08
-1.41696e-08
1.16175e-08
-1.25992e-07
2.39629e-08
3.36852e-08
3.0167e-09
1.06848e-07
-2.36682e-09
4.09664e-09
4.79352e-09
-4.42743e-09
5.16681e-09
-1.81638e-08
6.92573e-09
-2.00798e-08
5.65166e-09
-8.92178e-09
9.25217e-09
1.37457e-08
2.51834e-08
2.73681e-08
1.95128e-08
-6.93615e-08
1.3322e-08
1.76141e-08
3.08649e-08
6.23544e-08
-2.67225e-08
6.10144e-08
4.88718e-09
3.41676e-09
1.70094e-09
5.33047e-09
-1.00712e-08
4.39876e-09
-2.19313e-08
9.68565e-09
-3.84129e-09
4.39923e-09
-2.09794e-08
2.07094e-09
3.74535e-08
2.58185e-08
-1.57561e-08
3.35849e-09
3.26068e-09
2.57498e-08
-2.08031e-08
2.3062e-08
-8.08099e-08
3.8125e-08
-2.63554e-09
3.40976e-09
3.96126e-09
-3.82337e-09
4.51326e-09
-1.52613e-08
6.32815e-09
-1.69853e-08
5.26138e-09
-6.65096e-09
1.00689e-08
1.21533e-08
1.85335e-08
2.01243e-08
7.35761e-09
1.36259e-08
-1.02899e-09
-3.66364e-08
5.72832e-09
-1.13378e-07
1.70342e-08
-7.04596e-08
4.39499e-09
2.62735e-09
1.24926e-09
4.69081e-09
-8.45082e-09
4.64175e-09
-1.85034e-08
9.78439e-09
-2.64104e-09
5.45404e-09
-1.70076e-08
7.94503e-10
2.95032e-08
1.28497e-08
1.03513e-08
-4.64644e-09
-3.64417e-08
5.67688e-09
-1.53168e-07
2.0814e-08
-1.27655e-07
1.08791e-07
-2.73e-09
2.37151e-09
3.21764e-09
-3.25621e-09
4.52567e-09
-1.27437e-08
6.85858e-09
-1.42418e-08
5.70806e-09
-4.86869e-09
1.0352e-08
9.22516e-09
1.12861e-08
1.04316e-08
6.86708e-09
-1.29059e-08
-4.87781e-10
-9.40599e-08
1.32113e-08
-1.39567e-07
3.38505e-08
-8.74697e-08
1.11263e-07
2.70145e-09
1.87572e-09
9.02159e-10
4.0763e-09
-6.95847e-09
4.42994e-09
-1.53838e-08
8.81384e-09
-1.88279e-09
5.29769e-09
-1.42562e-08
-2.32685e-10
2.12223e-08
5.85833e-09
4.64627e-09
-1.11298e-08
-4.45441e-08
-9.89952e-10
-1.30099e-07
2.43397e-08
-6.50579e-08
2.71959e-08
-1.28206e-08
-2.81542e-09
1.92208e-09
2.64097e-09
-2.66978e-09
3.92121e-09
-1.0394e-08
6.12168e-09
-1.18448e-08
4.9623e-09
-3.80133e-09
9.66496e-09
7.42773e-09
7.76275e-09
8.27586e-09
6.86516e-09
-8.76207e-09
3.09578e-09
-7.71209e-08
2.44586e-08
-1.13465e-07
3.62507e-08
-3.60495e-08
6.32709e-08
2.37294e-09
1.37881e-09
6.58001e-10
3.53692e-09
-5.60012e-09
4.39135e-09
-1.2653e-08
8.50728e-09
-1.33159e-09
5.20162e-09
-1.20363e-08
-2.11771e-10
1.82149e-08
6.10687e-09
7.47119e-09
-4.30772e-09
-3.43611e-08
8.29492e-09
-1.06412e-07
3.28e-08
-5.40603e-08
3.46078e-08
-3.38689e-08
-2.76388e-09
1.23113e-09
2.13786e-09
-2.12273e-09
3.78187e-09
-8.36486e-09
6.25869e-09
-9.78686e-09
4.86001e-09
-3.12631e-09
8.79672e-09
5.85089e-09
5.71695e-09
5.60281e-09
4.68988e-09
-9.5894e-09
2.53292e-09
-6.64179e-08
2.51639e-08
-9.66366e-08
3.88925e-08
-6.86603e-08
7.67491e-08
1.17047e-09
8.97944e-10
4.58139e-10
3.00271e-09
-4.36789e-09
4.06041e-09
-1.01821e-08
7.48602e-09
-1.10782e-09
4.35618e-09
-1.07754e-08
-1.22608e-09
1.29305e-08
1.89904e-09
1.79986e-09
-8.99396e-09
-3.33769e-08
2.42948e-09
-8.96787e-08
3.18933e-08
-7.75905e-08
3.48859e-08
-4.93602e-08
7.91192e-08
-2.69337e-09
9.32925e-10
1.72143e-09
-1.59594e-09
3.1935e-09
-6.48613e-09
5.43444e-09
-7.98319e-09
3.90164e-09
-2.87811e-09
7.18058e-09
4.02654e-09
3.09016e-09
3.58433e-09
3.31763e-09
-7.85876e-09
3.09225e-09
-5.35154e-08
2.19679e-08
-8.1385e-08
3.37788e-08
-3.29155e-08
2.65113e-08
-4.63285e-09
8.98606e-10
5.53091e-10
2.84928e-10
2.44671e-09
-3.26156e-09
3.73099e-09
-7.9825e-09
6.93376e-09
-9.25681e-10
3.3202e-09
-9.63682e-09
-1.43513e-09
1.11396e-08
2.53296e-09
4.14417e-09
-3.73814e-09
-2.48594e-08
7.57228e-09
-7.38732e-08
3.2102e-08
-6.46215e-08
3.48422e-08
-1.40648e-08
4.92121e-08
-2.58726e-09
4.2501e-10
1.29439e-09
-1.11388e-09
2.77341e-09
-4.87386e-09
5.26843e-09
-6.40094e-09
3.43781e-09
-2.85248e-09
6.03839e-09
3.32964e-09
2.43289e-09
3.01711e-09
2.99863e-09
-6.91334e-09
3.70431e-09
-4.59216e-08
2.07634e-08
-6.87582e-08
3.29158e-08
-2.26027e-08
3.1591e-08
9.05855e-11
-1.60993e-11
1.74483e-10
8.89508e-11
1.81241e-09
-2.27828e-09
3.22275e-09
-6.01447e-09
6.05857e-09
-1.36199e-09
2.3604e-09
-8.38077e-09
-1.87205e-09
8.56417e-09
8.99474e-10
1.45223e-09
-5.90068e-09
-2.32197e-08
3.96319e-09
-6.3187e-08
2.72708e-08
-4.8369e-08
3.37607e-08
-3.00998e-10
4.09221e-08
-2.48994e-09
1.72174e-10
8.07315e-10
-8.74537e-10
2.10728e-09
-3.73096e-09
4.28814e-09
-5.42528e-09
2.08883e-09
-3.00442e-09
4.82968e-09
2.99592e-09
2.30715e-09
7.29952e-10
3.29356e-09
-5.44523e-09
4.99121e-09
-3.67775e-08
1.92019e-08
-4.97001e-08
3.13696e-08
9.97155e-09
2.70172e-08
2.48303e-08
-4.95928e-10
-3.27263e-10
-2.02251e-10
1.23295e-09
-2.15335e-09
2.63151e-09
-5.22272e-09
4.91651e-09
-9.00295e-10
2.38049e-09
-6.27308e-09
7.88313e-10
2.42375e-09
6.31823e-09
-3.95744e-10
1.95961e-09
-1.87954e-08
9.81307e-09
-4.31876e-08
2.69282e-08
7.20929e-09
3.23388e-08
1.86522e-08
1.42733e-08
1.47062e-08
-2.21885e-09
-1.09272e-10
1.91719e-10
-1.26576e-09
1.64679e-09
-3.81657e-09
4.0089e-09
-4.05875e-09
1.63807e-09
-2.06273e-09
5.866e-09
-1.38953e-09
7.86351e-09
-5.57187e-09
1.17221e-08
-1.00511e-08
1.38177e-08
-2.07262e-08
2.50608e-08
8.18439e-09
3.16385e-08
-8.523e-11
2.07905e-08
-1.91881e-08
1.98144e-08
-1.2357e-09
-8.84423e-10
-5.55559e-10
9.33685e-10
-2.91429e-09
2.39039e-09
-4.51553e-09
3.48631e-09
-2.5931e-10
2.83473e-09
-5.30477e-09
2.12987e-09
-4.01276e-10
7.41835e-09
1.6346e-09
3.78249e-09
-2.84472e-09
7.78596e-09
6.54142e-09
1.76775e-08
-5.7117e-09
1.80466e-08
-3.55432e-08
1.24407e-08
-1.51389e-08
-2.48841e-09
-5.51937e-10
-2.22704e-10
-1.86627e-09
1.40789e-09
-3.60383e-09
3.39019e-09
-2.28193e-09
1.79793e-09
-1.1826e-09
5.40584e-09
-1.0978e-09
3.63734e-09
4.36195e-09
2.55448e-09
2.91122e-09
-1.99369e-09
6.83465e-10
1.54602e-09
-7.65981e-09
1.05288e-08
-3.86678e-08
1.07247e-08
-1.78037e-08
1.67482e-08
-1.18005e-09
-1.00058e-09
-8.06517e-10
7.04375e-10
-2.47596e-09
2.07917e-09
-3.09959e-09
2.9534e-09
1.87712e-12
3.0136e-09
-3.76004e-09
1.15752e-09
5.58653e-09
3.79469e-09
6.34569e-09
-1.2361e-10
1.34855e-09
-1.25026e-09
-1.24974e-09
3.47827e-09
-2.87688e-08
8.57343e-09
-2.9984e-08
9.0938e-09
-1.244e-08
-2.77422e-09
-9.0001e-10
-2.90826e-10
-1.52779e-09
1.27387e-09
-2.41865e-09
3.02436e-09
-1.42866e-09
2.2748e-09
-7.11642e-10
3.90287e-09
3.25783e-09
1.28038e-09
1.02404e-08
-1.97399e-09
9.24705e-09
-6.3943e-09
7.64303e-09
-6.05265e-09
-1.89317e-08
3.16454e-09
-3.96865e-08
8.39346e-09
-1.36197e-08
1.60844e-08
-1.54343e-09
-1.15115e-09
-8.58187e-10
7.11301e-10
-1.56429e-09
2.05339e-09
-1.91804e-09
2.79553e-09
1.46784e-10
2.53406e-09
-2.0108e-09
1.15868e-09
6.3817e-09
3.43907e-09
4.24781e-09
7.12317e-10
3.72459e-09
1.31358e-10
-9.09605e-09
4.83552e-09
-3.36018e-08
1.01022e-08
-1.96379e-08
8.88085e-09
-7.89762e-09
-2.75452e-09
-1.1276e-09
-8.50341e-11
-9.95332e-10
1.4524e-09
-1.2749e-09
2.75668e-09
-9.43671e-10
2.29577e-09
-5.79435e-10
3.15565e-09
2.53227e-09
3.62501e-09
2.97984e-09
3.72273e-09
1.07073e-09
4.23273e-09
-1.76766e-10
7.46374e-09
-1.7976e-08
1.19383e-08
-2.59245e-08
9.78935e-09
-5.5389e-09
1.33084e-08
-1.77253e-09
-9.94316e-10
-7.06757e-10
1.01788e-09
-7.1694e-10
2.09549e-09
-1.04733e-09
2.45114e-09
5.51766e-11
1.84697e-09
-1.98211e-09
3.71423e-09
3.34224e-09
4.27434e-09
2.40929e-09
2.23934e-09
2.90538e-09
1.99009e-09
-9.27091e-09
7.67382e-09
-2.29181e-08
1.19267e-08
-7.29989e-10
8.44213e-09
6.01653e-09
-2.81614e-09
-1.22261e-09
4.59562e-10
-6.80808e-10
1.55342e-09
-4.20532e-10
2.35863e-09
-6.5306e-10
1.89645e-09
-9.29518e-10
4.43554e-09
1.01377e-09
6.16626e-09
-1.23207e-10
6.25846e-09
-2.70064e-09
7.03126e-09
-4.84608e-09
1.00904e-08
-1.14527e-08
1.40711e-08
1.3443e-09
1.1967e-08
4.66141e-09
3.70013e-09
3.39988e-09
-1.87089e-09
-3.71762e-10
-6.76798e-10
1.1554e-09
-1.48088e-10
1.59546e-09
-3.16511e-10
1.75178e-09
-2.2698e-10
1.71843e-09
-1.60222e-09
4.11741e-09
2.55355e-09
3.01432e-09
5.85555e-10
2.71087e-09
-1.21521e-09
4.65312e-09
-2.52229e-09
9.764e-09
4.50587e-09
1.18193e-08
-3.1506e-09
6.55682e-09
-8.95835e-09
8.63325e-09
-5.22319e-10
-2.08653e-09
2.01254e-09
-1.48687e-09
8.09115e-10
4.10898e-10
1.43889e-09
-1.6863e-10
1.46591e-09
-7.97266e-10
3.69009e-09
2.29977e-09
2.51388e-09
2.65137e-09
8.18946e-10
3.00435e-09
-2.70364e-10
4.06566e-09
3.12317e-10
3.77674e-09
3.58116e-09
-4.91818e-09
8.20862e-09
-7.60792e-09
8.04629e-09
-3.9753e-09
-4.26055e-09
1.79187e-09
-1.65804e-09
2.2246e-10
-3.43514e-10
9.28846e-10
7.79005e-10
1.49927e-09
1.36466e-09
2.62965e-09
1.49586e-09
3.48426e-09
3.31037e-09
2.6903e-09
1.99077e-09
2.94789e-09
1.36533e-09
4.44673e-09
1.72641e-09
5.8579e-09
2.29536e-09
1.07222e-08
-7.43076e-09
9.45888e-09
-4.10792e-09
1.38302e-08
1.26848e-09
-8.62875e-10
-2.85084e-10
-6.64639e-10
5.99881e-11
8.56936e-10
1.43287e-09
1.12026e-09
1.37411e-09
1.20721e-09
2.58882e-09
3.78323e-09
1.77344e-09
4.06861e-09
7.20722e-10
5.22577e-09
1.15087e-09
7.05496e-09
3.45297e-09
7.19043e-09
5.6831e-09
-5.52722e-09
8.90752e-09
6.92714e-10
1.20719e-08
5.07363e-09
-1.0198e-09
-1.64454e-10
-1.8512e-10
-6.48043e-11
2.1499e-10
3.52287e-10
2.84026e-10
2.55414e-10
2.28012e-10
6.00841e-10
1.04857e-09
8.6283e-10
1.51618e-09
6.73678e-10
2.45659e-09
1.06647e-09
4.08487e-09
2.01434e-09
5.90031e-09
5.02878e-09
2.40615e-09
8.36e-09
5.01881e-09
1.01082e-08
8.41646e-09
1.23348e-08
)
;

boundaryField
{
    inlet
    {
        type            extrapolatedCalculated;
        value           nonuniform List<scalar> 
26
(
-1.0198e-09
-1.64454e-10
-1.8512e-10
-6.48043e-11
2.1499e-10
3.52287e-10
2.84026e-10
2.55414e-10
2.28012e-10
6.00841e-10
1.04857e-09
8.6283e-10
1.51618e-09
6.73678e-10
2.45659e-09
1.06647e-09
4.08487e-09
2.01434e-09
5.90031e-09
5.02878e-09
2.40615e-09
8.36e-09
5.01881e-09
1.01082e-08
8.41646e-09
1.23348e-08
)
;
    }
    outlet
    {
        type            extrapolatedCalculated;
        value           nonuniform List<scalar> 0();
    }
    walls
    {
        type            extrapolatedCalculated;
        value           nonuniform List<scalar> 0();
    }
    frontAndBack
    {
        type            empty;
    }
    procBoundary0to1
    {
        type            processor;
        value           nonuniform List<scalar> 
94
(
-2.47176e-06
-1.35909e-06
-1.35909e-06
-8.65323e-07
-8.65323e-07
-4.30711e-07
-4.30711e-07
-3.05148e-07
-3.05148e-07
-3.67769e-07
-3.67769e-07
-2.63243e-07
-1.317e-07
-1.317e-07
-4.81834e-08
-8.2813e-08
-8.2813e-08
-2.2859e-07
2.72959e-07
-2.95001e-07
-2.95001e-07
-1.60852e-07
-4.94046e-08
-4.94046e-08
-6.20587e-09
2.73511e-08
7.01799e-09
7.01799e-09
5.54901e-09
7.20086e-07
-9.35417e-08
-9.35417e-08
3.90132e-07
-1.75416e-07
-1.75416e-07
-1.2844e-07
1.72396e-07
-3.90954e-07
-3.90954e-07
-2.37701e-07
1.70284e-07
-3.65736e-07
-3.65736e-07
-1.48742e-07
1.54603e-07
-2.8162e-07
-2.8162e-07
-1.55587e-07
1.99316e-07
-2.45983e-07
-2.45983e-07
-1.02648e-07
-7.92174e-08
-1.55622e-07
-1.55622e-07
-8.42162e-08
1.07934e-08
1.90791e-08
-4.65765e-08
-4.65765e-08
-6.22676e-09
-5.51184e-08
4.47094e-08
-1.32928e-07
-1.32928e-07
-4.94313e-08
3.63151e-08
-1.72448e-08
4.80536e-08
-6.93798e-08
-6.93798e-08
-2.56668e-08
3.74679e-08
7.48293e-09
4.00974e-08
1.99549e-08
2.32572e-08
2.32572e-08
1.80129e-08
-1.07098e-08
1.57381e-08
-8.75989e-09
1.18632e-08
-5.93742e-09
9.55657e-09
7.73524e-10
4.79425e-09
4.79425e-09
4.51597e-09
-5.20596e-09
8.40678e-09
2.23265e-09
1.66704e-08
1.80299e-08
)
;
    }
    procBoundary0to4
    {
        type            processor;
        value           nonuniform List<scalar> 
72
(
1.05343e-06
-1.4896e-08
5.52393e-07
-7.74397e-08
2.24243e-07
9.90895e-08
1.61174e-07
9.21306e-08
1.49398e-07
1.31162e-07
1.17957e-07
1.12944e-07
1.03991e-07
1.18751e-07
8.55961e-08
1.18647e-07
8.50475e-08
1.22743e-07
4.86993e-08
2.35802e-07
3.00351e-08
1.32146e-07
1.39469e-07
1.39469e-07
7.99015e-09
-2.8911e-09
1.01098e-08
-6.46424e-09
1.31244e-08
-7.37026e-09
1.35438e-08
-4.42941e-09
1.40519e-08
-5.26704e-09
1.20705e-08
-4.02571e-09
1.10211e-08
-5.29322e-09
8.70997e-09
-4.49606e-09
7.56759e-09
-5.39696e-09
5.67229e-09
-4.65656e-09
4.72706e-09
-5.17516e-09
3.2773e-09
-4.46306e-09
2.54722e-09
-4.69962e-09
1.5079e-09
-4.01865e-09
9.17524e-10
-4.06245e-09
6.81376e-11
-3.59858e-09
-3.32838e-10
-3.83083e-09
-5.10981e-10
-4.49451e-09
-4.61673e-10
-4.06121e-09
-9.17995e-10
-3.49841e-09
-1.52692e-09
-3.36282e-09
-1.76105e-09
-2.80236e-09
-2.35436e-09
2.07561e-10
-3.31599e-09
-4.26133e-10
)
;
    }
    procBoundary0to5
    {
        type            processor;
        value           nonuniform List<scalar> 4(-1.17498e-07 4.10327e-08 -1.4986e-06 1.08165e-06);
    }
}


// ************************************************************************* //
