/*--------------------------------*- C++ -*----------------------------------*\
| =========                 |                                                 |
| \\      /  F ield         | OpenFOAM: The Open Source CFD Toolbox           |
|  \\    /   O peration     | Version:  2506                                  |
|   \\  /    A nd           | Website:  www.openfoam.com                      |
|    \\/     M anipulation  |                                                 |
\*---------------------------------------------------------------------------*/
FoamFile
{
    version     2.0;
    format      ascii;
    arch        "LSB;label=32;scalar=64";
    class       surfaceScalarField;
    location    "350";
    object      phi;
}
// * * * * * * * * * * * * * * * * * * * * * * * * * * * * * * * * * * * * * //

dimensions      [0 3 -1 0 0 0 0];

oriented        oriented;

internalField   nonuniform List<scalar> 
2582
(
-0.189092
-0.245263
-0.159374
-0.24767
-0.128734
-0.259938
-0.0901267
-0.319986
-0.325992
-0.1898
-0.277003
-0.158407
-0.279064
-0.126255
-0.29209
-0.0855704
-0.360671
-0.0454784
-0.366084
-0.378491
-0.19082
-0.310544
-0.157785
-0.312098
-0.123904
-0.325971
-0.0810812
-0.403494
-0.038893
-0.408272
0.00400962
-0.421394
-0.434786
-0.192329
-0.345799
-0.157376
-0.347052
-0.12183
-0.361517
-0.0766372
-0.448686
-0.0322537
-0.452656
0.0128969
-0.466544
0.0591085
-0.480997
-0.464942
-0.194076
-0.383002
-0.157339
-0.383789
-0.119748
-0.399108
-0.0721717
-0.496263
-0.0254092
-0.499418
0.02206
-0.514013
0.0706094
-0.529547
0.116727
-0.511059
-0.459139
-0.196132
-0.422313
-0.157389
-0.422533
-0.117916
-0.438581
-0.0676759
-0.546503
-0.0184252
-0.548669
0.0315391
-0.563978
0.082661
-0.580669
0.131076
-0.559474
0.173147
-0.50121
-0.442583
-0.198549
-0.463786
-0.157639
-0.463443
-0.116017
-0.480202
-0.0630713
-0.599449
-0.0111874
-0.600553
0.0414267
-0.616592
0.0952411
-0.634483
0.14616
-0.610393
0.19031
-0.54536
-0.480203
-0.201176
-0.507482
-0.15804
-0.506579
-0.114205
-0.524038
-0.0583872
-0.655266
-0.00366594
-0.655274
0.0517276
-0.671985
0.108355
-0.691111
0.161984
-0.664022
0.208326
-0.591702
0.247784
-0.519661
-0.455098
-0.204123
-0.553583
-0.158643
-0.552059
-0.112424
-0.570257
-0.0535202
-0.71417
0.00411206
-0.712906
0.0625015
-0.730375
0.122145
-0.750755
0.178521
-0.720397
0.227294
-0.640474
0.268665
-0.561031
-0.490182
-0.207301
-0.602215
-0.159349
-0.60001
-0.110624
-0.618982
-0.0485005
-0.776294
0.0122032
-0.77361
0.0737358
-0.791907
0.136573
-0.813592
0.195958
-0.779783
0.247212
-0.691728
0.290659
-0.604479
0.327403
-0.526926
-0.443545
-0.210766
-0.653468
-0.160167
-0.650609
-0.10881
-0.670339
-0.043286
-0.841818
0.0207183
-0.837614
0.0855145
-0.856704
0.151717
-0.879794
0.214251
-0.842316
0.268181
-0.745658
0.313838
-0.650137
0.352394
-0.565482
-0.474502
-0.214394
-0.707574
-0.1611
-0.703903
-0.106963
-0.724477
-0.037894
-0.910887
0.0295931
-0.905101
0.0979013
-0.925012
0.167655
-0.949548
0.233544
-0.908205
0.290291
-0.802405
0.338263
-0.698109
0.378705
-0.605924
-0.506928
-0.218374
-0.764595
-0.162149
-0.760128
-0.105102
-0.781524
-0.0322505
-0.983738
0.0388696
-0.976221
0.110902
-0.997044
0.184413
-1.02306
0.253787
-0.977579
0.313531
-0.862148
0.363987
-0.748565
0.406502
-0.648439
0.440437
-0.540864
-0.451369
-0.222582
-0.824692
-0.163236
-0.819474
-0.103112
-0.841648
-0.0263434
-1.06051
0.0486865
-1.05125
0.124579
-1.07294
0.202048
-1.10053
0.275155
-1.05069
0.338013
-0.925007
0.391119
-0.80167
0.435756
-0.693076
0.471372
-0.576479
-0.479498
-0.227029
-0.888076
-0.164522
-0.881981
-0.101082
-0.905088
-0.020076
-1.14151
0.0589866
-1.13031
0.138956
-1.15291
0.220588
-1.18216
0.297592
-1.12769
0.363855
-0.99127
0.419707
-0.857521
0.466659
-0.740029
0.504024
-0.613844
0.533472
-0.508946
-0.432759
-0.231725
-0.954959
-0.165769
-0.947937
-0.0989726
-0.971884
-0.0135813
-1.2269
0.069772
-1.21367
0.154073
-1.23721
0.240145
-1.26823
0.321318
-1.20886
0.391071
-1.06102
0.449857
-0.916307
0.499208
-0.789379
0.538458
-0.653095
0.569304
-0.539792
-0.457595
-0.236719
-1.02545
-0.167211
-1.01744
-0.0967473
-1.04235
-0.00672315
-1.31693
0.0811507
-1.30154
0.170031
-1.32609
0.260717
-1.35892
0.346255
-1.2944
0.419761
-1.13453
0.481654
-0.9782
0.533572
-0.841297
0.574778
-0.694301
0.607145
-0.572159
-0.483589
-0.241977
-1.09974
-0.16869
-1.09073
-0.0944267
-1.11661
0.000533436
-1.41189
0.0931484
-1.39416
0.186846
-1.41979
0.282443
-1.45451
0.372581
-1.38454
0.450002
-1.21195
0.515185
-1.04338
0.569795
-0.895907
0.613122
-0.737627
0.647036
-0.606073
0.674236
-0.510789
-0.43218
-0.247544
-1.17808
-0.170241
-1.16804
-0.0919389
-1.19491
0.0081466
-1.51197
0.105801
-1.49181
0.20457
-1.51855
0.305342
-1.55529
0.400348
-1.47955
0.481902
-1.2935
0.550524
-1.112
0.608007
-0.95339
0.65361
-0.783231
0.689163
-0.641626
0.717633
-0.539259
-0.454753
-0.253354
-1.26068
-0.171894
-1.2495
-0.0893726
-1.27743
0.016157
-1.6175
0.11913
-1.59478
0.223236
-1.62266
0.329479
-1.66153
0.429594
-1.57966
0.515527
-1.37944
0.58785
-1.18433
0.648374
-1.01391
0.696176
-0.831034
0.733683
-0.679132
0.763467
-0.569043
-0.478385
-0.259519
-1.34775
-0.17365
-1.33536
-0.0866086
-1.36448
0.0246677
-1.72878
0.133217
-1.70333
0.242956
-1.7324
0.354959
-1.77353
0.460456
-1.68516
0.551034
-1.47002
0.627139
-1.26043
0.69084
-1.07761
0.741364
-0.881557
0.780611
-0.71838
0.811816
-0.600248
0.836459
-0.503028
-0.4312
-0.265973
-0.17542
-1.42592
-0.0837221
-1.45617
0.0336227
-1.84612
0.148041
-1.81775
0.263755
-1.84811
0.381774
-1.89155
0.493047
-1.79643
0.588489
-1.56546
0.668638
-1.34058
0.735785
-1.14476
0.788681
-0.934453
0.829983
-0.759682
0.862978
-0.633242
0.888738
-0.528788
-0.45178
-0.177311
-1.52139
-0.0806041
-1.55288
0.0430538
-1.96978
0.163721
-1.93842
0.285692
-1.97008
0.410142
-2.016
0.527362
-1.91365
0.627994
-1.66609
0.71252
-1.42511
0.783192
-1.21543
0.838985
-0.990247
0.882351
-0.803048
0.916726
-0.667617
0.943859
-0.555921
0.965275
-0.473196
-0.416401
-0.179292
-1.62203
-0.0773599
-1.65481
0.0530637
-2.10021
0.180259
-2.06561
0.308863
-2.09869
0.440063
-2.1472
0.563722
-2.03731
0.669654
-1.77202
0.758646
-1.5141
0.833079
-1.28987
0.891801
-1.04897
0.937469
-0.848716
0.97373
-0.703877
1.00205
-0.584243
1.02453
-0.495671
-0.434789
-0.181325
-1.72814
-0.0738676
-1.76227
0.0636337
-2.23771
0.197737
-2.19972
0.33331
-2.23426
0.471615
-2.28551
0.601853
-2.16755
0.713639
-1.88381
0.807481
-1.60794
0.885846
-1.36823
0.947685
-1.11081
0.995743
-0.896775
1.03365
-0.741781
1.06341
-0.61401
1.08691
-0.519168
-0.454063
-0.183496
-1.84001
-0.0701922
-1.87557
0.0747747
-2.38267
0.216153
-2.34109
0.359092
-2.3772
0.504976
-2.43139
0.64225
-2.30482
0.760021
-2.00158
0.858883
-1.7068
0.94139
-1.45074
1.00656
-1.17598
1.05704
-0.947249
1.09713
-0.781876
1.12826
-0.645132
1.15298
-0.543894
1.17285
-0.473932
-0.42197
-0.185708
-1.95794
-0.066272
-1.99501
0.086605
-2.53555
0.235669
-2.49016
0.386386
-2.52792
0.540047
-2.58505
0.68494
-2.44971
0.808965
-2.1256
0.913182
-1.81102
1.00019
-1.53775
1.06869
-1.24448
1.12196
-1.00052
1.16388
-0.823801
1.19674
-0.677986
1.22254
-0.569693
1.24349
-0.494888
-0.43916
-0.188022
-2.08228
-0.0620925
-2.12094
0.0990561
-2.6967
0.256233
-2.64733
0.41509
-2.68678
0.577232
-2.7472
0.729852
-2.60233
0.860756
-2.25651
0.970595
-1.92086
1.06218
-1.62933
1.13439
-1.31669
1.19026
-1.05639
1.23456
-0.868106
1.26894
-0.712362
1.29592
-0.596671
1.31799
-0.51696
-0.457031
-0.190438
-2.2134
-0.0577169
-2.25366
0.112239
-2.86666
0.277944
-2.81304
0.445515
-2.85435
0.616386
-2.91807
0.777366
-2.76331
0.915276
-2.39442
1.03093
-2.03651
1.12759
-1.72598
1.20367
-1.39278
1.26253
-1.11525
1.309
-0.914582
1.34518
-0.748538
1.37362
-0.625107
1.39647
-0.539817
1.41541
-0.475964
-0.432515
-0.192994
-2.35158
-0.0530031
-2.39365
0.126146
-3.0458
0.300894
-2.98779
0.477554
-3.03101
0.657653
-3.09817
0.827388
-2.93305
0.972837
-2.53987
1.09481
-2.15849
1.19668
-1.82785
1.27669
-1.47278
1.33883
-1.17739
1.38772
-0.963471
1.42574
-0.786558
1.45554
-0.654907
1.47954
-0.56382
1.49911
-0.495527
-0.449143
-0.195574
-2.49731
-0.0480153
-2.54121
0.140925
-3.23474
0.325155
-3.17202
0.511367
-3.21722
0.701443
-3.28824
0.880303
-3.11191
1.03359
-2.69315
1.16222
-2.28712
1.2694
-1.93504
1.35387
-1.55725
1.41911
-1.24263
1.47062
-1.01497
1.5106
-0.826546
1.54193
-0.686232
1.56726
-0.58915
1.5878
-0.516066
-0.466332
-0.198319
-2.65095
-0.042704
-2.69683
0.156468
-3.43392
0.350771
-3.36632
0.547134
-3.41358
0.747395
-3.4885
0.936187
-3.3007
1.09772
-2.85468
1.23335
-2.42275
1.34642
-2.04811
1.43528
-1.64611
1.50413
-1.31149
1.55826
-1.0691
1.60029
-0.868582
1.63327
-0.719209
1.65969
-0.615573
1.68113
-0.537503
1.69918
-0.484383
-0.450672
-0.201162
-2.81294
-0.0371276
-2.86086
0.172961
-3.64401
0.377742
-3.5711
0.584857
-3.6207
0.796139
-3.69978
0.99502
-3.49958
1.16553
-3.02519
1.30828
-2.5655
1.42745
-2.16727
1.52123
-1.7399
1.59366
-1.38392
1.65083
-1.12626
1.69502
-0.912772
1.72958
-0.753775
1.75736
-0.643353
1.77998
-0.56012
1.79876
-0.503164
-0.466941
-0.204125
-2.98375
-0.0311463
-3.03384
0.190339
-3.86549
0.406401
-3.78716
0.62478
-3.83908
0.847609
-3.92261
1.05727
-3.70924
1.23681
-3.20473
1.38766
-2.71635
1.51322
-2.29283
1.61201
-1.83869
1.68825
-1.46016
1.7484
-1.18641
1.79494
-0.959316
1.83136
-0.790197
1.86054
-0.672531
1.8841
-0.583684
1.90388
-0.522941
-0.48405
-0.207222
-3.16384
-0.0248154
-3.21625
0.208727
-4.09903
0.436514
-4.01495
0.666811
-4.06937
0.901638
-4.15744
1.12283
-3.93043
1.31245
-3.39435
1.47122
-2.87512
1.6036
-2.42521
1.7077
-1.94279
1.78822
-1.54068
1.85137
-1.24956
1.90053
-1.00848
1.93859
-0.828253
1.96933
-0.70327
1.99423
-0.608579
2.01494
-0.543653
2.03279
-0.501905
-0.478019
-0.210453
-3.35373
-0.0181226
-3.40858
0.228172
-4.34533
0.468375
-4.25515
0.711265
-4.31226
0.959009
-4.40518
1.19226
-4.16368
1.39196
-3.59405
1.55945
-3.04261
1.69912
-2.56488
1.80869
-2.05235
1.89354
-1.62553
1.96023
-1.31625
2.01181
-1.06006
2.05205
-0.86849
2.08425
-0.735471
2.11039
-0.634727
2.13205
-0.565305
2.15077
-0.520633
-0.494839
-0.213833
-3.55396
-0.0110421
-3.61137
0.248714
-4.60508
0.502068
-4.50851
0.758106
-4.5683
1.01929
-4.66637
1.26532
-4.40971
1.47601
-3.80474
1.65259
-3.2192
1.79983
-2.71212
1.91549
-2.16801
2.00481
-1.71484
2.07501
-1.38645
2.12941
-1.11447
2.17173
-0.910808
2.20564
-0.769383
2.23296
-0.662046
2.25568
-0.588025
2.27536
-0.540311
-0.512544
-0.217347
-3.7651
-0.00348677
-3.82523
0.270456
-4.87903
0.537516
-4.77557
0.807676
-4.83846
1.08315
-4.94184
1.34257
-4.66914
1.56476
-4.02693
1.75096
-3.4054
1.90615
-2.8673
2.02815
-2.29001
2.12219
-1.80888
2.19627
-1.46054
2.25345
-1.17164
2.29811
-0.955476
2.33369
-0.80496
2.36257
-0.690925
2.38642
-0.611872
2.407
-0.560894
2.42539
-0.530929
-0.516997
-0.221046
-3.98773
0.0044615
-4.05073
0.293328
-5.16789
0.575025
-5.05726
0.859943
-5.12338
1.15053
-5.23242
1.42414
-4.94275
1.65849
-4.26128
1.85482
-3.60172
2.01842
-3.0309
2.14699
-2.41859
2.24625
-1.90815
2.32418
-1.53847
2.3844
-1.23186
2.43137
-1.00245
2.46899
-0.842575
2.4992
-0.721144
2.52432
-0.636992
2.54591
-0.582474
2.56533
-0.550354
-0.535147
-0.224898
-4.22253
0.0129272
-4.28856
0.31749
-5.47246
0.614779
-5.35455
0.915101
-5.4237
1.2217
-5.53902
1.51024
-5.23129
1.75727
-4.50832
1.96442
-3.80887
2.13696
-3.20344
2.27244
-2.55406
2.37702
-2.01273
2.45922
-1.62067
2.52278
-1.29542
2.57222
-1.05189
2.61168
-0.88204
2.64351
-0.752969
2.66993
-0.663409
2.69251
-0.605058
2.71289
-0.570737
-0.554277
-0.228918
-4.47014
0.0218796
-4.53936
0.343124
-5.7937
0.656527
-5.66796
0.97329
-5.74046
1.2966
-5.86233
1.60097
-5.53566
1.86164
-4.76899
2.07998
-4.02721
2.26195
-3.38541
2.40478
-2.6969
2.51524
-2.12319
2.60176
-1.70718
2.66873
-1.3624
2.72077
-1.10392
2.76251
-0.923785
2.79588
-0.786337
2.82376
-0.691286
2.8476
-0.628899
2.86888
-0.592014
-0.574115
-0.233191
-4.7312
0.0312945
-4.80384
0.370149
-6.13256
0.700686
-5.99849
1.03497
-6.07475
1.37577
-6.20313
1.6969
-5.85679
1.9717
-5.04378
2.20218
-4.25769
2.39407
-3.5773
2.54472
-2.84754
2.66089
-2.23937
2.75231
-1.7986
2.82287
-1.43295
2.87772
-1.15878
2.92149
-0.96755
2.95679
-0.82164
2.9859
-0.7204
3.01095
-0.653949
3.03336
-0.61442
3.05446
-0.595213
-0.595017
-0.237585
-5.00658
0.0413407
-5.08277
0.398707
-6.48992
0.747211
-6.347
1.09975
-6.42729
1.45952
-6.5629
1.79802
-6.19529
2.08807
-5.33384
2.33093
-4.50055
2.53334
-3.7797
2.69227
-3.00648
2.81486
-2.36196
2.91113
-1.89487
2.98543
-1.50726
3.04325
-1.21659
3.08948
-1.01378
3.12666
-0.858814
3.15731
-0.751055
3.18366
-0.680303
3.20728
-0.638031
3.22918
-0.617117
-0.616771
-0.242277
-5.29694
0.0519063
-5.37695
0.428881
-6.8669
0.796544
-6.71466
1.1684
-6.79914
1.54773
-6.94223
1.90491
-6.55246
2.21069
-5.63962
2.46693
-4.7568
2.68036
-3.99312
2.84791
-3.17404
2.97725
-2.4913
3.07867
-1.99629
3.15718
-1.58576
3.21814
-1.27755
3.26665
-1.0623
3.30584
-0.898007
3.33828
-0.783489
3.36592
-0.707945
3.39073
-0.662836
3.41381
-0.640206
-0.639645
-0.247177
-5.60315
0.0631033
-5.68723
0.460691
-7.26448
0.848477
-7.10245
1.2407
-7.19137
1.64081
-7.34235
2.01765
-6.92931
2.3403
-5.96226
2.61057
-5.02707
2.8357
-4.21826
3.01238
-3.35071
3.14869
-2.62761
3.25583
-2.10343
3.33838
-1.66832
3.40266
-1.34182
3.45399
-1.11362
3.49509
-0.939115
3.52915
-0.817544
3.55842
-0.73722
3.58437
-0.688784
3.60883
-0.66466
-0.663484
-0.252278
-5.92615
0.0749495
-6.01446
0.494241
-7.68378
0.903388
-7.51159
1.31712
-7.6051
1.73921
-7.76443
2.13659
-7.32669
2.47687
-6.30255
2.76213
-5.31232
2.99953
-4.45566
3.18592
-3.5371
3.32976
-2.77145
3.44251
-2.21617
3.52974
-1.75554
3.59743
-1.40952
3.65148
-1.16766
3.69496
-0.982604
3.73077
-0.853348
3.76148
-0.767935
3.78895
-0.716252
3.81453
-0.690236
3.83981
-0.688769
-0.708234
-0.257729
-6.26675
0.0873846
-6.35957
0.529702
-8.12609
0.961259
-7.94315
1.39767
-8.04151
1.84296
-8.20972
2.26227
-7.74601
2.62119
-6.66146
2.92187
-5.613
3.17241
-4.7062
3.36914
-3.73383
3.52064
-2.92296
3.63978
-2.33531
3.73169
-1.84746
3.80305
-1.48088
3.86
-1.22462
3.90576
-1.02837
3.94361
-0.891188
3.97594
-0.800267
4.00482
-0.745136
4.03173
-0.717146
4.05818
-0.715221
-0.735863
-0.263388
-6.62601
0.100668
-6.72363
0.567075
-8.5925
1.0223
-8.39838
1.48264
-8.50185
1.95254
-8.67962
2.39479
-8.18826
2.77355
-7.04022
3.09078
-5.93023
3.35506
-4.97048
3.56239
-3.94115
3.7224
-3.08297
3.8479
-2.46081
3.94477
-1.94432
4.02016
-1.55627
4.08008
-1.28454
4.12839
-1.07668
4.16821
-0.93101
4.2023
-0.83436
4.23267
-0.775506
4.26101
-0.745482
4.28894
-0.743159
-0.764677
-0.269405
-7.0049
0.114495
-7.10753
0.606743
-9.08475
1.08684
-8.87848
1.57257
-8.98757
2.06808
-9.17513
2.53464
-8.65482
2.93421
-7.43979
3.26891
-6.26494
3.54763
-5.2492
3.7664
-4.15993
3.93516
-3.25172
4.0676
-2.59325
4.16979
-2.04651
4.2491
-1.63559
4.31241
-1.34785
4.36323
-1.12749
4.40528
-0.973063
4.44104
-0.870123
4.47317
-0.80763
4.503
-0.775314
4.53234
-0.772494
-0.795055
-0.275693
-7.40453
0.129378
-7.5126
0.648286
-9.60366
1.1549
-9.38509
1.66719
-9.49986
2.18998
-9.69792
2.68231
-9.14715
3.10382
-7.8613
3.45703
-6.61814
3.75107
-5.54324
3.98179
-4.39065
4.15977
-3.4297
4.29939
-2.73288
4.40719
-2.15431
4.49088
-1.71928
4.55763
-1.4146
4.61109
-1.18095
4.65532
-1.01729
4.69316
-0.907968
4.72695
-0.841419
4.75832
-0.806679
4.78919
-0.80337
-0.827211
-0.282382
-7.82604
0.144743
-7.93973
0.692387
-10.1513
1.22674
-9.91945
1.76735
-10.0405
2.31886
-10.2494
2.83821
-9.66651
3.28279
-8.30588
3.65531
-6.99065
3.96555
-5.85348
4.209
-4.63411
4.3968
-3.6175
4.54405
-2.88013
4.65756
-2.26782
4.74581
-1.80753
4.81618
-1.48497
4.87274
-1.23751
4.91932
-1.06387
4.95928
-0.947931
4.99466
-0.876799
5.02785
-0.839864
5.06034
-0.83586
5.09403
-0.860897
-0.867523
-0.289403
-8.2706
0.161215
-8.39034
0.738857
-10.7289
1.30246
-10.4831
1.87277
-10.6108
2.45479
-10.8314
3.00258
-10.2143
3.47185
-8.77515
3.86486
-7.38367
4.19212
-6.18074
4.44891
-4.8909
4.64687
-3.81546
4.80211
-3.03536
4.92203
-2.38774
5.01507
-1.90057
5.08924
-1.55914
5.14869
-1.29696
5.19789
-1.11306
5.23979
-0.989834
5.27741
-0.914424
5.31208
-0.874531
5.34647
-0.870255
5.38191
-0.896329
-0.903457
-0.296818
-8.73946
0.178416
-8.86558
0.787684
-11.3382
1.38254
-11.0779
1.98412
-11.2124
2.59806
-11.4454
3.17613
-10.7924
3.67116
-9.27018
4.08587
-7.79837
4.43114
-6.52602
4.70193
-5.16168
4.9107
-4.02423
5.07453
-3.19919
5.20082
-2.51403
5.29894
-1.99869
5.37716
-1.63737
5.44004
-1.35983
5.49182
-1.16485
5.53608
-1.03409
5.5755
-0.953842
5.6122
-0.911239
5.64827
-0.906322
5.68575
-0.933813
-0.941391
-0.304577
-9.23417
0.196826
-9.36698
0.839533
-11.9809
1.46688
-11.7053
2.10165
-11.8471
2.74922
-12.093
3.35919
-11.4023
3.88162
-9.7926
4.31915
-8.2359
4.68325
-6.89013
4.96902
-5.44744
5.18911
-4.24433
5.3619
-3.37198
5.49519
-2.64732
5.59863
-2.10213
5.68102
-1.71976
5.74721
-1.42602
5.80185
-1.21949
5.84848
-1.08072
5.89013
-0.995484
5.92892
-0.950037
5.96698
-0.94438
6.00628
-0.973111
-0.98128
-0.312892
-9.75587
0.21588
-9.89575
0.894088
-12.6591
1.55597
-12.3671
2.22558
-12.5167
2.90895
-12.7763
3.55239
-12.0458
4.10357
-10.3438
4.56529
-8.69762
4.94935
-7.27418
5.25055
-5.74864
5.48298
-4.47676
5.6651
-3.5541
5.80561
-2.78783
5.91471
-2.21123
6.00177
-1.80682
6.0715
-1.49575
6.12907
-1.27706
6.1783
-1.12995
6.22207
-1.03925
6.26284
-0.990811
6.30294
-0.984473
6.3445
-1.01468
-1.0234
-0.321717
-10.3061
0.236328
-10.4538
0.951529
-13.3743
1.64978
-13.0654
2.35625
-13.2232
3.07742
-13.4975
3.75635
-12.7247
4.33804
-10.9255
4.82481
-9.18439
5.23005
-7.67942
5.54784
-6.06644
5.79278
-4.7217
5.98502
-3.74634
6.13335
-2.93616
6.24829
-2.32617
6.33996
-1.89849
6.41357
-1.56937
6.47436
-1.33785
6.52605
-1.18164
6.57276
-1.08596
6.61556
-1.03362
6.65735
-1.02626
6.7007
-1.05803
-1.0687
-0.330967
-10.8865
0.257401
-11.0422
1.01211
-14.129
1.74893
-13.8022
2.49452
-13.9688
3.25503
-14.258
3.97154
-13.4412
4.58534
-11.5393
5.09891
-9.69797
5.52616
-8.10667
5.8614
-6.40168
6.11989
-4.98018
6.32258
-3.94904
6.4792
-3.09278
6.60081
-2.44778
6.6965
-1.99418
6.77469
-1.64756
6.83784
-1.401
6.89307
-1.23687
6.94149
-1.13438
6.98713
-1.07925
7.03114
-1.07027
7.07747
-1.10436
7.12372
-1.11495
-1.02805
-0.34063
-11.4989
0.280162
-11.663
1.07625
-14.9251
1.8535
-14.5795
2.63995
-14.7552
3.44272
-15.0608
4.19842
-14.1969
4.8462
-12.187
5.3878
-10.2396
5.83855
-8.55741
6.19227
-6.7554
6.46506
-5.25297
6.67794
-4.16191
6.8424
-3.25724
6.97016
-2.57554
7.07372
-2.09773
7.15513
-1.72897
7.22311
-1.46898
7.28004
-1.29379
7.33069
-1.18503
7.37858
-1.12714
7.42615
-1.11784
7.47489
-1.1531
7.52367
-1.16372
-1.07329
-0.244848
-11.9386
0.21203
-12.1198
0.8412
-15.5543
1.54011
-15.2784
2.38619
-15.6013
3.47749
-16.1521
4.84544
-15.5649
6.22037
-13.562
6.11913
-10.1383
5.98878
-8.42707
5.88093
-6.64756
5.79644
-5.16848
5.73105
-4.09652
5.68233
-3.20852
5.6444
-2.53761
5.61564
-2.06898
5.59271
-1.70604
5.57605
-1.45231
5.56182
-1.27957
5.54985
-1.17306
5.53848
-1.11577
5.53002
-1.10939
5.52429
-1.14738
5.52135
-1.16078
-1.07393
-0.264783
-12.4227
0.238088
-12.6227
0.9305
-16.2467
1.69973
-16.0476
2.63139
-16.533
3.83352
-17.3542
5.34126
-17.0726
6.85644
-15.0771
6.74219
-10.0241
6.59718
-8.28206
6.47749
-6.52787
6.38242
-5.07341
6.3101
-4.0242
6.25436
-3.15278
6.21483
-2.49808
6.18256
-2.03671
6.15816
-1.68164
6.13708
-1.43124
6.12079
-1.26328
6.10789
-1.16016
6.09681
-1.10468
6.08737
-1.09995
6.08084
-1.14084
6.07725
-1.15719
-1.07645
-0.28656
-12.955
0.266649
-13.1759
1.02888
-17.0089
1.87612
-16.8949
2.902
-17.5588
4.22625
-18.6785
5.88723
-18.7336
7.55646
-16.7464
7.4263
-9.89392
7.2662
-8.12196
7.131
-6.39267
7.02761
-4.97003
6.94759
-3.94417
6.88655
-3.09174
6.84067
-2.4522
6.80514
-2.00118
6.7782
-1.6547
6.75677
-1.4098
6.73855
-1.24506
6.7236
-1.14521
6.71167
-1.09276
6.70016
-1.08843
6.69173
-1.13242
6.68892
-1.15438
-1.0785
-0.309569
-13.5407
0.299092
-13.7846
1.13796
-17.8478
2.07035
-17.8272
3.20012
-18.6886
4.65864
-20.137
6.48848
-20.5634
8.32843
-18.5863
8.18253
-9.74802
8.00236
-7.94179
7.85401
-6.24432
7.73801
-4.85402
7.64837
-3.85454
7.5812
-3.02457
7.52934
-2.40034
7.49086
-1.96269
7.46036
-1.6242
7.43748
-1.38692
7.41757
-1.22515
7.40071
-1.12835
7.38554
-1.07759
7.37596
-1.07885
7.36704
-1.1235
7.3627
-1.15004
-1.08025
-0.334615
-14.1848
0.335247
-14.4544
1.25824
-18.7708
2.28506
-18.8541
3.5287
-19.9322
5.13498
-21.7433
7.14997
-22.5784
9.1751
-20.6114
9.01216
-9.58508
8.81274
-7.74237
8.64856
-6.08014
8.52084
-4.7263
8.41972
-3.75342
8.3457
-2.95054
8.28953
-2.34417
8.24714
-1.9203
8.21337
-1.59043
8.18549
-1.35904
8.16401
-1.20367
8.14549
-1.10983
8.12983
-1.06192
8.11724
-1.06626
8.10682
-1.11308
8.1037
-1.14692
-1.08063
-0.36117
-14.8935
0.3754
-15.191
1.39151
-19.7869
2.52142
-19.984
3.8907
-21.3015
5.65948
-23.512
7.87946
-24.7984
10.1095
-22.8415
9.92621
-9.40179
9.70412
-7.52028
9.52179
-5.89782
9.37954
-4.58404
9.27024
-3.64413
9.18738
-2.86768
9.12483
-2.28163
9.07639
-1.87187
9.03966
-1.5537
9.0108
-1.33018
8.98683
-1.1797
8.9655
-1.08851
8.94956
-1.04597
8.93292
-1.04962
8.92372
-1.10388
8.91823
-1.14143
-1.08248
-0.390263
-15.673
0.420552
-16.0018
1.53858
-20.905
2.78212
-21.2275
4.28943
-22.8088
6.23649
-25.4591
8.68025
-27.2422
11.1343
-25.2955
10.9311
-9.19855
10.6861
-7.27527
10.4834
-5.69512
10.3264
-4.42712
10.2047
-3.52242
10.1124
-2.77537
10.0452
-2.21443
9.99112
-1.81777
9.95046
-1.51303
9.91716
-1.29689
9.88956
-1.1521
9.86829
-1.06724
9.84841
-1.02609
9.833
-1.03422
9.82147
-1.09234
9.81513
-1.1351
-1.08472
-0.421188
-16.5303
0.47063
-16.8936
1.70077
-22.1351
3.06927
-22.596
4.72802
-24.4676
6.87179
-27.6029
9.56095
-29.9313
12.2608
-27.9954
12.037
-8.97475
11.7655
-7.00376
11.5416
-5.47121
11.3675
-4.25298
11.2331
-3.388
11.1333
-2.67561
11.0557
-2.13679
10.9988
-1.76093
10.952
-1.46618
10.9157
-1.26058
10.8873
-1.12369
10.8611
-1.04104
10.84
-1.00506
10.8222
-1.01642
10.8085
-1.07865
10.8028
-1.1294
10.8044
-1.08627
-1.00049
-0.4546
-17.4735
0.526316
-17.8746
1.8797
-23.4885
3.38555
-24.1019
5.21093
-26.293
7.57038
-29.9623
10.5275
-32.8885
13.5009
-30.9689
13.2535
-8.72727
12.9536
-6.70391
12.7077
-5.22532
12.5136
-4.05883
12.3658
-3.24026
12.2528
-2.56258
12.1691
-2.05309
12.1037
-1.69554
12.055
-1.41742
12.0147
-1.22034
11.9805
-1.08951
11.9521
-1.01263
11.9287
-0.981679
11.9086
-0.996311
11.8942
-1.06418
11.8854
-1.12065
11.8877
-1.08858
-1.01062
-0.490426
-18.5108
0.588612
-18.9536
2.07735
-24.9772
3.73371
-25.7582
5.74182
-28.3011
8.33613
-32.5566
11.5907
-36.143
14.8598
-34.238
14.5915
-8.45895
14.2605
-6.3729
13.9887
-4.95356
13.7757
-3.84582
13.61
-3.07453
13.4849
-2.43752
13.3911
-1.95926
13.3196
-1.62403
13.2627
-1.36054
13.2176
-1.17523
13.182
-1.05389
13.1505
-0.981149
13.1238
-0.955007
13.1029
-0.975444
13.0854
-1.04662
13.0763
-1.1116
13.077
-1.08929
-1.02025
-0.529153
-19.6517
0.657848
-20.1406
2.29515
-26.6145
4.11683
-27.5799
6.32511
-30.5094
9.17777
-35.4093
12.7555
-39.7208
16.3536
-37.8361
16.0618
-8.16712
15.6995
-6.01059
15.398
-4.65201
15.1624
-3.61028
14.9779
-2.88998
14.8396
-2.29925
14.7351
-1.85474
14.6535
-1.54247
14.5904
-1.29746
14.5412
-1.12595
14.4986
-1.01137
14.4655
-0.947974
14.4361
-0.925601
14.4102
-0.949579
14.3916
-1.02804
14.3827
-1.10265
14.3818
-1.08839
-1.03176
-0.570277
-20.9062
0.73459
-21.4455
2.53493
-28.4148
4.53748
-29.5825
6.9656
-32.9375
10.1022
-38.5459
14.0342
-43.6527
17.9957
-41.7976
17.68
-7.85144
17.2849
-5.61547
16.9494
-4.3165
16.685
-3.34583
16.4795
-2.6845
16.3278
-2.14758
16.2131
-1.74007
16.1259
-1.45521
16.0594
-1.23097
16.0035
-1.07011
15.9592
-0.967049
15.9192
-0.907937
15.886
-0.89239
15.8576
-0.921236
15.8367
-1.00713
15.8265
-1.09248
15.8307
-1.09252
-1.04574
-0.613778
0.820822
2.79891
4.99922
7.66538
11.11
15.4348
19.7871
19.4572
19.0313
18.6688
18.3804
18.1529
17.978
17.8479
17.7488
17.6737
17.6179
17.5729
17.5386
17.509
17.4863
17.4668
17.4542
17.4533
)
;

boundaryField
{
    inlet
    {
        type            calculated;
        value           nonuniform List<scalar> 
26
(
-22.2858
-22.8801
-30.3929
-31.7828
-35.6036
-41.9905
-47.9776
-46.1499
-7.52157
-5.18955
-3.95399
-3.05747
-2.45696
-1.97269
-1.60994
-1.3561
-1.15589
-1.01435
-0.922056
-0.873564
-0.862834
-0.898527
-0.987597
-1.07996
-1.0916
-1.05809
)
;
    }
    outlet
    {
        type            calculated;
        value           nonuniform List<scalar> 0();
    }
    walls
    {
        type            calculated;
        value           nonuniform List<scalar> 0();
    }
    frontAndBack
    {
        type            empty;
    }
    procBoundary0to1
    {
        type            processor;
        value           nonuniform List<scalar> 
94
(
0.287835
-0.0519697
0.337635
-0.00462257
0.390844
0.0479514
0.421093
0.102958
0.419054
0.156812
0.40667
0.20906
0.227929
0.421609
0.281273
0.303749
0.413955
0.356993
0.383351
0.411131
0.424457
0.467349
0.499501
0.40899
0.55724
0.594141
0.633139
0.410634
0.695782
0.740206
0.787099
0.411431
0.856229
0.909318
0.398723
0.982952
1.04291
1.10619
0.405319
1.1895
1.26068
1.33586
0.4168
1.43112
1.51573
1.60499
0.434858
1.71499
1.81503
1.92099
0.461952
2.04886
2.1676
2.29307
0.499645
2.44274
2.58348
2.73202
2.88871
0.574413
3.07506
3.25093
3.43669
3.63267
0.682254
3.86579
4.08581
4.31776
4.56271
4.82135
0.833267
5.12828
5.41784
5.72369
6.04617
6.38663
6.746
0.985346
7.16642
7.56891
5.52199
6.07977
6.69096
7.36445
8.10408
8.92008
9.81737
0.990901
10.814
11.8979
13.0867
14.3933
15.8447
17.4657
)
;
    }
    procBoundary0to4
    {
        type            processor;
        value           nonuniform List<scalar> 
72
(
0.219259
0.221541
0.224361
0.227584
0.231279
0.235443
0.240022
0.244872
0.250224
0.255933
0.262019
0.268501
0.275395
0.282679
0.290412
0.298608
0.307208
0.316269
0.325885
0.335956
0.34659
0.357774
-1.43956
0.272786
0.27993
0.287436
0.295369
0.303636
0.312357
0.32156
0.331181
0.341304
0.351954
0.363149
0.374937
0.387311
0.400343
0.41407
0.428485
0.443675
0.459699
0.476523
0.494251
0.512967
0.532634
0.553395
0.575274
0.598333
0.622645
0.648291
0.675322
0.703891
0.733969
0.76568
0.799281
0.834593
0.871934
0.911401
0.952962
0.684644
0.748873
0.818832
0.89524
0.978718
1.06989
1.16972
1.27854
1.39774
1.52775
1.67003
1.82477
1.99343
)
;
    }
    procBoundary0to5
    {
        type            processor;
        value           nonuniform List<scalar> 4(0.215096 0.217952 0.229298 0.281379);
    }
}


// ************************************************************************* //
