/*--------------------------------*- C++ -*----------------------------------*\
| =========                 |                                                 |
| \\      /  F ield         | OpenFOAM: The Open Source CFD Toolbox           |
|  \\    /   O peration     | Version:  2506                                  |
|   \\  /    A nd           | Website:  www.openfoam.com                      |
|    \\/     M anipulation  |                                                 |
\*---------------------------------------------------------------------------*/
FoamFile
{
    version     2.0;
    format      ascii;
    arch        "LSB;label=32;scalar=64";
    class       volSymmTensorField;
    location    "350";
    object      turbulenceProperties:R;
}
// * * * * * * * * * * * * * * * * * * * * * * * * * * * * * * * * * * * * * //

dimensions      [0 2 -2 0 0 0 0];

internalField   nonuniform List<symmTensor> 
1340
(
(0.000371797 -2.99076e-05 -1.1414e-21 0.000308224 -4.42077e-22 0.000339972)
(0.000371607 -2.43268e-05 8.56618e-21 0.000300376 8.52362e-21 0.000336043)
(0.00037 -1.84034e-05 1.8821e-20 0.000293244 1.07367e-20 0.000331602)
(0.000366444 -1.11985e-05 -2.99955e-20 0.000285781 -3.3332e-20 0.000326192)
(0.000359751 -3.24536e-06 -4.22022e-20 0.000278146 -3.58144e-20 0.000318937)
(0.000315389 -2.56794e-05 3.9493e-21 0.000261961 3.48384e-21 0.00028865)
(0.000315031 -2.10307e-05 1.12847e-20 0.000255133 5.9917e-21 0.000285119)
(0.000313618 -1.60844e-05 -2.64433e-20 0.000248973 -1.86469e-20 0.000281281)
(0.000310725 -1.00775e-05 3.81275e-21 0.000242622 6.81147e-21 0.000276739)
(0.000305246 -3.41866e-06 3.99084e-20 0.000236112 1.58321e-20 0.000270663)
(0.00029742 3.42001e-06 -2.96631e-20 0.000230069 -3.52768e-20 0.000263717)
(0.000269338 -2.22025e-05 -2.01878e-21 0.000224162 -1.87224e-21 0.000246729)
(0.000268885 -1.82984e-05 -8.44887e-21 0.000218191 -5.62461e-21 0.000243561)
(0.000267619 -1.41322e-05 -1.19354e-21 0.000212815 1.7896e-22 0.000240205)
(0.000265242 -9.079e-06 1.56566e-20 0.000207365 1.02955e-20 0.000236357)
(0.000260729 -3.45485e-06 -9.44632e-21 0.000201781 -7.60624e-22 0.000231235)
(0.000254387 2.33811e-06 3.45555e-20 0.000196687 2.6737e-20 0.000225513)
(0.000246211 8.0074e-06 5.75992e-20 0.000192264 2.54058e-20 0.00021922)
(0.000231286 -1.93064e-05 2.64581e-21 0.000192899 1.86307e-21 0.000212077)
(0.000230807 -1.60039e-05 3.72481e-21 0.000187668 2.60254e-21 0.000209252)
(0.000229679 -1.24721e-05 9.91432e-21 0.000182959 3.39712e-21 0.000206308)
(0.000227705 -8.18849e-06 -2.70639e-20 0.000178243 -1.83929e-20 0.000203019)
(0.000223977 -3.40526e-06 -1.343e-20 0.000173437 -9.87617e-21 0.000198685)
(0.000218796 1.53823e-06 -3.35951e-20 0.00016911 -2.08481e-20 0.000193934)
(0.000212199 6.41169e-06 -4.12552e-20 0.000165458 -1.13067e-20 0.000188818)
(0.000204125 1.08984e-05 3.47457e-20 0.000162435 6.63035e-21 0.000183288)
(0.000199591 -1.68728e-05 2.86453e-21 0.00016683 1.4862e-21 0.000183197)
(0.000199102 -1.40588e-05 6.0603e-22 0.000162217 3.87686e-23 0.000180671)
(0.000198108 -1.10488e-05 -8.09292e-21 0.000158087 -2.32495e-21 0.000178087)
(0.000196447 -7.3926e-06 2.49431e-20 0.000153972 1.66804e-20 0.000175246)
(0.000193356 -3.29941e-06 4.61974e-20 0.000149817 2.10117e-20 0.000171564)
(0.000189098 9.45331e-07 1.04242e-21 0.000146121 5.19418e-21 0.000167593)
(0.000183706 5.15504e-06 8.79251e-20 0.000143058 3.67531e-20 0.000163378)
(0.000177075 9.06275e-06 -2.5684e-20 0.000140562 -2.49674e-20 0.000158826)
(0.000169404 1.22653e-05 -4.34454e-20 0.000138438 -1.33445e-20 0.00015392)
(0.000172977 -1.48081e-05 2.71337e-21 0.000144912 1.27356e-21 0.000158934)
(0.000172492 -1.23992e-05 -4.86535e-21 0.000140829 -2.86245e-21 0.000156667)
(0.00017162 -9.81689e-06 -1.91342e-21 0.00013719 -1.3065e-21 0.000154397)
(0.000170216 -6.683e-06 -3.52732e-21 0.000133586 1.31813e-21 0.000151931)
(0.000167634 -3.15953e-06 3.49936e-20 0.000129972 1.33245e-20 0.000148782)
(0.000164115 5.03353e-07 -3.81792e-20 0.000126796 -1.91574e-20 0.000145443)
(0.000159662 4.15883e-06 4.00738e-21 0.000124195 3.0086e-21 0.000141928)
(0.000154174 7.57254e-06 1.54888e-20 0.000122114 -1.85824e-21 0.000138151)
(0.000147849 1.04002e-05 -1.10537e-19 0.000120418 -3.09535e-20 0.000134132)
(0.000141065 1.25024e-05 2.65369e-20 0.00011897 1.50975e-20 0.000130012)
(0.000150472 -1.30425e-05 -3.94449e-21 0.000126349 -1.50058e-21 0.000138403)
(0.00015001 -1.09732e-05 3.27651e-21 0.000122735 2.80825e-21 0.000136376)
(0.000149237 -8.74703e-06 2.20367e-20 0.00011951 1.12749e-20 0.000134366)
(0.000148047 -6.04548e-06 6.23194e-21 0.000116341 1.39395e-22 0.00013222)
(0.00014588 -2.99925e-06 -2.64626e-20 0.000113183 -1.06723e-20 0.000129512)
(0.000142956 1.75949e-07 2.46656e-20 0.000110441 1.25226e-20 0.000126688)
(0.000139244 3.36217e-06 -6.69517e-21 0.000108208 -1.80215e-21 0.000123728)
(0.000134667 6.35374e-06 6.15856e-20 0.000106453 2.30151e-20 0.000120566)
(0.000129415 8.85531e-06 2.02205e-20 0.000105087 9.31937e-21 0.00011725)
(0.000123798 1.0743e-05 -1.2197e-20 0.000103982 -4.63152e-21 0.000113885)
(0.000131326 -1.15239e-05 4.04414e-22 0.000110532 -7.12929e-23 0.000120923)
(0.0001309 -9.73877e-06 -9.99879e-22 0.000107329 -1.34526e-21 0.000119116)
(0.000130215 -7.81339e-06 -1.88161e-20 0.000104466 -1.06878e-20 0.000117334)
(0.000129196 -5.47418e-06 -3.06954e-20 0.000101663 -1.57048e-20 0.000115451)
(0.000127369 -2.82858e-06 -3.77868e-20 9.88923e-05 -1.05714e-20 0.000113114)
(0.000124928 -6.57122e-08 5.46641e-20 9.65116e-05 2.01685e-20 0.000110711)
(0.000121809 2.72104e-06 -5.03779e-20 9.45778e-05 -2.11743e-20 0.000108197)
(0.000117965 5.35024e-06 1.21202e-20 9.30843e-05 9.84545e-21 0.00010553)
(0.000113577 7.56687e-06 3.02599e-20 9.19739e-05 9.44302e-21 0.000102774)
(0.000108895 9.26072e-06 2.10225e-20 9.11264e-05 7.98592e-21 0.000100007)
(0.000104036 1.04428e-05 1.9875e-20 9.03906e-05 5.56588e-21 9.7213e-05)
(0.000114952 -1.02109e-05 5.03619e-21 9.69846e-05 2.78285e-21 0.000105964)
(0.000114562 -8.66478e-06 7.78972e-21 9.41362e-05 4.23608e-21 0.00010435)
(0.000113957 -6.99391e-06 2.15838e-20 9.15897e-05 8.80312e-21 0.000102768)
(0.000113079 -4.96078e-06 -4.8701e-21 8.91019e-05 -2.32993e-21 0.000101108)
(0.000111532 -2.65445e-06 1.83105e-20 8.66608e-05 3.93932e-21 9.90823e-05)
(0.000109484 -2.4213e-07 -5.97358e-20 8.45848e-05 -2.0967e-20 9.7027e-05)
(0.000106844 2.20287e-06 5.15476e-20 8.28965e-05 2.78678e-20 9.48738e-05)
(0.000103597 4.51949e-06 6.98296e-20 8.1615e-05 1.74584e-20 9.26109e-05)
(9.9908e-05 6.48598e-06 -4.3155e-21 8.07024e-05 -6.42935e-21 9.03041e-05)
(9.59777e-05 8.00596e-06 2.94467e-20 8.00472e-05 -3.31727e-22 8.80091e-05)
(9.19081e-05 9.08638e-06 2.09019e-20 7.95155e-05 4.66657e-21 8.57113e-05)
(0.000100881 -9.06943e-06 -6.02297e-21 8.53225e-05 -2.51945e-21 9.30983e-05)
(0.000100526 -7.72636e-06 7.1563e-21 8.27843e-05 2.56622e-21 9.16549e-05)
(9.99908e-05 -6.27134e-06 -1.91608e-20 8.05134e-05 -9.30712e-21 9.02469e-05)
(9.92322e-05 -4.49875e-06 -1.56523e-20 7.8299e-05 -5.91643e-21 8.87799e-05)
(9.79192e-05 -2.48237e-06 -4.16744e-21 7.61427e-05 2.19991e-21 8.7019e-05)
(9.61863e-05 -3.6871e-07 6.21049e-20 7.4319e-05 2.24032e-20 8.52475e-05)
(9.39429e-05 1.78121e-06 -7.31373e-21 7.28387e-05 -8.96525e-21 8.33939e-05)
(9.11843e-05 3.8277e-06 -4.95975e-20 7.17302e-05 -2.25815e-20 8.14612e-05)
(8.8065e-05 5.57543e-06 -4.12521e-20 7.09732e-05 -1.59196e-20 7.95183e-05)
(8.47459e-05 6.93814e-06 -1.40616e-19 7.04608e-05 -3.23004e-20 7.76006e-05)
(8.13177e-05 7.9226e-06 1.9154e-20 7.00792e-05 1.14766e-20 7.56983e-05)
(7.78758e-05 8.5426e-06 7.68952e-20 6.97092e-05 1.21047e-20 7.37912e-05)
(8.87365e-05 -8.07226e-06 3.78257e-21 7.52378e-05 1.65464e-21 8.19845e-05)
(8.84145e-05 -6.90283e-06 1.32831e-21 7.2973e-05 1.22053e-21 8.06932e-05)
(8.79408e-05 -5.63223e-06 2.28137e-20 7.09432e-05 1.02017e-20 7.94372e-05)
(8.72846e-05 -4.0825e-06 3.55983e-20 6.89682e-05 1.26323e-20 7.81382e-05)
(8.61683e-05 -2.31463e-06 -1.30511e-20 6.70593e-05 -8.58874e-21 7.66034e-05)
(8.46892e-05 -4.57145e-07 -5.20459e-20 6.54453e-05 -1.85382e-20 7.50636e-05)
(8.27744e-05 1.43754e-06 8.44015e-21 6.41417e-05 1.38931e-21 7.34612e-05)
(8.04211e-05 3.24847e-06 -5.87561e-20 6.31773e-05 -1.54594e-20 7.18027e-05)
(7.77665e-05 4.80377e-06 2.79636e-20 6.25404e-05 1.66742e-20 7.01529e-05)
(7.49479e-05 6.02599e-06 6.11712e-20 6.21361e-05 2.16173e-20 6.85398e-05)
(7.20426e-05 6.9209e-06 -3.65415e-20 6.18635e-05 -1.18322e-20 6.69526e-05)
(6.91328e-05 7.49961e-06 -5.43214e-20 6.16181e-05 -1.60847e-20 6.53737e-05)
(7.82134e-05 -7.19806e-06 -4.33912e-21 6.64835e-05 -1.18798e-21 7.23465e-05)
(7.79241e-05 -6.17747e-06 1.3777e-20 6.44599e-05 5.42042e-21 7.11911e-05)
(7.75043e-05 -5.0651e-06 -7.19603e-21 6.26421e-05 -3.30466e-21 7.00689e-05)
(7.69362e-05 -3.70715e-06 -5.55223e-21 6.08781e-05 -2.34692e-21 6.89169e-05)
(7.5984e-05 -2.15324e-06 -1.23436e-20 5.91829e-05 -5.91367e-21 6.75747e-05)
(7.47149e-05 -5.17106e-07 -3.77447e-20 5.77485e-05 -1.22562e-20 6.62288e-05)
(7.30716e-05 1.15659e-06 -2.26951e-20 5.65939e-05 -8.17636e-21 6.48356e-05)
(7.10555e-05 2.76234e-06 -2.19676e-21 5.57501e-05 4.01858e-21 6.34057e-05)
(6.87864e-05 4.14825e-06 2.59742e-20 5.52101e-05 1.32952e-20 6.19973e-05)
(6.63801e-05 5.24447e-06 2.71028e-20 5.48869e-05 6.87479e-21 6.06314e-05)
(6.39045e-05 6.05593e-06 6.04274e-20 5.46923e-05 7.99651e-21 5.92983e-05)
(6.14295e-05 6.59205e-06 -1.25934e-20 5.45332e-05 -6.70288e-21 5.79802e-05)
(6.90642e-05 -6.42888e-06 -3.29065e-21 5.88571e-05 -1.73523e-21 6.39595e-05)
(6.88073e-05 -5.53677e-06 -2.01313e-20 5.70485e-05 -7.71948e-21 6.29265e-05)
(6.84329e-05 -4.56062e-06 -1.26105e-20 5.54161e-05 -4.71417e-21 6.19209e-05)
(6.79403e-05 -3.36813e-06 -1.07555e-20 5.38376e-05 -3.83405e-21 6.08973e-05)
(6.71256e-05 -1.99921e-06 -8.23982e-21 5.23284e-05 -1.59353e-21 5.97195e-05)
(6.60322e-05 -5.55082e-07 2.37574e-20 5.10494e-05 4.47715e-21 5.85389e-05)
(6.46169e-05 9.2601e-07 -1.06251e-19 5.0023e-05 -3.22653e-20 5.73226e-05)
(6.28825e-05 2.35211e-06 7.33816e-21 4.92802e-05 1.42822e-20 5.6084e-05)
(6.09331e-05 3.58821e-06 1.40685e-19 4.88164e-05 3.54989e-20 5.48743e-05)
(5.88681e-05 4.57172e-06 4.18136e-20 4.85542e-05 8.80936e-22 5.37094e-05)
(5.67458e-05 5.3069e-06 -1.05955e-19 4.84147e-05 -3.13837e-20 5.25799e-05)
(5.46314e-05 5.80138e-06 -7.9599e-20 4.83185e-05 -1.13833e-20 5.14736e-05)
(5.25709e-05 6.08317e-06 1.55625e-20 4.81967e-05 9.06951e-21 5.03819e-05)
(6.10851e-05 -5.75023e-06 3.62127e-21 5.21929e-05 1.1904e-21 5.66382e-05)
(6.08581e-05 -4.96869e-06 -5.77854e-21 5.05742e-05 -1.54581e-21 5.57147e-05)
(6.05252e-05 -4.11096e-06 2.17413e-20 4.91078e-05 6.15224e-21 5.4813e-05)
(6.00967e-05 -3.06139e-06 -5.48729e-20 4.76922e-05 -2.0825e-20 5.39015e-05)
(5.93969e-05 -1.8531e-06 -4.16085e-20 4.63446e-05 -1.2442e-20 5.28643e-05)
(5.84512e-05 -5.76026e-07 -2.19694e-20 4.52007e-05 -3.748e-21 5.18246e-05)
(5.72284e-05 7.36836e-07 5.0279e-20 4.42856e-05 2.17766e-20 5.07594e-05)
(5.57293e-05 2.00531e-06 6.54021e-20 4.36273e-05 1.1221e-20 4.96803e-05)
(5.40478e-05 3.10896e-06 -6.92842e-20 4.32255e-05 -2.27355e-20 4.86361e-05)
(5.22675e-05 3.99146e-06 5.63605e-20 4.30092e-05 1.35285e-20 4.7637e-05)
(5.04404e-05 4.65645e-06 5.51356e-21 4.29087e-05 6.27416e-21 4.66744e-05)
(4.86231e-05 5.11028e-06 -1.99804e-20 4.28532e-05 3.3915e-21 4.57371e-05)
(4.68575e-05 5.37769e-06 6.75411e-20 4.27836e-05 1.56691e-20 4.4819e-05)
(5.41078e-05 -5.14981e-06 -3.71079e-21 4.63536e-05 -1.54763e-21 5.023e-05)
(5.39061e-05 -4.46377e-06 -8.00075e-21 4.49012e-05 -2.33725e-21 4.94023e-05)
(5.36129e-05 -3.70926e-06 1.4983e-20 4.3585e-05 6.23396e-21 4.85958e-05)
(5.32386e-05 -2.7838e-06 2.74573e-20 4.23128e-05 1.0051e-20 4.77816e-05)
(5.26362e-05 -1.71519e-06 4.3783e-20 4.1107e-05 1.49284e-20 4.68661e-05)
(5.18157e-05 -5.84352e-07 2.9356e-20 4.00817e-05 1.10218e-20 4.59477e-05)
(5.07552e-05 5.81359e-07 8.67518e-20 3.92628e-05 1.88978e-20 4.50112e-05)
(4.94553e-05 1.71065e-06 -1.30038e-19 3.86765e-05 -3.65451e-20 4.40679e-05)
(4.79977e-05 2.69699e-06 1.14538e-20 3.83239e-05 5.89081e-21 4.31603e-05)
(4.64556e-05 3.48947e-06 -2.45144e-20 3.81422e-05 -3.83696e-21 4.22976e-05)
(4.48748e-05 4.09052e-06 5.00731e-20 3.80687e-05 1.09497e-20 4.14714e-05)
(4.33068e-05 4.50597e-06 1.85367e-20 3.80419e-05 2.43066e-21 4.06731e-05)
(4.17874e-05 4.75721e-06 3.7626e-20 3.80076e-05 -3.47446e-23 3.9896e-05)
(4.03154e-05 4.8766e-06 1.73104e-20 3.7935e-05 -1.52834e-22 3.91244e-05)
(4.79907e-05 -4.61704e-06 3.66919e-21 4.12228e-05 1.50957e-21 4.46063e-05)
(4.78119e-05 -4.01428e-06 1.26285e-20 3.9919e-05 3.54371e-21 4.38641e-05)
(4.75538e-05 -3.34933e-06 -2.89373e-20 3.8736e-05 -9.3226e-21 4.31422e-05)
(4.72262e-05 -2.53222e-06 1.10726e-20 3.75912e-05 5.20705e-21 4.24138e-05)
(4.67067e-05 -1.58598e-06 3.58127e-20 3.65108e-05 1.01658e-20 4.16041e-05)
(4.59932e-05 -5.83203e-07 -8.90754e-21 3.55899e-05 -5.27736e-21 4.07909e-05)
(4.50698e-05 4.53419e-07 -4.69112e-20 3.48543e-05 -1.08362e-20 3.99641e-05)
(4.39397e-05 1.46037e-06 1.0275e-19 3.43306e-05 2.76886e-20 3.91365e-05)
(4.2672e-05 2.34265e-06 -8.63768e-20 3.40189e-05 -2.26897e-20 3.8345e-05)
(4.13307e-05 3.05399e-06 7.05264e-20 3.38628e-05 1.88635e-20 3.75957e-05)
(3.99576e-05 3.5969e-06 -2.66587e-20 3.38077e-05 -1.22986e-20 3.68825e-05)
(3.8598e-05 3.97618e-06 -2.95451e-20 3.37984e-05 -5.60246e-21 3.61972e-05)
(3.72831e-05 4.21051e-06 -6.47683e-20 3.37864e-05 -1.11051e-20 3.55335e-05)
(3.60127e-05 4.32874e-06 6.7158e-21 3.37444e-05 2.10128e-21 3.48777e-05)
(4.26148e-05 -4.14323e-06 -2.01881e-23 3.67037e-05 -1.01087e-23 3.96591e-05)
(4.24581e-05 -3.61331e-06 3.26109e-21 3.55336e-05 7.09469e-22 3.89946e-05)
(4.22304e-05 -3.0266e-06 -1.74273e-20 3.44691e-05 -4.92333e-21 3.83472e-05)
(4.1943e-05 -2.30392e-06 3.18142e-20 3.34372e-05 9.25082e-21 3.76945e-05)
(4.14947e-05 -1.46502e-06 -4.12256e-20 3.24679e-05 -1.17021e-20 3.69774e-05)
(4.08728e-05 -5.74643e-07 5.20015e-20 3.16396e-05 1.68414e-20 3.62557e-05)
(4.00664e-05 3.48136e-07 4.81922e-20 3.0977e-05 1.05329e-20 3.55237e-05)
(3.90812e-05 1.24671e-06 -4.61363e-20 3.05074e-05 -1.48399e-20 3.47957e-05)
(3.79744e-05 2.03646e-06 -5.91129e-21 3.02291e-05 2.91833e-21 3.41013e-05)
(3.68038e-05 2.67549e-06 6.56543e-21 3.00929e-05 -5.27969e-21 3.34474e-05)
(3.56061e-05 3.16573e-06 -3.42814e-20 3.00498e-05 -5.59243e-21 3.28277e-05)
(3.44225e-05 3.51131e-06 4.41521e-20 3.00514e-05 1.00411e-20 3.2236e-05)
(3.32802e-05 3.72862e-06 2.78703e-20 3.00533e-05 9.96978e-21 3.16656e-05)
(3.21798e-05 3.84352e-06 3.86834e-21 3.00318e-05 -4.49431e-21 3.11049e-05)
(3.78811e-05 -3.72122e-06 -6.45621e-22 3.27156e-05 -2.6409e-22 3.52984e-05)
(3.77447e-05 -3.25481e-06 2.78132e-21 3.16651e-05 8.11954e-22 3.47036e-05)
(3.75444e-05 -2.73664e-06 -1.04268e-21 3.07067e-05 -8.58033e-22 3.41233e-05)
(3.72918e-05 -2.0968e-06 -1.83655e-20 2.97758e-05 -6.62586e-21 3.35376e-05)
(3.6904e-05 -1.35216e-06 -4.36525e-20 2.89047e-05 -1.28277e-20 3.29011e-05)
(3.6361e-05 -5.60612e-07 -3.03683e-20 2.81586e-05 -8.98917e-21 3.22594e-05)
(3.56549e-05 2.61656e-07 -5.18656e-20 2.75604e-05 -1.42718e-20 3.16094e-05)
(3.47935e-05 1.06452e-06 2.05742e-20 2.71377e-05 6.58063e-21 3.09668e-05)
(3.38252e-05 1.77175e-06 1.01199e-20 2.6888e-05 9.74537e-22 3.03562e-05)
(3.28e-05 2.34591e-06 -1.05994e-19 2.67672e-05 -2.0511e-20 2.97828e-05)
(3.17515e-05 2.78835e-06 -2.02137e-20 2.67315e-05 9.54743e-22 2.92413e-05)
(3.07166e-05 3.10268e-06 -4.35017e-20 2.6738e-05 -8.26359e-21 2.87265e-05)
(2.97204e-05 3.30334e-06 7.63677e-20 2.67479e-05 1.05435e-20 2.82332e-05)
(2.87635e-05 3.41346e-06 -7.90204e-20 2.67392e-05 -1.22755e-20 2.77507e-05)
(2.78375e-05 3.45135e-06 -3.22143e-20 2.66963e-05 -3.24472e-21 2.72666e-05)
(3.37059e-05 -3.3447e-06 3.83292e-21 2.91899e-05 1.43871e-21 3.14479e-05)
(3.35866e-05 -2.93375e-06 1.328e-20 2.82453e-05 4.32433e-21 3.09147e-05)
(3.34111e-05 -2.47572e-06 2.38594e-20 2.73825e-05 7.37857e-21 3.03947e-05)
(3.31896e-05 -1.90865e-06 2.37301e-20 2.65424e-05 7.25465e-21 2.98693e-05)
(3.28534e-05 -1.24707e-06 3.678e-20 2.57585e-05 1.06047e-20 2.93031e-05)
(3.23786e-05 -5.426e-07 3.59093e-20 2.50856e-05 6.98005e-21 2.87317e-05)
(3.17598e-05 1.9071e-07 -9.13605e-20 2.45453e-05 -2.38554e-20 2.81541e-05)
(3.10043e-05 9.0853e-07 -4.53823e-20 2.41631e-05 -6.96444e-21 2.75847e-05)
(3.01546e-05 1.5424e-06 6.29413e-20 2.39377e-05 1.5549e-20 2.70457e-05)
(2.92541e-05 2.0584e-06 1.23975e-19 2.38287e-05 3.04705e-20 2.65407e-05)
(2.83331e-05 2.45761e-06 6.02908e-20 2.37974e-05 9.33757e-21 2.60651e-05)
(2.74252e-05 2.74316e-06 -1.08936e-20 2.38058e-05 -2.62124e-21 2.56147e-05)
(2.65528e-05 2.92783e-06 -2.49247e-20 2.38191e-05 -6.16564e-21 2.5185e-05)
(2.5717e-05 3.03221e-06 9.43045e-20 2.38176e-05 1.71332e-20 2.47666e-05)
(2.49111e-05 3.07307e-06 -1.65565e-20 2.37885e-05 -3.68716e-21 2.43495e-05)
(3.00162e-05 -3.0081e-06 3.1205e-21 2.60667e-05 8.23648e-22 2.80416e-05)
(2.99121e-05 -2.64581e-06 -2.62527e-21 2.52169e-05 -1.08422e-21 2.75634e-05)
(2.97593e-05 -2.24069e-06 -9.30504e-21 2.44405e-05 -2.86114e-21 2.70979e-05)
(2.95654e-05 -1.73775e-06 -9.03628e-21 2.36822e-05 -4.34902e-21 2.66267e-05)
(2.92727e-05 -1.14932e-06 -9.86676e-20 2.29752e-05 -2.68264e-20 2.61217e-05)
(2.88574e-05 -5.21962e-07 -1.83806e-20 2.23681e-05 -1.76491e-21 2.56125e-05)
(2.83147e-05 1.32697e-07 4.893e-20 2.18797e-05 1.43011e-20 2.50985e-05)
(2.76507e-05 7.74919e-07 4.27822e-20 2.15333e-05 8.76105e-21 2.45929e-05)
(2.69032e-05 1.34331e-06 -1.0184e-19 2.13287e-05 -2.22023e-20 2.41156e-05)
(2.61101e-05 1.8072e-06 1.59734e-20 2.12292e-05 -1.61652e-22 2.3669e-05)
(2.52991e-05 2.16743e-06 -9.73684e-21 2.12005e-05 -1.86293e-21 2.32496e-05)
(2.45004e-05 2.42652e-06 2.20051e-21 2.12086e-05 2.1764e-21 2.28538e-05)
(2.37338e-05 2.59593e-06 -2.93854e-20 2.12222e-05 -2.95859e-21 2.24773e-05)
(2.30014e-05 2.69419e-06 -5.49437e-20 2.12245e-05 -1.24642e-20 2.21123e-05)
(2.22969e-05 2.73631e-06 4.27552e-22 2.12037e-05 3.10944e-22 2.17499e-05)
(2.67507e-05 -2.70684e-06 -8.72957e-22 2.3296e-05 -1.88185e-22 2.50236e-05)
(2.66605e-05 -2.38732e-06 9.01271e-21 2.25315e-05 2.55644e-21 2.45949e-05)
(2.65275e-05 -2.02871e-06 8.56421e-21 2.18322e-05 2.2586e-21 2.41781e-05)
(2.63584e-05 -1.58233e-06 3.01994e-21 2.11479e-05 7.16349e-22 2.37556e-05)
(2.61031e-05 -1.05849e-06 1.24137e-20 2.05095e-05 5.52809e-21 2.33044e-05)
(2.57398e-05 -4.99391e-07 8.05818e-20 1.99616e-05 1.91924e-20 2.28504e-05)
(2.52631e-05 8.54798e-08 -4.68371e-20 1.95196e-05 -1.27821e-20 2.23926e-05)
(2.46788e-05 6.60385e-07 3.20525e-20 1.92054e-05 1.1898e-20 2.19428e-05)
(2.40197e-05 1.17034e-06 1.12305e-19 1.90187e-05 2.17107e-20 2.15189e-05)
(2.33198e-05 1.58748e-06 -8.39089e-20 1.8927e-05 -1.72981e-20 2.11229e-05)
(2.26036e-05 1.91238e-06 6.79428e-20 1.88993e-05 1.37827e-20 2.07513e-05)
(2.18986e-05 2.1474e-06 4.7594e-20 1.89057e-05 5.59739e-21 2.04015e-05)
(2.12237e-05 2.30252e-06 8.20839e-20 1.89185e-05 1.23757e-20 2.00703e-05)
(2.05799e-05 2.39445e-06 -8.30922e-21 1.89222e-05 -1.39744e-21 1.97506e-05)
(1.99624e-05 2.43664e-06 -3.43221e-20 1.89062e-05 -4.14131e-21 1.94339e-05)
(1.93665e-05 2.43923e-06 -4.0674e-20 1.88628e-05 -3.69635e-21 1.91142e-05)
(2.38572e-05 -2.4369e-06 9.9302e-22 2.08348e-05 -4.60499e-25 2.23462e-05)
(2.37791e-05 -2.15494e-06 -2.26051e-20 2.01466e-05 -5.89605e-21 2.19618e-05)
(2.36634e-05 -1.83734e-06 2.76745e-20 1.95165e-05 7.62526e-21 2.15884e-05)
(2.35163e-05 -1.44092e-06 -8.7901e-21 1.8899e-05 -1.64597e-21 2.12098e-05)
(2.32939e-05 -9.7434e-07 7.34199e-20 1.83225e-05 1.81945e-20 2.08067e-05)
(2.29757e-05 -4.7568e-07 -4.87966e-20 1.78276e-05 -1.34309e-20 2.04014e-05)
(2.25567e-05 4.71252e-08 7.68985e-21 1.74274e-05 4.64738e-21 1.99931e-05)
(2.2042e-05 5.62131e-07 1.18492e-19 1.7142e-05 2.14938e-20 1.95927e-05)
(2.146e-05 1.01989e-06 -1.35471e-19 1.69712e-05 -2.98604e-20 1.92153e-05)
(2.08409e-05 1.39512e-06 5.56502e-20 1.68861e-05 1.44369e-20 1.88631e-05)
(2.02072e-05 1.68817e-06 -8.49214e-20 1.68587e-05 -2.07578e-20 1.85328e-05)
(1.95841e-05 1.90117e-06 -1.06498e-19 1.6863e-05 -1.91814e-20 1.8223e-05)
(1.89875e-05 2.04285e-06 -5.50462e-20 1.6873e-05 -9.96743e-21 1.79297e-05)
(1.84197e-05 2.12844e-06 1.99204e-20 1.68763e-05 5.9873e-21 1.76476e-05)
(1.78773e-05 2.17003e-06 5.52154e-20 1.68638e-05 8.05505e-21 1.73702e-05)
(1.73554e-05 2.17669e-06 2.4738e-20 1.68277e-05 5.1119e-21 1.70912e-05)
(2.12224e-05 -1.94581e-06 -7.98754e-21 1.80258e-05 -2.29593e-21 1.96231e-05)
(2.11224e-05 -1.66446e-06 -9.02987e-21 1.74582e-05 -2.34825e-21 1.92889e-05)
(2.09944e-05 -1.31216e-06 -3.45388e-21 1.69007e-05 -1.65794e-21 1.89495e-05)
(2.08009e-05 -8.96353e-07 -5.35357e-20 1.638e-05 -1.21017e-20 1.85892e-05)
(2.05221e-05 -4.51352e-07 8.64596e-20 1.59328e-05 2.09577e-20 1.82272e-05)
(2.01538e-05 1.62447e-08 -3.56093e-20 1.55704e-05 -1.19268e-20 1.7863e-05)
(1.96999e-05 4.7785e-07 -1.53197e-19 1.53109e-05 -3.28571e-20 1.7506e-05)
(1.91855e-05 8.88817e-07 1.33364e-19 1.51545e-05 3.34213e-20 1.71697e-05)
(1.86372e-05 1.22646e-06 1.9052e-20 1.50751e-05 3.32794e-22 1.68558e-05)
(1.80755e-05 1.49079e-06 4.13298e-20 1.50478e-05 1.34627e-20 1.65615e-05)
(1.75231e-05 1.68381e-06 4.86886e-20 1.50493e-05 1.07286e-20 1.62856e-05)
(1.69952e-05 1.81316e-06 -4.66776e-21 1.5057e-05 2.74491e-21 1.60254e-05)
(1.64936e-05 1.89246e-06 1.08115e-20 1.50589e-05 -6.11532e-22 1.57758e-05)
(1.60153e-05 1.9328e-06 -5.70749e-20 1.50475e-05 -9.30489e-21 1.55312e-05)
(1.55566e-05 1.94235e-06 3.11192e-20 1.50165e-05 3.3018e-21 1.52863e-05)
(1.51076e-05 1.92742e-06 -5.85795e-20 1.49626e-05 -8.58185e-21 1.5035e-05)
(1.89513e-05 -1.75745e-06 -5.73713e-21 1.61375e-05 -1.29944e-21 1.75435e-05)
(1.88652e-05 -1.50815e-06 1.46991e-20 1.56265e-05 3.25445e-21 1.72446e-05)
(1.87542e-05 -1.19494e-06 -4.39493e-20 1.5123e-05 -1.10588e-20 1.69402e-05)
(1.85858e-05 -8.24141e-07 1.1501e-20 1.46526e-05 2.32302e-21 1.66181e-05)
(1.8342e-05 -4.26845e-07 -8.25947e-20 1.42486e-05 -1.98395e-20 1.62951e-05)
(1.8018e-05 -8.40141e-09 1.89494e-20 1.39203e-05 5.27293e-21 1.597e-05)
(1.76175e-05 4.05519e-07 5.52254e-21 1.36844e-05 3.42456e-21 1.56514e-05)
(1.71625e-05 7.74705e-07 -6.92315e-21 1.35411e-05 -4.67325e-21 1.53515e-05)
(1.66764e-05 1.07859e-06 -1.96261e-20 1.3467e-05 -2.03575e-21 1.50713e-05)
(1.6178e-05 1.31704e-06 1.07003e-19 1.34397e-05 1.79195e-20 1.48087e-05)
(1.56876e-05 1.49184e-06 -1.2623e-20 1.34386e-05 -4.48011e-21 1.45626e-05)
(1.52195e-05 1.60973e-06 9.56129e-20 1.34433e-05 1.34137e-20 1.43309e-05)
(1.47752e-05 1.68305e-06 -3.03696e-20 1.34435e-05 -5.57077e-21 1.4109e-05)
(1.43529e-05 1.72178e-06 3.37437e-20 1.34326e-05 7.258e-21 1.38924e-05)
(1.39489e-05 1.73334e-06 -2.69538e-20 1.34052e-05 -5.158e-21 1.36768e-05)
(1.35548e-05 1.72345e-06 4.44963e-20 1.33583e-05 8.75883e-21 1.34564e-05)
(1.69317e-05 -1.58768e-06 -2.82419e-20 1.44546e-05 -7.11641e-21 1.56923e-05)
(1.6858e-05 -1.36667e-06 -3.53036e-21 1.39943e-05 1.62305e-22 1.5425e-05)
(1.6762e-05 -1.08812e-06 7.13205e-20 1.35399e-05 1.74776e-20 1.51524e-05)
(1.66158e-05 -7.57358e-07 6.17093e-22 1.31149e-05 -1.28211e-22 1.48645e-05)
(1.64027e-05 -4.02445e-07 5.16792e-20 1.275e-05 1.16779e-20 1.45762e-05)
(1.61179e-05 -2.78453e-08 -6.0211e-20 1.24528e-05 -1.43924e-20 1.42861e-05)
(1.57647e-05 3.43422e-07 8.27272e-21 1.22384e-05 3.02387e-21 1.4002e-05)
(1.53617e-05 6.75202e-07 -2.45644e-20 1.21069e-05 -3.44136e-21 1.37341e-05)
(1.49305e-05 9.48741e-07 2.12266e-20 1.20376e-05 2.83916e-21 1.34838e-05)
(1.44878e-05 1.16389e-06 -5.686e-20 1.20106e-05 -1.56888e-20 1.3249e-05)
(1.40519e-05 1.32217e-06 -3.0153e-20 1.20069e-05 -2.56355e-21 1.3029e-05)
(1.36362e-05 1.42958e-06 -1.06902e-19 1.2009e-05 -1.80201e-20 1.28221e-05)
(1.32425e-05 1.49724e-06 3.06001e-20 1.20077e-05 7.31876e-21 1.26248e-05)
(1.28687e-05 1.53408e-06 1.47505e-20 1.19966e-05 9.66853e-22 1.24324e-05)
(1.25123e-05 1.54696e-06 -1.11933e-20 1.19717e-05 -1.78469e-22 1.22417e-05)
(1.21661e-05 1.54108e-06 -1.36606e-20 1.19307e-05 -1.83452e-21 1.20483e-05)
(1.5134e-05 -1.43454e-06 2.02984e-20 1.29531e-05 5.34958e-21 1.40428e-05)
(1.50712e-05 -1.23857e-06 3.35386e-20 1.25386e-05 7.72461e-21 1.38039e-05)
(1.49887e-05 -9.90783e-07 -3.01302e-20 1.21285e-05 -8.57648e-21 1.35599e-05)
(1.48621e-05 -6.95654e-07 -7.99502e-20 1.17448e-05 -1.77892e-20 1.33027e-05)
(1.4676e-05 -3.78488e-07 7.15021e-21 1.14153e-05 1.59181e-21 1.30455e-05)
(1.44259e-05 -4.299e-08 -1.63897e-20 1.11462e-05 -2.44176e-21 1.27867e-05)
(1.41144e-05 2.90203e-07 5.02685e-20 1.09515e-05 1.15717e-20 1.25333e-05)
(1.37576e-05 5.88453e-07 6.94528e-20 1.0831e-05 1.23519e-20 1.2294e-05)
(1.33749e-05 8.34753e-07 -4.44643e-20 1.07665e-05 -8.56287e-21 1.20704e-05)
(1.29814e-05 1.02892e-06 -6.68386e-20 1.07398e-05 -8.56718e-21 1.18605e-05)
(1.25938e-05 1.17221e-06 1.30341e-19 1.07341e-05 2.26519e-20 1.16636e-05)
(1.22243e-05 1.26999e-06 6.66145e-20 1.07338e-05 1.23455e-20 1.14787e-05)
(1.18745e-05 1.33228e-06 -1.94885e-20 1.07306e-05 -6.20377e-21 1.13023e-05)
(1.15435e-05 1.3672e-06 7.83462e-21 1.07196e-05 8.44152e-22 1.11313e-05)
(1.12288e-05 1.38086e-06 5.68431e-20 1.06966e-05 8.99516e-21 1.09625e-05)
(1.09239e-05 1.37806e-06 5.01724e-20 1.066e-05 7.18084e-21 1.07919e-05)
(1.06226e-05 1.36162e-06 7.73009e-21 1.06072e-05 6.98731e-22 1.06148e-05)
(1.35325e-05 -1.2963e-06 -4.86242e-21 1.16122e-05 -1.41862e-21 1.25717e-05)
(1.34793e-05 -1.12251e-06 -3.78379e-20 1.1239e-05 -8.90268e-21 1.23583e-05)
(1.34087e-05 -9.0203e-07 5.6064e-21 1.08692e-05 2.85053e-21 1.214e-05)
(1.32995e-05 -6.38599e-07 1.21748e-19 1.05228e-05 2.65426e-20 1.19105e-05)
(1.31373e-05 -3.55051e-07 -9.22498e-20 1.02254e-05 -2.11039e-20 1.16812e-05)
(1.29181e-05 -5.45055e-08 8.23956e-21 9.98216e-06 2.64366e-21 1.14507e-05)
(1.26433e-05 2.44575e-07 -4.17548e-21 9.80528e-06 -1.16593e-21 1.12247e-05)
(1.23277e-05 5.12762e-07 -4.57447e-20 9.69524e-06 -7.35814e-21 1.10113e-05)
(1.19881e-05 7.34583e-07 1.26603e-19 9.63526e-06 2.2299e-20 1.08114e-05)
(1.16383e-05 9.09887e-07 7.57337e-21 9.60918e-06 -2.60797e-21 1.06236e-05)
(1.12935e-05 1.03959e-06 -1.26138e-19 9.60192e-06 -2.37524e-20 1.04473e-05)
(1.09648e-05 1.12863e-06 3.2582e-20 9.59974e-06 4.59509e-21 1.02819e-05)
(1.06541e-05 1.1859e-06 -5.95946e-20 9.59517e-06 -9.59759e-21 1.01244e-05)
(1.03605e-05 1.21879e-06 -5.50541e-20 9.58383e-06 -8.99309e-21 9.97199e-06)
(1.00822e-05 1.23284e-06 -2.55573e-20 9.56242e-06 -4.39853e-21 9.82208e-06)
(9.81329e-06 1.23246e-06 9.2634e-21 9.52957e-06 5.63315e-22 9.67138e-06)
(9.54882e-06 1.22021e-06 7.04753e-21 9.48316e-06 5.79045e-22 9.51586e-06)
(1.21047e-05 -1.17147e-06 -1.3454e-20 1.04139e-05 -2.90665e-21 1.12587e-05)
(1.20599e-05 -1.01732e-06 2.43074e-20 1.00779e-05 5.87884e-21 1.10681e-05)
(1.2e-05 -8.21096e-07 1.69202e-20 9.74447e-06 2.2776e-21 1.08732e-05)
(1.19061e-05 -5.85935e-07 -1.32437e-19 9.43203e-06 -2.87187e-20 1.06686e-05)
(1.17652e-05 -3.324e-07 9.59248e-20 9.16378e-06 2.21249e-20 1.04644e-05)
(1.15731e-05 -6.30479e-08 -3.43952e-20 8.94401e-06 -6.39665e-21 1.02591e-05)
(1.13313e-05 2.05544e-07 1.07979e-19 8.78375e-06 2.18225e-20 1.00578e-05)
(1.1052e-05 4.46773e-07 7.63227e-20 8.68333e-06 1.14043e-20 9.8675e-06)
(1.07508e-05 6.46622e-07 -1.90197e-19 8.6279e-06 -3.68828e-20 9.68916e-06)
(1.04399e-05 8.04872e-07 -8.74067e-20 8.60269e-06 -1.28643e-20 9.52121e-06)
(1.01333e-05 9.2231e-07 3.6508e-20 8.59441e-06 9.39662e-21 9.3635e-06)
(9.84085e-06 1.00334e-06 -1.39092e-20 8.59072e-06 -3.12136e-21 9.21545e-06)
(9.56458e-06 1.05595e-06 4.33547e-20 8.58495e-06 9.24135e-21 9.07451e-06)
(9.30425e-06 1.08687e-06 -3.41813e-20 8.57371e-06 -4.21766e-21 8.93877e-06)
(9.05809e-06 1.10105e-06 -1.15879e-20 8.55385e-06 -1.61149e-21 8.80578e-06)
(8.82091e-06 1.10249e-06 -7.6627e-21 8.52412e-06 -2.15406e-22 8.67244e-06)
(8.58833e-06 1.09362e-06 -7.46743e-21 8.48312e-06 -1.49307e-21 8.53565e-06)
(1.08309e-05 -1.05867e-06 1.16724e-21 9.34217e-06 5.11638e-22 1.00859e-05)
(1.07933e-05 -9.21944e-07 2.83818e-20 9.03964e-06 6.20746e-21 9.91582e-06)
(1.07428e-05 -7.47278e-07 -3.13458e-20 8.73916e-06 -6.57976e-21 9.74182e-06)
(1.06627e-05 -5.37314e-07 7.15355e-20 8.45762e-06 1.58248e-20 9.55974e-06)
(1.05406e-05 -3.10527e-07 -3.69083e-20 8.2159e-06 -8.37689e-21 9.37816e-06)
(1.03728e-05 -6.9079e-08 5.61597e-20 8.0176e-06 1.09281e-20 9.19565e-06)
(1.01601e-05 1.72168e-07 -1.02152e-19 7.87261e-06 -2.27555e-20 9.01662e-06)
(9.91351e-06 3.89198e-07 -1.11445e-20 7.78133e-06 -1.82432e-21 8.84723e-06)
(9.64647e-06 5.69325e-07 1.58443e-19 7.73028e-06 3.31564e-20 8.68819e-06)
(9.37021e-06 7.12196e-07 -8.67459e-21 7.70618e-06 5.26096e-24 8.53811e-06)
(9.09756e-06 8.18559e-07 -2.32471e-20 7.69732e-06 -3.73165e-21 8.39713e-06)
(8.83748e-06 8.92307e-07 -6.60644e-21 7.69262e-06 3.6497e-22 8.26477e-06)
(8.59208e-06 9.4061e-07 5.72065e-20 7.68621e-06 9.13707e-21 8.13893e-06)
(8.36105e-06 9.69559e-07 3.40893e-20 7.67503e-06 5.36526e-21 8.01787e-06)
(8.1431e-06 9.83643e-07 -3.59177e-20 7.65655e-06 -5.84043e-21 7.89966e-06)
(7.9339e-06 9.86497e-07 5.43606e-20 7.62977e-06 8.48598e-21 7.78176e-06)
(7.72931e-06 9.80348e-07 9.41327e-21 7.59346e-06 1.1452e-21 7.66131e-06)
(7.52483e-06 9.66488e-07 -4.60623e-20 7.54607e-06 -5.78575e-21 7.53541e-06)
(9.69346e-06 -9.56688e-07 -3.42329e-21 8.38278e-06 -1.08083e-21 9.03759e-06)
(9.6624e-06 -8.35432e-07 -4.35653e-20 8.11062e-06 -9.51452e-21 8.88594e-06)
(9.62018e-06 -6.79937e-07 1.01376e-20 7.83994e-06 2.61026e-21 8.73079e-06)
(9.55233e-06 -4.92458e-07 7.17207e-21 7.5865e-06 7.85068e-22 8.56906e-06)
(9.44701e-06 -2.89569e-07 -4.48276e-20 7.36894e-06 -9.19671e-21 8.4079e-06)
(9.30068e-06 -7.30824e-08 -4.60103e-20 7.19021e-06 -8.97194e-21 8.24585e-06)
(9.11402e-06 1.4367e-07 -4.91799e-20 7.05932e-06 -9.87489e-21 8.08691e-06)
(8.89657e-06 3.38995e-07 -1.17523e-19 6.97666e-06 -2.05939e-20 7.93645e-06)
(8.66008e-06 5.01373e-07 5.74796e-20 6.92994e-06 9.77779e-21 7.79486e-06)
(8.41497e-06 6.30414e-07 1.15702e-19 6.90734e-06 1.8472e-20 7.66105e-06)
(8.17264e-06 7.26793e-07 4.14398e-20 6.89833e-06 5.32031e-21 7.5352e-06)
(7.94139e-06 7.9389e-07 5.265e-21 6.89295e-06 1.42774e-22 7.41688e-06)
(7.72341e-06 8.38237e-07 1.90461e-20 6.88624e-06 1.13676e-21 7.30463e-06)