/*--------------------------------*- C++ -*----------------------------------*\
| =========                 |                                                 |
| \\      /  F ield         | OpenFOAM: The Open Source CFD Toolbox           |
|  \\    /   O peration     | Version:  2506                                  |
|   \\  /    A nd           | Website:  www.openfoam.com                      |
|    \\/     M anipulation  |                                                 |
\*---------------------------------------------------------------------------*/
FoamFile
{
    version     2.0;
    format      ascii;
    arch        "LSB;label=32;scalar=64";
    class       volScalarField;
    location    "350";
    object      turbulenceProperties:I;
}
// * * * * * * * * * * * * * * * * * * * * * * * * * * * * * * * * * * * * * //

dimensions      [0 0 0 0 0 0 0];

internalField   nonuniform List<scalar> 
1340
(
0.000809572
0.000837914
0.000867272
0.000900731
0.000936858
0.000740438
0.000763335
0.000786831
0.000813431
0.000841642
0.000868264
0.000679323
0.000697925
0.000716834
0.000738185
0.000760478
0.000781256
0.000800056
0.000625003
0.000640204
0.000655523
0.000672789
0.000690602
0.000707029
0.000721888
0.000733352
0.000576552
0.000589011
0.000601499
0.000615543
0.000629903
0.00064304
0.000654891
0.000663932
0.000668305
0.000533146
0.00054338
0.000553609
0.000565097
0.00057675
0.000587349
0.000596864
0.00060406
0.000607529
0.000606877
0.000494094
0.000502531
0.000510921
0.000520368
0.000529874
0.000538488
0.000546167
0.000551921
0.000554685
0.000554164
0.000458822
0.000465799
0.000472699
0.00048048
0.00048827
0.000495309
0.000501524
0.00050614
0.000508346
0.000507905
0.000504866
0.000426854
0.000432626
0.000438308
0.000444729
0.000451129
0.000456904
0.00046194
0.000465649
0.000467399
0.000467
0.000464502
0.000397779
0.000402551
0.00040723
0.000412532
0.000417805
0.000422541
0.000426626
0.0004296
0.00043098
0.000430595
0.000428509
0.000424833
0.000371248
0.000375188
0.000379034
0.000383415
0.000387767
0.000391637
0.000394948
0.000397328
0.000398392
0.000398007
0.00039623
0.000393158
0.000346965
0.000350212
0.000353364
0.000356982
0.000360571
0.000363724
0.000366395
0.000368288
0.000369093
0.000368695
0.000367154
0.000364547
0.000324679
0.000327349
0.000329916
0.000332897
0.000335851
0.000338409
0.000340552
0.000342042
0.000342625
0.000342207
0.000340841
0.000338605
0.0003356
0.000304173
0.000306359
0.000308437
0.000310883
0.000313304
0.000315364
0.00031707
0.00031822
0.000318618
0.000318176
0.000316946
0.000314995
0.000312412
0.000285262
0.000287035
0.00028871
0.000290703
0.000292676
0.000294321
0.000295659
0.000296527
0.000296761
0.000296293
0.000295167
0.000293446
0.000291202
0.000288496
0.000267782
0.000269206
0.000270542
0.000272152
0.000273749
0.000275045
0.000276073
0.000276706
0.000276804
0.000276307
0.000275262
0.000273721
0.000271746
0.000269387
0.00025159
0.000252723
0.000253771
0.000255055
0.000256336
0.000257339
0.000258107
0.000258542
0.000258522
0.000257999
0.000257016
0.000255621
0.000253864
0.000251789
0.000236565
0.000237453
0.000238259
0.000239267
0.000240279
0.000241036
0.000241583
0.000241852
0.000241734
0.000241188
0.000240252
0.000238972
0.000237393
0.000235551
0.000233458
0.0002226
0.000223277
0.000223881
0.000224657
0.000225441
0.000225991
0.000226355
0.000226481
0.00022628
0.000225712
0.000224815
0.00022363
0.000222194
0.000220541
0.000218682
0.000209596
0.000210095
0.000210531
0.000211112
0.000211699
0.000212077
0.000212289
0.000212296
0.000212023
0.000211437
0.000210573
0.000209466
0.000208149
0.000206653
0.000204986
0.00019747
0.00019782
0.000198113
0.000198531
0.000198951
0.000199184
0.00019927
0.000199178
0.000198846
0.000198246
0.000197407
0.000196365
0.00019515
0.000193785
0.000192278
0.000190628
0.000186149
0.000186372
0.000186546
0.000186827
0.000187106
0.000187219
0.000187199
0.000187026
0.000186646
0.000186034
0.000185219
0.000184234
0.000183101
0.000181846
0.000180476
0.000178988
0.000175681
0.000175755
0.000175921
0.000176083
0.000176095
0.00017599
0.00017575
0.000175332
0.000174713
0.000173919
0.000172982
0.000171923
0.000170762
0.000169506
0.000168153
0.000166684
0.000165684
0.000165677
0.000165746
0.000165809
0.00016574
0.000165564
0.000165271
0.000164824
0.000164202
0.00016343
0.000162537
0.000161541
0.00016046
0.000159303
0.000158066
0.000156733
0.000156325
0.000156252
0.000156241
0.000156223
0.000156087
0.000155856
0.000155521
0.000155052
0.000154431
0.000153681
0.000152826
0.000151887
0.000150879
0.000149807
0.000148671
0.000147457
0.000147555
0.000147427
0.00014735
0.000147266
0.000147077
0.000146802
0.000146436
0.000145952
0.000145337
0.000144609
0.000143792
0.000142904
0.000141959
0.000140964
0.000139917
0.000138805
0.000137607
0.000139328
0.000139155
0.000139026
0.000138888
0.000138658
0.00013835
0.000137962
0.000137471
0.000136864
0.00013616
0.000135379
0.000134539
0.000133652
0.000132725
0.000131756
0.000130735
0.000129642
0.000131603
0.000131394
0.000131223
0.000131044
0.000130782
0.000130451
0.000130048
0.000129556
0.000128962
0.000128283
0.000127538
0.000126743
0.000125909
0.000125044
0.000124148
0.000123207
0.000122208
0.000124343
0.000124106
0.000123902
0.000123691
0.000123407
0.00012306
0.000122651
0.000122163
0.000121586
0.000120932
0.000120223
0.000119471
0.000118689
0.000117881
0.000117049
0.000116183
0.000115267
0.000114283
0.000117514
0.000117257
0.000117027
0.000116794
0.000116495
0.00011614
0.000115729
0.000115251
0.000114693
0.000114068
0.000113394
0.000112685
0.000111951
0.000111197
0.000110425
0.000109627
0.000108787
0.00010789
0.000111086
0.000110814
0.000110566
0.000110317
0.00011001
0.000109653
0.000109248
0.000108783
0.000108247
0.000107653
0.000107015
0.000106347
0.000105659
0.000104957
0.000104241
0.000103505
0.000102736
0.000101919
0.00010503
0.000104749
0.000104489
0.00010423
0.000103922
0.000103568
0.000103173
0.000102725
0.000102215
0.000101652
0.000101051
0.000100424
9.9781e-05
9.91279e-05
9.84659e-05
9.77883e-05
9.70842e-05
9.63387e-05
9.55319e-05
9.9322e-05
9.90345e-05
9.87679e-05
9.85054e-05
9.82004e-05
9.7855e-05
9.74739e-05
9.70473e-05
9.65652e-05
9.60345e-05
9.54707e-05
9.48848e-05
9.42855e-05
9.36798e-05
9.30682e-05
9.24453e-05
9.18018e-05
9.11251e-05
9.03956e-05
9.39372e-05
9.36475e-05
9.33787e-05
9.31179e-05
9.28203e-05
9.24871e-05
9.2124e-05
9.17214e-05
9.12688e-05
9.07727e-05
9.02463e-05
8.9701e-05
8.91444e-05
8.85839e-05
8.80208e-05
8.745e-05
8.68635e-05
8.62496e-05
8.55907e-05
8.88541e-05
8.85657e-05
8.82985e-05
8.80435e-05
8.77568e-05
8.74395e-05
8.70976e-05
8.67217e-05
8.6301e-05
8.58398e-05
8.53508e-05
8.48451e-05
8.43309e-05
8.38147e-05
8.32983e-05
8.27763e-05
8.22428e-05
8.16878e-05
8.10955e-05
8.04459e-05
8.4053e-05
8.37684e-05
8.35067e-05
8.32606e-05
8.29882e-05
8.26898e-05
8.23723e-05
8.20255e-05
8.16371e-05
8.12113e-05
8.07604e-05
8.0294e-05
7.98208e-05
7.93471e-05
7.88752e-05
7.84003e-05
7.79176e-05
7.74177e-05
7.68859e-05
7.6305e-05
7.95156e-05
7.92368e-05
7.89839e-05
7.87499e-05
7.84944e-05
7.82174e-05
7.79267e-05
7.76104e-05
7.72558e-05
7.68659e-05
7.64523e-05
7.60248e-05
7.55915e-05
7.51592e-05
7.473e-05
7.43002e-05
7.38649e-05
7.3416e-05
7.29407e-05
7.24245e-05
7.52248e-05
7.49539e-05
7.47121e-05
7.4493e-05
7.42563e-05
7.40032e-05
7.37414e-05
7.34572e-05
7.31369e-05
7.27827e-05
7.24061e-05
7.20168e-05
7.16227e-05
7.12303e-05
7.08417e-05
7.04544e-05
7.0064e-05
6.96632e-05
6.92411e-05
6.87839e-05
6.82737e-05
7.1165e-05
7.09035e-05
7.0675e-05
7.04732e-05
7.02572e-05
7.00298e-05
6.97987e-05
6.95474e-05
6.92617e-05
6.89431e-05
6.86029e-05
6.8251e-05
6.78949e-05
6.75411e-05
6.71917e-05
6.68451e-05
6.64972e-05
6.61411e-05
6.57675e-05
6.53645e-05
6.49166e-05
6.73215e-05
6.7071e-05
6.68573e-05
6.6675e-05
6.64812e-05
6.62812e-05
6.60825e-05
6.58647e-05
6.56131e-05
6.53299e-05
6.50255e-05
6.47098e-05
6.43909e-05
6.40745e-05
6.37629e-05
6.34546e-05
6.31463e-05
6.28322e-05
6.2504e-05
6.21508e-05
6.17593e-05
6.36807e-05
6.34426e-05
6.32454e-05
6.3084e-05
6.29133e-05
6.27426e-05
6.25775e-05
6.23934e-05
6.21758e-05
6.19271e-05
6.16579e-05
6.13779e-05
6.10949e-05
6.08145e-05
6.05391e-05
6.02672e-05
5.99961e-05
5.97208e-05
5.94342e-05
5.91267e-05
5.87867e-05
6.02301e-05
6.00053e-05
5.98262e-05
5.96867e-05
5.95404e-05
5.94006e-05
5.92698e-05
5.91196e-05
5.89354e-05
5.87207e-05
5.84859e-05
5.82407e-05
5.79925e-05
5.77468e-05
5.75057e-05
5.72681e-05
5.70317e-05
5.67922e-05
5.65433e-05
5.6277e-05
5.5983e-05
5.56469e-05
5.69582e-05
5.67473e-05
5.65876e-05
5.6471e-05
5.63501e-05
5.62425e-05
5.61469e-05
5.60298e-05
5.58787e-05
5.56973e-05
5.54963e-05
5.52851e-05
5.50706e-05
5.48579e-05
5.46489e-05
5.44429e-05
5.42383e-05
5.40315e-05
5.38169e-05
5.35874e-05
5.33345e-05
5.30455e-05
5.38537e-05
5.36576e-05
5.35184e-05
5.34254e-05
5.33306e-05
5.32569e-05
5.31968e-05
5.31123e-05
5.29935e-05
5.2845e-05
5.26772e-05
5.24989e-05
5.23164e-05
5.21344e-05
5.19551e-05
5.17783e-05
5.16023e-05
5.14244e-05
5.12398e-05
5.10427e-05
5.08253e-05
5.05768e-05
5.09067e-05
5.07256e-05
5.06082e-05
5.05393e-05
5.04715e-05
5.0433e-05
5.04086e-05
5.03558e-05
5.02689e-05
5.0153e-05
5.00175e-05
4.98705e-05
4.97177e-05
4.95638e-05
4.9411e-05
4.92594e-05
4.91082e-05
4.89551e-05
4.87965e-05
4.86269e-05
4.84398e-05
4.82261e-05
4.81075e-05
4.79419e-05
4.78474e-05
4.78027e-05
4.77628e-05
4.77612e-05
4.77721e-05
4.77498e-05
4.76949e-05
4.76112e-05
4.75067e-05
4.73885e-05
4.72623e-05
4.71326e-05
4.70021e-05
4.68717e-05
4.67411e-05
4.66086e-05
4.64711e-05
4.63242e-05
4.61622e-05
4.5977e-05
4.57589e-05
4.54471e-05
4.52975e-05
4.52269e-05
4.52063e-05
4.51956e-05
4.52326e-05
4.52776e-05
4.52849e-05
4.52623e-05
4.52105e-05
4.51345e-05
4.50416e-05
4.49374e-05
4.48271e-05
4.47142e-05
4.46002e-05
4.44857e-05
4.43694e-05
4.42487e-05
4.412e-05
4.39783e-05
4.38168e-05
4.36265e-05
4.29173e-05
4.2784e-05
4.27381e-05
4.27415e-05
4.27615e-05
4.28385e-05
4.29161e-05
4.29523e-05
4.29632e-05
4.29419e-05
4.28908e-05
4.28178e-05
4.27301e-05
4.26338e-05
4.25334e-05
4.24315e-05
4.23289e-05
4.22252e-05
4.2118e-05
4.2004e-05
4.18791e-05
4.17371e-05
4.15704e-05
4.05103e-05
4.03935e-05
4.03732e-05
4.04003e-05
4.04528e-05
4.0571e-05
4.0679e-05
4.07439e-05
4.07902e-05
4.0797e-05
4.07647e-05
4.07053e-05
4.06282e-05
4.05407e-05
4.04488e-05
4.03558e-05
4.02626e-05
4.01692e-05
4.00733e-05
3.9972e-05
3.98618e-05
3.97372e-05
3.95917e-05
3.82187e-05
3.81187e-05
3.81247e-05
3.81753e-05
3.82625e-05
3.84225e-05
3.85578e-05
3.86527e-05
3.87367e-05
3.87671e-05
3.87459e-05
3.86933e-05
3.86217e-05
3.85398e-05
3.84543e-05
3.83689e-05
3.82846e-05
3.82009e-05
3.81159e-05
3.80271e-05
3.79311e-05
3.78232e-05
3.76976e-05
3.60355e-05
3.5953e-05
3.59858e-05
3.60595e-05
3.61844e-05
3.6386e-05
3.65449e-05
3.66722e-05
3.67962e-05
3.68429e-05
3.68241e-05
3.67732e-05
3.67053e-05
3.66285e-05
3.65502e-05
3.64736e-05
3.63993e-05
3.63263e-05
3.62529e-05
3.61768e-05
3.60948e-05
3.60028e-05
3.5896e-05
3.57724e-05
3.39543e-05
3.38896e-05
3.39497e-05
3.40465e-05
3.42126e-05
3.44544e-05
3.46335e-05
3.47979e-05
3.49632e-05
3.50152e-05
3.49906e-05
3.49405e-05
3.48783e-05
3.48099e-05
3.47415e-05
3.46758e-05
3.46126e-05
3.4551e-05
3.44891e-05
3.44248e-05
3.43555e-05
3.42774e-05
3.41862e-05
3.40802e-05
3.19688e-05
3.19225e-05
3.20099e-05
3.21296e-05
3.23408e-05
3.26199e-05
3.28167e-05
3.30269e-05
3.3234e-05
3.32763e-05
3.32401e-05
3.3195e-05
3.31446e-05
3.30882e-05
3.30316e-05
3.29772e-05
3.29244e-05
3.28723e-05
3.28193e-05
3.27636e-05
3.2703e-05
3.26342e-05
3.25532e-05
3.24585e-05
3.00743e-05
3.00469e-05
3.0161e-05
3.03034e-05
3.05631e-05
3.08739e-05
3.10864e-05
3.13525e-05
3.16033e-05
3.16224e-05
3.15737e-05
3.15416e-05
3.15081e-05
3.14641e-05
3.14165e-05
3.13692e-05
3.13221e-05
3.12742e-05
3.12246e-05
3.11719e-05
3.11141e-05
3.10484e-05
3.09708e-05
3.088e-05
2.82662e-05
2.82595e-05
2.83997e-05
2.85653e-05
2.88771e-05
2.92116e-05
2.94368e-05
2.97615e-05
3.00572e-05
3.00499e-05
2.99971e-05
2.99856e-05
2.99678e-05
2.99292e-05
2.98822e-05
2.98337e-05
2.97841e-05
2.9733e-05
2.968e-05
2.96242e-05
2.95637e-05
2.94955e-05
2.94157e-05
2.93232e-05
2.654e-05
2.65553e-05
2.67219e-05
2.69139e-05
2.72824e-05
2.76345e-05
2.78712e-05
2.82531e-05
2.85878e-05
2.8551e-05
2.85061e-05
2.85189e-05
2.85067e-05
2.84609e-05
2.84048e-05
2.83474e-05
2.8289e-05
2.82297e-05
2.81691e-05
2.81064e-05
2.80399e-05
2.79665e-05
2.78818e-05
2.77855e-05
2.48926e-05
2.49288e-05
2.512e-05
2.53423e-05
2.57706e-05
2.61363e-05
2.639e-05
2.68603e-05
2.72388e-05
2.71227e-05
2.7075e-05
2.7116e-05
2.70999e-05
2.70348e-05
2.69633e-05
2.68948e-05
2.68266e-05
2.67586e-05
2.66905e-05
2.66217e-05
2.65497e-05
2.64712e-05
2.63823e-05
2.62824e-05
2.61754e-05
2.33453e-05
2.33986e-05
2.36042e-05
2.38525e-05
2.43294e-05
2.46898e-05
2.49522e-05
2.55562e-05
2.60575e-05
2.57874e-05
2.56907e-05
2.57724e-05
2.5759e-05
2.56735e-05
2.55871e-05
2.55102e-05
2.54351e-05
2.53599e-05
2.52861e-05
2.52126e-05
2.51363e-05
2.50539e-05
2.49617e-05
2.48583e-05
2.47481e-05
2.20202e-05
2.20813e-05
2.22788e-05
2.25253e-05
2.30075e-05
2.3299e-05
2.3508e-05
2.42551e-05
2.49059e-05
2.45044e-05
2.43731e-05
2.45167e-05
2.45361e-05
2.4454e-05
2.43669e-05
2.42921e-05
2.42185e-05
2.41433e-05
2.40685e-05
2.39937e-05
2.39163e-05
2.38324e-05
2.37383e-05
2.36328e-05
2.35202e-05
2.09111e-05
2.09712e-05
2.11432e-05
2.13643e-05
2.18046e-05
2.19753e-05
2.21258e-05
2.28427e-05
2.36141e-05
2.32301e-05
2.31357e-05
2.33346e-05
2.3409e-05
2.33593e-05
2.32875e-05
2.32235e-05
2.31596e-05
2.30925e-05
2.30235e-05
2.2953e-05
2.28795e-05
2.27993e-05
2.27079e-05
2.26042e-05
2.24931e-05
1.9842e-05
1.99004e-05
2.00466e-05
2.02504e-05
2.06433e-05
2.07036e-05
2.08479e-05
2.14337e-05
2.22503e-05
2.19883e-05
2.19579e-05
2.21816e-05
2.2304e-05
2.22953e-05
2.22445e-05
2.21925e-05
2.21392e-05
2.20814e-05
2.20205e-05
2.1957e-05
2.189e-05
2.1816e-05
2.17306e-05
2.16318e-05
2.15249e-05
1.87392e-05
1.87955e-05
1.89149e-05
1.91116e-05
1.94479e-05
1.94277e-05
1.95989e-05
2.00456e-05
2.09217e-05
2.08101e-05
2.08409e-05
2.10631e-05
2.12129e-05
2.12383e-05
2.1209e-05
2.11708e-05
2.11296e-05
2.10815e-05
2.10276e-05
2.09702e-05
2.09088e-05
2.08403e-05
2.07606e-05
2.06664e-05
2.05621e-05
1.7627e-05
1.76792e-05
1.77718e-05
1.79682e-05
1.8235e-05
1.81736e-05
1.83769e-05
1.8687e-05
1.96416e-05
1.96854e-05
1.97833e-05
2.00008e-05
2.01664e-05
2.02154e-05
2.02009e-05
2.0175e-05
2.01492e-05
2.01166e-05
2.00743e-05
2.00244e-05
1.99678e-05
1.99032e-05
1.98261e-05
1.97334e-05
1.96284e-05
1.65089e-05
1.65516e-05
1.66156e-05
1.68123e-05
1.69964e-05
1.69484e-05
1.71648e-05
1.73682e-05
1.8436e-05
1.86293e-05
1.8789e-05
1.90046e-05
1.91887e-05
1.92625e-05
1.92548e-05
1.9222e-05
1.91911e-05
1.91625e-05
1.91304e-05
1.90907e-05
1.90409e-05
1.89785e-05
1.88984e-05
1.87988e-05
1.86831e-05
1.5399e-05
1.54224e-05
1.54519e-05
1.56349e-05
1.57213e-05
1.57508e-05
1.59342e-05
1.61022e-05
1.73272e-05
1.76637e-05
1.78793e-05
1.80785e-05
1.826e-05
1.83605e-05
1.83846e-05
1.83599e-05
1.8309e-05
1.82466e-05
1.81828e-05
1.81212e-05
1.80582e-05
1.79854e-05
1.78902e-05
1.77619e-05
1.76007e-05
1.43112e-05
1.4305e-05
1.42919e-05
1.44284e-05
1.43955e-05
1.45463e-05
1.46031e-05
1.48776e-05
1.6327e-05
1.67928e-05
1.70957e-05
1.72781e-05
1.73795e-05
1.74027e-05
1.74036e-05
1.74098e-05
1.7406e-05
1.73645e-05
1.72798e-05
1.7165e-05
1.70333e-05
1.68879e-05
1.67217e-05
1.65244e-05
1.62931e-05
1.603e-05
1.325e-05
1.32068e-05
1.31433e-05
1.31905e-05
1.30268e-05
1.32917e-05
1.30704e-05
1.37213e-05
1.54565e-05
1.59432e-05
1.63674e-05
1.65961e-05
1.66339e-05
1.6499e-05
1.62836e-05
1.60984e-05
1.5999e-05
1.59657e-05
1.59421e-05
1.58824e-05
1.57646e-05
1.55832e-05
1.53362e-05
1.50326e-05
1.46895e-05
1.43267e-05
1.22257e-05
1.21237e-05
1.19762e-05
1.18851e-05
1.16236e-05
1.19862e-05
1.14208e-05
1.29653e-05
1.48225e-05
1.51543e-05
1.56177e-05
1.57891e-05
1.58492e-05
1.58326e-05
1.56124e-05
1.51813e-05
1.46967e-05
1.43371e-05
1.41922e-05
1.42453e-05
1.44178e-05
1.46189e-05
1.47401e-05
1.4683e-05
1.44544e-05
1.41564e-05
1.13311e-05
1.11114e-05
1.0765e-05
1.04093e-05
1.00612e-05
1.05543e-05
1.00707e-05
1.30304e-05
1.45276e-05
1.50979e-05
1.61787e-05
1.64589e-05
1.61637e-05
1.56528e-05
1.531e-05
1.53859e-05
1.57339e-05
1.60507e-05
1.62009e-05
1.62169e-05
1.61733e-05
1.61485e-05
1.62622e-05
1.66549e-05
1.73107e-05
1.80636e-05
1.07516e-05
1.03727e-05
9.68976e-06
8.78304e-06
8.03275e-06
8.58188e-06
9.12296e-06
1.31082e-05
1.37089e-05
1.48437e-05
1.68021e-05
1.83286e-05
1.97514e-05
2.11108e-05
2.22779e-05
2.31963e-05
2.38733e-05
2.44102e-05
2.49212e-05
2.54691e-05
2.6069e-05
2.6706e-05
2.73476e-05
2.79175e-05
2.83429e-05
2.8668e-05
1.04747e-05
1.00111e-05
9.08592e-06
7.54873e-06
5.50366e-06
6.02292e-06
8.6189e-06
1.13849e-05
1.37073e-05
2.03148e-05
2.51449e-05
2.88286e-05
3.14687e-05
3.32623e-05
3.44126e-05
3.51612e-05
3.57179e-05
3.62261e-05
3.67342e-05
3.72371e-05
3.77118e-05
3.81574e-05
3.85968e-05
3.90974e-05
3.96074e-05
4.00357e-05
)
;

boundaryField
{
    inlet
    {
        type            calculated;
        value           nonuniform List<scalar> 
26
(
1.0463e-05
1.00116e-05
9.08826e-06
7.48656e-06
5.08225e-06
6.07504e-06
9.35146e-06
9.69887e-06
2.05366e-05
2.94082e-05
3.69969e-05
4.32759e-05
4.8301e-05
5.225e-05
5.52681e-05
5.75668e-05
5.934e-05
6.07505e-05
6.19315e-05
6.29837e-05
6.39789e-05
6.49887e-05
6.60934e-05
6.73468e-05
6.86564e-05
6.98828e-05
)
;
    }
    outlet
    {
        type            calculated;
        value           nonuniform List<scalar> 0();
    }
    walls
    {
        type            calculated;
        value           nonuniform List<scalar> 0();
    }
    frontAndBack
    {
        type            empty;
    }
    procBoundary0to1
    {
        type            processor;
        value           nonuniform List<scalar> 
94
(
0.00104972
0.000971488
0.000971488
0.000892358
0.000892358
0.000814718
0.000814718
0.000738904
0.000738904
0.000667439
0.000667439
0.000602123
0.000550396
0.000550396
0.000499388
0.000460044
0.000460044
0.000419759
0.000388947
0.000361007
0.000361007
0.000331915
0.000309268
0.000309268
0.000285344
0.000266665
0.000249412
0.000249412
0.000231111
0.000216614
0.000203146
0.000203146
0.000188813
0.00017736
0.00017736
0.000165073
0.000155282
0.00014614
0.00014614
0.000136298
0.000128455
0.000121127
0.000121127
0.0001132
0.000106908
0.000101028
0.000101028
9.46368e-05
8.95886e-05
8.4865e-05
8.4865e-05
7.97137e-05
7.56535e-05
7.1847e-05
7.1847e-05
6.76872e-05
6.44027e-05
6.1311e-05
5.83976e-05
5.83976e-05
5.52517e-05
5.27052e-05
5.02846e-05
4.79743e-05
4.79743e-05
4.55027e-05
4.34035e-05
4.13758e-05
3.94225e-05
3.75523e-05
3.75523e-05
3.56348e-05
3.39618e-05
3.23523e-05
3.07786e-05
2.92217e-05
2.76817e-05
2.76817e-05
2.60665e-05
2.46372e-05
2.34072e-05
2.23815e-05
2.14164e-05
2.04536e-05
1.95155e-05
1.85568e-05
1.74177e-05
1.74177e-05
1.57374e-05
1.39592e-05
1.38761e-05
1.87953e-05
2.89533e-05
4.03711e-05
)
;
    }
    procBoundary0to4
    {
        type            processor;
        value           nonuniform List<scalar> 
72
(
0.0007806
0.000716762
0.000659914
0.000609024
0.000563345
0.00052219
0.000484993
0.000451257
0.000420559
0.000392535
0.000366883
0.000343344
0.000321682
0.000301705
0.00028324
0.000266139
0.000250272
0.000235522
0.000221788
0.000208985
0.00019703
0.000185852
0.000175564
0.000175564
0.000165657
0.000156373
0.000147664
0.000139488
0.000131803
0.000124575
0.00011777
0.00011136
0.000105318
9.96171e-05
9.42359e-05
8.91534e-05
8.43498e-05
7.98073e-05
7.55094e-05
7.14407e-05
6.75869e-05
6.39348e-05
6.04721e-05
5.71872e-05
5.40695e-05
5.11088e-05
4.82958e-05
4.56215e-05
4.30778e-05
4.0657e-05
3.83517e-05
3.61551e-05
3.40607e-05
3.20625e-05
3.01551e-05
2.83343e-05
2.65957e-05
2.49369e-05
2.3381e-05
2.20527e-05
2.09425e-05
1.98713e-05
1.87663e-05
1.76522e-05
1.65337e-05
1.54262e-05
1.43447e-05
1.32949e-05
1.22917e-05
1.14333e-05
1.08932e-05
1.06348e-05
)
;
    }
    procBoundary0to5
    {
        type            processor;
        value           nonuniform List<scalar> 4(0.000887756 0.000923118 0.000960161 0.0010028);
    }
}


// ************************************************************************* //
