/*--------------------------------*- C++ -*----------------------------------*\
| =========                 |                                                 |
| \\      /  F ield         | OpenFOAM: The Open Source CFD Toolbox           |
|  \\    /   O peration     | Version:  2506                                  |
|   \\  /    A nd           | Website:  www.openfoam.com                      |
|    \\/     M anipulation  |                                                 |
\*---------------------------------------------------------------------------*/
FoamFile
{
    version     2.0;
    format      ascii;
    arch        "LSB;label=32;scalar=64";
    class       volVectorField;
    location    "350";
    object      U;
}
// * * * * * * * * * * * * * * * * * * * * * * * * * * * * * * * * * * * * * //

dimensions      [0 1 -1 0 0 0 0];

internalField   nonuniform List<vector> 
1340
(
(17.8938 14.0916 -4.02545e-18)
(17.3011 13.3884 5.85662e-17)
(16.7583 12.6508 1.7776e-16)
(16.2305 11.7711 -3.80303e-16)
(15.7276 10.7717 -7.7829e-16)
(18.602 13.4348 1.56249e-17)
(18.0462 12.7912 6.70247e-17)
(17.5363 12.1174 -2.01073e-16)
(17.0354 11.3125 -7.60515e-18)
(16.5536 10.3966 4.40544e-16)
(16.1582 9.42067 -8.76389e-16)
(19.2324 12.8371 -1.08262e-17)
(18.709 12.246 -4.74139e-17)
(18.228 11.6282 -2.57525e-17)
(17.7516 10.8887 1.7411e-16)
(17.2897 10.0461 -4.61992e-17)
(16.9056 9.14888 5.40998e-16)
(16.5982 8.18539 9.23389e-16)
(19.7963 12.29 1.02464e-17)
(19.3019 11.7455 1.72736e-17)
(18.8468 11.177 7.36183e-17)
(18.3928 10.4955 -2.70106e-16)
(17.9497 9.71751 -2.19022e-16)
(17.577 8.88978 -4.95728e-16)
(17.2731 7.99882 -6.98685e-16)
(17.057 7.06092 6.31946e-16)
(20.3031 11.7866 9.63357e-18)
(19.8349 11.2836 7.57936e-18)
(19.4032 10.7592 -3.957e-17)
(18.9699 10.1292 2.33898e-16)
(18.5446 9.40895 5.01565e-16)
(18.1833 8.64286 3.44999e-17)
(17.8843 7.81648 1.29578e-15)
(17.6651 6.94557 -4.95011e-16)
(17.5388 6.08415 -7.59897e-16)
(20.7605 11.3212 1.29304e-17)
(20.3161 10.8557 -2.56381e-17)
(19.9058 10.3705 -2.06196e-17)
(19.4917 9.78694 -3.30299e-17)
(19.0832 9.11852 4.15249e-16)
(18.7333 8.40767 -5.6299e-16)
(18.4401 7.63933 1.83253e-16)
(18.22 6.82867 1.23718e-17)
(18.0857 6.02667 -1.82544e-15)
(18.036 5.26482 5.66901e-16)
(21.1748 10.8892 -1.09545e-17)
(20.7521 10.4577 2.10201e-17)
(20.3615 10.008 1.53883e-16)
(19.9653 9.46624 4.15989e-17)
(19.5729 8.84471 -2.57641e-16)
(19.2342 8.18358 2.45931e-16)
(18.9475 7.4677 -4.77662e-18)
(18.7279 6.7117 9.31792e-16)
(18.5882 5.96351 1.37984e-16)
(18.5273 5.25294 -1.5844e-16)
(21.5512 10.4869 -3.20565e-18)
(21.1485 10.0863 -5.94211e-18)
(20.7761 9.6689 -1.28395e-16)
(20.3967 9.1651 -2.77798e-16)
(20.0196 8.5861 -4.13564e-16)
(19.692 7.97004 7.36639e-16)
(19.4122 7.30186 -7.77189e-16)
(19.1944 6.59559 1.99959e-16)
(19.0511 5.89644 5.01066e-16)
(18.9816 5.2326 2.4763e-16)
(18.9782 4.6066 3.44533e-16)
(21.894 10.1112 1.86363e-17)
(21.51 9.73891 4.24402e-17)
(21.1545 9.3508 1.36567e-16)
(20.7909 8.88167 -3.50691e-17)
(20.4283 8.34153 1.57023e-16)
(20.1117 7.76648 -7.48168e-16)
(19.8391 7.14191 6.54756e-16)
(19.6239 6.48111 9.32541e-16)
(19.4786 5.82683 1.73383e-17)
(19.4025 5.20575 5.71752e-16)
(19.3882 4.62027 2.8364e-16)
(22.2069 9.75944 -2.12574e-17)
(21.8404 9.41304 3.58479e-17)
(21.5007 9.05175 -1.21663e-16)
(21.152 8.61444 -1.30469e-16)
(20.8033 8.1099 -1.46815e-17)
(20.4974 7.57236 6.74341e-16)
(20.2322 6.98782 -9.46279e-17)
(20.0203 6.3688 -6.18296e-16)
(19.8742 5.75568 -6.1613e-16)
(19.7932 5.17392 -1.93198e-15)
(19.7702 4.62571 4.51439e-16)
(19.7964 4.11866 1.25005e-15)
(22.4932 9.42927 1.16806e-17)
(22.143 9.10675 9.18763e-18)
(21.8182 8.7701 1.33098e-16)
(21.4837 8.36205 2.84819e-16)
(21.1482 7.89026 -1.40494e-16)
(20.8529 7.38719 -5.14002e-16)
(20.5952 6.83951 7.73715e-17)
(20.3871 6.25897 -7.68584e-16)
(20.241 5.68382 3.90573e-16)
(20.1565 5.13829 7.25313e-16)
(20.1264 4.62449 -6.27729e-16)
(20.1424 4.14964 -6.89104e-16)
(22.7556 9.11883 -1.25683e-17)
(22.4207 8.81834 6.24717e-17)
(22.11 8.50438 -4.04113e-17)
(21.7889 8.12331 -3.83245e-17)
(21.4661 7.68173 -1.3326e-16)
(21.1811 7.2105 -4.05884e-16)
(20.9309 6.69686 -2.1791e-16)
(20.727 6.15189 -6.65486e-17)
(20.5817 5.61181 2.9782e-16)
(20.4947 5.09977 4.3545e-16)
(20.4589 4.61777 8.207e-16)
(20.4666 4.17274 -2.19407e-16)
(22.9964 8.82641 -1.10028e-17)
(22.676 8.54632 -8.66426e-17)
(22.3785 8.25332 -6.88427e-17)
(22.0703 7.89719 -6.23754e-17)
(21.7597 7.48357 -4.94906e-17)
(21.4846 7.04179 2.37451e-16)
(21.2419 6.5597 -1.21805e-15)
(21.0426 6.04768 1.03582e-16)
(20.8987 5.54012 1.81749e-15)
(20.81 5.05912 4.10329e-16)
(20.7698 4.60663 -1.43842e-15)
(20.7704 4.18925 -9.97931e-16)
(20.804 3.81314 2.19114e-16)
(23.2176 8.55054 1.31591e-17)
(22.9111 8.28935 -2.33268e-17)
(22.6261 8.01581 1.18499e-16)
(22.3301 7.68277 -4.11101e-16)
(22.0314 7.2951 -3.66881e-16)
(21.7659 6.88067 -1.92255e-16)
(21.5306 6.42785 4.57031e-16)
(21.3361 5.94647 7.79519e-16)
(21.194 5.46913 -7.99489e-16)
(21.1044 5.01696 7.35043e-16)
(21.0605 4.59184 -4.57777e-18)
(21.0553 4.20016 -2.68272e-16)
(21.081 3.84783 9.16636e-16)
(23.4212 8.28993 -1.02742e-17)
(23.1277 8.0463 -3.29683e-17)
(22.8547 7.79082 8.57324e-17)
(22.5704 7.47926 1.82375e-16)
(22.283 7.11571 3.58673e-16)
(22.0269 6.72671 2.62806e-16)
(21.799 6.30114 8.81572e-16)
(21.6093 5.84828 -1.48445e-15)
(21.4694 5.3991 1.29275e-16)
(21.3794 4.97374 -3.0723e-16)
(21.3328 4.57411 6.98695e-16)
(21.3226 4.20634 2.11379e-16)
(21.3417 3.87611 5.14845e-16)
(21.3841 3.57819 1.86287e-16)
(23.6086 8.04344 1.13934e-17)
(23.3276 7.8162 5.1936e-17)
(23.0659 7.57748 -1.54361e-16)
(22.7928 7.28589 7.8237e-17)
(22.5164 6.94485 3.42298e-16)
(22.2693 6.57953 -1.00195e-16)
(22.0488 6.17938 -4.55428e-16)
(21.864 5.75315 1.10762e-15)
(21.7266 5.33021 -9.93176e-16)
(21.6367 4.92986 8.40609e-16)
(21.5879 4.55397 -3.22787e-16)
(21.5736 4.20845 -4.30068e-16)
(21.587 3.89878 -7.51707e-16)
(21.6221 3.61999 1.01703e-16)
(23.7813 7.81007 -9.21863e-19)
(23.5122 7.5981 1.44529e-17)
(23.2614 7.37501 -9.47151e-17)
(22.9991 7.10203 2.0894e-16)
(22.7331 6.78199 -3.2904e-16)
(22.4949 6.43879 4.47048e-16)
(22.2815 6.06238 4.59704e-16)
(22.1018 5.66101 -4.75969e-16)
(21.9671 5.26262 -7.92679e-17)
(21.8776 4.88563 9.99982e-17)
(21.8271 4.53191 -3.84546e-16)
(21.8094 4.20714 5.29021e-16)
(21.8178 3.9166 3.22887e-16)
(21.8467 3.65558 4.58179e-17)
(23.9406 7.58893 -1.64687e-18)
(23.6828 7.39119 1.35078e-17)
(23.4424 7.18268 -4.22707e-18)
(23.1904 6.92709 -1.17887e-16)
(22.9346 6.62666 -3.61585e-16)
(22.705 6.30414 -2.86571e-16)
(22.4985 5.94996 -4.69981e-16)
(22.3239 5.57188 2.21174e-16)
(22.192 5.19645 7.56802e-17)
(22.1033 4.8413 -1.27872e-15)
(22.0516 4.50828 -2.21174e-16)
(22.031 4.20288 -4.8525e-16)
(22.0352 3.93017 9.06333e-16)
(22.0586 3.68569 -9.63784e-16)
(22.097 3.4648 -3.17411e-16)
(24.0875 7.37919 1.21002e-17)
(23.8406 7.19475 4.97025e-17)
(23.6101 6.99987 1.18999e-16)
(23.368 6.76053 1.54045e-16)
(23.1221 6.47846 2.85222e-16)
(22.9008 6.17529 2.78914e-16)
(22.7012 5.84193 -8.87908e-16)
(22.5316 5.48567 -4.3282e-16)
(22.4027 5.13177 7.51946e-16)
(22.3149 4.79706 1.37545e-15)
(22.2624 4.48342 6.99024e-16)
(22.2394 4.1961 -1.64684e-16)
(22.2399 3.94003 -2.27933e-16)
(22.2585 3.71094 1.07034e-15)
(22.2911 3.50443 -2.24957e-16)
(24.2232 7.18012 9.46505e-18)
(23.9866 7.00812 -1.5711e-17)
(23.7656 6.82598 -4.98674e-17)
(23.5331 6.60184 -7.90881e-17)
(23.2967 6.33697 -7.49451e-16)
(23.0834 6.05196 -1.50545e-16)
(22.8905 5.73812 4.55372e-16)
(22.7259 5.40234 4.06697e-16)
(22.6001 5.06863 -1.1379e-15)
(22.5135 4.75309 2.20292e-16)
(22.4604 4.45759 -1.13177e-16)
(22.4355 4.18718 9.29224e-18)
(22.4328 3.9466 -3.73392e-16)
(22.4471 3.73183 -5.81153e-16)
(22.4745 3.53868 2.10298e-17)
(24.3484 6.99109 -4.48873e-18)
(24.1218 6.83072 2.68043e-17)
(23.91 6.66049 4.2143e-17)
(23.6867 6.45059 1.88545e-17)
(23.4593 6.20186 1.07562e-16)
(23.2539 5.93387 6.71194e-16)
(23.0676 5.63835 -4.26196e-16)
(22.908 5.3218 3.25128e-16)
(22.7852 5.00707 1.16809e-15)
(22.6999 4.70951 -9.48703e-16)
(22.6466 4.431 8.23795e-16)
(22.62 4.1764 5.75148e-16)
(22.6145 3.9503 9.05497e-16)
(22.6251 3.74886 -1.45933e-16)
(22.648 3.56813 -3.70267e-16)
(22.6805 3.40547 -3.97236e-16)
(24.464 6.81149 -1.22369e-20)
(24.2469 6.66199 -8.66205e-17)
(24.044 6.50292 1.32386e-16)
(23.8295 6.30635 -5.39875e-17)
(23.611 6.07277 5.51842e-16)
(23.4131 5.82077 -3.93051e-16)
(23.2332 5.54246 7.76771e-17)
(23.0785 5.244 1.16461e-15)
(22.959 4.94708 -1.42133e-15)
(22.8751 4.66641 6.0103e-16)
(22.8217 4.40384 -9.77823e-16)
(22.7937 4.16405 -1.18336e-15)
(22.7859 3.95146 -5.56088e-16)
(22.7932 3.76245 2.36686e-16)
(22.812 3.59325 5.75672e-16)
(22.8398 3.44134 2.3006e-16)
(24.3629 6.50144 -3.12864e-17)
(24.1684 6.35284 -4.53049e-17)
(23.9625 6.16876 -3.02779e-17)
(23.7525 5.94941 -3.7293e-16)
(23.562 5.71242 6.65234e-16)
(23.3883 5.4503 -3.55728e-16)
(23.2385 5.16884 -1.45977e-15)
(23.1221 4.88868 1.3904e-15)
(23.0398 4.62387 1.9732e-16)
(22.9864 4.37626 4.40067e-16)
(22.9574 4.15033 5.27706e-16)
(22.9475 3.95037 -8.52746e-17)
(22.9519 3.77294 9.53304e-17)
(22.9672 3.61445 -5.75183e-16)
(22.9906 3.47252 3.07415e-16)
(23.0211 3.34312 -5.76126e-16)
(24.4703 6.34863 -1.98304e-17)
(24.284 6.20982 6.44134e-17)
(24.0864 6.03746 -2.57175e-16)
(23.8846 5.83149 7.93308e-17)
(23.7012 5.60861 -6.38619e-16)
(23.5336 5.36171 1.5589e-16)
(23.3886 5.09626 3.79315e-17)
(23.2753 4.83187 -4.91594e-17)
(23.1946 4.58197 -2.26026e-16)
(23.1416 4.34838 1.17644e-15)
(23.1116 4.13545 -1.26431e-16)
(23.0999 3.94729 1.02678e-15)
(23.1018 3.78064 -3.39178e-16)
(23.1139 3.63212 3.31589e-16)
(23.1336 3.49943 -2.48083e-16)
(23.1597 3.37875 4.32427e-16)
(24.5699 6.20312 -9.15625e-17)
(24.3914 6.07349 -1.19734e-17)
(24.2017 5.91213 4.13988e-16)
(24.0079 5.71874 1.49888e-17)
(23.8315 5.50912 3.82721e-16)
(23.6698 5.27655 -5.17334e-16)
(23.5294 5.02617 8.58183e-17)
(23.4194 4.77662 -2.64261e-16)
(23.3403 4.54075 2.10131e-16)
(23.2877 4.32034 -6.3666e-16)
(23.257 4.11959 -3.57571e-16)
(23.2438 3.94246 -1.12193e-15)
(23.2434 3.78587 3.44655e-16)
(23.2526 3.6466 1.31926e-16)
(23.269 3.52249 -1.15369e-16)
(23.2913 3.40986 -1.21437e-16)
(24.6622 6.06453 6.71682e-17)
(24.4912 5.94351 1.49066e-16)
(24.3093 5.79248 -1.75349e-16)
(24.1232 5.61091 -5.3702e-16)
(23.9534 5.41377 7.88793e-17)
(23.7976 5.19469 -1.40865e-16)
(23.6618 4.9585 4.76506e-16)
(23.5548 4.72294 6.9061e-16)
(23.4775 4.50026 -4.87287e-16)
(23.4254 4.29223 -7.31385e-16)
(23.3941 4.1029 1.43497e-15)
(23.3796 3.93607 6.52183e-16)
(23.3773 3.78885 -2.07966e-16)
(23.384 3.65819 1.01402e-16)
(23.3974 3.54202 5.41664e-16)
(23.4162 3.43684 4.38734e-16)
(23.4397 3.33982 6.41515e-17)
(24.7477 5.9325 -1.50368e-17)
(24.5839 5.81955 -1.65552e-16)
(24.4095 5.67821 2.16932e-17)
(24.2308 5.50778 8.1278e-16)
(24.0676 5.32238 -6.83138e-16)
(23.9174 5.11599 8.12664e-17)
(23.7861 4.89318 -4.27088e-17)
(23.6823 4.67078 -4.58549e-16)
(23.6068 4.46051 1.35203e-15)
(23.5552 4.26412 2.80692e-17)
(23.5236 4.08551 -1.36149e-15)
(23.5079 3.92831 3.61769e-16)
(23.5038 3.78983 -6.26071e-16)
(23.5083 3.66716 -5.26403e-16)
(23.519 3.55835 -2.12507e-16)
(23.5348 3.46007 9.07036e-17)
(23.5548 3.36958 5.97508e-17)
(24.8269 5.8067 -4.03918e-17)
(24.6702 5.70132 1.05537e-16)
(24.503 5.56908 1.01542e-16)
(24.3315 5.40912 -8.44041e-16)
(24.1746 5.23477 6.90715e-16)
(24.0299 5.04034 -2.71869e-16)
(23.903 4.83013 9.89554e-16)
(23.8023 4.62014 6.799e-16)
(23.7286 4.42155 -1.95857e-15)
(23.6776 4.23609 -8.96675e-16)
(23.6458 4.06752 3.78284e-16)
(23.6291 3.91934 -1.351e-16)
(23.6235 3.78901 4.2176e-16)
(23.626 3.67377 -3.40357e-16)
(23.6344 3.57179 -8.837e-17)
(23.6474 3.47987 -6.96235e-17)
(23.6644 3.39541 -7.29821e-17)
(24.9003 5.68682 1.35083e-18)
(24.7503 5.58853 1.13528e-16)
(24.5901 5.46484 -1.69445e-16)
(24.4256 5.31472 4.35877e-16)
(24.2749 5.15078 -2.63976e-16)
(24.1355 4.96761 4.76446e-16)
(24.013 4.76928 -9.33261e-16)
(23.9153 4.57098 -1.09299e-16)
(23.8434 4.38338 1.61425e-15)
(23.7932 4.2082 -1.16333e-16)
(23.7612 4.04905 -2.44378e-16)
(23.7437 3.90931 -6.26547e-17)
(23.7368 3.78657 5.76577e-16)
(23.7375 3.67825 3.08452e-16)
(23.7438 3.58259 -3.15642e-16)
(23.7544 3.49655 4.77871e-16)
(23.7686 3.41766 5.33589e-17)
(23.7861 3.34405 -3.8842e-16)
(24.9683 5.57257 -1.10581e-17)
(24.8249 5.48094 -1.8231e-16)
(24.6714 5.36526 4.27389e-17)
(24.5137 5.22441 3.60179e-17)
(24.3689 5.07026 -3.07093e-16)
(24.2347 4.89771 -3.50798e-16)
(24.1164 4.71057 -4.60613e-16)
(24.0218 4.52328 -1.13596e-15)
(23.9517 4.34603 6.13254e-16)
(23.9023 4.18052 1.21826e-15)
(23.8703 4.03021 4.25311e-16)
(23.8521 3.89835 4.56163e-17)
(23.844 3.7827 1.94632e-16)
(23.8432 3.6808 2.96963e-16)
(23.8476 3.591 -3.79498e-16)
(23.8561 3.51041 -9.42112e-17)
(23.8679 3.43665 3.68625e-16)
(23.8827 3.36794 -1.25818e-17)
(25.0313 5.46367 4.15232e-17)
(24.8942 5.37828 -5.81871e-17)
(24.7472 5.27014 9.57146e-18)
(24.596 5.138 -1.87321e-16)
(24.457 4.99307 6.68762e-16)
(24.3279 4.83051 1.06218e-15)
(24.2138 4.65393 -4.21161e-16)
(24.1222 4.47701 1.74407e-16)
(24.054 4.30951 -4.48945e-16)
(24.0055 4.15308 -1.09512e-15)
(23.9735 4.01106 -4.9865e-16)
(23.9547 3.88659 -3.07953e-16)
(23.9456 3.77755 -5.57224e-16)
(23.9434 3.68163 1.73722e-16)
(23.9462 3.59726 2.68194e-16)
(23.9528 3.52169 4.57878e-17)
(23.9624 3.45267 -1.9166e-16)
(23.9748 3.38847 -4.08209e-16)
(25.0897 5.35988 -4.71362e-17)
(24.9586 5.28034 1.07068e-16)
(24.818 5.17926 -1.72405e-16)
(24.6731 5.05533 -2.16122e-16)
(24.5397 4.91907 -4.2582e-16)
(24.4156 4.76593 2.89288e-17)
(24.3055 4.59929 1.09978e-15)
(24.2169 4.43216 -5.05356e-16)
(24.1505 4.27383 1.58988e-17)
(24.1029 4.12594 -2.64823e-16)
(24.0711 3.9917 5.86833e-16)
(24.0519 3.87414 1.07917e-16)
(24.0419 3.77127 -4.59832e-16)
(24.0385 3.68091 5.21953e-16)
(24.0399 3.60157 1.06227e-16)
(24.0448 3.53065 -3.02627e-16)
(24.0525 3.466 5.81944e-16)
(24.0627 3.40596 -5.04777e-16)
(24.0753 3.34882 8.20333e-17)
(25.1437 5.26096 -9.02334e-17)
(25.0185 5.18689 6.83736e-17)
(24.884 5.09245 2.11875e-16)
(24.7453 4.97622 1.50977e-16)
(24.6173 4.84813 4.27503e-16)
(24.498 4.70386 -6.24969e-16)
(24.392 4.5466 -1.67322e-15)
(24.3062 4.38868 1.37213e-16)
(24.2417 4.239 -1.2449e-16)
(24.1951 4.09913 8.71336e-16)
(24.1635 3.9722 1.02085e-15)
(24.144 3.86111 -2.45908e-16)
(24.1332 3.76399 4.53503e-16)
(24.1288 3.6788 -4.1152e-16)
(24.1289 3.60413 -6.48498e-16)
(24.1323 3.53751 -1.90691e-16)
(24.1384 3.47689 -2.50621e-17)
(24.1467 3.42069 5.64766e-16)
(24.1572 3.36725 -7.37243e-18)
(25.1937 5.16668 5.42611e-17)
(25.0742 5.09774 -1.60364e-16)
(24.9456 5.00952 -2.16112e-17)
(24.8128 4.90055 -2.49437e-16)
(24.6902 4.78013 1.84444e-16)
(24.5756 4.64422 6.41984e-16)
(24.4734 4.49579 1.31298e-15)
(24.3906 4.34657 -3.80001e-16)
(24.328 4.20501 -6.1376e-17)
(24.2823 4.0727 -8.41375e-16)
(24.251 3.95262 -2.57381e-16)
(24.2312 3.84759 3.98032e-17)
(24.2199 3.75584 -7.63724e-16)
(24.2145 3.67546 -5.32272e-17)
(24.2135 3.60512 4.66838e-16)
(24.2156 3.54247 4.38318e-16)
(24.2202 3.48557 -3.09774e-16)
(24.2269 3.43291 -3.10891e-16)
(24.2355 3.38289 1.67917e-16)
(25.24 5.07682 -1.23485e-17)
(25.1259 5.01269 7.34454e-17)
(25.0031 4.93031 -2.63388e-16)
(24.8761 4.82815 -7.99887e-17)
(24.7586 4.71496 2.09606e-16)
(24.6486 4.58692 -4.34801e-16)
(24.5503 4.44683 -5.40105e-16)
(24.4703 4.30578 -1.20898e-16)
(24.4095 4.17189 8.36712e-16)
(24.3649 4.04667 -2.82421e-16)
(24.334 3.93303 6.84352e-17)
(24.314 3.83367 -5.9246e-16)
(24.3022 3.74694 3.52472e-16)
(24.296 3.67103 2.83347e-16)
(24.294 3.60471 -2.70071e-16)
(24.295 3.54574 2.6877e-16)
(24.2983 3.49228 1.20616e-16)
(24.3035 3.44288 -3.65493e-16)
(24.3106 3.39601 3.31753e-16)
(24.3195 3.3503 5.61236e-17)
(25.2828 4.99119 3.65701e-18)
(25.1741 4.93156 -1.35835e-17)
(25.0568 4.85465 6.53909e-17)
(24.9354 4.7589 2.01477e-16)
(24.8229 4.65252 -2.93985e-16)
(24.7173 4.53189 -4.68269e-16)
(24.6228 4.39964 9.91409e-16)
(24.5456 4.26631 1.07076e-15)
(24.4867 4.13962 2.86764e-16)
(24.4432 4.02109 -2.98224e-16)
(24.4126 3.91349 3.14909e-16)
(24.3926 3.81943 6.30321e-16)
(24.3803 3.73739 -7.02067e-16)
(24.3735 3.66566 2.15077e-16)
(24.3707 3.60307 7.99765e-16)
(24.3707 3.54751 -6.06402e-16)
(24.3729 3.49722 -1.95737e-16)
(24.3768 3.45082 1.743e-16)
(24.3824 3.40686 -1.2942e-16)
(24.3897 3.364 3.14419e-16)
(25.3224 4.9096 -3.46535e-18)
(25.2188 4.85418 -3.77641e-17)
(25.1069 4.7824 2.23816e-16)
(24.9909 4.69267 5.15554e-17)
(24.8833 4.59269 3.21065e-16)
(24.7821 4.47904 -3.3226e-16)
(24.6912 4.35419 -3.51617e-16)
(24.6168 4.22812 -3.38701e-16)
(24.5598 4.10822 -1.27073e-15)
(24.5174 3.99596 7.71135e-16)
(24.4873 3.89404 -8.81274e-16)
(24.4673 3.80496 -5.60916e-16)
(24.4547 3.7273 4.03868e-16)
(24.4473 3.65945 -1.05854e-16)
(24.4437 3.60033 -2.30709e-17)
(24.4428 3.54793 -5.1955e-17)
(24.4441 3.50057 -1.51783e-16)
(24.4469 3.45695 -2.7708e-16)
(24.4513 3.41567 3.63094e-16)
(24.4572 3.37545 -3.99159e-16)
(25.359 4.83187 -2.05622e-17)
(25.2603 4.78039 1.17012e-16)
(25.1537 4.71341 3.10557e-17)
(25.043 4.62935 -4.12304e-16)
(24.94 4.53538 2.24541e-16)
(24.8431 4.42831 8.32841e-16)
(24.7559 4.31042 -6.1922e-16)
(24.6842 4.1912 4.99987e-16)
(24.629 4.07769 1.79937e-15)
(24.5877 3.97134 2.97624e-17)
(24.5582 3.87474 4.75986e-16)
(24.5382 3.79032 -1.62638e-16)
(24.5253 3.71676 -2.7032e-16)
(24.5175 3.65254 -4.39979e-17)
(24.5133 3.59664 1.16931e-16)
(24.5117 3.54717 8.16735e-16)
(24.5121 3.50253 -2.32375e-17)
(24.514 3.46148 -3.41766e-16)
(24.5173 3.42267 2.75443e-16)
(24.522 3.38488 -1.25584e-16)
(24.5282 3.34703 6.59725e-17)
(25.3929 4.75783 1.53399e-17)
(25.299 4.71003 -7.24838e-17)
(25.1974 4.64756 -7.3206e-17)
(25.0918 4.56881 5.9167e-16)
(24.9934 4.4805 -2.17554e-16)
(24.9006 4.37961 1.95907e-16)
(24.817 4.26829 -1.20371e-16)
(24.748 4.15552 -1.85227e-15)
(24.6947 4.04803 -1.58256e-16)
(24.6545 3.94723 6.78299e-16)
(24.6255 3.85563 4.20268e-16)
(24.6057 3.77558 -4.64837e-16)
(24.5926 3.70585 1.93136e-16)
(24.5844 3.64502 -3.25152e-17)
(24.5797 3.59212 -1.87108e-16)
(24.5775 3.54537 2.76918e-16)
(24.5771 3.50324 -1.90043e-16)
(24.5782 3.46457 5.16892e-16)
(24.5806 3.42805 -3.58887e-16)
(24.5843 3.39251 1.30714e-16)
(24.5893 3.35692 -7.98049e-17)
(25.4242 4.68731 -2.26403e-17)
(25.3349 4.64296 6.04761e-17)
(25.2382 4.5847 -4.2799e-17)
(25.1375 4.51094 -4.80526e-16)
(25.0436 4.42796 -4.67476e-16)
(24.9549 4.33289 -1.20618e-15)
(24.8748 4.22775 1.4231e-15)
(24.8084 4.12105 6.16106e-16)
(24.7569 4.01923 3.89818e-16)
(24.7179 3.92366 -1.41856e-15)
(24.6895 3.83676 -6.12286e-16)
(24.6698 3.76082 -5.9465e-16)
(24.6567 3.69467 3.08941e-16)
(24.6482 3.63699 -1.34299e-16)
(24.643 3.5869 -1.75747e-16)
(24.6403 3.54267 1.9239e-16)
(24.6393 3.50288 -4.29811e-16)
(24.6398 3.46641 1.14409e-16)
(24.6414 3.43201 -1.55279e-16)
(24.6441 3.39856 -1.51751e-16)
(24.6481 3.36505 3.15829e-16)
(25.453 4.62017 -2.19466e-17)
(25.3682 4.57904 8.41455e-17)
(25.2764 4.52472 7.41226e-17)
(25.1805 4.45565 2.19477e-16)
(25.0909 4.37767 7.31334e-16)
(25.0062 4.28809 6.76398e-16)
(24.9294 4.18876 -2.58376e-16)
(24.8657 4.08779 2.93754e-16)
(24.816 3.9913 -4.2136e-16)
(24.7781 3.90065 1.08019e-16)
(24.7503 3.81817 9.04986e-16)
(24.7309 3.74607 5.92742e-16)
(24.7177 3.68328 -1.31469e-16)
(24.709 3.62856 -3.48004e-16)
(24.7035 3.58108 -4.55656e-17)
(24.7003 3.53921 1.81815e-16)
(24.6989 3.50158 -2.63265e-16)
(24.6987 3.46715 2.86732e-17)
(24.6997 3.43471 -2.0969e-16)
(24.7017 3.4032 -7.04591e-17)
(24.7048 3.37163 8.93678e-17)
(25.4797 4.55625 -1.5722e-17)
(25.3992 4.51813 3.38e-18)
(25.312 4.46751 -8.10163e-17)
(25.2207 4.40284 -3.54284e-17)
(25.1354 4.32956 -1.95861e-16)
(25.0546 4.24514 4.04768e-16)
(24.9811 4.15129 -1.04552e-15)
(24.92 4.0557 8.74693e-16)
(24.8721 3.96423 2.15627e-16)
(24.8353 3.87821 -6.01539e-16)
(24.8082 3.79989 7.11669e-16)
(24.7891 3.7314 -3.56327e-16)
(24.7759 3.67177 1.28246e-16)
(24.7671 3.61981 3.60418e-16)
(24.7613 3.57476 1.28346e-16)
(24.7578 3.53508 -8.47391e-17)
(24.7559 3.49948 3.34341e-16)
(24.7553 3.46694 -4.68854e-16)
(24.7557 3.43633 2.8523e-16)
(24.757 3.40661 -1.55172e-17)
(24.7594 3.37684 2.17229e-16)
(24.7629 3.34604 -2.26521e-16)
(25.5043 4.49543 -1.12646e-17)
(25.428 4.46012 5.03748e-17)
(25.3453 4.41295 3.3909e-17)
(25.2586 4.35241 1.28438e-16)
(25.1774 4.28354 -1.94382e-16)
(25.1003 4.20397 -6.4536e-16)
(25.0301 4.11528 8.52976e-16)
(24.9715 4.02477 -4.48643e-16)
(24.9253 3.93804 -4.75733e-16)
(24.8897 3.85636 1.27815e-15)
(24.8633 3.78195 -1.09637e-15)
(24.8446 3.71686 -2.12053e-16)
(24.8315 3.66018 6.89597e-16)
(24.8225 3.61082 -7.71846e-16)
(24.8166 3.56805 1.67549e-16)
(24.8128 3.53042 -2.62641e-16)
(24.8106 3.4967 5.72348e-17)
(24.8096 3.46592 7.7608e-17)
(24.8095 3.43701 -4.45009e-17)
(24.8103 3.40896 -1.5508e-16)
(24.812 3.38087 -8.93101e-18)
(24.8148 3.35178 2.76199e-16)
(25.527 4.43756 3.36949e-17)
(25.4548 4.40487 -3.0016e-17)
(25.3764 4.36093 8.19102e-17)
(25.2941 4.30426 1.41344e-16)
(25.2169 4.23955 9.05472e-17)
(25.1436 4.16455 8.98892e-16)
(25.0766 4.08071 -1.21126e-16)
(25.0203 3.99498 -3.06235e-16)
(24.9759 3.9127 4.73297e-16)
(24.9415 3.83512 -1.72565e-15)
(24.9158 3.76439 9.19089e-16)
(24.8974 3.70249 5.68061e-16)
(24.8845 3.64859 -1.09178e-16)
(24.8756 3.60166 7.448e-16)
(24.8695 3.56103 -6.83522e-16)
(24.8655 3.52531 4.0768e-16)
(24.863 3.49335 5.02986e-16)
(24.8617 3.46421 -4.15244e-16)
(24.8613 3.43687 -3.62852e-17)
(24.8616 3.41038 -9.39612e-17)
(24.8628 3.38386 1.70496e-16)
(24.8649 3.35637 -7.63747e-17)
(25.5479 4.38251 3.37918e-17)
(25.4796 4.35228 -2.49478e-17)
(25.4055 4.31136 -5.61304e-17)
(25.3275 4.25832 -3.28151e-16)
(25.2542 4.19752 3.32981e-17)
(25.1845 4.12681 -7.18082e-16)
(25.1206 4.04753 -7.51439e-16)
(25.0667 3.96631 -3.77307e-16)
(25.024 3.88822 -7.41924e-16)
(24.9908 3.8145 -1.13475e-17)
(24.9658 3.74723 -3.99711e-16)
(24.9479 3.68834 -3.4165e-16)
(24.9352 3.63705 -1.017e-16)
(24.9263 3.59241 -4.95923e-16)
(24.9202 3.55378 4.22787e-17)
(24.9161 3.51985 1.41099e-16)
(24.9134 3.48952 -3.26506e-16)
(24.9118 3.46192 -1.05177e-16)
(24.911 3.43605 3.50878e-16)
(24.911 3.41101 -1.07791e-16)
(24.9118 3.38595 1.98343e-16)
(24.9133 3.35996 7.53342e-17)
(25.5672 4.33018 -1.6855e-17)
(25.5027 4.30223 -3.59773e-18)
(25.4327 4.26413 -7.67658e-17)
(25.3588 4.21451 -2.06081e-16)
(25.2894 4.15737 -2.42532e-16)
(25.2233 4.09069 9.09132e-17)
(25.1623 4.01572 6.89771e-16)
(25.1108 3.93873 1.72755e-15)
(25.0698 3.86459 -7.20387e-16)
(25.0377 3.79451 -4.18743e-17)
(25.0136 3.7305 2.47392e-16)
(24.9962 3.67444 -4.35286e-17)
(24.9837 3.62561 -6.98932e-17)
(24.9749 3.58311 -4.33209e-16)
(24.9688 3.54636 -2.80534e-16)
(24.9645 3.51412 5.00345e-16)
(24.9617 3.48532 -1.44294e-16)
(24.9598 3.45915 -4.70612e-17)
(24.9588 3.43465 1.29243e-18)
(24.9585 3.41096 -2.73031e-18)
(24.9589 3.38726 -8.08488e-17)
(24.96 3.36268 -3.04365e-16)
(24.962 3.33619 8.74361e-17)
(25.5849 4.28043 -1.55414e-17)
(25.5242 4.25462 5.87812e-17)
(25.4582 4.21916 1.91409e-16)
(25.3883 4.17274 1.14273e-16)
(25.3227 4.11905 -1.97466e-16)
(25.26 4.05616 -4.24351e-16)
(25.202 3.98522 3.75084e-16)
(25.1527 3.91224 -1.21485e-15)
(25.1133 3.84181 1.96378e-15)
(25.0825 3.77516 5.11099e-16)
(25.0592 3.71423 -6.10919e-16)
(25.0423 3.66084 1.39396e-16)
(25.0301 3.61432 9.56722e-16)
(25.0214 3.57384 -6.79771e-16)
(25.0153 3.53885 2.08342e-17)
(25.011 3.50818 1.63541e-16)
(25.008 3.48082 2.20713e-16)
(25.006 3.45598 -2.37269e-17)
(25.0048 3.43276 -3.36196e-16)
(25.0042 3.41033 5.15892e-16)
(25.0042 3.3879 -4.03341e-16)
(25.0049 3.36463 3.22595e-16)
(25.0064 3.33952 4.23365e-18)
(25.6013 4.23317 -3.97303e-17)
(25.5442 4.20935 9.40812e-17)
(25.482 4.17635 -5.58438e-18)
(25.4161 4.13294 -8.5373e-17)
(25.3541 4.08248 -5.21708e-17)
(25.2948 4.02316 8.55719e-16)
(25.2396 3.95602 -2.3245e-16)
(25.1925 3.8868 5.83421e-16)
(25.1548 3.81988 -2.01038e-15)
(25.1252 3.75645 -3.98343e-16)
(25.1028 3.69842 9.08666e-16)
(25.0864 3.64754 5.5708e-17)
(25.0745 3.6032 -1.81864e-16)
(25.0659 3.56462 -7.50853e-16)
(25.0598 3.53129 8.35902e-16)
(25.0554 3.50209 -2.65752e-17)
(25.0523 3.47606 -2.98683e-16)
(25.0502 3.45247 -3.0038e-17)
(25.0488 3.43045 7.21755e-17)
(25.0479 3.4092 -9.63655e-17)
(25.0477 3.38795 3.28977e-16)
(25.048 3.36591 -4.11129e-16)
(25.0491 3.34211 2.24492e-16)
(25.6163 4.18829 -5.22444e-18)
(25.5627 4.16633 7.76444e-18)
(25.5044 4.13562 -1.08367e-16)
(25.4423 4.09504 -2.43224e-16)
(25.3838 4.04762 2.35088e-16)
(25.3278 3.99164 -1.0806e-15)
(25.2753 3.92808 5.35938e-16)
(25.2304 3.86242 -4.61849e-17)
(25.1944 3.79879 4.88154e-16)
(25.1661 3.7384 -1.52131e-16)
(25.1444 3.68309 6.00772e-16)
(25.1286 3.63458 -2.81041e-16)
(25.117 3.5923 4.1691e-16)
(25.1085 3.55549 8.03193e-17)
(25.1024 3.52371 3.53046e-16)
(25.0979 3.49589 -2.35889e-16)
(25.0947 3.47112 -2.57937e-16)
(25.0924 3.44869 2.00125e-16)
(25.0908 3.42779 -1.78883e-16)
(25.0898 3.40763 1.14007e-16)
(25.0893 3.38749 -1.53424e-16)
(25.0893 3.36661 3.33317e-16)
(25.09 3.34402 -1.75041e-16)
(25.6301 4.14568 -5.34892e-18)
(25.58 4.12545 1.18473e-17)
(25.5253 4.09689 -1.25804e-16)
(25.4669 4.05896 5.31232e-16)
(25.412 4.0144 -1.94065e-16)
(25.3591 3.96157 1.14213e-15)
(25.3092 3.90137 7.29482e-16)
(25.2665 3.83907 1.24345e-16)
(25.2322 3.77853 9.96889e-16)
(25.2051 3.72099 3.24297e-17)
(25.1842 3.66826 -8.37099e-16)
(25.1688 3.62198 -6.56304e-16)
(25.1575 3.58161 -4.12907e-16)
(25.1491 3.54647 4.8591e-16)
(25.1429 3.51614 -1.89614e-17)
(25.1384 3.48961 4.96577e-16)
(25.1351 3.46602 -4.75433e-16)
(25.1327 3.44468 6.22396e-18)
(25.1309 3.42482 -9.01208e-17)
(25.1297 3.40569 -1.42498e-16)
(25.129 3.38659 6.15233e-18)
(25.1288 3.36679 -9.41302e-17)
(25.1291 3.34536 1.1479e-16)
(25.6429 4.10525 4.15953e-17)
(25.596 4.08664 -6.99144e-17)
(25.5449 4.06008 2.83875e-16)
(25.4902 4.02465 -5.38119e-16)
(25.4387 3.98276 1.96243e-16)
(25.3888 3.93289 -1.34407e-15)
(25.3415 3.87585 -6.61248e-16)
(25.3009 3.81673 5.04708e-16)
(25.2683 3.75909 -1.09522e-15)
(25.2423 3.70422 4.54459e-16)
(25.2222 3.65391 8.12531e-17)
(25.2072 3.60972 5.05116e-17)
(25.196 3.57115 -2.37951e-16)
(25.1877 3.53758 -2.68323e-16)
(25.1815 3.50861 8.44778e-17)
(25.177 3.48329 3.53277e-16)
(25.1736 3.4608 -3.03023e-16)
(25.171 3.44048 4.03648e-16)
(25.1691 3.4216 -1.64166e-16)
(25.1678 3.40344 9.96051e-17)
(25.1669 3.38532 -2.43989e-16)
(25.1664 3.36653 3.00511e-16)
(25.1665 3.34619 -5.07206e-17)
(25.1673 3.32376 -1.51436e-16)
(25.6545 4.0669 -2.30532e-17)
(25.6109 4.04981 4.05049e-17)
(25.5633 4.02512 -4.24629e-17)
(25.5121 3.99205 -1.82713e-16)
(25.4639 3.95266 -4.08423e-17)
(25.4171 3.90556 8.4416e-16)
(25.3721 3.85152 3.54594e-16)
(25.3337 3.7954 -1.28861e-15)
(25.3028 3.74045 -5.9356e-16)
(25.2779 3.68808 3.72474e-16)
(25.2584 3.64004 -5.30376e-16)
(25.2437 3.59781 8.41048e-16)
(25.2326 3.56093 1.22264e-16)
(25.2243 3.52883 1.04195e-16)
(25.2182 3.50114 -1.34534e-17)
(25.2136 3.47696 7.46315e-17)
(25.2101 3.4555 -7.21947e-16)
(25.2075 3.43616 2.07731e-16)
(25.2055 3.4182 8.09261e-17)
(25.2041 3.40094 8.96714e-17)
(25.203 3.38375 -1.7669e-16)
(25.2024 3.36592 1.87347e-16)
(25.2023 3.3466 6.65521e-17)
(25.2027 3.32528 -5.78777e-17)
(25.6652 4.03055 -1.15531e-17)
(25.6248 4.01487 -2.814e-17)
(25.5806 3.99192 1.07504e-16)
(25.5328 3.96108 1.66376e-16)
(25.4879 3.92404 2.94847e-16)
(25.4439 3.87956 7.5535e-17)
(25.4013 3.82834 5.08765e-17)
(25.3651 3.77507 2.84685e-16)
(25.3358 3.72259 1.65731e-15)
(25.3118 3.67255 8.27558e-17)
(25.2928 3.62664 6.79904e-16)
(25.2783 3.58625 -7.12442e-16)
(25.2673 3.55095 -1.35004e-16)
(25.2591 3.52023 1.16578e-16)
(25.2529 3.49376 -3.70621e-17)
(25.2483 3.47066 1.45118e-16)
(25.2449 3.45019 -6.67546e-17)
(25.2422 3.43175 4.6455e-16)
(25.2402 3.41466 -4.94653e-16)
(25.2386 3.39826 3.11649e-16)
(25.2375 3.38193 -5.02391e-16)
(25.2368 3.36501 3.32117e-16)
(25.2364 3.34666 -2.55599e-16)
(25.2366 3.32639 -9.55121e-17)
(25.6751 3.99611 2.02015e-17)
(25.6377 3.98175 -1.02398e-17)
(25.5968 3.96043 -2.64405e-16)
(25.5524 3.9317 1.36058e-16)
(25.5107 3.89684 -5.67038e-16)
(25.4694 3.85485 1.67367e-16)
(25.4291 3.80629 -1.53948e-17)
(25.3952 3.75573 1.24712e-15)
(25.3673 3.70548 -1.99831e-15)
(25.344 3.6576 3.68771e-16)
(25.3253 3.61371 -7.08042e-16)
(25.311 3.57504 5.41198e-16)
(25.3002 3.54124 -2.62806e-16)
(25.2921 3.51183 -2.60713e-16)
(25.286 3.48651 1.5341e-16)
(25.2814 3.46443 -2.40292e-17)
(25.278 3.44489 -1.13415e-18)
(25.2753 3.42731 1.493e-17)
(25.2732 3.41104 3.14983e-16)
(25.2716 3.39544 -2.18335e-19)
(25.2704 3.37993 -2.91271e-17)
(25.2695 3.36385 -1.82094e-16)
(25.269 3.34642 2.38445e-17)
(25.269 3.32714 3.45991e-17)
(25.6841 3.96349 -4.5987e-17)
(25.6497 3.95036 -3.42174e-17)
(25.6121 3.93057 2.81412e-17)
(25.5709 3.90383 -4.75198e-16)
(25.5324 3.87102 3.45836e-16)
(25.4936 3.83138 -5.51975e-16)
(25.4556 3.78533 -7.33025e-16)
(25.424 3.73736 -7.89775e-16)
(25.3974 3.68911 1.12063e-15)
(25.3745 3.64324 -9.41138e-16)
(25.356 3.60125 5.48199e-16)
(25.342 3.56422 3.53898e-16)
(25.3314 3.53182 -4.01058e-17)
(25.3235 3.50366 1.64451e-16)
(25.3175 3.47942 -4.11029e-19)
(25.3129 3.4583 2.1555e-16)
(25.3095 3.43963 -1.19335e-17)
(25.3068 3.42286 -3.26774e-16)
(25.3046 3.40735 -4.78758e-17)
(25.303 3.3925 8.64627e-17)
(25.3016 3.37774 -6.48705e-17)
(25.3006 3.36246 -5.5035e-18)
(25.2999 3.34587 5.69406e-17)
(25.2997 3.32753 4.62217e-17)
(25.6923 3.9326 2.36082e-17)
(25.6609 3.92062 -2.59466e-17)
(25.6264 3.90226 6.23308e-17)
(25.5885 3.87743 5.44558e-16)
(25.5529 3.84651 8.11083e-16)
(25.5165 3.80913 1.87543e-16)
(25.4808 3.76543 4.05917e-16)
(25.4515 3.71997 -2.02443e-16)
(25.4259 3.67341 9.48311e-16)
(25.4033 3.62943 -8.66371e-16)
(25.3851 3.58929 1.8429e-16)
(25.3715 3.5538 -1.0196e-16)
(25.3612 3.52273 -1.87648e-16)
(25.3533 3.49573 -1.59641e-16)
(25.3474 3.4725 -2.03943e-16)
(25.3428 3.45228 1.45088e-16)
(25.3393 3.43442 -1.09391e-16)
(25.3365 3.41838 -3.24747e-17)
(25.3343 3.40358 -8.89918e-17)
(25.3325 3.38943 2.59506e-16)
(25.331 3.37538 2.18223e-16)
(25.3298 3.36083 -2.08949e-17)
(25.3289 3.34504 -5.78573e-17)
(25.3284 3.32757 -1.20023e-16)
(25.6999 3.90336 -2.46203e-18)
(25.6713 3.89244 -7.37273e-17)
(25.6399 3.87545 1.30801e-16)
(25.6051 3.85244 -3.88623e-16)
(25.5726 3.82329 -9.73648e-16)