/*--------------------------------*- C++ -*----------------------------------*\
| =========                 |                                                 |
| \\      /  F ield         | OpenFOAM: The Open Source CFD Toolbox           |
|  \\    /   O peration     | Version:  2506                                  |
|   \\  /    A nd           | Website:  www.openfoam.com                      |
|    \\/     M anipulation  |                                                 |
\*---------------------------------------------------------------------------*/
FoamFile
{
    version     2.0;
    format      ascii;
    arch        "LSB;label=32;scalar=64";
    class       volScalarField;
    location    "250";
    object      nut;
}
// * * * * * * * * * * * * * * * * * * * * * * * * * * * * * * * * * * * * * //

dimensions      [0 2 -1 0 0 0 0];

internalField   nonuniform List<scalar> 
1340
(
0.106579
0.104431
0.101993
0.0924596
0.0700016
0.0717344
0.0753101
0.0784791
0.0396102
0.0470111
0.0536845
0.0631722
0.00692582
0.0131195
0.0218505
0.0392336
0.0016501
0.000737135
0.00165019
0.0137055
3.06257e-09
0.000163926
0.000431715
0.00238836
1.16233e-06
1.09406e-08
1.81673e-11
6.24245e-05
5.58424e-06
2.98782e-06
1.76911e-08
6.172e-07
6.21099e-06
6.6178e-06
4.48199e-06
2.56707e-09
6.19265e-06
5.82581e-06
8.76825e-06
5.57638e-07
6.16483e-06
5.85402e-06
7.15796e-06
4.35165e-06
6.11902e-06
6.05861e-06
6.20617e-06
6.15898e-06
6.10235e-06
6.11646e-06
6.05204e-06
6.25771e-06
6.10146e-06
6.11213e-06
6.08065e-06
6.14651e-06
6.1024e-06
6.10497e-06
6.10153e-06
6.10691e-06
6.10235e-06
6.10265e-06
6.10516e-06
6.10211e-06
6.10197e-06
6.10216e-06
6.10423e-06
6.1029e-06
6.10165e-06
6.10191e-06
6.1033e-06
6.10304e-06
6.10144e-06
6.10168e-06
6.10277e-06
6.10272e-06
6.1013e-06
6.10149e-06
6.10243e-06
6.10237e-06
6.10122e-06
6.10135e-06
6.10216e-06
6.1021e-06
6.10118e-06
6.10126e-06
6.10195e-06
6.10188e-06
6.10116e-06
6.10121e-06
6.10177e-06
6.10172e-06
6.10113e-06
6.10114e-06
6.1016e-06
6.10158e-06
6.10111e-06
6.10111e-06
6.10146e-06
6.10146e-06
6.10108e-06
6.10106e-06
6.10132e-06
6.10136e-06
6.101e-06
6.10099e-06
6.10117e-06
6.10126e-06
6.10087e-06
6.10093e-06
6.10104e-06
6.10117e-06
6.10071e-06
6.10084e-06
6.1009e-06
6.10108e-06
6.10051e-06
6.10071e-06
6.10072e-06
6.10095e-06
6.10029e-06
6.10053e-06
6.10058e-06
6.10087e-06
6.10003e-06
6.1003e-06
6.10041e-06
6.10078e-06
6.09973e-06
6.10003e-06
6.10018e-06
6.10063e-06
6.09939e-06
6.09972e-06
6.0999e-06
6.10042e-06
6.09899e-06
6.09935e-06
6.09957e-06
6.10015e-06
6.09854e-06
6.09892e-06
6.09917e-06
6.09981e-06
6.09803e-06
6.09843e-06
6.0987e-06
6.09938e-06
6.09746e-06
6.09787e-06
6.09816e-06
6.09888e-06
6.09648e-06
6.09682e-06
6.09724e-06
6.09754e-06
6.0983e-06
6.09577e-06
6.09611e-06
6.09653e-06
6.09685e-06
6.09763e-06
6.09499e-06
6.09533e-06
6.09575e-06
6.09607e-06
6.09687e-06
6.09415e-06
6.09449e-06
6.09491e-06
6.09523e-06
6.09603e-06
6.09326e-06
6.09359e-06
6.094e-06
6.09432e-06
6.09512e-06
6.09234e-06
6.09265e-06
6.09305e-06
6.09337e-06
6.09415e-06
6.09138e-06
6.09168e-06
6.09208e-06
6.09239e-06
6.09315e-06
6.09042e-06
6.09071e-06
6.0911e-06
6.09139e-06
6.09213e-06
6.08947e-06
6.08975e-06
6.09012e-06
6.09041e-06
6.09112e-06
6.08853e-06
6.08881e-06
6.08916e-06
6.08945e-06
6.09012e-06
6.08761e-06
6.08788e-06
6.08823e-06
6.0885e-06
6.08915e-06
6.08668e-06
6.08694e-06
6.08728e-06
6.08755e-06
6.08818e-06
6.08569e-06
6.08594e-06
6.08627e-06
6.08655e-06
6.08716e-06
6.08456e-06
6.08481e-06
6.08513e-06
6.08541e-06
6.08601e-06
6.08303e-06
6.08323e-06
6.08346e-06
6.08377e-06
6.08404e-06
6.08465e-06
6.08145e-06
6.08162e-06
6.08183e-06
6.08212e-06
6.08238e-06
6.08298e-06
6.07959e-06
6.07974e-06
6.07991e-06
6.08017e-06
6.0804e-06
6.08098e-06
6.07753e-06
6.07764e-06
6.07778e-06
6.078e-06
6.07819e-06
6.07871e-06
6.07544e-06
6.07551e-06
6.07561e-06
6.07577e-06
6.07591e-06
6.07636e-06
6.07357e-06
6.0736e-06
6.07366e-06
6.07377e-06
6.07386e-06
6.0742e-06
6.0722e-06
6.07221e-06
6.07223e-06
6.0723e-06
6.07233e-06
6.07254e-06
6.07163e-06
6.07164e-06
6.07164e-06
6.07165e-06
6.07166e-06
6.07173e-06
6.07223e-06
6.07226e-06
6.07229e-06
6.07229e-06
6.0723e-06
6.07225e-06
6.07366e-06
6.07377e-06
6.07385e-06
6.07391e-06
6.07394e-06
6.07399e-06
6.07383e-06
6.07594e-06
6.0761e-06
6.07624e-06
6.07636e-06
6.07643e-06
6.07652e-06
6.07637e-06
6.07894e-06
6.07918e-06
6.07938e-06
6.07956e-06
6.07969e-06
6.07984e-06
6.07974e-06
6.0825e-06
6.08281e-06
6.0831e-06
6.08335e-06
6.08356e-06
6.08378e-06
6.08374e-06
6.08638e-06
6.08676e-06
6.08711e-06
6.08744e-06
6.08772e-06
6.08803e-06
6.08808e-06
6.09032e-06
6.09076e-06
6.09117e-06
6.09155e-06
6.0919e-06
6.09228e-06
6.09241e-06
6.09359e-06
6.09408e-06
6.09455e-06
6.09501e-06
6.09544e-06
6.09592e-06
6.09617e-06
6.09585e-06
6.09638e-06
6.0969e-06
6.09742e-06
6.09793e-06
6.09851e-06
6.09891e-06
6.0976e-06
6.09814e-06
6.09868e-06
6.09922e-06
6.09977e-06
6.10039e-06
6.1009e-06
6.09896e-06
6.09951e-06
6.10005e-06
6.10061e-06
6.10119e-06
6.10183e-06
6.10239e-06
6.09966e-06
6.10024e-06
6.10081e-06
6.10139e-06
6.10198e-06
6.10259e-06
6.10327e-06
6.10386e-06
6.10166e-06
6.10236e-06
6.10305e-06
6.10374e-06
6.10445e-06
6.10517e-06
6.10597e-06
6.10663e-06
6.10554e-06
6.10649e-06
6.10742e-06
6.10836e-06
6.10932e-06
6.1103e-06
6.11141e-06
6.1123e-06
6.11146e-06
6.11269e-06
6.11391e-06
6.11513e-06
6.11639e-06
6.1177e-06
6.11915e-06
6.12046e-06
6.11629e-06
6.11752e-06
6.11875e-06
6.11998e-06
6.12126e-06
6.1226e-06
6.1241e-06
6.12554e-06
6.11419e-06
6.11495e-06
6.11571e-06
6.11646e-06
6.11721e-06
6.11802e-06
6.11882e-06
6.11974e-06
6.10692e-06
6.10789e-06
6.1089e-06
6.10996e-06
6.11109e-06
6.11227e-06
6.11373e-06
6.11489e-06
6.11363e-06
6.11661e-06
6.11965e-06
6.12277e-06
6.12603e-06
6.12949e-06
6.13339e-06
6.13703e-06
6.11016e-06
6.11143e-06
6.1126e-06
6.11366e-06
6.11466e-06
6.11558e-06
6.11656e-06
6.11741e-06
0.126263
0.0831222
0.0543661
0.0294039
0.00867321
0.000789552
5.9013e-05
5.2678e-07
4.34447e-09
1.45528e-06
5.32992e-06
6.33894e-06
6.24892e-06
6.13928e-06
6.11059e-06
6.10822e-06
6.10841e-06
6.10769e-06
6.10666e-06
6.10574e-06
6.10496e-06
6.10432e-06
6.1038e-06
6.10334e-06
6.10296e-06
6.10264e-06
6.10236e-06
6.10212e-06
6.10191e-06
6.1017e-06
6.10154e-06
6.10138e-06
6.10117e-06
6.10091e-06
6.1006e-06
6.10021e-06
6.09976e-06
6.09922e-06
6.09861e-06
6.0979e-06
6.09712e-06
6.09625e-06
6.09532e-06
6.09433e-06
6.09331e-06
6.09228e-06
6.09126e-06
6.09026e-06
6.08929e-06
6.08831e-06
6.08728e-06
6.08612e-06
6.08473e-06
6.08302e-06
6.08098e-06
6.07867e-06
6.07629e-06
6.07415e-06
6.07254e-06
6.0718e-06
6.07237e-06
6.07401e-06
6.07662e-06
6.08007e-06
6.08415e-06
6.08854e-06
6.09291e-06
6.09671e-06
6.09946e-06
6.10143e-06
6.10291e-06
6.1044e-06
6.10732e-06
6.11324e-06
6.12164e-06
6.12647e-06
6.12029e-06
6.11593e-06
6.13945e-06
6.1182e-06
0.149207
0.0866913
0.0433629
0.0176112
0.00352434
3.03141e-07
6.55561e-15
9.99241e-11
3.61348e-08
3.67338e-06
6.13102e-06
6.35224e-06
6.19865e-06
6.12731e-06
6.1143e-06
6.11357e-06
6.11273e-06
6.11118e-06
6.10961e-06
6.10824e-06
6.1071e-06
6.10614e-06
6.10533e-06
6.10464e-06
6.10407e-06
6.10359e-06
6.10318e-06
6.10284e-06
6.10253e-06
6.10226e-06
6.10205e-06
6.10183e-06
6.10158e-06
6.10128e-06
6.10093e-06
6.10051e-06
6.10003e-06
6.09946e-06
6.09882e-06
6.09809e-06
6.09728e-06
6.09639e-06
6.09544e-06
6.09444e-06
6.09341e-06
6.09237e-06
6.09135e-06
6.09035e-06
6.08938e-06
6.0884e-06
6.08736e-06
6.08617e-06
6.08474e-06
6.08299e-06
6.0809e-06
6.07855e-06
6.07616e-06
6.07403e-06
6.07247e-06
6.07183e-06
6.07249e-06
6.07422e-06
6.07692e-06
6.08044e-06
6.08459e-06
6.08902e-06
6.09342e-06
6.09723e-06
6.09995e-06
6.10188e-06
6.10333e-06
6.10485e-06
6.10791e-06
6.11405e-06
6.1226e-06
6.12707e-06
6.12067e-06
6.1169e-06
6.141e-06
6.11869e-06
0.150347
0.0806699
0.0297154
0.00725259
0.000492233
9.74634e-05
7.27497e-22
3.38717e-09
1.04919e-06
5.95857e-06
6.39268e-06
6.2805e-06
6.15515e-06
6.1218e-06
6.11817e-06
6.11739e-06
6.11561e-06
6.11351e-06
6.1116e-06
6.10997e-06
6.1086e-06
6.10743e-06
6.10645e-06
6.10562e-06
6.10492e-06
6.10434e-06
6.10385e-06
6.10344e-06
6.10308e-06
6.10277e-06
6.10252e-06
6.10226e-06
6.10197e-06
6.10164e-06
6.10126e-06
6.10081e-06
6.1003e-06
6.09971e-06
6.09904e-06
6.09828e-06
6.09745e-06
6.09654e-06
6.09557e-06
6.09456e-06
6.09352e-06
6.09248e-06
6.09146e-06
6.09046e-06
6.08949e-06
6.0885e-06
6.08745e-06
6.08623e-06
6.08476e-06
6.08295e-06
6.08081e-06
6.07842e-06
6.07601e-06
6.0739e-06
6.07238e-06
6.07185e-06
6.07263e-06
6.07445e-06
6.07725e-06
6.08086e-06
6.08507e-06
6.08954e-06
6.09397e-06
6.09779e-06
6.10047e-06
6.10235e-06
6.10377e-06
6.10534e-06
6.10856e-06
6.11495e-06
6.12362e-06
6.12768e-06
6.12107e-06
6.11803e-06
6.1426e-06
6.11917e-06
0.134096
0.063949
0.0151039
0.000861755
0.000208039
0
4.04187e-10
1.31232e-07
4.2845e-06
6.86624e-06
6.31823e-06
6.2058e-06
6.13137e-06
6.12212e-06
6.12142e-06
6.11972e-06
6.11727e-06
6.11487e-06
6.1128e-06
6.11103e-06
6.10953e-06
6.10825e-06
6.10718e-06
6.10628e-06
6.10552e-06
6.10489e-06
6.10437e-06
6.10392e-06
6.10354e-06
6.10322e-06
6.10295e-06
6.10266e-06
6.10235e-06
6.10199e-06
6.10158e-06
6.10111e-06
6.10057e-06
6.09996e-06
6.09926e-06
6.09849e-06
6.09763e-06
6.0967e-06
6.09572e-06
6.09469e-06
6.09365e-06
6.0926e-06
6.09158e-06
6.09058e-06
6.08961e-06
6.08862e-06
6.08754e-06
6.08629e-06
6.08477e-06
6.08291e-06
6.08071e-06
6.07828e-06
6.07586e-06
6.07376e-06
6.0723e-06
6.07187e-06
6.07277e-06
6.07471e-06
6.0776e-06
6.08131e-06
6.08559e-06
6.09009e-06
6.09456e-06
6.09837e-06
6.10101e-06
6.10284e-06
6.10423e-06
6.10585e-06
6.10926e-06
6.11591e-06
6.12469e-06
6.12831e-06
6.12149e-06
6.1193e-06
6.14426e-06
6.11961e-06
0.10326
0.0384168
0.00295249
0.000727156
0
2.42683e-11
8.34231e-09
2.29264e-06
6.87175e-06
6.72482e-06
6.19165e-06
6.16127e-06
6.12374e-06
6.12507e-06
6.12371e-06
6.1211e-06
6.11827e-06
6.11573e-06
6.11356e-06
6.11172e-06
6.11014e-06
6.10882e-06
6.1077e-06
6.10676e-06
6.10598e-06
6.10533e-06
6.10479e-06
6.10433e-06
6.10395e-06
6.10363e-06
6.10334e-06
6.10304e-06
6.10271e-06
6.10233e-06
6.1019e-06
6.10141e-06
6.10085e-06
6.10021e-06
6.09949e-06
6.09869e-06
6.09781e-06
6.09687e-06
6.09587e-06
6.09483e-06
6.09378e-06
6.09273e-06
6.09171e-06
6.09072e-06
6.08974e-06
6.08874e-06
6.08764e-06
6.08636e-06
6.08478e-06
6.08285e-06
6.08059e-06
6.07812e-06
6.07569e-06
6.07362e-06
6.07223e-06
6.07191e-06
6.07294e-06
6.07498e-06
6.07798e-06
6.08179e-06
6.08614e-06
6.09069e-06
6.09518e-06
6.09899e-06
6.10157e-06
6.10334e-06
6.10471e-06
6.1064e-06
6.11001e-06
6.11695e-06
6.1258e-06
6.12895e-06
6.12193e-06
6.1207e-06
6.14602e-06
6.12002e-06
0.0638845
0.0148498
0.000346294
5.35e-05
1.05427e-13
3.79156e-11
1.14841e-06
6.18737e-06
7.23236e-06
6.3435e-06
6.13133e-06
6.14255e-06
6.12459e-06
6.12791e-06
6.12491e-06
6.12179e-06
6.11881e-06
6.11625e-06
6.11405e-06
6.11218e-06
6.11058e-06
6.10923e-06
6.1081e-06
6.10716e-06
6.10637e-06
6.10572e-06
6.10518e-06
6.10473e-06
6.10435e-06
6.10403e-06
6.10373e-06
6.10341e-06
6.10306e-06
6.10267e-06
6.10222e-06
6.10171e-06
6.10113e-06
6.10047e-06
6.09972e-06
6.0989e-06
6.098e-06
6.09703e-06
6.09602e-06
6.09497e-06
6.09391e-06
6.09286e-06
6.09184e-06
6.09085e-06
6.08988e-06
6.08887e-06
6.08774e-06
6.08641e-06
6.08478e-06
6.08279e-06
6.08046e-06
6.07795e-06
6.07552e-06
6.07348e-06
6.07216e-06
6.07197e-06
6.07312e-06
6.07529e-06
6.0784e-06
6.0823e-06
6.08672e-06
6.09131e-06
6.09584e-06
6.09964e-06
6.10216e-06
6.10387e-06
6.10522e-06
6.10698e-06
6.11082e-06
6.11806e-06
6.12696e-06
6.12961e-06
6.12239e-06
6.12226e-06
0.0250885
0.000855051
3.67472e-05
2.60358e-07
2.49381e-09
7.18099e-07
5.63599e-06
7.49395e-06
6.64138e-06
6.1286e-06
6.12802e-06
6.13635e-06
6.12797e-06
6.12932e-06
6.12518e-06
6.12194e-06
6.11898e-06
6.11645e-06
6.11428e-06
6.11242e-06
6.11085e-06
6.10952e-06
6.1084e-06
6.10748e-06
6.10671e-06
6.10607e-06
6.10554e-06
6.1051e-06
6.10474e-06
6.10442e-06
6.10411e-06
6.10378e-06
6.10342e-06
6.10301e-06
6.10254e-06
6.10201e-06
6.1014e-06
6.10072e-06
6.09995e-06
6.0991e-06
6.09818e-06
6.0972e-06
6.09617e-06
6.09511e-06
6.09405e-06
6.093e-06
6.09198e-06
6.091e-06
6.09002e-06
6.08899e-06
6.08784e-06
6.08646e-06
6.08476e-06
6.0827e-06
6.08031e-06
6.07777e-06
6.07533e-06
6.07333e-06
6.0721e-06
6.07204e-06
6.07333e-06
6.07562e-06
6.07885e-06
6.08285e-06
6.08735e-06
6.09197e-06
6.09653e-06
6.10032e-06
6.10277e-06
6.10442e-06
6.10575e-06
6.10761e-06
6.1117e-06
6.11925e-06
6.12817e-06
6.13028e-06
0.00276069
0.000686377
1.48235e-12
9.78221e-10
3.12459e-07
5.44718e-06
7.67432e-06
6.89393e-06
6.1974e-06
6.09393e-06
6.13882e-06
6.13427e-06
6.13065e-06
6.12919e-06
6.12481e-06
6.12169e-06
6.11883e-06
6.1164e-06
6.11429e-06
6.1125e-06
6.11097e-06
6.10969e-06
6.10862e-06
6.10773e-06
6.107e-06
6.10638e-06
6.10588e-06
6.10546e-06
6.10511e-06
6.1048e-06
6.10448e-06
6.10414e-06
6.10377e-06
6.10334e-06
6.10286e-06
6.1023e-06
6.10168e-06
6.10097e-06
6.10017e-06
6.0993e-06
6.09836e-06
6.09736e-06
6.09632e-06
6.09525e-06
6.09419e-06
6.09314e-06
6.09213e-06
6.09115e-06
6.09016e-06
6.08912e-06
6.08793e-06
6.0865e-06
6.08473e-06
6.0826e-06
6.08015e-06
6.07757e-06
6.07513e-06
6.07318e-06
6.07204e-06
6.07214e-06
6.07357e-06
6.07598e-06
6.07934e-06
6.08345e-06
6.08801e-06
6.09268e-06
6.09726e-06
6.10103e-06
6.10341e-06
6.105e-06
6.10631e-06
6.10828e-06
6.11265e-06
6.12053e-06
0.00071703
0
1.30198e-11
4.44814e-09
5.56522e-06
7.97917e-06
7.02901e-06
6.26707e-06
6.0778e-06
6.12379e-06
6.14213e-06
6.13348e-06
6.13145e-06
6.12803e-06
6.12406e-06
6.12113e-06
6.11843e-06
6.11613e-06
6.11413e-06
6.11243e-06
6.11099e-06
6.10978e-06
6.10878e-06
6.10794e-06
6.10725e-06
6.10667e-06
6.1062e-06
6.10581e-06
6.10548e-06
6.10517e-06
6.10485e-06
6.1045e-06
6.10411e-06
6.10367e-06
6.10316e-06
6.10259e-06
6.10194e-06
6.1012e-06
6.10039e-06
6.0995e-06
6.09854e-06
6.09752e-06
6.09646e-06
6.09539e-06
6.09433e-06
6.09328e-06
6.09228e-06
6.0913e-06
6.09031e-06
6.08925e-06
6.08802e-06
6.08653e-06
6.08468e-06
6.08247e-06
6.07996e-06
6.07735e-06
6.07492e-06
6.07302e-06
6.072e-06
6.07226e-06
6.07383e-06
6.07638e-06
6.07987e-06
6.08408e-06
6.08871e-06
6.09342e-06
6.09803e-06
6.10177e-06
6.10407e-06
6.10559e-06
6.1069e-06
0
0
1.76126e-08
4.49316e-06
8.74177e-06
7.02313e-06
6.28658e-06
6.07215e-06
6.10751e-06
6.14351e-06
6.13898e-06
6.13291e-06
6.13044e-06
6.12643e-06
6.12306e-06
6.12032e-06
6.11782e-06
6.11569e-06
6.11384e-06
6.11227e-06
6.11093e-06
6.10982e-06
6.10889e-06
6.10812e-06
6.10748e-06
6.10695e-06
6.10652e-06
6.10616e-06
6.10584e-06
6.10553e-06
6.10521e-06
6.10485e-06
6.10444e-06
6.10399e-06
6.10346e-06
6.10287e-06
6.10219e-06
6.10143e-06
6.1006e-06
6.09968e-06
6.0987e-06
6.09767e-06
6.09661e-06
6.09553e-06
6.09447e-06
6.09343e-06
6.09243e-06
6.09145e-06
6.09046e-06
6.08937e-06
6.0881e-06
6.08654e-06
6.08461e-06
6.08232e-06
6.07974e-06
6.07711e-06
6.0747e-06
6.07287e-06
6.07197e-06
6.0724e-06
6.07413e-06
6.07683e-06
6.08044e-06
6.08476e-06
6.08946e-06
6.09421e-06
0
1.18292e-08
3.06313e-06
9.00591e-06
7.12461e-06
6.19276e-06
6.07197e-06
6.09619e-06
6.1415e-06
6.14357e-06
6.13518e-06
6.13166e-06
6.12839e-06
6.12472e-06
6.12186e-06
6.11933e-06
6.11707e-06
6.11513e-06
6.11346e-06
6.11203e-06
6.11083e-06
6.10983e-06
6.10899e-06
6.10829e-06
6.10771e-06
6.10724e-06
6.10684e-06
6.10651e-06
6.10621e-06
6.1059e-06
6.10556e-06
6.10519e-06
6.10478e-06
6.1043e-06
6.10376e-06
6.10314e-06
6.10244e-06
6.10165e-06
6.10079e-06
6.09986e-06
6.09886e-06
6.09781e-06
6.09674e-06
6.09567e-06
6.09461e-06
6.09358e-06
6.09259e-06
6.09161e-06
6.0906e-06
6.08948e-06
6.08816e-06
6.08653e-06
6.08452e-06
6.08214e-06
6.0795e-06
6.07685e-06
6.07447e-06
6.07272e-06
6.07196e-06
6.07258e-06
6.07447e-06
1.227e-08
3.15491e-06
8.71358e-06
7.27092e-06
6.08387e-06
6.04449e-06
6.09986e-06
6.13809e-06
6.14644e-06
6.13744e-06
6.13238e-06
6.12945e-06
6.12603e-06
6.123e-06
6.12049e-06
6.11821e-06
6.11622e-06
6.1145e-06
6.11302e-06
6.11176e-06
6.1107e-06
6.10981e-06
6.10907e-06
6.10845e-06
6.10794e-06
6.10752e-06
6.10717e-06
6.10686e-06
6.10657e-06
6.10625e-06
6.10591e-06
6.10553e-06
6.1051e-06
6.1046e-06
6.10404e-06
6.1034e-06
6.10267e-06
6.10186e-06
6.10098e-06
6.10002e-06
6.09901e-06
6.09795e-06
6.09688e-06
6.0958e-06
6.09475e-06
6.09373e-06
6.09275e-06
6.09177e-06
6.09075e-06
6.08959e-06
6.08821e-06
6.08649e-06
6.08439e-06
6.08192e-06
3.70217e-06
8.00239e-06
7.17876e-06
6.046e-06
5.99938e-06
6.1108e-06
6.1392e-06
6.14646e-06
6.13907e-06
6.13268e-06
6.12972e-06
6.12673e-06
6.12375e-06
6.12126e-06
6.11906e-06
6.11708e-06
6.11535e-06
6.11386e-06
6.11258e-06
6.1115e-06
6.11058e-06
6.10981e-06
6.10917e-06
6.10863e-06
6.10819e-06
6.10783e-06
6.10752e-06
6.10723e-06
6.10694e-06
6.10662e-06
6.10627e-06
6.10587e-06
6.10542e-06
6.10491e-06
6.10432e-06
6.10364e-06
6.10289e-06
6.10206e-06
6.10115e-06
6.10018e-06
6.09915e-06
6.09808e-06
)
;

boundaryField
{
    inlet
    {
        type            freestream;
        freestreamValue uniform 1e-05;
        value           uniform 1e-05;
    }
    outlet
    {
        type            freestream;
        freestreamValue nonuniform List<scalar> 0();
        value           nonuniform List<scalar> 0();
    }
    walls
    {
        type            nutUSpaldingWallFunction;
        value           nonuniform List<scalar> 4(0.00272754 0.00266321 0.00257229 0.00231562);
    }
    frontAndBack
    {
        type            empty;
    }
    procBoundary2to1
    {
        type            processor;
        value           nonuniform List<scalar> 
84
(
0.107976
0.0680106
0.0311651
0.00305864
0.000716483
2.14681e-12
5.32426e-06
6.29099e-06
6.14481e-06
6.09161e-06
6.09312e-06
6.10102e-06
6.10412e-06
6.1034e-06
6.10248e-06
6.1019e-06
6.10158e-06
6.10138e-06
6.10126e-06
6.10118e-06
6.10115e-06
6.10115e-06
6.10116e-06
6.10113e-06
6.10106e-06
6.10097e-06
6.10085e-06
6.10069e-06
6.1005e-06
6.10029e-06
6.10004e-06
6.09976e-06
6.09944e-06
6.09908e-06
6.09867e-06
6.09821e-06
6.0977e-06
6.09712e-06
6.09712e-06
6.09615e-06
6.09544e-06
6.09468e-06
6.09385e-06
6.09297e-06
6.09205e-06
6.09111e-06
6.09016e-06
6.08922e-06
6.08829e-06
6.08737e-06
6.08645e-06
6.08546e-06
6.08435e-06
6.08435e-06
6.08287e-06
6.08131e-06
6.07949e-06
6.07747e-06
6.07541e-06
6.07356e-06
6.0722e-06
6.07163e-06
6.07218e-06
6.07218e-06
6.07354e-06
6.07575e-06
6.07867e-06
6.08215e-06
6.08596e-06
6.08985e-06
6.09307e-06
6.0953e-06
6.09705e-06
6.09841e-06
6.09841e-06
6.09907e-06
6.10095e-06
6.10458e-06
6.11022e-06
6.11505e-06
6.1134e-06
6.10599e-06
6.1107e-06
6.10877e-06
)
;
    }
    procBoundary2to3
    {
        type            processor;
        value           nonuniform List<scalar> 
88
(
6.14786e-06
6.12037e-06
6.12287e-06
6.14786e-06
6.12397e-06
6.12941e-06
6.12287e-06
6.13097e-06
6.10901e-06
6.11369e-06
6.12941e-06
6.1219e-06
6.09884e-06
6.10255e-06
6.10476e-06
6.10622e-06
6.10901e-06
6.10753e-06
6.07731e-06
6.08106e-06
6.08549e-06
6.09026e-06
6.09884e-06
6.09505e-06
6.07923e-06
6.07657e-06
6.07423e-06
6.07257e-06
6.07197e-06
6.0728e-06
6.07731e-06
6.07484e-06
6.097e-06
6.09593e-06
6.09489e-06
6.09388e-06
6.09291e-06
6.09193e-06
6.09088e-06
6.08968e-06
6.08823e-06
6.08643e-06
6.08423e-06
6.07923e-06
6.08168e-06
7.73583e-06
6.89934e-06
6.05905e-06
5.98557e-06
6.11698e-06
6.14582e-06
6.14426e-06
6.13889e-06
6.13242e-06
6.12919e-06
6.12663e-06
6.1239e-06
6.1215e-06
6.11942e-06
6.11753e-06
6.11587e-06
6.11442e-06
6.11317e-06
6.1121e-06
6.11119e-06
6.11042e-06
6.10977e-06
6.10923e-06
6.10879e-06
6.10842e-06
6.10811e-06
6.10783e-06
6.10755e-06
6.10727e-06
6.10695e-06
6.10659e-06
6.10618e-06
6.10571e-06
6.10517e-06
6.10456e-06
6.10386e-06
6.10308e-06
6.10222e-06
6.10129e-06
6.1003e-06
6.09926e-06
6.097e-06
6.09819e-06
)
;
    }
    procBoundary2to6
    {
        type            processor;
        value           nonuniform List<scalar> 
13
(
0.171305
0.212159
0.216133
0.200846
0.170809
0.128215
0.0770895
0.0288021
0.00285984
0.000336243
0
3.60268e-19
7.07844e-11
)
;
    }
}


// ************************************************************************* //
