/*--------------------------------*- C++ -*----------------------------------*\
| =========                 |                                                 |
| \\      /  F ield         | OpenFOAM: The Open Source CFD Toolbox           |
|  \\    /   O peration     | Version:  2506                                  |
|   \\  /    A nd           | Website:  www.openfoam.com                      |
|    \\/     M anipulation  |                                                 |
\*---------------------------------------------------------------------------*/
FoamFile
{
    version     2.0;
    format      ascii;
    arch        "LSB;label=32;scalar=64";
    class       volScalarField;
    location    "250";
    object      nuTilda;
}
// * * * * * * * * * * * * * * * * * * * * * * * * * * * * * * * * * * * * * //

dimensions      [0 2 -1 0 0 0 0];

internalField   nonuniform List<scalar> 
1340
(
0.106579
0.104431
0.101993
0.0924596
0.0700016
0.0717344
0.0753101
0.0784791
0.0396102
0.0470111
0.0536845
0.0631722
0.00692583
0.0131195
0.0218505
0.0392336
0.00165023
0.000737792
0.00165032
0.0137055
5.7547e-06
0.000174893
0.00043361
0.00238842
2.56923e-05
7.91324e-06
1.59686e-06
9.15459e-05
3.90775e-05
3.29313e-05
8.92479e-06
2.18355e-05
4.02647e-05
4.09956e-05
3.67643e-05
5.50622e-06
4.0231e-05
3.95445e-05
4.44651e-05
2.12772e-05
4.01799e-05
3.95983e-05
4.19245e-05
3.64673e-05
4.00953e-05
3.99832e-05
4.02558e-05
4.01691e-05
4.00645e-05
4.00906e-05
3.9971e-05
4.03501e-05
4.00628e-05
4.00826e-05
4.00242e-05
4.01461e-05
4.00645e-05
4.00693e-05
4.00629e-05
4.00729e-05
4.00645e-05
4.0065e-05
4.00697e-05
4.0064e-05
4.00637e-05
4.00641e-05
4.00679e-05
4.00655e-05
4.00631e-05
4.00636e-05
4.00662e-05
4.00657e-05
4.00628e-05
4.00632e-05
4.00652e-05
4.00651e-05
4.00625e-05
4.00629e-05
4.00646e-05
4.00645e-05
4.00624e-05
4.00626e-05
4.00641e-05
4.0064e-05
4.00623e-05
4.00624e-05
4.00637e-05
4.00636e-05
4.00623e-05
4.00623e-05
4.00634e-05
4.00633e-05
4.00622e-05
4.00622e-05
4.00631e-05
4.0063e-05
4.00622e-05
4.00621e-05
4.00628e-05
4.00628e-05
4.00621e-05
4.00621e-05
4.00625e-05
4.00626e-05
4.00619e-05
4.00619e-05
4.00623e-05
4.00624e-05
4.00617e-05
4.00618e-05
4.0062e-05
4.00623e-05
4.00614e-05
4.00616e-05
4.00618e-05
4.00621e-05
4.0061e-05
4.00614e-05
4.00614e-05
4.00619e-05
4.00606e-05
4.00611e-05
4.00612e-05
4.00617e-05
4.00602e-05
4.00607e-05
4.00609e-05
4.00615e-05
4.00596e-05
4.00602e-05
4.00604e-05
4.00613e-05
4.0059e-05
4.00596e-05
4.00599e-05
4.00609e-05
4.00582e-05
4.00589e-05
4.00593e-05
4.00604e-05
4.00574e-05
4.00581e-05
4.00586e-05
4.00597e-05
4.00565e-05
4.00572e-05
4.00577e-05
4.0059e-05
4.00554e-05
4.00562e-05
4.00567e-05
4.0058e-05
4.00536e-05
4.00542e-05
4.0055e-05
4.00555e-05
4.00569e-05
4.00522e-05
4.00529e-05
4.00537e-05
4.00543e-05
4.00557e-05
4.00508e-05
4.00514e-05
4.00522e-05
4.00528e-05
4.00543e-05
4.00493e-05
4.00499e-05
4.00507e-05
4.00513e-05
4.00527e-05
4.00476e-05
4.00482e-05
4.0049e-05
4.00496e-05
4.0051e-05
4.00459e-05
4.00465e-05
4.00472e-05
4.00478e-05
4.00493e-05
4.00441e-05
4.00447e-05
4.00454e-05
4.0046e-05
4.00474e-05
4.00423e-05
4.00429e-05
4.00436e-05
4.00441e-05
4.00455e-05
4.00406e-05
4.00411e-05
4.00418e-05
4.00423e-05
4.00436e-05
4.00388e-05
4.00393e-05
4.004e-05
4.00405e-05
4.00418e-05
4.00371e-05
4.00376e-05
4.00383e-05
4.00388e-05
4.004e-05
4.00354e-05
4.00359e-05
4.00365e-05
4.0037e-05
4.00382e-05
4.00335e-05
4.0034e-05
4.00346e-05
4.00351e-05
4.00363e-05
4.00315e-05
4.00319e-05
4.00325e-05
4.0033e-05
4.00342e-05
4.00286e-05
4.0029e-05
4.00294e-05
4.003e-05
4.00305e-05
4.00316e-05
4.00257e-05
4.0026e-05
4.00264e-05
4.00269e-05
4.00274e-05
4.00285e-05
4.00222e-05
4.00225e-05
4.00228e-05
4.00233e-05
4.00237e-05
4.00248e-05
4.00184e-05
4.00186e-05
4.00189e-05
4.00193e-05
4.00196e-05
4.00206e-05
4.00145e-05
4.00146e-05
4.00148e-05
4.00151e-05
4.00154e-05
4.00162e-05
4.0011e-05
4.00111e-05
4.00112e-05
4.00114e-05
4.00116e-05
4.00122e-05
4.00085e-05
4.00085e-05
4.00086e-05
4.00087e-05
4.00087e-05
4.00091e-05
4.00074e-05
4.00075e-05
4.00075e-05
4.00075e-05
4.00075e-05
4.00076e-05
4.00085e-05
4.00086e-05
4.00087e-05
4.00087e-05
4.00087e-05
4.00086e-05
4.00112e-05
4.00114e-05
4.00116e-05
4.00117e-05
4.00117e-05
4.00118e-05
4.00115e-05
4.00154e-05
4.00157e-05
4.0016e-05
4.00162e-05
4.00163e-05
4.00165e-05
4.00162e-05
4.0021e-05
4.00215e-05
4.00218e-05
4.00222e-05
4.00224e-05
4.00227e-05
4.00225e-05
4.00276e-05
4.00282e-05
4.00287e-05
4.00292e-05
4.00296e-05
4.003e-05
4.00299e-05
4.00348e-05
4.00355e-05
4.00362e-05
4.00368e-05
4.00373e-05
4.00379e-05
4.0038e-05
4.00422e-05
4.0043e-05
4.00437e-05
4.00444e-05
4.00451e-05
4.00458e-05
4.0046e-05
4.00482e-05
4.00491e-05
4.005e-05
4.00508e-05
4.00516e-05
4.00525e-05
4.0053e-05
4.00524e-05
4.00534e-05
4.00543e-05
4.00553e-05
4.00563e-05
4.00573e-05
4.00581e-05
4.00556e-05
4.00567e-05
4.00576e-05
4.00587e-05
4.00597e-05
4.00608e-05
4.00618e-05
4.00582e-05
4.00592e-05
4.00602e-05
4.00612e-05
4.00623e-05
4.00635e-05
4.00645e-05
4.00595e-05
4.00605e-05
4.00616e-05
4.00627e-05
4.00638e-05
4.00649e-05
4.00661e-05
4.00672e-05
4.00632e-05
4.00645e-05
4.00657e-05
4.0067e-05
4.00683e-05
4.00697e-05
4.00712e-05
4.00724e-05
4.00704e-05
4.00721e-05
4.00739e-05
4.00756e-05
4.00774e-05
4.00792e-05
4.00812e-05
4.00829e-05
4.00813e-05
4.00836e-05
4.00859e-05
4.00881e-05
4.00905e-05
4.00929e-05
4.00956e-05
4.0098e-05
4.00903e-05
4.00925e-05
4.00948e-05
4.00971e-05
4.00995e-05
4.01019e-05
4.01047e-05
4.01074e-05
4.00864e-05
4.00878e-05
4.00892e-05
4.00906e-05
4.0092e-05
4.00935e-05
4.00949e-05
4.00967e-05
4.00729e-05
4.00747e-05
4.00766e-05
4.00785e-05
4.00806e-05
4.00828e-05
4.00855e-05
4.00877e-05
4.00853e-05
4.00909e-05
4.00965e-05
4.01022e-05
4.01083e-05
4.01147e-05
4.01219e-05
4.01286e-05
4.00789e-05
4.00813e-05
4.00834e-05
4.00854e-05
4.00872e-05
4.00889e-05
4.00908e-05
4.00923e-05
0.126263
0.0831222
0.0543661
0.0294039
0.00867321
0.000790125
8.89869e-05
2.09707e-05
6.28063e-06
2.72359e-05
3.85718e-05
4.04977e-05
4.0334e-05
4.01327e-05
4.00797e-05
4.00753e-05
4.00757e-05
4.00743e-05
4.00724e-05
4.00707e-05
4.00693e-05
4.00681e-05
4.00671e-05
4.00663e-05
4.00656e-05
4.0065e-05
4.00645e-05
4.0064e-05
4.00636e-05
4.00632e-05
4.00629e-05
4.00626e-05
4.00623e-05
4.00618e-05
4.00612e-05
4.00605e-05
4.00596e-05
4.00587e-05
4.00575e-05
4.00562e-05
4.00548e-05
4.00532e-05
4.00514e-05
4.00496e-05
4.00477e-05
4.00458e-05
4.00439e-05
4.0042e-05
4.00402e-05
4.00384e-05
4.00365e-05
4.00344e-05
4.00318e-05
4.00286e-05
4.00248e-05
4.00205e-05
4.00161e-05
4.00121e-05
4.00091e-05
4.00078e-05
4.00088e-05
4.00119e-05
4.00167e-05
4.00231e-05
4.00307e-05
4.00388e-05
4.0047e-05
4.0054e-05
4.00591e-05
4.00628e-05
4.00655e-05
4.00683e-05
4.00737e-05
4.00846e-05
4.01002e-05
4.01091e-05
4.00977e-05
4.00896e-05
4.01331e-05
4.00938e-05
0.149207
0.0866913
0.0433629
0.0176112
0.00352437
1.82254e-05
2.20088e-07
2.44549e-06
1.06732e-05
3.48189e-05
4.01175e-05
4.05217e-05
4.0242e-05
4.01106e-05
4.00866e-05
4.00852e-05
4.00837e-05
4.00808e-05
4.00779e-05
4.00754e-05
4.00732e-05
4.00715e-05
4.007e-05
4.00687e-05
4.00676e-05
4.00667e-05
4.0066e-05
4.00654e-05
4.00648e-05
4.00643e-05
4.00639e-05
4.00635e-05
4.0063e-05
4.00625e-05
4.00618e-05
4.0061e-05
4.00601e-05
4.00591e-05
4.00579e-05
4.00566e-05
4.00551e-05
4.00534e-05
4.00516e-05
4.00498e-05
4.00479e-05
4.0046e-05
4.00441e-05
4.00422e-05
4.00404e-05
4.00386e-05
4.00367e-05
4.00344e-05
4.00318e-05
4.00285e-05
4.00247e-05
4.00203e-05
4.00159e-05
4.00119e-05
4.0009e-05
4.00078e-05
4.0009e-05
4.00123e-05
4.00173e-05
4.00238e-05
4.00315e-05
4.00397e-05
4.00479e-05
4.0055e-05
4.006e-05
4.00636e-05
4.00663e-05
4.00691e-05
4.00748e-05
4.00861e-05
4.01019e-05
4.01102e-05
4.00984e-05
4.00914e-05
4.01359e-05
4.00947e-05
0.150347
0.0806699
0.0297154
0.0072526
0.000493697
0.000118452
4.017e-09
5.90154e-06
2.50212e-05
3.9796e-05
4.05947e-05
4.03916e-05
4.0162e-05
4.01005e-05
4.00937e-05
4.00923e-05
4.0089e-05
4.00851e-05
4.00816e-05
4.00786e-05
4.0076e-05
4.00739e-05
4.0072e-05
4.00705e-05
4.00692e-05
4.00681e-05
4.00672e-05
4.00665e-05
4.00658e-05
4.00652e-05
4.00648e-05
4.00643e-05
4.00638e-05
4.00631e-05
4.00624e-05
4.00616e-05
4.00606e-05
4.00596e-05
4.00583e-05
4.00569e-05
4.00554e-05
4.00537e-05
4.00519e-05
4.005e-05
4.00481e-05
4.00462e-05
4.00443e-05
4.00424e-05
4.00406e-05
4.00388e-05
4.00368e-05
4.00346e-05
4.00318e-05
4.00285e-05
4.00245e-05
4.00201e-05
4.00156e-05
4.00117e-05
4.00088e-05
4.00078e-05
4.00093e-05
4.00127e-05
4.00179e-05
4.00246e-05
4.00324e-05
4.00407e-05
4.00489e-05
4.0056e-05
4.0061e-05
4.00644e-05
4.00671e-05
4.007e-05
4.0076e-05
4.00878e-05
4.01038e-05
4.01113e-05
4.00991e-05
4.00935e-05
4.01389e-05
4.00956e-05
0.134096
0.063949
0.0151039
0.000862236
0.000215481
0
3.46818e-06
1.47545e-05
3.6312e-05
4.14284e-05
4.04601e-05
4.02551e-05
4.01181e-05
4.01011e-05
4.00997e-05
4.00966e-05
4.00921e-05
4.00876e-05
4.00838e-05
4.00805e-05
4.00777e-05
4.00754e-05
4.00734e-05
4.00717e-05
4.00703e-05
4.00692e-05
4.00682e-05
4.00674e-05
4.00667e-05
4.00661e-05
4.00656e-05
4.0065e-05
4.00644e-05
4.00638e-05
4.0063e-05
4.00622e-05
4.00612e-05
4.006e-05
4.00587e-05
4.00573e-05
4.00557e-05
4.0054e-05
4.00522e-05
4.00503e-05
4.00483e-05
4.00464e-05
4.00445e-05
4.00426e-05
4.00408e-05
4.0039e-05
4.0037e-05
4.00347e-05
4.00318e-05
4.00284e-05
4.00243e-05
4.00198e-05
4.00153e-05
4.00114e-05
4.00087e-05
4.00079e-05
4.00096e-05
4.00132e-05
4.00185e-05
4.00254e-05
4.00334e-05
4.00417e-05
4.005e-05
4.00571e-05
4.0062e-05
4.00654e-05
4.00679e-05
4.00709e-05
4.00773e-05
4.00896e-05
4.01058e-05
4.01125e-05
4.00999e-05
4.00958e-05
4.0142e-05
4.00964e-05
0.10326
0.0384168
0.00295253
0.000727831
0
1.71674e-06
7.39414e-06
3.06873e-05
4.14379e-05
4.11832e-05
4.02292e-05
4.01733e-05
4.0104e-05
4.01065e-05
4.0104e-05
4.00992e-05
4.00939e-05
4.00892e-05
4.00852e-05
4.00818e-05
4.00789e-05
4.00764e-05
4.00744e-05
4.00726e-05
4.00712e-05
4.007e-05
4.0069e-05
4.00681e-05
4.00674e-05
4.00668e-05
4.00663e-05
4.00657e-05
4.00651e-05
4.00644e-05
4.00636e-05
4.00627e-05
4.00617e-05
4.00605e-05
4.00592e-05
4.00577e-05
4.0056e-05
4.00543e-05
4.00524e-05
4.00505e-05
4.00486e-05
4.00466e-05
4.00447e-05
4.00429e-05
4.00411e-05
4.00392e-05
4.00372e-05
4.00348e-05
4.00319e-05
4.00283e-05
4.00241e-05
4.00195e-05
4.0015e-05
4.00111e-05
4.00086e-05
4.0008e-05
4.00099e-05
4.00137e-05
4.00192e-05
4.00263e-05
4.00344e-05
4.00428e-05
4.00512e-05
4.00582e-05
4.0063e-05
4.00663e-05
4.00688e-05
4.00719e-05
4.00786e-05
4.00915e-05
4.01079e-05
4.01137e-05
4.01007e-05
4.00984e-05
4.01452e-05
4.00972e-05
0.0638845
0.0148498
0.000349205
8.48478e-05
4.40739e-07
1.91933e-06
2.56123e-05
4.02213e-05
4.2049e-05
4.05059e-05
4.01181e-05
4.01388e-05
4.01056e-05
4.01118e-05
4.01062e-05
4.01004e-05
4.00949e-05
4.00902e-05
4.00861e-05
4.00826e-05
4.00797e-05
4.00772e-05
4.00751e-05
4.00734e-05
4.00719e-05
4.00707e-05
4.00697e-05
4.00689e-05
4.00682e-05
4.00676e-05
4.0067e-05
4.00664e-05
4.00658e-05
4.0065e-05
4.00642e-05
4.00633e-05
4.00622e-05
4.0061e-05
4.00596e-05
4.00581e-05
4.00564e-05
4.00546e-05
4.00527e-05
4.00508e-05
4.00488e-05
4.00469e-05
4.0045e-05
4.00431e-05
4.00413e-05
4.00394e-05
4.00374e-05
4.00349e-05
4.00319e-05
4.00282e-05
4.00238e-05
4.00192e-05
4.00147e-05
4.00109e-05
4.00084e-05
4.00081e-05
4.00102e-05
4.00142e-05
4.002e-05
4.00273e-05
4.00355e-05
4.0044e-05
4.00524e-05
4.00594e-05
4.00641e-05
4.00673e-05
4.00698e-05
4.0073e-05
4.00801e-05
4.00935e-05
4.011e-05
4.01149e-05
4.01015e-05
4.01013e-05
0.0250885
0.00085554
7.19937e-05
1.75372e-05
5.4665e-06
2.26976e-05
3.91786e-05
4.24809e-05
4.10371e-05
4.0113e-05
4.0112e-05
4.01273e-05
4.01119e-05
4.01144e-05
4.01067e-05
4.01007e-05
4.00952e-05
4.00906e-05
4.00865e-05
4.00831e-05
4.00802e-05
4.00777e-05
4.00757e-05
4.00739e-05
4.00725e-05
4.00713e-05
4.00704e-05
4.00696e-05
4.00689e-05
4.00683e-05
4.00677e-05
4.00671e-05
4.00664e-05
4.00657e-05
4.00648e-05
4.00638e-05
4.00627e-05
4.00614e-05
4.006e-05
4.00584e-05
4.00567e-05
4.00549e-05
4.0053e-05
4.0051e-05
4.00491e-05
4.00471e-05
4.00452e-05
4.00434e-05
4.00416e-05
4.00397e-05
4.00375e-05
4.0035e-05
4.00318e-05
4.0028e-05
4.00236e-05
4.00188e-05
4.00143e-05
4.00106e-05
4.00083e-05
4.00082e-05
4.00106e-05
4.00148e-05
4.00209e-05
4.00283e-05
4.00366e-05
4.00452e-05
4.00537e-05
4.00607e-05
4.00652e-05
4.00683e-05
4.00708e-05
4.00742e-05
4.00818e-05
4.00957e-05
4.01122e-05
4.01161e-05
0.00276074
0.000687134
8.53457e-07
4.32591e-06
1.83656e-05
3.88068e-05
4.27733e-05
4.1476e-05
4.02397e-05
4.00488e-05
4.01319e-05
4.01235e-05
4.01168e-05
4.01141e-05
4.0106e-05
4.01003e-05
4.0095e-05
4.00905e-05
4.00866e-05
4.00832e-05
4.00804e-05
4.0078e-05
4.00761e-05
4.00744e-05
4.00731e-05
4.00719e-05
4.0071e-05
4.00702e-05
4.00696e-05
4.0069e-05
4.00684e-05
4.00678e-05
4.00671e-05
4.00663e-05
4.00654e-05
4.00644e-05
4.00632e-05
4.00619e-05
4.00604e-05
4.00588e-05
4.00571e-05
4.00552e-05
4.00533e-05
4.00513e-05
4.00493e-05
4.00474e-05
4.00455e-05
4.00437e-05
4.00419e-05
4.00399e-05
4.00377e-05
4.00351e-05
4.00318e-05
4.00278e-05
4.00233e-05
4.00185e-05
4.00139e-05
4.00103e-05
4.00082e-05
4.00084e-05
4.0011e-05
4.00155e-05
4.00218e-05
4.00294e-05
4.00379e-05
4.00465e-05
4.0055e-05
4.0062e-05
4.00664e-05
4.00694e-05
4.00718e-05
4.00754e-05
4.00835e-05
4.00981e-05
0.000717724
0
1.46925e-06
6.31779e-06
3.90402e-05
4.32585e-05
4.17067e-05
4.03672e-05
4.00189e-05
4.01041e-05
4.0138e-05
4.0122e-05
4.01183e-05
4.0112e-05
4.01046e-05
4.00992e-05
4.00942e-05
4.009e-05
4.00863e-05
4.00831e-05
4.00805e-05
4.00782e-05
4.00764e-05
4.00748e-05
4.00735e-05
4.00725e-05
4.00716e-05
4.00709e-05
4.00702e-05
4.00697e-05
4.00691e-05
4.00684e-05
4.00677e-05
4.00669e-05
4.0066e-05
4.00649e-05
4.00637e-05
4.00623e-05
4.00608e-05
4.00592e-05
4.00574e-05
4.00555e-05
4.00535e-05
4.00516e-05
4.00496e-05
4.00476e-05
4.00458e-05
4.0044e-05
4.00421e-05
4.00402e-05
4.00379e-05
4.00351e-05
4.00317e-05
4.00276e-05
4.00229e-05
4.00181e-05
4.00136e-05
4.001e-05
4.00081e-05
4.00086e-05
4.00115e-05
4.00163e-05
4.00227e-05
4.00306e-05
4.00392e-05
4.00479e-05
4.00564e-05
4.00634e-05
4.00676e-05
4.00705e-05
4.00729e-05
0
0
8.91486e-06
3.67895e-05
4.44257e-05
4.16967e-05
4.04027e-05
4.00084e-05
4.0074e-05
4.01406e-05
4.01322e-05
4.0121e-05
4.01164e-05
4.0109e-05
4.01028e-05
4.00977e-05
4.00931e-05
4.00892e-05
4.00857e-05
4.00828e-05
4.00804e-05
4.00783e-05
4.00766e-05
4.00751e-05
4.0074e-05
4.0073e-05
4.00722e-05
4.00715e-05
4.00709e-05
4.00704e-05
4.00697e-05
4.00691e-05
4.00683e-05
4.00675e-05
4.00665e-05
4.00654e-05
4.00642e-05
4.00628e-05
4.00612e-05
4.00595e-05
4.00577e-05
4.00558e-05
4.00538e-05
4.00518e-05
4.00498e-05
4.00479e-05
4.00461e-05
4.00442e-05
4.00424e-05
4.00404e-05
4.0038e-05
4.00351e-05
4.00316e-05
4.00273e-05
4.00225e-05
4.00176e-05
4.00131e-05
4.00097e-05
4.00081e-05
4.00089e-05
4.00121e-05
4.00171e-05
4.00238e-05
4.00318e-05
4.00406e-05
4.00494e-05
0
8.06941e-06
3.31521e-05
4.4816e-05
4.18684e-05
4.02312e-05
4.00081e-05
4.0053e-05
4.01369e-05
4.01407e-05
4.01252e-05
4.01187e-05
4.01126e-05
4.01059e-05
4.01006e-05
4.00959e-05
4.00917e-05
4.00881e-05
4.0085e-05
4.00824e-05
4.00802e-05
4.00783e-05
4.00767e-05
4.00755e-05
4.00744e-05
4.00735e-05
4.00728e-05
4.00722e-05
4.00716e-05
4.0071e-05
4.00704e-05
4.00697e-05
4.00689e-05
4.00681e-05
4.00671e-05
4.00659e-05
4.00646e-05
4.00632e-05
4.00616e-05
4.00598e-05
4.0058e-05
4.0056e-05
4.00541e-05
4.00521e-05
4.00501e-05
4.00482e-05
4.00464e-05
4.00445e-05
4.00427e-05
4.00406e-05
4.00381e-05
4.00351e-05
4.00314e-05
4.0027e-05
4.00221e-05
4.00171e-05
4.00127e-05
4.00095e-05
4.00081e-05
4.00092e-05
4.00127e-05
8.14364e-06
3.34163e-05
4.43836e-05
4.21133e-05
4.00302e-05
3.99569e-05
4.00598e-05
4.01306e-05
4.0146e-05
4.01294e-05
4.012e-05
4.01146e-05
4.01083e-05
4.01027e-05
4.0098e-05
4.00938e-05
4.00901e-05
4.0087e-05
4.00842e-05
4.00819e-05
4.00799e-05
4.00783e-05
4.00769e-05
4.00757e-05
4.00748e-05
4.0074e-05
4.00734e-05
4.00728e-05
4.00723e-05
4.00717e-05
4.00711e-05
4.00703e-05
4.00695e-05
4.00686e-05
4.00676e-05
4.00664e-05
4.0065e-05
4.00635e-05
4.00619e-05
4.00601e-05
4.00583e-05
4.00563e-05
4.00543e-05
4.00523e-05
4.00504e-05
4.00485e-05
4.00467e-05
4.00448e-05
4.00429e-05
4.00408e-05
4.00382e-05
4.0035e-05
4.00311e-05
4.00266e-05
3.48928e-05
4.3295e-05
4.19594e-05
3.99597e-05
3.98726e-05
4.00801e-05
4.01326e-05
4.0146e-05
4.01324e-05
4.01206e-05
4.01151e-05
4.01096e-05
4.01041e-05
4.00995e-05
4.00954e-05
4.00917e-05
4.00885e-05
4.00858e-05
4.00834e-05
4.00814e-05
4.00797e-05
4.00783e-05
4.00771e-05
4.00761e-05
4.00753e-05
4.00746e-05
4.0074e-05
4.00735e-05
4.00729e-05
4.00724e-05
4.00717e-05
4.0071e-05
4.00701e-05
4.00692e-05
4.00681e-05
4.00669e-05
4.00655e-05
4.00639e-05
4.00622e-05
4.00604e-05
4.00585e-05
4.00565e-05
)
;

boundaryField
{
    inlet
    {
        type            freestream;
        freestreamValue uniform 4e-05;
        value           uniform 4e-05;
    }
    outlet
    {
        type            freestream;
        freestreamValue nonuniform List<scalar> 0();
        value           nonuniform List<scalar> 0();
    }
    walls
    {
        type            fixedValue;
        value           uniform 0;
    }
    frontAndBack
    {
        type            empty;
    }
    procBoundary2to1
    {
        type            processor;
        value           nonuniform List<scalar> 
84
(
0.107976
0.0680106
0.0311651
0.00305867
0.000717178
9.36251e-07
3.85604e-05
4.04107e-05
4.0143e-05
4.00445e-05
4.00473e-05
4.0062e-05
4.00677e-05
4.00664e-05
4.00647e-05
4.00636e-05
4.0063e-05
4.00627e-05
4.00624e-05
4.00623e-05
4.00622e-05
4.00622e-05
4.00623e-05
4.00622e-05
4.00621e-05
4.00619e-05
4.00617e-05
4.00614e-05
4.0061e-05
4.00606e-05
4.00602e-05
4.00597e-05
4.00591e-05
4.00584e-05
4.00576e-05
4.00568e-05
4.00558e-05
4.00548e-05
4.00548e-05
4.0053e-05
4.00517e-05
4.00502e-05
4.00487e-05
4.00471e-05
4.00454e-05
4.00436e-05
4.00418e-05
4.00401e-05
4.00384e-05
4.00367e-05
4.0035e-05
4.00331e-05
4.00311e-05
4.00311e-05
4.00283e-05
4.00254e-05
4.0022e-05
4.00183e-05
4.00145e-05
4.0011e-05
4.00085e-05
4.00074e-05
4.00085e-05
4.00085e-05
4.0011e-05
4.00151e-05
4.00205e-05
4.0027e-05
4.00341e-05
4.00413e-05
4.00472e-05
4.00514e-05
4.00546e-05
4.00572e-05
4.00572e-05
4.00584e-05
4.00619e-05
4.00686e-05
4.0079e-05
4.0088e-05
4.00849e-05
4.00712e-05
4.00799e-05
4.00763e-05
)
;
    }
    procBoundary2to3
    {
        type            processor;
        value           nonuniform List<scalar> 
88
(
4.01486e-05
4.00978e-05
4.01024e-05
4.01486e-05
4.01045e-05
4.01145e-05
4.01024e-05
4.01174e-05
4.00768e-05
4.00854e-05
4.01145e-05
4.01006e-05
4.00579e-05
4.00648e-05
4.00689e-05
4.00716e-05
4.00768e-05
4.00741e-05
4.0018e-05
4.0025e-05
4.00332e-05
4.0042e-05
4.00579e-05
4.00509e-05
4.00216e-05
4.00166e-05
4.00123e-05
4.00092e-05
4.00081e-05
4.00096e-05
4.0018e-05
4.00134e-05
4.00545e-05
4.00526e-05
4.00506e-05
4.00488e-05
4.00469e-05
4.00451e-05
4.00432e-05
4.0041e-05
4.00383e-05
4.00349e-05
4.00308e-05
4.00216e-05
4.00261e-05
4.28721e-05
4.14853e-05
3.9984e-05
3.98467e-05
4.00915e-05
4.01448e-05
4.01419e-05
4.0132e-05
4.01201e-05
4.01141e-05
4.01094e-05
4.01043e-05
4.00999e-05
4.00961e-05
4.00926e-05
4.00895e-05
4.00868e-05
4.00845e-05
4.00825e-05
4.00808e-05
4.00794e-05
4.00782e-05
4.00772e-05
4.00764e-05
4.00757e-05
4.00751e-05
4.00746e-05
4.00741e-05
4.00736e-05
4.0073e-05
4.00723e-05
4.00715e-05
4.00707e-05
4.00697e-05
4.00685e-05
4.00672e-05
4.00658e-05
4.00642e-05
4.00625e-05
4.00607e-05
4.00587e-05
4.00545e-05
4.00567e-05
)
;
    }
    procBoundary2to6
    {
        type            processor;
        value           nonuniform List<scalar> 
13
(
0.171305
0.212159
0.216133
0.200846
0.170809
0.128215
0.0770895
0.0288021
0.00285988
0.000339323
0
1.89496e-08
2.24353e-06
)
;
    }
}


// ************************************************************************* //
