/*--------------------------------*- C++ -*----------------------------------*\
| =========                 |                                                 |
| \\      /  F ield         | OpenFOAM: The Open Source CFD Toolbox           |
|  \\    /   O peration     | Version:  2506                                  |
|   \\  /    A nd           | Website:  www.openfoam.com                      |
|    \\/     M anipulation  |                                                 |
\*---------------------------------------------------------------------------*/
FoamFile
{
    version     2.0;
    format      ascii;
    arch        "LSB;label=32;scalar=64";
    class       volScalarField;
    location    "250";
    object      turbulenceProperties:L;
}
// * * * * * * * * * * * * * * * * * * * * * * * * * * * * * * * * * * * * * //

dimensions      [0 1 0 0 0 0 0];

internalField   nonuniform List<scalar> 
1340
(
0.0560833
0.0562075
0.0564339
0.056531
0.212388
0.207392
0.198306
0.175188
0.258856
0.261738
0.273203
0.246039
0.235026
0.245814
0.257496
0.242379
0.118306
0.087467
0.110294
0.192137
0.668388
0.0504436
0.0604394
0.0991418
0.061995
0.336633
3.30987
0.0222047
0.0487126
0.0584396
0.292832
0.0594201
0.0436343
0.0422346
0.0410147
0.455991
0.0475057
0.047822
0.0374419
0.0656529
0.047243
0.0473188
0.039913
0.0355707
0.049046
0.0487727
0.0430381
0.0340501
0.0500068
0.0496603
0.0448375
0.0355251
0.0514608
0.0512373
0.046604
0.0374445
0.0528836
0.0527933
0.0484564
0.0394241
0.054549
0.0546057
0.0505338
0.0415231
0.0563744
0.0565958
0.052793
0.043801
0.0584316
0.0588437
0.0552672
0.0462864
0.060738
0.0613734
0.0579905
0.0490049
0.0633406
0.0642427
0.0609957
0.0519679
0.0662893
0.0675143
0.0643408
0.0552096
0.0696496
0.0712662
0.0680824
0.0587563
0.0735005
0.0756092
0.072296
0.0626345
0.0779428
0.0806798
0.0770857
0.0668888
0.0831112
0.0866781
0.0825626
0.0715461
0.0891788
0.0938829
0.0888832
0.0766494
0.0963736
0.102709
0.0962345
0.0822242
0.104996
0.113818
0.104853
0.0882922
0.115437
0.128324
0.114996
0.0948426
0.128139
0.148318
0.126891
0.101811
0.143431
0.178433
0.140517
0.109061
0.160825
0.231711
0.155136
0.11634
0.17737
0.373433
0.168511
0.123293
0.18686
0.527444
0.177041
0.129498
0.185554
0.283544
0.178568
0.134583
0.1774
0.222045
0.174687
0.138353
0.167879
0.192458
0.168593
0.140857
0.159551
0.175058
0.162469
0.142342
0.136098
0.152996
0.163866
0.157234
0.143141
0.135072
0.148112
0.156369
0.153124
0.14358
0.134319
0.144646
0.151307
0.150101
0.143914
0.133964
0.142356
0.14798
0.148055
0.144326
0.134068
0.14105
0.14596
0.146865
0.144938
0.134645
0.140579
0.144974
0.146427
0.145823
0.135691
0.14083
0.144837
0.146656
0.147028
0.137197
0.141717
0.145419
0.14748
0.148575
0.139148
0.143177
0.146633
0.148849
0.150477
0.141527
0.14516
0.14841
0.150721
0.152744
0.144324
0.14763
0.150702
0.153064
0.155373
0.147534
0.150568
0.153483
0.155863
0.158377
0.151159
0.15396
0.156736
0.159108
0.161764
0.155212
0.157814
0.160462
0.162808
0.165554
0.157361
0.159719
0.162147
0.164676
0.166981
0.169778
0.162532
0.164717
0.16699
0.169408
0.171658
0.174474
0.168207
0.170239
0.172375
0.174687
0.176872
0.179685
0.174415
0.176312
0.178323
0.180534
0.182646
0.185439
0.18116
0.182936
0.184831
0.186946
0.188976
0.191741
0.188416
0.19008
0.191868
0.193891
0.195835
0.198566
0.196148
0.19771
0.199399
0.201334
0.203189
0.205877
0.204366
0.205836
0.207433
0.209281
0.211046
0.21368
0.213168
0.214556
0.216066
0.21783
0.2195
0.222063
0.22155
0.22276
0.224078
0.225509
0.227186
0.228755
0.231228
0.232235
0.233395
0.23465
0.236005
0.237593
0.239046
0.241416
0.244178
0.245301
0.246502
0.247782
0.24928
0.250599
0.252859
0.257472
0.258567
0.259717
0.260925
0.262329
0.263491
0.265645
0.272133
0.273208
0.274314
0.275451
0.276764
0.277759
0.279832
0.287824
0.288893
0.289965
0.29102
0.292217
0.293009
0.294932
0.303148
0.304267
0.305356
0.306386
0.307525
0.308155
0.30989
0.317427
0.318648
0.319813
0.320896
0.322074
0.322643
0.324325
0.332152
0.333523
0.334821
0.336011
0.337274
0.337838
0.339501
0.34849
0.350031
0.351489
0.352799
0.354165
0.354743
0.356412
0.365375
0.367443
0.369351
0.371098
0.3726
0.374035
0.374407
0.375281
0.387495
0.390458
0.393301
0.395978
0.398391
0.400702
0.402256
0.404821
0.422073
0.42614
0.429748
0.432811
0.435091
0.4365
0.434613
0.430302
0.490296
0.502941
0.515388
0.527155
0.537907
0.547453
0.555552
0.568316
0.548097
0.553108
0.554549
0.551989
0.543907
0.530232
0.501396
0.466387
0.519297
0.520672
0.522384
0.524811
0.526734
0.519122
0.478436
0.443717
0.316272
0.310541
0.305799
0.301608
0.296973
0.290502
0.276201
0.265791
0.230806
0.23045
0.230195
0.230025
0.229908
0.229522
0.22724
0.232785
0.166978
0.16695
0.166996
0.167084
0.167272
0.167369
0.168055
0.174477
0.142926
0.180599
0.229092
0.2226
0.157041
0.0566072
0.0224287
0.0608246
0.370976
0.0464897
0.0331087
0.0331167
0.034745
0.0365399
0.0383662
0.0402994
0.0423937
0.0446653
0.0471236
0.0497887
0.052674
0.0557962
0.0591714
0.0628139
0.0667396
0.0709548
0.0754624
0.0802565
0.0853158
0.0905995
0.0960418
0.101551
0.107014
0.112297
0.117267
0.121814
0.125869
0.129415
0.132492
0.135176
0.137569
0.139777
0.141901
0.144031
0.146241
0.148588
0.15112
0.153875
0.156879
0.160166
0.163759
0.167695
0.172014
0.176764
0.181993
0.187735
0.193999
0.200764
0.208
0.215715
0.224002
0.233058
0.243117
0.2544
0.266984
0.28095
0.29575
0.310422
0.324581
0.339501
0.356226
0.374446
0.40459
0.425541
0.573682
0.446626
0.465212
0.268204
0.247668
0.185159
0.217778
0.221877
0.253976
0.260037
0.164371
0.102383
4.33519
2.09835
0.236508
0.0483824
0.0432952
0.0439256
0.0452916
0.0466398
0.0479968
0.0494573
0.0510571
0.0528187
0.0547405
0.0568417
0.0591308
0.0616231
0.0643317
0.0672546
0.0704048
0.0737858
0.0773915
0.0812119
0.0852351
0.0894332
0.0937712
0.0982032
0.102676
0.10713
0.111498
0.115726
0.119762
0.123576
0.127156
0.130512
0.13367
0.136674
0.13957
0.142415
0.145263
0.148164
0.151164
0.154305
0.157622
0.161156
0.164942
0.169022
0.173446
0.178267
0.183537
0.189292
0.195543
0.20227
0.209451
0.217103
0.225323
0.234313
0.244298
0.255486
0.267937
0.281744
0.29638
0.310954
0.324979
0.339701
0.356294
0.374316
0.404477
0.424323
0.576368
0.436097
0.497255
0.267704
0.24881
0.183072
0.276349
0.260059
0.259111
0.247237
0.0860127
0.0448641
1.31371e-05
0.727911
0.0912178
0.0554998
0.0558344
0.0573018
0.0589216
0.0603842
0.0618299
0.0633375
0.0649076
0.0665555
0.0682945
0.0701056
0.0720147
0.0740255
0.0761601
0.0784099
0.0807916
0.0833244
0.0860079
0.0888421
0.0918358
0.0949786
0.098261
0.101667
0.105173
0.108752
0.11237
0.116
0.119606
0.123164
0.126654
0.130069
0.133405
0.136676
0.139898
0.1431
0.14631
0.14956
0.152887
0.156321
0.159898
0.163655
0.167628
0.171863
0.176412
0.181331
0.186674
0.192475
0.198749
0.205474
0.212635
0.220257
0.228448
0.23741
0.247366
0.258515
0.2709
0.284619
0.299171
0.313691
0.327581
0.342048
0.358458
0.376248
0.406197
0.425602
0.572683
0.431917
0.514646
0.268804
0.251346
0.182846
0.31787
0.291607
0.253654
0.141988
0.0748753
0
2.01805
0.236496
0.0739851
0.0665865
0.0688337
0.0701285
0.0714964
0.0727317
0.074044
0.0754525
0.0769237
0.0784709
0.0800927
0.0817608
0.0835019
0.0852939
0.0871511
0.0890779
0.0910699
0.0931397
0.0952979
0.0975462
0.0998951
0.102348
0.104909
0.107583
0.11036
0.113241
0.116214
0.119266
0.122385
0.125556
0.128765
0.132005
0.135264
0.138541
0.141844
0.145178
0.148556
0.151996
0.155521
0.15915
0.162911
0.166836
0.170956
0.175318
0.179973
0.184976
0.190381
0.196223
0.202513
0.209233
0.216371
0.223958
0.232113
0.241039
0.250955
0.262052
0.274357
0.287967
0.302392
0.316768
0.330435
0.344591
0.360736
0.378171
0.407666
0.426505
0.564367
0.428965
0.523043
0.270164
0.254613
0.18352
0.3487
0.311585
0.197827
0.151284
0
6.67301
0.771283
0.103595
0.0769981
0.0778874
0.0799056
0.080576
0.0813472
0.0820487
0.0828658
0.083768
0.0847604
0.0858664
0.087069
0.088378
0.0898054
0.091342
0.0929771
0.0947315
0.0965895
0.0985353
0.100587
0.102729
0.104957
0.107272
0.10967
0.112154
0.114716
0.117363
0.120092
0.122896
0.12578
0.128735
0.131762
0.134858
0.138016
0.141238
0.144529
0.147887
0.151321
0.15484
0.158459
0.16219
0.166053
0.170074
0.174281
0.17872
0.183436
0.188483
0.193916
0.199766
0.20604
0.212724
0.21981
0.227337
0.235427
0.244285
0.254122
0.265117
0.277279
0.290708
0.304928
0.319076
0.332452
0.346262
0.362082
0.379092
0.407942
0.425955
0.553557
0.424387
0.529383
0.270105
0.256377
0.183607
0.37356
0.325162
0.12639
0.0623608
3.402
6.36961
0.144255
0.0877773
0.0847943
0.0877254
0.0887846
0.0891821
0.089741
0.0903136
0.0910001
0.0917472
0.0925915
0.0935298
0.0945416
0.0956489
0.0968483
0.0981453
0.0995295
0.101023
0.102618
0.104307
0.106116
0.108024
0.110039
0.112161
0.114383
0.11671
0.119127
0.12164
0.124243
0.126926
0.129696
0.132543
0.135471
0.13848
0.141562
0.144729
0.147981
0.151317
0.15475
0.158282
0.161925
0.165689
0.16959
0.17365
0.177894
0.182364
0.187102
0.19216
0.19759
0.203418
0.209651
0.216276
0.22329
0.230736
0.238743
0.247511
0.257243
0.268102
0.280081
0.293283
0.307258
0.321141
0.334183
0.347616
0.363062
0.3796
0.407687
0.424694
0.54198
0.419021
0.537189
0.269506
0.390622
0.248199
0.0620275
0.27127
1.57274
0.194644
0.10297
0.0959652
0.0985933
0.100511
0.100561
0.100675
0.100932
0.101247
0.101673
0.102162
0.102758
0.103456
0.104233
0.105109
0.106075
0.107139
0.108305
0.109564
0.110911
0.112363
0.113918
0.11556
0.117309
0.119159
0.121109
0.123166
0.125324
0.127586
0.129952
0.132419
0.134989
0.137653
0.140421
0.143285
0.146243
0.149306
0.152467
0.155732
0.15911
0.162599
0.166213
0.169958
0.173847
0.1779
0.182139
0.186602
0.191329
0.19637
0.20177
0.207555
0.213728
0.220275
0.227201
0.234554
0.242464
0.251127
0.260738
0.271441
0.28321
0.296161
0.309868
0.32345
0.336113
0.349134
0.364152
0.380162
0.407381
0.423225
0.530236
0.413784
0.441669
0.168239
9.71481
2.60842
0.299573
0.118546
0.108602
0.110796
0.113271
0.113461
0.113053
0.112972
0.112984
0.113084
0.11329
0.113578
0.113973
0.114466
0.115046
0.115724
0.116493
0.117354
0.118317
0.119368
0.120503
0.12174
0.123069
0.124484
0.125999
0.127608
0.129311
0.131118
0.133021
0.135027
0.137139
0.139357
0.141685
0.14412
0.14667
0.149334
0.152111
0.155009
0.158023
0.161162
0.164431
0.167826
0.171361
0.175038
0.17887
0.182873
0.187066
0.191485
0.196167
0.20116
0.206502
0.212215
0.218304
0.224754
0.231572
0.238813
0.24661
0.25515
0.264616
0.275137
0.286666
0.299334
0.312736
0.325967
0.338202
0.350772
0.365306
0.380732
0.406949
0.421504
0.169803
0
10.5956
1.66165
0.131986
0.120684
0.123153
0.125827
0.126096
0.125297
0.124768
0.124472
0.12426
0.124167
0.124185
0.124313
0.124555
0.124896
0.125339
0.125887
0.126534
0.127273
0.128102
0.129032
0.130044
0.131141
0.13233
0.133606
0.134969
0.136419
0.137962
0.139599
0.141323
0.143151
0.145078
0.147104
0.14924
0.151484
0.153841
0.156317
0.158915
0.161637
0.164491
0.167478
0.170605
0.173873
0.177293
0.180865
0.184601
0.188515
0.192625
0.196964
0.201565
0.206474
0.211725
0.217337
0.223311
0.229637
0.236323
0.243429
0.251088
0.259479
0.268768
0.279071
0.290319
0.302663
0.315714
0.328535
0.340298
0.352383
0.366374
0
0
1.10096
0.157225
0.131248
0.137079
0.139377
0.139575
0.138424
0.137415
0.136759
0.136227
0.135806
0.135525
0.135364
0.135315
0.135393
0.135586
0.135887
0.136297
0.136813
0.13743
0.13814
0.13895
0.139846
0.140826
0.141901
0.143058
0.1443
0.145623
0.147041
0.148544
0.150128
0.151817
0.153597
0.155472
0.157455
0.159541
0.16174
0.164055
0.166492
0.169056
0.171752
0.174586
0.177566
0.180692
0.183976
0.18742
0.191033
0.194828
0.198823
0.203049
0.207536
0.212327
0.217452
0.222929
0.228758
0.234929
0.241457
0.248401
0.255893
0.264103
0.273182
0.283225
0.294147
0.306121
0
1.53631
0.191564
0.145173
0.150822
0.154755
0.153941
0.152555
0.151104
0.150086
0.149256
0.148537
0.147964
0.147526
0.147228
0.147047
0.146994
0.147072
0.147256
0.147552
0.147953
0.148458
0.149058
0.149751
0.150527
0.151391
0.152345
0.153376
0.15449
0.155685
0.156966
0.15833
0.159775
0.161316
0.162945
0.164669
0.166495
0.168422
0.170461
0.172616
0.174889
0.177292
0.179826
0.182502
0.185326
0.188298
0.191433
0.194729
0.198198
0.201852
0.205705
0.209788
0.214129
0.21877
0.223737
0.229047
0.234699
0.240686
0.247026
0.25378
0.261074
1.58093
0.220149
0.158298
0.165642
0.170381
0.16914
0.167064
0.16538
0.164001
0.162905
0.161926
0.161087
0.160405
0.159858
0.159467
0.159199
0.159061
0.15906
0.159166
0.159389
0.159715
0.160146
0.160665
0.161275
0.161968
0.162741
0.163599
0.164528
0.165533
0.166613
0.167772
0.169006
0.170317
0.171717
0.173197
0.174769
0.176437
0.1782
0.180075
0.182061
0.184162
0.186393
0.188758
0.191263
0.193917
0.196723
0.199691
0.202823
0.206128
0.209617
0.213302
0.217215
0.221382
0.225838
0.217573
0.182807
0.178838
0.186733
0.184337
0.181874
0.179907
0.178336
0.176988
0.175818
0.174749
0.173853
0.173117
0.172514
0.172065
0.171743
0.171558
0.171503
0.171561
0.171732
0.172006
0.172376
0.17284
0.173388
0.174012
0.174721
0.175502
0.176351
0.177269
0.178256
0.179315
0.180437
0.181636
0.182911
0.184257
0.185692
0.18721
0.188821
0.190537
0.192357
0.194292
0.196344
)
;

boundaryField
{
    inlet
    {
        type            calculated;
        value           nonuniform List<scalar> 
13
(
0.0987966
0.0981421
0.0975773
0.0970767
0.0965989
0.0961124
0.0954919
0.0953132
0.0957639
0.096035
0.0963933
0.0967059
0.0969635
)
;
    }
    outlet
    {
        type            calculated;
        value           nonuniform List<scalar> 0();
    }
    walls
    {
        type            calculated;
        value           uniform 0;
    }
    frontAndBack
    {
        type            empty;
    }
    procBoundary2to1
    {
        type            processor;
        value           nonuniform List<scalar> 
84
(
0.0559808
0.216996
0.252149
0.240236
0.0722556
9.10744
0.0391493
0.0456414
0.0438216
0.0469135
0.046937
0.0483121
0.0491796
0.0504128
0.0516585
0.0530839
0.0546459
0.0563902
0.0583331
0.0605039
0.0629366
0.0656707
0.0687492
0.0722221
0.0761486
0.0805921
0.0856154
0.0912712
0.0975864
0.104516
0.111888
0.119336
0.12625
0.131896
0.135698
0.137548
0.137828
0.137153
0.137153
0.121556
0.122857
0.124065
0.125318
0.126719
0.128339
0.130227
0.132415
0.134922
0.13776
0.140939
0.14447
0.148368
0.152654
0.152654
0.155109
0.160459
0.16629
0.172636
0.179505
0.186873
0.194707
0.203016
0.211895
0.211895
0.220421
0.231143
0.243106
0.256409
0.271063
0.286736
0.301991
0.316143
0.330703
0.346853
0.346853
0.363186
0.384466
0.417622
0.477864
0.540005
0.517437
0.323194
0.231332
0.167115
)
;
    }
    procBoundary2to3
    {
        type            processor;
        value           nonuniform List<scalar> 
88
(
0.257302
0.183434
0.544641
0.257302
0.268939
0.518249
0.544641
0.408856
0.381167
0.406236
0.518249
0.419422
0.318767
0.331121
0.342371
0.353939
0.381167
0.367336
0.269066
0.277894
0.287634
0.298183
0.318767
0.309741
0.230612
0.235723
0.241167
0.246939
0.253061
0.259593
0.269066
0.266657
0.198529
0.200858
0.203335
0.205966
0.208754
0.211706
0.214829
0.218131
0.221625
0.22534
0.229303
0.230612
0.233547
0.190616
0.201972
0.199775
0.200138
0.196424
0.194598
0.192864
0.191415
0.190084
0.188892
0.18784
0.186955
0.186224
0.18561
0.185152
0.184828
0.18463
0.184552
0.184586
0.184728
0.18497
0.185301
0.185717
0.186215
0.186791
0.187437
0.188148
0.188927
0.189764
0.190665
0.191628
0.192651
0.193742
0.194896
0.196121
0.197422
0.198798
0.200264
0.201824
0.203481
0.205255
0.198529
0.207147
)
;
    }
    procBoundary2to6
    {
        type            processor;
        value           nonuniform List<scalar> 
13
(
0.161673
0.234922
0.296288
0.340082
0.371557
0.395921
0.416264
0.433649
0.485564
0.119441
0
3.92868e-05
8.90077
)
;
    }
}


// ************************************************************************* //
