/*--------------------------------*- C++ -*----------------------------------*\
| =========                 |                                                 |
| \\      /  F ield         | OpenFOAM: The Open Source CFD Toolbox           |
|  \\    /   O peration     | Version:  2506                                  |
|   \\  /    A nd           | Website:  www.openfoam.com                      |
|    \\/     M anipulation  |                                                 |
\*---------------------------------------------------------------------------*/
FoamFile
{
    version     2.0;
    format      ascii;
    arch        "LSB;label=32;scalar=64";
    class       volSymmTensorField;
    location    "250";
    object      turbulenceProperties:devReff;
}
// * * * * * * * * * * * * * * * * * * * * * * * * * * * * * * * * * * * * * //

dimensions      [0 2 -2 0 0 0 0];

internalField   nonuniform List<symmTensor> 
1340
(
(-3.53772 14.0113 1.02449e-15 3.50246 1.64629e-16 0.0352593)
(-3.77525 13.2878 1.4504e-15 3.74317 2.67017e-16 0.0320832)
(-3.91911 12.4697 -2.90435e-16 3.88911 -3.65761e-17 0.0299941)
(-3.63939 10.0647 -4.55374e-15 3.63279 -7.83744e-16 0.00660194)
(-0.108466 0.415681 -4.90959e-16 0.133623 -8.64294e-17 -0.0251569)
(-0.128808 0.456349 -1.22501e-15 0.151598 -5.16715e-16 -0.0227891)
(-0.147363 0.55265 -2.52568e-15 0.174214 -2.48764e-18 -0.0268508)
(-0.207749 0.776674 -2.04047e-15 0.197483 1.3622e-15 0.0102658)
(-0.0113396 0.0930228 2.15706e-16 0.0108483 -1.77256e-17 0.000491323)
(-0.0190726 0.127654 -1.17354e-15 0.0190327 2.12582e-16 3.98657e-05)
(-0.0096077 0.154148 2.94763e-15 0.0104391 5.33283e-16 -0.000831416)
(-0.0374 0.261339 4.6373e-15 0.0293951 9.51043e-16 0.00800485)
(0.000889726 0.00335347 -1.74582e-16 -0.000950087 -2.66837e-17 6.0361e-05)
(0.00157969 0.0112335 7.43312e-16 -0.00206037 1.09971e-16 0.000480674)
(0.00673675 0.027948 -4.86375e-16 -0.0072284 -1.68692e-16 0.000491644)
(-0.00280443 0.104585 -3.2921e-16 -0.00198456 -1.41332e-15 0.00478899)
(0.000569809 -0.000463431 -9.08896e-18 -0.000661795 3.64223e-18 9.1986e-05)
(0.00026047 -9.31225e-05 -1.27286e-17 -0.000281535 -1.06328e-17 2.10653e-05)
(0.000887638 0.000202283 5.30089e-17 -0.000867164 3.77576e-18 -2.04743e-05)
(0.00384237 0.0197498 -2.90713e-16 -0.00521943 5.25075e-17 0.00137706)
(1.65634e-06 -2.29314e-06 2.53973e-19 -6.27129e-07 2.25963e-20 -1.02921e-06)
(4.46798e-05 -2.40554e-05 -8.40579e-18 -3.31317e-05 -1.62398e-19 -1.15481e-05)
(0.000218481 -2.29457e-05 -1.56094e-17 -0.000190645 -5.08719e-18 -2.78354e-05)
(0.000981128 0.00205871 6.92517e-18 -0.00114806 4.7612e-17 0.000166937)
(3.85062e-06 -2.26046e-06 -2.26996e-19 -4.76818e-06 -2.86374e-20 9.17553e-07)
(3.91034e-06 -1.12041e-06 3.42307e-19 -4.63782e-06 8.96338e-20 7.27485e-07)
(5.50458e-06 -8.83353e-08 5.12653e-21 -5.82178e-06 7.6845e-20 3.17196e-07)
(3.40954e-05 4.92781e-05 2.76465e-18 -4.20042e-05 2.45129e-19 7.90881e-06)
(3.10394e-06 -3.36347e-06 3.34316e-19 -2.23811e-06 5.94106e-20 -8.65835e-07)
(3.47562e-06 -1.55411e-06 -1.37887e-19 -2.94626e-06 -5.9007e-20 -5.2936e-07)
(4.37429e-06 8.79326e-08 2.83987e-20 -3.92034e-06 6.76242e-21 -4.53944e-07)
(4.18772e-06 6.63079e-06 4.56515e-21 -4.80104e-06 -1.30949e-19 6.13319e-07)
(4.3569e-06 -3.06914e-06 -1.31455e-20 -4.74717e-06 -1.48231e-20 3.90275e-07)
(5.38334e-06 -1.54492e-06 8.75133e-20 -5.84093e-06 9.57251e-20 4.5759e-07)
(6.54799e-06 4.87248e-07 6.40779e-20 -6.59565e-06 -6.58015e-20 4.76562e-08)
(3.78093e-06 5.96157e-06 -3.40667e-20 -4.49201e-06 3.64859e-20 7.11082e-07)
(3.59334e-06 -3.08249e-06 1.04224e-19 -3.3591e-06 1.37914e-20 -2.34234e-07)
(4.43762e-06 -1.45584e-06 5.86214e-19 -4.34769e-06 1.97395e-21 -8.99357e-08)
(7.54353e-06 6.87234e-07 -5.34504e-19 -7.23006e-06 4.80595e-20 -3.13473e-07)
(3.5578e-06 5.83894e-06 1.46446e-19 -4.14528e-06 6.88118e-20 5.87478e-07)
(3.7098e-06 -2.87468e-06 1.09311e-20 -3.75939e-06 -2.18705e-20 4.9592e-08)
(4.48231e-06 -1.25916e-06 -6.68088e-19 -4.61836e-06 -1.05166e-19 1.36057e-07)
(6.54351e-06 7.95315e-07 7.57276e-19 -6.42269e-06 1.16466e-19 -1.20819e-07)
(4.42022e-06 7.3331e-06 2.7933e-19 -5.14348e-06 -1.06179e-19 7.2326e-07)
(3.42474e-06 -2.76433e-06 -2.49219e-19 -3.35865e-06 -1.16207e-20 -6.60965e-08)
(4.25171e-06 -1.17094e-06 4.24139e-19 -4.29336e-06 6.24565e-20 4.16535e-08)
(5.67942e-06 8.48086e-07 -3.77159e-19 -5.53616e-06 -1.68334e-19 -1.43256e-07)
(4.4975e-06 7.59823e-06 -4.73479e-19 -5.19888e-06 -2.65481e-19 7.01379e-07)
(3.30556e-06 -2.61685e-06 2.8769e-19 -3.29344e-06 3.53528e-20 -1.21254e-08)
(4.09856e-06 -1.04686e-06 -5.92294e-19 -4.17594e-06 -7.87396e-20 7.73753e-08)
(5.21054e-06 9.27534e-07 -3.97626e-20 -5.10513e-06 6.35814e-20 -1.05408e-07)
(4.08235e-06 7.01162e-06 -7.57113e-19 -4.69656e-06 8.35625e-20 6.1421e-07)
(3.11413e-06 -2.49095e-06 -2.11268e-19 -3.08511e-06 -3.93457e-20 -2.90236e-08)
(3.86834e-06 -9.42813e-07 3.87153e-19 -3.92646e-06 1.1976e-19 5.81163e-08)
(4.79432e-06 9.91135e-07 6.08232e-20 -4.69767e-06 5.23463e-20 -9.66463e-08)
(3.63407e-06 6.36754e-06 4.44182e-19 -4.15597e-06 1.52056e-19 5.21903e-07)
(2.94475e-06 -2.35771e-06 4.40375e-20 -2.92721e-06 1.95884e-20 -1.75319e-08)
(3.65206e-06 -8.41894e-07 1.68037e-19 -3.71232e-06 -3.71113e-20 6.02654e-08)
(4.40145e-06 1.03695e-06 3.18952e-19 -4.32262e-06 -2.0734e-20 -7.88355e-08)
(3.23482e-06 5.78869e-06 -2.18143e-19 -3.67872e-06 -1.40054e-19 4.439e-07)
(2.75884e-06 -2.22745e-06 2.96431e-20 -2.74147e-06 1.00213e-23 -1.73789e-08)
(3.42303e-06 -7.5217e-07 -2.45438e-19 -3.47661e-06 -3.37434e-20 5.35853e-08)
(4.01615e-06 1.06369e-06 -4.20492e-19 -3.94964e-06 -1.09041e-19 -6.65104e-08)
(2.86871e-06 5.2584e-06 -2.48902e-19 -3.24356e-06 9.32857e-20 3.74852e-07)
(2.57251e-06 -2.0967e-06 -1.16202e-20 -2.55933e-06 3.88564e-21 -1.31814e-08)
(3.19307e-06 -6.703e-07 1.32375e-19 -3.24269e-06 4.96069e-21 4.96219e-08)
(3.64864e-06 1.07399e-06 -1.72636e-19 -3.59462e-06 5.73879e-20 -5.40233e-08)
(2.52989e-06 4.76317e-06 5.95385e-19 -2.84417e-06 4.41615e-20 3.14286e-07)
(2.38103e-06 -1.96729e-06 1.08883e-19 -2.37019e-06 -6.7272e-21 -1.08372e-08)
(2.95932e-06 -5.96318e-07 -3.87615e-19 -3.00395e-06 -4.89018e-20 4.4635e-08)
(3.29844e-06 1.07001e-06 2.56748e-19 -3.2552e-06 6.97698e-20 -4.32354e-08)
(2.21552e-06 4.3018e-06 -4.57043e-19 -2.47616e-06 -4.37807e-20 2.60642e-07)
(2.18758e-06 -1.83887e-06 -3.02079e-19 -2.17941e-06 -3.04759e-20 -8.16924e-09)
(2.7246e-06 -5.29364e-07 9.33009e-20 -2.76468e-06 6.50415e-20 4.00793e-08)
(2.96592e-06 1.05261e-06 1.91634e-19 -2.93182e-06 -2.48568e-20 -3.41023e-08)
(1.92523e-06 3.87282e-06 7.41097e-19 -2.13867e-06 9.23017e-20 2.13439e-07)
(1.9926e-06 -1.7122e-06 1.53044e-19 -1.98658e-06 3.2457e-20 -6.01861e-09)
(2.4899e-06 -4.69149e-07 3.01219e-19 -2.5254e-06 9.83843e-21 3.54925e-08)
(2.65161e-06 1.02382e-06 -1.85878e-19 -2.62565e-06 -5.08119e-20 -2.59559e-08)
(1.65942e-06 3.47689e-06 -4.44847e-19 -1.83292e-06 -1.29576e-19 1.73494e-07)
(1.79758e-06 -1.58734e-06 -4.12541e-20 -1.7935e-06 -1.28794e-20 -4.08113e-09)
(2.25685e-06 -4.1478e-07 -2.298e-19 -2.28794e-06 -4.54648e-20 3.10913e-08)
(2.35464e-06 9.85694e-07 -1.09348e-19 -2.33535e-06 1.82155e-20 -1.92958e-08)
(1.41612e-06 3.11225e-06 8.45531e-20 -1.55524e-06 6.04164e-20 1.39127e-07)
(1.60377e-06 -1.46447e-06 1.21911e-20 -1.60137e-06 9.30554e-21 -2.39738e-09)
(2.02712e-06 -3.65608e-07 3.51895e-20 -2.05419e-06 2.14558e-20 2.70749e-08)
(2.0754e-06 9.39477e-07 1.29462e-19 -2.06169e-06 3.83654e-20 -1.37044e-08)
(1.19461e-06 2.77782e-06 5.03882e-21 -1.30483e-06 -2.13874e-20 1.10226e-07)
(1.41248e-06 -1.34404e-06 8.64103e-20 -1.41149e-06 4.43817e-21 -9.92341e-10)
(1.80202e-06 -3.20935e-07 8.27959e-21 -1.82533e-06 -6.3e-21 2.33114e-08)
(1.81331e-06 8.8771e-07 1.75183e-19 -1.80416e-06 -1.92329e-20 -9.15204e-09)
(9.9373e-07 2.47267e-06 -1.25436e-19 -1.08011e-06 -6.41094e-21 8.63765e-08)
(1.22512e-06 -1.22637e-06 -6.88163e-20 -1.22528e-06 -9.33614e-21 1.54497e-10)
(1.58316e-06 -2.80369e-07 -6.21687e-20 -1.60312e-06 2.12691e-21 1.99568e-08)
(1.5681e-06 8.31229e-07 -3.44894e-19 -1.56236e-06 -4.18907e-20 -5.73827e-09)
(8.11991e-07 2.19451e-06 7.0439e-20 -8.78626e-07 2.48764e-20 6.66353e-08)
(1.04298e-06 -1.11156e-06 4.92629e-20 -1.04402e-06 1.65234e-21 1.04002e-09)
(1.37179e-06 -2.43017e-07 1.37757e-19 -1.38874e-06 1.94107e-20 1.69527e-08)
(1.33954e-06 7.72382e-07 1.29088e-19 -1.33647e-06 5.78981e-20 -3.07457e-09)
(6.48392e-07 1.94236e-06 7.39099e-20 -6.99313e-07 9.95936e-21 5.09206e-08)
(8.67427e-07 -9.99804e-07 -1.27762e-19 -8.69162e-07 -9.95904e-21 1.73531e-09)
(1.16918e-06 -2.08389e-07 -6.17717e-21 -1.18348e-06 -4.42017e-21 1.43042e-08)
(1.12719e-06 7.1256e-07 2.31943e-19 -1.12601e-06 2.57474e-21 -1.1829e-09)
(5.01234e-07 1.71434e-06 1.19147e-19 -5.39568e-07 -1.36027e-20 3.83347e-08)
(6.99658e-07 -8.91391e-07 1.09739e-19 -7.01903e-07 1.86349e-20 2.24461e-09)
(9.7651e-07 -1.75868e-07 8.89229e-20 -9.88539e-07 8.11525e-21 1.20295e-08)
(9.30735e-07 6.53247e-07 -1.75637e-19 -9.30868e-07 -2.60883e-20 1.32767e-10)
(3.69386e-07 1.50908e-06 -2.81898e-19 -3.98004e-07 -2.52212e-20 2.86182e-08)
(5.40812e-07 -7.86558e-07 5.94578e-21 -5.43411e-07 -5.72526e-21 2.5989e-09)
(7.94705e-07 -1.45123e-07 -2.86918e-20 -8.04777e-07 -1.32699e-20 1.00713e-08)
(7.49721e-07 5.9565e-07 1.28996e-19 -7.50641e-07 1.35612e-20 9.19935e-10)
(2.51402e-07 1.32492e-06 1.84137e-19 -2.7253e-07 2.41612e-20 2.11282e-08)
(3.91914e-07 -6.85482e-07 -7.75578e-21 -3.94697e-07 -2.43964e-21 2.78313e-09)
(6.24684e-07 -1.15552e-07 -8.50486e-20 -6.33092e-07 -1.05642e-20 8.40833e-09)
(5.83815e-07 5.40908e-07 -1.89763e-19 -5.85155e-07 -2.26625e-20 1.34002e-09)
(1.46133e-07 1.16039e-06 -2.27727e-19 -1.61655e-07 -3.67723e-20 1.55213e-08)
(2.53882e-07 -5.88371e-07 -2.47607e-20 -2.56745e-07 -3.45878e-21 2.86285e-09)
(4.67125e-07 -8.68764e-08 -5.94832e-20 -4.7421e-07 -2.31658e-21 7.08455e-09)
(4.32588e-07 4.89928e-07 9.21388e-20 -4.3407e-07 2.18735e-20 1.48166e-09)
(5.24096e-08 1.01418e-06 -2.14771e-20 -6.37927e-08 2.49544e-20 1.13831e-08)
(1.27383e-07 -4.95431e-07 -2.44266e-20 -1.30218e-07 -2.69779e-21 2.83474e-09)
(3.22418e-07 -5.88543e-08 -1.54938e-20 -3.28336e-07 5.55608e-21 5.91836e-09)
(2.95661e-07 4.43425e-07 8.34328e-21 -2.97129e-07 -2.93552e-21 1.46786e-09)
(-3.07722e-08 8.84925e-07 2.1997e-19 2.23629e-08 3.51378e-20 8.40928e-09)
(1.29961e-08 -4.069e-07 -3.37216e-20 -1.5759e-08 -2.85011e-21 2.76293e-09)
(1.91015e-07 -3.1248e-08 8.07001e-20 -1.95992e-07 7.80602e-21 4.97705e-09)
(1.72524e-07 4.01854e-07 3.23526e-20 -1.73816e-07 -1.51409e-21 1.29114e-09)
(-1.04362e-07 7.7141e-07 2.20033e-19 9.80449e-08 1.40461e-22 6.3167e-09)
(-8.89434e-08 -3.23063e-07 -1.00072e-20 8.63046e-08 3.14202e-21 2.63879e-09)
(7.30422e-08 -4.04208e-09 -2.60036e-20 -7.72493e-08 -4.9669e-21 4.20713e-09)
(6.27715e-08 3.6543e-07 -7.73244e-20 -6.38417e-08 -9.60388e-21 1.07023e-09)
(-1.69106e-07 6.72415e-07 -1.91863e-19 1.64205e-07 -3.72828e-20 4.90066e-09)
(-1.78337e-07 -2.44128e-07 6.14638e-20 1.75856e-07 6.24577e-21 2.48068e-09)
(-3.15126e-08 2.28123e-08 3.60711e-20 2.79452e-08 -3.98733e-22 3.5674e-09)
(-3.41089e-08 3.34305e-07 5.42437e-22 3.32794e-08 8.64981e-21 8.29473e-10)
(-2.25667e-07 5.86786e-07 -1.38379e-19 2.21716e-07 -1.44786e-21 3.9514e-09)
(-2.55199e-07 -1.70306e-07 -1.30521e-20 2.52935e-07 -3.0361e-21 2.26402e-09)
(-1.22829e-07 4.92214e-08 -1.23217e-19 1.1979e-07 -1.11565e-20 3.03958e-09)
(-1.18629e-07 3.08358e-07 9.42292e-20 1.18027e-07 4.33006e-21 6.0226e-10)
(-2.74632e-07 5.13371e-07 6.62688e-20 2.71273e-07 7.79798e-21 3.35902e-09)
(-3.19799e-07 -1.01807e-07 2.10064e-20 3.17752e-07 1.88734e-21 2.04725e-09)
(-2.01236e-07 7.50845e-08 7.86759e-20 1.9864e-07 1.19691e-20 2.59605e-09)
(-1.91376e-07 2.87329e-07 -1.15954e-19 1.90989e-07 -1.35821e-20 3.87177e-10)
(-3.16498e-07 4.51075e-07 -1.24415e-19 3.13502e-07 -1.40188e-20 2.99609e-09)
(-3.72564e-07 -3.88336e-08 -1.97655e-20 3.70751e-07 -1.55847e-21 1.81249e-09)
(-2.67201e-07 1.00172e-07 -3.74703e-20 2.64969e-07 -6.80885e-21 2.23215e-09)
(-2.52932e-07 2.70871e-07 5.8025e-20 2.52713e-07 8.11705e-21 2.18727e-10)
(-3.51669e-07 3.98812e-07 3.72181e-20 3.48865e-07 1.55392e-20 2.80418e-09)
(-4.1409e-07 1.8533e-08 3.43775e-20 4.12509e-07 4.73752e-21 1.58151e-09)
(-3.2135e-07 1.24298e-07 9.31338e-21 3.19431e-07 9.19551e-22 1.91858e-09)
(-3.03961e-07 2.58505e-07 -7.37716e-20 3.03888e-07 -5.36131e-21 7.32129e-11)
(-3.80552e-07 3.55499e-07 1.7224e-19 3.77844e-07 1.49247e-20 2.70787e-09)
(-5.68259e-07 3.39943e-08 -2.34193e-20 5.66916e-07 -2.30632e-22 1.34316e-09)
(-4.45114e-07 7.01313e-08 1.01878e-20 4.43759e-07 -3.68601e-21 1.35507e-09)
(-3.64385e-07 1.47153e-07 -4.37162e-20 3.62746e-07 6.29712e-22 1.63955e-09)
(-3.45132e-07 2.4971e-07 1.26017e-19 3.45167e-07 1.61134e-20 -3.49341e-11)
(-4.03485e-07 3.20111e-07 -2.43374e-20 4.00807e-07 -8.44283e-21 2.67898e-09)
(-5.69478e-07 9.79553e-08 6.33598e-20 5.68349e-07 6.97379e-21 1.12864e-09)
(-4.66462e-07 1.15956e-07 -1.02754e-19 4.65319e-07 -1.06943e-20 1.14274e-09)
(-3.97114e-07 1.68513e-07 1.57084e-19 3.95696e-07 1.49609e-20 1.41783e-09)
(-3.77155e-07 2.43893e-07 1.01383e-20 3.77265e-07 -8.31914e-21 -1.10184e-10)
(-4.20806e-07 2.91602e-07 7.93676e-21 4.18121e-07 1.71461e-21 2.6845e-09)
(-5.63897e-07 1.52826e-07 -1.77897e-20 5.6296e-07 -4.64975e-21 9.36976e-10)
(-4.79076e-07 1.56048e-07 2.01562e-20 4.78127e-07 7.407e-21 9.48777e-10)
(-4.20437e-07 1.88102e-07 -8.7256e-20 4.19228e-07 -1.50007e-20 1.20883e-09)
(-4.00793e-07 2.40462e-07 -1.4436e-19 4.00973e-07 -1.36949e-20 -1.80587e-10)
(-4.32881e-07 2.68994e-07 -4.63713e-21 4.30185e-07 -3.62149e-21 2.69588e-09)
(-5.52497e-07 1.99013e-07 -2.51199e-20 5.51732e-07 -9.91704e-22 7.65459e-10)
(-4.83943e-07 1.90512e-07 6.07573e-20 4.83169e-07 7.39218e-21 7.74136e-10)
(-4.35269e-07 2.05727e-07 -1.68628e-20 4.34234e-07 2.49581e-21 1.03512e-09)
(-4.16788e-07 2.38882e-07 5.31742e-20 4.16996e-07 1.07981e-20 -2.07854e-10)
(-4.40039e-07 2.51405e-07 -9.15593e-20 4.37311e-07 -6.77004e-21 2.72791e-09)
(-5.36238e-07 2.37e-07 4.06667e-20 5.3562e-07 5.31095e-21 6.17555e-10)
(-4.82073e-07 2.195e-07 5.00852e-20 4.81454e-07 3.19744e-21 6.19143e-10)
(-4.42582e-07 2.21195e-07 4.80796e-20 4.41701e-07 4.12194e-21 8.81224e-10)
(-4.25946e-07 2.38565e-07 1.50247e-20 4.26185e-07 1.81134e-21 -2.38642e-10)
(-4.42682e-07 2.37917e-07 8.89833e-20 4.39944e-07 1.31358e-20 2.73838e-09)
(-5.16061e-07 2.67367e-07 6.38524e-21 5.15571e-07 -5.40164e-22 4.90572e-10)
(-4.7447e-07 2.43238e-07 -1.39895e-20 4.7399e-07 -4.44451e-21 4.80146e-10)
(-4.43345e-07 2.34341e-07 -5.61097e-20 4.42602e-07 -6.41735e-21 7.42916e-10)
(-4.29044e-07 2.39018e-07 6.50002e-20 4.29306e-07 5.08409e-21 -2.62068e-10)
(-4.412e-07 2.27751e-07 4.45809e-20 4.38463e-07 1.87926e-21 2.73722e-09)
(-4.92864e-07 2.90762e-07 -2.75298e-21 4.92477e-07 -1.01299e-22 3.87307e-10)
(-4.62114e-07 2.62054e-07 -6.13075e-20 4.61748e-07 -6.02281e-21 3.65317e-10)
(-4.38508e-07 2.45142e-07 3.90197e-20 4.37866e-07 5.15893e-21 6.42319e-10)
(-4.26845e-07 2.39818e-07 -4.75445e-20 4.27113e-07 -8.24861e-21 -2.67865e-10)
(-4.35989e-07 2.20197e-07 -1.68405e-20 4.33254e-07 -5.22102e-21 2.73465e-09)
(-4.67455e-07 3.07848e-07 1.3047e-20 4.67156e-07 1.34417e-21 2.9918e-10)
(-4.45942e-07 2.76264e-07 1.24215e-20 4.4567e-07 4.26492e-21 2.72133e-10)
(-4.2901e-07 2.53537e-07 -2.33878e-20 4.2847e-07 -3.5885e-21 5.4052e-10)
(-4.20143e-07 2.40584e-07 -5.34131e-20 4.20426e-07 -2.9471e-21 -2.82992e-10)
(-4.27509e-07 2.14601e-07 -9.81761e-20 4.248e-07 -8.71315e-21 2.709e-09)
(-4.40574e-07 3.19304e-07 -1.24737e-20 4.40349e-07 -1.33439e-21 2.25019e-10)
(-4.26822e-07 2.8623e-07 5.91577e-20 4.2663e-07 5.30218e-21 1.91632e-10)
(-4.1571e-07 2.59558e-07 -3.83e-21 4.15253e-07 -3.62229e-24 4.57069e-10)
(-4.09655e-07 2.40999e-07 6.04249e-20 4.09948e-07 8.29336e-21 -2.92835e-10)
(-4.16188e-07 2.10404e-07 6.18474e-20 4.13516e-07 6.88229e-21 2.67187e-09)
(-4.12883e-07 3.25831e-07 1.93772e-20 4.1271e-07 3.16094e-21 1.72653e-10)
(-4.05535e-07 2.92392e-07 -4.61914e-20 4.05406e-07 -7.71383e-21 1.29385e-10)
(-3.99429e-07 2.63308e-07 -7.08108e-21 3.99032e-07 -2.86761e-22 3.96921e-10)
(-3.96076e-07 2.40855e-07 2.24382e-20 3.96367e-07 2.47872e-21 -2.9141e-10)
(-4.02459e-07 2.07133e-07 -9.55363e-20 3.99826e-07 -1.14898e-20 2.63291e-09)
(-3.84939e-07 3.28051e-07 3.74879e-20 3.84814e-07 3.58235e-21 1.25393e-10)
(-3.82792e-07 2.95115e-07 -6.05427e-20 3.82716e-07 -5.83567e-21 7.55826e-11)
(-3.80909e-07 2.64871e-07 1.67488e-20 3.80573e-07 1.27635e-21 3.36198e-10)
(-3.8008e-07 2.39933e-07 6.4168e-20 3.80384e-07 7.10593e-21 -3.03534e-10)
(-3.86779e-07 2.04367e-07 1.02197e-20 3.84216e-07 2.63601e-21 2.56309e-09)
(-3.57195e-07 3.26589e-07 -2.13756e-20 3.57103e-07 -2.78679e-21 9.27059e-11)
(-3.59189e-07 2.94785e-07 2.72197e-21 3.59148e-07 2.03085e-21 4.03464e-11)
(-3.60791e-07 2.64359e-07 -3.56085e-20 3.60504e-07 -4.42941e-21 2.87311e-10)
(-3.62238e-07 2.381e-07 2.35003e-20 3.62542e-07 1.64084e-23 -3.039e-10)
(-3.69535e-07 2.01763e-07 -2.38784e-20 3.67037e-07 -3.45543e-21 2.49766e-09)
(-3.30027e-07 3.21954e-07 2.14768e-20 3.2996e-07 2.71401e-21 6.71641e-11)
(-3.35237e-07 2.9175e-07 3.25429e-20 3.35225e-07 2.74582e-21 1.13099e-11)
(-3.39652e-07 2.61903e-07 -2.21122e-21 3.39399e-07 1.7853e-21 2.52536e-10)
(-3.43084e-07 2.35231e-07 -6.9898e-20 3.4339e-07 -9.30744e-21 -3.06168e-10)
(-3.51123e-07 1.9899e-07 -3.83702e-20 3.48705e-07 -3.61849e-21 2.41778e-09)
(-3.03721e-07 3.14607e-07 -8.35146e-21 3.03671e-07 -1.50931e-21 5.03975e-11)
(-3.11337e-07 2.86306e-07 -5.82708e-20 3.11351e-07 -7.4848e-21 -1.40692e-11)
(-3.17971e-07 2.57584e-07 7.86701e-20 3.17751e-07 9.60061e-21 2.20536e-10)
(-3.2308e-07 2.31219e-07 -5.88916e-20 3.23388e-07 -4.1225e-21 -3.08003e-10)
(-3.31888e-07 1.95774e-07 1.48986e-20 3.29559e-07 2.04263e-21 2.32824e-09)
(-2.67078e-07 3.31153e-07 5.0383e-21 2.67059e-07 1.64125e-22 1.93682e-11)
(-2.78474e-07 3.0495e-07 -1.18274e-20 2.78435e-07 -2.1323e-21 3.9072e-11)
(-2.87824e-07 2.78733e-07 -1.23664e-20 2.87853e-07 7.74741e-22 -2.95146e-11)
(-2.96139e-07 2.51527e-07 3.37055e-20 2.9594e-07 1.91256e-21 1.98987e-10)
(-3.02615e-07 2.25999e-07 7.80854e-20 3.02917e-07 1.07948e-20 -3.0234e-10)
(-3.12135e-07 1.91883e-07 -1.09019e-20 3.09907e-07 -1.80172e-21 2.22802e-09)
(-2.42044e-07 3.16952e-07 -1.31151e-20 2.42032e-07 -1.23272e-21 1.19373e-11)
(-2.54425e-07 2.93331e-07 -6.45807e-20 2.54399e-07 -7.30336e-21 2.61007e-11)
(-2.64961e-07 2.69274e-07 9.17108e-20 2.64999e-07 1.03364e-20 -3.86479e-11)
(-2.74479e-07 2.43838e-07 -4.59419e-20 2.74305e-07 -5.43406e-21 1.74002e-10)
(-2.82038e-07 2.19518e-07 5.98899e-20 2.82335e-07 5.51844e-21 -2.97243e-10)
(-2.92143e-07 1.87139e-07 -2.2942e-20 2.90029e-07 -2.21086e-21 2.11459e-09)
(-2.18783e-07 3.01306e-07 3.47236e-20 2.18775e-07 4.46261e-21 7.45024e-12)
(-2.31677e-07 2.80136e-07 1.53872e-20 2.31656e-07 2.50878e-21 2.14541e-11)
(-2.42943e-07 2.58232e-07 -4.62066e-20 2.42986e-07 -6.53826e-21 -4.31037e-11)
(-2.5326e-07 2.34712e-07 3.05177e-20 2.53104e-07 3.86228e-21 1.55452e-10)
(-2.61629e-07 2.11857e-07 -7.15433e-21 2.61907e-07 -1.94539e-21 -2.77647e-10)
(-2.72157e-07 1.81473e-07 1.76217e-20 2.70164e-07 2.32308e-21 1.99374e-09)
(-1.97272e-07 2.84659e-07 9.8512e-21 1.97266e-07 4.11476e-22 5.25641e-12)
(-2.10313e-07 2.65777e-07 -1.06235e-20 2.10298e-07 -9.90754e-22 1.4692e-11)
(-2.2194e-07 2.45977e-07 1.14432e-20 2.21984e-07 2.14058e-21 -4.45443e-11)
(-2.32722e-07 2.24418e-07 -2.79961e-20 2.32582e-07 -3.16022e-21 1.3989e-10)
(-2.41655e-07 2.03173e-07 -1.91714e-20 2.41919e-07 -2.25773e-21 -2.64243e-10)
(-2.52435e-07 1.74933e-07 -1.21467e-21 2.50575e-07 -1.02891e-22 1.85978e-09)
(-1.7749e-07 2.67509e-07 -3.78938e-20 1.77485e-07 -4.53148e-21 4.59466e-12)
(-1.904e-07 2.50739e-07 4.30615e-20 1.90389e-07 5.79607e-21 1.10697e-11)
(-2.02097e-07 2.32945e-07 1.84281e-20 2.02143e-07 1.63003e-21 -4.62327e-11)
(-2.13069e-07 2.13334e-07 4.38719e-20 2.12945e-07 5.14019e-21 1.24567e-10)
(-2.22343e-07 1.93776e-07 -1.07645e-20 2.22586e-07 -8.09315e-22 -2.43256e-10)
(-2.33208e-07 1.67738e-07 2.38921e-20 2.31481e-07 2.25763e-21 1.72729e-09)
(-1.59417e-07 2.50347e-07 1.78366e-20 1.59415e-07 2.48233e-21 1.38309e-12)
(-1.71991e-07 2.35508e-07 4.74208e-20 1.71981e-07 5.09223e-21 9.39634e-12)
(-1.83529e-07 2.19603e-07 -4.05576e-20 1.83573e-07 -4.62039e-21 -4.38901e-11)
(-1.94468e-07 2.01878e-07 -3.62127e-20 1.94355e-07 -5.43236e-21 1.12971e-10)
(-2.0389e-07 1.84011e-07 1.53143e-20 2.04112e-07 1.8262e-21 -2.21168e-10)
(-2.14698e-07 1.60156e-07 -5.01064e-20 2.13105e-07 -5.48058e-21 1.59248e-09)
(-1.43003e-07 2.33562e-07 -6.89235e-21 1.43001e-07 -1.60191e-21 1.17596e-12)
(-1.55087e-07 2.20471e-07 -2.12568e-20 1.55079e-07 -2.47419e-21 8.73646e-12)
(-1.66298e-07 2.06316e-07 4.48643e-20 1.6634e-07 5.70513e-21 -4.16995e-11)
(-1.77033e-07 1.9038e-07 -6.42834e-20 1.7693e-07 -7.1736e-21 1.03155e-10)
(-1.86439e-07 1.7417e-07 -1.41789e-20 1.86643e-07 -1.86976e-21 -2.04018e-10)
(-1.9708e-07 1.52444e-07 6.55351e-20 1.95616e-07 7.69017e-21 1.46421e-09)
(-1.28145e-07 2.17313e-07 -7.24395e-20 1.28147e-07 -8.64698e-21 -1.30703e-12)
(-1.39637e-07 2.05792e-07 6.00083e-20 1.3963e-07 7.0121e-21 6.94973e-12)
(-1.50398e-07 1.93236e-07 -1.20714e-20 1.50438e-07 -1.55896e-21 -3.96233e-11)
(-1.60799e-07 1.7898e-07 1.2833e-20 1.60706e-07 2.23966e-21 9.2826e-11)
(-1.7005e-07 1.64363e-07 5.86747e-21 1.70236e-07 1.26724e-22 -1.85903e-10)
(-1.80436e-07 1.44691e-07 -4.97811e-20 1.79091e-07 -6.17559e-21 1.34524e-09)
(-1.14685e-07 2.0153e-07 2.2725e-20 1.14685e-07 3.21866e-21 -3.92871e-13)
(-1.25515e-07 1.91404e-07 -6.3131e-20 1.25509e-07 -8.12354e-21 5.90917e-12)
(-1.35745e-07 1.80299e-07 4.08458e-20 1.35781e-07 5.16577e-21 -3.6129e-11)
(-1.45715e-07 1.67598e-07 1.50179e-20 1.45631e-07 1.45855e-21 8.45151e-11)
(-1.54711e-07 1.54479e-07 -7.30851e-20 1.54881e-07 -8.89319e-21 -1.70371e-10)
(-1.64763e-07 1.36774e-07 3.30105e-20 1.63537e-07 4.45977e-21 1.22575e-09)
(-9.18618e-08 1.94009e-07 7.9294e-22 9.18597e-08 -3.72363e-22 2.09468e-12)
(-1.02425e-07 1.85994e-07 -1.49399e-20 1.02426e-07 -1.80932e-21 -7.49642e-13)
(-1.1256e-07 1.77099e-07 1.10501e-20 1.12554e-07 1.99715e-21 5.7938e-12)
(-1.22207e-07 1.67296e-07 1.32638e-20 1.22238e-07 1.25139e-21 -3.0461e-11)
(-1.31682e-07 1.56021e-07 -3.14138e-20 1.31604e-07 -3.56031e-21 7.78066e-11)
(-1.40353e-07 1.44295e-07 -1.45035e-20 1.40502e-07 -1.48992e-21 -1.49362e-10)
(-1.49984e-07 1.28461e-07 1.81093e-20 1.48873e-07 1.7286e-21 1.11085e-09)
(-8.14183e-08 1.77576e-07 -7.07162e-20 8.1418e-08 -8.8056e-21 3.44902e-13)
(-9.11985e-08 1.70562e-07 2.5798e-20 9.12015e-08 3.64601e-21 -3.01211e-12)
(-1.00632e-07 1.62751e-07 2.22583e-20 1.00631e-07 2.40744e-21 1.7572e-12)
(-1.09674e-07 1.54108e-07 -7.54538e-21 1.09706e-07 -1.29373e-21 -3.17422e-11)
(-1.18615e-07 1.44125e-07 4.44269e-20 1.1855e-07 5.90956e-21 6.44394e-11)
(-1.26921e-07 1.33674e-07 -4.56858e-20 1.27052e-07 -4.66663e-21 -1.30599e-10)
(-1.36048e-07 1.19588e-07 -2.38571e-20 1.35068e-07 -3.21609e-21 9.79408e-10)
(-7.18689e-08 1.61426e-07 -1.88497e-21 7.18625e-08 3.04385e-22 6.38535e-12)
(-8.08916e-08 1.55279e-07 4.97557e-20 8.08863e-08 5.9927e-21 5.35387e-12)
(-8.96299e-08 1.48421e-07 -3.89298e-20 8.96207e-08 -4.99019e-21 9.21786e-12)
(-9.8063e-08 1.40807e-07 -4.51145e-20 9.80801e-08 -5.49074e-21 -1.71533e-11)
(-1.06441e-07 1.31986e-07 3.62962e-20 1.06378e-07 4.49051e-21 6.30184e-11)
(-1.14368e-07 1.22687e-07 9.52904e-20 1.1446e-07 1.17851e-20 -9.16346e-11)
(-1.22912e-07 1.1021e-07 -3.28782e-20 1.22053e-07 -4.30986e-21 8.58454e-10)
(-6.31898e-08 1.45808e-07 1.74939e-20 6.31996e-08 2.03305e-21 -9.73324e-12)
(-7.14892e-08 1.40417e-07 -2.23724e-21 7.15002e-08 -3.38186e-22 -1.10647e-11)
(-7.95581e-08 1.34391e-07 -4.1129e-21 7.95661e-08 -2.10073e-22 -8.03e-12)
(-8.73952e-08 1.2768e-07 -2.26158e-21 8.74226e-08 -1.21241e-22 -2.74303e-11)
(-9.52015e-08 1.1989e-07 6.36364e-20 9.51667e-08 7.34358e-21 3.47905e-11)
(-1.02743e-07 1.11619e-07 -1.04167e-20 1.02817e-07 -1.85621e-21 -7.40826e-11)
(-1.10654e-07 1.00585e-07 -8.86353e-20 1.0995e-07 -1.04458e-20 7.04226e-10)
(-5.5283e-08 1.31063e-07 -3.62444e-20 5.52706e-08 -4.53847e-21 1.24457e-11)
(-6.29122e-08 1.2633e-07 4.35335e-20 6.28963e-08 5.3217e-21 1.58797e-11)
(-7.03432e-08 1.21034e-07 1.10976e-20 7.03281e-08 1.68753e-21 1.50843e-11)
(-7.76044e-08 1.15119e-07 -2.37262e-20 7.76053e-08 -3.19947e-21 -9.08492e-13)
(-8.48478e-08 1.08241e-07 -3.12163e-20 8.48024e-08 -3.82172e-21 4.53606e-11)
(-9.20031e-08 1.00876e-07 1.12807e-20 9.20136e-08 1.22049e-21 -1.05445e-11)
(-9.92717e-08 9.11047e-08 8.6101e-21 9.86618e-08 1.95354e-21 6.0991e-10)
(-4.82838e-08 1.17619e-07 1.57331e-20 4.83007e-08 1.89984e-21 -1.69639e-11)
(-5.52853e-08 1.1345e-07 -2.51369e-20 5.52971e-08 -3.33826e-21 -1.18033e-11)
(-6.21208e-08 1.08784e-07 6.46794e-20 6.21317e-08 7.75483e-21 -1.08359e-11)
(-6.88264e-08 1.03578e-07 -5.1546e-20 6.88505e-08 -6.22188e-21 -2.40957e-11)
(-7.55303e-08 9.75239e-08 7.22498e-20 7.55219e-08 8.89918e-21 8.36154e-12)
(-8.22637e-08 9.10062e-08 -3.94062e-20 8.22827e-08 -4.98495e-21 -1.89409e-11)
(-8.89509e-08 8.24058e-08 8.02093e-20 8.84878e-08 9.77927e-21 4.63112e-10)
(-4.28548e-08 1.06294e-07 -4.10613e-20 4.28695e-08 -5.52681e-21 -1.47209e-11)
(-4.93254e-08 1.02515e-07 -1.02851e-21 4.93434e-08 -2.75969e-23 -1.80254e-11)
(-5.56653e-08 9.82835e-08 -2.85724e-20 5.56847e-08 -3.67095e-21 -1.94102e-11)
(-6.19267e-08 9.35522e-08 -1.67177e-21 6.19507e-08 1.05372e-22 -2.3984e-11)
(-6.81832e-08 8.80527e-08 -1.24697e-20 6.81904e-08 -2.14656e-21 -7.17623e-12)
(-7.45794e-08 8.20884e-08 -2.06087e-20 7.45909e-08 -2.2272e-21 -1.15496e-11)
(-8.07589e-08 7.43831e-08 2.86901e-20 8.04245e-08 2.73715e-21 3.34373e-10)
(-3.84558e-08 9.7199e-08 -5.9503e-20 3.84414e-08 -7.21105e-21 1.4441e-11)
(-4.44903e-08 9.37031e-08 -9.13298e-21 4.44801e-08 -9.6538e-22 1.01996e-11)
(-5.041e-08 8.97902e-08 3.44984e-20 5.04014e-08 4.37887e-21 8.56235e-12)
(-5.6276e-08 8.54045e-08 4.7501e-23 5.62671e-08 -1.32322e-22 8.92435e-12)
(-6.2124e-08 8.03101e-08 -2.99342e-20 6.21079e-08 -3.9134e-21 1.61388e-11)
(-6.81914e-08 7.47529e-08 2.95906e-21 6.81508e-08 1.27755e-21 4.0585e-11)
(-7.38851e-08 6.77275e-08 -4.49841e-20 7.35913e-08 -6.07422e-21 2.93809e-10)
(-3.43352e-08 8.90732e-08 8.51425e-21 3.43328e-08 1.49296e-21 2.39831e-12)
(-3.9954e-08 8.58356e-08 2.60694e-20 3.99478e-08 3.25683e-21 6.17516e-12)
(-4.54776e-08 8.2207e-08 -2.02795e-20 4.54608e-08 -2.70099e-21 1.67159e-11)
(-5.09422e-08 7.81457e-08 -2.86005e-20 5.09241e-08 -3.76955e-21 1.81273e-11)
(-5.64007e-08 7.34262e-08 -5.43921e-20 5.63774e-08 -6.20933e-21 2.32985e-11)
(-6.20971e-08 6.82684e-08 1.15405e-19 6.20521e-08 1.38455e-20 4.50593e-11)
(-6.7358e-08 6.1845e-08 -7.70061e-20 6.71515e-08 -8.72067e-21 2.06523e-10)
(-3.03512e-08 8.1229e-08 2.43552e-20 3.03727e-08 3.08566e-21 -2.14828e-11)
(-3.55717e-08 7.82426e-08 -8.48808e-21 3.56029e-08 -1.25807e-21 -3.11449e-11)
(-4.07161e-08 7.48824e-08 7.80174e-21 4.07452e-08 1.01489e-21 -2.90974e-11)
(-4.58089e-08 7.11263e-08 -4.4823e-20 4.5841e-08 -5.56886e-21 -3.21153e-11)
(-5.09039e-08 6.67564e-08 6.79141e-20 5.09299e-08 8.58251e-21 -2.60537e-11)
(-5.62439e-08 6.19668e-08 -6.6361e-20 5.62379e-08 -8.48761e-21 5.97225e-12)
(-6.10849e-08 5.61226e-08 9.14014e-20 6.0944e-08 1.14349e-20 1.40922e-10)
(-2.14719e-08 7.59203e-08 3.3105e-20 2.13874e-08 4.21652e-21 8.44254e-11)
(-2.63686e-08 7.34245e-08 1.69851e-20 2.62785e-08 2.12661e-21 9.00799e-11)
(-3.11695e-08 7.06431e-08 -1.46091e-20 3.10811e-08 -1.92537e-21 8.84299e-11)
(-3.59051e-08 6.75373e-08 -1.31725e-20 3.58269e-08 -1.78621e-21 7.81799e-11)
(-4.06376e-08 6.40708e-08 -2.91759e-20 4.05734e-08 -3.348e-21 6.41998e-11)
(-4.53927e-08 6.00563e-08 -2.90074e-20 4.53639e-08 -3.72695e-21 2.87097e-11)
(-5.04154e-08 5.56896e-08 7.50661e-20 5.04204e-08 9.60267e-21 -4.95759e-12)
(-5.50701e-08 5.05408e-08 -4.21741e-20 5.51372e-08 -5.49118e-21 -6.71261e-11)
(-1.8137e-08 6.77237e-08 -1.66503e-20 1.83234e-08 -2.04631e-21 -1.86369e-10)
(-2.26128e-08 6.52402e-08 2.80707e-20 2.27661e-08 3.27792e-21 -1.53315e-10)
(-2.69935e-08 6.24764e-08 -2.91216e-20 2.70898e-08 -3.37577e-21 -9.63376e-11)
(-3.12795e-08 5.94215e-08 -2.57951e-20 3.13134e-08 -3.35551e-21 -3.39272e-11)
(-3.55626e-08 5.60277e-08 2.39641e-20 3.55114e-08 2.89545e-21 5.12609e-11)
(-3.98532e-08 5.21412e-08 4.78441e-20 3.97066e-08 6.43351e-21 1.46574e-10)
(-4.44863e-08 4.76665e-08 -8.71434e-21 4.4116e-08 -1.67154e-21 3.70356e-10)
(-4.83384e-08 4.26693e-08 2.20063e-20 4.77257e-08 3.02774e-21 6.12664e-10)
(-1.35427e-08 5.75543e-08 5.38059e-20 1.33914e-08 6.86854e-21 1.5125e-10)
(-1.77051e-08 5.52149e-08 -6.32492e-20 1.7714e-08 -8.24249e-21 -8.82788e-12)
(-2.18512e-08 5.26234e-08 7.33507e-20 2.20313e-08 9.43289e-21 -1.80101e-10)
(-2.59863e-08 4.9744e-08 -5.78793e-20 2.635e-08 -7.22304e-21 -3.63745e-10)
(-3.01608e-08 4.6545e-08 -6.6434e-20 3.07194e-08 -8.50234e-21 -5.58563e-10)
(-3.43132e-08 4.29555e-08 9.55125e-20 3.51714e-08 1.20814e-20 -8.58184e-10)
(-3.86961e-08 3.94251e-08 -5.93407e-20 4.00152e-08 -7.53818e-21 -1.31904e-09)
(-4.30978e-08 3.57004e-08 4.67727e-20 4.51974e-08 5.74609e-21 -2.09967e-09)
(-8.20504e-09 4.3081e-08 8.04112e-21 7.39533e-09 7.72244e-22 8.09704e-10)
(-1.14162e-08 4.01527e-08 -5.6209e-20 1.02067e-08 -6.98271e-21 1.20949e-09)
(-1.45258e-08 3.71052e-08 3.66102e-20 1.29236e-08 4.29416e-21 1.60218e-09)
(-1.75916e-08 3.39236e-08 -9.86381e-21 1.56082e-08 -8.56242e-22 1.9834e-09)
(-2.08022e-08 3.04433e-08 -4.06737e-20 1.83779e-08 -4.84517e-21 2.4243e-09)
(-2.42466e-08 2.63888e-08 1.07683e-19 2.12182e-08 1.30539e-20 3.02842e-09)
(-2.87158e-08 2.04116e-08 -5.59581e-20 2.43193e-08 -6.53399e-21 4.39641e-09)
(-3.06638e-08 1.46526e-08 1.13091e-20 2.52401e-08 9.70627e-22 5.42365e-09)
(-5.75264e-09 3.32976e-08 -2.8091e-20 1.05862e-08 -3.50176e-21 -4.83353e-09)
(-9.96288e-09 3.08594e-08 -2.84949e-20 1.55186e-08 -3.41922e-21 -5.5557e-09)
(-1.4176e-08 2.8047e-08 -4.60939e-20 2.03799e-08 -5.98795e-21 -6.20392e-09)
(-1.82659e-08 2.48654e-08 7.92906e-20 2.51016e-08 9.90913e-21 -6.83572e-09)
(-2.21225e-08 2.15683e-08 1.32789e-20 2.97055e-08 1.80106e-21 -7.58299e-09)
(-2.50532e-08 1.85603e-08 -2.57173e-20 3.40775e-08 -3.48229e-21 -9.02432e-09)
(-2.75591e-08 1.83322e-08 6.68496e-20 3.91771e-08 8.3884e-21 -1.1618e-08)