/*--------------------------------*- C++ -*----------------------------------*\
| =========                 |                                                 |
| \\      /  F ield         | OpenFOAM: The Open Source CFD Toolbox           |
|  \\    /   O peration     | Version:  2506                                  |
|   \\  /    A nd           | Website:  www.openfoam.com                      |
|    \\/     M anipulation  |                                                 |
\*---------------------------------------------------------------------------*/
FoamFile
{
    version     2.0;
    format      ascii;
    arch        "LSB;label=32;scalar=64";
    class       volVectorField;
    location    "250";
    object      U;
}
// * * * * * * * * * * * * * * * * * * * * * * * * * * * * * * * * * * * * * //

dimensions      [0 1 -1 0 0 0 0];

internalField   nonuniform List<vector> 
1340
(
(23.0078 2.62727 2.32821e-16)
(22.3169 2.92659 8.31327e-16)
(21.3656 3.13388 2.19192e-15)
(18.7599 3.31102 2.34646e-15)
(24.6049 3.18329 -1.09871e-16)
(24.036 3.42886 -6.39502e-16)
(23.4727 3.64786 -2.28211e-15)
(21.4954 3.71579 -2.42885e-15)
(25.2959 3.03923 1.0447e-16)
(24.7699 3.37347 -9.29336e-16)
(24.1688 3.62582 4.3605e-15)
(22.3677 3.7264 1.0731e-14)
(25.5783 3.25144 -5.70228e-16)
(25.1466 3.52022 2.56296e-15)
(24.6138 3.69563 -1.99499e-15)
(22.9829 3.75812 -2.11008e-15)
(25.5248 3.00246 -1.75961e-16)
(25.1359 3.32872 -8.64723e-16)
(24.6769 3.54855 2.85921e-15)
(23.2997 3.65974 -3.12827e-15)
(25.4958 3.16973 6.68501e-16)
(25.1129 3.44496 -2.54029e-15)
(24.6511 3.59147 -3.31109e-15)
(23.4308 3.62735 1.09564e-15)
(25.4663 3.00992 -6.07193e-16)
(25.0935 3.2978 1.83859e-15)
(24.6334 3.46003 1.91656e-16)
(23.5057 3.50236 5.69347e-15)
(25.432 3.05755 6.72637e-16)
(25.0691 3.3233 -6.20898e-16)
(24.6196 3.44584 2.70127e-16)
(23.572 3.43318 -3.07276e-16)
(25.4028 2.99141 -2.04972e-17)
(25.051 3.25204 3.24298e-16)
(24.6138 3.36989 3.3037e-16)
(23.6436 3.34358 -4.18464e-16)
(25.3703 2.97996 2.62606e-16)
(25.0303 3.22596 2.12011e-15)
(24.6071 3.32202 -2.57434e-15)
(23.7147 3.26583 2.00737e-15)
(25.3392 2.94269 2.71391e-17)
(25.0119 3.17875 -2.47498e-15)
(24.603 3.26354 4.20421e-15)
(23.7848 3.18945 2.18062e-15)
(25.3071 2.91632 -6.02073e-16)
(24.9935 3.13972 1.60802e-15)
(24.6003 3.21017 -2.36475e-15)
(23.8531 3.11743 -4.09348e-15)
(25.2753 2.88481 7.54999e-16)
(24.976 3.0966 -2.33048e-15)
(24.5994 3.15595 -2.10549e-16)
(23.9194 3.04885 -5.58401e-15)
(25.2433 2.85524 -5.73934e-16)
(24.9589 3.05486 1.59058e-15)
(24.6001 3.10353 4.18876e-16)
(23.9838 2.98419 3.55846e-15)
(25.2115 2.82487 1.42314e-16)
(24.9426 3.01255 6.88428e-16)
(24.6022 3.05209 1.76513e-15)
(24.0458 2.9235 -1.7925e-15)
(25.1797 2.79504 8.36794e-17)
(24.9269 2.97073 -1.06253e-15)
(24.6058 3.00215 -2.5085e-15)
(24.1055 2.8667 -1.56353e-15)
(25.1482 2.76548 -1.99408e-17)
(24.9119 2.92936 5.55895e-16)
(24.6106 2.9538 -8.82666e-16)
(24.1628 2.81395 4.30718e-15)
(25.117 2.73653 3.65272e-16)
(24.8975 2.88877 -1.71275e-15)
(24.6166 2.90717 1.52045e-15)
(24.2176 2.7651 -3.23851e-15)
(25.0863 2.70837 -1.07631e-15)
(24.8838 2.84921 4.59698e-16)
(24.6237 2.86246 1.14619e-15)
(24.2698 2.72024 5.16368e-15)
(25.0562 2.6812 5.72026e-16)
(24.8709 2.81091 1.34762e-15)
(24.6316 2.81984 -1.18477e-15)
(24.3194 2.67929 -3.1651e-15)
(25.0268 2.65526 -1.70069e-16)
(24.8587 2.77416 -1.10156e-15)
(24.6403 2.77942 -5.84522e-16)
(24.3665 2.64213 6.50083e-16)
(24.9982 2.63074 5.04342e-17)
(24.8472 2.73917 1.82562e-16)
(24.6497 2.74141 7.81396e-16)
(24.411 2.60875 -9.94124e-18)
(24.9707 2.6079 3.66829e-16)
(24.8365 2.70621 3.77051e-17)
(24.6596 2.70589 9.81641e-16)
(24.4531 2.57895 -8.34107e-16)
(24.9443 2.58691 -2.99825e-16)
(24.8266 2.67549 -3.32771e-16)
(24.6698 2.67306 -2.03215e-15)
(24.4927 2.55269 5.18161e-16)
(24.9192 2.56801 2.32604e-16)
(24.8175 2.64722 7.12005e-16)
(24.6803 2.643 8.04087e-16)
(24.53 2.52981 4.59356e-16)
(24.8955 2.55136 -5.97953e-16)
(24.8092 2.6216 -4.36233e-18)
(24.691 2.61584 1.36971e-15)
(24.565 2.5102 6.97391e-16)
(24.8733 2.53716 5.42448e-16)
(24.8019 2.59881 4.48333e-16)
(24.7018 2.59168 -1.09462e-15)
(24.5978 2.49374 -1.7732e-15)
(24.8528 2.52553 1.70105e-17)
(24.7956 2.57896 -1.48911e-16)
(24.7126 2.57059 7.88203e-16)
(24.6286 2.4803 1.15315e-15)
(24.8341 2.5166 -3.34026e-17)
(24.7902 2.5622 -4.81857e-16)
(24.7235 2.55264 -1.15905e-15)
(24.6574 2.46977 -1.41403e-15)
(24.8174 2.51047 -1.44504e-16)
(24.7859 2.54858 -3.19784e-16)
(24.7342 2.53787 5.70558e-16)
(24.6843 2.46206 -9.28484e-17)
(24.8028 2.50718 -1.33255e-16)
(24.7827 2.53818 -8.02411e-17)
(24.745 2.52629 6.45469e-17)
(24.7096 2.45706 1.37406e-15)
(24.7904 2.50676 -1.71319e-16)
(24.7807 2.531 4.64291e-16)
(24.7558 2.5179 1.98682e-16)
(24.7333 2.45467 1.30413e-15)
(24.7802 2.50918 -5.67562e-17)
(24.78 2.52704 -1.58994e-16)
(24.7666 2.51266 -4.91063e-16)
(24.7556 2.45483 -1.1967e-15)
(24.7724 2.5144 3.40064e-16)
(24.7806 2.52623 2.02376e-16)
(24.7775 2.51052 -2.67e-18)
(24.7767 2.45743 -8.23999e-16)
(24.7671 2.52233 -7.66734e-17)
(24.7825 2.52849 -7.1604e-16)
(24.7886 2.51138 5.90358e-16)
(24.7966 2.46238 3.9907e-16)
(24.7642 2.53285 1.22809e-16)
(24.786 2.53372 4.59706e-16)
(24.8 2.51515 -7.3789e-16)
(24.8157 2.46961 -7.31857e-16)
(24.7639 2.54579 -1.20417e-16)
(24.7909 2.54176 -2.18643e-16)
(24.8118 2.52168 3.69081e-16)
(24.834 2.47901 2.45474e-16)
(24.7661 2.56097 2.06125e-16)
(24.7975 2.55243 4.87361e-17)
(24.824 2.53084 -4.44367e-16)
(24.8517 2.49048 1.03533e-15)
(24.729 2.5852 -1.27804e-16)
(24.7709 2.5782 5.477e-17)
(24.8056 2.56555 -2.45463e-16)
(24.8368 2.54243 7.92068e-16)
(24.869 2.50391 -1.69736e-16)
(24.7354 2.60929 3.60038e-16)
(24.7781 2.59724 -6.03101e-16)
(24.8153 2.58088 9.65546e-16)
(24.8503 2.55628 3.81542e-17)
(24.8861 2.51916 4.28235e-17)
(24.7448 2.63432 -1.0663e-16)
(24.7877 2.61786 1.20162e-16)
(24.8267 2.5982 -5.53366e-16)
(24.8645 2.57218 -8.90409e-16)
(24.903 2.5361 -2.32658e-17)
(24.757 2.66005 -1.40651e-16)
(24.7997 2.63982 3.65422e-16)
(24.8398 2.61727 -1.01558e-16)
(24.8795 2.58991 3.35275e-16)
(24.9201 2.55459 -5.36829e-16)
(24.772 2.68627 2.4205e-16)
(24.8139 2.66285 2.92751e-16)
(24.8544 2.63783 2.87247e-16)
(24.8954 2.60924 9.704e-17)
(24.9373 2.57446 5.27587e-16)
(24.7894 2.71277 3.34339e-17)
(24.8303 2.68673 -9.77992e-17)
(24.8707 2.65962 -3.35797e-16)
(24.9123 2.62996 4.0692e-16)
(24.9548 2.59555 2.4439e-16)
(24.8091 2.73934 -2.48201e-17)
(24.8486 2.71122 -3.56726e-16)
(24.8884 2.68241 2.35664e-16)
(24.9301 2.65183 -3.04168e-16)
(24.9728 2.6177 -1.03759e-16)
(24.8309 2.76581 7.97972e-17)
(24.8687 2.73608 7.53442e-17)
(24.9076 2.70595 -1.45066e-16)
(24.9488 2.67462 -3.24369e-16)
(24.9912 2.64071 -5.63925e-16)
(24.8545 2.792 -6.20285e-17)
(24.8906 2.76112 3.39588e-16)
(24.9282 2.73001 -2.87345e-17)
(24.9685 2.69813 3.77157e-16)
(25.0102 2.66442 3.48513e-16)
(24.8798 2.81776 1.05215e-16)
(24.914 2.78613 -2.71998e-16)
(24.9501 2.75437 -3.32935e-17)
(24.9892 2.72212 1.31586e-16)
(25.0298 2.68865 -5.45927e-16)
(24.9065 2.84298 2.0163e-16)
(24.9387 2.81096 -3.40196e-16)
(24.9731 2.77884 1.0682e-16)
(25.0108 2.74641 3.83986e-16)
(25.05 2.71322 5.76183e-17)
(24.9345 2.86754 -1.14256e-16)
(24.9646 2.83544 2.05212e-17)
(24.9972 2.80323 -1.99681e-16)
(25.0333 2.77081 1.3526e-16)
(25.0709 2.73799 -1.34441e-16)
(24.9634 2.89135 1.14803e-16)
(24.9916 2.85944 1.7561e-16)
(25.0223 2.82739 -1.14893e-17)
(25.0566 2.79516 -4.14131e-16)
(25.0924 2.76278 -1.95922e-16)
(24.9932 2.91435 -4.96237e-17)
(25.0194 2.88286 -3.11602e-16)
(25.0482 2.85118 4.38125e-16)
(25.0806 2.81929 -3.39253e-16)
(25.1146 2.78745 8.81645e-17)
(25.0017 2.96738 2.06542e-17)
(25.0236 2.93647 -6.30504e-17)
(25.0479 2.9056 -5.81289e-17)
(25.0747 2.87447 1.85884e-16)
(25.1052 2.84307 4.49309e-16)
(25.1373 2.81186 -5.66049e-17)
(25.0343 2.98773 -6.33006e-17)
(25.0544 2.95767 -3.11734e-16)
(25.0768 2.92757 4.72784e-16)
(25.1018 2.89715 -2.53718e-16)
(25.1303 2.86639 3.3502e-16)
(25.1604 2.8359 -1.24416e-16)
(25.0669 3.00701 1.60921e-16)
(25.0853 2.97792 7.2025e-17)
(25.1059 2.94872 -2.36479e-16)
(25.1291 2.91913 1.60322e-16)
(25.1557 2.88911 -4.68776e-17)
(25.1839 2.85944 9.10826e-17)
(25.0993 3.02523 4.45563e-17)
(25.1161 2.9972 -5.11846e-17)
(25.135 2.96899 5.50952e-17)
(25.1564 2.94034 -1.48859e-16)
(25.1812 2.91117 -1.07718e-16)
(25.2075 2.88239 -6.51715e-18)
(25.1312 3.0424 -1.64391e-16)
(25.1466 3.0155 2.02776e-16)
(25.1639 2.98836 8.63365e-17)
(25.1836 2.96071 2.17603e-16)
(25.2066 2.93248 -6.01813e-17)
(25.231 2.90465 1.1679e-16)
(25.1626 3.05856 7.72274e-17)
(25.1766 3.03282 2.0603e-16)
(25.1924 3.00679 -2.00316e-16)
(25.2106 2.98022 -1.816e-16)
(25.2318 2.95299 8.05917e-17)
(25.2544 2.92616 -2.36505e-16)
(25.1932 3.07374 -3.37902e-17)
(25.206 3.04918 -9.58691e-17)
(25.2205 3.0243 2.05067e-16)
(25.2372 2.99885 -3.18124e-16)
(25.2567 2.97266 -6.37735e-17)
(25.2776 2.94689 3.03224e-16)
(25.2232 3.08799 -2.95274e-16)
(25.2348 3.06461 2.57638e-16)
(25.248 3.0409 -5.96119e-17)
(25.2633 3.01659 5.979e-17)
(25.2813 2.99148 2.83898e-17)
(25.3006 2.96679 -2.29304e-16)
(25.2524 3.10134 8.99673e-17)
(25.2629 3.07914 -2.64847e-16)
(25.275 3.0566 1.83811e-16)
(25.289 3.03343 6.17243e-17)
(25.3055 3.00943 -3.56345e-16)
(25.3233 2.98585 1.5264e-16)
(25.2723 3.13473 3.31133e-18)
(25.2807 3.11384 -5.79997e-17)
(25.2902 3.09279 5.06818e-17)
(25.3013 3.07141 5.48468e-17)
(25.314 3.0494 -1.43483e-16)
(25.3292 3.02651 -6.31824e-17)
(25.3455 3.00405 7.81548e-17)
(25.3003 3.14526 -2.60151e-16)
(25.3079 3.12549 1.03351e-16)
(25.3165 3.10558 8.82356e-17)
(25.3266 3.08534 -3.21028e-17)
(25.3382 3.06447 1.98854e-16)
(25.3522 3.04271 -2.14743e-16)
(25.3671 3.02137 -9.95036e-17)
(25.3268 3.15498 -3.62817e-18)
(25.3337 3.13631 1.86061e-16)
(25.3415 3.11752 -1.55372e-16)
(25.3506 3.09839 -1.84008e-16)
(25.3613 3.07866 1.61538e-16)
(25.3741 3.058 4.39456e-16)
(25.3878 3.0378 -1.38046e-16)
(25.3516 3.16392 6.4645e-17)
(25.3578 3.14631 -7.9002e-18)
(25.365 3.12859 -1.28224e-17)
(25.3732 3.11055 -7.34667e-18)
(25.3829 3.09192 2.64631e-16)
(25.3946 3.07237 -6.02379e-17)
(25.4073 3.05328 -3.53174e-16)
(25.3746 3.17211 -1.23086e-16)
(25.3802 3.15552 1.56195e-16)
(25.3867 3.13884 3.90351e-17)
(25.3942 3.12187 -9.65558e-17)
(25.403 3.10432 -1.25067e-16)
(25.4137 3.08587 5.00917e-17)
(25.4253 3.06788 3.31871e-17)
(25.3958 3.17951 5.14167e-17)
(25.4008 3.16391 -8.80583e-17)
(25.4067 3.14823 2.31874e-16)
(25.4135 3.13229 -1.97385e-16)
(25.4215 3.1158 2.86318e-16)
(25.4313 3.09841 -1.74424e-16)
(25.4419 3.0815 3.01591e-16)
(25.4122 3.18522 -1.34739e-16)
(25.4168 3.17044 -4.89244e-18)
(25.4222 3.1556 -9.93396e-17)
(25.4285 3.14053 -6.38411e-18)
(25.436 3.12494 -5.30126e-17)
(25.4452 3.10848 -8.81826e-17)
(25.4551 3.09255 9.98589e-17)
(25.4249 3.1897 -1.90879e-16)
(25.4292 3.17559 -2.79978e-17)
(25.4343 3.16147 1.1959e-16)
(25.4402 3.14713 -1.62984e-18)
(25.4473 3.13231 -1.14797e-16)
(25.4559 3.11667 1.34831e-17)
(25.4654 3.10158 -1.62039e-16)
(25.4375 3.19406 3.01427e-17)
(25.4415 3.18066 8.37519e-17)
(25.4462 3.16726 -7.07745e-17)
(25.4517 3.15368 -1.02319e-16)
(25.4584 3.13967 -1.99907e-16)
(25.4665 3.12489 4.81923e-16)
(25.4754 3.11069 -2.77499e-16)
(25.4497 3.19826 7.59017e-17)
(25.4534 3.18556 -2.88059e-17)
(25.4577 3.1729 2.39308e-17)
(25.4629 3.16009 -1.52237e-16)
(25.4691 3.1469 2.49971e-16)
(25.4767 3.13298 -2.7353e-16)
(25.4851 3.11967 3.19142e-16)
(25.4589 3.21439 1.00748e-16)
(25.4617 3.20226 4.99783e-17)
(25.465 3.19031 -4.69006e-17)
(25.469 3.17842 -4.39882e-17)
(25.4738 3.16641 -9.70147e-17)
(25.4795 3.15407 -1.03954e-16)
(25.4865 3.14105 3.03546e-16)
(25.4943 3.12864 -1.48553e-16)
(25.4707 3.21728 -4.92599e-17)
(25.4731 3.20584 8.40413e-17)
(25.476 3.1946 -8.88407e-17)
(25.4796 3.18346 -8.00954e-17)
(25.484 3.17227 8.11237e-17)
(25.4892 3.16081 1.65185e-16)
(25.4957 3.14877 -3.55487e-17)
(25.503 3.13751 7.0705e-17)
(25.4813 3.22018 1.57902e-16)
(25.4832 3.20944 -1.87037e-16)
(25.4857 3.19889 2.19173e-16)
(25.4888 3.18846 -1.7958e-16)
(25.4926 3.17797 -2.101e-16)
(25.4972 3.16723 3.23727e-16)
(25.5029 3.15592 -2.28424e-16)
(25.5093 3.14506 1.50405e-16)
(25.4888 3.22126 2.25832e-17)
(25.4902 3.21142 -1.62984e-16)
(25.4922 3.20188 1.07734e-16)
(25.4947 3.19256 -3.00097e-17)
(25.4979 3.1833 -1.23609e-16)
(25.5019 3.17397 3.55886e-16)
(25.5071 3.16434 -2.12374e-16)
(25.5136 3.15616 3.63481e-17)
(25.4899 3.22133 -8.09195e-17)
(25.4903 3.21128 -8.19113e-17)
(25.4912 3.20147 -1.31321e-16)
(25.4927 3.19184 2.3428e-16)
(25.4949 3.18226 4.01406e-17)
(25.4976 3.17245 -8.34525e-17)
(25.5008 3.162 2.45124e-16)
(25.5038 3.15089 -3.14575e-16)
(25.4875 3.22802 1.02766e-16)
(25.4874 3.22101 3.33991e-17)
(25.4876 3.21435 -1.52726e-16)
(25.4883 3.20794 -1.04736e-16)
(25.4895 3.2017 4.46322e-17)
(25.4917 3.19575 5.45345e-17)
(25.4963 3.19035 -1.35525e-16)
(25.5042 3.18877 1.26037e-17)
(25.474 3.1839 -1.37223e-16)
(25.4738 3.17274 1.08614e-16)
(25.4743 3.1621 9.62957e-17)
(25.4756 3.15191 -7.45212e-17)
(25.4772 3.142 3.18055e-16)
(25.4785 3.13174 -4.42598e-16)
(25.4768 3.12009 1.77016e-16)
(25.4713 3.1046 -2.71188e-16)
(25.5135 3.32258 1.55066e-16)
(25.514 3.32096 -1.21083e-16)
(25.5146 3.31938 1.0258e-17)
(25.5155 3.31791 6.46926e-17)
(25.5175 3.31675 -8.58107e-17)
(25.5222 3.31661 -1.50943e-16)
(25.5353 3.31895 1.71818e-16)
(25.556 3.32798 -4.08584e-17)
(25.561 2.95958 1.19477e-16)
(25.5662 2.94719 1.45725e-16)
(25.572 2.9354 -1.16685e-16)
(25.5782 2.92398 -3.10946e-16)
(25.5829 2.91245 4.16266e-16)
(25.5845 2.90065 -3.53818e-16)
(25.5743 2.88739 8.59233e-16)
(25.5555 2.87882 -5.40394e-16)
(18.5647 1.39895 7.96569e-19)
(21.2019 1.30311 1.58103e-17)
(22.127 1.37173 7.8913e-19)
(22.6348 1.46635 -3.59315e-19)
(22.9041 1.53262 1.40611e-18)
(23.0327 1.61621 9.73326e-19)
(23.1254 1.67355 -2.11866e-20)
(23.2171 1.74697 1.93627e-19)
(23.3121 1.80574 2.4221e-19)
(23.4063 1.86446 0)
(23.4988 1.91781 -2.11844e-17)
(23.5893 1.96682 3.483e-19)
(23.6775 2.01168 -1.2109e-19)
(23.7631 2.05234 -1.28941e-19)
(23.8459 2.08906 8.4135e-20)
(23.9257 2.1219 2.88523e-17)
(24.0022 2.15126 4.74123e-17)
(24.0754 2.17714 1.25935e-21)
(24.1451 2.20005 -3.96037e-21)
(24.2113 2.22019 2.74026e-20)
(24.2739 2.23792 -6.41712e-20)
(24.333 2.25359 1.08243e-20)
(24.3885 2.26749 1.10142e-19)
(24.4406 2.28003 5.73079e-20)
(24.4893 2.29148 3.10626e-19)
(24.5348 2.30216 -4.2391e-20)
(24.5771 2.31237 5.46756e-19)
(24.6166 2.32236 3.8565e-19)
(24.6532 2.33237 3.98409e-20)
(24.6872 2.34261 2.75183e-19)
(24.7187 2.35325 -7.03168e-19)
(24.7481 2.36445 -8.43164e-17)
(24.7754 2.37636 -3.2822e-17)
(24.8008 2.38906 2.13841e-18)
(24.8246 2.40265 -2.11787e-18)
(24.847 2.41721 -1.608e-18)
(24.8681 2.43277 3.05694e-18)
(24.8881 2.44937 6.22101e-19)
(24.9073 2.46702 5.2734e-19)
(24.9257 2.48571 -2.25733e-18)
(24.9437 2.50541 -1.17601e-16)
(24.9613 2.52608 2.55587e-18)
(24.9787 2.54766 -3.15338e-17)
(24.9961 2.57006 -9.02744e-17)
(25.0135 2.5932 2.43871e-18)
(25.0312 2.61697 -7.72306e-17)
(25.0491 2.64126 1.60406e-18)
(25.0675 2.66595 1.44752e-18)
(25.0863 2.69091 1.3625e-16)
(25.1056 2.71602 3.07519e-19)
(25.1255 2.74114 1.88019e-18)
(25.1459 2.76617 -2.19033e-16)
(25.1668 2.79097 -5.60158e-19)
(25.1881 2.81543 1.3642e-17)
(25.2097 2.83945 -7.71272e-20)
(25.2315 2.86292 -3.3818e-19)
(25.2533 2.88576 -1.46305e-18)
(25.275 2.9079 5.52663e-17)
(25.2966 2.92929 1.26083e-17)
(25.318 2.9499 1.28966e-16)
(25.3392 2.96969 2.35649e-16)
(25.3601 2.98865 1.49261e-16)
(25.3804 3.00674 5.52127e-17)
(25.3999 3.02394 2.15793e-19)
(25.4182 3.0402 2.53368e-18)
(25.4353 3.05558 5.84028e-17)
(25.4509 3.06996 -4.93062e-17)
(25.4634 3.08169 -1.14208e-18)
(25.4732 3.0913 2.22401e-18)
(25.4826 3.10103 -1.40967e-16)
(25.4917 3.11066 -1.42528e-16)
(25.5005 3.12026 8.87315e-19)
(25.5087 3.12992 1.00551e-16)
(25.5142 3.13787 -1.2811e-16)
(25.5181 3.15057 0)
(25.5065 3.14394 -2.04732e-17)
(25.5085 3.1872 -1.25336e-17)
(25.4708 3.09589 2.55925e-16)
(25.5653 3.33305 -5.89479e-18)
(25.5533 2.87739 -2.84411e-16)
(21.0216 1.28551 -5.23357e-18)
(22.8559 1.27858 -4.90431e-18)
(23.5991 1.34435 8.61633e-18)
(23.8842 1.3818 -3.8884e-18)
(23.989 1.411 2.82492e-17)
(24.0168 1.44075 1.29791e-17)
(24.0356 1.46814 -3.23421e-19)
(24.0594 1.50205 3.41053e-18)
(24.0867 1.53396 5.165e-18)
(24.1154 1.56979 0)
(24.1453 1.60623 2.40825e-17)
(24.1763 1.64398 1.38261e-17)
(24.2082 1.6827 -6.50749e-18)
(24.2411 1.722 -1.01022e-17)
(24.2747 1.7616 3.76545e-17)
(24.3089 1.80123 -3.74288e-17)
(24.3436 1.84059 -4.7253e-17)
(24.3787 1.87938 4.60762e-18)
(24.4139 1.91733 3.22713e-17)
(24.449 1.95427 6.35269e-18)
(24.4839 1.98995 -5.67976e-18)
(24.5185 2.02429 1.93339e-17)
(24.5525 2.0571 -9.78758e-18)
(24.5858 2.08839 1.20045e-18)
(24.6183 2.11813 4.53857e-18)
(24.6499 2.14636 -1.21437e-17)
(24.6804 2.17313 4.40255e-18)
(24.7097 2.19859 2.41762e-18)
(24.7379 2.22287 1.99495e-19)
(24.7648 2.24612 1.12601e-18)
(24.7905 2.26851 -2.40069e-18)
(24.815 2.29023 8.34493e-17)
(24.8383 2.31146 9.9331e-17)
(24.8604 2.33237 4.73464e-18)
(24.8814 2.35313 -5.03457e-17)
(24.9015 2.37388 -2.77704e-17)
(24.9207 2.39476 3.19902e-17)
(24.939 2.41588 9.57829e-19)
(24.9567 2.43733 9.80172e-18)
(24.9738 2.45918 -5.27472e-17)
(24.9905 2.48148 3.35674e-17)
(25.0069 2.50426 1.04913e-16)
(25.0231 2.52752 3.09825e-17)
(25.0392 2.55125 9.48546e-17)
(25.0553 2.57542 1.2789e-16)
(25.0716 2.59999 6.76439e-17)
(25.088 2.62488 7.56592e-17)
(25.1049 2.65003 -9.20821e-17)
(25.1221 2.67535 -1.31188e-16)
(25.1397 2.70075 -8.95262e-17)
(25.1579 2.72613 2.1897e-18)
(25.1765 2.75139 1.52962e-16)
(25.1956 2.77644 1.18531e-17)
(25.2152 2.80117 -2.95761e-17)
(25.235 2.82548 -9.11532e-20)
(25.255 2.84928 -9.9599e-17)
(25.2751 2.87249 7.76441e-18)
(25.2952 2.89503 -1.08386e-16)
(25.3152 2.91686 -2.44228e-16)
(25.3351 2.93794 -2.69232e-17)
(25.3549 2.95824 -2.31573e-16)
(25.3744 2.97772 1.24665e-17)
(25.3935 2.99635 -8.06657e-19)
(25.4117 3.0141 3.06787e-16)
(25.429 3.03093 3.73299e-17)
(25.4449 3.04688 -6.38408e-17)
(25.4596 3.06182 4.72949e-17)
(25.4713 3.07404 -5.89117e-17)
(25.4804 3.08407 6.57886e-17)
(25.4893 3.09426 1.40171e-16)
(25.4978 3.10436 1.39343e-16)
(25.506 3.11444 1.08321e-18)
(25.5135 3.12467 -1.0228e-16)
(25.5186 3.13299 1.2485e-16)
(25.5214 3.14664 0)
(25.5097 3.13966 2.13472e-17)
(25.5094 3.18529 1.46736e-18)
(25.4764 3.09224 -3.46344e-16)
(25.5628 3.33342 5.72812e-18)
(25.5668 2.88107 2.82597e-16)
(22.709 1.37558 4.47069e-18)
(23.9208 1.4195 9.28896e-18)
(24.461 1.47003 1.13232e-18)
(24.6032 1.50012 -1.13658e-18)
(24.6321 1.53022 -5.6059e-18)
(24.6335 1.55728 4.29988e-18)
(24.6374 1.58522 -1.1523e-19)
(24.6442 1.61285 3.09121e-18)
(24.6515 1.63965 1.84853e-17)
(24.6587 1.66678 0)
(24.6658 1.69309 -9.48504e-18)
(24.6729 1.71947 7.07211e-18)
(24.6802 1.7456 -3.56789e-18)
(24.6878 1.77165 -1.53294e-17)
(24.6956 1.79764 -1.91864e-17)
(24.7039 1.82374 7.92507e-18)
(24.7126 1.84987 3.41542e-17)
(24.7219 1.87623 2.56118e-17)
(24.7318 1.90267 -3.77012e-17)
(24.7423 1.92933 5.40562e-18)
(24.7535 1.95611 -6.43925e-17)
(24.7653 1.98305 -2.76156e-17)
(24.7778 2.01004 5.55657e-18)
(24.791 2.03702 -1.65005e-17)
(24.8047 2.06396 4.86571e-18)
(24.819 2.09076 1.59418e-17)
(24.8337 2.11735 5.05715e-17)
(24.8488 2.14367 2.82468e-18)
(24.8641 2.16967 2.37387e-19)
(24.8797 2.19533 -8.19376e-18)
(24.8953 2.22062 -3.76161e-17)
(24.911 2.24556 1.42427e-17)
(24.9266 2.27016 -1.89288e-18)
(24.942 2.29448 5.83461e-17)
(24.9573 2.31856 4.0704e-17)
(24.9724 2.34247 -4.72171e-17)
(24.9872 2.36628 -2.07835e-17)
(25.0019 2.39006 1.1041e-18)
(25.0163 2.41389 -7.42655e-17)
(25.0305 2.43781 2.97916e-18)
(25.0446 2.46189 -4.71971e-17)
(25.0587 2.48616 -9.72433e-17)
(25.0727 2.51065 -3.15255e-17)
(25.0867 2.53537 -5.57815e-17)
(25.1009 2.56032 -2.90413e-18)
(25.1152 2.58548 -5.16157e-18)
(25.1299 2.61082 -8.18849e-17)
(25.1448 2.6363 5.88146e-18)
(25.1602 2.66187 2.34644e-18)
(25.1759 2.68745 1.56912e-16)
(25.1922 2.71297 -3.27551e-17)
(25.209 2.73837 -1.14107e-16)
(25.2263 2.76354 1.7159e-16)
(25.244 2.78842 2.62361e-17)
(25.262 2.8129 7.621e-17)
(25.2802 2.8369 1.69596e-16)
(25.2985 2.86035 -2.10056e-18)
(25.3168 2.88318 1.04828e-16)
(25.3352 2.90533 4.43615e-18)
(25.3535 2.92678 -4.35951e-19)
(25.3718 2.94747 1.82632e-18)
(25.3899 2.96738 -7.75104e-19)
(25.4076 2.98647 -8.38747e-19)
(25.4246 3.0047 -2.89346e-16)
(25.4406 3.02201 -3.07411e-17)
(25.4555 3.03846 -3.2685e-18)
(25.4691 3.05393 -4.77231e-17)
(25.48 3.0666 -4.94237e-19)
(25.4884 3.07702 -5.98788e-17)
(25.4966 3.08762 -1.71963e-16)
(25.5044 3.09818 -1.38022e-16)
(25.512 3.10872 -8.20565e-17)
(25.5189 3.11948 -6.23343e-17)
(25.5233 3.12822 -1.77033e-18)
(25.5249 3.14263 0)
(25.5135 3.13572 -5.34895e-17)
(25.5098 3.18281 4.29151e-16)
(25.4838 3.08975 3.43182e-16)
(25.559 3.33253 -5.28377e-18)
(25.5831 2.88499 -9.09997e-19)
(23.7088 1.48368 -5.02902e-19)
(24.4927 1.52079 -6.31762e-18)
(24.8152 1.5477 1.48642e-18)
(24.8569 1.56631 -2.93715e-19)
(24.8562 1.58628 8.21661e-18)
(24.8551 1.60562 1.07846e-18)
(24.8588 1.62704 -2.91525e-20)
(24.8636 1.64845 1.71718e-19)
(24.8683 1.67079 -9.2715e-19)
(24.873 1.69364 0)
(24.8777 1.7168 1.27963e-18)
(24.8823 1.74048 2.11706e-18)
(24.887 1.76436 -1.12543e-18)
(24.8917 1.7885 -9.89443e-19)
(24.8964 1.81278 2.27975e-17)
(24.9012 1.83715 9.64743e-18)
(24.906 1.86154 -3.59068e-18)
(24.911 1.88597 -9.89366e-19)
(24.9161 1.91032 2.29491e-17)
(24.9213 1.93466 2.64947e-18)
(24.9267 1.95894 4.10562e-18)
(24.9324 1.98318 2.30838e-17)
(24.9383 2.00739 4.96115e-17)
(24.9445 2.03159 -1.28581e-17)
(24.9511 2.05579 3.27657e-18)
(24.958 2.08002 -8.76888e-19)
(24.9654 2.10427 -4.10724e-17)
(24.9731 2.12858 2.238e-18)
(24.9813 2.15293 1.97109e-19)
(24.9898 2.17733 2.07424e-18)
(24.9987 2.20176 5.12379e-19)
(25.008 2.22623 -1.61174e-18)
(25.0175 2.25072 -2.33873e-17)
(25.0274 2.27523 -1.60225e-17)
(25.0375 2.29975 -7.12509e-17)
(25.0478 2.3243 1.52484e-18)
(25.0583 2.34887 1.24755e-16)
(25.069 2.37348 1.1376e-18)
(25.0798 2.39814 6.64275e-17)
(25.0908 2.42288 -1.83258e-17)
(25.1019 2.44771 6.85553e-17)
(25.1132 2.47265 9.28172e-17)
(25.1246 2.49771 -2.46584e-17)
(25.1362 2.52289 6.32317e-18)
(25.1481 2.54821 -4.08243e-17)
(25.1603 2.57363 -5.26305e-18)
(25.1728 2.59916 2.51059e-18)
(25.1857 2.62474 5.96246e-18)
(25.199 2.65036 2.37354e-18)
(25.2129 2.67596 -2.57838e-18)
(25.2272 2.70148 3.7532e-18)
(25.242 2.72686 3.43688e-18)
(25.2574 2.75203 -1.63327e-19)
(25.2732 2.77692 -1.6289e-18)
(25.2893 2.80145 -1.11299e-16)
(25.3057 2.82554 -1.62995e-16)
(25.3223 2.84912 -8.14314e-17)
(25.3389 2.87212 -1.58142e-18)
(25.3556 2.89449 2.17337e-16)
(25.3724 2.9162 -4.42523e-19)
(25.3892 2.9372 2.15814e-16)
(25.4059 2.95746 -7.89247e-19)
(25.4222 2.97693 -8.55511e-19)
(25.4379 2.99556 -8.00519e-20)
(25.4527 3.01331 3.38681e-18)
(25.4664 3.03022 -3.35327e-18)
(25.479 3.04616 -2.17455e-19)
(25.489 3.05925 -5.0937e-19)
(25.4967 3.07004 3.02042e-18)
(25.5041 3.08105 2.68049e-18)
(25.5114 3.09204 4.94829e-19)
(25.5183 3.10303 2.47342e-18)
(25.5245 3.11432 -3.15335e-19)
(25.5283 3.12349 -1.88529e-18)
(25.5287 3.13858 0)
(25.5174 3.13195 1.32725e-18)
(25.5109 3.18011 -1.67243e-17)
(25.4905 3.08771 -9.12794e-17)
(25.5577 3.33149 -1.79433e-19)
(25.5968 2.88805 -6.42873e-19)
(24.4684 1.62535 -6.15829e-18)
(24.9246 1.64722 9.69026e-19)
(25.055 1.66187 1.21442e-18)
(25.0446 1.67279 -3.23023e-19)
(25.0398 1.68461 7.16926e-18)
(25.0395 1.69688 1.66057e-17)
(25.0413 1.71027 -9.33339e-18)
(25.043 1.72394 8.84381e-19)
(25.0443 1.73849 -1.39917e-18)
(25.0455 1.7536 0)
(25.0466 1.76943 1.56094e-17)
(25.0476 1.78598 2.18737e-17)
(25.0486 1.8032 -8.65976e-18)
(25.0495 1.82114 -9.36642e-18)
(25.0505 1.83977 3.00077e-19)
(25.0516 1.85904 -1.13162e-18)
(25.0528 1.87895 -4.53948e-19)
(25.0542 1.89944 -9.57007e-19)
(25.0557 1.92046 -3.44999e-17)
(25.0574 1.94198 3.5346e-18)
(25.0593 1.96392 3.13519e-18)
(25.0614 1.98622 -1.27952e-17)
(25.0638 2.00883 -2.30652e-18)
(25.0665 2.03172 4.04985e-18)
(25.0695 2.05481 2.74415e-17)
(25.0727 2.07808 7.00487e-18)
(25.0763 2.10149 3.86199e-17)
(25.0802 2.12502 2.30256e-17)
(25.0844 2.14865 2.88325e-17)
(25.089 2.17237 1.70489e-17)
(25.0939 2.19618 5.60728e-17)
(25.0991 2.22008 -2.51078e-17)
(25.1047 2.24406 -2.73111e-17)
(25.1106 2.26814 3.43381e-17)
(25.1168 2.2923 -9.77845e-18)
(25.1234 2.31656 2.02152e-17)
(25.1303 2.34092 -2.97008e-18)
(25.1375 2.36538 -4.06265e-17)
(25.145 2.38995 1.52559e-17)
(25.1528 2.41463 1.30527e-17)
(25.161 2.43942 -3.70714e-17)
(25.1694 2.46432 -8.79294e-17)
(25.1782 2.48933 5.48157e-17)
(25.1873 2.51445 6.50771e-18)
(25.1968 2.53967 -6.92058e-17)
(25.2066 2.56497 -5.41712e-18)
(25.2169 2.59035 1.99157e-18)
(25.2277 2.61576 4.86221e-17)
(25.2389 2.64119 5.59382e-17)
(25.2507 2.66658 4.80188e-17)
(25.263 2.69191 7.27667e-19)
(25.2759 2.71711 2.34136e-16)
(25.2893 2.74212 -1.68561e-19)
(25.3032 2.76688 -2.61713e-17)
(25.3175 2.79131 1.04881e-16)
(25.332 2.81535 4.30629e-17)
(25.3468 2.83893 -1.15672e-16)
(25.3617 2.86198 -1.64876e-18)
(25.3768 2.88446 1.02222e-17)
(25.3919 2.90633 2.28675e-17)
(25.4072 2.92754 -4.3475e-18)
(25.4224 2.94806 -1.26116e-17)
(25.4374 2.96782 -2.11311e-16)
(25.4517 2.98679 2.67296e-16)
(25.4653 3.00491 1.42994e-16)
(25.4778 3.02221 -3.57166e-18)
(25.4893 3.03857 -2.32243e-19)
(25.4984 3.05206 -1.00423e-16)
(25.5054 3.06319 3.23837e-18)
(25.5122 3.07459 3.74754e-17)
(25.5188 3.08599 5.33328e-19)
(25.525 3.09742 2.23895e-16)
(25.5305 3.1092 -3.42172e-19)
(25.5337 3.11883 -1.21203e-16)
(25.5329 3.13453 0)
(25.5216 3.12831 -1.82468e-17)
(25.5127 3.17732 1.24816e-17)
(25.497 3.08594 8.88072e-17)
(25.5583 3.33041 1.41713e-19)
(25.6093 2.89074 -6.14824e-19)
(25.0139 1.75602 -4.26343e-19)
(25.2128 1.76603 8.63402e-19)
(25.2262 1.77535 -8.49147e-19)
(25.2107 1.78317 -5.87181e-19)
(25.2104 1.79224 -3.09813e-19)
(25.2111 1.80173 -1.31015e-17)
(25.2119 1.8117 1.67092e-17)
(25.2122 1.82203 -1.35215e-18)
(25.2119 1.83286 -1.03739e-17)
(25.2114 1.84409 0)
(25.2105 1.85581 -5.98627e-18)
(25.2093 1.86802 -7.0359e-19)
(25.2078 1.88072 -8.12204e-20)
(25.2061 1.89396 -2.211e-18)
(25.2043 1.90772 -2.0766e-19)
(25.2022 1.92204 -7.84833e-18)
(25.2001 1.93695 -2.03636e-18)
(25.1979 1.95243 -1.42452e-17)
(25.1957 1.96852 2.28261e-19)
(25.1936 1.98521 3.76377e-19)
(25.1916 2.0025 3.9009e-17)
(25.1897 2.02039 2.6936e-19)
(25.1881 2.03885 -2.22679e-17)
(25.1867 2.0579 2.71591e-17)
(25.1856 2.07746 -1.4517e-18)
(25.1848 2.09754 -1.82392e-17)
(25.1844 2.11809 -8.2696e-19)
(25.1843 2.13907 -4.18398e-19)
(25.1846 2.16044 -1.80033e-17)
(25.1854 2.18217 -1.30773e-17)
(25.1865 2.20422 -5.42298e-17)
(25.1881 2.22656 2.17621e-17)
(25.1901 2.24915 2.76608e-18)
(25.1925 2.27199 -5.27857e-17)
(25.1953 2.29503 1.06222e-17)
(25.1986 2.31828 -1.69708e-17)
(25.2022 2.34172 -2.95027e-18)
(25.2063 2.36534 4.24065e-17)
(25.2108 2.38913 -1.32637e-17)
(25.2157 2.41309 -1.25018e-17)
(25.221 2.43721 -1.05502e-17)
(25.2268 2.46149 8.32845e-17)
(25.2329 2.48591 -2.02671e-19)
(25.2395 2.51047 3.48385e-17)
(25.2466 2.53515 3.31752e-18)
(25.2541 2.55993 -5.53516e-18)
(25.2622 2.5848 -4.53032e-17)
(25.2707 2.60973 -3.58552e-17)
(25.2799 2.6347 -5.0574e-17)
(25.2896 2.65965 -1.82077e-16)
(25.2999 2.68456 6.66015e-17)
(25.3108 2.70938 -8.08138e-17)
(25.3223 2.73405 -1.42459e-16)
(25.3343 2.75851 -6.61774e-19)
(25.3467 2.78269 -6.95512e-17)
(25.3594 2.80653 -3.67255e-17)
(25.3723 2.82997 1.16318e-16)
(25.3855 2.85294 -1.72848e-18)
(25.3989 2.87541 -1.47181e-17)
(25.4125 2.89732 -2.37101e-17)
(25.4262 2.91863 -4.60057e-18)
(25.4399 2.9393 -5.2167e-19)
(25.4534 2.95926 2.0858e-16)
(25.4664 2.97848 -2.80935e-16)
(25.4787 2.9969 -1.35022e-16)
(25.49 3.01454 -3.83769e-18)
(25.5004 3.03126 4.30102e-17)
(25.5086 3.04509 1.51093e-16)
(25.5148 3.05654 3.4996e-18)
(25.5209 3.06829 2.40816e-18)
(25.5267 3.08008 2.07271e-18)
(25.5323 3.09192 -1.39276e-16)
(25.537 3.10419 5.74682e-17)
(25.5395 3.11428 1.16585e-16)
(25.5375 3.13052 0)
(25.526 3.12483 5.35464e-17)
(25.515 3.17444 -3.99673e-16)
(25.5039 3.08453 -1.33487e-18)
(25.3217 1.86881 -3.05679e-19)
(25.3577 1.87183 5.8738e-19)
(25.3396 1.87857 5.40473e-19)
(25.3354 1.88458 -2.29823e-19)
(25.3372 1.89175 -1.99469e-19)
(25.3377 1.89907 9.46947e-19)
(25.3379 1.90678 -1.16018e-18)
(25.3376 1.91484 2.79371e-19)
(25.3369 1.9233 4.51572e-19)
(25.3358 1.93212 0)
(25.3344 1.94136 2.06967e-19)
(25.3326 1.95102 -4.75392e-19)
(25.3305 1.96111 -5.5578e-20)
(25.328 1.97164 5.07996e-19)
(25.3253 1.98261 -1.46407e-19)
(25.3223 1.99405 1.00702e-19)
(25.3191 2.00597 -1.48716e-18)
(25.3157 2.01836 1.09362e-18)
(25.3122 2.03124 1.73333e-19)
(25.3085 2.04463 3.6461e-18)
(25.3048 2.05852 -1.58719e-18)
(25.301 2.07295 1.64843e-17)
(25.2973 2.0879 -1.12742e-17)
(25.2937 2.10339 5.75835e-19)
(25.2902 2.11942 -2.50565e-20)
(25.2868 2.13601 5.39982e-19)
(25.2837 2.15313 -7.29484e-19)
(25.2809 2.17079 -3.7424e-19)
(25.2784 2.18899 -9.66751e-19)
(25.2762 2.2077 1.6874e-18)
(25.2744 2.2269 4.26687e-19)
(25.273 2.24659 -1.37485e-18)
(25.272 2.26672 2.59943e-18)
(25.2715 2.28729 5.50503e-17)
(25.2714 2.30826 4.66036e-19)
(25.2718 2.3296 1.42759e-18)
(25.2726 2.35129 -2.84164e-18)
(25.2739 2.3733 1.10702e-18)
(25.2757 2.39562 8.88332e-19)
(25.278 2.41823 1.99249e-19)
(25.2808 2.44109 1.3557e-18)
(25.284 2.4642 -1.8628e-18)
(25.2877 2.48753 -2.00768e-19)
(25.292 2.51107 4.63628e-18)
(25.2968 2.5348 3.31012e-18)
(25.3021 2.55869 -5.54052e-18)
(25.3079 2.58271 5.66955e-18)
(25.3144 2.60685 6.33126e-18)
(25.3215 2.63107 2.53116e-18)
(25.3292 2.65533 4.42307e-18)
(25.3375 2.6796 8.49748e-19)
(25.3465 2.70383 -3.74039e-18)
(25.356 2.72796 6.88464e-18)
(25.3661 2.75195 -6.76939e-19)
(25.3766 2.77571 -3.79061e-17)
(25.3875 2.7992 3.9515e-17)
(25.3987 2.82235 6.74404e-19)
(25.4102 2.84511 -1.78938e-18)
(25.4219 2.86743 -2.42611e-18)
(25.4338 2.88926 2.09868e-17)
(25.446 2.91056 -1.8239e-16)
(25.4582 2.93128 1.03907e-17)
(25.4703 2.95135 -1.0128e-18)
(25.4819 2.97073 3.41719e-19)
(25.4928 2.98936 4.08139e-18)
(25.5029 3.00726 -4.07603e-18)
(25.5121 3.02428 -1.38104e-18)
(25.5194 3.03841 -1.91085e-18)
(25.5249 3.05013 3.74227e-18)
(25.5302 3.06221 -3.0287e-17)
(25.5353 3.07435 -8.66947e-19)
(25.5401 3.08659 -2.09759e-16)
(25.5441 3.0993 1.80229e-16)