/*--------------------------------*- C++ -*----------------------------------*\
| =========                 |                                                 |
| \\      /  F ield         | OpenFOAM: The Open Source CFD Toolbox           |
|  \\    /   O peration     | Version:  2506                                  |
|   \\  /    A nd           | Website:  www.openfoam.com                      |
|    \\/     M anipulation  |                                                 |
\*---------------------------------------------------------------------------*/
FoamFile
{
    version     2.0;
    format      ascii;
    arch        "LSB;label=32;scalar=64";
    class       volScalarField;
    location    "350";
    object      magR;
}
// * * * * * * * * * * * * * * * * * * * * * * * * * * * * * * * * * * * * * //

dimensions      [0 2 -2 0 0 0 0];

internalField   nonuniform List<scalar> 
1340
(
31.2588
24.7548
18.295
4.2638
11.7105
10.423
9.08041
9.75091
14.8961
12.9439
10.7156
12.0407
15.3211
14.4074
12.6094
13.5793
9.98032
12.3922
12.843
14.2947
2.28495
6.37363
10.2699
13.6412
0.157089
1.04815
5.23934
10.9462
0.0664829
0.121988
1.19144
6.56031
0
0.0383003
0.161219
2.61408
0
0.000194456
0.0200955
0.687397
0
0
0.00634227
0.175941
3.04574e-06
0
0.000998857
0.0605587
4.66684e-05
3.56973e-08
0.000319242
0.0202002
9.58147e-05
2.96081e-06
3.25084e-05
0.0051122
8.75789e-05
4.12196e-05
4.78512e-07
0.000371756
7.00496e-05
8.3846e-05
1.71024e-07
2.63167e-05
6.12118e-05
9.21581e-05
4.24958e-07
4.00115e-10
5.9515e-05
7.80772e-05
2.93853e-05
6.09326e-07
5.9947e-05
6.37754e-05
5.98693e-05
7.34471e-06
5.9565e-05
5.6252e-05
6.4429e-05
3.01402e-05
5.79138e-05
5.32924e-05
5.79552e-05
4.69591e-05
5.55701e-05
5.17688e-05
5.14337e-05
5.08359e-05
5.30561e-05
5.01222e-05
4.71812e-05
4.83165e-05
5.05822e-05
4.80475e-05
4.4386e-05
4.44387e-05
4.81724e-05
4.57182e-05
4.2104e-05
4.09034e-05
4.57895e-05
4.33176e-05
3.98958e-05
3.78842e-05
4.34169e-05
4.09396e-05
3.76727e-05
3.52112e-05
4.10558e-05
3.86062e-05
3.54622e-05
3.27604e-05
3.87111e-05
3.63182e-05
3.32931e-05
3.04732e-05
3.63991e-05
3.40831e-05
3.1189e-05
2.83344e-05
3.41318e-05
3.19069e-05
2.91525e-05
2.63315e-05
3.19148e-05
2.97975e-05
2.71951e-05
2.44543e-05
2.97602e-05
2.77572e-05
2.53158e-05
2.26968e-05
2.93585e-05
2.76757e-05
2.57965e-05
2.35174e-05
2.10472e-05
2.72148e-05
2.56676e-05
2.3919e-05
2.18058e-05
1.94996e-05
2.51564e-05
2.37438e-05
2.21272e-05
2.01809e-05
1.80481e-05
2.31907e-05
2.1908e-05
2.04239e-05
1.8643e-05
1.66865e-05
2.13231e-05
2.01647e-05
1.88116e-05
1.71919e-05
1.54102e-05
1.95565e-05
1.85166e-05
1.72913e-05
1.58274e-05
1.42149e-05
1.78936e-05
1.69649e-05
1.58618e-05
1.45474e-05
1.30965e-05
1.63356e-05
1.55105e-05
1.45234e-05
1.33497e-05
1.20512e-05
1.48819e-05
1.41524e-05
1.32741e-05
1.22322e-05
1.10753e-05
1.35312e-05
1.28891e-05
1.21118e-05
1.11916e-05
1.01658e-05
1.22812e-05
1.17185e-05
1.10336e-05
1.02253e-05
9.31884e-06
1.11283e-05
1.06373e-05
1.00368e-05
9.32995e-06
8.53192e-06
1.04162e-05
1.0069e-05
9.64183e-06
9.11742e-06
8.50195e-06
7.80186e-06
9.39885e-06
9.09868e-06
8.72832e-06
8.27198e-06
7.73812e-06
7.12569e-06
8.47147e-06
8.21234e-06
7.89219e-06
7.49643e-06
7.035e-06
6.50061e-06
7.62835e-06
7.40507e-06
7.12893e-06
6.78661e-06
6.38896e-06
5.92379e-06
6.86373e-06
6.67152e-06
6.43382e-06
6.13851e-06
5.7966e-06
5.3926e-06
6.17188e-06
6.00657e-06
5.8022e-06
5.54785e-06
5.25451e-06
4.9043e-06
5.54698e-06
5.40491e-06
5.22943e-06
5.01072e-06
4.75937e-06
4.45622e-06
4.98366e-06
4.86153e-06
4.7109e-06
4.52301e-06
4.30791e-06
4.04587e-06
4.47656e-06
4.37152e-06
4.24228e-06
4.08097e-06
3.89694e-06
3.67071e-06
4.09273e-06
4.02064e-06
3.93028e-06
3.81933e-06
3.68086e-06
3.52343e-06
3.32831e-06
3.67361e-06
3.61121e-06
3.53335e-06
3.43807e-06
3.31919e-06
3.18445e-06
3.01628e-06
3.29802e-06
3.24392e-06
3.17672e-06
3.09478e-06
2.99264e-06
2.87721e-06
2.73236e-06
2.96177e-06
2.91472e-06
2.85661e-06
2.78601e-06
2.69812e-06
2.59911e-06
2.47438e-06
2.66092e-06
2.61989e-06
2.5695e-06
2.50854e-06
2.43282e-06
2.34769e-06
2.24028e-06
2.39167e-06
2.35583e-06
2.31205e-06
2.25932e-06
2.19395e-06
2.12062e-06
2.02812e-06
2.1502e-06
2.11892e-06
2.0809e-06
2.03529e-06
1.97885e-06
1.91559e-06
1.83599e-06
1.95518e-06
1.93284e-06
1.90563e-06
1.87272e-06
1.83335e-06
1.78471e-06
1.73017e-06
1.66186e-06
1.7564e-06
1.73682e-06
1.71316e-06
1.68469e-06
1.65078e-06
1.60896e-06
1.56204e-06
1.50367e-06
1.57768e-06
1.56035e-06
1.53962e-06
1.51487e-06
1.48556e-06
1.44958e-06
1.40921e-06
1.35946e-06
1.41803e-06
1.40243e-06
1.38399e-06
1.36224e-06
1.33669e-06
1.30554e-06
1.27067e-06
1.22831e-06
1.27523e-06
1.2609e-06
1.24419e-06
1.22473e-06
1.20211e-06
1.17476e-06
1.14426e-06
1.10783e-06
1.15266e-06
1.13963e-06
1.12451e-06
1.10704e-06
1.08685e-06
1.06245e-06
1.03535e-06
1.00328e-06
1.05493e-06
1.04295e-06
1.02921e-06
1.01343e-06
9.95234e-07
9.73164e-07
9.48682e-07
9.21349e-07
9.80569e-07
9.70845e-07
9.58888e-07
9.45545e-07
9.30663e-07
9.13721e-07
8.93443e-07
8.70649e-07
8.46325e-07
9.0582e-07
8.96231e-07
8.8443e-07
8.71318e-07
8.5685e-07
8.40547e-07
8.21418e-07
8.00448e-07
7.80178e-07
8.27488e-07
8.17613e-07
8.05812e-07
7.92845e-07
7.78717e-07
7.62956e-07
7.44453e-07
7.23214e-07
7.0093e-07
7.6429e-07
7.55306e-07
7.44416e-07
7.32221e-07
7.18761e-07
7.03835e-07
6.86934e-07
6.69597e-07
6.56304e-07
6.75708e-07
6.65677e-07
6.54329e-07
6.42163e-07
6.2916e-07
6.14695e-07
5.97286e-07
5.75425e-07
5.5089e-07
6.4739e-07
6.39069e-07
6.29004e-07
6.17597e-07
6.05143e-07
5.9196e-07
5.78759e-07
5.68893e-07
5.68252e-07
5.23625e-07
5.1406e-07
5.03615e-07
4.92368e-07
4.8012e-07
4.65795e-07
4.46583e-07
4.20315e-07
3.88594e-07
6.00903e-07
5.95064e-07
5.87539e-07
5.78308e-07
5.68345e-07
5.59101e-07
5.54827e-07
5.62304e-07
5.81468e-07
4.67562e-07
4.66835e-07
4.63468e-07
4.57421e-07
4.49027e-07
4.37611e-07
4.2192e-07
4.12704e-07
3.96163e-07
8.07774e-07
7.89311e-07
7.89666e-07
7.89797e-07
7.88848e-07
7.87678e-07
7.88835e-07
8.03634e-07
8.39866e-07
8.58528e-07
8.65782e-07
8.60669e-07
8.65805e-07
8.72088e-07
8.77424e-07
8.82178e-07
8.88866e-07
9.11161e-07
9.48796e-07
9.46765e-07
1.46536e-06
1.23822e-06
1.25572e-06
1.27068e-06
1.27958e-06
1.2898e-06
1.30343e-06
1.33023e-06
1.35342e-06
1.15714e-06
18.5871
8.5808
3.803
11.064
14.7808
15.5256
13.8482
9.99823
5.13295
1.54813
0.260233
0.0520903
0.0174067
0.00442514
0.000197946
1.10648e-05
0
9.69332e-08
2.00813e-06
2.10669e-05
3.83401e-05
4.34039e-05
4.16244e-05
3.81869e-05
3.50046e-05
3.23428e-05
3.00284e-05
2.79295e-05
2.59808e-05
2.41663e-05
2.2477e-05
2.09042e-05
1.9441e-05
1.80752e-05
1.67984e-05
1.56047e-05
1.44861e-05
1.34372e-05
1.24535e-05
1.15306e-05
1.06643e-05
9.8515e-06
9.09027e-06
8.37666e-06
7.70933e-06
7.08608e-06
6.50467e-06
5.96332e-06
5.4602e-06
4.99353e-06
4.56158e-06
4.16243e-06
3.79448e-06
3.45588e-06
3.14492e-06
2.85987e-06
2.59904e-06
2.36077e-06
2.14345e-06
1.94555e-06
1.76557e-06
1.60185e-06
1.45268e-06
1.31622e-06
1.1918e-06
1.07683e-06
9.76143e-07
8.98462e-07
8.24282e-07
7.64592e-07
6.79346e-07
6.50365e-07
5.22871e-07
5.79434e-07
3.4506e-07
6.10694e-07
3.54514e-07
8.58034e-07
8.80332e-07
1.08625e-06
13.4773
12.7758
6.13064
3.40817
8.50042
11.4917
11.8288
9.80909
6.10614
2.33875
0.380348
0.0274163
0.00688265
0.00249039
0.000157656
1.0875e-05
0
2.71811e-08
5.76354e-07
1.11124e-05
2.34739e-05
2.82201e-05
2.80095e-05
2.63216e-05
2.46243e-05
2.3182e-05
2.19062e-05
2.07132e-05
1.95691e-05
1.84711e-05
1.74209e-05
1.64189e-05
1.54653e-05
1.45555e-05
1.36869e-05
1.28586e-05
1.20671e-05
1.13113e-05
1.05896e-05
9.90055e-06
9.24286e-06
8.61567e-06
8.01901e-06
7.4509e-06
6.91176e-06
6.40113e-06
5.91814e-06
5.4625e-06
5.03374e-06
4.63125e-06
4.25452e-06
3.90267e-06
3.57502e-06
3.2707e-06
2.98875e-06
2.72817e-06
2.48792e-06
2.26692e-06
2.06403e-06
1.87817e-06
1.70822e-06
1.55285e-06
1.41073e-06
1.28022e-06
1.16085e-06
1.05026e-06
9.52603e-07
8.7692e-07
8.03406e-07
7.47062e-07
6.6141e-07
6.37019e-07
5.06857e-07
5.69536e-07
3.30696e-07
5.99475e-07
3.42262e-07
8.37055e-07
8.55463e-07
8.78891
10.609
8.51492
3.74911
2.82656
7.03474
9.46679
9.54707
7.47886
4.12712
1.22342
0.112422
0.00478127
0.000697069
1.20624e-07
6.12149e-09
0
1.33672e-09
2.78778e-08
4.66219e-06
1.2999e-05
1.72001e-05
1.77639e-05
1.71043e-05
1.63593e-05
1.57553e-05
1.5241e-05
1.47507e-05
1.42521e-05
1.37399e-05
1.32159e-05
1.26838e-05
1.21478e-05
1.1609e-05
1.10696e-05
1.05327e-05
9.99967e-06
9.47362e-06
8.95583e-06
8.44833e-06
7.95243e-06
7.46986e-06
7.00232e-06
6.54977e-06
6.11411e-06
5.69606e-06
5.29591e-06
4.91435e-06
4.55169e-06
4.20815e-06
3.88385e-06
3.57853e-06
3.29215e-06
3.02425e-06
2.77441e-06
2.54208e-06
2.32661e-06
2.1273e-06
1.94335e-06
1.77397e-06
1.61835e-06
1.47543e-06
1.34418e-06
1.22313e-06
1.11194e-06
1.00859e-06
9.16516e-07
8.45255e-07
7.74407e-07
7.22903e-07
6.38977e-07
6.18977e-07
4.90431e-07
5.55122e-07
3.22838e-07
5.84625e-07
3.40385e-07
8.19233e-07
5.76475
7.85873
8.10337
6.01503
2.36508
2.36452
5.78845
7.77525
7.79546
5.95319
3.08533
0.815433
0.062816
0.000421252
0.000172766
0
0
0
1.21281e-07
2.46957e-06
9.15393e-06
1.36263e-05
1.45806e-05
1.4037e-05
1.32904e-05
1.27049e-05
1.22531e-05
1.18574e-05
1.14779e-05
1.11025e-05
1.07269e-05
1.03497e-05
9.97074e-06
9.58828e-06
9.20195e-06
8.81247e-06
8.42057e-06
8.02816e-06
7.63621e-06
7.24657e-06
6.86076e-06
6.48062e-06
6.10777e-06
5.74301e-06
5.38831e-06
5.04458e-06
4.71263e-06
4.39356e-06
4.08783e-06
3.79608e-06
3.51875e-06
3.25585e-06
3.0077e-06
2.77411e-06
2.55496e-06
2.35003e-06
2.1589e-06
1.98115e-06
1.81627e-06
1.66366e-06
1.52278e-06
1.3928e-06
1.27293e-06
1.16191e-06
1.05941e-06
9.63787e-07
8.77814e-07
8.11851e-07
7.44443e-07
6.97956e-07
6.16141e-07
6.00434e-07
4.74172e-07
5.40704e-07
3.15738e-07
5.7105e-07
3.37447e-07
3.50016
5.45312
6.61141
6.36433
4.5633
1.71553
1.91525
4.68369
6.34664
6.39969
4.86024
2.47253
0.644192
0.0471434
0.000684851
0.000253987
0
0
0
2.64563e-07
4.7195e-06
1.06194e-05
1.21398e-05
1.18362e-05
1.12391e-05
1.07134e-05
1.03023e-05
9.95512e-06
9.6269e-06
9.30343e-06
8.9835e-06
8.66776e-06
8.35604e-06
8.04702e-06
7.73943e-06
7.43252e-06
7.12605e-06
6.82034e-06
6.51522e-06
6.21132e-06
5.90936e-06
5.61016e-06
5.31466e-06
5.02352e-06
4.73809e-06
4.45905e-06
4.1873e-06
3.92387e-06
3.66923e-06
3.42415e-06
3.18928e-06
2.96487e-06
2.75136e-06
2.54885e-06
2.35753e-06
2.17736e-06
2.00821e-06
1.8499e-06
1.70215e-06
1.56461e-06
1.43692e-06
1.3185e-06
1.20877e-06
1.1067e-06
1.01196e-06
9.23278e-07
8.42727e-07
7.81451e-07
7.17085e-07
6.74969e-07
5.9498e-07
5.83159e-07
4.5868e-07
5.27611e-07
3.07958e-07
5.60128e-07
1.74573
3.37989
4.81881
5.5421
5.19211
3.7029
1.41536
1.47552
3.78161
5.23627
5.36131
4.11543
2.13109
0.580793
0.052445
0.000997258
0.000248651
0
0
0
2.72324e-07
4.59775e-06
9.03031e-06
9.20301e-06
8.61908e-06
8.2546e-06
8.00917e-06
7.80267e-06
7.61317e-06
7.42312e-06
7.2257e-06
7.02252e-06
6.81554e-06
6.60525e-06
6.39136e-06
6.17388e-06
5.9534e-06
5.73052e-06
5.50538e-06
5.2786e-06
5.05094e-06
4.82283e-06
4.59515e-06
4.36852e-06
4.14391e-06
3.92197e-06
3.70359e-06
3.48971e-06
3.28084e-06
3.07782e-06
2.8814e-06
2.69198e-06
2.51015e-06
2.33621e-06
2.17054e-06
2.0133e-06
1.86459e-06
1.72442e-06
1.59272e-06
1.46933e-06
1.35408e-06
1.24658e-06
1.14647e-06
1.05292e-06
9.65598e-07
8.83588e-07
8.08231e-07
7.51341e-07
6.89859e-07
6.51877e-07
5.73771e-07
5.65745e-07
4.42991e-07
5.14592e-07
0.578031
1.67612
3.02377
4.15844
4.69854
4.39054
3.1848
1.30891
1.05547
3.02938
4.34961
4.56349
3.58991
1.9338
0.575584
0.0668976
0.000326229
6.17766e-05
0
0
0
2.56749e-07
4.20478e-06
7.52711e-06
7.19042e-06
6.49572e-06
6.23793e-06
6.11168e-06
5.98406e-06
5.85935e-06
5.73872e-06
5.61551e-06
5.48804e-06
5.35666e-06
5.22049e-06
5.07867e-06
4.93125e-06
4.77861e-06
4.6209e-06
4.45878e-06
4.29286e-06
4.12368e-06
3.95216e-06
3.77893e-06
3.60483e-06
3.43069e-06
3.25729e-06
3.08551e-06
2.91597e-06
2.7495e-06
2.58686e-06
2.42857e-06
2.27527e-06
2.12738e-06
1.98538e-06
1.84956e-06
1.72015e-06
1.59732e-06
1.48113e-06
1.37156e-06
1.26858e-06
1.17197e-06
1.08151e-06
9.96587e-07
9.16846e-07
8.41699e-07
7.71744e-07
7.1942e-07
6.61024e-07
6.27315e-07
5.51381e-07
5.47309e-07
0.0768038
0.523261
1.45599
2.59
3.55085
4.02967
3.81937
2.86419
1.31611
0.669713
2.38451
3.61239
3.91986
3.19186
1.81089
0.600848
0.0812767
0.000660215
8.46177e-05
0
0
0
1.94167e-07
3.03756e-06
6.25799e-06
5.93948e-06
5.19332e-06
4.9692e-06
4.90546e-06
4.81349e-06
4.70853e-06
4.61038e-06
4.51555e-06
4.41977e-06
4.32171e-06
4.22047e-06
4.11528e-06
4.00594e-06
3.89209e-06
3.77381e-06
3.65133e-06
3.52489e-06
3.39513e-06
3.26248e-06
3.12759e-06
2.99117e-06
2.85385e-06
2.71643e-06
2.57946e-06
2.44373e-06
2.30992e-06
2.17856e-06
2.05032e-06
1.92559e-06
1.80493e-06
1.68868e-06
1.57713e-06
1.47054e-06
1.36904e-06
1.27271e-06
1.18161e-06
1.09566e-06
1.01472e-06
9.38396e-07
8.66259e-07
7.9807e-07
7.3367e-07
6.86082e-07
6.30953e-07
0.000662064
0.0562669
0.407052
1.1747
2.14572
3.00387
3.47899
3.38357
2.65026
1.37559
0.3461
1.82733
2.98702
3.38481
2.8732
1.73074
0.635558
0.10215
0.00215794
0.00015404
0
0
0
1.07056e-07
1.58508e-06
4.90929e-06
4.98573e-06
4.24311e-06
3.99189e-06
3.96687e-06
3.9196e-06
3.84124e-06
3.76354e-06
3.69031e-06
3.61683e-06
3.54094e-06
3.46213e-06
3.38025e-06
3.29489e-06
3.2059e-06
3.11327e-06
3.01709e-06
2.91766e-06
2.81523e-06
2.71023e-06
2.60312e-06
2.49438e-06
2.38466e-06
2.27436e-06
2.16415e-06
2.05464e-06
1.94626e-06
1.83966e-06
1.73521e-06
1.63342e-06
1.53467e-06
1.43927e-06
1.34752e-06
1.25959e-06
1.17561e-06
1.0957e-06
1.01986e-06
9.48043e-07
8.80023e-07
8.15292e-07
7.5395e-07
0.000163985
0.000254741
0.0309425
0.276164
0.883605
1.71824
2.50814
3.00383
3.02476
2.48889
1.44947
0.213362
1.34556
2.44939
2.92796
2.60616
1.66985
0.673773
0.12807
0.00506659
0.000224163
0
0
0
3.31017e-08
4.28629e-07
3.5471e-06
4.23609e-06
3.57307e-06
3.25146e-06
3.20887e-06
3.18663e-06
3.13436e-06
3.07675e-06
3.02249e-06
2.96813e-06
2.91129e-06
2.85161e-06
2.78883e-06
2.7228e-06
2.65341e-06
2.58069e-06
2.50481e-06
2.42601e-06
2.34452e-06
2.26068e-06
2.17488e-06
2.08761e-06
1.9992e-06
1.91015e-06
1.82101e-06
1.73212e-06
1.64407e-06
1.55718e-06
1.47192e-06
1.38866e-06
1.3077e-06
1.22934e-06
1.15379e-06
1.08119e-06
1.01168e-06
9.45323e-07
0
0.000115671
0.000354986
0.0131327
0.162432
0.615618
1.3216
2.05454
2.57726
2.70802
2.34908
1.51753
0.380495
0.929364
1.98174
2.52824
2.37127
1.61532
0.712453
0.158103
0.00978001
0.000318891
4.86675e-07
0
0
4.04137e-10
1.37548e-07
1.9922e-06
3.35991e-06
3.02465e-06
2.69656e-06
2.62733e-06
2.61136e-06
2.57509e-06
2.53139e-06
2.48979e-06
2.44837e-06
2.40497e-06
2.35911e-06
2.31056e-06
2.25909e-06
2.2046e-06
2.14717e-06
2.08692e-06
2.02402e-06
1.95872e-06
1.89132e-06
1.82221e-06
1.75164e-06
1.68003e-06
1.60782e-06
1.53532e-06
1.46302e-06
1.3912e-06
1.32028e-06
1.2506e-06
1.18244e-06
0
0
1.09043e-05
5.8947e-05
0.0034122
0.081054
0.391703
0.966523
1.63855
2.18296
2.41259
2.21236
1.56797
0.589686
0.570492
1.57024
2.17083
2.15554
1.56059
0.748312
0.190995
0.0166856
8.88161e-05
1.26889e-05
0
0
0
9.18783e-08
1.35329e-06
2.64172e-06
2.53912e-06
2.25541e-06
2.1733e-06
2.15953e-06
2.13387e-06
2.09985e-06
2.06689e-06
2.03426e-06
1.99997e-06
1.96353e-06
1.92478e-06
1.88355e-06
1.83978e-06
1.79353e-06
1.74487e-06
1.69395e-06
1.64099e-06
1.58629e-06
1.53005e-06
1.47259e-06
7.71414e-08
7.2265e-13
0
1.00615e-08
0.00042003
0.000373383
0.0322377
0.22275
0.663392
1.26108
1.81346
2.12665
2.06772
1.59302
0.771794
0.268011
1.20582
1.84607
1.95168
1.50175
0.778831
0.226348
0.0259449
1.95284e-05
4.45519e-06
0
0
0
5.80474e-08
8.27087e-07
2.07448e-06
2.14274e-06
1.89536e-06
1.80652e-06
1.79585e-06
1.7786e-06
1.75137e-06
1.72439e-06
)
;

boundaryField
{
    inlet
    {
        type            calculated;
        value           nonuniform List<scalar> 
11
(
6.48341e-06
6.14584e-06
6.29315e-06
6.42991e-06
6.55123e-06
6.659e-06
6.7599e-06
6.86117e-06
6.98098e-06
6.70969e-06
7.06999e-06
)
;
    }
    outlet
    {
        type            calculated;
        value           nonuniform List<scalar> 0();
    }
    walls
    {
        type            calculated;
        value           nonuniform List<scalar> 4(0.388578 0.298475 0.212597 0.0372405);
    }
    frontAndBack
    {
        type            empty;
    }
    procBoundary6to2
    {
        type            processor;
        value           nonuniform List<scalar> 
13
(
12.8394
7.72788
4.8793
2.93978
1.45432
0.489428
0.0705906
0.000735035
0.000323687
0
0
6.35681e-08
1.08282e-06
)
;
    }
    procBoundary6to3
    {
        type            processor;
        value           uniform 1.28704e-06;
    }
    procBoundary6to5
    {
        type            processor;
        value           nonuniform List<scalar> 
86
(
36.0507
13.5526
17.3877
15.5475
6.16102
0.244266
0.0267314
0.00386085
0
0
3.78948e-06
6.18881e-05
9.12188e-05
7.83496e-05
6.98362e-05
6.90785e-05
6.94116e-05
6.80549e-05
6.5548e-05
6.28604e-05
6.03626e-05
5.80162e-05
5.56957e-05
5.333e-05
5.09118e-05
4.84575e-05
4.59854e-05
4.35136e-05
4.10554e-05
3.86207e-05
3.62221e-05
3.3872e-05
3.15806e-05
3.15806e-05
3.0886e-05
2.85957e-05
2.63999e-05
2.43052e-05
2.23172e-05
2.04397e-05
1.8675e-05
1.7024e-05
1.54862e-05
1.40597e-05
1.27418e-05
1.15288e-05
1.15288e-05
1.06922e-05
9.6367e-06
8.67628e-06
7.80463e-06
7.01544e-06
6.30238e-06
5.65936e-06
5.08048e-06
4.56004e-06
4.56004e-06
4.14926e-06
3.72278e-06
3.34094e-06
2.99935e-06
2.69395e-06
2.42074e-06
2.17573e-06
2.17573e-06
1.97317e-06
1.77233e-06
1.59196e-06
1.43104e-06
1.28732e-06
1.16351e-06
1.0646e-06
1.0646e-06
9.8905e-07
9.14307e-07
8.36515e-07
7.72765e-07
6.85201e-07
6.56614e-07
5.31188e-07
6.12688e-07
4.60359e-07
4.60359e-07
7.46019e-07
8.61988e-07
1.11304e-06
)
;
    }
    procBoundary6to7
    {
        type            processor;
        value           nonuniform List<scalar> 
91
(
1.08988e-06
1.08988e-06
8.28039e-07
8.28039e-07
8.03204e-07
8.03204e-07
3.34706e-07
2.99515e-07
3.34706e-07
5.49976e-07
4.26499e-07
2.99515e-07
5.01009e-07
6.01612e-07
5.28086e-07
4.26499e-07
5.28068e-07
6.9508e-07
6.52222e-07
6.01612e-07
6.0041e-07
8.82132e-07
8.22038e-07
7.64433e-07
6.9508e-07
7.09751e-07
1.11608e-06
1.05174e-06
9.89537e-07
9.29645e-07
8.82132e-07
8.72142e-07
1.41427e-06
1.35538e-06
1.29628e-06
1.23725e-06
1.17864e-06
1.12073e-06
1.11608e-06
1.0638e-06
1.69818e-06
1.67069e-06
1.64127e-06
1.60981e-06
1.57621e-06
1.54045e-06
1.50257e-06
1.46269e-06
1.42094e-06
1.37755e-06
1.33269e-06
1.41427e-06
1.28661e-06
9.15767e-09
5.5926e-10
0
0
4.93423e-05
0.000102807
0.00855347
0.10812
0.417848
0.924368
1.46497
1.84347
1.90833
1.58844
0.916878
0.0973969
0.883055
1.54801
1.75529
1.43617
0.802612
0.261374
0.0354743
0.000301434
3.5831e-05
0
0
0
3.09937e-08
4.19524e-07
1.62207e-06
1.82354e-06
1.59777e-06
1.49801e-06
1.49116e-06
1.48438e-06
1.69818e-06
1.46451e-06
)
;
    }
}


// ************************************************************************* //
