/*--------------------------------*- C++ -*----------------------------------*\
| =========                 |                                                 |
| \\      /  F ield         | OpenFOAM: The Open Source CFD Toolbox           |
|  \\    /   O peration     | Version:  2506                                  |
|   \\  /    A nd           | Website:  www.openfoam.com                      |
|    \\/     M anipulation  |                                                 |
\*---------------------------------------------------------------------------*/
FoamFile
{
    version     2.0;
    format      ascii;
    arch        "LSB;label=32;scalar=64";
    class       volVectorField;
    location    "350";
    object      momentError;
}
// * * * * * * * * * * * * * * * * * * * * * * * * * * * * * * * * * * * * * //

dimensions      [0 1 -2 0 0 0 0];

internalField   nonuniform List<vector> 
1340
(
(-0.000321502 0.00132754 1.1549e-13)
(0.00102329 0.0115339 -1.13959e-14)
(0.0523304 0.0721863 -4.54661e-16)
(1.08998 -0.119949 -6.74518e-14)
(-0.000263417 0.000452929 -3.94976e-14)
(-0.00124156 0.00227621 3.30498e-14)
(-0.0319388 0.014307 -1.41182e-14)
(-0.892827 0.108609 -3.8499e-14)
(-0.00112111 0.000494718 -3.61617e-14)
(-0.00282746 0.00130785 -9.97925e-14)
(-0.0166278 0.00212279 2.77694e-14)
(-0.113675 0.00996623 9.90327e-15)
(-0.00163967 0.000582738 -1.16595e-13)
(-0.00201118 0.000711684 1.66291e-14)
(-0.00714197 -8.72975e-05 -2.82903e-14)
(-0.0342278 0.00933571 4.5655e-14)
(-0.0031821 0.000546568 1.18023e-13)
(-0.00144895 0.000401813 -3.96369e-14)
(-0.00443238 -0.000507333 -1.66151e-14)
(-0.0209578 0.00967133 -5.3283e-16)
(-0.00170288 -0.000323266 7.32705e-14)
(-0.000797905 0.000309537 8.46166e-14)
(-0.00391033 -0.000410381 3.84752e-14)
(-0.0178348 0.0102208 2.85575e-14)
(0.023226 -0.00765436 -1.0183e-13)
(-0.0066715 0.00275177 -5.7784e-14)
(-0.00260729 -0.000552643 6.50654e-15)
(-0.0141145 0.00941851 -2.58389e-14)
(-0.0140375 0.00211456 6.94132e-14)
(-0.00339589 -0.00116694 5.85296e-14)
(-0.00315056 0.00255255 -3.50449e-14)
(-0.0105206 0.00733328 -2.77224e-14)
(-0.00927249 0.00550835 -8.23498e-14)
(0.00480972 -0.00189754 -1.57851e-14)
(-0.0117697 0.00581731 2.61634e-14)
(-0.00484355 0.00175427 -5.00066e-15)
(0.00105503 -0.000786836 3.04281e-14)
(-0.000298331 -0.0012275 5.39663e-15)
(0.00569085 -0.00579079 -1.69098e-14)
(0.00534614 0.00382568 4.25518e-14)
(0.000121426 0.000126999 -2.02329e-14)
(0.000630362 -0.000660833 2.0671e-14)
(0.000618479 -0.00357169 1.51107e-14)
(0.00131223 0.00750155 7.64965e-15)
(0.000265817 -2.68869e-05 5.9771e-14)
(-0.000474475 -6.76767e-05 3.47066e-14)
(-0.00342416 0.00271875 1.50381e-14)
(0.00122407 0.00436758 -3.55889e-14)
(0.000157369 2.53027e-05 -5.60548e-14)
(-0.000316053 -4.26663e-05 -4.43361e-14)
(-0.000788974 -0.000139772 3.17855e-15)
(0.0012529 0.0030194 1.54101e-15)
(0.000104122 2.49476e-05 4.06993e-14)
(-0.000331108 1.59912e-05 5.33797e-14)
(-0.00103627 0.000516345 -3.67084e-14)
(0.000981592 0.00276175 2.00096e-15)
(6.27518e-05 3.60726e-05 3.93026e-15)
(-0.000335906 5.7679e-05 -6.59994e-14)
(-0.000754762 0.000477838 2.42853e-14)
(0.000968417 0.00230484 1.06339e-15)
(3.86807e-05 4.74658e-05 -6.65114e-14)
(-0.000320158 8.35264e-05 2.33761e-14)
(-0.0005633 0.00050728 -1.72111e-15)
(0.000943657 0.00195702 9.69928e-15)
(2.46393e-05 6.2896e-05 1.19834e-14)
(-0.000297674 0.000113529 6.26855e-15)
(-0.000421229 0.000526899 -1.69639e-14)
(0.000892647 0.00165588 -6.57425e-15)
(1.3896e-05 7.84221e-05 1.6392e-14)
(-0.00026613 0.000140333 -5.47986e-15)
(-0.000296274 0.000533715 4.63658e-15)
(0.000831175 0.00139919 7.86082e-15)
(7.78458e-06 9.28274e-05 9.12056e-15)
(-0.000230867 0.000163692 -2.65003e-14)
(-0.00019295 0.000530909 2.60767e-14)
(0.00076473 0.00117674 -6.30299e-15)
(2.25319e-06 0.000105728 -7.04807e-15)
(-0.000194126 0.000182028 7.41996e-15)
(-0.000104662 0.000518656 2.22086e-15)
(0.000700451 0.000985645 -4.58295e-15)
(7.9707e-07 0.000117588 -1.26024e-14)
(-0.000157752 0.000195724 -4.93434e-15)
(-3.48296e-05 0.00049706 -1.86646e-14)
(0.000639562 0.000821377 -2.96358e-15)
(-6.28546e-07 0.000128105 -1.59417e-14)
(-0.000123287 0.000204595 -1.05188e-14)
(2.27373e-05 0.000469341 4.4703e-15)
(0.000582096 0.000682418 3.08202e-15)
(1.4278e-06 0.000136901 3.96844e-14)
(-9.07606e-05 0.000210176 2.06255e-14)
(6.57353e-05 0.000438435 -1.04229e-14)
(0.000528323 0.000564941 -6.60775e-16)
(2.88369e-06 0.000144028 -9.38221e-15)
(-6.15279e-05 0.000212034 -2.36004e-15)
(0.000100045 0.000405694 6.01621e-15)
(0.000478191 0.00046775 2.02955e-15)
(7.01947e-06 0.00014881 -1.58348e-14)
(-3.46861e-05 0.000211994 -6.5339e-15)
(0.000123109 0.000372643 -1.41017e-14)
(0.000431708 0.000386291 -2.5406e-15)
(1.01948e-05 0.000151726 1.09342e-14)
(-1.19214e-05 0.000208532 -1.87191e-14)
(0.000139929 0.000338754 9.63751e-15)
(0.000389661 0.000321529 8.39708e-15)
(1.51968e-05 0.000152013 -8.56784e-15)
(8.12531e-06 0.000203274 2.79157e-14)
(0.000148926 0.00030732 2.35245e-14)
(0.000351539 0.000268442 -1.29435e-15)
(1.89461e-05 0.000150143 -3.35907e-15)
(2.42496e-05 0.000195432 1.21382e-14)
(0.000154125 0.000276521 -6.79408e-15)
(0.000316592 0.000226723 1.43692e-15)
(2.36297e-05 0.000144584 8.39495e-15)
(3.81109e-05 0.000187042 -2.55939e-14)
(0.000154052 0.000248544 -1.03706e-14)
(0.000284675 0.000191548 -4.82209e-15)
(2.84248e-05 0.000139913 1.56402e-15)
(4.88414e-05 0.000175573 1.49042e-14)
(0.000151632 0.000221849 5.03137e-15)
(0.000255351 0.00016375 -2.62782e-15)
(3.27219e-05 0.000132216 -1.22346e-14)
(5.71992e-05 0.00016496 -1.4213e-14)
(0.000146128 0.000197261 -1.53642e-14)
(0.00022876 0.000140006 -2.14802e-15)
(3.7587e-05 0.000126959 2.87537e-15)
(6.34016e-05 0.000152103 3.18505e-15)
(0.000139078 0.000174295 3.17366e-15)
(0.000204533 0.000121225 9.70938e-15)
(4.02625e-05 0.000118034 2.95563e-15)
(6.6453e-05 0.000139964 1.41168e-15)
(0.000130871 0.000153423 -4.31632e-16)
(0.000182719 0.000104758 1.29272e-15)
(2.66907e-05 9.69613e-05 -1.97106e-14)
(4.36841e-05 0.000110644 -1.939e-14)
(6.91864e-05 0.000127374 -6.15381e-15)
(0.000121734 0.000134421 -4.92822e-15)
(0.000163037 9.16244e-05 -9.69943e-15)
(3.05699e-05 9.19166e-05 5.06132e-16)
(4.52984e-05 0.000103723 7.17234e-15)
(6.82477e-05 0.000114573 3.0513e-15)
(0.000112604 0.000117515 9.99545e-15)
(0.000145444 7.98768e-05 8.0283e-15)
(3.14338e-05 8.53848e-05 1.21923e-14)
(4.58455e-05 9.41881e-05 -1.76861e-15)
(6.76787e-05 0.000102867 1.26578e-14)
(0.000103353 0.000102402 3.10569e-15)
(0.000129679 7.03182e-05 4.04375e-15)
(3.33867e-05 7.78415e-05 -2.57712e-15)
(4.58106e-05 8.5675e-05 8.36223e-15)
(6.48899e-05 9.16582e-05 -1.09724e-14)
(9.4487e-05 8.90707e-05 -9.65525e-15)
(0.000115706 6.16889e-05 -1.02543e-14)
(3.3229e-05 7.12084e-05 -6.76983e-15)
(4.53669e-05 7.71589e-05 -9.61822e-15)
(6.26669e-05 8.1289e-05 6.82876e-15)
(8.59065e-05 7.74306e-05 3.87749e-16)
(0.000103321 5.46231e-05 -8.13562e-15)
(3.41944e-05 6.46086e-05 5.88265e-15)
(4.428e-05 6.93015e-05 1.06238e-14)
(5.87731e-05 7.17173e-05 -5.77742e-15)
(7.80421e-05 6.7229e-05 -1.18707e-14)
(9.23671e-05 4.8189e-05 1.84196e-15)
(3.30646e-05 5.84558e-05 4.73084e-15)
(4.28488e-05 6.17564e-05 8.08518e-15)
(5.58047e-05 6.3033e-05 2.49888e-15)
(7.06289e-05 5.84828e-05 1.35839e-14)
(8.27072e-05 4.27588e-05 1.12742e-14)
(3.2972e-05 5.20674e-05 -2.57362e-15)
(4.1057e-05 5.50897e-05 3.51219e-16)
(5.15247e-05 5.52101e-05 3.74446e-15)
(6.40223e-05 5.08407e-05 2.61117e-16)
(7.41344e-05 3.77934e-05 -9.84273e-17)
(3.14972e-05 4.63957e-05 -2.10062e-15)
(3.9086e-05 4.80918e-05 -1.30008e-14)
(4.83501e-05 4.84288e-05 -1.04392e-14)
(5.78447e-05 4.43275e-05 -6.33854e-15)
(6.65569e-05 3.35462e-05 -1.92004e-15)
(3.08607e-05 4.08183e-05 -5.32641e-15)
(3.71937e-05 4.28998e-05 -6.09507e-16)
(4.45065e-05 4.23152e-05 7.86438e-15)
(5.23345e-05 3.86639e-05 2.50869e-15)
(5.97694e-05 2.96685e-05 -6.70946e-15)
(2.95654e-05 3.6929e-05 1.45767e-14)
(3.53483e-05 3.76529e-05 8.57749e-15)
(4.12972e-05 3.70971e-05 -5.60731e-15)
(4.72437e-05 3.3789e-05 -9.32805e-16)
(5.3725e-05 2.62949e-05 5.34828e-15)
(2.85767e-05 3.25985e-05 3.09162e-15)
(3.29609e-05 3.34187e-05 -5.72142e-15)
(3.78209e-05 3.23696e-05 -6.92783e-15)
(4.26471e-05 2.9467e-05 -7.29553e-16)
(4.82825e-05 2.31966e-05 1.5437e-15)
(2.29123e-05 2.82483e-05 -3.78299e-15)
(2.70563e-05 2.91421e-05 2.57788e-16)
(3.10096e-05 2.92621e-05 1.66666e-15)
(3.47183e-05 2.82078e-05 -3.90784e-15)
(3.84251e-05 2.56878e-05 -2.75817e-15)
(4.34268e-05 2.04535e-05 -1.06555e-15)
(2.22776e-05 2.51646e-05 -5.49418e-15)
(2.57401e-05 2.58672e-05 -4.78836e-16)
(2.83153e-05 2.5516e-05 -2.67707e-15)
(3.15272e-05 2.44474e-05 1.37369e-15)
(3.45976e-05 2.22849e-05 7.6565e-15)
(3.90194e-05 1.79088e-05 -1.86015e-16)
(2.09774e-05 2.21056e-05 -4.31255e-15)
(2.3599e-05 2.23352e-05 -8.37713e-16)
(2.62546e-05 2.20093e-05 -4.39827e-15)
(2.87812e-05 2.10859e-05 6.74981e-15)
(3.1096e-05 1.92793e-05 -9.32133e-16)
(3.50976e-05 1.5649e-05 -2.95277e-15)
(1.98319e-05 1.89657e-05 3.83213e-15)
(2.22118e-05 1.92278e-05 3.20939e-15)
(2.38892e-05 1.89418e-05 5.00286e-15)
(2.60264e-05 1.80647e-05 -3.17272e-16)
(2.79684e-05 1.65962e-05 -2.1292e-15)
(3.15339e-05 1.35789e-05 6.37837e-15)
(1.84209e-05 1.62353e-05 -3.49107e-15)
(2.02958e-05 1.62669e-05 -2.69839e-15)
(2.2028e-05 1.60666e-05 -2.41897e-15)
(2.37116e-05 1.53962e-05 -2.57373e-15)
(2.51484e-05 1.42506e-05 7.96884e-15)
(2.83889e-05 1.17404e-05 -1.18818e-16)
(1.71932e-05 1.3737e-05 -1.36028e-15)
(1.90391e-05 1.38032e-05 6.04805e-16)
(2.00705e-05 1.36282e-05 -3.90072e-15)
(2.14467e-05 1.30372e-05 1.5523e-15)
(2.26352e-05 1.21558e-05 -1.03103e-15)
(2.55122e-05 1.00789e-05 -5.31548e-15)
(1.59158e-05 1.18056e-05 2.53372e-15)
(1.73238e-05 1.16189e-05 -1.2175e-15)
(1.8412e-05 1.13607e-05 1.44275e-15)
(1.95169e-05 1.09324e-05 4.04522e-16)
(2.03568e-05 1.02929e-05 -7.24601e-16)
(2.2983e-05 8.59768e-06 2.24739e-15)
(1.45208e-05 9.99476e-06 5.40623e-15)
(1.59471e-05 9.68676e-06 7.24429e-15)
(1.66985e-05 9.41759e-06 1.71374e-16)
(1.76664e-05 9.02875e-06 -1.12138e-15)
(1.83511e-05 8.62187e-06 -3.94145e-15)
(2.06447e-05 7.25219e-06 -1.80425e-15)
(1.31268e-05 8.1542e-06 -1.00208e-15)
(1.42432e-05 7.8707e-06 -1.03941e-15)
(1.52284e-05 7.66936e-06 -2.22144e-16)
(1.61172e-05 7.4288e-06 5.71448e-16)
(1.65765e-05 7.1482e-06 3.77168e-15)
(1.86586e-05 6.05753e-06 3.55413e-15)
(1.07982e-05 6.73514e-06 5.26516e-16)
(1.20563e-05 6.50531e-06 2.38456e-15)
(1.29697e-05 6.55386e-06 2.19321e-15)
(1.3989e-05 6.34091e-06 -1.95193e-15)
(1.46525e-05 6.05442e-06 -1.52072e-15)
(1.49896e-05 5.87028e-06 -6.27479e-16)
(1.68015e-05 4.93738e-06 -2.4976e-15)
(9.99357e-06 5.36787e-06 -1.97571e-15)
(1.10958e-05 5.55987e-06 -7.87574e-17)
(1.18346e-05 5.4255e-06 5.91053e-16)
(1.26518e-05 5.15075e-06 -3.25816e-15)
(1.32581e-05 4.88449e-06 -7.85792e-16)
(1.3516e-05 4.68973e-06 1.4312e-15)
(1.51878e-05 3.87548e-06 -6.14607e-16)
(9.34503e-06 4.34811e-06 5.98303e-17)
(1.02076e-05 4.33649e-06 1.78204e-16)
(1.06075e-05 4.34519e-06 -4.706e-15)
(1.14288e-05 4.08357e-06 3.58631e-15)
(1.193e-05 3.79957e-06 1.30019e-15)
(1.21169e-05 3.62774e-06 -2.44774e-15)
(1.36692e-05 2.88428e-06 3.8855e-15)
(8.57494e-06 3.22359e-06 3.17933e-15)
(9.31276e-06 3.21585e-06 1.56859e-15)
(9.6525e-06 3.27929e-06 6.76211e-16)
(1.01851e-05 3.06486e-06 -1.42896e-15)
(1.06173e-05 2.81759e-06 -5.36106e-15)
(1.08394e-05 2.70973e-06 3.45827e-15)
(1.23364e-05 2.0181e-06 -5.07551e-16)
(7.95939e-06 2.2127e-06 1.04154e-15)
(8.54299e-06 2.23675e-06 2.15007e-16)
(8.59159e-06 2.31565e-06 -1.23473e-15)
(9.09895e-06 2.16148e-06 -4.72936e-16)
(9.5042e-06 2.03528e-06 -2.66622e-16)
(9.69648e-06 1.99359e-06 2.48603e-16)
(1.1081e-05 1.32651e-06 1.27757e-16)
(7.29412e-06 1.42348e-06 -1.36055e-16)
(7.76465e-06 1.34799e-06 1.11421e-15)
(7.81842e-06 1.49523e-06 1.06161e-15)
(8.17336e-06 1.44437e-06 7.57904e-16)
(8.50375e-06 1.38005e-06 -1.23198e-16)
(8.62631e-06 1.38047e-06 1.49561e-15)
(9.92005e-06 7.67679e-07 6.59433e-16)
(6.68399e-06 6.89489e-07 -2.1908e-15)
(7.08776e-06 6.39578e-07 -2.93154e-16)
(7.06886e-06 7.58112e-07 1.86393e-15)
(7.3563e-06 7.35861e-07 -9.87142e-16)
(7.56896e-06 7.24209e-07 -4.8521e-15)
(7.66461e-06 8.00839e-07 -5.82513e-17)
(8.84396e-06 2.02701e-07 7.55438e-16)
(5.81525e-06 5.64027e-08 -9.42035e-16)
(6.42616e-06 -1.55851e-07 -8.33255e-16)
(6.16789e-06 6.01584e-08 -3.75411e-16)
(6.42803e-06 -3.13975e-09 4.39312e-16)
(6.57001e-06 4.43934e-08 -1.8949e-15)
(6.75532e-06 6.1986e-08 -6.34763e-16)
(6.76384e-06 1.96857e-07 2.87667e-16)
(7.83432e-06 -3.78567e-07 -1.68532e-16)
(5.33022e-06 -5.69063e-07 5.58485e-16)
(5.73184e-06 -7.51797e-07 1.88145e-15)
(5.57709e-06 -5.94262e-07 1.15292e-15)
(5.78418e-06 -6.46792e-07 -2.97256e-15)
(5.90269e-06 -5.81858e-07 -1.58566e-15)
(5.99506e-06 -5.2475e-07 1.09784e-15)
(5.96886e-06 -3.5785e-07 4.98016e-16)
(6.97927e-06 -8.69437e-07 -2.80243e-16)
(4.7941e-06 -1.11049e-06 1.22322e-15)
(5.17147e-06 -1.28649e-06 3.12108e-16)
(5.05127e-06 -1.13957e-06 -1.59628e-15)
(5.22078e-06 -1.17547e-06 1.13549e-15)
(5.28851e-06 -1.10079e-06 1.2303e-15)
(5.34644e-06 -1.02273e-06 -1.01587e-15)
(5.29428e-06 -8.0064e-07 -1.08835e-15)
(6.1906e-06 -1.30867e-06 -1.43835e-16)
(4.35264e-06 -1.55796e-06 -2.14937e-16)
(4.7693e-06 -1.81722e-06 6.00617e-16)
(4.557e-06 -1.56592e-06 -7.16253e-16)
(4.7253e-06 -1.62177e-06 2.27603e-15)
(4.75914e-06 -1.53134e-06 -1.97669e-15)
(4.77767e-06 -1.42078e-06 -2.48296e-15)
(4.68195e-06 -1.18856e-06 3.28717e-15)
(5.47486e-06 -1.69133e-06 3.49249e-16)
(3.91253e-06 -1.88362e-06 -9.87368e-16)
(4.35326e-06 -2.17091e-06 -9.28741e-16)
(4.18121e-06 -1.91369e-06 -1.95349e-16)
(4.28131e-06 -1.97486e-06 2.23539e-16)
(4.3023e-06 -1.87312e-06 8.72031e-16)
(4.27023e-06 -1.76619e-06 7.91897e-16)
(4.12049e-06 -1.52464e-06 -3.25116e-16)
(4.82066e-06 -2.02102e-06 -7.14602e-16)
(3.55808e-06 -2.08035e-06 1.0448e-15)
(3.96885e-06 -2.3596e-06 -1.16525e-15)
(3.77519e-06 -2.13071e-06 1.08293e-15)
(3.89901e-06 -2.19354e-06 1.72153e-15)
(3.87386e-06 -2.11737e-06 -1.06538e-15)
(3.77445e-06 -2.02205e-06 1.44384e-16)
(3.62491e-06 -1.7565e-06 1.42405e-15)
(4.24801e-06 -2.2673e-06 -1.7277e-16)
(3.43029e-06 -2.39908e-06 -1.03062e-15)
(3.77557e-06 -2.6838e-06 1.05954e-16)
(3.67143e-06 -2.53551e-06 3.59378e-16)
(3.72754e-06 -2.62674e-06 -1.86539e-15)
(3.6574e-06 -2.58432e-06 7.74854e-16)
(3.58241e-06 -2.48552e-06 1.69242e-15)
(3.40673e-06 -2.22596e-06 -1.04776e-15)
(3.95406e-06 -2.77361e-06 -5.94057e-16)
(2.89236e-06 -2.24344e-06 5.56532e-16)
(3.51385e-06 -2.82905e-06 3.61939e-16)
(3.23592e-06 -2.46332e-06 6.44852e-16)
(3.37166e-06 -2.67492e-06 -1.10247e-15)
(3.37325e-06 -2.71575e-06 5.20717e-16)
(3.33305e-06 -2.67773e-06 1.10022e-15)
(3.22787e-06 -2.57132e-06 -2.15658e-15)
(3.05084e-06 -2.28739e-06 -3.79953e-16)
(3.57634e-06 -2.77641e-06 1.79404e-15)
(2.65828e-06 -2.37007e-06 1.33329e-16)
(3.09146e-06 -2.82916e-06 -1.08541e-16)
(2.90885e-06 -2.59657e-06 6.60718e-16)
(3.01927e-06 -2.77121e-06 8.97321e-16)
(3.03631e-06 -2.79683e-06 -9.21429e-16)
(2.98814e-06 -2.74748e-06 -8.56234e-16)
(2.90341e-06 -2.63345e-06 4.83302e-16)
(2.73886e-06 -2.3183e-06 1.54899e-15)
(3.19774e-06 -2.82578e-06 -2.14009e-15)
(2.36635e-06 -2.4348e-06 -2.57381e-16)
(2.77584e-06 -2.92588e-06 -4.27574e-16)
(2.58317e-06 -2.66211e-06 -1.51644e-15)
(2.69389e-06 -2.82236e-06 -5.20018e-16)
(2.70791e-06 -2.83754e-06 1.58967e-16)
(2.67181e-06 -2.78628e-06 2.31975e-16)
(2.58807e-06 -2.65635e-06 -2.94385e-16)
(2.40892e-06 -2.35717e-06 9.66353e-16)
(2.82816e-06 -2.86705e-06 2.32829e-15)
(2.09767e-06 -2.5215e-06 8.99017e-16)
(2.488e-06 -3.03449e-06 -1.22803e-15)
(2.31823e-06 -2.76431e-06 9.97366e-17)
(2.4148e-06 -2.92584e-06 2.44987e-15)
(2.42439e-06 -2.94442e-06 -1.23353e-15)
(2.38282e-06 -2.89006e-06 3.07786e-16)
(2.28663e-06 -2.7673e-06 -6.31067e-16)
(2.10343e-06 -2.45868e-06 1.52892e-16)
(2.4925e-06 -2.99524e-06 7.00625e-16)
(1.82122e-06 -2.491e-06 -4.90303e-17)
(2.197e-06 -3.00978e-06 7.01153e-16)
(2.03574e-06 -2.72062e-06 4.34102e-16)
(2.1342e-06 -2.8804e-06 -1.78031e-15)
(2.1483e-06 -2.90013e-06 1.29112e-15)
(2.10349e-06 -2.84908e-06 1.91719e-15)
(2.00907e-06 -2.7238e-06 -3.08801e-15)
(1.82699e-06 -2.41459e-06 -4.89175e-16)
(2.15244e-06 -2.93226e-06 1.14769e-15)
(1.62479e-06 -2.61689e-06 2.36392e-16)
(1.98429e-06 -3.14623e-06 3.93661e-16)
(1.85026e-06 -2.86344e-06 -2.84333e-16)
(1.93488e-06 -3.03194e-06 -7.30807e-16)
(1.94388e-06 -3.06501e-06 6.82162e-16)
(1.90053e-06 -3.01926e-06 1.19009e-15)
(1.80378e-06 -2.89007e-06 -1.70867e-16)
(1.62495e-06 -2.56824e-06 -1.14181e-15)
(1.95479e-06 -3.13342e-06 4.61163e-16)
(1.35916e-06 -2.34563e-06 -5.18665e-16)
(1.76192e-06 -2.98567e-06 -1.91224e-16)
(1.56368e-06 -2.51182e-06 6.00482e-16)
(1.66422e-06 -2.67255e-06 8.63586e-16)
(1.68111e-06 -2.69427e-06 -6.3652e-18)
(1.65079e-06 -2.65115e-06 -3.38285e-17)
(1.57097e-06 -2.53015e-06 -3.78393e-16)
(1.3961e-06 -2.2177e-06 7.09031e-17)
(1.62025e-06 -2.69102e-06 -1.08984e-16)
(1.35103e-06 -2.67726e-06 2.78221e-16)
(1.78535e-06 -3.42927e-06 2.64159e-16)
(1.57283e-06 -2.9279e-06 6.16555e-16)
(1.62554e-06 -3.11857e-06 -1.0805e-16)
(1.62894e-06 -3.16363e-06 -5.41506e-16)
(1.59278e-06 -3.12866e-06 1.17606e-16)
(1.50936e-06 -2.9963e-06 -3.56973e-16)
(1.35527e-06 -2.66085e-06 -5.41409e-16)
(1.72591e-06 -3.31439e-06 8.3026e-16)
(9.31194e-07 -1.73242e-06 -1.2145e-15)
(1.32215e-06 -2.37706e-06 -6.1959e-16)
(1.1374e-06 -1.88148e-06 2.60066e-16)
(1.21271e-06 -2.03031e-06 4.19378e-16)
(1.24051e-06 -2.05827e-06 1.67546e-15)
(1.23728e-06 -2.0331e-06 -4.30984e-16)
(1.1879e-06 -1.935e-06 -1.90539e-15)
(1.0249e-06 -1.65024e-06 4.09596e-17)
(1.12194e-06 -2.04092e-06 1.22758e-15)
(1.19379e-06 -2.7006e-06 -1.68436e-16)
(1.68215e-06 -3.97899e-06 -3.89388e-16)
(1.39456e-06 -3.10218e-06 1.08126e-16)
(1.44086e-06 -3.37322e-06 -6.009e-16)
(1.48081e-06 -3.4966e-06 8.88679e-17)
(1.49052e-06 -3.57795e-06 3.67251e-16)
(1.46258e-06 -3.5394e-06 -1.35323e-15)
(1.39453e-06 -3.38867e-06 6.9361e-16)
(1.27879e-06 -3.02207e-06 1.16817e-15)
(1.80911e-06 -3.91879e-06 1.09961e-16)
(4.69606e-07 -5.4014e-07 2.8266e-16)
(6.38575e-07 -1.10646e-06 -1.23916e-16)
(5.66938e-07 -4.8865e-07 -6.96396e-17)
(5.96226e-07 -6.3092e-07 1.54063e-16)
(6.45499e-07 -6.49902e-07 4.99827e-16)
(6.85954e-07 -6.81554e-07 9.74472e-18)
(6.99434e-07 -6.69641e-07 -7.42981e-17)
(6.8012e-07 -6.20243e-07 3.37761e-16)
(5.23463e-07 -4.16282e-07 6.09315e-17)
(3.72281e-07 -5.34443e-07 -5.45584e-16)
(1.78279e-06 -3.84221e-06 1.43328e-17)
(2.23574e-06 -5.44597e-06 3.06171e-16)
(1.882e-06 -4.37777e-06 5.722e-16)
(1.9899e-06 -4.69174e-06 -1.43792e-15)
(2.08275e-06 -4.83549e-06 2.64103e-16)
(2.08548e-06 -4.92016e-06 2.4895e-15)
(2.04309e-06 -4.8444e-06 -2.66429e-15)
(1.97221e-06 -4.62969e-06 -7.81184e-16)
(1.85928e-06 -4.1042e-06 1.89211e-15)
(2.78877e-06 -5.32941e-06 -7.5066e-16)
(-0.0313989 -0.0242163 -5.9855e-14)
(0.0295876 -0.0326167 -1.63528e-14)
(0.0460159 -0.018569 2.71975e-14)
(0.0325422 -0.0120824 -1.54301e-14)
(0.0246225 -0.00880349 2.45542e-14)
(0.0210662 -0.00669051 -7.78913e-15)
(0.0179882 -0.00498539 -5.74836e-15)
(0.0154253 -0.003566 -1.74023e-14)
(0.0121841 -0.00171893 1.24333e-14)
(0.00244713 -0.000960636 1.77244e-14)
(0.00253955 -0.00119856 -7.50253e-15)
(0.00274982 -0.000754616 -1.68106e-14)
(0.00229741 -0.00035681 1.74985e-14)
(0.00203511 -0.000186005 -1.71644e-14)
(0.00174524 -6.99151e-05 1.55459e-14)
(0.00148203 2.17935e-06 -3.357e-15)
(0.00126274 5.15886e-05 1.46489e-15)
(0.00107161 8.46261e-05 -5.20685e-15)
(0.000910503 0.000103589 -6.52643e-15)
(0.000772824 0.000114058 1.51607e-15)
(0.000657584 0.000117029 3.74335e-15)
(0.000559241 0.000115829 -3.62686e-16)
(0.000477637 0.000110849 1.15455e-15)
(0.00040797 0.000104421 -1.26761e-15)
(0.00035143 9.72733e-05 3.45634e-15)
(0.000304846 9.10956e-05 -3.87027e-15)
(0.000267512 8.57274e-05 1.64572e-15)
(0.000234868 8.05293e-05 -3.60121e-15)
(0.000207823 7.53794e-05 4.44571e-15)
(0.000183888 7.01994e-05 -7.23775e-15)
(0.000163993 6.54401e-05 1.3958e-14)
(0.000146097 6.05393e-05 -6.1399e-15)
(0.000131142 5.62502e-05 1.98209e-15)
(0.00011751 5.18123e-05 6.70162e-16)
(0.000106014 4.79639e-05 4.12656e-15)
(9.54368e-05 4.40544e-05 -2.09368e-15)
(8.64621e-05 4.06423e-05 -6.21603e-15)
(7.81491e-05 3.72595e-05 3.91953e-15)
(7.10041e-05 3.41385e-05 -2.62758e-16)
(6.43684e-05 3.11323e-05 7.41972e-16)
(5.86201e-05 2.82638e-05 3.82653e-15)
(5.32692e-05 2.55888e-05 3.04653e-15)
(4.85827e-05 2.3014e-05 -6.0742e-15)
(4.42018e-05 2.06585e-05 5.3678e-15)
(4.03508e-05 1.83903e-05 4.82795e-16)
(3.67424e-05 1.63207e-05 -7.41936e-15)
(3.35659e-05 1.43345e-05 4.18194e-15)
(3.05792e-05 1.25295e-05 -1.28081e-15)
(2.79457e-05 1.08176e-05 9.43571e-16)
(2.54773e-05 9.27299e-06 -1.81598e-15)
(2.32918e-05 7.8354e-06 -3.48371e-15)
(2.12283e-05 6.5198e-06 2.41662e-15)
(1.93814e-05 5.35452e-06 4.72593e-17)
(1.76759e-05 4.28599e-06 2.57527e-15)
(1.61453e-05 3.2666e-06 -3.94601e-15)
(1.47644e-05 2.27417e-06 -2.18957e-15)
(1.35371e-05 1.28021e-06 1.6062e-15)
(1.24237e-05 3.90099e-07 -5.17209e-15)
(1.13856e-05 -3.83936e-07 -1.25227e-15)
(1.03916e-05 -1.00928e-06 -3.37046e-15)
(9.41303e-06 -1.61738e-06 1.7098e-15)
(8.54715e-06 -2.20773e-06 -1.62625e-15)
(7.74682e-06 -2.75229e-06 3.2623e-15)
(7.00907e-06 -3.23479e-06 5.53061e-16)
(6.31934e-06 -3.68144e-06 1.46338e-15)
(5.68547e-06 -4.07695e-06 -1.41038e-15)
(5.10433e-06 -4.35616e-06 1.71676e-15)
(4.70991e-06 -4.7452e-06 1.41921e-15)
(4.35823e-06 -4.85935e-06 -2.03761e-15)
(4.05159e-06 -5.06976e-06 1.60394e-15)
(3.70885e-06 -5.23546e-06 -2.49081e-15)
(3.44227e-06 -5.55442e-06 -4.35052e-15)
(3.04922e-06 -5.51697e-06 1.72324e-16)
(2.98574e-06 -6.03942e-06 -6.58531e-16)
(2.44457e-06 -5.34602e-06 -9.67812e-16)
(2.99316e-06 -6.8077e-06 8.71822e-16)
(1.76246e-06 -4.55004e-06 -1.15722e-15)
(3.57959e-06 -8.54826e-06 -3.82753e-16)
(4.97976e-07 -2.1532e-06 -2.52903e-16)
(5.9421e-06 -1.18289e-05 4.68644e-16)
(0.0801549 -0.00845069 1.85671e-14)
(-0.0396547 0.00473227 4.29827e-15)
(-0.00576598 -0.000930291 -5.81726e-15)
(-0.00324611 -0.00232885 2.64536e-15)
(-0.000901337 -0.00296546 -4.28617e-15)
(0.000283024 -0.0032311 1.07023e-15)
(0.0010051 -0.00333102 6.66803e-16)
(0.00172363 -0.00326469 3.01818e-15)
(0.00162335 -0.00323338 -1.79372e-15)
(0.00193685 -0.00322571 -2.38985e-15)
(0.00181385 -0.00253524 1.42497e-15)
(0.00117757 -0.00217279 2.92402e-15)
(0.00122062 -0.00183331 -2.81044e-15)
(0.00123449 -0.00153863 3.13543e-15)
(0.00113469 -0.00127765 -3.00041e-15)
(0.0010168 -0.00105871 8.08131e-16)
(0.000937343 -0.000866368 -3.12422e-16)
(0.000849015 -0.000694797 7.06931e-16)
(0.000768623 -0.000546814 1.09029e-15)
(0.000693371 -0.000420989 -1.60439e-16)
(0.000622914 -0.000315749 -1.63505e-16)
(0.000557469 -0.000229169 -2.63891e-16)
(0.000497077 -0.000158998 1.53503e-16)
(0.000442295 -0.000102764 -1.58853e-16)
(0.000391426 -5.87241e-05 -7.62525e-17)
(0.000343623 -2.49251e-05 1.90965e-16)
(0.000299843 -2.69171e-07 -1.72551e-16)
(0.000262346 1.74952e-05 6.52205e-16)
(0.000229509 2.95881e-05 -3.25021e-16)
(0.000201528 3.73949e-05 1.44924e-15)
(0.000176972 4.19292e-05 -1.87732e-15)
(0.000156111 4.4021e-05 7.71584e-16)
(0.000137777 4.44828e-05 -3.52693e-16)
(0.000122146 4.35742e-05 3.26106e-16)
(0.000108405 4.20388e-05 -1.40606e-15)
(9.65804e-05 3.98506e-05 1.571e-16)
(8.61736e-05 3.745e-05 1.34701e-15)
(7.70818e-05 3.48272e-05 -4.78542e-17)
(6.90837e-05 3.21986e-05 1.88528e-16)
(6.20045e-05 2.9544e-05 -1.17532e-15)
(5.57849e-05 2.69444e-05 -1.72213e-16)
(5.02246e-05 2.44457e-05 7.30223e-16)
(4.532e-05 2.20188e-05 6.85835e-16)
(4.08936e-05 1.97306e-05 -1.53321e-15)
(3.69854e-05 1.75267e-05 2.46048e-16)
(3.34438e-05 1.54808e-05 1.61506e-15)
(3.03078e-05 1.35237e-05 -1.32355e-15)
(2.7448e-05 1.17229e-05 9.19118e-16)
(2.49176e-05 1.00433e-05 -7.35867e-16)
(2.25946e-05 8.49765e-06 -1.78361e-16)
(2.05435e-05 7.06466e-06 1.20736e-15)
(1.86204e-05 5.75921e-06 -2.58737e-15)
(1.69332e-05 4.59907e-06 -2.34138e-16)
(1.52873e-05 3.58501e-06 -5.25143e-16)
(1.38759e-05 2.61568e-06 2.1104e-15)
(1.2524e-05 1.71633e-06 7.36538e-16)
(1.1417e-05 8.08449e-07 -1.58835e-16)
(1.04104e-05 -3.60667e-08 1.24681e-15)
(9.54581e-06 -7.97519e-07 1.28944e-16)
(8.72491e-06 -1.45154e-06 3.66486e-16)
(7.90423e-06 -2.02914e-06 1.84651e-15)
(7.16058e-06 -2.58185e-06 2.80623e-16)
(6.47988e-06 -3.0754e-06 -2.69332e-15)
(5.87283e-06 -3.53659e-06 -5.02223e-16)
(5.30338e-06 -3.94646e-06 2.91821e-15)
(4.78799e-06 -4.30993e-06 -8.10185e-16)
(4.32037e-06 -4.57226e-06 -2.49369e-16)
(4.01427e-06 -4.83913e-06 -2.46515e-16)
(3.71969e-06 -4.98391e-06 2.31233e-16)
(3.47081e-06 -5.20128e-06 2.39671e-15)
(3.17227e-06 -5.34777e-06 1.01819e-15)
(2.96111e-06 -5.65458e-06 3.80053e-16)
(2.65723e-06 -5.60569e-06 -6.66464e-16)
(2.57977e-06 -6.08472e-06 8.45621e-16)
(2.18776e-06 -5.44304e-06 6.25761e-16)
(2.56821e-06 -6.77282e-06 -3.25606e-17)
(1.73912e-06 -4.75647e-06 -1.99364e-16)
(2.96154e-06 -8.30093e-06 -3.0971e-16)
(8.89593e-07 -2.70327e-06 4.28183e-16)
(-0.00256317 -0.000373675 2.6736e-16)
(-0.00530669 -0.000519903 4.79928e-17)
(-0.00110127 -0.000687203 -2.31155e-16)
(-0.000301742 -0.000561812 9.14368e-17)
(0.000280153 -0.000490907 2.52571e-16)
(0.000559064 -0.000465085 7.88157e-18)
(0.00061759 -0.000477449 1.78423e-17)
(0.000610889 -0.000503511 7.57271e-17)
(0.000422332 -0.000517701 3.72626e-16)
(0.00016765 -0.000452716 3.44084e-16)
(4.14118e-05 -0.000403465 -2.29338e-16)
(-0.000277215 -0.000440556 3.95242e-16)
(-0.000244889 -0.000472521 4.3581e-17)
(-2.94999e-05 -0.000488316 -2.66672e-18)
(3.86731e-05 -0.00047259 -3.06273e-16)
(5.20574e-05 -0.00046275 2.45184e-16)
(0.000149166 -0.0004612 3.26761e-16)
(0.00018049 -0.000438657 -1.40851e-16)
(0.000210955 -0.000409067 -4.8446e-16)
(0.000231411 -0.000374804 3.20426e-17)
(0.000244015 -0.00033763 -8.82353e-18)
(0.000249176 -0.000299841 1.69089e-17)
(0.000248851 -0.000261904 -1.44315e-16)
(0.000243765 -0.000225331 3.12985e-16)
(0.000236014 -0.000190187 -1.67373e-16)
(0.000226629 -0.000156901 -8.38961e-17)
(0.000215677 -0.000126478 -1.88951e-16)
(0.000202745 -9.96816e-05 4.96094e-17)
(0.000188868 -7.63774e-05 -6.68507e-18)
(0.000174507 -5.65226e-05 -4.74078e-17)
(0.000160273 -3.98928e-05 2.86979e-17)
(0.000146462 -2.63096e-05 -9.27403e-17)
(0.000133333 -1.53576e-05 2.64651e-16)
(0.00012106 -6.79613e-06 -2.3526e-18)
(0.000109688 -2.00613e-07 -1.8276e-16)
(9.92747e-05 4.68045e-06 -1.1769e-16)
(8.97769e-05 8.26924e-06 7.08655e-17)
(8.11768e-05 1.07021e-05 1.59881e-16)
(7.33974e-05 1.22737e-05 -2.91942e-17)
(6.63924e-05 1.31346e-05 -3.12307e-16)
(6.0086e-05 1.3461e-05 2.8751e-16)
(5.44091e-05 1.33786e-05 -1.438e-15)
(4.92844e-05 1.29708e-05 5.8626e-17)
(4.46669e-05 1.23534e-05 -5.82178e-16)
(4.0491e-05 1.155e-05 -1.93676e-17)
(3.67332e-05 1.0645e-05 9.48458e-16)
(3.33233e-05 9.66246e-06 1.00415e-15)
(3.02498e-05 8.66237e-06 1.86108e-16)
(2.74545e-05 7.63915e-06 -2.23622e-16)
(2.49341e-05 6.64242e-06 -8.72742e-17)
(2.26457e-05 5.65365e-06 -4.91664e-16)
(2.05638e-05 4.70765e-06 -2.50375e-17)
(1.86478e-05 3.82075e-06 -5.10703e-16)
(1.68687e-05 3.0072e-06 9.64037e-16)
(1.51903e-05 2.271e-06 4.67891e-16)
(1.36826e-05 1.55301e-06 1.00894e-15)
(1.23045e-05 8.81843e-07 -2.40978e-16)
(1.11375e-05 2.04232e-07 3.02525e-16)
(1.01099e-05 -4.29572e-07 1.00363e-16)
(9.18116e-06 -1.04549e-06 1.61422e-16)
(8.30578e-06 -1.62087e-06 -2.57149e-15)
(7.48917e-06 -2.13648e-06 1.16242e-15)
(6.75016e-06 -2.61568e-06 5.652e-16)
(6.0707e-06 -3.06473e-06 1.09684e-15)
(5.46038e-06 -3.48947e-06 -1.54285e-15)
(4.92257e-06 -3.86499e-06 -2.74719e-17)
(4.42137e-06 -4.14215e-06 -2.07298e-16)
(4.08146e-06 -4.47491e-06 -9.75129e-17)
(3.75809e-06 -4.59237e-06 8.45977e-19)
(3.44021e-06 -4.80115e-06 -3.06957e-15)
(3.12689e-06 -4.95217e-06 -2.58209e-15)
(2.88134e-06 -5.268e-06 2.59795e-16)
(2.58944e-06 -5.24097e-06 1.52524e-15)
(2.43435e-06 -5.73111e-06 -1.81494e-16)
(2.13682e-06 -5.07169e-06 7.56055e-16)
(2.3443e-06 -6.36645e-06 -1.61787e-15)
(1.82359e-06 -4.36689e-06 5.72196e-16)
(2.58965e-06 -7.74902e-06 6.99703e-17)
(0.00132698 -0.000727859 -4.87474e-17)
(-0.00185125 -0.000386176 -4.75132e-18)
(-0.000793823 -0.000468297 1.55645e-16)
(-0.000448685 -0.000437666 1.1704e-16)
(-1.42897e-05 -0.000412072 -6.23436e-18)
(0.000309513 -0.000377441 -1.98076e-17)
(0.000505864 -0.00034946 7.60049e-18)
(0.00062871 -0.000333588 -1.06601e-17)
(0.000638838 -0.000333541 -8.30822e-17)
(0.000435889 -0.000351878 -1.7966e-16)
(0.000393437 -0.000321469 1.86237e-16)
(0.000198364 -0.000300323 -4.41263e-17)
(3.00843e-05 -0.000300144 -2.84223e-16)
(7.40378e-06 -0.000294361 5.19768e-17)
(7.25243e-05 -0.000209601 -2.05551e-17)
(7.41517e-05 -0.000250163 3.56642e-16)
(0.000109725 -0.000262012 1.20075e-16)
(0.000106602 -0.000256763 -1.57345e-16)
(0.000116289 -0.000248732 -1.78582e-16)
(0.000125987 -0.000236723 -3.55709e-18)
(0.000135559 -0.000222305 -1.5311e-16)
(0.000143306 -0.000206809 2.3059e-16)
(0.000149172 -0.000189984 -1.1188e-17)
(0.000152869 -0.000172846 3.22186e-16)
(0.000154555 -0.000155402 -3.28741e-16)
(0.000153971 -0.000138184 -3.71722e-17)
(0.000151669 -0.000121019 7.9625e-17)
(0.000147863 -0.000104385 -1.22481e-16)
(0.0001429 -8.84237e-05 4.78996e-17)
(0.000136865 -7.36931e-05 -5.60972e-19)
(0.000130104 -6.01276e-05 4.06996e-17)
(0.000122761 -4.80264e-05 -2.36137e-18)
(0.00011513 -3.72624e-05 -6.52388e-17)
(0.000107341 -2.80237e-05 6.1879e-19)
(9.96105e-05 -2.00696e-05 -8.15771e-17)
(9.20323e-05 -1.34981e-05 2.90757e-16)
(8.4743e-05 -8.0755e-06 -2.51e-16)
(7.77864e-05 -3.76817e-06 -3.96129e-18)
(7.12411e-05 -3.79496e-07 2.02289e-16)
(6.51156e-05 2.16145e-06 7.64949e-16)
(5.94439e-05 4.01399e-06 2.64402e-16)
(5.42006e-05 5.28069e-06 1.63829e-15)
(4.93766e-05 6.05835e-06 -1.05087e-16)
(4.4944e-05 6.45795e-06 -2.2127e-16)
(4.0886e-05 6.53784e-06 -1.33117e-16)
(3.71843e-05 6.40156e-06 -1.75668e-16)
(3.38015e-05 6.0663e-06 -1.3142e-15)
(3.07203e-05 5.62144e-06 2.86954e-16)
(2.79027e-05 5.08125e-06 -2.6157e-16)
(2.53477e-05 4.48557e-06 -6.54292e-17)
(2.30141e-05 3.84171e-06 2.77089e-16)
(2.09014e-05 3.15957e-06 2.8215e-16)
(1.89483e-05 2.49941e-06 3.23186e-16)
(1.71425e-05 1.84075e-06 6.33928e-16)
(1.54547e-05 1.24733e-06 1.71193e-16)
(1.38842e-05 7.10048e-07 -9.73679e-16)
(1.24556e-05 1.90751e-07 2.0994e-16)