/*--------------------------------*- C++ -*----------------------------------*\
| =========                 |                                                 |
| \\      /  F ield         | OpenFOAM: The Open Source CFD Toolbox           |
|  \\    /   O peration     | Version:  2506                                  |
|   \\  /    A nd           | Website:  www.openfoam.com                      |
|    \\/     M anipulation  |                                                 |
\*---------------------------------------------------------------------------*/
FoamFile
{
    version     2.0;
    format      ascii;
    arch        "LSB;label=32;scalar=64";
    class       volScalarField;
    location    "350";
    object      p;
}
// * * * * * * * * * * * * * * * * * * * * * * * * * * * * * * * * * * * * * //

dimensions      [0 2 -2 0 0 0 0];

internalField   nonuniform List<scalar> 
1340
(
-90.0551
-51.5541
-6.91933
25.9963
-89.6874
-51.2652
-6.61497
25.6867
-89.2619
-50.9451
-6.36538
25.8089
-88.7817
-50.6461
-6.26605
26.015
-88.1826
-50.3551
-6.30807
26.0791
-87.5305
-50.0933
-6.52141
25.965
-86.9007
-49.9242
-6.94343
25.6466
-86.2536
-49.8292
-7.55811
25.0721
-85.5719
-49.7459
-8.27084
24.2223
-84.8599
-49.646
-9.02381
23.1468
-84.126
-49.5249
-9.82608
21.9114
-83.3789
-49.401
-10.6934
20.5426
-82.6179
-49.2956
-11.6265
19.046
-81.8398
-49.216
-12.6224
17.4362
-81.0431
-49.1575
-13.6787
15.7259
-80.2273
-49.117
-14.7885
13.9211
-79.3923
-49.0922
-15.9439
12.0285
-78.5364
-49.0821
-17.136
10.0589
-77.6587
-49.0851
-18.3558
8.02437
-76.7571
-49.0981
-19.5949
5.93799
-75.8294
-49.1169
-20.8437
3.81404
-74.8737
-49.1369
-22.092
1.66742
-73.8874
-49.1527
-23.3308
-0.487762
-72.8681
-49.1579
-24.5493
-2.63598
-71.8126
-49.1462
-25.737
-4.7623
-70.7193
-49.1098
-26.8835
-6.85148
-69.5846
-49.0419
-27.9797
-8.88827
-68.407
-48.9359
-29.0149
-10.8589
-67.1838
-48.7827
-29.9805
-12.7499
-65.9134
-48.577
-30.8667
-14.5489
-64.5948
-48.3117
-31.6663
-16.2451
-63.2278
-47.9814
-32.3717
-17.8288
-61.8115
-47.5813
-32.9767
-19.2908
-72.6935
-60.3478
-47.1071
-33.4757
-20.6246
-70.2439
-58.8378
-46.5571
-33.8655
-21.8244
-67.7871
-57.284
-45.9298
-34.1427
-22.8862
-65.3295
-55.6896
-45.2244
-34.3063
-23.8074
-62.8779
-54.0589
-44.4427
-34.3558
-24.5871
-60.4391
-52.3961
-43.5869
-34.2928
-25.2258
-58.0197
-50.7066
-42.6605
-34.1199
-25.7254
-55.6263
-48.9961
-41.6681
-33.8409
-26.0888
-53.2651
-47.2707
-40.6152
-33.4607
-26.3208
-50.942
-45.5365
-39.5079
-32.9855
-26.4268
-48.6623
-43.7998
-38.353
-32.4221
-26.4133
-46.4309
-42.0669
-37.1578
-31.778
-26.2876
-47.6401
-44.2523
-40.3439
-35.9293
-31.0614
-26.0577
-45.1519
-42.1302
-38.6366
-34.6753
-30.2805
-25.7322
-42.7588
-40.0677
-36.9505
-33.4029
-29.4439
-25.3199
-40.4609
-38.0673
-35.2903
-32.119
-28.5601
-24.8298
-38.2574
-36.131
-33.6607
-30.8304
-27.6373
-24.271
-36.1474
-34.2601
-32.0652
-29.5432
-26.6835
-23.6526
-34.1291
-32.4555
-30.5076
-28.2633
-25.7065
-22.9831
-32.2005
-30.7175
-28.9903
-26.9956
-24.7131
-22.2709
-30.3592
-29.0458
-27.5157
-25.7448
-23.71
-21.5241
-29.591
-28.6026
-27.44
-26.0854
-24.5147
-22.7032
-20.75
-27.8035
-26.9278
-25.8991
-24.7006
-23.3087
-21.6978
-19.9554
-26.1075
-25.3316
-24.4218
-23.362
-22.1295
-20.6985
-19.1466
-24.4982
-23.811
-23.0065
-22.0699
-20.9793
-19.7095
-18.3292
-22.9711
-22.3627
-21.6516
-20.8242
-19.8599
-18.7341
-17.508
-21.5219
-20.9833
-20.3549
-19.6244
-18.7723
-17.7753
-16.6875
-20.146
-19.6695
-19.1145
-18.4699
-17.7175
-16.8352
-15.8715
-19.1992
-18.8393
-18.4178
-17.928
-17.3596
-16.6958
-15.9159
-15.0632
-17.9163
-17.5975
-17.2252
-16.7932
-16.2924
-15.7074
-15.0187
-14.2652
-16.6985
-16.4165
-16.088
-15.7075
-15.2668
-14.7518
-14.1445
-13.4797
-15.5416
-15.2927
-15.0034
-14.6689
-14.2817
-13.829
-13.2942
-12.7088
-14.4408
-14.2218
-13.9676
-13.6742
-13.3348
-12.9377
-12.4679
-11.9533
-13.3931
-13.2012
-12.9787
-12.7219
-12.4252
-12.0779
-11.6662
-11.2153
-12.5496
-12.3764
-12.176
-11.9448
-11.6777
-11.3652
-10.9946
-10.5891
-11.9865
-11.8484
-11.6883
-11.5029
-11.2893
-11.0428
-10.7548
-10.4132
-10.0395
-11.2613
-11.1339
-10.9877
-10.8181
-10.6223
-10.3966
-10.1332
-9.82053
-9.48102
-10.5166
-10.3991
-10.2658
-10.1112
-9.93252
-9.72703
-9.48744
-9.20215
-8.89002
-9.77486
-9.67009
-9.5521
-9.41425
-9.2539
-9.06896
-8.85343
-8.598
-8.32707
-8.98306
-8.88633
-8.77943
-8.6551
-8.51103
-8.34553
-8.15193
-7.91769
-7.65333
-8.27821
-8.20037
-8.11346
-8.00916
-7.88515
-7.74099
-7.5741
-7.38119
-7.19644
-7.34012
-7.263
-7.1814
-7.08703
-6.97752
-6.85133
-6.69959
-6.50258
-6.24747
-6.8943
-6.85239
-6.80304
-6.73696
-6.65272
-6.55295
-6.44408
-6.33894
-6.30267
-5.37828
-5.31706
-5.25822
-5.1935
-5.11967
-5.03204
-4.91092
-4.71482
-4.37563
-5.99153
-6.01857
-6.0211
-6.01705
-6.00019
-5.96695
-5.9252
-5.9039
-5.9548
-6.21317
-2.51581
-2.44838
-2.38997
-2.34783
-2.30939
-2.2678
-2.21458
-2.10472
-1.85697
-1.28996
-6.76614
-6.64733
-6.66855
-6.7946
-6.88748
-6.9321
-6.97519
-7.0914
-7.38687
-8.0643
106.921
106.186
105.237
104.003
102.273
99.8583
96.5386
92.1343
86.672
80.5035
74.1473
67.9782
62.1159
56.5395
51.2093
46.109
41.2385
36.5994
32.19
28.0036
24.0306
20.2622
16.689
13.3027
10.0956
7.0604
4.19006
1.47786
-1.08073
-3.48924
-5.74954
-7.86221
-9.82777
-11.6455
-13.3145
-14.8343
-16.2045
-17.4253
-18.4973
-19.4223
-20.2023
-20.8409
-21.3423
-21.7114
-21.9543
-22.0778
-22.0891
-21.9963
-21.8076
-21.5316
-21.1772
-20.7529
-20.2675
-19.7292
-19.1461
-18.5258
-17.8753
-17.2012
-16.5094
-15.8052
-15.0936
-14.3786
-13.664
-12.9527
-12.2478
-11.5508
-10.8654
-10.2788
-9.75561
-9.22761
-8.65544
-8.1327
-7.45221
-7.07719
-6.04514
-6.30144
-4.11211
-6.40291
-0.929226
-8.53938
47.0007
46.4852
45.9986
45.5489
45.11
44.7207
44.4087
44.1462
43.8382
43.3549
42.6128
41.6066
40.3425
38.8191
37.0541
35.0797
32.9308
30.6392
28.2343
25.7444
23.1955
20.6127
18.0182
15.432
12.8717
10.3528
7.89042
5.49778
3.18653
0.965549
-1.15785
-3.17743
-5.08863
-6.88703
-8.56879
-10.1309
-11.5707
-12.8861
-14.0754
-15.1378
-16.073
-16.8817
-17.5655
-18.1264
-18.5679
-18.8942
-19.1099
-19.2208
-19.233
-19.1533
-18.989
-18.7473
-18.4359
-18.0624
-17.6342
-17.1586
-16.6425
-16.0927
-15.5151
-14.9156
-14.2994
-13.6712
-13.0351
-12.3949
-11.754
-11.1147
-10.4807
-9.93468
-9.4451
-8.95165
-8.4092
-7.91981
-7.26349
-6.92031
-5.91229
-6.18274
-4.0557
-6.27295
-1.0256
29.269
28.9733
28.6488
28.3151
27.9359
27.4897
26.9735
26.3866
25.7305
25.0103
24.2395
23.4501
22.6706
21.9005
21.1244
20.3218
19.4744
18.568
17.5915
16.5367
15.3991
14.1776
12.8742
11.4946
10.0467
8.54083
6.98844
5.40147
3.79324
2.17726
0.567074
-1.02382
-2.58315
-4.09913
-5.56093
-6.95898
-8.28464
-9.53036
-10.6896
-11.7568
-12.7275
-13.5986
-14.3678
-15.0335
-15.5958
-16.0556
-16.4146
-16.6755
-16.842
-16.9185
-16.91
-16.8221
-16.6607
-16.4321
-16.1428
-15.7992
-15.4077
-14.9746
-14.5059
-14.0072
-13.4839
-12.9409
-12.3829
-11.8138
-11.2375
-10.6568
-10.0754
-9.57144
-9.11683
-8.65835
-8.14826
-7.69053
-7.06656
-6.74358
-5.78504
-6.0308
-4.03058
-6.0843
27.8521
27.6627
27.4564
27.2416
27.0046
26.7271
26.3909
25.9781
25.4671
24.8374
24.0784
23.2046
22.258
21.2739
20.265
19.235
18.1864
17.1228
16.0466
14.9587
13.8581
12.7431
11.6112
10.4603
9.28839
8.09416
6.87732
5.63835
4.37961
3.10455
1.81814
0.526871
-0.762071
-2.04052
-3.29963
-4.5305
-5.72411
-6.87181
-7.96531
-8.99694
-9.95994
-10.8485
-11.6576
-12.3833
-13.0226
-13.5739
-14.0362
-14.4099
-14.6961
-14.8971
-15.0157
-15.0558
-15.0215
-14.9178
-14.7499
-14.5232
-14.2433
-13.916
-13.5469
-13.1413
-12.7045
-12.2416
-11.7573
-11.2556
-10.7409
-10.2163
-9.68558
-9.22201
-8.80019
-8.37422
-7.89449
-7.46676
-6.87257
-6.57164
-5.65289
-5.89216
-3.9784
23.6021
23.3964
23.186
22.984
22.7832
22.5769
22.3569
22.1149
21.843
21.5298
21.1602
20.7192
20.2031
19.6219
18.9831
18.2889
17.5403
16.7385
15.886
14.9863
14.0434
13.0613
12.0443
10.9966
9.92251
8.82587
7.71053
6.57996
5.43774
4.2872
3.13172
1.97525
0.821705
-0.324409
-1.45798
-2.57356
-3.66517
-4.72657
-5.75123
-6.73264
-7.66454
-8.54095
-9.35634
-10.1057
-10.7849
-11.3906
-11.9202
-12.3722
-12.7459
-13.0415
-13.2602
-13.4039
-13.4753
-13.4777
-13.415
-13.2915
-13.1118
-12.8808
-12.6035
-12.2849
-11.93
-11.5434
-11.13
-10.6939
-10.2395
-9.77026
-9.28978
-8.86624
-8.47704
-8.08342
-7.63414
-7.23674
-6.67157
-6.39556
-5.51065
-5.75655
18.954
18.776
18.5905
18.4112
18.2309
18.0469
17.8566
17.6541
17.4334
17.1894
16.9161
16.6056
16.2514
15.8544
15.4215
14.9568
14.461
13.9337
13.3723
12.7744
12.1385
11.4635
10.7489
9.99488
9.20239
8.37314
7.50961
6.61482
5.69246
4.74657
3.78151
2.80209
1.8131
0.81955
-0.173307
-1.16021
-2.13571
-3.09427
-4.03018
-4.93776
-5.81131
-6.64527
-7.43422
-8.17302
-8.85707
-9.48217
-10.0448
-10.5421
-10.972
-11.3332
-11.6253
-11.8485
-12.0041
-12.0938
-12.12
-12.0859
-11.9948
-11.8508
-11.6578
-11.4203
-11.1427
-10.8293
-10.4847
-10.1129
-9.71809
-9.30409
-8.87422
-8.4913
-8.13564
-7.77541
-7.35796
-6.99193
-6.45745
-6.20711
15.8223
15.6757
15.52
15.3669
15.2109
15.051
14.8874
14.7177
14.5366
14.3389
14.1197
13.8734
13.5929
13.2736
12.9177
12.532
12.1209
11.6867
11.231
10.7532
10.2521
9.72673
9.17623
8.59977
7.99658
7.36612
6.70812
6.02271
5.31055
4.57277
3.81109
3.02792
2.22614
1.40921
0.581138
-0.253686
-1.09047
-1.92421
-2.74957
-3.56116
-4.35352
-5.12119
-5.8588
-6.56108
-7.22315
-7.84038
-8.40854
-8.92401
-9.38364
-9.78504
-10.1265
-10.407
-10.6262
-10.7846
-10.8833
-10.924
-10.9091
-10.8413
-10.7237
-10.56
-10.3539
-10.1092
-9.82992
-9.51989
-9.18311
-8.82337
-8.44369
-8.10145
-7.77967
-7.45317
-7.06839
-6.73412
13.6182
13.4942
13.3608
13.2277
13.0913
12.9511
12.8085
12.6635
12.5139
12.3559
12.1854
11.9984
11.7897
11.5535
11.285
10.9845
10.6565
10.3043
9.92969
9.53455
9.11889
8.68179
8.22276
7.74179
7.23887
6.71401
6.16731
5.59898
5.00945
4.3992
3.76902
3.12001
2.4535
1.77125
1.07549
0.368828
-0.345619
-1.06435
-1.7834
-2.4985
-3.20511
-3.8985
-4.57382
-5.22611
-5.85059
-6.44259
-6.99766
-7.51173
-7.98108
-8.40258
-8.77359
-9.09208
-9.35672
-9.56673
-9.72209
-9.82336
-9.87172
-9.8689
-9.81708
-9.71889
-9.57731
-9.39553
-9.177
-8.92517
-8.64363
-8.33613
-8.00527
-7.70296
-7.41465
11.8035
11.6984
11.5848
11.4699
11.3507
11.2269
11.1003
10.9719
10.8415
10.7075
10.5672
10.4172
10.2545
10.075
9.87385
9.64697
9.39384
9.11734
8.81989
8.50303
8.16831
7.81569
7.44396
7.05232
6.64046
6.20821
5.75552
5.28247
4.78939
4.27672
3.74517
3.19567
2.62931
2.04741
1.45166
0.843907
0.226364
-0.398449
-1.02768
-1.65814
-2.28638
-2.90866
-3.52099
-4.1192
-4.69904
-5.25623
-5.78653
-6.28588
-6.75042
-7.17666
-7.56147
-7.90216
-8.19662
-8.44322
-8.64101
-8.78956
-8.88905
-8.94022
-8.94433
-8.90311
-8.81874
-8.69369
-8.53077
-8.33297
-8.10337
-7.84556
10.2878
10.1985
10.1022
10.0046
9.90212
9.79373
9.68149
9.56682
9.45018
9.33152
9.20993
9.08319
8.94858
8.80352
8.64481
8.46834
8.27043
8.05023
7.80984
7.55143
7.27649
6.98658
6.68196
6.36155
6.0244
5.67007
5.29827
4.90875
4.5014
4.0762
3.63335
3.17332
2.69668
2.2043
1.69733
1.17713
0.645372
0.103988
-0.444798
-0.998479
-1.5543
-2.10925
-2.66007
-3.20327
-3.73524
-4.25222
-4.75039
-5.22596
-5.6752
-6.09457
-6.4808
-6.83082
-7.14209
-7.4124
-7.64005
-7.82387
-7.96322
-8.05799
-8.10858
-8.11589
-8.08132
-8.00659
9.04539
8.96905
8.88694
8.80354
8.71621
8.62304
8.52474
8.42281
8.31831
8.21176
8.10333
7.9924
7.87732
7.75583
7.62572
7.4843
7.32798
7.15339
6.95932
6.74721
6.51899
6.2761
6.02009
5.75153
5.46954
5.17327
4.86227
4.53635
4.19533
3.83906
3.46746
3.08068
2.6789
2.26253
1.8322
1.3887
0.933109
0.466727
-0.0088373
-0.491731
-0.97984
-1.4708
-1.96197
-2.45046
-2.93324
-3.40707
-3.86858
-4.31437
-4.74096
-5.14497
-5.52315
-5.87238
-6.18982
-6.47294
-6.71959
-6.92805
-7.09701
8.01358
7.94805
7.87761
7.80582
7.73066
7.65091
7.5665
7.47749
7.3846
7.28892
7.19123
7.09177
6.99019
6.8853
6.77525
6.65814
6.53165
6.39273
6.23823
6.06665
5.87885
5.67649
5.46089
5.23351
4.99512
4.74507
4.48246
4.20686
3.91812
3.61611
3.30071
2.97194
2.62983
2.27459
1.90658
1.52628
1.13435
0.731652
0.319284
-0.101446
-0.529009
-0.961634
-1.39729
-1.83369
-2.26836
-2.69863
-3.12161
-3.53433
-3.93369
-4.31657
7.13878
7.08231
7.02166
6.95974
6.89482
6.82583
6.75313
6.6767
6.59595
6.51111
6.42328
6.33339
6.24181
6.14839
6.05232
5.95208
5.846
5.73216
5.60792
5.4704
5.31789
5.15076
4.97043
4.77813
4.5752
4.36258
4.13983
3.90604
3.66074
3.40377
3.13501
2.85442
2.56192
2.25755
1.94153
1.61411
1.27573
0.926975
)
;

boundaryField
{
    inlet
    {
        type            freestreamPressure;
        freestreamValue uniform 0;
        value           nonuniform List<scalar> 
11
(
-3.1748
-2.9188
-2.92974
-2.98671
-3.02906
-3.05013
-3.07053
-3.12319
-3.25511
-3.415
-3.76595
)
;
    }
    outlet
    {
        type            freestreamPressure;
        freestreamValue nonuniform List<scalar> 0();
        value           nonuniform List<scalar> 0();
    }
    walls
    {
        type            zeroGradient;
    }
    frontAndBack
    {
        type            empty;
    }
    procBoundary6to2
    {
        type            processor;
        value           nonuniform List<scalar> 
13
(
106.562
47.3222
29.4244
27.9817
23.7499
19.0767
15.9279
13.7114
11.8843
10.3577
9.10628
8.06669
7.1851
)
;
    }
    procBoundary6to3
    {
        type            processor;
        value           uniform 6.38807;
    }
    procBoundary6to5
    {
        type            processor;
        value           nonuniform List<scalar> 
86
(
-127.668
-127.203
-126.645
-125.893
-124.872
-123.77
-122.653
-121.496
-120.296
-119.038
-117.724
-116.356
-114.935
-113.459
-111.927
-110.339
-108.694
-106.993
-105.233
-103.417
-101.543
-99.6123
-97.6259
-95.5846
-93.4902
-91.3435
-89.1486
-86.9064
-84.6211
-82.2965
-79.9363
-77.5455
-75.1294
-75.1294
-83.8309
-80.4948
-77.1903
-73.9272
-70.714
-67.5595
-64.4711
-61.4553
-58.518
-55.6643
-52.8981
-50.2226
-50.2226
-50.5119
-47.7115
-45.0375
-42.4873
-40.0579
-37.7459
-35.5475
-33.4584
-31.4744
-31.4744
-30.4196
-28.5396
-26.7612
-25.0787
-23.4866
-21.9794
-20.552
-20.552
-19.5019
-18.1853
-16.937
-15.7527
-14.6269
-13.5566
-12.6977
-12.6977
-12.1041
-11.3714
-10.6201
-9.86811
-9.07127
-8.34859
-7.41437
-6.92907
-5.44437
-5.44437
-5.90081
-2.55566
-6.35473
)
;
    }
    procBoundary6to7
    {
        type            processor;
        value           nonuniform List<scalar> 
91
(
-8.35278
-8.35278
-1.17343
-1.17343
-5.94165
-5.94165
-3.90489
-5.35818
-3.90489
-5.61038
-6.23183
-5.35818
-6.00691
-7.12149
-6.76943
-6.23183
-6.4667
-7.5616
-7.298
-7.12149
-7.04241
-7.89386
-7.74555
-7.5642
-7.5616
-7.35314
-7.22569
-7.31375
-7.36137
-7.36918
-7.89386
-7.33823
-4.6799
-5.02063
-5.33589
-5.62299
-5.87953
-6.10342
-7.22569
-6.2929
0.568598
0.201536
-0.173089
-0.553966
-0.939548
-1.32806
-1.71755
-2.10584
-2.49055
-2.86916
-3.23899
-4.6799
-3.59728
6.33927
6.28687
6.23331
6.17719
6.11749
6.05435
5.98811
5.91862
5.84522
5.76771
5.68693
5.60396
5.51932
5.43307
5.34464
5.25285
5.15618
5.05305
4.94123
4.81806
4.68169
4.5321
4.37043
4.19783
4.01561
3.82481
3.6252
3.41592
3.19644
2.9666
2.72634
2.47556
2.21421
1.94233
1.66005
1.36761
0.568598
1.06537
)
;
    }
}


// ************************************************************************* //
