/*--------------------------------*- C++ -*----------------------------------*\
| =========                 |                                                 |
| \\      /  F ield         | OpenFOAM: The Open Source CFD Toolbox           |
|  \\    /   O peration     | Version:  2506                                  |
|   \\  /    A nd           | Website:  www.openfoam.com                      |
|    \\/     M anipulation  |                                                 |
\*---------------------------------------------------------------------------*/
FoamFile
{
    version     2.0;
    format      ascii;
    arch        "LSB;label=32;scalar=64";
    class       surfaceScalarField;
    location    "350";
    object      phi;
}
// * * * * * * * * * * * * * * * * * * * * * * * * * * * * * * * * * * * * * //

dimensions      [0 3 -1 0 0 0 0];

oriented        oriented;

internalField   nonuniform List<scalar> 
2577
(
0.113946
0.0126203
0.0954201
0.018528
0.0671443
0.0282752
0.0662018
0.000944059
0.152922
0.0278133
0.133128
0.0383246
0.099387
0.0620173
0.0714025
0.0289312
0.192014
0.0490073
0.167118
0.0632213
0.12957
0.0995642
0.0870656
0.0714356
0.237186
0.0777739
0.205638
0.0947701
0.162887
0.142317
0.112293
0.122032
0.28735
0.111706
0.249234
0.132887
0.200593
0.190956
0.144194
0.178431
0.333401
0.138954
0.295002
0.171287
0.242408
0.243551
0.18122
0.23962
0.361798
0.153099
0.334135
0.19895
0.285293
0.292392
0.222066
0.302847
0.374788
0.163355
0.359239
0.214501
0.322933
0.328698
0.263906
0.361875
0.387035
0.177768
0.374566
0.22697
0.351089
0.352173
0.301984
0.41098
0.405674
0.195963
0.389534
0.243112
0.371673
0.370034
0.332319
0.450335
0.428833
0.215119
0.408668
0.263277
0.390203
0.388497
0.355335
0.485203
0.453392
0.234106
0.431412
0.285258
0.410422
0.409487
0.376021
0.519605
0.478311
0.253193
0.455992
0.307578
0.433197
0.43228
0.398471
0.55433
0.504004
0.272845
0.481477
0.330106
0.457934
0.455823
0.423451
0.588814
0.530954
0.29324
0.507988
0.353073
0.484049
0.479759
0.450424
0.622439
0.559457
0.314326
0.5358
0.376731
0.511443
0.504117
0.478849
0.655033
0.589513
0.336079
0.56518
0.401064
0.540283
0.529011
0.508587
0.686729
0.621208
0.358386
0.59623
0.426043
0.570691
0.55455
0.53977
0.717651
0.654557
0.38126
0.629009
0.451591
0.602866
0.580691
0.572584
0.747933
0.689664
0.404669
0.663593
0.477662
0.636884
0.6074
0.607153
0.777665
0.726609
0.428561
0.700072
0.5042
0.672822
0.634648
0.643603
0.806884
0.76547
0.452917
0.738505
0.531165
0.710774
0.662379
0.681988
0.835671
0.806378
0.477645
0.779042
0.558502
0.750824
0.690595
0.722426
0.864069
0.849345
0.502843
0.821726
0.58612
0.793111
0.71921
0.765014
0.892166
0.894712
0.528195
0.866712
0.614121
0.837693
0.748227
0.809876
0.919983
0.942243
0.553949
0.914023
0.642341
0.88476
0.77749
0.857113
0.947631
0.992213
0.579756
0.963973
0.670582
0.934239
0.807222
0.906874
0.974996
1.04489
0.605687
1.01627
0.699199
0.986488
0.837006
0.959286
1.0022
1.10009
0.631816
1.07171
0.727577
1.04152
0.867191
1.01429
1.02943
1.15819
0.657933
1.12957
0.756202
1.09945
0.897312
1.07243
1.05645
1.21932
0.683825
1.19078
0.784742
1.16037
0.927719
1.13343
1.08339
1.28328
0.709853
1.25502
0.812992
1.22466
0.958086
1.19755
1.1105
1.35087
0.735389
1.32241
0.841457
1.29201
0.98849
1.26527
1.13723
1.44706
0.676021
1.42151
0.76094
1.39345
0.869521
1.36305
1.01888
1.33632
1.16396
1.52121
0.698367
1.49584
0.786308
1.46809
0.897274
1.43762
1.04935
1.41105
1.19054
1.59897
0.72065
1.57396
0.811309
1.54629
0.924945
1.51607
1.07957
1.4897
1.21691
1.68071
0.742555
1.65612
0.835906
1.62884
0.952219
1.59863
1.10978
1.57235
1.24319
1.76669
0.764061
1.74226
0.860339
1.71514
0.979336
1.68513
1.13979
1.65926
1.26906
1.85687
0.785296
1.83289
0.884312
1.80624
1.00599
1.77631
1.16972
1.75049
1.29488
1.95176
0.806251
1.92813
0.907947
1.90169
1.03243
1.87201
1.19939
1.84641
1.32049
2.05135
0.827068
2.0282
0.931091
2.00213
1.0585
1.97245
1.22907
1.94723
1.34571
2.15642
0.847335
2.13348
0.954028
2.10763
1.08435
2.07826
1.25845
2.05333
1.37064
2.26667
0.867484
2.24393
0.976775
2.21861
1.10967
2.18911
1.28795
2.16463
1.39512
2.38275
0.887403
2.36035
0.99918
2.33523
1.13479
2.30605
1.31713
2.28163
1.41954
2.50478
0.90712
2.48281
1.02115
2.45765
1.15996
2.42863
1.34615
2.4047
1.44346
2.65309
0.828348
2.63341
0.926795
2.6113
1.04326
2.58674
1.18452
2.55761
1.37529
2.53405
1.46702
2.78828
0.846264
2.76875
0.946328
2.74689
1.06512
2.72222
1.20919
2.69308
1.40442
2.6699
1.49021
2.93088
0.864208
2.91117
0.966036
2.8895
1.08678
2.86498
1.23371
2.83582
1.43358
2.81287
1.51316
3.08084
0.882357
3.06133
0.985548
3.03956
1.10854
3.01497
1.2583
2.98592
1.46263
2.96305
1.53603
3.23922
0.900754
3.2193
1.00547
3.19752
1.13032
3.17315
1.28268
3.14361
1.49217
3.12121
1.55842
3.40587
0.919435
3.38592
1.02542
3.36407
1.15217
3.3393
1.30745
3.30976
1.52171
3.28743
1.58075
3.58153
0.938466
3.56138
1.04557
3.53927
1.17428
3.51448
1.33225
3.48437
1.55182
3.46235
1.60278
3.76689
0.957868
3.74634
1.06612
3.72381
1.19681
3.69877
1.35729
3.66847
1.58212
3.64643
1.62481
3.96229
0.97782
3.94113
1.08728
3.91853
1.21941
3.89297
1.38285
3.86212
1.61296
3.84006
1.64687
4.1885
0.901245
4.16807
0.99825
4.14658
1.10877
4.12343
1.24257
4.09753
1.40875
4.06598
1.64451
4.0441
1.66875
4.40637
0.921758
4.38517
1.01945
4.36324
1.1307
4.33939
1.26642
4.31296
1.43518
4.28079
1.67669
4.25867
1.69087
4.63594
0.943063
4.61405
1.04135
4.59141
1.15333
4.56703
1.2908
4.54007
1.46213
4.50705
1.70971
4.48477
1.71315
4.87811
0.965195
4.85548
1.06398
4.83207
1.17674
4.80701
1.31586
4.77926
1.48989
4.74536
1.7436
4.72288
1.73563
5.13346
0.988201
5.11005
1.08739
5.08569
1.2011
5.06002
1.34153
5.03135
1.51855
4.99651
1.77844
4.97364
1.75851
5.40276
1.01239
5.37827
1.11188
5.35318
1.2262
5.32647
1.36824
5.29704
1.54798
5.26109
1.81439
5.23778
1.78182
5.6869
1.0374
5.66141
1.13737
5.6354
1.2522
5.6077
1.39594
5.57724
1.57844
5.53983
1.8518
5.51619
1.80546
6.01262
0.970583
5.98634
1.06368
5.95981
1.1639
5.93258
1.27944
5.90399
1.42453
5.87229
1.61015
5.83373
1.89035
5.80943
1.82977
6.32984
0.99766
6.30238
1.09114
6.27461
1.19168
6.24638
1.30767
6.21644
1.45446
6.18371
1.64288
6.14346
1.93061
6.11843
1.8548
6.66435
1.02619
6.63553
1.11995
6.60664
1.22057
6.57707
1.33724
6.54587
1.48566
6.51178
1.67697
6.47001
1.97238
6.44433
1.88048
7.01769
1.05595
6.9876
1.15004
6.9566
1.25157
6.92551
1.36833
6.89327
1.5179
6.85749
1.71275
6.81426
2.0156
6.78764
1.9071
7.38915
1.08854
7.35761
1.18158
7.32694
1.28224
7.29418
1.40109
7.26004
1.55204
7.22253
1.75026
7.17726
2.06087
7.14938
1.93498
7.78313
1.12062
7.74959
1.21512
7.7157
1.31613
7.68241
1.43437
7.64646
1.58799
7.60847
1.78824
7.56006
2.10928
7.5319
1.96314
5.72268
1.11168
5.7348
1.20301
5.75126
1.29967
5.77305
1.41259
5.79957
1.56147
5.8302
1.75761
5.86967
2.06982
5.90049
1.93232
6.27838
1.01956
6.28726
1.1028
6.30073
1.18954
6.31986
1.28054
6.34303
1.38942
6.37092
1.53358
6.4067
1.72183
6.44844
2.02808
6.48218
1.89858
6.89856
1.01558
6.9073
1.09406
6.92327
1.17358
6.94366
1.26015
6.9694
1.36369
7.00114
1.50183
7.03805
1.68493
7.08583
1.98029
7.12239
1.86203
7.57916
1.0107
7.59019
1.08303
7.60592
1.15784
7.62875
1.23732
7.65696
1.33547
7.69108
1.46772
7.73419
1.64182
7.78387
1.9306
7.82699
1.81891
8.32675
1.00635
8.33863
1.07115
8.35792
1.13856
8.38173
1.21351
8.41223
1.30498
8.45125
1.42869
8.4978
1.59527
8.55457
1.87383
8.59916
1.77432
9.14952
1.00147
9.16205
1.05862
9.18207
1.11854
9.20929
1.18629
9.24326
1.271
9.28568
1.38628
9.33545
1.5455
9.3987
1.81058
9.44792
1.7251
10.0531
0.994794
10.0675
1.04422
10.0895
1.09657
10.12
1.15576
10.1586
1.23242
10.2042
1.34061
10.2598
1.48993
10.3289
1.74145
10.384
1.67
11.0441
0.988129
11.06
1.02837
11.0836
1.07301
11.1158
1.12348
11.1575
1.19075
11.2088
1.28934
11.2708
1.4279
11.3448
1.66746
11.4054
1.60943
12.1421
0.981037
12.1584
1.01205
12.1864
1.04507
12.223
1.08684
12.2691
1.14469
12.3248
1.23365
12.3929
1.35974
12.4787
1.58167
12.5476
1.54061
13.3288
0.972439
13.3483
0.992566
13.3771
1.01622
13.4175
1.04644
13.4674
1.0948
13.5291
1.17191
13.6019
1.28697
13.6898
1.49374
13.7606
1.46981
14.6666
0.582847
14.6765
0.962566
14.6984
0.970696
14.7334
0.981218
14.7772
1.00259
14.8332
1.03878
14.9031
1.10206
14.9901
1.19997
15.0987
1.38513
15.1875
1.38099
16.0638
0.531451
16.072
0.954333
16.0945
0.948228
16.128
0.94769
16.176
0.954626
16.2374
0.97739
16.3099
1.02954
16.3951
1.11473
16.4935
1.2868
16.5735
1.30099
17.7797
17.798
17.8305
17.8776
17.9378
18.0118
18.1032
18.2167
18.3662
18.486
0.0927664
0.136076
0.0455132
0.118654
0.0149885
0.117591
-0.00365901
0.130939
-0.0141408
0.154677
-0.018831
0.18591
-0.0194583
0.222695
-0.0184516
0.262899
-0.0193343
0.302867
-0.0245868
0.337572
-0.0328898
0.363639
-0.0408265
0.383958
-0.046767
0.404412
-0.0506192
0.427304
-0.0525581
0.452364
-0.0527459
0.479038
-0.051328
0.507169
-0.0484255
0.536868
-0.0441584
0.568317
-0.0386565
0.601651
-0.0320474
0.636994
-0.0244393
0.67438
-0.0159503
0.713937
-0.00667329
0.755738
0.00330703
0.799896
0.013951
0.846469
0.0251923
0.895633
0.0369498
0.947529
0.0491531
1.00208
0.0617442
1.05984
0.0746677
1.12051
0.0878729
1.18434
0.101316
1.25183
0.114948
1.32268
0.128723
1.39727
0.142593
1.47583
0.156508
1.55844
0.170416
1.64535
0.184266
1.73664
0.198004
1.83267
0.211573
1.93366
0.224943
2.03996
0.238043
2.15153
0.250835
2.26884
0.263276
2.39226
0.275327
2.522
0.286953
2.65827
0.298128
2.8017
0.308825
2.95235
0.319028
3.11101
0.328711
3.27775
0.337901
3.45316
0.34656
3.63777
0.354702
3.83191
0.362332
4.03647
0.369458
4.25154
0.376094
4.47813
0.382254
4.71672
0.387955
4.96794
0.393202
5.23253
0.398054
5.51133
0.402492
5.80499
0.406549
6.11437
0.410249
6.44063
0.413612
6.78428
0.416659
7.14633
0.419412
7.52915
0.421273
5.89862
0.423079
6.48037
0.424781
7.12069
0.426448
7.82533
0.427925
8.59768
0.429374
9.44647
0.430574
10.3828
0.431649
11.4043
0.432699
12.5465
0.432751
13.7606
0.434659
15.1856
0.431412
16.5767
0.147908
0.167142
0.110089
0.156471
0.0769162
0.150765
0.0534402
0.154414
0.0398097
0.168308
0.0345604
0.191158
0.036195
0.221061
0.043031
0.256063
0.0523752
0.293524
0.0604135
0.329534
0.064399
0.359654
0.0653624
0.382995
0.0656002
0.404175
0.0657141
0.42719
0.0656009
0.452477
0.0653154
0.479323
0.0650369
0.507448
0.0649534
0.536951
0.0652287
0.568042
0.0659931
0.600887
0.0673504
0.635637
0.0693908
0.67234
0.0721686
0.711159
0.0757383
0.752168
0.0801116
0.795522
0.0852789
0.841302
0.0912241
0.889688
0.09794
0.940813
0.105387
0.994637
0.113538
1.05169
0.122341
1.11171
0.131742
1.17494
0.141684
1.24189
0.15211
1.31226
0.162957
1.38643
0.174171
1.46461
0.18567
1.54694
0.197409
1.63361
0.209318
1.72473
0.221343
1.82065
0.233407
1.92159
0.245449
2.02792
0.257423
2.13955
0.269266
2.25699
0.280924
2.3806
0.292346
2.51058
0.303485
2.64713
0.3143
2.79088
0.324754
2.9419
0.334817
3.10095
0.344473
3.26809
0.353667
3.44396
0.36242
3.62902
0.37071
3.82362
0.378532
4.02865
0.385886
4.24419
0.392774
4.47124
0.399205
4.71029
0.405188
4.96195
0.41075
5.22697
0.415877
5.50621
0.420586
5.80028
0.424922
6.11004
0.42889
6.43666
0.432511
6.78066
0.435803
7.14304
0.438786
7.52617
0.44081
5.8966
0.442779
6.4784
0.444672
7.11879
0.446472
7.82353
0.448131
8.59602
0.449705
9.4449
0.451045
10.3815
0.452274
11.4031
0.453439
12.5453
0.453617
13.7604
0.45563
15.1836
0.191735
0.185194
0.166777
0.181428
0.139869
0.177673
0.116629
0.177653
0.100532
0.184406
0.0923965
0.199293
0.0914331
0.222024
0.0961456
0.251349
0.104357
0.285313
0.112769
0.321121
0.117663
0.35476
0.118093
0.382564
0.116961
0.405307
0.116618
0.427532
0.117164
0.451932
0.118077
0.478409
0.119186
0.50634
0.120511
0.535626
0.122076
0.566478
0.123901
0.599061
0.125995
0.633542
0.128367
0.669967
0.13106
0.708467
0.134093
0.749134
0.137522
0.792093
0.141369
0.837455
0.145689
0.885368
0.150496
0.936005
0.155837
0.989296
0.161713
1.04581
0.168149
1.10527
0.175137
1.16795
0.182676
1.23435
0.190731
1.3042
0.19928
1.37788
0.20828
1.45561
0.217699
1.53752
0.227482
1.62383
0.237577
1.71464
0.247927
1.8103
0.258474
1.91105
0.269168
2.01722
0.279931
2.12879
0.290703
2.24622
0.301445
2.36986
0.312101
2.49992
0.322598
2.63663
0.332897
2.78058
0.342952
2.93185
0.352711
3.09119
0.36216
3.25864
0.371258
3.43487
0.379978
3.6203
0.388313
3.81529
0.396225
4.02074
0.403714
4.2367
0.410775
4.46418
0.417395
4.70367
0.423602
4.95575
0.429389
5.22118
0.434764
5.50083
0.439753
5.79529
0.444327
6.10547
0.448544
6.43244
0.452408
6.77679
0.455948
7.1395
0.459141
7.52298
0.461326
5.89442
0.463455
6.47627
0.465497
7.11675
0.467466
7.82156
0.46928
8.59421
0.470998
9.44318
0.472545
10.38
0.473811
11.4018
0.475247
12.5439
0.475414
13.7602
0.231102
0.196402
0.215505
0.197023
0.196802
0.196376
0.178
0.196454
0.162674
0.199731
0.153431
0.208535
0.151192
0.224264
0.15543
0.24711
0.16458
0.276163
0.17598
0.30972
0.185737
0.345004
0.190138
0.378162
0.18922
0.406226
0.186445
0.430308
0.184267
0.45411
0.182895
0.47978
0.181902
0.507334
0.18118
0.536347
0.180833
0.566825
0.180919
0.598976
0.181469
0.632992
0.182471
0.668965
0.183921
0.707017
0.185814
0.747241
0.188151
0.789757
0.190934
0.834671
0.194151
0.882152
0.19782
0.932336
0.201941
0.985176
0.206525
1.04123
0.211558
1.10024
0.217063
1.16245
0.223037
1.22838
0.229474
1.29777
0.236368
1.37098
0.243705
1.44828
0.251465
1.52976
0.259622
1.61567
0.268144
1.70611
0.276992
1.80145
0.286122
1.90192
0.295488
2.00786
0.305039
2.11924
0.314722
2.23654
0.324482
2.3601
0.334266
2.49014
0.344019
2.62688
0.353689
2.77091
0.363227
2.92231
0.372596
3.08182
0.381721
3.24952
0.390596
3.42599
0.399188
3.61171
0.407433
3.80704
0.415342
4.01283
0.422884
4.22916
0.430045
4.45702
0.43683
4.69689
0.443194
4.94938
0.449174
5.2152
0.45476
5.49525
0.459957
5.7901
0.464788
6.10063
0.469222
6.42801
0.473316
6.7727
0.477067
7.13575
0.480495
7.51955
0.482839
5.89207
0.48513
6.47398
0.487338
7.11454
0.489466
7.81943
0.491451
8.59222
0.493329
9.4413
0.495027
10.3783
0.496423
11.4004
0.498055
12.5423
0.272327
0.204487
0.261024
0.208327
0.246798
0.210601
0.230966
0.212286
0.215822
0.214876
0.204058
0.220298
0.197829
0.230494
0.198071
0.246867
0.204454
0.269781
0.215499
0.298674
0.228459
0.332045
0.239415
0.367206
0.245017
0.400624
0.24551
0.429814
0.243955
0.455665
0.242618
0.481117
0.241789
0.508163
0.241074
0.537062
0.240388
0.567511
0.239833
0.599531
0.239512
0.633313
0.239468
0.66901
0.239726
0.706759
0.240316
0.746651
0.241272
0.788801
0.242619
0.833324
0.244382
0.880389
0.246578
0.93014
0.249223
0.982531
0.252325
1.03812
0.255891
1.09667
0.259924
1.15842
0.264425
1.22388
0.269388
1.2928
0.274808
1.36556
0.280676
1.44241
0.286977
1.52346
0.293694
1.60895
0.300813
1.699
0.308282
1.79398
0.316096
1.8941
0.324209
1.99974
0.332581
2.11086
0.341169
2.22795
0.349925
2.35135
0.358801
2.48126
0.367745
2.61794
0.376708
2.76195
0.38564
2.91338
0.39449
3.07297
0.403214
3.24079
0.411767
3.41744
0.42011
3.60337
0.428206
3.79895
0.436025
4.00501
0.44354
4.22164
0.450728
4.44983
0.457573
4.69004
0.464061
4.9429
0.470185
5.20908
0.47594
5.48949
0.481324
5.78471
0.486341
6.09562
0.490998
6.42335
0.495304
6.76839
0.499269
7.13178
0.502923
7.51589
0.505408
5.88959
0.507873
6.47152
0.51023
7.11219
0.512522
7.81714
0.514677
8.59007
0.516698
9.43928
0.518581
10.3764
0.520131
0.313799
0.210226
0.30531
0.216816
0.294136
0.221776
0.280838
0.225584
0.266665
0.229049
0.253506
0.233457
0.243617
0.240383
0.238867
0.251617
0.240195
0.268453
0.247357
0.291511
0.258985
0.320417
0.272348
0.353843
0.283703
0.389269
0.290021
0.423496
0.291447
0.454239
0.29065
0.481913
0.289821
0.508992
0.289462
0.537421
0.289275
0.567698
0.289114
0.599692
0.289015
0.633413
0.289075
0.66895
0.289313
0.706521
0.289749
0.746215
0.29038
0.788171
0.291257
0.832446
0.292403
0.879243
0.293848
0.928695
0.29562
0.98076
0.297744
1.036
0.300253
1.09416
0.30315
1.15552
0.306451
1.22058
0.310183
1.28907
0.314346
1.3614
0.31894
1.43782
0.323972
1.51843
0.329416
1.60351
0.335258
1.69315
0.3415
1.78774
0.34811
1.88749
0.355061
1.99279
0.362322
2.1036
0.369868
2.22041
0.37764
2.34357
0.385595
2.47331
0.393709
2.60982
0.401925
2.75373
0.410195
2.90511
0.418473
3.06469
0.426722
3.23254
0.434874
3.40928
0.442885
3.59535
0.450739
3.79109
0.458387
3.99736
0.465797
4.21423
0.472939
4.44269
0.47979
4.68319
0.486344
4.93634
0.492557
5.20286
0.49842
5.48363
0.503951
5.77918
0.509134
6.09043
0.513985
6.4185
0.518482
6.7639
0.522628
7.12764
0.526465
7.51206
0.529127
5.88692
0.531717
6.46893
0.53425
7.10965
0.536718
7.81467
0.539042
8.58774
0.54121
0.355093
0.21371
0.349185
0.222724
0.340717
0.230244
0.329912
0.236388
0.31741
0.241551
0.304368
0.246499
0.29248
0.252272
0.283714
0.260382
0.279809
0.272359
0.281706
0.289614
0.289281
0.312842
0.301219
0.341905
0.314893
0.375596
0.326721
0.411667
0.333811
0.447149
0.335991
0.479733
0.335553
0.509431
0.334757
0.538217
0.334373
0.568082
0.334242
0.599823
0.334182
0.633473
0.334205
0.668926
0.334373
0.706353
0.334711
0.745877
0.335226
0.787656
0.33593
0.831742
0.336842
0.878331
0.337982
0.927555
0.33937
0.979371
0.341028
1.03434
0.342976
1.09222
0.345233
1.15326
0.34782
1.21799
0.350754
1.28614
0.354051
1.3581
0.357721
1.43414
0.361775
1.51438
0.366214
1.59907
0.37104
1.68833
0.376245
1.78253
0.381819
1.88192
0.387748
1.98686
0.394009
2.09734
0.400579
2.21384
0.407426
2.33673
0.414517
2.46622
0.421815
2.60253
0.42928
2.74627
0.436868
2.89752
0.444537
3.05702
0.45224
3.22484
0.459933
3.40159
0.467573
3.58771
0.475116
3.78355
0.482524
3.98996
0.48976
4.207
0.496788
4.43566
0.503582
4.6764
0.510113
4.92981
0.516362
5.19661
0.52231
5.47768
0.527944
5.77355
0.533256
6.08512
0.538242
6.41352
0.542902
6.75924
0.547237
7.1233
0.551255
7.50804
0.554041
5.88414
0.556792
6.46618
0.559494
0.562091
0.396061
0.215299
0.392602
0.226183
0.386756
0.23609
0.37848
0.244664
0.368021
0.25201
0.356067
0.258453
0.343688
0.264651
0.332443
0.271627
0.324155
0.280647
0.320515
0.293255
0.322517
0.31084
0.330148
0.334274
0.3422
0.363544
0.356177
0.397689
0.368683
0.434643
0.376772
0.471644
0.379902
0.506301
0.37996
0.538159
0.37923
0.568813
0.378815
0.600238
0.378721
0.633567
0.378727
0.66892
0.378796
0.706284
0.378963
0.74571
0.379291
0.787328
0.379757
0.831277
0.380412
0.877676
0.381246
0.926721
0.382289
0.978329
0.383549
1.03308
0.385064
1.0907
0.386842
1.15148
0.388909
1.21592
0.391262
1.28378
0.393927
1.35544
0.396914
1.43116
0.400228
1.51106
0.403894
1.5954
0.40791
1.68431
0.412287
1.77816
0.417003
1.8772
0.422063
1.9818
0.427455
2.09195
0.433154
2.20814
0.43916
2.33072
0.44545
2.45993
0.451973
2.596
0.458707
2.73953
0.465616
2.89061
0.472651
3.04999
0.479793
3.2177
0.48699
3.39439
0.494199
3.58051
0.501391
3.77636
0.508501
3.98285
0.515502
4.2
0.522357
4.42881
0.529019
4.66973
0.535485
4.92334
0.541714
5.19039
0.547698
5.4717
0.553391
5.76785
0.558779
6.07974
0.563878
6.40842
0.568673
6.75444
0.573172
7.1188
0.577337
0.58025
0.436458
0.215824
0.434998
0.227643
0.431736
0.239351
0.426116
0.250284
0.418091
0.260035
0.407943
0.268601
0.396314
0.27628
0.384245
0.283695
0.373201
0.291691
0.364939
0.301516
0.361104
0.314676
0.362822
0.332555
0.370182
0.356184
0.382145
0.385726
0.396341
0.420447
0.409529
0.458456
0.418716
0.497114
0.422873
0.534002
0.423505
0.56818
0.422906
0.600836
0.422492
0.633981
0.422453
0.66896
0.42258
0.706157
0.422761
0.745528
0.423014
0.787076
0.423384
0.830906
0.423863
0.877197
0.424495
0.926089
0.425287
0.977537
0.426267
1.0321
0.427427
1.08954
0.428823
1.15009
0.430434
1.21431
0.432307
1.28191
0.434449
1.3533
0.436873
1.42873
0.439593
1.50834
0.442632
1.59237
0.445975
1.68097
0.44963
1.7745
0.453621
1.87321
0.457937
1.97749
0.462574
2.08731
0.467523
2.20319
0.472774
2.32547
0.47831
2.45439
0.484109
2.5902
0.490148
2.73349
0.496398
2.88436
0.502838
3.04355
0.509399
3.21114
0.51609
3.3877
0.522838
3.57376
0.529602
3.76959
0.536368
3.97608
0.543083
4.19328
0.54971
4.42218
0.556227
4.66322
0.562573
4.917
0.568718
5.18424
0.574663
5.46575
0.580368
5.76215
0.585831
0.590994
0.59589
0.47687
0.216032
0.47647
0.228043
0.475234
0.240588
0.47229
0.253227
0.46706
0.265265
0.459374
0.276287
0.449526
0.286128
0.43812
0.295101
0.426166
0.303646
0.415035
0.312647
0.406471
0.32324
0.402137
0.336889
0.403279
0.355041
0.410144
0.378861
0.42185
0.408741
0.436224
0.444083
0.45008
0.483257
0.460347
0.523735
0.46558
0.562947
0.466822
0.599594
0.466357
0.634446
0.465911
0.669405
0.465874
0.706194
0.466101
0.745302
0.466374
0.786803
0.466705
0.830576
0.467119
0.876782
0.467645
0.925563
0.468298
0.976885
0.469089
1.03131
0.470047
1.08858
0.471158
1.14898
0.47247
1.213
0.47399
1.28039
0.475734
1.35156
0.477718
1.42675
0.479968
1.50609
0.482465
1.58987
0.485253
1.67818
0.488331
1.77142
0.491706
1.86984
0.495383
1.97381
0.499363
2.08333
0.503655
2.1989
0.508231
2.32089
0.513081
2.44954
0.518215
2.58507
0.523603
2.72811
0.529224
2.87874
0.535053
3.03772
0.541073
3.20512
0.547217
3.38156
0.553486
3.56749
0.559832
3.76325
0.566219
3.96969
0.572608
4.18689
0.578963
4.41583
0.585247
0.591425
0.597477
0.603334
0.518147
0.216268
0.518003
0.228186
0.517746
0.240845
0.51679
0.254183
0.514272
0.267783
0.509539
0.28102
0.502313
0.293354
0.492799
0.304615
0.481564
0.314881
0.469584
0.324627
0.458206
0.334618
0.449114
0.345981
0.44406
0.360095
0.444402
0.378519
0.450593
0.40255
0.461912
0.432763
0.476373
0.468797
0.490913
0.509195
0.502284
0.551577
0.508621
0.593257
0.510541
0.632527
0.510243
0.669703
0.509731
0.706706
0.509653
0.745379
0.509923
0.786533
0.510276
0.830223
0.510658
0.8764
0.511104
0.925118
0.511648
0.976341
0.512308
1.03065
0.513084
1.08781
0.514013
1.14805
0.515109
1.2119
0.516368
1.27913
0.517815
1.35011
0.519464
1.4251
0.52132
1.50424
0.523419
1.58777
0.525762
1.67584
0.528373
1.76881
0.531238
1.86697
0.534377
1.97067
0.537796
2.07991
0.541484
2.19521
0.545466
2.31691
0.549737
2.44527
0.554266
2.58054
0.559055
2.72332
0.564087
2.87371
0.569344
3.03246
0.574792
0.580429
0.586227
0.592128
0.598113
0.604147
0.560765
0.216484
0.560576
0.228375
0.560468
0.240954
0.560331
0.25432
0.559684
0.26843
0.557666
0.283038
0.553527
0.297493
0.546858
0.311284
0.537758
0.323981
0.526718
0.335666
0.514664
0.346673
0.502913
0.357731
0.493148
0.369861
0.48717
0.384497
0.486506
0.403215
0.491844
0.427425
0.502661
0.45798
0.517124
0.494731
0.53228
0.536421
0.544768
0.580769
0.552276
0.625019
0.554951
0.667028
0.554895
0.706761
0.554322
0.745952
0.554173
0.786683
0.554445
0.829952
0.55485
0.875994
0.555274
0.924694
0.555739
0.975875
0.556289
1.0301
0.556958
1.08714
0.557732
1.14727
0.558625
1.21101
0.559674
1.27808
0.560881
1.3489
0.562261
1.42372
0.563839
1.50266
0.565606
1.586
0.567586
0.56978
0.572221
0.574909
0.577849
0.581062
0.584525
0.588239
0.592226
0.596469
0.600956
0.60481
0.604624
0.604448
0.604379
0.604325
0.603955
0.602472
0.599018
0.59301
0.5844
0.573599
0.561464
0.549285
0.538742
0.531729
0.529888
0.534179
0.544345
0.558717
0.574435
0.588014
0.596747
0.600279
0.600518
0.599902
0.599658
0.599927
0.600372
0.600834
0.601304
0.601856
0.602506
0.603278
0.604159
0.605172
0.606331
0.607639
)
;

boundaryField
{
    inlet
    {
        type            calculated;
        value           nonuniform List<scalar> 
11
(
0.471986
0.936001
0.915756
0.900568
0.894456
0.903387
0.938084
1.00131
1.13727
1.18122
0.435758
)
;
    }
    outlet
    {
        type            calculated;
        value           nonuniform List<scalar> 0();
    }
    walls
    {
        type            calculated;
        value           uniform 0;
    }
    frontAndBack
    {
        type            empty;
    }
    procBoundary6to2
    {
        type            processor;
        value           nonuniform List<scalar> 
13
(
-0.162637
-0.178973
-0.209785
-0.24231
-0.280412
-0.319537
-0.358577
-0.397649
-0.436983
-0.477078
-0.518382
-0.560981
-0.604971
)
;
    }
    procBoundary6to3
    {
        type            processor;
        value           uniform 0.216646;
    }
    procBoundary6to5
    {
        type            processor;
        value           nonuniform List<scalar> 
86
(
-0.126566
-0.168115
-0.213207
-0.265952
-0.321282
-0.360648
-0.375942
-0.385044
-0.401447
-0.423869
-0.447988
-0.472379
-0.497398
-0.523655
-0.55135
-0.580542
-0.611265
-0.643515
-0.67743
-0.713072
-0.750501
-0.789826
-0.831105
-0.874543
-0.920063
-0.967997
-1.01802
-1.07082
-1.12621
-1.18431
-1.24521
-1.3093
-1.37641
-0.653221
-1.46986
-1.54356
-1.62125
-1.70262
-1.7882
-1.8781
-1.97272
-2.07216
-2.17669
-2.28682
-2.40267
-2.5245
-0.810558
-2.67088
-2.8062
-2.94882
-3.09899
-3.25762
-3.42455
-3.60056
-3.78629
-3.98224
-0.881346
-4.2084
-4.42689
-4.65725
-4.90024
-5.15647
-5.42696
-5.71191
-0.944645
-6.03855
-6.35692
-6.69288
-7.04745
-7.42174
-7.81521
-5.71374
-1.02377
-6.27417
-6.89458
-7.57428
-8.3224
-9.14464
-10.0464
-11.0375
-12.135
-13.3202
-0.632356
-14.6171
-16.0124
-17.7202
)
;
    }
    procBoundary6to7
    {
        type            processor;
        value           nonuniform List<scalar> 
91
(
18.4816
0.45274
16.5796
0.47775
15.1812
0.498309
13.76
11.3989
0.521917
12.5405
9.43711
0.543266
10.3743
7.10695
7.81207
0.564583
8.58525
7.50388
5.88122
0.583137
6.46329
6.07427
6.40325
6.74955
0.600497
7.11419
4.65693
4.91082
5.17819
5.4599
0.609007
5.75648
3.19967
3.37592
3.56169
3.75735
3.96371
4.18086
0.610194
4.40978
1.67386
1.76662
1.86453
1.96799
2.07697
2.192
2.31345
2.44156
2.57655
2.71908
2.86922
0.605677
3.02774
0.228561
0.241129
0.254389
0.268485
0.283407
0.298976
0.314738
0.329989
0.344276
0.357474
0.369866
0.382039
0.39504
0.410228
0.429266
0.453689
0.484566
0.52205
0.56505
0.61144
0.658295
0.70323
0.745712
0.787299
0.830196
0.875725
0.924248
0.975413
1.02963
1.08659
1.14662
1.21024
1.2772
1.34789
1.42256
1.50135
0.609131
1.58451
)
;
    }
}


// ************************************************************************* //
