/*--------------------------------*- C++ -*----------------------------------*\
| =========                 |                                                 |
| \\      /  F ield         | OpenFOAM: The Open Source CFD Toolbox           |
|  \\    /   O peration     | Version:  2506                                  |
|   \\  /    A nd           | Website:  www.openfoam.com                      |
|    \\/     M anipulation  |                                                 |
\*---------------------------------------------------------------------------*/
FoamFile
{
    version     2.0;
    format      ascii;
    arch        "LSB;label=32;scalar=64";
    class       volScalarField;
    location    "350";
    object      turbulenceProperties:k;
}
// * * * * * * * * * * * * * * * * * * * * * * * * * * * * * * * * * * * * * //

dimensions      [0 2 -2 0 0 0 0];

internalField   nonuniform List<scalar> 
1340
(
25.4101
20.123
14.8719
3.46601
9.51939
8.47276
7.38156
7.92742
12.1089
10.522
8.71065
9.78778
12.4544
11.7117
10.2501
11.0386
8.11292
10.0735
10.44
11.6201
1.85742
5.18107
8.34835
11.089
0.127697
0.852036
4.25903
8.89814
0.0540434
0.0991636
0.968523
5.33292
0
0.0311342
0.131061
2.12508
0
0.000164639
0.0163362
0.558922
0
0
0.00515606
0.143124
2.63766e-06
0
0.000813009
0.0492639
4.03225e-05
3.09148e-08
0.000264864
0.0164299
8.22311e-05
2.56411e-06
2.81176e-05
0.00415752
7.52317e-05
3.56201e-05
4.14403e-07
0.000308815
6.0317e-05
7.2005e-05
1.48111e-07
2.27762e-05
5.276e-05
7.89876e-05
3.68025e-07
3.4651e-10
5.12957e-05
6.70603e-05
2.54105e-05
5.27692e-07
5.16488e-05
5.48918e-05
5.15337e-05
6.36017e-06
5.1305e-05
4.84597e-05
5.53821e-05
2.60613e-05
4.98777e-05
4.59158e-05
4.98551e-05
4.04989e-05
4.78597e-05
4.4597e-05
4.42809e-05
4.37839e-05
4.5696e-05
4.31728e-05
4.06352e-05
4.16045e-05
4.35663e-05
4.13834e-05
3.82314e-05
3.82696e-05
4.14911e-05
3.93767e-05
3.62654e-05
3.52287e-05
3.94387e-05
3.73093e-05
3.43627e-05
3.26296e-05
3.73951e-05
3.52613e-05
3.24475e-05
3.03275e-05
3.53615e-05
3.32516e-05
3.05435e-05
2.82166e-05
3.3342e-05
3.1281e-05
2.86754e-05
2.62466e-05
3.13507e-05
2.93559e-05
2.68631e-05
2.44044e-05
2.93979e-05
2.74815e-05
2.51091e-05
2.26793e-05
2.74884e-05
2.56647e-05
2.34232e-05
2.10625e-05
2.56326e-05
2.39074e-05
2.18046e-05
1.95487e-05
2.52866e-05
2.38372e-05
2.22186e-05
2.02556e-05
1.8128e-05
2.34402e-05
2.21076e-05
2.06016e-05
1.87814e-05
1.6795e-05
2.16674e-05
2.04506e-05
1.90582e-05
1.73819e-05
1.55449e-05
1.99743e-05
1.88694e-05
1.75912e-05
1.60573e-05
1.43721e-05
1.83656e-05
1.73679e-05
1.62025e-05
1.48074e-05
1.32728e-05
1.68441e-05
1.59484e-05
1.4893e-05
1.36322e-05
1.22433e-05
1.54119e-05
1.4612e-05
1.36619e-05
1.25297e-05
1.12801e-05
1.40699e-05
1.33592e-05
1.2509e-05
1.14981e-05
1.03797e-05
1.28179e-05
1.21895e-05
1.1433e-05
1.05356e-05
9.53917e-06
1.16545e-05
1.11014e-05
1.04319e-05
9.63932e-06
8.75578e-06
1.05778e-05
1.00931e-05
9.5033e-06
8.80711e-06
8.02633e-06
9.58488e-06
9.16196e-06
8.64469e-06
8.03591e-06
7.34855e-06
8.97149e-06
8.67247e-06
8.30454e-06
7.85286e-06
7.32275e-06
6.71976e-06
8.09526e-06
7.83672e-06
7.51773e-06
7.12468e-06
6.66486e-06
6.13737e-06
7.29651e-06
7.07332e-06
6.79756e-06
6.45669e-06
6.05926e-06
5.59898e-06
6.57033e-06
6.37801e-06
6.14017e-06
5.84532e-06
5.50282e-06
5.10216e-06
5.91176e-06
5.7462e-06
5.54146e-06
5.28711e-06
4.99262e-06
4.64465e-06
5.31586e-06
5.17348e-06
4.99745e-06
4.77838e-06
4.52572e-06
4.22408e-06
4.77764e-06
4.65527e-06
4.50412e-06
4.31574e-06
4.09926e-06
3.83815e-06
4.29245e-06
4.18725e-06
4.05751e-06
3.89568e-06
3.71041e-06
3.48472e-06
3.85568e-06
3.76521e-06
3.65389e-06
3.51495e-06
3.35644e-06
3.16159e-06
3.52509e-06
3.463e-06
3.38516e-06
3.2896e-06
3.17033e-06
3.03474e-06
2.86668e-06
3.1641e-06
3.11035e-06
3.04329e-06
2.96122e-06
2.85883e-06
2.74277e-06
2.59793e-06
2.84061e-06
2.794e-06
2.73613e-06
2.66555e-06
2.57757e-06
2.47815e-06
2.35339e-06
2.55099e-06
2.51047e-06
2.46041e-06
2.39961e-06
2.32391e-06
2.23862e-06
2.13119e-06
2.29187e-06
2.25653e-06
2.21312e-06
2.16062e-06
2.0954e-06
2.02208e-06
1.92956e-06
2.05997e-06
2.0291e-06
1.99138e-06
1.94597e-06
1.88966e-06
1.8265e-06
1.74683e-06
1.85199e-06
1.82505e-06
1.7923e-06
1.75301e-06
1.7044e-06
1.64991e-06
1.58135e-06
1.68402e-06
1.66477e-06
1.64134e-06
1.61299e-06
1.57908e-06
1.53719e-06
1.49021e-06
1.43137e-06
1.51281e-06
1.49595e-06
1.47556e-06
1.45104e-06
1.42183e-06
1.38581e-06
1.3454e-06
1.29512e-06
1.35888e-06
1.34395e-06
1.32609e-06
1.30477e-06
1.27953e-06
1.24854e-06
1.21377e-06
1.17092e-06
1.22137e-06
1.20793e-06
1.19206e-06
1.17331e-06
1.15131e-06
1.12448e-06
1.09445e-06
1.05796e-06
1.09838e-06
1.08604e-06
1.07164e-06
1.05488e-06
1.0354e-06
1.01184e-06
9.8557e-07
9.54186e-07
9.92812e-07
9.81584e-07
9.68566e-07
9.53511e-07
9.36125e-07
9.1511e-07
8.91764e-07
8.64137e-07
9.0863e-07
8.98314e-07
8.86476e-07
8.72888e-07
8.57215e-07
8.38205e-07
8.17117e-07
7.93574e-07
8.44588e-07
8.36212e-07
8.25913e-07
8.1442e-07
8.01601e-07
7.87008e-07
7.69541e-07
7.49907e-07
7.28956e-07
7.80207e-07
7.71947e-07
7.61782e-07
7.50488e-07
7.38025e-07
7.23983e-07
7.07506e-07
6.89444e-07
6.71984e-07
7.12739e-07
7.04233e-07
6.94068e-07
6.82899e-07
6.7073e-07
6.57154e-07
6.41217e-07
6.22922e-07
6.03729e-07
6.58306e-07
6.50568e-07
6.41188e-07
6.30684e-07
6.1909e-07
6.06234e-07
5.91676e-07
5.76744e-07
5.65293e-07
5.82011e-07
5.73371e-07
5.63597e-07
5.53118e-07
5.41918e-07
5.29459e-07
5.14465e-07
4.95636e-07
4.74509e-07
5.57624e-07
5.50458e-07
5.4179e-07
5.31966e-07
5.21239e-07
5.09886e-07
4.98518e-07
4.90029e-07
4.89478e-07
4.5105e-07
4.42811e-07
4.33817e-07
4.24132e-07
4.13587e-07
4.01252e-07
3.8472e-07
3.62124e-07
3.34846e-07
5.17661e-07
5.12642e-07
5.06168e-07
4.98221e-07
4.89646e-07
4.81696e-07
4.78047e-07
4.8455e-07
5.0108e-07
4.03094e-07
4.02469e-07
3.99576e-07
3.94382e-07
3.87178e-07
3.77393e-07
3.64013e-07
3.5631e-07
3.42206e-07
6.96393e-07
6.80437e-07
6.80749e-07
6.80879e-07
6.80075e-07
6.79092e-07
6.80141e-07
6.93038e-07
7.2448e-07
7.40557e-07
7.4704e-07
7.42576e-07
7.46981e-07
7.52392e-07
7.57004e-07
7.61145e-07
7.67002e-07
7.8649e-07
8.1928e-07
8.1747e-07
1.26417e-06
1.06797e-06
1.08318e-06
1.09615e-06
1.1038e-06
1.11262e-06
1.12447e-06
1.14786e-06
1.16833e-06
9.99109e-07
15.1095
6.97535
3.09283
8.99458
12.0157
12.6212
11.2576
8.12812
4.17315
1.25896
0.211935
0.0425729
0.0142094
0.00360681
0.000167475
9.58105e-06
0
8.39466e-08
1.73907e-06
1.82256e-05
3.30789e-05
3.73859e-05
3.58409e-05
3.28848e-05
3.01481e-05
2.7857e-05
2.58638e-05
2.40558e-05
2.23773e-05
2.08144e-05
1.93594e-05
1.80048e-05
1.67445e-05
1.55682e-05
1.44685e-05
1.34403e-05
1.24768e-05
1.15735e-05
1.07262e-05
9.93128e-06
9.18514e-06
8.4851e-06
7.82945e-06
7.21482e-06
6.64005e-06
6.10324e-06
5.60247e-06
5.13622e-06
4.70287e-06
4.30093e-06
3.9289e-06
3.58511e-06
3.26819e-06
2.97656e-06
2.70873e-06
2.46322e-06
2.23856e-06
2.03334e-06
1.84616e-06
1.67572e-06
1.5207e-06
1.37968e-06
1.25121e-06
1.13368e-06
1.02652e-06
9.27489e-07
8.4077e-07
7.73864e-07
7.09972e-07
6.58563e-07
5.85137e-07
5.60185e-07
4.50368e-07
4.99127e-07
2.97329e-07
5.26231e-07
3.06149e-07
7.39797e-07
7.59519e-07
9.37173e-07
10.9556
10.3856
4.9839
2.7711
6.91025
9.34178
9.61574
7.97395
4.96383
1.90135
0.309411
0.0224993
0.0056313
0.00202807
0.000131378
9.41349e-06
0
2.35395e-08
4.99136e-07
9.61613e-06
2.02571e-05
2.43079e-05
2.41165e-05
2.26658e-05
2.12073e-05
1.99664e-05
1.88678e-05
1.78403e-05
1.68548e-05
1.5909e-05
1.50045e-05
1.41415e-05
1.33202e-05
1.25366e-05
1.17885e-05
1.10751e-05
1.03933e-05
9.74238e-06
9.12078e-06
8.52734e-06
7.96088e-06
7.42068e-06
6.90678e-06
6.41746e-06
5.9531e-06
5.51329e-06
5.0973e-06
4.70486e-06
4.33556e-06
3.9889e-06
3.66442e-06
3.36137e-06
3.07917e-06
2.81706e-06
2.57421e-06
2.34978e-06
2.14285e-06
1.9525e-06
1.77775e-06
1.61768e-06
1.4713e-06
1.33748e-06
1.21507e-06
1.10267e-06
9.99852e-07
9.04604e-07
8.20491e-07
7.55306e-07
6.91989e-07
6.4346e-07
5.6969e-07
5.48682e-07
4.36584e-07
4.90579e-07
2.84953e-07
5.16476e-07
2.95328e-07
7.21391e-07
7.37506e-07
7.14444
8.62399
6.92171
3.04762
2.29769
5.71848
7.69548
7.76073
6.07951
3.3549
0.99451
0.0914093
0.00390613
0.000568472
1.04463e-07
5.30137e-09
0
1.15763e-09
2.41429e-08
4.03601e-06
1.12242e-05
1.48186e-05
1.52953e-05
1.47287e-05
1.40893e-05
1.357e-05
1.31272e-05
1.27049e-05
1.22754e-05
1.18342e-05
1.13828e-05
1.09245e-05
1.04629e-05
9.9988e-06
9.53421e-06
9.07181e-06
8.61271e-06
8.15963e-06
7.71365e-06
7.27654e-06
6.84943e-06
6.43379e-06
6.03109e-06
5.64132e-06
5.26608e-06
4.90602e-06
4.56136e-06
4.23273e-06
3.92037e-06
3.62448e-06
3.34516e-06
3.08219e-06
2.83553e-06
2.60479e-06
2.3896e-06
2.1895e-06
2.00391e-06
1.83225e-06
1.67381e-06
1.52793e-06
1.39389e-06
1.2708e-06
1.15775e-06
1.05349e-06
9.57724e-07
8.68708e-07
7.89408e-07
7.28032e-07
6.67011e-07
6.2265e-07
5.50367e-07
5.33142e-07
4.22435e-07
4.78165e-07
2.78179e-07
5.0368e-07
2.93669e-07
7.06022e-07
4.68612
6.3883
6.58716
4.88957
1.92256
1.92211
4.70539
6.32044
6.33687
4.8393
2.50805
0.662867
0.051071
0.000343003
0.00014099
0
0
0
1.05033e-07
2.13838e-06
7.91047e-06
1.17438e-05
1.25538e-05
1.2086e-05
1.14454e-05
1.09424e-05
1.05536e-05
1.02128e-05
9.88588e-06
9.56253e-06
9.23901e-06
8.91413e-06
8.58777e-06
8.25836e-06
7.92562e-06
7.59017e-06
7.25263e-06
6.91464e-06
6.57706e-06
6.24147e-06
5.90917e-06
5.58175e-06
5.26062e-06
4.94645e-06
4.64095e-06
4.34489e-06
4.05899e-06
3.78417e-06
3.52085e-06
3.26956e-06
3.0307e-06
2.80426e-06
2.59053e-06
2.38934e-06
2.20059e-06
2.02408e-06
1.85946e-06
1.70637e-06
1.56435e-06
1.43292e-06
1.31158e-06
1.19963e-06
1.09638e-06
1.00076e-06
9.12478e-07
8.3012e-07
7.56073e-07
6.9926e-07
6.41202e-07
6.01163e-07
5.30697e-07
5.17173e-07
4.08429e-07
4.65752e-07
2.72068e-07
4.9201e-07
2.91195e-07
2.84525
4.43279
5.37436
5.17351
3.70947
1.39454
1.55689
3.80733
5.15913
5.20226
3.95085
2.0099
0.523659
0.0383226
0.000556791
0.000206574
0
0
0
2.29118e-07
4.08354e-06
9.15687e-06
1.04525e-05
1.01905e-05
9.6783e-06
9.22696e-06
8.87338e-06
8.57438e-06
8.29163e-06
8.013e-06
7.73744e-06
7.4655e-06
7.19703e-06
6.93087e-06
6.66595e-06
6.40161e-06
6.13765e-06
5.87434e-06
5.61155e-06
5.3498e-06
5.08972e-06
4.83203e-06
4.57751e-06
4.32676e-06
4.08092e-06
3.84058e-06
3.60652e-06
3.37963e-06
3.1603e-06
2.94922e-06
2.74693e-06
2.55364e-06
2.36974e-06
2.19533e-06
2.03054e-06
1.87536e-06
1.72967e-06
1.59332e-06
1.46607e-06
1.3476e-06
1.23762e-06
1.13562e-06
1.04112e-06
9.5321e-07
8.71611e-07
7.9523e-07
7.25852e-07
6.73076e-07
6.17638e-07
5.81365e-07
5.1247e-07
5.02293e-07
3.95086e-07
4.54478e-07
2.65377e-07
4.82617e-07
1.41909
2.74748
3.91717
4.50512
4.22062
3.01005
1.15053
1.19944
3.07404
4.25652
4.35817
3.3454
1.73235
0.472122
0.0426324
0.000810739
0.00020217
0
0
0
2.35838e-07
3.97533e-06
7.77517e-06
7.92065e-06
7.42146e-06
7.10907e-06
6.89817e-06
6.72046e-06
6.55722e-06
6.39349e-06
6.22345e-06
6.04846e-06
5.8702e-06
5.68908e-06
5.50486e-06
5.31754e-06
5.12764e-06
4.93569e-06
4.74177e-06
4.54645e-06
4.35036e-06
4.1539e-06
3.9578e-06
3.7626e-06
3.56914e-06
3.37799e-06
3.1899e-06
3.00568e-06
2.82579e-06
2.65092e-06
2.48174e-06
2.3186e-06
2.16199e-06
2.01217e-06
1.86949e-06
1.73406e-06
1.60597e-06
1.48524e-06
1.37181e-06
1.26554e-06
1.16627e-06
1.07368e-06
9.87459e-07
9.06882e-07
8.31678e-07
7.61043e-07
6.9614e-07
6.47141e-07
5.94187e-07
5.61474e-07
4.94203e-07
4.87294e-07
3.81575e-07
4.43266e-07
0.469878
1.36251
2.458
3.38036
3.81941
3.56903
2.5889
1.064
0.85798
2.46256
3.53576
3.70963
2.9182
1.57197
0.467887
0.0543805
0.000265207
5.03626e-05
0
0
0
2.2235e-07
3.63333e-06
6.47509e-06
6.1871e-06
5.59391e-06
5.37281e-06
5.26398e-06
5.15406e-06
5.04665e-06
4.94273e-06
4.8366e-06
4.72682e-06
4.61367e-06
4.49639e-06
4.37424e-06
4.24727e-06
4.1158e-06
3.97997e-06
3.84033e-06
3.69743e-06
3.55172e-06
3.40399e-06
3.25479e-06
3.10484e-06
2.95485e-06
2.80549e-06
2.65754e-06
2.51152e-06
2.36814e-06
2.22806e-06
2.09172e-06
1.95969e-06
1.83231e-06
1.71001e-06
1.59302e-06
1.48157e-06
1.37577e-06
1.2757e-06
1.18133e-06
1.09263e-06
1.00942e-06
9.31511e-07
8.58366e-07
7.89686e-07
7.24963e-07
6.64713e-07
6.19647e-07
5.69351e-07
5.40319e-07
4.74918e-07
4.71415e-07
0.0624341
0.425355
1.18356
2.10539
2.88646
3.27568
3.10474
2.32828
1.06985
0.544404
1.93835
2.93649
3.18642
2.59464
1.47206
0.488425
0.0660692
0.00053669
6.88122e-05
0
0
0
1.68152e-07
2.62591e-06
5.38149e-06
5.1093e-06
4.47266e-06
4.28043e-06
4.22511e-06
4.14577e-06
4.05542e-06
3.9709e-06
3.88922e-06
3.80672e-06
3.72227e-06
3.63507e-06
3.54448e-06
3.4503e-06
3.35224e-06
3.25037e-06
3.14488e-06
3.03598e-06
2.92422e-06
2.80997e-06
2.69378e-06
2.57629e-06
2.45802e-06
2.33965e-06
2.22169e-06
2.10478e-06
1.98953e-06
1.87639e-06
1.76594e-06
1.65851e-06
1.55459e-06
1.45445e-06
1.35838e-06
1.26657e-06
1.17916e-06
1.09619e-06
1.01772e-06
9.43692e-07
8.73985e-07
8.08245e-07
7.46115e-07
6.87385e-07
6.31918e-07
5.90932e-07
5.4345e-07
0.000539053
0.045739
0.330889
0.954906
1.74424
2.44182
2.82805
2.75047
2.15438
1.11821
0.281342
1.48542
2.42813
2.75148
2.3356
1.4069
0.51664
0.0830371
0.00175417
0.000125221
0
0
0
9.27128e-08
1.37169e-06
4.22323e-06
4.28693e-06
3.65401e-06
3.43891e-06
3.41685e-06
3.37586e-06
3.3084e-06
3.24152e-06
3.17845e-06
3.11515e-06
3.0498e-06
2.98191e-06
2.9114e-06
2.83788e-06
2.76123e-06
2.68145e-06
2.59861e-06
2.51297e-06
2.42475e-06
2.33432e-06
2.24206e-06
2.14841e-06
2.0539e-06
1.9589e-06
1.86398e-06
1.76966e-06
1.67631e-06
1.5845e-06
1.49453e-06
1.40686e-06
1.32181e-06
1.23964e-06
1.16061e-06
1.08488e-06
1.01255e-06
9.43726e-07
8.78403e-07
8.16552e-07
7.57968e-07
7.02216e-07
6.49384e-07
0.000133389
0.000207149
0.025153
0.224492
0.718276
1.39674
2.03885
2.44179
2.4588
2.0232
1.17826
0.17344
1.0938
1.99109
2.38012
2.11852
1.3574
0.547704
0.104107
0.00411859
0.000182221
0
0
0
2.86669e-08
3.71173e-07
3.05522e-06
3.64009e-06
3.07578e-06
2.80096e-06
2.76407e-06
2.74461e-06
2.69956e-06
2.64998e-06
2.60325e-06
2.55644e-06
2.50748e-06
2.45607e-06
2.40201e-06
2.34513e-06
2.28537e-06
2.22274e-06
2.15739e-06
2.08951e-06
2.01932e-06
1.94712e-06
1.87321e-06
1.79805e-06
1.7219e-06
1.64521e-06
1.56843e-06
1.49187e-06
1.41603e-06
1.3412e-06
1.26776e-06
1.19605e-06
1.12632e-06
1.05883e-06
9.93758e-07
9.31224e-07
8.71362e-07
8.14207e-07
0
9.40963e-05
0.000288581
0.0106755
0.13204
0.500431
1.07432
1.67012
2.09503
2.20133
1.90954
1.23359
0.309301
0.755472
1.61094
2.05519
1.92759
1.31308
0.579147
0.128521
0.00795009
0.000259224
4.21168e-07
0
0
3.49993e-10
1.19118e-07
1.72067e-06
2.88842e-06
2.60276e-06
2.32268e-06
2.26318e-06
2.24916e-06
2.21787e-06
2.18026e-06
2.14445e-06
2.10876e-06
2.07139e-06
2.03189e-06
1.99007e-06
1.94574e-06
1.89881e-06
1.84934e-06
1.79745e-06
1.74328e-06
1.68704e-06
1.62899e-06
1.56946e-06
1.50868e-06
1.447e-06
1.38481e-06
1.32237e-06
1.26009e-06
1.19824e-06
1.13716e-06
1.07714e-06
1.01843e-06
0
0
9.29513e-06
4.81205e-05
0.00277375
0.0658881
0.318412
0.785678
1.33196
1.77451
1.96117
1.79841
1.27459
0.479351
0.463748
1.27643
1.76465
1.75222
1.26859
0.608297
0.155258
0.0135636
7.2201e-05
1.03484e-05
0
0
0
7.95683e-08
1.16985e-06
2.2724e-06
2.18458e-06
1.94249e-06
1.87209e-06
1.86003e-06
1.83786e-06
1.80858e-06
1.7802e-06
1.75209e-06
1.72256e-06
1.69118e-06
1.6578e-06
1.62229e-06
1.5846e-06
1.54476e-06
1.50285e-06
1.45899e-06
1.41338e-06
1.36626e-06
1.31783e-06
1.26834e-06
6.68054e-08
6.25834e-13
0
8.7135e-09
0.000341444
0.00030352
0.0262057
0.181072
0.539266
1.02512
1.47415
1.72874
1.68084
1.29496
0.627385
0.217864
0.980201
1.50066
1.58651
1.22076
0.633105
0.183997
0.0210904
1.59943e-05
3.74089e-06
0
0
0
5.02703e-08
7.15564e-07
1.78556e-06
1.84317e-06
1.63222e-06
1.55616e-06
1.5468e-06
1.53187e-06
1.50843e-06
1.48521e-06
)
;

boundaryField
{
    inlet
    {
        type            calculated;
        value           nonuniform List<scalar> 
11
(
5.59399e-06
5.30241e-06
5.42965e-06
5.54772e-06
5.65236e-06
5.74535e-06
5.83251e-06
5.92019e-06
6.024e-06
5.78984e-06
6.09984e-06
)
;
    }
    outlet
    {
        type            calculated;
        value           nonuniform List<scalar> 0();
    }
    walls
    {
        type            calculated;
        value           uniform 0;
    }
    frontAndBack
    {
        type            empty;
    }
    procBoundary6to2
    {
        type            processor;
        value           nonuniform List<scalar> 
13
(
10.4382
6.28195
3.96634
2.38972
1.1822
0.397852
0.0573825
0.000597514
0.000263137
0
0
5.5051e-08
9.34546e-07
)
;
    }
    procBoundary6to3
    {
        type            processor;
        value           uniform 1.10945e-06;
    }
    procBoundary6to5
    {
        type            processor;
        value           nonuniform List<scalar> 
86
(
29.3054
11.0169
14.1343
12.6384
5.00825
0.198563
0.0217299
0.00313995
0
0
3.28174e-06
5.34017e-05
7.84081e-05
6.74497e-05
6.01742e-05
5.95125e-05
5.97803e-05
5.86059e-05
5.64502e-05
5.414e-05
5.19908e-05
4.99702e-05
4.79713e-05
4.59335e-05
4.38505e-05
4.17366e-05
3.96074e-05
3.74784e-05
3.53612e-05
3.32642e-05
3.11983e-05
2.91741e-05
2.72005e-05
2.72005e-05
2.66023e-05
2.46297e-05
2.27384e-05
2.09342e-05
1.92219e-05
1.76048e-05
1.60849e-05
1.46629e-05
1.33383e-05
1.21097e-05
1.09746e-05
9.92981e-06
9.92981e-06
9.20922e-06
8.30013e-06
7.47291e-06
6.72216e-06
6.04243e-06
5.42827e-06
4.87443e-06
4.37584e-06
3.92758e-06
3.92758e-06
3.57378e-06
3.20645e-06
2.87757e-06
2.58336e-06
2.32032e-06
2.085e-06
1.87397e-06
1.87397e-06
1.69952e-06
1.52653e-06
1.37118e-06
1.23258e-06
1.10879e-06
1.00215e-06
9.16966e-07
9.16966e-07
8.51893e-07
7.87517e-07
7.20514e-07
6.65607e-07
5.90186e-07
5.65571e-07
4.57552e-07
5.27823e-07
3.96863e-07
3.96863e-07
6.43091e-07
7.43646e-07
9.60356e-07
)
;
    }
    procBoundary6to7
    {
        type            processor;
        value           nonuniform List<scalar> 
91
(
9.39442e-07
9.39442e-07
7.13881e-07
7.13881e-07
6.92291e-07
6.92291e-07
2.88876e-07
2.58115e-07
2.88876e-07
4.73878e-07
3.67371e-07
2.58115e-07
4.31568e-07
5.1818e-07
4.54854e-07
3.67371e-07
4.54843e-07
5.9868e-07
5.61767e-07
5.1818e-07
5.17143e-07
7.59782e-07
7.08024e-07
6.5841e-07
5.9868e-07
6.11315e-07
9.61281e-07
9.05859e-07
8.52287e-07
8.00702e-07
7.59782e-07
7.51176e-07
1.21811e-06
1.16739e-06
1.11648e-06
1.06564e-06
1.01516e-06
9.65281e-07
9.61281e-07
9.16248e-07
1.46263e-06
1.43896e-06
1.41362e-06
1.38652e-06
1.35758e-06
1.32678e-06
1.29416e-06
1.25981e-06
1.22385e-06
1.18648e-06
1.14784e-06
1.21811e-06
1.10815e-06
7.93077e-09
4.84334e-10
0
0
4.036e-05
8.35929e-05
0.00695305
0.0878901
0.339665
0.751411
1.19086
1.49854
1.55127
1.29123
0.745323
0.0791731
0.717828
1.25837
1.42686
1.16745
0.652437
0.212469
0.0288368
0.000245035
2.91345e-05
0
0
0
2.68413e-08
3.63185e-07
1.39704e-06
1.56812e-06
1.37576e-06
1.29047e-06
1.28443e-06
1.27846e-06
1.46263e-06
1.26136e-06
)
;
    }
}


// ************************************************************************* //
