/*--------------------------------*- C++ -*----------------------------------*\
| =========                 |                                                 |
| \\      /  F ield         | OpenFOAM: The Open Source CFD Toolbox           |
|  \\    /   O peration     | Version:  2506                                  |
|   \\  /    A nd           | Website:  www.openfoam.com                      |
|    \\/     M anipulation  |                                                 |
\*---------------------------------------------------------------------------*/
FoamFile
{
    version     2.0;
    format      ascii;
    arch        "LSB;label=32;scalar=64";
    class       volVectorField;
    location    "350";
    object      U;
}
// * * * * * * * * * * * * * * * * * * * * * * * * * * * * * * * * * * * * * //

dimensions      [0 1 -1 0 0 0 0];

internalField   nonuniform List<vector> 
1340
(
(13.5758 -2.20836 -5.02612e-16)
(11.7298 -2.06516 8.64046e-16)
(9.7304 -1.81411 2.14876e-15)
(3.626 -1.08758 1.55578e-14)
(17.1173 -2.77919 -4.99516e-15)
(15.1474 -2.63222 1.5799e-15)
(13.0623 -2.36409 -6.5892e-16)
(7.02077 -1.46968 4.25011e-15)
(20.4297 -3.21315 1.06787e-14)
(18.023 -3.02163 -2.38963e-15)
(15.5349 -2.65238 -3.71767e-16)
(9.73626 -1.88296 -6.16539e-15)
(24.0034 -3.63011 -2.50206e-15)
(21.0726 -3.39161 3.31658e-15)
(18.086 -2.90944 6.55268e-16)
(12.3166 -2.20142 3.03004e-15)
(27.5878 -3.97617 3.56924e-16)
(24.2457 -3.73085 4.74736e-16)
(20.7865 -3.16194 -4.467e-17)
(14.9227 -2.46949 -3.72694e-15)
(30.0273 -4.13067 -3.40894e-15)
(27.0851 -3.9694 -4.23873e-15)
(23.5142 -3.38236 -3.57669e-17)
(17.5835 -2.71528 1.0179e-15)
(30.252 -4.01995 6.92436e-15)
(28.6133 -4.00909 1.10049e-15)
(25.8265 -3.51124 -6.54775e-17)
(20.1972 -2.92656 6.53889e-16)
(29.3634 -3.79841 -7.52106e-15)
(28.5119 -3.85061 1.75454e-15)
(27.1016 -3.48922 2.31752e-16)
(22.4576 -3.0639 1.83603e-15)
(28.8608 -3.62185 2.76277e-15)
(27.8187 -3.64095 -1.48774e-15)
(27.2409 -3.33284 -7.49301e-16)
(23.9933 -3.08608 -1.38193e-15)
(28.8614 -3.4897 -1.28677e-15)
(27.4797 -3.48135 1.41195e-15)
(26.8416 -3.13443 2.41195e-16)
(24.7096 -2.99202 -1.67521e-15)
(28.9718 -3.36169 -7.59541e-16)
(27.5278 -3.35898 -1.86288e-15)
(26.5205 -2.96216 1.02262e-16)
(24.8902 -2.82147 7.49338e-16)
(29.0099 -3.2228 -1.18252e-15)
(27.6678 -3.2354 -1.22083e-15)
(26.4498 -2.82394 -8.7105e-17)
(24.9079 -2.62527 1.60211e-15)
(28.9899 -3.0759 4.22714e-15)
(27.7465 -3.09607 6.38606e-17)
(26.5169 -2.69886 3.63633e-16)
(24.9618 -2.43405 -1.6238e-15)
(28.9587 -2.92471 -5.53484e-15)
(27.7658 -2.9455 1.86561e-15)
(26.5986 -2.5705 1.81642e-16)
(25.0782 -2.25654 1.69903e-15)
(28.9345 -2.76997 4.13452e-15)
(27.7672 -2.79006 -8.90221e-16)
(26.6531 -2.43472 -7.48518e-16)
(25.2196 -2.08941 -1.64625e-15)
(28.9153 -2.61119 -3.14457e-16)
(27.7733 -2.63211 8.03265e-17)
(26.6884 -2.29389 8.36876e-16)
(25.3559 -1.92799 4.90595e-16)
(28.8964 -2.44835 -8.07292e-16)
(27.7864 -2.47144 3.3838e-16)
(26.7208 -2.15024 1.33969e-17)
(25.4794 -1.77027 -1.47932e-16)
(28.8759 -2.28172 -3.2311e-16)
(27.8023 -2.3076 3.15932e-16)
(26.7577 -2.00472 -7.3497e-16)
(25.5936 -1.61604 3.39933e-16)
(28.8538 -2.11168 2.01755e-15)
(27.8178 -2.14072 -7.06201e-16)
(26.7992 -1.8575 -5.47947e-16)
(25.7028 -1.46547 5.06874e-16)
(28.8303 -1.93852 -1.99168e-16)
(27.8322 -1.9711 1.4262e-16)
(26.8435 -1.70833 9.9481e-17)
(25.8092 -1.31842 -1.27246e-16)
(28.8054 -1.76261 6.20042e-17)
(27.8453 -1.7992 6.4325e-16)
(26.8888 -1.55733 8.86917e-16)
(25.9127 -1.17476 -1.6295e-16)
(28.7789 -1.58432 1.0221e-15)
(27.8572 -1.62545 -6.68996e-16)
(26.9343 -1.40469 -2.63755e-16)
(26.0128 -1.03387 -3.76432e-17)
(28.7505 -1.40406 -1.99419e-15)
(27.8676 -1.45025 6.47487e-16)
(26.9795 -1.25073 2.45656e-16)
(26.1092 -0.895559 -3.17777e-17)
(28.7202 -1.22233 2.97592e-16)
(27.8763 -1.27395 -3.31982e-16)
(27.024 -1.09559 -3.31199e-16)
(26.2015 -0.759236 3.79537e-17)
(28.6876 -1.03963 3.06091e-16)
(27.8831 -1.09705 9.30482e-16)
(27.0673 -0.939685 6.25489e-16)
(26.2895 -0.624716 -1.72943e-16)
(28.6527 -0.856453 5.68399e-16)
(27.8875 -0.919928 -4.54426e-16)
(27.1089 -0.783191 -9.6848e-16)
(26.3733 -0.491665 1.39742e-16)
(28.6153 -0.673452 -5.65395e-16)
(27.8893 -0.743153 -1.41814e-15)
(27.1482 -0.626612 -1.06786e-16)
(26.4525 -0.359992 -1.61778e-16)
(28.5754 -0.491123 -5.02663e-16)
(27.8885 -0.567023 7.78661e-16)
(27.1849 -0.470082 -1.58693e-16)
(26.527 -0.229388 2.92773e-16)
(28.5327 -0.310073 8.52637e-16)
(27.8845 -0.392162 5.57997e-16)
(27.2185 -0.31411 6.74468e-16)
(26.5967 -0.0997275 -2.46929e-16)
(28.4873 -0.130952 -9.643e-16)
(27.8774 -0.218936 -6.26495e-16)
(27.2485 -0.158937 -3.75623e-16)
(26.6614 0.0291143 5.95195e-16)
(28.4391 0.0457199 1.16282e-15)
(27.8668 -0.0479001 9.49363e-16)
(27.2747 -0.00503013 9.7916e-16)
(26.721 0.157213 -1.05329e-15)
(28.3881 0.219344 -5.53374e-16)
(27.8528 0.120575 -6.29195e-16)
(27.2967 0.147275 -5.94173e-16)
(26.7753 0.28446 4.32661e-16)
(28.3343 0.389333 -3.0477e-16)
(27.8351 0.285974 8.67925e-16)
(27.3144 0.297638 -2.4788e-16)
(26.8241 0.410838 -2.41175e-16)
(28.7027 0.741971 1.27927e-15)
(28.2778 0.555216 4.8625e-16)
(27.8138 0.447854 -2.74044e-16)
(27.3275 0.445614 1.01236e-15)
(26.8674 0.536188 1.56329e-16)
(28.6111 0.899491 -1.41666e-15)
(28.2188 0.716454 5.04923e-16)
(27.7888 0.60583 -1.11876e-15)
(27.336 0.590879 -7.01032e-16)
(26.9051 0.660312 -5.38334e-16)
(28.5184 1.05136 3.45633e-16)
(28.1573 0.872625 -5.87435e-16)
(27.7601 0.75949 2.76942e-16)
(27.3396 0.733078 -1.00399e-17)
(26.937 0.783003 1.894e-16)
(28.4247 1.19721 -2.03799e-16)
(28.0936 1.02335 5.623e-17)
(27.7279 0.908474 7.50909e-16)
(27.3386 0.871877 3.90844e-16)
(26.9633 0.90401 6.44127e-16)
(28.3304 1.33676 6.2467e-16)
(28.0279 1.16826 -9.80441e-17)
(27.6923 1.05244 -7.63714e-16)
(27.3328 1.00694 5.04542e-16)
(26.9839 1.02305 -2.41334e-16)
(28.2358 1.46981 -8.99645e-16)
(27.9604 1.30711 2.12468e-16)
(27.6533 1.19112 7.49988e-16)
(27.3224 1.13798 1.26484e-16)
(26.9989 1.13983 5.45054e-17)
(28.1414 1.59619 -4.14149e-16)
(27.8913 1.43965 -5.36145e-16)
(27.6113 1.32426 -5.61566e-16)
(27.3075 1.26473 -1.1733e-15)
(27.0084 1.25406 -3.07875e-16)
(28.0473 1.71581 3.65232e-16)
(27.821 1.56575 -3.35846e-17)
(27.5665 1.45165 2.86817e-16)
(27.2884 1.38694 4.84449e-16)
(27.0127 1.36546 -2.30368e-16)
(27.9538 1.82865 4.47609e-16)
(27.7498 1.6853 8.18529e-16)
(27.519 1.57316 1.08469e-16)
(27.2653 1.50441 3.84984e-16)
(27.0119 1.47374 -1.30054e-17)
(27.8613 1.93475 -4.92104e-17)
(27.6778 1.79827 -3.83466e-16)
(27.4693 1.68866 -4.72001e-16)
(27.2384 1.61696 4.57728e-17)
(27.0062 1.57865 5.83301e-16)
(27.7701 2.0342 -7.28674e-16)
(27.6055 1.90467 2.83257e-16)
(27.4176 1.79811 3.79882e-16)
(27.2081 1.72445 -3.59326e-16)
(26.996 1.67995 -5.84889e-16)
(27.6802 2.12713 2.6114e-17)
(27.533 2.00458 4.90158e-16)
(27.3643 1.90151 1.00744e-16)
(27.1747 1.82679 3.01765e-16)
(26.9814 1.77742 2.50427e-17)
(27.7028 2.34157 4.43938e-18)
(27.5921 2.21372 -9.87445e-17)
(27.4607 2.09811 -1.56786e-16)
(27.3095 1.99887 5.15367e-16)
(27.1384 1.92392 -4.14019e-16)
(26.963 1.87089 5.89148e-16)
(27.604 2.41312 1.14497e-16)
(27.5057 2.29419 1.33874e-16)
(27.3888 2.18541 1.49252e-16)
(27.2537 2.0903 -6.72587e-16)
(27.0997 2.0158 4.26058e-17)
(26.9409 1.96021 -5.04219e-16)
(27.5084 2.47921 -8.72222e-17)
(27.4214 2.36877 2.41003e-16)
(27.3176 2.26669 3.42694e-18)
(27.1971 2.17589 -2.86798e-16)
(27.0589 2.10248 4.11784e-16)
(26.9156 2.04528 2.04495e-16)
(27.4162 2.54013 -3.13155e-16)
(27.3392 2.43773 -1.66346e-16)
(27.2472 2.34215 -3.67947e-16)
(27.14 2.2558 3.93222e-16)
(27.0163 2.18399 -6.13298e-16)
(26.8873 2.12603 -2.24842e-16)
(27.3271 2.59615 3.7007e-16)
(27.2593 2.50134 6.23777e-17)
(27.1779 2.41205 4.21346e-16)
(27.0828 2.33022 -4.5296e-16)
(26.9722 2.26042 -3.04179e-17)
(26.8565 2.20242 1.51969e-16)
(27.2414 2.64757 -1.48937e-16)
(27.1816 2.55989 1.37355e-16)
(27.1098 2.47662 6.53819e-17)
(27.0255 2.39932 4.69247e-17)
(26.927 2.33188 1.59126e-16)
(26.8235 2.27446 4.18694e-16)
(27.1589 2.69467 2.48894e-17)
(27.1063 2.61368 -3.43695e-17)
(27.043 2.53617 -1.32892e-16)
(26.9685 2.46335 3.98222e-17)
(26.8809 2.39852 -1.17626e-16)
(26.7885 2.34217 -3.46227e-16)
(27.0795 2.73775 -6.47983e-16)
(27.0334 2.66298 -3.66215e-17)
(26.9777 2.59094 -2.15523e-17)
(26.912 2.52252 2.40861e-16)
(26.8342 2.46049 3.86749e-16)
(26.752 2.40562 6.23073e-17)
(27.0033 2.77706 1.98475e-16)
(26.9628 2.7081 -7.77006e-17)
(26.914 2.64122 1.00301e-16)
(26.8561 2.57709 -4.35199e-16)
(26.7872 2.51798 -3.12363e-16)
(26.7143 2.4649 -2.96438e-16)
(26.959 2.87749 -1.44956e-16)
(26.9302 2.81289 -2.29275e-16)
(26.8947 2.74931 7.31761e-17)
(26.8518 2.68729 1.62327e-16)
(26.801 2.6273 2.85838e-16)
(26.7401 2.57117 8.14298e-17)
(26.6755 2.52013 4.90822e-16)
(26.8852 2.90485 2.20649e-16)
(26.8599 2.84547 -1.53297e-16)
(26.8289 2.78687 1.98192e-16)
(26.7914 2.72942 5.33471e-17)
(26.7468 2.6734 -8.49437e-17)
(26.6931 2.62027 -2.00629e-16)
(26.6361 2.57143 6.27107e-17)
(26.8146 2.92964 -1.60808e-16)
(26.7926 2.87506 3.00759e-16)
(26.7655 2.82106 2.58439e-17)
(26.7327 2.76788 -3.93718e-16)
(26.6936 2.71563 3.86695e-16)
(26.6463 2.66548 -1.93072e-16)
(26.5961 2.61896 -2.09747e-16)
(26.7471 2.95207 -2.4714e-16)
(26.7279 2.90188 -5.77395e-18)
(26.7044 2.85212 -3.48277e-17)
(26.6757 2.8029 4.49622e-16)
(26.6416 2.75425 9.73659e-18)
(26.6 2.70701 -3.22709e-16)
(26.5559 2.66287 5.66652e-16)
(26.6826 2.97231 -5.55067e-17)
(26.6659 2.92614 7.50594e-17)
(26.6454 2.88027 4.58557e-17)
(26.6205 2.83475 -1.22825e-16)
(26.5907 2.78948 2.13263e-16)
(26.5543 2.74509 -2.47829e-16)
(26.5156 2.70333 9.37582e-17)
(26.6209 2.99053 -2.45256e-17)
(26.6065 2.94803 -1.63244e-16)
(26.5887 2.90574 1.94992e-17)
(26.567 2.86364 -9.24887e-17)
(26.5411 2.82155 3.51383e-17)
(26.5092 2.7799 -2.3824e-16)
(26.4754 2.74052 2.29212e-16)
(26.5619 3.0069 1.08628e-16)
(26.5494 2.96773 -5.7277e-17)
(26.534 2.92873 -7.49106e-17)
(26.5152 2.88979 3.82368e-16)
(26.4927 2.85068 2.74639e-16)
(26.4648 2.81166 -1.86246e-16)
(26.4354 2.7746 2.01555e-17)
(26.5141 3.05786 -1.37958e-17)
(26.5056 3.02155 1.2719e-16)
(26.4948 2.98543 -8.56768e-17)
(26.4815 2.94943 1.32616e-16)
(26.4652 2.91341 -1.32161e-17)
(26.4456 2.87708 5.07051e-17)
(26.4214 2.84055 -3.27456e-17)
(26.3957 2.80575 9.87231e-17)
(26.4591 3.06816 -7.37567e-17)
(26.4518 3.03462 -1.93364e-16)
(26.4425 3.00128 1.60705e-16)
(26.431 2.96803 1.75555e-16)
(26.4169 2.93468 5.53552e-17)
(26.4 2.90094 -2.05367e-16)
(26.3789 2.86677 1.51428e-16)
(26.3566 2.83415 -2.44531e-16)
(26.4069 3.0773 -5.96676e-17)
(26.4006 3.04628 8.63488e-17)
(26.3926 3.01545 9.31249e-18)
(26.3827 2.9847 -2.15524e-16)
(26.3705 2.95381 1.27617e-16)
(26.3559 2.92246 3.96024e-17)
(26.3375 2.89051 1.28835e-16)
(26.3182 2.85997 -3.12393e-17)
(26.3573 3.08531 -1.08057e-16)
(26.3519 3.05658 5.74074e-17)
(26.3451 3.02805 -3.18376e-17)
(26.3365 2.99957 -1.48887e-16)
(26.3261 2.97094 4.75771e-16)
(26.3134 2.94181 -3.36781e-16)
(26.2975 2.91194 -1.4434e-16)
(26.2808 2.88336 -3.6685e-17)
(26.3102 3.09236 1.25275e-16)
(26.3056 3.0657 -8.17541e-18)
(26.2998 3.03924 5.15404e-17)
(26.2925 3.01285 -1.24443e-16)
(26.2835 2.98628 -8.87406e-17)
(26.2726 2.95918 5.54792e-17)
(26.2588 2.93127 6.96757e-17)
(26.2444 2.90455 9.3237e-17)
(26.2654 3.09833 7.25283e-17)
(26.2616 3.07354 -9.45825e-18)
(26.2567 3.04898 -1.74477e-16)
(26.2505 3.02449 -2.43063e-18)
(26.2429 2.99982 1.39694e-16)
(26.2336 2.97461 -2.85229e-16)
(26.2217 2.94852 6.18976e-17)
(26.2093 2.92354 -1.69261e-16)
(26.2289 3.10273 1.30991e-16)
(26.2255 3.07939 -1.40556e-16)
(26.2212 3.05631 2.27044e-16)
(26.2158 3.03332 -5.96818e-17)
(26.209 3.01016 -7.30507e-17)
(26.2008 2.98648 -6.32738e-17)
(26.1902 2.96191 2.26797e-16)
(26.1792 2.93844 -9.74799e-17)
(26.2014 3.12863 -2.72716e-17)
(26.1992 3.10612 -7.3612e-17)
(26.1962 3.08395 2.62264e-17)
(26.1922 3.06206 4.24098e-17)
(26.1871 3.04029 -1.18332e-16)
(26.1808 3.01838 7.29955e-17)
(26.1733 2.99597 2.47742e-16)
(26.1635 2.97269 -3.01863e-16)
(26.1534 2.95053 1.39288e-16)
(26.1713 3.13038 -7.30279e-18)
(26.1694 3.10895 2.22177e-17)
(26.1666 3.08789 -1.55194e-16)
(26.1629 3.06713 8.46338e-17)
(26.1583 3.04651 5.72532e-17)
(26.1525 3.02578 2.78344e-17)
(26.1456 3.00459 -2.09665e-16)
(26.1366 2.98253 7.90427e-17)
(26.1274 2.96158 1.2388e-16)
(26.1408 3.13232 1.7545e-18)
(26.139 3.11207 1.3802e-16)
(26.1366 3.09221 1.15776e-16)
(26.1333 3.07267 -4.29004e-17)
(26.1291 3.05329 3.00824e-17)
(26.1239 3.03381 -7.96395e-17)
(26.1176 3.01389 1.64322e-16)
(26.1094 2.99314 -5.40599e-16)
(26.1009 2.97356 2.37097e-16)
(26.1108 3.13247 1.41473e-19)
(26.1092 3.11306 1.24636e-16)
(26.107 3.09406 -2.6036e-16)
(26.1041 3.07542 -1.63943e-17)
(26.1003 3.05698 1.48199e-16)
(26.0956 3.03851 -1.78187e-16)
(26.0898 3.01966 3.49188e-16)
(26.0825 2.99995 -3.43407e-16)
(26.0751 2.9813 3.48875e-16)
(26.0798 3.13575 -3.3136e-17)
(26.0785 3.11776 -8.7241e-17)
(26.0766 3.10017 1.1965e-16)
(26.0741 3.08293 7.41011e-17)
(26.0708 3.06586 -3.54543e-16)
(26.0667 3.04874 2.37374e-16)
(26.0617 3.03124 2.12927e-16)
(26.0549 3.01303 -9.00979e-17)
(26.0476 2.99613 -1.19959e-16)
(26.0523 3.12983 -1.72011e-17)
(26.0513 3.11193 -2.95718e-17)
(26.0497 3.09451 7.37115e-17)
(26.0474 3.07754 -5.53101e-18)
(26.0443 3.06089 -9.93748e-17)
(26.0405 3.0443 -1.40671e-16)
(26.0359 3.02742 2.12444e-16)
(26.0303 3.00961 -2.66319e-17)
(26.0251 2.99271 4.18179e-17)
(26.0191 3.14334 3.1107e-17)
(26.0183 3.1279 -2.60832e-17)
(26.0172 3.11283 -1.13357e-16)
(26.0156 3.09805 -2.43839e-17)
(26.0134 3.08341 1.766e-17)
(26.0106 3.06871 2.08216e-17)
(26.0068 3.05371 3.3825e-17)
(26.0009 3.03836 -4.45642e-17)
(25.9938 3.02459 7.93357e-17)
(26.0015 3.11167 -1.8424e-17)
(26.001 3.09416 -5.82146e-17)
(25.9999 3.07735 -2.76733e-17)
(25.9981 3.06118 6.14139e-17)
(25.9957 3.04553 2.0182e-17)
(25.9927 3.0301 -9.55191e-18)
(25.9893 3.01449 1.22957e-16)
(25.9864 2.99751 -6.09368e-17)
(25.985 2.9813 -9.30281e-17)
(25.9556 3.17326 1.58578e-16)
(25.9558 3.1614 -5.82194e-17)
(25.9559 3.14964 1.79839e-17)
(25.9558 3.13795 -1.97264e-16)
(25.9553 3.12628 -5.47951e-17)
(25.9541 3.11451 2.08003e-16)
(25.9517 3.10255 1.44634e-16)
(25.9455 3.09126 -1.77718e-16)
(25.9363 3.08169 2.37133e-17)
(25.9683 3.06238 4.86745e-17)
(25.9693 3.04188 1.29119e-17)
(25.969 3.02276 7.52136e-18)
(25.9682 3.00478 1.1245e-16)
(25.9669 2.98777 -1.34729e-16)
(25.9649 2.97159 1.68662e-16)
(25.9628 2.95583 -1.82837e-17)
(25.9613 2.94 -1.87681e-16)
(25.964 2.92162 -7.58243e-17)
(25.9702 2.9048 1.79295e-17)
(25.8756 3.29031 7.52175e-18)
(25.8766 3.28481 4.92836e-18)
(25.8781 3.27766 -6.225e-18)
(25.88 3.27037 -5.65002e-17)
(25.8818 3.26315 -4.25001e-17)
(25.8834 3.25579 2.34104e-17)
(25.884 3.24839 -2.68583e-17)
(25.8827 3.24094 -2.63691e-17)
(25.8735 3.23636 4.3655e-17)
(25.8589 3.23122 6.31525e-17)
(26.0056 2.85594 -3.70132e-18)
(26.0054 2.83156 -8.30299e-17)
(26.007 2.80848 3.75648e-17)
(26.0106 2.78647 2.16331e-16)
(26.0135 2.76559 -3.95238e-16)
(26.0152 2.74567 1.15773e-16)
(26.0173 2.72611 4.10125e-16)
(26.0219 2.7063 -3.92806e-16)
(26.0359 2.68452 6.58614e-17)
(26.058 2.66612 -1.17022e-17)
(12.6983 0.749212 2.55014e-17)
(9.65947 0.435344 -1.11725e-18)
(9.40507 0.191139 -4.12075e-17)
(10.7851 0.0239329 -1.70693e-18)
(12.8938 -0.0707389 6.18632e-18)
(15.3156 -0.119293 -9.13297e-18)
(17.8436 -0.137031 -9.01562e-19)
(20.2633 -0.141707 1.28287e-18)
(22.249 -0.150117 2.52913e-18)
(23.4675 -0.173843 8.78582e-18)
(23.8992 -0.211304 -2.91731e-18)
(23.9706 -0.256932 1.08737e-17)
(24.0494 -0.301839 -2.19034e-18)
(24.2014 -0.337088 2.45477e-18)
(24.386 -0.358442 -1.05505e-17)
(24.5661 -0.365989 9.08612e-18)
(24.7304 -0.361472 1.35811e-17)
(24.8821 -0.346136 -5.48849e-18)
(25.0263 -0.32094 -1.44971e-17)
(25.1656 -0.286796 4.57417e-18)
(25.3003 -0.244716 1.1542e-18)
(25.4298 -0.195054 2.34359e-17)
(25.5537 -0.139209 -3.10097e-17)
(25.6718 -0.0772401 1.24843e-17)
(25.7841 -0.0102735 -1.70946e-17)
(25.8905 0.061585 1.04451e-17)
(25.9912 0.137631 -1.69185e-17)
(26.0861 0.217564 1.31552e-19)
(26.1751 0.300863 -1.97411e-17)
(26.2585 0.387035 -2.6348e-17)
(26.336 0.475766 -9.46216e-18)
(26.4078 0.566602 1.72404e-19)
(26.4738 0.65926 3.86294e-18)
(26.5339 0.753432 6.79971e-19)
(26.5883 0.848747 2.54421e-17)
(26.6368 0.944893 8.15688e-19)
(26.6794 1.04155 1.72799e-18)
(26.7162 1.13831 -1.92e-17)
(26.7473 1.23487 -2.632e-18)
(26.7727 1.33081 2.45607e-18)
(26.7926 1.42583 -3.16499e-17)
(26.807 1.5195 -2.07131e-16)
(26.8162 1.61153 1.24945e-17)
(26.8204 1.70156 2.46781e-17)
(26.8197 1.78929 -1.48991e-17)
(26.8146 1.87443 -4.60899e-18)
(26.8052 1.95673 1.42898e-16)
(26.792 2.03597 -2.67337e-17)
(26.7751 2.11198 2.43305e-17)
(26.7549 2.18459 1.87727e-17)
(26.7319 2.25371 -6.94723e-17)
(26.7062 2.31926 1.56732e-16)
(26.6783 2.38121 7.79026e-18)
(26.6484 2.43954 -2.28687e-17)
(26.6168 2.49429 -1.32983e-16)
(26.5839 2.54551 1.01325e-16)
(26.5499 2.59328 7.80256e-19)
(26.5151 2.63768 -1.51411e-16)
(26.4796 2.67883 -1.40047e-17)
(26.4437 2.71685 4.55101e-17)
(26.4076 2.75188 -2.70039e-16)
(26.3715 2.78405 6.65534e-17)
(26.3355 2.8135 -2.0651e-19)
(26.2998 2.8404 3.61815e-18)
(26.2648 2.86487 -2.06248e-16)
(26.2305 2.88712 1.04573e-16)
(26.1973 2.90715 -4.27954e-20)
(26.1687 2.92291 6.06891e-18)
(26.1438 2.9358 6.43029e-19)
(26.1188 2.94751 -3.04557e-16)
(26.0931 2.96057 -7.58287e-17)
(26.0685 2.96852 3.04596e-17)
(26.0412 2.98523 8.10868e-17)
(26.0208 2.98062 -2.42093e-19)
(25.988 3.01661 -1.16209e-19)
(25.9835 2.96873 5.825e-19)
(25.9302 3.07797 6.05602e-17)
(25.9726 2.89066 5.0426e-18)
(25.8524 3.23194 -3.19024e-17)
(26.068 2.65483 1.82375e-19)
(18.4328 1.08661 -2.55898e-17)
(15.8075 0.846165 4.48469e-18)
(14.3111 0.604211 2.186e-17)
(14.1904 0.410801 7.98697e-18)
(15.1395 0.290497 -5.14144e-18)
(16.7301 0.233107 2.40584e-17)
(18.6483 0.226437 6.72972e-18)
(20.6586 0.26085 -1.91685e-18)
(22.5026 0.320864 -4.84537e-17)
(23.8578 0.381796 -6.06999e-17)
(24.4807 0.419958 1.98339e-17)
(24.5497 0.431484 -2.63023e-17)
(24.5257 0.431657 -1.0293e-17)
(24.5847 0.431949 -4.5961e-18)
(24.6918 0.432127 1.70886e-17)
(24.8035 0.431098 -1.26036e-17)
(24.9057 0.429457 -1.59227e-17)
(25.0007 0.428403 5.34766e-18)
(25.0937 0.429162 1.14823e-17)
(25.1876 0.432817 -1.88078e-17)
(25.2824 0.439935 -1.45009e-17)
(25.3775 0.451497 -5.66129e-18)
(25.4718 0.467516 1.60866e-17)
(25.5648 0.488846 -4.51892e-19)
(25.6561 0.515231 -8.70733e-20)
(25.7452 0.547061 -2.81244e-18)
(25.8319 0.583995 8.89754e-18)
(25.9156 0.626085 -1.27925e-17)
(25.9962 0.673162 7.57933e-18)
(26.0733 0.724952 -5.32223e-18)
(26.1467 0.781249 -4.25739e-18)
(26.216 0.841645 8.53747e-18)
(26.2812 0.905805 -2.51292e-17)
(26.342 0.973377 4.04454e-19)
(26.3982 1.04392 1.89982e-17)
(26.4497 1.11705 2.00348e-17)
(26.4964 1.19236 -1.78789e-17)
(26.5382 1.2694 -2.71168e-17)
(26.5751 1.34781 -2.01295e-18)
(26.607 1.42711 6.65196e-17)
(26.6338 1.50694 -6.05836e-18)
(26.6558 1.58684 1.85858e-16)
(26.6728 1.66645 1.0787e-17)
(26.6851 1.74537 4.10552e-17)
(26.6927 1.82322 -1.34856e-17)
(26.6958 1.89967 -7.76658e-17)
(26.6947 1.9744 -1.29495e-16)
(26.6896 2.0471 -2.56975e-17)
(26.6806 2.11753 1.96817e-17)
(26.6682 2.18544 3.04497e-17)
(26.6525 2.25067 3.78295e-17)
(26.6338 2.31306 4.008e-17)
(26.6126 2.37248 3.79482e-17)
(26.5889 2.42886 -8.74349e-18)
(26.5632 2.48215 -2.69506e-18)
(26.5357 2.53234 -2.10634e-16)
(26.5067 2.57943 8.5699e-19)
(26.4765 2.62346 1.24812e-16)
(26.4452 2.66449 5.57031e-18)
(26.4132 2.7026 -4.85151e-17)
(26.3806 2.73788 1.65342e-16)
(26.3476 2.77042 -1.28167e-16)
(26.3144 2.80033 2.5383e-16)
(26.2813 2.82776 4.29645e-18)
(26.2485 2.85281 -5.76925e-17)
(26.2162 2.87567 2.64786e-18)
(26.1848 2.89632 -5.24536e-20)
(26.1576 2.9126 7.49222e-18)
(26.1339 2.926 7.92702e-19)
(26.11 2.93809 1.85152e-16)
(26.0853 2.95192 7.39619e-17)
(26.0618 2.9599 -3.0818e-17)
(26.0353 2.97802 -8.23727e-17)
(26.0158 2.97247 -8.03544e-17)
(25.984 3.01134 -6.12943e-17)
(25.9795 2.96056 5.28948e-17)
(25.929 3.07513 -6.18048e-17)
(25.9677 2.88261 -3.45073e-18)
(25.8567 3.23078 8.07377e-19)
(21.1399 1.27175 -4.96122e-18)
(19.332 1.13346 9.20324e-19)
(17.7552 0.963819 -8.90263e-19)
(16.862 0.798 -1.60261e-18)
(16.8439 0.670425 -1.55944e-17)
(17.6119 0.595057 4.61176e-19)
(18.9281 0.569 -4.64141e-18)
(20.547 0.583866 -4.32962e-18)
(22.2327 0.629053 6.44365e-18)
(23.7168 0.687181 1.99946e-17)
(24.6975 0.733168 -7.39471e-18)
(25.0323 0.748181 -9.46631e-18)
(25.0107 0.741095 1.52833e-17)
(25.0002 0.735666 -2.15515e-18)
(25.0648 0.737281 1.61659e-17)
(25.1448 0.742036 -2.68028e-17)
(25.2128 0.748218 -1.01295e-17)
(25.271 0.75566 1.5584e-17)
(25.3261 0.764555 4.00062e-17)
(25.3821 0.775179 1.21529e-17)
(25.44 0.787386 2.10102e-17)
(25.4995 0.801441 5.05767e-19)
(25.5601 0.817283 -7.04217e-18)
(25.6213 0.835374 -4.11438e-17)
(25.683 0.855704 3.28834e-17)
(25.745 0.878726 8.06259e-18)
(25.8071 0.904487 5.36382e-18)
(25.8689 0.933314 1.22638e-17)
(25.9302 0.965394 -1.49787e-17)
(25.9905 1.00083 6.23012e-18)
(26.0497 1.03979 -1.92998e-18)
(26.1072 1.08222 1.55482e-18)
(26.1628 1.12812 5.09377e-19)
(26.2161 1.17741 2.53766e-19)
(26.2669 1.22989 7.96022e-18)
(26.3146 1.28537 -1.88103e-17)
(26.3592 1.3436 2.39388e-17)
(26.4004 1.40426 2.20701e-18)
(26.4379 1.46707 -1.55969e-18)
(26.4715 1.53164 -6.221e-17)
(26.5012 1.59766 -3.5976e-17)
(26.5268 1.6647 -1.40836e-16)
(26.5482 1.73243 9.09288e-18)
(26.5655 1.80045 2.92212e-17)
(26.5786 1.86839 1.03087e-17)
(26.5876 1.93589 -1.12944e-17)
(26.5926 2.00262 1.05847e-16)
(26.5937 2.06824 -2.31818e-17)
(26.5911 2.13245 2.58239e-17)
(26.585 2.19498 -2.11003e-17)
(26.5756 2.25559 -1.47456e-17)
(26.563 2.31407 -1.20533e-17)
(26.5476 2.37024 4.77704e-18)
(26.5296 2.42397 -1.22791e-16)
(26.5093 2.47513 -7.17998e-17)
(26.4868 2.52365 1.82799e-16)
(26.4626 2.56948 8.31998e-19)
(26.4368 2.61262 -2.46549e-16)
(26.4096 2.65305 -1.31299e-17)
(26.3814 2.69081 5.09858e-17)
(26.3522 2.72595 4.46455e-19)
(26.3223 2.75853 6.04543e-17)
(26.292 2.78861 -4.26037e-16)
(26.2615 2.81632 -8.70588e-17)
(26.231 2.84172 2.3874e-16)
(26.2008 2.865 3.96759e-17)
(26.1713 2.88612 1.5105e-17)
(26.1456 2.9028 7.53524e-18)
(26.1231 2.91664 7.99057e-19)
(26.1004 2.92902 1.02692e-16)
(26.0767 2.94353 2.13321e-16)
(26.0543 2.9515 -2.4044e-19)
(26.0289 2.97091 -8.12332e-17)
(26.01 2.96453 1.40213e-16)
(25.9801 3.00593 6.09686e-17)
(25.9743 2.95275 1.95005e-16)
(25.9287 3.07178 1.80249e-17)
(25.9608 2.87535 -1.60664e-16)
(22.6112 1.42469 2.62447e-18)
(21.3085 1.34539 2.43021e-19)
(19.9648 1.23973 -9.41264e-18)
(18.8584 1.12174 3.28527e-18)
(18.2481 1.01445 3.4376e-18)
(18.2783 0.938352 1.08356e-19)
(18.9257 0.904437 3.36498e-18)
(20.0427 0.912699 -2.5693e-19)
(21.4356 0.956236 1.11146e-18)
(22.8868 1.02262 -1.64492e-17)
(24.1377 1.09163 5.63261e-18)
(24.918 1.13698 -1.08047e-18)
(25.1634 1.14374 1.28344e-17)
(25.1524 1.12735 -1.4869e-17)
(25.1618 1.11139 -5.50595e-18)
(25.2264 1.10163 -1.38511e-17)
(25.2951 1.09499 -1.19167e-18)
(25.3495 1.08985 -2.31466e-18)
(25.3962 1.08655 -2.73107e-17)
(25.4422 1.08582 -1.17089e-17)
(25.4895 1.08778 -9.1275e-18)
(25.5378 1.0925 -2.42942e-17)
(25.5867 1.09986 2.40226e-17)
(25.6358 1.10995 1.03377e-18)
(25.685 1.12263 -8.84394e-20)
(25.7343 1.13802 -8.47013e-18)
(25.7838 1.15603 -1.56989e-17)
(25.8333 1.17673 2.23128e-18)
(25.8827 1.20014 1.8062e-17)
(25.9318 1.22627 -1.78182e-17)
(25.9806 1.25519 3.07432e-18)
(26.0287 1.28689 5.44269e-20)
(26.076 1.32141 7.41151e-19)
(26.1221 1.35875 -1.50199e-20)
(26.1668 1.39885 8.21287e-18)
(26.2098 1.44167 -1.10383e-17)
(26.2509 1.4871 -6.72691e-19)
(26.2896 1.53499 -1.49524e-17)
(26.3258 1.58519 -2.03271e-17)
(26.3593 1.63745 1.17713e-18)
(26.3896 1.69154 1.143e-17)
(26.4168 1.74718 2.34578e-17)
(26.4407 1.8041 7.66337e-18)
(26.461 1.86195 1.06563e-17)
(26.4778 1.92042 -1.38e-17)
(26.4909 1.9792 2.74041e-17)
(26.5004 2.03794 -9.69318e-18)
(26.5064 2.09633 -2.0659e-17)
(26.5088 2.15407 1.95316e-17)
(26.5079 2.21085 5.11717e-17)
(26.5036 2.26642 -3.31759e-17)
(26.4962 2.32053 -1.11274e-17)
(26.486 2.37296 -4.38014e-17)
(26.4729 2.42352 1.06369e-16)
(26.4574 2.47206 6.66032e-17)
(26.4396 2.51844 -1.77993e-16)
(26.4197 2.56257 7.93901e-19)
(26.3979 2.60439 2.19484e-16)
(26.3746 2.64383 -5.71458e-17)
(26.3499 2.6809 -5.40615e-17)
(26.3241 2.71559 -1.37128e-16)
(26.2973 2.74792 5.59564e-17)
(26.2697 2.77794 3.99375e-16)
(26.2417 2.80571 1.48672e-16)
(26.2135 2.83129 -1.81325e-16)
(26.1854 2.85483 8.79315e-17)
(26.1577 2.87629 -6.55714e-17)
(26.1335 2.89328 7.42876e-18)
(26.1122 2.9075 7.89961e-19)
(26.0907 2.9201 -5.60705e-18)
(26.0681 2.93525 -2.14702e-16)
(26.0467 2.94318 -2.40145e-19)
(26.0225 2.96379 2.03202e-17)
(26.0041 2.95664 -1.36586e-16)
(25.9759 3.00041 2.68333e-16)
(25.9693 2.94506 -4.26346e-18)
(25.9278 3.06824 -8.09992e-19)
(23.7132 1.58132 -1.22478e-18)
(22.7514 1.52813 3.96509e-19)
(21.6635 1.4552 1.50123e-19)
(20.6005 1.36628 6.34853e-19)
(19.7466 1.27386 -3.89131e-18)
(19.2803 1.19341 4.55838e-18)
(19.3168 1.13997 -1.82495e-18)
(19.86 1.12305 -4.68425e-19)
(20.8124 1.14394 3.89192e-18)
(22.0192 1.19713 -9.71458e-18)
(23.2855 1.27079 -1.61332e-18)
(24.3706 1.34479 -1.67572e-17)
(25.0437 1.39444 -1.04231e-17)
(25.271 1.40803 -2.35866e-18)
(25.2785 1.39984 1.98755e-18)
(25.2882 1.39024 1.28903e-17)
(25.3381 1.38468 2.17603e-18)
(25.3914 1.38066 -6.66635e-18)
(25.4332 1.37656 1.63162e-18)
(25.4698 1.37287 3.23012e-19)
(25.5074 1.37032 7.56951e-18)
(25.5469 1.36931 3.35341e-17)
(25.5876 1.36992 -8.23276e-18)
(25.6287 1.37238 3.79339e-19)
(25.6703 1.3768 -8.31078e-18)
(25.7121 1.38343 1.11766e-19)
(25.7542 1.39234 -5.98471e-19)
(25.7965 1.40369 1.82166e-19)
(25.8389 1.41758 7.6406e-18)
(25.8812 1.43405 -2.6907e-18)
(25.9234 1.45316 4.92365e-18)
(25.9653 1.47493 4.23165e-18)
(26.0068 1.49938 -3.60318e-18)
(26.0475 1.52649 3.86539e-19)
(26.0875 1.55624 6.14336e-18)
(26.1263 1.58858 6.59231e-18)
(26.1639 1.62344 1.06425e-18)
(26.1998 1.66074 -4.3988e-18)
(26.234 1.70037 2.49149e-17)
(26.2661 1.74216 -3.82079e-18)
(26.296 1.78599 -6.22337e-18)
(26.3234 1.83162 1.02764e-17)
(26.3481 1.87886 1.85119e-17)
(26.37 1.92745 2.98863e-17)
(26.3889 1.97714 -4.1785e-17)
(26.4048 2.02765 5.23427e-18)
(26.4174 2.07869 -8.56634e-18)
(26.4269 2.12998 -1.84856e-17)
(26.4331 2.18123 1.76853e-17)
(26.4362 2.23214 -2.60681e-18)
(26.4362 2.28245 -4.16201e-17)
(26.4331 2.3319 -1.04056e-17)
(26.4271 2.38025 9.28461e-18)
(26.4184 2.42729 -7.43249e-18)
(26.4071 2.47282 -2.34239e-18)
(26.3934 2.51667 1.5239e-16)
(26.3775 2.55871 7.75211e-19)
(26.3596 2.59884 -1.15016e-16)
(26.3398 2.63695 2.70691e-19)
(26.3185 2.67299 -1.57006e-18)
(26.2959 2.70693 9.12541e-18)
(26.272 2.73875 -3.73243e-18)
(26.2472 2.76845 -2.27391e-16)
(26.2216 2.79608 -8.04874e-17)
(26.1957 2.82165 1.63903e-16)
(26.1696 2.84529 -8.56014e-17)
(26.1438 2.86696 5.02242e-17)
(26.1211 2.88415 1.12119e-16)
(26.101 2.89866 -1.44532e-16)
(26.0806 2.91143 -2.64961e-16)
(26.0592 2.92714 -9.83081e-19)
(26.0388 2.935 -2.50589e-19)
(26.0157 2.95672 -7.44808e-17)
(25.998 2.94885 7.51353e-17)
(25.9714 2.99485 -7.19037e-18)
(25.9642 2.93746 -4.36797e-18)
(24.5522 1.72516 -6.36904e-20)
(23.8713 1.68836 2.98919e-19)
(23.0204 1.6358 1.50131e-18)
(22.0915 1.56759 5.25777e-19)
(21.2017 1.49032 3.25449e-18)
(20.4892 1.41305 -2.97449e-18)
(20.0924 1.34752 6.85347e-19)
(20.1099 1.30591 -3.91737e-19)
(20.5606 1.29656 1.08888e-17)
(21.3782 1.32126 1.73444e-17)
(22.4364 1.37554 -1.49032e-18)
(23.5609 1.4483 1.00844e-18)
(24.5332 1.52072 4.41875e-18)
(25.1558 1.57092 1.20593e-17)
(25.3942 1.58893 2.26987e-18)
(25.4213 1.58615 -2.132e-18)
(25.4267 1.58019 -1.9344e-18)
(25.4609 1.57743 1.10264e-18)
(25.501 1.57631 2.74152e-18)
(25.5332 1.57531 8.45886e-18)
(25.5613 1.57445 2.04611e-18)
(25.5904 1.57431 -2.42551e-18)
(25.6213 1.5751 -1.0657e-17)
(25.6532 1.5769 2.83992e-17)
(25.6856 1.57978 -1.5683e-17)
(25.7184 1.58389 -5.02711e-19)
(25.7518 1.58939 8.63095e-19)
(25.7857 1.59643 -9.51599e-20)
(25.82 1.6052 -6.42005e-18)
(25.8547 1.61582 -4.72178e-19)
(25.8897 1.62843 -1.07578e-17)
(25.9248 1.64315 8.88552e-19)
(25.9599 1.66008 4.16905e-18)
(25.9949 1.6793 2.29532e-19)
(26.0296 1.70084 3.93016e-18)
(26.0637 1.72474 2.62648e-18)
(26.0971 1.75099 -7.55788e-18)
(26.1296 1.77955 -1.03775e-17)
(26.1608 1.81038 -1.48215e-17)
(26.1907 1.84338 8.60508e-18)
(26.2189 1.87846 6.66826e-18)
(26.2453 1.91547 1.52284e-17)
(26.2696 1.95426 -6.73229e-18)
(26.2918 1.99464 -2.0405e-17)
(26.3115 2.03641 -4.70086e-18)
(26.3286 2.07936 1.52545e-17)
(26.3431 2.12323 -7.49329e-18)
(26.3549 2.16778 -1.63945e-17)
(26.3638 2.21276 1.58912e-17)
(26.3698 2.2579 2.76564e-17)
(26.373 2.30294 3.70136e-17)
(26.3734 2.34763 -9.68756e-18)
(26.3709 2.39173 4.67963e-17)
(26.3659 2.43501 -7.06464e-18)
(26.3582 2.47726 -2.24792e-18)
(26.3481 2.5183 -1.47869e-16)
(26.3358 2.55794 7.5723e-19)
(26.3213 2.59606 8.93954e-17)
(26.3049 2.63252 5.27694e-17)
(26.2868 2.66725 -1.56947e-18)
(26.2672 2.70016 2.01164e-16)
(26.2461 2.7312 -3.78072e-18)
(26.2239 2.76035 -2.43933e-19)
(26.2008 2.78762 -4.13004e-17)
(26.1772 2.81299 -8.8538e-18)
(26.1532 2.83655 -3.08095e-17)
(26.1292 2.85828 -5.56775e-20)
(26.108 2.87555 -9.61027e-17)
(26.0892 2.89028 1.45764e-16)
(26.0699 2.90312 4.14785e-18)
(26.0497 2.91931 -1.41108e-16)
(26.0304 2.92706 4.83792e-17)
(26.0085 2.94979 1.31519e-16)
(25.9915 2.94123 -3.90933e-19)
(25.1105 1.85169 -4.90587e-19)
(24.6907 1.82885 2.38884e-19)
(24.0739 1.79264 3.3021e-19)
(23.3191 1.74181 3.52281e-19)
(22.5038 1.6799 1.55916e-19)
(21.7238 1.6118 -4.62047e-20)
(21.0917 1.54479 4.33826e-19)
(20.7229 1.48885 -2.47679e-19)
(20.7068 1.4544 -4.15685e-19)
(21.0724 1.44904 -1.20421e-18)
(21.7755 1.47496 3.47453e-19)
(22.7113 1.52843 -8.89778e-19)
(23.7243 1.59916 1.67828e-18)
(24.6198 1.66989 -2.9199e-19)
(25.2222 1.72105 1.35055e-18)
(25.4839 1.74282 4.35061e-19)
(25.5326 1.74328 -2.5458e-18)
(25.5348 1.73819 7.52536e-19)
(25.5559 1.73526 1.93294e-18)
(25.5867 1.73431 -5.88646e-19)
(25.6137 1.73388 -1.25402e-18)
(25.6373 1.73369 -1.94606e-18)
(25.6613 1.73414 1.60786e-18)
(25.6865 1.73545 -1.24192e-18)
(25.7124 1.73766 1.52876e-18)
(25.7385 1.74081 -5.57899e-19)
(25.7649 1.74498 4.9238e-18)
(25.7917 1.75029 -3.95885e-18)