/*--------------------------------*- C++ -*----------------------------------*\
| =========                 |                                                 |
| \\      /  F ield         | OpenFOAM: The Open Source CFD Toolbox           |
|  \\    /   O peration     | Version:  2506                                  |
|   \\  /    A nd           | Website:  www.openfoam.com                      |
|    \\/     M anipulation  |                                                 |
\*---------------------------------------------------------------------------*/
FoamFile
{
    version     2.0;
    format      ascii;
    arch        "LSB;label=32;scalar=64";
    class       volScalarField;
    location    "200";
    object      magR;
}
// * * * * * * * * * * * * * * * * * * * * * * * * * * * * * * * * * * * * * //

dimensions      [0 2 -2 0 0 0 0];

internalField   nonuniform List<scalar> 
1340
(
0.000590093
0.000583166
0.000575551
0.000566075
0.000553559
0.000500989
0.000494777
0.00048818
0.000480231
0.000469757
0.000457692
0.000428208
0.000422649
0.000416868
0.000410135
0.000401319
0.000391377
0.000380463
0.00036805
0.000363106
0.000358029
0.000352271
0.000344819
0.000336562
0.000327678
0.000318057
0.000317921
0.000313505
0.000309046
0.00030407
0.000297742
0.00029084
0.000283513
0.000275598
0.000267111
0.000275808
0.00027185
0.000267926
0.000263606
0.000258194
0.000252391
0.000246278
0.000239713
0.000232765
0.000225643
0.000240171
0.000236636
0.000233157
0.000229395
0.000224743
0.000219835
0.000214686
0.000209193
0.000203463
0.000197644
0.00020983
0.00020668
0.000203593
0.000200293
0.000196278
0.000192102
0.000187726
0.000183097
0.000178337
0.000173553
0.000168721
0.000183862
0.000181052
0.00017831
0.000175404
0.000171923
0.00016835
0.000164603
0.000160677
0.000156693
0.000152728
0.00014875
0.000161531
0.000159021
0.000156579
0.000154013
0.000150986
0.000147904
0.00014468
0.000141329
0.000137973
0.00013466
0.000131369
0.00012808
0.000142241
0.000139998
0.00013782
0.000135547
0.000132909
0.000130229
0.000127442
0.000124568
0.000121719
0.000118933
0.000116188
0.000113463
0.000125515
0.00012351
0.000121562
0.000119547
0.000117239
0.000114897
0.000112474
0.000109998
0.000107566
0.000105206
0.000102901
0.000100624
0.000110959
0.000109168
0.000107421
0.000105631
0.000103606
0.000101551
9.94373e-05
9.72925e-05
9.52036e-05
9.31916e-05
9.12391e-05
8.93301e-05
8.74496e-05
9.82539e-05
9.66528e-05
9.50863e-05
9.34921e-05
9.17093e-05
8.98994e-05
8.80487e-05
8.61809e-05
8.43778e-05
8.2652e-05
8.09881e-05
7.93725e-05
7.77875e-05
8.7133e-05
8.56986e-05
8.42978e-05
8.28741e-05
8.13001e-05
7.97016e-05
7.80746e-05
7.64419e-05
7.48751e-05
7.33852e-05
7.19575e-05
7.05818e-05
6.92412e-05
6.79134e-05
7.73741e-05
7.60887e-05
7.48349e-05
7.35615e-05
7.21691e-05
7.07538e-05
6.93176e-05
6.78859e-05
6.65191e-05
6.52249e-05
6.39926e-05
6.28117e-05
6.16678e-05
6.05372e-05
6.87896e-05
6.76396e-05
6.65158e-05
6.53746e-05
6.41409e-05
6.28851e-05
6.16136e-05
6.03541e-05
5.91553e-05
5.8026e-05
5.69553e-05
5.59356e-05
5.49531e-05
5.3985e-05
6.12239e-05
6.01947e-05
5.91875e-05
5.81636e-05
5.70681e-05
5.59517e-05
5.48228e-05
5.37111e-05
5.2657e-05
5.16666e-05
5.0731e-05
4.9844e-05
4.89941e-05
4.81617e-05
4.73296e-05
5.4544e-05
5.36209e-05
5.27188e-05
5.18004e-05
5.08253e-05
4.98315e-05
4.88285e-05
4.78435e-05
4.6913e-05
4.60407e-05
4.52189e-05
4.44431e-05
4.37026e-05
4.29816e-05
4.22628e-05
4.86346e-05
4.78064e-05
4.69992e-05
4.61755e-05
4.53053e-05
4.442e-05
4.35277e-05
4.26531e-05
4.1829e-05
4.10576e-05
4.0333e-05
3.96511e-05
3.90022e-05
3.83737e-05
3.77482e-05
4.33988e-05
4.26563e-05
4.19336e-05
4.11954e-05
4.04174e-05
3.96284e-05
3.88335e-05
3.80556e-05
3.73236e-05
3.66395e-05
3.59976e-05
3.53949e-05
3.48245e-05
3.42735e-05
3.37277e-05
3.31784e-05
3.87542e-05
3.80884e-05
3.74411e-05
3.67797e-05
3.60843e-05
3.53799e-05
3.46712e-05
3.39785e-05
3.33269e-05
3.27184e-05
3.21479e-05
3.16141e-05
3.11088e-05
3.06226e-05
3.01456e-05
2.9664e-05
3.40314e-05
3.34519e-05
3.28591e-05
3.22374e-05
3.16086e-05
3.09763e-05
3.03587e-05
2.9778e-05
2.92356e-05
2.87272e-05
2.82519e-05
2.78037e-05
2.73736e-05
2.69526e-05
2.65306e-05
2.60988e-05
3.04239e-05
2.99058e-05
2.93744e-05
2.88183e-05
2.82572e-05
2.76928e-05
2.71416e-05
2.66237e-05
2.61395e-05
2.56858e-05
2.52617e-05
2.48625e-05
2.44803e-05
2.41076e-05
2.37365e-05
2.33565e-05
2.72127e-05
2.67496e-05
2.62736e-05
2.57765e-05
2.52757e-05
2.47721e-05
2.42805e-05
2.38178e-05
2.33852e-05
2.29796e-05
2.26003e-05
2.22439e-05
2.19039e-05
2.15727e-05
2.12448e-05
2.09104e-05
2.43516e-05
2.39376e-05
2.35117e-05
2.30675e-05
2.26208e-05
2.21716e-05
2.1733e-05
2.13198e-05
2.09332e-05
2.05704e-05
2.0231e-05
1.99123e-05
1.96084e-05
1.93141e-05
1.90237e-05
1.87292e-05
1.84249e-05
2.17999e-05
2.14301e-05
2.10494e-05
2.06528e-05
2.02546e-05
1.98544e-05
1.94632e-05
1.90946e-05
1.87491e-05
1.84245e-05
1.81206e-05
1.78354e-05
1.7564e-05
1.73017e-05
1.70437e-05
1.6784e-05
1.65159e-05
1.95227e-05
1.91924e-05
1.88524e-05
1.84988e-05
1.81442e-05
1.77878e-05
1.74394e-05
1.71106e-05
1.68023e-05
1.65119e-05
1.624e-05
1.59848e-05
1.57419e-05
1.55082e-05
1.52792e-05
1.50496e-05
1.48132e-05
1.74887e-05
1.71938e-05
1.68905e-05
1.65758e-05
1.62605e-05
1.59436e-05
1.56337e-05
1.5341e-05
1.50659e-05
1.48064e-05
1.45633e-05
1.43351e-05
1.41182e-05
1.39097e-05
1.37062e-05
1.35032e-05
1.32954e-05
1.30789e-05
1.56706e-05
1.54077e-05
1.51372e-05
1.48577e-05
1.45778e-05
1.42964e-05
1.40213e-05
1.37613e-05
1.35164e-05
1.3285e-05
1.3068e-05
1.28639e-05
1.26703e-05
1.24846e-05
1.23041e-05
1.21245e-05
1.19421e-05
1.17517e-05
1.40445e-05
1.38104e-05
1.35696e-05
1.33217e-05
1.30738e-05
1.28245e-05
1.25809e-05
1.23503e-05
1.21328e-05
1.1927e-05
1.17334e-05
1.15515e-05
1.1379e-05
1.12138e-05
1.10536e-05
1.0895e-05
1.07347e-05
1.05678e-05
1.25892e-05
1.2381e-05
1.21671e-05
1.19476e-05
1.17286e-05
1.15084e-05
1.12931e-05
1.10893e-05
1.08966e-05
1.07139e-05
1.05419e-05
1.038e-05
1.02266e-05
1.008e-05
9.93827e-06
9.79856e-06
9.65778e-06
9.512e-06
9.35812e-06
1.12862e-05
1.1101e-05
1.09115e-05
1.07178e-05
1.05247e-05
1.03307e-05
1.01411e-05
9.96158e-06
9.79165e-06
9.62997e-06
9.47745e-06
9.33385e-06
9.19772e-06
9.06793e-06
8.94278e-06
8.81987e-06
8.69652e-06
8.56992e-06
8.43589e-06
1.0119e-05
9.95451e-06
9.78682e-06
9.6164e-06
9.44682e-06
9.27641e-06
9.11012e-06
8.95255e-06
8.80311e-06
8.66067e-06
8.52593e-06
8.39898e-06
8.27856e-06
8.16396e-06
8.05379e-06
7.94598e-06
7.83822e-06
7.72814e-06
7.61175e-06
9.07272e-06
8.92698e-06
8.77895e-06
8.62956e-06
8.48105e-06
8.33197e-06
8.18675e-06
8.04915e-06
7.91843e-06
7.79336e-06
7.67472e-06
7.56283e-06
7.4568e-06
7.356e-06
7.2594e-06
7.16504e-06
7.0712e-06
6.97579e-06
6.87563e-06
6.76811e-06
8.13461e-06
8.00562e-06
7.87543e-06
7.74484e-06
7.61535e-06
7.48554e-06
7.35945e-06
7.23995e-06
7.12605e-06
7.0167e-06
6.91281e-06
6.8146e-06
6.72154e-06
6.63319e-06
6.54877e-06
6.4666e-06
6.3853e-06
6.30291e-06
6.2169e-06
6.12428e-06
7.29311e-06
7.17913e-06
7.06504e-06
6.95142e-06
6.83903e-06
6.72658e-06
6.61776e-06
6.51461e-06
6.41597e-06
6.32089e-06
6.23024e-06
6.14445e-06
6.06313e-06
5.98607e-06
5.91263e-06
5.84142e-06
5.77119e-06
5.70025e-06
5.62655e-06
5.54741e-06
6.53799e-06
6.43747e-06
6.33785e-06
6.23954e-06
6.14243e-06
6.04568e-06
5.95249e-06
5.8641e-06
5.77924e-06
5.69699e-06
5.61832e-06
5.54376e-06
5.47309e-06
5.4062e-06
5.34257e-06
5.28113e-06
5.22079e-06
5.1601e-06
5.09733e-06
5.03024e-06
4.95679e-06
5.86016e-06
5.7717e-06
5.68509e-06
5.60054e-06
5.51718e-06
5.43455e-06
5.35546e-06
5.28037e-06
5.20785e-06
5.13718e-06
5.0693e-06
5.00487e-06
4.94381e-06
4.88608e-06
4.83129e-06
4.77863e-06
4.72709e-06
4.67544e-06
4.62216e-06
4.56559e-06
4.50349e-06
5.25149e-06
5.17387e-06
5.09891e-06
5.02674e-06
4.9557e-06
4.88578e-06
4.81945e-06
4.75626e-06
4.6948e-06
4.63453e-06
4.57635e-06
4.52104e-06
4.46864e-06
4.41918e-06
4.37235e-06
4.32745e-06
4.28366e-06
4.23995e-06
4.19507e-06
4.14747e-06
4.09533e-06
4.70476e-06
4.63688e-06
4.57241e-06
4.51132e-06
4.45127e-06
4.39285e-06
4.33798e-06
4.28545e-06
4.23386e-06
4.18286e-06
4.13342e-06
4.08633e-06
4.04174e-06
3.99969e-06
3.95998e-06
3.92198e-06
3.88504e-06
3.84831e-06
3.81068e-06
3.77091e-06
3.72731e-06
4.21356e-06
4.1544e-06
4.09936e-06
4.04815e-06
3.99793e-06
3.9499e-06
3.90531e-06
3.86228e-06
3.81948e-06
3.77679e-06
3.7352e-06
3.6955e-06
3.6579e-06
3.62249e-06
3.5891e-06
3.55722e-06
3.52632e-06
3.49566e-06
3.4643e-06
3.43123e-06
3.39507e-06
3.3545e-06
3.77216e-06
3.72079e-06
3.67421e-06
3.63181e-06
3.59041e-06
3.55174e-06
3.51637e-06
3.48172e-06
3.44675e-06
3.41148e-06
3.37693e-06
3.34389e-06
3.31255e-06
3.28304e-06
3.25521e-06
3.22866e-06
3.20297e-06
3.17753e-06
3.15157e-06
3.12418e-06
3.09441e-06
3.06078e-06
3.3754e-06
3.33101e-06
3.29203e-06
3.25746e-06
3.22392e-06
3.19372e-06
3.16658e-06
3.13933e-06
3.1113e-06
3.08268e-06
3.05446e-06
3.02735e-06
3.00155e-06
2.97718e-06
2.95419e-06
2.93225e-06
2.911e-06
2.88996e-06
2.8685e-06
2.8459e-06
2.82131e-06
2.79352e-06
3.01872e-06
2.98054e-06
2.94841e-06
2.92077e-06
2.89427e-06
2.87173e-06
2.85188e-06
2.83112e-06
2.80928e-06
2.78663e-06
2.76403e-06
2.74215e-06
2.72117e-06
2.70123e-06
2.68232e-06
2.66421e-06
2.64665e-06
2.62924e-06
2.61151e-06
2.59283e-06
2.57251e-06
2.54947e-06
2.698e-06
2.66537e-06
2.6394e-06
2.61787e-06
2.59767e-06
2.58208e-06
2.56865e-06
2.55355e-06
2.53725e-06
2.51995e-06
2.50231e-06
2.48494e-06
2.46803e-06
2.45174e-06
2.43615e-06
2.42114e-06
2.40654e-06
2.39206e-06
2.37731e-06
2.36178e-06
2.34488e-06
2.32573e-06
2.30362e-06
2.40959e-06
2.38191e-06
2.36146e-06
2.34529e-06
2.33079e-06
2.3215e-06
2.31363e-06
2.30346e-06
2.29217e-06
2.27964e-06
2.26627e-06
2.25263e-06
2.23897e-06
2.22555e-06
2.21255e-06
2.19993e-06
2.18762e-06
2.17541e-06
2.16298e-06
2.14993e-06
2.13575e-06
2.11978e-06
2.10117e-06
2.1502e-06
2.12694e-06
2.11144e-06
2.09996e-06
2.09061e-06
2.08701e-06
2.08391e-06
2.07804e-06
2.07135e-06
2.063e-06
2.05312e-06
2.04236e-06
2.03115e-06
2.01984e-06
2.00872e-06
1.99789e-06
1.98731e-06
1.97686e-06
1.96627e-06
1.95518e-06
1.94319e-06
1.92972e-06
1.91408e-06
1.91691e-06
1.89758e-06
1.88651e-06
1.87911e-06
1.87445e-06
1.87599e-06
1.87686e-06
1.87481e-06
1.8724e-06
1.86758e-06
1.8603e-06
1.85158e-06
1.84205e-06
1.8322e-06
1.82246e-06
1.81298e-06
1.80377e-06
1.79474e-06
1.78565e-06
1.7762e-06
1.76606e-06
1.75473e-06
1.74164e-06
1.70708e-06
1.69126e-06
1.68415e-06
1.68027e-06
1.67994e-06
1.68603e-06
1.69012e-06
1.69155e-06
1.69318e-06
1.69112e-06
1.6855e-06
1.67803e-06
1.6696e-06
1.66081e-06
1.65215e-06
1.64382e-06
1.63583e-06
1.62807e-06
1.62034e-06
1.6124e-06
1.60392e-06
1.59452e-06
1.58365e-06
1.51836e-06
1.50569e-06
1.50207e-06
1.50125e-06
1.50494e-06
1.51499e-06
1.52158e-06
1.52631e-06
1.53173e-06
1.53153e-06
1.52666e-06
1.51989e-06
1.5123e-06
1.50445e-06
1.49685e-06
1.48968e-06
1.48291e-06
1.47642e-06
1.47001e-06
1.46348e-06
1.45654e-06
1.44887e-06
1.44003e-06
1.43004e-06
1.34863e-06
1.33877e-06
1.33824e-06
1.34006e-06
1.34755e-06
1.36094e-06
1.36943e-06
1.37744e-06
1.38632e-06
1.38689e-06
1.38204e-06
1.37582e-06
1.36917e-06
1.36243e-06
1.35604e-06
1.3501e-06
1.34455e-06
1.33927e-06
1.33407e-06
1.32877e-06
1.32315e-06
1.31691e-06
1.30973e-06
1.30146e-06
1.196e-06
1.18864e-06
1.19081e-06
1.19489e-06
1.20596e-06
1.22203e-06
1.23197e-06
1.24354e-06
1.25553e-06
1.2556e-06
1.25031e-06
1.24491e-06
1.23957e-06
1.23414e-06
1.22899e-06
1.22422e-06
1.21973e-06
1.21542e-06
1.21114e-06
1.20674e-06
1.20203e-06
1.19678e-06
1.19068e-06
1.18361e-06
1.05882e-06
1.05372e-06
1.05816e-06
1.06417e-06
1.0786e-06
1.09655e-06
1.10757e-06
1.123e-06
1.13788e-06
1.1365e-06
1.13073e-06
1.12666e-06
1.12289e-06
1.11867e-06
1.11446e-06
1.11046e-06
1.10661e-06
1.10282e-06
1.09899e-06
1.09501e-06
1.09074e-06
1.08596e-06
1.08039e-06
1.07393e-06
9.35639e-07
9.32606e-07
9.38963e-07
9.46648e-07
9.64207e-07
9.83215e-07
9.94939e-07
1.01396e-06
1.03145e-06
1.0285e-06
1.02288e-06
1.02053e-06
1.01811e-06
1.01454e-06
1.01062e-06
1.00675e-06
1.00294e-06
9.99124e-07
9.95259e-07
9.91266e-07
9.8702e-07
9.82312e-07
9.76872e-07
9.70615e-07
8.25085e-07
8.23951e-07
8.3195e-07
8.41246e-07
8.61789e-07
8.81249e-07
8.93466e-07
9.15553e-07
9.34937e-07
9.30341e-07
9.25655e-07
9.25123e-07
9.23265e-07
9.19449e-07
9.15161e-07
9.10939e-07
9.06757e-07
9.02607e-07
8.98453e-07
8.94224e-07
8.89813e-07
8.8501e-07
8.79546e-07
8.73339e-07
7.26028e-07
7.26472e-07
7.35744e-07
7.4663e-07
7.69897e-07
7.89425e-07
8.0236e-07
8.2904e-07
8.5038e-07
8.41199e-07
8.36699e-07
8.38044e-07
8.36095e-07
8.31317e-07
8.26317e-07
8.21633e-07
8.17073e-07
8.12606e-07
8.0821e-07
8.03832e-07
7.99319e-07
7.94465e-07
7.89033e-07
7.82942e-07
7.76525e-07
6.38722e-07
6.4032e-07
6.50088e-07
6.62068e-07
6.87021e-07
7.05436e-07
7.18461e-07
7.51815e-07
7.79619e-07
7.61809e-07
7.54747e-07
7.58496e-07
7.56846e-07
7.51119e-07
7.455e-07
7.40567e-07
7.35838e-07
7.31183e-07
7.26682e-07
7.22257e-07
7.17724e-07
7.12896e-07
7.07553e-07
7.01611e-07
6.95314e-07
5.68272e-07
5.70372e-07
5.79377e-07
5.90858e-07
6.14981e-07
6.28966e-07
6.38697e-07
6.78486e-07
7.13665e-07
6.8916e-07
6.80488e-07
6.87509e-07
6.87754e-07
6.82451e-07
6.77032e-07
6.72421e-07
6.67972e-07
6.63516e-07
6.59156e-07
6.54845e-07
6.50455e-07
6.45765e-07
6.40566e-07
6.34779e-07
6.28646e-07
5.12499e-07
5.14578e-07
5.22042e-07
5.31886e-07
5.5287e-07
5.60218e-07
5.667e-07
6.02973e-07
6.42894e-07
6.20445e-07
6.14116e-07
6.23729e-07
6.26873e-07
6.23516e-07
6.1912e-07
6.15266e-07
6.11503e-07
6.07652e-07
6.03764e-07
5.99857e-07
5.95848e-07
5.91545e-07
5.86709e-07
5.81255e-07
5.7544e-07
4.61553e-07
4.63569e-07
4.69579e-07
4.78261e-07
4.96054e-07
4.97888e-07
5.03924e-07
5.31878e-07
5.71886e-07
5.56811e-07
5.54022e-07
5.64428e-07
5.69881e-07
5.68766e-07
5.65639e-07
5.62562e-07
5.59496e-07
5.56277e-07
5.52961e-07
5.49578e-07
5.46066e-07
5.42264e-07
5.37933e-07
5.32954e-07
5.27592e-07
4.11747e-07
4.13666e-07
4.18282e-07
4.26311e-07
4.40692e-07
4.38955e-07
4.46035e-07
4.66037e-07
5.06551e-07
4.99531e-07
4.99801e-07
5.09628e-07
5.16148e-07
5.16748e-07
5.14807e-07
5.1254e-07
5.10194e-07
5.07578e-07
5.04747e-07
5.01801e-07
4.98719e-07
4.95347e-07
4.91489e-07
4.86945e-07
4.8194e-07
3.64385e-07
3.66114e-07
3.6945e-07
3.77114e-07
3.87809e-07
3.84585e-07
3.92726e-07
4.05667e-07
4.47206e-07
4.47651e-07
4.50953e-07
4.60081e-07
4.67026e-07
4.687e-07
4.67541e-07
4.65949e-07
4.64421e-07
4.62636e-07
4.60459e-07
4.57988e-07
4.55266e-07
4.52228e-07
4.48669e-07
4.44404e-07
4.3959e-07
3.19671e-07
3.21e-07
3.23111e-07
3.30397e-07
3.37227e-07
3.34882e-07
3.43115e-07
3.50947e-07
3.94585e-07
4.01449e-07
4.07254e-07
4.1586e-07
4.23296e-07
4.25992e-07
4.252e-07
4.23388e-07
4.21708e-07
4.2018e-07
4.18544e-07
4.16628e-07
4.14322e-07
4.11527e-07
4.08e-07
4.03643e-07
3.98597e-07
2.78167e-07
2.78774e-07
2.79575e-07
2.85943e-07
2.88784e-07
2.89563e-07
2.96069e-07
3.02049e-07
3.49013e-07
3.61352e-07
3.6918e-07
3.76709e-07
3.83694e-07
3.87401e-07
3.87994e-07
3.86608e-07
3.84176e-07
3.81305e-07
3.7842e-07
3.75676e-07
3.7293e-07
3.69836e-07
3.65872e-07
3.60573e-07
3.53958e-07
2.4028e-07
2.3991e-07
2.39285e-07
2.43675e-07
2.42344e-07
2.47247e-07
2.48966e-07
2.58156e-07
3.10265e-07
3.26972e-07
3.37878e-07
3.44417e-07
3.47894e-07
3.48325e-07
3.47955e-07
3.47873e-07
3.47441e-07
3.4555e-07
3.41982e-07
3.37284e-07
3.31987e-07
3.26247e-07
3.19783e-07
3.12205e-07
3.03419e-07
2.9363e-07
2.05981e-07
2.04531e-07
2.02448e-07
2.03774e-07
1.98608e-07
2.06646e-07
1.99649e-07
2.19835e-07
2.78392e-07
2.95066e-07
3.10027e-07
3.18055e-07
3.18929e-07
3.1328e-07
3.04746e-07
2.97516e-07
2.93565e-07
2.92101e-07
2.91035e-07
2.88695e-07
2.84295e-07
2.77686e-07
2.68873e-07
2.58231e-07
2.46448e-07
2.34308e-07
1.75366e-07
1.72383e-07
1.68139e-07
1.65513e-07
1.58233e-07
1.68187e-07
1.52564e-07
1.96494e-07
2.56319e-07
2.66901e-07
2.82575e-07
2.88126e-07
2.89725e-07
2.8859e-07
2.80202e-07
2.64612e-07
2.47684e-07
2.35418e-07
2.30415e-07
2.31915e-07
2.37389e-07
2.43922e-07
2.47859e-07
2.4577e-07
2.37929e-07
2.27944e-07
1.5064e-07
1.44807e-07
1.3587e-07
1.26999e-07
1.18622e-07
1.30507e-07
1.18731e-07
1.98674e-07
2.46519e-07
2.65193e-07
3.03488e-07
3.13276e-07
3.01505e-07
2.82205e-07
2.69488e-07
2.71744e-07
2.83851e-07
2.95159e-07
3.00549e-07
3.01049e-07
2.99377e-07
2.98408e-07
3.02525e-07
3.17122e-07
3.42366e-07
3.72612e-07
1.3562e-07
1.26187e-07
1.10077e-07
9.04147e-08
7.56447e-08
8.63787e-08
9.75542e-08
2.01312e-07
2.19848e-07
2.56534e-07
3.27418e-07
3.88331e-07
4.49771e-07
5.1283e-07
5.70414e-07
6.1799e-07
6.54325e-07
6.83884e-07
7.12587e-07
7.43976e-07
7.79074e-07
8.17175e-07
8.56393e-07
8.91916e-07
9.18843e-07
9.39708e-07
1.28723e-07
1.17543e-07
9.67792e-08
6.67599e-08
3.54849e-08
4.26422e-08
8.72223e-08
1.5207e-07
2.19822e-07
4.81004e-07
7.34308e-07
9.61914e-07
1.14252e-06
1.27296e-06
1.35968e-06
1.41751e-06
1.46166e-06
1.50319e-06
1.5458e-06
1.58887e-06
1.63022e-06
1.66952e-06
1.70839e-06
1.75254e-06
1.7976e-06
1.83577e-06
)
;

boundaryField
{
    inlet
    {
        type            calculated;
        value           nonuniform List<scalar> 
26
(
1.29633e-07
1.18651e-07
9.77325e-08
6.62723e-08
3.05244e-08
4.37411e-08
1.03542e-07
1.10904e-07
4.96419e-07
1.0163e-06
1.60618e-06
2.1944e-06
2.72979e-06
3.19058e-06
3.56661e-06
3.86721e-06
4.10782e-06
4.30496e-06
4.47408e-06
4.62772e-06
4.77544e-06
4.92743e-06
5.09575e-06
5.28938e-06
5.4952e-06
5.69172e-06
)
;
    }
    outlet
    {
        type            calculated;
        value           nonuniform List<scalar> 0();
    }
    walls
    {
        type            calculated;
        value           nonuniform List<scalar> 0();
    }
    frontAndBack
    {
        type            empty;
    }
    procBoundary0to1
    {
        type            processor;
        value           nonuniform List<scalar> 
94
(
0.000657375
0.000538767
0.000538767
0.000444091
0.000444091
0.000368626
0.000368626
0.000307601
0.000307601
0.00025831
0.00025831
0.000218314
0.000191724
0.000191724
0.000163801
0.000144748
0.000144748
0.000124765
0.00011074
9.83712e-05
9.83712e-05
8.55556e-05
7.62107e-05
7.62107e-05
6.6554e-05
5.93932e-05
5.30136e-05
5.30136e-05
4.64717e-05
4.15301e-05
3.71176e-05
3.71176e-05
3.26063e-05
2.91707e-05
2.91707e-05
2.56423e-05
2.29608e-05
2.05645e-05
2.05645e-05
1.81006e-05
1.6234e-05
1.45666e-05
1.45666e-05
1.28449e-05
1.15488e-05
1.03913e-05
1.03913e-05
9.1896e-06
8.29094e-06
7.4869e-06
7.4869e-06
6.64809e-06
6.02241e-06
5.46098e-06
5.46098e-06
4.87297e-06
4.4334e-06
4.03658e-06
3.67848e-06
3.67848e-06
3.30703e-06
3.02179e-06
2.76131e-06
2.52292e-06
2.52292e-06
2.27772e-06
2.07971e-06
1.89608e-06
1.72663e-06
1.57138e-06
1.57138e-06
1.41886e-06
1.29236e-06
1.17578e-06
1.06679e-06
9.63806e-07
8.66761e-07
8.66761e-07
7.69961e-07
6.89048e-07
6.22543e-07
5.69646e-07
5.22191e-07
4.76774e-07
4.34453e-07
3.93139e-07
3.46556e-07
3.46556e-07
2.82913e-07
2.22342e-07
2.18702e-07
4.03254e-07
9.58252e-07
1.86605e-06
)
;
    }
    procBoundary0to4
    {
        type            processor;
        value           nonuniform List<scalar> 
72
(
0.00059548
0.000506054
0.000432936
0.000372403
0.000321892
0.000279405
0.000243433
0.000212788
0.000186536
0.000163939
0.000144409
0.000127469
0.00011272
9.9841e-05
8.85623e-05
7.86606e-05
6.99493e-05
6.22686e-05
5.54841e-05
4.94818e-05
4.41626e-05
3.9442e-05
3.46281e-05
3.46281e-05
3.09588e-05
2.76922e-05
2.47812e-05
2.21849e-05
1.98672e-05
1.77966e-05
1.59456e-05
1.42899e-05
1.28081e-05
1.14811e-05
1.02921e-05
9.22648e-06
8.27091e-06
7.4137e-06
6.64448e-06
5.95398e-06
5.33399e-06
4.77714e-06
4.27691e-06
3.82743e-06
3.42349e-06
3.06042e-06
2.73403e-06
2.44058e-06
2.17675e-06
1.93952e-06
1.72622e-06
1.53444e-06
1.36204e-06
1.20707e-06
1.06783e-06
9.42828e-07
8.30703e-07
7.30328e-07
6.42032e-07
5.71045e-07
5.14941e-07
4.63651e-07
4.13521e-07
3.65877e-07
3.20969e-07
2.79394e-07
2.41577e-07
2.07493e-07
1.77338e-07
1.53418e-07
1.39258e-07
1.32728e-07
)
;
    }
    procBoundary0to5
    {
        type            processor;
        value           nonuniform List<scalar> 4(0.00069999 0.000692436 0.000683701 0.000672424);
    }
}


// ************************************************************************* //
