/*--------------------------------*- C++ -*----------------------------------*\
| =========                 |                                                 |
| \\      /  F ield         | OpenFOAM: The Open Source CFD Toolbox           |
|  \\    /   O peration     | Version:  2506                                  |
|   \\  /    A nd           | Website:  www.openfoam.com                      |
|    \\/     M anipulation  |                                                 |
\*---------------------------------------------------------------------------*/
FoamFile
{
    version     2.0;
    format      ascii;
    arch        "LSB;label=32;scalar=64";
    class       volVectorField;
    location    "200";
    object      momentError;
}
// * * * * * * * * * * * * * * * * * * * * * * * * * * * * * * * * * * * * * //

dimensions      [0 1 -2 0 0 0 0];

internalField   nonuniform List<vector> 
1340
(
(-0.00409518 -0.205079 -2.97013e-15)
(0.00937241 -0.195726 -2.41518e-14)
(0.0207396 -0.17837 1.51403e-14)
(0.0308006 -0.152505 4.43046e-14)
(0.0393396 -0.134357 1.415e-14)
(-0.00468769 -0.179346 -6.02683e-15)
(0.00715929 -0.17128 9.72479e-15)
(0.0172657 -0.156806 2.39075e-14)
(0.0263322 -0.135153 -3.82337e-14)
(0.0340071 -0.119632 -2.84978e-14)
(0.0393482 -0.101933 -1.85159e-14)
(-0.00505489 -0.157472 2.61462e-15)
(0.00537306 -0.150468 5.19287e-15)
(0.0143834 -0.138327 -1.37658e-14)
(0.0225883 -0.120037 1.80355e-14)
(0.0296955 -0.106605 3.23817e-14)
(0.0349452 -0.0925605 1.6568e-15)
(0.0414305 -0.0866166 1.1151e-14)
(-0.0051616 -0.138704 -1.70734e-15)
(0.00404049 -0.132607 -7.03301e-15)
(0.0120615 -0.122302 3.8709e-15)
(0.0194859 -0.106753 1.67998e-16)
(0.0259992 -0.0951042 -2.07091e-14)
(0.0312624 -0.0846872 1.64706e-14)
(0.0379191 -0.0805097 -4.45535e-14)
(0.0462379 -0.0786326 6.2545e-15)
(-0.00513832 -0.122505 -1.89708e-15)
(0.00301491 -0.117167 4.64605e-15)
(0.0101805 -0.108373 4.30043e-15)
(0.0168891 -0.0951263 -1.87424e-14)
(0.0228269 -0.0850009 -5.87264e-14)
(0.0279672 -0.0773102 3.66726e-14)
(0.0345813 -0.0744004 -7.66367e-14)
(0.0421661 -0.0724932 2.57011e-14)
(0.0488164 -0.0691996 1.37625e-13)
(-0.00503596 -0.10847 9.00912e-16)
(0.00221961 -0.103762 3.91862e-16)
(0.00862966 -0.0961903 -1.04134e-14)
(0.0146967 -0.0848586 -7.58259e-15)
(0.0200883 -0.076028 2.97901e-15)
(0.0250928 -0.0703736 1.70463e-14)
(0.0315011 -0.0684872 1.05039e-15)
(0.0383906 -0.0665917 -7.21629e-14)
(0.0444548 -0.0635736 6.96728e-14)
(0.0492585 -0.0597168 2.74884e-14)
(-0.00487506 -0.0962057 1.09618e-15)
(0.00159841 -0.0920591 -4.00294e-15)
(0.00734393 -0.0855334 1.52114e-15)
(0.0128084 -0.0758047 1.98762e-14)
(0.0177206 -0.0680707 4.6107e-14)
(0.0225118 -0.063957 -7.60613e-14)
(0.0286483 -0.0628493 6.15922e-14)
(0.0349036 -0.0610066 -3.67637e-14)
(0.0404447 -0.0582572 -6.93128e-14)
(0.0448556 -0.0548391 8.48721e-15)
(-0.00467875 -0.0854935 -1.84541e-15)
(0.00110708 -0.081825 -1.63778e-16)
(0.00626235 -0.0761694 1.17693e-16)
(0.0111977 -0.0677806 1.59619e-14)
(0.0156802 -0.0609679 1.20644e-15)
(0.0201544 -0.0579742 3.16962e-14)
(0.0260203 -0.0575169 -1.62149e-14)
(0.0316927 -0.0557542 -4.8066e-14)
(0.0367576 -0.0532785 -3.13442e-14)
(0.040799 -0.0502281 -6.73309e-14)
(0.0437672 -0.0466966 -1.83455e-14)
(-0.00447204 -0.0760464 -1.89079e-17)
(0.000710274 -0.0728207 -6.81355e-15)
(0.00535346 -0.0678997 2.97489e-15)
(0.00983215 -0.0606403 9.0798e-15)
(0.0139629 -0.0550498 -1.17299e-14)
(0.0182072 -0.0528472 -1.18606e-14)
(0.0236268 -0.0525255 -1.98412e-14)
(0.0287546 -0.0508535 -1.53467e-14)
(0.0333748 -0.0486259 3.15504e-14)
(0.0370997 -0.0459264 8.41125e-14)
(0.0398563 -0.0428255 -4.36909e-14)
(-0.00426325 -0.0677358 -8.34858e-16)
(0.000394748 -0.0648778 6.37465e-16)
(0.00458127 -0.0605854 -4.90932e-16)
(0.00864619 -0.0542954 -1.32811e-14)
(0.0124694 -0.0498758 9.11828e-15)
(0.0165007 -0.0482653 -6.59046e-15)
(0.0214279 -0.0478759 -1.4038e-15)
(0.0260806 -0.0463197 7.29626e-14)
(0.0302895 -0.0443127 7.51568e-15)
(0.033709 -0.0419187 5.96916e-14)
(0.0362662 -0.0391807 6.86511e-14)
(0.038585 -0.0368114 -3.41462e-14)
(-0.00404144 -0.0603836 1.35209e-16)
(0.00014813 -0.0578554 -5.90564e-15)
(0.00392332 -0.0541069 -8.24308e-15)
(0.0076092 -0.0486424 -9.71399e-15)
(0.0111419 -0.0451656 1.20916e-14)
(0.0149462 -0.0440129 5.11892e-14)
(0.0194152 -0.0435717 -4.13277e-15)
(0.0236421 -0.0421307 2.45943e-14)
(0.0274778 -0.0403245 -1.77388e-15)
(0.0306151 -0.0382023 -7.12086e-14)
(0.0329932 -0.0357876 -3.71036e-14)
(0.0352173 -0.0337631 5.52735e-14)
(-0.00381681 -0.0538835 4.35398e-18)
(-4.43128e-05 -0.0516416 2.66983e-15)
(0.00336107 -0.0483541 8.64803e-15)
(0.0067041 -0.043598 3.31233e-15)
(0.00996206 -0.0408641 1.10267e-15)
(0.0135332 -0.0400778 -6.96918e-15)
(0.017588 -0.0396155 7.87116e-14)
(0.0214289 -0.038284 -2.67741e-16)
(0.0249284 -0.0366639 -9.5603e-14)
(0.0278043 -0.0347751 -2.17641e-14)
(0.0300066 -0.0326398 1.2724e-14)
(0.0321009 -0.0308994 1.58102e-14)
(-0.00359821 -0.0481047 6.73737e-16)
(-0.000195501 -0.04612 5.42516e-15)
(0.00287866 -0.0432349 -3.14267e-15)
(0.00590786 -0.0390894 2.61241e-14)
(0.00891205 -0.036951 2.40344e-14)
(0.0122456 -0.0364428 -3.75992e-16)
(0.0159255 -0.0359747 2.13459e-14)
(0.0194162 -0.0347482 -3.75354e-14)
(0.0226037 -0.0332874 -2.42638e-14)
(0.0252406 -0.0316113 -7.96083e-14)
(0.0272857 -0.0297314 5.23232e-14)
(0.0292393 -0.0282221 8.18223e-14)
(0.0309293 -0.0269023 -1.46018e-14)
(-0.0033887 -0.0429754 7.45683e-16)
(-0.000312244 -0.0412164 2.07396e-16)
(0.00246441 -0.0386838 -8.69366e-15)
(0.00521266 -0.0350621 3.99815e-15)
(0.00797406 -0.0334101 -4.7042e-15)
(0.0110804 -0.0331093 -4.97583e-15)
(0.0144175 -0.0326399 -6.90593e-14)
(0.0175917 -0.0315151 4.68839e-14)
(0.0204971 -0.0301991 1.99284e-14)
(0.0229083 -0.0287035 1.40306e-14)
(0.0247974 -0.0270418 -5.59448e-14)
(0.0266377 -0.0257368 1.6917e-15)
(0.0282423 -0.0246418 -3.74546e-14)
(-0.00318186 -0.0384099 6.52469e-16)
(-0.000398814 -0.0368443 -2.04364e-15)
(0.00210993 -0.0346154 4.34571e-15)
(0.0046033 -0.0314584 -1.13474e-14)
(0.00714057 -0.030191 -3.33925e-14)
(0.0100236 -0.0300514 1.66387e-16)
(0.0130492 -0.0295855 -1.06569e-15)
(0.0159335 -0.0285518 -8.28002e-15)
(0.0185827 -0.0273714 4.82408e-14)
(0.0207921 -0.0260425 -1.91972e-14)
(0.0225352 -0.0245705 -5.62228e-15)
(0.0242611 -0.023448 -6.56551e-15)
(0.0257729 -0.0225212 1.0296e-14)
(0.0268646 -0.0215007 -2.13795e-14)
(-0.00298052 -0.0343417 -1.48981e-15)
(-0.000462689 -0.0329563 -1.00798e-15)
(0.00180346 -0.0309913 9.88943e-15)
(0.00406187 -0.0282254 -1.18584e-14)
(0.00639606 -0.0272542 5.6317e-15)
(0.0090619 -0.0272446 -1.95336e-14)
(0.011808 -0.0267949 -8.61147e-16)
(0.0144337 -0.0258541 -2.06135e-14)
(0.0168485 -0.0247914 2.14208e-14)
(0.0188676 -0.0236046 -2.16681e-14)
(0.0204732 -0.0222997 3.25221e-15)
(0.0220816 -0.0213311 2.69554e-15)
(0.0235167 -0.0205508 3.21098e-14)
(0.0245953 -0.0197094 1.18419e-14)
(-0.00278971 -0.0307144 5.44245e-18)
(-0.000509994 -0.0294824 8.87262e-16)
(0.0015393 -0.0277468 1.5047e-15)
(0.0035887 -0.0253252 2.16251e-15)
(0.00572536 -0.0245868 3.04124e-14)
(0.00819229 -0.0246827 4.26104e-15)
(0.0106837 -0.0242481 -7.8948e-15)
(0.0130708 -0.0233876 5.92572e-15)
(0.0152723 -0.0224332 5.07599e-15)
(0.017119 -0.0213762 5.35256e-14)
(0.018598 -0.0202202 2.03365e-14)
(0.020094 -0.0193831 5.34356e-15)
(0.0214478 -0.0187292 -5.19386e-14)
(0.0224945 -0.0180332 1.93488e-14)
(-0.00260858 -0.0274787 -4.68908e-16)
(-0.000539586 -0.02638 -2.68585e-15)
(0.00131653 -0.0248443 -6.10083e-15)
(0.00317732 -0.022745 -2.63911e-15)
(0.00513032 -0.0221783 -1.28126e-14)
(0.00740682 -0.0223417 -1.3602e-15)
(0.00966764 -0.0219318 5.59951e-14)
(0.0118382 -0.0211454 1.36575e-14)
(0.0138436 -0.0202854 -4.42121e-14)
(0.015531 -0.0193417 -9.64717e-15)
(0.0168915 -0.0183169 2.56183e-15)
(0.0182796 -0.0175921 2.41515e-14)
(0.0195573 -0.0170479 -1.49556e-14)
(0.0205475 -0.0164677 -2.79563e-14)
(0.0215453 -0.0159972 5.0583e-14)
(-0.00243015 -0.0245838 -1.13389e-15)
(-0.000555457 -0.0236046 -9.01284e-16)
(0.00112741 -0.022248 -9.07975e-16)
(0.00281787 -0.0205097 -9.43628e-16)
(0.00462257 -0.0200788 2.17821e-14)
(0.00669494 -0.0202083 5.56779e-16)
(0.00874765 -0.0198211 -4.32443e-15)
(0.0107209 -0.0191046 9.41903e-15)
(0.0125484 -0.0183304 3.37622e-14)
(0.0140891 -0.0174865 -6.36711e-14)
(0.0153388 -0.0165764 -3.18347e-14)
(0.0166266 -0.0159494 -4.83763e-15)
(0.017825 -0.0154976 3.59145e-14)
(0.0187719 -0.0150169 -1.80186e-14)
(0.0197519 -0.0146548 -3.05948e-14)
(-0.00225885 -0.0219997 8.50685e-17)
(-0.00056033 -0.021124 -7.52531e-16)
(0.000966014 -0.0199194 1.3153e-15)
(0.00250055 -0.0184823 1.79959e-15)
(0.00416394 -0.0181601 1.88297e-14)
(0.00604925 -0.0182623 -1.96454e-14)
(0.00791439 -0.0179014 -4.75672e-16)
(0.0097092 -0.017249 -2.15922e-14)
(0.0113735 -0.0165513 -1.67209e-14)
(0.0127801 -0.0157965 4.86845e-14)
(0.0139271 -0.0149873 -2.76473e-14)
(0.0151189 -0.0144438 -1.96352e-14)
(0.0162389 -0.0140684 -1.73872e-14)
(0.0171423 -0.0136729 3.32229e-14)
(0.018091 -0.0134015 2.07817e-14)
(-0.00209786 -0.019682 5.84963e-17)
(-0.000555797 -0.0189011 1.9853e-15)
(0.000828041 -0.0178356 -6.5367e-15)
(0.00222109 -0.016651 6.47796e-16)
(0.00375251 -0.0164162 -2.99564e-14)
(0.00546635 -0.0164948 2.11582e-15)
(0.00716075 -0.0161574 4.3523e-15)
(0.00879307 -0.0155639 -4.51337e-14)
(0.0103083 -0.0149346 1.12149e-14)
(0.0115924 -0.014259 -3.26622e-15)
(0.0126437 -0.0135383 2.71645e-14)
(0.0137451 -0.0130668 1.74454e-15)
(0.0147899 -0.0127551 -2.22198e-14)
(0.0156471 -0.012431 -2.43599e-14)
(0.0165458 -0.0122292 4.37081e-15)
(0.0173372 -0.0120083 1.87955e-14)
(-0.0019451 -0.017606 8.40326e-16)
(-0.000548415 -0.0169134 2.48104e-15)
(0.000708388 -0.0159703 -2.33456e-16)
(0.0019736 -0.0149935 5.91952e-16)
(0.00338122 -0.014827 2.65823e-15)
(0.00493934 -0.0148876 -1.57573e-14)
(0.00647858 -0.0145737 1.26577e-14)
(0.00796265 -0.0140337 1.79994e-14)
(0.00934351 -0.0134678 -1.16994e-14)
(0.010515 -0.012862 -8.17343e-15)
(0.0114784 -0.0122197 3.94336e-15)
(0.0124929 -0.0118081 3.39349e-14)
(0.013468 -0.011551 4.40844e-14)
(0.014276 -0.01129 1.62652e-15)
(0.0151393 -0.0111415 -1.30955e-14)
(0.0159056 -0.0109975 -2.76466e-14)
(-0.000536186 -0.0151331 2.84302e-16)
(0.000604778 -0.0142976 -5.09454e-16)
(0.00175431 -0.0134936 1.16391e-14)
(0.00304677 -0.0133822 8.993e-15)
(0.00446295 -0.013428 7.99361e-15)
(0.00586161 -0.0131376 -6.0341e-15)
(0.00721104 -0.0126467 4.15784e-14)
(0.00846764 -0.0121351 -2.35489e-14)
(0.00953531 -0.0115909 -1.21441e-14)
(0.0104178 -0.0110184 -4.07782e-14)
(0.0113535 -0.0106603 -2.23884e-14)
(0.0122595 -0.0104481 -3.21716e-14)
(0.0130201 -0.0102373 6.92205e-15)
(0.0138487 -0.0101402 9.84198e-15)
(0.0145793 -0.0100457 9.80722e-15)
(0.0150853 -0.00981802 -5.90014e-15)
(-0.000519248 -0.0135371 3.18917e-15)
(0.00051599 -0.0127976 2.10869e-16)
(0.00156012 -0.0121389 -9.78292e-15)
(0.00274567 -0.0120705 -8.03895e-15)
(0.00403262 -0.0121037 4.80362e-15)
(0.00530352 -0.011836 1.22844e-14)
(0.00652996 -0.0113889 -1.01151e-14)
(0.00767378 -0.0109274 1.79268e-14)
(0.00864815 -0.0104399 1.86788e-15)
(0.00945553 -0.00992825 -8.61012e-15)
(0.0103162 -0.00961495 2.35542e-15)
(0.0111568 -0.00943937 5.387e-15)
(0.0118715 -0.00926946 -1.98092e-14)
(0.0126583 -0.00921271 9.94272e-16)
(0.0133645 -0.00915798 1.48667e-15)
(0.0138731 -0.00899267 2.3648e-15)
(-0.000499478 -0.0121089 -2.4428e-16)
(0.000440349 -0.011453 -5.62193e-15)
(0.00138809 -0.0109144 -3.24416e-15)
(0.00247483 -0.0108807 2.10564e-14)
(0.00364418 -0.0109042 -1.71887e-14)
(0.00479858 -0.0106565 1.30355e-14)
(0.00591362 -0.0102507 -1.10896e-14)
(0.00695415 -0.00983332 -1.56352e-14)
(0.00784114 -0.00939413 1.36186e-14)
(0.00857885 -0.00893626 2.77602e-14)
(0.00937039 -0.00866219 -1.95954e-14)
(0.0101498 -0.0085178 2.23152e-14)
(0.0108192 -0.00838141 1.54792e-14)
(0.0115647 -0.0083549 -1.92261e-14)
(0.0122437 -0.00833512 -8.22675e-15)
(0.0127442 -0.00821601 3.62348e-15)
(-0.00047618 -0.0108269 -2.07281e-15)
(0.00037611 -0.010246 2.91997e-15)
(0.0012358 -0.00980706 5.04619e-15)
(0.00223047 -0.00979931 -1.84823e-14)
(0.00329269 -0.00981497 2.46433e-14)
(0.00434127 -0.00958772 -3.94293e-15)
(0.00535475 -0.00921926 3.53518e-16)
(0.00630153 -0.0088427 -4.61599e-15)
(0.00710976 -0.00844792 -3.5666e-14)
(0.00778369 -0.00803808 1.81545e-14)
(0.00851016 -0.0077973 8.86662e-15)
(0.00923093 -0.00767707 -5.07793e-14)
(0.00985759 -0.00757024 8.91836e-15)
(0.0105597 -0.00756579 1.5032e-14)
(0.0112128 -0.00757392 -1.11789e-14)
(0.0116919 -0.00749235 -2.60429e-14)
(0.012098 -0.00735424 -9.94686e-15)
(-0.000451233 -0.00967982 2.18579e-15)
(0.000321204 -0.00916462 1.36871e-15)
(0.00110095 -0.00880809 -4.74992e-15)
(0.00201094 -0.00882112 8.67271e-15)
(0.00297571 -0.00883073 -9.88877e-15)
(0.003928 -0.00862133 1.04215e-14)
(0.00484842 -0.00828599 -2.71613e-14)
(0.00570908 -0.00794525 -1.60175e-15)
(0.00644542 -0.00759055 2.60567e-14)
(0.00706045 -0.00722313 -6.7122e-15)
(0.00772764 -0.00701174 2.65588e-14)
(0.00839252 -0.00691247 1.71648e-14)
(0.00897653 -0.00682784 -7.01158e-15)
(0.00963689 -0.00684115 3.08161e-14)
(0.01026 -0.00687197 1.68576e-14)
(0.0107269 -0.00682027 4.20152e-15)
(0.0111353 -0.00672466 -4.17068e-15)
(-0.000425857 -0.00865014 2.50089e-16)
(0.000274143 -0.00819424 -6.6697e-15)
(0.000981276 -0.00790576 2.95646e-15)
(0.00181284 -0.00793341 6.40548e-15)
(0.00268879 -0.00793771 -7.24205e-15)
(0.00355335 -0.007746 -1.05057e-14)
(0.00439002 -0.00744243 6.23936e-15)
(0.00517257 -0.00713444 -2.64974e-14)
(0.00584224 -0.00681431 1.82898e-15)
(0.00640351 -0.0064849 4.46581e-14)
(0.00701485 -0.00629843 7.84223e-16)
(0.00762818 -0.00621623 -2.59674e-15)
(0.00817224 -0.00615083 -1.44789e-14)
(0.00879173 -0.0061776 -7.62595e-15)
(0.00938158 -0.00622376 1.39161e-14)
(0.009834 -0.0061971 -3.41484e-15)
(0.0102375 -0.00613422 9.4994e-16)
(-0.000400408 -0.0077272 -3.24998e-17)
(0.000234016 -0.00732292 3.26506e-15)
(0.000874962 -0.00709082 2.03149e-15)
(0.00163452 -0.00712986 -1.20858e-14)
(0.00242968 -0.00713071 1.69457e-14)
(0.00321461 -0.006955 4.97119e-15)
(0.00397412 -0.00667921 2.36262e-14)
(0.00468573 -0.00640107 3.74779e-14)
(0.00529534 -0.00611289 -4.60284e-14)
(0.0058073 -0.00581719 -4.29561e-14)
(0.0063669 -0.00565179 2.19436e-15)
(0.00693167 -0.00558319 4.48378e-15)
(0.00743606 -0.00553215 -1.16763e-14)
(0.00801702 -0.00556874 -2.32478e-14)
(0.00857378 -0.00562567 8.70662e-15)
(0.00901215 -0.0056204 1.01114e-15)
(0.00939888 -0.00558323 -2.23418e-14)
(0.00963506 -0.00545106 7.5577e-15)
(-0.000374574 -0.00689915 -6.35688e-16)
(0.00019986 -0.00654124 4.92195e-15)
(0.000780749 -0.00635585 -2.37674e-15)
(0.00147374 -0.00640214 4.4207e-15)
(0.00219533 -0.00640013 -1.43226e-14)
(0.00290774 -0.00623998 -1.51753e-14)
(0.00359737 -0.00598977 1.57783e-14)
(0.00424376 -0.00573805 1.44317e-14)
(0.00479826 -0.00547811 1.54543e-14)
(0.00526516 -0.00521266 -8.83315e-15)
(0.00577759 -0.00506595 -1.10748e-14)
(0.00629758 -0.00500861 1.51723e-15)
(0.00676492 -0.00496873 5.52632e-15)
(0.00730664 -0.00501133 -1.07993e-14)
(0.00783232 -0.00507587 -2.24679e-15)
(0.00825236 -0.00508733 1.45918e-14)
(0.00862999 -0.00506994 -4.18033e-15)
(0.00887333 -0.00497144 -8.1512e-15)
(-0.000349068 -0.00615717 1.1357e-16)
(0.000170701 -0.00584022 -2.10071e-15)
(0.000697062 -0.00569316 4.84486e-15)
(0.00132907 -0.00574482 8.48311e-15)
(0.00198355 -0.00574031 2.01001e-15)
(0.00262978 -0.00559384 -2.19584e-14)
(0.00325576 -0.00536713 -2.80052e-14)
(0.00384289 -0.00513938 6.21356e-15)
(0.00434722 -0.00490502 3.64186e-15)
(0.00477256 -0.00466602 2.92238e-14)
(0.00524127 -0.00453531 1.38215e-14)
(0.00571948 -0.00448694 5.01913e-15)
(0.00615171 -0.00445584 1.99749e-14)
(0.00665697 -0.00450231 1.64184e-15)
(0.00715135 -0.00457142 -1.38713e-14)
(0.00755232 -0.00459517 -5.23016e-15)
(0.00791869 -0.00459439 -2.64871e-15)
(0.00816261 -0.00452057 1.86501e-14)
(-0.000324364 -0.00549118 2.70422e-15)
(0.000145828 -0.0052113 -3.70985e-15)
(0.000622735 -0.00509566 -2.53012e-15)
(0.0011985 -0.00515012 -2.37086e-15)
(0.00179197 -0.00514399 7.08003e-16)
(0.00237791 -0.00501026 2.0918e-14)
(0.00294578 -0.00480482 1.88971e-14)
(0.00347898 -0.00459882 -2.60933e-15)
(0.00393738 -0.00438727 4.81242e-15)
(0.00432502 -0.00417233 -1.45217e-14)
(0.00475328 -0.00405528 -2.0578e-14)
(0.0051927 -0.00401392 -9.07464e-15)
(0.00559225 -0.00398964 1.15981e-15)
(0.00606171 -0.00403755 4.90002e-15)
(0.00652654 -0.00410907 -8.38928e-15)
(0.00690756 -0.00414118 1.08479e-14)
(0.0072629 -0.00415402 -6.25348e-15)
(0.00749782 -0.00410027 -1.2316e-14)
(0.00759841 -0.00395919 1.63426e-14)
(-0.000300531 -0.00489485 -2.50905e-16)
(0.000124785 -0.00464696 3.05957e-15)
(0.000556673 -0.00455701 -3.69675e-15)
(0.00108095 -0.00461309 1.9557e-15)
(0.00161865 -0.00460546 -1.02721e-14)
(0.00214982 -0.00448373 -8.74222e-15)
(0.00266484 -0.00429767 2.622e-15)
(0.00314867 -0.00411121 1.06803e-14)
(0.00356512 -0.00392003 3.5189e-15)
(0.00391799 -0.00372641 2.30685e-15)
(0.00430935 -0.00362144 -1.85485e-14)
(0.00471241 -0.00358549 -7.36291e-15)
(0.00508143 -0.00356642 6.18793e-15)
(0.00551752 -0.00361413 -2.57121e-15)
(0.00595276 -0.00368585 1.55068e-14)
(0.00631439 -0.00372364 1.21535e-14)
(0.00665676 -0.00374711 8.43583e-15)
(0.00688864 -0.00370915 -9.89709e-15)
(0.00699871 -0.00359496 -1.40754e-14)
(-0.000277265 -0.00436005 -5.20346e-16)
(0.000107159 -0.00414132 6.28553e-16)
(0.000498023 -0.00407262 6.25599e-15)
(0.000974915 -0.00412836 5.74788e-15)
(0.00146207 -0.00411996 -4.5094e-15)
(0.00194321 -0.00400901 -3.19293e-15)
(0.00240992 -0.00384021 -1.12691e-14)
(0.00284866 -0.00367132 3.86738e-15)
(0.00322681 -0.00349861 -7.87206e-15)
(0.00354787 -0.003324 1.47235e-14)
(0.00390511 -0.00322952 1.3889e-14)
(0.00427452 -0.00319769 5.72421e-15)
(0.00461497 -0.00318255 5.34274e-15)
(0.0050193 -0.00322898 1.23277e-14)
(0.00542648 -0.00329919 -4.93787e-15)
(0.00576939 -0.00334086 -2.2402e-14)
(0.0060963 -0.00337108 -5.40014e-15)
(0.0063248 -0.00334671 1.98636e-14)
(0.00643913 -0.00325264 2.1375e-15)
(-0.00025477 -0.00388113 1.0945e-16)
(9.23791e-05 -0.00368814 -1.1983e-15)
(0.000445849 -0.00363655 2.26532e-15)
(0.000879305 -0.00369103 -2.99221e-15)
(0.00132025 -0.00368187 4.37806e-15)
(0.00175588 -0.00358079 1.23901e-14)
(0.00217871 -0.00342812 -5.0332e-15)
(0.00257642 -0.00327509 -1.32178e-14)
(0.00291948 -0.00311875 -1.74799e-14)
(0.00321137 -0.00296118 4.09874e-16)
(0.00353722 -0.00287583 -4.19347e-15)
(0.00387557 -0.00284748 -4.63225e-16)
(0.00418888 -0.00283483 1.0195e-14)
(0.0045636 -0.00287921 -1.46206e-14)
(0.00494344 -0.00294657 -4.34575e-15)
(0.00526745 -0.00299001 7.945e-15)
(0.00558021 -0.00302485 -1.03715e-14)
(0.00580411 -0.0030112 4.44253e-15)
(0.00591566 -0.00293376 5.76484e-15)
(0.00590518 -0.00278406 -1.27124e-14)
(-0.000233362 -0.00345223 -6.29537e-17)
(7.98227e-05 -0.00328235 1.42893e-15)
(0.000399603 -0.00324444 -5.21986e-15)
(0.000793133 -0.00329739 -4.89233e-15)
(0.00119215 -0.00328782 -1.42051e-15)
(0.00158633 -0.00319565 1.32074e-14)
(0.00196897 -0.00305699 -6.06005e-15)
(0.0023293 -0.00291834 -1.02957e-14)
(0.0026404 -0.00277679 1.43892e-14)
(0.00290553 -0.00263441 -6.28649e-15)
(0.00320242 -0.00255696 1.15436e-14)
(0.00351189 -0.00253118 -9.45037e-15)
(0.0038003 -0.00252054 -1.07783e-15)
(0.00414649 -0.00256189 1.34775e-14)
(0.00450057 -0.00262555 -2.04188e-14)
(0.00480571 -0.00266924 -4.34803e-15)
(0.00510346 -0.00270648 2.17294e-14)
(0.00532158 -0.00270131 -9.26231e-16)
(0.00543596 -0.00263758 -2.83812e-15)
(0.00543665 -0.00250981 2.41162e-15)
(-0.000213123 -0.00306848 5.04759e-16)
(6.9393e-05 -0.00291886 -1.88238e-15)
(0.000358226 -0.00289169 -2.59346e-15)
(0.0007153 -0.00294262 8.58767e-15)
(0.00107603 -0.00293262 -8.5442e-15)
(0.00143251 -0.00284878 -1.10168e-14)
(0.00177876 -0.00272325 1.56581e-14)
(0.00210486 -0.0025973 -5.69758e-15)
(0.00238676 -0.00246902 -6.0149e-15)
(0.00262751 -0.00234025 -8.16678e-16)
(0.00289784 -0.00226976 -3.44748e-15)
(0.00318065 -0.00224599 1.98545e-14)
(0.00344538 -0.0022364 9.55985e-16)
(0.00376537 -0.00227457 -5.42121e-15)
(0.00409437 -0.00233376 3.22505e-15)
(0.00438113 -0.00237634 -5.8003e-15)
(0.00466448 -0.0024147 1.82068e-15)
(0.00487436 -0.00241537 1.22217e-14)
(0.00499001 -0.00236323 -4.05197e-15)
(0.00499891 -0.00225267 -2.06645e-15)
(-0.000193806 -0.00272508 -2.30968e-16)
(6.08286e-05 -0.00259342 1.5213e-16)
(0.000321198 -0.00257453 1.2375e-15)
(0.000644941 -0.00262338 -6.44292e-15)
(0.000970957 -0.00261338 1.79068e-15)
(0.0012931 -0.00253699 -1.62869e-14)
(0.001606 -0.00242301 8.47331e-15)
(0.00190112 -0.00230878 2.45239e-14)
(0.00215638 -0.00219234 -2.09522e-14)
(0.00237478 -0.00207571 -1.92956e-14)
(0.00262057 -0.00201118 -9.63936e-15)
(0.00287886 -0.00198893 -1.38437e-15)
(0.00312182 -0.00198006 5.61282e-15)
(0.00341666 -0.00201446 4.08407e-15)
(0.00372223 -0.0020689 2.22089e-15)
(0.00399098 -0.00210956 -1.56797e-14)
(0.00425862 -0.00214729 -1.66994e-14)
(0.00446166 -0.00215239 7.44865e-15)
(0.00457757 -0.00211001 4.92953e-15)
(0.00458847 -0.00201389 -6.89903e-15)
(0.00450496 -0.00186916 4.76637e-15)
(-0.000175517 -0.00241792 1.18218e-16)
(5.32882e-05 -0.00230504 3.31833e-16)
(0.000288697 -0.00229184 1.75286e-15)
(0.000581328 -0.00233623 1.24551e-15)
(0.000875707 -0.00232625 1.04529e-14)
(0.00116663 -0.00225674 1.92544e-14)
(0.00144934 -0.00215343 -2.16005e-14)
(0.00171603 -0.00204948 1.18915e-14)
(0.001947 -0.0019437 1.04194e-14)
(0.00214504 -0.00183797 7.55839e-15)
(0.00236864 -0.00177886 -2.14311e-15)
(0.00260405 -0.00175759 8.34195e-15)
(0.00282652 -0.0017488 8.32033e-16)
(0.00309807 -0.00177936 -3.5045e-15)
(0.00338122 -0.00182876 5.69297e-15)
(0.00363249 -0.00186666 -1.3214e-15)
(0.00388524 -0.00190307 9.39536e-16)
(0.00407924 -0.00191078 -5.15993e-15)
(0.00419485 -0.00187648 -5.32431e-15)
(0.00421293 -0.00179335 8.50978e-15)
(0.00414124 -0.00166703 -3.63081e-15)
(-0.000158529 -0.00214312 4.33256e-16)
(4.68006e-05 -0.00204813 -1.86408e-15)
(0.000259668 -0.00203918 -1.27168e-15)
(0.000523772 -0.0020782 2.29732e-15)
(0.000789417 -0.00206838 -6.82083e-15)
(0.00105198 -0.00200518 4.90658e-15)
(0.00130718 -0.00191137 -8.16889e-15)
(0.00154812 -0.00181685 -1.67888e-14)
(0.00175701 -0.00172067 -2.26804e-15)
(0.00193633 -0.00162457 9.23801e-15)
(0.00213935 -0.00157004 9.61193e-15)
(0.00235391 -0.00154955 3.49635e-15)
(0.00255753 -0.00154066 2.87889e-15)
(0.00280691 -0.00156714 -1.50529e-15)
(0.00306878 -0.00161119 5.86483e-15)
(0.00330339 -0.001646 -2.43478e-15)
(0.00354072 -0.00168002 3.80965e-15)
(0.00372667 -0.00168931 7.04913e-15)
(0.0038399 -0.00166113 -1.71139e-15)
(0.00386319 -0.00158895 7.78663e-15)
(0.00380332 -0.00147737 -1.23337e-15)
(-0.00014285 -0.00189783 2.40153e-16)
(4.12988e-05 -0.00181776 -3.9295e-16)
(0.000233548 -0.00181205 5.27777e-16)
(0.000471698 -0.0018464 -1.92324e-15)
(0.000711245 -0.00183686 -5.09376e-15)
(0.000947962 -0.00177927 -1.64507e-14)
(0.00117817 -0.00169416 1.79694e-14)
(0.00139569 -0.00160812 -1.03779e-14)
(0.00158448 -0.00152057 -2.8744e-16)
(0.00174686 -0.00143322 8.22755e-15)
(0.00193112 -0.00138278 -1.70882e-14)
(0.00212634 -0.00136278 -1.18724e-14)
(0.00231226 -0.00135339 -3.18547e-15)
(0.00254119 -0.00137591 3.14763e-15)
(0.0027827 -0.00141458 4.87361e-15)
(0.00300088 -0.00144571 -3.18685e-15)
(0.00322385 -0.00147701 -1.8802e-15)
(0.00340001 -0.00148662 7.01471e-15)
(0.00351088 -0.0014634 -4.95048e-16)
(0.00353837 -0.00140092 5.64108e-15)
(0.00348708 -0.00130235 -1.13863e-15)
(-0.000128233 -0.00167855 2.78695e-16)
(3.6712e-05 -0.00161114 -5.29468e-16)
(0.000210087 -0.00160814 5.32667e-16)
(0.000424608 -0.00163837 -4.14341e-16)
(0.000640414 -0.00162908 6.04064e-15)
(0.000853687 -0.00157668 7.72797e-15)
(0.00106114 -0.00149935 -2.54859e-15)
(0.00125739 -0.00142097 1.79141e-15)
(0.00142788 -0.00134118 -2.5637e-15)
(0.0015748 -0.00126163 -8.22007e-15)
(0.00174181 -0.00121479 9.0907e-15)
(0.00191936 -0.00119514 -2.37867e-18)
(0.00208909 -0.00118529 -5.31568e-16)
(0.00229858 -0.00120379 -5.16197e-16)
(0.00252112 -0.0012372 -7.95599e-15)
(0.00272346 -0.00126449 3.25295e-15)
(0.00293154 -0.00129238 -4.20846e-15)
(0.00309916 -0.00130219 1.08444e-16)
(0.00320644 -0.00128334 6.6381e-15)
(0.00323736 -0.001229 -6.04404e-15)
(0.00319095 -0.00114195 -1.96089e-15)
(0.0030562 -0.00102024 -2.89975e-15)
(-0.000114724 -0.00148284 -3.0307e-16)
(3.28081e-05 -0.00142626 -5.01914e-17)
(0.000189004 -0.00142523 -1.52107e-15)
(0.000382032 -0.00145173 -3.53555e-15)
(0.000576273 -0.00144274 -5.14464e-16)
(0.000768218 -0.00139504 -4.95186e-15)
(0.000955043 -0.00132479 -7.49684e-15)
(0.0011319 -0.00125327 3.50675e-15)
(0.00128583 -0.00118051 2.38152e-15)
(0.00141869 -0.00110801 3.83653e-15)
(0.00157006 -0.00106441 -6.41752e-15)
(0.00173128 -0.00104497 8.46609e-15)
(0.00188583 -0.00103441 -7.24546e-15)
(0.00207751 -0.00104916 -4.28924e-15)
(0.00228178 -0.00107738 1.28129e-14)
(0.00246906 -0.0011007 -3.39526e-15)
(0.00266344 -0.00112544 2.1322e-15)
(0.00282169 -0.00113495 -1.82499e-15)
(0.00292529 -0.00111874 -6.08776e-16)
(0.00295763 -0.00107122 3.37296e-15)
(0.00291844 -0.000994099 3.65711e-15)
(0.00279612 -0.000886904 -2.87844e-15)
(-0.00010234 -0.0013083 -6.49699e-16)
(2.9549e-05 -0.00126097 5.87785e-16)
(0.000170098 -0.00126145 5.51508e-17)
(0.000343586 -0.00128457 2.45758e-15)
(0.000518197 -0.00127576 -1.66123e-15)
(0.000690698 -0.00123227 -3.02179e-17)
(0.000858738 -0.00116842 8.93957e-15)
(0.00101806 -0.00110319 9.42984e-15)
(0.00115693 -0.00103676 2.78928e-16)
(0.00127702 -0.000970588 1.30783e-14)
(0.00141408 -0.000929867 6.20578e-15)
(0.00156039 -0.000910557 -1.20045e-14)
(0.00170111 -0.000899338 4.27186e-16)
(0.00187597 -0.000910447 -5.04874e-15)
(0.00206325 -0.000933651 -1.50667e-15)
(0.0022363 -0.000953323 8.22794e-15)
(0.00241723 -0.000974699 -1.45469e-14)
(0.00256599 -0.000982691 -1.90601e-15)
(0.00266459 -0.000968267 8.14138e-15)
(0.00269799 -0.00092629 1.22493e-15)
(0.00266442 -0.000858007 -1.41744e-15)
(0.00255496 -0.000763637 -4.07523e-15)
(-9.09686e-05 -0.00115286 9.87875e-18)
(2.68288e-05 -0.00111322 2.69182e-16)
(0.000153104 -0.0011148 1.71377e-15)
(0.000308835 -0.00113488 4.88517e-15)
(0.000465602 -0.00112635 2.16602e-15)
(0.000620415 -0.00108669 4.12143e-15)
(0.000771351 -0.00102863 3.76247e-16)
(0.00091469 -0.000969051 -1.38543e-14)
(0.0010399 -0.000908355 1.5552e-14)
(0.00114841 -0.000847886 1.25171e-15)
(0.00127246 -0.000809737 4.24686e-16)
(0.00140511 -0.000790488 6.33944e-15)
(0.00153301 -0.000778514 3.43725e-15)
(0.00169247 -0.000786196 7.22563e-15)
(0.00186402 -0.000804836 6.19019e-15)
(0.00202343 -0.000820711 -6.01008e-15)
(0.00219115 -0.000838233 2.54373e-15)
(0.00233023 -0.000844387 8.19419e-15)
(0.00242394 -0.000831232 -4.1583e-15)
(0.00245701 -0.000793988 -4.44557e-15)
(0.00242916 -0.000734271 1.32224e-15)
(0.00233055 -0.000651888 -3.60307e-15)
(-8.04739e-05 -0.0010145 2.36981e-16)
(2.45358e-05 -0.000981438 -4.42901e-16)
(0.000137749 -0.000983762 -1.66254e-15)
(0.000277314 -0.00100112 -7.19924e-16)
(0.000417858 -0.000992815 3.67324e-15)
(0.00055656 -0.000956674 4.36865e-15)
(0.000691945 -0.000903844 -8.52925e-15)
(0.000820829 -0.000849454 -3.17117e-15)
(0.000933605 -0.000793917 -2.02061e-14)
(0.00103156 -0.000738558 9.55933e-16)
(0.00114373 -0.000702702 2.24226e-15)
(0.00126392 -0.000683453 -2.62112e-15)
(0.00138021 -0.000670777 -4.91396e-15)
(0.00152535 -0.000675181 5.77415e-15)
(0.0016822 -0.000689382 9.29221e-15)
(0.00182874 -0.000701452 -3.53386e-15)
(0.00198394 -0.000715199 -8.02243e-15)
(0.00211356 -0.000719406 4.40001e-15)
(0.00220192 -0.000707071 1.77479e-15)
(0.00223519 -0.000674333 -2.2871e-15)
(0.00221266 -0.000622259 1.49944e-15)
(0.00212152 -0.000550309 3.56131e-15)
(0.00197197 -0.000462315 3.92278e-15)
(-7.08954e-05 -0.000891502 4.13922e-16)
(2.25897e-05 -0.000863958 -1.22817e-15)
(0.000123953 -0.00086679 -1.36308e-15)
(0.000248779 -0.000881732 -8.9134e-16)
(0.000374496 -0.000873677 1.35679e-15)
(0.000498494 -0.000840722 -6.32062e-15)
(0.000619751 -0.000792687 1.82701e-15)
(0.000735454 -0.000742937 5.58662e-15)
(0.000836947 -0.000692099 6.95978e-15)
(0.000925308 -0.000641377 -1.04577e-14)
(0.00102668 -0.000607613 -8.91712e-16)
(0.00113545 -0.000588339 4.18784e-15)
(0.00124092 -0.000574868 -8.9578e-15)
(0.0013731 -0.000576279 3.97375e-16)
(0.00151632 -0.000586282 5.8632e-15)
(0.00165097 -0.000594724 -2.49477e-15)
(0.0017941 -0.000604702 -3.77413e-15)
(0.00191474 -0.000606804 -3.52526e-15)
(0.0019984 -0.000595095 6.23024e-15)
(0.00203093 -0.000565885 -1.08481e-15)
(0.00201247 -0.000520343 -5.5746e-15)
(0.00193071 -0.000457655 6.13525e-15)
(0.00179375 -0.000381892 -5.9842e-15)
(-6.2173e-05 -0.00078183 1.86412e-16)
(2.08584e-05 -0.000758792 -4.36824e-16)
(0.000111336 -0.000761993 1.10677e-15)
(0.000222739 -0.000774962 3.8276e-15)
(0.000335003 -0.000767368 -1.99303e-15)
(0.000445652 -0.000737487 5.44998e-15)
(0.000554101 -0.000693803 -2.52913e-15)
(0.000657874 -0.000648355 -4.9192e-15)
(0.000749096 -0.000601759 1.00233e-14)
(0.000828635 -0.000555184 1.3103e-14)
(0.000920032 -0.000523281 -1.06617e-14)
(0.0010184 -0.000504024 -5.57037e-15)
(0.0011141 -0.000489884 -6.06298e-16)
(0.00123418 -0.000488466 8.60244e-15)
(0.00136485 -0.000494579 -1.35754e-15)
(0.00148834 -0.000499527 -1.05992e-14)
(0.00162037 -0.000505876 6.12052e-15)
(0.00173262 -0.000505768 4.1728e-15)
(0.00181108 -0.000493976 -1.24178e-15)
(0.00184361 -0.000467688 7.29319e-16)
(0.00182835 -0.000427542 -2.67338e-15)
(0.00175434 -0.00037308 -1.60755e-15)
(0.00162942 -0.000307838 5.53196e-15)
(-5.41818e-05 -0.000685042 6.97698e-17)
(1.93049e-05 -0.000666189 -1.00528e-16)
(9.9718e-05 -0.000669482 2.05594e-15)
(0.000198879 -0.00068043 -4.18939e-15)
(0.000298873 -0.000673049 4.16672e-16)
(0.000397409 -0.000645765 -4.40812e-15)
(0.000494386 -0.000606039 -7.63915e-15)
(0.000587392 -0.000564419 -6.8193e-16)
(0.00066923 -0.000521641 -1.28195e-14)
(0.000740721 -0.000478858 -5.38047e-16)
(0.000822992 -0.000448706 2.91368e-15)
(0.000911748 -0.00042948 2.15264e-15)
(0.000998357 -0.000414697 1.48366e-15)
(0.00110746 -0.000410788 -6.65445e-15)
(0.00122653 -0.000413326 -2.58796e-15)
(0.00133976 -0.000415 -3.90907e-15)
(0.00146131 -0.000417815 8.08208e-15)
(0.00156541 -0.000415296 6.75056e-16)