/*--------------------------------*- C++ -*----------------------------------*\
| =========                 |                                                 |
| \\      /  F ield         | OpenFOAM: The Open Source CFD Toolbox           |
|  \\    /   O peration     | Version:  2506                                  |
|   \\  /    A nd           | Website:  www.openfoam.com                      |
|    \\/     M anipulation  |                                                 |
\*---------------------------------------------------------------------------*/
FoamFile
{
    version     2.0;
    format      ascii;
    arch        "LSB;label=32;scalar=64";
    class       surfaceScalarField;
    location    "200";
    object      phi;
}
// * * * * * * * * * * * * * * * * * * * * * * * * * * * * * * * * * * * * * //

dimensions      [0 3 -1 0 0 0 0];

oriented        oriented;

internalField   nonuniform List<scalar> 
2582
(
-0.188082
-0.245249
-0.158366
-0.247628
-0.127729
-0.259881
-0.0891268
-0.31988
-0.325848
-0.188809
-0.276988
-0.157418
-0.279019
-0.125269
-0.292029
-0.0845885
-0.360561
-0.0445014
-0.365935
-0.378301
-0.189845
-0.310526
-0.156813
-0.312052
-0.122934
-0.325907
-0.0801152
-0.40338
-0.0379309
-0.408119
0.00496618
-0.421198
-0.434538
-0.191369
-0.345779
-0.156418
-0.347003
-0.120874
-0.361451
-0.0756854
-0.448568
-0.0313054
-0.452499
0.0138402
-0.466344
0.0600458
-0.480743
-0.464639
-0.19313
-0.38298
-0.156393
-0.383739
-0.118806
-0.399038
-0.0712327
-0.496141
-0.0244737
-0.499258
0.0229915
-0.513809
0.0715358
-0.529288
0.117648
-0.510751
-0.458802
-0.195197
-0.422289
-0.156456
-0.42248
-0.116985
-0.438509
-0.0667483
-0.546378
-0.0175008
-0.548506
0.0324599
-0.563769
0.0835772
-0.580405
0.131987
-0.559161
0.174053
-0.500868
-0.442223
-0.197625
-0.463759
-0.156717
-0.463388
-0.115097
-0.480128
-0.0621542
-0.599321
-0.0102733
-0.600387
0.0423377
-0.61638
0.0961479
-0.634215
0.147062
-0.610075
0.191208
-0.545014
-0.479838
-0.200261
-0.507454
-0.157128
-0.506522
-0.113295
-0.523961
-0.0574797
-0.655136
-0.00276129
-0.655105
0.0526296
-0.671771
0.109254
-0.690839
0.162879
-0.6637
0.209217
-0.591352
0.248672
-0.519293
-0.454715
-0.203218
-0.553552
-0.15774
-0.552
-0.111522
-0.570179
-0.0526212
-0.714037
0.00500827
-0.712734
0.0633948
-0.730158
0.123036
-0.75048
0.179408
-0.720073
0.228178
-0.640122
0.269546
-0.560661
-0.489797
-0.206403
-0.602181
-0.158454
-0.59995
-0.109731
-0.618902
-0.04761
-0.776158
0.0130916
-0.773436
0.0746216
-0.791688
0.137456
-0.813315
0.196839
-0.779455
0.24809
-0.691373
0.291535
-0.604107
0.328278
-0.52654
-0.443162
-0.209876
-0.653432
-0.15928
-0.650546
-0.107925
-0.670256
-0.0424032
-0.84168
0.021599
-0.837438
0.0863933
-0.856482
0.152593
-0.879515
0.215125
-0.841987
0.269053
-0.745301
0.314709
-0.649763
0.353264
-0.565095
-0.47412
-0.213512
-0.707536
-0.16022
-0.703838
-0.106085
-0.724392
-0.0370184
-0.910746
0.0304668
-0.904923
0.098773
-0.924788
0.168525
-0.949267
0.234412
-0.907874
0.291158
-0.802047
0.339129
-0.697735
0.379571
-0.605537
-0.506546
-0.2175
-0.764554
-0.161276
-0.760061
-0.104231
-0.781437
-0.0313818
-0.983595
0.0397366
-0.976042
0.111767
-0.996819
0.185277
-1.02278
0.25465
-0.977246
0.314393
-0.86179
0.364848
-0.74819
0.407363
-0.648052
0.4413
-0.540483
-0.451002
-0.221714
-0.824648
-0.16237
-0.819405
-0.102248
-0.841559
-0.0254815
-1.06036
0.0495469
-1.05107
0.125438
-1.07271
0.202906
-1.10024
0.276011
-1.05035
0.33887
-0.924648
0.391976
-0.801296
0.436614
-0.69269
0.472231
-0.5761
-0.479133
-0.226167
-0.888029
-0.163662
-0.88191
-0.100225
-0.904997
-0.0192207
-1.14137
0.0598405
-1.13013
0.139809
-1.15268
0.22144
-1.18187
0.298444
-1.12736
0.364707
-0.990912
0.42056
-0.857148
0.467513
-0.739644
0.504881
-0.613467
0.534331
-0.508584
-0.432407
-0.23087
-0.954909
-0.164916
-0.947864
-0.0981216
-0.971791
-0.0127322
-1.22675
0.0706199
-1.21348
0.15492
-1.23698
0.240991
-1.26795
0.322165
-1.20853
0.391919
-1.06067
0.450705
-0.915935
0.500058
-0.788996
0.539311
-0.652721
0.570161
-0.539433
-0.457248
-0.23587
-1.0254
-0.166364
-1.01737
-0.0959025
-1.04225
-0.00588013
-1.31678
0.0819927
-1.30136
0.170872
-1.32586
0.261558
-1.35863
0.347097
-1.29407
0.420604
-1.13417
0.482499
-0.97783
0.534419
-0.840916
0.575628
-0.693929
0.607998
-0.571803
-0.483245
-0.241135
-1.09968
-0.167849
-1.09066
-0.093588
-1.11651
0.00137028
-1.41174
0.0939844
-1.39397
0.187682
-1.41956
0.283279
-1.45423
0.373418
-1.38421
0.450841
-1.21159
0.516026
-1.04301
0.570638
-0.895529
0.613968
-0.737259
0.647886
-0.605721
0.675091
-0.51045
-0.431856
-0.246708
-1.17802
-0.169407
-1.16796
-0.0911065
-1.19481
0.00897752
-1.51182
0.106631
-1.49162
0.2054
-1.51833
0.306172
-1.555
0.40118
-1.47921
0.482736
-1.29315
0.551361
-1.11164
0.608846
-0.953015
0.654454
-0.782867
0.690011
-0.641278
0.718485
-0.538924
-0.454435
-0.252524
-1.26062
-0.171066
-1.24941
-0.0885463
-1.27733
0.0169819
-1.61735
0.119954
-1.5946
0.22406
-1.62243
0.330304
-1.66125
0.430421
-1.57933
0.516357
-1.37909
0.588683
-1.18397
0.64921
-1.01354
0.697016
-0.830673
0.734528
-0.678789
0.764317
-0.568714
-0.478072
-0.258695
-1.34769
-0.172828
-1.33528
-0.0857886
-1.36437
0.0254865
-1.72862
0.134035
-1.70315
0.243775
-1.73217
0.355779
-1.77325
0.461278
-1.68483
0.551859
-1.46967
0.627968
-1.26007
0.691672
-1.07725
0.742201
-0.881201
0.781453
-0.718042
0.812663
-0.599924
0.837312
-0.502721
-0.430907
-0.265156
-0.174605
-1.42583
-0.0829084
-1.45607
0.0344353
-1.84597
0.148853
-1.81756
0.264568
-1.84789
0.382589
-1.89127
0.493865
-1.79611
0.58931
-1.56511
0.669463
-1.34023
0.736615
-1.1444
0.789515
-0.934102
0.830822
-0.759349
0.863822
-0.632923
0.889588
-0.528487
-0.451493
-0.176503
-1.5213
-0.0797969
-1.55278
0.0438603
-1.96962
0.164527
-1.93823
0.286499
-1.96986
0.410952
-2.01572
0.528174
-1.91333
0.628811
-1.66575
0.713341
-1.42476
0.784017
-1.21507
0.839816
-0.9899
0.883187
-0.80272
0.917567
-0.667304
0.944706
-0.555625
0.966128
-0.472915
-0.416128
-0.17849
-1.62194
-0.0765593
-1.65471
0.0538638
-2.10005
0.181059
-2.06543
0.309664
-2.09846
0.440867
-2.14693
0.56453
-2.03699
0.670466
-1.77168
0.759463
-1.51375
0.833901
-1.28951
0.892628
-1.04863
0.938302
-0.848394
0.974568
-0.70357
1.0029
-0.583953
1.02538
-0.495396
-0.434524
-0.18053
-1.72805
-0.0730736
-1.76216
0.0644271
-2.23755
0.198531
-2.19953
0.334106
-2.23404
0.472414
-2.28523
0.602656
-2.16723
0.714446
-1.88348
0.808293
-1.6076
0.886664
-1.36788
0.948509
-1.11047
0.996573
-0.896458
1.03448
-0.74148
1.06426
-0.613727
1.08776
-0.5189
-0.453805
-0.182708
-1.83992
-0.0694051
-1.87547
0.0755615
-2.38251
0.216941
-2.34091
0.359882
-2.37698
0.505769
-2.43112
0.643047
-2.30451
0.760823
-2.00125
0.859692
-1.70647
0.942204
-1.4504
1.00738
-1.17565
1.05786
-0.946939
1.09797
-0.781581
1.12909
-0.644855
1.15383
-0.543632
1.1737
-0.47368
-0.421725
-0.184927
-1.95785
-0.065492
-1.9949
0.0873849
-2.53539
0.23645
-2.48997
0.387169
-2.5277
0.540834
-2.58479
0.685732
-2.44941
0.809763
-2.12528
0.913986
-1.81069
1.001
-1.53741
1.06951
-1.24416
1.12278
-1.00021
1.16471
-0.823512
1.19757
-0.677716
1.22338
-0.569438
1.24434
-0.494643
-0.438922
-0.187249
-2.08218
-0.0613199
-2.12083
0.0998289
-2.69654
0.257007
-2.64715
0.415867
-2.68656
0.578013
-2.74693
0.730638
-2.60203
0.861548
-2.25619
0.971394
-1.92054
1.06298
-1.629
1.1352
-1.31638
1.19108
-1.05609
1.23539
-0.867824
1.26977
-0.712098
1.29676
-0.596423
1.31884
-0.516722
-0.4568
-0.189672
-2.2133
-0.0569518
-2.25355
0.113004
-2.8665
0.278711
-2.81286
0.446285
-2.85413
0.617161
-2.91781
0.778146
-2.76302
0.916063
-2.39411
1.03172
-2.0362
1.12839
-1.72566
1.20448
-1.39247
1.26334
-1.11496
1.30983
-0.914307
1.34601
-0.748281
1.37445
-0.624866
1.39732
-0.539585
1.41626
-0.475741
-0.432295
-0.192236
-2.35149
-0.0522458
-2.39354
0.126904
-3.04565
0.301654
-2.98761
0.478318
-3.0308
0.658421
-3.09791
0.828163
-2.93276
0.973619
-2.53957
1.0956
-2.15818
1.19748
-1.82754
1.27749
-1.47248
1.33964
-1.17711
1.38854
-0.963204
1.42657
-0.786308
1.45637
-0.654673
1.48038
-0.563596
1.49995
-0.495311
-0.44893
-0.194824
-2.49721
-0.047266
-2.5411
0.141675
-3.23459
0.325907
-3.17184
0.512123
-3.21701
0.702204
-3.28799
0.881071
-3.11163
1.03436
-2.69286
1.163
-2.28682
1.2702
-1.93473
1.35467
-1.55696
1.41992
-1.24236
1.47143
-1.01471
1.51143
-0.826304
1.54276
-0.686006
1.5681
-0.588933
1.58864
-0.515857
-0.466127
-0.197578
-2.65085
-0.0419633
-2.69672
0.15721
-3.43376
0.351516
-3.36615
0.547883
-3.41338
0.748149
-3.48826
0.936949
-3.30043
1.09849
-2.8544
1.23412
-2.42246
1.3472
-2.04781
1.43607
-1.64583
1.50494
-1.31122
1.55907
-1.06884
1.60111
-0.868347
1.63409
-0.718989
1.66053
-0.615364
1.68197
-0.537302
1.70003
-0.484185
-0.450473
-0.20043
-2.81283
-0.0363954
-2.86075
0.173695
-3.64385
0.378479
-3.57093
0.585598
-3.6205
0.796886
-3.69955
0.995774
-3.49932
1.16629
-3.02491
1.30905
-2.56522
1.42823
-2.16699
1.52202
-1.73962
1.59446
-1.38366
1.65163
-1.12602
1.69583
-0.912545
1.73041
-0.753564
1.75819
-0.643152
1.78082
-0.559927
1.79961
-0.502974
-0.46675
-0.203403
-2.98365
-0.0304232
-3.03373
0.191064
-3.86534
0.407129
-3.78699
0.625513
-3.83888
0.848349
-3.92238
1.05801
-3.70898
1.23756
-3.20446
1.38843
-2.71608
1.51399
-2.29255
1.61279
-1.83842
1.68904
-1.45991
1.7492
-1.18617
1.79575
-0.959097
1.83218
-0.789993
1.86137
-0.672337
1.88494
-0.583498
1.90472
-0.522759
-0.483867
-0.206509
-3.16373
-0.0241018
-3.21614
0.209442
-4.09888
0.437233
-4.01479
0.667535
-4.06919
0.902369
-4.15722
1.12357
-3.93018
1.3132
-3.39409
1.47198
-2.87486
1.60437
-2.42494
1.70848
-1.94253
1.78901
-1.54044
1.85217
-1.24934
1.90134
-1.00827
1.93941
-0.828058
1.97015
-0.703084
1.99506
-0.608401
2.01578
-0.543479
2.03364
-0.50173
-0.477839
-0.20975
-3.35362
-0.0174187
-3.40847
0.228878
-4.34518
0.469085
-4.25499
0.71198
-4.31208
0.959732
-4.40497
1.19299
-4.16345
1.3927
-3.5938
1.5602
-3.04236
1.69989
-2.56462
1.80946
-2.05211
1.89432
-1.6253
1.96102
-1.31603
2.01261
-1.05986
2.05286
-0.868302
2.08507
-0.735293
2.11122
-0.634557
2.13288
-0.565139
2.15162
-0.520467
-0.494668
-0.21314
-3.55386
-0.0103483
-3.61126
0.24941
-4.60494
0.502768
-4.50835
0.758812
-4.56812
1.02
-4.66616
1.26604
-4.40948
1.47674
-3.8045
1.65334
-3.21896
1.80059
-2.71188
1.91626
-2.16778
2.00558
-1.71462
2.0758
-1.38625
2.13021
-1.11428
2.17254
-0.910629
2.20646
-0.769214
2.23379
-0.661884
2.25652
-0.587868
2.2762
-0.540153
-0.512381
-0.216665
-3.765
-0.00280359
-3.82512
0.271142
-4.87888
0.538207
-4.77542
0.808373
-4.83829
1.08386
-4.94164
1.34329
-4.66892
1.56549
-4.0267
1.7517
-3.40517
1.9069
-2.86707
2.02891
-2.28979
2.12296
-1.80868
2.19706
-1.46034
2.25424
-1.17146
2.29892
-0.955306
2.3345
-0.804799
2.36339
-0.690772
2.38724
-0.611723
2.40784
-0.560745
2.42623
-0.530775
-0.516834
-0.220375
-3.98763
0.00513375
-4.05063
0.294003
-5.16775
0.575705
-5.05712
0.86063
-5.12322
1.15122
-5.23224
1.42484
-4.94254
1.65921
-4.26107
1.85555
-3.60151
2.01916
-3.03068
2.14775
-2.41838
2.24702
-1.90795
2.32496
-1.53828
2.38519
-1.23169
2.43217
-1.00229
2.46979
-0.842423
2.50002
-0.720999
2.52515
-0.636852
2.54674
-0.582334
2.56617
-0.55021
-0.534994
-0.224239
-4.22243
0.013588
-4.28846
0.318154
-5.47232
0.615448
-5.35441
0.915777
-5.42354
1.22238
-5.53884
1.51094
-5.2311
1.75798
-4.50812
1.96514
-3.80867
2.13769
-3.20323
2.27319
-2.55387
2.37778
-2.01254
2.45999
-1.62049
2.52356
-1.29526
2.57301
-1.05174
2.61248
-0.881898
2.64432
-0.752834
2.67074
-0.663277
2.69334
-0.604927
2.71373
-0.570602
-0.554134
-0.228271
-4.47003
0.0225285
-4.53926
0.343776
-5.79357
0.657185
-5.66782
0.973955
-5.74031
1.29728
-5.86216
1.60165
-5.53547
1.86234
-4.7688
2.08069
-4.02702
2.26267
-3.38522
2.40552
-2.69671
2.516
-2.12302
2.60252
-1.70702
2.66951
-1.36224
2.72155
-1.10378
2.76331
-0.923652
2.79668
-0.78621
2.82457
-0.691163
2.84842
-0.628777
2.86971
-0.591888
-0.573982
-0.232556
-4.7311
0.031931
-4.80374
0.37079
-6.13242
0.701332
-5.99836
1.03562
-6.07461
1.37644
-6.20298
1.69758
-5.85662
1.97239
-5.04361
2.20289
-4.25752
2.39479
-3.57712
2.54545
-2.84737
2.66164
-2.23921
2.75307
-1.79845
2.82364
-1.43281
2.8785
-1.15864
2.92228
-0.967427
2.95759
-0.821523
2.98671
-0.720286
3.01177
-0.653836
3.03419
-0.614304
3.0553
-0.59509
-0.594881
-0.236963
-5.00648
0.0419644
-5.08267
0.399335
-6.48979
0.747845
-6.34687
1.10039
-6.42715
1.46017
-6.56275
1.79868
-6.19513
2.08875
-5.33368
2.33162
-4.50039
2.53405
-3.77954
2.69299
-3.00632
2.8156
-2.36181
2.91188
-1.89473
2.9862
-1.50713
3.04402
-1.21647
3.09026
-1.01367
3.12745
-0.858707
3.15811
-0.750951
3.18448
-0.6802
3.2081
-0.637925
3.23001
-0.617005
-0.616648
-0.241669
-5.29684
0.0525167
-5.37686
0.429496
-6.86677
0.797165
-6.71454
1.16903
-6.79902
1.54837
-6.94209
1.90556
-6.55232
2.21136
-5.63948
2.46762
-4.75665
2.68105
-3.99298
2.84863
-3.1739
2.97798
-2.49116
3.07941
-1.99616
3.15793
-1.58565
3.2189
-1.27744
3.26743
-1.06219
3.30663
-0.89791
3.33907
-0.783395
3.36673
-0.707852
3.39154
-0.66274
3.41464
-0.640104
-0.639533
-0.246583
-5.60306
0.0636998
-5.68714
0.461292
-7.26437
0.849084
-7.10233
1.24131
-7.19125
1.64144
-7.34222
2.01829
-6.92917
2.34095
-5.96213
2.61124
-5.02694
2.83639
-4.21813
3.01308
-3.35059
3.14941
-2.62749
3.25656
-2.10332
3.33913
-1.66821
3.40341
-1.34173
3.45475
-1.11353
3.49587
-0.939029
3.52994
-0.81746
3.55922
-0.737138
3.58518
-0.688699
3.60965
-0.66457
-0.663384
-0.251699
-5.92606
0.0755315
-6.01437
0.494828
-7.68366
0.903981
-7.51148
1.31773
-7.60499
1.73982
-7.76431
2.13722
-7.32657
2.47752
-6.30243
2.76279
-5.31221
3.00021
-4.45555
3.18661
-3.53699
3.33047
-2.77135
3.44323
-2.21608
3.53047
-1.75545
3.59818
-1.40944
3.65223
-1.16759
3.69573
-0.982529
3.73155
-0.853275
3.76227
-0.767862
3.78975
-0.716178
3.81534
-0.690157
3.84064
-0.688682
-0.708132
-0.257165
-6.26666
0.0879516
-6.35949
0.530274
-8.12599
0.961837
-7.94305
1.39825
-8.04141
1.84355
-8.20961
2.26289
-7.7459
2.62182
-6.66136
2.92251
-5.6129
3.17307
-4.70611
3.36982
-3.73374
3.52134
-2.92287
3.64049
-2.33523
3.73241
-1.84738
3.80378
-1.48081
3.86075
-1.22455
3.90653
-1.02831
3.94438
-0.891126
3.97672
-0.800205
4.00562
-0.745073
4.03254
-0.717079
4.059
-0.715147
-0.735776
-0.26284
-6.62592
0.10122
-6.72355
0.567632
-8.5924
1.02287
-8.39828
1.48322
-8.50176
1.95312
-8.67952
2.39539
-8.18817
2.77416
-7.04013
3.09141
-5.93016
3.35571
-4.97041
3.56306
-3.94108
3.72309
-3.0829
3.8486
-2.46075
3.94548
-1.94426
4.02089
-1.55621
4.08082
-1.28448
4.12914
-1.07663
4.16897
-0.930959
4.20307
-0.834309
4.23346
-0.775454
4.2618
-0.745427
4.28975
-0.743097
-0.764605
-0.268873
-7.00481
0.11503
-7.10745
0.607284
-9.08465
1.08739
-8.87839
1.57312
-8.98749
2.06865
-9.17505
2.53522
-8.65474
2.93481
-7.43972
3.26953
-6.26488
3.54826
-5.24914
3.76706
-4.15988
3.93583
-3.25167
4.06828
-2.5932
4.17049
-2.04646
4.24982
-1.63555
4.31314
-1.3478
4.36397
-1.12745
4.40603
-0.973024
4.44181
-0.870084
4.47394
-0.80759
4.50379
-0.775271
4.53314
-0.772446
-0.794999
-0.275178
-7.40444
0.129896
-7.51252
0.64881
-9.60357
1.15543
-9.38501
1.66773
-9.49979
2.19053
-9.69785
2.68288
-9.14709
3.1044
-7.86125
3.45763
-6.6181
3.75169
-5.5432
3.98243
-4.39062
4.16043
-3.42967
4.30007
-2.73284
4.40788
-2.15428
4.49158
-1.71925
4.55835
-1.41457
4.61182
-1.18093
4.65606
-1.01726
4.69392
-0.90794
4.72772
-0.84139
4.75909
-0.806648
4.78998
-0.803336
-0.82717
-0.281884
-7.82596
0.145245
-7.93965
0.692893
-10.1512
1.22726
-9.91938
1.76787
-10.0404
2.31939
-10.2494
2.83876
-9.66646
3.28336
-8.30584
3.65589
-6.99063
3.96615
-5.85347
4.20963
-4.63409
4.39744
-3.61748
4.54471
-2.88011
4.65824
-2.2678
4.7465
-1.80751
4.81689
-1.48495
4.87346
-1.23749
4.92005
-1.06386
4.96003
-0.947916
4.99542
-0.876783
5.02862
-0.839847
5.06112
-0.83584
5.09482
-0.860873
-0.867492
-0.288924
-8.27052
0.161698
-8.39028
0.739346
-10.7289
1.30295
-10.483
1.87328
-10.6107
2.4553
-10.8314
3.00311
-10.2143
3.47239
-8.77513
3.86543
-7.38366
4.19271
-6.18075
4.44952
-4.8909
4.6475
-3.81547
4.80275
-3.03536
4.92269
-2.38774
5.01575
-1.90057
5.08993
-1.55914
5.1494
-1.29696
5.1986
-1.11306
5.24052
-0.989831
5.27815
-0.91442
5.31283
-0.874527
5.34724
-0.870249
5.38269
-0.896322
-0.903446
-0.296357
-8.73939
0.17888
-8.86551
0.788154
-11.3381
1.38301
-11.0778
1.98461
-11.2123
2.59855
-11.4453
3.17664
-10.7923
3.67169
-9.27018
4.08641
-7.79839
4.43171
-6.52604
4.70251
-5.16171
4.91131
-4.02426
5.07515
-3.19921
5.20147
-2.51405
5.2996
-1.9987
5.37784
-1.63738
5.44073
-1.35985
5.49252
-1.16486
5.53679
-1.0341
5.57622
-0.953852
5.61294
-0.911249
5.64903
-0.906332
5.68653
-0.933823
-0.9414
-0.304135
-9.2341
0.197272
-9.36692
0.839984
-11.9808
1.46734
-11.7052
2.10211
-11.8471
2.7497
-12.0929
3.35968
-11.4023
3.88212
-9.79262
4.31967
-8.23594
4.6838
-6.89017
4.96958
-5.44749
5.1897
-4.24437
5.3625
-3.37202
5.49581
-2.64736
5.59927
-2.10216
5.68168
-1.71979
5.74788
-1.42605
5.80254
-1.21951
5.84918
-1.08075
5.89084
-0.995508
5.92965
-0.950061
5.96773
-0.944406
6.00704
-0.973139
-0.98131
-0.31247
-9.7558
0.216306
-9.8957
0.894519
-12.6591
1.55641
-12.3671
2.22602
-12.5167
2.90941
-12.7763
3.55286
-12.0458
4.10406
-10.3438
4.5658
-8.69768
4.94987
-7.27425
5.25109
-5.74871
5.48355
-4.47683
5.66569
-3.55416
5.80622
-2.78789
5.91534
-2.21128
6.00242
-1.80686
6.07216
-1.4958
6.12975
-1.2771
6.17899
-1.12999
6.22277
-1.03929
6.26356
-0.99085
6.30367
-0.984515
6.34526
-1.01473
-1.02345
-0.321315
-10.306
0.236734
-10.4537
0.951939
-13.3743
1.6502
-13.0653
2.35667
-13.2232
3.07785
-13.4975
3.7568
-12.7247
4.3385
-10.9255
4.82529
-9.18446
5.23055
-7.67951
5.54837
-6.06653
5.79332
-4.72179
5.98559
-3.74643
6.13394
-2.93623
6.2489
-2.32624
6.34058
-1.89855
6.41422
-1.56943
6.47502
-1.3379
6.52672
-1.18169
6.57344
-1.08601
6.61626
-1.03367
6.65807
-1.02632
6.70144
-1.0581
-1.06877
-0.330587
-10.8865
0.257785
-11.0421
1.0125
-14.129
1.74932
-13.8022
2.49491
-13.9688
3.25543
-14.258
3.97196
-13.4413
4.58577
-11.5393
5.09936
-9.69806
5.52664
-8.10678
5.8619
-6.4018
6.12041
-4.98029
6.32313
-3.94914
6.47977
-3.09288
6.6014
-2.44787
6.69711
-1.99426
6.77532
-1.64763
6.83848
-1.40107
6.89373
-1.23694
6.94217
-1.13445
6.98782
-1.07932
7.03185
-1.07035
7.0782
-1.10445
7.12447
-1.11505
-1.02815
-0.340271
-11.4988
0.280525
-11.6629
1.07662
-14.9251
1.85387
-14.5794
2.64033
-14.7552
3.4431
-15.0608
4.19882
-14.197
4.8466
-12.1871
5.38823
-10.2397
5.839
-8.55755
6.19275
-6.75555
6.46557
-5.25311
6.67847
-4.16205
6.84296
-3.25736
6.97074
-2.57565
7.07431
-2.09783
7.15574
-1.72907
7.22374
-1.46907
7.28068
-1.29388
7.33135
-1.18512
7.37926
-1.12723
7.42685
-1.11794
7.47561
-1.15321
7.52441
-1.16385
-1.07342
-0.24461
-11.9386
0.212277
-12.1198
0.84146
-15.5543
1.54039
-15.2784
2.3865
-15.6013
3.47784
-16.1521
4.84585
-15.565
6.22084
-13.5621
6.11956
-10.1384
5.9892
-8.42719
5.88134
-6.64769
5.79685
-5.16862
5.73147
-4.09666
5.68276
-3.20865
5.64483
-2.53773
5.61608
-2.06909
5.59316
-1.70615
5.5765
-1.45241
5.56228
-1.27966
5.55032
-1.17315
5.53896
-1.11586
5.53051
-1.10949
5.5248
-1.1475
5.52187
-1.16092
-1.07408
-0.264545
-12.4227
0.238333
-12.6227
0.930758
-16.2467
1.70001
-16.0476
2.63169
-16.533
3.83385
-17.3543
5.34165
-17.0728
6.85688
-15.0773
6.7426
-10.0241
6.59758
-8.28217
6.4779
-6.52801
6.38283
-5.07356
6.31052
-4.02434
6.25479
-3.15292
6.21527
-2.49821
6.18301
-2.03683
6.15862
-1.68175
6.13755
-1.43134
6.12127
-1.26338
6.10838
-1.16026
6.09731
-1.10479
6.08788
-1.10007
6.08136
-1.14098
6.07779
-1.15735
-1.07662
-0.286324
-12.955
0.266891
-13.1759
1.02913
-17.0089
1.87639
-16.8949
2.90229
-17.5589
4.22657
-18.6786
5.88759
-18.7338
7.55686
-16.7466
7.42669
-9.89395
7.26659
-8.12208
7.1314
-6.39281
7.02802
-4.97018
6.94801
-3.94433
6.88699
-3.09189
6.84112
-2.45234
6.8056
-2.00131
6.77867
-1.65482
6.75725
-1.40992
6.73904
-1.24518
6.7241
-1.14532
6.71219
-1.09288
6.70069
-1.08857
6.69228
-1.13257
6.68948
-1.15455
-1.07868
-0.309338
-13.5407
0.299329
-13.7846
1.13821
-17.8478
2.07061
-17.8273
3.20039
-18.6887
4.65893
-20.1371
6.48881
-20.5637
8.32878
-18.5866
8.18289
-9.74807
8.00273
-7.94192
7.8544
-6.24448
7.73841
-4.85419
7.6488
-3.85472
7.58164
-3.02473
7.5298
-2.4005
7.49133
-1.96284
7.46085
-1.62434
7.43798
-1.38705
7.41808
-1.22528
7.40124
-1.12848
7.38608
-1.07772
7.37651
-1.079
7.36761
-1.12367
7.3633
-1.15024
-1.08046
-0.334391
-14.1848
0.335477
-14.4544
1.25848
-18.7708
2.28531
-18.8541
3.52896
-19.9323
5.13525
-21.7434
7.15025
-22.5787
9.1754
-20.6117
9.01248
-9.58515
8.81309
-7.74252
8.64894
-6.08033
8.52124
-4.72649
8.42014
-3.75362
8.34614
-2.95073
8.28999
-2.34435
8.24762
-1.92047
8.21387
-1.59059
8.186
-1.35919
8.16454
-1.20382
8.14604
-1.10998
8.13039
-1.06208
8.11781
-1.06643
8.10741
-1.11327
8.10432
-1.14714
-1.08087
-0.360956
-14.8935
0.37562
-15.191
1.39174
-19.7869
2.52165
-19.984
3.89093
-21.3016
5.65972
-23.5122
7.8797
-24.7987
10.1097
-22.8418
9.9265
-9.40191
9.70444
-7.52046
9.52215
-5.89804
9.37993
-4.58427
9.27066
-3.64435
9.18782
-2.86789
9.1253
-2.28183
9.07688
-1.87205
9.04017
-1.55387
9.01133
-1.33035
8.98738
-1.17986
8.96607
-1.08867
8.95014
-1.04614
8.93352
-1.04981
8.92434
-1.1041
8.91888
-1.14168
-1.08274
-0.390062
-15.673
0.420757
-16.0018
1.53879
-20.905
2.78233
-21.2275
4.28964
-22.8089
6.2367
-25.4593
8.68043
-27.2424
11.1345
-25.2958
10.9313
-9.19873
10.6863
-7.27551
10.4837
-5.69538
10.3268
-4.42739
10.2051
-3.52268
10.1129
-2.77562
10.0457
-2.21465
9.99162
-1.81798
9.95098
-1.51323
9.9177
-1.29707
9.89012
-1.15228
9.86887
-1.06742
9.84901
-1.02628
9.83363
-1.03443
9.82212
-1.09259
9.81581
-1.13537
-1.08502
-0.421004
-16.5303
0.470818
-16.8936
1.70096
-22.1351
3.06945
-22.596
4.7282
-24.4677
6.87195
-27.603
9.56109
-29.9315
12.261
-27.9957
12.0372
-8.975
11.7658
-7.00406
11.5419
-5.47153
11.3678
-4.25329
11.2335
-3.38831
11.1337
-2.6759
11.0561
-2.13705
10.9993
-1.76117
10.9525
-1.4664
10.9162
-1.26079
10.8878
-1.12389
10.8617
-1.04124
10.8407
-1.00528
10.8229
-1.01665
10.8092
-1.07892
10.8035
-1.12971
10.8051
-1.08661
-1.00083
-0.454436
-17.4734
0.526482
-17.8746
1.87986
-23.4885
3.38571
-24.1019
5.21108
-26.293
7.5705
-29.9624
10.5276
-32.8886
13.501
-30.9691
13.2536
-8.7276
12.9538
-6.70429
12.708
-5.22571
12.5139
-4.05921
12.3662
-3.24062
12.2532
-2.56292
12.1696
-2.05339
12.1042
-1.69581
12.0555
-1.41768
12.0153
-1.22058
11.9811
-1.08975
11.9527
-1.01286
11.9294
-0.981922
11.9093
-0.996577
11.8949
-1.06449
11.8862
-1.12101
11.8885
-1.08896
-1.011
-0.490288
-18.5108
0.588752
-18.9536
2.07748
-24.9772
3.73384
-25.7583
5.74193
-28.3011
8.33621
-32.5567
11.5907
-36.1431
14.8598
-34.2382
14.5916
-8.45936
14.2606
-6.37336
13.9889
-4.95403
13.776
-3.84628
13.6103
-3.07496
13.4853
-2.43791
13.3916
-1.95961
13.3201
-1.62435
13.2633
-1.36083
13.2182
-1.1755
13.1826
-1.05416
13.1511
-0.981414
13.1245
-0.955283
13.1037
-0.975747
13.0862
-1.04697
13.0771
-1.112
13.0779
-1.08971
-1.02069
-0.529046
-19.6517
0.657955
-20.1406
2.29525
-26.6145
4.11692
-27.5799
6.32518
-30.5094
9.17781
-35.4093
12.7555
-39.7208
16.3536
-37.8362
16.0618
-8.1676
15.6996
-6.01114
15.3981
-4.65257
15.1627
-3.61083
14.9782
-2.89049
14.84
-2.29971
14.7356
-1.85515
14.6541
-1.54285
14.591
-1.29781
14.5418
-1.12627
14.4993
-1.01168
14.4662
-0.948277
14.4368
-0.925915
14.411
-0.949923
14.3925
-1.02844
14.3836
-1.10311
14.3828
-1.08889
-1.03227
-0.570208
-20.9062
0.734658
-21.4455
2.53499
-28.4148
4.53753
-29.5825
6.96564
-32.9375
10.1022
-38.546
14.0342
-43.6527
17.9956
-41.7977
17.68
-7.85195
17.2849
-5.6161
16.9495
-4.31719
16.6852
-3.34649
16.4798
-2.68512
16.3282
-2.14813
16.2136
-1.74055
16.1264
-1.45564
16.06
-1.23137
16.0042
-1.07048
15.9599
-0.967403
15.9199
-0.908291
15.8868
-0.892758
15.8585
-0.921638
15.8376
-1.00758
15.8275
-1.093
15.8317
-1.09308
-1.0463
-0.613756
0.820843
2.79893
4.99923
7.66539
11.11
15.4348
19.787
19.4571
19.0312
18.6688
18.3805
18.1531
17.9784
17.8484
17.7493
17.6743
17.6186
17.5736
17.5393
17.5097
17.487
17.4675
17.4551
17.4543
)
;

boundaryField
{
    inlet
    {
        type            calculated;
        value           nonuniform List<scalar> 
26
(
-22.2858
-22.8801
-30.3929
-31.7828
-35.6036
-41.9905
-47.9776
-46.1499
-7.52204
-5.19022
-3.95477
-3.05826
-2.45771
-1.97337
-1.61054
-1.35662
-1.15635
-1.01476
-0.922435
-0.873935
-0.863216
-0.898949
-0.988096
-1.08056
-1.09224
-1.05874
)
;
    }
    outlet
    {
        type            calculated;
        value           nonuniform List<scalar> 0();
    }
    walls
    {
        type            calculated;
        value           nonuniform List<scalar> 0();
    }
    frontAndBack
    {
        type            empty;
    }
    procBoundary0to1
    {
        type            processor;
        value           nonuniform List<scalar> 
94
(
0.287697
-0.0509751
0.337451
-0.00365124
0.390603
0.0489011
0.420797
0.103889
0.418723
0.157727
0.406314
0.209962
0.228824
0.421229
0.282158
0.304628
0.413573
0.357867
0.384222
0.411997
0.424088
0.468214
0.500363
0.408635
0.558103
0.595001
0.633996
0.410305
0.696642
0.741064
0.787954
0.411132
0.857087
0.910174
0.398444
0.983812
1.04377
1.10704
0.405067
1.19036
1.26154
1.33671
0.416572
1.43198
1.51659
1.60584
0.434652
1.71585
1.81588
1.92184
0.461763
2.04971
2.16845
2.29391
0.499473
2.44359
2.58433
2.73287
2.88956
0.574267
3.07591
3.25178
3.43753
3.6335
0.682139
3.86663
4.08664
4.31858
4.56353
4.82216
0.833219
5.1291
5.41865
5.72448
6.04695
6.3874
6.74676
0.985422
7.1672
7.56968
5.52253
6.08033
6.69155
7.36507
8.10473
8.92076
9.81808
0.991204
10.8148
11.8987
13.0876
14.3943
15.8457
17.4667
)
;
    }
    procBoundary0to4
    {
        type            processor;
        value           nonuniform List<scalar> 
72
(
0.218247
0.220547
0.223384
0.226622
0.23033
0.234506
0.239096
0.243956
0.249316
0.255033
0.261127
0.267616
0.274518
0.281808
0.289548
0.29775
0.306356
0.315423
0.325046
0.335124
0.345764
0.356954
-1.43949
0.271975
0.279126
0.286639
0.294579
0.302853
0.311582
0.320792
0.330422
0.340554
0.351212
0.362416
0.374214
0.386597
0.399639
0.413377
0.427803
0.443004
0.459041
0.475877
0.493618
0.512347
0.532027
0.552803
0.574697
0.597771
0.622099
0.647762
0.67481
0.703397
0.733493
0.765223
0.798843
0.834175
0.871537
0.911025
0.952608
0.684411
0.748641
0.818602
0.895015
0.978499
1.06968
1.16953
1.27836
1.39758
1.52762
1.66993
1.8247
1.99341
)
;
    }
    procBoundary0to5
    {
        type            processor;
        value           nonuniform List<scalar> 4(0.215085 0.217912 0.229244 0.281278);
    }
}


// ************************************************************************* //
