/*--------------------------------*- C++ -*----------------------------------*\
| =========                 |                                                 |
| \\      /  F ield         | OpenFOAM: The Open Source CFD Toolbox           |
|  \\    /   O peration     | Version:  2506                                  |
|   \\  /    A nd           | Website:  www.openfoam.com                      |
|    \\/     M anipulation  |                                                 |
\*---------------------------------------------------------------------------*/
FoamFile
{
    version     2.0;
    format      ascii;
    arch        "LSB;label=32;scalar=64";
    class       volScalarField;
    location    "200";
    object      turbulenceProperties:epsilon;
}
// * * * * * * * * * * * * * * * * * * * * * * * * * * * * * * * * * * * * * //

dimensions      [0 2 -3 0 0 0 0];

internalField   nonuniform List<scalar> 
1340
(
0.000196537
0.00019195
0.000186971
0.000180865
0.000172957
0.000141664
0.000138173
0.000134514
0.000130169
0.000124554
0.000118237
0.000103494
0.000100824
9.80853e-05
9.49426e-05
9.09052e-05
8.64565e-05
8.17017e-05
7.6457e-05
7.44168e-05
7.23505e-05
7.00422e-05
6.71109e-05
6.39349e-05
6.06042e-05
5.70976e-05
5.70481e-05
5.54742e-05
5.39079e-05
5.2186e-05
5.0037e-05
4.77438e-05
4.53684e-05
4.28706e-05
4.0271e-05
4.29355e-05
4.17122e-05
4.05166e-05
3.92207e-05
3.76273e-05
3.59546e-05
3.4234e-05
3.24334e-05
3.05805e-05
2.87377e-05
3.25571e-05
3.16057e-05
3.06833e-05
2.97012e-05
2.8509e-05
2.72773e-05
2.60144e-05
2.47003e-05
2.33657e-05
2.20483e-05
2.48507e-05
2.41102e-05
2.33953e-05
2.26431e-05
2.17447e-05
2.08291e-05
1.9891e-05
1.89222e-05
1.79512e-05
1.7001e-05
1.60675e-05
1.90804e-05
1.85017e-05
1.79455e-05
1.73655e-05
1.66831e-05
1.59969e-05
1.52927e-05
1.45719e-05
1.38583e-05
1.31658e-05
1.24889e-05
1.4727e-05
1.42728e-05
1.3838e-05
1.33881e-05
1.28671e-05
1.23472e-05
1.18147e-05
1.12738e-05
1.07448e-05
1.02351e-05
9.74079e-06
9.25924e-06
1.14197e-05
1.10624e-05
1.07208e-05
1.03702e-05
9.97055e-06
9.57245e-06
9.16719e-06
8.7584e-06
8.36235e-06
7.98384e-06
7.61961e-06
7.2664e-06
8.89192e-06
8.61004e-06
8.34059e-06
8.06642e-06
7.75811e-06
7.45116e-06
7.14029e-06
6.82929e-06
6.53068e-06
6.24729e-06
5.97653e-06
5.71502e-06
6.94918e-06
6.7266e-06
6.51303e-06
6.29778e-06
6.05872e-06
5.82074e-06
5.58094e-06
5.34279e-06
5.11583e-06
4.9019e-06
4.69865e-06
4.50409e-06
4.31645e-06
5.44885e-06
5.27271e-06
5.10318e-06
4.93351e-06
4.74717e-06
4.56165e-06
4.37577e-06
4.1921e-06
4.01852e-06
3.85583e-06
3.70214e-06
3.55592e-06
3.41532e-06
4.2852e-06
4.14527e-06
4.01086e-06
3.87654e-06
3.7307e-06
3.58544e-06
3.44056e-06
3.29817e-06
3.16436e-06
3.03968e-06
2.92256e-06
2.81189e-06
2.70609e-06
2.60329e-06
3.37907e-06
3.26773e-06
3.16092e-06
3.05427e-06
2.93975e-06
2.82558e-06
2.71204e-06
2.60117e-06
2.49749e-06
2.40125e-06
2.31138e-06
2.22686e-06
2.14649e-06
2.06851e-06
2.67087e-06
2.58231e-06
2.49721e-06
2.41226e-06
2.32209e-06
2.23205e-06
2.1427e-06
2.056e-06
1.97514e-06
1.90045e-06
1.83097e-06
1.76599e-06
1.7045e-06
1.64497e-06
2.11567e-06
2.04514e-06
1.97727e-06
1.90946e-06
1.83821e-06
1.76699e-06
1.69641e-06
1.62831e-06
1.56503e-06
1.50672e-06
1.45264e-06
1.40229e-06
1.35488e-06
1.30924e-06
1.26438e-06
1.67919e-06
1.62284e-06
1.56869e-06
1.51451e-06
1.45804e-06
1.40158e-06
1.34572e-06
1.29198e-06
1.24222e-06
1.19645e-06
1.15412e-06
1.11486e-06
1.07802e-06
1.04275e-06
1.00816e-06
1.33505e-06
1.28997e-06
1.24677e-06
1.20346e-06
1.15853e-06
1.1137e-06
1.0694e-06
1.02686e-06
9.87566e-07
9.51478e-07
9.18193e-07
8.87407e-07
8.58601e-07
8.31153e-07
8.04277e-07
1.06307e-06
1.02701e-06
9.92503e-07
9.57868e-07
9.22032e-07
8.86385e-07
8.51185e-07
8.17425e-07
7.86282e-07
7.57724e-07
7.31408e-07
7.07125e-07
6.84515e-07
6.63027e-07
6.42078e-07
6.21336e-07
8.47705e-07
8.18829e-07
7.9123e-07
7.63525e-07
7.34928e-07
7.0652e-07
6.78498e-07
6.51658e-07
6.26905e-07
6.04222e-07
5.83336e-07
5.64124e-07
5.46236e-07
5.29297e-07
5.12936e-07
4.96678e-07
6.53682e-07
6.31611e-07
6.09425e-07
5.86584e-07
5.63924e-07
5.41589e-07
5.20208e-07
5.00498e-07
4.82433e-07
4.658e-07
4.50515e-07
4.36334e-07
4.22939e-07
4.10031e-07
3.97291e-07
3.84464e-07
5.22439e-07
5.04799e-07
4.87018e-07
4.68757e-07
4.50679e-07
4.32857e-07
4.158e-07
4.00083e-07
3.85664e-07
3.72392e-07
3.60198e-07
3.48902e-07
3.38257e-07
3.28036e-07
3.18016e-07
3.07915e-07
4.17976e-07
4.0387e-07
3.89627e-07
3.75022e-07
3.60594e-07
3.46367e-07
3.32756e-07
3.20196e-07
3.0867e-07
2.98057e-07
2.88299e-07
2.79279e-07
2.70806e-07
2.62679e-07
2.54753e-07
2.46798e-07
3.34705e-07
3.23422e-07
3.12016e-07
3.0034e-07
2.88819e-07
2.77463e-07
2.66596e-07
2.56555e-07
2.47336e-07
2.38836e-07
2.3102e-07
2.238e-07
2.17021e-07
2.10554e-07
2.0427e-07
1.97996e-07
1.91613e-07
2.68236e-07
2.59214e-07
2.50085e-07
2.40752e-07
2.31558e-07
2.22498e-07
2.13817e-07
2.05795e-07
1.98415e-07
1.91604e-07
1.85336e-07
1.79548e-07
1.74126e-07
1.68963e-07
1.63962e-07
1.59004e-07
1.53965e-07
2.15123e-07
2.07906e-07
2.00606e-07
1.93152e-07
1.85819e-07
1.7859e-07
1.71663e-07
1.65252e-07
1.5935e-07
1.5389e-07
1.48864e-07
1.44221e-07
1.39872e-07
1.3575e-07
1.3177e-07
1.2784e-07
1.23856e-07
1.72633e-07
1.66861e-07
1.61025e-07
1.55081e-07
1.49238e-07
1.43478e-07
1.37955e-07
1.32838e-07
1.28117e-07
1.23742e-07
1.19712e-07
1.15989e-07
1.12506e-07
1.09208e-07
1.06036e-07
1.02918e-07
9.97749e-08
9.65513e-08
1.38605e-07
1.33994e-07
1.29331e-07
1.24599e-07
1.1995e-07
1.15364e-07
1.10966e-07
1.0689e-07
1.03118e-07
9.96187e-08
9.63901e-08
9.34032e-08
9.06139e-08
8.79768e-08
8.54508e-08
8.29754e-08
8.04965e-08
7.79504e-08
1.11332e-07
1.07652e-07
1.03931e-07
1.00168e-07
9.64752e-08
9.28318e-08
8.93379e-08
8.60936e-08
8.30878e-08
8.02934e-08
7.77085e-08
7.53171e-08
7.30843e-08
7.0978e-08
6.89648e-08
6.69999e-08
6.50434e-08
6.3036e-08
8.94557e-08
8.65203e-08
8.35574e-08
8.05703e-08
7.76436e-08
7.47558e-08
7.19848e-08
6.94102e-08
6.70197e-08
6.47914e-08
6.27274e-08
6.08159e-08
5.90314e-08
5.73506e-08
5.57496e-08
5.41932e-08
5.26471e-08
5.10699e-08
4.94308e-08
7.18967e-08
6.95566e-08
6.72017e-08
6.48368e-08
6.25227e-08
6.02388e-08
5.80483e-08
5.60111e-08
5.41166e-08
5.23442e-08
5.06994e-08
4.91748e-08
4.77509e-08
4.64128e-08
4.51405e-08
4.39082e-08
4.26887e-08
4.14548e-08
4.01683e-08
5.77939e-08
5.59308e-08
5.40624e-08
5.21961e-08
5.03716e-08
4.85709e-08
4.68452e-08
4.52389e-08
4.37413e-08
4.23372e-08
4.10302e-08
3.98176e-08
3.8684e-08
3.76204e-08
3.6612e-08
3.56384e-08
3.46783e-08
3.37111e-08
3.27034e-08
4.64608e-08
4.49802e-08
4.35008e-08
4.20331e-08
4.05989e-08
3.91843e-08
3.78304e-08
3.65695e-08
3.53915e-08
3.42823e-08
3.32466e-08
3.22843e-08
3.13854e-08
3.05426e-08
2.97458e-08
2.89776e-08
2.82235e-08
2.7467e-08
2.66839e-08
2.58559e-08
3.73495e-08
3.61745e-08
3.50075e-08
3.38564e-08
3.27338e-08
3.16274e-08
3.0571e-08
2.95864e-08
2.86628e-08
2.779e-08
2.69732e-08
2.62122e-08
2.55013e-08
2.48353e-08
2.42072e-08
2.36036e-08
2.30138e-08
2.24238e-08
2.1816e-08
2.11708e-08
3.00219e-08
2.90908e-08
2.81736e-08
2.72749e-08
2.64001e-08
2.55392e-08
2.47196e-08
2.39551e-08
2.32352e-08
2.25517e-08
2.19096e-08
2.13104e-08
2.07501e-08
2.0226e-08
1.97328e-08
1.92603e-08
1.88e-08
1.83407e-08
1.78695e-08
1.73704e-08
2.41269e-08
2.33907e-08
2.26725e-08
2.19746e-08
2.1296e-08
2.06305e-08
1.99994e-08
1.941e-08
1.88523e-08
1.83196e-08
1.78172e-08
1.73475e-08
1.6908e-08
1.64972e-08
1.61112e-08
1.57428e-08
1.53852e-08
1.50296e-08
1.46661e-08
1.42826e-08
1.38685e-08
1.93835e-08
1.88027e-08
1.82427e-08
1.77042e-08
1.71812e-08
1.66704e-08
1.61888e-08
1.57381e-08
1.53088e-08
1.48962e-08
1.45052e-08
1.41389e-08
1.3796e-08
1.34757e-08
1.31752e-08
1.28895e-08
1.2613e-08
1.23389e-08
1.20593e-08
1.17659e-08
1.1448e-08
1.55661e-08
1.51093e-08
1.46748e-08
1.42623e-08
1.38621e-08
1.34738e-08
1.31104e-08
1.2769e-08
1.24412e-08
1.21238e-08
1.18214e-08
1.15374e-08
1.12715e-08
1.10234e-08
1.0791e-08
1.05705e-08
1.03577e-08
1.01474e-08
9.93371e-09
9.70957e-09
9.46697e-09
1.24937e-08
1.21358e-08
1.18007e-08
1.14875e-08
1.11838e-08
1.08922e-08
1.06218e-08
1.03662e-08
1.01181e-08
9.87589e-09
9.64386e-09
9.42538e-09
9.2208e-09
9.02995e-09
8.85154e-09
8.68251e-09
8.51972e-09
8.35938e-09
8.19672e-09
8.02651e-09
7.84201e-09
1.00211e-08
9.74167e-09
9.48525e-09
9.24979e-09
9.02178e-09
8.80635e-09
8.60867e-09
8.42006e-09
8.23451e-09
8.05149e-09
7.87517e-09
7.7087e-09
7.55261e-09
7.40712e-09
7.27122e-09
7.14263e-09
7.01907e-09
6.89755e-09
6.77435e-09
6.64563e-09
6.5063e-09
6.35175e-09
8.03148e-09
7.81426e-09
7.61985e-09
7.44503e-09
7.27629e-09
7.12042e-09
6.97934e-09
6.84254e-09
6.70582e-09
6.5693e-09
6.43692e-09
6.31159e-09
6.19386e-09
6.084e-09
5.9813e-09
5.88414e-09
5.79086e-09
5.69925e-09
5.6065e-09
5.50949e-09
5.40498e-09
5.28814e-09
6.43084e-09
6.26281e-09
6.11713e-09
5.98935e-09
5.86669e-09
5.75731e-09
5.65989e-09
5.56295e-09
5.46409e-09
5.36405e-09
5.26628e-09
5.17323e-09
5.08545e-09
5.0032e-09
4.92624e-09
4.85336e-09
4.78327e-09
4.71439e-09
4.64461e-09
4.57172e-09
4.49308e-09
4.40497e-09
5.14354e-09
5.01428e-09
4.90678e-09
4.81524e-09
4.72826e-09
4.65493e-09
4.59085e-09
4.52428e-09
4.45476e-09
4.38323e-09
4.31245e-09
4.24445e-09
4.17977e-09
4.11874e-09
4.06129e-09
4.00664e-09
3.95398e-09
3.90214e-09
3.8497e-09
3.79482e-09
3.73558e-09
3.66896e-09
4.10869e-09
4.00991e-09
3.93216e-09
3.86828e-09
3.80886e-09
3.76329e-09
3.72428e-09
3.68064e-09
3.63382e-09
3.58444e-09
3.53446e-09
3.48557e-09
3.43828e-09
3.39306e-09
3.35006e-09
3.30891e-09
3.26912e-09
3.2299e-09
3.19019e-09
3.14864e-09
3.10376e-09
3.05328e-09
2.99549e-09
3.27722e-09
3.20236e-09
3.14763e-09
3.1047e-09
3.06643e-09
3.04204e-09
3.02149e-09
2.99501e-09
2.96574e-09
2.93341e-09
2.89911e-09
2.86432e-09
2.8297e-09
2.79589e-09
2.76332e-09
2.73189e-09
2.7014e-09
2.67135e-09
2.64091e-09
2.60913e-09
2.57483e-09
2.53647e-09
2.49213e-09
2.60963e-09
2.55347e-09
2.51641e-09
2.48913e-09
2.46702e-09
2.45856e-09
2.45128e-09
2.43751e-09
2.42185e-09
2.40237e-09
2.37942e-09
2.35457e-09
2.3288e-09
2.30294e-09
2.27765e-09
2.25316e-09
2.22937e-09
2.20599e-09
2.18241e-09
2.15787e-09
2.13148e-09
2.10204e-09
2.06812e-09
2.07407e-09
2.03246e-09
2.00883e-09
1.99311e-09
1.98325e-09
1.98652e-09
1.98838e-09
1.98406e-09
1.97898e-09
1.9688e-09
1.95349e-09
1.93523e-09
1.91536e-09
1.89494e-09
1.87485e-09
1.8554e-09
1.8366e-09
1.81826e-09
1.7999e-09
1.7809e-09
1.76062e-09
1.73811e-09
1.71227e-09
1.64487e-09
1.61452e-09
1.60098e-09
1.59363e-09
1.59301e-09
1.60459e-09
1.61239e-09
1.61515e-09
1.61826e-09
1.61434e-09
1.60364e-09
1.58946e-09
1.57353e-09
1.55701e-09
1.54082e-09
1.52533e-09
1.51054e-09
1.49625e-09
1.48208e-09
1.46759e-09
1.4522e-09
1.43522e-09
1.41572e-09
1.30129e-09
1.27966e-09
1.27353e-09
1.27215e-09
1.27842e-09
1.29556e-09
1.30687e-09
1.31501e-09
1.32437e-09
1.32403e-09
1.31564e-09
1.304e-09
1.29101e-09
1.27765e-09
1.26479e-09
1.2527e-09
1.24134e-09
1.23049e-09
1.21984e-09
1.20902e-09
1.19758e-09
1.18501e-09
1.17059e-09
1.1544e-09
1.02662e-09
1.01166e-09
1.01088e-09
1.01363e-09
1.02499e-09
1.04548e-09
1.05858e-09
1.07101e-09
1.08487e-09
1.08576e-09
1.07819e-09
1.06851e-09
1.05821e-09
1.04783e-09
1.03801e-09
1.02894e-09
1.02051e-09
1.0125e-09
1.00466e-09
9.96688e-10
9.88278e-10
9.78979e-10
9.68331e-10
9.56148e-10
8.07397e-10
7.97501e-10
8.00408e-10
8.05914e-10
8.20925e-10
8.42953e-10
8.56728e-10
8.72899e-10
8.89824e-10
8.89938e-10
8.82454e-10
8.74859e-10
8.67367e-10
8.59792e-10
8.5263e-10
8.46017e-10
8.39832e-10
8.33903e-10
8.28039e-10
8.22031e-10
8.15635e-10
8.08517e-10
8.003e-10
7.90825e-10
6.32809e-10
6.26724e-10
6.3202e-10
6.39225e-10
6.5668e-10
6.78729e-10
6.92456e-10
7.11887e-10
7.30878e-10
7.29111e-10
7.21729e-10
7.16547e-10
7.11761e-10
7.06432e-10
7.01122e-10
6.96099e-10
6.91281e-10
6.8655e-10
6.8179e-10
6.76862e-10
6.71588e-10
6.65712e-10
6.58903e-10
6.51044e-10
4.94135e-10
4.90939e-10
4.97656e-10
5.0584e-10
5.24782e-10
5.45684e-10
5.5878e-10
5.80354e-10
6.00551e-10
5.97129e-10
5.90621e-10
5.87915e-10
5.85127e-10
5.81032e-10
5.76548e-10
5.72145e-10
5.67816e-10
5.63505e-10
5.59152e-10
5.54674e-10
5.49931e-10
5.44697e-10
5.3868e-10
5.31799e-10
3.84263e-10
3.83208e-10
3.90687e-10
3.99469e-10
4.19221e-10
4.38373e-10
4.50616e-10
4.73175e-10
4.93427e-10
4.88592e-10
4.83683e-10
4.83127e-10
4.81187e-10
4.77216e-10
4.72774e-10
4.6842e-10
4.64128e-10
4.59889e-10
4.55665e-10
4.51383e-10
4.46941e-10
4.42128e-10
4.36684e-10
4.30541e-10
2.97536e-10
2.97901e-10
3.05555e-10
3.14666e-10
3.34586e-10
3.51779e-10
3.63405e-10
3.87979e-10
4.08213e-10
3.99448e-10
3.95185e-10
3.96456e-10
3.94612e-10
3.90113e-10
3.85432e-10
3.81074e-10
3.76854e-10
3.72743e-10
3.6872e-10
3.64736e-10
3.60651e-10
3.56283e-10
3.51426e-10
3.4602e-10
3.40371e-10
2.30281e-10
2.31436e-10
2.38552e-10
2.47426e-10
2.66431e-10
2.80908e-10
2.91381e-10
3.19067e-10
3.43105e-10
3.27608e-10
3.21561e-10
3.24762e-10
3.23349e-10
3.18472e-10
3.13723e-10
3.09583e-10
3.0564e-10
3.01785e-10
2.98079e-10
2.94459e-10
2.90774e-10
2.86874e-10
2.82589e-10
2.77861e-10
2.72896e-10
1.82284e-10
1.83634e-10
1.8948e-10
1.97065e-10
2.13486e-10
2.23309e-10
2.30275e-10
2.59862e-10
2.87509e-10
2.68103e-10
2.61397e-10
2.66816e-10
2.67005e-10
2.629e-10
2.5874e-10
2.55227e-10
2.51859e-10
2.48509e-10
2.45253e-10
2.42055e-10
2.38819e-10
2.35387e-10
2.31611e-10
2.27445e-10
2.2307e-10
1.4826e-10
1.49466e-10
1.53834e-10
1.59691e-10
1.72542e-10
1.77161e-10
1.81287e-10
2.05238e-10
2.33317e-10
2.17305e-10
2.12891e-10
2.19606e-10
2.21823e-10
2.19452e-10
2.16367e-10
2.1368e-10
2.11073e-10
2.08422e-10
2.05763e-10
2.03108e-10
2.00402e-10
1.97517e-10
1.943e-10
1.90703e-10
1.86906e-10
1.20249e-10
1.21303e-10
1.24469e-10
1.29115e-10
1.38902e-10
1.39933e-10
1.43348e-10
1.59694e-10
1.84626e-10
1.75016e-10
1.73263e-10
1.79831e-10
1.83321e-10
1.82603e-10
1.80599e-10
1.78639e-10
1.76696e-10
1.74667e-10
1.72591e-10
1.70485e-10
1.68313e-10
1.65976e-10
1.63335e-10
1.60325e-10
1.57115e-10
9.56978e-11
9.65922e-11
9.87602e-11
1.02589e-10
1.09629e-10
1.08767e-10
1.12306e-10
1.22605e-10
1.44852e-10
1.40861e-10
1.41008e-10
1.46606e-10
1.50379e-10
1.50727e-10
1.49597e-10
1.48281e-10
1.46926e-10
1.45423e-10
1.43804e-10
1.4213e-10
1.40389e-10
1.38497e-10
1.36347e-10
1.33838e-10
1.311e-10
7.49488e-11
7.56618e-11
7.70476e-11
8.02779e-11
8.48964e-11
8.3492e-11
8.70654e-11
9.28982e-11
1.12903e-10
1.13121e-10
1.14791e-10
1.19483e-10
1.23117e-10
1.24e-10
1.23386e-10
1.22547e-10
1.21744e-10
1.2081e-10
1.19675e-10
1.18394e-10
1.1699e-10
1.15434e-10
1.13624e-10
1.11473e-10
1.09071e-10
5.76835e-11
5.81642e-11
5.8932e-11
6.16205e-11
6.41951e-11
6.33062e-11
6.64581e-11
6.95265e-11
8.78977e-11
9.09753e-11
9.36213e-11
9.76182e-11
1.01139e-10
1.02431e-10
1.0205e-10
1.01182e-10
1.0038e-10
9.96536e-11
9.88788e-11
9.79751e-11
9.68934e-11
9.559e-11
9.39583e-11
9.19619e-11
8.96768e-11
4.36775e-11
4.38685e-11
4.41213e-11
4.61543e-11
4.70766e-11
4.73316e-11
4.94829e-11
5.15018e-11
6.87682e-11
7.37092e-11
7.69337e-11
8.01024e-11
8.30997e-11
8.47128e-11
8.49717e-11
8.43653e-11
8.33069e-11
8.20663e-11
8.08286e-11
7.96606e-11
7.84998e-11
7.72025e-11
7.5556e-11
7.33833e-11
7.07151e-11
3.25901e-11
3.24898e-11
3.2321e-11
3.3518e-11
3.31532e-11
3.45089e-11
3.49905e-11
3.7621e-11
5.43472e-11
6.0351e-11
6.4441e-11
6.69577e-11
6.83162e-11
6.84847e-11
6.8339e-11
6.83062e-11
6.81366e-11
6.73967e-11
6.60117e-11
6.42104e-11
6.2209e-11
6.00762e-11
5.77187e-11
5.50154e-11
5.19622e-11
4.8663e-11
2.39501e-11
2.36141e-11
2.31358e-11
2.344e-11
2.22669e-11
2.4106e-11
2.25011e-11
2.72807e-11
4.37562e-11
4.91485e-11
5.42565e-11
5.70998e-11
5.74133e-11
5.53973e-11
5.24201e-11
4.99629e-11
4.86445e-11
4.81601e-11
4.78081e-11
4.70419e-11
4.56185e-11
4.35219e-11
4.08029e-11
3.76367e-11
3.428e-11
3.09859e-11
1.73598e-11
1.67743e-11
1.59587e-11
1.54641e-11
1.41339e-11
1.59685e-11
1.31398e-11
2.17952e-11
3.70956e-11
4.02126e-11
4.50733e-11
4.68597e-11
4.73832e-11
4.7017e-11
4.43238e-11
3.95255e-11
3.46269e-11
3.12811e-11
2.99664e-11
3.03593e-11
3.18109e-11
3.35872e-11
3.46817e-11
3.41022e-11
3.19646e-11
2.93435e-11
1.28097e-11
1.18369e-11
1.0421e-11
9.10473e-12
7.94332e-12
9.61486e-12
7.96069e-12
2.22821e-11
3.43139e-11
3.96975e-11
5.19934e-11
5.54111e-11
5.13223e-11
4.49535e-11
4.09934e-11
4.16984e-11
4.55212e-11
4.92431e-11
5.10745e-11
5.12569e-11
5.07013e-11
5.03903e-11
5.1813e-11
5.69551e-11
6.63938e-11
7.86403e-11
1.03827e-11
8.98867e-12
6.84014e-12
4.61476e-12
3.23017e-12
4.21194e-12
5.37718e-12
2.28775e-11
2.72833e-11
3.71603e-11
6.05122e-11
8.51489e-11
1.14302e-10
1.48712e-10
1.84104e-10
2.16185e-10
2.42379e-10
2.64735e-10
2.87352e-10
3.13149e-10
3.43341e-10
3.77742e-10
4.14946e-10
4.50229e-10
4.77965e-10
4.99999e-10
9.35374e-12
7.79961e-12
5.28756e-12
2.51622e-12
7.10941e-13
1.02649e-12
4.29463e-12
1.30583e-11
2.73841e-11
1.31189e-10
3.05584e-10
5.24264e-10
7.39559e-10
9.17943e-10
1.04703e-09
1.13761e-09
1.20909e-09
1.27826e-09
1.35134e-09
1.42739e-09
1.50254e-09
1.57596e-09
1.65062e-09
1.73764e-09
1.82854e-09
1.90706e-09
)
;

boundaryField
{
    inlet
    {
        type            calculated;
        value           nonuniform List<scalar> 
26
(
8.58141e-12
7.18958e-12
4.87856e-12
2.24351e-12
4.75803e-13
9.79149e-13
5.48202e-12
6.33786e-12
1.27284e-10
5.33283e-10
1.33088e-09
2.48312e-09
3.84166e-09
5.24671e-09
6.5543e-09
7.70308e-09
8.68853e-09
9.53972e-09
1.03019e-08
1.10207e-08
1.17361e-08
1.24977e-08
1.33711e-08
1.44124e-08
1.55593e-08
1.66924e-08
)
;
    }
    outlet
    {
        type            calculated;
        value           nonuniform List<scalar> 0();
    }
    walls
    {
        type            calculated;
        value           nonuniform List<scalar> 0();
    }
    frontAndBack
    {
        type            empty;
    }
    procBoundary0to1
    {
        type            processor;
        value           nonuniform List<scalar> 
94
(
0.000243913
0.000163836
0.000163836
0.000111314
0.000111314
7.66974e-05
7.66974e-05
5.34054e-05
5.34054e-05
3.76611e-05
3.76611e-05
2.69014e-05
2.07474e-05
2.07474e-05
1.5144e-05
1.18259e-05
1.18259e-05
8.78607e-06
6.92179e-06
5.46195e-06
5.46195e-06
4.13151e-06
3.27827e-06
3.27827e-06
2.50012e-06
1.99107e-06
1.58631e-06
1.58631e-06
1.21897e-06
9.73511e-07
7.77634e-07
7.77634e-07
6.00092e-07
4.80294e-07
4.80294e-07
3.71132e-07
2.9757e-07
2.38701e-07
2.38701e-07
1.84929e-07
1.48753e-07
1.19766e-07
1.19766e-07
9.31277e-08
7.52823e-08
6.09484e-08
6.09484e-08
4.76666e-08
3.87998e-08
3.16394e-08
3.16394e-08
2.4947e-08
2.04723e-08
1.68333e-08
1.68333e-08
1.34035e-08
1.10945e-08
9.1973e-09
7.63787e-09
7.63787e-09
6.17326e-09
5.15429e-09
4.30398e-09
3.59293e-09
3.59293e-09
2.92851e-09
2.44149e-09
2.0294e-09
1.68289e-09
1.39387e-09
1.39387e-09
1.13643e-09
9.42828e-10
7.80398e-10
6.42414e-10
5.24364e-10
4.24078e-10
4.24078e-10
3.3464e-10
2.67998e-10
2.18759e-10
1.8316e-10
1.53914e-10
1.28304e-10
1.06536e-10
8.72376e-11
6.77881e-11
6.77881e-11
4.51753e-11
2.79017e-11
2.70197e-11
9.20966e-11
5.19965e-10
1.97037e-09
)
;
    }
    procBoundary0to4
    {
        type            processor;
        value           nonuniform List<scalar> 
72
(
0.000200142
0.000144543
0.000105791
7.82762e-05
5.84821e-05
4.4063e-05
3.34475e-05
2.55563e-05
1.96396e-05
1.51694e-05
1.17705e-05
9.17101e-06
7.17147e-06
5.62632e-06
4.42694e-06
3.49238e-06
2.76168e-06
2.1885e-06
1.73758e-06
1.38197e-06
1.10082e-06
8.78062e-07
6.76808e-07
6.76808e-07
5.40975e-07
4.32835e-07
3.46618e-07
2.77793e-07
2.22783e-07
1.78765e-07
1.43512e-07
1.15258e-07
9.25933e-08
7.44003e-08
5.9789e-08
4.80488e-08
3.86116e-08
3.10228e-08
2.49191e-08
2.00091e-08
1.60589e-08
1.2881e-08
1.03246e-08
8.26855e-09
6.61536e-09
5.2866e-09
4.21914e-09
3.36206e-09
2.67445e-09
2.12328e-09
1.68195e-09
1.329e-09
1.04713e-09
8.2241e-10
6.43617e-10
5.01756e-10
3.89512e-10
3.0107e-10
2.32673e-10
1.84067e-10
1.49676e-10
1.21345e-10
9.65238e-11
7.55634e-11
5.81526e-11
4.40637e-11
3.29429e-11
2.43028e-11
1.77525e-11
1.32866e-11
1.09472e-11
9.94467e-12
)
;
    }
    procBoundary0to5
    {
        type            processor;
        value           nonuniform List<scalar> 4(0.000276558 0.000270623 0.000263839 0.000255207);
    }
}


// ************************************************************************* //
