/*--------------------------------*- C++ -*----------------------------------*\
| =========                 |                                                 |
| \\      /  F ield         | OpenFOAM: The Open Source CFD Toolbox           |
|  \\    /   O peration     | Version:  2506                                  |
|   \\  /    A nd           | Website:  www.openfoam.com                      |
|    \\/     M anipulation  |                                                 |
\*---------------------------------------------------------------------------*/
FoamFile
{
    version     2.0;
    format      ascii;
    arch        "LSB;label=32;scalar=64";
    class       volScalarField;
    location    "200";
    object      turbulenceProperties:I;
}
// * * * * * * * * * * * * * * * * * * * * * * * * * * * * * * * * * * * * * //

dimensions      [0 0 0 0 0 0 0];

internalField   nonuniform List<scalar> 
1340
(
0.000809811
0.000838094
0.000867368
0.000900698
0.00093657
0.000740465
0.000763287
0.000786693
0.000813171
0.000841155
0.000867462
0.00067919
0.000697715
0.000716538
0.000737774
0.000759874
0.000780393
0.000798896
0.000624756
0.000639886
0.000655124
0.000672284
0.000689931
0.000706147
0.000720758
0.000731921
0.000576228
0.000588622
0.000601034
0.000614981
0.000629198
0.000642161
0.000653806
0.000662605
0.000666757
0.00053277
0.000542944
0.000553102
0.000564502
0.00057603
0.000586486
0.000595831
0.000602832
0.000606127
0.000605327
0.000493683
0.000502063
0.000510388
0.000519755
0.000529153
0.000537649
0.000545187
0.000550782
0.00055341
0.000552765
0.000458386
0.000465311
0.000472152
0.000479862
0.000487559
0.000494498
0.000500596
0.000505083
0.000507179
0.000506642
0.000503531
0.000426401
0.000432127
0.000437757
0.000444116
0.000450437
0.000456126
0.000461063
0.000464667
0.000466328
0.000465854
0.000463291
0.000397318
0.00040205
0.000406681
0.000411931
0.000417136
0.000421797
0.000425799
0.000428687
0.000429994
0.000429548
0.000427412
0.000423712
0.000370785
0.000374692
0.000378494
0.000382829
0.000387123
0.000390927
0.000394169
0.000396478
0.000397483
0.000397047
0.000395231
0.000392135
0.000346506
0.000349724
0.000352836
0.000356413
0.000359953
0.000363049
0.000365661
0.000367496
0.000368251
0.000367812
0.00036624
0.00036361
0.000324226
0.000326871
0.000329401
0.000332345
0.000335257
0.000337767
0.00033986
0.000341302
0.000341844
0.000341392
0.000340001
0.000337749
0.000334742
0.000303728
0.000305892
0.000307937
0.00031035
0.000312735
0.000314753
0.000316417
0.000317528
0.000317891
0.000317421
0.000316172
0.00031421
0.00031162
0.000284826
0.00028658
0.000288226
0.00029019
0.000292132
0.000293741
0.000295044
0.000295878
0.000296084
0.000295592
0.000294451
0.000292722
0.000290475
0.00028778
0.000267357
0.000268765
0.000270076
0.00027166
0.00027323
0.000274495
0.000275493
0.000276097
0.000276171
0.000275656
0.000274598
0.000273052
0.000271076
0.000268723
0.000251178
0.000252297
0.000253323
0.000254584
0.000255841
0.000256818
0.000257559
0.000257971
0.00025793
0.000257393
0.0002564
0.000255001
0.000253245
0.000251172
0.000236166
0.000237042
0.000237829
0.000238817
0.000239808
0.000240542
0.000241066
0.000241315
0.00024118
0.000240622
0.000239679
0.000238397
0.000236819
0.00023498
0.000232902
0.000222216
0.000222881
0.000223469
0.000224227
0.000224992
0.000225522
0.000225868
0.000225977
0.000225761
0.000225184
0.00022428
0.000223094
0.000221661
0.000220013
0.000218163
0.000209226
0.000209714
0.000210136
0.000210701
0.000211271
0.000211632
0.000211828
0.000211821
0.000211537
0.000210942
0.000210073
0.000208966
0.000207652
0.000206162
0.0002045
0.000197115
0.000197454
0.000197735
0.000198139
0.000198543
0.000198762
0.000198835
0.00019873
0.000198389
0.000197782
0.00019694
0.000195898
0.000194687
0.000193328
0.000191827
0.000190191
0.000185807
0.00018602
0.000186184
0.000186453
0.000186719
0.000186818
0.000186787
0.000186604
0.000186215
0.000185599
0.000184781
0.000183798
0.000182668
0.000181418
0.000180058
0.000178576
0.000175344
0.00017541
0.000175565
0.000175714
0.000175715
0.0001756
0.000175351
0.000174926
0.000174303
0.000173508
0.000172573
0.000171518
0.000170362
0.000169115
0.00016777
0.000166314
0.000165361
0.000165347
0.000165407
0.000165459
0.00016538
0.000165196
0.000164894
0.000164442
0.000163817
0.000163044
0.000162152
0.00016116
0.000160086
0.000158936
0.000157709
0.000156384
0.000156016
0.000155936
0.000155918
0.00015589
0.000155746
0.000155506
0.000155165
0.000154691
0.000154068
0.000153317
0.000152464
0.000151529
0.000150528
0.000149463
0.000148336
0.000147127
0.000147259
0.000147126
0.000147042
0.000146949
0.000146753
0.000146471
0.0001461
0.000145612
0.000144995
0.000144266
0.000143452
0.000142568
0.000141628
0.00014064
0.000139601
0.000138496
0.000137309
0.000139045
0.000138868
0.000138733
0.000138587
0.00013835
0.000138037
0.000137643
0.000137149
0.000136541
0.000135837
0.000135058
0.000134222
0.000133341
0.00013242
0.000131459
0.000130445
0.00012936
0.000131332
0.00013112
0.000130944
0.000130758
0.00013049
0.000130154
0.000129747
0.000129252
0.000128657
0.000127978
0.000127235
0.000126444
0.000125615
0.000124757
0.000123867
0.000122934
0.000121939
0.000124085
0.000123845
0.000123637
0.00012342
0.00012313
0.000122779
0.000122366
0.000121876
0.000121297
0.000120644
0.000119937
0.000119189
0.000118411
0.00011761
0.000116784
0.000115925
0.000115015
0.000114039
0.000117268
0.000117008
0.000116775
0.000116536
0.000116232
0.000115873
0.00011546
0.000114979
0.00011442
0.000113795
0.000113124
0.000112418
0.000111688
0.000110941
0.000110175
0.000109383
0.00010855
0.000107658
0.000110851
0.000110577
0.000110326
0.000110072
0.000109761
0.000109401
0.000108993
0.000108526
0.000107989
0.000107395
0.000106759
0.000106095
0.000105411
0.000104714
0.000104005
0.000103274
0.000102512
0.000101697
0.000104807
0.000104523
0.000104261
0.000103997
0.000103685
0.000103329
0.000102931
0.000102482
0.000101971
0.000101408
0.000100809
0.000100185
9.95463e-05
9.88981e-05
9.82416e-05
9.75695e-05
9.68714e-05
9.61302e-05
9.53304e-05
9.91091e-05
9.88197e-05
9.85512e-05
9.82846e-05
9.79763e-05
9.76283e-05
9.72448e-05
9.68168e-05
9.63342e-05
9.58039e-05
9.52419e-05
9.46587e-05
9.40631e-05
9.34621e-05
9.28556e-05
9.2238e-05
9.16e-05
9.09288e-05
9.0203e-05
9.37346e-05
9.34432e-05
9.31727e-05
9.29082e-05
9.26077e-05
9.22722e-05
9.1907e-05
9.15031e-05
9.105e-05
9.05543e-05
9.00295e-05
8.94867e-05
8.89336e-05
8.83775e-05
8.78192e-05
8.72534e-05
8.66717e-05
8.60631e-05
8.54061e-05
8.86614e-05
8.83715e-05
8.81028e-05
8.78446e-05
8.75553e-05
8.72358e-05
8.68921e-05
8.6515e-05
8.60938e-05
8.5633e-05
8.51454e-05
8.46421e-05
8.4131e-05
8.36189e-05
8.31069e-05
8.25897e-05
8.20609e-05
8.15106e-05
8.09212e-05
8.0277e-05
8.38698e-05
8.35839e-05
8.3321e-05
8.30719e-05
8.27972e-05
8.24968e-05
8.21777e-05
8.18297e-05
8.14409e-05
8.10154e-05
8.05658e-05
8.01015e-05
7.96312e-05
7.91613e-05
7.86935e-05
7.8223e-05
7.77449e-05
7.72492e-05
7.67215e-05
7.61431e-05
7.93416e-05
7.90617e-05
7.88076e-05
7.8571e-05
7.83134e-05
7.80347e-05
7.77423e-05
7.7425e-05
7.707e-05
7.66803e-05
7.62678e-05
7.58423e-05
7.54117e-05
7.49828e-05
7.45574e-05
7.41316e-05
7.37006e-05
7.32555e-05
7.27839e-05
7.22688e-05
7.50596e-05
7.47877e-05
7.45449e-05
7.43235e-05
7.40848e-05
7.38301e-05
7.35669e-05
7.32816e-05
7.29609e-05
7.26069e-05
7.22313e-05
7.18437e-05
7.1452e-05
7.10627e-05
7.06777e-05
7.02941e-05
6.99078e-05
6.95106e-05
6.90919e-05
6.86368e-05
6.81306e-05
7.10083e-05
7.07459e-05
7.05164e-05
7.03125e-05
7.00948e-05
6.98659e-05
6.96335e-05
6.93812e-05
6.90949e-05
6.87765e-05
6.84371e-05
6.80867e-05
6.77328e-05
6.73818e-05
6.70358e-05
6.66927e-05
6.63485e-05
6.5996e-05
6.56256e-05
6.52257e-05
6.47798e-05
6.71728e-05
6.69215e-05
6.6707e-05
6.65227e-05
6.63273e-05
6.6126e-05
6.5926e-05
6.57072e-05
6.54552e-05
6.5172e-05
6.48682e-05
6.4554e-05
6.42369e-05
6.39231e-05
6.36146e-05
6.33095e-05
6.30046e-05
6.26937e-05
6.23685e-05
6.2018e-05
6.1628e-05
6.35397e-05
6.33009e-05
6.31029e-05
6.29398e-05
6.27677e-05
6.25957e-05
6.24293e-05
6.22443e-05
6.20262e-05
6.17774e-05
6.15087e-05
6.12299e-05
6.09487e-05
6.06707e-05
6.03979e-05
6.0129e-05
5.98609e-05
5.95887e-05
5.93048e-05
5.89997e-05
5.86602e-05
6.00966e-05
5.98711e-05
5.96912e-05
5.95502e-05
5.94026e-05
5.92616e-05
5.91295e-05
5.89783e-05
5.87936e-05
5.85787e-05
5.83444e-05
5.81003e-05
5.78536e-05
5.761e-05
5.73713e-05
5.71364e-05
5.69029e-05
5.66664e-05
5.642e-05
5.61558e-05
5.58627e-05
5.55291e-05
5.68317e-05
5.66203e-05
5.64598e-05
5.63418e-05
5.62197e-05
5.6111e-05
5.60141e-05
5.58961e-05
5.57443e-05
5.55627e-05
5.5362e-05
5.51518e-05
5.49386e-05
5.47278e-05
5.4521e-05
5.43175e-05
5.41156e-05
5.39114e-05
5.36991e-05
5.34714e-05
5.32202e-05
5.29325e-05
5.37341e-05
5.35374e-05
5.33976e-05
5.33032e-05
5.32073e-05
5.31325e-05
5.30712e-05
5.29856e-05
5.28661e-05
5.27174e-05
5.25498e-05
5.23723e-05
5.2191e-05
5.20105e-05
5.18333e-05
5.16586e-05
5.1485e-05
5.13094e-05
5.11267e-05
5.09313e-05
5.07155e-05
5.0468e-05
5.07935e-05
5.06121e-05
5.0494e-05
5.04238e-05
5.0355e-05
5.03154e-05
5.02898e-05
5.02358e-05
5.01482e-05
5.0032e-05
4.98966e-05
4.97502e-05
4.95984e-05
4.94458e-05
4.92948e-05
4.91451e-05
4.8996e-05
4.88448e-05
4.8688e-05
4.85198e-05
4.83342e-05
4.81208e-05
4.80006e-05
4.78346e-05
4.77395e-05
4.76936e-05
4.76527e-05
4.76501e-05
4.76597e-05
4.76362e-05
4.75805e-05
4.74965e-05
4.73919e-05
4.72742e-05
4.71488e-05
4.70202e-05
4.68911e-05
4.67624e-05
4.66335e-05
4.65028e-05
4.6367e-05
4.62215e-05
4.60609e-05
4.58763e-05
4.56602e-05
4.53462e-05
4.51962e-05
4.5125e-05
4.51033e-05
4.50917e-05
4.51276e-05
4.51712e-05
4.51774e-05
4.51539e-05
4.51016e-05
4.50256e-05
4.49329e-05
4.48293e-05
4.47198e-05
4.46082e-05
4.44956e-05
4.43825e-05
4.42678e-05
4.41487e-05
4.40214e-05
4.3881e-05
4.37206e-05
4.35313e-05
4.28221e-05
4.26884e-05
4.2642e-05
4.26443e-05
4.26634e-05
4.27393e-05
4.28155e-05
4.28504e-05
4.28605e-05
4.28387e-05
4.27873e-05
4.27144e-05
4.26271e-05
4.25314e-05
4.24319e-05
4.23311e-05
4.22299e-05
4.21275e-05
4.20216e-05
4.19089e-05
4.17851e-05
4.16442e-05
4.14784e-05
4.04205e-05
4.03034e-05
4.02825e-05
4.03086e-05
4.03603e-05
4.04773e-05
4.05838e-05
4.06475e-05
4.06929e-05
4.0699e-05
4.06663e-05
4.06068e-05
4.05298e-05
4.04427e-05
4.03516e-05
4.02594e-05
4.01673e-05
4.00749e-05
3.99802e-05
3.988e-05
3.97708e-05
3.96472e-05
3.95025e-05
3.81341e-05
3.80339e-05
3.80394e-05
3.80889e-05
3.81753e-05
3.83341e-05
3.84677e-05
3.85614e-05
3.86444e-05
3.8674e-05
3.86523e-05
3.85993e-05
3.85277e-05
3.8446e-05
3.8361e-05
3.82762e-05
3.81928e-05
3.81099e-05
3.80259e-05
3.79381e-05
3.7843e-05
3.7736e-05
3.76107e-05
3.59559e-05
3.58732e-05
3.59055e-05
3.59782e-05
3.61023e-05
3.63025e-05
3.64597e-05
3.65858e-05
3.67088e-05
3.67545e-05
3.67349e-05
3.66835e-05
3.66153e-05
3.65386e-05
3.64605e-05
3.63844e-05
3.63107e-05
3.62385e-05
3.61659e-05
3.60907e-05
3.60096e-05
3.59188e-05
3.58126e-05
3.5691e-05
3.38795e-05
3.38146e-05
3.38742e-05
3.397e-05
3.41354e-05
3.43756e-05
3.45529e-05
3.47162e-05
3.48803e-05
3.4931e-05
3.49055e-05
3.48547e-05
3.47922e-05
3.47236e-05
3.46553e-05
3.45899e-05
3.45273e-05
3.44663e-05
3.44051e-05
3.43417e-05
3.42734e-05
3.41964e-05
3.41065e-05
3.40017e-05
3.18987e-05
3.18522e-05
3.1939e-05
3.20578e-05
3.22682e-05
3.25456e-05
3.27406e-05
3.29496e-05
3.31553e-05
3.31961e-05
3.31588e-05
3.3113e-05
3.30621e-05
3.30055e-05
3.2949e-05
3.28947e-05
3.28424e-05
3.27907e-05
3.27383e-05
3.26835e-05
3.26238e-05
3.25562e-05
3.24765e-05
3.23829e-05
3.00085e-05
2.99811e-05
3.00946e-05
3.0236e-05
3.04949e-05
3.08037e-05
3.10146e-05
3.12794e-05
3.15285e-05
3.15459e-05
3.1496e-05
3.14632e-05
3.14292e-05
3.1385e-05
3.13373e-05
3.12902e-05
3.12432e-05
3.11957e-05
3.11465e-05
3.10945e-05
3.10377e-05
3.09731e-05
3.08969e-05
3.08073e-05
2.82047e-05
2.81978e-05
2.83375e-05
2.85022e-05
2.88131e-05
2.91454e-05
2.9369e-05
2.96923e-05
2.99859e-05
2.99769e-05
2.9923e-05
2.99107e-05
2.98925e-05
2.98536e-05
2.98065e-05
2.97579e-05
2.97083e-05
2.96574e-05
2.96048e-05
2.95495e-05
2.94898e-05
2.94228e-05
2.93444e-05
2.92532e-05
2.64825e-05
2.64977e-05
2.66637e-05
2.68548e-05
2.72223e-05
2.75721e-05
2.78074e-05
2.81877e-05
2.85198e-05
2.84812e-05
2.84354e-05
2.84475e-05
2.84349e-05
2.83887e-05
2.83323e-05
2.82748e-05
2.82162e-05
2.81569e-05
2.80965e-05
2.80343e-05
2.79686e-05
2.78963e-05
2.78132e-05
2.77178e-05
2.4839e-05
2.48751e-05
2.50657e-05
2.52871e-05
2.57142e-05
2.60775e-05
2.633e-05
2.67983e-05
2.71739e-05
2.70562e-05
2.70076e-05
2.70479e-05
2.70312e-05
2.69656e-05
2.68937e-05
2.68249e-05
2.67564e-05
2.66882e-05
2.66202e-05
2.65518e-05
2.64806e-05
2.64033e-05
2.63159e-05
2.62171e-05
2.61119e-05
2.32953e-05
2.33485e-05
2.35535e-05
2.38009e-05
2.42765e-05
2.46343e-05
2.48957e-05
2.5497e-05
2.59956e-05
2.57244e-05
2.56268e-05
2.57074e-05
2.56932e-05
2.5607e-05
2.55199e-05
2.54424e-05
2.53669e-05
2.52914e-05
2.52175e-05
2.51443e-05
2.50686e-05
2.49872e-05
2.48964e-05
2.47946e-05
2.46856e-05
2.19714e-05
2.20326e-05
2.22296e-05
2.24758e-05
2.29568e-05
2.32465e-05
2.34551e-05
2.41993e-05
2.48477e-05
2.44451e-05
2.43123e-05
2.4454e-05
2.44719e-05
2.43885e-05
2.43003e-05
2.42244e-05
2.41499e-05
2.4074e-05
2.39989e-05
2.39239e-05
2.38469e-05
2.37639e-05
2.3671e-05
2.35668e-05
2.34552e-05
2.08641e-05
2.09244e-05
2.10962e-05
2.13175e-05
2.17567e-05
2.19264e-05
2.20765e-05
2.27909e-05
2.35597e-05
2.31738e-05
2.30775e-05
2.32743e-05
2.33467e-05
2.32954e-05
2.32222e-05
2.31569e-05
2.30918e-05
2.30239e-05
2.29543e-05
2.28835e-05
2.28102e-05
2.27309e-05
2.26408e-05
2.25383e-05
2.2428e-05
1.97989e-05
1.98575e-05
2.00035e-05
2.02074e-05
2.0599e-05
2.06587e-05
2.0802e-05
2.13856e-05
2.21991e-05
2.19345e-05
2.19024e-05
2.2124e-05
2.22445e-05
2.22342e-05
2.21821e-05
2.21289e-05
2.20744e-05
2.20156e-05
2.19541e-05
2.18905e-05
2.18238e-05
2.17508e-05
2.16669e-05
2.15694e-05
2.14633e-05
1.86992e-05
1.87557e-05
1.8875e-05
1.90718e-05
1.94067e-05
1.93863e-05
1.95559e-05
2.0001e-05
2.08737e-05
2.07587e-05
2.07877e-05
2.1008e-05
2.11557e-05
2.11794e-05
2.11487e-05
2.11093e-05
2.10668e-05
2.10175e-05
2.09629e-05
2.09053e-05
2.08443e-05
2.07769e-05
2.06989e-05
2.0606e-05
2.05025e-05
1.75901e-05
1.76425e-05
1.7735e-05
1.79315e-05
1.81969e-05
1.81357e-05
1.83367e-05
1.86457e-05
1.95965e-05
1.96361e-05
1.9732e-05
1.99476e-05
2.01112e-05
2.01585e-05
2.01425e-05
2.01153e-05
2.0088e-05
2.00541e-05
2.00109e-05
1.99607e-05
1.99046e-05
1.98412e-05
1.9766e-05
1.96748e-05
1.95706e-05
1.64749e-05
1.65177e-05
1.65818e-05
1.67785e-05
1.69613e-05
1.69138e-05
1.71273e-05
1.733e-05
1.83936e-05
1.85821e-05
1.87396e-05
1.89533e-05
1.91352e-05
1.92071e-05
1.9198e-05
1.9164e-05
1.91315e-05
1.91014e-05
1.90681e-05
1.90278e-05
1.89783e-05
1.89172e-05
1.88389e-05
1.8741e-05
1.86262e-05
1.53677e-05
1.53912e-05
1.54209e-05
1.56039e-05
1.56892e-05
1.57191e-05
1.58992e-05
1.6067e-05
1.72872e-05
1.76184e-05
1.78315e-05
1.80288e-05
1.8208e-05
1.83064e-05
1.8329e-05
1.8303e-05
1.82508e-05
1.81869e-05
1.81217e-05
1.80592e-05
1.79961e-05
1.79242e-05
1.78308e-05
1.77041e-05
1.75436e-05
1.42825e-05
1.42765e-05
1.42636e-05
1.44e-05
1.43666e-05
1.45175e-05
1.45707e-05
1.48453e-05
1.62894e-05
1.67494e-05
1.70495e-05
1.72297e-05
1.73288e-05
1.73495e-05
1.73484e-05
1.73529e-05
1.73474e-05
1.73046e-05
1.72188e-05
1.71035e-05
1.69717e-05
1.68272e-05
1.66626e-05
1.64668e-05
1.62362e-05
1.59745e-05
1.32237e-05
1.31806e-05
1.31173e-05
1.31645e-05
1.30008e-05
1.32656e-05
1.30411e-05
1.36924e-05
1.54214e-05
1.5902e-05
1.63228e-05
1.65488e-05
1.6584e-05
1.64466e-05
1.62288e-05
1.60412e-05
1.59391e-05
1.59033e-05
1.58778e-05
1.58171e-05
1.56992e-05
1.55186e-05
1.52734e-05
1.49711e-05
1.46284e-05
1.42661e-05
1.22014e-05
1.20995e-05
1.19521e-05
1.18612e-05
1.16003e-05
1.19625e-05
1.13953e-05
1.29395e-05
1.47895e-05
1.51151e-05
1.55744e-05
1.57426e-05
1.57995e-05
1.57801e-05
1.55583e-05
1.5126e-05
1.4639e-05
1.42758e-05
1.41266e-05
1.41756e-05
1.43449e-05
1.4544e-05
1.46643e-05
1.4606e-05
1.43747e-05
1.40734e-05
1.13088e-05
1.10889e-05
1.07427e-05
1.03877e-05
1.00409e-05
1.05337e-05
1.00499e-05
1.3005e-05
1.44962e-05
1.50591e-05
1.61339e-05
1.64103e-05
1.6112e-05
1.55978e-05
1.52516e-05
1.53251e-05
1.56724e-05
1.599e-05
1.61423e-05
1.61614e-05
1.61215e-05
1.61002e-05
1.62162e-05
1.66085e-05
1.72621e-05
1.80131e-05
1.07307e-05
1.03515e-05
9.66885e-06
8.76354e-06
8.01643e-06
8.5669e-06
9.10712e-06
1.30828e-05
1.36799e-05
1.48064e-05
1.67564e-05
1.82757e-05
1.96917e-05
2.10451e-05
2.22075e-05
2.31223e-05
2.37959e-05
2.43296e-05
2.48373e-05
2.53821e-05
2.59791e-05
2.66139e-05
2.72538e-05
2.78219e-05
2.8245e-05
2.85674e-05
1.04551e-05
9.99109e-06
9.06607e-06
7.53009e-06
5.49e-06
6.01785e-06
8.6062e-06
1.13646e-05
1.36815e-05
2.02744e-05
2.50919e-05
2.87655e-05
3.13977e-05
3.31853e-05
3.43313e-05
3.50766e-05
3.56303e-05
3.61355e-05
3.66405e-05
3.71401e-05
3.76116e-05
3.80542e-05
3.84906e-05
3.8988e-05
3.94947e-05
3.992e-05
)
;

boundaryField
{
    inlet
    {
        type            calculated;
        value           nonuniform List<scalar> 
26
(
1.04443e-05
9.9923e-06
9.06906e-06
7.46829e-06
5.06811e-06
6.07018e-06
9.33737e-06
9.68222e-06
2.04999e-05
2.93499e-05
3.69181e-05
4.3179e-05
4.81885e-05
5.21244e-05
5.51316e-05
5.74214e-05
5.9187e-05
6.05909e-05
6.17661e-05
6.28128e-05
6.38026e-05
6.48073e-05
6.59065e-05
6.71539e-05
6.8457e-05
6.9677e-05
)
;
    }
    outlet
    {
        type            calculated;
        value           nonuniform List<scalar> 0();
    }
    walls
    {
        type            calculated;
        value           nonuniform List<scalar> 0();
    }
    frontAndBack
    {
        type            empty;
    }
    procBoundary0to1
    {
        type            processor;
        value           nonuniform List<scalar> 
94
(
0.00104976
0.000970824
0.000970824
0.000891197
0.000891197
0.00081318
0.00081318
0.000737187
0.000737187
0.000665701
0.000665701
0.000600442
0.000548912
0.000548912
0.000497993
0.000458803
0.000458803
0.000418615
0.000387911
0.00036007
0.00036007
0.000331054
0.00030849
0.00030849
0.000284634
0.000266012
0.000248812
0.000248812
0.000230563
0.000216109
0.000202679
0.000202679
0.000188384
0.000176967
0.000176967
0.000164711
0.000154946
0.000145825
0.000145825
0.000136006
0.000128184
0.000120871
0.000120871
0.000112961
0.000106686
0.000100817
0.000100817
9.44379e-05
8.94032e-05
8.46883e-05
8.46883e-05
7.95458e-05
7.54964e-05
7.16971e-05
7.16971e-05
6.75441e-05
6.42691e-05
6.11822e-05
5.82744e-05
5.82744e-05
5.51334e-05
5.25943e-05
5.01773e-05
4.78715e-05
4.78715e-05
4.54037e-05
4.33101e-05
4.12851e-05
3.93345e-05
3.74675e-05
3.74675e-05
3.55533e-05
3.38848e-05
3.2278e-05
3.07071e-05
2.91528e-05
2.76157e-05
2.76157e-05
2.60033e-05
2.45761e-05
2.33432e-05
2.2317e-05
2.13554e-05
2.03946e-05
1.94582e-05
1.85005e-05
1.73615e-05
1.73615e-05
1.56822e-05
1.38992e-05
1.37885e-05
1.87433e-05
2.88501e-05
4.02526e-05
)
;
    }
    procBoundary0to4
    {
        type            processor;
        value           nonuniform List<scalar> 
72
(
0.000780863
0.000716839
0.000659843
0.000608841
0.00056308
0.000521869
0.000484633
0.000450869
0.000420151
0.000392113
0.000366455
0.000342915
0.000321257
0.000301286
0.000282828
0.000265735
0.000249878
0.00023514
0.000221419
0.000208629
0.000196686
0.000185521
0.000175236
0.000175236
0.000165341
0.000156071
0.000147375
0.00013921
0.000131538
0.000124321
0.000117528
0.00011113
0.000105098
9.94075e-05
9.40364e-05
8.89634e-05
8.41691e-05
7.96356e-05
7.53462e-05
7.12857e-05
6.74398e-05
6.37953e-05
6.03398e-05
5.70619e-05
5.39508e-05
5.09965e-05
4.81896e-05
4.55212e-05
4.29832e-05
4.05677e-05
3.82676e-05
3.60759e-05
3.39863e-05
3.19927e-05
3.00897e-05
2.8273e-05
2.65384e-05
2.48835e-05
2.33312e-05
2.2004e-05
2.08956e-05
1.98282e-05
1.87262e-05
1.76152e-05
1.64995e-05
1.53948e-05
1.4316e-05
1.32686e-05
1.22676e-05
1.14114e-05
1.08731e-05
1.06162e-05
)
;
    }
    procBoundary0to5
    {
        type            processor;
        value           nonuniform List<scalar> 4(0.000888287 0.000923617 0.000960595 0.00100311);
    }
}


// ************************************************************************* //
