/*--------------------------------*- C++ -*----------------------------------*\
| =========                 |                                                 |
| \\      /  F ield         | OpenFOAM: The Open Source CFD Toolbox           |
|  \\    /   O peration     | Version:  2506                                  |
|   \\  /    A nd           | Website:  www.openfoam.com                      |
|    \\/     M anipulation  |                                                 |
\*---------------------------------------------------------------------------*/
FoamFile
{
    version     2.0;
    format      ascii;
    arch        "LSB;label=32;scalar=64";
    class       volVectorField;
    location    "200";
    object      U;
}
// * * * * * * * * * * * * * * * * * * * * * * * * * * * * * * * * * * * * * //

dimensions      [0 1 -1 0 0 0 0];

internalField   nonuniform List<vector> 
1340
(
(17.8915 14.0205 -4.10486e-18)
(17.3027 13.3173 5.90865e-17)
(16.7639 12.5801 1.79141e-16)
(16.2405 11.701 -3.8292e-16)
(15.7426 10.7024 -7.82815e-16)
(18.5997 13.3687 1.58301e-17)
(18.0476 12.7251 6.76616e-17)
(17.5413 12.0516 -2.02621e-16)
(17.0446 11.2473 -7.59764e-18)
(16.5675 10.3321 4.42975e-16)
(16.1768 9.35762 -8.804e-16)
(19.2302 12.7756 -1.09175e-17)
(18.7102 12.1845 -4.78416e-17)
(18.2326 11.5668 -2.59266e-17)
(17.7601 10.8279 1.75126e-16)
(17.3025 9.9859 -4.63251e-17)
(16.9228 9.09 5.42134e-16)
(16.6201 8.12814 9.2236e-16)
(19.7941 12.2326 1.03551e-17)
(19.3029 11.688 1.74206e-17)
(18.8509 11.1197 7.40782e-17)
(18.4006 10.4386 -2.7159e-16)
(17.9615 9.66132 -2.20058e-16)
(17.593 8.83473 -4.96587e-16)
(17.2935 7.94521 -6.98023e-16)
(17.0817 7.00922 6.31006e-16)
(20.301 11.7329 9.74453e-18)
(19.8357 11.2298 7.61214e-18)
(19.407 10.7056 -3.98632e-17)
(18.9771 10.076 2.34968e-16)
(18.5556 9.3564 5.03539e-16)
(18.1981 8.59133 3.45337e-17)
(17.9033 7.76625 1.29457e-15)
(17.6882 6.89707 -4.94475e-16)
(17.5656 6.03766 -7.58664e-16)
(20.7585 11.2709 1.30283e-17)
(20.3168 10.8054 -2.58191e-17)
(19.9093 10.3204 -2.07082e-17)
(19.4984 9.73714 -3.31307e-17)
(19.0935 9.06931 4.16825e-16)
(18.7471 8.35938 -5.63768e-16)
(18.4579 7.59222 1.83083e-16)
(18.2415 6.78315 1.22443e-17)
(18.1108 5.98297 -1.82227e-15)
(18.0643 5.22309 5.65648e-16)
(21.1729 10.8421 -1.10949e-17)
(20.7527 10.4106 2.11308e-17)
(20.3647 9.96105 1.54707e-16)
(19.9715 9.41957 4.1772e-17)
(19.5824 8.79857 -2.58522e-16)
(19.2472 8.13829 2.46138e-16)
(18.9641 7.42349 -4.96503e-18)
(18.7481 6.66893 9.30508e-16)
(18.6117 5.92241 1.37641e-16)
(18.5538 5.21362 -1.58243e-16)
(21.5492 10.4427 -3.19448e-18)
(21.149 10.0421 -5.97112e-18)
(20.7791 9.62483 -1.29057e-16)
(20.4025 9.12132 -2.78884e-16)
(20.0285 8.54282 -4.14865e-16)
(19.7041 7.92752 7.37457e-16)
(19.4277 7.26034 -7.76521e-16)
(19.2132 6.5554 1.99682e-16)
(19.0731 5.85777 5.0023e-16)
(19.0064 5.19555 2.4709e-16)
(19.0056 4.57126 3.43627e-16)
(21.8921 10.0698 1.87902e-17)
(21.5103 9.69743 4.26756e-17)
(21.1572 9.30943 1.37176e-16)
(20.7963 8.84058 -3.52661e-17)
(20.4366 8.30088 1.57311e-16)
(20.123 7.72654 -7.4777e-16)
(19.8536 7.1029 6.54305e-16)
(19.6416 6.44332 9.31291e-16)
(19.4992 5.79044 1.73161e-17)
(19.4258 5.17084 5.70513e-16)
(19.4139 4.5869 2.82874e-16)
(22.2051 9.72051 -2.14209e-17)
(21.8406 9.37408 3.60562e-17)
(21.5032 9.01289 -1.22252e-16)
(21.157 8.57585 -1.30913e-16)
(20.8111 8.07172 -1.47148e-17)
(20.5081 7.53483 6.74035e-16)
(20.2459 6.95115 -9.45375e-17)
(20.0369 6.33327 -6.1756e-16)
(19.8936 5.72142 -6.15154e-16)
(19.8151 5.14102 -1.92808e-15)
(19.7943 4.59422 4.50348e-16)
(19.8225 4.08861 1.24666e-15)
(22.4914 9.39269 1.17818e-17)
(22.1432 9.07015 9.22483e-18)
(21.8205 8.73359 1.33643e-16)
(21.4883 8.32579 2.85704e-16)
(21.1555 7.85438 -1.40681e-16)
(20.8629 7.3519 -5.1382e-16)
(20.608 6.80503 7.72675e-17)
(20.4027 6.22554 -7.67587e-16)
(20.2592 5.65156 3.90019e-16)
(20.1771 5.10729 7.23948e-16)
(20.1491 4.59478 -6.26304e-16)
(20.1671 4.12124 -6.87306e-16)
(22.7538 9.08445 -1.26778e-17)
(22.4209 8.78393 6.28215e-17)
(22.1121 8.47006 -4.06091e-17)
(21.7932 8.08922 -3.84296e-17)
(21.473 7.64799 -1.33395e-16)
(21.1905 7.17731 -4.0572e-16)
(20.9429 6.66442 -2.17715e-16)
(20.7417 6.12043 -6.62925e-17)
(20.5989 5.58144 2.97375e-16)
(20.5141 5.07055 4.34496e-16)
(20.4804 4.58975 8.18763e-16)
(20.4898 4.14591 -2.18848e-16)
(22.9946 8.79409 -1.10836e-17)
(22.6761 8.51396 -8.70988e-17)
(22.3805 8.22104 -6.91548e-17)
(22.0743 7.86513 -6.26263e-17)
(21.7662 7.45184 -4.95587e-17)
(21.4935 7.01058 2.37429e-16)
(21.2533 6.52918 -1.21695e-15)
(21.0565 6.01806 1.03571e-16)
(20.9149 5.51151 1.81456e-15)
(20.8283 5.03157 4.09465e-16)
(20.79 4.58019 -1.43523e-15)
(20.7922 4.16392 -9.9536e-16)
(20.8273 3.78887 2.18552e-16)
(23.2159 8.52014 1.32366e-17)
(22.9111 8.25892 -2.34356e-17)
(22.6279 7.98544 1.18963e-16)
(22.3339 7.65261 -4.12172e-16)
(22.0374 7.26525 -3.672e-16)
(21.7742 6.8513 -1.92125e-16)
(21.5413 6.39913 4.56762e-16)
(21.3491 5.91859 7.78562e-16)
(21.2092 5.44219 -7.98168e-16)
(21.1216 4.991 7.33635e-16)
(21.0796 4.5669 -4.57737e-18)
(21.0759 4.17624 -2.67591e-16)
(21.1031 3.82488 9.14104e-16)
(23.4195 8.26134 -1.03535e-17)
(23.1277 8.01767 -3.31179e-17)
(22.8563 7.76225 8.60611e-17)
(22.5739 7.45089 1.82873e-16)
(22.2886 7.08763 3.59104e-16)
(22.0347 6.69907 2.62819e-16)
(21.8091 6.27411 8.80852e-16)
(21.6216 5.82203 -1.48251e-15)
(21.4838 5.37372 1.29142e-16)
(21.3957 4.94929 -3.06602e-16)
(21.3508 4.5506 6.97104e-16)
(21.3421 4.18376 2.10824e-16)
(21.3625 3.85442 5.13416e-16)
(21.406 3.55738 1.85725e-16)
(23.607 8.01654 1.14668e-17)
(23.3275 7.78927 5.21836e-17)
(23.0674 7.5506 -1.54876e-16)
(22.7961 7.25919 7.84244e-17)
(22.5217 6.91842 3.4249e-16)
(22.2767 6.55352 -1.00227e-16)
(22.0582 6.15394 -4.55053e-16)
(21.8756 5.72843 1.10615e-15)
(21.7402 5.30631 -9.91591e-16)
(21.6521 4.90682 8.38943e-16)
(21.6049 4.53181 -3.22062e-16)
(21.592 4.18715 -4.2897e-16)
(21.6066 3.87831 -7.49633e-16)
(21.6428 3.6003 1.01374e-16)
(23.7798 7.78476 -9.21312e-19)
(23.5121 7.57276 1.45086e-17)
(23.2628 7.34972 -9.50065e-17)
(23.0021 7.07691 2.0945e-16)
(22.7381 6.75711 -3.29217e-16)
(22.5019 6.4143 4.46874e-16)
(22.2904 6.03843 4.59241e-16)
(22.1127 5.63774 -4.7534e-16)
(21.9799 5.24011 -7.90713e-17)
(21.8921 4.86392 9.98003e-17)
(21.8432 4.51102 -3.83661e-16)
(21.8268 4.18705 5.27728e-16)
(21.8364 3.89728 3.22006e-16)
(21.8663 3.63698 4.56441e-17)
(23.9391 7.56511 -1.66226e-18)
(23.6826 7.36734 1.35482e-17)
(23.4436 7.15888 -4.2619e-18)
(23.1933 6.90345 -1.18109e-16)
(22.9393 6.60325 -3.61602e-16)
(22.7115 6.28109 -2.86416e-16)
(22.507 5.92742 -4.6951e-16)
(22.3342 5.54997 2.20899e-16)
(22.2041 5.17526 7.55595e-17)
(22.117 4.82085 -1.2762e-15)
(22.0668 4.4886 -2.20672e-16)
(22.0475 4.18395 -4.84074e-16)
(22.0527 3.91195 9.03866e-16)
(22.0771 3.66813 -9.61016e-16)
(22.1164 3.44788 -3.16438e-16)
(24.086 7.35678 1.21603e-17)
(23.8404 7.17231 4.99163e-17)
(23.6113 6.97747 1.19364e-16)
(23.3707 6.73827 1.54255e-16)
(23.1265 6.45642 2.85283e-16)
(22.9069 6.1536 2.78792e-16)
(22.7091 5.82071 -8.87027e-16)
(22.5413 5.46505 -4.32209e-16)
(22.4141 5.11182 7.50669e-16)
(22.3279 4.77781 1.37276e-15)
(22.2767 4.46488 6.97465e-16)
(22.255 4.17826 -1.64318e-16)
(22.2565 3.92284 -2.27334e-16)
(22.2759 3.69437 1.06728e-15)
(22.3094 3.48844 -2.24279e-16)
(24.2217 7.15904 9.51122e-18)
(23.9864 6.98701 -1.57738e-17)
(23.7667 6.80491 -5.00022e-17)
(23.5357 6.5809 -7.91406e-17)
(23.3008 6.31623 -7.49367e-16)
(23.0892 6.03155 -1.50474e-16)
(22.898 5.71815 4.54964e-16)
(22.7351 5.38293 4.06234e-16)
(22.6109 5.04985 -1.13592e-15)
(22.5257 4.73497 2.19888e-16)
(22.474 4.44013 -1.12896e-16)
(22.4502 4.17037 9.28966e-18)
(22.4485 3.9304 -3.72422e-16)
(22.4636 3.7162 -5.79517e-16)
(22.4918 3.52359 2.09702e-17)
(24.3469 6.97127 -4.50211e-18)
(24.1215 6.81086 2.69163e-17)
(23.911 6.64067 4.22405e-17)
(23.689 6.43088 1.8816e-17)
(23.4633 6.18234 1.07534e-16)
(23.2593 5.91466 6.70755e-16)
(23.0746 5.61956 -4.25775e-16)
(22.9166 5.30354 3.24728e-16)
(22.7955 4.98939 1.16609e-15)
(22.7115 4.69245 -9.46838e-16)
(22.6594 4.41456 8.21948e-16)
(22.6339 4.16057 5.73726e-16)
(22.6294 3.93504 9.03081e-16)
(22.6408 3.73413 -1.45554e-16)
(22.6643 3.55389 -3.69169e-16)
(22.6975 3.39169 -3.95999e-16)
(24.4626 6.79284 5.23338e-21)
(24.2467 6.64331 -8.69549e-17)
(24.0449 6.48427 1.32739e-16)
(23.8317 6.28781 -5.40891e-17)
(23.6147 6.05441 5.51813e-16)
(23.4183 5.80269 -3.92871e-16)
(23.2399 5.52478 7.75691e-17)
(23.0867 5.22681 1.16298e-15)
(22.9686 4.93045 -1.41891e-15)
(22.886 4.65036 5.99786e-16)
(22.8338 4.38837 -9.75722e-16)
(22.8068 4.14915 -1.18053e-15)
(22.7999 3.93709 -5.54643e-16)
(22.808 3.74857 2.36025e-16)
(22.8275 3.57982 5.7397e-16)
(22.8558 3.42833 2.29349e-16)
(24.3626 6.48388 -3.13976e-17)
(24.1692 6.3353 -4.54062e-17)
(23.9646 6.15131 -3.02996e-17)
(23.756 5.93214 -3.72852e-16)
(23.5669 5.69541 6.64859e-16)
(23.3946 5.43366 -3.55316e-16)
(23.2462 5.15267 -1.45768e-15)
(23.1312 4.87303 1.38798e-15)
(23.0501 4.60877 1.96889e-16)
(22.9979 4.36171 4.39098e-16)
(22.9698 4.13632 5.26438e-16)
(22.9607 3.93685 -8.50406e-17)
(22.9659 3.75987 9.50742e-17)
(22.9818 3.6018 -5.73498e-16)
(23.0058 3.46025 3.06482e-16)
(23.0368 3.33123 -5.74327e-16)
(24.4701 6.33211 -1.98998e-17)
(24.2847 6.19333 6.45835e-17)
(24.0883 6.02106 -2.57474e-16)
(23.8879 5.81524 7.9318e-17)
(23.7058 5.59261 -6.38227e-16)
(23.5396 5.34606 1.55735e-16)
(23.3959 5.08105 3.79441e-17)
(23.284 4.81716 -4.90665e-17)
(23.2044 4.56777 -2.25564e-16)
(23.1524 4.3347 1.17384e-15)
(23.1233 4.12227 -1.26112e-16)
(23.1124 3.93456 1.02411e-15)
(23.115 3.76835 -3.38268e-16)
(23.1277 3.62021 3.30613e-16)
(23.1479 3.48788 -2.47345e-16)
(23.1745 3.36753 4.31086e-16)
(24.5696 6.1876 -9.1913e-17)
(24.392 6.05799 -1.20159e-17)
(24.2035 5.89671 4.14364e-16)
(24.011 5.70347 1.4987e-17)
(23.8358 5.49409 3.8247e-16)
(23.6755 5.26184 -5.16788e-16)
(23.5364 5.01188 8.57452e-17)
(23.4275 4.76279 -2.63749e-16)
(23.3496 4.5274 2.09657e-16)
(23.2979 4.30748 -6.35294e-16)
(23.2681 4.1072 -3.56701e-16)
(23.2556 3.9305 -1.11902e-15)
(23.2559 3.7743 3.43728e-16)
(23.2657 3.63539 1.31544e-16)
(23.2826 3.51161 -1.15048e-16)
(23.3053 3.39928 -1.21082e-16)
(24.6618 6.04994 6.74276e-17)
(24.4918 5.92894 1.49418e-16)
(24.311 5.77798 -1.75528e-16)
(24.126 5.59656 -5.36905e-16)
(23.9575 5.39964 7.88066e-17)
(23.8029 5.18086 -1.40708e-16)
(23.6683 4.94507 4.75814e-16)
(23.5626 4.70994 6.8939e-16)
(23.4863 4.48772 -4.86335e-16)
(23.4351 4.28015 -7.29799e-16)
(23.4047 4.09126 1.43151e-15)
(23.3908 3.92483 6.50509e-16)
(23.3891 3.77799 -2.07394e-16)
(23.3963 3.64766 1.01129e-16)
(23.4102 3.53179 5.40086e-16)
(23.4294 3.42689 4.37404e-16)
(23.4533 3.33013 6.39397e-17)
(24.7473 5.9188 -1.50849e-17)
(24.5845 5.80586 -1.65918e-16)
(24.4111 5.66459 2.17211e-17)
(24.2336 5.49429 8.12581e-16)
(24.0715 5.3091 -6.82622e-16)
(23.9224 5.103 8.11813e-17)
(23.7923 4.88056 -4.27055e-17)
(23.6896 4.65858 -4.57737e-16)
(23.6151 4.44874 1.34932e-15)
(23.5644 4.25278 2.79709e-17)
(23.5335 4.07458 -1.35822e-15)
(23.5185 3.91776 3.60821e-16)
(23.515 3.77962 -6.24405e-16)
(23.52 3.65726 -5.24911e-16)
(23.5312 3.54873 -2.11875e-16)
(23.5473 3.4507 9.04394e-17)
(23.5677 3.36046 5.95696e-17)
(24.8266 5.79384 -4.05358e-17)
(24.6707 5.68847 1.05762e-16)
(24.5044 5.55629 1.01559e-16)
(24.334 5.39644 -8.43833e-16)
(24.1783 5.2223 6.90239e-16)
(24.0346 5.02814 -2.71521e-16)
(23.9089 4.81828 9.88027e-16)
(23.8092 4.60868 6.78625e-16)
(23.7364 4.41049 -1.95456e-15)
(23.6863 4.22545 -8.94623e-16)
(23.6552 4.05726 3.77377e-16)
(23.6391 3.90944 -1.34758e-16)
(23.6341 3.77942 4.20626e-16)
(23.6371 3.66448 -3.39415e-16)
(23.6459 3.56275 -8.81182e-17)
(23.6593 3.47107 -6.94154e-17)
(23.6766 3.38683 -7.27583e-17)
(24.9 5.67475 1.37929e-18)
(24.7508 5.57647 1.13801e-16)
(24.5915 5.45283 -1.69572e-16)
(24.428 5.30283 4.35796e-16)
(24.2783 5.13907 -2.63732e-16)
(24.14 4.95616 4.75882e-16)
(24.0185 4.75816 -9.31839e-16)
(23.9218 4.56023 -1.0911e-16)
(23.8508 4.37301 1.61094e-15)
(23.8014 4.19822 -1.16065e-16)
(23.7701 4.03944 -2.43768e-16)
(23.7532 3.90002 -6.24741e-17)
(23.7468 3.77759 5.75035e-16)
(23.748 3.66953 3.07578e-16)
(23.7547 3.57411 -3.14744e-16)
(23.7656 3.48829 4.76479e-16)
(23.7802 3.4096 5.31959e-17)
(23.7979 3.33617 -3.87252e-16)
(24.968 5.56124 -1.10897e-17)
(24.8253 5.46962 -1.82658e-16)
(24.6727 5.35399 4.28189e-17)
(24.5159 5.21325 3.60134e-17)
(24.3721 5.05927 -3.06853e-16)
(24.239 4.88696 -3.50395e-16)
(24.1217 4.70014 -4.59877e-16)
(24.028 4.51319 -1.13386e-15)
(23.9588 4.33631 6.11953e-16)
(23.9101 4.17116 1.21552e-15)
(23.8787 4.02119 4.24289e-16)
(23.8611 3.88965 4.54972e-17)
(23.8535 3.77428 1.94112e-16)
(23.8531 3.67263 2.96139e-16)
(23.8579 3.58305 -3.7842e-16)
(23.8667 3.50265 -9.39345e-17)
(23.8788 3.42908 3.67546e-16)
(23.8938 3.36054 -1.25446e-17)
(25.031 5.45305 4.16764e-17)
(24.8946 5.36766 -5.8281e-17)
(24.7485 5.25957 9.59585e-18)
(24.5982 5.12753 -1.8727e-16)
(24.4601 4.98276 6.68172e-16)
(24.3319 4.82043 1.06079e-15)
(24.2188 4.64415 -4.20522e-16)
(24.128 4.46756 1.74112e-16)
(24.0606 4.30041 -4.48011e-16)
(24.0128 4.14432 -1.09266e-15)
(23.9815 4.00262 -4.97438e-16)
(23.9632 3.87845 -3.07177e-16)
(23.9546 3.76967 -5.55742e-16)
(23.9528 3.67398 1.73247e-16)
(23.9559 3.58981 2.6743e-16)
(23.9628 3.51443 4.56512e-17)
(23.9727 3.44558 -1.91108e-16)
(23.9853 3.38153 -4.07017e-16)
(25.0893 5.34993 -4.73181e-17)
(24.959 5.27039 1.07269e-16)
(24.8191 5.16935 -1.72515e-16)
(24.6751 5.04551 -2.16019e-16)
(24.5426 4.9094 -4.25423e-16)
(24.4194 4.75648 2.88334e-17)
(24.3102 4.59012 1.09793e-15)
(24.2224 4.4233 -5.04437e-16)
(24.1568 4.2653 1.58713e-17)
(24.1099 4.11773 -2.64212e-16)
(24.0786 3.98381 5.85421e-16)
(24.06 3.86653 1.07638e-16)
(24.0504 3.7639 -4.58606e-16)
(24.0474 3.67375 5.20533e-16)
(24.0491 3.5946 1.05928e-16)
(24.0543 3.52385 -3.01764e-16)
(24.0622 3.45935 5.8027e-16)
(24.0727 3.39946 -5.03318e-16)
(24.0855 3.34245 8.17953e-17)
(25.1434 5.25164 -9.05394e-17)
(25.0188 5.17757 6.85412e-17)
(24.8851 5.08317 2.12028e-16)
(24.7472 4.96702 1.50954e-16)
(24.6201 4.83908 4.27091e-16)
(24.5016 4.69501 -6.24177e-16)
(24.3964 4.53801 -1.67045e-15)
(24.3115 4.38039 1.37005e-16)
(24.2477 4.23102 -1.24188e-16)
(24.2017 4.09146 8.69332e-16)
(24.1706 3.96482 1.01833e-15)
(24.1516 3.85399 -2.45298e-16)
(24.1413 3.75711 4.52294e-16)
(24.1372 3.67211 -4.10408e-16)
(24.1375 3.59762 -6.46695e-16)
(24.1413 3.53115 -1.90152e-16)
(24.1476 3.47067 -2.49895e-17)
(24.1561 3.4146 5.63148e-16)
(24.1668 3.36129 -7.35238e-18)
(25.1934 5.15795 5.44459e-17)
(25.0745 5.08901 -1.60643e-16)
(24.9466 5.00082 -2.16025e-17)
(24.8146 4.89193 -2.49329e-16)
(24.6928 4.77166 1.84297e-16)
(24.579 4.63594 6.41158e-16)
(24.4776 4.48776 1.31084e-15)
(24.3956 4.33882 -3.79275e-16)
(24.3336 4.19755 -6.12302e-17)
(24.2886 4.06553 -8.39455e-16)
(24.2578 3.94573 -2.56769e-16)
(24.2385 3.84094 3.96837e-17)
(24.2275 3.74942 -7.61709e-16)
(24.2224 3.66922 -5.30815e-17)
(24.2217 3.59905 4.65547e-16)
(24.2241 3.53654 4.37088e-16)
(24.2289 3.47977 -3.089e-16)
(24.2358 3.42723 -3.10008e-16)
(24.2447 3.37732 1.67439e-16)
(25.2397 5.06866 -1.23743e-17)
(25.1262 5.00452 7.35995e-17)
(25.0041 4.92217 -2.63491e-16)
(24.8778 4.82009 -7.98963e-17)
(24.761 4.70703 2.09441e-16)
(24.6518 4.57918 -4.34202e-16)
(24.5543 4.43931 -5.39181e-16)
(24.475 4.29854 -1.20661e-16)
(24.4149 4.16492 8.3491e-16)
(24.3708 4.03998 -2.81784e-16)
(24.3404 3.9266 6.8246e-17)
(24.3209 3.82747 -5.90956e-16)
(24.3094 3.74095 3.51544e-16)
(24.3035 3.66522 2.82583e-16)
(24.3018 3.59905 -2.69325e-16)
(24.303 3.54022 2.6802e-16)
(24.3065 3.48687 1.20277e-16)
(24.312 3.43758 -3.64464e-16)
(24.3192 3.39081 3.3082e-16)
(24.3283 3.3452 5.5966e-17)
(25.2825 4.98356 3.69169e-18)
(25.1743 4.92393 -1.35967e-17)
(25.0577 4.84704 6.54482e-17)
(24.937 4.75136 2.01385e-16)
(24.8252 4.6451 -2.93695e-16)
(24.7203 4.52465 -4.67604e-16)
(24.6265 4.39262 9.89698e-16)
(24.55 4.25955 1.06862e-15)
(24.4918 4.13312 2.86142e-16)
(24.4488 4.01485 -2.975e-16)
(24.4187 3.9075 3.14139e-16)
(24.3991 3.81366 6.28712e-16)
(24.3871 3.73182 -7.002e-16)
(24.3806 3.66025 2.14504e-16)
(24.378 3.5978 7.97562e-16)
(24.3783 3.54237 -6.0472e-16)
(24.3806 3.49219 -1.95191e-16)
(24.3848 3.44589 1.73813e-16)
(24.3906 3.40202 -1.29058e-16)
(24.3981 3.35925 3.13544e-16)
(25.3221 4.90248 -3.47459e-18)
(25.219 4.84705 -3.78306e-17)
(25.1078 4.77529 2.23898e-16)
(24.9924 4.68563 5.15315e-17)
(24.8854 4.58576 3.20713e-16)
(24.7849 4.47228 -3.31772e-16)
(24.6948 4.34763 -3.50985e-16)
(24.621 4.22181 -3.38003e-16)
(24.5646 4.10216 -1.26794e-15)
(24.5226 3.99015 7.69338e-16)
(24.493 3.88846 -8.79117e-16)
(24.4734 3.79959 -5.59478e-16)
(24.4611 3.72212 4.02812e-16)
(24.454 3.65443 -1.05564e-16)
(24.4506 3.59544 -2.30071e-17)
(24.45 3.54315 -5.18104e-17)
(24.4514 3.4959 -1.51361e-16)
(24.4545 3.45237 -2.76311e-16)
(24.459 3.41118 3.62085e-16)
(24.4651 3.37104 -3.98054e-16)
(25.3588 4.82522 -2.06158e-17)
(25.2606 4.77373 1.17204e-16)
(25.1545 4.70678 3.10369e-17)
(25.0444 4.62277 -4.12051e-16)
(24.9421 4.52891 2.24286e-16)
(24.8458 4.422 8.31624e-16)
(24.7592 4.30431 -6.181e-16)
(24.6882 4.18532 4.98974e-16)
(24.6335 4.07205 1.79537e-15)
(24.5927 3.96593 2.96677e-17)
(24.5636 3.86956 4.74823e-16)
(24.544 3.78534 -1.62225e-16)
(24.5314 3.71195 -2.69607e-16)
(24.5238 3.64788 -4.38761e-17)
(24.5199 3.59211 1.16612e-16)
(24.5185 3.54274 8.14477e-16)
(24.519 3.4982 -2.31704e-17)
(24.5211 3.45723 -3.40818e-16)
(24.5246 3.4185 2.74684e-16)
(24.5295 3.38079 -1.25238e-16)
(24.5358 3.34302 6.5793e-17)
(25.3926 4.75163 1.53736e-17)
(25.2992 4.70382 -7.25761e-17)
(25.1982 4.64137 -7.32078e-17)
(25.0931 4.56267 5.91279e-16)
(24.9953 4.47447 -2.17331e-16)
(24.9032 4.37373 1.95583e-16)
(24.8201 4.26259 -1.20184e-16)
(24.7518 4.15004 -1.8485e-15)
(24.6989 4.04278 -1.57896e-16)
(24.6592 3.94221 6.7665e-16)
(24.6306 3.85082 4.19179e-16)
(24.6111 3.77096 -4.63634e-16)
(24.5984 3.7014 1.92622e-16)
(24.5904 3.6407 -3.24268e-17)
(24.5859 3.58793 -1.86593e-16)
(24.5839 3.54128 2.76153e-16)
(24.5837 3.49924 -1.89518e-16)
(24.585 3.46064 5.15466e-16)
(24.5875 3.4242 -3.57897e-16)
(24.5913 3.38873 1.30357e-16)
(24.5965 3.35321 -7.95866e-17)
(25.4239 4.68154 -2.26942e-17)
(25.335 4.63718 6.0572e-17)
(25.2389 4.57893 -4.28263e-17)
(25.1388 4.50523 -4.80225e-16)
(25.0455 4.42234 -4.66952e-16)
(24.9573 4.32742 -1.20429e-15)
(24.8777 4.22245 1.4205e-15)
(24.812 4.11597 6.14831e-16)
(24.7609 4.01436 3.88904e-16)
(24.7223 3.919 -1.41518e-15)
(24.6943 3.83231 -6.10762e-16)
(24.675 3.75654 -5.93091e-16)
(24.6621 3.69055 3.08122e-16)
(24.6538 3.63301 -1.33935e-16)
(24.6489 3.58303 -1.75263e-16)
(24.6463 3.5389 1.91859e-16)
(24.6455 3.49919 -4.28619e-16)
(24.6461 3.46279 1.14092e-16)
(24.6479 3.42846 -1.54854e-16)
(24.6508 3.39507 -1.5134e-16)
(24.6549 3.36163 3.14969e-16)
(25.4528 4.6148 -2.2002e-17)
(25.3684 4.57366 8.42482e-17)
(25.277 4.51935 7.40922e-17)
(25.1816 4.45033 2.19323e-16)
(25.0926 4.37244 7.30436e-16)
(25.0085 4.28299 6.75315e-16)
(24.9322 4.18384 -2.57904e-16)
(24.869 4.08307 2.93172e-16)
(24.8198 3.98678 -4.20387e-16)
(24.7823 3.89633 1.07802e-16)
(24.7549 3.81405 9.027e-16)
(24.7358 3.74212 5.91176e-16)
(24.7229 3.67948 -1.31125e-16)
(24.7144 3.62489 -3.47054e-16)
(24.7091 3.57751 -4.54401e-17)
(24.7061 3.53573 1.81311e-16)
(24.7048 3.49819 -2.62535e-16)
(24.7047 3.46382 2.8593e-17)
(24.7058 3.43145 -2.09115e-16)
(24.708 3.4 -7.02693e-17)
(24.7112 3.36849 8.91238e-17)
(25.4795 4.55126 -1.57745e-17)
(25.3994 4.51313 3.35894e-18)
(25.3126 4.46252 -8.10014e-17)
(25.2219 4.39789 -3.53572e-17)
(25.1371 4.3247 -1.9562e-16)
(25.0567 4.2404 4.04089e-16)
(24.9838 4.14672 -1.04352e-15)
(24.9231 4.05133 8.72801e-16)
(24.8756 3.96005 2.15101e-16)
(24.8393 3.87422 -6.00037e-16)
(24.8125 3.79608 7.09842e-16)
(24.7937 3.72776 -3.55387e-16)
(24.7808 3.66827 1.27906e-16)
(24.7721 3.61644 3.59427e-16)
(24.7666 3.57149 1.27989e-16)
(24.7632 3.5319 -8.45002e-17)
(24.7615 3.49637 3.33415e-16)
(24.761 3.4639 -4.67553e-16)
(24.7615 3.43335 2.84442e-16)
(24.763 3.40369 -1.54765e-17)
(24.7655 3.37397 2.16638e-16)
(24.7691 3.34324 -2.25911e-16)
(25.5041 4.49079 -1.1302e-17)
(25.4282 4.45547 5.04171e-17)
(25.3458 4.40831 3.38949e-17)
(25.2596 4.34781 1.28337e-16)
(25.1789 4.27903 -1.94097e-16)
(25.1023 4.19958 -6.44256e-16)
(25.0326 4.11105 8.51306e-16)
(24.9744 4.02072 -4.47713e-16)
(24.9287 3.93417 -4.7464e-16)
(24.8935 3.85269 1.27498e-15)
(24.8674 3.77845 -1.09353e-15)
(24.8489 3.71351 -2.1148e-16)
(24.8361 3.65697 6.87713e-16)
(24.8273 3.60773 -7.69708e-16)
(24.8216 3.56506 1.67078e-16)
(24.8179 3.52751 -2.61903e-16)
(24.8158 3.49386 5.70716e-17)
(24.8149 3.46314 7.73911e-17)
(24.815 3.43429 -4.43817e-17)
(24.8159 3.40629 -1.5466e-16)
(24.8178 3.37826 -8.91064e-18)
(24.8206 3.34923 2.75452e-16)
(25.5268 4.43326 3.37843e-17)
(25.4549 4.40056 -3.00591e-17)
(25.3769 4.35663 8.19011e-17)
(25.2951 4.3 1.41205e-16)
(25.2184 4.23537 9.04201e-17)
(25.1455 4.16048 8.97328e-16)
(25.0789 4.07679 -1.2091e-16)
(25.0231 3.99124 -3.05588e-16)
(24.9791 3.90913 4.72121e-16)
(24.945 3.83174 -1.72131e-15)
(24.9196 3.76117 9.16683e-16)
(24.9016 3.69943 5.66509e-16)
(24.8889 3.64565 -1.08883e-16)
(24.8801 3.59884 7.4272e-16)
(24.8742 3.5583 -6.81601e-16)
(24.8704 3.52266 4.06531e-16)
(24.868 3.49077 5.01573e-16)
(24.8668 3.46169 -4.1408e-16)
(24.8664 3.43441 -3.6186e-17)
(24.8669 3.40797 -9.3705e-17)
(24.8682 3.38149 1.70027e-16)
(24.8704 3.35407 -7.61682e-17)
(25.5477 4.37853 3.39024e-17)
(25.4798 4.34828 -2.49796e-17)
(25.406 4.30737 -5.61658e-17)
(25.3284 4.25438 -3.27876e-16)
(25.2556 4.19365 3.32299e-17)
(25.1863 4.12304 -7.16821e-16)
(25.1228 4.04392 -7.4987e-16)
(25.0694 3.96286 -3.76432e-16)
(25.027 3.88494 -7.40187e-16)
(24.9941 3.8114 -1.12898e-17)
(24.9695 3.74428 -3.98627e-16)
(24.9518 3.68554 -3.40726e-16)
(24.9393 3.63437 -1.01426e-16)
(24.9306 3.58984 -4.94531e-16)
(24.9246 3.5513 4.21609e-17)
(24.9206 3.51745 1.40696e-16)
(24.918 3.48719 -3.25584e-16)
(24.9165 3.45964 -1.04888e-16)
(24.9159 3.43383 3.49893e-16)
(24.916 3.40884 -1.07497e-16)
(24.9169 3.38382 1.97793e-16)
(24.9185 3.35789 7.51284e-17)
(25.567 4.3265 -1.69111e-17)
(25.5029 4.29854 -3.59809e-18)
(25.4332 4.26044 -7.67555e-17)
(25.3597 4.21086 -2.05885e-16)
(25.2907 4.15379 -2.42154e-16)
(25.2249 4.08722 9.07779e-17)
(25.1644 4.01238 6.88359e-16)
(25.1133 3.93556 1.7236e-15)
(25.0726 3.86158 -7.18637e-16)
(25.0409 3.79167 -4.17652e-17)
(25.017 3.72781 2.46741e-16)
(24.9998 3.67189 -4.33898e-17)
(24.9876 3.62318 -6.96944e-17)
(24.9789 3.58079 -4.31976e-16)
(24.9729 3.54412 -2.79726e-16)
(24.9688 3.51195 4.98906e-16)
(24.9661 3.48322 -1.43881e-16)
(24.9644 3.45711 -4.69303e-17)
(24.9635 3.43266 1.28717e-18)
(24.9632 3.40902 -2.72187e-18)
(24.9637 3.38536 -8.06225e-17)
(24.9649 3.36084 -3.03526e-16)
(24.967 3.3344 8.7195e-17)
(25.5848 4.27704 -1.55665e-17)
(25.5243 4.25121 5.88431e-17)
(25.4586 4.21575 1.91324e-16)
(25.3892 4.16937 1.14131e-16)
(25.3239 4.11574 -1.97167e-16)
(25.2615 4.05296 -4.23515e-16)
(25.2039 3.98215 3.74278e-16)
(25.155 3.90932 -1.21202e-15)
(25.116 3.83906 1.95888e-15)
(25.0855 3.77256 5.0976e-16)
(25.0624 3.71178 -6.0924e-16)
(25.0457 3.65852 1.39016e-16)
(25.0337 3.61212 9.54001e-16)
(25.0252 3.57174 -6.77815e-16)
(25.0192 3.53684 2.07805e-17)
(25.015 3.50624 1.63063e-16)
(25.0121 3.47894 2.20077e-16)
(25.0102 3.45416 -2.36518e-17)
(25.0091 3.43099 -3.35235e-16)
(25.0086 3.40861 5.14438e-16)
(25.0088 3.38622 -4.02209e-16)
(25.0095 3.36301 3.21697e-16)
(25.0112 3.33795 4.22222e-18)
(25.6011 4.23004 -3.98353e-17)
(25.5443 4.20621 9.41534e-17)
(25.4824 4.17321 -5.6136e-18)
(25.4169 4.12983 -8.52466e-17)
(25.3552 4.07944 -5.20291e-17)
(25.2962 4.02021 8.54096e-16)
(25.2414 3.9532 -2.31944e-16)
(25.1947 3.88413 5.8203e-16)
(25.1573 3.81737 -2.00531e-15)
(25.128 3.75409 -3.97306e-16)
(25.1058 3.6962 9.06177e-16)
(25.0896 3.64545 5.55387e-17)
(25.0779 3.60123 -1.81341e-16)
(25.0695 3.56274 -7.48665e-16)
(25.0635 3.52949 8.33456e-16)
(25.0593 3.50036 -2.64935e-17)
(25.0563 3.4744 -2.97806e-16)
(25.0542 3.45087 -2.99488e-17)
(25.0529 3.42889 7.19663e-17)
(25.0521 3.40768 -9.60941e-17)
(25.052 3.38649 3.28044e-16)
(25.0524 3.3645 -4.0997e-16)
(25.0536 3.34074 2.23861e-16)
(25.6162 4.18541 -5.23664e-18)
(25.5628 4.16344 7.76647e-18)
(25.5048 4.13274 -1.08314e-16)
(25.443 4.09218 -2.42897e-16)
(25.3849 4.04482 2.34716e-16)
(25.3291 3.98894 -1.07849e-15)
(25.277 3.9255 5.3473e-16)
(25.2325 3.85998 -4.60673e-17)
(25.1967 3.7965 4.86925e-16)
(25.1687 3.73625 -1.51745e-16)
(25.1473 3.68109 5.99056e-16)
(25.1316 3.63271 -2.80242e-16)
(25.1202 3.59053 4.15697e-16)
(25.1118 3.55382 8.00869e-17)
(25.1058 3.52212 3.51995e-16)
(25.1015 3.49437 -2.35182e-16)
(25.0984 3.46966 -2.5717e-16)
(25.0962 3.44729 1.99533e-16)
(25.0947 3.42643 -1.78363e-16)
(25.0937 3.40632 1.13673e-16)
(25.0933 3.38623 -1.52984e-16)
(25.0935 3.36539 3.32363e-16)
(25.0942 3.34285 -1.74542e-16)
(25.63 4.14304 -5.35278e-18)
(25.5801 4.1228 1.18529e-17)
(25.5257 4.09424 -1.25711e-16)
(25.4676 4.05634 5.30572e-16)
(25.413 4.01183 -1.9372e-16)
(25.3604 3.95909 1.13982e-15)
(25.3108 3.89901 7.27778e-16)
(25.2684 3.83685 1.24049e-16)
(25.2344 3.77645 9.94258e-16)
(25.2075 3.71905 3.23328e-17)
(25.1869 3.66646 -8.34719e-16)
(25.1717 3.6203 -6.54382e-16)
(25.1605 3.58004 -4.11685e-16)
(25.1522 3.545 4.84445e-16)
(25.1462 3.51475 -1.89098e-17)
(25.1418 3.48828 4.95084e-16)
(25.1386 3.46475 -4.73991e-16)
(25.1362 3.44347 6.20826e-18)
(25.1346 3.42365 -8.98502e-17)
(25.1335 3.40457 -1.42079e-16)
(25.1328 3.38552 6.13116e-18)
(25.1327 3.36576 -9.38585e-17)
(25.1331 3.34438 1.14456e-16)
(25.6427 4.10283 4.17003e-17)
(25.5961 4.08421 -6.9956e-17)
(25.5453 4.05766 2.8367e-16)
(25.4908 4.02226 -5.37439e-16)
(25.4396 3.98042 1.95896e-16)
(25.39 3.93063 -1.34125e-15)
(25.343 3.87371 -6.59736e-16)
(25.3027 3.81472 5.03393e-16)
(25.2703 3.75721 -1.09232e-15)
(25.2446 3.70249 4.53149e-16)
(25.2247 3.65231 8.10232e-17)
(25.2099 3.60823 5.03876e-17)
(25.1988 3.56977 -2.37231e-16)
(25.1906 3.53629 -2.67511e-16)
(25.1846 3.5074 8.42167e-17)
(25.1801 3.48214 3.52191e-16)
(25.1768 3.45971 -3.02095e-16)
(25.1744 3.43945 4.02419e-16)
(25.1726 3.42062 -1.63668e-16)
(25.1713 3.4025 9.93058e-17)
(25.1705 3.38443 -2.43266e-16)
(25.1701 3.36569 2.99622e-16)
(25.1702 3.34539 -5.05709e-17)
(25.1711 3.32302 -1.50989e-16)
(25.6544 4.06469 -2.31328e-17)
(25.611 4.04759 4.05128e-17)
(25.5636 4.0229 -4.24345e-17)
(25.5127 3.98986 -1.82434e-16)
(25.4648 3.95052 -4.07489e-17)
(25.4182 3.90351 8.4237e-16)
(25.3735 3.84957 3.53724e-16)
(25.3354 3.79359 -1.28529e-15)
(25.3047 3.73877 -5.91914e-16)
(25.2801 3.68653 3.71373e-16)
(25.2607 3.63862 -5.28813e-16)
(25.2462 3.5965 8.38506e-16)
(25.2353 3.55973 1.21883e-16)
(25.2271 3.52771 1.03871e-16)
(25.221 3.5001 -1.34115e-17)
(25.2165 3.47599 7.43945e-17)
(25.2131 3.45459 -7.19698e-16)
(25.2106 3.4353 2.07084e-16)
(25.2087 3.41739 8.06749e-17)
(25.2073 3.40018 8.93965e-17)
(25.2064 3.38303 -1.76157e-16)
(25.2058 3.36525 1.86782e-16)
(25.2058 3.34598 6.63546e-17)
(25.2063 3.32472 -5.77049e-17)
(25.6652 4.02854 -1.15509e-17)
(25.6249 4.01285 -2.8143e-17)
(25.5809 3.9899 1.07397e-16)
(25.5334 3.95909 1.66151e-16)
(25.4887 3.92209 2.94323e-16)
(25.4449 3.8777 7.53525e-17)
(25.4026 3.82658 5.07298e-17)
(25.3667 3.77344 2.84011e-16)
(25.3376 3.72109 1.65272e-15)
(25.3138 3.67118 8.25038e-17)
(25.2949 3.6254 6.7783e-16)
(25.2806 3.58511 -7.10261e-16)
(25.2698 3.54992 -1.34595e-16)
(25.2617 3.51929 1.16208e-16)
(25.2556 3.49289 -3.69425e-17)
(25.2511 3.46985 1.44652e-16)
(25.2477 3.44944 -6.6544e-17)
(25.2451 3.43106 4.63084e-16)
(25.2432 3.41402 -4.93097e-16)
(25.2417 3.39766 3.10682e-16)
(25.2406 3.38138 -5.00836e-16)
(25.24 3.36451 3.31093e-16)
(25.2397 3.34621 -2.54812e-16)
(25.24 3.32599 -9.52203e-17)
(25.675 3.99428 2.02411e-17)
(25.6378 3.97991 -1.02237e-17)
(25.5971 3.95859 -2.64135e-16)
(25.5529 3.92989 1.35842e-16)
(25.5115 3.89508 -5.65964e-16)
(25.4703 3.85317 1.6693e-16)
(25.4303 3.80471 -1.54108e-17)
(25.3966 3.75427 1.24374e-15)
(25.369 3.70415 -1.99261e-15)
(25.3459 3.65639 3.67657e-16)
(25.3273 3.61262 -7.05865e-16)
(25.3132 3.57407 5.39518e-16)
(25.3025 3.54036 -2.61985e-16)
(25.2945 3.51104 -2.59877e-16)
(25.2885 3.48579 1.52906e-16)
(25.284 3.46378 -2.3954e-17)
(25.2806 3.4443 -1.12938e-18)
(25.278 3.42677 1.48805e-17)
(25.2761 3.41055 3.13979e-16)
(25.2745 3.395 -2.11644e-19)
(25.2733 3.37954 -2.90316e-17)
(25.2725 3.36351 -1.81518e-16)
(25.2721 3.34612 2.37734e-17)
(25.2722 3.3269 3.4487e-17)
(25.684 3.96184 -4.60799e-17)
(25.6498 3.94869 -3.42192e-17)
(25.6123 3.92891 2.81272e-17)
(25.5714 3.90219 -4.74396e-16)
(25.533 3.86943 3.452e-16)
(25.4944 3.82987 -5.5073e-16)
(25.4567 3.78392 -7.31165e-16)
(25.4253 3.73606 -7.87624e-16)
(25.3989 3.68793 1.11741e-15)
(25.3762 3.64219 -9.38295e-16)
(25.3579 3.60032 5.4647e-16)
(25.344 3.5634 3.52772e-16)
(25.3336 3.5311 -3.99898e-17)
(25.3257 3.50302 1.63915e-16)
(25.3198 3.47885 -4.16821e-19)
(25.3154 3.4578 2.14836e-16)
(25.312 3.43919 -1.18893e-17)
(25.3093 3.42247 -3.25695e-16)
(25.3073 3.40701 -4.77246e-17)
(25.3057 3.39221 8.61796e-17)
(25.3044 3.3775 -6.46605e-17)
(25.3034 3.36227 -5.48365e-18)
(25.3028 3.34573 5.67569e-17)
(25.3026 3.32744 4.60727e-17)
(25.6923 3.93111 2.36436e-17)
(25.661 3.91911 -2.59445e-17)
(25.6266 3.90076 6.22786e-17)
(25.5889 3.87595 5.43663e-16)
(25.5535 3.84508 8.09437e-16)
(25.5173 3.80777 1.87136e-16)
(25.4818 3.76417 4.04864e-16)
(25.4527 3.71883 -2.0188e-16)
(25.4273 3.67238 9.45467e-16)
(25.4049 3.62853 -8.63667e-16)
(25.3869 3.58851 1.83676e-16)
(25.3733 3.55312 -1.01615e-16)
(25.3632 3.52215 -1.87062e-16)
(25.3554 3.49523 -1.59111e-16)
(25.3495 3.47208 -2.03256e-16)
(25.3451 3.45192 1.44601e-16)
(25.3416 3.43411 -1.09022e-16)
(25.3389 3.41814 -3.23645e-17)
(25.3367 3.40338 -8.87002e-17)
(25.335 3.38928 2.58639e-16)
(25.3336 3.37528 2.17501e-16)
(25.3325 3.36078 -2.08257e-17)
(25.3316 3.34504 -5.76664e-17)
(25.3312 3.32763 -1.19623e-16)
(25.6998 3.90202 -2.45515e-18)
(25.6714 3.89109 -7.369e-17)
(25.6401 3.8741 1.30638e-16)
(25.6055 3.85111 -3.87994e-16)
(25.5731 3.82201 -9.71592e-16)