/*--------------------------------*- C++ -*----------------------------------*\
| =========                 |                                                 |
| \\      /  F ield         | OpenFOAM: The Open Source CFD Toolbox           |
|  \\    /   O peration     | Version:  2506                                  |
|   \\  /    A nd           | Website:  www.openfoam.com                      |
|    \\/     M anipulation  |                                                 |
\*---------------------------------------------------------------------------*/
FoamFile
{
    version     2.0;
    format      ascii;
    arch        "LSB;label=32;scalar=64";
    class       volVectorField;
    location    "500";
    object      momentError;
}
// * * * * * * * * * * * * * * * * * * * * * * * * * * * * * * * * * * * * * //

dimensions      [0 1 -2 0 0 0 0];

internalField   nonuniform List<vector> 
1340
(
(-0.00017701 0.00130489 1.15496e-13)
(0.00116104 0.011518 -1.13959e-14)
(0.0524222 0.0722333 -4.53028e-16)
(1.09049 -0.12001 -6.74696e-14)
(4.08042e-05 0.000403273 -3.94954e-14)
(-0.000974623 0.0022298 3.30544e-14)
(-0.0317675 0.01426 -1.41193e-14)
(-0.893065 0.108622 -3.85093e-14)
(-0.000823114 0.000444992 -3.6166e-14)
(-0.00254073 0.00126097 -9.98071e-14)
(-0.0164276 0.00207423 2.77746e-14)
(-0.11345 0.00992973 9.91245e-15)
(-0.0013274 0.000534102 -1.16597e-13)
(-0.00173177 0.000666005 1.66349e-14)
(-0.00692372 -0.00013894 -2.82971e-14)
(-0.0339953 0.00930238 4.56601e-14)
(-0.00283486 0.000506561 1.18032e-13)
(-0.00117369 0.000360977 -3.96452e-14)
(-0.00420702 -0.00056034 -1.66195e-14)
(-0.0207246 0.00963519 -5.3173e-16)
(-0.00165506 -0.000323843 7.32823e-14)
(-0.000581837 0.00028391 8.46298e-14)
(-0.00367236 -0.000460501 3.84862e-14)
(-0.0176057 0.0101812 2.85637e-14)
(0.0228634 -0.00761083 -1.0184e-13)
(-0.00676651 0.00276592 -5.77975e-14)
(-0.00246903 -0.000581955 6.5076e-15)
(-0.0138976 0.00938013 -2.58436e-14)
(-0.0143591 0.00214264 6.94181e-14)
(-0.00372644 -0.00112537 5.85358e-14)
(-0.00327895 0.00256189 -3.50511e-14)
(-0.0103923 0.00731164 -2.77301e-14)
(-0.00941914 0.00551976 -8.23521e-14)
(0.0045229 -0.00186651 -1.57867e-14)
(-0.0120852 0.00584954 2.61655e-14)
(-0.00488423 0.00176134 -4.99959e-15)
(0.000945 -0.000773783 3.04292e-14)
(-0.000443449 -0.00121519 5.39703e-15)
(0.0053966 -0.0057659 -1.69097e-14)
(0.00515642 0.00386017 4.25592e-14)
(-5.11615e-06 0.000139541 -2.02337e-14)
(0.000528713 -0.000652716 2.06718e-14)
(0.000409375 -0.00356436 1.51109e-14)
(0.00108518 0.00755066 7.65093e-15)
(0.000122708 -1.23387e-05 5.9771e-14)
(-0.000589198 -5.51461e-05 3.47064e-14)
(-0.0035736 0.00272288 1.50388e-14)
(0.00102342 0.00441575 -3.55944e-14)
(1.52881e-05 3.98943e-05 -5.60547e-14)
(-0.000447227 -2.70174e-05 -4.43373e-14)
(-0.000926906 -0.000131083 3.17812e-15)
(0.00108179 0.00306127 1.54154e-15)
(-3.04957e-05 3.94085e-05 4.06997e-14)
(-0.000464491 3.24324e-05 5.33807e-14)
(-0.00117641 0.000526728 -3.67085e-14)
(0.000826102 0.00279932 2.00115e-15)
(-6.54824e-05 5.06098e-05 3.92948e-15)
(-0.000463721 7.39576e-05 -6.59998e-14)
(-0.000894694 0.000490254 2.42852e-14)
(0.000819055 0.00233995 1.063e-15)
(-8.50979e-05 6.21643e-05 -6.65107e-14)
(-0.000441772 9.95997e-05 2.3376e-14)
(-0.000697905 0.000520648 -1.72109e-15)
(0.000798487 0.00199024 9.70135e-15)
(-9.53468e-05 7.76888e-05 1.19833e-14)
(-0.00041451 0.000129537 6.26862e-15)
(-0.000548628 0.000540832 -1.69638e-14)
(0.000752952 0.00168723 -6.57504e-15)
(-0.000102207 9.32274e-05 1.63919e-14)
(-0.000379026 0.00015631 -5.47978e-15)
(-0.000416857 0.000548097 4.63663e-15)
(0.000698094 0.00142864 7.86098e-15)
(-0.00010429 0.000107615 9.12056e-15)
(-0.00033996 0.000179599 -2.65003e-14)
(-0.000307512 0.000545675 2.60767e-14)
(0.000638493 0.00120431 -6.30455e-15)
(-0.000105734 0.000120477 -7.04785e-15)
(-0.000299288 0.00019783 7.41985e-15)
(-0.000213705 0.000533742 2.22068e-15)
(0.000580829 0.00101151 -4.58375e-15)
(-0.000103109 0.000132287 -1.26024e-14)
(-0.000258891 0.000211412 -4.93424e-15)
(-0.000138591 0.000512385 -1.86645e-14)
(0.00052626 0.000845735 -2.96285e-15)
(-0.00010046 0.000142731 -1.59415e-14)
(-0.000220359 0.000220161 -1.05187e-14)
(-7.58882e-05 0.000484831 4.47035e-15)
(0.000474884 0.000705458 3.08255e-15)
(-9.43555e-05 0.000151431 3.96841e-14)
(-0.000183779 0.000225601 2.06254e-14)
(-2.78976e-05 0.000454005 -1.04228e-14)
(0.000427001 0.000586828 -6.60995e-16)
(-8.88827e-05 0.000158434 -9.38222e-15)
(-0.000150513 0.000227298 -2.36001e-15)
(1.12437e-05 0.000421266 6.0161e-15)
(0.000382558 0.000488612 2.02941e-15)
(-8.07774e-05 0.000163065 -1.58347e-14)
(-0.000119691 0.000227068 -6.53384e-15)
(3.8961e-05 0.000388134 -1.41015e-14)
(0.000341543 0.000406205 -2.54048e-15)
(-7.36679e-05 0.000165803 1.09341e-14)
(-9.29991e-05 0.00022339 -1.87188e-14)
(6.0248e-05 0.0003541 9.63738e-15)
(0.000304714 0.000340499 8.39692e-15)
(-6.47708e-05 0.000165885 -8.56774e-15)
(-6.90728e-05 0.000217882 2.79153e-14)
(7.35268e-05 0.000322453 2.35241e-14)
(0.000271559 0.00028649 -1.29425e-15)
(-5.71646e-05 0.000163783 -3.35906e-15)
(-4.91156e-05 0.000209766 1.2138e-14)
(8.28497e-05 0.000291385 -6.79402e-15)
(0.000241363 0.000243941 1.43692e-15)
(-4.87055e-05 0.00015796 8.39486e-15)
(-3.15006e-05 0.000201074 -2.55936e-14)
(8.67546e-05 0.000263086 -1.03705e-14)
(0.000213985 0.000208022 -4.82197e-15)
(-4.02124e-05 0.000153008 1.56399e-15)
(-1.71039e-05 0.000189282 1.4904e-14)
(8.81562e-05 0.000236036 5.0313e-15)
(0.000188983 0.000179521 -2.62776e-15)
(-3.23038e-05 0.000145007 -1.22345e-14)
(-5.18049e-06 0.000178328 -1.42128e-14)
(8.63188e-05 0.000211061 -1.5364e-14)
(0.000166493 0.000155108 -2.148e-15)
(-2.3916e-05 0.000139437 2.87533e-15)
(4.4877e-06 0.000165114 3.18501e-15)
(8.27806e-05 0.000187683 3.17362e-15)
(0.000146146 0.000135693 9.70918e-15)
(-1.78106e-05 0.000130177 2.95559e-15)
(1.08908e-05 0.000152605 1.41167e-15)
(7.79353e-05 0.000166382 -4.31646e-16)
(0.000128004 0.000118621 1.29273e-15)
(-3.11184e-05 0.000108139 -1.97104e-14)
(-1.11091e-05 0.00012241 -1.93897e-14)
(1.68903e-05 0.000139647 -6.15374e-15)
(7.20192e-05 0.000146945 -4.92813e-15)
(0.000111796 0.000104912 -9.69929e-15)
(-2.38651e-05 0.000102733 5.06123e-16)
(-6.2684e-06 0.000115152 7.17224e-15)
(1.9076e-05 0.000126462 3.05126e-15)
(6.59666e-05 0.0001296 9.99531e-15)
(9.74904e-05 9.26183e-05 8.02818e-15)
(-1.97161e-05 9.58627e-05 1.21922e-14)
(-2.62754e-06 0.000105259 -1.76859e-15)
(2.15103e-05 0.00011437 1.26577e-14)
(5.96508e-05 0.000114054 3.10565e-15)
(8.4834e-05 8.25418e-05 4.0437e-15)
(-1.46064e-05 8.79865e-05 -2.57709e-15)
(3.18909e-07 9.63937e-05 8.36212e-15)
(2.16009e-05 0.000102779 -1.09722e-14)
(5.35854e-05 0.000100297 -9.65511e-15)
(7.38003e-05 7.34228e-05 -1.02541e-14)
(-1.17498e-05 8.10311e-05 -6.76973e-15)
(2.72458e-06 8.75308e-05 -9.61809e-15)
(2.21274e-05 9.2036e-05 6.82867e-15)
(4.76653e-05 8.82473e-05 3.87738e-16)
(6.41896e-05 6.58974e-05 -8.13552e-15)
(-7.90377e-06 7.41145e-05 5.88257e-15)
(4.35103e-06 7.93328e-05 1.06237e-14)
(2.08424e-05 8.20967e-05 -5.77734e-15)
(4.23213e-05 7.76486e-05 -1.18706e-14)
(5.58514e-05 5.90322e-05 1.84193e-15)
(-6.2697e-06 6.76502e-05 4.73079e-15)
(5.50885e-06 7.14456e-05 8.08507e-15)
(2.03529e-05 7.305e-05 2.49884e-15)
(3.72851e-05 6.85185e-05 1.35837e-14)
(4.86448e-05 5.31984e-05 1.12741e-14)
(-3.71057e-06 6.09545e-05 -2.57358e-15)
(6.1994e-06 6.44416e-05 3.51225e-16)
(1.8437e-05 6.48692e-05 3.74442e-15)
(3.29301e-05 6.05028e-05 2.61127e-16)
(4.23765e-05 4.78524e-05 -9.84124e-17)
(-2.66117e-06 5.49827e-05 -2.1006e-15)
(6.60323e-06 5.71124e-05 -1.30006e-14)
(1.75231e-05 5.77386e-05 -1.04391e-14)
(2.88954e-05 5.36283e-05 -6.33848e-15)
(3.69722e-05 4.32449e-05 -1.92001e-15)
(-9.08007e-07 4.91198e-05 -5.32635e-15)
(6.96316e-06 5.16058e-05 -6.09507e-16)
(1.58237e-05 5.12894e-05 7.86428e-15)
(2.54197e-05 4.76193e-05 2.50866e-15)
(3.22411e-05 3.90267e-05 -6.70939e-15)
(5.88782e-08 4.49694e-05 1.45765e-14)
(7.24817e-06 4.60628e-05 8.57739e-15)
(1.46386e-05 4.57523e-05 -5.60723e-15)
(2.22476e-05 4.24153e-05 -9.32794e-16)
(2.81349e-05 3.53308e-05 5.34821e-15)
(1.2235e-06 4.04041e-05 3.09159e-15)
(6.87343e-06 4.15555e-05 -5.72135e-15)
(1.30734e-05 4.07258e-05 -6.92775e-15)
(1.94544e-05 3.77814e-05 -7.29546e-16)
(2.45097e-05 3.19271e-05 1.5437e-15)
(-3.41592e-06 3.54105e-05 -3.78294e-15)
(1.58764e-06 3.67003e-05 2.57784e-16)
(6.90914e-06 3.71699e-05 1.66664e-15)
(1.17844e-05 3.62861e-05 -3.9078e-15)
(1.69344e-05 3.37081e-05 -2.75813e-15)
(2.13586e-05 2.88947e-05 -1.06556e-15)
(-2.06931e-06 3.2172e-05 -5.49411e-15)
(2.24058e-06 3.32514e-05 -4.78829e-16)
(6.02798e-06 3.31931e-05 -2.67703e-15)
(1.03092e-05 3.22652e-05 1.37367e-15)
(1.47172e-05 3.00284e-05 7.65642e-15)
(1.85567e-05 2.60763e-05 -1.86012e-16)
(-1.46841e-06 2.898e-05 -4.3125e-15)
(1.90149e-06 2.95403e-05 -8.37706e-16)
(5.66933e-06 2.94655e-05 -4.39822e-15)
(9.17681e-06 2.86561e-05 6.74975e-15)
(1.27339e-05 2.67598e-05 -9.3213e-16)
(1.61487e-05 2.35569e-05 -2.95273e-15)
(-8.43948e-07 2.57079e-05 3.83209e-15)
(2.19919e-06 2.6259e-05 3.20935e-15)
(4.89189e-06 2.61844e-05 5.0028e-15)
(7.92972e-06 2.53961e-05 -3.17273e-16)
(1.1028e-05 2.38239e-05 -2.12917e-15)
(1.40055e-05 2.12396e-05 6.3783e-15)
(-5.96933e-07 2.28492e-05 -3.49102e-15)
(1.83588e-06 2.31304e-05 -2.69836e-15)
(4.51902e-06 2.31044e-05 -2.41894e-15)
(7.02719e-06 2.2498e-05 -2.57371e-15)
(9.53524e-06 2.12352e-05 7.96877e-15)
(1.21886e-05 1.91644e-05 -1.18809e-16)
(-2.79577e-07 2.02277e-05 -1.36027e-15)
(2.04269e-06 2.0511e-05 6.04795e-16)
(3.96009e-06 2.04751e-05 -3.90069e-15)
(6.08889e-06 1.99234e-05 1.55229e-15)
(8.26848e-06 1.89093e-05 -1.03102e-15)
(1.05558e-05 1.72778e-05 -5.31544e-15)
(-1.18608e-07 1.81775e-05 2.53369e-15)
(1.70394e-06 1.8181e-05 -1.21748e-15)
(3.6112e-06 1.80296e-05 1.44273e-15)
(5.40469e-06 1.76189e-05 4.04517e-16)
(7.16263e-06 1.68308e-05 -7.24595e-16)
(9.19699e-06 1.55862e-05 2.24736e-15)
(-1.765e-07 1.62482e-05 5.40616e-15)
(1.61029e-06 1.61094e-05 7.2442e-15)
(3.11361e-06 1.59195e-05 1.71377e-16)
(4.71542e-06 1.55287e-05 -1.12137e-15)
(6.25366e-06 1.49593e-05 -3.94141e-15)
(7.9588e-06 1.40456e-05 -1.80423e-15)
(-3.26906e-07 1.42877e-05 -1.00206e-15)
(1.10183e-06 1.41567e-05 -1.0394e-15)
(2.77319e-06 1.40133e-05 -2.22142e-16)
(4.24438e-06 1.37552e-05 5.71444e-16)
(5.49908e-06 1.3299e-05 3.77164e-15)
(7.00225e-06 1.26711e-05 3.55411e-15)
(-1.73524e-06 1.2551e-05 5.26509e-16)
(-4.94121e-07 1.25316e-05 2.38453e-15)
(1.0758e-06 1.2707e-05 2.19318e-15)
(2.58707e-06 1.25371e-05 -1.95191e-15)
(3.78291e-06 1.22194e-05 -1.52071e-15)
(4.85949e-06 1.18486e-05 -6.27469e-16)
(6.10445e-06 1.13859e-05 -2.49758e-15)
(-1.47653e-06 1.10887e-05 -1.97568e-15)
(-2.96159e-07 1.14805e-05 -7.87513e-17)
(9.742e-07 1.14518e-05 5.91045e-16)
(2.23223e-06 1.12071e-05 -3.25812e-15)
(3.32348e-06 1.0899e-05 -7.85786e-16)
(4.26654e-06 1.05081e-05 1.43119e-15)
(5.38343e-06 1.01723e-05 -6.14609e-16)
(-1.07027e-06 9.97319e-06 5.98295e-17)
(-2.14875e-07 1.01663e-05 1.78201e-16)
(7.12301e-07 1.02498e-05 -4.70595e-15)
(1.92753e-06 1.00071e-05 3.58628e-15)
(2.86785e-06 9.67158e-06 1.30018e-15)
(3.68636e-06 9.29498e-06 -2.44772e-15)
(4.69535e-06 9.03993e-06 3.88546e-15)
(-8.73167e-07 8.75573e-06 3.17929e-15)
(-1.80627e-07 8.95193e-06 1.56857e-15)
(6.61175e-07 9.06603e-06 6.76205e-16)
(1.54291e-06 8.86002e-06 -1.42895e-15)
(2.36978e-06 8.552e-06 -5.36101e-15)
(3.17291e-06 8.2321e-06 3.45824e-15)
(4.13853e-06 8.0409e-06 -5.07549e-16)
(-5.88464e-07 7.64918e-06 1.04153e-15)
(-6.57109e-08 7.87407e-06 2.15003e-16)
(4.3997e-07 7.98568e-06 -1.23472e-15)
(1.25698e-06 7.83068e-06 -4.72934e-16)
(2.0179e-06 7.63696e-06 -2.66621e-16)
(2.74442e-06 7.37766e-06 2.48605e-16)
(3.61028e-06 7.22515e-06 1.27748e-16)
(-4.19371e-07 6.76142e-06 -1.36053e-16)
(-2.03381e-08 6.88476e-06 1.1142e-15)
(4.43289e-07 7.05064e-06 1.0616e-15)
(1.07377e-06 6.99134e-06 7.57901e-16)
(1.72572e-06 6.85356e-06 -1.23198e-16)
(2.33889e-06 6.63172e-06 1.4956e-15)
(3.12974e-06 6.54939e-06 6.59426e-16)
(-2.56367e-07 5.92331e-06 -2.19077e-15)
(6.89108e-08 6.072e-06 -2.93148e-16)
(4.11778e-07 6.20047e-06 1.86391e-15)
(9.4316e-07 6.1637e-06 -9.8713e-16)
(1.44727e-06 6.07201e-06 -4.85205e-15)
(1.99327e-06 5.92174e-06 -5.82488e-17)
(2.68749e-06 5.8693e-06 7.55427e-16)
(-3.987e-07 5.00045e-06 -9.42022e-16)
(-1.35834e-07 5.10532e-06 -8.33244e-16)
(3.96955e-08 5.31888e-06 -3.75404e-16)
(4.34325e-07 5.32504e-06 4.39307e-16)
(7.89656e-07 5.35253e-06 -1.89488e-15)
(1.23902e-06 5.28516e-06 -6.34758e-16)
(1.66093e-06 5.18753e-06 2.87666e-16)
(2.2652e-06 5.1711e-06 -1.68532e-16)
(-2.73934e-07 4.29595e-06 5.58477e-16)
(-8.61069e-08 4.38928e-06 1.88143e-15)
(8.01411e-08 4.5549e-06 1.1529e-15)
(4.00337e-07 4.56532e-06 -2.97252e-15)
(7.0638e-07 4.606e-06 -1.58564e-15)
(1.03663e-06 4.57367e-06 1.09782e-15)
(1.38851e-06 4.50188e-06 4.98007e-16)
(1.95343e-06 4.56149e-06 -2.80239e-16)
(-1.97149e-07 3.65472e-06 1.2232e-15)
(-2.64097e-08 3.75375e-06 3.12105e-16)
(1.33946e-07 3.89904e-06 -1.59626e-15)
(3.97422e-07 3.92264e-06 1.13548e-15)
(6.29574e-07 3.96963e-06 1.23028e-15)
(9.00759e-07 3.95357e-06 -1.01586e-15)
(1.19387e-06 3.93113e-06 -1.08835e-15)
(1.6662e-06 4.00525e-06 -1.43832e-16)
(-8.4604e-08 3.10619e-06 -2.14932e-16)
(6.82936e-08 3.17324e-06 6.00606e-16)
(1.66106e-07 3.36392e-06 -7.16243e-16)
(4.1338e-07 3.36307e-06 2.276e-15)
(5.90453e-07 3.42157e-06 -1.97666e-15)
(8.00208e-07 3.4336e-06 -2.48293e-15)
(1.01982e-06 3.41541e-06 3.28714e-15)
(1.4111e-06 3.505e-06 3.49246e-16)
(-3.18872e-08 2.69195e-06 -9.87352e-16)
(1.42599e-07 2.7466e-06 -9.28727e-16)
(2.68773e-07 2.91442e-06 -1.95347e-16)
(4.33657e-07 2.90445e-06 2.23537e-16)
(5.79691e-07 2.97032e-06 8.72017e-16)
(7.19027e-07 2.97472e-06 7.91889e-16)
(8.56694e-07 2.95981e-06 -3.25111e-16)
(1.17745e-06 3.06683e-06 -7.14594e-16)
(6.74398e-08 2.39108e-06 1.04478e-15)
(2.26173e-07 2.45943e-06 -1.16523e-15)
(2.97651e-07 2.58773e-06 1.08291e-15)
(4.74896e-07 2.57129e-06 1.72151e-15)
(5.58911e-07 2.60764e-06 -1.06537e-15)
(6.13251e-07 2.59634e-06 1.44383e-16)
(7.2458e-07 2.60016e-06 1.42403e-15)
(9.9176e-07 2.70199e-06 -1.72767e-16)
(1.3419e-07 2.20438e-06 -1.03061e-15)
(2.68715e-07 2.25625e-06 1.05954e-16)
(3.64652e-07 2.34432e-06 3.59372e-16)
(4.61127e-07 2.31172e-06 -1.86536e-15)
(4.89894e-07 2.32356e-06 7.74842e-16)
(5.57e-07 2.32236e-06 1.6924e-15)
(6.26513e-07 2.32113e-06 -1.04774e-15)
(8.36698e-07 2.40464e-06 -5.94046e-16)
(1.61704e-08 1.97171e-06 5.56522e-16)
(1.92089e-07 1.95988e-06 3.61932e-16)
(2.31135e-07 2.12686e-06 6.44842e-16)
(3.57285e-07 2.03208e-06 -1.10245e-15)
(3.90545e-07 2.04113e-06 5.2071e-16)
(4.44051e-07 2.03961e-06 1.1002e-15)
(4.76757e-07 2.03539e-06 -2.15655e-15)
(5.35717e-07 2.04569e-06 -3.79948e-16)
(7.48222e-07 2.19464e-06 1.79402e-15)
(4.65009e-08 1.7647e-06 1.33327e-16)
(1.73444e-07 1.77042e-06 -1.08539e-16)
(2.17898e-07 1.85156e-06 6.60707e-16)
(3.13942e-07 1.78695e-06 8.97306e-16)
(3.55061e-07 1.80749e-06 -9.21413e-16)
(3.92602e-07 1.81105e-06 -8.56222e-16)
(4.38259e-07 1.80522e-06 4.83293e-16)
(4.97649e-07 1.83471e-06 1.54897e-15)
(6.62553e-07 1.97355e-06 -2.14006e-15)
(6.27229e-08 1.54265e-06 -2.57376e-16)
(1.78927e-07 1.52277e-06 -4.27567e-16)
(1.95782e-07 1.61728e-06 -1.51641e-15)
(2.8907e-07 1.56078e-06 -5.20009e-16)
(3.21452e-07 1.58781e-06 1.58963e-16)
(3.62303e-07 1.58876e-06 2.31971e-16)
(3.99149e-07 1.59225e-06 -2.9438e-16)
(4.29903e-07 1.59743e-06 9.6634e-16)
(5.79611e-07 1.73378e-06 2.32826e-15)
(5.36401e-08 1.3413e-06 8.98998e-16)
(1.69578e-07 1.3079e-06 -1.22801e-15)
(1.91723e-07 1.40047e-06 9.97351e-17)
(2.69543e-07 1.34414e-06 2.44982e-15)
(2.95132e-07 1.36983e-06 -1.2335e-15)
(3.26024e-07 1.37324e-06 3.07784e-16)
(3.45451e-07 1.36525e-06 -6.3106e-16)
(3.59276e-07 1.37174e-06 1.52895e-16)
(4.89928e-07 1.49862e-06 7.00609e-16)
(3.70745e-08 1.17459e-06 -4.90291e-17)
(1.58454e-07 1.1265e-06 7.01139e-16)
(1.70356e-07 1.21899e-06 4.34095e-16)
(2.46247e-07 1.1553e-06 -1.78028e-15)
(2.68893e-07 1.1747e-06 1.2911e-15)
(2.85772e-07 1.17229e-06 1.91716e-15)
(2.94659e-07 1.16574e-06 -3.08796e-15)
(2.97104e-07 1.17051e-06 -4.89166e-16)
(4.0852e-07 1.29749e-06 1.14767e-15)
(3.54827e-09 1.03555e-06 2.36387e-16)
(1.31688e-07 9.91468e-07 3.93653e-16)
(1.55738e-07 1.08237e-06 -2.84328e-16)
(2.18841e-07 1.01953e-06 -7.30792e-16)
(2.36485e-07 1.03277e-06 6.82149e-16)
(2.51986e-07 1.02692e-06 1.19007e-15)
(2.55085e-07 1.01964e-06 -1.70864e-16)
(2.43376e-07 1.02751e-06 -1.14179e-15)
(3.2712e-07 1.1635e-06 4.61155e-16)
(-9.61853e-10 9.35789e-07 -5.18653e-16)
(1.31282e-07 8.80581e-07 -1.9122e-16)
(1.28254e-07 1.00721e-06 6.00469e-16)
(2.01567e-07 9.2949e-07 8.63568e-16)
(2.12942e-07 9.42504e-07 -6.36463e-18)
(2.22617e-07 9.32712e-07 -3.38267e-17)
(2.2213e-07 9.23589e-07 -3.78386e-16)
(2.07003e-07 9.32304e-07 7.09022e-17)
(2.85017e-07 1.07231e-06 -1.08981e-16)
(-3.13465e-08 9.40541e-07 2.78213e-16)
(1.37609e-07 8.68684e-07 2.64152e-16)
(1.3814e-07 9.89576e-07 6.16539e-16)
(1.74409e-07 9.06047e-07 -1.08046e-16)
(1.83144e-07 9.1147e-07 -5.41492e-16)
(1.93453e-07 8.95152e-07 1.17602e-16)
(1.9357e-07 8.82753e-07 -3.56964e-16)
(1.69269e-07 8.91127e-07 -5.41394e-16)
(2.30573e-07 1.03151e-06 8.30238e-16)
(-4.37493e-08 9.5925e-07 -1.21448e-15)
(1.11575e-07 8.93478e-07 -6.19575e-16)
(8.82314e-08 9.81913e-07 2.60059e-16)
(1.33443e-07 8.9293e-07 4.19369e-16)
(1.42887e-07 8.89485e-07 1.67543e-15)
(1.56255e-07 8.66632e-07 -4.30974e-16)
(1.57464e-07 8.49689e-07 -1.90535e-15)
(1.35221e-07 8.55804e-07 4.09591e-17)
(1.90472e-07 9.8169e-07 1.22756e-15)
(-6.93989e-08 9.64958e-07 -1.68431e-16)
(-3.56232e-08 9.43225e-07 -3.89375e-16)
(2.18405e-08 1.09301e-06 1.08123e-16)
(4.98103e-08 9.80573e-07 -6.00878e-16)
(6.96196e-08 9.83269e-07 8.88666e-17)
(8.8294e-08 9.57408e-07 3.67238e-16)
(1.05093e-07 9.32641e-07 -1.35318e-15)
(1.11396e-07 9.10504e-07 6.93583e-16)
(8.14973e-08 9.12804e-07 1.16813e-15)
(1.11825e-07 1.03171e-06 1.09955e-16)
(-4.56423e-08 9.9672e-07 2.82653e-16)
(-4.69457e-08 9.78888e-07 -1.23913e-16)
(1.86796e-08 1.11713e-06 -6.96389e-17)
(1.59757e-08 1.02494e-06 1.5406e-16)
(3.03301e-08 1.0335e-06 4.99819e-16)
(4.68841e-08 1.00912e-06 9.74527e-18)
(6.13354e-08 9.83611e-07 -7.42977e-17)
(6.49452e-08 9.58751e-07 3.37758e-16)
(3.39464e-08 9.62725e-07 6.09362e-17)
(4.40948e-08 1.12301e-06 -5.45591e-16)
(-5.40199e-08 8.84499e-07 1.4332e-17)
(-7.85902e-08 8.14963e-07 3.06157e-16)
(-2.81074e-10 1.07408e-06 5.72173e-16)
(-2.57634e-08 9.64847e-07 -1.43785e-15)
(-1.80971e-08 9.90598e-07 2.64091e-16)
(-1.22563e-08 9.77896e-07 2.48938e-15)
(-5.53654e-09 9.66018e-07 -2.66416e-15)
(-6.16635e-09 9.55275e-07 -7.81144e-16)
(-2.73519e-08 9.8097e-07 1.89202e-15)
(-2.25449e-08 1.16669e-06 -7.50624e-16)
(-0.0313208 -0.0242202 -5.98705e-14)
(0.0297136 -0.0325643 -1.63591e-14)
(0.0461025 -0.0185076 2.72091e-14)
(0.0326413 -0.0120272 -1.54366e-14)
(0.0247327 -0.008753 2.45638e-14)
(0.0211679 -0.00664444 -7.79232e-15)
(0.0180807 -0.00494572 -5.75057e-15)
(0.0155076 -0.00353395 -1.74077e-14)
(0.0122253 -0.0016893 1.2437e-14)
(0.00241353 -0.000926726 1.77287e-14)
(0.00244461 -0.00115993 -7.50409e-15)
(0.00264602 -0.000716749 -1.68132e-14)
(0.00220275 -0.000322126 1.75009e-14)
(0.00194716 -0.000154283 -1.71669e-14)
(0.00166083 -4.03889e-05 1.55482e-14)
(0.0013999 2.99096e-05 -3.35763e-15)
(0.00118302 7.75581e-05 1.46517e-15)
(0.000994881 0.000108803 -5.20735e-15)
(0.000837098 0.000126021 -6.52736e-15)
(0.000702817 0.000134868 1.51621e-15)
(0.000590927 0.000136347 3.74368e-15)
(0.000495853 0.000133793 -3.62526e-16)
(0.000417436 0.000127563 1.15425e-15)
(0.00035086 0.000120011 -1.2674e-15)
(0.000297071 0.000111898 3.45615e-15)
(0.000252538 0.000104976 -3.87006e-15)
(0.000216923 9.90418e-05 1.64565e-15)
(0.000186024 9.33503e-05 -3.60107e-15)
(0.000160741 8.77369e-05 4.44559e-15)
(0.000138573 8.21204e-05 -7.23757e-15)
(0.000120444 7.69546e-05 1.39577e-14)
(0.0001043 7.16791e-05 -6.13977e-15)
(9.10746e-05 6.70428e-05 1.98206e-15)
(7.91461e-05 6.22855e-05 6.70154e-16)
(6.93254e-05 5.8145e-05 4.1265e-15)
(6.03926e-05 5.3969e-05 -2.09365e-15)
(5.30271e-05 5.03138e-05 -6.21595e-15)
(4.62862e-05 4.67102e-05 3.91948e-15)
(4.0673e-05 4.33893e-05 -2.62757e-16)
(3.55207e-05 4.02032e-05 7.41971e-16)
(3.12038e-05 3.71714e-05 3.82649e-15)
(2.72392e-05 3.43471e-05 3.0465e-15)
(2.3901e-05 3.1633e-05 -6.07414e-15)
(2.0828e-05 2.91471e-05 5.36776e-15)
(1.82374e-05 2.67538e-05 4.82789e-16)
(1.584e-05 2.45634e-05 -7.41929e-15)
(1.38311e-05 2.24597e-05 4.1819e-15)
(1.1973e-05 2.05405e-05 -1.2808e-15)
(1.04274e-05 1.87177e-05 9.43568e-16)
(9.00108e-06 1.70658e-05 -1.81597e-15)
(7.81361e-06 1.55265e-05 -3.48368e-15)
(6.71016e-06 1.41166e-05 2.4166e-15)
(5.78899e-06 1.28668e-05 4.72565e-17)
(4.97109e-06 1.17243e-05 2.57525e-15)
(4.28692e-06 1.06407e-05 -3.94598e-15)
(3.7099e-06 9.59391e-06 -2.18955e-15)
(3.24611e-06 8.5534e-06 1.60619e-15)
(2.85979e-06 7.62425e-06 -5.17205e-15)
(2.51675e-06 6.81923e-06 -1.25226e-15)
(2.18796e-06 6.16937e-06 -3.37043e-15)
(1.84215e-06 5.53622e-06 1.70979e-15)
(1.57693e-06 4.91659e-06 -1.62624e-15)
(1.34388e-06 4.33877e-06 3.26228e-15)
(1.14105e-06 3.82429e-06 5.53056e-16)
(9.53265e-07 3.34472e-06 1.46337e-15)
(7.86724e-07 2.92789e-06 -1.41036e-15)
(6.46688e-07 2.61433e-06 1.71674e-15)
(5.39007e-07 2.32173e-06 1.4192e-15)
(4.88751e-07 2.15522e-06 -2.03759e-15)
(4.68871e-07 1.93823e-06 1.60393e-15)
(4.40732e-07 1.69457e-06 -2.49077e-15)
(4.10729e-07 1.46464e-06 -4.35045e-15)
(3.76768e-07 1.2665e-06 1.72319e-16)
(3.23503e-07 1.15398e-06 -6.5852e-16)
(3.29297e-07 1.06446e-06 -9.67795e-16)
(2.94638e-07 1.00745e-06 8.71799e-16)
(2.90674e-07 9.09802e-07 -1.1572e-15)
(1.96791e-07 9.47783e-07 -3.82741e-16)
(1.06266e-07 1.03494e-06 -2.52916e-16)
(-1.14279e-08 1.03184e-06 4.6862e-16)
(0.0804079 -0.00842911 1.85701e-14)
(-0.0395845 0.00474665 4.29946e-15)
(-0.00578406 -0.00092789 -5.81934e-15)
(-0.00328141 -0.00233026 2.64659e-15)
(-0.000922911 -0.00296028 -4.28791e-15)
(0.000270841 -0.00321316 1.07082e-15)
(0.000993538 -0.00330003 6.67208e-16)
(0.00171147 -0.00322741 3.01927e-15)
(0.00160524 -0.00320266 -1.79469e-15)
(0.00189227 -0.00321136 -2.39075e-15)
(0.00172686 -0.00253499 1.42523e-15)
(0.00108005 -0.00217693 2.92452e-15)
(0.00113481 -0.00183531 -2.81088e-15)
(0.0011564 -0.00153713 3.13587e-15)
(0.00106018 -0.00127347 -3.00083e-15)
(0.000944849 -0.00105266 8.0826e-16)
(0.000867997 -0.000858968 -3.12452e-16)
(0.000782493 -0.000686324 7.07012e-16)
(0.000704891 -0.000537502 1.09043e-15)
(0.000632283 -0.000411033 -1.60465e-16)
(0.000564315 -0.000305335 -1.63571e-16)
(0.000501223 -0.000218451 -2.6392e-16)
(0.000443077 -0.000148122 1.53553e-16)
(0.000390453 -9.18354e-05 -1.5887e-16)
(0.000341626 -4.7786e-05 -7.62409e-17)
(0.00029568 -1.40107e-05 1.90941e-16)
(0.000253647 1.05848e-05 -1.72548e-16)
(0.00021784 2.82207e-05 6.52175e-16)
(0.000186647 4.0121e-05 -3.2501e-16)
(0.000160281 4.77071e-05 1.4492e-15)
(0.000137313 5.20037e-05 -1.87728e-15)
(0.00011801 5.38525e-05 7.71568e-16)
(0.000101208 5.40704e-05 -3.52688e-16)
(8.7081e-05 5.29279e-05 3.26101e-16)
(7.48195e-05 5.11725e-05 -1.40603e-15)
(6.44478e-05 4.87823e-05 1.57095e-16)
(5.54653e-05 4.61972e-05 1.34699e-15)
(4.77676e-05 4.34095e-05 -4.78543e-17)
(4.11312e-05 4.06327e-05 1.88526e-16)
(3.53744e-05 3.78466e-05 -1.17531e-15)
(3.0435e-05 3.51292e-05 -1.72214e-16)
(2.61166e-05 3.25257e-05 7.30211e-16)
(2.24222e-05 3.00038e-05 6.85827e-16)
(1.91728e-05 2.76278e-05 -1.53319e-15)
(1.64022e-05 2.53398e-05 2.46042e-16)
(1.39575e-05 2.3211e-05 1.61505e-15)
(1.18828e-05 2.11717e-05 -1.32354e-15)
(1.00523e-05 1.92887e-05 9.19107e-16)
(8.51744e-06 1.75266e-05 -7.35857e-16)
(7.15137e-06 1.58988e-05 -1.78357e-16)
(6.02025e-06 1.43858e-05 1.20735e-15)
(4.98369e-06 1.30058e-05 -2.58735e-15)
(4.15305e-06 1.17786e-05 -2.34136e-16)
(3.32982e-06 1.07047e-05 -5.25143e-16)
(2.70505e-06 9.68214e-06 2.11039e-15)
(2.1023e-06 8.73582e-06 7.36534e-16)
(1.70908e-06 7.78606e-06 -1.58831e-16)
(1.38339e-06 6.90508e-06 1.24679e-15)
(1.17051e-06 6.11411e-06 1.2894e-16)
(9.72211e-07 5.4358e-06 3.66483e-16)
(7.44935e-07 4.83384e-06 1.8465e-15)
(5.64914e-07 4.25428e-06 2.80621e-16)
(4.18686e-07 3.73034e-06 -2.6933e-15)
(3.16622e-07 3.2403e-06 -5.02221e-16)
(2.22677e-07 2.79999e-06 2.91819e-15)
(1.51239e-07 2.41761e-06 -8.10177e-16)
(1.02856e-07 2.1245e-06 -2.49366e-16)
(7.43688e-08 1.96251e-06 -2.4651e-16)
(6.53422e-08 1.76332e-06 2.31231e-16)
(8.75669e-08 1.53918e-06 2.39668e-15)
(8.87705e-08 1.30852e-06 1.01818e-15)
(1.07513e-07 1.09054e-06 3.80047e-16)
(1.31226e-07 9.04861e-07 -6.66455e-16)
(1.05719e-07 8.10469e-07 8.45607e-16)
(1.49299e-07 7.22278e-07 6.25752e-16)
(1.58412e-07 6.55124e-07 -3.25583e-17)
(1.78726e-07 5.55406e-07 -1.99362e-16)
(1.37765e-07 5.65843e-07 -3.09696e-16)
(6.21243e-08 5.72232e-07 4.28201e-16)
(-0.00224293 -0.000371291 2.67417e-16)
(-0.00508045 -0.000536366 4.7979e-17)
(-0.00103275 -0.000719094 -2.31195e-16)
(-0.000337184 -0.000593984 9.14044e-17)
(0.000188773 -0.000516715 2.52575e-16)
(0.000454996 -0.000482609 7.8156e-18)
(0.000519755 -0.000485547 1.78172e-17)
(0.000525089 -0.000500884 7.57376e-17)
(0.000350901 -0.000504744 3.72745e-16)
(0.000104123 -0.000433362 3.44205e-16)
(-3.76961e-05 -0.000383336 -2.29362e-16)
(-0.000378786 -0.000422527 3.95283e-16)
(-0.00034264 -0.000455629 4.3579e-17)
(-0.000115187 -0.000471794 -2.6663e-18)
(-4.00336e-05 -0.000457186 -3.06272e-16)
(-2.25438e-05 -0.000448807 2.45178e-16)
(7.77619e-05 -0.000448509 3.26768e-16)
(0.000112656 -0.000426987 -1.40846e-16)
(0.000146602 -0.000398167 -4.84452e-16)
(0.000170265 -0.000364467 3.20453e-17)
(0.000185796 -0.000327698 -8.8199e-18)
(0.000193662 -0.000290181 1.69188e-17)
(0.000195865 -0.000252417 -1.44327e-16)
(0.00019315 -0.000215958 3.12975e-16)
(0.00018762 -0.000180949 -1.67373e-16)
(0.00018031 -0.000147887 -8.38842e-17)
(0.000171307 -0.000117692 -1.88947e-16)
(0.000160216 -9.10729e-05 4.96064e-17)
(0.000148094 -6.79092e-05 -6.69458e-18)
(0.000135417 -4.81685e-05 -4.74013e-17)
(0.000122804 -3.16427e-05 2.86934e-17)
(0.000110555 -1.81583e-05 -9.27361e-17)
(9.89384e-05 -7.30376e-06 2.64651e-16)
(8.81323e-05 1.1636e-06 -2.35249e-18)
(7.81882e-05 7.66936e-06 -1.82751e-16)
(6.91665e-05 1.24657e-05 -1.17691e-16)
(6.1026e-05 1.59754e-05 7.08662e-17)
(5.375e-05 1.83356e-05 1.59873e-16)
(4.72597e-05 1.98409e-05 -2.91967e-17)
(4.15041e-05 2.06428e-05 -3.12305e-16)
(3.64045e-05 2.09164e-05 2.8751e-16)
(3.18971e-05 2.07869e-05 -1.43798e-15)
(2.79093e-05 2.03368e-05 5.8632e-17)
(2.43954e-05 1.96802e-05 -5.82171e-16)
(2.12841e-05 1.88384e-05 -1.93721e-17)
(1.85513e-05 1.78927e-05 9.48455e-16)
(1.61305e-05 1.68665e-05 1.00414e-15)
(1.40149e-05 1.5819e-05 1.86099e-16)
(1.2145e-05 1.47452e-05 -2.23615e-16)
(1.0514e-05 1.36952e-05 -8.72679e-17)
(9.07978e-06 1.26526e-05 -4.91664e-16)
(7.82181e-06 1.1655e-05 -2.50413e-17)
(6.70204e-06 1.07213e-05 -5.107e-16)
(5.68929e-06 9.86557e-06 9.64033e-16)
(4.74436e-06 9.09184e-06 4.67892e-16)
(3.93669e-06 8.33979e-06 1.00892e-15)
(3.22626e-06 7.63708e-06 -2.40979e-16)
(2.69744e-06 6.93112e-06 3.02527e-16)
(2.28071e-06 6.27415e-06 1.00363e-16)
(1.93506e-06 5.63982e-06 1.61418e-16)
(1.61452e-06 5.04613e-06 -2.57147e-15)
(1.32447e-06 4.50937e-06 1.16241e-15)
(1.0851e-06 4.00453e-06 5.65201e-16)
(8.78171e-07 3.53036e-06 1.09684e-15)
(7.14002e-07 3.0777e-06 -1.54284e-15)
(5.94777e-07 2.68474e-06 -2.74728e-17)
(4.88214e-07 2.3786e-06 -2.07296e-16)
(4.04223e-07 2.15491e-06 -9.75091e-17)
(3.50627e-07 1.98056e-06 8.46582e-19)
(2.91914e-07 1.76729e-06 -3.06954e-15)
(2.60784e-07 1.5254e-06 -2.58207e-15)
(2.45084e-07 1.30498e-06 2.5979e-16)
(2.42256e-07 1.08897e-06 1.52522e-15)
(1.85537e-07 9.88815e-07 -1.81492e-16)
(2.09859e-07 9.16717e-07 7.56046e-16)
(2.24907e-07 8.60489e-07 -1.61783e-15)
(2.38515e-07 7.97011e-07 5.7219e-16)
(2.10473e-07 8.40238e-07 6.99687e-17)
(0.00164681 -0.000704739 -4.87521e-17)
(-0.00157066 -0.000369886 -4.75664e-18)
(-0.000635313 -0.000461105 1.55655e-16)
(-0.000403592 -0.000429401 1.17034e-16)
(-7.30449e-05 -0.000402381 -6.21265e-18)
(0.00018042 -0.000369113 -1.97915e-17)
(0.000348851 -0.000343778 7.60831e-18)
(0.000473865 -0.000329398 -1.06446e-17)
(0.000503244 -0.000328861 -8.31479e-17)
(0.000327094 -0.000345506 -1.797e-16)
(0.000304071 -0.000314039 1.86233e-16)
(0.000106273 -0.000293684 -4.40847e-17)
(-6.87891e-05 -0.000294954 -2.8423e-16)
(-8.55278e-05 -0.000289438 5.19774e-17)
(-1.16799e-05 -0.000203969 -2.05613e-17)
(-4.4267e-06 -0.000243914 3.56623e-16)
(3.57494e-05 -0.000255573 1.20077e-16)
(3.64569e-05 -0.000250312 -1.57337e-16)
(4.973e-05 -0.000242361 -1.78578e-16)
(6.28861e-05 -0.000230423 -3.56019e-18)
(7.56766e-05 -0.000216039 -1.53103e-16)
(8.63752e-05 -0.000200557 2.30575e-16)
(9.49893e-05 -0.000183741 -1.11883e-17)
(0.000101267 -0.000166609 3.22166e-16)
(0.000105378 -0.000149138 -3.28722e-16)
(0.000107074 -0.00013185 -3.71672e-17)
(0.000106927 -0.00011459 7.9619e-17)
(0.000105164 -9.78685e-05 -1.22475e-16)
(0.000102147 -8.18368e-05 4.78971e-17)
(9.7973e-05 -6.70471e-05 -5.62352e-19)
(9.29879e-05 -5.34338e-05 4.06965e-17)
(8.73452e-05 -4.12934e-05 -2.36148e-18)
(8.13416e-05 -3.04989e-05 -6.5245e-17)
(7.51143e-05 -2.12361e-05 6.17294e-19)
(6.88859e-05 -1.32628e-05 -8.15712e-17)
(6.27564e-05 -6.67716e-06 2.90764e-16)
(5.68643e-05 -1.24412e-06 -2.51e-16)
(5.12581e-05 3.06951e-06 -3.9647e-18)
(4.6016e-05 6.46191e-06 2.02293e-16)
(4.11449e-05 9.00474e-06 7.64949e-16)
(3.6676e-05 1.08584e-05 2.64401e-16)
(3.25904e-05 1.21255e-05 1.63829e-15)
(2.88847e-05 1.29034e-05 -1.05084e-16)
(2.5533e-05 1.33024e-05 -2.21266e-16)
(2.25136e-05 1.33795e-05 -1.33121e-16)
(1.98069e-05 1.32356e-05 -1.75665e-16)
(1.73795e-05 1.28872e-05 -1.3142e-15)
(1.52209e-05 1.2423e-05 2.86948e-16)
(1.32925e-05 1.18577e-05 -2.61564e-16)
(1.15911e-05 1.12321e-05 -6.54256e-17)
(1.00748e-05 1.05554e-05 2.77085e-16)
(8.74884e-06 9.84076e-06 2.82147e-16)
(7.55538e-06 9.15063e-06 3.23187e-16)
(6.48052e-06 8.46533e-06 6.33925e-16)
(5.49232e-06 7.8484e-06 1.7119e-16)
(4.58985e-06 7.28891e-06 -9.73673e-16)
(3.79876e-06 6.74792e-06 2.09942e-16)
(3.11941e-06 6.24673e-06 1.18566e-15)
(2.58785e-06 5.71373e-06 2.58615e-16)
(2.14242e-06 5.19415e-06 -2.37095e-16)