/*--------------------------------*- C++ -*----------------------------------*\
| =========                 |                                                 |
| \\      /  F ield         | OpenFOAM: The Open Source CFD Toolbox           |
|  \\    /   O peration     | Version:  2506                                  |
|   \\  /    A nd           | Website:  www.openfoam.com                      |
|    \\/     M anipulation  |                                                 |
\*---------------------------------------------------------------------------*/
FoamFile
{
    version     2.0;
    format      ascii;
    arch        "LSB;label=32;scalar=64";
    class       surfaceScalarField;
    location    "500";
    object      phi;
}
// * * * * * * * * * * * * * * * * * * * * * * * * * * * * * * * * * * * * * //

dimensions      [0 3 -1 0 0 0 0];

oriented        oriented;

internalField   nonuniform List<scalar> 
2577
(
0.113963
0.0126206
0.0954368
0.0185281
0.0671598
0.0282764
0.0662126
0.000948861
0.152941
0.0278135
0.133146
0.0383243
0.0994057
0.0620185
0.071415
0.0289423
0.192033
0.0490074
0.167138
0.0632207
0.12959
0.0995647
0.0870819
0.0714509
0.237206
0.0777737
0.205659
0.094769
0.162909
0.142316
0.112313
0.12205
0.287369
0.111702
0.249255
0.132884
0.200616
0.190954
0.144216
0.178449
0.333409
0.138937
0.29502
0.171275
0.242431
0.243543
0.181244
0.239638
0.361789
0.153075
0.334141
0.198924
0.285311
0.292371
0.22209
0.302859
0.374773
0.163333
0.35923
0.214468
0.322941
0.328662
0.263925
0.361876
0.387022
0.17775
0.374551
0.226939
0.351084
0.352127
0.301993
0.410967
0.405666
0.195947
0.38952
0.243086
0.371661
0.369987
0.332316
0.450313
0.428826
0.215103
0.408658
0.263254
0.390189
0.388454
0.355324
0.485178
0.453385
0.234089
0.431403
0.285237
0.410409
0.409448
0.376007
0.519581
0.478303
0.253177
0.455983
0.307557
0.433185
0.432244
0.398459
0.554308
0.503995
0.272829
0.481467
0.330086
0.457922
0.455789
0.423439
0.588792
0.530946
0.293226
0.507979
0.353053
0.484038
0.479727
0.450413
0.622417
0.559448
0.314311
0.53579
0.376712
0.511431
0.504087
0.478837
0.655011
0.589504
0.336065
0.56517
0.401046
0.540271
0.528983
0.508575
0.686707
0.621199
0.358373
0.59622
0.426025
0.570679
0.554524
0.539758
0.71763
0.654548
0.381248
0.628999
0.451575
0.602854
0.580667
0.572572
0.747912
0.689654
0.404657
0.663583
0.477646
0.636872
0.607378
0.60714
0.777645
0.7266
0.428549
0.700061
0.504185
0.67281
0.634627
0.64359
0.806865
0.76546
0.452906
0.738495
0.53115
0.710762
0.66236
0.681975
0.835652
0.806369
0.477634
0.779031
0.558489
0.750812
0.690577
0.722413
0.864051
0.849335
0.502833
0.821716
0.586108
0.793099
0.719194
0.765002
0.892149
0.894702
0.528185
0.866701
0.614109
0.837681
0.748212
0.809863
0.919967
0.942233
0.55394
0.914012
0.642329
0.884749
0.777475
0.8571
0.947616
0.992203
0.579747
0.963962
0.670571
0.934227
0.807209
0.906862
0.974982
1.04488
0.605679
1.01626
0.699189
0.986476
0.836994
0.959274
1.00218
1.10008
0.631808
1.0717
0.727568
1.04151
0.86718
1.01427
1.02942
1.15818
0.657926
1.12956
0.756193
1.09944
0.897301
1.07242
1.05644
1.21931
0.683819
1.19077
0.784734
1.16036
0.927709
1.13342
1.08338
1.28327
0.709847
1.25501
0.812985
1.22465
0.958077
1.19754
1.11049
1.35086
0.735384
1.3224
0.84145
1.29199
0.988482
1.26526
1.13722
1.44705
0.676016
1.4215
0.760934
1.39344
0.869515
1.36304
1.01888
1.33631
1.16395
1.5212
0.698363
1.49583
0.786303
1.46808
0.897269
1.43761
1.04934
1.41104
1.19053
1.59896
0.720646
1.57395
0.811305
1.54628
0.92494
1.51606
1.07956
1.48968
1.2169
1.6807
0.742551
1.6561
0.835902
1.62883
0.952214
1.59862
1.10977
1.57234
1.24319
1.76668
0.764058
1.74225
0.860335
1.71513
0.979332
1.68512
1.13978
1.65925
1.26905
1.85686
0.785293
1.83288
0.884309
1.80623
1.00598
1.7763
1.16971
1.75048
1.29488
1.95175
0.806248
1.92812
0.907944
1.90168
1.03242
1.872
1.19939
1.8464
1.32048
2.05134
0.827065
2.02819
0.931088
2.00212
1.0585
1.97244
1.22907
1.94721
1.34571
2.15641
0.847333
2.13347
0.954026
2.10762
1.08435
2.07825
1.25844
2.05332
1.37064
2.26666
0.867482
2.24392
0.976773
2.2186
1.10967
2.1891
1.28794
2.16461
1.39512
2.38274
0.887402
2.36034
0.999179
2.33522
1.13479
2.30604
1.31713
2.28162
1.41954
2.50477
0.907118
2.4828
1.02115
2.45764
1.15995
2.42862
1.34615
2.40469
1.44346
2.65308
0.828347
2.6334
0.926794
2.61129
1.04325
2.58673
1.18452
2.5576
1.37528
2.53404
1.46702
2.78828
0.846263
2.76874
0.946327
2.74688
1.06512
2.72221
1.20919
2.69307
1.40442
2.66989
1.49021
2.93087
0.864207
2.91116
0.966035
2.8895
1.08678
2.86497
1.23371
2.83581
1.43358
2.81286
1.51316
3.08083
0.882357
3.06132
0.985547
3.03955
1.10854
3.01497
1.2583
2.98591
1.46263
2.96304
1.53602
3.23921
0.900754
3.21929
1.00547
3.19752
1.13032
3.17314
1.28268
3.1436
1.49217
3.1212
1.55842
3.40586
0.919435
3.38591
1.02542
3.36406
1.15217
3.33929
1.30745
3.30975
1.52171
3.28742
1.58075
3.58152
0.938467
3.56137
1.04557
3.53927
1.17428
3.51447
1.33225
3.48436
1.55182
3.46234
1.60278
3.76688
0.957869
3.74633
1.06612
3.7238
1.19681
3.69876
1.35729
3.66846
1.58212
3.64642
1.62481
3.96228
0.977821
3.94112
1.08728
3.91852
1.21941
3.89296
1.38285
3.86211
1.61297
3.84005
1.64688
4.18849
0.901246
4.16806
0.998251
4.14658
1.10877
4.12342
1.24257
4.09752
1.40875
4.06597
1.64452
4.0441
1.66875
4.40637
0.921759
4.38516
1.01945
4.36324
1.1307
4.33938
1.26642
4.31296
1.43518
4.28078
1.6767
4.25866
1.69087
4.63594
0.943065
4.61404
1.04135
4.5914
1.15333
4.56702
1.29081
4.54006
1.46214
4.50704
1.70971
4.48476
1.71315
4.8781
0.965196
4.85547
1.06398
4.83206
1.17674
4.807
1.31586
4.77925
1.48989
4.74536
1.74361
4.72287
1.73564
5.13346
0.988203
5.11004
1.0874
5.08568
1.2011
5.06001
1.34154
5.03134
1.51856
4.9965
1.77844
4.97363
1.75851
5.40276
1.01239
5.37827
1.11189
5.35317
1.2262
5.32646
1.36824
5.29703
1.54799
5.26108
1.8144
5.23777
1.78182
5.68689
1.03741
5.6614
1.13737
5.63539
1.25221
5.60769
1.39594
5.57723
1.57844
5.53982
1.85181
5.51618
1.80547
6.01261
0.970585
5.98634
1.06368
5.9598
1.16391
5.93257
1.27944
5.90398
1.42453
5.87228
1.61015
5.83373
1.89036
5.80942
1.82977
6.32984
0.997663
6.30238
1.09114
6.27461
1.19168
6.24637
1.30767
6.21644
1.45447
6.18371
1.64288
6.14345
1.93061
6.11842
1.8548
6.66434
1.02619
6.63553
1.11996
6.60663
1.22057
6.57706
1.33725
6.54586
1.48566
6.51177
1.67697
6.47
1.97238
6.44432
1.88048
7.01768
1.05595
6.98759
1.15005
6.95659
1.25158
6.9255
1.36833
6.89326
1.5179
6.85748
1.71275
6.81425
2.0156
6.78763
1.9071
7.38914
1.08855
7.3576
1.18159
7.32693
1.28224
7.29418
1.40109
7.26003
1.55205
7.22252
1.75026
7.17725
2.06088
7.14937
1.93498
7.78313
1.12063
7.74959
1.21513
7.71569
1.31614
7.6824
1.43438
7.64645
1.588
7.60847
1.78825
7.56006
2.10929
7.5319
1.96314
5.72268
1.11169
5.7348
1.20301
5.75125
1.29968
5.77304
1.41259
5.79957
1.56147
5.8302
1.75762
5.86967
2.06982
5.90048
1.93233
6.27838
1.01956
6.28726
1.1028
6.30073
1.18955
6.31986
1.28055
6.34302
1.38943
6.37091
1.53358
6.40669
1.72184
6.44843
2.02808
6.48217
1.89859
6.89856
1.01558
6.9073
1.09406
6.92326
1.17358
6.94366
1.26015
6.96939
1.36369
7.00114
1.50184
7.03804
1.68493
7.08583
1.98029
7.12238
1.86204
7.57915
1.01071
7.59018
1.08303
7.60592
1.15785
7.62874
1.23732
7.65696
1.33548
7.69107
1.46772
7.73418
1.64182
7.78387
1.93061
7.82699
1.81892
8.32675
1.00635
8.33863
1.07115
8.35792
1.13856
8.38173
1.21351
8.41223
1.30498
8.45125
1.4287
8.49779
1.59527
8.55456
1.87384
8.59915
1.77433
9.14952
1.00148
9.16205
1.05862
9.18206
1.11855
9.20928
1.18629
9.24326
1.27101
9.28568
1.38628
9.33544
1.54551
9.3987
1.81058
9.44791
1.72511
10.0531
0.994799
10.0675
1.04423
10.0895
1.09658
10.12
1.15577
10.1586
1.23243
10.2042
1.34062
10.2598
1.48993
10.3289
1.74146
10.384
1.67001
11.0441
0.988133
11.06
1.02837
11.0836
1.07302
11.1158
1.12348
11.1575
1.19076
11.2088
1.28934
11.2708
1.42791
11.3448
1.66747
11.4054
1.60944
12.1421
0.981042
12.1584
1.01206
12.1864
1.04507
12.223
1.08684
12.2691
1.14469
12.3248
1.23365
12.3929
1.35974
12.4787
1.58168
12.5475
1.54062
13.3288
0.972444
13.3483
0.992572
13.3771
1.01623
13.4175
1.04645
13.4674
1.0948
13.5291
1.17191
13.6019
1.28697
13.6898
1.49375
13.7606
1.46982
14.6666
0.582853
14.6765
0.962572
14.6983
0.970702
14.7333
0.981224
14.7772
1.00259
14.8332
1.03879
14.9031
1.10206
14.9901
1.19998
15.0987
1.38514
15.1875
1.381
16.0638
0.531457
16.072
0.95434
16.0945
0.948235
16.128
0.947697
16.176
0.954632
16.2374
0.977397
16.3099
1.02955
16.3951
1.11474
16.4934
1.28681
16.5734
1.301
17.7797
17.798
17.8305
17.8776
17.9378
18.0118
18.1032
18.2166
18.3662
18.4859
0.0927543
0.136079
0.0455085
0.118659
0.0149908
0.117601
-0.00365113
0.130953
-0.014129
0.154695
-0.0188168
0.185931
-0.0194437
0.222718
-0.0184396
0.262921
-0.0193286
0.302883
-0.0245881
0.337576
-0.0328942
0.36363
-0.0408306
0.383944
-0.0467699
0.404398
-0.0506211
0.427291
-0.0525592
0.452351
-0.0527464
0.479025
-0.0513281
0.507157
-0.0484253
0.536855
-0.0441579
0.568305
-0.0386559
0.601639
-0.0320467
0.636981
-0.0244386
0.674367
-0.0159497
0.713924
-0.00667272
0.755725
0.00330753
0.799883
0.0139514
0.846456
0.0251927
0.895621
0.0369501
0.947516
0.0491535
1.00207
0.0617446
1.05983
0.074668
1.1205
0.0878733
1.18433
0.101316
1.25182
0.114949
1.32267
0.128724
1.39726
0.142593
1.47582
0.156509
1.55843
0.170417
1.64534
0.184267
1.73663
0.198005
1.83266
0.211574
1.93365
0.224944
2.03995
0.238045
2.15151
0.250837
2.26883
0.263277
2.39225
0.275328
2.52199
0.286955
2.65826
0.29813
2.80168
0.308827
2.95234
0.31903
3.111
0.328713
3.27774
0.337903
3.45315
0.346563
3.63776
0.354705
3.8319
0.362334
4.03647
0.369461
4.25153
0.376097
4.47812
0.382257
4.71671
0.387958
4.96793
0.393205
5.23252
0.398058
5.51133
0.402495
5.80498
0.406552
6.11437
0.410252
6.44062
0.413616
6.78427
0.416663
7.14632
0.419415
7.52914
0.421276
5.89862
0.423082
6.48037
0.424785
7.12068
0.426452
7.82532
0.427929
8.59768
0.429378
9.44646
0.430577
10.3828
0.431653
11.4043
0.432703
12.5465
0.432755
13.7606
0.434663
15.1856
0.431416
16.5767
0.147889
0.167144
0.110073
0.156473
0.0769065
0.150768
0.0534385
0.15442
0.0398161
0.168319
0.034574
0.191173
0.0362141
0.221078
0.0430535
0.256081
0.0523971
0.29354
0.0604305
0.329542
0.06441
0.359651
0.0653705
0.382983
0.0656072
0.404162
0.0657201
0.427178
0.0656057
0.452466
0.0653193
0.479312
0.0650401
0.507436
0.064956
0.536939
0.0652308
0.56803
0.0659948
0.600875
0.0673519
0.635624
0.069392
0.672327
0.0721696
0.711147
0.0757391
0.752155
0.0801123
0.79551
0.0852796
0.841289
0.0912247
0.889676
0.0979405
0.940801
0.105387
0.994624
0.113539
1.05167
0.122342
1.1117
0.131742
1.17493
0.141685
1.24188
0.152111
1.31225
0.162958
1.38641
0.174172
1.4646
0.185671
1.54693
0.19741
1.6336
0.209319
1.72472
0.221344
1.82064
0.233409
1.92158
0.24545
2.02791
0.257425
2.13954
0.269268
2.25698
0.280926
2.38059
0.292348
2.51057
0.303487
2.64712
0.314302
2.79087
0.324757
2.94189
0.334819
3.10094
0.344475
3.26808
0.35367
3.44395
0.362423
3.62901
0.370713
3.82361
0.378535
4.02864
0.385888
4.24418
0.392777
4.47124
0.399208
4.71028
0.405192
4.96195
0.410753
5.22696
0.415881
5.5062
0.42059
5.80028
0.424925
6.11003
0.428894
6.43665
0.432515
6.78065
0.435807
7.14303
0.43879
7.52616
0.440813
5.8966
0.442783
6.4784
0.444676
7.11879
0.446475
7.82352
0.448135
8.59602
0.449709
9.44489
0.451049
10.3815
0.452278
11.4031
0.453443
12.5453
0.453621
13.7604
0.455634
15.1836
0.19172
0.185196
0.166762
0.18143
0.139856
0.177674
0.11662
0.177655
0.100529
0.18441
0.0923993
0.199301
0.0914415
0.222036
0.0961581
0.251364
0.10437
0.285328
0.112779
0.321132
0.117667
0.354764
0.118093
0.382557
0.11696
0.405295
0.116618
0.42752
0.117164
0.45192
0.118078
0.478398
0.119186
0.506328
0.120512
0.535614
0.122076
0.566466
0.123901
0.599049
0.125996
0.63353
0.128368
0.669955
0.13106
0.708455
0.134093
0.749122
0.137522
0.792081
0.141369
0.837443
0.145689
0.885356
0.150496
0.935993
0.155837
0.989284
0.161713
1.0458
0.168149
1.10526
0.175138
1.16794
0.182676
1.23434
0.190732
1.30419
0.199281
1.37787
0.20828
1.4556
0.217699
1.53751
0.227483
1.62382
0.237578
1.71462
0.247928
1.81029
0.258476
1.91103
0.269169
2.01721
0.279933
2.12878
0.290705
2.24621
0.301447
2.36985
0.312103
2.49991
0.3226
2.63662
0.332899
2.78057
0.342955
2.93183
0.352714
3.09118
0.362163
3.25863
0.371261
3.43486
0.379981
3.62029
0.388316
3.81528
0.396228
4.02073
0.403717
4.23669
0.410779
4.46417
0.417398
4.70366
0.423605
4.95574
0.429392
5.22117
0.434768
5.50082
0.439756
5.79529
0.44433
6.10546
0.448548
6.43244
0.452411
6.77679
0.455952
7.13949
0.459145
7.52297
0.46133
5.89441
0.463459
6.47627
0.465501
7.11674
0.46747
7.82155
0.469285
8.5942
0.471002
9.44317
0.472549
10.38
0.473816
11.4018
0.475251
12.5439
0.475418
13.7602
0.231093
0.196405
0.215496
0.197026
0.196792
0.196378
0.177991
0.196455
0.162668
0.199733
0.15343
0.208539
0.151196
0.22427
0.155439
0.24712
0.164592
0.276175
0.175992
0.309732
0.185744
0.345013
0.190137
0.378163
0.189214
0.406218
0.186438
0.430295
0.184261
0.454097
0.182891
0.479768
0.181897
0.507322
0.181176
0.536335
0.18083
0.566812
0.180915
0.598963
0.181466
0.63298
0.182468
0.668953
0.183918
0.707005
0.185812
0.747228
0.188149
0.789744
0.190933
0.834659
0.19415
0.882139
0.197819
0.932324
0.20194
0.985163
0.206524
1.04121
0.211558
1.10023
0.217063
1.16244
0.223037
1.22836
0.229474
1.29775
0.236368
1.37097
0.243705
1.44826
0.251466
1.52975
0.259623
1.61566
0.268145
1.7061
0.276993
1.80144
0.286123
1.9019
0.29549
2.00785
0.305041
2.11923
0.314723
2.23653
0.324484
2.36009
0.334268
2.49013
0.344021
2.62687
0.353692
2.7709
0.363229
2.9223
0.372599
3.08181
0.381724
3.24951
0.390599
3.42598
0.399191
3.6117
0.407436
3.80704
0.415345
4.01282
0.422887
4.22915
0.430049
4.45701
0.436834
4.69688
0.443197
4.94938
0.449178
5.21519
0.454764
5.49524
0.459961
5.79009
0.464792
6.10063
0.469226
6.428
0.47332
6.77269
0.477071
7.13574
0.480499
7.51954
0.482844
5.89207
0.485135
6.47398
0.487342
7.11454
0.489471
7.81942
0.491456
8.59222
0.493333
9.4413
0.495032
10.3783
0.496427
11.4004
0.49806
12.5423
0.272322
0.204491
0.261017
0.20833
0.246791
0.210604
0.230958
0.212288
0.215814
0.214877
0.204053
0.2203
0.197827
0.230496
0.198075
0.246872
0.204462
0.269788
0.21551
0.298683
0.228469
0.332054
0.23942
0.367212
0.245014
0.400624
0.245503
0.429806
0.243948
0.455652
0.242612
0.481104
0.241783
0.50815
0.241068
0.53705
0.240382
0.567498
0.239828
0.599518
0.239508
0.6333
0.239464
0.668997
0.239723
0.706746
0.240313
0.746638
0.241269
0.788788
0.242616
0.833311
0.244379
0.880376
0.246576
0.930127
0.249221
0.982518
0.252324
1.03811
0.25589
1.09666
0.259924
1.1584
0.264424
1.22386
0.269388
1.29279
0.274808
1.36555
0.280676
1.4424
0.286977
1.52345
0.293694
1.60894
0.300814
1.69898
0.308283
1.79397
0.316097
1.89409
0.32421
1.99973
0.332583
2.11085
0.34117
2.22794
0.349927
2.35133
0.358803
2.48125
0.367748
2.61793
0.376711
2.76194
0.385642
2.91337
0.394493
3.07296
0.403217
3.24078
0.41177
3.41743
0.420113
3.60336
0.42821
3.79894
0.436029
4.005
0.443543
4.22163
0.450732
4.44982
0.457577
4.69003
0.464065
4.94289
0.470189
5.20907
0.475944
5.48948
0.481328
5.78471
0.486345
6.09561
0.491002
6.42335
0.495309
6.76839
0.499274
7.13178
0.502927
7.51589
0.505412
5.88958
0.507877
6.47151
0.510235
7.11218
0.512527
7.81713
0.514681
8.59006
0.516703
9.43927
0.518586
10.3764
0.520136
0.313796
0.210229
0.305306
0.21682
0.294131
0.22178
0.280832
0.225587
0.266658
0.229051
0.253499
0.233459
0.243611
0.240384
0.238865
0.251618
0.240197
0.268456
0.247363
0.291517
0.258994
0.320424
0.272355
0.353851
0.283705
0.389274
0.290016
0.423495
0.291438
0.454231
0.290641
0.481901
0.289813
0.508978
0.289455
0.537408
0.289269
0.567685
0.289108
0.599678
0.289009
0.633399
0.289069
0.668936
0.289308
0.706507
0.289745
0.746202
0.290376
0.788157
0.291254
0.832433
0.2924
0.87923
0.293845
0.928682
0.295617
0.980746
0.297742
1.03599
0.300251
1.09415
0.303148
1.15551
0.30645
1.22056
0.310182
1.28906
0.314345
1.36139
0.31894
1.4378
0.323972
1.51842
0.329416
1.6035
0.335259
1.69314
0.341501
1.78773
0.348111
1.88748
0.355062
1.99278
0.362324
2.10359
0.36987
2.2204
0.377642
2.34356
0.385597
2.4733
0.393711
2.60981
0.401927
2.75372
0.410198
2.9051
0.418476
3.06468
0.426725
3.23253
0.434877
3.40927
0.442889
3.59534
0.450743
3.79108
0.458391
3.99736
0.465801
4.21422
0.472943
4.44268
0.479794
4.68318
0.486348
4.93633
0.492562
5.20285
0.498424
5.48362
0.503955
5.77917
0.509139
6.09043
0.51399
6.41849
0.518487
6.76389
0.522633
7.12763
0.52647
7.51205
0.529132
5.88692
0.531722
6.46892
0.534255
7.10965
0.536723
7.81466
0.539047
8.58774
0.541216
0.355091
0.213714
0.349182
0.222728
0.340714
0.230248
0.329908
0.236393
0.317405
0.241554
0.304362
0.246501
0.292473
0.252273
0.283708
0.260382
0.279805
0.27236
0.281705
0.289616
0.289284
0.312845
0.301224
0.34191
0.314897
0.375601
0.326721
0.41167
0.333805
0.447147
0.335981
0.479725
0.335542
0.509418
0.334747
0.538202
0.334364
0.568068
0.334233
0.599809
0.334174
0.633459
0.334198
0.668912
0.334366
0.706339
0.334705
0.745863
0.33522
0.787642
0.335925
0.831728
0.336837
0.878317
0.337978
0.927541
0.339367
0.979357
0.341025
1.03433
0.342973
1.0922
0.345231
1.15325
0.347818
1.21798
0.350753
1.28612
0.35405
1.35809
0.357721
1.43413
0.361774
1.51436
0.366214
1.59906
0.37104
1.68831
0.376245
1.78252
0.38182
1.88191
0.387749
1.98685
0.394011
2.09733
0.40058
2.21383
0.407428
2.33671
0.414519
2.46621
0.421818
2.60251
0.429282
2.74626
0.436871
2.89751
0.44454
3.05701
0.452243
3.22483
0.459937
3.40158
0.467576
3.5877
0.47512
3.78354
0.482528
3.98995
0.489764
4.20699
0.496793
4.43565
0.503586
4.67639
0.510118
4.9298
0.516366
5.19661
0.522315
5.47767
0.527949
5.77354
0.533261
6.08511
0.538247
6.41351
0.542907
6.75923
0.547243
7.12329
0.55126
7.50803
0.554047
5.88413
0.556798
6.46617
0.5595
0.562096
0.396059
0.215302
0.392601
0.226187
0.386755
0.236094
0.378478
0.244669
0.368018
0.252015
0.356062
0.258457
0.343682
0.264654
0.332436
0.271628
0.324149
0.280647
0.320509
0.293255
0.322514
0.31084
0.330148
0.334276
0.342203
0.363547
0.35618
0.397693
0.368682
0.434645
0.376765
0.471641
0.379891
0.506292
0.379947
0.538146
0.379218
0.568797
0.378804
0.600222
0.378712
0.633552
0.378718
0.668906
0.378788
0.706269
0.378956
0.745695
0.379284
0.787314
0.379751
0.831262
0.380407
0.877662
0.381241
0.926707
0.382284
0.978314
0.383545
1.03307
0.385061
1.09069
0.386839
1.15147
0.388907
1.21591
0.39126
1.28377
0.393925
1.35543
0.396913
1.43114
0.400227
1.51105
0.403894
1.59539
0.407909
1.6843
0.412287
1.77814
0.417004
1.87719
0.422064
1.98179
0.427456
2.09194
0.433155
2.20813
0.439162
2.33071
0.445452
2.45992
0.451975
2.59599
0.458709
2.73952
0.465619
2.8906
0.472654
3.04998
0.479796
3.21769
0.486993
3.39438
0.494203
3.58049
0.501395
3.77635
0.508505
3.98284
0.515506
4.19999
0.522361
4.4288
0.529024
4.66973
0.535489
4.92334
0.541719
5.19038
0.547703
5.47169
0.553397
5.76785
0.558784
6.07973
0.563884
6.40841
0.568678
6.75443
0.573177
7.11879
0.577342
0.580256
0.436457
0.215827
0.434997
0.227646
0.431736
0.239355
0.426116
0.250288
0.418091
0.26004
0.407941
0.268606
0.396311
0.276284
0.38424
0.283699
0.373194
0.291693
0.364932
0.301517
0.361097
0.314676
0.362818
0.332555
0.37018
0.356185
0.382146
0.385728
0.396342
0.420449
0.409526
0.458457
0.418708
0.49711
0.422861
0.533993
0.423491
0.568167
0.422893
0.60082
0.42248
0.633965
0.422442
0.668944
0.42257
0.706141
0.422752
0.745513
0.423005
0.787061
0.423376
0.830891
0.423856
0.877182
0.424489
0.926074
0.425281
0.977522
0.426262
1.03209
0.427422
1.08953
0.428819
1.15007
0.430431
1.2143
0.432304
1.2819
0.434446
1.35329
0.436871
1.42872
0.439592
1.50833
0.442631
1.59235
0.445975
1.68095
0.44963
1.77449
0.453621
1.8732
0.457938
1.97748
0.462575
2.0873
0.467525
2.20318
0.472776
2.32546
0.478312
2.45438
0.484111
2.59019
0.490151
2.73348
0.4964
2.88435
0.502841
3.04354
0.509402
3.21113
0.516094
3.38769
0.522842
3.57375
0.529607
3.76958
0.536372
3.97607
0.543087
4.19327
0.549715
4.42217
0.556231
4.66321
0.562578
4.91699
0.568724
5.18423
0.574668
5.46574
0.580374
5.76214
0.585836
0.591
0.595896
0.476869
0.216035
0.476469
0.228046
0.475234
0.240591
0.472291
0.253231
0.467061
0.26527
0.459374
0.276293
0.449525
0.286133
0.438118
0.295106
0.426161
0.30365
0.415028
0.31265
0.406463
0.323241
0.402129
0.336889
0.403273
0.355041
0.41014
0.378861
0.421848
0.408741
0.436222
0.444083
0.450076
0.483256
0.460338
0.523731
0.465567
0.562938
0.466807
0.59958
0.466343
0.634429
0.465898
0.669388
0.465862
0.706177
0.46609
0.745285
0.466364
0.786786
0.466695
0.83056
0.467111
0.876766
0.467638
0.925547
0.468291
0.976869
0.469083
1.03129
0.470042
1.08857
0.471153
1.14896
0.472466
1.21298
0.473986
1.28038
0.475731
1.35154
0.477715
1.42673
0.479966
1.50608
0.482464
1.58986
0.485252
1.67817
0.48833
1.77141
0.491706
1.86982
0.495383
1.9738
0.499364
2.08332
0.503656
2.19888
0.508233
2.32088
0.513083
2.44953
0.518217
2.58506
0.523606
2.72809
0.529227
2.87873
0.535057
3.03771
0.541077
3.20511
0.547221
3.38155
0.55349
3.56748
0.559836
3.76324
0.566223
3.96968
0.572613
4.18688
0.578968
4.41582
0.585252
0.59143
0.597482
0.603339
0.518147
0.216271
0.518003
0.22819
0.517746
0.240848
0.516791
0.254187
0.514273
0.267788
0.50954
0.281025
0.502314
0.29336
0.492799
0.304621
0.481562
0.314886
0.469581
0.324631
0.4582
0.334621
0.449107
0.345982
0.444052
0.360095
0.444395
0.378518
0.450587
0.402549
0.461908
0.432762
0.476369
0.468796
0.490907
0.509193
0.502274
0.551571
0.508607
0.593247
0.510525
0.632512
0.510227
0.669686
0.509717
0.706688
0.50964
0.745361
0.509911
0.786516
0.510265
0.830206
0.510648
0.876383
0.511095
0.925101
0.51164
0.976324
0.5123
1.03063
0.513078
1.08779
0.514007
1.14803
0.515104
1.21189
0.516364
1.27912
0.517811
1.35009
0.519461
1.42508
0.521318
1.50422
0.523417
1.58776
0.525761
1.67582
0.528372
1.7688
0.531238
1.86696
0.534377
1.97066
0.537796
2.0799
0.541485
2.19519
0.545467
2.3169
0.549739
2.44526
0.554269
2.58053
0.559057
2.7233
0.56409
2.87369
0.569348
3.03245
0.574796
0.580433
0.586231
0.592133
0.598118
0.604152
0.560765
0.216487
0.560577
0.228378
0.560468
0.240957
0.560331
0.254324
0.559685
0.268434
0.557668
0.283042
0.553529
0.297498
0.54686
0.31129
0.537759
0.323987
0.526718
0.335672
0.514661
0.346678
0.502908
0.357735
0.493141
0.369863
0.487162
0.384497
0.486498
0.403213
0.491836
0.427423
0.502654
0.457978
0.517118
0.494729
0.532273
0.536417
0.544757
0.580762
0.552261
0.625009
0.554933
0.667013
0.554878
0.706743
0.554307
0.745932
0.55416
0.786664
0.554432
0.829933
0.554839
0.875976
0.555264
0.924676
0.55573
0.975858
0.556281
1.03008
0.55695
1.08712
0.557725
1.14726
0.558619
1.21099
0.559668
1.27807
0.560876
1.34889
0.562257
1.4237
0.563836
1.50264
0.565604
1.58599
0.567584
0.569779
0.572221
0.574908
0.57785
0.581062
0.584526
0.588241
0.592229
0.596471
0.60096
0.604811
0.604624
0.604449
0.60438
0.604325
0.603956
0.602474
0.59902
0.593013
0.584402
0.5736
0.561463
0.549282
0.538736
0.53172
0.529878
0.53417
0.544336
0.558708
0.574426
0.588002
0.596731
0.600261
0.600501
0.599885
0.599643
0.599913
0.60036
0.600823
0.601294
0.601847
0.602498
0.603271
0.604153
0.605167
0.606327
0.607635
)
;

boundaryField
{
    inlet
    {
        type            calculated;
        value           nonuniform List<scalar> 
11
(
0.471993
0.936008
0.915763
0.900575
0.894464
0.903395
0.938092
1.00132
1.13728
1.18123
0.435762
)
;
    }
    outlet
    {
        type            calculated;
        value           nonuniform List<scalar> 0();
    }
    walls
    {
        type            calculated;
        value           uniform 0;
    }
    frontAndBack
    {
        type            empty;
    }
    procBoundary6to2
    {
        type            processor;
        value           nonuniform List<scalar> 
13
(
-0.162617
-0.178953
-0.209772
-0.242302
-0.280407
-0.319534
-0.358575
-0.397647
-0.436981
-0.477077
-0.518382
-0.560981
-0.604972
)
;
    }
    procBoundary6to3
    {
        type            processor;
        value           uniform 0.216649;
    }
    procBoundary6to5
    {
        type            processor;
        value           nonuniform List<scalar> 
86
(
-0.126583
-0.168133
-0.213227
-0.265972
-0.321297
-0.360645
-0.375927
-0.38503
-0.401439
-0.423863
-0.447981
-0.472371
-0.49739
-0.523647
-0.551341
-0.580533
-0.611257
-0.643506
-0.677422
-0.713063
-0.750492
-0.789817
-0.831096
-0.874534
-0.920054
-0.967988
-1.01801
-1.07081
-1.12621
-1.1843
-1.2452
-1.30929
-1.3764
-0.653216
-1.46985
-1.54355
-1.62124
-1.70261
-1.78819
-1.87809
-1.97271
-2.07216
-2.17668
-2.28681
-2.40266
-2.52449
-0.810556
-2.67087
-2.80619
-2.94881
-3.09898
-3.25761
-3.42454
-3.60056
-3.78629
-3.98223
-0.881347
-4.20839
-4.42688
-4.65724
-4.90023
-5.15646
-5.42695
-5.7119
-0.944647
-6.03855
-6.35691
-6.69287
-7.04744
-7.42174
-7.81521
-5.71374
-1.02377
-6.27417
-6.89458
-7.57428
-8.3224
-9.14464
-10.0464
-11.0375
-12.135
-13.3202
-0.632362
-14.6171
-16.0124
-17.7202
)
;
    }
    procBoundary6to7
    {
        type            processor;
        value           nonuniform List<scalar> 
91
(
18.4816
0.452744
16.5796
0.477754
15.1812
0.498314
13.76
11.3988
0.521922
12.5405
9.43711
0.543271
10.3743
7.10695
7.81207
0.564588
8.58525
7.50387
5.88122
0.583143
6.46328
6.07426
6.40325
6.74954
0.600503
7.11419
4.65692
4.91081
5.17818
5.45989
0.609013
5.75647
3.19966
3.37591
3.56168
3.75734
3.9637
4.18085
0.610199
4.40977
1.67384
1.76661
1.86451
1.96797
2.07696
2.19198
2.31343
2.44154
2.57654
2.71906
2.86921
0.605681
3.02773
0.228564
0.241133
0.254393
0.268489
0.283411
0.298981
0.314743
0.329995
0.344283
0.357481
0.369872
0.382044
0.395043
0.410229
0.429265
0.453686
0.484562
0.522045
0.565045
0.611433
0.658283
0.703214
0.745693
0.787279
0.830175
0.875706
0.924229
0.975395
1.02961
1.08657
1.14661
1.21022
1.27719
1.34787
1.42254
1.50133
0.609128
1.5845
)
;
    }
}


// ************************************************************************* //
