/*--------------------------------*- C++ -*----------------------------------*\
| =========                 |                                                 |
| \\      /  F ield         | OpenFOAM: The Open Source CFD Toolbox           |
|  \\    /   O peration     | Version:  2506                                  |
|   \\  /    A nd           | Website:  www.openfoam.com                      |
|    \\/     M anipulation  |                                                 |
\*---------------------------------------------------------------------------*/
FoamFile
{
    version     2.0;
    format      ascii;
    arch        "LSB;label=32;scalar=64";
    class       volScalarField;
    location    "500";
    object      turbulenceProperties:epsilon;
}
// * * * * * * * * * * * * * * * * * * * * * * * * * * * * * * * * * * * * * //

dimensions      [0 2 -3 0 0 0 0];

internalField   nonuniform List<scalar> 
1340
(
334.42
232.374
145.749
16.2708
26.5015
21.7454
17.5738
20.2067
31.9667
23.9922
16.9409
20.495
32.3909
26.5969
19.7611
21.4735
16.8956
21.006
19.7607
21.8242
1.65814
7.51542
13.9859
19.8669
0.0337218
0.415459
4.90052
14.1048
0.0241372
0.0272905
0.46492
6.38495
0
0.00983021
0.02544
1.52332
0
1.67401e-05
0.00390034
0.191724
0
0
0.000842391
0.0275574
2.94061e-09
0
0.000103748
0.00834219
1.22461e-06
1.34237e-13
3.11385e-05
0.00278684
5.01806e-06
2.81531e-09
5.63747e-07
0.000698263
4.23042e-06
9.53981e-07
4.58481e-11
4.28596e-05
2.7629e-06
3.87259e-06
4.91921e-12
3.41262e-07
2.12131e-06
4.56543e-06
4.18056e-11
6.19218e-18
2.0058e-06
3.35654e-06
4.75088e-07
8.17186e-11
2.03195e-06
2.28383e-06
2.01742e-06
2.23632e-08
2.00298e-06
1.7876e-06
2.30618e-06
4.99671e-07
1.89223e-06
1.60575e-06
1.87851e-06
1.25136e-06
1.74222e-06
1.51428e-06
1.4889e-06
1.45868e-06
1.58846e-06
1.41845e-06
1.25604e-06
1.3156e-06
1.44398e-06
1.30298e-06
1.11228e-06
1.11365e-06
1.30974e-06
1.17962e-06
1.0008e-06
9.44105e-07
1.18337e-06
1.05901e-06
8.98453e-07
8.10074e-07
1.06391e-06
9.4596e-07
8.01054e-07
6.99818e-07
9.51339e-07
8.41211e-07
7.09793e-07
6.05778e-07
8.45779e-07
7.44461e-07
6.25621e-07
5.24136e-07
7.4777e-07
6.55648e-07
5.49042e-07
4.53139e-07
6.57515e-07
5.74592e-07
4.79683e-07
3.9134e-07
5.74871e-07
5.01129e-07
4.17429e-07
3.37532e-07
4.99871e-07
4.34852e-07
3.61729e-07
2.90757e-07
4.86459e-07
4.32296e-07
3.75588e-07
3.12159e-07
2.5003e-07
4.18012e-07
3.71838e-07
3.22906e-07
2.68374e-07
2.1461e-07
3.57172e-07
3.18188e-07
2.76336e-07
2.29868e-07
1.8385e-07
3.03534e-07
2.70887e-07
2.35431e-07
1.96167e-07
1.57156e-07
2.56612e-07
2.2949e-07
1.99727e-07
1.66816e-07
1.34034e-07
2.15854e-07
1.93509e-07
1.68747e-07
1.41388e-07
1.14046e-07
1.80706e-07
1.62436e-07
1.42e-07
1.19443e-07
9.68067e-08
1.50607e-07
1.35778e-07
1.19046e-07
1.00584e-07
8.19688e-08
1.24995e-07
1.13041e-07
9.9447e-08
8.44485e-08
6.92309e-08
1.03335e-07
9.37603e-08
8.27931e-08
7.06913e-08
5.83267e-08
8.51242e-08
7.75026e-08
6.87091e-08
5.90117e-08
4.90128e-08
6.98928e-08
6.38614e-08
5.68543e-08
4.91292e-08
4.10844e-08
6.1233e-08
5.72195e-08
5.24676e-08
4.69158e-08
4.07959e-08
3.43541e-08
4.98561e-08
4.67226e-08
4.29965e-08
3.86183e-08
3.37947e-08
2.86573e-08
4.05029e-08
3.8063e-08
3.51533e-08
3.17162e-08
2.79322e-08
2.38499e-08
3.2842e-08
3.09476e-08
2.86826e-08
2.59942e-08
2.30375e-08
1.9805e-08
2.65882e-08
2.51199e-08
2.33618e-08
2.12665e-08
1.89636e-08
1.64124e-08
2.14982e-08
2.0362e-08
1.9e-08
1.73708e-08
1.55825e-08
1.35746e-08
1.73652e-08
1.64871e-08
1.5434e-08
1.417e-08
1.27841e-08
1.12074e-08
1.40173e-08
1.33387e-08
1.25249e-08
1.15458e-08
1.04738e-08
9.23839e-09
1.13098e-08
1.07853e-08
1.0157e-08
9.39927e-09
8.57072e-09
7.60452e-09
9.45354e-09
9.12344e-09
8.71794e-09
8.23269e-09
7.64656e-09
7.00649e-09
6.25197e-09
7.61648e-09
7.35993e-09
7.04596e-09
6.6711e-09
6.21774e-09
5.72318e-09
5.13469e-09
6.1387e-09
5.93893e-09
5.69544e-09
5.40541e-09
5.0545e-09
4.67212e-09
4.21351e-09
4.95076e-09
4.79473e-09
4.60543e-09
4.38061e-09
4.10859e-09
3.81257e-09
3.45543e-09
3.99609e-09
3.87381e-09
3.7262e-09
3.5515e-09
3.34033e-09
3.11066e-09
2.83252e-09
3.22833e-09
3.13229e-09
3.01694e-09
2.88089e-09
2.7166e-09
2.53802e-09
2.32143e-09
2.60936e-09
2.53399e-09
2.44387e-09
2.33789e-09
2.21004e-09
2.07099e-09
1.90244e-09
2.15751e-09
2.10848e-09
2.04954e-09
1.97934e-09
1.89699e-09
1.79767e-09
1.68948e-09
1.55869e-09
1.74114e-09
1.70253e-09
1.65645e-09
1.60185e-09
1.53799e-09
1.46106e-09
1.37709e-09
1.27608e-09
1.40484e-09
1.37414e-09
1.33786e-09
1.29519e-09
1.24556e-09
1.18595e-09
1.12081e-09
1.04306e-09
1.13491e-09
1.11007e-09
1.08108e-09
1.04735e-09
1.00844e-09
9.61984e-10
9.11284e-10
8.51526e-10
9.17856e-10
8.97343e-10
8.73714e-10
8.46596e-10
8.15612e-10
7.7891e-10
7.38996e-10
6.92676e-10
7.49909e-10
7.33042e-10
7.13726e-10
6.9171e-10
6.66714e-10
6.37115e-10
6.05021e-10
5.6811e-10
6.28134e-10
6.13951e-10
5.97874e-10
5.79686e-10
5.59055e-10
5.34533e-10
5.07976e-10
4.79121e-10
5.42714e-10
5.32001e-10
5.18976e-10
5.04633e-10
4.88871e-10
4.71233e-10
4.50548e-10
4.27851e-10
4.04274e-10
4.6313e-10
4.53374e-10
4.41512e-10
4.28518e-10
4.14403e-10
3.98784e-10
3.80838e-10
3.61641e-10
3.43552e-10
3.86499e-10
3.77328e-10
3.66514e-10
3.54812e-10
3.42279e-10
3.28562e-10
3.12819e-10
2.95224e-10
2.77309e-10
3.29721e-10
3.22014e-10
3.12795e-10
3.0263e-10
2.91605e-10
2.7962e-10
2.66352e-10
2.53077e-10
2.43124e-10
2.57726e-10
2.5013e-10
2.41675e-10
2.32771e-10
2.2344e-10
2.13284e-10
2.01375e-10
1.86905e-10
1.71309e-10
2.36578e-10
2.30537e-10
2.23334e-10
2.15309e-10
2.06713e-10
1.97806e-10
1.89085e-10
1.82699e-10
1.82286e-10
1.54789e-10
1.49186e-10
1.43188e-10
1.36866e-10
1.30145e-10
1.22498e-10
1.12612e-10
9.97734e-11
8.53074e-11
2.03878e-10
1.99943e-10
1.94926e-10
1.88854e-10
1.82409e-10
1.76534e-10
1.73869e-10
1.78632e-10
1.91024e-10
1.23618e-10
1.23235e-10
1.2147e-10
1.18332e-10
1.14048e-10
1.08356e-10
1.00809e-10
9.6587e-11
8.90906e-11
3.68954e-10
3.52241e-10
3.52565e-10
3.52699e-10
3.51867e-10
3.5085e-10
3.51935e-10
3.65408e-10
3.99316e-10
4.17231e-10
4.24561e-10
4.19502e-10
4.24491e-10
4.30661e-10
4.35955e-10
4.40736e-10
4.47541e-10
4.70569e-10
5.10621e-10
5.08365e-10
1.2158e-09
8.67704e-10
8.92597e-10
9.14095e-10
9.26892e-10
9.41771e-10
9.61935e-10
1.00237e-09
1.03843e-09
7.59401e-10
59.5753
10.1748
1.68686
12.1349
19.8981
21.7481
18.5391
11.4691
4.19036
0.674185
0.0458524
0.00526103
0.00188304
0.000524008
1.67947e-05
5.07107e-08
0
1.38098e-12
1.28756e-09
2.37576e-07
8.34358e-07
1.06385e-06
9.76142e-07
8.22165e-07
6.91396e-07
5.90439e-07
5.0899e-07
4.4031e-07
3.81003e-07
3.29638e-07
2.85162e-07
2.46651e-07
2.13329e-07
1.84407e-07
1.59275e-07
1.37442e-07
1.18442e-07
1.01911e-07
8.75361e-08
7.50416e-08
6.4189e-08
5.47774e-08
4.66389e-08
3.96035e-08
3.35447e-08
2.834e-08
2.38801e-08
2.00707e-08
1.68267e-08
1.40733e-08
1.17439e-08
9.77852e-09
8.12608e-09
6.74053e-09
5.58205e-09
4.61601e-09
3.8124e-09
3.14543e-09
2.59298e-09
2.13629e-09
1.75932e-09
1.44816e-09
1.19102e-09
9.77771e-10
8.01664e-10
6.54456e-10
5.37799e-10
4.55614e-10
3.83488e-10
3.29963e-10
2.60489e-10
2.38747e-10
1.5432e-10
1.8954e-10
6.72613e-11
2.10679e-10
7.13041e-11
4.16372e-10
4.38842e-10
6.68171e-10
25.2754
18.7651
3.86936
1.09057
6.21467
10.9731
12.0379
9.34247
4.62113
1.05914
0.0620863
0.00108723
0.00025191
0.000131949
8.15827e-06
5.57e-08
0
9.21627e-14
8.9845e-11
6.45489e-08
3.12653e-07
4.49898e-07
4.41952e-07
3.90559e-07
3.4212e-07
3.03334e-07
2.70887e-07
2.42182e-07
2.1616e-07
1.92581e-07
1.71304e-07
1.52165e-07
1.35002e-07
1.19585e-07
1.05738e-07
9.33266e-08
8.21897e-08
7.22161e-08
6.32944e-08
5.53255e-08
4.82189e-08
4.18967e-08
3.62945e-08
3.13339e-08
2.69633e-08
2.31263e-08
1.97679e-08
1.68411e-08
1.4301e-08
1.21054e-08
1.0216e-08
8.59615e-09
7.21334e-09
6.03753e-09
5.04143e-09
4.20065e-09
3.49338e-09
2.9003e-09
2.40438e-09
1.99087e-09
1.64687e-09
1.36093e-09
1.12321e-09
9.25015e-10
7.60558e-10
6.22558e-10
5.12169e-10
4.34024e-10
3.64308e-10
3.15002e-10
2.46918e-10
2.29042e-10
1.45017e-10
1.83103e-10
6.17778e-11
2.0294e-10
6.63521e-11
3.95912e-10
4.13772e-10
10.5426
12.4298
7.09239
1.2773
0.683326
4.01636
7.22798
7.82026
5.60835
2.30638
0.3549
0.00849269
9.45926e-05
1.80897e-05
2.27861e-12
2.80277e-15
0
1.36397e-16
1.28323e-13
1.06707e-08
9.56437e-08
1.67304e-07
1.77765e-07
1.64906e-07
1.51004e-07
1.40123e-07
1.31136e-07
1.22831e-07
1.14663e-07
1.06567e-07
9.85929e-08
9.08119e-08
8.32988e-08
7.60726e-08
6.91669e-08
6.262e-08
5.64417e-08
5.06591e-08
4.52724e-08
4.02866e-08
3.56956e-08
3.14946e-08
2.76753e-08
2.42135e-08
2.10993e-08
1.83125e-08
1.58299e-08
1.36309e-08
1.16933e-08
9.99472e-09
8.51354e-09
7.22759e-09
6.11702e-09
5.16196e-09
4.34429e-09
3.64717e-09
3.05509e-09
2.55407e-09
2.13144e-09
1.7761e-09
1.47815e-09
1.2286e-09
1.01974e-09
8.44354e-10
6.97819e-10
5.74131e-10
4.74099e-10
4.03244e-10
3.38482e-10
2.94957e-10
2.30451e-10
2.16252e-10
1.3577e-10
1.73953e-10
5.88755e-11
1.93009e-10
6.5609e-11
3.79222e-10
4.87397
7.10109
6.49714
3.27564
0.47928
0.458686
2.65815
4.83865
5.24448
3.63626
1.36111
0.177944
0.00356668
7.2743e-06
4.35843e-06
0
0
0
3.10385e-12
2.71465e-09
4.6909e-08
1.05221e-07
1.19777e-07
1.11008e-07
9.96391e-08
9.11148e-08
8.47642e-08
7.93772e-08
7.43741e-08
6.95865e-08
6.49566e-08
6.04679e-08
5.61205e-08
5.18971e-08
4.77988e-08
4.38376e-08
4.00249e-08
3.6381e-08
3.29149e-08
2.96414e-08
2.65689e-08
2.3706e-08
2.10565e-08
1.86164e-08
1.63877e-08
1.43634e-08
1.25352e-08
1.08952e-08
9.43159e-09
8.13327e-09
6.98826e-09
5.98297e-09
5.1057e-09
4.34341e-09
3.68426e-09
3.11692e-09
2.63052e-09
2.2152e-09
1.8618e-09
1.56209e-09
1.30873e-09
1.09484e-09
9.14503e-10
7.61944e-10
6.33442e-10
5.24259e-10
4.34904e-10
3.72002e-10
3.12795e-10
2.74951e-10
2.14273e-10
2.03491e-10
1.26916e-10
1.6504e-10
5.63171e-11
1.84169e-10
6.45078e-11
2.10802
3.79821
4.61315
3.78951
1.81204
0.244847
0.295074
1.72419
3.21742
3.5455
2.44536
0.892033
0.115708
0.00235415
9.24715e-06
4.69747e-06
0
0
0
1.90304e-11
1.17967e-08
6.40303e-08
8.30531e-08
7.89047e-08
7.12357e-08
6.47862e-08
5.99278e-08
5.59565e-08
5.23244e-08
4.88655e-08
4.55618e-08
4.24148e-08
3.94183e-08
3.6556e-08
3.38142e-08
3.11851e-08
2.86659e-08
2.62588e-08
2.39615e-08
2.1778e-08
1.97117e-08
1.7766e-08
1.59435e-08
1.42444e-08
1.26716e-08
1.12229e-08
9.89651e-09
8.69039e-09
7.59899e-09
6.61771e-09
5.74096e-09
4.96141e-09
4.27253e-09
3.66672e-09
3.1369e-09
2.67574e-09
2.27614e-09
1.93141e-09
1.63521e-09
1.38162e-09
1.1653e-09
9.81143e-10
8.2464e-10
6.91256e-10
5.77975e-10
4.81116e-10
4.00832e-10
3.44664e-10
2.90227e-10
2.57139e-10
1.99808e-10
1.9195e-10
1.18759e-10
1.57147e-10
5.35813e-11
1.77204e-10
0.695786
1.75301
2.7686
3.10405
2.45012
1.16839
0.164102
0.173458
1.11955
2.18765
2.4863
1.75032
0.660022
0.0938229
0.00265748
1.18594e-05
3.10198e-06
0
0
0
2.20843e-11
1.16966e-08
4.60011e-08
4.75912e-08
4.18764e-08
3.84604e-08
3.62225e-08
3.43834e-08
3.27316e-08
3.11142e-08
2.94793e-08
2.78439e-08
2.62262e-08
2.46322e-08
2.30623e-08
2.1519e-08
2.0009e-08
1.85386e-08
1.71102e-08
1.57293e-08
1.44015e-08
1.31299e-08
1.19193e-08
1.07724e-08
9.69298e-09
8.68241e-09
7.74232e-09
6.87384e-09
6.07556e-09
5.34684e-09
4.6861e-09
4.09022e-09
3.55629e-09
3.08046e-09
2.65906e-09
2.28773e-09
1.96223e-09
1.67829e-09
1.43172e-09
1.21848e-09
1.03482e-09
8.77035e-10
7.41825e-10
6.25698e-10
5.26228e-10
4.4064e-10
3.68689e-10
3.18615e-10
2.68607e-10
2.39845e-10
1.85818e-10
1.80658e-10
1.10776e-10
1.49488e-10
0.125831
0.58542
1.33286
1.99955
2.18803
1.72837
0.855244
0.139239
0.0883734
0.71747
1.50754
1.79406
1.31904
0.533381
0.0882396
0.00367043
3.98853e-06
5.24223e-07
0
0
0
2.05548e-11
9.94551e-09
3.1752e-08
2.90042e-08
2.38103e-08
2.19773e-08
2.10905e-08
2.02188e-08
1.93875e-08
1.85979e-08
1.7807e-08
1.70069e-08
1.62017e-08
1.5388e-08
1.45629e-08
1.37292e-08
1.28921e-08
1.20549e-08
1.12235e-08
1.04036e-08
9.59952e-09
8.81736e-09
8.06122e-09
7.33542e-09
6.64368e-09
5.98895e-09
5.37386e-09
4.79947e-09
4.26704e-09
3.77712e-09
3.32897e-09
2.92195e-09
2.5544e-09
2.22476e-09
1.93075e-09
1.67002e-09
1.44003e-09
1.23814e-09
1.06173e-09
9.08272e-10
7.75199e-10
6.60148e-10
5.60544e-10
4.74433e-10
3.99851e-10
3.36153e-10
2.92118e-10
2.46622e-10
2.22112e-10
1.71599e-10
1.69076e-10
0.00583362
0.0981036
0.432003
0.967601
1.45006
1.60389
1.30373
0.6892
0.140337
0.0355429
0.444623
1.03822
1.31522
1.02729
0.453911
0.0892517
0.00483686
9.15663e-06
5.03857e-07
0
0
0
1.15326e-11
5.13943e-09
2.189e-08
1.97462e-08
1.52536e-08
1.39869e-08
1.36084e-08
1.30892e-08
1.25209e-08
1.20042e-08
1.15153e-08
1.10315e-08
1.05469e-08
1.00581e-08
9.56265e-09
9.06091e-09
8.55287e-09
8.04069e-09
7.52697e-09
7.01452e-09
6.50741e-09
6.00872e-09
5.52197e-09
5.05065e-09
4.59747e-09
4.16528e-09
3.75578e-09
3.37084e-09
3.01175e-09
2.6789e-09
2.37278e-09
2.09285e-09
1.83876e-09
1.6095e-09
1.40388e-09
1.22051e-09
1.05784e-09
9.14209e-10
7.88013e-10
6.77533e-10
5.81134e-10
4.96996e-10
4.23525e-10
3.59474e-10
3.03803e-10
2.65672e-10
2.24695e-10
4.03106e-06
0.00331351
0.0619411
0.289707
0.677926
1.05249
1.20645
1.02828
0.591146
0.153394
0.0095044
0.261564
0.70897
0.973228
0.817499
0.398791
0.0921943
0.00652864
3.5089e-05
6.40697e-07
0
0
0
3.1846e-12
1.31775e-09
1.35319e-08
1.37762e-08
1.00711e-08
8.98712e-09
8.89617e-09
8.68243e-09
8.33583e-09
8.00073e-09
7.69188e-09
7.38817e-09
7.08101e-09
6.76893e-09
6.45226e-09
6.13021e-09
5.8033e-09
5.47257e-09
5.13947e-09
4.80612e-09
4.47448e-09
4.14681e-09
3.82541e-09
3.5124e-09
3.21011e-09
2.91996e-09
2.64378e-09
2.38293e-09
2.13812e-09
1.9103e-09
1.6995e-09
1.50593e-09
1.32934e-09
1.16919e-09
1.02486e-09
8.95468e-10
7.80037e-10
6.77593e-10
5.87031e-10
5.07269e-10
4.3709e-10
3.75155e-10
3.20828e-10
1.86136e-06
1.13987e-06
0.00124527
0.0323177
0.177054
0.456544
0.757582
0.918145
0.832091
0.524868
0.170928
0.00362269
0.142187
0.476323
0.722445
0.659228
0.356019
0.0956474
0.00870211
9.70366e-05
7.01497e-07
0
0
0
2.39345e-13
7.6747e-11
7.19486e-09
1.00835e-08
7.20814e-09
5.95619e-09
5.81146e-09
5.73659e-09
5.55041e-09
5.34794e-09
5.16054e-09
4.97624e-09
4.78713e-09
4.59257e-09
4.39234e-09
4.18657e-09
3.9757e-09
3.76057e-09
3.54255e-09
3.32301e-09
3.10341e-09
2.88532e-09
2.67037e-09
2.46031e-09
2.25626e-09
2.0597e-09
1.87189e-09
1.69358e-09
1.52573e-09
1.36871e-09
1.2229e-09
1.08844e-09
9.65218e-10
8.53002e-10
7.51367e-10
6.59772e-10
5.77668e-10
5.04368e-10
0
1.15554e-06
2.68071e-06
0.00030535
0.0137274
0.0973776
0.292096
0.534566
0.698163
0.680525
0.47297
0.188476
0.0115643
0.0679876
0.311541
0.534268
0.534481
0.31951
0.098822
0.0112953
0.000218876
8.72059e-07
9.33338e-11
0
0
1.48834e-17
7.05489e-21
2.25451e-09
6.26628e-09
5.13768e-09
4.1055e-09
3.89742e-09
3.85168e-09
3.74643e-09
3.62054e-09
3.50231e-09
3.38644e-09
3.26721e-09
3.14354e-09
3.01527e-09
2.88223e-09
2.74471e-09
2.60341e-09
2.45924e-09
2.31313e-09
2.16619e-09
2.01959e-09
1.87462e-09
1.73218e-09
1.59339e-09
1.45932e-09
1.33065e-09
1.20824e-09
1.09251e-09
9.83941e-10
8.828e-10
7.89183e-10
0
0
5.65874e-08
5.51094e-07
3.31218e-05
0.00455692
0.0470679
0.174511
0.364898
0.524146
0.55573
0.426519
0.202904
0.0278821
0.0256856
0.195507
0.390784
0.432711
0.286348
0.10104
0.0141849
0.000429173
2.53471e-07
3.1013e-08
0
0
1.21038e-27
2.42213e-12
9.46097e-10
3.90036e-09
3.61486e-09
2.87162e-09
2.6689e-09
2.63528e-09
2.57316e-09
2.4918e-09
2.41401e-09
2.33813e-09
2.25975e-09
2.17796e-09
2.09265e-09
2.0038e-09
1.91163e-09
1.8166e-09
1.71927e-09
1.62031e-09
1.52049e-09
1.42075e-09
1.32174e-09
1.22428e-09
1.98638e-12
1.12931e-23
0
1.40204e-14
4.28911e-06
8.68949e-07
0.00106891
0.0193018
0.0952978
0.237351
0.384045
0.448374
0.380972
0.211926
0.0480384
0.00568603
0.115352
0.280644
0.34796
0.255105
0.101879
0.0172736
0.000741816
1.53974e-06
1.04076e-07
0
0
0
9.3679e-13
3.60073e-10
2.46831e-09
2.58513e-09
2.03225e-09
1.84724e-09
1.82389e-09
1.78828e-09
1.73376e-09
1.6806e-09
)
;

boundaryField
{
    inlet
    {
        type            calculated;
        value           nonuniform List<scalar> 
11
(
2.3806e-08
2.13889e-08
2.24277e-08
2.34137e-08
2.43052e-08
2.51115e-08
2.58792e-08
2.6663e-08
2.76063e-08
2.55017e-08
2.83056e-08
)
;
    }
    outlet
    {
        type            calculated;
        value           nonuniform List<scalar> 0();
    }
    walls
    {
        type            calculated;
        value           uniform 0;
    }
    frontAndBack
    {
        type            empty;
    }
    procBoundary6to2
    {
        type            processor;
        value           nonuniform List<scalar> 
13
(
38.725
11.8467
4.67909
1.90025
0.601899
0.109482
0.00572226
5.34651e-06
3.84664e-06
0
0
1.29629e-12
6.6709e-10
)
;
    }
    procBoundary6to3
    {
        type            processor;
        value           uniform 9.39658e-10;
    }
    procBoundary6to5
    {
        type            processor;
        value           nonuniform List<scalar> 
86
(
416.61
34.269
44.1714
37.1693
9.07399
0.0462531
0.0125264
0.00112888
0
0
4.77986e-09
2.1777e-06
4.62341e-06
3.45245e-06
2.75761e-06
2.6969e-06
2.71824e-06
2.61124e-06
2.42318e-06
2.22961e-06
2.05646e-06
1.8998e-06
1.75082e-06
1.6052e-06
1.4629e-06
1.32525e-06
1.19349e-06
1.06863e-06
9.51308e-07
8.41822e-07
7.40507e-07
6.47534e-07
5.62887e-07
5.62887e-07
5.38394e-07
4.61508e-07
3.93352e-07
3.33407e-07
2.81096e-07
2.35788e-07
1.96832e-07
1.63568e-07
1.35352e-07
1.11564e-07
9.16296e-08
7.50135e-08
7.50135e-08
6.4521e-08
5.24113e-08
4.24849e-08
3.43773e-08
2.77765e-08
2.24169e-08
1.8076e-08
1.45672e-08
1.17356e-08
1.17356e-08
9.71648e-09
7.82175e-09
6.2995e-09
5.07722e-09
4.09593e-09
3.30727e-09
2.67168e-09
2.67168e-09
2.19741e-09
1.77285e-09
1.43038e-09
1.15585e-09
9.35345e-10
7.64085e-10
6.39712e-10
6.39712e-10
5.52144e-10
4.71851e-10
3.94979e-10
3.37075e-10
2.65017e-10
2.43371e-10
1.59285e-10
2.11961e-10
1.19827e-10
1.19827e-10
3.14639e-10
4.20715e-10
7.01644e-10
)
;
    }
    procBoundary6to7
    {
        type            processor;
        value           nonuniform List<scalar> 
91
(
6.71412e-10
6.71412e-10
3.87686e-10
3.87686e-10
3.64615e-10
3.64615e-10
6.34845e-11
5.06889e-11
6.34845e-11
1.70845e-10
1.02683e-10
5.06889e-11
1.41703e-10
2.04284e-10
1.57406e-10
1.02683e-10
1.57398e-10
2.72685e-10
2.40096e-10
2.04284e-10
2.03468e-10
4.3919e-10
3.81389e-10
3.29811e-10
2.72685e-10
2.84316e-10
7.03081e-10
6.24338e-10
5.52669e-10
4.87786e-10
4.3919e-10
4.29305e-10
1.12919e-09
1.03708e-09
9.48582e-10
8.64128e-10
7.84175e-10
7.08994e-10
7.03081e-10
6.3878e-10
1.62967e-09
1.57715e-09
1.52192e-09
1.46398e-09
1.40338e-09
1.3403e-09
1.27511e-09
1.20824e-09
1.14018e-09
1.07154e-09
1.00284e-09
1.12919e-09
9.34638e-10
1.9724e-14
3.74851e-17
0
0
4.49314e-07
6.524e-07
0.000134357
0.00628641
0.0460424
0.144237
0.270944
0.353829
0.334216
0.214184
0.068383
0.000757853
0.061977
0.196281
0.276622
0.225112
0.101159
0.0203485
0.00118469
1.98927e-06
9.2357e-08
0
0
0
2.7095e-13
9.74285e-11
1.51639e-09
1.87041e-09
1.44551e-09
1.27172e-09
1.25857e-09
1.24607e-09
1.62967e-09
1.21261e-09
)
;
    }
}


// ************************************************************************* //
