/*--------------------------------*- C++ -*----------------------------------*\
| =========                 |                                                 |
| \\      /  F ield         | OpenFOAM: The Open Source CFD Toolbox           |
|  \\    /   O peration     | Version:  2506                                  |
|   \\  /    A nd           | Website:  www.openfoam.com                      |
|    \\/     M anipulation  |                                                 |
\*---------------------------------------------------------------------------*/
FoamFile
{
    version     2.0;
    format      ascii;
    arch        "LSB;label=32;scalar=64";
    class       volSymmTensorField;
    location    "500";
    object      turbulenceProperties:R;
}
// * * * * * * * * * * * * * * * * * * * * * * * * * * * * * * * * * * * * * //

dimensions      [0 2 -2 0 0 0 0];

internalField   nonuniform List<symmTensor> 
1340
(
(14.5077 -7.2268 1.21992e-15 19.3673 1.14384e-15 16.954)
(11.3442 -5.67323 -1.22393e-16 15.4787 -5.25044e-16 13.4316)
(8.33039 -4.1714 -1.51849e-15 11.5017 -2.43754e-17 9.91861)
(1.83924 -0.926583 -1.88569e-16 2.78508 -1.9028e-15 2.31097)
(5.564 -2.74336 3.42251e-15 7.14761 -4.99302e-15 6.32507)
(4.9171 -2.43213 -1.50351e-15 6.39214 1.52294e-15 5.63456)
(4.36042 -2.13693 3.24904e-15 5.5164 4.02242e-16 4.88548)
(4.49708 -2.25501 5.36252e-15 5.98254 7.29084e-15 5.37323)
(7.19246 -3.52371 -1.43656e-14 8.95247 5.20335e-16 8.068)
(6.2147 -3.05339 4.95806e-15 7.81096 -1.62559e-15 7.01421)
(5.27466 -2.55634 5.13598e-15 6.35369 -1.52179e-15 5.79005)
(5.68021 -2.8145 -1.00215e-14 7.34996 2.90305e-15 6.54209)
(7.50735 -3.65023 4.79321e-15 9.09042 4.89462e-15 8.30268)
(7.00441 -3.42047 -1.0167e-14 8.60214 -1.30319e-16 7.8103)
(6.25794 -3.01925 -1.30258e-14 7.416 1.8815e-15 6.82145)
(6.54282 -3.21235 9.21183e-15 8.14372 -3.43365e-15 7.38578)
(5.00395 -2.39878 -9.95917e-16 5.80591 4.27462e-16 5.40386)
(6.12642 -2.96357 -1.74995e-15 7.2943 3.98529e-15 6.7163)
(6.43218 -3.08557 6.73196e-16 7.49366 2.44221e-16 6.94697)
(6.97137 -3.40195 -1.72593e-14 8.48033 4.31246e-15 7.78208)
(1.21868 -0.555878 2.80808e-15 1.25484 -1.65217e-15 1.23433)
(3.2475 -1.53942 1.02189e-14 3.6525 -1.62735e-15 3.45119)
(5.23034 -2.48015 5.21541e-16 5.90443 -9.15584e-17 5.5519)
(6.71537 -3.25955 3.62068e-15 8.02792 -3.41158e-15 7.42611)
(0.114432 0.0246081 -1.2671e-15 0.0557707 3.22808e-16 0.08504)
(0.598516 -0.252897 -1.31399e-15 0.53389 -8.03718e-16 0.567297)
(2.7658 -1.27404 1.17103e-15 2.91402 -2.67094e-16 2.82846)
(5.45401 -2.62761 3.10431e-15 6.37261 -8.99905e-16 5.95899)
(0.0443615 0.0138185 3.32264e-16 0.0275438 8.2197e-18 0.0359341)
(0.0877778 0.020014 -3.91735e-16 0.0439108 1.32616e-16 0.0662826)
(0.706322 -0.283477 -1.87009e-15 0.585268 3.43678e-16 0.641107)
(3.33503 -1.58472 9.83738e-15 3.74527 -5.71572e-16 3.57516)
(0 0 -0 0 -0 0)
(0.0263902 0.00733668 8.63824e-17 0.014922 -7.38427e-18 0.0207703)
(0.126804 0.00321855 1.87088e-15 0.048609 -2.26997e-16 0.0862887)
(1.38599 -0.635777 -4.58012e-15 1.42719 1.49399e-15 1.43057)
(0 -0 0 0 0 0)
(0.00013535 8.80231e-06 -5.15124e-19 8.13554e-05 7.60461e-20 0.000109064)
(0.0148087 0.00286189 -6.12698e-17 0.00693788 2.65232e-18 0.0107115)
(0.404274 -0.162678 -3.52616e-15 0.330523 1.5114e-16 0.380851)
(0 -0 0 0 -0 0)
(0 -0 0 0 0 0)
(0.00489144 0.000525075 -1.00498e-17 0.00199974 1.98003e-18 0.00337535)
(0.120625 -0.0325454 5.76259e-16 0.0660393 -2.59018e-16 0.0990956)
(1.77242e-06 -1.60826e-09 8.73253e-23 1.75333e-06 -8.9358e-23 1.76281e-06)
(0 -0 0 0 -0 0)
(0.000774765 -7.23027e-05 1.27295e-18 0.000315505 -2.24725e-19 0.000533089)
(0.0432738 -0.00944456 6.07651e-16 0.0209618 -1.79051e-17 0.0341284)
(2.92062e-05 -1.01719e-07 -8.69027e-20 2.47003e-05 2.41884e-20 2.69394e-05)
(2.06649e-08 -5.65457e-13 -1.55191e-27 2.06624e-08 -6.80227e-27 2.06636e-08)
(0.000230853 -3.55094e-05 -1.42391e-18 0.000123232 1.10632e-19 0.000174316)
(0.0140787 -0.00355998 -2.21462e-16 0.00739188 2.18445e-17 0.0113245)
(6.39043e-05 -3.43001e-07 4.93924e-19 4.57766e-05 -4.04187e-20 5.47878e-05)
(1.7237e-06 -2.82392e-09 -2.92417e-22 1.70473e-06 4.6425e-23 1.7144e-06)
(1.96233e-05 -6.12648e-07 -1.03958e-20 1.76948e-05 2.95774e-21 1.86158e-05)
(0.00347357 -0.000981976 6.39074e-17 0.00196905 -6.02985e-18 0.00285)
(5.79893e-05 -4.52753e-07 -3.44428e-19 4.23025e-05 -3.58225e-20 5.01028e-05)
(2.56743e-05 -5.04181e-07 2.9924e-20 2.19529e-05 2.84062e-21 2.38469e-05)
(2.73472e-07 -1.25428e-10 1.111e-23 2.73007e-07 -1.28336e-24 2.7323e-07)
(0.000244289 -5.93027e-05 -4.37506e-18 0.000158728 4.85318e-19 0.000208292)
(4.54863e-05 -3.48753e-07 2.79981e-20 3.49249e-05 3.83984e-20 4.01792e-05)
(5.53442e-05 -2.12537e-06 -1.47308e-20 4.06243e-05 -1.31836e-20 4.81047e-05)
(1.00795e-07 -1.68365e-11 -1.72639e-24 1.00727e-07 9.63681e-26 1.0076e-07)
(1.53113e-05 -5.20229e-07 1.13211e-20 1.45425e-05 -2.31558e-21 1.49817e-05)
(3.93776e-05 -2.64596e-07 3.79207e-20 3.09801e-05 -2.8969e-21 3.516e-05)
(6.15198e-05 -2.69978e-06 -5.32057e-20 4.36593e-05 1.80432e-21 5.27221e-05)
(2.59873e-07 -1.17826e-10 7.27185e-25 2.59407e-07 5.71758e-25 2.59633e-07)
(2.44453e-10 -1.51439e-16 -2.63709e-30 2.44452e-10 1.98785e-31 2.44452e-10)
(3.83066e-05 -2.31902e-07 1.22546e-20 3.01086e-05 -1.74463e-20 3.41913e-05)
(5.14076e-05 -2.04449e-06 -3.54396e-20 3.78923e-05 1.39164e-20 4.47402e-05)
(1.80222e-05 -5.31918e-07 4.36052e-20 1.60021e-05 -2.22536e-21 1.69863e-05)
(3.54242e-07 -3.40896e-10 8.44914e-24 3.53703e-07 -9.95396e-25 3.54003e-07)
(3.87292e-05 -2.14831e-07 -1.05697e-19 3.0154e-05 6.38054e-21 3.44268e-05)
(4.13464e-05 -1.41389e-06 6.64852e-20 3.17803e-05 -3.62382e-21 3.66203e-05)
(3.85044e-05 -2.22245e-06 1.14164e-19 3.03091e-05 -1.31111e-20 3.43168e-05)
(4.31054e-06 -5.30335e-08 3.68426e-21 4.22526e-06 -1.63089e-22 4.27209e-06)
(3.85862e-05 -1.90984e-07 1.1652e-20 2.98325e-05 1.15716e-20 3.41963e-05)
(3.62044e-05 -1.12283e-06 -1.36884e-20 2.83776e-05 -6.88939e-21 3.23325e-05)
(4.18077e-05 -2.66933e-06 -4.42358e-20 3.20867e-05 -8.5515e-21 3.6858e-05)
(1.81431e-05 -9.27092e-07 -5.27968e-21 1.66332e-05 1.70174e-21 1.7453e-05)
(3.75512e-05 -1.56391e-07 -3.71342e-21 2.896e-05 -7.31248e-21 3.32447e-05)
(3.42746e-05 -1.02109e-06 -4.85676e-20 2.69276e-05 7.53042e-21 3.06353e-05)
(3.73958e-05 -2.27704e-06 -1.97237e-19 2.91073e-05 1.38089e-20 3.31888e-05)
(2.88969e-05 -2.32995e-06 -8.17587e-20 2.50391e-05 3.61466e-21 2.71112e-05)
(3.60289e-05 -1.15856e-07 -5.67915e-20 2.77892e-05 1.37398e-20 3.19004e-05)
(3.33477e-05 -9.7279e-07 5.18476e-20 2.60996e-05 -2.77792e-21 2.97528e-05)
(3.29891e-05 -1.88649e-06 4.64767e-20 2.60759e-05 1.61868e-21 2.94898e-05)
(3.1569e-05 -2.86981e-06 -5.90568e-20 2.67149e-05 1.61941e-21 2.92958e-05)
(3.43885e-05 -7.33863e-08 1.122e-19 2.65435e-05 -7.98292e-22 3.04595e-05)
(3.23356e-05 -9.17955e-07 -5.34649e-20 2.52141e-05 1.09185e-21 2.87996e-05)
(3.01777e-05 -1.65829e-06 -3.68576e-20 2.40231e-05 1.69367e-21 2.70705e-05)
(3.00839e-05 -2.75098e-06 1.32943e-19 2.53039e-05 -4.80933e-21 2.78224e-05)
(3.27783e-05 -3.04941e-08 -1.59764e-20 2.53134e-05 -1.1327e-20 2.90408e-05)
(3.10242e-05 -8.46479e-07 2.83872e-20 2.41413e-05 -2.49581e-21 2.76031e-05)
(2.83781e-05 -1.52517e-06 5.03844e-20 2.26137e-05 -3.74591e-21 2.54745e-05)
(2.76956e-05 -2.47218e-06 -8.4655e-20 2.32645e-05 3.5352e-21 2.558e-05)
(3.1214e-05 1.23589e-08 -1.78064e-20 2.41099e-05 -6.21062e-22 2.76585e-05)
(2.9534e-05 -7.65154e-07 -7.31021e-20 2.29582e-05 3.06623e-21 2.62624e-05)
(2.69342e-05 -1.42058e-06 -8.37937e-20 2.14321e-05 5.25612e-21 2.41682e-05)
(2.55215e-05 -2.21889e-06 9.4185e-20 2.14002e-05 -2.5277e-21 2.3538e-05)
(2.96689e-05 5.48471e-08 -3.38993e-20 2.29178e-05 4.84966e-21 2.6291e-05)
(2.79925e-05 -6.8154e-07 3.81832e-20 2.17454e-05 8.84214e-21 2.48816e-05)
(2.55415e-05 -1.31626e-06 1.27229e-19 2.02841e-05 -5.46238e-23 2.29027e-05)
(2.36763e-05 -2.00983e-06 -9.15888e-20 1.97924e-05 2.02598e-21 2.17934e-05)
(2.81305e-05 9.69142e-08 3.55443e-20 2.17308e-05 3.48149e-21 2.49292e-05)
(2.64647e-05 -5.98672e-07 1.07613e-19 2.05444e-05 -7.5198e-21 2.35144e-05)
(2.41376e-05 -1.20672e-06 7.88403e-21 1.91315e-05 -3.11756e-21 2.16283e-05)
(2.20491e-05 -1.82693e-06 4.94009e-20 1.83595e-05 -1.14544e-21 2.02492e-05)
(2.65988e-05 1.3735e-07 2.92732e-20 2.05503e-05 -6.04036e-21 2.3574e-05)
(2.49652e-05 -5.18204e-07 -6.22905e-20 1.93658e-05 -6.57206e-21 2.21731e-05)
(2.27399e-05 -1.09514e-06 1.52116e-20 1.79882e-05 -2.93552e-21 2.03609e-05)
(2.05583e-05 -1.65807e-06 -9.35723e-20 1.70428e-05 1.08411e-21 1.88345e-05)
(2.50771e-05 1.76277e-07 -5.22915e-20 1.93791e-05 2.377e-21 2.2228e-05)
(2.34944e-05 -4.39744e-07 -4.18018e-20 1.82104e-05 5.79639e-21 2.0858e-05)
(2.13679e-05 -9.84046e-07 -8.12826e-20 1.68678e-05 1.65848e-21 1.91167e-05)
(1.91657e-05 -1.49876e-06 6.05864e-20 1.58143e-05 -1.50243e-21 1.75153e-05)
(2.35759e-05 2.12953e-07 5.83764e-20 1.82249e-05 -1.03439e-21 2.09007e-05)
(2.20564e-05 -3.64504e-07 4.63285e-20 1.70826e-05 -1.43596e-21 1.95735e-05)
(2.00363e-05 -8.75638e-07 3.9477e-20 1.57819e-05 -7.38432e-22 1.79095e-05)
(1.78615e-05 -1.34817e-06 -1.35495e-19 1.46663e-05 2.25467e-21 1.62829e-05)
(2.2103e-05 2.46784e-07 -6.93811e-20 1.70938e-05 -1.77522e-21 1.95991e-05)
(2.0655e-05 -2.92364e-07 -6.98903e-20 1.59855e-05 -2.70146e-22 1.83231e-05)
(1.87465e-05 -7.70708e-07 -1.02324e-19 1.47323e-05 1.29657e-22 1.67407e-05)
(1.66379e-05 -1.20647e-06 2.15723e-19 1.35929e-05 1.88075e-21 1.51294e-05)
(2.06621e-05 2.77518e-07 3.44109e-20 1.59885e-05 5.10236e-21 1.83261e-05)
(1.92951e-05 -2.24328e-07 4.73928e-20 1.49233e-05 5.78561e-22 1.71113e-05)
(1.75055e-05 -6.70128e-07 5.99031e-20 1.37249e-05 4.50433e-21 1.56171e-05)
(1.54888e-05 -1.0732e-06 -8.65366e-20 1.25887e-05 -3.34328e-21 1.40489e-05)
(1.92611e-05 3.04885e-07 1.80913e-20 1.4915e-05 -2.79883e-21 1.7089e-05)
(1.79785e-05 -1.60547e-07 -6.42839e-20 1.38974e-05 -2.06391e-21 1.59392e-05)
(1.63122e-05 -5.7475e-07 2.36755e-20 1.27596e-05 -4.65948e-21 1.45382e-05)
(1.44102e-05 -9.48498e-07 3.62342e-20 1.16508e-05 1.61886e-21 1.30378e-05)
(1.88867e-05 7.52879e-07 -7.04575e-20 1.48279e-05 3.55512e-21 1.68581e-05)
(1.79051e-05 3.28508e-07 -2.87621e-20 1.38771e-05 -3.28496e-21 1.58921e-05)
(1.67118e-05 -1.01386e-07 2.06228e-20 1.29127e-05 5.96326e-21 1.4813e-05)
(1.51683e-05 -4.84856e-07 -9.79892e-20 1.1838e-05 -4.60681e-22 1.35055e-05)
(1.33948e-05 -8.32096e-07 -2.48735e-20 1.07733e-05 1.85909e-22 1.2089e-05)
(1.74922e-05 7.38151e-07 7.89719e-20 1.37606e-05 5.2901e-21 1.56272e-05)
(1.65983e-05 3.48303e-07 -3.1802e-20 1.28778e-05 1.96759e-21 1.4739e-05)
(1.54975e-05 -4.73119e-08 8.2694e-20 1.19711e-05 2.37268e-22 1.37348e-05)
(1.40776e-05 -4.01055e-07 6.56607e-20 1.09631e-05 4.38474e-21 1.25227e-05)
(1.24388e-05 -7.23781e-07 7.50452e-20 9.95292e-06 2.23401e-21 1.11991e-05)
(1.61537e-05 7.2035e-07 -1.96689e-20 1.27354e-05 -4.04652e-21 1.44453e-05)
(1.53458e-05 3.64095e-07 3.70347e-20 1.19209e-05 2.30221e-21 1.36344e-05)
(1.43371e-05 1.58125e-09 -2.23124e-20 1.10738e-05 -5.19537e-21 1.27057e-05)
(1.30399e-05 -3.23683e-07 -1.82872e-21 1.01347e-05 -2.83928e-21 1.15896e-05)
(1.15391e-05 -6.23529e-07 -3.01658e-20 9.18667e-06 -3.71293e-21 1.03648e-05)
(1.4876e-05 6.99724e-07 1.14655e-20 1.17557e-05 -1.63879e-22 1.33165e-05)
(1.41503e-05 3.75908e-07 -5.15086e-21 1.10082e-05 -1.21317e-21 1.25802e-05)
(1.32329e-05 4.51545e-08 -5.48755e-20 1.02221e-05 7.30861e-22 1.17275e-05)
(1.20556e-05 -2.52899e-07 -3.49906e-20 9.35293e-06 -2.44493e-21 1.07064e-05)
(1.06916e-05 -5.31218e-07 -7.97492e-20 8.47112e-06 -1.81743e-21 9.58219e-06)
(1.36626e-05 6.76606e-07 -3.67159e-20 1.08243e-05 -2.93693e-22 1.2244e-05)
(1.30147e-05 3.83895e-07 7.46571e-21 1.01418e-05 -3.12671e-22 1.15792e-05)
(1.21864e-05 8.33906e-08 5.44955e-20 9.41703e-06 2.3881e-21 1.08017e-05)
(1.11247e-05 -1.88786e-07 -4.58011e-20 8.61739e-06 -1.22068e-21 9.87305e-06)
(9.89395e-06 -4.46667e-07 2.7953e-20 7.80357e-06 2.24335e-21 8.84874e-06)
(1.25155e-05 6.51342e-07 5.45308e-20 9.94266e-06 5.22125e-21 1.12297e-05)
(1.19409e-05 3.88098e-07 -1.3732e-20 9.32292e-06 6.33185e-22 1.06328e-05)
(1.11985e-05 1.16302e-07 -5.36395e-20 8.65894e-06 -2.93412e-21 9.92861e-06)
(1.02474e-05 -1.31326e-07 -1.07014e-20 7.92784e-06 2.75e-21 9.08947e-06)
(9.14369e-06 -3.6977e-07 -7.126e-21 7.18152e-06 -3.14395e-22 8.16187e-06)
(1.14366e-05 6.24335e-07 2.69696e-20 9.11202e-06 -1.21958e-21 1.02748e-05)
(1.093e-05 3.88806e-07 3.69622e-20 8.55201e-06 2.49114e-21 9.74176e-06)
(1.02687e-05 1.44035e-07 4.27975e-20 7.94717e-06 2.98579e-21 9.10779e-06)
(9.4224e-06 -8.0435e-08 1.0055e-19 7.28287e-06 4.05892e-21 8.35439e-06)
(8.43871e-06 -3.00248e-07 3.42472e-20 6.60248e-06 2.43623e-21 7.51932e-06)
(1.04264e-05 5.95933e-07 -2.17535e-20 8.33294e-06 -2.97222e-21 9.38012e-06)
(9.98233e-06 3.86271e-07 2.12368e-21 7.82935e-06 -2.38966e-21 8.90657e-06)
(9.39731e-06 1.66838e-07 -2.17573e-20 7.28148e-06 -2.34731e-21 8.3392e-06)
(8.64874e-06 -3.59006e-08 -4.09826e-20 6.68112e-06 -5.2586e-21 7.66655e-06)
(7.77687e-06 -2.37977e-07 2.38922e-20 6.06406e-06 6.14084e-22 6.91873e-06)
(9.48477e-06 5.66532e-07 -2.91847e-20 7.60525e-06 -8.85659e-22 8.54541e-06)
(9.09764e-06 3.80801e-07 -5.4553e-20 7.15443e-06 -2.77678e-21 8.12671e-06)
(8.58332e-06 1.84918e-07 -8.14954e-21 6.66082e-06 8.07305e-22 7.62187e-06)
(7.92531e-06 2.5447e-09 -3.3572e-20 6.12119e-06 -1.09997e-21 7.02478e-06)
(7.15645e-06 -1.82489e-07 -1.01449e-21 5.56399e-06 -1.57254e-21 6.35814e-06)
(8.61066e-06 5.36512e-07 3.36467e-21 6.92824e-06 2.15403e-21 7.76982e-06)
(8.27495e-06 3.7273e-07 2.691e-20 6.52637e-06 2.66295e-21 7.40127e-06)
(7.82544e-06 1.98665e-07 3.48369e-20 6.08385e-06 1.82259e-21 6.95443e-06)
(7.25035e-06 3.5227e-08 -4.22454e-21 5.60118e-06 1.20259e-21 6.42718e-06)
(6.57582e-06 -1.33639e-07 -5.84951e-20 5.10025e-06 -2.53529e-21 5.83568e-06)
(7.80256e-06 5.06221e-07 4.74467e-20 6.30081e-06 3.60771e-21 7.052e-06)
(7.51295e-06 3.62447e-07 -2.03531e-20 5.94408e-06 -2.63402e-21 6.72907e-06)
(7.1221e-06 2.08401e-07 -2.83733e-20 5.54904e-06 -2.94702e-21 6.33535e-06)
(6.62246e-06 6.25101e-08 2.83578e-20 5.11948e-06 1.16199e-21 5.87231e-06)
(6.03308e-06 -9.09371e-08 5.89834e-20 4.67051e-06 4.74074e-21 5.34922e-06)
(7.05818e-06 4.75963e-07 -8.86538e-22 5.72129e-06 -1.00715e-21 6.39001e-06)
(6.80959e-06 3.50278e-07 -3.432e-20 5.40588e-06 -1.86653e-21 6.10825e-06)
(6.47156e-06 2.14535e-07 -7.84212e-21 5.05477e-06 -7.64711e-22 5.76295e-06)
(6.03966e-06 8.48295e-08 -2.48837e-20 4.67404e-06 -1.71435e-21 5.35812e-06)
(5.52694e-06 -5.40435e-08 -2.72463e-21 4.27302e-06 -2.08004e-21 4.89725e-06)
(6.52246e-06 5.44504e-07 -2.15341e-22 5.43911e-06 -2.33763e-22 5.98109e-06)
(6.37504e-06 4.46053e-07 7.00819e-21 5.18793e-06 4.07356e-22 5.78172e-06)
(6.16241e-06 3.36623e-07 1.02581e-20 4.90987e-06 1.45324e-21 5.5366e-06)
(5.87151e-06 2.17468e-07 -3.97623e-20 4.59903e-06 -1.93126e-21 5.23505e-06)
(5.49999e-06 1.02612e-07 3.43008e-20 4.26288e-06 2.80577e-21 4.88262e-06)
(5.0558e-06 -2.25423e-08 -5.73523e-20 3.9058e-06 -3.21526e-21 4.47797e-06)
(5.87478e-06 5.01698e-07 -6.78528e-21 4.91853e-06 -5.53506e-22 5.39692e-06)
(5.75015e-06 4.16736e-07 -9.71653e-21 4.69852e-06 -1.27853e-21 5.22454e-06)
(5.56904e-06 3.21819e-07 -1.07833e-20 4.4542e-06 -1.31353e-21 5.01203e-06)
(5.31971e-06 2.17635e-07 5.13637e-20 4.17993e-06 5.04338e-21 4.7496e-06)
(5.00156e-06 1.16308e-07 -3.91197e-21 3.88415e-06 -1.46337e-21 4.44398e-06)
(4.61811e-06 3.99619e-09 4.94402e-20 3.567e-06 4.23017e-21 4.08967e-06)
(5.28535e-06 4.61318e-07 6.77333e-21 4.443e-06 1.2006e-21 4.8644e-06)
(5.18018e-06 3.88219e-07 -1.75335e-20 4.25064e-06 -1.16099e-21 4.71558e-06)
(5.02647e-06 3.06172e-07 5.17467e-22 4.03657e-06 5.46604e-22 4.53191e-06)
(4.81364e-06 2.15414e-07 2.26735e-20 3.79534e-06 5.38732e-22 4.30427e-06)
(4.54234e-06 1.26373e-07 -3.59718e-20 3.53593e-06 -1.91261e-21 4.04021e-06)
(4.21239e-06 2.60243e-08 -2.12351e-20 3.25487e-06 -2.09618e-21 3.73073e-06)
(4.75038e-06 4.23399e-07 2.40446e-20 4.00976e-06 1.62407e-21 4.38026e-06)
(4.66186e-06 3.60697e-07 1.24899e-20 3.84193e-06 1.31248e-21 4.25203e-06)
(4.53175e-06 2.90019e-07 2.73437e-20 3.6548e-06 2.00264e-21 4.09362e-06)
(4.35066e-06 2.11211e-07 -3.02252e-20 3.44317e-06 -2.33532e-21 3.89669e-06)
(4.12015e-06 1.33252e-07 5.19745e-20 3.21624e-06 4.60975e-21 3.6692e-06)
(3.83711e-06 4.397e-08 2.3023e-20 2.9677e-06 2.09192e-21 3.39951e-06)
(4.26607e-06 3.87949e-07 -2.7922e-20 3.61601e-06 -2.87892e-21 3.94121e-06)
(4.19162e-06 3.34301e-07 -4.68341e-21 3.46977e-06 -7.96982e-22 3.83081e-06)
(4.08178e-06 2.73587e-07 -3.22575e-20 3.30652e-06 -3.50043e-21 3.69446e-06)
(3.9282e-06 2.05396e-07 3.69955e-20 3.12135e-06 3.54527e-21 3.52455e-06)
(3.7329e-06 1.37387e-07 3.42547e-21 2.92325e-06 -5.12908e-22 3.32903e-06)
(3.49083e-06 5.82706e-08 -1.29471e-20 2.70393e-06 -1.82129e-21 3.09454e-06)
(3.82862e-06 3.54938e-07 1.1257e-20 3.25896e-06 1.51512e-21 3.54393e-06)
(3.76608e-06 3.09154e-07 -1.16631e-20 3.13171e-06 -9.14207e-22 3.44898e-06)
(3.67347e-06 2.57145e-07 -6.00437e-21 2.98951e-06 9.2437e-23 3.33176e-06)
(3.54349e-06 1.98305e-07 -3.97943e-21 2.82775e-06 -8.77535e-22 3.1854e-06)
(3.3785e-06 1.39165e-07 -1.37713e-20 2.65515e-06 -1.02398e-21 3.01772e-06)
(3.17198e-06 6.9346e-08 -4.09313e-20 2.46195e-06 -3.03309e-21 2.81419e-06)
(3.43422e-06 3.24303e-07 -2.63044e-21 2.93575e-06 3.24399e-22 3.1851e-06)
(3.38171e-06 2.85308e-07 3.12596e-21 2.82514e-06 4.44331e-22 3.1035e-06)
(3.30377e-06 2.40867e-07 1.09256e-20 2.70146e-06 1.11071e-21 3.00287e-06)
(3.19399e-06 1.90242e-07 -3.06626e-21 2.5604e-06 -4.47823e-22 2.87698e-06)
(3.05485e-06 1.38988e-07 9.14661e-21 2.41021e-06 4.97634e-22 2.73338e-06)
(2.87903e-06 7.76109e-08 3.30242e-20 2.24027e-06 3.36628e-21 2.55696e-06)
(3.07931e-06 2.95979e-07 5.34582e-20 2.64376e-06 5.25822e-21 2.86164e-06)
(3.0352e-06 2.6283e-07 3.12527e-21 2.54765e-06 4.76632e-22 2.79148e-06)
(2.96962e-06 2.24935e-07 2.09777e-21 2.44016e-06 4.79802e-24 2.70511e-06)
(2.87701e-06 1.81485e-07 -1.95646e-20 2.31729e-06 -1.28832e-21 2.59694e-06)
(2.75987e-06 1.37196e-07 -3.30705e-20 2.18676e-06 -2.93907e-21 2.47411e-06)
(2.61049e-06 8.34425e-08 -5.84888e-21 2.03749e-06 -7.12646e-22 2.3214e-06)
(2.76042e-06 2.6986e-07 -1.68303e-20 2.38032e-06 -2.21099e-21 2.57045e-06)
(2.72332e-06 2.4172e-07 7.18122e-21 2.29683e-06 5.92305e-22 2.51012e-06)
(2.66815e-06 2.09472e-07 -8.05762e-21 2.20348e-06 -1.06745e-21 2.43602e-06)
(2.5901e-06 1.72272e-07 3.85653e-20 2.09657e-06 3.61599e-21 2.34312e-06)
(2.49154e-06 1.34107e-07 2.71265e-20 1.98317e-06 2.88494e-21 2.2381e-06)
(2.36484e-06 8.7191e-08 2.90203e-20 1.85223e-06 2.37845e-21 2.10606e-06)
(2.4926e-06 2.65915e-07 1.32906e-20 2.20738e-06 1.2621e-21 2.35004e-06)
(2.47424e-06 2.45839e-07 2.0613e-20 2.14294e-06 2.52827e-21 2.30866e-06)
(2.443e-06 2.21987e-07 -6.51754e-21 2.07044e-06 -8.33609e-22 2.25675e-06)
(2.39655e-06 1.94595e-07 -1.49733e-20 1.98938e-06 -1.38294e-21 2.19314e-06)
(2.33078e-06 1.62803e-07 -2.56259e-20 1.8964e-06 -2.81717e-21 2.11338e-06)
(2.24788e-06 1.30002e-07 -8.02108e-21 1.79792e-06 -8.5066e-22 2.0236e-06)
(2.14057e-06 8.91941e-08 -4.94536e-20 1.6832e-06 -5.0889e-21 1.90953e-06)
(2.2333e-06 2.4079e-07 -1.9731e-20 1.98537e-06 -2.1828e-21 2.10937e-06)
(2.21771e-06 2.23801e-07 1.48596e-20 1.92929e-06 1.10834e-21 2.07356e-06)
(2.19133e-06 2.03603e-07 -1.765e-20 1.86628e-06 -1.77297e-21 2.02883e-06)
(2.15219e-06 1.80366e-07 -3.98678e-21 1.79592e-06 -7.82294e-24 1.97422e-06)
(2.09676e-06 1.53253e-07 8.61195e-21 1.71508e-06 7.35077e-22 1.90572e-06)
(2.02699e-06 1.25124e-07 1.78821e-20 1.62955e-06 2.00559e-21 1.82893e-06)
(1.93621e-06 8.97417e-08 -6.78928e-21 1.52914e-06 1.97092e-23 1.73045e-06)
(2.00132e-06 2.17997e-07 1.45732e-20 1.78604e-06 2.02914e-21 1.89371e-06)
(1.98802e-06 2.03628e-07 -2.80446e-20 1.7372e-06 -3.10152e-21 1.86266e-06)
(1.96566e-06 1.86544e-07 -2.40721e-21 1.68242e-06 -2.12326e-22 1.82405e-06)
(1.9326e-06 1.66851e-07 3.69509e-20 1.6213e-06 3.63139e-21 1.77709e-06)
(1.88582e-06 1.43766e-07 -3.66882e-20 1.55101e-06 -3.75038e-21 1.71822e-06)
(1.82705e-06 1.19695e-07 1.74936e-20 1.4767e-06 1.7365e-21 1.65248e-06)
(1.75033e-06 8.91036e-08 2.17112e-20 1.38888e-06 1.81298e-21 1.5675e-06)
(1.79397e-06 1.97354e-07 2.36423e-20 1.60725e-06 2.57177e-21 1.70063e-06)
(1.78252e-06 1.85206e-07 2.17149e-22 1.56466e-06 2.62101e-22 1.67363e-06)
(1.76348e-06 1.70761e-07 2.83575e-21 1.51698e-06 4.02165e-22 1.64024e-06)
(1.73548e-06 1.54089e-07 -4.34335e-20 1.46384e-06 -4.761e-21 1.59978e-06)
(1.69592e-06 1.34455e-07 -1.30024e-21 1.40268e-06 -1.46287e-22 1.54912e-06)
(1.64634e-06 1.13891e-07 3.05676e-20 1.33806e-06 3.28431e-21 1.49277e-06)
(1.58153e-06 8.75132e-08 -6.05103e-20 1.26133e-06 -6.33252e-21 1.41946e-06)
(1.60874e-06 1.78683e-07 5.89091e-21 1.44699e-06 5.22279e-22 1.52789e-06)
(1.59881e-06 1.68414e-07 -7.97452e-21 1.4098e-06 -7.4104e-22 1.50434e-06)
(1.58252e-06 1.56204e-07 -4.47145e-21 1.36824e-06 -5.7222e-22 1.47538e-06)
(1.5587e-06 1.42099e-07 1.20495e-20 1.32199e-06 1.72723e-21 1.44046e-06)
(1.52519e-06 1.25419e-07 -2.16464e-20 1.26874e-06 -2.31662e-21 1.39678e-06)
(1.48322e-06 1.0788e-07 2.38667e-20 1.21248e-06 2.39114e-21 1.34838e-06)
(1.42849e-06 8.51881e-08 -1.05524e-20 1.14544e-06 -7.83243e-22 1.28513e-06)
(1.44323e-06 1.61794e-07 3.21218e-21 1.30331e-06 1.94778e-22 1.37328e-06)
(1.43457e-06 1.5312e-07 1.72232e-20 1.2708e-06 1.98512e-21 1.35272e-06)
(1.42057e-06 1.42805e-07 -1.56671e-21 1.23455e-06 -9.68151e-23 1.32756e-06)
(1.40024e-06 1.30883e-07 1.0178e-20 1.19425e-06 7.28705e-22 1.29735e-06)
(1.37177e-06 1.16725e-07 -2.93472e-21 1.14784e-06 -3.7741e-22 1.25963e-06)
(1.33615e-06 1.01785e-07 2.37896e-20 1.0988e-06 2.49852e-21 1.21797e-06)
(1.28994e-06 8.23081e-08 -2.59338e-20 1.04026e-06 -2.60679e-21 1.16339e-06)
(1.29506e-06 1.4648e-07 -1.12579e-20 1.17418e-06 -1.42504e-21 1.23463e-06)
(1.28752e-06 1.3916e-07 6.4045e-21 1.1458e-06 6.17506e-22 1.21668e-06)
(1.27548e-06 1.30459e-07 8.17589e-21 1.11419e-06 9.11386e-22 1.19483e-06)
(1.25812e-06 1.20393e-07 -4.07731e-20 1.07911e-06 -4.43574e-21 1.1687e-06)
(1.2339e-06 1.08398e-07 -2.86389e-20 1.03868e-06 -3.19796e-21 1.13613e-06)
(1.20362e-06 9.56949e-08 1.92552e-20 9.95917e-07 1.86686e-21 1.10022e-06)
(1.16463e-06 7.90203e-08 -2.43607e-21 9.44849e-07 -2.10486e-22 1.05315e-06)
(1.16522e-06 1.37624e-07 1.19893e-21 1.08007e-06 2.48051e-22 1.12265e-06)
(1.16196e-06 1.32532e-07 -1.35458e-20 1.05767e-06 -1.37884e-21 1.10982e-06)
(1.15543e-06 1.26366e-07 9.38894e-21 1.03295e-06 9.07286e-22 1.09421e-06)
(1.14513e-06 1.19039e-07 -1.44592e-20 1.00547e-06 -1.76383e-21 1.07529e-06)
(1.13034e-06 1.1056e-07 1.01379e-21 9.74993e-07 2.89643e-22 1.05275e-06)
(1.10979e-06 1.00418e-07 -5.56622e-21 9.39846e-07 -3.20247e-22 1.02466e-06)
(1.08403e-06 8.96421e-08 3.65131e-21 9.02598e-07 2.04525e-22 9.9373e-07)
(1.05125e-06 7.54132e-08 -1.22339e-20 8.58176e-07 -1.12341e-21 9.53244e-07)
(1.04512e-06 1.24101e-07 8.25806e-21 9.71895e-07 9.64213e-22 1.00852e-06)
(1.04221e-06 1.19802e-07 2.22622e-20 9.52321e-07 2.63692e-21 9.97276e-07)
(1.03656e-06 1.14607e-07 -1.91723e-20 9.3079e-07 -2.16718e-21 9.83695e-07)
(1.02775e-06 1.08441e-07 -2.0673e-20 9.06927e-07 -2.13134e-21 9.67333e-07)
(1.01517e-06 1.01305e-07 -7.31578e-21 8.805e-07 -9.62243e-22 9.4791e-07)
(9.97774e-07 9.27461e-08 2.17993e-20 8.50024e-07 2.45218e-21 9.2376e-07)
(9.75903e-07 8.36288e-08 -1.66267e-20 8.17664e-07 -1.90388e-21 8.97169e-07)
(9.48494e-07 7.15338e-08 2.95892e-20 7.79195e-07 3.24994e-21 8.62492e-07)
(9.37313e-07 1.11872e-07 7.33404e-21 8.74471e-07 9.04068e-22 9.05897e-07)
(9.34616e-07 1.08229e-07 -1.02164e-20 8.57264e-07 -1.31485e-21 8.95942e-07)
(9.29635e-07 1.03839e-07 -1.21662e-21 8.38428e-07 -9.33466e-23 8.84042e-07)
(9.22025e-07 9.86384e-08 2.52758e-20 8.17632e-07 3.06376e-21 8.69817e-07)
(9.1128e-07 9.26255e-08 -1.49821e-20 7.94674e-07 -1.85522e-21 8.53037e-07)
(8.96527e-07 8.54008e-08 -5.14221e-21 7.68241e-07 -4.87108e-22 8.3225e-07)
(8.77948e-07 7.76866e-08 -1.5897e-20 7.40138e-07 -1.58864e-21 8.0939e-07)
(8.55095e-07 6.74296e-08 3.29035e-21 7.06915e-07 2.15177e-22 7.79764e-07)
(8.4112e-07 1.00896e-07 1.37614e-20 7.87315e-07 1.50549e-21 8.14233e-07)
(8.38482e-07 9.77886e-08 -6.97036e-21 7.72038e-07 -7.4589e-22 8.05272e-07)
(8.33944e-07 9.40587e-08 3.75135e-21 7.55404e-07 3.67079e-22 7.94692e-07)
(8.2723e-07 8.96523e-08 1.79647e-20 7.37142e-07 2.08899e-21 7.82185e-07)
(8.17922e-07 8.45667e-08 -5.795e-20 7.17075e-07 -6.47919e-21 7.6756e-07)
(8.05301e-07 7.84509e-08 4.12078e-20 6.94042e-07 4.4773e-21 7.49556e-07)
(7.89441e-07 7.19109e-08 1.65103e-20 6.6957e-07 1.91462e-21 7.29828e-07)
(7.7041e-07 6.32215e-08 3.81872e-21 6.40908e-07 3.29462e-22 7.04542e-07)
(7.55122e-07 9.10528e-08 -1.55156e-20 7.09346e-07 -1.92917e-21 7.32221e-07)
(7.52395e-07 8.83882e-08 1.23448e-21 6.95614e-07 1.71716e-22 7.23997e-07)
(7.48079e-07 8.5199e-08 -6.80764e-21 6.80736e-07 -7.35936e-22 7.14406e-07)
(7.41975e-07 8.14426e-08 1.57083e-20 6.64506e-07 1.70023e-21 7.0322e-07)
(7.33704e-07 7.71172e-08 1.05146e-20 6.46761e-07 1.41354e-21 6.90273e-07)
(7.22686e-07 7.19111e-08 -6.86735e-21 6.26472e-07 -7.68786e-22 6.74456e-07)
(7.08929e-07 6.63337e-08 -7.56781e-21 6.04947e-07 -9.43777e-22 6.57211e-07)
(6.92878e-07 5.89438e-08 -1.23787e-20 5.8002e-07 -1.31623e-21 6.35419e-07)
(6.81281e-07 8.25898e-08 -9.70282e-21 6.42422e-07 -1.1094e-21 6.61861e-07)
(6.78594e-07 8.03151e-08 1.11828e-21 6.30139e-07 1.73613e-22 6.54376e-07)
(6.7453e-07 7.75952e-08 2.36046e-20 6.16844e-07 2.63659e-21 6.457e-07)
(6.68949e-07 7.43923e-08 -1.2627e-22 6.0237e-07 1.20037e-23 6.35647e-07)
(6.61524e-07 7.07056e-08 -1.80724e-20 5.86583e-07 -2.11807e-21 6.24089e-07)
(6.51686e-07 6.62575e-08 3.70553e-20 5.685e-07 4.22408e-21 6.09982e-07)
(6.39513e-07 6.14737e-08 -7.03552e-21 5.49319e-07 -8.57675e-22 5.94648e-07)
(6.25559e-07 5.51413e-08 2.31954e-20 5.27213e-07 2.6728e-21 5.75452e-07)
(6.22699e-07 7.57553e-08 -1.87176e-20 5.88736e-07 -2.14346e-21 6.0577e-07)
(6.20066e-07 7.37639e-08 2.01419e-20 5.77605e-07 2.34899e-21 5.98903e-07)
(6.16263e-07 7.13933e-08 -3.31617e-20 5.65616e-07 -3.9658e-21 5.9102e-07)
(6.11154e-07 6.86133e-08 8.53638e-21 5.52615e-07 9.96249e-22 5.81956e-07)
(6.04408e-07 6.5413e-08 1.07688e-20 5.38427e-07 1.26594e-21 5.71545e-07)
(5.9547e-07 6.15377e-08 9.48366e-21 5.221e-07 8.25659e-22 5.58794e-07)
(5.84455e-07 5.73668e-08 -2.9873e-20 5.04769e-07 -3.16597e-21 5.44967e-07)
(5.72912e-07 5.19283e-08 1.56761e-20 4.85611e-07 1.53177e-21 5.28579e-07)
(5.7403e-07 7.13103e-08 3.82617e-21 5.52148e-07 4.73033e-22 5.62944e-07)
(5.72316e-07 6.98761e-08 1.05768e-20 5.42649e-07 1.33405e-21 5.57407e-07)
(5.69244e-07 6.80537e-08 -4.17973e-21 5.31985e-07 -4.76041e-22 5.50545e-07)
(5.6525e-07 6.59122e-08 -6.52767e-21 5.20665e-07 -6.97453e-22 5.42874e-07)
(5.60244e-07 6.34358e-08 1.75089e-20 5.08603e-07 1.97513e-21 5.34306e-07)
(5.53825e-07 6.06064e-08 -1.06873e-20 4.95546e-07 -1.22915e-21 5.24598e-07)
(5.45535e-07 5.71971e-08 -3.53739e-20 4.80638e-07 -4.04566e-21 5.12866e-07)
(5.35177e-07 5.35094e-08 4.11091e-20 4.64633e-07 4.76624e-21 4.99965e-07)
(5.25022e-07 4.87798e-08 -2.25393e-20 4.47524e-07 -2.6349e-21 4.85323e-07)
(5.29693e-07 6.59408e-08 1.07537e-21 5.10558e-07 1.1292e-22 5.20112e-07)
(5.27642e-07 6.46196e-08 -3.2023e-21 5.01495e-07 -5.21024e-22 5.14705e-07)
(5.24285e-07 6.29333e-08 2.33204e-20 4.91256e-07 2.72225e-21 5.07973e-07)
(5.20102e-07 6.09478e-08 -1.28707e-20 4.80376e-07 -1.43198e-21 5.0045e-07)
(5.15021e-07 5.86633e-08 -9.05042e-21 4.68849e-07 -1.14551e-21 4.92134e-07)
(5.08663e-07 5.60674e-08 -4.22479e-21 4.56452e-07 -4.47492e-22 4.82807e-07)
(5.007e-07 5.2979e-08 3.00342e-20 4.42501e-07 3.52141e-21 4.71769e-07)
(4.91096e-07 4.9683e-08 -1.03036e-20 4.27806e-07 -1.01799e-21 4.59947e-07)
(4.82896e-07 4.56561e-08 -2.01036e-20 4.1325e-07 -2.43772e-21 4.47779e-07)
(4.82993e-07 6.03676e-08 -2.86483e-22 4.67633e-07 -2.96977e-23 4.74806e-07)
(4.80268e-07 5.91778e-08 -2.12127e-20 4.58936e-07 -2.56391e-21 4.69216e-07)
(4.76438e-07 5.76794e-08 -1.82082e-20 4.49194e-07 -2.13707e-21 4.62459e-07)
(4.71924e-07 5.59208e-08 6.46874e-21 4.38848e-07 8.07032e-22 4.54982e-07)
(4.66653e-07 5.39074e-08 -4.96508e-21 4.27933e-07 -6.26844e-22 4.46831e-07)
(4.60261e-07 5.16214e-08 1.21883e-20 4.16216e-07 1.54063e-21 4.37789e-07)
(4.52361e-07 4.88755e-08 -2.43804e-20 4.02952e-07 -3.16418e-21 4.27081e-07)
(4.42436e-07 4.58315e-08 7.58253e-20 3.8838e-07 8.9257e-21 4.14992e-07)
(4.32799e-07 4.20131e-08 -3.77803e-20 3.7303e-07 -4.35531e-21 4.0159e-07)
(4.45967e-07 5.57235e-08 -4.28878e-22 4.31442e-07 -9.74997e-24 4.39161e-07)
(4.43483e-07 5.46208e-08 -1.97518e-20 4.23432e-07 -2.29725e-21 4.34178e-07)
(4.39927e-07 5.32221e-08 4.16312e-20 4.14389e-07 4.92274e-21 4.28017e-07)
(4.3563e-07 5.15635e-08 2.53659e-21 4.04666e-07 3.07659e-22 4.21032e-07)
(4.30498e-07 4.96612e-08 -2.38763e-20 3.94338e-07 -2.66598e-21 4.13303e-07)
(4.24319e-07 4.75232e-08 2.78173e-20 3.83331e-07 3.14141e-21 4.0478e-07)
(4.16964e-07 4.50489e-08 -5.31798e-20 3.71262e-07 -6.19871e-21 3.9509e-07)
(4.08882e-07 4.24909e-08 4.88443e-20 3.59153e-07 5.43624e-21 3.85418e-07)
(4.03987e-07 3.96823e-08 -5.76261e-20 3.49034e-07 -6.41363e-21 3.77524e-07)
(3.92435e-07 4.94942e-08 5.01736e-21 3.84684e-07 6.02826e-22 3.86869e-07)
(3.88735e-07 4.85464e-08 1.39956e-20 3.76794e-07 1.7659e-21 3.81177e-07)
(3.8435e-07 4.73909e-08 -1.99681e-20 3.68145e-07 -2.49402e-21 3.74663e-07)
(3.79574e-07 4.6048e-08 -1.21367e-20 3.59016e-07 -1.51675e-21 3.67612e-07)
(3.74274e-07 4.45249e-08 5.92948e-20 3.4945e-07 7.10945e-21 3.60079e-07)
(3.6802e-07 4.27845e-08 -3.90635e-20 3.39124e-07 -4.50932e-21 3.51743e-07)
(3.60253e-07 4.06084e-08 -3.36153e-20 3.27064e-07 -3.90265e-21 3.41583e-07)
(3.4972e-07 3.79641e-08 1.25074e-20 3.12634e-07 1.27154e-21 3.28892e-07)
(3.38262e-07 3.45882e-08 2.04859e-20 2.96601e-07 2.53716e-21 3.14126e-07)
(3.77668e-07 4.70385e-08 2.78347e-21 3.64102e-07 3.11634e-22 3.7344e-07)
(3.75052e-07 4.60017e-08 4.68383e-21 3.56898e-07 5.47374e-22 3.68929e-07)
(3.71471e-07 4.47125e-08 -1.29555e-20 3.48765e-07 -1.45045e-21 3.63308e-07)
(3.67162e-07 4.31903e-08 9.03354e-22 3.39931e-07 1.17848e-22 3.56805e-07)