/*--------------------------------*- C++ -*----------------------------------*\
| =========                 |                                                 |
| \\      /  F ield         | OpenFOAM: The Open Source CFD Toolbox           |
|  \\    /   O peration     | Version:  2506                                  |
|   \\  /    A nd           | Website:  www.openfoam.com                      |
|    \\/     M anipulation  |                                                 |
\*---------------------------------------------------------------------------*/
FoamFile
{
    version     2.0;
    format      ascii;
    arch        "LSB;label=32;scalar=64";
    class       volSymmTensorField;
    location    "500";
    object      turbulenceProperties:devReff;
}
// * * * * * * * * * * * * * * * * * * * * * * * * * * * * * * * * * * * * * //

dimensions      [0 2 -2 0 0 0 0];

internalField   nonuniform List<symmTensor> 
1340
(
(-2.43555 -7.22763 1.22006e-15 2.42454 1.14397e-15 0.0110157)
(-2.07424 -5.67395 -1.22408e-16 2.06079 -5.25111e-16 0.0134416)
(-1.58674 -4.17201 -1.51872e-15 1.58502 -2.43789e-17 0.00171564)
(-0.472665 -0.926862 -1.88626e-16 0.473456 -1.90337e-15 -0.000791731)
(-0.781611 -2.74353 3.42274e-15 0.802099 -4.99334e-15 -0.0204881)
(-0.730884 -2.43229 -1.50362e-15 0.744258 1.52305e-15 -0.0133736)
(-0.560385 -2.13708 3.24927e-15 0.595677 4.02271e-16 -0.0352921)
(-0.787265 -2.25517 5.3629e-15 0.698308 7.29136e-15 0.0889566)
(-0.878563 -3.52388 -1.43663e-14 0.88154 5.2036e-16 -0.00297745)
(-0.798626 -3.05354 4.9583e-15 0.797706 -1.62567e-15 0.000920037)
(-0.531499 -2.55647 5.13623e-15 0.547582 -1.52187e-15 -0.0160832)
(-0.843918 -2.81463 -1.0022e-14 0.825915 2.90318e-15 0.0180033)
(-0.792841 -3.6504 4.79343e-15 0.790307 4.89484e-15 0.00253356)
(-0.801239 -3.42062 -1.01675e-14 0.796559 -1.30324e-16 0.00468059)
(-0.573882 -3.01937 -1.30263e-14 0.58423 1.88158e-15 -0.0103484)
(-0.814649 -3.21248 9.21219e-15 0.786311 -3.43378e-15 0.0283383)
(-0.400646 -2.39891 -9.95974e-16 0.401358 4.27487e-16 -0.000711566)
(-0.585944 -2.9637 -1.75003e-15 0.581982 3.98548e-15 0.00396226)
(-0.525448 -3.08569 6.73223e-16 0.53608 2.44231e-16 -0.0106325)
(-0.773255 -3.40208 -1.72599e-14 0.735766 4.31262e-15 0.0374889)
(-0.0172743 -0.555938 2.80838e-15 0.0188905 -1.65235e-15 -0.00161615)
(-0.202912 -1.53951 1.02196e-14 0.202119 -1.62746e-15 0.000793564)
(-0.331902 -2.48027 5.21564e-16 0.342223 -9.15625e-17 -0.0103212)
(-0.674456 -3.25967 3.62081e-15 0.638148 -3.4117e-15 0.0363085)
(0.0293647 0.0246194 -1.26768e-15 -0.0293237 3.22956e-16 -4.09426e-05)
(0.0319524 -0.252929 -1.31416e-15 -0.032682 -8.03821e-16 0.000729578)
(-0.0702972 -1.27411 1.1711e-15 0.0779326 -2.6711e-16 -0.00763538)
(-0.474547 -2.62771 3.10443e-15 0.444091 -8.9994e-16 0.0304565)
(0.00843056 0.013844 3.32877e-16 -0.00841817 8.23487e-18 -1.23836e-05)
(0.0218009 0.0200264 -3.91978e-16 -0.0220933 1.32698e-16 0.000292375)
(0.0620964 -0.283508 -1.8703e-15 -0.0589709 3.43716e-16 -0.00312551)
(-0.2168 -1.58479 9.83787e-15 0.193458 -5.716e-16 0.0233418)
(1.14782e-05 8.02358e-06 -2.22833e-19 -1.14319e-05 -9.52587e-20 -4.63139e-08)
(0.00570893 0.00735331 8.65782e-17 -0.00578526 -7.40101e-18 7.63287e-05)
(0.0395829 0.00321961 1.8715e-15 -0.0386376 -2.27072e-16 -0.000945364)
(-0.0285935 -0.635825 -4.58047e-15 0.0126074 1.4941e-15 0.0159861)
(9.172e-06 -3.20396e-06 1.0468e-19 -9.1197e-06 5.19399e-20 -5.22986e-08)
(3.59365e-05 1.18208e-05 -6.91773e-19 -3.65738e-05 1.02124e-19 6.37342e-07)
(0.00400245 0.00287131 -6.14714e-17 -0.00389425 2.66105e-18 -0.000108197)
(0.0323961 -0.162701 -3.52664e-15 -0.0413655 1.5116e-16 0.00896941)
(8.92077e-06 -3.75029e-06 7.08047e-20 -8.86734e-06 -1.03572e-20 -5.34249e-08)
(7.49403e-06 -5.22405e-06 2.38809e-19 -7.62804e-06 1.66186e-20 1.3401e-07)
(0.00147971 0.000528806 -1.01212e-17 -0.00143255 1.99409e-18 -4.71608e-05)
(0.0253794 -0.0325551 5.76431e-16 -0.0292228 -2.59095e-16 0.00384343)
(9.05566e-06 -1.52198e-06 8.26407e-20 -9.01191e-06 -8.45645e-20 -4.37502e-08)
(7.63594e-06 -5.63359e-06 1.49056e-19 -7.74688e-06 -4.64351e-20 1.10944e-07)
(0.000241947 -7.48718e-05 1.31818e-18 -0.000233632 -2.3271e-19 -8.3158e-06)
(0.0104938 -0.0094518 6.08116e-16 -0.0118353 -1.79188e-17 0.00134144)
(1.11982e-05 -5.04548e-07 -4.31054e-19 -1.11524e-05 1.19979e-19 -4.58698e-08)
(8.02852e-06 -3.65424e-06 -1.00292e-20 -8.13577e-06 -4.39594e-20 1.07247e-07)
(6.21923e-05 -4.03584e-05 -1.61836e-18 -6.01259e-05 1.25739e-19 -2.06634e-06)
(0.00315423 -0.00356818 -2.21972e-16 -0.00354795 2.18948e-17 0.000393714)
(1.77804e-05 -6.71559e-07 9.6705e-19 -1.77116e-05 -7.91355e-20 -6.87933e-08)
(8.06993e-06 -2.41866e-06 -2.50453e-19 -8.17358e-06 3.97626e-20 1.03648e-07)
(8.27594e-06 -5.18065e-06 -8.79089e-20 -8.03222e-06 2.50111e-20 -2.4372e-07)
(0.000715766 -0.000990841 6.44844e-17 -0.000802333 -6.08429e-18 8.65666e-05)
(1.63089e-05 -9.39695e-07 -7.14865e-19 -1.62492e-05 -7.43501e-20 -5.96633e-08)
(9.69398e-06 -2.64249e-06 1.56836e-19 -9.81049e-06 1.48882e-20 1.16503e-07)
(7.17556e-06 -3.81989e-06 3.38353e-19 -6.99219e-06 -3.90846e-20 -1.83368e-07)
(4.63627e-05 -6.78553e-05 -5.00603e-18 -5.15376e-05 5.5531e-19 5.17488e-06)
(1.3507e-05 -8.90567e-07 7.14952e-20 -1.34621e-05 9.80532e-20 -4.49037e-08)
(1.4899e-05 -4.32607e-06 -2.99836e-20 -1.50625e-05 -2.68345e-20 1.63453e-07)
(6.93632e-06 -3.41756e-06 -3.50431e-19 -6.78142e-06 1.95613e-20 -1.54898e-07)
(5.84529e-06 -8.30495e-06 1.80731e-19 -6.42841e-06 -3.6966e-20 5.83121e-07)
(1.21857e-05 -7.66774e-07 1.0989e-19 -1.21493e-05 -8.39494e-21 -3.6448e-08)
(1.62226e-05 -4.92877e-06 -9.71335e-20 -1.6384e-05 3.294e-21 1.6138e-07)
(6.62897e-06 -3.31777e-06 2.04761e-20 -6.50019e-06 1.60996e-20 -1.28778e-07)
(5.17933e-06 -7.0254e-06 -1.22338e-19 -5.6357e-06 9.22186e-21 4.56375e-07)
(1.18369e-05 -6.6879e-07 3.53415e-20 -1.18056e-05 -5.03139e-20 -3.13351e-08)
(1.38361e-05 -4.20471e-06 -7.28855e-20 -1.39597e-05 2.86206e-20 1.23675e-07)
(7.33513e-06 -3.83013e-06 3.13984e-19 -7.21089e-06 -1.60239e-20 -1.24238e-07)
(4.8879e-06 -6.41476e-06 1.58991e-19 -5.26655e-06 -1.87307e-20 3.78646e-07)
(1.17672e-05 -5.88914e-07 -2.89747e-19 -1.174e-05 1.74909e-20 -2.72026e-08)
(1.16415e-05 -3.45498e-06 1.62463e-19 -1.17342e-05 -8.85516e-21 9.27647e-08)
(1.01531e-05 -5.46675e-06 2.80818e-19 -1.00056e-05 -3.22504e-20 -1.47557e-07)
(4.64314e-06 -5.97094e-06 4.14804e-19 -4.95817e-06 -1.83619e-20 3.15032e-07)
(1.15913e-05 -5.05285e-07 3.08276e-20 -1.15684e-05 3.06149e-20 -2.29269e-08)
(1.05367e-05 -3.03389e-06 -3.6986e-20 -1.06115e-05 -1.86151e-20 7.47247e-08)
(1.06445e-05 -5.81021e-06 -9.62862e-20 -1.05149e-05 -1.86137e-20 -1.2952e-07)
(5.06544e-06 -6.40377e-06 -3.64687e-20 -5.36388e-06 1.17546e-20 2.98438e-07)
(1.12393e-05 -4.08848e-07 -9.70789e-21 -1.12203e-05 -1.91168e-20 -1.89651e-08)
(1.00506e-05 -2.80236e-06 -1.33293e-19 -1.01131e-05 2.06671e-20 6.24813e-08)
(9.66041e-06 -5.28125e-06 -4.5746e-19 -9.56332e-06 3.20275e-20 -9.70807e-08)
(5.96671e-06 -7.39011e-06 -2.59321e-19 -6.26954e-06 1.1465e-20 3.02827e-07)
(1.07879e-05 -3.0316e-07 -1.48606e-19 -1.0773e-05 3.59528e-20 -1.49742e-08)
(9.74882e-06 -2.62389e-06 1.39847e-19 -9.80122e-06 -7.49283e-21 5.24052e-08)
(8.71546e-06 -4.73712e-06 1.16706e-19 -8.64408e-06 4.06462e-21 -7.1378e-08)
(6.23674e-06 -7.53368e-06 -1.55033e-19 -6.50605e-06 4.25119e-21 2.69307e-07)
(1.03104e-05 -1.9279e-07 2.94756e-19 -1.02989e-05 -2.09715e-21 -1.1491e-08)
(9.42994e-06 -2.43668e-06 -1.41921e-19 -9.47368e-06 2.89828e-21 4.37381e-08)
(8.08927e-06 -4.34507e-06 -9.65749e-20 -8.03709e-06 4.43779e-21 -5.21819e-08)
(6.00484e-06 -7.03793e-06 3.40113e-19 -6.22395e-06 -1.23039e-20 2.19105e-07)
(9.83624e-06 -8.03256e-08 -4.20841e-20 -9.82744e-06 -2.98369e-20 -8.80125e-09)
(9.0526e-06 -2.23101e-06 7.48184e-20 -9.08832e-06 -6.57804e-21 3.57164e-08)
(7.6556e-06 -4.04108e-06 1.33498e-19 -7.61786e-06 -9.92515e-21 -3.77398e-08)
(5.65387e-06 -6.40509e-06 -2.19329e-19 -5.8265e-06 9.1592e-21 1.72632e-07)
(9.36903e-06 3.25878e-08 -4.69519e-20 -9.36291e-06 -1.63761e-21 -6.12499e-09)
(8.63954e-06 -2.01393e-06 -1.92409e-19 -8.66813e-06 8.07046e-21 2.85907e-08)
(7.29338e-06 -3.75932e-06 -2.21746e-19 -7.26697e-06 1.39094e-20 -2.64148e-08)
(5.33562e-06 -5.81798e-06 2.46955e-19 -5.47042e-06 -6.6277e-21 1.34795e-07)
(8.90388e-06 1.44639e-07 -8.93971e-20 -8.89977e-06 1.27892e-20 -4.10734e-09)
(8.21505e-06 -1.79489e-06 1.00559e-19 -8.2373e-06 2.32865e-20 2.22543e-08)
(6.94654e-06 -3.47387e-06 3.35784e-19 -6.92874e-06 -1.44163e-22 -1.78016e-08)
(5.06428e-06 -5.29505e-06 -2.41298e-19 -5.16805e-06 5.33759e-21 1.03762e-07)
(8.4389e-06 2.55551e-07 9.37262e-20 -8.43633e-06 9.18029e-21 -2.57921e-09)
(7.79216e-06 -1.57768e-06 2.83592e-19 -7.80945e-06 -1.98169e-20 1.72923e-08)
(6.603e-06 -3.18066e-06 2.07807e-20 -6.59196e-06 -8.21726e-21 -1.10414e-08)
(4.82427e-06 -4.81657e-06 1.30242e-19 -4.90315e-06 -3.01987e-21 7.88848e-08)
(7.97456e-06 3.62153e-07 7.71852e-20 -7.97361e-06 -1.59267e-20 -9.40524e-10)
(7.37364e-06 -1.36604e-06 -1.64204e-19 -7.387e-06 -1.73246e-20 1.33541e-08)
(6.26373e-06 -2.88595e-06 4.00861e-20 -6.25811e-06 -7.73579e-21 -5.62498e-09)
(4.60279e-06 -4.36984e-06 -2.4661e-19 -4.66246e-06 2.85716e-21 5.96775e-08)
(7.51215e-06 4.64792e-07 -1.37878e-19 -7.51199e-06 6.26747e-21 -1.6378e-10)
(6.96031e-06 -1.15931e-06 -1.10204e-19 -6.97008e-06 1.52812e-20 9.775e-09)
(5.93125e-06 -2.59357e-06 -2.1423e-19 -5.92922e-06 4.37112e-21 -2.03488e-09)
(4.39303e-06 -3.94905e-06 1.59637e-19 -4.43755e-06 -3.95871e-21 4.45203e-08)
(7.05444e-06 5.6151e-07 1.53926e-19 -7.05486e-06 -2.72747e-21 4.23258e-10)
(6.55289e-06 -9.60971e-07 1.22139e-19 -6.55999e-06 -3.78572e-21 7.09692e-09)
(5.60683e-06 -2.30818e-06 1.04061e-19 -5.60759e-06 -1.9465e-21 7.59627e-10)
(4.19282e-06 -3.55221e-06 -3.57009e-19 -4.22613e-06 5.94071e-21 3.33061e-08)
(6.6036e-06 6.50732e-07 -1.82947e-19 -6.60479e-06 -4.68098e-21 1.18809e-09)
(6.15283e-06 -7.70792e-07 -1.8426e-19 -6.15781e-06 -7.12216e-22 4.98309e-09)
(5.2901e-06 -2.03174e-06 -2.69745e-19 -5.29229e-06 3.41803e-22 2.19264e-09)
(3.99964e-06 -3.17911e-06 5.68441e-19 -4.02416e-06 4.95589e-21 2.452e-08)
(6.16112e-06 7.31784e-07 9.07376e-20 -6.16257e-06 1.34543e-20 1.45159e-09)
(5.76122e-06 -5.91432e-07 1.24949e-19 -5.76485e-06 1.52535e-21 3.63431e-09)
(4.98173e-06 -1.76666e-06 1.57922e-19 -4.98519e-06 1.18747e-20 3.45561e-09)
(3.81241e-06 -2.82817e-06 -2.28047e-19 -3.83013e-06 -8.81044e-21 1.7719e-08)
(5.72929e-06 8.03953e-07 4.7705e-20 -5.73094e-06 -7.38027e-21 1.6472e-09)
(5.3789e-06 -4.23283e-07 -1.69485e-19 -5.38114e-06 -5.44151e-21 2.24578e-09)
(4.6809e-06 -1.51525e-06 6.24172e-20 -4.68496e-06 -1.2284e-20 4.06181e-09)
(3.62967e-06 -2.4997e-06 9.54925e-20 -3.64245e-06 4.26639e-21 1.2778e-08)
(5.35103e-06 1.98543e-06 -1.85805e-19 -5.35251e-06 9.37526e-21 1.47687e-09)
(5.30985e-06 8.66248e-07 -7.58432e-20 -5.31167e-06 -8.66217e-21 1.82142e-09)
(5.00764e-06 -2.67307e-07 5.4373e-20 -5.009e-06 1.57224e-20 1.36142e-09)
(4.38796e-06 -1.27828e-06 -2.58339e-19 -4.39206e-06 -1.21454e-21 4.10018e-09)
(3.45009e-06 -2.19303e-06 -6.55551e-20 -3.45886e-06 4.89972e-22 8.77236e-09)
(4.9196e-06 1.94658e-06 2.08257e-19 -4.92102e-06 1.39505e-20 1.42779e-09)
(4.9044e-06 9.18446e-07 -8.38591e-20 -4.90612e-06 5.18835e-21 1.71897e-09)
(4.64833e-06 -1.24741e-07 2.18028e-19 -4.64918e-06 6.25574e-22 8.55162e-10)
(4.10352e-06 -1.05736e-06 1.73111e-19 -4.10765e-06 1.15601e-20 4.13293e-09)
(3.27315e-06 -1.90762e-06 1.97792e-19 -3.27885e-06 5.88805e-21 5.70368e-09)
(4.50657e-06 1.89962e-06 -5.18682e-20 -4.50785e-06 -1.0671e-20 1.28269e-09)
(4.51465e-06 9.60082e-07 9.76569e-20 -4.51638e-06 6.07069e-21 1.72748e-09)
(4.30182e-06 4.16909e-09 -5.88284e-20 -4.30226e-06 -1.3698e-20 4.32437e-10)
(3.82771e-06 -8.53381e-07 -4.82136e-21 -3.83174e-06 -7.48567e-21 4.03713e-09)
(3.09842e-06 -1.64344e-06 -7.95083e-20 -3.10178e-06 -9.78621e-21 3.36488e-09)
(4.11354e-06 1.8452e-06 3.0235e-20 -4.11467e-06 -4.32157e-22 1.13185e-09)
(4.14173e-06 9.91224e-07 -1.35822e-20 -4.14342e-06 -3.19898e-21 1.68631e-09)
(3.96905e-06 1.19053e-07 -1.44683e-19 -3.96916e-06 1.92697e-21 1.04068e-10)
(3.56088e-06 -6.66763e-07 -9.22519e-20 -3.56469e-06 -6.44599e-21 3.81074e-09)
(2.92564e-06 -1.40017e-06 -2.10201e-19 -2.92709e-06 -4.79034e-21 1.45174e-09)
(3.74169e-06 1.78421e-06 -9.682e-20 -3.74277e-06 -7.74468e-22 1.08148e-09)
(3.78683e-06 1.01227e-06 1.9686e-20 -3.7884e-06 -8.24467e-22 1.569e-09)
(3.65085e-06 2.19865e-07 1.43681e-19 -3.65075e-06 6.29638e-21 -1.03173e-10)
(3.30347e-06 -4.97729e-07 -1.20754e-19 -3.30699e-06 -3.21829e-21 3.52768e-09)
(2.75496e-06 -1.17733e-06 7.36792e-20 -2.75491e-06 5.91307e-21 -4.45211e-11)
(3.39179e-06 1.71756e-06 1.43795e-19 -3.3928e-06 1.37682e-20 1.00379e-09)
(3.45085e-06 1.02334e-06 -3.62087e-20 -3.45233e-06 1.66959e-21 1.48055e-09)
(3.34788e-06 3.06636e-07 -1.41423e-19 -3.3477e-06 -7.73593e-21 -1.82993e-10)
(3.05602e-06 -3.46236e-07 -2.82138e-20 -3.05931e-06 7.25027e-21 3.29653e-09)
(2.58664e-06 -9.74658e-07 -1.87831e-20 -2.58536e-06 -8.28699e-22 -1.27838e-09)
(3.06437e-06 1.64631e-06 7.11164e-20 -3.06526e-06 -3.21592e-21 8.87248e-10)
(3.13436e-06 1.02519e-06 9.74608e-20 -3.13572e-06 6.56855e-21 1.3664e-09)
(3.06055e-06 3.79749e-07 1.12836e-19 -3.06027e-06 7.87208e-21 -2.803e-10)
(2.81883e-06 -2.12062e-07 2.65094e-19 -2.82191e-06 1.07011e-20 3.08052e-09)
(2.42115e-06 -7.91414e-07 9.02712e-20 -2.4189e-06 6.42159e-21 -2.24411e-09)
(2.75968e-06 1.57139e-06 -5.7361e-20 -2.76048e-06 -7.83731e-21 7.90607e-10)
(2.83777e-06 1.01849e-06 5.59956e-21 -2.83905e-06 -6.30087e-21 1.28499e-09)
(2.78935e-06 4.39866e-07 -5.73626e-20 -2.789e-06 -6.18863e-21 -3.45257e-10)
(2.59231e-06 -9.46487e-08 -1.08047e-19 -2.59516e-06 -1.38638e-20 2.85032e-09)
(2.25889e-06 -6.27277e-07 6.29769e-20 -2.25585e-06 1.61865e-21 -3.04739e-09)
(2.47761e-06 1.49383e-06 -7.69542e-20 -2.47832e-06 -2.33531e-21 7.12813e-10)
(2.56122e-06 1.00405e-06 -1.43838e-19 -2.56241e-06 -7.32147e-21 1.19074e-09)
(2.53446e-06 4.87525e-07 -2.14858e-20 -2.53411e-06 2.12841e-21 -3.50453e-10)
(2.37683e-06 6.70878e-09 -8.85082e-20 -2.37951e-06 -2.89993e-21 2.67754e-09)
(2.10059e-06 -4.81018e-07 -2.67408e-21 -2.09692e-06 -4.14502e-21 -3.66986e-09)
(2.21775e-06 1.41465e-06 8.8718e-21 -2.21839e-06 5.67965e-21 6.41059e-10)
(2.30463e-06 9.82747e-07 7.09514e-20 -2.30571e-06 7.02119e-21 1.07956e-09)
(2.29596e-06 5.23761e-07 9.18439e-20 -2.29559e-06 4.80509e-21 -3.73335e-10)
(2.17263e-06 9.28701e-08 -1.11373e-20 -2.17511e-06 3.17044e-21 2.48366e-09)
(1.94676e-06 -3.52253e-07 -1.54185e-19 -1.94263e-06 -6.68268e-21 -4.13276e-09)
(1.97955e-06 1.33475e-06 1.25103e-19 -1.98011e-06 9.51244e-21 5.634e-10)
(2.06773e-06 9.55618e-07 -5.36624e-20 -2.0687e-06 -6.94478e-21 9.68829e-10)
(2.07377e-06 5.49421e-07 -7.48022e-20 -2.0734e-06 -7.7694e-21 -3.76682e-10)
(1.97997e-06 1.64795e-07 7.47592e-20 -1.98232e-06 3.06334e-21 2.34946e-09)
(1.79802e-06 -2.39695e-07 1.55471e-19 -1.79349e-06 1.24958e-20 -4.53103e-09)
(1.7622e-06 1.25495e-06 -2.33749e-21 -1.76269e-06 -2.6555e-21 4.89427e-10)
(1.85e-06 9.23516e-07 -9.04855e-20 -1.85091e-06 -4.92115e-21 9.12204e-10)
(1.86775e-06 5.65582e-07 -2.06743e-20 -1.86736e-06 -2.01602e-21 -3.8315e-10)
(1.79895e-06 2.23631e-07 -6.55993e-20 -1.80117e-06 -4.51944e-21 2.22931e-09)
(1.65495e-06 -1.42449e-07 -7.18162e-21 -1.65015e-06 -5.4826e-21 -4.79961e-09)
(1.42798e-06 1.43572e-06 -5.67799e-22 -1.42851e-06 -6.16373e-22 5.29007e-10)
(1.56477e-06 1.17607e-06 1.84779e-20 -1.56518e-06 1.07404e-21 4.18086e-10)
(1.65074e-06 8.87498e-07 2.70452e-20 -1.65156e-06 3.83143e-21 8.13703e-10)
(1.6775e-06 5.73306e-07 -1.04824e-19 -1.67711e-06 -5.09133e-21 -3.91684e-10)
(1.62958e-06 2.70505e-07 9.04235e-20 -1.63168e-06 7.39656e-21 2.09605e-09)
(1.51806e-06 -5.94167e-08 -1.51169e-19 -1.51309e-06 -8.47475e-21 -4.97074e-09)
(1.26044e-06 1.32283e-06 -1.78908e-20 -1.2609e-06 -1.45943e-21 4.60976e-10)
(1.38617e-06 1.09876e-06 -2.56183e-20 -1.38653e-06 -3.37093e-21 3.60445e-10)
(1.46924e-06 8.48457e-07 -2.84295e-20 -1.46997e-06 -3.46306e-21 7.22927e-10)
(1.50257e-06 5.73738e-07 1.35407e-19 -1.50218e-06 1.32956e-20 -3.86835e-10)
(1.47184e-06 3.06605e-07 -1.03125e-20 -1.47382e-06 -3.85767e-21 1.97636e-09)
(1.38777e-06 1.0533e-08 1.30312e-19 -1.38271e-06 1.11497e-20 -5.06604e-09)
(1.11031e-06 1.21635e-06 1.78592e-20 -1.1107e-06 3.16559e-21 3.90482e-10)
(1.22524e-06 1.02356e-06 -4.62279e-20 -1.22554e-06 -3.06101e-21 2.99221e-10)
(1.30456e-06 8.07196e-07 1.36426e-21 -1.30523e-06 1.44107e-21 6.73916e-10)
(1.34242e-06 5.67878e-07 5.97721e-20 -1.34203e-06 1.42021e-21 -3.86531e-10)
(1.32557e-06 3.33134e-07 -9.48257e-20 -1.32745e-06 -5.04186e-21 1.87799e-09)
(1.26444e-06 6.85932e-08 -5.59701e-20 -1.25934e-06 -5.52499e-21 -5.09594e-09)
(9.76225e-07 1.11637e-06 6.33979e-20 -9.76564e-07 4.28215e-21 3.38561e-10)
(1.08076e-06 9.50991e-07 3.29302e-20 -1.08101e-06 3.46041e-21 2.46509e-10)
(1.1557e-06 7.64605e-07 7.20888e-20 -1.1563e-06 5.27976e-21 5.99005e-10)
(1.19637e-06 5.56795e-07 -7.96795e-20 -1.19598e-06 -6.15637e-21 -3.94994e-10)
(1.1905e-06 3.51264e-07 1.37009e-19 -1.19228e-06 1.21517e-20 1.78092e-09)
(1.1483e-06 1.15893e-07 6.06821e-20 -1.14322e-06 5.51372e-21 -5.08038e-09)
(8.56855e-07 1.0229e-06 -7.36215e-20 -8.57143e-07 -7.59081e-21 2.88178e-10)
(9.51487e-07 8.81397e-07 -1.2348e-20 -9.51695e-07 -2.10127e-21 2.07741e-10)
(1.02167e-06 7.21282e-07 -8.50434e-20 -1.02221e-06 -9.22851e-21 5.45299e-10)
(1.0637e-06 5.41464e-07 9.75272e-20 -1.06331e-06 9.34601e-21 -3.8838e-10)
(1.06631e-06 3.62161e-07 9.02977e-21 -1.06799e-06 -1.35206e-21 1.6734e-09)
(1.03952e-06 1.53584e-07 -3.41247e-20 -1.03452e-06 -4.80039e-21 -4.99823e-09)
(7.5089e-07 9.35867e-07 2.96814e-20 -7.51133e-07 3.99492e-21 2.42126e-10)
(8.36191e-07 8.15102e-07 -3.07503e-20 -8.36349e-07 -2.41036e-21 1.57739e-10)
(9.01361e-07 6.77937e-07 -1.583e-20 -9.01843e-07 2.43701e-22 4.82015e-10)
(9.43616e-07 5.22771e-07 -1.04906e-20 -9.43226e-07 -2.31336e-21 -3.90616e-10)
(9.52606e-07 3.66848e-07 -3.63021e-20 -9.54188e-07 -2.69927e-21 1.58169e-09)
(9.38155e-07 1.82776e-07 -1.07883e-19 -9.33283e-07 -7.99436e-21 -4.87243e-09)
(6.57055e-07 8.55106e-07 -6.93581e-21 -6.57264e-07 8.55359e-22 2.08544e-10)
(7.33661e-07 7.52241e-07 8.2419e-21 -7.33796e-07 1.17152e-21 1.35463e-10)
(7.93756e-07 6.35029e-07 2.88046e-20 -7.94197e-07 2.92831e-21 4.41497e-10)
(8.35329e-07 5.01522e-07 -8.08335e-21 -8.34943e-07 -1.18056e-21 -3.86803e-10)
(8.48904e-07 3.66383e-07 2.41112e-20 -8.50395e-07 1.31181e-21 1.49122e-09)
(8.44157e-07 2.04562e-07 8.7043e-20 -8.39431e-07 8.87262e-21 -4.72564e-09)
(5.74152e-07 7.80442e-07 1.4096e-19 -5.74326e-07 1.3865e-20 1.73703e-10)
(6.42701e-07 6.92992e-07 8.24026e-21 -6.42799e-07 1.25671e-21 9.86372e-11)
(6.97769e-07 5.93038e-07 5.53075e-21 -6.98153e-07 1.26499e-23 3.83996e-10)
(7.37977e-07 4.78443e-07 -5.15777e-20 -7.37598e-07 -3.39637e-21 -3.79355e-10)
(7.54696e-07 3.61664e-07 -8.71777e-20 -7.56094e-07 -7.74774e-21 1.39791e-09)
(7.57417e-07 2.19936e-07 -1.54164e-20 -7.52869e-07 -1.87838e-21 -4.5481e-09)
(5.01071e-07 7.11596e-07 -4.438e-20 -5.01216e-07 -5.83016e-21 1.4505e-10)
(5.62228e-07 6.37353e-07 1.8935e-20 -5.62304e-07 1.56175e-21 7.66825e-11)
(6.12395e-07 5.52286e-07 -2.12444e-20 -6.12749e-07 -2.8144e-21 3.53716e-10)
(6.50743e-07 4.54167e-07 1.01671e-19 -6.50368e-07 9.53299e-21 -3.74969e-10)
(6.69416e-07 3.53529e-07 7.15102e-20 -6.7073e-07 7.60521e-21 1.31356e-09)
(6.77741e-07 2.29822e-07 7.64928e-20 -6.73392e-07 6.26921e-21 -4.34845e-09)
(3.76037e-07 7.01268e-07 3.50497e-20 -3.76121e-07 3.32841e-21 8.434e-11)
(4.36761e-07 6.48283e-07 5.4357e-20 -4.36886e-07 6.66711e-21 1.25382e-10)
(4.91176e-07 5.85346e-07 -1.71858e-20 -4.91226e-07 -2.1981e-21 4.9696e-11)
(5.36628e-07 5.13081e-07 -3.94795e-20 -5.36942e-07 -3.64634e-21 3.13521e-10)
(5.72796e-07 4.29221e-07 -6.75611e-20 -5.72428e-07 -7.4273e-21 -3.68036e-10)
(5.9249e-07 3.42719e-07 -2.11456e-20 -5.9372e-07 -2.24256e-21 1.23004e-09)
(6.04867e-07 2.35109e-07 -1.30356e-19 -6.0073e-07 -1.3414e-20 -4.13729e-09)
(3.26913e-07 6.35045e-07 -5.20375e-20 -3.26979e-07 -5.7568e-21 6.59245e-11)
(3.80262e-07 5.90203e-07 3.91875e-20 -3.80364e-07 2.9229e-21 1.02608e-10)
(4.2855e-07 5.36901e-07 -4.65429e-20 -4.28588e-07 -4.6753e-21 3.81991e-11)
(4.69569e-07 4.75589e-07 -1.05124e-20 -4.69851e-07 -2.06275e-23 2.81881e-10)
(5.03332e-07 4.04062e-07 2.2706e-20 -5.02979e-07 1.93808e-21 -3.52888e-10)
(5.2333e-07 3.29875e-07 4.71438e-20 -5.24479e-07 5.28747e-21 1.14909e-09)
(5.38491e-07 2.36563e-07 -1.78968e-20 -5.34577e-07 5.19542e-23 -3.91382e-09)
(2.83888e-07 5.74973e-07 3.84372e-20 -2.83943e-07 5.35193e-21 5.53191e-11)
(3.30708e-07 5.3704e-07 -7.39636e-20 -3.30795e-07 -8.1798e-21 8.68009e-11)
(3.73451e-07 4.91947e-07 -6.34822e-21 -3.73478e-07 -5.59938e-22 2.72e-11)
(4.10324e-07 4.3998e-07 9.74385e-20 -4.10569e-07 9.57585e-21 2.4582e-10)
(4.41574e-07 3.79072e-07 -9.67371e-20 -4.41233e-07 -9.88875e-21 -3.41057e-10)
(4.61331e-07 3.1558e-07 4.61223e-20 -4.62397e-07 4.57831e-21 1.06617e-09)
(4.78264e-07 2.34894e-07 5.72349e-20 -4.74575e-07 4.77935e-21 -3.68915e-09)
(2.46241e-07 5.20571e-07 6.23624e-20 -2.46285e-07 6.78369e-21 4.3573e-11)
(2.87282e-07 4.88494e-07 5.72744e-22 -2.87353e-07 6.91309e-22 7.07605e-11)
(3.25049e-07 4.50362e-07 7.47894e-21 -3.25065e-07 1.06066e-21 1.61732e-11)
(3.5807e-07 4.06359e-07 -1.14542e-19 -3.58286e-07 -1.25555e-20 2.16592e-10)
(3.86794e-07 3.54548e-07 -3.42863e-21 -3.86467e-07 -3.85749e-22 -3.26705e-10)
(4.05915e-07 3.00296e-07 8.05977e-20 -4.06911e-07 8.65974e-21 9.96631e-10)
(4.23821e-07 2.30717e-07 -1.59527e-19 -4.20363e-07 -1.66949e-20 -3.4585e-09)
(2.13324e-07 4.71364e-07 1.55402e-20 -2.13359e-07 1.37777e-21 3.50029e-11)
(2.4926e-07 4.44245e-07 -2.10353e-20 -2.49323e-07 -1.95472e-21 6.26943e-11)
(2.82585e-07 4.12004e-07 -1.1794e-20 -2.82592e-07 -1.5093e-21 7.48008e-12)
(3.12054e-07 3.74771e-07 3.17794e-20 -3.12252e-07 4.55539e-21 1.98731e-10)
(3.38303e-07 3.30749e-07 -5.70848e-20 -3.37992e-07 -6.1093e-21 -3.11574e-10)
(3.565e-07 2.84471e-07 6.29346e-20 -3.57424e-07 6.30525e-21 9.23893e-10)
(3.74761e-07 2.24606e-07 -2.78222e-20 -3.71527e-07 -2.06509e-21 -3.23398e-09)
(1.84559e-07 4.2686e-07 8.47465e-21 -1.84585e-07 5.1388e-22 2.55365e-11)
(2.15995e-07 4.03944e-07 4.54365e-20 -2.16047e-07 5.23694e-21 5.19401e-11)
(2.45353e-07 3.76702e-07 -4.1328e-21 -2.4535e-07 -2.55387e-22 -2.98309e-12)
(2.71575e-07 3.45225e-07 2.68461e-20 -2.7175e-07 1.92208e-21 1.75024e-10)
(2.95438e-07 3.07853e-07 -7.74009e-21 -2.95138e-07 -9.95389e-22 -3.00143e-10)
(3.12535e-07 2.68425e-07 6.27371e-20 -3.13393e-07 6.58903e-21 8.58137e-10)
(3.30688e-07 2.17033e-07 -6.83833e-20 -3.27675e-07 -6.87367e-21 -3.01279e-09)
(1.59461e-07 3.86509e-07 -2.97056e-20 -1.59482e-07 -3.76018e-21 2.14305e-11)
(1.86938e-07 3.67166e-07 1.68979e-20 -1.86983e-07 1.62925e-21 4.47063e-11)
(2.12751e-07 3.44179e-07 2.15698e-20 -2.12748e-07 2.40444e-21 -3.67111e-12)
(2.36032e-07 3.17597e-07 -1.07559e-19 -2.36189e-07 -1.17014e-20 1.57722e-10)
(2.57611e-07 2.85924e-07 -7.55417e-20 -2.57332e-07 -8.43536e-21 -2.79544e-10)
(2.73503e-07 2.52392e-07 5.07849e-20 -2.74297e-07 4.92379e-21 7.94007e-10)
(2.91199e-07 2.08387e-07 -6.42422e-21 -2.88403e-07 -5.55077e-22 -2.79597e-09)
(1.12351e-07 3.63234e-07 3.16437e-21 -1.1237e-07 6.54687e-22 1.91929e-11)
(1.37601e-07 3.49768e-07 -3.57488e-20 -1.37616e-07 -3.6389e-21 1.45186e-11)
(1.61598e-07 3.33466e-07 2.47764e-20 -1.61632e-07 2.39423e-21 3.38629e-11)
(1.8426e-07 3.14103e-07 -3.81527e-20 -1.8425e-07 -4.65415e-21 -1.06263e-11)
(2.04867e-07 2.91702e-07 2.6748e-21 -2.05004e-07 7.64196e-22 1.37738e-10)
(2.24298e-07 2.64914e-07 -1.46844e-20 -2.2403e-07 -8.44851e-22 -2.67803e-10)
(2.38926e-07 2.36461e-07 9.63157e-21 -2.39659e-07 5.39502e-22 7.32111e-10)
(2.55914e-07 1.98901e-07 -3.22666e-20 -2.53327e-07 -2.96298e-21 -2.58663e-09)
(9.66465e-08 3.27617e-07 2.18006e-20 -9.66689e-08 2.54544e-21 2.23555e-11)
(1.18632e-07 3.16242e-07 5.87654e-20 -1.18649e-07 6.96067e-21 1.75838e-11)
(1.39571e-07 3.02501e-07 -5.06045e-20 -1.39607e-07 -5.7202e-21 3.57152e-11)
(1.59441e-07 2.86198e-07 -5.45605e-20 -1.59434e-07 -5.62505e-21 -7.21627e-12)
(1.77632e-07 2.67339e-07 -1.93059e-20 -1.77761e-07 -2.53931e-21 1.2874e-10)
(1.95052e-07 2.44724e-07 5.75204e-20 -1.94807e-07 6.47041e-21 -2.45566e-10)
(2.08404e-07 2.2064e-07 -4.38666e-20 -2.09081e-07 -5.02306e-21 6.77309e-10)
(2.2449e-07 1.88702e-07 7.80547e-20 -2.22111e-07 8.57316e-21 -2.37878e-09)
(8.29666e-08 2.95409e-07 1.93663e-20 -8.2974e-08 2.38728e-21 7.31841e-12)
(1.02118e-07 2.85764e-07 -2.69751e-20 -1.02121e-07 -3.4717e-21 2.72181e-12)
(1.20391e-07 2.74151e-07 -3.21206e-21 -1.2041e-07 -2.46448e-22 1.91196e-11)
(1.37802e-07 2.60394e-07 6.67251e-20 -1.37782e-07 8.08798e-21 -1.99249e-11)
(1.53845e-07 2.44495e-07 -3.95468e-20 -1.53949e-07 -4.89706e-21 1.04345e-10)
(1.6941e-07 2.25398e-07 -1.35718e-20 -1.69175e-07 -1.28562e-21 -2.35142e-10)
(1.81532e-07 2.05011e-07 -4.19515e-20 -1.82142e-07 -4.19235e-21 6.09502e-10)
(1.96582e-07 1.77916e-07 8.68174e-21 -1.94399e-07 5.67755e-22 -2.18352e-09)
(7.10426e-08 2.66496e-07 3.63481e-20 -7.10706e-08 3.97647e-21 2.80093e-11)
(8.77321e-08 2.58269e-07 -1.84094e-20 -8.77535e-08 -1.96997e-21 2.13852e-11)
(1.0369e-07 2.48397e-07 9.90682e-21 -1.03722e-07 9.69406e-22 3.19877e-11)
(1.18945e-07 2.36738e-07 4.7438e-20 -1.18944e-07 5.51623e-21 -1.39619e-12)
(1.33082e-07 2.23285e-07 -1.53008e-19 -1.3319e-07 -1.71073e-20 1.08569e-10)
(1.46966e-07 2.07113e-07 1.0879e-19 -1.46762e-07 1.18202e-20 -2.0385e-10)
(1.57927e-07 1.89823e-07 4.35821e-20 -1.58494e-07 5.05401e-21 5.67317e-10)
(1.71878e-07 1.66859e-07 1.00787e-20 -1.69913e-07 8.69539e-22 -1.9657e-09)
(6.04815e-08 2.40564e-07 -4.09926e-20 -6.046e-08 -5.09691e-21 -2.14712e-11)
(7.50107e-08 2.33506e-07 3.26129e-21 -7.49971e-08 4.53645e-22 -1.3549e-11)
(8.89479e-08 2.25063e-07 -1.79832e-20 -8.89461e-08 -1.94406e-21 -1.77606e-12)
(1.02331e-07 2.15121e-07 4.14916e-20 -1.02295e-07 4.49096e-21 -3.60381e-11)
(1.14777e-07 2.03676e-07 2.77702e-20 -1.14849e-07 3.73334e-21 7.20383e-11)
(1.27149e-07 1.89905e-07 -1.81355e-20 -1.26934e-07 -2.03023e-21 -2.15315e-10)
(1.37042e-07 1.75154e-07 -1.99828e-20 -1.37522e-07 -2.49204e-21 4.79951e-10)
(1.49884e-07 1.55617e-07 -3.2681e-20 -1.48071e-07 -3.47497e-21 -1.81274e-09)
(5.13392e-08 2.18263e-07 -2.5642e-20 -5.13561e-08 -2.93186e-21 1.69045e-11)
(6.40141e-08 2.12236e-07 2.9551e-21 -6.40308e-08 4.5878e-22 1.67215e-11)
(7.62004e-08 2.05032e-07 6.23712e-20 -7.62227e-08 6.96674e-21 2.22656e-11)
(8.79661e-08 1.96553e-07 -3.33619e-22 -8.79427e-08 3.17151e-23 -2.34044e-11)
(9.89606e-08 1.86794e-07 -4.77447e-20 -9.90222e-08 -5.59565e-21 6.1655e-11)
(1.09969e-07 1.75025e-07 9.78847e-20 -1.09773e-07 1.11583e-20 -1.96205e-10)
(1.1891e-07 1.62369e-07 -1.85827e-20 -1.19318e-07 -2.26535e-21 4.08007e-10)
(1.30683e-07 1.45623e-07 6.12567e-20 -1.29038e-07 7.05858e-21 -1.6456e-09)
(4.4842e-08 2.00252e-07 -4.94784e-20 -4.49346e-08 -5.66604e-21 9.26403e-11)
(5.60564e-08 1.94974e-07 5.32391e-20 -5.6175e-08 6.20886e-21 1.18632e-10)
(6.6859e-08 1.88692e-07 -8.76462e-20 -6.70014e-08 -1.04816e-20 1.42355e-10)
(7.72889e-08 1.81329e-07 2.25596e-20 -7.74158e-08 2.63285e-21 1.26878e-10)
(8.70649e-08 1.72855e-07 2.84567e-20 -8.72899e-08 3.34527e-21 2.25003e-10)
(9.69223e-08 1.62597e-07 2.50581e-20 -9.69378e-08 2.18159e-21 1.555e-11)
(1.04951e-07 1.51559e-07 -7.89226e-20 -1.05574e-07 -8.36428e-21 6.23743e-10)
(1.15907e-07 1.37172e-07 4.14097e-20 -1.14706e-07 4.0463e-21 -1.20114e-09)
(2.90587e-08 1.88565e-07 1.01175e-20 -2.8803e-08 1.25083e-21 -2.55715e-10)
(3.92875e-08 1.8476e-07 2.79662e-20 -3.91543e-08 3.52736e-21 -1.33131e-10)
(4.93154e-08 1.79927e-07 -1.10508e-20 -4.91923e-08 -1.25861e-21 -1.23097e-10)
(5.90075e-08 1.74252e-07 -1.72571e-20 -5.8861e-08 -1.84385e-21 -1.4651e-10)
(6.83594e-08 1.6769e-07 4.62841e-20 -6.81515e-08 5.22117e-21 -2.07964e-10)
(7.70987e-08 1.60195e-07 -2.82487e-20 -7.69444e-08 -3.2489e-21 -1.54283e-10)
(8.5953e-08 1.51167e-07 -9.34905e-20 -8.55648e-08 -1.06924e-20 -3.88159e-10)
(9.31567e-08 1.41404e-07 1.08635e-19 -9.32637e-08 1.25953e-20 1.06988e-10)
(1.03222e-07 1.28888e-07 -5.95544e-20 -1.01548e-07 -6.96204e-21 -1.67353e-09)
(2.53183e-08 1.74414e-07 2.84437e-21 -2.52943e-08 2.98676e-22 -2.39792e-11)
(3.44569e-08 1.70909e-07 -8.46959e-21 -3.46976e-08 -1.37803e-21 2.407e-10)
(4.34959e-08 1.66438e-07 6.16746e-20 -4.38532e-08 7.19946e-21 3.5726e-10)
(5.23417e-08 1.61175e-07 -3.40363e-20 -5.27145e-08 -3.78682e-21 3.72835e-10)
(6.08711e-08 1.55121e-07 -2.39316e-20 -6.12207e-08 -3.02903e-21 3.49663e-10)
(6.88042e-08 1.48243e-07 -1.11704e-20 -6.92446e-08 -1.18318e-21 4.40382e-10)
(7.67831e-08 1.40063e-07 7.94028e-20 -7.70809e-08 9.30971e-21 2.97864e-10)
(8.32145e-08 1.31334e-07 -2.72369e-20 -8.40885e-08 -2.691e-21 8.73943e-10)
(9.22991e-08 1.20672e-07 -5.31353e-20 -9.17805e-08 -6.44307e-21 -5.18625e-10)
(2.07668e-08 1.59718e-07 -7.57963e-22 -1.98735e-08 -7.85726e-23 -8.93214e-10)
(2.85586e-08 1.56561e-07 -5.61205e-20 -2.7878e-08 -6.78309e-21 -6.80591e-10)
(3.63517e-08 1.52588e-07 -4.81689e-20 -3.57224e-08 -5.65352e-21 -6.29251e-10)
(4.41039e-08 1.47926e-07 1.71117e-20 -4.33915e-08 2.13483e-21 -7.12444e-10)
(5.16171e-08 1.4259e-07 -1.31331e-20 -5.08018e-08 -1.65806e-21 -8.15361e-10)
(5.86425e-08 1.36533e-07 3.22367e-20 -5.78502e-08 4.0748e-21 -7.92246e-10)
(6.58414e-08 1.29258e-07 -6.44775e-20 -6.48273e-08 -8.36814e-21 -1.01416e-09)
(7.18388e-08 1.21195e-07 2.0051e-19 -7.11042e-08 2.36028e-20 -7.34563e-10)
(8.01821e-08 1.11084e-07 -9.98923e-20 -7.7848e-08 -1.15156e-20 -2.33413e-09)
(1.88179e-08 1.47471e-07 -1.13502e-21 -1.96227e-08 -2.58031e-23 8.04804e-10)
(2.58956e-08 1.44547e-07 -5.22704e-20 -2.7166e-08 -6.07937e-21 1.2704e-09)
(3.30324e-08 1.40838e-07 1.10166e-19 -3.45483e-08 1.30267e-20 1.51583e-09)
(4.0187e-08 1.36442e-07 6.71206e-21 -4.17461e-08 8.14095e-22 1.55917e-09)
(4.70576e-08 1.314e-07 -6.3175e-20 -4.86193e-08 -7.05401e-21 1.56168e-09)
(5.33796e-08 1.25735e-07 7.35976e-20 -5.50635e-08 8.31138e-21 1.68396e-09)
(5.95927e-08 1.19179e-07 -1.40689e-19 -6.13156e-08 -1.63989e-20 1.7229e-09)
(6.45387e-08 1.12401e-07 1.29208e-19 -6.70086e-08 1.43805e-20 2.46987e-09)