/*--------------------------------*- C++ -*----------------------------------*\
| =========                 |                                                 |
| \\      /  F ield         | OpenFOAM: The Open Source CFD Toolbox           |
|  \\    /   O peration     | Version:  2506                                  |
|   \\  /    A nd           | Website:  www.openfoam.com                      |
|    \\/     M anipulation  |                                                 |
\*---------------------------------------------------------------------------*/
FoamFile
{
    version     2.0;
    format      ascii;
    arch        "LSB;label=32;scalar=64";
    class       volScalarField;
    location    "350";
    object      magR;
}
// * * * * * * * * * * * * * * * * * * * * * * * * * * * * * * * * * * * * * //

dimensions      [0 2 -2 0 0 0 0];

internalField   nonuniform List<scalar> 
1340
(
0.000597545
0.00060207
0.000605571
0.000507805
0.000512359
0.000516205
0.000518669
0.000519686
0.000434444
0.000438889
0.000442847
0.000445819
0.000447751
0.000448499
0.000447705
0.000373715
0.000377941
0.000381834
0.000385005
0.000387428
0.000388988
0.000389361
0.000388432
0.000323037
0.000326999
0.000330739
0.000333949
0.000336641
0.000338686
0.000339816
0.000339947
0.000338987
0.000280407
0.000284089
0.00028761
0.000290752
0.000293548
0.000295845
0.000297442
0.000298269
0.000298231
0.000244312
0.000247702
0.000250981
0.000254004
0.000256787
0.0002592
0.000261072
0.000262349
0.000262945
0.000262737
0.000213563
0.000216661
0.0002197
0.000222561
0.000225263
0.000227693
0.000229707
0.00023125
0.000232257
0.000232621
0.00023228
0.000187224
0.000190044
0.00019285
0.000195522
0.000198109
0.000200488
0.000202547
0.000204239
0.000205511
0.000206265
0.000206459
0.000164551
0.000167122
0.000169691
0.000172179
0.000174619
0.000176914
0.000178951
0.000180709
0.000182131
0.000183139
0.00018369
0.000183737
0.000144955
0.000147291
0.00014964
0.00015194
0.000154228
0.000156404
0.000158385
0.000160146
0.000161641
0.000162802
0.000163598
0.000163985
0.000127956
0.000130073
0.000132216
0.000134333
0.000136462
0.000138507
0.000140404
0.000142129
0.000143641
0.000144888
0.000145839
0.000146457
0.000146698
0.000113154
0.000115075
0.000117023
0.000118969
0.000120937
0.000122847
0.000124643
0.000126305
0.000127798
0.000129074
0.000130113
0.000130885
0.000131347
0.000100229
0.000101967
0.000103738
0.000105521
0.000107334
0.000109108
0.000110792
0.000112375
0.000113821
0.000115095
0.000116176
0.000117042
0.000117654
0.000117992
8.89107e-05
9.04814e-05
9.20918e-05
9.37187e-05
9.5384e-05
9.7024e-05
9.85955e-05
0.000100086
0.00010147
0.000102712
0.000103802
0.000104714
0.000105423
0.000105909
7.89736e-05
8.03924e-05
8.1856e-05
8.33382e-05
8.48642e-05
8.63743e-05
8.78317e-05
8.92279e-05
9.0537e-05
9.1733e-05
9.28052e-05
9.37333e-05
9.44979e-05
9.5078e-05
7.02303e-05
7.15116e-05
7.28386e-05
7.41883e-05
7.55826e-05
7.69693e-05
7.83142e-05
7.96149e-05
8.08439e-05
8.19826e-05
8.30198e-05
8.3942e-05
8.47291e-05
8.53676e-05
8.5838e-05
6.25209e-05
6.36786e-05
6.488e-05
6.6107e-05
6.73791e-05
6.86479e-05
6.98868e-05
7.10912e-05
7.22391e-05
7.33126e-05
7.43045e-05
7.5203e-05
7.59919e-05
7.6661e-05
7.71918e-05
5.57103e-05
5.67567e-05
5.78431e-05
5.89575e-05
6.01167e-05
6.12748e-05
6.24131e-05
6.35232e-05
6.459e-05
6.5595e-05
6.65346e-05
6.73966e-05
6.81718e-05
6.88485e-05
6.94124e-05
4.96846e-05
5.06286e-05
5.16113e-05
5.26219e-05
5.36756e-05
5.47324e-05
5.57742e-05
5.67949e-05
5.77807e-05
5.87169e-05
5.95991e-05
6.04198e-05
6.11692e-05
6.18387e-05
6.24171e-05
6.28907e-05
4.43449e-05
4.51957e-05
4.60841e-05
4.70002e-05
4.79563e-05
4.89191e-05
4.98705e-05
5.08069e-05
5.17148e-05
5.25829e-05
5.34067e-05
5.41805e-05
5.48957e-05
5.55471e-05
5.61231e-05
5.66152e-05
3.96058e-05
4.0373e-05
4.11751e-05
4.20046e-05
4.28722e-05
4.37471e-05
4.46147e-05
4.54718e-05
4.63055e-05
4.71066e-05
4.78718e-05
4.85961e-05
4.92727e-05
4.98975e-05
5.04624e-05
5.09583e-05
3.47743e-05
3.53951e-05
3.6086e-05
3.68101e-05
3.75603e-05
3.83464e-05
3.91407e-05
3.99304e-05
4.07131e-05
4.14764e-05
4.22134e-05
4.2921e-05
4.35951e-05
4.42309e-05
4.48243e-05
4.53691e-05
4.58576e-05
4.62806e-05
3.10905e-05
3.16492e-05
3.22709e-05
3.29243e-05
3.36023e-05
3.43138e-05
3.50343e-05
3.57522e-05
3.64652e-05
3.7163e-05
3.7839e-05
3.84909e-05
3.91153e-05
3.97085e-05
4.02671e-05
4.07867e-05
4.12606e-05
4.16817e-05
2.78108e-05
2.83132e-05
2.88725e-05
2.94617e-05
3.0074e-05
3.07175e-05
3.13701e-05
3.20221e-05
3.26707e-05
3.33077e-05
3.39257e-05
3.45243e-05
3.51006e-05
3.56511e-05
3.61737e-05
3.66644e-05
3.71181e-05
3.75288e-05
2.48879e-05
2.53394e-05
2.58423e-05
2.63732e-05
2.69259e-05
2.75073e-05
2.80979e-05
2.86889e-05
2.92787e-05
2.98585e-05
3.04227e-05
3.09711e-05
3.15009e-05
3.20095e-05
3.24952e-05
3.29551e-05
3.33854e-05
3.37801e-05
3.41334e-05
2.2281e-05
2.26863e-05
2.31381e-05
2.36162e-05
2.41148e-05
2.46397e-05
2.51739e-05
2.57096e-05
2.62448e-05
2.67714e-05
2.72856e-05
2.77867e-05
2.82721e-05
2.87402e-05
2.91897e-05
2.96181e-05
3.00221e-05
3.03974e-05
3.07386e-05
1.99537e-05
2.03173e-05
2.07231e-05
2.11533e-05
2.16027e-05
2.20765e-05
2.25593e-05
2.30444e-05
2.35289e-05
2.40072e-05
2.44751e-05
2.49319e-05
2.53757e-05
2.58049e-05
2.62191e-05
2.6616e-05
2.69927e-05
2.73459e-05
2.76713e-05
1.78745e-05
1.82006e-05
1.85648e-05
1.89515e-05
1.93565e-05
1.97838e-05
2.02198e-05
2.06584e-05
2.10973e-05
2.15312e-05
2.19564e-05
2.23718e-05
2.27765e-05
2.31691e-05
2.35494e-05
2.39153e-05
2.42646e-05
2.45945e-05
2.49014e-05
1.60157e-05
1.63079e-05
1.66345e-05
1.6982e-05
1.73468e-05
1.7732e-05
1.81256e-05
1.85219e-05
1.89194e-05
1.93123e-05
1.96978e-05
2.00754e-05
2.04438e-05
2.08021e-05
2.11499e-05
2.14857e-05
2.18081e-05
2.21143e-05
2.24011e-05
1.4353e-05
1.46146e-05
1.49072e-05
1.52195e-05
1.55477e-05
1.58949e-05
1.625e-05
1.66082e-05
1.69675e-05
1.73232e-05
1.76726e-05
1.80154e-05
1.83501e-05
1.86762e-05
1.89934e-05
1.93008e-05
1.95968e-05
1.98793e-05
2.01453e-05
2.03917e-05
1.28649e-05
1.30988e-05
1.33607e-05
1.36412e-05
1.39365e-05
1.42493e-05
1.45695e-05
1.48931e-05
1.5218e-05
1.55399e-05
1.58563e-05
1.61668e-05
1.64705e-05
1.67668e-05
1.70555e-05
1.73359e-05
1.76066e-05
1.78658e-05
1.81113e-05
1.83399e-05
1.15321e-05
1.17411e-05
1.19755e-05
1.22274e-05
1.24929e-05
1.27745e-05
1.30635e-05
1.33556e-05
1.36493e-05
1.39402e-05
1.42266e-05
1.45078e-05
1.4783e-05
1.50518e-05
1.53141e-05
1.55691e-05
1.58158e-05
1.60528e-05
1.6278e-05
1.64885e-05
1.0338e-05
1.05246e-05
1.07341e-05
1.09601e-05
1.1199e-05
1.14527e-05
1.17132e-05
1.1977e-05
1.22423e-05
1.25055e-05
1.27646e-05
1.30191e-05
1.32682e-05
1.35117e-05
1.37496e-05
1.39809e-05
1.42051e-05
1.4421e-05
1.46264e-05
1.48193e-05
9.26772e-06
9.43396e-06
9.62137e-06
9.82404e-06
1.00389e-05
1.02673e-05
1.05024e-05
1.07406e-05
1.09804e-05
1.12184e-05
1.14527e-05
1.16828e-05
1.19083e-05
1.21286e-05
1.23439e-05
1.25535e-05
1.27568e-05
1.29526e-05
1.31394e-05
1.33151e-05
8.30796e-06
8.45596e-06
8.6234e-06
8.80516e-06
8.99837e-06
9.20411e-06
9.41627e-06
9.63151e-06
9.84831e-06
1.00634e-05
1.02754e-05
1.04836e-05
1.06875e-05
1.08867e-05
1.10814e-05
1.12709e-05
1.14548e-05
1.1632e-05
1.18012e-05
1.19605e-05
1.21074e-05
7.44696e-06
7.57862e-06
7.7281e-06
7.89115e-06
8.06489e-06
8.25033e-06
8.44187e-06
8.63647e-06
8.8326e-06
9.02728e-06
9.21901e-06
9.40739e-06
9.59165e-06
9.77175e-06
9.94759e-06
1.01188e-05
1.02847e-05
1.04447e-05
1.05974e-05
1.07413e-05
1.0874e-05
6.67432e-06
6.79131e-06
6.92473e-06
7.07095e-06
7.22728e-06
7.39451e-06
7.56757e-06
7.74372e-06
7.92126e-06
8.09747e-06
8.27105e-06
8.44146e-06
8.60809e-06
8.77083e-06
8.9296e-06
9.08403e-06
9.23368e-06
9.37787e-06
9.5154e-06
9.64482e-06
9.76426e-06
5.98076e-06
6.08462e-06
6.20364e-06
6.33477e-06
6.47551e-06
6.62646e-06
6.78302e-06
6.94256e-06
7.10343e-06
7.26317e-06
7.42041e-06
7.57473e-06
7.72547e-06
7.87255e-06
8.01582e-06
8.15507e-06
8.28985e-06
8.41948e-06
8.54304e-06
8.65917e-06
8.76617e-06
5.35799e-06
5.45011e-06
5.55623e-06
5.67387e-06
5.8007e-06
5.93708e-06
6.07892e-06
6.22361e-06
6.36962e-06
6.51459e-06
6.65721e-06
6.79702e-06
6.93347e-06
7.06637e-06
7.19572e-06
7.32122e-06
7.44248e-06
7.55891e-06
7.66972e-06
7.77368e-06
7.86919e-06
4.79866e-06
4.88026e-06
4.97486e-06
5.08048e-06
5.19484e-06
5.31827e-06
5.44696e-06
5.57845e-06
5.71121e-06
5.84293e-06
5.97244e-06
6.09925e-06
6.22287e-06
6.34311e-06
6.45991e-06
6.57299e-06
6.68206e-06
6.78658e-06
6.88579e-06
6.97862e-06
7.06371e-06
7.13971e-06
4.29618e-06
4.36838e-06
4.45272e-06
4.54758e-06
4.65084e-06
4.76275e-06
4.87976e-06
4.99948e-06
5.12039e-06
5.24029e-06
5.3581e-06
5.47331e-06
5.58543e-06
5.69429e-06
5.79982e-06
5.90177e-06
5.99989e-06
6.09364e-06
6.18235e-06
6.26511e-06
6.34072e-06
6.40793e-06
3.84468e-06
3.90849e-06
3.98367e-06
4.06895e-06
4.16237e-06
4.26403e-06
4.37066e-06
4.4799e-06
4.59025e-06
4.69965e-06
4.80703e-06
4.91188e-06
5.01372e-06
5.11239e-06
5.20781e-06
5.29979e-06
5.38806e-06
5.47213e-06
5.55139e-06
5.62511e-06
5.69214e-06
5.75141e-06
3.43891e-06
3.49525e-06
3.56225e-06
3.63903e-06
3.72372e-06
3.81629e-06
3.91371e-06
4.01365e-06
4.11462e-06
4.21467e-06
4.31273e-06
4.40834e-06
4.50102e-06
4.5906e-06
4.67699e-06
4.76002e-06
4.83944e-06
4.91484e-06
4.9857e-06
5.05127e-06
5.11059e-06
5.16277e-06
3.07419e-06
3.12386e-06
3.18361e-06
3.25285e-06
3.32978e-06
3.41431e-06
3.50359e-06
3.59526e-06
3.68791e-06
3.77963e-06
3.86941e-06
3.95679e-06
4.04128e-06
4.12274e-06
4.20108e-06
4.27613e-06
4.34767e-06
4.41536e-06
4.47869e-06
4.53697e-06
4.58942e-06
4.63526e-06
2.74632e-06
2.79005e-06
2.84335e-06
2.9059e-06
2.97599e-06
3.05345e-06
3.13549e-06
3.21986e-06
3.30511e-06
3.38945e-06
3.47188e-06
3.55191e-06
3.62911e-06
3.70332e-06
3.77451e-06
3.84246e-06
3.90697e-06
3.96776e-06
4.02435e-06
4.07618e-06
4.12255e-06
4.16275e-06
2.45154e-06
2.48999e-06
2.53757e-06
2.59423e-06
2.65831e-06
2.7295e-06
2.80515e-06
2.88304e-06
2.96174e-06
3.03952e-06
3.1154e-06
3.1889e-06
3.25961e-06
3.3274e-06
3.39217e-06
3.4538e-06
3.51207e-06
3.56675e-06
3.61738e-06
3.66351e-06
3.70448e-06
3.73969e-06
2.1865e-06
2.22027e-06
2.26276e-06
2.31424e-06
2.37304e-06
2.4387e-06
2.50871e-06
2.58087e-06
2.65376e-06
2.72569e-06
2.79574e-06
2.86345e-06
2.92841e-06
2.99045e-06
3.04955e-06
3.10557e-06
3.15835e-06
3.20762e-06
3.25301e-06
3.2941e-06
3.33032e-06
3.36115e-06
3.38609e-06
1.94819e-06
1.97779e-06
2.0158e-06
2.06275e-06
2.11688e-06
2.17767e-06
2.24272e-06
2.30979e-06
2.37753e-06
2.44428e-06
2.50916e-06
2.57172e-06
2.63155e-06
2.6885e-06
2.74257e-06
2.79365e-06
2.84158e-06
2.8861e-06
2.92689e-06
2.96354e-06
2.99559e-06
3.02261e-06
3.04417e-06
1.73392e-06
1.75981e-06
1.79388e-06
1.83687e-06
1.88691e-06
1.94341e-06
2.00407e-06
2.06662e-06
2.12979e-06
2.19194e-06
2.25223e-06
2.31024e-06
2.3655e-06
2.41793e-06
2.46756e-06
2.51429e-06
2.55794e-06
2.59826e-06
2.63497e-06
2.66771e-06
2.69608e-06
2.71973e-06
2.73834e-06
1.54127e-06
1.56387e-06
1.59448e-06
1.63404e-06
1.68046e-06
1.7332e-06
1.78998e-06
1.8485e-06
1.90762e-06
1.96564e-06
2.02187e-06
2.07586e-06
2.12707e-06
2.17547e-06
2.22116e-06
2.26403e-06
2.30382e-06
2.34033e-06
2.37332e-06
2.40251e-06
2.42756e-06
2.44821e-06
2.46423e-06
1.36808e-06
1.38776e-06
1.41536e-06
1.45194e-06
1.49516e-06
1.54463e-06
1.59793e-06
1.65284e-06
1.70836e-06
1.76265e-06
1.81531e-06
1.86578e-06
1.91337e-06
1.95812e-06
2.00022e-06
2.03948e-06
2.07565e-06
2.10855e-06
2.13804e-06
2.16393e-06
2.18594e-06
2.20388e-06
2.21762e-06
1.2124e-06
1.22952e-06
1.25449e-06
1.28848e-06
1.32888e-06
1.3755e-06
1.42565e-06
1.47734e-06
1.52967e-06
1.58053e-06
1.63014e-06
1.67755e-06
1.72171e-06
1.76293e-06
1.80154e-06
1.83732e-06
1.86999e-06
1.89948e-06
1.92575e-06
1.94864e-06
1.96792e-06
1.98347e-06
1.99518e-06
1.07252e-06
1.0874e-06
1.1101e-06
1.14183e-06
1.17972e-06
1.22387e-06
1.27105e-06
1.31993e-06
1.36935e-06
1.41697e-06
1.46429e-06
1.50899e-06
1.54948e-06
1.58699e-06
1.62222e-06
1.65473e-06
1.68419e-06
1.71066e-06
1.73414e-06
1.7545e-06
1.77149e-06
1.785e-06
1.79499e-06
9.46955e-07
9.59908e-07
9.80619e-07
1.01035e-06
1.04599e-06
1.08795e-06
1.13217e-06
1.17873e-06
1.22527e-06
1.26971e-06
1.31554e-06
1.35764e-06
1.39411e-06
1.4279e-06
1.46018e-06
1.49001e-06
1.51688e-06
1.54095e-06
1.56225e-06
1.58055e-06
1.59566e-06
1.60743e-06
1.61591e-06
8.34321e-07
8.456e-07
8.64621e-07
8.92579e-07
9.26284e-07
9.6626e-07
1.00744e-06
1.05234e-06
1.09539e-06
1.1367e-06
1.18186e-06
1.22096e-06
1.25321e-06
1.28412e-06
1.31449e-06
1.34244e-06
1.36738e-06
1.38964e-06
1.40925e-06
1.4259e-06
1.43939e-06
1.44968e-06
1.45684e-06
1.46114e-06
7.33491e-07
7.43282e-07
7.60897e-07
7.87346e-07
8.19385e-07
8.57473e-07
8.95723e-07
9.39778e-07
9.77146e-07
1.01707e-06
1.06375e-06
1.0982e-06
1.12507e-06
1.15438e-06
1.18423e-06
1.21084e-06
1.23408e-06
1.25478e-06
1.27292e-06
1.28812e-06
1.30018e-06
1.30915e-06
1.3152e-06
1.31857e-06
6.44796e-07
6.53233e-07
6.69607e-07
6.94538e-07
7.24837e-07
7.60633e-07
7.95988e-07
8.39079e-07
8.67529e-07
9.09539e-07
9.60573e-07
9.8876e-07
1.00829e-06
1.03741e-06
1.06846e-06
1.09433e-06
1.11605e-06
1.13541e-06
1.15231e-06
1.1662e-06
1.17697e-06
1.18477e-06
1.18987e-06
1.19268e-06
5.7359e-07
5.8076e-07
5.95636e-07
6.18147e-07
6.45677e-07
6.77196e-07
7.08248e-07
7.46835e-07
7.64346e-07
8.08352e-07
8.62178e-07
8.85193e-07
9.01101e-07
9.33285e-07
9.67887e-07
9.95132e-07
1.01721e-06
1.03682e-06
1.0539e-06
1.0678e-06
1.07845e-06
1.086e-06
1.09082e-06
1.09336e-06
5.17268e-07
5.23274e-07
5.36206e-07
5.55577e-07
5.793e-07
6.04935e-07
6.30679e-07
6.6062e-07
6.70747e-07
7.08704e-07
7.61297e-07
7.8299e-07
8.02214e-07
8.38507e-07
8.76645e-07
9.06774e-07
9.31077e-07
9.52428e-07
9.70966e-07
9.86026e-07
9.97492e-07
1.00553e-06
1.01062e-06
1.01304e-06
4.6568e-07
4.70721e-07
4.81808e-07
4.98317e-07
5.18369e-07
5.38643e-07
5.59702e-07
5.81083e-07
5.86819e-07
6.15012e-07
6.63599e-07
6.85817e-07
7.11044e-07
7.49892e-07
7.89828e-07
8.22512e-07
8.49207e-07
8.72315e-07
8.92203e-07
9.08304e-07
9.2044e-07
9.28867e-07
9.34133e-07
9.36713e-07
4.15298e-07
4.19547e-07
4.29006e-07
4.42994e-07
4.59684e-07
4.75412e-07
4.9256e-07
5.06547e-07
5.09535e-07
5.29665e-07
5.74211e-07
5.96245e-07
6.27456e-07
6.68222e-07
7.08822e-07
7.43119e-07
7.71659e-07
7.96079e-07
8.1686e-07
8.33674e-07
8.4631e-07
8.55025e-07
8.60285e-07
8.62522e-07
3.67421e-07
3.7101e-07
3.78994e-07
3.90698e-07
4.04194e-07
4.16076e-07
4.29589e-07
4.37214e-07
4.38328e-07
4.51616e-07
4.92295e-07
5.13388e-07
5.50156e-07
5.92722e-07
6.33362e-07
6.6845e-07
6.98309e-07
7.23722e-07
7.45093e-07
7.62291e-07
7.75197e-07
7.84136e-07
7.89676e-07
7.92429e-07
3.22302e-07
3.25323e-07
3.31896e-07
3.41425e-07
3.51818e-07
3.60498e-07
3.70402e-07
3.72842e-07
3.72623e-07
3.80141e-07
4.17139e-07
4.37143e-07
4.78576e-07
5.22698e-07
5.63147e-07
5.98548e-07
6.29337e-07
6.55584e-07
6.77455e-07
6.94841e-07
7.07557e-07
7.15711e-07
7.19639e-07
7.20074e-07
2.80538e-07
2.83016e-07
2.88076e-07
2.95266e-07
3.02487e-07
3.08397e-07
3.14512e-07
3.13311e-07
3.11953e-07
3.14776e-07
3.47925e-07
3.67209e-07
4.12237e-07
4.57739e-07
4.98109e-07
5.33647e-07
5.65058e-07
5.91948e-07
6.14334e-07
6.32344e-07
6.46128e-07
6.56085e-07
6.62966e-07
6.67501e-07
2.42551e-07
2.44498e-07
2.47906e-07
2.52399e-07
2.56197e-07
2.59241e-07
2.61082e-07
2.58093e-07
2.55175e-07
2.55042e-07
2.84408e-07
3.03735e-07
3.51117e-07
3.97828e-07
4.38374e-07
4.74181e-07
5.06246e-07
5.33501e-07
5.55252e-07
5.71392e-07
5.81895e-07
5.86725e-07
5.8616e-07
5.81614e-07
5.7542e-07
2.08318e-07
2.0981e-07
2.11544e-07
2.13096e-07
2.13253e-07
2.12818e-07
2.0973e-07
2.06476e-07
2.0016e-07
2.00792e-07
2.2728e-07
2.47152e-07
2.95833e-07
3.43661e-07
3.84272e-07
4.20247e-07
4.53714e-07
4.83712e-07
5.09301e-07
5.30466e-07
5.478e-07
5.62529e-07
5.76205e-07
5.88853e-07
5.98046e-07
1.78036e-07
1.78946e-07
1.78581e-07
1.7672e-07
1.73093e-07
1.6882e-07
1.61561e-07
1.59396e-07
1.47573e-07
1.56895e-07
1.79022e-07
1.97842e-07
2.47088e-07
2.96488e-07
3.37261e-07
3.72052e-07
4.03326e-07
4.30281e-07
4.51993e-07
4.68071e-07
4.77833e-07
4.80727e-07
4.77593e-07
4.72635e-07
4.71291e-07
1.54008e-07
1.53582e-07
1.49361e-07
1.42068e-07
1.33307e-07
1.2495e-07
1.16645e-07
1.18068e-07
1.04568e-07
1.32959e-07
1.43815e-07
1.57021e-07
2.03777e-07
2.53963e-07
2.98971e-07
3.42553e-07
3.86171e-07
4.28083e-07
4.67366e-07
5.04925e-07
5.42911e-07
5.84068e-07
6.28973e-07
6.71202e-07
7.0151e-07
1.39773e-07
1.37347e-07
1.27731e-07
1.12419e-07
9.49274e-08
7.91535e-08
7.06806e-08
7.78051e-08
7.55324e-08
1.20657e-07
1.23155e-07
1.33733e-07
1.71888e-07
2.14599e-07
2.57464e-07
3.065e-07
3.62049e-07
4.20794e-07
4.80164e-07
5.38357e-07
5.93319e-07
6.43231e-07
6.87392e-07
7.24368e-07
7.54874e-07
1.33192e-07
1.2945e-07
1.16275e-07
9.49619e-08
6.84928e-08
4.01911e-08
2.60895e-08
4.39056e-08
6.44259e-08
9.96154e-08
8.45182e-08
1.33082e-07
2.11543e-07
2.96982e-07
3.86164e-07
4.78891e-07
5.75129e-07
6.73813e-07
7.72683e-07
8.68979e-07
9.58305e-07
1.03479e-06
1.09118e-06
1.12427e-06
1.14676e-06
)
;

boundaryField
{
    inlet
    {
        type            calculated;
        value           nonuniform List<scalar> 
25
(
1.33885e-07
1.29873e-07
1.16279e-07
9.41622e-08
6.60191e-08
3.47463e-08
2.22295e-08
4.97837e-08
8.10441e-08
7.57645e-08
1.58028e-07
3.00136e-07
5.13416e-07
7.71666e-07
1.06619e-06
1.39331e-06
1.75135e-06
2.13712e-06
2.54586e-06
2.97074e-06
3.40196e-06
3.82414e-06
4.21862e-06
4.56434e-06
4.85622e-06
)
;
    }
    outlet
    {
        type            calculated;
        value           nonuniform List<scalar> 0();
    }
    walls
    {
        type            calculated;
        value           nonuniform List<scalar> 0();
    }
    frontAndBack
    {
        type            empty;
    }
    procBoundary4to0
    {
        type            processor;
        value           nonuniform List<scalar> 
72
(
0.000592119
0.000502725
0.000429712
0.000369358
0.00031906
0.000276801
0.000241043
0.000210599
0.000184545
0.000162138
0.000142782
0.000125996
0.000111389
9.86383e-05
8.7478e-05
7.76839e-05
6.90677e-05
6.14733e-05
5.47675e-05
4.88352e-05
4.35791e-05
3.89164e-05
3.89164e-05
3.41754e-05
3.05536e-05
2.73296e-05
2.44568e-05
2.18947e-05
1.96081e-05
1.75656e-05
1.57398e-05
1.41068e-05
1.26454e-05
1.13367e-05
1.01644e-05
9.11357e-06
8.17131e-06
7.32607e-06
6.56758e-06
5.88671e-06
5.2753e-06
4.72611e-06
4.23268e-06
3.78927e-06
3.3907e-06
3.03238e-06
2.7102e-06
2.42047e-06
2.15989e-06
1.92553e-06
1.71474e-06
1.52515e-06
1.35464e-06
1.2013e-06
1.06349e-06
9.3975e-07
8.28691e-07
7.29181e-07
6.41477e-07
5.70808e-07
5.14815e-07
4.63571e-07
4.13513e-07
3.65919e-07
3.20996e-07
2.79303e-07
2.41247e-07
2.06803e-07
1.76064e-07
1.51235e-07
1.36148e-07
1.29205e-07
)
;
    }
    procBoundary4to5
    {
        type            processor;
        value           nonuniform List<scalar> 
95
(
0.000707906
0.000711939
0.000714458
0.0006072
0.0006072
0.000606779
0.000519083
0.000519083
0.000516471
0.000445241
0.000445241
0.000386131
0.000386131
0.000336774
0.000297192
0.000297192
0.000261657
0.000261657
0.000231183
0.000206026
0.000206026
0.000183213
0.00016391
0.00016391
0.000146526
0.000131474
0.000131474
0.000118021
0.000106139
9.54517e-05
9.54517e-05
8.61167e-05
7.75649e-05
6.98491e-05
6.98491e-05
6.32449e-05
5.70098e-05
5.1374e-05
5.1374e-05
4.66291e-05
4.20414e-05
3.78887e-05
3.78887e-05
3.44374e-05
3.10389e-05
2.79626e-05
2.518e-05
2.26644e-05
2.26644e-05
2.06138e-05
1.85478e-05
1.66812e-05
1.49965e-05
1.34769e-05
1.34769e-05
1.22397e-05
1.09937e-05
9.87182e-06
8.86235e-06
7.95487e-06
7.95487e-06
7.20464e-06
6.46506e-06
5.80152e-06
5.20659e-06
4.67345e-06
4.19594e-06
3.76848e-06
3.76848e-06
3.40485e-06
3.06014e-06
2.75185e-06
2.47563e-06
2.22721e-06
2.00318e-06
1.80162e-06
1.62131e-06
1.62131e-06
1.46303e-06
1.31971e-06
1.19353e-06
1.09393e-06
1.01327e-06
9.37179e-07
8.62452e-07
7.93121e-07
7.18086e-07
6.69868e-07
6.69868e-07
5.69255e-07
6.02887e-07
4.74238e-07
7.19281e-07
7.84648e-07
1.14908e-06
)
;
    }
}


// ************************************************************************* //
