/*--------------------------------*- C++ -*----------------------------------*\
| =========                 |                                                 |
| \\      /  F ield         | OpenFOAM: The Open Source CFD Toolbox           |
|  \\    /   O peration     | Version:  2506                                  |
|   \\  /    A nd           | Website:  www.openfoam.com                      |
|    \\/     M anipulation  |                                                 |
\*---------------------------------------------------------------------------*/
FoamFile
{
    version     2.0;
    format      ascii;
    arch        "LSB;label=32;scalar=64";
    class       volScalarField;
    location    "350";
    object      turbulenceProperties:epsilon;
}
// * * * * * * * * * * * * * * * * * * * * * * * * * * * * * * * * * * * * * //

dimensions      [0 2 -3 0 0 0 0];

internalField   nonuniform List<scalar> 
1340
(
0.000201528
0.000204592
0.000206979
0.000145542
0.000148165
0.000150397
0.000151837
0.000152433
0.000106528
0.000108719
0.000110689
0.00011218
0.000113155
0.000113533
0.000113132
7.88276e-05
8.06205e-05
8.22903e-05
8.36628e-05
8.47191e-05
8.54029e-05
8.55667e-05
8.51589e-05
5.88984e-05
6.03518e-05
6.17405e-05
6.29449e-05
6.39638e-05
6.47436e-05
6.51763e-05
6.52264e-05
6.48587e-05
4.43789e-05
4.55519e-05
4.66881e-05
4.7714e-05
4.86363e-05
4.94005e-05
4.99351e-05
5.02132e-05
5.02004e-05
3.3689e-05
3.46305e-05
3.55534e-05
3.64152e-05
3.72176e-05
3.79203e-05
3.84701e-05
3.88472e-05
3.90239e-05
3.89622e-05
2.57424e-05
2.6495e-05
2.72434e-05
2.79575e-05
2.86406e-05
2.92618e-05
2.97818e-05
3.01831e-05
3.04466e-05
3.05422e-05
3.04528e-05
1.97844e-05
2.0385e-05
2.09914e-05
2.15771e-05
2.21519e-05
2.26871e-05
2.31555e-05
2.35441e-05
2.38381e-05
2.40134e-05
2.40585e-05
1.52827e-05
1.57641e-05
1.62524e-05
1.67325e-05
1.72103e-05
1.76655e-05
1.80746e-05
1.84316e-05
1.87228e-05
1.89306e-05
1.90446e-05
1.90543e-05
1.18596e-05
1.22449e-05
1.26386e-05
1.303e-05
1.34254e-05
1.38069e-05
1.41589e-05
1.44756e-05
1.4747e-05
1.49597e-05
1.51063e-05
1.51779e-05
9.2411e-06
9.54938e-06
9.86674e-06
1.01852e-05
1.05106e-05
1.08279e-05
1.11265e-05
1.14017e-05
1.16456e-05
1.18485e-05
1.20046e-05
1.21067e-05
1.21465e-05
7.22679e-06
7.47415e-06
7.72943e-06
7.9886e-06
8.25514e-06
8.51787e-06
8.76875e-06
9.00414e-06
9.21822e-06
9.40327e-06
9.5553e-06
9.66893e-06
9.73729e-06
5.67013e-06
5.86843e-06
6.07407e-06
6.28468e-06
6.50242e-06
6.71921e-06
6.92823e-06
7.12762e-06
7.31222e-06
7.47677e-06
7.61792e-06
7.73182e-06
7.81298e-06
7.85791e-06
4.46181e-06
4.62085e-06
4.7868e-06
4.95743e-06
5.13516e-06
5.31326e-06
5.48677e-06
5.65392e-06
5.81134e-06
5.95451e-06
6.08153e-06
6.18882e-06
6.27296e-06
6.33086e-06
3.5202e-06
3.64782e-06
3.78185e-06
3.92005e-06
4.06493e-06
4.21087e-06
4.35416e-06
4.49369e-06
4.62651e-06
4.74955e-06
4.86122e-06
4.95893e-06
5.04016e-06
5.10223e-06
2.7839e-06
2.88641e-06
2.99452e-06
3.10652e-06
3.22438e-06
3.34378e-06
3.46166e-06
3.57759e-06
3.68889e-06
3.79354e-06
3.89013e-06
3.97704e-06
4.05196e-06
4.11326e-06
4.15871e-06
2.20625e-06
2.28871e-06
2.37589e-06
2.4666e-06
2.56244e-06
2.65985e-06
2.75672e-06
2.85255e-06
2.94541e-06
3.0336e-06
3.11624e-06
3.19206e-06
3.25938e-06
3.31702e-06
3.36311e-06
1.75176e-06
1.81819e-06
1.88845e-06
1.96192e-06
2.03983e-06
2.11917e-06
2.19864e-06
2.27755e-06
2.35468e-06
2.42853e-06
2.49859e-06
2.56375e-06
2.62306e-06
2.6754e-06
2.7194e-06
1.39331e-06
1.44676e-06
1.50347e-06
1.56292e-06
1.62614e-06
1.69079e-06
1.75577e-06
1.82062e-06
1.88438e-06
1.94593e-06
2.00484e-06
2.06043e-06
2.11186e-06
2.15834e-06
2.1989e-06
2.2324e-06
1.10992e-06
1.15292e-06
1.19869e-06
1.24682e-06
1.29806e-06
1.3507e-06
1.40375e-06
1.45696e-06
1.50949e-06
1.56059e-06
1.60987e-06
1.65686e-06
1.70089e-06
1.74149e-06
1.7778e-06
1.80911e-06
8.85365e-07
9.19997e-07
9.56917e-07
9.95856e-07
1.03742e-06
1.08019e-06
1.12346e-06
1.16704e-06
1.21023e-06
1.25246e-06
1.29348e-06
1.33291e-06
1.37029e-06
1.40526e-06
1.43726e-06
1.46564e-06
6.8253e-07
7.07118e-07
7.34992e-07
7.64783e-07
7.96271e-07
8.2995e-07
8.6469e-07
8.99932e-07
9.35556e-07
9.70963e-07
1.00577e-06
1.03978e-06
1.07269e-06
1.10421e-06
1.13403e-06
1.16177e-06
1.18692e-06
1.20892e-06
5.45582e-07
5.65368e-07
5.87798e-07
6.11841e-07
6.37298e-07
6.64571e-07
6.92771e-07
7.21454e-07
7.50516e-07
7.79513e-07
8.08127e-07
8.36213e-07
8.63562e-07
8.89948e-07
9.15166e-07
9.38934e-07
9.6088e-07
9.80592e-07
4.36547e-07
4.52463e-07
4.70515e-07
4.89916e-07
5.10488e-07
5.3257e-07
5.55438e-07
5.78763e-07
6.02447e-07
6.26165e-07
6.49618e-07
6.72745e-07
6.95391e-07
7.17373e-07
7.38557e-07
7.58728e-07
7.77622e-07
7.94926e-07
3.49609e-07
3.62409e-07
3.76935e-07
3.92582e-07
4.09209e-07
4.2707e-07
4.45606e-07
4.64548e-07
4.83843e-07
5.03194e-07
5.22391e-07
5.41392e-07
5.60075e-07
5.78304e-07
5.95986e-07
6.12976e-07
6.29086e-07
6.44049e-07
6.57591e-07
2.80204e-07
2.90491e-07
3.02177e-07
3.14793e-07
3.28224e-07
3.42669e-07
3.57689e-07
3.73073e-07
3.88765e-07
4.04522e-07
4.2021e-07
4.35785e-07
4.51144e-07
4.66205e-07
4.80901e-07
4.95122e-07
5.08722e-07
5.21519e-07
5.33292e-07
2.24727e-07
2.32991e-07
2.42391e-07
2.52558e-07
2.63403e-07
2.75083e-07
2.87246e-07
2.99731e-07
3.12468e-07
3.253e-07
3.38103e-07
3.50842e-07
3.63443e-07
3.75841e-07
3.88003e-07
3.99837e-07
4.11235e-07
4.22067e-07
4.32172e-07
1.80332e-07
1.86972e-07
1.94531e-07
2.02717e-07
2.11475e-07
2.20914e-07
2.30758e-07
2.40876e-07
2.51221e-07
2.61661e-07
2.72095e-07
2.82489e-07
2.928e-07
3.02981e-07
3.1301e-07
3.2281e-07
3.3231e-07
3.41408e-07
3.4998e-07
1.44777e-07
1.50108e-07
1.56181e-07
1.62774e-07
1.69841e-07
1.77468e-07
1.85433e-07
1.93631e-07
2.02031e-07
2.10509e-07
2.18995e-07
2.27472e-07
2.35897e-07
2.44237e-07
2.52472e-07
2.60552e-07
2.6843e-07
2.76022e-07
2.83227e-07
1.16277e-07
1.20553e-07
1.25429e-07
1.30739e-07
1.36439e-07
1.426e-07
1.49042e-07
1.55685e-07
1.62494e-07
1.69378e-07
1.7628e-07
1.83183e-07
1.90053e-07
1.96868e-07
2.03613e-07
2.10255e-07
2.16754e-07
2.23047e-07
2.29058e-07
2.34693e-07
9.34152e-08
9.68428e-08
1.00755e-07
1.0503e-07
1.09626e-07
1.14602e-07
1.1981e-07
1.25191e-07
1.30712e-07
1.363e-07
1.41907e-07
1.47518e-07
1.53112e-07
1.58672e-07
1.64183e-07
1.69624e-07
1.74963e-07
1.80152e-07
1.85138e-07
1.8984e-07
7.50629e-08
7.78083e-08
8.09456e-08
8.43861e-08
8.80912e-08
9.21076e-08
9.63216e-08
1.00677e-07
1.05153e-07
1.09684e-07
1.14236e-07
1.18796e-07
1.23346e-07
1.27872e-07
1.32368e-07
1.36812e-07
1.41181e-07
1.45444e-07
1.49554e-07
1.53447e-07
6.03231e-08
6.25195e-08
6.50343e-08
6.78015e-08
7.07893e-08
7.40315e-08
7.74386e-08
8.09659e-08
8.45917e-08
8.82677e-08
9.19632e-08
9.56665e-08
9.93622e-08
1.03044e-07
1.06703e-07
1.10323e-07
1.1389e-07
1.17377e-07
1.20745e-07
1.23951e-07
4.84792e-08
5.02338e-08
5.22494e-08
5.44737e-08
5.68826e-08
5.95001e-08
6.22556e-08
6.51121e-08
6.80515e-08
7.10329e-08
7.4031e-08
7.70363e-08
8.00381e-08
8.30272e-08
8.60007e-08
8.89456e-08
9.18496e-08
9.46908e-08
9.74426e-08
1.00066e-07
3.89581e-08
4.03584e-08
4.19725e-08
4.37604e-08
4.57019e-08
4.78155e-08
5.00452e-08
5.23591e-08
5.47426e-08
5.71602e-08
5.95932e-08
6.20331e-08
6.44693e-08
6.68951e-08
6.93084e-08
7.16989e-08
7.40573e-08
7.63666e-08
7.86047e-08
8.07408e-08
8.27367e-08
3.13017e-08
3.24182e-08
3.37096e-08
3.5147e-08
3.67115e-08
3.84192e-08
4.02237e-08
4.20994e-08
4.40332e-08
4.59955e-08
4.79699e-08
4.99503e-08
5.19262e-08
5.38943e-08
5.58514e-08
5.77899e-08
5.97012e-08
6.15725e-08
6.33865e-08
6.51186e-08
6.67385e-08
2.51434e-08
2.60326e-08
2.70654e-08
2.82204e-08
2.94819e-08
3.0862e-08
3.23234e-08
3.38457e-08
3.54154e-08
3.70084e-08
3.8612e-08
4.02194e-08
4.18228e-08
4.3419e-08
4.50052e-08
4.65752e-08
4.81223e-08
4.96368e-08
5.11033e-08
5.25029e-08
5.38112e-08
2.01894e-08
2.08967e-08
2.17221e-08
2.26501e-08
2.36677e-08
2.47839e-08
2.59687e-08
2.72047e-08
2.848e-08
2.97752e-08
3.10783e-08
3.23844e-08
3.3686e-08
3.49808e-08
3.62656e-08
3.75364e-08
3.87873e-08
4.00099e-08
4.11927e-08
4.23202e-08
4.33724e-08
1.62038e-08
1.67657e-08
1.74249e-08
1.81705e-08
1.89919e-08
1.98954e-08
2.08573e-08
2.18619e-08
2.28997e-08
2.39539e-08
2.50142e-08
2.60759e-08
2.71333e-08
2.81834e-08
2.92245e-08
3.02527e-08
3.12632e-08
3.2249e-08
3.32013e-08
3.41074e-08
3.49506e-08
1.29973e-08
1.3443e-08
1.39692e-08
1.45686e-08
1.52318e-08
1.59642e-08
1.67461e-08
1.75644e-08
1.84103e-08
1.92692e-08
2.01329e-08
2.09969e-08
2.18566e-08
2.27093e-08
2.35533e-08
2.43851e-08
2.52011e-08
2.59955e-08
2.67611e-08
2.74875e-08
2.81618e-08
2.8771e-08
1.04178e-08
1.07709e-08
1.11908e-08
1.16727e-08
1.22087e-08
1.28033e-08
1.34401e-08
1.41076e-08
1.47983e-08
1.54994e-08
1.62041e-08
1.69084e-08
1.76082e-08
1.83012e-08
1.89858e-08
1.96591e-08
2.03182e-08
2.09581e-08
2.15727e-08
2.21541e-08
2.2692e-08
2.31756e-08
8.34322e-09
8.62246e-09
8.95733e-09
9.34492e-09
9.77891e-09
1.02624e-08
1.0782e-08
1.13277e-08
1.18926e-08
1.24663e-08
1.30424e-08
1.36175e-08
1.41881e-08
1.4752e-08
1.53078e-08
1.58532e-08
1.63857e-08
1.6901e-08
1.73941e-08
1.78591e-08
1.82872e-08
1.867e-08
6.67507e-09
6.89559e-09
7.16246e-09
7.47451e-09
7.82644e-09
8.22038e-09
8.64541e-09
9.09256e-09
9.55577e-09
1.00261e-08
1.04981e-08
1.09687e-08
1.14347e-08
1.18944e-08
1.23462e-08
1.27885e-08
1.32188e-08
1.36339e-08
1.40298e-08
1.44012e-08
1.47415e-08
1.50439e-08
5.33428e-09
5.50806e-09
5.72073e-09
5.97226e-09
6.2581e-09
6.57985e-09
6.92842e-09
7.29574e-09
7.67656e-09
8.06314e-09
8.45076e-09
8.83674e-09
9.21814e-09
9.59347e-09
9.96152e-09
1.03206e-08
1.06688e-08
1.10036e-08
1.13215e-08
1.1618e-08
1.18882e-08
1.21268e-08
4.25714e-09
4.39379e-09
4.56325e-09
4.76623e-09
4.99892e-09
5.26251e-09
5.54907e-09
5.8517e-09
6.16566e-09
6.48435e-09
6.80355e-09
7.12084e-09
7.4337e-09
7.74085e-09
8.04127e-09
8.3334e-09
8.61557e-09
8.88573e-09
9.14101e-09
9.37794e-09
9.59249e-09
9.78047e-09
3.3923e-09
3.49955e-09
3.63454e-09
3.79865e-09
3.98862e-09
4.20512e-09
4.44142e-09
4.69149e-09
4.95113e-09
5.21458e-09
5.47816e-09
5.73969e-09
5.99706e-09
6.24908e-09
6.49475e-09
6.73285e-09
6.96197e-09
7.1804e-09
7.38571e-09
7.57526e-09
7.74561e-09
7.89354e-09
2.69846e-09
2.78245e-09
2.88998e-09
3.02295e-09
3.1785e-09
3.35682e-09
3.55231e-09
3.75961e-09
3.97496e-09
4.19338e-09
4.41167e-09
4.62795e-09
4.8403e-09
5.04757e-09
5.24902e-09
5.44363e-09
5.63026e-09
5.80725e-09
5.97278e-09
6.12461e-09
6.26e-09
6.37645e-09
6.47139e-09
2.14231e-09
2.20789e-09
2.29357e-09
2.40164e-09
2.52934e-09
2.67668e-09
2.83897e-09
3.01133e-09
3.19054e-09
3.37219e-09
3.55358e-09
3.73302e-09
3.90871e-09
4.07972e-09
4.24548e-09
4.40508e-09
4.55751e-09
4.70143e-09
4.83525e-09
4.9571e-09
5.0649e-09
5.15665e-09
5.23047e-09
1.69698e-09
1.74804e-09
1.81637e-09
1.90447e-09
2.00963e-09
2.13178e-09
2.26694e-09
2.41067e-09
2.56029e-09
2.71187e-09
2.86311e-09
3.0125e-09
3.15833e-09
3.2999e-09
3.43674e-09
3.56814e-09
3.6931e-09
3.81045e-09
3.91887e-09
4.01685e-09
4.10272e-09
4.17502e-09
4.23235e-09
1.34085e-09
1.38045e-09
1.43503e-09
1.50711e-09
1.59394e-09
1.69557e-09
1.80848e-09
1.92866e-09
2.05398e-09
2.18083e-09
2.30739e-09
2.43226e-09
2.55376e-09
2.67129e-09
2.78467e-09
2.89319e-09
2.99579e-09
3.09149e-09
3.17926e-09
3.25792e-09
3.32621e-09
3.38305e-09
3.42744e-09
1.05644e-09
1.08706e-09
1.13071e-09
1.18991e-09
1.26181e-09
1.34668e-09
1.44124e-09
1.54197e-09
1.64732e-09
1.75368e-09
1.86002e-09
1.96489e-09
2.0664e-09
2.1642e-09
2.25824e-09
2.34776e-09
2.43177e-09
2.50948e-09
2.58017e-09
2.64302e-09
2.69706e-09
2.74151e-09
2.77577e-09
8.29688e-10
8.53282e-10
8.88291e-10
9.37083e-10
9.96766e-10
1.06793e-09
1.14722e-09
1.23192e-09
1.32074e-09
1.41002e-09
1.49992e-09
1.58844e-09
1.67316e-09
1.75424e-09
1.83193e-09
1.90542e-09
1.97378e-09
2.03653e-09
2.09324e-09
2.14329e-09
2.18592e-09
2.22058e-09
2.24688e-09
6.49287e-10
6.67432e-10
6.95575e-10
7.35911e-10
7.85559e-10
8.45454e-10
9.11897e-10
9.83388e-10
1.0584e-09
1.1333e-09
1.21025e-09
1.28527e-09
1.35518e-09
1.42158e-09
1.48539e-09
1.54553e-09
1.60106e-09
1.65177e-09
1.69743e-09
1.73751e-09
1.77133e-09
1.79845e-09
1.81863e-09
5.06157e-10
5.20098e-10
5.42782e-10
5.76195e-10
6.17561e-10
6.68106e-10
7.23521e-10
7.84252e-10
8.47398e-10
9.0999e-10
9.76865e-10
1.04039e-09
1.09703e-09
1.15086e-09
1.20348e-09
1.25316e-09
1.29876e-09
1.3403e-09
1.37761e-09
1.41009e-09
1.43716e-09
1.45845e-09
1.47387e-09
3.92912e-10
4.03606e-10
4.21967e-10
4.49696e-10
4.843e-10
5.27004e-10
5.72877e-10
6.25089e-10
6.77277e-10
7.29317e-10
7.88421e-10
8.41458e-10
8.86495e-10
9.30765e-10
9.75317e-10
1.01723e-09
1.05538e-09
1.09003e-09
1.121e-09
1.14764e-09
1.16947e-09
1.18625e-09
1.19798e-09
1.20507e-09
3.03683e-10
3.11844e-10
3.26799e-10
3.49913e-10
3.78969e-10
4.15021e-10
4.52874e-10
4.98518e-10
5.38952e-10
5.83891e-10
6.38724e-10
6.80759e-10
7.14485e-10
7.52193e-10
7.91603e-10
8.27573e-10
8.59647e-10
8.88737e-10
9.1462e-10
9.36586e-10
9.54206e-10
9.67416e-10
9.76377e-10
9.81388e-10
2.34681e-10
2.40862e-10
2.53088e-10
2.72284e-10
2.96559e-10
3.26574e-10
3.57639e-10
3.9741e-10
4.24817e-10
4.66958e-10
5.20831e-10
5.51847e-10
5.73861e-10
6.07491e-10
6.44405e-10
6.75988e-10
7.03091e-10
7.27693e-10
7.49512e-10
7.67695e-10
7.81934e-10
7.92336e-10
7.99167e-10
8.02944e-10
1.85711e-10
1.90383e-10
2.0026e-10
2.15683e-10
2.35323e-10
2.58858e-10
2.83143e-10
3.14836e-10
3.29775e-10
3.68842e-10
4.196e-10
4.42301e-10
4.58342e-10
4.91668e-10
5.28803e-10
5.58993e-10
5.84072e-10
6.0681e-10
6.26965e-10
6.43612e-10
6.56517e-10
6.65738e-10
6.71662e-10
6.74793e-10
1.51031e-10
1.54558e-10
1.62292e-10
1.7423e-10
1.89427e-10
2.06563e-10
2.24519e-10
2.46344e-10
2.53956e-10
2.83514e-10
3.27159e-10
3.46066e-10
3.63269e-10
3.96882e-10
4.33807e-10
4.64138e-10
4.89352e-10
5.12053e-10
5.3218e-10
5.48816e-10
5.61655e-10
5.70746e-10
5.76532e-10
5.79293e-10
1.22409e-10
1.25073e-10
1.31034e-10
1.40168e-10
1.51676e-10
1.63773e-10
1.76829e-10
1.90598e-10
1.94381e-10
2.13511e-10
2.48585e-10
2.65503e-10
2.85395e-10
3.17432e-10
3.52143e-10
3.8189e-10
4.07082e-10
4.29538e-10
4.49347e-10
4.65712e-10
4.78239e-10
4.87036e-10
4.92574e-10
4.95297e-10
9.73552e-11
9.93574e-11
1.03888e-10
1.10773e-10
1.19277e-10
1.2758e-10
1.3695e-10
1.44839e-10
1.46554e-10
1.58367e-10
1.86134e-10
2.00682e-10
2.22242e-10
2.52058e-10
2.83618e-10
3.11727e-10
3.36132e-10
3.57743e-10
3.76664e-10
3.9233e-10
4.04313e-10
4.12683e-10
4.17776e-10
4.1995e-10
7.62024e-11
7.76984e-11
8.10784e-11
8.61637e-11
9.22193e-11
9.77213e-11
1.04173e-10
1.07904e-10
1.08456e-10
1.15135e-10
1.36822e-10
1.48784e-10
1.70859e-10
1.98319e-10
2.26447e-10
2.52232e-10
2.75269e-10
2.95669e-10
3.13389e-10
3.28023e-10
3.39225e-10
3.47093e-10
3.52014e-10
3.54473e-10
5.86368e-11
5.97411e-11
6.21796e-11
6.58014e-11
6.98685e-11
7.33589e-11
7.74459e-11
7.847e-11
7.83788e-11
8.1576e-11
9.82402e-11
1.07874e-10
1.29292e-10
1.54229e-10
1.79023e-10
2.02238e-10
2.23579e-10
2.42617e-10
2.59075e-10
2.72543e-10
2.8261e-10
2.89161e-10
2.92344e-10
2.92697e-10
4.44252e-11
4.52135e-11
4.68447e-11
4.92124e-11
5.1649e-11
5.36873e-11
5.58379e-11
5.54128e-11
5.49339e-11
5.59342e-11
6.83466e-11
7.61203e-11
9.59326e-11
1.18277e-10
1.4006e-10
1.60757e-10
1.80239e-10
1.97801e-10
2.13045e-10
2.25719e-10
2.35667e-10
2.42986e-10
2.4811e-10
2.51516e-10
3.32088e-11
3.37443e-11
3.46915e-11
3.59604e-11
3.70512e-11
3.7937e-11
3.8478e-11
3.76023e-11
3.67572e-11
3.67194e-11
4.56714e-11
5.20793e-11
6.95942e-11
8.93412e-11
1.0848e-10
1.26925e-10
1.44671e-10
1.60668e-10
1.74036e-10
1.843e-10
1.91138e-10
1.94324e-10
1.93951e-10
1.90956e-10
1.86913e-10
2.44965e-11
2.48487e-11
2.52611e-11
2.56334e-11
2.56712e-11
2.55667e-11
2.48303e-11
2.4066e-11
2.26165e-11
2.27593e-11
2.9167e-11
3.44829e-11
4.94041e-11
6.66682e-11
8.33555e-11
9.96931e-11
1.16203e-10
1.32077e-10
1.46421e-10
1.58844e-10
1.69396e-10
1.78631e-10
1.87427e-10
1.95752e-10
2.01919e-10
1.78924e-11
1.80758e-11
1.80023e-11
1.76291e-11
1.69128e-11
1.60883e-11
1.47346e-11
1.43425e-11
1.22938e-11
1.38958e-11
1.80963e-11
2.2096e-11
3.44643e-11
4.96215e-11
6.42074e-11
7.81376e-11
9.18259e-11
1.04511e-10
1.15328e-10
1.23684e-10
1.28907e-10
1.30488e-10
1.28814e-10
1.2618e-10
1.25485e-10
1.33888e-11
1.3315e-11
1.25932e-11
1.13934e-11
1.00315e-11
8.81327e-12
7.68071e-12
7.86925e-12
6.17328e-12
9.97922e-12
1.16778e-11
1.39185e-11
2.34408e-11
3.64079e-11
5.04562e-11
6.62415e-11
8.41909e-11
1.03468e-10
1.23344e-10
1.43988e-10
1.66499e-10
1.92743e-10
2.23566e-10
2.54628e-10
2.78157e-10
1.10284e-11
1.06489e-11
9.21e-12
7.13428e-12
5.08693e-12
3.5368e-12
2.82015e-12
3.41733e-12
3.22238e-12
8.21813e-12
8.56201e-12
1.00974e-11
1.66782e-11
2.60002e-11
3.7435e-11
5.30679e-11
7.40685e-11
1.00084e-10
1.30357e-10
1.63922e-10
1.99175e-10
2.34194e-10
2.67552e-10
2.97154e-10
3.22675e-10
1.00144e-11
9.45966e-12
7.63216e-12
5.09073e-12
2.64839e-12
9.11937e-13
3.84248e-13
1.08825e-12
2.34309e-12
5.60387e-12
4.03517e-12
1.00275e-11
2.53359e-11
4.99304e-11
8.44233e-11
1.29841e-10
1.87276e-10
2.5707e-10
3.38069e-10
4.27631e-10
5.20141e-10
6.06576e-10
6.74542e-10
7.15994e-10
7.44747e-10
)
;

boundaryField
{
    inlet
    {
        type            calculated;
        value           nonuniform List<scalar> 
25
(
9.15335e-12
8.61311e-12
6.90475e-12
4.52827e-12
2.22601e-12
6.16513e-13
2.52795e-13
1.26875e-12
3.35917e-12
2.94895e-12
1.41487e-11
5.10685e-11
1.49397e-10
3.37426e-10
6.4409e-10
1.09988e-09
1.73773e-09
2.58751e-09
3.67188e-09
4.99974e-09
6.55659e-09
8.28492e-09
1.0082e-08
1.18014e-08
1.33579e-08
)
;
    }
    outlet
    {
        type            calculated;
        value           nonuniform List<scalar> 0();
    }
    walls
    {
        type            calculated;
        value           nonuniform List<scalar> 0();
    }
    frontAndBack
    {
        type            empty;
    }
    procBoundary4to0
    {
        type            processor;
        value           nonuniform List<scalar> 
72
(
0.000197885
0.000142645
0.00010422
7.7e-05
5.74567e-05
4.32447e-05
3.27934e-05
2.50329e-05
1.92222e-05
1.48378e-05
1.15066e-05
8.96015e-06
7.00302e-06
5.49152e-06
4.31916e-06
3.40616e-06
2.69249e-06
2.13293e-06
1.69297e-06
1.34607e-06
1.07192e-06
8.5481e-07
8.5481e-07
6.59224e-07
5.26902e-07
4.21571e-07
3.37603e-07
2.70574e-07
2.17009e-07
1.74155e-07
1.39832e-07
1.12322e-07
9.02549e-08
7.25414e-08
5.83139e-08
4.68799e-08
3.76872e-08
3.02938e-08
2.43457e-08
1.95595e-08
1.57075e-08
1.26072e-08
1.01122e-08
8.10449e-09
6.48926e-09
5.19021e-09
4.14592e-09
3.30687e-09
2.6332e-09
2.09276e-09
1.65965e-09
1.31295e-09
1.03579e-09
8.14575e-10
6.38407e-10
4.98487e-10
3.87628e-10
3.00125e-10
2.32272e-10
1.83914e-10
1.49603e-10
1.21303e-10
9.65204e-11
7.55811e-11
5.81625e-11
4.40351e-11
3.28528e-11
2.41416e-11
1.74983e-11
1.29111e-11
1.04638e-11
9.42389e-12
)
;
    }
    procBoundary4to5
    {
        type            processor;
        value           nonuniform List<scalar> 
95
(
0.000282843
0.000286075
0.000288103
0.000208094
0.000208094
0.000207806
0.00015208
0.00015208
0.000150554
0.00011189
0.00011189
8.4153e-05
8.4153e-05
6.40145e-05
4.98514e-05
4.98514e-05
3.86425e-05
3.86425e-05
3.01656e-05
2.39577e-05
2.39577e-05
1.89458e-05
1.5164e-05
1.5164e-05
1.21181e-05
9.75625e-06
9.75625e-06
7.86175e-06
6.35842e-06
5.14241e-06
5.14241e-06
4.18576e-06
3.3957e-06
2.75372e-06
2.75372e-06
2.25761e-06
1.83442e-06
1.48965e-06
1.48965e-06
1.22719e-06
9.97587e-07
8.10243e-07
8.10243e-07
6.69354e-07
5.4376e-07
4.41318e-07
3.57854e-07
2.89923e-07
2.89923e-07
2.39835e-07
1.94168e-07
1.57054e-07
1.26932e-07
1.02512e-07
1.02512e-07
8.45541e-08
6.82148e-08
5.50031e-08
4.43294e-08
3.57157e-08
3.57157e-08
2.92967e-08
2.35906e-08
1.89967e-08
1.53004e-08
1.23274e-08
9.93703e-09
8.01553e-09
8.01553e-09
6.5433e-09
5.28547e-09
4.27421e-09
3.45923e-09
2.79984e-09
2.26493e-09
1.83208e-09
1.48373e-09
1.48373e-09
1.20819e-09
9.83083e-10
8.04087e-10
6.75499e-10
5.79555e-10
4.9579e-10
4.19882e-10
3.55091e-10
2.91083e-10
2.53304e-10
2.53304e-10
1.82932e-10
2.05207e-10
1.27077e-10
2.9244e-10
3.48596e-10
7.47652e-10
)
;
    }
}


// ************************************************************************* //
