/*--------------------------------*- C++ -*----------------------------------*\
| =========                 |                                                 |
| \\      /  F ield         | OpenFOAM: The Open Source CFD Toolbox           |
|  \\    /   O peration     | Version:  2506                                  |
|   \\  /    A nd           | Website:  www.openfoam.com                      |
|    \\/     M anipulation  |                                                 |
\*---------------------------------------------------------------------------*/
FoamFile
{
    version     2.0;
    format      ascii;
    arch        "LSB;label=32;scalar=64";
    class       volScalarField;
    location    "50";
    object      div(phi);
}
// * * * * * * * * * * * * * * * * * * * * * * * * * * * * * * * * * * * * * //

dimensions      [0 0 -1 0 0 0 0];

internalField   nonuniform List<scalar> 
1340
(
3.32435e-05
4.05487e-05
2.91876e-06
2.15394e-05
-6.52677e-06
1.89764e-05
8.17026e-06
-1.3193e-05
2.13414e-05
1.01565e-06
-3.7904e-06
4.2478e-06
-1.08446e-05
1.21456e-05
-5.16983e-06
1.79345e-05
9.96418e-06
-5.85339e-06
-9.66346e-07
-6.243e-06
6.01768e-06
-9.65721e-06
2.06515e-05
7.98178e-07
3.35893e-06
3.06168e-06
5.06918e-06
-6.29066e-07
-2.52259e-06
-8.75817e-07
4.7171e-06
-8.31815e-06
1.29781e-05
-4.32452e-06
1.56521e-05
1.33316e-05
6.41374e-06
3.18552e-06
7.62877e-07
2.2208e-06
6.53712e-08
-4.28564e-07
5.29798e-07
1.39141e-06
-4.38354e-06
8.17338e-06
-8.00773e-06
1.87377e-05
7.3412e-07
-2.34926e-06
2.19277e-05
-2.67289e-06
1.02699e-05
5.38191e-06
7.97564e-06
7.66274e-07
9.71461e-07
1.40253e-06
1.51236e-06
6.58515e-07
-1.16802e-07
-3.30756e-07
6.67908e-06
-6.73421e-06
1.37278e-05
-3.64886e-06
1.36848e-05
-5.91394e-05
4.61106e-05
-2.97761e-05
2.42214e-05
-3.86954e-06
1.62626e-05
-1.25891e-06
7.35862e-06
7.96924e-07
1.11033e-05
6.12945e-06
1.52258e-06
7.75466e-07
2.52473e-06
1.65184e-06
3.37919e-07
5.42368e-07
4.13452e-06
-2.76887e-06
1.01523e-05
-6.73388e-06
1.69627e-05
6.64843e-07
2.17878e-05
1.70281e-06
5.45822e-05
3.8113e-05
1.97134e-05
4.58135e-05
2.63306e-05
-2.50027e-06
1.55129e-05
-8.3906e-07
5.65055e-06
1.86627e-05
-1.96718e-06
1.27361e-05
-7.41064e-06
1.29389e-05
5.92092e-06
6.25807e-06
9.99474e-07
1.48867e-06
2.88138e-06
1.56558e-06
1.24248e-06
3.16014e-06
2.54339e-07
8.06282e-06
-5.10037e-06
1.32891e-05
-3.24163e-06
1.08481e-05
-0.000230207
9.50682e-05
-6.14139e-05
8.69021e-05
-4.14108e-05
9.40249e-05
-2.5081e-05
9.20938e-05
-2.37711e-05
8.18932e-05
-2.78952e-05
8.6106e-05
-3.39311e-05
7.68643e-05
-2.45881e-05
7.43444e-05
-1.52116e-05
6.1337e-05
-2.2216e-06
3.61732e-05
-5.82043e-07
1.46405e-05
1.61969e-05
2.65421e-06
1.7405e-05
-9.08715e-06
1.83695e-05
-1.29439e-06
8.96461e-06
2.64445e-06
1.61009e-07
2.9928e-06
8.21135e-07
2.60118e-06
2.07473e-06
5.16879e-07
7.05225e-06
-5.39575e-07
1.07686e-05
-5.65921e-06
1.41485e-05
3.55772e-07
-0.0257324
-0.0104348
-0.00704015
-0.00718893
-0.0039025
-0.00493126
-0.002074
-0.0034824
-0.000978009
-0.00245591
-0.000243222
-0.00163823
0.00011566
-0.0010925
0.000301865
-0.00073088
0.00036103
-0.000468492
0.00042617
-0.000250914
0.000456524
-6.67787e-05
0.00050036
9.47148e-05
0.000512525
0.000219739
0.000488612
0.000293273
0.000431557
0.000288693
0.000358177
0.000245336
0.000282665
0.000205886
0.000217752
0.000168702
0.000160513
0.000152496
0.000102408
0.000145986
6.17505e-05
0.000134319
3.908e-05
0.000117211
2.27241e-05
9.6273e-05
1.74272e-05
7.51228e-05
1.37732e-05
6.00693e-05
1.64702e-05
4.80197e-05
2.2419e-05
4.29572e-05
2.52701e-05
3.703e-05
2.26514e-05
2.13596e-05
2.04937e-05
1.27443e-05
1.82438e-05
2.5545e-07
2.00396e-05
5.08198e-07
7.30296e-06
3.26438e-06
-4.05942e-07
3.08783e-06
-1.18753e-06
2.92359e-06
-7.38387e-07
1.06646e-06
6.42269e-06
1.99253e-06
9.26642e-06
-3.18215e-06
1.2642e-05
-2.892e-06
8.45451e-06
-0.000204393
0.00193034
0.00278619
0.000909668
0.00152978
0.000281249
0.000877595
-4.5616e-05
0.000464408
-0.000201821
0.000268245
-0.000234084
0.00015139
-0.00020003
0.000121168
-0.000144902
0.000100494
-8.56247e-05
0.000114028
-2.62702e-05
0.000113079
3.17685e-05
0.000134286
8.46513e-05
0.000134891
0.000129743
0.000143727
0.000152304
0.000134958
0.000170435
0.000124447
0.00018002
0.000139699
0.000165266
9.82051e-05
0.000147611
6.52213e-05
0.000135338
3.98592e-05
0.000124687
2.12153e-05
0.000124173
2.82685e-05
0.000116674
3.20655e-05
0.000103503
3.16713e-05
8.50395e-05
3.21755e-05
6.71214e-05
3.18688e-05
5.63307e-05
3.41004e-05
4.61551e-05
3.70022e-05
3.97578e-05
3.34924e-05
2.87836e-05
2.68862e-05
2.00921e-05
1.46227e-05
1.72872e-05
9.88877e-06
8.3621e-06
5.26577e-06
1.50326e-06
3.2978e-06
-2.43308e-07
2.20714e-06
-2.80187e-06
1.22809e-06
3.3792e-06
1.84591e-06
8.80073e-06
1.8001e-06
1.10578e-05
-4.3905e-06
1.15797e-05
1.42544e-07
-0.0133358
-0.00556894
-0.00545277
-0.00257193
-0.0029228
-0.00134558
-0.00195685
-0.000840706
-0.00151183
-0.000544454
-0.00119256
-0.000286937
-0.000879579
-0.000105644
-0.000670645
-1.5706e-05
-0.00052889
4.34525e-05
-0.000440324
8.87621e-05
-0.000363542
0.000141219
-0.000301118
0.000194703
-0.000253044
0.000246156
-0.000191046
0.000276634
-0.000163067
0.000264603
-9.77868e-05
0.000213643
-0.000120819
0.000165466
-0.000107502
0.000138817
-9.01399e-05
0.000133327
-7.99661e-05
0.00014299
-3.57642e-05
0.000146976
-6.37651e-06
0.000138982
1.42501e-05
0.000120546
2.67984e-05
9.91795e-05
3.10937e-05
8.26647e-05
3.75028e-05
6.56591e-05
4.15236e-05
5.60377e-05
4.12551e-05
4.69891e-05
3.98769e-05
3.60485e-05
3.0673e-05
2.49606e-05
2.00429e-05
1.70516e-05
1.25227e-05
1.01507e-05
6.04902e-06
3.77264e-06
3.4895e-06
3.19433e-06
-1.51529e-06
6.05365e-07
-1.84689e-06
3.90882e-06
5.23072e-06
3.78657e-06
9.93377e-06
-1.58851e-06
1.03261e-05
-2.65002e-06
5.64904e-06
0.01467
0.00819482
0.00519427
0.00493287
0.00251463
0.00351391
0.00130506
0.00285617
0.000767961
0.00251547
0.000352259
0.00220316
4.14666e-05
0.0018162
-0.00012685
0.00150808
-0.000172611
0.0012987
-0.000174554
0.00114968
-0.000155091
0.00103735
-0.000149743
0.000942319
-0.000152136
0.000832231
-0.000162133
0.000716683
-0.000171261
0.000593072
-0.000158162
0.00048314
-0.000159435
0.000377854
-0.000129898
0.000296513
-0.000142493
0.000242138
-0.000100712
0.00020965
-7.15377e-05
0.000190768
-3.11179e-05
0.000168535
-2.80055e-06
0.000142382
1.26109e-05
0.00011718
2.8873e-05
9.14766e-05
3.65663e-05
7.75083e-05
4.33267e-05
6.42496e-05
4.83032e-05
5.2947e-05
4.36296e-05
4.07221e-05
3.45901e-05
2.76382e-05
2.31405e-05
1.77275e-05
1.388e-05
1.2381e-05
6.60012e-06
6.17367e-06
5.36164e-06
4.09372e-06
-1.90683e-07
-4.92927e-06
6.1392e-06
-4.34258e-07
4.50563e-06
5.84056e-06
2.16312e-06
9.65396e-06
-4.10001e-06
7.60486e-06
-5.01244e-07
0.00600246
0.00248611
-0.00106686
0.00273871
-0.000941478
0.00273736
-0.000837884
0.00261923
-0.000863803
0.00248368
-0.000919283
0.00233882
-0.000986886
0.00205396
-0.000968399
0.00173122
-0.00086308
0.00147816
-0.000749838
0.00130467
-0.000631235
0.00119337
-0.000551704
0.00110912
-0.000477217
0.00101872
-0.000440744
0.000901379
-0.000374688
0.000772117
-0.00033525
0.000632376
-0.000266368
0.000506029
-0.000263685
0.000408402
-0.000192741
0.000342488
-0.000162743
0.000295882
-0.000103461
0.000253045
-5.9782e-05
0.00020377
-3.94364e-05
0.000156633
-1.278e-05
0.000116238
7.69942e-07
9.32797e-05
2.39216e-05
7.56793e-05
4.12739e-05
6.41391e-05
4.67959e-05
5.15359e-05
4.65352e-05
3.73147e-05
3.80458e-05
2.41382e-05
2.75758e-05
1.33449e-05
1.84556e-05
8.73161e-06
1.02458e-05
3.80199e-06
1.05898e-05
1.38599e-06
-4.41441e-06
7.11178e-06
-4.77615e-06
5.59161e-06
1.23477e-06
3.05192e-06
8.67808e-06
-2.5578e-06
7.37816e-06
-3.4032e-06
3.31842e-06
0.0181599
0.0111269
0.00563085
0.00802159
0.0026656
0.00614801
0.00129913
0.00502345
0.000397046
0.00427522
-6.82874e-05
0.00384292
-0.000436012
0.00345381
-0.000687962
0.00293342
-0.000741083
0.00246918
-0.000671614
0.00215743
-0.000568669
0.00195175
-0.000491541
0.00183159
-0.000454765
0.00170422
-0.000469949
0.0015187
-0.000476317
0.0012987
-0.000482903
0.00108712
-0.000442955
0.000894869
-0.000419361
0.000740772
-0.000362282
0.000614316
-0.000332977
0.000499372
-0.000265188
0.000390009
-0.00024873
0.000286791
-0.000199323
0.000213533
-0.000165694
0.000164344
-0.000103226
0.000135508
-4.92617e-05
0.000119359
-8.15684e-06
0.000100977
2.01164e-05
8.03583e-05
2.70766e-05
5.83988e-05
2.60208e-05
3.74741e-05
1.94147e-05
2.03398e-05
1.33681e-05
1.17784e-05
6.553e-06
6.7855e-06
7.83127e-06
-2.58669e-06
7.82988e-06
-4.52385e-06
5.76211e-06
4.89409e-07
2.17178e-06
6.10695e-06
1.3177e-06
8.55444e-06
-5.20268e-06
4.39849e-06
-1.45494e-06
0.0344309
0.0156223
0.0110743
0.0124502
0.00676137
0.0096407
0.0039897
0.00759461
0.00189394
0.00608576
0.000739841
0.00504899
-0.000120383
0.00435159
-0.000695667
0.00367841
-0.00106706
0.00295235
-0.00115446
0.00238604
-0.00110055
0.00197956
-0.00101651
0.00172528
-0.000980825
0.00156262
-0.000957685
0.00139426
-0.000904633
0.00121562
-0.000830348
0.00103787
-0.000715837
0.00087716
-0.000627816
0.000737262
-0.000514842
0.00061931
-0.000452712
0.000497792
-0.000354317
0.000374784
-0.000349546
0.000260356
-0.00028821
0.000178472
-0.000237193
0.000124871
-0.000176715
0.000104536
-9.78184e-05
9.53638e-05
-3.54188e-05
8.60819e-05
-4.01294e-06
7.16998e-05
1.35139e-05
5.29891e-05
1.42022e-05
3.44207e-05
9.7849e-06
1.93939e-05
6.41294e-06
1.17618e-05
1.91514e-06
8.6026e-06
3.33797e-06
5.88185e-06
2.86607e-06
3.42779e-06
4.04075e-06
1.15609e-06
3.94449e-06
3.16559e-06
1.07519e-05
-3.5338e-06
5.65225e-06
-4.61242e-06
1.33229e-06
0.0510002
0.0307691
0.0288446
0.0272375
0.0228238
0.0221023
0.0154862
0.0169901
0.0101017
0.0129111
0.0058256
0.00979532
0.00320049
0.00760823
0.00136877
0.00606805
0.000156102
0.00473833
-0.000584656
0.00359533
-0.000848046
0.00281554
-0.000827197
0.00233488
-0.000764264
0.00205635
-0.000690917
0.00185377
-0.000665867
0.0016041
-0.000581769
0.0013573
-0.000527337
0.0011193
-0.000430667
0.00092167
-0.000386701
0.000745286
-0.000317642
0.000599319
-0.000296578
0.000452563
-0.000244814
0.000316117
-0.000253968
0.00019664
-0.00023548
0.000122183
-0.000193766
8.57046e-05
-0.000133996
7.43267e-05
-7.7996e-05
6.86073e-05
-3.30506e-05
5.91941e-05
-1.32147e-05
4.50921e-05
-4.34943e-06
3.20541e-05
-7.77718e-07
2.13403e-05
3.12051e-07
1.45237e-05
-1.02927e-06
1.18162e-05
-6.05539e-08
1.25431e-05
2.08328e-07
8.23986e-06
6.90241e-07
3.00171e-06
1.41077e-06
9.50073e-06
2.16341e-07
1.05507e-05
-6.74201e-06
2.26003e-06
-2.20694e-06
0.0863881
0.0192013
0.0176663
0.0135577
0.0121963
0.00975911
0.00816093
0.00718588
0.00567962
0.00548533
0.00369037
0.00432433
0.00252883
0.00360229
0.00167747
0.00312287
0.00112509
0.00272081
0.00065108
0.0022766
0.000372549
0.00193834
0.00026373
0.00173838
0.000237859
0.00164531
0.000208757
0.00154017
0.000114912
0.0013311
-1.72214e-06
0.001081
-9.94393e-05
0.000852354
-0.000151536
0.000662694
-0.000186294
0.000511532
-0.000190144
0.000390258
-0.000188774
0.000289325
-0.000171468
0.000207785
-0.000132596
0.000139132
-0.000101412
9.15522e-05
-8.08889e-05
6.24079e-05
-4.33604e-05
4.86405e-05
-2.77707e-05
4.22634e-05
-7.77506e-06
3.74291e-05
2.49598e-06
3.03364e-05
6.62935e-06
2.239e-05
5.58499e-06
1.47047e-05
4.21867e-06
1.01332e-05
2.60295e-06
1.21087e-05
2.64809e-06
7.42357e-06
1.66794e-06
2.76907e-06
-7.26756e-07
5.03291e-06
1.59658e-06
1.53595e-05
-5.31573e-06
5.5464e-06
-5.27699e-06
3.52149e-07
-0.0498977
-0.00452724
-0.00669661
-0.00188139
-0.00451101
-0.000542228
-0.00316895
0.000240531
-0.00227061
0.000751783
-0.00145865
0.00107689
-0.00090961
0.00121283
-0.000526839
0.00123042
-0.000343948
0.00117929
-0.000197285
0.00105844
-0.000154003
0.00087178
-0.000119138
0.000699644
-9.91571e-05
0.000581414
-0.000101756
0.000497495
-0.000122971
0.000415136
-0.000148911
0.000327444
-0.000164176
0.00025592
-0.000162015
0.00020085
-0.00016149
0.000162209
-0.000141024
0.000130372
-0.000137661
9.41455e-05
-0.000105546
4.64286e-05
-0.000131405
6.7287e-06
-0.000121913
-1.48448e-05
-9.26884e-05
-1.37408e-05
-6.59427e-05
-2.73282e-06
-2.12163e-05
9.73365e-06
2.23349e-06
1.43785e-05
1.04875e-05
1.48901e-05
1.09138e-05
1.27331e-05
7.86216e-06
1.00279e-05
5.30612e-06
7.21005e-06
4.09907e-06
8.72789e-06
3.80315e-06
4.36343e-06
3.19131e-06
-4.12485e-08
2.54912e-06
-7.5469e-07
1.51935e-05
-2.22514e-06
1.34537e-05
-7.52878e-06
2.12265e-06
-3.13421e-06
0.0539983
-0.0087339
-0.0133106
-0.0133415
-0.0138219
-0.0119987
-0.0106105
-0.00919295
-0.00684999
-0.00664707
-0.00424924
-0.00482845
-0.00249251
-0.00357023
-0.00146393
-0.0027099
-0.000830609
-0.00210608
-0.000419473
-0.00168129
-0.000197257
-0.00132474
-1.56003e-05
-0.000990153
5.53285e-05
-0.000724384
9.64567e-05
-0.000539187
0.000109836
-0.000407379
0.000134072
-0.000296087
0.000136877
-0.000203084
0.000134652
-0.000136074
0.000114708
-8.94428e-05
9.33743e-05
-5.9598e-05
6.92295e-05
-4.07151e-05
4.14035e-05
-3.66587e-05
2.62344e-05
-5.15406e-05
-5.4334e-06
-6.76897e-05
-3.30007e-05
-7.54142e-05
-3.3492e-05
-6.52075e-05
-2.83309e-05
-4.44515e-05
-1.03024e-05
-2.24176e-05
3.82531e-06
-7.01079e-06
9.80148e-06
6.36253e-07
8.51395e-06
4.29207e-06
6.42069e-06
3.40885e-06
5.22898e-06
6.8031e-06
3.92401e-06
6.40025e-06
1.43738e-06
4.64703e-06
-2.02392e-06
1.03056e-05
9.39886e-07
2.11804e-05
-8.03662e-06
7.21998e-06
-6.87095e-06
-1.87216e-06
-0.11604
-0.0159782
-0.00742765
-0.00668754
-0.000138688
-0.00284518
0.00183748
-0.00172031
0.00185053
-0.00149973
0.00147229
-0.00147895
0.00112576
-0.0014664
0.000841715
-0.00143309
0.000687556
-0.00137983
0.000550806
-0.00133941
0.000467684
-0.00130984
0.000408036
-0.00124844
0.000314959
-0.00113361
0.000227878
-0.00102874
0.000119847
-0.000966822
7.07415e-05
-0.000902114
3.68792e-05
-0.000786364
5.56844e-05
-0.000640315
5.06978e-05
-0.000502347
6.6609e-05
-0.000380247
5.59236e-05
-0.000276093
6.11496e-05
-0.000192501
4.32867e-05
-0.000124607
5.90872e-05
-7.56331e-05
7.29615e-05
-4.58224e-05
7.6961e-05
-3.03174e-05
7.75904e-05
-2.38965e-05
6.14959e-05
-2.07697e-05
4.27044e-05
-1.60154e-05
2.7279e-05
-9.7624e-06
1.60036e-05
-1.78609e-06
1.11577e-05
-1.54416e-06
9.4835e-06
1.58837e-06
8.38332e-06
3.80315e-06
7.01242e-06
4.01764e-06
8.7471e-06
4.29453e-06
2.45985e-05
-7.13239e-06
1.42991e-05
-6.55833e-06
9.8693e-07
-1.67187e-06
0.0119709
-0.00793892
-0.0071056
-0.00854572
-0.00603299
-0.00763294
-0.00437375
-0.00636475
-0.00259603
-0.0052015
-0.00145897
-0.00432999
-0.000601754
-0.00367311
-0.00016116
-0.00320315
0.000155878
-0.0028448
0.000275453
-0.00256944
0.000309969
-0.00234327
0.000351852
-0.00212635
0.000345274
-0.00185769
0.00033682
-0.00155978
0.000264095
-0.0013243
0.000222994
-0.00116045
0.000181587
-0.00100469
0.000189722
-0.00081206
0.000172397
-0.000632579
0.000164911
-0.000482136
0.000135581
-0.000363674
0.000110591
-0.000268524
8.78243e-05
-0.000204026
7.93273e-05
-0.000161872
5.8034e-05
-0.000135953
6.10843e-05
-0.000112491
5.05281e-05
-8.86157e-05
4.65406e-05
-6.16323e-05
4.14854e-05
-3.54864e-05
3.72329e-05
-1.3057e-05
3.30846e-05
5.13347e-06
2.9258e-05
5.712e-06
2.22839e-05
1.01865e-05
1.93696e-05
1.85154e-05
1.48196e-05
2.03808e-05
9.22953e-06
2.41636e-05
-2.91865e-06
1.88012e-05
-9.90545e-07
7.57343e-06
2.52562e-06
1.20596e-06
-0.061556
-0.0173812
-0.00924008
-0.0113342
-0.00373657
-0.00795793
-0.00122658
-0.00613832
-0.000176251
-0.00502926
0.000299889
-0.00424703
0.000505701
-0.00364332
0.000535529
-0.0031486
0.000535235
-0.00271099
0.000483726
-0.00232828
0.000459701
-0.00197862
0.000416118
-0.00168161
0.000435824
-0.00140875
0.000426039
-0.00114224
0.000412974
-0.000902001
0.00037417
-0.000728406
0.000367807
-0.000604268
0.000366865
-0.000493239
0.000374201
-0.000378431
0.00035539
-0.000279801
0.000340856
-0.000198822
0.000321884
-0.00013467
0.000307102
-8.59659e-05
0.000296981
-4.81647e-05
0.000309637
-1.75153e-05
0.000293969
2.28971e-06
0.000277808
2.06873e-05
0.000240769
3.36526e-05
0.000201045
4.3679e-05
0.000164182
4.88769e-05
0.000126482
5.09287e-05
9.07817e-05
3.13479e-05
6.67003e-05
3.55009e-05
6.07951e-05
2.67675e-05
3.5676e-05
1.77293e-05
2.04794e-05
5.11315e-06
1.63678e-05
4.58011e-06
9.78229e-06
5.64912e-06
2.44469e-06
5.42463e-07
0.000813262
-0.000135616
0.000478273
-0.000122015
0.000549135
-6.29444e-05
0.000644358
4.08412e-05
0.000741606
0.000168173
0.000827407
0.00030279
0.000887843
0.000426214
0.000932442
0.000526875
0.000937029
0.000593353
0.000933761
0.000622654
0.000893965
0.000614989
0.00085966
0.00058047
0.000805697
0.000524049
0.00078014
0.000456902
0.000729342
0.000378851
0.000730374
0.000325404
0.000744151
0.000299729
0.000820646
0.00030053
0.000871478
0.000293956
0.000892143
0.000288655
0.000881635
0.000288157
0.000855682
0.000298149
0.000818616
0.000304048
0.000756302
0.0003026
0.000732309
0.000291856
0.000684198
0.000266196
0.000623702
0.000230981
0.000526123
0.000187502
0.00040175
0.000142231
0.000278316
0.000101502
0.000176283
7.07871e-05
0.000103495
3.43433e-05
6.91872e-05
3.78153e-05
5.26272e-05
1.98084e-05
2.22927e-05
1.08175e-05
8.34691e-06
7.57634e-06
4.15589e-06
5.06289e-06
3.30382e-06
1.4151e-06
3.31641e-07
0
)
;

boundaryField
{
    inlet
    {
        type            extrapolatedCalculated;
        value           nonuniform List<scalar> 
27
(
3.32435e-05
2.91876e-06
1.89764e-05
1.01565e-06
1.79345e-05
7.98178e-07
1.56521e-05
7.3412e-07
1.36848e-05
6.64843e-07
1.08481e-05
3.55772e-07
8.45451e-06
1.42544e-07
5.64904e-06
-5.01244e-07
3.31842e-06
-1.45494e-06
1.33229e-06
-2.20694e-06
3.52149e-07
-3.13421e-06
-1.87216e-06
-1.67187e-06
1.20596e-06
5.42463e-07
0
)
;
    }
    outlet
    {
        type            extrapolatedCalculated;
        value           nonuniform List<scalar> 
78
(
0.000813262
-0.000135616
0.000478273
-0.000122015
0.000549135
-6.29444e-05
0.000644358
4.08412e-05
0.000741606
0.000168173
0.000827407
0.00030279
0.000887843
0.000426214
0.000932442
0.000526875
0.000937029
0.000593353
0.000933761
0.000622654
0.000893965
0.000614989
0.00085966
0.00058047
0.000805697
0.000524049
0.00078014
0.000456902
0.000729342
0.000378851
0.000730374
0.000325404
0.000744151
0.000299729
0.000820646
0.00030053
0.000871478
0.000293956
0.000892143
0.000288655
0.000881635
0.000288157
0.000855682
0.000298149
0.000818616
0.000304048
0.000756302
0.0003026
0.000732309
0.000291856
0.000684198
0.000266196
0.000623702
0.000230981
0.000526123
0.000187502
0.00040175
0.000142231
0.000278316
0.000101502
0.000176283
7.07871e-05
0.000103495
3.43433e-05
6.91872e-05
3.78153e-05
5.26272e-05
1.98084e-05
2.22927e-05
1.08175e-05
8.34691e-06
7.57634e-06
4.15589e-06
5.06289e-06
3.30382e-06
1.4151e-06
3.31641e-07
0
)
;
    }
    walls
    {
        type            extrapolatedCalculated;
        value           nonuniform List<scalar> 0();
    }
    frontAndBack
    {
        type            empty;
    }
    procBoundary7to3
    {
        type            processor;
        value           nonuniform List<scalar> 
16
(
-0.0284331
-0.00386966
-0.00816797
0.0140278
0.0110559
0.0247402
0.0359785
0.0338161
0.0190731
0.0190731
-0.00284866
-0.00451371
-0.0194515
-0.00924864
-0.0198845
-0.000184611
)
;
    }
    procBoundary7to6
    {
        type            processor;
        value           nonuniform List<scalar> 
91
(
1.232e-05
-1.29523e-05
-1.29523e-05
-2.65974e-05
-2.65974e-05
-1.9243e-05
-1.9243e-05
-1.63772e-06
-1.15073e-05
-1.15073e-05
-3.89936e-06
-3.72987e-06
-3.72987e-06
2.17885e-06
2.39378e-06
-1.48112e-06
-1.48112e-06
2.04792e-06
2.22738e-06
-3.00362e-08
-3.00362e-08
2.69327e-05
-1.47965e-06
1.0087e-05
-3.55791e-06
-3.55791e-06
8.61575e-05
-2.9338e-05
2.9831e-05
-2.18131e-05
2.88732e-05
2.88732e-05
1.355e-05
4.03128e-05
3.59194e-05
1.22764e-05
6.85966e-05
-4.61336e-05
0.000106655
0.000106655
-0.000137257
8.80274e-05
-0.000112832
6.88632e-05
-8.0021e-05
5.93756e-05
-4.51476e-05
4.89242e-05
-1.87165e-05
3.94101e-05
-2.06361e-05
6.2437e-05
6.2437e-05
0.00679587
0.00365711
0.00444468
0.00154541
0.00289257
0.000387329
0.00190595
-0.000295595
0.0012689
-0.000667853
0.000831675
-0.000835125
0.000539756
-0.000864569
0.000359989
-0.000856329
0.000238304
-0.000831997
0.000155037
-0.000819172
9.30625e-05
-0.00078921
5.58796e-05
-0.000760732
3.94959e-05
-0.000706813
5.08386e-05
-0.000619983
7.86245e-05
-0.000512704
9.79882e-05
-0.000372182
0.000104953
-0.000249223
0.000106199
-0.00023024
0.000286609
0.000286609
)
;
    }
}


// ************************************************************************* //
