/*--------------------------------*- C++ -*----------------------------------*\
| =========                 |                                                 |
| \\      /  F ield         | OpenFOAM: The Open Source CFD Toolbox           |
|  \\    /   O peration     | Version:  2506                                  |
|   \\  /    A nd           | Website:  www.openfoam.com                      |
|    \\/     M anipulation  |                                                 |
\*---------------------------------------------------------------------------*/
FoamFile
{
    version     2.0;
    format      ascii;
    arch        "LSB;label=32;scalar=64";
    class       volScalarField;
    location    "50";
    object      turbulenceProperties:L;
}
// * * * * * * * * * * * * * * * * * * * * * * * * * * * * * * * * * * * * * //

dimensions      [0 1 0 0 0 0 0];

internalField   nonuniform List<scalar> 
1340
(
0.259701
0.302197
0.255607
0.274991
0.307392
0.252022
0.321086
0.275468
0.310575
0.249659
0.299165
0.293253
0.322799
0.27717
0.312937
0.247915
0.270919
0.279734
0.301255
0.296999
0.325174
0.279407
0.315118
0.246205
0.239523
0.249518
0.258665
0.27223
0.281662
0.303599
0.300874
0.328087
0.28169
0.316976
0.244513
0.212317
0.221506
0.230585
0.239868
0.250332
0.259854
0.273707
0.283642
0.306179
0.304663
0.331408
0.283873
0.318281
0.242947
0.17279
0.182332
0.192023
0.202132
0.212178
0.221353
0.230637
0.24027
0.251227
0.261143
0.275402
0.285715
0.309041
0.308295
0.335099
0.285917
0.319062
0.241426
0.128889
0.137188
0.145792
0.154632
0.163722
0.173017
0.182523
0.192215
0.202342
0.212341
0.221414
0.230821
0.240742
0.252187
0.262495
0.277303
0.287864
0.31222
0.311698
0.339175
0.287769
0.319396
0.240011
0.0842332
0.0893128
0.0952742
0.10148
0.108
0.114946
0.122346
0.130167
0.138352
0.146837
0.155588
0.164575
0.173784
0.183209
0.19286
0.202979
0.212865
0.221766
0.231219
0.241347
0.253249
0.263902
0.279401
0.290045
0.315676
0.314766
0.343655
0.28935
0.319121
0.238644
1.98115
2.88455
2.45968
1.27639
0.787934
0.476518
0.258324
0.116928
0.0577207
0.332847
0.118627
0.0885958
0.0874993
0.0920838
0.0979273
0.104085
0.110535
0.117367
0.124619
0.132275
0.140289
0.148601
0.157188
0.16601
0.175074
0.184393
0.193983
0.204057
0.213805
0.222502
0.231952
0.242212
0.254513
0.265439
0.281704
0.292234
0.319379
0.317373
0.348535
0.290595
0.318415
0.237353
0.0400799
0.0440336
0.0525117
0.0526836
0.0500263
0.0453455
0.0528182
0.313594
0
0.179436
0.347829
0.650336
0.774156
0.83253
0.872895
0.910115
0.948472
0.989035
1.03199
1.07761
1.12698
1.18281
1.25107
1.34542
1.50002
1.81201
2.63956
2.9086
1.99346
1.68248
1.56245
1.51857
1.5093
1.51898
1.54647
1.60301
1.71739
1.96296
2.70882
2.62003
1.37746
0.862979
0.53874
0.308756
0.15385
0.066099
0.136375
0.121752
0.0939918
0.0915771
0.0956511
0.101358
0.107474
0.113855
0.120574
0.127664
0.135127
0.142919
0.15101
0.159365
0.167983
0.176873
0.186068
0.195573
0.205578
0.215224
0.223729
0.233177
0.243502
0.256149
0.267248
0.284335
0.294488
0.323324
0.319473
0.35378
0.291465
0.317211
0.236164
0.0374739
0.0408673
0.0507817
0.0597809
0.0599931
0.0531311
0.0513089
3.11883
15.2146
0.13922
0.283695
0.643207
0.7944
0.846951
0.877907
0.908138
0.942105
0.980504
1.02346
1.0716
1.12689
1.19357
1.27976
1.40291
1.60795
2.03629
3.13023
2.46528
1.83289
1.60139
1.51109
1.48228
1.48261
1.49948
1.53266
1.5932
1.70938
1.94866
2.58938
2.73771
1.47441
0.934138
0.597769
0.357397
0.190519
0.0890973
0.0763929
0.116687
0.0994976
0.0963787
0.0999418
0.105467
0.111506
0.117794
0.124371
0.131275
0.138511
0.14605
0.153876
0.161978
0.170373
0.179091
0.188148
0.197562
0.20755
0.217145
0.22553
0.234995
0.245356
0.258347
0.269509
0.287448
0.296952
0.327566
0.321069
0.359405
0.291924
0.315835
0.235056
0.0361034
0.0396316
0.0488147
0.0628516
0.0760311
0.0643055
0.05491
0.0755599
0.483881
0
0.252507
0.483933
0.760589
0.841346
0.87109
0.896412
0.926251
0.961887
1.00352
1.052
1.11004
1.18373
1.28478
1.43669
1.69844
2.26723
3.17637
2.16659
1.70982
1.53139
1.46431
1.44973
1.46119
1.48745
1.52787
1.59254
1.70839
1.93913
2.51484
2.8423
1.56981
1.00264
0.654541
0.404897
0.227308
0.114077
0.0671008
0.105774
0.10444
0.101697
0.1048
0.11009
0.116002
0.122158
0.128562
0.135254
0.142247
0.14953
0.157096
0.164961
0.173161
0.181723
0.190672
0.200053
0.210084
0.219712
0.228055
0.23759
0.248034
0.261371
0.272575
0.291397
0.299946
0.332401
0.322483
0.365485
0.291898
0.314342
0.234029
0.0353518
0.0394541
0.0488867
0.0641547
0.0855495
0.0774774
0.0626375
0.0649087
0.337257
0
0.0629258
0.136413
0.63276
0.818075
0.863274
0.885661
0.910625
0.942162
0.980705
1.02701
1.08382
1.15819
1.26519
1.43537
1.74213
2.42634
2.94492
2.00428
1.62781
1.47662
1.42295
1.4177
1.43734
1.4712
1.51817
1.58724
1.70348
1.92665
2.45347
2.91372
1.66155
1.06735
0.70803
0.450363
0.263594
0.139878
0.0753106
0.093432
0.107425
0.10664
0.109438
0.114451
0.120191
0.126188
0.132412
0.138907
0.145697
0.15278
0.160161
0.167876
0.175963
0.184462
0.193404
0.202847
0.213009
0.222772
0.231149
0.240831
0.251366
0.265161
0.276357
0.296048
0.303418
0.337643
0.323496
0.371791
0.291358
0.312784
0.232807
0.0353371
0.0397108
0.0493082
0.0636189
0.0874544
0.0935058
0.0745872
0.0627441
0.138748
0.923215
0
0.1299
0.284467
0.728039
0.85313
0.8823
0.901421
0.926124
0.958533
0.999175
1.05013
1.11784
1.21845
1.38975
1.72839
2.56258
2.83012
1.92143
1.57883
1.43554
1.3847
1.38247
1.406
1.44411
1.49518
1.56739
1.68358
1.89883
2.38753
3.03279
1.77275
1.13677
0.762327
0.495504
0.299604
0.1659
0.0893107
0.0859573
0.109163
0.111721
0.114483
0.119244
0.124824
0.130703
0.136815
0.143196
0.14989
0.1569
0.16425
0.171971
0.180121
0.188742
0.19788
0.207595
0.218115
0.228211
0.236738
0.246713
0.257578
0.272033
0.283253
0.303833
0.309813
0.345371
0.326375
0.379103
0.29115
0.311375
0.231988
0.0366162
0.0409018
0.049488
0.0608483
0.0794205
0.104817
0.096048
0.0707526
0.0661387
0.335148
0
0
0.157417
0.317271
0.723806
0.855467
0.892081
0.914342
0.93994
0.972457
1.01341
1.06676
1.1427
1.26724
1.5112
2.13172
3.32104
2.02137
1.60873
1.44089
1.37234
1.35803
1.37563
1.41244
1.46399
1.53547
1.64539
1.83998
2.26141
3.27949
2.07485
1.29321
0.8749
0.585809
0.371001
0.217942
0.121271
0.0830236
0.10448
0.116656
0.120738
0.125366
0.130814
0.136637
0.142718
0.149078
0.155769
0.162795
0.170191
0.177983
0.186246
0.195022
0.20438
0.21438
0.225264
0.235674
0.244393
0.254742
0.2661
0.281323
0.292705
0.314329
0.318953
0.355913
0.331966
0.39132
0.295508
0.319933
0.239181
0.0390277
0.043018
0.0504476
0.0593902
0.0727196
0.0965259
0.115245
0.0884128
0.071074
0.0863142
0.536703
0
0
0.0694487
0.394632
0.612538
0.834594
0.893594
0.922175
0.949022
0.980718
1.02029
1.07224
1.14849
1.28041
1.56425
2.47322
2.63904
1.72988
1.47687
1.38125
1.34909
1.35181
1.37795
1.42287
1.48904
1.58975
1.76094
2.10838
3.05064
2.46684
1.4695
0.996462
0.685168
0.453135
0.281023
0.163996
0.0994258
0.0980816
0.119875
0.128185
0.133406
0.138947
0.144873
0.151063
0.157526
0.1643
0.171405
0.178855
0.186696
0.194998
0.203821
0.213237
0.223309
0.234289
0.244703
0.253333
0.263918
0.275397
0.29137
0.302504
0.325761
0.327838
0.368523
0.335329
0.403034
0.294534
0.317105
0.238216
0.0426365
0.0459102
0.0519038
0.0592586
0.0688405
0.0834189
0.108306
0.133903
0.12262
0.112529
0.173066
1.12682
0
0
0
0.247448
0.389929
0.796646
0.891747
0.928866
0.956513
0.986644
1.02337
1.07206
1.14446
1.27238
1.55825
2.58245
2.38156
1.60373
1.40229
1.3429
1.33508
1.35001
1.38106
1.43218
1.51531
1.65786
1.9342
2.62948
2.95034
1.65988
1.11292
0.778412
0.533522
0.347249
0.212921
0.128121
0.0982051
0.118933
0.134835
0.1422
0.148326
0.154644
0.161198
0.168018
0.175102
0.182509
0.190208
0.198293
0.206785
0.215809
0.225366
0.235603
0.246672
0.256985
0.265305
0.276088
0.287458
0.304225
0.314576
0.339801
0.338188
0.383579
0.338897
0.416257
0.292816
0.31545
0.237383
0.051803
0.0543375
0.0595267
0.0661879
0.0756043
0.0889957
0.108563
0.129222
0.135374
0.139412
0.246681
1.85969
0
0
0
0.257765
0.519264
0.772572
0.909394
0.942465
0.965838
0.991691
1.02454
1.06899
1.13569
1.25312
1.51329
2.44385
2.39878
1.55072
1.35066
1.30631
1.31739
1.34598
1.38367
1.44112
1.54231
1.73807
2.18679
3.18823
1.91435
1.23816
0.869195
0.610966
0.413931
0.265979
0.164539
0.110629
0.114877
0.138726
0.151059
0.158881
0.16611
0.173424
0.18092
0.188599
0.196516
0.204628
0.21306
0.221809
0.231045
0.240723
0.251045
0.262068
0.271959
0.279608
0.290407
0.30144
0.318834
0.327936
0.355199
0.349173
0.399835
0.342771
0.429613
0.291002
0.314814
0.23654
0.0609879
0.0636257
0.0680962
0.0705812
0.0726838
0.0767539
0.0846274
0.0975066
0.110536
0.115759
0.115879
0.198943
1.42711
0
0
0
0
0.0768515
0.535413
1.0821
1.00523
0.993233
1.00486
1.02918
1.06675
1.12535
1.22767
1.44622
2.15203
2.75476
1.56599
1.32029
1.26776
1.28862
1.33343
1.38396
1.45036
1.56725
1.81528
2.46126
2.40644
1.42636
0.976683
0.693331
0.483464
0.3227
0.20615
0.133414
0.113295
0.137259
0.157129
0.168454
0.177477
0.186146
0.194807
0.203515
0.212268
0.221055
0.229955
0.239049
0.248441
0.258164
0.268371
0.279124
0.288167
0.29476
0.305245
0.315723
0.333328
0.340884
0.36973
0.359374
0.415072
0.346344
0.44124
0.289163
0.314995
0.235543
0.060951
0.0654672
0.0724653
0.0720846
0.0671736
0.0646822
0.0663482
0.072576
0.0832456
0.0939043
0.0984931
0.100718
0.144281
0.95585
0.00327934
0
0
0
0
0.188561
0.410924
1.35685
1.06732
1.03129
1.03796
1.06562
1.11495
1.20178
1.37793
1.87443
3.87821
1.66078
1.3156
1.23102
1.24699
1.30625
1.3776
1.45968
1.58861
1.86506
2.49976
1.83122
1.15141
0.799358
0.565265
0.38959
0.256914
0.165686
0.120871
0.132218
0.158685
0.174605
0.18587
0.196179
0.206317
0.216385
0.226338
0.23614
0.245804
0.255457
0.265147
0.274943
0.28502
0.295475
0.303581
0.309049
0.319049
0.328821
0.346266
0.352207
0.382111
0.368036
0.428025
0.349377
0.450584
0.287501
0.316288
0.234359
0.0595988
0.0601393
0.0632361
0.0643277
0.0657591
0.0679706
0.0712341
0.0755021
0.0806261
0.0858262
0.0900907
0.0906152
0.0937035
0.112293
0.927066
6.49037
0
0
0
0
0.0841645
0.292614
0.73495
1.40725
1.10159
1.06078
1.07053
1.10843
1.18015
1.32008
1.66663
3.6376
1.89268
1.35132
1.20768
1.19974
1.26212
1.35633
1.46098
1.59282
1.83177
2.1766
1.53138
0.978915
0.671732
0.468557
0.319692
0.210929
0.14296
0.12889
0.1557
0.176928
0.189653
0.200309
0.210826
0.221455
0.232119
0.242728
0.253222
0.26364
0.273964
0.284174
0.294485
0.305117
0.313041
0.317986
0.327374
0.336443
0.353126
0.357912
0.38738
0.371792
0.432801
0.350062
0.453568
0.285578
0.319933
0.232021
0.0580785
0.0592737
0.060961
0.0610521
0.061433
0.062804
0.0655911
0.0695977
0.0744517
0.0797282
0.0853127
0.0903631
0.0928023
0.0950203
0.102356
0.221004
1.59044
0.00132522
0
0
0
0
0.0593323
0.37422
1.10198
1.31654
1.10847
1.08223
1.10479
1.16266
1.27524
1.52668
2.47605
2.35763
1.42296
1.19634
1.1526
1.21194
1.3425
1.51021
1.68811
1.89261
1.99701
1.41036
0.893745
0.59336
0.402593
0.271846
0.183771
0.141797
0.154547
0.181902
0.198297
0.208945
0.218449
0.228035
0.237889
0.247964
0.258229
0.26868
0.27924
0.289753
0.300423
0.311622
0.320428
0.325953
0.335415
0.344441
0.361176
0.36544
0.396136
0.378683
0.444957
0.353546
0.464824
0.285717
0.327441
0.228494
0.0460313
0.0476896
0.0532021
0.05909
0.0644887
0.0685725
0.0715797
0.0743031
0.0774646
0.0815255
0.0867978
0.093351
0.0995523
0.103336
0.10378
0.10912
0.141635
1.90045
10.3277
0
0
0
0
0
0.181277
0.362677
2.29165
1.24848
1.11612
1.10874
1.14692
1.22963
1.4014
1.87973
3.79185
1.56999
1.1789
1.05311
1.05346
1.15716
1.35646
1.60061
1.70579
1.4813
1.08682
0.738783
0.489763
0.321404
0.211135
0.150485
0.14714
0.173631
0.192165
0.202707
0.210678
0.218294
0.226261
0.234783
0.243907
0.253651
0.263924
0.274505
0.28545
0.297134
0.307432
0.314473
0.323413
0.332176
0.346983
0.351838
0.377885
0.364603
0.420461
0.343888
0.449146
0.280962
0.340384
0.216349
0.0571602
0.0617688
0.0706138
0.0794031
0.086425
0.0895603
0.0907792
0.0929338
0.0974447
0.104364
0.112468
0.119129
0.121855
0.121264
0.119321
0.117667
0.119491
0.132159
0.228311
1.72811
0
0
0
0
0
0.0653855
0.22275
0.441971
1.87136
1.29994
1.16908
1.1644
1.21137
1.31521
1.53986
2.22366
3.73045
1.6602
1.27383
1.13125
1.10404
1.16471
1.30157
1.46651
1.45782
1.14216
0.788687
0.522535
0.340067
0.223522
0.170067
0.183942
0.212861
0.228052
0.23631
0.242897
0.24961
0.257144
0.26578
0.275713
0.286823
0.298699
0.311251
0.324755
0.338674
0.348657
0.35921
0.369179
0.38776
0.391334
0.426758
0.40296
0.488303
0.370526
0.523662
0.29641
0.33862
0.216771
)
;

boundaryField
{
    inlet
    {
        type            calculated;
        value           nonuniform List<scalar> 
27
(
0.11074
0.109904
0.108995
0.108071
0.107172
0.106296
0.105436
0.104593
0.103766
0.102963
0.102181
0.101423
0.100694
0.0999962
0.0993361
0.0987163
0.0981403
0.0979321
0.0974642
0.0970503
0.0967155
0.0964688
0.0963387
0.0963399
0.0965585
0.0968165
0.0976634
)
;
    }
    outlet
    {
        type            calculated;
        value           nonuniform List<scalar> 
78
(
0.0568756
0.0615352
0.0704132
0.0792709
0.0864101
0.0896682
0.090976
0.0932097
0.0978233
0.104883
0.113133
0.119833
0.122414
0.121605
0.119487
0.117706
0.119413
0.131928
0.227642
1.7212
0
0
0
0
0
0.0652
0.222171
0.44093
2.00916
1.31174
1.17281
1.16626
1.21222
1.31499
1.53743
2.2101
3.82955
1.67092
1.2796
1.13595
1.10918
1.1725
1.31989
1.53184
1.64455
1.3164
0.881451
0.574013
0.373449
0.248016
0.191146
0.208355
0.241346
0.257577
0.265306
0.270872
0.276589
0.283364
0.291615
0.301606
0.31323
0.325899
0.339707
0.354986
0.371981
0.38465
0.399132
0.410929
0.437552
0.43615
0.496162
0.442769
0.626514
0.389629
0.699412
0.303954
0.343447
0.223655
)
;
    }
    walls
    {
        type            calculated;
        value           nonuniform List<scalar> 0();
    }
    frontAndBack
    {
        type            empty;
    }
    procBoundary7to3
    {
        type            processor;
        value           nonuniform List<scalar> 
16
(
0.0396264
0.0369094
0.0352722
0.0342572
0.0342295
0.0353067
0.0375996
0.0412843
0.0495365
0.0495365
0.0579294
0.0601109
0.059098
0.05559
0.0449936
0.0517594
)
;
    }
    procBoundary7to6
    {
        type            processor;
        value           nonuniform List<scalar> 
91
(
0.254869
0.298645
0.298645
0.275254
0.275254
0.319896
0.319896
0.297544
0.290157
0.290157
0.269775
0.277814
0.277814
0.239281
0.248834
0.257558
0.257558
0.212705
0.221814
0.230642
0.230642
0.173113
0.182624
0.192268
0.202299
0.202299
0.12844
0.136831
0.145473
0.154346
0.163461
0.163461
0.0817712
0.0873321
0.0934187
0.0996967
0.106318
0.113384
0.120925
0.120925
2.0343
3.22588
2.24647
1.17039
0.709107
0.41137
0.206805
0.0810118
0.451605
0.580261
0.108898
0.0836778
0.0836778
0.0462521
0.0533077
0.0538598
0.0529929
0.0481689
0.0428365
0.0508442
0.322277
0
0.133126
0.256067
0.533853
0.676397
0.758882
0.8182
0.869013
0.916807
0.963456
1.00943
1.05488
1.10049
1.14834
1.20321
1.27584
1.3917
1.61798
2.17935
3.36303
2.20459
1.76837
1.61185
1.55503
1.54163
1.55121
1.58018
1.63817
1.74748
1.74748
)
;
    }
}


// ************************************************************************* //
