/*--------------------------------*- C++ -*----------------------------------*\
| =========                 |                                                 |
| \\      /  F ield         | OpenFOAM: The Open Source CFD Toolbox           |
|  \\    /   O peration     | Version:  2506                                  |
|   \\  /    A nd           | Website:  www.openfoam.com                      |
|    \\/     M anipulation  |                                                 |
\*---------------------------------------------------------------------------*/
FoamFile
{
    version     2.0;
    format      ascii;
    arch        "LSB;label=32;scalar=64";
    class       volScalarField;
    location    "50";
    object      turbulenceProperties:nuEff;
}
// * * * * * * * * * * * * * * * * * * * * * * * * * * * * * * * * * * * * * //

dimensions      [0 2 -1 0 0 0 0];

internalField   nonuniform List<scalar> 
1340
(
1.60834e-05
1.60842e-05
1.6084e-05
1.60734e-05
1.60852e-05
1.60844e-05
1.60762e-05
1.60737e-05
1.60862e-05
1.60846e-05
1.60813e-05
1.60782e-05
1.60767e-05
1.60741e-05
1.60871e-05
1.60846e-05
1.60889e-05
1.6085e-05
1.60814e-05
1.60785e-05
1.6077e-05
1.60743e-05
1.60879e-05
1.60848e-05
1.60978e-05
1.60951e-05
1.60922e-05
1.60888e-05
1.6085e-05
1.60814e-05
1.60786e-05
1.60772e-05
1.60743e-05
1.60886e-05
1.60852e-05
1.61056e-05
1.61031e-05
1.61006e-05
1.60977e-05
1.60949e-05
1.60921e-05
1.60887e-05
1.6085e-05
1.60813e-05
1.60786e-05
1.60772e-05
1.60742e-05
1.60892e-05
1.60858e-05
1.61176e-05
1.61144e-05
1.61114e-05
1.61084e-05
1.61057e-05
1.61032e-05
1.61007e-05
1.60978e-05
1.6095e-05
1.60921e-05
1.60888e-05
1.60851e-05
1.60814e-05
1.60785e-05
1.60771e-05
1.6074e-05
1.60896e-05
1.60865e-05
1.61428e-05
1.6136e-05
1.61304e-05
1.61257e-05
1.61216e-05
1.6118e-05
1.61147e-05
1.61116e-05
1.61086e-05
1.61058e-05
1.61033e-05
1.61009e-05
1.6098e-05
1.60951e-05
1.60922e-05
1.6089e-05
1.60853e-05
1.60816e-05
1.60785e-05
1.6077e-05
1.60737e-05
1.60899e-05
1.60874e-05
1.63058e-05
1.63475e-05
1.6245e-05
1.61956e-05
1.61767e-05
1.61653e-05
1.61551e-05
1.61461e-05
1.61385e-05
1.61321e-05
1.61269e-05
1.61225e-05
1.61186e-05
1.61151e-05
1.61119e-05
1.61088e-05
1.6106e-05
1.61036e-05
1.61012e-05
1.60983e-05
1.60953e-05
1.60924e-05
1.60892e-05
1.60856e-05
1.60819e-05
1.60786e-05
1.60768e-05
1.60735e-05
1.60902e-05
1.60884e-05
0.636874
0.401759
0.218949
0.101732
0.0394768
0.0124359
0.00304294
0.000535613
2.6241e-05
1.00677e-05
1.14525e-05
1.46747e-05
1.61611e-05
1.63419e-05
1.6263e-05
1.62086e-05
1.61849e-05
1.61712e-05
1.61598e-05
1.61498e-05
1.61412e-05
1.61342e-05
1.61283e-05
1.61235e-05
1.61193e-05
1.61157e-05
1.61123e-05
1.61091e-05
1.61063e-05
1.61039e-05
1.61015e-05
1.60986e-05
1.60956e-05
1.60926e-05
1.60896e-05
1.6086e-05
1.60823e-05
1.60788e-05
1.60767e-05
1.60734e-05
1.60905e-05
1.60894e-05
1.7302e-05
1.79786e-05
1.76519e-05
1.67424e-05
1.81084e-05
2.4726e-05
1.5935e-05
1.00251e-05
1e-05
0.00264004
0.0114207
0.0601139
0.132447
0.214526
0.294961
0.366265
0.424325
0.467559
0.496184
0.511687
0.51648
0.513674
0.506891
0.500174
0.49829
0.507372
0.536025
0.593367
0.679785
0.787133
0.901143
1.00396
1.07686
1.10247
1.06702
0.963288
0.795984
0.583362
0.37556
0.210967
0.102435
0.0422028
0.0144406
0.00398182
0.000847346
0.000118315
1.09172e-05
1.15284e-05
1.43689e-05
1.60049e-05
1.63215e-05
1.6277e-05
1.62218e-05
1.61938e-05
1.61776e-05
1.61648e-05
1.61537e-05
1.61442e-05
1.61364e-05
1.613e-05
1.61247e-05
1.61202e-05
1.61163e-05
1.61128e-05
1.61095e-05
1.61066e-05
1.61043e-05
1.61019e-05
1.6099e-05
1.60959e-05
1.6093e-05
1.60899e-05
1.60864e-05
1.60828e-05
1.60791e-05
1.60767e-05
1.60734e-05
1.60908e-05
1.60906e-05
1.74297e-05
1.80306e-05
1.8075e-05
1.68982e-05
1.8128e-05
2.3142e-05
1.96409e-05
1.00001e-05
1e-05
0.00153777
0.00662216
0.0492934
0.124375
0.212863
0.300796
0.379179
0.442986
0.49003
0.520161
0.534708
0.536155
0.527998
0.51461
0.500973
0.492576
0.495708
0.518146
0.567925
0.642947
0.735667
0.833201
0.919496
0.977949
0.99375
0.956116
0.860534
0.713476
0.531005
0.348068
0.200327
0.100774
0.0436109
0.0159572
0.00482838
0.0011753
0.000222694
1.78944e-05
1.20336e-05
1.42091e-05
1.58556e-05
1.62893e-05
1.62862e-05
1.62344e-05
1.62029e-05
1.61842e-05
1.617e-05
1.61578e-05
1.61475e-05
1.61389e-05
1.61318e-05
1.6126e-05
1.61212e-05
1.6117e-05
1.61134e-05
1.61099e-05
1.6107e-05
1.61047e-05
1.61023e-05
1.60994e-05
1.60963e-05
1.60933e-05
1.60903e-05
1.60869e-05
1.60833e-05
1.60796e-05
1.60769e-05
1.60735e-05
1.60911e-05
1.60919e-05
1.76231e-05
1.79715e-05
1.83346e-05
1.727e-05
1.73839e-05
2.26189e-05
2.24242e-05
1.18493e-05
1.00071e-05
1e-05
0.00523447
0.0222544
0.0877638
0.177299
0.27222
0.360278
0.434338
0.490738
0.528239
0.547404
0.550238
0.540133
0.521928
0.501679
0.486101
0.482298
0.497901
0.538649
0.602187
0.681664
0.765588
0.839574
0.888674
0.899566
0.862651
0.774496
0.642039
0.481278
0.320271
0.188316
0.0976345
0.044051
0.0170512
0.00556588
0.001503
0.000333373
4.31866e-05
1.33591e-05
1.42428e-05
1.57332e-05
1.62494e-05
1.62905e-05
1.6246e-05
1.62121e-05
1.61911e-05
1.61753e-05
1.61621e-05
1.61509e-05
1.61415e-05
1.61338e-05
1.61275e-05
1.61223e-05
1.61179e-05
1.61141e-05
1.61104e-05
1.61075e-05
1.61052e-05
1.61028e-05
1.60998e-05
1.60967e-05
1.60937e-05
1.60907e-05
1.60874e-05
1.60838e-05
1.608e-05
1.60772e-05
1.60737e-05
1.60915e-05
1.60932e-05
1.78382e-05
1.79374e-05
1.8377e-05
1.78314e-05
1.68697e-05
2.03674e-05
2.46504e-05
1.49627e-05
1.00226e-05
1e-05
0.000354078
0.00150835
0.040754
0.120339
0.218407
0.316365
0.403243
0.472964
0.522552
0.551258
0.560125
0.551907
0.531389
0.505561
0.482713
0.4712
0.478901
0.510073
0.562378
0.629604
0.701471
0.765104
0.806962
0.814786
0.779663
0.698756
0.578988
0.436131
0.293968
0.176263
0.0938885
0.0439437
0.017862
0.00621929
0.00182895
0.00045418
8.6733e-05
1.64607e-05
1.45415e-05
1.56593e-05
1.62072e-05
1.62903e-05
1.62562e-05
1.62213e-05
1.6198e-05
1.61808e-05
1.61666e-05
1.61545e-05
1.61443e-05
1.6136e-05
1.61292e-05
1.61236e-05
1.61189e-05
1.61149e-05
1.61111e-05
1.6108e-05
1.61057e-05
1.61033e-05
1.61003e-05
1.60971e-05
1.6094e-05
1.60911e-05
1.60879e-05
1.60843e-05
1.60806e-05
1.60775e-05
1.60739e-05
1.60919e-05
1.60947e-05
1.79804e-05
1.79335e-05
1.82327e-05
1.82649e-05
1.70431e-05
1.78702e-05
2.37568e-05
2.14117e-05
1.03673e-05
1.00014e-05
1e-05
0.00125552
0.00531031
0.0540751
0.142992
0.247277
0.348343
0.435288
0.502209
0.546267
0.56688
0.565504
0.545921
0.515216
0.48394
0.463259
0.461694
0.482079
0.522366
0.577397
0.637903
0.692079
0.727586
0.733208
0.700653
0.627366
0.519878
0.393226
0.267993
0.163556
0.0892584
0.0431414
0.0182874
0.00672206
0.00211863
0.000573393
0.000133
2.24312e-05
1.5143e-05
1.56504e-05
1.61687e-05
1.62855e-05
1.62637e-05
1.62292e-05
1.62042e-05
1.61857e-05
1.61705e-05
1.61577e-05
1.61469e-05
1.61381e-05
1.61308e-05
1.61249e-05
1.61199e-05
1.61157e-05
1.61118e-05
1.61086e-05
1.61064e-05
1.6104e-05
1.61009e-05
1.60976e-05
1.60944e-05
1.60915e-05
1.60883e-05
1.60849e-05
1.60811e-05
1.60779e-05
1.60742e-05
1.60924e-05
1.60963e-05
1.79834e-05
1.79687e-05
1.80444e-05
1.82523e-05
1.7836e-05
1.70698e-05
1.91076e-05
2.37752e-05
1.74943e-05
1.00386e-05
1e-05
1e-05
0.00126885
0.00513303
0.0458007
0.126169
0.228009
0.332122
0.42485
0.497909
0.546719
0.569494
0.567115
0.543774
0.508078
0.473472
0.454554
0.458315
0.481481
0.520421
0.56828
0.614604
0.647427
0.655742
0.631195
0.570438
0.478116
0.36732
0.2561
0.161192
0.0914772
0.0464408
0.0209317
0.00830809
0.00288236
0.000874849
0.000240102
4.9967e-05
1.78524e-05
1.59243e-05
1.61476e-05
1.6279e-05
1.62752e-05
1.62427e-05
1.62152e-05
1.61945e-05
1.61778e-05
1.61637e-05
1.61519e-05
1.61421e-05
1.61341e-05
1.61275e-05
1.61221e-05
1.61176e-05
1.61133e-05
1.611e-05
1.61077e-05
1.61053e-05
1.61021e-05
1.60985e-05
1.60952e-05
1.60922e-05
1.6089e-05
1.60856e-05
1.60818e-05
1.60784e-05
1.60746e-05
1.60928e-05
1.6098e-05
1.78659e-05
1.79103e-05
1.79086e-05
1.80192e-05
1.81273e-05
1.75057e-05
1.70131e-05
1.98978e-05
2.44068e-05
1.43866e-05
1.00212e-05
1e-05
1e-05
1.68016e-05
0.00472863
0.0184171
0.0773579
0.168273
0.273746
0.376361
0.463387
0.526662
0.56164
0.567145
0.54625
0.508056
0.469088
0.448102
0.448798
0.466098
0.495516
0.53023
0.559892
0.572927
0.559493
0.514312
0.439356
0.344985
0.247009
0.160663
0.0948794
0.0505677
0.0241632
0.0102891
0.00388287
0.00129802
0.000393778
0.00010755
2.59541e-05
1.69194e-05
1.62414e-05
1.62838e-05
1.62883e-05
1.62586e-05
1.62288e-05
1.62055e-05
1.61869e-05
1.61713e-05
1.61582e-05
1.61472e-05
1.61382e-05
1.61309e-05
1.61248e-05
1.61198e-05
1.61152e-05
1.61116e-05
1.61092e-05
1.61068e-05
1.61035e-05
1.60997e-05
1.60961e-05
1.60929e-05
1.60897e-05
1.60863e-05
1.60825e-05
1.6079e-05
1.60751e-05
1.60933e-05
1.60998e-05
1.76804e-05
1.77334e-05
1.77536e-05
1.77772e-05
1.79051e-05
1.78402e-05
1.72449e-05
1.72394e-05
2.04222e-05
2.3349e-05
1.24707e-05
1.00114e-05
1e-05
1e-05
1e-05
0.000849246
0.00291393
0.0360897
0.106361
0.203833
0.310896
0.410654
0.490227
0.541145
0.559272
0.54579
0.509343
0.467276
0.441536
0.43589
0.444105
0.46147
0.48186
0.495734
0.491951
0.462068
0.404313
0.325689
0.23976
0.160893
0.0985065
0.0548503
0.0276034
0.012493
0.00506368
0.00183589
0.000603941
0.000187516
4.7015e-05
1.95619e-05
1.66042e-05
1.63231e-05
1.63018e-05
1.62739e-05
1.62426e-05
1.62167e-05
1.61961e-05
1.61791e-05
1.61647e-05
1.61527e-05
1.61427e-05
1.61346e-05
1.61279e-05
1.61224e-05
1.61174e-05
1.61134e-05
1.61109e-05
1.61085e-05
1.61051e-05
1.61011e-05
1.60971e-05
1.60937e-05
1.60904e-05
1.60871e-05
1.60833e-05
1.60796e-05
1.60757e-05
1.60937e-05
1.61017e-05
1.74936e-05
1.75286e-05
1.75492e-05
1.76035e-05
1.76999e-05
1.7594e-05
1.70928e-05
1.73678e-05
2.06486e-05
2.20745e-05
1.15665e-05
1.00072e-05
1e-05
1e-05
1e-05
1.10101e-05
0.0030733
0.0116786
0.05537
0.134532
0.236923
0.344226
0.439048
0.508013
0.542898
0.541653
0.510948
0.467346
0.435123
0.421166
0.418671
0.422818
0.428635
0.427755
0.410045
0.369075
0.306732
0.23318
0.161711
0.102492
0.0594308
0.0313563
0.0149859
0.00646528
0.00251479
0.000889041
0.000296024
8.90026e-05
2.63733e-05
1.76169e-05
1.64697e-05
1.63223e-05
1.62857e-05
1.62548e-05
1.62275e-05
1.6205e-05
1.61866e-05
1.61712e-05
1.61582e-05
1.61474e-05
1.61385e-05
1.61312e-05
1.61252e-05
1.61198e-05
1.61155e-05
1.61129e-05
1.61105e-05
1.6107e-05
1.61028e-05
1.60984e-05
1.60946e-05
1.60911e-05
1.60879e-05
1.60842e-05
1.60803e-05
1.60764e-05
1.60941e-05
1.61037e-05
1.73093e-05
1.73508e-05
1.7392e-05
1.74328e-05
1.75092e-05
1.75916e-05
1.74905e-05
1.70971e-05
1.76647e-05
2.02896e-05
2.21526e-05
1.14891e-05
1.00069e-05
1e-05
1e-05
1e-05
1e-05
9.04276e-05
0.00531253
0.0204027
0.0756423
0.16249
0.267744
0.372554
0.458895
0.513332
0.529258
0.509513
0.468497
0.429556
0.405961
0.391907
0.38258
0.374173
0.359972
0.331698
0.285405
0.225503
0.162507
0.106893
0.0644158
0.0355197
0.017844
0.00814011
0.00336667
0.00126783
0.00044541
0.000150055
4.22988e-05
2.00619e-05
1.69084e-05
1.64004e-05
1.63025e-05
1.62637e-05
1.62356e-05
1.62126e-05
1.61933e-05
1.6177e-05
1.61633e-05
1.61519e-05
1.61424e-05
1.61345e-05
1.61281e-05
1.61223e-05
1.61178e-05
1.6115e-05
1.61126e-05
1.61091e-05
1.61047e-05
1.60999e-05
1.60956e-05
1.60919e-05
1.60886e-05
1.6085e-05
1.6081e-05
1.60771e-05
1.60944e-05
1.61057e-05
1.72916e-05
1.73546e-05
1.74219e-05
1.74883e-05
1.75604e-05
1.7654e-05
1.77459e-05
1.76559e-05
1.74032e-05
1.80145e-05
2.03568e-05
2.11297e-05
1.25424e-05
1.00122e-05
1e-05
1e-05
1e-05
1e-05
1e-05
0.00104756
0.00361245
0.0334612
0.0967547
0.189093
0.295265
0.394998
0.469524
0.506447
0.50283
0.46894
0.424792
0.391716
0.366018
0.343339
0.321295
0.295613
0.260572
0.214293
0.161634
0.111164
0.0698294
0.0402013
0.0211818
0.0101857
0.00446179
0.00178283
0.000658799
0.000233696
7.32503e-05
2.52315e-05
1.77816e-05
1.65739e-05
1.63463e-05
1.62795e-05
1.62434e-05
1.6218e-05
1.61982e-05
1.61816e-05
1.61676e-05
1.61557e-05
1.61458e-05
1.61375e-05
1.61308e-05
1.61248e-05
1.61201e-05
1.61172e-05
1.61148e-05
1.61114e-05
1.61068e-05
1.61016e-05
1.60969e-05
1.60927e-05
1.60894e-05
1.60857e-05
1.60817e-05
1.60778e-05
1.60946e-05
1.61077e-05
1.7506e-05
1.75965e-05
1.76867e-05
1.77774e-05
1.7866e-05
1.79568e-05
1.80601e-05
1.81497e-05
1.80693e-05
1.79792e-05
1.83304e-05
2.06351e-05
2.09514e-05
1.5095e-05
1.00116e-05
1.00001e-05
1e-05
1e-05
1e-05
1e-05
1.35135e-05
0.00292958
0.0110634
0.0492681
0.120474
0.21745
0.322272
0.413067
0.471368
0.487766
0.46605
0.421708
0.379664
0.342733
0.307412
0.272927
0.23799
0.199637
0.156968
0.113492
0.0748594
0.0450569
0.0248234
0.0125233
0.00578532
0.00245069
0.000959542
0.000356804
0.000126105
3.79582e-05
1.97021e-05
1.68575e-05
1.6378e-05
1.62876e-05
1.62504e-05
1.62226e-05
1.62011e-05
1.61841e-05
1.617e-05
1.61581e-05
1.61481e-05
1.61397e-05
1.61329e-05
1.61268e-05
1.6122e-05
1.61191e-05
1.61168e-05
1.61135e-05
1.61089e-05
1.61034e-05
1.60982e-05
1.60936e-05
1.60901e-05
1.60865e-05
1.60824e-05
1.60786e-05
1.60949e-05
1.61097e-05
1.7834e-05
1.79377e-05
1.80338e-05
1.81266e-05
1.82155e-05
1.82994e-05
1.83809e-05
1.84697e-05
1.85295e-05
1.84896e-05
1.84054e-05
1.8748e-05
2.03278e-05
2.10877e-05
1.79203e-05
1.05966e-05
1.00028e-05
1e-05
1e-05
1e-05
1e-05
1e-05
9.87562e-05
0.00494232
0.0189193
0.0676992
0.147724
0.248321
0.348539
0.425515
0.462988
0.456426
0.417602
0.368505
0.321094
0.274308
0.229533
0.188596
0.150576
0.114025
0.0799395
0.0511207
0.0296701
0.0156496
0.00752437
0.00331556
0.00135274
0.000523357
0.000198791
6.69111e-05
2.547e-05
1.79757e-05
1.65713e-05
1.63023e-05
1.6248e-05
1.62243e-05
1.62041e-05
1.61867e-05
1.61723e-05
1.61603e-05
1.61503e-05
1.61418e-05
1.61348e-05
1.61287e-05
1.61239e-05
1.6121e-05
1.61188e-05
1.61157e-05
1.61112e-05
1.61055e-05
1.60998e-05
1.60947e-05
1.6091e-05
1.60873e-05
1.60833e-05
1.60794e-05
1.60946e-05
1.61117e-05
1.8133e-05
1.82089e-05
1.82729e-05
1.83305e-05
1.8384e-05
1.84344e-05
1.8481e-05
1.85274e-05
1.85776e-05
1.86062e-05
1.85861e-05
1.84899e-05
1.87553e-05
1.96567e-05
2.12391e-05
1.91975e-05
1.32605e-05
1.00023e-05
1e-05
1e-05
1e-05
1e-05
1e-05
1e-05
0.00126734
0.00453871
0.0323631
0.0924533
0.182143
0.285659
0.379374
0.440589
0.456074
0.428497
0.372383
0.311065
0.248812
0.19059
0.142308
0.105113
0.0759753
0.0521321
0.0329834
0.0189096
0.00975388
0.00452453
0.00189977
0.000736634
0.000275763
9.73617e-05
3.26555e-05
1.95076e-05
1.69799e-05
1.64009e-05
1.62581e-05
1.62175e-05
1.61981e-05
1.61827e-05
1.61694e-05
1.6158e-05
1.61485e-05
1.61406e-05
1.61341e-05
1.61284e-05
1.61241e-05
1.61216e-05
1.61198e-05
1.61172e-05
1.61129e-05
1.61073e-05
1.61011e-05
1.60955e-05
1.60914e-05
1.60878e-05
1.60835e-05
1.60802e-05
1.60955e-05
1.61132e-05
1.77074e-05
1.77134e-05
1.77175e-05
1.77225e-05
1.7732e-05
1.77484e-05
1.77719e-05
1.78012e-05
1.78376e-05
1.78799e-05
1.7921e-05
1.79276e-05
1.78956e-05
1.79777e-05
1.84946e-05
1.96525e-05
2.0217e-05
1.73217e-05
1.11986e-05
1.00048e-05
1e-05
1e-05
1e-05
1e-05
1e-05
2.18088e-05
0.00183144
0.00627196
0.0339469
0.0885784
0.16574
0.251422
0.326287
0.373112
0.382642
0.358427
0.309622
0.250545
0.188857
0.133425
0.0900526
0.0590209
0.0375109
0.0226995
0.0127873
0.00659489
0.00308895
0.00131672
0.000520971
0.000198393
6.61648e-05
2.53504e-05
1.80722e-05
1.66548e-05
1.63312e-05
1.62427e-05
1.62094e-05
1.61902e-05
1.61752e-05
1.61625e-05
1.61517e-05
1.61426e-05
1.61351e-05
1.61288e-05
1.61242e-05
1.61216e-05
1.61202e-05
1.61181e-05
1.61145e-05
1.61092e-05
1.61032e-05
1.60971e-05
1.60927e-05
1.60886e-05
1.60851e-05
1.60809e-05
1.6094e-05
1.61166e-05
)
;

boundaryField
{
    inlet
    {
        type            calculated;
        value           nonuniform List<scalar> 
27
(
1.60834e-05
1.6084e-05
1.60844e-05
1.60846e-05
1.60846e-05
1.60848e-05
1.60852e-05
1.60858e-05
1.60865e-05
1.60874e-05
1.60884e-05
1.60894e-05
1.60906e-05
1.60919e-05
1.60932e-05
1.60947e-05
1.60963e-05
1.6098e-05
1.60998e-05
1.61017e-05
1.61037e-05
1.61057e-05
1.61077e-05
1.61097e-05
1.61117e-05
1.61132e-05
1.61166e-05
)
;
    }
    outlet
    {
        type            calculated;
        value           nonuniform List<scalar> 
78
(
1.77074e-05
1.77134e-05
1.77175e-05
1.77225e-05
1.7732e-05
1.77484e-05
1.77719e-05
1.78012e-05
1.78376e-05
1.78799e-05
1.7921e-05
1.79276e-05
1.78956e-05
1.79777e-05
1.84946e-05
1.96525e-05
2.0217e-05
1.73217e-05
1.11986e-05
1.00048e-05
1e-05
1e-05
1e-05
1e-05
1e-05
2.18088e-05
0.00183144
0.00627196
0.0339469
0.0885784
0.16574
0.251422
0.326287
0.373112
0.382642
0.358427
0.309622
0.250545
0.188857
0.133425
0.0900526
0.0590209
0.0375109
0.0226995
0.0127873
0.00659489
0.00308895
0.00131672
0.000520971
0.000198393
6.61648e-05
2.53504e-05
1.80722e-05
1.66548e-05
1.63312e-05
1.62427e-05
1.62094e-05
1.61902e-05
1.61752e-05
1.61625e-05
1.61517e-05
1.61426e-05
1.61351e-05
1.61288e-05
1.61242e-05
1.61216e-05
1.61202e-05
1.61181e-05
1.61145e-05
1.61092e-05
1.61032e-05
1.60971e-05
1.60927e-05
1.60886e-05
1.60851e-05
1.60809e-05
1.6094e-05
1.61166e-05
)
;
    }
    walls
    {
        type            calculated;
        value           nonuniform List<scalar> 0();
    }
    frontAndBack
    {
        type            empty;
    }
    procBoundary7to3
    {
        type            processor;
        value           nonuniform List<scalar> 
16
(
1.71484e-05
1.74611e-05
1.77592e-05
1.79546e-05
1.80055e-05
1.79347e-05
1.78117e-05
1.76563e-05
1.74779e-05
1.74779e-05
1.72897e-05
1.72393e-05
1.74071e-05
1.7705e-05
1.80262e-05
1.76998e-05
)
;
    }
    procBoundary7to6
    {
        type            processor;
        value           nonuniform List<scalar> 
91
(
1.60828e-05
1.60833e-05
1.60833e-05
1.60729e-05
1.60729e-05
1.60757e-05
1.60757e-05
1.60811e-05
1.60778e-05
1.60778e-05
1.60892e-05
1.60852e-05
1.60852e-05
1.60979e-05
1.60953e-05
1.60925e-05
1.60925e-05
1.61057e-05
1.61031e-05
1.61005e-05
1.61005e-05
1.61172e-05
1.61142e-05
1.61113e-05
1.61084e-05
1.61084e-05
1.61398e-05
1.61338e-05
1.61288e-05
1.61246e-05
1.61209e-05
1.61209e-05
1.64278e-05
1.63378e-05
1.62242e-05
1.61833e-05
1.61693e-05
1.61598e-05
1.61508e-05
1.61508e-05
0.706762
0.432894
0.225257
0.0987631
0.0355489
0.0100829
0.00210509
0.000276154
1.0023e-05
1.00138e-05
1.16934e-05
1.51005e-05
1.51005e-05
1.72646e-05
1.7746e-05
1.71917e-05
1.64176e-05
1.84964e-05
2.33406e-05
1.48553e-05
1.00197e-05
1e-05
0.00166215
0.00719725
0.0436996
0.100968
0.169679
0.240622
0.306822
0.363901
0.409738
0.443927
0.467282
0.481455
0.488671
0.491552
0.493132
0.497373
0.510293
0.540857
0.600106
0.694309
0.816524
0.95218
1.08171
1.18336
1.23499
1.2153
1.10799
0.905899
0.905899
)
;
    }
}


// ************************************************************************* //
