/*--------------------------------*- C++ -*----------------------------------*\
| =========                 |                                                 |
| \\      /  F ield         | OpenFOAM: The Open Source CFD Toolbox           |
|  \\    /   O peration     | Version:  2506                                  |
|   \\  /    A nd           | Website:  www.openfoam.com                      |
|    \\/     M anipulation  |                                                 |
\*---------------------------------------------------------------------------*/
FoamFile
{
    version     2.0;
    format      ascii;
    arch        "LSB;label=32;scalar=64";
    class       volScalarField;
    location    "0.3";
    object      mag(U);
}
// * * * * * * * * * * * * * * * * * * * * * * * * * * * * * * * * * * * * * //

dimensions      [0 1 -1 0 0 0 0];

internalField   nonuniform List<scalar> 
400
(
0.000356225
0.000179872
0.0013053
0.00359155
0.00646209
0.00952799
0.0124388
0.0149031
0.0166954
0.0176578
0.0177013
0.0168102
0.0150479
0.012562
0.00958798
0.00644465
0.00351702
0.00122056
0.000216183
0.000374919
0.000186188
0.00230257
0.00674439
0.0127536
0.0197445
0.0270198
0.0338639
0.0396357
0.0438208
0.046054
0.0461334
0.044032
0.0399074
0.0341062
0.0271573
0.0197444
0.0126383
0.0065784
0.00215864
0.00023137
0.0012128
0.00683175
0.0147185
0.0240698
0.034201
0.0443737
0.0537755
0.0616336
0.0673037
0.0703206
0.0704278
0.0675959
0.0620316
0.0541739
0.0446721
0.0343324
0.0240185
0.0145255
0.00658798
0.00106187
0.00360126
0.0134801
0.0251184
0.0376045
0.0502399
0.0623863
0.0733243
0.0823322
0.0887847
0.0922189
0.0923768
0.0892284
0.0829772
0.074046
0.0630416
0.0506933
0.0377619
0.0249685
0.013136
0.00333779
0.0069952
0.0222661
0.0380653
0.0535783
0.0682303
0.0816071
0.0932346
0.102602
0.109241
0.112789
0.11304
0.109961
0.103698
0.0945464
0.0829182
0.0692938
0.0541753
0.0380995
0.0218687
0.0066083
0.0113294
0.0332064
0.053713
0.0722561
0.0885254
0.102465
0.113994
0.122967
0.129215
0.132586
0.13298
0.130362
0.124759
0.116225
0.104817
0.090593
0.0736415
0.0541846
0.0328845
0.0108375
0.0165897
0.0463257
0.0721597
0.093795
0.111316
0.125161
0.135791
0.143587
0.14883
0.1517
0.152277
0.150533
0.146307
0.13928
0.128987
0.11488
0.0964572
0.0734741
0.0463316
0.0160634
0.0228097
0.0616875
0.0934714
0.118236
0.136595
0.149624
0.158476
0.164217
0.167745
0.169717
0.170489
0.170055
0.167998
0.163487
0.155346
0.142218
0.122812
0.0962228
0.0624417
0.0223974
0.0300676
0.0794022
0.117691
0.145494
0.164121
0.175455
0.181493
0.184144
0.185094
0.18565
0.18657
0.187906
0.188917
0.188103
0.183382
0.172373
0.152747
0.122683
0.0815344
0.030024
0.0384913
0.0996268
0.144819
0.175307
0.193346
0.201837
0.203788
0.202093
0.19939
0.197834
0.198759
0.202342
0.207441
0.211727
0.212017
0.204679
0.186058
0.15305
0.104005
0.039205
0.0482797
0.122572
0.174767
0.207143
0.223284
0.227397
0.223674
0.216101
0.208408
0.20381
0.204458
0.210762
0.221095
0.232127
0.239404
0.237838
0.22212
0.187362
0.130301
0.0502985
0.0597561
0.148514
0.207284
0.240041
0.252312
0.250008
0.238665
0.2234
0.209077
0.2002
0.200097
0.209588
0.226427
0.246068
0.262683
0.269625
0.259619
0.22532
0.160886
0.0638037
0.0734761
0.177813
0.241784
0.272318
0.277856
0.266526
0.245325
0.220354
0.197461
0.182644
0.181049
0.194252
0.219018
0.249234
0.27775
0.296516
0.296119
0.26597
0.196154
0.0804515
0.0904167
0.210855
0.276978
0.301056
0.295931
0.27255
0.239314
0.2028
0.169184
0.145963
0.141647
0.159521
0.193987
0.236548
0.279222
0.313285
0.327445
0.307131
0.236217
0.101351
0.112253
0.247764
0.310078
0.321255
0.300658
0.262604
0.216492
0.168256
0.12238
0.0858252
0.0754407
0.101878
0.148871
0.204142
0.261308
0.312927
0.3469
0.34438
0.280325
0.128161
0.141749
0.287409
0.335102
0.324647
0.284544
0.232786
0.179399
0.129211
0.0839379
0.044598
0.0263574
0.056851
0.103792
0.159575
0.222665
0.28828
0.344723
0.369338
0.325502
0.163282
0.183485
0.324506
0.339378
0.299285
0.244273
0.196742
0.167937
0.158525
0.160506
0.164774
0.166
0.163071
0.159398
0.164229
0.190202
0.242306
0.310191
0.367205
0.363423
0.210235
0.241007
0.341235
0.301302
0.245387
0.223033
0.239041
0.272344
0.305645
0.331409
0.34697
0.351381
0.344224
0.32545
0.296227
0.261947
0.239084
0.256207
0.319151
0.372643
0.269127
0.281977
0.295635
0.252683
0.300872
0.377104
0.445247
0.498706
0.537647
0.563704
0.578349
0.582378
0.575793
0.557732
0.526387
0.479207
0.414292
0.335648
0.277301
0.314363
0.300561
0.333324
0.416279
0.562589
0.675903
0.744327
0.7873
0.815536
0.833972
0.845388
0.85137
0.852664
0.849383
0.841009
0.826172
0.802175
0.76393
0.700211
0.588455
0.435043
0.343089
)
;

boundaryField
{
    movingWall
    {
        type            calculated;
        value           uniform 1;
    }
    fixedWalls
    {
        type            calculated;
        value           uniform 0;
    }
    frontAndBack
    {
        type            empty;
    }
}


// ************************************************************************* //
