/*--------------------------------*- C++ -*----------------------------------*\
| =========                 |                                                 |
| \\      /  F ield         | OpenFOAM: The Open Source CFD Toolbox           |
|  \\    /   O peration     | Version:  2506                                  |
|   \\  /    A nd           | Website:  www.openfoam.com                      |
|    \\/     M anipulation  |                                                 |
\*---------------------------------------------------------------------------*/
FoamFile
{
    version     2.0;
    format      ascii;
    arch        "LSB;label=32;scalar=64";
    class       surfaceScalarField;
    location    "200";
    object      phi;
}
// * * * * * * * * * * * * * * * * * * * * * * * * * * * * * * * * * * * * * //

dimensions      [0 3 -1 0 0 0 0];

oriented        oriented;

internalField   nonuniform List<scalar> 
21254
(
-0.232297
0.251912
-0.0196142
0.273921
-0.0220094
0.292896
-0.0189746
0.309856
-0.0169608
0.325885
-0.0160281
0.338679
-0.0127948
0.348738
-0.0100581
0.356806
-0.00806833
0.361921
-0.00511501
0.365074
-0.0031532
0.366332
-0.00125739
0.365165
0.00116706
0.361691
0.00347394
0.355722
0.00596887
0.346874
0.00884842
0.335047
0.0118265
0.319492
0.0155554
0.299563
0.0199291
0.274155
0.0254077
0.242566
0.031589
0.204289
0.0382772
0.162393
0.041896
0.124465
0.0379282
0.100335
0.0241307
0.0950978
0.00523671
0.104164
-0.00906652
0.117748
-0.0135831
0.130015
-0.0122674
0.138937
-0.00892145
0.144405
-0.00546729
0.146925
-0.00251779
0.146677
0.000247244
0.143621
0.00305555
0.137895
0.0057265
0.129224
0.00867005
0.11659
0.0126365
0.0980833
0.0185105
0.0696293
0.0284511
0.0679196
0.00171403
-0.20922
-0.0230776
-0.185281
-0.0239391
-0.155912
-0.0293682
-0.123744
-0.0321682
-0.0898859
-0.033858
-0.0550158
-0.0348702
-0.0207311
-0.0342849
0.0110489
-0.0317801
0.0399606
-0.0289118
0.0654758
-0.0255152
0.0873646
-0.0218888
0.105984
-0.0186193
0.121633
-0.0156493
0.134663
-0.0130298
0.145793
-0.0111295
0.155341
-0.0095488
0.163786
-0.00844465
0.171357
-0.00757088
0.178362
-0.00700547
0.184921
-0.00655851
0.1912
-0.00627959
0.197184
-0.00598406
0.202797
-0.00561248
0.207384
-0.00458693
0.210766
-0.00338208
0.213269
-0.00250338
0.21495
-0.00168138
0.21604
-0.00108958
0.216677
-0.000637183
0.216851
-0.000173793
0.216345
0.00050585
0.215075
0.0012696
0.21304
0.00203454
0.210279
0.00276128
0.206705
0.00357302
0.201984
0.00472085
0.195143
0.0068403
0.181249
0.0138937
0.161331
0.0199174
-0.211833
0.233328
-0.0411084
0.255341
-0.0440228
0.278359
-0.0419926
0.29987
-0.0384713
0.320912
-0.0370709
0.340503
-0.0323848
0.358238
-0.0277938
0.374403
-0.0242329
0.388626
-0.0193385
0.400989
-0.0155156
0.411705
-0.0119729
0.42121
-0.00833806
0.429869
-0.00518508
0.437752
-0.00191422
0.444657
0.00194326
0.450155
0.00632913
0.453921
0.0117887
0.455624
0.0182264
0.453967
0.0270653
0.447869
0.0376861
0.434991
0.0511558
0.413825
0.063062
0.384078
0.0676747
0.350267
0.0579414
0.31858
0.0369237
0.290916
0.0185975
0.267026
0.0103074
0.247047
0.00771161
0.231363
0.00676347
0.219631
0.00626603
0.210249
0.00686548
0.201657
0.00883913
0.192781
0.0119324
0.182799
0.015708
0.170971
0.0204988
0.155816
0.0277927
0.136111
0.0382178
0.102421
0.0621423
0.0734319
0.0307085
-0.189889
-0.0450216
-0.166405
-0.0474234
-0.13891
-0.056863
-0.109829
-0.0612498
-0.0789413
-0.0647454
-0.046642
-0.0671696
-0.0144267
-0.0665002
0.0163472
-0.0625541
0.0444182
-0.0569828
0.0694004
-0.0504974
0.0911203
-0.0436087
0.109954
-0.0374532
0.126351
-0.0320464
0.140534
-0.0272124
0.152954
-0.0235495
0.163914
-0.0205084
0.173706
-0.0182372
0.18264
-0.0165042
0.19097
-0.0153362
0.198809
-0.0143971
0.206319
-0.0137894
0.21357
-0.0132355
0.220494
-0.0125369
0.226632
-0.010725
0.231711
-0.00846028
0.235918
-0.00671078
0.239156
-0.00492015
0.241334
-0.00326763
0.242404
-0.00170703
0.242474
-0.00024439
0.241772
0.00120814
0.240479
0.00256148
0.238616
0.00389777
0.236177
0.00519883
0.233087
0.00666275
0.229046
0.00876054
0.224075
0.0118114
0.21367
0.0242979
0.195475
0.0381117
-0.205658
0.227356
-0.0628066
0.24921
-0.0658764
0.272807
-0.0655897
0.294382
-0.0600462
0.314895
-0.0575836
0.334514
-0.0520038
0.351941
-0.0452212
0.367568
-0.0398596
0.380946
-0.0327164
0.392337
-0.0269067
0.40171
-0.0213456
0.40919
-0.0158184
0.414626
-0.0106207
0.418494
-0.00578223
0.42077
-0.000332025
0.422477
0.00462178
0.423702
0.0105641
0.425356
0.0165715
0.427847
0.0245752
0.431843
0.0336895
0.43739
0.0456096
0.442701
0.0577506
0.44419
0.0661864
0.438908
0.0632233
0.427656
0.0481759
0.412827
0.0334264
0.395485
0.0276495
0.375119
0.0280773
0.351437
0.0304452
0.325474
0.0322291
0.299493
0.0328471
0.275646
0.0326856
0.254601
0.032978
0.23535
0.0349589
0.216219
0.0396292
0.19507
0.048943
0.170278
0.0630121
0.132901
0.0995164
0.0897421
0.0738686
-0.183822
-0.0668579
-0.159902
-0.0713428
-0.131296
-0.085469
-0.101553
-0.0909927
-0.070477
-0.0958217
-0.0382216
-0.099425
-0.00635503
-0.0983668
0.0233913
-0.0923004
0.0506291
-0.0842206
0.0752851
-0.0751533
0.09703
-0.0653536
0.116044
-0.0564667
0.132707
-0.0487103
0.147298
-0.0418028
0.160123
-0.0363748
0.171523
-0.031908
0.181762
-0.0284763
0.191108
-0.0258499
0.199768
-0.0239961
0.207906
-0.0225358
0.21571
-0.0215931
0.223191
-0.0207171
0.230253
-0.0195985
0.236593
-0.0170651
0.241922
-0.0137892
0.246352
-0.0111414
0.249953
-0.00852061
0.252762
-0.00607661
0.254843
-0.00378875
0.25619
-0.00159096
0.256858
0.000539579
0.256811
0.00260862
0.256054
0.00465524
0.254512
0.00673974
0.252102
0.0090721
0.24847
0.0123931
0.243294
0.0169874
0.232956
0.0346356
0.215018
0.0560483
-0.198138
0.220816
-0.0854846
0.24358
-0.0886402
0.268614
-0.0906241
0.291472
-0.0829037
0.313639
-0.079751
0.334902
-0.0732664
0.354437
-0.0647567
0.372072
-0.0574946
0.388018
-0.0486617
0.402053
-0.0409424
0.414292
-0.0335841
0.424744
-0.0262704
0.433474
-0.0193504
0.440554
-0.0128621
0.446294
-0.0060721
0.450154
0.000761093
0.452239
0.00847969
0.452309
0.0165011
0.45089
0.025995
0.448411
0.0361684
0.446042
0.0479784
0.445014
0.0587784
0.444939
0.0662614
0.443752
0.0644103
0.439637
0.0522908
0.433144
0.0399197
0.425577
0.0352163
0.417272
0.0363825
0.407294
0.0404245
0.39402
0.0455032
0.375926
0.050943
0.352547
0.0560643
0.325412
0.0601138
0.297084
0.0632873
0.269094
0.0676186
0.240415
0.0776237
0.208999
0.094429
0.166474
0.142043
0.115577
0.12477
-0.175746
-0.0892496
-0.151748
-0.095341
-0.122637
-0.11458
-0.0927548
-0.120875
-0.0616044
-0.126972
-0.0292302
-0.131799
0.00254865
-0.130146
0.0319205
-0.121672
0.0587087
-0.111009
0.083001
-0.0994456
0.104451
-0.0868037
0.123307
-0.0753227
0.14
-0.0654028
0.154781
-0.0565837
0.167971
-0.0495648
0.179795
-0.0437319
0.190547
-0.0392289
0.200407
-0.0357091
0.209603
-0.0331925
0.218275
-0.0312076
0.226532
-0.0298505
0.234441
-0.0286258
0.24194
-0.0270974
0.248706
-0.0238315
0.25449
-0.0195737
0.259355
-0.0160058
0.263351
-0.0125172
0.266532
-0.00925747
0.268928
-0.00618554
0.27061
-0.00327309
0.271609
-0.000459622
0.271947
0.0022704
0.271617
0.00498456
0.270602
0.00775409
0.268777
0.0108955
0.265772
0.0153979
0.261017
0.0217415
0.25123
0.0444213
0.23274
0.0745385
-0.194343
0.217846
-0.108987
0.241483
-0.112277
0.267911
-0.117052
0.291511
-0.106503
0.314657
-0.102897
0.336959
-0.0955681
0.357308
-0.0851066
0.375813
-0.0759986
0.392758
-0.0656076
0.407493
-0.055677
0.420396
-0.0464869
0.431398
-0.0372725
0.440775
-0.0287272
0.448206
-0.0202936
0.453841
-0.0117073
0.457732
-0.00312986
0.460155
0.00605667
0.461232
0.0154247
0.460825
0.0264013
0.459351
0.0376428
0.45689
0.0504393
0.453827
0.0618422
0.450236
0.0698527
0.445486
0.0691597
0.438995
0.058782
0.431228
0.0476865
0.423321
0.043124
0.415998
0.0437052
0.409324
0.0470986
0.403029
0.0517978
0.396178
0.0577945
0.38691
0.0653319
0.372649
0.0743745
0.351417
0.0845193
0.323444
0.0955908
0.290336
0.110733
0.252667
0.1321
0.204386
0.19032
0.147933
0.181224
-0.170901
-0.112692
-0.146174
-0.120068
-0.115799
-0.144956
-0.0850625
-0.151611
-0.0531776
-0.158857
-0.0201518
-0.164825
0.0120346
-0.162332
0.0414549
-0.151092
0.0681145
-0.137668
0.0922022
-0.123533
0.113418
-0.108019
0.13211
-0.0940149
0.14878
-0.0820725
0.163646
-0.0714496
0.177025
-0.0629443
0.189182
-0.0558884
0.200292
-0.0503396
0.210542
-0.0459585
0.220124
-0.0427753
0.229179
-0.0402619
0.237796
-0.0384679
0.246017
-0.0368464
0.253804
-0.0348842
0.26088
-0.0309079
0.266982
-0.0256755
0.272141
-0.0211655
0.276399
-0.0167747
0.279807
-0.0126653
0.282386
-0.00876502
0.284172
-0.00505931
0.285209
-0.00149616
0.285563
0.00191671
0.285241
0.00530646
0.284227
0.00876789
0.282497
0.012625
0.279715
0.0181801
0.275346
0.0261102
0.266752
0.0530152
0.248846
0.0924431
-0.191215
0.215733
-0.133505
0.240691
-0.137235
0.268497
-0.144858
0.293301
-0.131307
0.317468
-0.127064
0.341137
-0.119237
0.362461
-0.106431
0.382253
-0.0957914
0.400208
-0.0835621
0.416208
-0.0716771
0.430483
-0.0607614
0.442848
-0.0496374
0.453532
-0.0394113
0.46253
-0.0292914
0.469712
-0.0188897
0.475441
-0.00885863
0.479318
0.0021794
0.481464
0.0132787
0.482061
0.0258042
0.481077
0.0386273
0.478735
0.052781
0.475291
0.0652868
0.470498
0.0746452
0.46392
0.0757379
0.455384
0.0673185
0.445507
0.0575629
0.435281
0.0533507
0.425313
0.0536729
0.415786
0.0566263
0.406843
0.0607409
0.398738
0.0659011
0.391473
0.0725969
0.384382
0.0814661
0.375215
0.0936869
0.359942
0.110864
0.334585
0.136091
0.297749
0.168938
0.246152
0.241918
0.185236
0.242144
-0.166807
-0.1371
-0.141266
-0.145609
-0.109582
-0.176639
-0.0777035
-0.18349
-0.0448153
-0.191745
-0.0108592
-0.198781
0.0220527
-0.195244
0.0518435
-0.180883
0.0786172
-0.164442
0.102663
-0.147579
0.123738
-0.129094
0.142251
-0.112528
0.158802
-0.0986235
0.173654
-0.086302
0.187115
-0.0764056
0.199444
-0.0682173
0.210804
-0.0616991
0.22139
-0.0565446
0.231329
-0.0527147
0.240751
-0.049684
0.249747
-0.0474638
0.258338
-0.0454371
0.266468
-0.0430149
0.273953
-0.0383929
0.28046
-0.0321822
0.285977
-0.0266824
0.290596
-0.0213945
0.294316
-0.0163847
0.297177
-0.0116268
0.299213
-0.00709568
0.300468
-0.00275092
0.300969
0.00141478
0.300726
0.00554939
0.299762
0.00973152
0.297938
0.0144474
0.295017
0.0211001
0.290323
0.0308036
0.281912
0.0614256
0.26443
0.109925
-0.189398
0.215244
-0.159352
0.241243
-0.163234
0.270615
-0.174229
0.296688
-0.15738
0.322102
-0.152477
0.346839
-0.143974
0.369318
-0.12891
0.389946
-0.116419
0.408926
-0.102543
0.425838
-0.0885884
0.44091
-0.0758339
0.454282
-0.0630087
0.465824
-0.0509533
0.475608
-0.039076
0.483708
-0.0269895
0.489956
-0.015106
0.494533
-0.0023978
0.49743
0.0103819
0.498778
0.0244559
0.498662
0.0387436
0.497278
0.0541644
0.494691
0.0678743
0.490806
0.0785308
0.484917
0.0816269
0.476824
0.075411
0.467001
0.0673864
0.456355
0.063997
0.445449
0.0645782
0.434414
0.0676612
0.423232
0.071923
0.412064
0.077069
0.40122
0.0834401
0.391181
0.091505
0.382238
0.10263
0.373468
0.119633
0.360349
0.149213
0.33486
0.194429
0.288204
0.28857
0.225996
0.304353
-0.163778
-0.162719
-0.137127
-0.172261
-0.103985
-0.209781
-0.0707886
-0.216686
-0.0366929
-0.225841
-0.00148785
-0.233986
0.0324141
-0.229146
0.0628782
-0.211347
0.0900149
-0.191579
0.114234
-0.171798
0.135268
-0.150128
0.153664
-0.130924
0.170101
-0.11506
0.184878
-0.101079
0.198334
-0.0898612
0.210752
-0.0806356
0.222306
-0.0732527
0.233136
-0.0673755
0.243379
-0.062957
0.253126
-0.0594308
0.262448
-0.056786
0.271358
-0.0543478
0.279833
-0.0514898
0.287626
-0.0461861
0.294508
-0.0390642
0.300397
-0.0325712
0.30532
-0.0263172
0.309329
-0.0203944
0.312423
-0.0147205
0.314665
-0.00933704
0.316058
-0.00414373
0.316665
0.000807211
0.316502
0.00571296
0.315526
0.0107074
0.313695
0.0162775
0.310682
0.0241132
0.305785
0.035701
0.29736
0.06985
0.280398
0.126886
-0.188266
0.215447
-0.186533
0.242878
-0.190664
0.273929
-0.205281
0.301203
-0.184654
0.327905
-0.179179
0.35389
-0.169959
0.377385
-0.152405
0.399219
-0.138253
0.419015
-0.122338
0.43686
-0.106433
0.452984
-0.0919583
0.467229
-0.0772533
0.479674
-0.063398
0.490446
-0.0498482
0.499492
-0.0360352
0.506788
-0.0224024
0.512396
-0.00800571
0.516302
0.00647553
0.518478
0.0222803
0.51904
0.0381815
0.518201
0.0550036
0.515988
0.0700882
0.512346
0.0821723
0.50692
0.0870528
0.499363
0.0829683
0.490016
0.0767335
0.479674
0.074339
0.468846
0.0754061
0.457608
0.0788998
0.445935
0.0835957
0.433727
0.0892779
0.421037
0.0961311
0.407972
0.10457
0.395035
0.115567
0.383063
0.131606
0.372346
0.15993
0.357763
0.209014
0.324031
0.322302
0.267016
0.361371
-0.161414
-0.189571
-0.133601
-0.200074
-0.0987433
-0.24464
-0.0640223
-0.251407
-0.0284856
-0.261378
0.00808803
-0.27056
0.0432112
-0.264269
0.0745683
-0.242704
0.10226
-0.219271
0.126793
-0.19633
0.147928
-0.171263
0.166272
-0.149268
0.182609
-0.131397
0.197286
-0.115756
0.210682
-0.103257
0.223144
-0.0930976
0.234787
-0.0848959
0.245794
-0.0783825
0.256263
-0.0734257
0.266287
-0.0694548
0.275896
-0.0663952
0.285135
-0.0635867
0.293938
-0.0602931
0.3021
-0.0543483
0.309353
-0.0463171
0.31561
-0.0388287
0.320889
-0.0315957
0.325221
-0.0247268
0.328597
-0.0180967
0.331061
-0.011801
0.332663
-0.00574644
0.333411
5.93828e-05
0.333341
0.0057827
0.332416
0.0116313
0.330535
0.0181575
0.32742
0.0272272
0.322334
0.0407861
0.313787
0.0783964
0.297341
0.143333
-0.187961
0.216513
-0.215085
0.245391
-0.219542
0.278142
-0.238032
0.306806
-0.213318
0.334974
-0.207347
0.362316
-0.1973
0.387029
-0.177119
0.409748
-0.160973
0.430653
-0.143242
0.44933
-0.125111
0.466163
-0.10879
0.481222
-0.0923131
0.494528
-0.0767039
0.5061
-0.0614196
0.51595
-0.0458858
0.524125
-0.0305766
0.530511
-0.014392
0.535121
0.00186596
0.538015
0.0193864
0.539249
0.036947
0.539
0.0552524
0.537312
0.0717764
0.5341
0.0853848
0.529097
0.0920557
0.522044
0.0900219
0.513158
0.0856193
0.503108
0.0843892
0.492463
0.0860507
0.481358
0.090005
0.46971
0.0952435
0.457454
0.101533
0.444487
0.109098
0.430649
0.118409
0.41583
0.130385
0.400278
0.147158
0.385191
0.175019
0.372247
0.221961
0.350221
0.344322
0.303389
0.408204
-0.15962
-0.217912
-0.130451
-0.229244
-0.0938121
-0.281278
-0.0575222
-0.287697
-0.0203301
-0.29857
0.0178298
-0.30872
0.0544295
-0.300868
0.0868488
-0.275124
0.115277
-0.247699
0.140293
-0.221347
0.161647
-0.192617
0.18004
-0.16766
0.196326
-0.147683
0.210912
-0.130342
0.224232
-0.116577
0.236645
-0.105511
0.248342
-0.0965921
0.259453
-0.0894937
0.270088
-0.0840609
0.280337
-0.0797043
0.290236
-0.0762935
0.299747
-0.0730977
0.308856
-0.0694024
0.317367
-0.0628596
0.325006
-0.0539562
0.331613
-0.0454351
0.337242
-0.0372251
0.341869
-0.029354
0.345539
-0.0217665
0.348248
-0.0145103
0.350031
-0.00752923
0.350928
-0.000837444
0.350936
0.00577516
0.35005
0.0125169
0.348167
0.0200401
0.344978
0.0304169
0.339716
0.0460489
0.331143
0.0869686
0.315286
0.159189
-0.188082
0.218247
-0.245249
0.248675
-0.24997
0.28332
-0.272677
0.313443
-0.243441
0.342903
-0.236806
0.371717
-0.226114
0.397603
-0.203004
0.421462
-0.184832
0.443353
-0.165133
0.46291
-0.144669
0.4806
-0.12648
0.49654
-0.108252
0.51056
-0.0907237
0.522859
-0.073719
0.533585
-0.056612
0.542481
-0.0394716
0.54967
-0.0215809
0.555049
-0.00351336
0.558755
0.015681
0.56075
0.0349519
0.56102
0.0549823
0.559814
0.0729825
0.556978
0.0882215
0.552342
0.0966911
0.545661
0.0967037
0.537064
0.0942164
0.527226
0.094227
0.516667
0.0966095
0.505497
0.101174
0.493789
0.106952
0.481458
0.113865
0.468416
0.122139
0.45451
0.132316
0.439454
0.145441
0.422891
0.163721
0.404491
0.19342
0.387506
0.238947
0.369653
0.362176
0.331658
0.446201
-0.158366
-0.247628
-0.127729
-0.259881
-0.0891268
-0.31988
-0.0509751
-0.325848
-0.0120933
-0.337451
0.0279096
-0.348722
0.0660534
-0.339012
0.0997218
-0.308792
0.129057
-0.277033
0.154725
-0.247015
0.176418
-0.214311
0.194929
-0.186171
0.211229
-0.163983
0.225746
-0.144859
0.238978
-0.129809
0.251335
-0.117868
0.263012
-0.108269
0.274167
-0.100649
0.284939
-0.0948331
0.295364
-0.0901284
0.305451
-0.0863807
0.315243
-0.0828898
0.324659
-0.0788186
0.333501
-0.0717017
0.341488
-0.0619437
0.348479
-0.0524259
0.35444
-0.0431863
0.35941
-0.0343241
0.363364
-0.0257198
0.366326
-0.0174724
0.368335
-0.00953869
0.369377
-0.00187926
0.369505
0.00564603
0.368677
0.0133448
0.366775
0.0219413
0.363493
0.0336981
0.358107
0.0514339
0.349524
0.0955503
0.334233
0.17448
-0.188809
0.220547
-0.276988
0.252557
-0.281979
0.289133
-0.309254
0.320938
-0.275245
0.352015
-0.267883
0.382304
-0.256403
0.409339
-0.230039
0.434428
-0.20992
0.457356
-0.188062
0.477858
-0.16517
0.496342
-0.144965
0.512922
-0.124832
0.527745
-0.105547
0.540894
-0.0868671
0.552216
-0.0679345
0.561892
-0.049147
0.569803
-0.0294923
0.575965
-0.00967562
0.580308
0.0113388
0.582923
0.0323369
0.583823
0.0540824
0.583054
0.0737516
0.580637
0.0906378
0.576413
0.100916
0.570159
0.102958
0.561981
0.102395
0.552358
0.103851
0.541805
0.107162
0.53059
0.112389
0.51866
0.118883
0.506071
0.126453
0.492782
0.135428
0.478663
0.146434
0.463485
0.160618
0.446874
0.180331
0.427785
0.212511
0.407129
0.259606
0.38798
0.381319
0.353333
0.480849
-0.157418
-0.279019
-0.125269
-0.292029
-0.0845885
-0.360561
-0.0445014
-0.365935
-0.00365124
-0.378301
0.0382294
-0.390603
0.0781456
-0.378928
0.113214
-0.34386
0.143624
-0.307443
0.170021
-0.273411
0.192193
-0.236483
0.210931
-0.204909
0.227316
-0.180369
0.241797
-0.15934
0.254952
-0.142964
0.267227
-0.130144
0.278858
-0.1199
0.290032
-0.111822
0.300846
-0.105647
0.311392
-0.100675
0.321692
-0.0966804
0.331713
-0.0929102
0.341388
-0.0884941
0.350561
-0.0808745
0.358899
-0.0702824
0.366243
-0.0597691
0.372571
-0.0495145
0.377861
-0.0396148
0.382129
-0.029987
0.385351
-0.0206944
0.387558
-0.0117456
0.388792
-0.00311318
0.389026
0.00541204
0.388261
0.0141098
0.386349
0.0238527
0.383016
0.0370327
0.377495
0.0569543
0.368925
0.104121
0.354267
0.189138
-0.189845
0.223384
-0.310526
0.257155
-0.315749
0.295772
-0.347871
0.329183
-0.308655
0.361875
-0.300575
0.393751
-0.288279
0.422294
-0.258583
0.448522
-0.236148
0.472528
-0.212067
0.493936
-0.186579
0.513323
-0.164351
0.530771
-0.142281
0.546218
-0.120993
0.559995
-0.100645
0.572097
-0.0800359
0.582465
-0.0595154
0.591039
-0.038066
0.597835
-0.0164715
0.602844
0.00633003
0.606108
0.0290735
0.607601
0.0525896
0.607364
0.0739887
0.605377
0.0926243
0.601547
0.104746
0.595694
0.108811
0.587893
0.110195
0.578521
0.113223
0.568088
0.117595
0.556785
0.123691
0.544688
0.13098
0.531801
0.13934
0.518117
0.149113
0.503596
0.160956
0.488013
0.176201
0.471148
0.197197
0.452205
0.231455
0.430077
0.281735
0.408402
0.402995
0.373797
0.515456
-0.156813
-0.312052
-0.122934
-0.325907
-0.0801152
-0.40338
-0.0379309
-0.408119
0.00496618
-0.421198
0.0489011
-0.434538
0.0907698
-0.420797
0.127346
-0.380437
0.158939
-0.339036
0.186247
-0.30072
0.209005
-0.259241
0.228068
-0.223972
0.244573
-0.196873
0.259076
-0.173843
0.272173
-0.156061
0.284374
-0.142344
0.295926
-0.131452
0.307064
-0.12296
0.317919
-0.116502
0.32854
-0.111296
0.338968
-0.107109
0.349176
-0.103118
0.359131
-0.0984488
0.368606
-0.0903499
0.377285
-0.0789614
0.384983
-0.0674665
0.39165
-0.056182
0.397288
-0.0452527
0.401839
-0.0345376
0.405344
-0.0241997
0.407787
-0.0141887
0.40919
-0.00451603
0.409569
0.00503228
0.408856
0.0148221
0.406962
0.0257463
0.403564
0.0404298
0.397937
0.062581
0.389441
0.112615
0.375426
0.203153
-0.191369
0.226622
-0.345779
0.262255
-0.351382
0.303034
-0.38865
0.3383
-0.343922
0.372748
-0.335022
0.406268
-0.3218
0.436235
-0.288549
0.463802
-0.263715
0.488875
-0.23714
0.511275
-0.208978
0.531502
-0.184579
0.549694
-0.160472
0.565965
-0.137265
0.580454
-0.115133
0.593178
-0.0927596
0.604146
-0.0704836
0.613392
-0.0473114
0.620872
-0.0239516
0.626513
0.000688823
0.630301
0.0252859
0.632341
0.0505497
0.632565
0.0737641
0.631008
0.0941818
0.627633
0.108121
0.622279
0.114166
0.614868
0.117606
0.605802
0.122289
0.595481
0.127917
0.584157
0.135015
0.571921
0.143215
0.558784
0.152476
0.544732
0.163165
0.529716
0.175972
0.513584
0.192332
0.496139
0.21464
0.476996
0.250601
0.454628
0.304106
0.431348
0.426269
0.396442
0.550363
-0.156418
-0.347003
-0.120874
-0.361451
-0.0756854
-0.448568
-0.0313054
-0.452499
0.0138402
-0.466344
0.0600458
-0.480743
0.103889
-0.464639
0.142175
-0.418723
0.175075
-0.371937
0.203398
-0.329043
0.226838
-0.28268
0.246312
-0.243446
0.263053
-0.213614
0.277629
-0.188419
0.290697
-0.169129
0.302826
-0.154473
0.314299
-0.142926
0.325376
-0.134037
0.336204
-0.12733
0.346873
-0.121965
0.357396
-0.117632
0.36778
-0.113502
0.377949
-0.108618
0.38772
-0.100122
0.396717
-0.0879582
0.404755
-0.0755044
0.411767
-0.0631941
0.417714
-0.0511996
0.422589
-0.0394127
0.426373
-0.027983
0.429061
-0.0168774
0.43067
-0.00612448
0.43118
0.0045227
0.430558
0.0154444
0.428669
0.0276352
0.425248
0.0438514
0.419543
0.0682862
0.411086
0.121072
0.397757
0.216481
-0.19313
0.23033
-0.38298
0.267931
-0.388982
0.311011
-0.431731
0.348171
-0.381081
0.384405
-0.371256
0.419688
-0.357083
0.451206
-0.320067
0.480092
-0.292601
0.506403
-0.26345
0.529805
-0.232381
0.551005
-0.205778
0.569988
-0.179456
0.586977
-0.154254
0.602148
-0.130303
0.615421
-0.106033
0.627074
-0.0821366
0.63694
-0.0571768
0.645005
-0.032017
0.651271
-0.00557664
0.655679
0.0208782
0.658224
0.0480045
0.658951
0.0730375
0.657845
0.0952879
0.654886
0.11108
0.649945
0.119107
0.642939
0.124612
0.634203
0.131026
0.624066
0.138054
0.612761
0.14632
0.600412
0.155565
0.587035
0.165853
0.572654
0.177546
0.557173
0.191452
0.540514
0.208992
0.522403
0.232751
0.502645
0.270359
0.48003
0.326723
0.45613
0.450168
0.421577
0.584917
-0.156393
-0.383739
-0.118806
-0.399038
-0.0712327
-0.496141
-0.0244737
-0.499258
0.0229915
-0.513809
0.0715358
-0.529288
0.117648
-0.510751
0.157727
-0.458802
0.192105
-0.406314
0.221543
-0.358482
0.245774
-0.306911
0.265732
-0.263403
0.282763
-0.230645
0.297456
-0.203112
0.310524
-0.182197
0.322609
-0.166558
0.334011
-0.154327
0.344995
-0.145022
0.35578
-0.138115
0.36646
-0.132645
0.377049
-0.128222
0.387552
-0.124004
0.397931
-0.118997
0.40796
-0.110151
0.417256
-0.0972543
0.425617
-0.0838658
0.432964
-0.0705404
0.439253
-0.0574887
0.444441
-0.0446009
0.448508
-0.0320506
0.451441
-0.0198096
0.453241
-0.00792533
0.453909
0.00385449
0.453378
0.015975
0.451521
0.0294919
0.448071
0.047301
0.44232
0.074036
0.433991
0.129401
0.421322
0.22915
-0.195197
0.234506
-0.422289
0.274133
-0.428609
0.319629
-0.477227
0.358748
-0.4202
0.396918
-0.409426
0.434159
-0.394324
0.46721
-0.353117
0.497546
-0.322936
0.525219
-0.291124
0.54973
-0.256892
0.571824
-0.227872
0.591664
-0.199296
0.609293
-0.171882
0.625146
-0.146156
0.639177
-0.120064
0.651399
-0.0943585
0.661863
-0.0676413
0.670488
-0.0406417
0.67722
-0.012308
0.68215
0.0159478
0.685236
0.0449186
0.686384
0.0718897
0.685723
0.0959491
0.683204
0.113599
0.678722
0.123589
0.672186
0.131148
0.663747
0.139464
0.65381
0.147991
0.642597
0.157533
0.63017
0.167992
0.616605
0.179417
0.601899
0.192251
0.58604
0.20731
0.568857
0.226175
0.550101
0.251506
0.529597
0.290865
0.506492
0.34983
0.482223
0.474432
0.44858
0.618561
-0.156456
-0.42248
-0.116985
-0.438509
-0.0667483
-0.546378
-0.0175008
-0.548506
0.0324599
-0.563769
0.0835772
-0.580405
0.131987
-0.559161
0.174053
-0.500868
0.209962
-0.442223
0.24067
-0.38919
0.265767
-0.332008
0.286335
-0.283972
0.30373
-0.24804
0.318606
-0.217988
0.331735
-0.195326
0.343776
-0.178599
0.355094
-0.165646
0.366015
-0.155942
0.376731
-0.148831
0.387375
-0.143289
0.397994
-0.138841
0.408608
-0.134619
0.419157
-0.129545
0.429417
-0.120411
0.439011
-0.106848
0.447677
-0.0925318
0.455344
-0.0782078
0.461944
-0.0640883
0.467444
-0.0501014
0.471788
-0.0363939
0.474983
-0.0230044
0.477013
-0.00995502
0.477825
0.00304256
0.477412
0.0163876
0.475604
0.0312998
0.472142
0.0507633
0.466374
0.0798043
0.458144
0.137631
0.446178
0.241115
-0.197625
0.239096
-0.463759
0.280855
-0.470368
0.328869
-0.525241
0.370059
-0.46139
0.410351
-0.449718
0.449551
-0.433524
0.484312
-0.387878
0.516211
-0.354835
0.545186
-0.320099
0.5708
-0.282506
0.593896
-0.250968
0.61462
-0.220019
0.633126
-0.190388
0.649615
-0.162646
0.664238
-0.134686
0.677043
-0.107164
0.688054
-0.0786516
0.697221
-0.0498095
0.704577
-0.0196632
0.709982
0.0105428
0.713493
0.0414072
0.715136
0.0702471
0.714873
0.0962127
0.712774
0.115698
0.708713
0.127651
0.7026
0.137261
0.694548
0.147517
0.684841
0.157698
0.673702
0.168672
0.661234
0.18046
0.647516
0.193136
0.632547
0.207219
0.616277
0.223581
0.598604
0.243848
0.579286
0.270823
0.558104
0.312048
0.53429
0.373645
0.509592
0.499129
0.476966
0.651188
-0.156717
-0.463388
-0.115097
-0.480128
-0.0621542
-0.599321
-0.0102733
-0.600387
0.0423377
-0.61638
0.0961479
-0.634215
0.147062
-0.610075
0.191208
-0.545014
0.228824
-0.479838
0.260863
-0.421229
0.286959
-0.358104
0.30818
-0.305192
0.325998
-0.265859
0.34112
-0.23311
0.35434
-0.208545
0.366388
-0.190647
0.377642
-0.1769
0.388473
-0.166773
0.399112
-0.15947
0.409714
-0.153891
0.42033
-0.149457
0.431
-0.145288
0.441695
-0.140241
0.452192
-0.130908
0.462035
-0.116691
0.470983
-0.10148
0.478955
-0.08618
0.485868
-0.0710008
0.491676
-0.0559099
0.496321
-0.0410389
0.499775
-0.0264577
0.502004
-0.0121846
0.503012
0.00203499
0.502706
0.0166931
0.500963
0.0330424
0.497514
0.0542118
0.491744
0.0855736
0.483675
0.145699
0.472434
0.252356
-0.200261
0.243956
-0.507454
0.288047
-0.514459
0.338746
-0.57594
0.382174
-0.504818
0.42463
-0.492174
0.46587
-0.474764
0.502491
-0.4245
0.536006
-0.38835
0.566368
-0.350461
0.593221
-0.309359
0.617456
-0.275203
0.639042
-0.241605
0.65832
-0.209666
0.675542
-0.179868
0.690766
-0.149909
0.704171
-0.120569
0.715715
-0.0901953
0.725432
-0.0595266
0.733228
-0.0274591
0.739148
0.00462289
0.743099
0.0374558
0.745127
0.0682192
0.745305
0.0960353
0.74361
0.117392
0.740009
0.131253
0.734304
0.142965
0.726612
0.155209
0.717161
0.167148
0.706132
0.179701
0.693676
0.192916
0.679823
0.206988
0.664609
0.222433
0.647985
0.240204
0.629847
0.261985
0.609999
0.29067
0.588154
0.333894
0.563669
0.398133
0.538427
0.524366
0.506661
0.682955
-0.157128
-0.506522
-0.113295
-0.523961
-0.0574797
-0.655136
-0.00276129
-0.655105
0.0526296
-0.671771
0.109254
-0.690839
0.162879
-0.6637
0.209217
-0.591352
0.248672
-0.519293
0.282158
-0.454715
0.309309
-0.385255
0.331274
-0.327158
0.349614
-0.284199
0.36503
-0.248526
0.37839
-0.221905
0.390483
-0.20274
0.401702
-0.188119
0.412457
-0.177528
0.423011
-0.170024
0.433538
-0.164419
0.444142
-0.16006
0.454848
-0.155994
0.46566
-0.151054
0.476332
-0.14158
0.486406
-0.126766
0.495635
-0.110709
0.503893
-0.0944375
0.511118
-0.0782257
0.517214
-0.0620066
0.522148
-0.0459729
0.525863
-0.0301722
0.528339
-0.0146613
0.529515
0.0008597
0.529331
0.0168768
0.527674
0.0346993
0.524248
0.0576385
0.518538
0.0912848
0.510624
0.153612
0.500076
0.262905
-0.203218
0.249316
-0.553552
0.29585
-0.560993
0.349241
-0.629331
0.395136
-0.550713
0.439766
-0.536805
0.483279
-0.518277
0.521754
-0.462975
0.556989
-0.423585
0.588898
-0.38237
0.617064
-0.337525
0.642289
-0.300428
0.664917
-0.264232
0.684964
-0.229714
0.702908
-0.197812
0.718865
-0.165867
0.732807
-0.134512
0.744921
-0.102309
0.755125
-0.0697308
0.763447
-0.0357814
0.769775
-0.00170492
0.77414
0.0330913
0.776614
0.0657449
0.777126
0.0955235
0.775829
0.11869
0.772616
0.134466
0.767325
0.148257
0.760017
0.162517
0.750846
0.176319
0.740009
0.190538
0.727566
0.205359
0.713615
0.22094
0.698173
0.237876
0.681213
0.257163
0.662652
0.280546
0.642238
0.311084
0.619839
0.356293
0.594717
0.423256
0.568843
0.550239
0.537821
0.713978
-0.15774
-0.552
-0.111522
-0.570179
-0.0526212
-0.714037
0.00500827
-0.712734
0.0633948
-0.730158
0.123036
-0.75048
0.179408
-0.720073
0.228178
-0.640122
0.269546
-0.560661
0.304628
-0.489797
0.332946
-0.413573
0.355744
-0.349955
0.374649
-0.303105
0.390418
-0.264294
0.403974
-0.235461
0.416121
-0.214886
0.427344
-0.199343
0.438022
-0.188205
0.448489
-0.180492
0.45894
-0.17487
0.4695
-0.170619
0.480221
-0.166715
0.49113
-0.161963
0.501968
-0.152418
0.51226
-0.137057
0.521722
-0.120171
0.530242
-0.102959
0.537738
-0.0857217
0.544139
-0.068407
0.549345
-0.0511792
0.553336
-0.0341627
0.556028
-0.0173537
0.55741
-0.000522022
0.557389
0.0168976
0.555796
0.0362912
0.552458
0.060976
0.546797
0.0969455
0.539118
0.161291
0.52927
0.272752
-0.206403
0.255033
-0.602181
0.304042
-0.610002
0.360501
-0.68579
0.408713
-0.598924
0.455866
-0.583958
0.50165
-0.564061
0.542236
-0.503561
0.579207
-0.460556
0.612703
-0.415866
0.642206
-0.367028
0.668714
-0.326936
0.692276
-0.287794
0.713267
-0.250705
0.731968
-0.216513
0.748554
-0.182453
0.763113
-0.14907
0.775735
-0.114931
0.786406
-0.0804017
0.795135
-0.0445101
0.801905
-0.00847483
0.806709
0.0282876
0.809486
0.0629676
0.810372
0.0946371
0.809468
0.119595
0.806646
0.137288
0.801796
0.153107
0.794858
0.169456
0.785964
0.185214
0.775281
0.201222
0.762922
0.217717
0.74891
0.234951
0.733278
0.253508
0.716017
0.274423
0.697038
0.299524
0.676143
0.331978
0.653177
0.379261
0.62749
0.448945
0.601031
0.576694
0.570628
0.744382
-0.158454
-0.59995
-0.109731
-0.618902
-0.04761
-0.776158
0.0130916
-0.773436
0.0746216
-0.791688
0.137456
-0.813315
0.196839
-0.779455
0.24809
-0.691373
0.291535
-0.604107
0.328278
-0.52654
0.357867
-0.443162
0.381582
-0.37367
0.401123
-0.322646
0.417319
-0.280491
0.431115
-0.249257
0.443379
-0.22715
0.454604
-0.210568
0.465241
-0.198842
0.475625
-0.190876
0.486017
-0.185262
0.496505
-0.181107
0.507234
-0.177445
0.518202
-0.172931
0.529182
-0.163399
0.539664
-0.147539
0.549331
-0.129837
0.558115
-0.111743
0.565877
-0.093483
0.572531
-0.0750611
0.57804
-0.0566885
0.582281
-0.0384037
0.58522
-0.0202923
0.586779
-0.00208111
0.586911
0.0167657
0.585456
0.0377453
0.582181
0.0642522
0.576647
0.10248
0.569177
0.168761
0.560041
0.281888
-0.209876
0.261127
-0.653432
0.312811
-0.661686
0.372326
-0.745305
0.423261
-0.64986
0.472862
-0.63356
0.521178
-0.612377
0.563786
-0.546169
0.602713
-0.499483
0.637911
-0.451063
0.668901
-0.398019
0.69659
-0.354624
0.721306
-0.31251
0.743182
-0.272581
0.762678
-0.236009
0.779907
-0.199682
0.795101
-0.164264
0.808224
-0.128054
0.819365
-0.091542
0.828572
-0.0537171
0.835715
-0.0156183
0.840852
0.0231508
0.843995
0.0598253
0.845215
0.0934169
0.844653
0.120157
0.842221