/*--------------------------------*- C++ -*----------------------------------*\
| =========                 |                                                 |
| \\      /  F ield         | OpenFOAM: The Open Source CFD Toolbox           |
|  \\    /   O peration     | Version:  2506                                  |
|   \\  /    A nd           | Website:  www.openfoam.com                      |
|    \\/     M anipulation  |                                                 |
\*---------------------------------------------------------------------------*/
FoamFile
{
    version     2.0;
    format      ascii;
    arch        "LSB;label=32;scalar=64";
    class       volScalarField;
    location    "200";
    object      static(p)_coeff;
}
// * * * * * * * * * * * * * * * * * * * * * * * * * * * * * * * * * * * * * //

dimensions      [0 0 0 0 0 0 0];

internalField   nonuniform List<scalar> 
10720
(
-0.17069
-0.38066
-0.62765
-0.871371
-1.09695
-1.32684
-1.53111
-1.70293
-1.85241
-1.96967
-2.05934
-2.1256
-2.17174
-2.20011
-2.21119
-2.20311
-2.1785
-2.13424
-2.07444
-1.99897
-1.91723
-1.83747
-1.76811
-1.68728
-1.56868
-1.41904
-1.26611
-1.13251
-1.01716
-0.908716
-0.801539
-0.695237
-0.589928
-0.48459
-0.378019
-0.267188
-0.153308
-0.0212277
0.0796546
0.0392164
0.230467
0.433914
0.623571
0.785348
0.90735
0.978392
1.0015
0.993296
0.953862
0.89104
0.821105
0.751235
0.683734
0.620521
0.561116
0.505644
0.45282
0.401845
0.351248
0.300881
0.249821
0.198345
0.147678
0.103366
0.0684923
0.0399014
0.0167443
-0.000436215
-0.0117517
-0.0179412
-0.0194357
-0.0164776
-0.00908279
0.00277715
0.0201622
0.0447913
0.086321
0.156954
0.136275
-0.0232283
-0.202015
-0.392025
-0.587411
-0.787507
-0.981858
-1.16432
-1.33285
-1.48225
-1.61182
-1.72158
-1.81133
-1.88103
-1.93019
-1.95782
-1.96612
-1.95472
-1.92663
-1.88321
-1.83179
-1.77889
-1.7284
-1.66104
-1.55311
-1.41001
-1.26096
-1.12905
-1.01431
-0.906164
-0.799134
-0.692974
-0.58789
-0.482839
-0.376596
-0.266067
-0.152433
-0.0203211
0.0787456
0.279742
0.416418
0.552606
0.683778
0.799164
0.89099
0.949952
0.97449
0.969216
0.936683
0.885335
0.825281
0.762152
0.698754
0.637189
0.578141
0.521963
0.468106
0.415977
0.364602
0.313674
0.262585
0.211579
0.161919
0.117976
0.0825003
0.0534543
0.0296042
0.0108465
-0.00251988
-0.0105378
-0.0134856
-0.0116686
-0.00518073
0.00597705
0.0228374
0.0470724
0.0883699
0.15622
0.176261
0.0329703
-0.128456
-0.306735
-0.49171
-0.681444
-0.871291
-1.05342
-1.22315
-1.37753
-1.51283
-1.62749
-1.72054
-1.79241
-1.84386
-1.87604
-1.88912
-1.88322
-1.86015
-1.82184
-1.77344
-1.72057
-1.66698
-1.60089
-1.50304
-1.37418
-1.23741
-1.11295
-1.00245
-0.897382
-0.792881
-0.688673
-0.584894
-0.480639
-0.374919
-0.264791
-0.151479
-0.0195985
0.0790725
0.305499
0.43092
0.555529
0.673354
0.77496
0.855517
0.908835
0.934219
0.933796
0.909551
0.86775
0.81529
0.757366
0.697422
0.637863
0.579943
0.524229
0.470597
0.418621
0.367572
0.317049
0.266632
0.216511
0.16782
0.124009
0.0877585
0.0579588
0.0335536
0.0145031
0.00106694
-0.00695068
-0.0100145
-0.00847137
-0.00235953
0.00841517
0.024938
0.0489098
0.0898062
0.155025
0.241366
0.121204
-0.0161103
-0.167172
-0.325854
-0.491967
-0.660597
-0.82655
-0.985925
-1.1353
-1.27136
-1.39195
-1.49565
-1.58199
-1.6506
-1.70188
-1.73448
-1.74824
-1.744
-1.7234
-1.69
-1.6481
-1.6004
-1.53942
-1.45137
-1.33587
-1.21064
-1.09328
-0.98691
-0.88506
-0.783431
-0.681639
-0.579836
-0.477175
-0.372636
-0.263339
-0.150585
-0.0193203
0.0795928
0.348958
0.452205
0.555662
0.655344
0.742435
0.81316
0.862246
0.888361
0.8922
0.875222
0.842162
0.798161
0.747505
0.693418
0.638233
0.583371
0.529615
0.477199
0.425957
0.375449
0.325369
0.275497
0.226042
0.178071
0.134428
0.0976357
0.067189
0.0421254
0.0223157
0.0079428
-0.00116583
-0.00531455
-0.00472638
0.000617463
0.0108227
0.0269426
0.0506206
0.0910003
0.153687
0.258663
0.151684
0.028858
-0.107234
-0.25058
-0.402404
-0.558643
-0.714557
-0.867171
-1.01306
-1.14884
-1.27212
-1.38088
-1.47362
-1.54945
-1.6075
-1.64694
-1.66778
-1.67063
-1.6572
-1.6303
-1.59354
-1.54901
-1.49145
-1.41023
-1.30418
-1.18725
-1.07507
-0.971742
-0.872403
-0.773185
-0.673579
-0.573684
-0.472676
-0.369566
-0.261511
-0.1497
-0.0194538
0.079654
0.354685
0.446331
0.538423
0.627156
0.704749
0.768588
0.814636
0.84123
0.848441
0.837583
0.812063
0.775761
0.732038
0.683719
0.633018
0.58143
0.529931
0.479039
0.428841
0.379161
0.329827
0.280749
0.232175
0.185088
0.141837
0.104713
0.0736892
0.0479973
0.0275227
0.0124672
0.00274726
-0.00188851
-0.00168079
0.00334249
0.0132673
0.0291286
0.0525317
0.0922861
0.152321
0.269046
0.174316
0.0649881
-0.0560542
-0.183578
-0.319655
-0.460508
-0.60236
-0.743038
-0.879419
-1.00864
-1.12844
-1.23662
-1.33141
-1.41153
-1.47586
-1.52403
-1.55542
-1.57002
-1.56878
-1.55354
-1.52683
-1.48996
-1.43916
-1.36638
-1.27029
-1.16219
-1.05598
-0.95637
-0.859835
-0.763016
-0.665469
-0.567369
-0.467967
-0.366279
-0.259541
-0.1489
-0.0200873
0.0791532
0.354084
0.434949
0.516798
0.596246
0.666105
0.724445
0.767997
0.794786
0.804544
0.798548
0.779293
0.749782
0.712647
0.670234
0.624535
0.576967
0.528553
0.479967
0.431494
0.383175
0.334979
0.286947
0.239375
0.193198
0.150418
0.113118
0.0816263
0.0554067
0.0343581
0.0186716
0.00830109
0.00300056
0.00254432
0.00692572
0.0162722
0.0316327
0.0545732
0.0935254
0.150836
0.268216
0.182719
0.083787
-0.0258412
-0.141108
-0.264774
-0.393483
-0.52393
-0.654667
-0.782925
-0.906223
-1.02254
-1.12965
-1.22564
-1.30895
-1.37826
-1.43236
-1.47041
-1.49193
-1.49765
-1.48904
-1.46811
-1.4359
-1.38987
-1.32403
-1.23691
-1.13724
-1.03698
-0.94117
-0.84748
-0.75308
-0.657563
-0.561143
-0.463214
-0.36294
-0.257621
-0.148363
-0.0213239
0.0780088
0.345045
0.417876
0.49197
0.564201
0.62796
0.681888
0.723298
0.750022
0.76167
0.759484
0.745363
0.721662
0.690451
0.653626
0.61289
0.569501
0.52445
0.478491
0.432053
0.385352
0.338502
0.291668
0.245205
0.200006
0.157806
0.120499
0.0886633
0.061985
0.0403954
0.0240828
0.0130454
0.00709147
0.00603076
0.00988226
0.0187867
0.0337733
0.0563396
0.0944749
0.149128
0.262743
0.185128
0.0951324
-0.00450356
-0.10898
-0.22142
-0.338739
-0.458056
-0.578428
-0.697493
-0.813113
-0.923594
-1.0269
-1.12114
-1.20466
-1.27594
-1.33359
-1.37689
-1.40519
-1.41861
-1.41796
-1.40444
-1.37862
-1.33864
-1.28016
-1.20186
-1.11051
-1.01641
-0.924707
-0.834149
-0.742438
-0.649198
-0.554668
-0.458331
-0.359488
-0.255639
-0.148012
-0.0230904
0.0760756
0.332592
0.398668
0.466269
0.532496
0.591179
0.641451
0.68093
0.707364
0.720408
0.721168
0.711191
0.692376
0.666368
0.634692
0.598757
0.559619
0.518189
0.475214
0.431207
0.38649
0.341309
0.295924
0.250747
0.20664
0.165156
0.128021
0.0959852
0.0689481
0.0468949
0.030021
0.0183714
0.0118013
0.0101443
0.0134309
0.0218198
0.0363259
0.0583847
0.0955013
0.147414
0.253771
0.182696
0.100187
0.00891171
-0.0864955
-0.189349
-0.296856
-0.40642
-0.517517
-0.62809
-0.736354
-0.840943
-0.940019
-1.03182
-1.1147
-1.18709
-1.24749
-1.2948
-1.32816
-1.34719
-1.35231
-1.34434
-1.32362
-1.28885
-1.23688
-1.16654
-1.083
-0.994947
-0.907468
-0.820158
-0.731237
-0.640377
-0.54785
-0.453228
-0.355909
-0.253562
-0.147678
-0.0251103
0.0733349
0.31783
0.378336
0.440542
0.501728
0.556132
0.603301
0.64101
0.667013
0.681036
0.684068
0.677416
0.662662
0.641146
0.614091
0.582637
0.547643
0.509898
0.470088
0.42874
0.386248
0.342951
0.299195
0.255435
0.212515
0.171853
0.135037
0.102929
0.075621
0.0531647
0.0357702
0.0235266
0.0163396
0.0140776
0.0167951
0.0246709
0.038699
0.0602384
0.096283
0.145522
0.242935
0.177474
0.101428
0.0174043
-0.0701321
-0.164577
-0.263333
-0.364058
-0.466524
-0.568922
-0.66979
-0.768044
-0.86205
-0.950271
-1.03114
-1.10307
-1.16453
-1.2143
-1.25145
-1.27533
-1.28587
-1.28345
-1.26808
-1.23875
-1.1932
-1.13044
-1.05444
-0.972461
-0.889378
-0.805467
-0.71945
-0.631075
-0.540653
-0.447851
-0.352159
-0.251404
-0.147293
-0.0272478
0.0699712
0.302038
0.35779
0.415389
0.472262
0.522989
0.56744
0.603526
0.628984
0.643661
0.648435
0.644441
0.633036
0.615351
0.592369
0.565014
0.533966
0.499862
0.463309
0.424795
0.384745
0.343554
0.301615
0.25943
0.217822
0.178112
0.14178
0.109752
0.0822847
0.0595113
0.0416625
0.0288718
0.0210998
0.0182491
0.0203931
0.0277324
0.0412339
0.0621767
0.0970074
0.14354
0.231014
0.170398
0.0999514
0.0222218
-0.0584761
-0.14557
-0.236619
-0.329496
-0.424147
-0.519005
-0.612881
-0.704932
-0.793739
-0.877958
-0.956178
-1.02688
-1.08854
-1.13988
-1.1798
-1.20742
-1.22228
-1.22444
-1.21375
-1.1894
-1.14975
-1.09399
-1.02511
-0.949103
-0.870498
-0.790104
-0.707092
-0.621308
-0.53309
-0.442201
-0.348239
-0.249183
-0.146856
-0.0295449
0.0661683
0.285834
0.337505
0.391116
0.444245
0.491769
0.533806
0.568363
0.59322
0.608294
0.61439
0.612511
0.603863
0.589417
0.569984
0.546318
0.51894
0.488347
0.455039
0.419447
0.38198
0.343051
0.303091
0.262615
0.222428
0.183788
0.148083
0.116275
0.0887562
0.0657447
0.0475013
0.0342034
0.0258659
0.0224333
0.0240013
0.0307939
0.043746
0.064049
0.097588
0.141452
0.218597
0.16223
0.0967054
0.0245094
-0.0501844
-0.130784
-0.214981
-0.30081
-0.38836
-0.476252
-0.563518
-0.649517
-0.733023
-0.812915
-0.887923
-0.956628
-1.0176
-1.0695
-1.11115
-1.14162
-1.16008
-1.16633
-1.16002
-1.14044
-1.10637
-1.05716
-0.995024
-0.924875
-0.850831
-0.774066
-0.694169
-0.61108
-0.525169
-0.436295
-0.344161
-0.246924
-0.146429
-0.0320403
0.0619797
0.269677
0.317782
0.3679
0.417719
0.462427
0.502284
0.535389
0.559616
0.574882
0.581975
0.581779
0.575388
0.563663
0.547294
0.526911
0.502891
0.475616
0.445473
0.412815
0.378016
0.341478
0.303632
0.26499
0.226341
0.18889
0.153958
0.122515
0.0950635
0.0719071
0.0533425
0.0395908
0.0307229
0.0267271
0.0277199
0.0339499
0.0463149
0.0659154
0.0980619
0.139273
0.20606
0.153442
0.0922793
0.0249865
-0.044397
-0.11923
-0.19732
-0.276825
-0.357959
-0.439486
-0.52059
-0.600834
-0.679155
-0.75461
-0.826107
-0.892365
-0.952028
-1.0038
-1.04641
-1.07891
-1.10021
-1.10987
-1.10742
-1.0922
-1.06328
-1.02011
-0.964318
-0.899864
-0.83041
-0.757372
-0.680678
-0.600387
-0.516887
-0.43013
-0.339925
-0.244623
-0.146066
-0.0347317
0.0574267
0.253823
0.298796
0.345808
0.392678
0.434875
0.472747
0.504479
0.528038
0.543354
0.551178
0.552319
0.54777
0.538329
0.524595
0.507094
0.486108
0.461916
0.434801
0.405039
0.372938
0.33886
0.303227
0.266525
0.229521
0.193374
0.159345
0.128406
0.101141
0.0779337
0.0591224
0.044972
0.0356081
0.0310672
0.0314875
0.0371435
0.0488921
0.0677389
0.0984168
0.13701
0.193652
0.144374
0.0871122
0.0241989
-0.040448
-0.110127
-0.182747
-0.256564
-0.331886
-0.407595
-0.48299
-0.557791
-0.631099
-0.70212
-0.76994
-0.833413
-0.891271
-0.942288
-0.985183
-1.01898
-1.04246
-1.05496
-1.05592
-1.04469
-1.02053
-0.982938
-0.933092
-0.874139
-0.809271
-0.74003
-0.666625
-0.589221
-0.508235
-0.4237
-0.33553
-0.242271
-0.145781
-0.0376141
0.0525512
0.238453
0.28063
0.324869
0.369083
0.409017
0.445062
0.475489
0.498371
0.513616
0.521966
0.524163
0.521123
0.513589
0.502104
0.487119
0.468846
0.447481
0.423227
0.396266
0.366835
0.335255
0.301896
0.267222
0.231958
0.19722
0.16422
0.133921
0.106964
0.0838045
0.0648278
0.0503414
0.0405243
0.0354631
0.0353176
0.0403888
0.0514891
0.0695272
0.0986638
0.134676
0.181534
0.13526
0.0815068
0.0225368
-0.0378625
-0.102914
-0.170603
-0.239292
-0.309341
-0.379723
-0.44985
-0.519555
-0.588086
-0.654791
-0.718879
-0.779355
-0.835072
-0.884876
-0.927517
-0.961993
-0.987067
-1.00186
-1.00574
-0.998085
-0.978253
-0.945775
-0.901467
-0.847788
-0.787465
-0.722064
-0.652017
-0.577585
-0.499211
-0.417001
-0.330969
-0.239866
-0.14556
-0.0406805
0.047385
0.223671
0.263334
0.305064
0.346876
0.384748
0.419098
0.448292
0.470484
0.485578
0.494283
0.497309
0.495499
0.48956
0.479991
0.467192
0.451332
0.432535
0.410934
0.386641
0.359819
0.33072
0.299675
0.267091
0.233644
0.200407
0.168552
0.139019
0.112489
0.0894803
0.0704228
0.0556664
0.0454429
0.0398887
0.0391874
0.0436656
0.0540884
0.0712676
0.0988043
0.132281
0.16981
0.126261
0.0756863
0.0202868
-0.036281
-0.0971435
-0.160372
-0.224418
-0.289667
-0.355179
-0.420464
-0.485425
-0.549426
-0.611958
-0.672346
-0.729719
-0.783061
-0.831301
-0.873246
-0.907873
-0.934012
-0.950603
-0.956953
-0.952457
-0.936532
-0.908728
-0.869552
-0.820898
-0.765045
-0.703504
-0.636869
-0.565485
-0.489811
-0.410032
-0.326242
-0.237407
-0.145394
-0.0439096
0.0419447
0.209536
0.246923
0.28637
0.325988
0.36197
0.394743
0.422762
0.444263
0.459135
0.468074
0.471742
0.470934
0.466326
0.458384
0.447478
0.433742
0.417261
0.3981
0.376312
0.351999
0.32534
0.296604
0.266146
0.234579
0.202928
0.17232
0.14367
0.117684
0.0949295
0.0758789
0.0609237
0.0503453
0.0443311
0.0430879
0.0469668
0.0566851
0.0729571
0.0988454
0.129838
0.158552
0.117482
0.0698026
0.0176603
-0.0354321
-0.0924872
-0.151667
-0.211486
-0.272362
-0.333427
-0.394249
-0.454799
-0.514545
-0.57308
-0.629856
-0.684106
-0.734925
-0.781349
-0.822256
-0.856617
-0.88335
-0.901283
-0.909675
-0.907921
-0.895483
-0.871915
-0.837474
-0.793573
-0.742077
-0.684393
-0.621205
-0.552929
-0.480044
-0.402788
-0.32135
-0.234893
-0.145278
-0.0472771
0.0362514
0.196076
0.231394
0.268749
0.306347
0.340585
0.371882
0.398786
0.419598
0.434198
0.443269
0.447425
0.447428
0.443932
0.437377
0.428104
0.416235
0.401821
0.384884
0.365433
0.343498
0.319205
0.29275
0.264425
0.234778
0.204776
0.175504
0.147847
0.122516
0.100118
0.0811637
0.0660843
0.0552071
0.0487693
0.0470017
0.0502781
0.0592676
0.0745893
0.0987931
0.127358
0.147798
0.108997
0.0639792
0.0148097
-0.0351038
-0.0886908
-0.144171
-0.200138
-0.257016
-0.313999
-0.370713
-0.427182
-0.482943
-0.537693
-0.590975
-0.642125
-0.690353
-0.73478
-0.77438
-0.808138
-0.83506
-0.853937
-0.863967
-0.864559
-0.855206
-0.835448
-0.805346
-0.765911
-0.718636
-0.664771
-0.605049
-0.539932
-0.469911
-0.395272
-0.316289
-0.232319
-0.14521
-0.0507573
0.030339
0.183301
0.216722
0.25215
0.287884
0.320501
0.350413
0.376253
0.396381
0.410674
0.419796
0.424324
0.424984
0.422413
0.417036
0.409171
0.398934
0.386357
0.371435
0.354132
0.334435
0.312405
0.288175
0.261968
0.23426
0.205957
0.178097
0.151527
0.126956
0.105014
0.086247
0.07112
0.0600041
0.053183
0.0509132
0.0535868
0.0618265
0.0761593
0.0986555
0.124857
0.137568
0.100858
0.0582859
0.0118587
-0.0351469
-0.0855496
-0.137643
-0.190078
-0.243296
-0.296533
-0.349461
-0.402149
-0.454201
-0.505366
-0.555298
-0.603422
-0.649038
-0.691365
-0.729459
-0.762359
-0.789131
-0.80859
-0.819898
-0.822454
-0.815787
-0.79943
-0.773279
-0.738022
-0.694799
-0.644693
-0.588435
-0.526512
-0.459419
-0.38749
-0.311059
-0.229683
-0.145183
-0.0543245
0.024243
0.171207
0.202879
0.236524
0.270531
0.301633
0.330241
0.355063
0.374517
0.388478
0.397585
0.402392
0.403578
0.401782
0.397402
0.390753
0.381941
0.370988
0.357879
0.342543
0.324926
0.305037
0.282953
0.258824
0.233055
0.206484
0.180094
0.154694
0.130977
0.109588
0.0910973
0.0760016
0.0647101
0.0575497
0.0548036
0.0568777
0.0643513
0.0776622
0.0984399
0.122347
0.127869
0.0930933
0.0527843
0.0088873
-0.0354374
-0.0829121
-0.131888
-0.181084
-0.230936
-0.280725
-0.330161
-0.379344
-0.427933
-0.475735
-0.522475
-0.567668
-0.610698
-0.650872
-0.68733
-0.719172
-0.745508
-0.765252
-0.777497
-0.781665
-0.777311
-0.763965
-0.741397
-0.710011
-0.670651
-0.624219
-0.5714
-0.512693
-0.448587
-0.379448
-0.305664
-0.226979
-0.14519
-0.0579531
0.0180018
0.159781
0.189834
0.221822
0.25422
0.283902
0.311275
0.335127
0.353921
0.367528
0.376573
0.381577
0.383192
0.382036
0.37851
0.372902
0.365333
0.355817
0.344323
0.33077
0.315076
0.297199
0.277161
0.255052
0.231203
0.206376
0.181499
0.157336
0.134559
0.113813
0.0956855
0.0806999
0.069298
0.061846
0.0586536
0.0601352
0.0668308
0.0790941
0.0981548
0.119842
0.118699
0.08572
0.0475131
0.00596335
-0.0358855
-0.0806543
-0.126756
-0.172965
-0.219717
-0.266328
-0.312541
-0.35848
-0.403847
-0.448499
-0.492207
-0.534581
-0.575086
-0.613085
-0.647819
-0.678454
-0.70414
-0.723898
-0.736789
-0.742246
-0.739859
-0.729151
-0.709801
-0.681983
-0.646284
-0.603413
-0.553993
-0.498507
-0.43743
-0.371145
-0.3001
-0.224202
-0.145217
-0.0616156
0.0116574
0.149006
0.177553
0.207996
0.238888
0.267234
0.29344
0.316363
0.334512
0.347754
0.356696
0.361837
0.363795
0.363171
0.360367
0.355661
0.349171
0.340919
0.330868
0.318927
0.30499
0.288983
0.270882
0.250718
0.228747
0.20566
0.182321
0.159449
0.137684
0.117664
0.0999839
0.0851861
0.0737407
0.0660476
0.0624423
0.0633432
0.0692539
0.0804514
0.0978084
0.117356
0.11005
0.0787451
0.0424957
0.0031313
-0.0364197
-0.0786812
-0.122121
-0.165572
-0.209455
-0.253131
-0.296365
-0.339298
-0.381669
-0.423372
-0.464232
-0.503905
-0.541952
-0.577804
-0.610766
-0.640085
-0.664951
-0.6845
-0.69778
-0.704234
-0.703486
-0.695077
-0.678593
-0.654046
-0.621784
-0.582347
-0.536264
-0.483984
-0.425966
-0.3626
-0.29437
-0.221344
-0.145251
-0.0652812
0.00525329
0.138859
0.165999
0.194995
0.224473
0.251561
0.276663
0.298695
0.316215
0.329084
0.337893
0.343119
0.34535
0.345169
0.342977
0.339052
0.333503
0.32636
0.31759
0.307096
0.294758
0.28048
0.264195
0.245885
0.225737
0.204368
0.182578
0.161034
0.140342
0.12112
0.103966
0.0894321
0.0780103
0.0701291
0.0661476
0.0664839
0.0716089
0.0817298
0.0974085
0.114902
0.10191
0.0721683
0.0377499
0.000426457
-0.0369915
-0.0769183
-0.117889
-0.158781
-0.200011
-0.240966
-0.281443
-0.321586
-0.361168
-0.400114
-0.438297
-0.475409
-0.511087
-0.54483
-0.576009
-0.603943
-0.627866
-0.647018
-0.660461
-0.667658
-0.668255
-0.661813
-0.647873
-0.626298
-0.597246
-0.561092
-0.518266
-0.469165
-0.414217
-0.353818
-0.288477
-0.218399
-0.145276
-0.0689229
-0.00116913
0.129313
0.155141
0.182778
0.210923
0.236824
0.260876
0.282057
0.298962
0.311453
0.320107
0.325378
0.327824
0.328017
0.326345
0.323089
0.318359
0.312189
0.304555
0.295354
0.284466
0.271773
0.257179
0.240622
0.222227
0.202539
0.182291
0.162099
0.142525
0.124166
0.107609
0.0934116
0.08208
0.0740651
0.0697473
0.0695399
0.0738847
0.0829266
0.0969633
0.112492
0.0942619
0.0659852
0.0332832
-0.00212941
-0.0375552
-0.0753074
-0.113979
-0.152495
-0.191259
-0.229696
-0.267614
-0.305167
-0.342155
-0.378525
-0.414188
-0.44888
-0.482292
-0.513983
-0.54339
-0.569898
-0.592789
-0.611393
-0.624813
-0.632524
-0.634198
-0.62943
-0.617729
-0.598837
-0.572767
-0.539731
-0.50006
-0.454092
-0.402217
-0.34482
-0.282424
-0.21536
-0.145272
-0.0725087
-0.00756449
0.120346
0.14494
0.171299
0.198187
0.222964
0.246016
0.266378
0.282683
0.294801
0.303286
0.308569
0.311181
0.311686
0.310459
0.307776
0.303762
0.298447
0.291813
0.283768
0.274186
0.26294
0.249909
0.234997
0.218276
0.200217
0.181489
0.162655
0.144234
0.126789
0.110893
0.0970997
0.0859238
0.0778302
0.0732177
0.0724928
0.0760688
0.084039
0.0964797
0.110139
0.0870871
0.060189
0.0290992
-0.00452069
-0.0380814
-0.0738022
-0.110327
-0.146629
-0.183103
-0.219198
-0.254737
-0.289884
-0.324455
-0.358429
-0.391726
-0.424135
-0.455385
-0.485096
-0.512764
-0.537826
-0.559631
-0.577567
-0.59081
-0.598837
-0.601354
-0.597988
-0.588236
-0.571758
-0.54843
-0.518339
-0.481709
-0.438815
-0.389992
-0.335615
-0.276217
-0.212217
-0.145222
-0.0760076
-0.0138891
0.11193
0.135364
0.160515
0.186214
0.209925
0.232025
0.251602
0.26733
0.279075
0.287375
0.292642
0.295385
0.296149
0.295301
0.293117
0.289725
0.285161
0.27941
0.272392
0.263982
0.254048
0.242454
0.229075
0.213938
0.197446
0.180205
0.162721
0.145472
0.128983
0.113802
0.100475
0.0895158
0.0813991
0.0765361
0.0753237
0.0781499
0.0850636
0.0959645
0.107853
0.0803668
0.0547678
0.0251963
-0.00673857
-0.0385499
-0.072367
-0.106885
-0.141121
-0.175458
-0.209372
-0.242702
-0.275607
-0.30793
-0.339662
-0.370746
-0.401008
-0.430201
-0.458011
-0.483987
-0.507614
-0.528296
-0.545481
-0.558415
-0.566594
-0.569747
-0.567537
-0.559471
-0.545138
-0.524323
-0.496999
-0.463282
-0.423381
-0.377578
-0.326233
-0.269858
-0.208966
-0.145101
-0.0793878
-0.0200984
0.104041
0.126379
0.150389
0.174958
0.197657
0.218849
0.237672
0.252841
0.264218
0.272327
0.277558
0.280399
0.281379
0.280857
0.279103
0.276251
0.272345
0.267375
0.261268
0.253907
0.245159
0.234878
0.222919
0.209269
0.194274
0.178473
0.162321
0.146249
0.130743
0.116323
0.103517
0.092833
0.084748
0.0796803
0.0780145
0.080116
0.085998
0.0954229
0.105642
0.0740826
0.0497078
0.0215706
-0.00877683
-0.0389439
-0.0709742
-0.103612
-0.135915
-0.168257
-0.200136
-0.231407
-0.262226
-0.292454
-0.322092
-0.351109
-0.379344
-0.406601
-0.432594
-0.456929
-0.479142
-0.498688
-0.515056
-0.527583
-0.53577
-0.539379
-0.538116
-0.531493
-0.519064
-0.500536
-0.475785
-0.444846
-0.407843
-0.365016
-0.316685
-0.263358
-0.205595
-0.144889
-0.0826228
-0.026148
0.0966495
0.117953
0.140882
0.16438
0.186115
0.206442
0.22454
0.239167
0.250184
0.258096
0.263274
0.266187
0.267347
0.267104
0.265722
0.263342
0.260015
0.255732
0.250432
0.244007
0.236326
0.227239
0.216588
0.204329
0.190749
0.176332
0.16148
0.146579
0.132073
0.118449
0.10621
0.095855
0.087854
0.0826278
0.0805473
0.0819555
0.0868389
0.0948591
0.103515
0.0682127
0.0449969
0.0182139
-0.010633
-0.0392533
-0.0696023
-0.100474
-0.130969
-0.161444
-0.191422
-0.220772
-0.249648
-0.27792
-0.305608
-0.332687
-0.359024
-0.384449
-0.408713
-0.43147
-0.452303
-0.470715
-0.486226
-0.498268
-0.506345
-0.510256
-0.50975
-0.504352
-0.4936
-0.47714
-0.454775
-0.426463
-0.392258
-0.352342
-0.307001
-0.256721
-0.202101
-0.144567
-0.0856797
-0.0319977
0.0897314
0.110056
0.13196
0.154438
0.175255
0.194757
0.212159
0.226262
0.236925
0.244637
0.249751
0.252714
0.254025
0.254022
0.252964
0.250995
0.248174
0.244497
0.239911
0.234319
0.227594
0.219589
0.210136
0.199167
0.18692
0.173822
0.160228
0.14648
0.132978
0.120174
0.108543
0.0985629
0.090696
0.0853585
0.0829044
0.0836575
0.0875831
0.0942773
0.101476
0.0627375
0.0406196
0.0151188
-0.012309
-0.0394707
-0.0682373
-0.0974472
-0.126245
-0.15497
-0.183173
-0.210725
-0.237788
-0.264238
-0.290101
-0.315369
-0.339925
-0.363629
-0.386254
-0.407497
-0.426992
-0.444281
-0.458919
-0.470413
-0.478293
-0.482378
-0.482461
-0.478098
-0.468807
-0.454207
-0.434047
-0.408207
-0.376682
-0.339597
-0.297208
-0.249958
-0.198475
-0.144108
-0.0885335
-0.0376085
0.0832623
0.102657
0.123588
0.145096
0.165037
0.183749
0.200483
0.214079
0.224397
0.231908
0.23695
0.239946
0.241381
0.241586
0.240808
0.239197
0.236821
0.233678
0.229724
0.224872
0.219004
0.211974
0.203613
0.193834
0.182832
0.170982
0.158597
0.145973
0.13347
0.1215
0.110505
0.100943
0.0932554
0.0878526
0.0850698
0.0852103
0.0882282
0.0936789
0.0995284
0.0576372
0.0365599
0.0122763
-0.0138088
-0.0395926
-0.0668646
-0.0945104
-0.121711
-0.148796
-0.175333
-0.201208
-0.226575
-0.251323
-0.275483
-0.299056
-0.321947
-0.344027
-0.365102
-0.384911
-0.403113
-0.419302
-0.433062
-0.443967
-0.451575
-0.455728
-0.45626
-0.452755
-0.444739
-0.431808
-0.413664
-0.390137
-0.361168
-0.326828
-0.287328
-0.243082
-0.194711
-0.143496
-0.0911541
-0.0429438
0.0772185
0.0957302
0.115736
0.136319
0.155423
0.17338
0.189473
0.202579
0.212561
0.219871
0.224832
0.227848
0.229385
0.229769
0.229239
0.22794
0.225951
0.223281
0.219885
0.215689
0.210584
0.204431
0.197061
0.188375
0.178531
0.167855
0.15662
0.145083
0.133563
0.12243
0.112094
0.102981
0.0955164
0.0900928
0.0870279
0.0866044
0.0887698
0.0930649
0.0976735
0.0528923
0.0328037
0.00967456
-0.0151363
-0.0396171
-0.0654782
-0.0916484
-0.117347
-0.14289
-0.167867
-0.19217
-0.21595
-0.239108
-0.261677
-0.283667
-0.304996
-0.325556
-0.345169
-0.363608
-0.380572
-0.395692
-0.408583
-0.418873
-0.426155
-0.43029
-0.431148
-0.428353
-0.42144
-0.409993
-0.393693
-0.372322
-0.345776
-0.314076
-0.277395
-0.236103
-0.190808
-0.142709
-0.0935204
-0.0479725
0.0715761
0.0892487
0.108372
0.128073
0.146379
0.163612
0.179088
0.191723
0.201378
0.20849
0.213364
0.216387
0.21801
0.218548
0.218232
0.21721
0.215561
0.213303
0.210402
0.206787
0.202361
0.196994
0.190521
0.182833
0.174058
0.16448
0.154332
0.143837
0.133274
0.122973
0.113307
0.104672
0.0974662
0.0920651
0.0887654
0.0878298
0.0892049
0.0924343
0.0959103
0.0484845
0.0293352
0.00730343
-0.0162985
-0.0395459
-0.0640718
-0.0888491
-0.113134
-0.137226
-0.160738
-0.183569
-0.205864
-0.227534
-0.248615
-0.269124
-0.288991
-0.308122
-0.326366
-0.343507
-0.35929
-0.373378
-0.385414
-0.395077
-0.401987
-0.406039
-0.407124
-0.404906
-0.39894
-0.388812
-0.374186
-0.354815
-0.330557
-0.301387
-0.267436
-0.229035
-0.186764
-0.141732
-0.0956095
-0.0526663
0.0663135
0.0831877
0.10147
0.120328
0.13787
0.15441
0.169294
0.181474
0.190811
0.197728
0.202512
0.205533
0.207226
0.207895
0.207768
0.206989
0.205637
0.203743
0.201278
0.198177
0.194355
0.18969
0.184025
0.177246
0.169453
0.160893
0.151767
0.142263
0.132623
0.123139
0.114148
0.10601
0.0990954
0.0937564
0.0902706
0.0888781
0.0895291
0.0917859
0.0942356
0.0443944
0.0261389
0.00515115
-0.0173021
-0.0393802
-0.0626416
-0.0861021
-0.109051
-0.13178
-0.153914
-0.175364
-0.196269
-0.216547
-0.236239
-0.255363
-0.273861
-0.291653
-0.308604
-0.324526
-0.339183
-0.352283
-0.363487
-0.37252
-0.379037
-0.382947
-0.384177
-0.382426
-0.377271
-0.368308
-0.355199
-0.337674
-0.315561
-0.2888
-0.257482
-0.221895
-0.182577
-0.140551
-0.0974026
-0.0569984
0.0614094
0.0775229
0.0950026
0.113055
0.129866
0.145742
0.160057
0.171798
0.180828
0.187551
0.192243
0.195254
0.197004
0.197788
0.197824
0.197258
0.19617
0.194593
0.192513
0.189867
0.186579
0.18254
0.177601
0.171645
0.164751
0.157131
0.148959
0.140391
0.131634
0.122946
0.114624
0.106995
0.100398
0.0951579
0.0915339
0.0897415
0.0897385
0.0911157
0.0926437
0.0406042
0.0232002
0.00320652
-0.0181546
-0.0391226
-0.0611867
-0.0834013
-0.105091
-0.126532
-0.147371
-0.167524
-0.187125
-0.206101
-0.224493
-0.242323
-0.259542
-0.276079
-0.291821
-0.30659
-0.320184
-0.332335
-0.342738
-0.351144
-0.357252
-0.360985
-0.362295
-0.360914
-0.35645
-0.348515
-0.336772
-0.320944
-0.300837
-0.276358
-0.247564
-0.214698
-0.178251
-0.139151
-0.098883
-0.0609497
0.0568431
0.072231
0.0889446
0.106226
0.122337
0.137577
0.151344
0.162663
0.171394
0.177928
0.182526
0.185521
0.187316
0.188198
0.188378
0.188
0.187143
0.185846
0.184102
0.181858
0.179045
0.175563
0.171272
0.16606
0.159984
0.153229
0.14594
0.138249
0.130331
0.12241
0.114745
0.107631
0.101371
0.0962638
0.0925473
0.0904135
0.089829
0.0904203
0.0911281
0.0370971
0.0205042
0.00145767
-0.018864
-0.0387783
-0.0597069
-0.0807422
-0.101241
-0.121469
-0.141089
-0.160023
-0.178403
-0.196159
-0.213333
-0.229953
-0.245975
-0.26134
-0.275945
-0.289635
-0.302221
-0.31347
-0.323107
-0.330904
-0.336591
-0.340117
-0.341454
-0.340366
-0.336488
-0.329457
-0.318945
-0.30467
-0.286426
-0.264099
-0.237712
-0.207462
-0.17379
-0.137528
-0.100041
-0.0645036
0.052595
0.0672902
0.0832717
0.0998159
0.115256
0.129885
0.143126
0.154037
0.162479
0.168828
0.173332
0.176304
0.178136
0.179103
0.179408
0.179194
0.178542
0.17749
0.17604
0.174153
0.171759
0.16877
0.165059
0.160515
0.155182
0.149216
0.142741
0.135866
0.12874
0.12155
0.114526
0.107924
0.102016
0.0970713
0.093306
0.0908894
0.0897965
0.0896941
0.0896799
0.0338555
0.018037
-0.000106645
-0.0194388
-0.0383518
-0.0582019
-0.0781195
-0.0974931
-0.116577
-0.135047
-0.152837
-0.170069
-0.186682
-0.202719
-0.218207
-0.233111
-0.247378
-0.260919
-0.273595
-0.285235
-0.29563
-0.304534
-0.311737
-0.31701
-0.320311
-0.321631
-0.32077
-0.317389
-0.311154
-0.301742
-0.288887
-0.27237
-0.252061
-0.227954
-0.200206
-0.169201
-0.135677
-0.100866
-0.0676484
0.0486466
0.0626807
0.0779615
0.0937999
0.108598
0.122641
0.135375
0.145892
0.154055
0.160223
0.164632
0.167577
0.169437
0.170476
0.170891
0.170821
0.170349
0.169513
0.168323
0.166747
0.164722
0.16217
0.158975
0.155032
0.150368
0.145121
0.139393
0.133273
0.126886
0.12039
0.113981
0.107885
0.102338
0.0975809
0.0938076
0.0911654
0.0896376
0.0889313
0.0882894
0.0308646
0.0157847
-0.00149804
-0.0198874
-0.0378481
-0.0566751
-0.0755331
-0.0938419
-0.111844
-0.129233
-0.145944
-0.1621
-0.177641
-0.192613
-0.207043
-0.220902
-0.234143
-0.246689
-0.258415
-0.269168
-0.278758
-0.286965
-0.293599
-0.298465
-0.301529
-0.302804
-0.302112
-0.299154
-0.293612
-0.28519
-0.273626
-0.258702
-0.240276
-0.218319
-0.192948
-0.164493
-0.133597
-0.101355
-0.070377
0.04498
0.0583823
0.0729929
0.0881549
0.102337
0.115816
0.128064
0.138202
0.146094
0.152085
0.156397
0.159313
0.161193
0.162294
0.162805
0.162862
0.162547
0.161902
0.160938
0.159634
0.157936
0.155771
0.153034
0.149626
0.145566
0.140968
0.135921
0.130496
0.124795
0.118951
0.113131
0.107527
0.102346
0.0977966
0.0940522
0.0912396
0.0893487
0.0881259
0.0869454
0.0281082
0.013734
-0.00272717
-0.0202178
-0.037273
-0.0551272
-0.0729811
-0.0902819
-0.107261
-0.12363
-0.139328
-0.154473
-0.16901
-0.182984
-0.196425
-0.209307
-0.221591
-0.233207
-0.244044
-0.253965
-0.262799
-0.270347
-0.276439
-0.280908
-0.283733
-0.284939
-0.284377
-0.281774
-0.276841
-0.269303
-0.25891
-0.245449
-0.228773
-0.208832
-0.185709
-0.159678
-0.131292
-0.101508
-0.0726859
0.0415779
0.0543765
0.0683447
0.0828588
0.0964502
0.109388
0.121167
0.130939
0.138569
0.144388
0.148604
0.151486
0.153381
0.154534
0.155128
0.155295
0.155119
0.154641
0.153876
0.152809
0.1514
0.149575
0.147243
0.144312
0.140793
0.136782
0.132352
0.127562
0.122494
0.117259
0.111995
0.106866
0.10205
0.097725
0.0940431
0.0911124
0.0889269
0.0872711
0.0856365
0.0255723
0.0118716
-0.00380492
-0.0204385
-0.0366324
-0.0535616
-0.0704625
-0.0868087
-0.102823
-0.11823
-0.132974
-0.147169
-0.160764
-0.173804
-0.186321
-0.19829
-0.20968
-0.220429
-0.230436
-0.239579
-0.247703
-0.25463
-0.26021
-0.264298
-0.266884
-0.268007
-0.267539
-0.265237
-0.260838
-0.254089
-0.244756
-0.232637
-0.217579
-0.199519
-0.178509
-0.15477
-0.128767
-0.101327
-0.0745777
0.0384245
0.0506452
0.0639987
0.0778911
0.0909157
0.103334
0.11466
0.12408
0.131457
0.137106
0.141228
0.144073
0.145976
0.147173
0.147838
0.148102
0.148047
0.147715
0.147124
0.146267
0.145107
0.143583
0.141609
0.139102
0.136065
0.132581
0.128709
0.124496
0.120009
0.115337
0.110596
0.105922
0.101464
0.0973757
0.0937857
0.090785
0.0883708
0.0863603
0.0843511
0.0232426
0.0101856
-0.00474176
-0.0205579
-0.0359317
-0.0519818
-0.0679779
-0.0834202
-0.0985212
-0.11302
-0.126866
-0.140168
-0.15288
-0.165047
-0.176699
-0.187817
-0.198373
-0.208313