/*--------------------------------*- C++ -*----------------------------------*\
| =========                 |                                                 |
| \\      /  F ield         | OpenFOAM: The Open Source CFD Toolbox           |
|  \\    /   O peration     | Version:  2506                                  |
|   \\  /    A nd           | Website:  www.openfoam.com                      |
|    \\/     M anipulation  |                                                 |
\*---------------------------------------------------------------------------*/
FoamFile
{
    version     2.0;
    format      ascii;
    arch        "LSB;label=32;scalar=64";
    class       volVectorField;
    location    "200";
    object      U;
}
// * * * * * * * * * * * * * * * * * * * * * * * * * * * * * * * * * * * * * //

dimensions      [0 1 -1 0 0 0 0];

internalField   nonuniform List<vector> 
10720
(
(0.252829 27.4759 6.4399e-18)
(1.97943 29.7721 -5.48553e-17)
(4.14087 31.992 2.08932e-16)
(6.62738 33.7293 -4.0504e-16)
(9.3731 35.0659 3.1078e-16)
(12.3101 35.9592 1.98686e-16)
(15.2839 36.3109 -3.59057e-16)
(18.1989 36.1551 1.23473e-15)
(20.9702 35.5559 -8.34639e-16)
(23.5151 34.5486 -5.7805e-16)
(25.7965 33.2256 2.98999e-16)
(27.7708 31.6429 1.67174e-15)
(29.389 29.7944 6.49942e-16)
(30.6347 27.7192 5.9555e-16)
(31.4658 25.4329 1.42506e-15)
(31.8558 22.9667 1.2357e-15)
(31.7368 20.3221 -2.51837e-15)
(31.0352 17.5355 -8.93029e-15)
(29.6225 14.6195 6.64093e-15)
(27.3789 11.6384 -3.10631e-16)
(24.1658 8.65526 -1.29215e-15)
(20.0358 5.82507 -2.37131e-15)
(15.4634 3.38188 8.00769e-15)
(12.0294 1.57638 -2.05832e-15)
(10.638 0.363925 1.40442e-15)
(11.2249 -0.302313 -3.03065e-15)
(12.6042 -0.583985 1.83599e-16)
(14.083 -0.730703 -1.33977e-15)
(15.3069 -0.895662 -5.33848e-15)
(16.1144 -1.1167 -7.53609e-15)
(16.5276 -1.37908 7.59448e-15)
(16.6323 -1.65335 2.65277e-15)
(16.4002 -1.9012 1.09421e-15)
(15.87 -2.0992 3.67666e-14)
(15.0262 -2.22252 -5.53058e-15)
(13.8682 -2.25579 -4.99201e-16)
(12.0314 -2.1199 8.60224e-16)
(10.0014 -1.8665 2.20365e-15)
(3.96781 -1.15912 1.59223e-14)
(-1.10686 25.0269 8.24203e-18)
(-2.20182 22.2693 1.16329e-17)
(-2.95585 19.1671 -9.24572e-17)
(-3.24694 15.5786 8.88907e-17)
(-2.91546 11.8722 -2.93384e-16)
(-1.93336 8.18663 7.209e-16)
(-0.394433 4.83818 1.93664e-15)
(1.45059 2.09523 5.50117e-15)
(3.41539 -0.234991 -1.59807e-15)
(5.65163 -2.24616 4.99353e-16)
(7.94281 -3.73277 1.71655e-15)
(10.0525 -4.68651 2.59045e-15)
(11.9181 -5.23589 8.08198e-16)
(13.5502 -5.50384 -1.3745e-15)
(14.9732 -5.5868 -1.23215e-15)
(16.2185 -5.54775 6.60766e-16)
(17.3171 -5.4341 2.48039e-16)
(18.3013 -5.27453 8.29471e-16)
(19.2024 -5.08837 -6.81056e-16)
(20.0421 -4.87824 -1.34374e-16)
(20.8384 -4.64556 -5.90891e-16)
(21.6022 -4.38077 2.91889e-16)
(22.3348 -4.06982 7.97927e-16)
(23.0052 -3.68764 -2.67266e-16)
(23.5455 -3.23427 -2.96686e-16)
(23.9384 -2.75346 -2.86418e-16)
(24.2146 -2.28461 -8.308e-18)
(24.4103 -1.78331 8.62732e-18)
(24.5409 -1.18359 1.67255e-19)
(24.6063 -0.51367 -4.04625e-18)
(24.5856 0.160518 8.08725e-17)
(24.4646 0.791207 5.89439e-17)
(24.2445 1.35591 1.34515e-16)
(23.9338 1.84828 4.02699e-16)
(23.5325 2.27062 1.02341e-17)
(23.037 2.63085 2.25643e-16)
(22.3444 2.93037 8.22352e-16)
(21.3901 3.13731 2.18536e-15)
(18.773 3.31501 2.34855e-15)
(7.13539 23.8464 -3.54615e-18)
(9.01462 25.5739 -2.00288e-17)
(11.306 27.1403 1.40731e-17)
(13.9491 28.4408 6.34588e-17)
(16.799 29.4154 -3.26076e-16)
(19.8602 30.0039 -1.74822e-16)
(23.0206 30.1596 -5.77722e-16)
(26.148 29.9033 1.13775e-16)
(29.1886 29.2445 -4.84058e-16)
(32.0591 28.2342 -8.43261e-17)
(34.7044 26.9263 1.21265e-15)
(37.1145 25.4118 -1.61788e-15)
(39.2991 23.7858 -9.2589e-16)
(41.2698 22.0824 -1.66705e-17)
(43.0176 20.331 5.61429e-16)
(44.5009 18.5701 -1.17243e-15)
(45.7014 16.8235 -6.08825e-16)
(46.5838 15.1198 3.57714e-15)
(47.091 13.4666 -5.889e-16)
(47.1171 11.8707 -1.21075e-15)
(46.4825 10.2882 -1.70274e-15)
(44.9699 8.63191 1.47674e-15)
(42.446 6.76892 -2.18035e-15)
(39.0781 4.74528 -2.03051e-16)
(35.6711 2.87713 1.16476e-15)
(32.5928 1.36826 1.11701e-15)
(29.8227 0.260417 8.38775e-17)
(27.418 -0.54169 5.64811e-16)
(25.4888 -1.15595 1.33122e-15)
(24.0432 -1.64086 1.0672e-15)
(22.9393 -2.02102 -1.04163e-15)
(21.9705 -2.31485 -1.23099e-16)
(21.0231 -2.54377 1.4461e-14)
(20.0001 -2.71532 -1.09715e-14)
(18.8104 -2.81672 1.74126e-15)
(17.4168 -2.83109 -5.02386e-15)
(15.4613 -2.69181 1.59341e-15)
(13.3689 -2.42591 -6.85167e-16)
(7.37541 -1.54133 4.4178e-15)
(5.55161 22.0075 3.16728e-17)
(4.17786 19.9642 -9.83919e-17)
(2.97714 17.5729 -4.88359e-16)
(2.06987 14.8567 4.56149e-16)
(1.63614 11.9047 6.16089e-16)
(1.76487 8.85756 -2.5398e-17)
(2.47483 5.9297 -2.77089e-15)
(3.66552 3.34105 -4.61256e-15)
(5.1631 1.05283 3.02864e-15)
(6.93194 -0.831582 -1.60522e-15)
(8.82551 -2.18277 2.18877e-16)
(10.6723 -3.06002 -5.03491e-16)
(12.3932 -3.58939 2.80531e-17)
(13.964 -3.86923 1.47789e-16)
(15.3789 -3.9807 4.95834e-16)
(16.6496 -3.9761 -9.01974e-16)
(17.7931 -3.89961 9.68979e-16)
(18.8332 -3.77604 -2.26964e-16)
(19.794 -3.62311 -4.19697e-16)
(20.6985 -3.43788 -2.92127e-16)
(21.5622 -3.21792 -6.60047e-16)
(22.3972 -2.94574 -7.21047e-16)
(23.2054 -2.59987 -7.80361e-16)
(23.9642 -2.1398 3.10154e-16)
(24.6214 -1.57296 -2.07264e-17)
(25.151 -0.96322 1.30749e-16)
(25.5636 -0.334882 9.56756e-17)
(25.8534 0.276181 5.77179e-18)
(26.0127 0.823979 -8.089e-20)
(26.0438 1.29144 1.14811e-18)
(25.9763 1.68686 -4.82416e-17)
(25.8367 2.03321 -2.12983e-17)
(25.6351 2.35007 -1.9136e-16)
(25.3726 2.64589 -1.46579e-16)
(25.0398 2.92407 -2.23422e-17)
(24.6379 3.1875 -1.06459e-16)
(24.0672 3.43322 -6.32605e-16)
(23.5029 3.65227 -2.27497e-15)
(21.5149 3.719 -2.42899e-15)
(8.30816 21.9682 2.21936e-18)
(9.64211 23.494 8.46349e-18)
(11.2663 24.9811 5.04807e-18)
(13.134 26.3569 -5.24704e-17)
(15.1935 27.503 1.41397e-16)
(17.4438 28.3963 2.12726e-16)
(19.8109 28.9975 5.79755e-16)
(22.2206 29.269 2.44633e-17)
(24.6158 29.2107 6.06634e-16)
(26.9389 28.8343 -1.18892e-15)
(29.1366 28.1598 -1.2923e-16)
(31.1749 27.2126 -3.33195e-16)
(33.0262 26.0223 1.50605e-15)
(34.6741 24.6205 -3.32416e-16)
(36.1138 23.0422 -4.37793e-16)
(37.4029 21.2985 -6.303e-16)
(38.5723 19.4178 1.95011e-15)
(39.6407 17.4548 -1.55568e-15)
(40.6658 15.4572 -9.2621e-16)
(41.6899 13.497 2.38019e-15)
(42.7743 11.6159 -1.88283e-15)
(43.8504 9.81091 -3.59544e-16)
(44.659 7.95595 -4.52287e-16)
(44.7739 5.96736 6.3946e-16)
(44.0802 3.99622 -3.68762e-16)
(42.8091 2.27269 5.93561e-16)
(41.1833 0.901262 -1.14158e-16)
(39.2587 -0.181947 -8.55276e-17)
(36.9861 -1.07358 1.52523e-15)
(34.383 -1.80651 2.1692e-16)
(31.6313 -2.37811 -3.02476e-15)
(29.0099 -2.79342 3.16563e-15)
(26.6982 -3.07275 -7.74632e-16)
(24.6597 -3.2385 1.54434e-16)
(22.715 -3.30328 -3.44604e-15)
(20.7294 -3.26555 1.08327e-14)
(18.3369 -3.08175 -2.43184e-15)
(15.8471 -2.71579 -3.91653e-16)
(10.1039 -1.95274 -6.46426e-15)
(7.22118 20.3614 3.83911e-18)
(6.26897 18.6081 -8.6146e-17)
(5.47961 16.5455 2.97254e-16)
(4.84788 14.2386 2.3306e-16)
(4.52849 11.7623 -6.63666e-16)
(4.56722 9.18696 -6.2865e-16)
(4.99128 6.65135 1.26626e-15)
(5.76736 4.30937 1.86901e-15)
(6.85972 2.21314 1.59631e-15)
(8.21891 0.434924 -1.3805e-15)
(9.7173 -0.967578 -1.01539e-15)
(11.2361 -2.01674 2.61413e-16)
(12.7052 -2.77296 9.8392e-16)
(14.0894 -3.29378 1.39137e-15)
(15.3715 -3.62996 -2.73898e-16)
(16.5499 -3.8248 -3.23226e-17)
(17.6311 -3.91614 9.40159e-16)
(18.6288 -3.92999 1.78804e-17)
(19.5602 -3.88445 7.11784e-16)
(20.4423 -3.78467 6.35731e-16)
(21.2879 -3.63267 1.47836e-15)
(22.1058 -3.42014 1.53883e-15)
(22.8961 -3.13358 6.78215e-16)
(23.6394 -2.7525 1.32862e-16)
(24.2925 -2.292 -1.22546e-16)
(24.8311 -1.80136 3.51198e-16)
(25.2654 -1.30275 -6.7484e-17)
(25.6091 -0.80102 -3.66546e-17)
(25.8675 -0.292525 2.50094e-18)
(26.041 0.224522 1.60988e-18)
(26.1317 0.749927 1.83232e-17)
(26.1409 1.27307 4.42528e-17)
(26.0685 1.77574 6.19236e-17)
(25.9141 2.24232 2.36174e-17)
(25.6683 2.6654 -1.80005e-16)
(25.3312 3.04337 1.01901e-16)
(24.8032 3.37791 -9.19867e-16)
(24.2003 3.63008 4.3457e-15)
(22.3915 3.72967 1.07313e-14)
(10.899 20.1077 1.24444e-17)
(12.1478 21.403 -1.46366e-17)
(13.6463 22.6655 1.64497e-17)
(15.3716 23.8207 -2.07827e-17)
(17.2776 24.7786 -6.76276e-17)
(19.3709 25.5204 -1.76968e-16)
(21.5957 26.0019 -2.84986e-16)
(23.8918 26.188 1.02913e-16)
(26.2128 26.0708 6.87342e-16)
(28.5038 25.6517 -4.52622e-16)
(30.7138 24.9437 -7.6305e-16)
(32.8035 23.9693 -1.15797e-15)
(34.7372 22.7624 1.31463e-15)
(36.4882 21.3598 2.22001e-15)
(38.0451 19.7948 -1.98278e-15)
(39.3718 18.117 -8.58018e-16)
(40.421 16.3854 1.08666e-16)
(41.1879 14.6366 1.74553e-15)
(41.6806 12.907 1.00896e-16)
(41.9438 11.2306 -2.52898e-15)
(42.0682 9.63399 3.36968e-15)
(42.1975 8.11468 -1.57698e-15)
(42.4375 6.59718 3.39086e-16)
(42.6645 4.99796 1.34664e-15)
(42.593 3.37863 -8.03027e-16)
(42.1341 1.91791 6.72063e-16)
(41.4427 0.716481 7.45003e-17)
(40.668 -0.271184 -3.80398e-16)
(39.8001 -1.13266 -3.03911e-16)
(38.6928 -1.90067 -4.34365e-16)
(37.1622 -2.56148 4.8719e-16)
(35.0873 -3.08822 -5.02383e-15)
(32.5273 -3.461 -5.19563e-15)
(29.7439 -3.67809 1.4628e-15)
(26.9807 -3.75069 5.78303e-15)
(24.303 -3.68185 -2.5525e-15)
(21.3873 -3.45265 3.39336e-15)
(18.4036 -2.97517 6.94119e-16)
(12.6901 -2.26959 3.18437e-15)
(9.8514 18.7529 -5.31483e-17)
(8.91256 17.2849 -2.11283e-17)
(8.09501 15.5536 3.63799e-16)
(7.413 13.599 -1.60749e-16)
(6.99703 11.4907 9.50618e-16)
(6.88168 9.27789 8.04908e-16)
(7.09274 7.06466 -9.90213e-16)
(7.60356 4.97055 1.15251e-17)
(8.39268 3.05473 3.41093e-16)
(9.42583 1.38253 2.36597e-15)
(10.6121 0.00523821 1.74171e-16)
(11.8675 -1.07215 6.73411e-16)
(13.1328 -1.88132 -1.83986e-15)
(14.3674 -2.46289 -1.13843e-15)
(15.5461 -2.85626 3.42195e-16)
(16.6569 -3.10056 1.97058e-16)
(17.6971 -3.22985 -9.45184e-16)
(18.6712 -3.27108 9.36025e-17)
(19.5889 -3.24385 -2.28271e-16)
(20.4618 -3.15749 5.93003e-16)
(21.2992 -3.01515 -6.24052e-16)
(22.1073 -2.81124 -9.06842e-16)
(22.8852 -2.53443 1.13371e-16)
(23.6165 -2.1671 2.21874e-16)
(24.2652 -1.71491 4.29182e-16)
(24.8073 -1.21545 -3.12559e-16)
(25.2479 -0.691786 -3.94458e-17)
(25.598 -0.154958 1.32396e-17)
(25.8625 0.384499 -3.87207e-18)
(26.0442 0.911486 -2.1049e-18)
(26.1483 1.41012 4.45015e-18)
(26.1812 1.86475 -1.07391e-17)
(26.1468 2.27233 -1.31068e-17)
(26.0467 2.63602 1.11986e-17)
(25.8712 2.9625 1.86807e-16)
(25.6162 3.25612 -5.55749e-16)
(25.1825 3.5252 2.53784e-15)
(24.6475 3.70008 -1.98813e-15)
(23.0097 3.76154 -2.10941e-15)
(12.4341 18.7191 -2.35432e-17)
(13.4843 19.8686 7.45677e-18)
(14.7517 21.0116 1.16704e-18)
(16.2019 22.0854 5.83501e-17)
(17.7955 23.0077 1.09799e-16)
(19.5532 23.7738 -2.98467e-16)
(21.4283 24.3441 4.29175e-16)
(23.3741 24.6831 1.90784e-16)
(25.3602 24.7808 5.34163e-16)
(27.3401 24.6303 2.79e-16)
(29.2728 24.2332 -8.38653e-17)
(31.1235 23.6009 9.59049e-16)
(32.8581 22.7525 -2.00961e-15)
(34.4495 21.7092 1.40741e-16)
(35.877 20.4947 2.0858e-15)
(37.1192 19.1335 -1.03427e-15)
(38.1878 17.6213 1.06946e-15)
(39.0776 15.9795 -2.17284e-16)
(39.7812 14.2405 6.95012e-17)
(40.2907 12.4501 2.56359e-15)
(40.6107 10.6482 -1.75623e-15)
(40.7639 8.86753 7.17523e-17)
(40.7892 7.10425 -3.85658e-16)
(40.6817 5.35442 -1.76854e-15)
(40.3577 3.68717 6.45248e-16)
(39.7848 2.21891 -2.16428e-15)
(39.07 1.00338 -8.19845e-17)
(38.3558 -0.00711227 2.70805e-16)
(37.7063 -0.890428 -2.23878e-16)
(37.1049 -1.68164 4.0777e-15)
(36.4956 -2.38416 1.56527e-15)
(35.7609 -2.99494 -7.29602e-16)
(34.6863 -3.49883 -4.16475e-15)
(33.024 -3.86023 6.64978e-15)
(30.6756 -4.04123 -4.92222e-15)
(27.8313 -4.01912 3.6562e-16)
(24.5422 -3.78884 4.87695e-16)
(21.1033 -3.22916 -4.76045e-17)
(15.2973 -2.53668 -3.91879e-15)
(11.5471 17.5233 1.24082e-17)
(10.7498 16.2407 -1.54112e-16)
(10.035 14.7274 6.04197e-17)
(9.411 13.0218 3.79719e-17)
(8.99353 11.1886 -1.35326e-15)
(8.80713 9.25687 -1.16426e-15)
(8.88217 7.30192 3.5758e-15)
(9.20968 5.42201 -2.79748e-15)
(9.78014 3.6806 -1.10675e-17)
(10.5682 2.12966 3.53552e-17)
(11.5093 0.809017 -3.48109e-16)
(12.5409 -0.26876 -5.1051e-16)
(13.6154 -1.12122 -1.02963e-15)
(14.6953 -1.77526 1.26063e-15)
(15.7531 -2.25668 5.37303e-16)
(16.7728 -2.59519 -1.12755e-16)
(17.7465 -2.81709 2.85582e-16)
(18.6723 -2.94453 -5.21728e-16)
(19.5544 -2.99412 3.5196e-16)
(20.3996 -2.97557 -3.40074e-16)
(21.2142 -2.89223 3.82739e-16)
(22.0018 -2.74081 3.51267e-16)
(22.7605 -2.51312 -6.18511e-17)
(23.4755 -2.1983 -5.21966e-16)
(24.1162 -1.80243 -1.29188e-16)
(24.6595 -1.35743 -4.4627e-17)
(25.1059 -0.88857 1.07059e-16)
(25.4642 -0.408604 1.15065e-18)
(25.7384 0.0731081 -2.97487e-18)
(25.9305 0.546439 1.78543e-17)
(26.0442 1.00325 7.39904e-18)
(26.0849 1.4437 1.55993e-18)
(26.0565 1.86777 1.86494e-17)
(25.9625 2.27189 9.24562e-18)
(25.7971 2.65293 3.18448e-17)
(25.5625 3.00664 -1.72505e-16)
(25.1719 3.33305 -8.56584e-16)
(24.7112 3.55255 2.85e-15)
(23.3282 3.66288 -3.1264e-15)
(13.9237 17.4948 1.63443e-17)
(14.8778 18.5121 -2.90964e-17)
(16.0247 19.5294 5.45942e-18)
(17.3325 20.4879 4.76567e-18)
(18.7629 21.3147 -6.97371e-17)
(20.3456 22.0102 -8.662e-17)
(22.0406 22.536 -2.70353e-17)
(23.8101 22.8603 -4.33026e-16)
(25.6334 22.9695 -3.86767e-17)
(27.4726 22.8525 2.01629e-16)
(29.2925 22.5048 -3.44253e-16)
(31.0632 21.9296 4.2282e-16)
(32.7515 21.1371 1.44451e-15)
(34.3293 20.1418 7.52682e-16)
(35.7721 18.9622 -2.9867e-15)
(37.0601 17.6195 1.99887e-15)
(38.1673 16.152 6.39452e-16)
(39.0654 14.6108 -1.34182e-15)
(39.7434 13.0357 5.86845e-16)
(40.2074 11.4563 1.44836e-16)
(40.4738 9.89384 -5.46668e-16)
(40.5666 8.34867 2.87435e-15)
(40.4962 6.79363 1.30914e-16)
(40.2381 5.21055 2.35812e-15)
(39.7489 3.6584 -5.06216e-16)
(39.0312 2.25236 2.25104e-16)
(38.1727 1.0644 7.25558e-17)
(37.2849 0.0732095 -2.37992e-17)
(36.4252 -0.784267 -1.27705e-15)
(35.6032 -1.54421 -1.03724e-15)
(34.826 -2.21494 1.15215e-16)
(34.1187 -2.80075 3.70691e-15)
(33.4757 -3.30605 4.67127e-15)
(32.7929 -3.72647 2.38132e-15)
(31.7771 -4.03201 -2.62963e-15)
(30.0485 -4.14947 -3.50616e-15)
(27.2696 -4.01306 -4.37895e-15)
(23.7961 -3.44578 -3.8682e-17)
(17.949 -2.78059 1.07532e-15)
(13.1095 16.4402 -3.77562e-17)
(12.3741 15.3159 -2.66768e-17)
(11.7011 13.9856 9.00633e-17)
(11.1001 12.4827 -2.33632e-16)
(10.6731 10.8685 -5.59404e-16)
(10.4364 9.16183 1.11072e-15)
(10.4168 7.41804 -9.87635e-16)
(10.6152 5.72299 -8.62031e-16)
(11.0261 4.13971 -9.51328e-16)
(11.628 2.70688 -9.51885e-16)
(12.3754 1.45686 1.46285e-15)
(13.2213 0.406452 -7.10308e-16)
(14.1294 -0.452898 7.91628e-16)
(15.0679 -1.13776 1.51705e-16)
(16.0109 -1.66395 -2.38342e-16)
(16.9413 -2.05279 -6.64595e-16)
(17.8481 -2.32423 -5.25331e-16)
(18.7252 -2.49649 2.88811e-16)
(19.5718 -2.58422 -1.28416e-16)
(20.3904 -2.59725 -3.91349e-16)
(21.1837 -2.54007 -3.45693e-16)
(21.9529 -2.41175 -2.45553e-16)
(22.6946 -2.20657 3.07132e-16)
(23.3952 -1.91698 -1.0152e-16)
(24.0282 -1.5474 -2.90592e-16)
(24.5716 -1.12318 3.23045e-16)
(25.0224 -0.667741 2.17304e-17)
(25.3868 -0.193472 2.10374e-18)
(25.668 0.290649 4.08128e-18)
(25.8676 0.774087 -2.4378e-17)
(25.9889 1.24756 -2.93056e-18)
(26.0369 1.7012 6.86624e-18)
(26.0152 2.12512 -9.2156e-18)
(25.9269 2.51332 -1.82458e-17)
(25.7662 2.86423 8.62465e-17)
(25.5335 3.17454 6.53497e-16)
(25.149 3.44994 -2.51834e-15)
(24.6854 3.59571 -3.3003e-15)
(23.4604 3.63031 1.09529e-15)
(15.1236 16.4595 -1.17864e-17)
(15.9804 17.373 -1.88694e-18)
(17.01 18.2941 7.80699e-18)
(18.1787 19.1679 -1.8602e-17)
(19.4484 19.9293 1.09033e-16)
(20.8542 20.5848 -4.31987e-17)
(22.3593 21.101 -7.98604e-17)
(23.932 21.4488 1.83246e-16)
(25.5599 21.6168 2.45873e-16)
(27.2104 21.5934 -2.19171e-16)
(28.8552 21.3712 9.51363e-16)
(30.4702 20.95 -4.99597e-16)
(32.0249 20.3344 -1.35463e-15)
(33.4926 19.5337 -2.39484e-15)
(34.8494 18.562 3.52075e-15)
(36.0712 17.4385 -1.59674e-15)
(37.138 16.184 -2.13995e-15)
(38.0412 14.8083 -1.325e-15)
(38.772 13.3334 -9.82807e-16)
(39.3255 11.7915 -1.41331e-16)
(39.7052 10.2149 -4.84333e-16)
(39.9181 8.6299 -3.32274e-15)
(39.963 7.04106 1.34681e-15)
(39.8069 5.45071 -3.70607e-15)
(39.4043 3.90902 2.97141e-16)
(38.7571 2.5081 3.19077e-16)
(37.941 1.31001 -8.13569e-17)
(37.0527 0.301195 2.69587e-16)
(36.1412 -0.571783 8.39106e-16)
(35.2086 -1.34169 1.56518e-16)
(34.2536 -2.01523 1.0985e-16)
(33.2983 -2.59517 -3.17267e-15)
(32.3824 -3.08641 5.22421e-15)
(31.5593 -3.49338 1.79301e-15)
(30.8297 -3.81342 3.29347e-15)
(30.0579 -4.01688 7.08638e-15)
(28.5706 -4.02677 1.13924e-15)
(25.9852 -3.56 -7.03971e-17)
(20.5191 -2.98523 6.90859e-16)
(14.3867 15.5148 -9.51773e-20)
(13.7179 14.514 1.02038e-16)
(13.0936 13.3276 -1.05706e-16)
(12.5232 11.9861 5.55893e-16)
(12.0986 10.5482 -2.6738e-16)
(11.8323 9.02421 1.18382e-16)
(11.7483 7.45512 1.17296e-15)
(11.854 5.91915 8.64707e-16)
(12.1462 4.47702 3.69701e-16)
(12.6067 3.15636 -9.49274e-16)
(13.2017 1.98384 -4.57701e-16)
(13.8955 0.976594 7.44109e-16)
(14.6605 0.12981 8.03233e-17)
(15.4709 -0.566983 -3.08894e-17)
(16.3041 -1.12319 -5.40049e-16)
(17.144 -1.55385 4.41896e-16)
(17.9786 -1.87337 9.87645e-16)
(18.7993 -2.09541 -5.55239e-16)
(19.6022 -2.23153 -6.30974e-17)
(20.3863 -2.29019 -5.69595e-16)
(21.1514 -2.2754 -2.87834e-16)
(21.8964 -2.18703 3.01757e-16)
(22.6168 -2.02111 -7.19526e-16)
(23.2999 -1.77286 2.48441e-16)
(23.9223 -1.44654 3.31097e-16)
(24.4629 -1.06304 -1.11853e-16)
(24.9163 -0.644341 -9.4959e-17)
(25.2861 -0.203868 -1.84299e-17)
(25.5747 0.248222 -1.31294e-18)
(25.7832 0.700712 1.69185e-18)
(25.9143 1.14283 -3.68495e-17)
(25.9723 1.56665 6.27078e-17)
(25.9607 1.96866 -7.29739e-18)
(25.8819 2.34531 5.90629e-17)
(25.7296 2.69511 7.41037e-17)
(25.5035 3.01353 -5.95773e-16)
(25.1291 3.30171 1.82207e-15)
(24.6674 3.46349 1.90926e-16)
(23.5357 3.50473 5.68896e-15)
(16.1786 15.5479 -8.33799e-20)
(16.9641 16.3719 2.61233e-18)
(17.9064 17.2065 3.13122e-18)
(18.9721 17.9999 -6.78655e-19)
(20.1231 18.6933 -2.39111e-17)
(21.3971 19.2968 -2.11989e-16)
(22.761 19.7796 1.37397e-17)
(24.1872 20.1157 2.31138e-16)
(25.6687 20.2949 -5.6419e-16)
(27.179 20.3046 -3.19419e-16)
(28.6947 20.1358 6.37638e-17)
(30.1967 19.7847 7.6825e-16)
(31.6588 19.2512 2.1883e-15)
(33.0566 18.5387 3.11877e-15)
(34.3669 17.6556 8.8243e-17)
(35.5658 16.6144 -1.8653e-16)
(36.6331 15.4308 2.73045e-15)
(37.5471 14.1329 2.37348e-15)
(38.2897 12.7558 -1.227e-17)
(38.8542 11.3285 -2.3607e-15)
(39.2435 9.87525 8.03633e-16)
(39.4671 8.40997 9.71668e-16)
(39.5289 6.93324 -1.75683e-16)
(39.409 5.44645 1.44143e-15)
(39.07 3.98972 -8.02557e-16)
(38.5054 2.64213 -3.80035e-16)
(37.7715 1.46525 -1.27396e-17)
(36.9496 0.458589 -4.18019e-16)
(36.0847 -0.418074 -1.34321e-16)
(35.1773 -1.19235 -2.57344e-15)
(34.2173 -1.86911 1.12669e-15)
(33.2053 -2.44852 -2.60196e-15)
(32.1509 -2.93229 -5.88188e-15)
(31.0839 -3.32154 3.11061e-16)
(30.0485 -3.61348 -1.91797e-15)
(29.1761 -3.79664 -7.62108e-15)
(28.3127 -3.85245 1.80562e-15)
(27.0668 -3.51642 2.45559e-16)
(22.6704 -3.10771 1.93392e-15)
(15.4983 14.6972 -1.65068e-17)
(14.879 13.7996 -5.86039e-17)
(14.2922 12.7335 1.0695e-16)
(13.7473 11.526 -4.35666e-16)
(13.3277 10.2342 -3.28564e-18)
(13.0424 8.86128 -1.87517e-16)
(12.914 7.43907 -1.96831e-15)
(12.9522 6.041 7.95112e-16)
(13.1548 4.72355 -1.14593e-16)
(13.5068 3.5061 1.03099e-15)
(13.9816 2.41138 -5.70405e-16)
(14.5511 1.45549 5.32442e-16)
(15.1946 0.634989 -7.73914e-16)
(15.8916 -0.057081 -5.93359e-16)
(16.6233 -0.625749 3.08018e-16)
(17.3761 -1.08133 3.33195e-16)
(18.1383 -1.43329 3.34355e-16)
(18.9003 -1.69101 1.96479e-16)
(19.6563 -1.86295 -2.30569e-16)
(20.4028 -1.95589 9.21533e-16)
(21.1372 -1.97319 -2.68911e-16)
(21.8565 -1.91521 4.31498e-16)
(22.5549 -1.77918 4.48693e-16)
(23.2201 -1.56232 -1.56363e-18)
(23.831 -1.26854 -8.69915e-17)
(24.3675 -0.914614 -6.87427e-17)
(24.8221 -0.520583 1.493e-17)
(25.196 -0.100046 1.94253e-17)
(25.4906 0.336683 6.30654e-18)
(25.7064 0.77863 1.10738e-17)
(25.8455 1.21532 2.51787e-17)
(25.9114 1.63857 -1.22001e-16)
(25.9072 2.04031 -6.50111e-17)
(25.835 2.41437 1.26303e-17)
(25.6891 2.75734 -1.4804e-16)
(25.4687 3.06181 6.60407e-16)
(25.1042 3.32766 -6.15597e-16)
(24.6532 3.4494 2.69214e-16)
(23.602 3.43528 -3.07392e-16)
(17.0897 14.7424 -1.41206e-17)
(17.8132 15.4905 -2.6571e-17)
(18.6801 16.2512 1.06305e-17)
(19.6566 16.9761 1.00965e-17)
(20.7051 17.611 3.40603e-17)
(21.864 18.1693 9.85605e-17)
(23.103 18.6231 2.36846e-16)
(24.3972 18.9491 2.59219e-16)
(25.7437 19.1396 -2.54511e-16)
(27.1196 19.1825 -6.04737e-17)
(28.5063 19.0689 -1.18393e-16)
(29.8888 18.7936 -1.94586e-15)
(31.2448 18.3543 4.99018e-16)
(32.5525 17.7515 -2.02342e-15)
(33.7904 16.99 -5.41632e-16)
(34.9359 16.0789 6.6307e-16)
(35.9669 15.0329 -1.83655e-15)
(36.865 13.8683 -1.00374e-15)
(37.6161 12.6027 -4.81543e-16)
(38.2097 11.2591 1.56107e-15)
(38.6421 9.86289 1.1846e-16)
(38.9133 8.43637 7.16101e-16)
(39.0212 6.99321 1.35562e-15)
(38.9497 5.54618 -2.75572e-16)
(38.6712 4.13162 -8.28043e-18)
(38.1806 2.81337 1.17652e-15)
(37.5231 1.64559 2.17786e-16)
(36.769 0.634533 -4.35275e-17)
(35.9626 -0.250384 2.89341e-16)
(35.1092 -1.03332 -2.60706e-16)
(34.2006 -1.71913 -2.97254e-15)
(33.2327 -2.30726 5.59031e-15)
(32.2007 -2.79769 -5.91504e-15)
(31.102 -3.18783 -6.17547e-15)
(29.927 -3.4705 5.759e-15)
(28.7578 -3.6276 2.78794e-15)
(27.6403 -3.6466 -1.5181e-15)
(27.0646 -3.34636 -7.91932e-16)
(24.0489 -3.109 -1.45536e-15)
(16.4591 13.9708 8.67606e-18)
(15.8833 13.1596 1.23535e-16)
(15.3305 12.1942 -4.27611e-17)
(14.8101 11.0993 -4.70223e-16)
(14.3989 9.93011 -2.86078e-16)
(14.1022 8.68425 -6.77246e-16)
(13.943 7.38728 -1.68797e-16)
(13.9317 6.1092 8.6521e-16)
(14.0661 4.90169 6.55763e-16)
(14.334 3.77865 -1.8882e-16)
(14.7135 2.75928 1.58129e-15)
(15.1818 1.85833 -3.96178e-17)
(15.7229 1.07249 1.15631e-15)
(16.3209 0.396504 4.679e-16)
(16.9607 -0.172472 -4.22066e-16)
(17.6312 -0.641332 3.82543e-17)
(18.3219 -1.01603 -8.77363e-16)
(19.0236 -1.3025 5.79469e-17)
(19.7297 -1.5063 5.09654e-16)
(20.435 -1.63214 2.17655e-17)
(21.1352 -1.68242 3.47298e-16)
(21.8255 -1.65731 -4.37484e-16)
(22.4995 -1.55472 -2.81177e-16)
(23.1448 -1.3731 -5.00886e-16)
(23.7422 -1.11598 -3.10521e-16)
(24.2724 -0.797177 -1.98404e-17)
(24.7264 -0.434715 -8.63488e-17)
(25.1031 -0.0422798 -1.62492e-18)
(25.4031 0.369441 -6.23201e-18)
(25.6261 0.789296 -1.51465e-18)
(25.7736 1.20641 3.08165e-17)
(25.8484 1.61155 -1.70003e-17)
(25.8531 1.99833 1.28504e-16)
(25.7896 2.36097 -2.94412e-16)
(25.6519 2.69585 3.46056e-17)
(25.4389 2.99492 -2.00158e-17)
(25.0856 3.25573 3.21444e-16)
(24.6469 3.37292 3.29256e-16)
(23.6736 3.34519 -4.18318e-16)
(17.8915 14.0205 -4.10486e-18)
(18.5634 14.7027 -5.04335e-19)
(19.3674 15.3981 1.9534e-17)
(20.2697 16.0614 -1.89597e-17)
(21.2333 16.6425 -9.30484e-18)
(22.2969 17.1565 -3.69308e-17)
(23.4319 17.5781 -3.63975e-16)
(24.6155 17.8869 6.36464e-17)
(25.8479 18.0764 -1.82642e-16)
(27.1093 18.1354 4.27812e-16)
(28.3846 18.0553 -4.35694e-16)
(29.6628 17.8303 1.2359e-15)
(30.9245 17.456 -8.73493e-17)
(32.1517 16.9302 -7.41504e-17)
(33.3251 16.2543 -3.70376e-16)
(34.4229 15.4337 -1.73507e-16)
(35.4244 14.4781 6.45369e-16)
(36.3107 13.4008 1.30952e-15)
(37.0633 12.2235 1.34543e-15)
(37.6686 10.9696 8.89501e-16)
(38.1197 9.66134 7.00963e-16)
(38.4145 8.3174 1.44248e-16)
(38.5491 6.95104 -9.13954e-16)
(38.5107 5.57637 -2.1105e-17)
(38.2782 4.22515 5.90737e-16)
(37.8463 2.95112 -8.81424e-16)
(37.2505 1.80456 -1.89012e-16)
(36.5507 0.798686 -1.51984e-16)
(35.7897 -0.0875301 -2.95321e-16)
(34.9776 -0.874138 2.57423e-15)
(34.111 -1.56551 2.43514e-15)
(33.1888 -2.16069 -1.32738e-15)
(32.2077 -2.65903 2.41267e-15)
(31.1607 -3.05683 -8.756e-16)
(30.0168 -3.34443 -2.98463e-15)
(28.7915 -3.49756 -1.2972e-15)
(27.3772 -3.49424 1.43144e-15)
(26.6428 -3.14693 2.53776e-16)
(24.63 -2.99611 -1.75083e-15)
(17.3027 13.3173 5.90865e-17)
(16.7639 12.5801 1.79141e-16)
(16.2405 11.701 -3.8292e-16)
(15.7426 10.7024 -7.82815e-16)
(15.3412 9.63766 -7.74729e-16)
(15.0389 8.50024 2.17564e-15)
(14.858 7.31148 1.16044e-15)
(14.81 6.13857 4.16554e-16)
(14.8923 5.02824 -1.72675e-15)
(15.0944 3.9907 -9.81566e-16)
(15.3979 3.0426 -1.77877e-15)
(15.7838 2.19718 -1.6349e-15)
(16.2391 1.45055 -3.73198e-16)
(16.7515 0.798124 2.53029e-16)
(17.309 0.238402 -2.66931e-16)
(17.9031 -0.23364 -3.41157e-16)
(18.5252 -0.621272 3.687e-16)
(19.167 -0.92782 -4.91542e-16)
(19.8218 -1.15639 5.40445e-17)
(20.4838 -1.30956 1.93246e-16)
(21.1473 -1.38834 3.91724e-16)
(21.8066 -1.39251 -1.7728e-16)
(22.4544 -1.32025 -9.9309e-17)
(23.0786 -1.17051 -8.12011e-17)
(23.661 -0.946531 2.46399e-16)
(24.1831 -0.659639 -1.21543e-17)
(24.6347 -0.325671 5.41624e-17)
(25.013 0.0420342 -7.68243e-18)
(25.3172 0.432648 -4.12039e-18)
(25.5464 0.835134 -1.30447e-17)
(25.7014 1.23851 -3.54137e-17)
(25.7843 1.63351 -1.06165e-16)
(25.7971 2.01227 1.94104e-17)
(25.7414 2.3676 2.9591e-16)
(25.6113 2.6947 3.52709e-16)
(25.4057 2.98358 2.58821e-16)
(25.0644 3.22967 2.10325e-15)
(24.6397 3.3249 -2.56532e-15)
(23.7446 3.26712 2.00442e-15)
(18.5997 13.3687 1.58301e-17)
(19.2269 13.9933 1.43647e-17)
(19.9763 14.6311 -4.16843e-18)
(20.8147 15.2396 1.76101e-17)
(21.705 15.7725 -9.55851e-17)
(22.6861 16.246 1.0624e-17)
(23.7307 16.6371 1.32474e-16)
(24.8178 16.9276 2.03539e-16)
(25.9492 17.1125 1.48287e-16)
(27.1078 17.182 -5.40523e-16)
(28.2813 17.1282 9.27435e-17)
(29.4618 16.9451 -4.13474e-16)
(30.6329 16.6276 -1.1812e-16)
(31.7792 16.1722 -3.56054e-16)
(32.8839 15.5781 2.71939e-16)
(33.9272 14.848 4.67655e-16)
(34.8894 13.9885 -1.07176e-16)
(35.7515 13.0109 -1.42887e-15)
(36.4962 11.9291 -7.86743e-16)
(37.1087 10.7614 -8.68231e-16)
(37.5788 9.5276 -3.23338e-16)
(37.9003 8.24792 -6.8031e-16)
(38.0663 6.94 -1.17907e-16)
(38.065 5.62227 1.08147e-15)
(37.8795 4.32405 2.51685e-17)
(37.505 3.08972 5.52752e-16)
(36.9686 1.964 1.05159e-16)
(36.3207 0.964264 5.0147e-16)
(35.6012 0.0775249 5.17117e-16)
(34.8234 -0.711979 -2.95486e-15)
(33.9879 -1.4078 -1.00186e-15)
(33.0963 -2.00848 -4.86866e-15)
(32.1492 -2.51293 5.11327e-15)
(31.145 -2.91719 3.61414e-16)
(30.0571 -3.21177 2.40534e-15)
(28.897 -3.36894 -7.649e-16)
(27.4591 -3.37328 -1.88264e-15)
(26.3679 -2.97987 1.05918e-16)
(24.7492 -2.81576 7.78881e-16)
(18.0476 12.7251 6.76616e-17)
(17.5413 12.0516 -2.02621e-16)
(17.0446 11.2473 -7.59764e-18)
(16.5675 10.3321 4.42975e-16)
(16.1768 9.35762 -8.804e-16)
(15.8728 8.31379 -1.40389e-15)
(15.677 7.21977 -9.10624e-16)
(15.6016 6.13945 1.09722e-15)
(15.6438 5.11542 1.52888e-15)
(15.7942 4.15524 2.42387e-16)
(16.0368 3.27364 1.06209e-15)
(16.3552 2.48255 9.97902e-16)
(16.7387 1.77731 -5.98757e-16)
(17.1776 1.15326 4.01024e-16)
(17.6624 0.609494 -1.03722e-16)
(18.1868 0.142158 6.8816e-16)
(18.7442 -0.250677 -4.22116e-16)
(19.3276 -0.570258 -6.88093e-16)
(19.9308 -0.817629 -2.39123e-16)
(20.5479 -0.993656 -5.75217e-16)
(21.1728 -1.09809 -5.07571e-16)
(21.7991 -1.12996 -4.48566e-16)
(22.4189 -1.08719 8.33849e-16)
(23.0204 -0.968927 5.15168e-16)
(23.5861 -0.777999 8.29732e-17)
(24.0983 -0.523576 2.79952e-16)
(24.5457 -0.219529 4.72386e-17)
(24.9241 0.121358 1.27418e-17)
(25.2315 0.488204 -1.39999e-18)
(25.4663 0.870007 -2.47532e-18)
(25.6285 1.25575 2.38571e-17)
(25.7194 1.63563 -4.7805e-18)
(25.7407 2.00179 6.86719e-17)
(25.6933 2.3468 1.49511e-16)
(25.5715 2.66523 -6.41285e-16)
(25.3739 2.94592 2.70328e-17)
(25.0453 3.18206 -2.45549e-15)
(24.635 3.26606 4.18945e-15)
(23.8145 3.19036 2.17681e-15)
(19.2302 12.7756 -1.09175e-17)
(19.8183 13.3492 1.21494e-17)
(20.5201 13.9357 -1.95746e-17)
(21.3028 14.4949 -1.96733e-17)
(22.1299 14.984 1.22759e-17)
(23.0397 15.4196 3.21479e-17)
(24.0058 15.7811 -1.39802e-16)
(25.009 16.0521 -5.78899e-17)
(26.0523 16.2286 4.37598e-16)
(27.1201 16.3021 2.34183e-16)
(28.203 16.2657 3.43925e-16)
(29.295 16.1136 -1.81976e-16)
(30.3826 15.8404 -7.18957e-16)
(31.453 15.4413 1.56766e-15)
(32.4918 14.9141 -6.459e-16)
(33.4812 14.2591 -6.7522e-16)
(34.4029 13.4803 -4.42892e-16)
(35.2386 12.5855 1.29559e-15)
(35.9711 11.5864 1.55832e-15)
(36.5839 10.4997 4.32765e-16)
(37.0644 9.34372 -1.81343e-15)
(37.404 8.13695 4.03079e-16)
(37.5946 6.89719 -8.18591e-17)
(37.6252 5.64384 3.34612e-16)
(37.4822 4.40361 -1.54752e-16)
(37.1607 3.21369 1.15502e-16)
(36.681 2.11399 4.61991e-17)
(36.0845 1.12513 -2.68899e-16)
(35.4071 0.241415 4.48528e-16)
(34.6639 -0.548577 1.91431e-15)
(33.8578 -1.24708 4.62728e-17)
(32.9918 -1.85183 5.01408e-15)
(32.068 -2.36093 2.13279e-15)
(31.0888 -2.76979 -2.37597e-15)
(30.0347 -3.0696 -3.32853e-15)
(28.9282 -3.22954 -1.19046e-15)
(27.5962 -3.2474 -1.23149e-15)
(26.3393 -2.84515 -8.91381e-17)
(24.764 -2.61794 1.65168e-15)
(18.7102 12.1845 -4.78416e-17)
(18.2326 11.5668 -2.59266e-17)
(17.7601 10.8279 1.75126e-16)
(17.3025 9.9859 -4.63251e-17)
(16.9228 9.09 5.42134e-16)
(16.6201 8.12814 9.2236e-16)
(16.4145 7.11774 7.09224e-17)
(16.3185 6.11949 6.50784e-16)
(16.3296 5.17234 -1.92425e-15)
(16.439 4.28232 -1.28741e-15)
(16.6326 3.46233 8.61503e-16)
(16.8957 2.72316 1.25848e-15)
(17.2192 2.05955 -6.51346e-16)
(17.5952 1.4667 -9.12228e-17)
(18.0162 0.943682 -5.27277e-17)
(18.4777 0.486913 -1.72329e-16)
(18.975 0.0953908 6.33508e-16)
(19.5024 -0.230846 8.70387e-16)
(20.0547 -0.491355 8.13544e-17)
(20.6265 -0.685482 6.20614e-16)
(21.2116 -0.811745 2.1443e-16)
(21.8032 -0.868318 3.34777e-16)
(22.3936 -0.852806 -5.21557e-16)
(22.9711 -0.764082 -4.30194e-17)
(23.5186 -0.604325 -2.64583e-16)
(24.019 -0.380987 -3.02175e-16)
(24.4605 -0.105981 -1.13308e-16)
(24.8376 0.208704 2.79304e-17)
(25.147 0.552319 9.23519e-18)
(25.3865 0.914078 5.96195e-18)
(25.555 1.283 1.31501e-18)
(25.6536 1.64909 -3.64024e-17)
(25.6829 2.00395 1.08522e-17)
(25.6437 2.33926 -2.49103e-16)
(25.5303 2.6486 1.6483e-17)
(25.3412 2.91941 -5.9365e-16)
(25.0262 3.14284 1.59572e-15)
(24.6317 3.21244 -2.35639e-15)
(23.8825 3.11801 -4.08776e-15)
(19.7941 12.2326 1.03551e-17)
(20.3476 12.7609 -1.85283e-17)
(21.0073 13.3013 -5.49518e-17)
(21.7408 13.8161 1.00735e-17)
(22.5124 14.2655 -2.92565e-18)
(23.3594 14.6663 -9.37655e-17)
(24.2567 14.9996 1.90724e-16)
(25.1859 15.2508 -3.17898e-16)
(26.1509 15.4172 1.01981e-15)
(27.1381 15.4914 4.25185e-16)
(28.1391 15.4671 -8.77282e-16)
(29.1504 15.3389 -6.07696e-17)
(30.1603 15.1018 1.1203e-15)
(31.1586 14.7506 -5.33093e-16)