/*--------------------------------*- C++ -*----------------------------------*\
| =========                 |                                                 |
| \\      /  F ield         | OpenFOAM: The Open Source CFD Toolbox           |
|  \\    /   O peration     | Version:  2506                                  |
|   \\  /    A nd           | Website:  www.openfoam.com                      |
|    \\/     M anipulation  |                                                 |
\*---------------------------------------------------------------------------*/
FoamFile
{
    version     2.0;
    format      ascii;
    arch        "LSB;label=32;scalar=64";
    class       volScalarField;
    location    "300";
    object      magR;
}
// * * * * * * * * * * * * * * * * * * * * * * * * * * * * * * * * * * * * * //

dimensions      [0 2 -2 0 0 0 0];

internalField   nonuniform List<scalar> 
1340
(
59.2284
56.6166
53.5747
43.8805
1.7806
1.96113
2.3637
3.28792
0.383773
0.528822
0.633041
1.08051
0.0141533
0.0466053
0.117978
0.429304
0.00060222
0.00164719
0.00387869
0.0833055
7.61037e-05
0.000280936
0.000886094
0.00949254
8.23184e-06
1.45429e-06
7.86403e-08
0.000281905
2.15209e-05
1.57453e-05
1.83015e-06
1.9461e-05
2.84445e-05
3.0514e-05
3.24658e-05
1.2204e-06
2.39486e-05
2.35762e-05
3.97353e-05
1.64582e-05
2.4244e-05
2.41259e-05
3.42689e-05
4.26836e-05
2.24883e-05
2.27363e-05
2.92296e-05
4.66964e-05
2.1631e-05
2.19394e-05
2.69074e-05
4.29148e-05
2.04266e-05
2.06099e-05
2.49126e-05
3.85995e-05
1.93433e-05
1.94129e-05
2.30487e-05
3.48145e-05
1.81815e-05
1.81466e-05
2.11944e-05
3.13851e-05
1.70243e-05
1.68939e-05
1.94204e-05
2.82074e-05
1.58477e-05
1.56288e-05
1.77215e-05
2.52608e-05
1.46678e-05
1.43678e-05
1.60971e-05
2.25371e-05
1.3488e-05
1.31138e-05
1.45508e-05
2.00416e-05
1.23156e-05
1.18745e-05
1.30779e-05
1.77581e-05
1.11569e-05
1.06579e-05
1.16806e-05
1.56796e-05
1.00192e-05
9.46945e-06
1.03593e-05
1.37985e-05
8.91046e-06
8.31729e-06
9.11248e-06
1.20994e-05
7.83749e-06
7.20669e-06
7.94402e-06
1.05756e-05
6.80821e-06
6.14379e-06
6.85466e-06
9.21424e-06
5.83061e-06
5.13404e-06
5.84758e-06
8.00685e-06
4.9132e-06
4.1816e-06
4.92582e-06
6.94366e-06
4.06563e-06
3.29052e-06
4.09508e-06
6.0171e-06
3.30052e-06
2.46413e-06
3.36302e-06
5.22093e-06
2.63528e-06
1.7037e-06
2.74168e-06
4.54911e-06
2.09694e-06
1.01174e-06
2.2481e-06
3.99664e-06
1.72424e-06
3.91297e-07
1.90383e-06
3.55758e-06
1.55282e-06
1.9e-07
1.72328e-06
3.22395e-06
1.57336e-06
6.69291e-07
1.69299e-06
2.98415e-06
1.72002e-06
1.0941e-06
1.76889e-06
2.82321e-06
1.91984e-06
1.4578e-06
1.89951e-06
2.72347e-06
2.12503e-06
1.76289e-06
2.046e-06
2.6669e-06
2.92206e-06
2.31078e-06
2.0126e-06
2.18512e-06
2.6373e-06
2.96626e-06
2.46567e-06
2.21075e-06
2.30461e-06
2.62146e-06
2.99938e-06
2.58529e-06
2.36154e-06
2.39888e-06
2.60963e-06
3.01508e-06
2.66917e-06
2.46922e-06
2.46602e-06
2.59501e-06
3.01034e-06
2.71891e-06
2.53831e-06
2.50651e-06
2.57345e-06
2.98454e-06
2.73723e-06
2.57317e-06
2.52184e-06
2.54257e-06
2.93863e-06
2.72757e-06
2.57822e-06
2.5142e-06
2.50127e-06
2.87446e-06
2.69359e-06
2.55777e-06
2.48641e-06
2.44968e-06
2.79445e-06
2.63902e-06
2.51576e-06
2.44108e-06
2.38833e-06
2.70132e-06
2.5675e-06
2.45601e-06
2.38098e-06
2.31815e-06
2.59762e-06
2.48233e-06
2.38195e-06
2.30877e-06
2.24048e-06
2.48585e-06
2.38648e-06
2.29648e-06
2.2267e-06
2.15642e-06
2.36808e-06
2.28253e-06
2.20223e-06
2.13689e-06
2.06717e-06
2.24603e-06
2.17245e-06
2.10122e-06
2.04096e-06
1.9737e-06
2.18525e-06
2.12107e-06
2.05794e-06
1.99511e-06
1.94029e-06
1.87679e-06
2.04841e-06
1.99435e-06
1.94033e-06
1.88526e-06
1.83605e-06
1.77719e-06
1.91254e-06
1.86707e-06
1.82102e-06
1.77307e-06
1.72944e-06
1.67565e-06
1.77881e-06
1.74068e-06
1.70159e-06
1.66009e-06
1.62186e-06
1.57331e-06
1.64882e-06
1.61692e-06
1.58388e-06
1.5482e-06
1.51505e-06
1.47162e-06
1.52427e-06
1.49767e-06
1.46984e-06
1.43929e-06
1.4108e-06
1.37222e-06
1.40647e-06
1.3843e-06
1.36092e-06
1.33485e-06
1.31055e-06
1.2765e-06
1.29564e-06
1.27717e-06
1.25756e-06
1.23541e-06
1.21481e-06
1.185e-06
1.19086e-06
1.17549e-06
1.15908e-06
1.14037e-06
1.12305e-06
1.09724e-06
1.1025e-06
1.09053e-06
1.07773e-06
1.06407e-06
1.04839e-06
1.03405e-06
1.01201e-06
1.0034e-06
9.93436e-07
9.82823e-07
9.71554e-07
9.5859e-07
9.46956e-07
9.28431e-07
9.07668e-07
8.99359e-07
8.90609e-07
8.81409e-07
8.70837e-07
8.61678e-07
8.46321e-07
8.16367e-07
8.09457e-07
8.02294e-07
7.94868e-07
7.86366e-07
7.79434e-07
7.66828e-07
7.30788e-07
7.25038e-07
7.1919e-07
7.13257e-07
7.06493e-07
7.01427e-07
6.9106e-07
6.53291e-07
6.48455e-07
6.43664e-07
6.38993e-07
6.33759e-07
6.30326e-07
6.22121e-07
5.88939e-07
5.84608e-07
5.80438e-07
5.7653e-07
5.72256e-07
5.6991e-07
5.63533e-07
5.3716e-07
5.33042e-07
5.29158e-07
5.25582e-07
5.21737e-07
5.19888e-07
5.14503e-07
4.9058e-07
4.86548e-07
4.82774e-07
4.79352e-07
4.7576e-07
4.74166e-07
4.69527e-07
4.45654e-07
4.41736e-07
4.38068e-07
4.34809e-07
4.31455e-07
4.30042e-07
4.26018e-07
4.05424e-07
4.00863e-07
3.9673e-07
3.92991e-07
3.8982e-07
3.86827e-07
3.86051e-07
3.84254e-07
3.60458e-07
3.54998e-07
3.49876e-07
3.45149e-07
3.40968e-07
3.37035e-07
3.34425e-07
3.30193e-07
3.03809e-07
2.98028e-07
2.93036e-07
2.8889e-07
2.85859e-07
2.84005e-07
2.86473e-07
2.92248e-07
2.251e-07
2.13902e-07
2.03673e-07
1.94656e-07
1.86924e-07
1.80432e-07
1.75176e-07
1.67361e-07
1.80085e-07
1.76811e-07
1.75872e-07
1.7749e-07
1.82795e-07
1.92338e-07
2.151e-07
2.48633e-07
2.0065e-07
1.99569e-07
1.98241e-07
1.9638e-07
1.94892e-07
2.00542e-07
2.36011e-07
2.74459e-07
5.40578e-07
5.60747e-07
5.78303e-07
5.94499e-07
6.13185e-07
6.40707e-07
7.08655e-07
7.65366e-07
1.01513e-06
1.01831e-06
1.02059e-06
1.02209e-06
1.02302e-06
1.0261e-06
1.04624e-06
9.9687e-07
1.94025e-06
1.94095e-06
1.93992e-06
1.93783e-06
1.93333e-06
1.93067e-06
1.9143e-06
1.776e-06
12.8387
3.47198
0.920386
0.284825
0.0497607
0.00307975
0.000290238
2.22642e-05
1.61136e-06
2.76673e-05
4.918e-05
4.93767e-05
4.4823e-05
4.0502e-05
3.67351e-05
3.32977e-05
3.00912e-05
2.71099e-05
2.43568e-05
2.18205e-05
1.94966e-05
1.73766e-05
1.54513e-05
1.37118e-05
1.21464e-05
1.07461e-05
9.50042e-06
8.39896e-06
7.432e-06
6.59001e-06
5.86377e-06
5.24419e-06
4.7218e-06
4.28742e-06
3.93124e-06
3.64284e-06
3.41168e-06
3.22712e-06
3.07895e-06
2.95798e-06
2.85615e-06
2.76676e-06
2.68475e-06
2.60614e-06
2.52817e-06
2.4491e-06
2.3679e-06
2.28402e-06
2.1975e-06
2.10837e-06
2.01696e-06
1.9235e-06
1.82819e-06
1.73133e-06
1.63332e-06
1.53497e-06
1.43748e-06
1.34227e-06
1.25053e-06
1.1627e-06
1.07829e-06
9.96145e-07
9.15454e-07
8.36074e-07
7.59137e-07
6.85555e-07
6.18667e-07
5.61593e-07
5.13682e-07
4.69522e-07
4.2646e-07
3.85971e-07
3.30569e-07
2.98833e-07
1.64238e-07
2.71208e-07
2.49818e-07
7.52071e-07
8.81526e-07
1.57818e-06
7.7281
2.50344
0.474754
0.0743229
0.007559
0.000466125
8.11619e-05
1.32622e-07
2.45735e-06
2.32284e-05
2.88282e-05
2.80414e-05
2.63477e-05
2.48384e-05
2.34546e-05
2.20919e-05
2.07309e-05
1.93727e-05
1.80378e-05
1.67301e-05
1.5461e-05
1.42365e-05
1.30637e-05
1.19534e-05
1.09081e-05
9.9316e-06
9.02781e-06
8.19842e-06
7.44273e-06
6.76033e-06
6.14914e-06
5.60639e-06
5.12831e-06
4.71055e-06
4.34855e-06
4.03644e-06
3.76886e-06
3.53979e-06
3.34322e-06
3.17358e-06
3.02553e-06
2.89411e-06
2.7754e-06
2.66575e-06
2.56239e-06
2.46319e-06
2.36654e-06
2.27132e-06
2.17684e-06
2.08251e-06
1.98812e-06
1.89339e-06
1.79811e-06
1.70222e-06
1.60593e-06
1.50981e-06
1.41485e-06
1.32234e-06
1.23324e-06
1.14787e-06
1.06567e-06
9.85496e-07
9.06616e-07
8.28979e-07
7.53741e-07
6.81692e-07
6.16041e-07
5.59671e-07
5.12424e-07
4.68968e-07
4.26297e-07
3.86241e-07
3.30757e-07
3.00558e-07
1.62713e-07
2.84527e-07
2.18823e-07
7.55224e-07
8.7433e-07
1.61527e-06
4.87936
1.58024
0.213587
0.0137975
0.000548209
0.000100056
8.75232e-06
3.80908e-08
7.55248e-06
1.75732e-05
1.73571e-05
1.64658e-05
1.556e-05
1.48132e-05
1.41291e-05
1.34653e-05
1.28225e-05
1.21963e-05
1.1584e-05
1.09941e-05
1.04198e-05
9.8622e-06
9.31783e-06
8.7914e-06
8.28121e-06
7.78576e-06
7.30777e-06
6.84916e-06
6.41008e-06
5.99299e-06
5.59931e-06
5.23041e-06
4.88748e-06
4.57105e-06
4.28135e-06
4.01759e-06
3.77898e-06
3.5638e-06
3.3701e-06
3.19554e-06
3.03779e-06
2.8942e-06
2.76252e-06
2.64041e-06
2.52593e-06
2.41746e-06
2.31351e-06
2.21309e-06
2.11528e-06
2.01938e-06
1.92488e-06
1.83127e-06
1.73812e-06
1.64515e-06
1.55238e-06
1.46025e-06
1.36955e-06
1.28139e-06
1.19656e-06
1.1152e-06
1.0367e-06
9.59941e-07
8.84251e-07
8.09654e-07
7.3733e-07
6.6798e-07
6.04593e-07
5.4994e-07
5.04309e-07
4.62548e-07
4.2116e-07
3.82278e-07
3.27956e-07
2.98747e-07
1.64817e-07
2.90067e-07
2.04265e-07
7.49059e-07
8.56782e-07
1.61922e-06
2.93964
0.791987
0.0573838
0.000555563
0.000124944
2.58132e-08
1.20836e-07
2.14674e-06
9.82776e-06
1.22868e-05
1.14316e-05
1.10053e-05
1.05838e-05
1.02271e-05
9.86777e-06
9.50261e-06
9.14231e-06
8.78504e-06
8.43252e-06
8.09157e-06
7.75727e-06
7.43441e-06
7.1206e-06
6.8156e-06
6.52042e-06
6.23358e-06
5.95421e-06
5.68273e-06
5.4185e-06
5.16177e-06
4.91266e-06
4.67145e-06
4.43919e-06
4.21614e-06
4.0031e-06
3.80082e-06
3.60954e-06
3.4295e-06
3.26072e-06
3.1027e-06
2.95504e-06
2.81694e-06
2.68736e-06
2.56544e-06
2.45017e-06
2.34061e-06
2.23581e-06
2.1351e-06
2.03774e-06
1.9431e-06
1.85065e-06
1.75977e-06
1.66999e-06
1.58093e-06
1.49248e-06
1.40497e-06
1.31909e-06
1.23574e-06
1.15557e-06
1.07863e-06
1.0042e-06
9.31239e-07
8.59128e-07
7.87931e-07
7.18857e-07
6.52529e-07
5.9177e-07
5.39302e-07
4.95625e-07
4.55738e-07
4.1585e-07
3.78392e-07
3.2559e-07
2.97475e-07
1.69714e-07
2.94064e-07
1.9766e-07
7.41463e-07
8.34718e-07
1.60714e-06
1.45405
0.251641
0.00349513
0.000363977
0
1.55492e-08
2.83406e-07
5.39269e-06
9.167e-06
8.94768e-06
8.46856e-06
8.32632e-06
8.16799e-06
8.0297e-06
7.87257e-06
7.70428e-06
7.52524e-06
7.33292e-06
7.132e-06
6.92249e-06
6.70433e-06
6.48079e-06
6.25494e-06
6.02542e-06
5.79583e-06
5.56915e-06
5.34417e-06
5.12361e-06
4.90835e-06
4.69873e-06
4.4954e-06
4.29838e-06
4.10849e-06
3.92521e-06
3.74878e-06
3.5797e-06
3.41741e-06
3.2623e-06
3.11419e-06
2.97287e-06
2.83845e-06
2.71048e-06
2.58849e-06
2.47235e-06
2.36148e-06
2.25544e-06
2.15368e-06
2.05583e-06
1.96137e-06
1.8698e-06
1.78069e-06
1.6934e-06
1.60751e-06
1.52261e-06
1.43853e-06
1.35556e-06
1.27429e-06
1.19549e-06
1.11967e-06
1.04679e-06
9.76115e-07
9.06642e-07
8.37844e-07
7.69813e-07
7.03778e-07
6.40276e-07
5.81963e-07
5.31521e-07
4.89623e-07
4.51344e-07
4.1276e-07
3.76552e-07
3.25145e-07
2.9824e-07
1.76419e-07
3.00446e-07
1.92872e-07
7.4176e-07
8.23158e-07
1.60554e-06
0.489152
0.0349811
0.000114339
2.74197e-05
8.72273e-10
1.6317e-08
3.08194e-06
7.0186e-06
7.56863e-06
7.01662e-06
6.84486e-06
6.78442e-06
6.70025e-06
6.61662e-06
6.51792e-06
6.41295e-06
6.29724e-06
6.17223e-06
6.04153e-06
5.90314e-06
5.75848e-06
5.60787e-06
5.45352e-06
5.29395e-06
5.13115e-06
4.96667e-06
4.79918e-06
4.63138e-06
4.46359e-06
4.29653e-06
4.13134e-06
3.96843e-06
3.80914e-06
3.6535e-06
3.5021e-06
3.35569e-06
3.21393e-06
3.07742e-06
2.94589e-06
2.81935e-06
2.69798e-06
2.58128e-06
2.46912e-06
2.36152e-06
2.25799e-06
2.15843e-06
2.06247e-06
1.9699e-06
1.88039e-06
1.79356e-06
1.70908e-06
1.62639e-06
1.54512e-06
1.46488e-06
1.38552e-06
1.30729e-06
1.23075e-06
1.15652e-06
1.08504e-06
1.01616e-06
9.49177e-07
8.83152e-07
8.17627e-07
7.52757e-07
6.89762e-07
6.29075e-07
5.73164e-07
5.24702e-07
4.84559e-07
4.47829e-07
4.1053e-07
3.7554e-07
3.25549e-07
3.00012e-07
1.84051e-07
3.082e-07
1.87246e-07
7.4507e-07
0.0704822
0.000207449
2.54651e-05
1.21959e-06
1.02758e-07
1.77128e-06
5.12811e-06
5.90837e-06
5.55775e-06
5.32968e-06
5.32702e-06
5.31579e-06
5.28963e-06
5.25798e-06
5.2149e-06
5.16608e-06
5.10716e-06
5.03943e-06
4.96545e-06
4.88385e-06
4.79605e-06
4.70202e-06
4.60205e-06
4.49762e-06
4.38964e-06
4.27752e-06
4.16207e-06
4.04505e-06
3.92577e-06
3.80522e-06
3.684e-06
3.56223e-06
3.44087e-06
3.32017e-06
3.20055e-06
3.0826e-06
2.96649e-06
2.85288e-06
2.74166e-06
2.63325e-06
2.5279e-06
2.42534e-06
2.3259e-06
2.22947e-06
2.13588e-06
2.04528e-06
1.95738e-06
1.87215e-06
1.78939e-06
1.70886e-06
1.63032e-06
1.55333e-06
1.47757e-06
1.40271e-06
1.32868e-06
1.25568e-06
1.18422e-06
1.11489e-06
1.04798e-06
9.83334e-07
9.20253e-07
8.57887e-07
7.95842e-07
7.34343e-07
6.74595e-07
6.169e-07
5.63544e-07
5.1723e-07
4.79004e-07
4.43939e-07
4.0807e-07
3.74425e-07
3.26036e-07
3.02097e-07
1.92314e-07
3.16061e-07
0.000731673
0.000290989
2.61214e-09
4.96736e-08
9.36427e-07
3.83978e-06
4.63062e-06
4.39159e-06
4.18732e-06
4.17286e-06
4.20626e-06
4.21354e-06
4.21419e-06
4.20825e-06
4.19425e-06
4.17428e-06
4.14662e-06
4.11217e-06
4.07195e-06
4.02542e-06
3.97343e-06
3.91628e-06
3.85364e-06
3.7869e-06
3.7167e-06
3.64218e-06
3.5645e-06
3.48448e-06
3.40167e-06
3.31691e-06
3.2305e-06
3.14244e-06
3.05347e-06
2.96371e-06
2.87334e-06
2.78284e-06
2.69234e-06
2.60228e-06
2.51273e-06
2.42402e-06
2.33645e-06
2.25002e-06
2.16508e-06
2.08166e-06
1.99981e-06
1.91981e-06
1.8415e-06
1.76501e-06
1.69027e-06
1.61716e-06
1.54554e-06
1.47508e-06
1.40556e-06
1.33669e-06
1.26846e-06
1.2011e-06
1.13507e-06
1.07088e-06
1.00877e-06
9.4855e-07
8.89557e-07
8.31035e-07
7.72676e-07
7.14735e-07
6.58421e-07
6.03883e-07
5.53246e-07
5.09267e-07
4.73097e-07
4.39794e-07
4.05492e-07
3.73303e-07
3.26728e-07
3.0457e-07
0.000321902
0
4.70262e-09
8.44624e-08
3.09678e-06
3.75136e-06
3.55061e-06
3.37973e-06
3.36651e-06
3.41255e-06
3.44429e-06
3.46248e-06
3.47625e-06
3.48324e-06
3.48393e-06
3.47839e-06
3.46643e-06
3.44899e-06
3.42604e-06
3.39762e-06
3.36418e-06
3.32636e-06
3.28452e-06
3.23834e-06
3.18906e-06
3.13669e-06
3.08128e-06
3.0234e-06
2.9632e-06
2.9011e-06
2.83704e-06
2.77129e-06
2.70449e-06
2.6362e-06
2.56691e-06
2.49697e-06
2.42623e-06
2.35509e-06
2.28365e-06
2.21202e-06
2.14044e-06
2.06909e-06
1.99803e-06
1.92749e-06
1.85757e-06
1.7885e-06
1.72026e-06
1.65305e-06
1.5869e-06
1.52176e-06
1.45758e-06
1.39412e-06
1.33124e-06
1.26874e-06
1.20662e-06
1.14514e-06
1.08471e-06
1.0258e-06
9.68598e-07
9.12903e-07
8.58098e-07
8.03528e-07
7.48974e-07
6.94715e-07
6.41945e-07
5.90665e-07
5.42854e-07
5.01333e-07
4.67283e-07
4.35782e-07
4.0313e-07
0
0
1.27443e-07
2.16329e-06
3.18084e-06
2.85238e-06
2.74231e-06
2.73428e-06
2.78375e-06
2.82805e-06
2.85784e-06
2.88252e-06
2.90268e-06
2.91684e-06
2.92577e-06
2.92983e-06
2.92828e-06
2.92165e-06
2.91033e-06
2.89432e-06
2.87394e-06
2.84952e-06
2.82153e-06
2.78984e-06
2.75522e-06
2.71789e-06
2.67771e-06
2.63532e-06
2.59086e-06
2.5446e-06
2.49632e-06
2.44654e-06
2.39563e-06
2.34303e-06
2.28941e-06
2.23481e-06
2.17916e-06
2.12279e-06
2.06567e-06
2.00796e-06
1.94979e-06
1.89125e-06
1.83247e-06
1.77357e-06
1.71465e-06
1.65594e-06
1.59744e-06
1.53936e-06
1.48177e-06
1.42467e-06
1.36806e-06
1.31177e-06
1.25571e-06
1.19972e-06
1.14387e-06
1.08837e-06
1.03364e-06
9.80079e-07
9.27829e-07
8.76708e-07
8.26157e-07
7.75624e-07
7.24961e-07
6.74482e-07
6.25341e-07
5.77392e-07
0
6.97748e-08
1.44265e-06
2.58754e-06
2.33704e-06
2.20842e-06
2.23371e-06
2.27835e-06
2.32618e-06
2.36115e-06
2.39044e-06
2.41639e-06
2.43774e-06
2.45468e-06
2.46696e-06
2.47524e-06
2.47907e-06
2.47837e-06
2.47396e-06
2.4657e-06
2.45392e-06
2.43872e-06
2.42048e-06
2.39933e-06
2.3757e-06
2.34967e-06
2.32124e-06
2.29097e-06
2.25881e-06
2.22497e-06
2.18941e-06
2.1524e-06
2.11414e-06
2.07439e-06
2.03352e-06
1.99152e-06
1.94838e-06
1.90434e-06
1.85928e-06
1.81338e-06
1.76674e-06
1.71936e-06
1.67138e-06
1.62285e-06
1.5739e-06
1.52472e-06
1.4753e-06
1.42587e-06
1.37648e-06
1.32719e-06
1.278e-06
1.2288e-06
1.17952e-06
1.13005e-06
1.08047e-06
1.03098e-06
9.81953e-07
9.33737e-07
8.86455e-07
8.39932e-07
7.93684e-07
6.374e-08
1.05033e-06
2.14562e-06
1.91948e-06
1.80197e-06
1.83444e-06
1.88487e-06
1.92778e-06
1.96433e-06
1.9945e-06
2.02205e-06
2.04635e-06
2.06675e-06
2.08371e-06
2.09653e-06
2.10605e-06
2.11198e-06
2.1141e-06
2.11326e-06
2.10921e-06
2.1023e-06
2.09257e-06
2.08049e-06
2.06605e-06
2.04958e-06
2.03122e-06
2.01097e-06
1.98923e-06
1.96596e-06
1.9413e-06
1.91524e-06
1.88799e-06
1.85957e-06
1.82987e-06
1.79916e-06
1.76734e-06
1.73443e-06
1.70058e-06
1.66563e-06
1.62973e-06
1.59297e-06
1.55526e-06
1.5167e-06
1.47739e-06
1.43737e-06
1.39678e-06
1.35568e-06
1.31424e-06
1.27253e-06
1.23061e-06
1.18853e-06
1.14616e-06
1.10347e-06
1.06038e-06
1.08487e-06
1.56228e-06
1.62787e-06
1.47879e-06
1.52605e-06
1.57379e-06
1.61335e-06
1.64653e-06
1.67609e-06
1.70255e-06
1.72727e-06
1.74868e-06
1.76688e-06
1.78236e-06
1.79454e-06
1.80394e-06
1.8103e-06
1.81376e-06
1.81469e-06
1.81306e-06
1.80911e-06
1.803e-06
1.79481e-06
1.78485e-06
1.77331e-06
1.76009e-06
1.74553e-06
1.72974e-06
1.71274e-06
1.69461e-06
1.67538e-06
1.65525e-06
1.63407e-06
1.61191e-06
1.58892e-06
1.56489e-06
1.53998e-06
1.51414e-06
1.4873e-06
1.45959e-06
1.43092e-06
1.40128e-06
)
;

boundaryField
{
    inlet
    {
        type            calculated;
        value           nonuniform List<scalar> 
13
(
6.56613e-06
6.65404e-06
6.73127e-06
6.80061e-06
6.86749e-06
6.93584e-06
7.02456e-06
7.05159e-06
6.98935e-06
6.95298e-06
6.90114e-06
6.85569e-06
6.81897e-06
)
;
    }
    outlet
    {
        type            calculated;
        value           nonuniform List<scalar> 0();
    }
    walls
    {
        type            calculated;
        value           nonuniform List<scalar> 4(1.0114 0.959978 0.889541 0.707771);
    }
    frontAndBack
    {
        type            empty;
    }
    procBoundary2to1
    {
        type            processor;
        value           nonuniform List<scalar> 
84
(
61.0137
1.60989
0.250331
0.00263154
0.000180286
1.66834e-05
2.74344e-05
2.57842e-05
2.81643e-05
2.45678e-05
2.45507e-05
2.31749e-05
2.23652e-05
2.12849e-05
2.02716e-05
1.91989e-05
1.81183e-05
1.70158e-05
1.59021e-05
1.47824e-05
1.36626e-05
1.25497e-05
1.14518e-05
1.03777e-05
9.33591e-06
8.3358e-06
7.38732e-06
6.50101e-06
5.68759e-06
4.95914e-06
4.32777e-06
3.8049e-06
3.39966e-06
3.11456e-06
2.94198e-06
2.86267e-06
2.85034e-06
2.87782e-06
2.87782e-06
3.66406e-06
3.58645e-06
3.51656e-06
3.4463e-06
3.37033e-06
3.28562e-06
3.19091e-06
3.08625e-06
2.9726e-06
2.85136e-06
2.72413e-06
2.5926e-06
2.45819e-06
2.32211e-06
2.32211e-06
2.24928e-06
2.10178e-06
1.95695e-06
1.81572e-06
1.67942e-06
1.5496e-06
1.4274e-06
1.31296e-06
1.20524e-06
1.20524e-06
1.11385e-06
1.01293e-06
9.15702e-07
8.23168e-07
7.36583e-07
6.58273e-07
5.93471e-07
5.4154e-07
4.94899e-07
4.49883e-07
4.49883e-07
4.10334e-07
3.6617e-07
3.1033e-07
2.36986e-07
1.85549e-07
2.02118e-07
5.17637e-07
1.01049e-06
1.93702e-06
)
;
    }
    procBoundary2to3
    {
        type            processor;
        value           nonuniform List<scalar> 
88
(
8.17231e-07
1.60855e-06
1.82093e-07
8.17231e-07
7.48218e-07
2.01328e-07
1.82093e-07
3.23737e-07
3.72445e-07
3.27872e-07
2.01328e-07
3.07601e-07
5.32493e-07
4.93518e-07
4.6163e-07
4.31949e-07
3.72445e-07
4.01014e-07
7.47252e-07
7.00563e-07
6.53948e-07
6.08515e-07
5.32493e-07
5.63963e-07
1.01694e-06
9.73353e-07
9.29945e-07
8.87009e-07
8.44644e-07
8.02705e-07
7.47252e-07
7.60775e-07
1.37072e-06
1.33931e-06
1.30704e-06
1.27401e-06
1.24035e-06
1.20611e-06
1.17141e-06
1.13631e-06
1.10084e-06
1.06491e-06
1.02849e-06
1.01694e-06
9.91488e-07
1.39318e-06
1.24582e-06
1.27393e-06
1.2729e-06
1.33053e-06
1.36125e-06
1.39134e-06
1.41753e-06
1.4423e-06
1.46509e-06
1.48577e-06
1.50379e-06
1.51926e-06
1.53273e-06
1.54343e-06
1.55175e-06
1.55776e-06
1.56156e-06
1.56329e-06
1.563e-06
1.56081e-06
1.55697e-06
1.55157e-06
1.54473e-06
1.53655e-06
1.5272e-06
1.51681e-06
1.50535e-06
1.49302e-06
1.47977e-06
1.4657e-06
1.45086e-06
1.43521e-06
1.41882e-06
1.40166e-06
1.3837e-06
1.36501e-06
1.34545e-06
1.32506e-06
1.30387e-06
1.28176e-06
1.37072e-06
1.25876e-06
)
;
    }
    procBoundary2to6
    {
        type            processor;
        value           nonuniform List<scalar> 
13
(
18.5749
13.4698
8.78452
5.76185
3.49811
1.74423
0.577077
0.0765122
0.000655601
0.000161075
0
0
7.70638e-08
)
;
    }
}


// ************************************************************************* //
