/*--------------------------------*- C++ -*----------------------------------*\
| =========                 |                                                 |
| \\      /  F ield         | OpenFOAM: The Open Source CFD Toolbox           |
|  \\    /   O peration     | Version:  2506                                  |
|   \\  /    A nd           | Website:  www.openfoam.com                      |
|    \\/     M anipulation  |                                                 |
\*---------------------------------------------------------------------------*/
FoamFile
{
    version     2.0;
    format      ascii;
    arch        "LSB;label=32;scalar=64";
    class       surfaceScalarField;
    location    "300";
    object      phi;
}
// * * * * * * * * * * * * * * * * * * * * * * * * * * * * * * * * * * * * * //

dimensions      [0 3 -1 0 0 0 0];

oriented        oriented;

internalField   nonuniform List<scalar> 
2579
(
0.201722
0.00470613
0.194908
0.00681384
0.181087
0.0138211
0.1612
0.0198866
0.228731
0.00873082
0.223776
0.0117689
0.21343
0.0241661
0.195377
0.0379399
0.248115
0.0123447
0.242962
0.0169217
0.232676
0.034452
0.21487
0.0557461
0.265366
0.0153314
0.260639
0.0216481
0.250909
0.044182
0.232537
0.0741169
0.279289
0.0180981
0.274944
0.0259928
0.266398
0.0527281
0.248601
0.0919146
0.294567
0.0210016
0.289898
0.0306616
0.281532
0.0610937
0.26415
0.109296
0.310217
0.0239964
0.305344
0.035534
0.296962
0.0694759
0.280091
0.126167
0.326935
0.0270924
0.321875
0.0405935
0.31337
0.0779806
0.297008
0.142528
0.344476
0.0302624
0.33924
0.0458296
0.330708
0.0865124
0.314928
0.158308
0.362973
0.0335244
0.357615
0.0511879
0.349072
0.0950552
0.333851
0.173528
0.38248
0.0368378
0.376987
0.0566804
0.368455
0.103588
0.35386
0.188123
0.403012
0.0402145
0.397413
0.0622795
0.388954
0.112047
0.374995
0.202081
0.42468
0.0436138
0.419003
0.0679562
0.410581
0.120469
0.397302
0.21536
0.447487
0.0470418
0.441765
0.073678
0.433469
0.128765
0.420843
0.227986
0.471544
0.0504809
0.465804
0.0794176
0.457604
0.136965
0.445675
0.239915
0.496899
0.053907
0.491158
0.085159
0.483118
0.145004
0.471907
0.251126
0.523618
0.0573097
0.517936
0.0908418
0.51005
0.152889
0.499525
0.261651
0.551812
0.060624
0.546179
0.0964752
0.538525
0.160543
0.528696
0.27148
0.581518
0.0638761
0.576012
0.101982
0.568566
0.167989
0.559442
0.280603
0.612854
0.0670096
0.607485
0.10735
0.600287
0.175187
0.591848
0.289042
0.64589
0.0700361
0.640712
0.112529
0.633803
0.182095
0.62601
0.296835
0.680761
0.0728734
0.675767
0.117523
0.669161
0.188701
0.662061
0.303935
0.717529
0.0755427
0.712791
0.122261
0.706515
0.194977
0.700025
0.310425
0.756323
0.0779903
0.751871
0.126713
0.745924
0.200925
0.74005
0.316298
0.79725
0.0802774
0.793134
0.130829
0.78754
0.206519
0.782249
0.321589
0.840442
0.082273
0.836595
0.134676
0.831499
0.211615
0.826756
0.326332
0.886066
0.0839068
0.882668
0.138074
0.877818
0.216466
0.873614
0.330536
0.934334
0.0852772
0.931036
0.141372
0.926756
0.220746
0.923096
0.334196
0.985
0.0863737
0.982336
0.144037
0.978367
0.224715
0.975305
0.337258
1.03872
0.0871632
1.03643
0.146332
1.03294
0.228202
1.03032
0.339876
1.09548
0.0876483
1.09348
0.148335
1.09045
0.231226
1.08815
0.342179
1.15532
0.0878113
1.15386
0.149797
1.15132
0.23376
1.14943
0.344073
1.21873
0.0874082
1.21755
0.150976
1.21526
0.236054
1.21403
0.3453
1.28537
0.087068
1.28475
0.151593
1.28295
0.237854
1.28198
0.346275
1.35616
0.0861494
1.35568
0.152066
1.35449
0.239046
1.35391
0.346852
1.43082
0.0850443
1.43089
0.152
1.42981
0.240128
1.42959
0.347073
1.50967
0.0836331
1.51
0.151673
1.50951
0.240619
1.50965
0.346932
1.59319
0.0819507
1.59391
0.150957
1.59364
0.240889
1.59398
0.346586
1.6795
0.0228095
1.68134
0.0801079
1.6823
0.149999
1.68232
0.240863
1.68313
0.345782
1.77251
0.0198624
1.7746
0.0780142
1.77577
0.148828
1.77623
0.240403
1.77721
0.344805
1.87094
0.0167645
1.87315
0.0758053
1.87464
0.147334
1.87527
0.239774
1.87652
0.343555
1.97495
0.0136561
1.97737
0.0733838
1.97906
0.145647
1.9798
0.239032
1.98132
0.342034
2.08507
0.0104236
2.08756
0.0708928
2.08952
0.143685
2.09052
0.238031
2.09202
0.340529
2.20145
0.00719889
2.20414
0.0682052
2.20611
0.141715
2.20719
0.236954
2.20906
0.338659
2.32463
0.00399515
2.32737
0.0654688
2.32932
0.139768
2.33062
0.235655
2.33254
0.336739
2.45489
0.000567537
2.45752
0.062836
2.45971
0.137584
2.46092
0.234441
2.4629
0.334761
2.59251
-0.00271747
2.59529
0.0600588
2.59744
0.13544
2.59882
0.233052
2.60068
0.332904
2.738
-0.00595541
2.7408
0.0572548
2.74288
0.133362
2.74429
0.231643
2.7463
0.330895
2.89194
-0.00918449
2.8946
0.0545946
2.89687
0.131096
2.89805
0.230462
2.90005
0.328899
3.05468
-0.0125079
3.05726
0.0520234
3.05931
0.129038
3.06062
0.229159
3.06259
0.326927
3.22655
-0.0155718
3.22911
0.0494576
3.23122
0.126929
3.23229
0.228091
3.23407
0.325143
3.40818
-0.0186377
3.41088
0.0467537
3.41267
0.125146
3.41373
0.227027
3.41546
0.323416
3.59727
-0.0817551
3.60033
-0.0217041
3.60269
0.0443914
3.60452
0.123325
3.60534
0.226205
3.60689
0.321862
3.80009
-0.085525
3.80309
-0.0246955
3.80545
0.0420307
3.80724
0.121531
3.80781
0.22564
3.80928
0.320385
4.01449
-0.0893594
4.01752
-0.0277211
4.01971
0.0398383
4.02128
0.119955
4.02175
0.225174
4.02304
0.319096
4.24084
-0.0930335
4.2438
-0.0306798
4.24606
0.0375796
4.24736
0.118655
4.24762
0.224913
4.24858
0.318131
4.48002
-0.096943
4.48284
-0.033502
4.4848
0.0356177
4.48609
0.117368
4.48614
0.224862
4.48704
0.317233
4.73233
-0.100763
4.73513
-0.0362982
4.73722
0.0335294
4.73824
0.116348
4.73799
0.225109
4.73859
0.316631
4.99888
-0.104748
5.00171
-0.0391329
5.00354
0.0317055
5.00448
0.11541
5.00397
0.225611
5.00428
0.316331
5.28024
-0.108693
5.283
-0.0418846
5.28476
0.029942
5.28547
0.114694
5.28472
0.22637
5.28487
0.316177
5.57718
-0.112633
5.5799
-0.0446035
5.58147
0.0283768
5.58215
0.114011
5.58105
0.227466
5.58095
0.316283
5.8865
-0.186117
5.89061
-0.116739
5.8933
-0.0472941
5.89497
0.0267068
5.89528
0.113706
5.894
0.22874
5.89351
0.316774
6.21732
-0.192121
6.22135
-0.12077
6.22408
-0.0500227
6.22564
0.0251497
6.22584
0.113506
6.22417
0.230409
6.22348
0.317458
6.56615
-0.198278
6.5704
-0.125026
6.57319
-0.0528092
6.57443
0.0239079
6.57456
0.113375
6.57258
0.232391
6.57167
0.318374
6.93433
-0.204754
6.93886
-0.129558
6.94163
-0.0555772
6.94283
0.0227079
6.94281
0.113388
6.93962
0.235585
6.93883
0.31917
7.32246
-0.212237
7.32653
-0.133635
7.32881
-0.0578533
7.32987
0.0216417
7.33039
0.112874
7.32835
0.23762
7.32591
0.321617
7.73049
-0.217966
7.73531
-0.138451
7.73827
-0.0608151
7.74001
0.0198958
7.73871
0.114181
7.7362
0.240131
7.73505
0.322761
5.66325
-0.245991
5.69464
-0.169836
5.73097
-0.0971483
5.77024
-0.0193731
5.81691
0.0675176
5.87521
0.181822
5.92674
0.271238
6.23299
-0.277811
6.26812
-0.204969
6.30563
-0.134661
6.34994
-0.0636774
6.40173
0.0157227
6.46545
0.118102
6.52312
0.213567
6.85855
-0.312262
6.89755
-0.243975
6.94017
-0.177278
6.98964
-0.113146
7.04544
-0.0400731
7.11598
0.0475549
7.17733
0.152219
7.54895
-0.349475
7.59065
-0.285674
7.63726
-0.223884
7.69073
-0.166614
7.75318
-0.102525
7.82949
-0.0287535
7.89967
0.0820327
8.26549
-0.457609
8.30817
-0.39215
8.35273
-0.330238
8.40597
-0.277118
8.46356
-0.224206
8.53287
-0.171839
8.6176
-0.113477
8.69297
0.00666291
9.09685
-0.497959
9.14257
-0.437871
9.19393
-0.381599
9.24884
-0.332034
9.31458
-0.289941
9.38957
-0.246833
9.48173
-0.205638
9.56623
-0.0778339
10.0108
-0.542858
10.0597
-0.486781
10.1154
-0.437328
10.1785
-0.395131
10.2486
-0.360059
10.3307
-0.328907
10.4341
-0.309058
10.5252
-0.168857
11.0154
-0.592448
11.0702
-0.541555
11.1317
-0.498855
11.1993
-0.462714
11.2765
-0.437296
11.3672
-0.419615
11.48
-0.421849
11.5808
-0.269644
12.1164
-0.64662
12.177
-0.602081
12.2429
-0.564768
12.3174
-0.5372
12.4028
-0.522725
12.5016
-0.518484
12.6234
-0.543626
12.7321
-0.378322
13.3268
-0.704733
13.3923
-0.667622
13.4657
-0.638142
13.5475
-0.619068
13.6406
-0.615751
13.7504
-0.628322
13.8889
-0.682147
14.0119
-0.501254
14.6506
-0.768865
14.7223
-0.739278
14.8018
-0.717662
14.8911
-0.708365
14.9936
-0.718308
15.1115
-0.746172
15.2532
-0.823843
15.3793
-0.627386
16.1468
-0.841488
16.2277
-0.820145
16.3186
-0.80856
16.4194
-0.809122
16.5337
-0.832599
16.6715
-0.884041
16.8497
-1.00201
17.0084
-0.786085
17.778
17.8662
17.9634
18.0721
18.1951
18.3326
18.4902
18.6388
-0.178741
0.177416
-0.19124
0.207877
-0.203981
0.22761
-0.215692
0.244249
-0.226677
0.259585
-0.237029
0.274502
-0.246832
0.289894
-0.256041
0.306217
-0.264637
0.323524
-0.272602
0.341816
-0.279967
0.361225
-0.286706
0.381734
-0.292843
0.403439
-0.298394
0.426393
-0.303383
0.450665
-0.307828
0.476352
-0.311796
0.503493
-0.31529
0.53219
-0.318367
0.56252
-0.321073
0.594554
-0.323455
0.628393
-0.325562
0.664167
-0.327443
0.701906
-0.329147
0.741755
-0.330719
0.78382
-0.332201
0.828238
-0.333634
0.875047
-0.335053
0.924515
-0.33649
0.976742
-0.337973
1.0318
-0.339526
1.0897
-0.341159
1.15106
-0.342924
1.2158
-0.344799
1.28385
-0.346808
1.35592
-0.34896
1.43174
-0.351259
1.51195
-0.353708
1.59643
-0.356309
1.68573
-0.359057
1.77996
-0.361949
1.87941
-0.364976
1.98435
-0.368129
2.09518
-0.371381
2.21231
-0.374746
2.3359
-0.378207
2.46636
-0.381721
2.60419
-0.385284
2.74986
-0.388878
2.90364
-0.392485
3.06619
-0.396086
3.23768
-0.399664
3.41904
-0.403203
3.61043
-0.406686
3.81277
-0.410098
4.02645
-0.413426
4.25191
-0.416658
4.49027
-0.419787
4.74172
-0.422805
5.00729
-0.425709
5.28777
-0.428479
5.58372
-0.431157
5.89619
-0.433693
6.22602
-0.436099
6.57407
-0.438373
6.9411
-0.440515
7.32805
-0.442529
7.73707
-0.443914
5.92812
-0.445305
6.52451
-0.44668
7.1787
-0.448079
7.90107
-0.449448
8.69433
-0.450777
9.56756
-0.452055
10.5264
-0.453088
11.5818
-0.454198
12.7332
-0.45432
14.012
-0.45713
15.3821
-0.45532
17.0066
18.6481
-0.19262
0.191186
-0.20049
0.215747
-0.206858
0.233979
-0.211808
0.249199
-0.216058
0.263834
-0.220308
0.278751
-0.224872
0.294458
-0.229752
0.311096
-0.234909
0.328682
-0.240314
0.34722
-0.245899
0.366811
-0.251653
0.387488
-0.257523
0.409309
-0.263465
0.432335
-0.269433
0.456633
-0.275392
0.482311
-0.28127
0.509371
-0.287054
0.537974
-0.2927
0.568165
-0.298175
0.600029
-0.303453
0.633671
-0.308514
0.669229
-0.313347
0.706739
-0.317947
0.746354
-0.322315
0.788188
-0.326459
0.832382
-0.330394
0.878982
-0.334139
0.928259
-0.337716
0.980319
-0.34115
1.03524
-0.344469
1.09302
-0.347711
1.1543
-0.350869
1.21895
-0.354003
1.28699
-0.357124
1.35904
-0.360255
1.43487
-0.363414
1.5151
-0.366616
1.59964
-0.369873
1.68899
-0.373196
1.78328
-0.376588
1.8828
-0.380054
1.98781
-0.383592
2.09871
-0.387212
2.21593
-0.390883
2.33957
-0.394596
2.47007
-0.398367
2.60796
-0.40217
2.75367
-0.405993
2.90746
-0.409821
3.07002
-0.413639
3.24149
-0.417433
3.42283
-0.421187
3.61418
-0.424885
3.81646
-0.428515
4.03008
-0.432061
4.25546
-0.435527
4.49374
-0.438876
4.74507
-0.442099
5.01052
-0.445222
5.2909
-0.448239
5.58673
-0.4511
5.89905
-0.453846
6.22876
-0.456472
6.5767
-0.458929
6.94356
-0.461263
7.33038
-0.463464
7.73927
-0.464996
5.92965
-0.466507
6.52603
-0.468052
7.18025
-0.469563
7.90258
-0.471076
8.69585
-0.47255
9.56903
-0.473974
10.5279
-0.475138
11.583
-0.476399
12.7345
-0.476648
14.0122
-0.479725
15.3852
-0.478443
17.0053
18.6575
-0.221795
0.203302
-0.229684
0.223636
-0.235799
0.240093
-0.240805
0.254204
-0.245322
0.268351
-0.249726
0.283156
-0.254098
0.29883
-0.258426
0.315425
-0.262683
0.332939
-0.266896
0.351433
-0.271075
0.370989
-0.275214
0.391626
-0.279332
0.413427
-0.283432
0.436434
-0.287542
0.460743
-0.291664
0.486433
-0.295814
0.513521
-0.299971
0.54213
-0.304164
0.572358
-0.308383
0.604248
-0.312635
0.637923
-0.316884
0.673478
-0.32115
0.711005
-0.325424
0.750628
-0.329673
0.792437
-0.333885
0.836594
-0.33807
0.883167
-0.342211
0.9324
-0.346299
0.984407
-0.350331
1.03927
-0.354305
1.097
-0.358225
1.15822
-0.362096
1.22283
-0.365937
1.29083
-0.369733
1.36284
-0.373508
1.43864
-0.377273
1.51887
-0.381038
1.6034
-0.384802
1.69275
-0.38861
1.78709
-0.392421
1.88661
-0.396278
1.99167
-0.400183
2.10262
-0.404099
2.21985
-0.408064
2.34353
-0.412059
2.47407
-0.416094
2.612
-0.420133
2.75771
-0.424181
2.91151
-0.428213
3.07405
-0.432244
3.24552
-0.436262
3.42685
-0.440211
3.61813
-0.444119
3.82037
-0.447974
4.03394
-0.451718
4.2592
-0.455384
4.4974
-0.458948
4.74863
-0.462402
5.01397
-0.465741
5.29423
-0.468958
5.58995
-0.472049
5.90214
-0.475005
6.23172
-0.477823
6.57951
-0.480513
6.94625
-0.483045
7.33291
-0.485423
7.74165
-0.487076
5.93131
-0.488759
6.52771
-0.490417
7.18191
-0.492108
7.90428
-0.493758
8.6975
-0.4954
9.57067
-0.496984
10.5294
-0.498274
11.5843
-0.499718
12.7359
-0.500052
14.0126
-0.503498
15.3887
-0.502555
17.0044
18.6673
-0.250501
0.211586
-0.255865
0.228999
-0.259613
0.24384
-0.262855
0.257446
-0.266104
0.2716
-0.269505
0.286556
-0.273046
0.302369
-0.276697
0.319076
-0.280444
0.336685
-0.284272
0.35526
-0.288169
0.374887
-0.292122
0.395579
-0.296118
0.417423
-0.300145
0.440461
-0.3042
0.464798
-0.308248
0.49048
-0.312307
0.51758
-0.316362
0.546186
-0.320411
0.576407
-0.324451
0.608288
-0.328483
0.641954
-0.332518
0.677512
-0.336528
0.715015
-0.340548
0.754647
-0.344568
0.796458
-0.348594
0.84062
-0.352626
0.887199
-0.356666
0.936439
-0.360713
0.988455
-0.364769
1.04333
-0.36883
1.10106
-0.372897
1.16229
-0.376968
1.2269
-0.381041
1.2949
-0.385118
1.36692
-0.389198
1.44272
-0.393284
1.52296
-0.397378
1.60749
-0.401494
1.69687
-0.4056
1.79119
-0.409735
1.89075
-0.413889
1.99582
-0.418063
2.10679
-0.422259
2.22404
-0.426475
2.34775
-0.430708
2.4783
-0.434955
2.61625
-0.43921
2.76196
-0.443466
2.91577
-0.447715
3.0783
-0.451946
3.24976
-0.456149
3.43105
-0.460312
3.6223
-0.464421
3.82448
-0.468464
4.03798
-0.472442
4.26318
-0.476302
4.50126
-0.480076
4.75241
-0.483758
5.01765
-0.487311
5.29779
-0.490729
5.59337
-0.494035
5.90545
-0.497205
6.23489
-0.500233
6.58254
-0.503116
6.94913
-0.505852
7.33565
-0.508445
7.74424
-0.510241
5.9331
-0.512056
6.52952
-0.513883
7.18374
-0.515716
7.90611
-0.517544
8.69933
-0.519336
9.57247
-0.521084
10.5312
-0.522529
11.5857
-0.524156
12.7375
-0.524663
14.0131
-0.528367
15.3924
-0.527982
17.004
18.6772
-0.286197
0.217455
-0.289693
0.232496
-0.291866
0.246013
-0.293861
0.259441
-0.295969
0.273708
-0.298217
0.288805
-0.300563
0.304715
-0.303029
0.321542
-0.305609
0.339265
-0.308309
0.35796
-0.31113
0.377708
-0.314074
0.398523
-0.31714
0.420489
-0.320337
0.443657
-0.323633
0.468094
-0.327051
0.493898
-0.330574
0.521104
-0.334197
0.549808
-0.337908
0.580119
-0.3417
0.61208
-0.345561
0.645816
-0.349483
0.681434
-0.353454
0.718987
-0.357467
0.75866
-0.361513
0.800504
-0.365587
0.844694
-0.369683
0.891295
-0.373798
0.940554
-0.37793
0.992587
-0.382077
1.04747
-0.386238
1.10522
-0.390415
1.16647
-0.394607
1.23109
-0.398814
1.29911
-0.403038
1.37114
-0.40728
1.44697
-0.411539
1.52721
-0.415816
1.61177
-0.420113
1.70116
-0.424429
1.79551
-0.428764
1.89508
-0.433131
2.00019
-0.437492
2.11116
-0.441884
2.22844
-0.446293
2.35216
-0.450714
2.48272
-0.455146
2.62068
-0.459583
2.7664
-0.464018
2.9202
-0.468445
3.08273
-0.472869
3.25418
-0.477238
3.43542
-0.481583
3.62664
-0.485878
3.82878
-0.490111
4.04221
-0.494268
4.26734
-0.498341
4.50534
-0.502317
4.75639
-0.506191
5.02153
-0.509954
5.30155
-0.513599
5.59702
-0.517132
5.90898
-0.520501
6.23826
-0.523742
6.58578
-0.526836
6.95222
-0.52978
7.33859
-0.532579
7.74704
-0.534523
5.93505
-0.536493
6.53149
-0.538481
7.18572
-0.540481
7.90811
-0.54248
8.70132
-0.544448
9.57443
-0.546369
10.5331
-0.547994
11.5874
-0.549774
12.7393
-0.550547
14.0138
-0.554414
15.3962
-0.554735
-0.323324
0.221318
-0.325437
0.234609
-0.32693
0.247506
-0.328515
0.261026
-0.330213
0.275406
-0.331989
0.290581
-0.333859
0.306585
-0.33579
0.323472
-0.33782
0.341295
-0.339924
0.360064
-0.342107
0.379891
-0.34439
0.400805
-0.346766
0.422865
-0.34924
0.446131
-0.351813
0.470668
-0.35449
0.496574
-0.357273
0.523887
-0.360174
0.552709
-0.363175
0.58312
-0.366286
0.615191
-0.369497
0.649027
-0.372827
0.684763
-0.376272
0.722431
-0.379797
0.762185
-0.383428
0.804136
-0.38716
0.848426
-0.390964
0.895099
-0.394845
0.944435
-0.398794
0.996536
-0.402806
1.05149
-0.406872
1.10929
-0.410989
1.17058
-0.415151
1.23525
-0.419343
1.3033
-0.423585
1.37538
-0.427862
1.45124
-0.432173
1.53153
-0.436517
1.61612
-0.440892
1.70554
-0.445297
1.79991
-0.449744
1.89953
-0.454193
2.00464
-0.45868
2.11564
-0.463204
2.23296
-0.467737
2.35669
-0.472287
2.48727
-0.476837
2.62523
-0.481409
2.77097
-0.485983
2.92478
-0.490567
3.08731
-0.495111
3.25872
-0.499647
3.43995
-0.504164
3.63116
-0.508623
3.83324
-0.513012
4.0466
-0.517347
4.27167
-0.521602
4.50959
-0.525769
4.76055
-0.529838
5.0256
-0.533802
5.30552
-0.537653
5.60087
-0.54138
5.91271
-0.544989
6.24187
-0.548427
6.58922
-0.551733
6.95553
-0.554889
7.34175
-0.557913
7.75006
-0.559994
5.93713
-0.562123
6.53362
-0.564279
7.18788
-0.566452
7.91028
-0.568649
8.70352
-0.570788
9.57657
-0.572891
10.5352
-0.574707
11.5892
-0.576671
12.7413
-0.577712
-0.360598
0.223407
-0.361796
0.235808
-0.36295
0.24866
-0.364255
0.262332
-0.365636
0.276787
-0.367085
0.29203
-0.368602
0.308102
-0.37019
0.32506
-0.371852
0.342958
-0.373591
0.361804
-0.37541
0.381709
-0.37731
0.402705
-0.379294
0.424849
-0.381363
0.4482
-0.38352
0.472825
-0.385767
0.498821
-0.388106
0.526225
-0.390538
0.555141
-0.393066
0.585647
-0.395691
0.617816
-0.398416
0.651751
-0.401241
0.687589
-0.40417
0.72536
-0.407202
0.765217
-0.410339
0.807273
-0.41358
0.851667
-0.416926
0.898445
-0.420374
0.947883
-0.423924
1.00009
-0.427571
1.05513
-0.431311
1.11303
-0.435141
1.17441
-0.439057
1.23917
-0.443052
1.3073
-0.447122
1.37945
-0.451261
1.45538
-0.455466
1.53573
-0.459732
1.62038
-0.464053
1.70986
-0.468428
1.80429
-0.472851
1.90395
-0.477319
2.00911
-0.481829
2.12015
-0.486376
2.23751
-0.490958
2.36127
-0.495568
2.49188
-0.500202
2.62986
-0.504855
2.77562
-0.509521
2.92944
-0.514191
3.09198
-0.518858
3.26339
-0.523513
3.44461
-0.528144
3.63579
-0.53274
3.83783
-0.537289
4.05115
-0.541779
4.27616
-0.546199
4.51401
-0.550539
4.76489
-0.554789
5.02985
-0.558943
5.30967
-0.563004
5.60493
-0.566918
5.91662
-0.570718
6.24567
-0.574379
6.59288
-0.577896
6.95904
-0.581264
7.34512
-0.584486
7.75328
-0.586737
5.93938
-0.58903
6.53592
-0.591358
7.19021
-0.593713
7.91264
-0.596083
8.70589
-0.598434
9.57892
-0.600731
10.5375
-0.602749
-0.398587
0.224409
-0.399407
0.236628
-0.400376
0.249629
-0.401428
0.263383
-0.402527
0.277886
-0.40368
0.293183
-0.40489
0.309312
-0.406171
0.326341
-0.407497
0.344283
-0.4089
0.363207
-0.410383
0.383193
-0.411931
0.404253
-0.413556
0.426474
-0.415251
0.449895
-0.417041
0.474614
-0.418927
0.500708
-0.420893
0.528191
-0.422941
0.557189
-0.425095
0.587801
-0.427345
0.620066
-0.429705
0.654111
-0.432145
0.690029
-0.434698
0.727913
-0.437365
0.767884
-0.440127
0.810034
-0.442983
0.854523
-0.445956
0.901418
-0.449036
0.950963
-0.452223
1.00327
-0.455516
1.05843
-0.458915
1.11642
-0.46242
1.17792
-0.466028
1.24277
-0.469748
1.31102
-0.473555
1.38326
-0.477457
1.45928
-0.481451
1.53972
-0.485531
1.62446
-0.489682
1.71401
-0.493936
1.80854
-0.498238
1.90826
-0.50262
2.01349
-0.507078
2.12461
-0.511569
2.242
-0.516125
2.36583
-0.520727
2.49649
-0.525383
2.63452
-0.53006
2.7803
-0.534764
2.93415
-0.539474
3.09669
-0.544207
3.26812
-0.548955
3.44936
-0.553665
3.6405
-0.558366
3.84253
-0.563046
4.05583
-0.567652
4.28077
-0.572227
4.51859
-0.57672
4.76938
-0.58112
5.03425
-0.585448
5.314
-0.589677
5.60916
-0.593797
5.92074
-0.597794
6.24967
-0.601673
6.59676
-0.605397
6.96277
-0.608977
7.3487
-0.612397
7.7567
-0.614821
5.9418
-0.617281
6.53838
-0.619787
7.19271
-0.62233
7.91518
-0.624882
-0.627453
-0.437531
0.225021
-0.438273
0.237371
-0.439083
0.250438
-0.439939
0.26424
-0.440834
0.27878
-0.441784
0.294133
-0.442761
0.310289
-0.443799
0.327379
-0.444889
0.345374
-0.446036
0.364354
-0.447242
0.384399
-0.448511
0.405522
-0.449846
0.427809
-0.45126
0.45131
-0.452737
0.476091
-0.454281
0.502251
-0.455916
0.529826
-0.457635
0.558908
-0.459442
0.589608
-0.461342
0.621966
-0.463337
0.656106
-0.465441
0.692133
-0.467626
0.730097
-0.469926
0.770185
-0.472333
0.812441
-0.47485
0.85704
-0.477477
0.904045
-0.480217
0.953703
-0.48307
1.00613
-0.486036
1.06139
-0.489128
1.11952
-0.492311
1.1811
-0.495618
1.24608
-0.499038
1.31444
-0.502568
1.38679
-0.506208
1.46292
-0.509955
1.54347
-0.513806
1.62831
-0.51777
1.71797
-0.521808
1.81258
-0.525963
1.91241
-0.530195
2.01772
-0.534499
2.12891
-0.538893
2.24639
-0.54336
2.37029
-0.547893
2.50102
-0.552486
2.63911
-0.557132
2.78495
-0.561823
2.93884
-0.566551
3.10142
-0.571319
3.27289
-0.576078
3.45412
-0.580869
3.64529
-0.58564
3.8473
-0.590378
4.06057
-0.595112
4.2855
-0.599774
4.52325
-0.604396
4.77401
-0.608969
5.03882
-0.613452
5.31848
-0.617835
5.61354
-0.622146
5.92505
-0.626316
6.25384
-0.630375
6.60082
-0.634301
6.96669
-0.638089
7.35249
-0.641752
-0.644303
-0.646933
-0.64962
-0.477583
0.22559
-0.478234
0.238021
-0.478927
0.251132
-0.479637
0.264949
-0.480382
0.279526
-0.481154
0.294906
-0.481988
0.311123
-0.482843
0.328233
-0.483764
0.346295
-0.484723
0.365312
-0.48572
0.385397
-0.486783
0.406584
-0.487902
0.428928
-0.48908
0.452489
-0.490322
0.477333
-0.491631
0.50356
-0.493011
0.531205
-0.494475
0.560373
-0.496007
0.59114
-0.497621
0.62358
-0.49931
0.657795
-0.5011
0.693923
-0.502995
0.731992
-0.504965
0.772155
-0.507049
0.814524
-0.509249
0.85924
-0.511546
0.906342
-0.513955
0.956111
-0.516478
1.00865
-0.519117
1.06403
-0.521863
1.12226
-0.524752
1.18399
-0.52775
1.24908
-0.530857
1.31754
-0.534097
1.39003
-0.537456
1.46628
-0.540935
1.54695
-0.54453
1.63191
-0.548242
1.72169
-0.552066
1.8164
-0.555999
1.91634
-0.560038
2.02176
-0.564178
2.13305
-0.568428
2.25064
-0.572757
2.37462
-0.577172
2.50543
-0.581652
2.64359
-0.586218
2.78951
-0.590849
2.94347
-0.595549
3.10612
-0.600268
3.27761
-0.605037
3.45888
-0.60983
3.65008
-0.614634
3.85211
-0.619437
4.06537
-0.624225
4.29029
-0.628987
4.52801
-0.633712
4.77873
-0.63839
5.0435
-0.643008
5.3231
-0.647568
5.6181
-0.652012
-0.656384
-0.660613
-0.664732
-0.518839
0.226112
-0.519389
0.238571
-0.519947
0.25169
-0.520543
0.265546
-0.521171
0.280153
-0.521841
0.295576
-0.522523
0.311805
-0.523264
0.328974
-0.524021
0.347052
-0.52483
0.366121
-0.525693
0.38626
-0.526592
0.407483
-0.52754
0.429876
-0.528529
0.453478
-0.529596
0.4784
-0.53071
0.504674
-0.531887
0.532382
-0.533119
0.561604
-0.534431
0.592453
-0.535817
0.624966
-0.537293
0.65927
-0.538838
0.695468
-0.540457
0.733612
-0.542189
0.773887
-0.544003
0.816338
-0.545903
0.86114
-0.547917
0.908356
-0.550036
0.95823
-0.552264
1.01088
-0.554606
1.06637
-0.557062
1.12472
-0.559638
1.18657
-0.562335
1.25178
-0.565167
1.32037
-0.568112
1.39298
-0.571183
1.46935
-0.57438
1.55015
-0.577704
1.63523
-0.581153
1.72514
-0.584726
1.81998
-0.588409
1.92003
-0.592225
2.02558
-0.596169
2.137
-0.600201
2.25467
-0.604354
2.37878
-0.60861
2.50969
-0.612976
2.64796
-0.617421
2.79396
-0.62195
2.948
-0.626541
3.11071
-0.631212
3.28228
-0.635951
3.46362
-0.640708
3.65484
-0.645509
3.85691
-0.650342
-0.655166
-0.659984
-0.664783
-0.66954
-0.674283
-0.56136
0.226557
-0.561821
0.239033
-0.562314
0.252183
-0.562821
0.266053
-0.563354
0.280686
-0.563903
0.296125
-0.564504
0.312406
-0.565113
0.329583
-0.565778
0.347717
-0.566467
0.36681
-0.567182
0.386975
-0.567949
0.408249
-0.568758
0.430685
-0.569625
0.454344
-0.570517
0.479292
-0.571472
0.505629
-0.572482
0.533392
-0.573562
0.562685
-0.574693
0.593583
-0.57589
0.626162
-0.577144
0.660525
-0.578485
0.696809
-0.579914
0.735041
-0.581403
0.775376
-0.582989
0.817925
-0.584678
0.862829
-0.586449
0.910127
-0.588319
0.960101
-0.590292
1.01285
-0.592373
1.06845
-0.594563
1.12691
-0.596857
1.18886
-0.599292
1.25421
-0.601825
1.32291
-0.604493
1.39564
-0.607288
1.47215
-0.610211
1.55307
-0.613264
1.63828
-0.616447
1.72832
-0.619762
1.82329
-0.623219
1.92349
-0.626794
2.02915
-0.630483
-0.634311
-0.638274
-0.642343
-0.646512
-0.650803
-0.655195
-0.659696
-0.664268
-0.668902
-0.673628
-0.605291
-0.605673
-0.606087
-0.606522
-0.60698
-0.607461
-0.607967
-0.608512
-0.609062
-0.609655
-0.61028
-0.610952
-0.611649
-0.612375
-0.613155
-0.613992
-0.614866
-0.61578
-0.616761
-0.6178
-0.618914
-0.62007
-0.621309
-0.622622
-0.624025
-0.625487
-0.627049
-0.628702
-0.630452
-0.632301
-0.634256
-0.636331
-0.638496
-0.640789
-0.643204
-0.645742
-0.648407
-0.651215
-0.654129
-0.657189
-0.660384
)
;

boundaryField
{
    inlet
    {
        type            calculated;
        value           nonuniform List<scalar> 
13
(
-0.919737
-0.908389
-0.905705
-0.917904
-0.955567
-1.02149
-1.15968
-0.93461
-0.46462
-0.487896
-0.512347
-0.537871
-0.564585
)
;
    }
    outlet
    {
        type            calculated;
        value           nonuniform List<scalar> 0();
    }
    walls
    {
        type            calculated;
        value           uniform 0;
    }
    frontAndBack
    {
        type            empty;
    }
    procBoundary2to1
    {
        type            processor;
        value           nonuniform List<scalar> 
84
(
-0.206428
-0.232756
-0.251729
-0.268352
-0.282056
-0.297471
-0.313211
-0.330031
-0.347646
-0.366236
-0.385793
-0.406389
-0.428079
-0.450915
-0.474983
-0.500325
-0.527021
-0.555127
-0.58477
-0.615987
-0.648917
-0.683598
-0.720198
-0.758771
-0.799537
-0.842438
-0.8877
-0.935705
-0.986097
-1.03951
-1.09597
-1.15548
-1.21833
-1.28503
-1.35524
-1.42972
-1.50826
-1.59151
-0.0257167
-1.67659
-1.76956
-1.86784
-1.97184
-2.08183
-2.19823
-2.32143
-2.45146
-2.58923
-2.73476
-2.88871
-3.05136
-3.22348
-3.40511
0.0779024
-3.59341
-3.79632
-4.01066
-4.23716
-4.47611
-4.72851
-4.9949
-5.2763
-5.57324
0.18048
-5.88087
-6.21131
-6.55999
-6.92785
-7.31497
-7.72476
-5.63523
-6.20117
-6.8241
-7.51174
0.420398
-8.22828
-9.0565
-9.96588
-10.9658
-12.0623
-13.2686
-14.5865
-16.0742
-17.6997
)
;
    }
    procBoundary2to3
    {
        type            processor;
        value           nonuniform List<scalar> 
88
(
17.0043
18.687
14.0149
-0.581776
15.4003
11.5912
-0.604882
12.7434
8.70844
9.58149
-0.629953
10.54
7.76037
5.94435
6.54101
7.1954
-0.652357
7.91792
5.9295
6.25821
6.60505
6.97081
-0.668723
7.35648
4.0702
4.29511
4.53283
4.78353
5.04825
5.32784
-0.678942
5.62276
2.14069
2.2585
2.38274
2.51376
2.65213
2.79825
2.95239
3.11521
3.28686
3.46826
3.65956
-0.678391
3.86167
0.226945
0.239415
0.252597
0.266488
0.281143
0.296606
0.312912
0.330128
0.348267
0.367402
0.3876
0.408921
0.431382
0.45507
0.480072
0.506467
0.534267
0.563599
0.594564
0.627202
0.661639
0.697965
0.73628
0.776688
0.819328
0.864291
0.911689
0.961754
1.0146
1.0703
1.12886
1.19094
1.25638
1.3252
1.39806
1.47469
1.55574
1.64109
1.73123
1.82635
1.92668
-0.663714
2.03248
)
;
    }
    procBoundary2to6
    {
        type            processor;
        value           nonuniform List<scalar> 
13
(
0.162521
0.178849
0.209677
0.242215
0.280327
0.319461
0.358508
0.397584
0.436919
0.477014
0.518318
0.560914
0.604903
)
;
    }
}


// ************************************************************************* //
