/*--------------------------------*- C++ -*----------------------------------*\
| =========                 |                                                 |
| \\      /  F ield         | OpenFOAM: The Open Source CFD Toolbox           |
|  \\    /   O peration     | Version:  2506                                  |
|   \\  /    A nd           | Website:  www.openfoam.com                      |
|    \\/     M anipulation  |                                                 |
\*---------------------------------------------------------------------------*/
FoamFile
{
    version     2.0;
    format      ascii;
    arch        "LSB;label=32;scalar=64";
    class       volScalarField;
    location    "450";
    object      p;
}
// * * * * * * * * * * * * * * * * * * * * * * * * * * * * * * * * * * * * * //

dimensions      [0 2 -2 0 0 0 0];

internalField   nonuniform List<scalar> 
1340
(
81.3074
101.369
120.305
139.881
159.228
77.3742
95.9809
113.528
131.747
149.817
166.003
73.2593
90.595
106.93
123.959
140.902
156.125
169.714
69.0921
85.3008
100.571
116.542
132.481
146.845
159.753
170.585
64.9588
80.1611
94.4803
109.508
124.542
138.134
150.414
160.795
168.62
60.9152
75.2129
88.6773
102.852
117.067
129.954
141.654
151.61
159.193
164.368
56.9983
70.4771
83.1681
96.5658
110.033
122.275
133.434
142.987
150.33
155.424
53.2331
65.9643
77.9519
90.6381
103.418
115.064
125.718
134.887
141.991
146.987
150.108
49.6336
61.6783
73.0212
85.0521
97.1971
108.291
118.471
127.274
134.141
139.029
142.162
46.2067
57.6187
68.3673
79.792
91.3487
101.925
111.659
120.113
126.749
131.52
134.644
136.309
42.956
53.7813
63.9801
74.8418
85.8505
95.9417
105.254
113.376
119.783
124.431
127.531
129.261
39.8809
50.1615
59.8484
70.1848
80.6808
90.3167
99.2307
107.034
113.22
117.741
120.803
122.575
36.9793
46.7512
55.9605
65.8049
75.8197
85.0266
93.5634
101.062
107.031
111.423
114.438
116.236
117.016
34.2473
43.5422
52.3057
61.688
71.249
80.0515
88.2301
95.4371
101.195
105.456
108.417
110.227
111.079
31.6797
40.5267
48.8711
57.8191
66.9525
75.3719
83.2092
90.1363
95.6891
99.8214
102.721
104.534
105.44
105.629
29.2701
37.6959
45.6464
54.1842
62.9126
70.9688
78.4811
85.1403
90.495
94.499
97.3345
99.1402
100.089
100.364
27.0126
35.0414
42.6201
50.77
59.1142
66.8257
74.0286
80.4301
85.5935
89.471
92.2397
94.0315
95.0113
95.3587
24.901
32.5542
39.7816
47.5641
55.5441
62.9273
69.8353
75.9894
80.9673
84.7208
87.421
89.1936
90.1963
90.6032
90.5335
22.9283
30.2258
37.1208
44.5551
52.1884
59.259
65.8856
71.8021
76.6008
80.2328
82.8638
84.6134
85.6317
86.0883
86.0987
21.0879
28.0483
34.6278
41.7314
49.0344
55.807
62.1647
67.8534
72.4787
75.9923
78.5539
80.2773
81.3056
81.8034
81.8829
19.3734
26.0135
32.2932
39.0824
46.071
52.559
58.6593
64.1294
68.5873
71.9856
74.478
76.1729
77.2067
77.738
77.8773
77.7053
17.7781
24.1137
30.1085
36.5982
43.2869
49.5029
55.357
60.6167
64.9138
68.2001
70.624
72.2884
73.3236
73.883
74.0733
73.9734
22.3415
28.0654
34.2695
40.6713
46.6276
52.2458
57.3036
61.4455
64.6229
66.9795
68.6124
69.6462
70.2285
70.4625
70.4254
70.1669
20.6898
26.1555
32.087
38.215
43.9227
49.3149
54.1789
58.1708
61.2431
63.5334
65.1341
66.1635
66.7642
67.0364
67.0541
66.8671
19.1518
24.3713
30.0426
35.9087
41.3783
46.5539
51.2313
55.079
58.0493
60.2746
61.8425
62.8655
63.4809
63.7857
63.8516
63.7275
17.7208
22.7053
28.128
33.7434
38.9851
43.9529
48.4511
52.1598
55.0314
57.1928
58.7279
59.7426
60.3697
60.7028
60.8106
60.7414
60.5235
16.3907
21.1508
26.3356
31.7112
36.7346
41.5028
45.8286
49.4031
52.1793
54.2786
55.7807
56.7857
57.4217
57.7786
57.9231
57.9024
57.7448
15.1555
19.7012
24.6584
29.8042
34.6182
39.1948
43.3549
46.8001
49.4838
51.5224
52.9915
53.9857
54.6281
55.0055
55.1818
55.2036
55.0989
14.0092
18.3502
23.0893
28.015
32.6282
37.0209
41.0212
44.342
46.9361
48.9156
50.3516
51.3338
51.9806
52.3752
52.5792
52.6382
52.5799
52.4194
12.9467
17.0917
21.6222
26.3366
30.7573
34.9731
38.8198
42.0202
44.5278
46.4495
47.8527
48.8221
49.4712
49.8802
50.1081
50.1994
50.1818
50.0706
11.9627
15.9202
20.2508
24.7628
28.9985
33.0445
36.7431
39.8273
42.251
44.1163
45.4868
46.4426
47.0922
47.5131
47.7615
47.881
47.8988
47.8305
11.0524
14.8303
18.9694
23.287
27.3452
31.2277
34.7837
37.7558
40.0983
41.9085
43.2464
44.1878
44.8365
45.2667
45.5326
45.6763
45.7249
45.694
45.591
10.2109
13.817
17.7723
21.9036
25.7912
29.5163
32.935
35.7988
38.0623
39.8186
41.1243
42.0506
42.6969
43.1343
43.4149
43.5794
43.6546
43.6561
43.5919
9.43378
12.8753
16.6545
20.6069
24.3306
27.9044
31.1905
33.9494
36.1364
37.8401
39.1137
40.0241
40.6666
41.1093
41.402
41.5843
41.6823
41.7116
41.681
8.7169
12.0008
15.6111
19.3915
22.9576
26.3857
29.5439
32.2016
34.3142
35.9663
37.208
38.1019
38.7393
39.1855
39.488
39.6852
39.8026
39.8558
39.854
39.7999
8.05621
11.189
14.6373
18.2527
21.6673
24.9551
27.9898
30.5494
32.5897
34.1913
35.4011
36.2779
36.9091
37.357
37.6671
37.8768
38.0106
38.084
38.1068
38.0824
7.44787
10.436
13.7287
17.1857
20.4545
23.607
26.5225
28.9871
30.9571
32.5092
33.6872
34.5465
35.1702
35.6184
35.9341
36.1537
36.3012
36.3917
36.4354
36.4362
6.88836
9.73769
12.8813
16.1859
19.3145
22.3368
25.137
27.5096
29.4111
30.9145
32.0608
32.902
33.5173
33.9642
34.2837
34.5112
34.6699
34.7746
34.8358
34.8579
34.8415
6.37423
9.09058
12.0909
15.2492
18.243
21.1395
23.8284
26.1117
27.9465
29.4022
30.5169
31.3393
31.9453
32.3895
32.7113
32.9447
33.1122
33.2287
33.3044
33.3444
33.3499
5.90224
8.49114
11.3539
14.3717
17.2355
20.0109
22.5922
24.7888
26.5586
27.9672
29.0505
29.8538
30.4494
30.8897
31.2123
31.4498
31.6242
31.75
31.8376
31.8925
31.9163
5.4694
7.93615
10.6669
13.5495
16.2883
18.9467
21.4239
23.5365
25.2428
26.6053
27.6571
28.4407
29.0252
29.4604
29.7823
30.0224
30.202
30.3352
30.4323
30.4992
30.5382
5.07289
7.42246
10.0265
12.7791
15.3975
17.9432
20.3195
22.3505
23.9949
25.3119
26.3323
27.0959
27.6684
28.0976
28.4176
28.6588
28.8418
28.9806
29.0852
29.1619
29.2133
29.2391
4.70994
6.94723
9.42959
12.0572
14.5597
16.9964
19.2752
21.2268
22.8109
24.083
25.0722
25.8154
26.3753
26.7974
27.1144
27.3554
27.5405
27.6832
27.7936
27.8778
27.9393
27.978
4.37808
6.50768
8.87322
11.3806
13.7714
16.103
18.2873
20.1619
21.6869
22.9149
23.8729
24.5954
25.142
25.5563
25.8692
26.109
26.2949
26.44
26.5545
26.6447
26.7139
26.7631
4.07492
6.10125
8.35464
10.7465
13.0296
15.2597
17.3524
19.1522
20.6193
21.8039
22.731
23.4325
23.9653
24.3709
24.6789
24.9163
25.102
25.2484
25.3656
25.4601
25.5354
25.5928
3.79822
5.72553
7.87125
10.1519
12.3313
14.4634
16.4673
18.1943
19.605
20.7468
21.643
22.3233
22.8418
23.2382
23.5405
23.7747
23.959
24.1057
24.2245
24.3218
24.4017
24.4655
24.5127
3.5459
5.37824
7.42059
9.59432
11.6737
13.711
15.629
17.2852
18.6405
19.7402
20.6058
21.2649
21.7687
22.1552
22.4511
22.6814
22.8636
23.0096
23.1289
23.228
23.3109
23.3795
23.4338
3.31599
5.05728
7.00039
9.07124
11.0542
13.0001
14.8346
16.4218
17.7231
18.7813
19.6166
20.2543
20.7431
21.1193
21.4082
21.6339
21.8133
21.9578
22.0767
22.1766
22.2616
22.3336
22.3932
3.10667
4.76064
6.60851
8.58041
10.4704
12.3278
14.0814
15.6016
16.8496
17.8672
18.6726
19.2889
19.7625
20.1279
20.4094
20.63
20.8059
20.9482
21.0661
21.166
21.2519
21.3263
21.3899
2.91622
4.48651
6.24297
8.11966
9.91994
11.6919
13.3669
14.8217
16.0176
16.9952
17.7712
18.3662
18.8244
19.1787
19.4523
19.6674
19.8393
19.979
20.0953
20.1944
20.2806
20.3563
20.4227
2.74302
4.23311
5.90191
7.68699
9.40081
11.0901
12.6887
14.08
15.2243
16.1628
16.91
17.4839
17.9265
18.2695
18.535
18.7441
18.9117
19.0483
19.1624
19.2603
19.346
19.4223
19.4906
19.5482
2.58563
3.99884
5.58356
7.28045
8.91088
10.5202
12.0446
13.3739
14.4674
15.3677
16.0868
16.6397
17.0666
17.3982
17.6553
17.8582
18.0212
18.1543
18.266
18.3621
18.447
18.5232
18.5925
18.6526
2.44269
3.78221
5.28625
6.89818
8.44813
9.98009
11.4321
12.7011
13.7444
14.608
15.2998
15.8317
16.2428
16.5628
16.8114
17.0079
17.1661
17.2955
17.4044
17.4985
17.582
17.6577
17.7273
17.789
2.31283
3.58187
5.00875
6.53878
8.01109
9.46795
10.8491
12.0593
13.0525
13.8815
14.5472
15.0579
15.4531
15.7614
16.0016
16.1916
16.3447
16.4703
16.5761
16.6679
16.7498
16.8245
16.894
16.9567
2.19477
3.39664
4.74987
6.20143
7.59924
8.9835
10.2956
11.4475
12.388
13.1845
13.8261
14.316
14.6951
14.9921
15.2239
15.4074
15.5555
15.6771
15.7799
15.8692
15.9492
16.0227
16.0916
16.1548
2.08748
3.22523
4.50834
5.8845
7.21098
8.52523
9.77098
10.8659
11.7494
12.5152
13.1344
13.6033
13.9665
14.2525
14.4762
14.6534
14.7965
14.9142
15.0138
15.1007
15.1787
15.2507
15.319
15.3823
1.99046
3.06659
4.28134
5.584
6.84095
8.08634
9.26829
10.3083
11.1405
11.8797
12.4751
12.9212
13.268
13.5429
13.7582
13.9287
14.0667
14.1803
14.2768
14.3611
14.437
14.5076
14.575
14.6381
14.6915
1.9032
2.9197
4.06758
5.29737
6.48508
7.66041
8.77865
9.76149
10.5538
11.2814
11.8518
12.2696
12.5991
12.8635
13.0705
13.2342
13.3668
13.4764
13.5696
13.6512
13.725
13.794
13.8602
13.923
13.977
1.83652
2.80502
3.90043
5.06484
6.18513
7.28068
8.30718
9.17931
9.87924
10.6778
11.2644
11.6728
12.0017
12.2705
12.4799
12.6446
12.778
12.8885
12.9825
13.0649
13.1396
13.2096
13.2772
13.3417
13.398
1.78255
2.71096
3.75928
4.86237
5.91409
6.92064
7.83733
8.57759
9.1615
10.0707
10.704
11.1179
11.4566
11.7389
11.9584
12.1296
12.268
12.3829
12.4805
12.5661
12.6437
12.7167
12.7874
12.8554
12.9152
1.72966
2.61778
3.61837
4.65991
5.6441
6.56147
7.37245
7.98896
8.45887
9.45592
10.1375
10.5576
10.9024
11.1961
11.4251
11.6027
11.7458
11.8646
11.9657
12.0544
12.1349
12.2106
12.2845
12.3559
12.4191
1.67802
2.52608
3.47871
4.45916
5.37723
6.20531
6.91592
7.41321
7.77593
8.83418
9.56325
9.99289
10.3415
10.6438
10.8815
11.0652
11.213
11.3356
11.44
11.5316
11.6148
11.6932
11.7701
11.8448
11.9116
1.62814
2.43663
3.34148
4.26185
5.11554
5.85416
6.47001
6.84827
7.11164
8.20641
8.97897
9.42225
9.7749
10.0842
10.3292
10.5181
10.6697
10.7959
10.9037
10.9985
11.0846
11.166
11.2459
11.3242
11.3947
1.58063
2.35064
3.20825
4.07036
4.86105
5.51005
6.03656
6.29209
6.46184
7.57329
8.38328
8.84238
9.20029
9.51759
9.77117
9.96565
10.12
10.2481
10.3581
10.4553
10.544
10.6283
10.7115
10.7935
10.868
1.53662
2.27015
3.08194
3.88818
4.61567
5.17294
5.6133
5.73812
5.81675
6.93397
7.7783
8.25314
8.61345
8.93619
9.20018
9.40519
9.56727
9.69974
9.81189
9.91037
10.0004
10.0865
10.1721
10.2573
10.3355
1.49687
2.19674
2.96536
3.71911
4.3814
4.84385
5.19913
5.17895
5.16006
6.27912
7.16479
7.6653
8.02963
8.3482
8.60908
8.81626
8.98617
9.12951
9.25226
9.35922
9.45554
9.54637
9.63644
9.72676
9.81141
9.88335
1.46042
2.12906
2.85786
3.56432
4.16182
4.53572
4.81146
4.61753
4.47719
5.58651
6.51555
7.06334
7.46514
7.80514
8.06541
8.25443
8.40069
8.52605
8.6404
8.74697
8.84766
8.945
9.04211
9.13904
9.22985
9.30914
1.42716
2.06688
2.75973
3.4248
3.96289
4.27068
4.47313
4.05357
3.76716
4.85371
5.78888
6.35285
6.79655
7.20849
7.55174
7.80681
7.98592
8.11121
8.2051
8.28451
8.36042
8.43993
8.5277
8.62195
8.71073
8.78326
1.40586
2.02617
2.69161
3.3185
3.79559
4.04104
4.11999
3.40734
3.01612
4.14772
5.09259
5.60995
5.96468
6.28581
6.59258
6.88928
7.17314
7.43025
7.64905
7.82744
7.97112
8.08952
8.19634
8.31108
8.44724
8.59325
1.41155
2.03629
2.69369
3.28488
3.68064
3.79968
3.58526
2.52696
2.12668
3.4434
4.61839
5.37622
5.85029
6.09768
6.14556
6.07022
5.95377
5.8625
5.82427
5.84154
5.90597
6.00889
6.1343
6.24232
6.28939
6.29341
1.43228
2.07913
2.74617
3.31264
3.62627
3.57546
2.96714
1.60132
0.970277
2.1491
3.45654
4.7496
6.00729
7.19993
8.21246
8.98724
9.54256
9.89656
10.0969
10.1966
10.2422
10.2712
10.3384
10.5315
10.8842
11.268
)
;

boundaryField
{
    inlet
    {
        type            freestreamPressure;
        freestreamValue uniform 0;
        value           nonuniform List<scalar> 
26
(
1.42531
2.069
2.7328
3.29651
3.60862
3.55806
2.9527
1.59352
0.552193
1.22221
1.9643
2.69716
3.40918
4.08382
4.65609
5.09349
5.40653
5.60554
5.71751
5.77255
5.79689
5.81175
5.84813
5.95561
6.15324
6.36838
)
;
    }
    outlet
    {
        type            freestreamPressure;
        freestreamValue nonuniform List<scalar> 0();
        value           nonuniform List<scalar> 0();
    }
    walls
    {
        type            zeroGradient;
    }
    frontAndBack
    {
        type            empty;
    }
    procBoundary0to1
    {
        type            processor;
        value           nonuniform List<scalar> 
94
(
169.117
176.509
176.509
180.341
180.341
181.02
181.02
178.646
178.646
173.852
173.852
167.375
158.504
158.504
151.56
143.737
143.737
136.743
129.837
123.265
123.265
116.978
111.164
111.164
105.23
100.092
95.1956
95.1956
90.0757
85.7498
81.6283
81.6283
77.2722
73.6332
73.6332
69.7133
66.5024
63.4408
63.4408
60.1695
57.4639
54.8822
54.8822
52.1611
49.8713
47.6826
47.6826
45.4154
43.4628
41.5922
41.5922
39.6908
38.0092
36.3937
36.3937
34.7823
33.3179
31.9072
30.5482
30.5482
29.2354
27.9911
26.7901
25.631
25.631
24.5383
23.4693
22.4366
21.4394
20.4769
20.4769
19.5887
18.6971
17.8366
17.0065
16.2062
15.4349
15.4349
14.7308
14.0177
13.4411
12.9616
12.4689
11.9648
11.4517
10.9293
10.4002
10.4002
9.94058
9.37644
8.83728
8.73266
6.2884
11.5834
)
;
    }
    procBoundary0to4
    {
        type            processor;
        value           nonuniform List<scalar> 
72
(
59.0958
56.8084
54.1362
51.242
48.2428
45.2193
42.2274
39.3039
36.4746
33.7574
31.1633
28.6978
26.3643
24.1628
22.0922
20.1502
18.3334
16.6372
15.0577
13.5896
12.228
10.9679
16.2959
16.2959
14.9203
13.6455
12.4659
11.3756
10.3694
9.44224
8.58918
7.8055
7.08675
6.42859
5.82705
5.2782
4.77839
4.32413
3.91214
3.53932
3.20272
2.89955
2.62721
2.38322
2.16529
1.97124
1.79903
1.64677
1.51268
1.39509
1.29245
1.20329
1.1263
1.06027
1.00391
0.955969
0.915542
0.882739
0.857137
0.838173
0.823775
0.811088
0.799885
0.790256
0.782124
0.775361
0.76959
0.764491
0.760465
0.758081
0.754958
0.746325
)
;
    }
    procBoundary0to5
    {
        type            processor;
        value           nonuniform List<scalar> 4(84.8553 106.6 127.152 148.297);
    }
}


// ************************************************************************* //
