/*--------------------------------*- C++ -*----------------------------------*\
| =========                 |                                                 |
| \\      /  F ield         | OpenFOAM: The Open Source CFD Toolbox           |
|  \\    /   O peration     | Version:  2506                                  |
|   \\  /    A nd           | Website:  www.openfoam.com                      |
|    \\/     M anipulation  |                                                 |
\*---------------------------------------------------------------------------*/
FoamFile
{
    version     2.0;
    format      ascii;
    arch        "LSB;label=32;scalar=64";
    class       volSymmTensorField;
    location    "50";
    object      turbulenceProperties:R;
}
// * * * * * * * * * * * * * * * * * * * * * * * * * * * * * * * * * * * * * //

dimensions      [0 2 -2 0 0 0 0];

internalField   nonuniform List<symmTensor> 
1340
(
(33.0603 16.2173 1.23317e-15 41.2599 5.11477e-17 37.1971)
(31.1114 15.3608 1.70514e-15 39.835 2.03393e-16 35.5077)
(28.816 14.3052 -3.41393e-16 37.8107 -6.13192e-17 33.3432)
(23.2909 11.637 -5.28686e-15 31.4742 -8.19942e-16 27.4726)
(0.988606 0.479047 -5.9043e-16 1.26921 1.04948e-17 1.08364)
(1.06601 0.519888 -1.50072e-15 1.38037 -9.23569e-17 1.18393)
(1.32672 0.647423 -2.87386e-15 1.69708 -2.4789e-16 1.47294)
(1.87754 0.921296 -2.24155e-15 2.30167 1.07354e-15 2.12879)
(0.254555 0.121123 2.5073e-16 0.292529 1.00789e-16 0.270514)
(0.332453 0.158854 -1.29502e-15 0.387295 -2.87511e-16 0.35536)
(0.409305 0.189889 3.51526e-15 0.437121 5.76472e-16 0.422891)
(0.569559 0.266681 5.21202e-15 0.609882 9.67385e-16 0.607398)
(0.0126016 0.00467741 -2.33429e-16 0.00927101 -2.11396e-17 0.0113329)
(0.0355304 0.0144384 9.39864e-16 0.0295118 1.27818e-16 0.0334977)
(0.0942891 0.0367415 -6.26049e-16 0.0739065 -1.42388e-16 0.0865003)
(0.242214 0.107932 -4.33862e-16 0.234381 -1.18385e-15 0.244683)
(0.000254238 -5.28238e-05 -6.88056e-19 0.00013066 -6.19257e-19 0.000207701)
(0.00210639 -0.000286245 -2.64135e-17 0.000876412 -5.99289e-19 0.00157093)
(0.00527245 0.000332401 8.31256e-17 0.00202884 9.41875e-18 0.00375953)
(0.0542939 0.0209909 -3.26141e-16 0.0419892 3.27257e-17 0.0501672)
(1.52749e-05 -1.21734e-06 1.3203e-19 1.34477e-05 2.07971e-20 1.3729e-05)
(0.000345744 -4.18372e-05 -1.59016e-17 0.000151652 -2.46348e-18 0.000227218)
(0.0011816 1.8829e-05 -2.37198e-17 0.000454349 -5.22075e-18 0.000797634)
(0.00770484 0.00252082 1.18893e-17 0.00494085 3.87844e-17 0.00662635)
(4.79695e-06 -3.76788e-08 -3.33459e-21 4.62888e-06 -3.07383e-22 4.74901e-06)
(1.03586e-06 -1.09307e-09 3.01529e-22 1.02675e-06 3.47952e-23 1.03281e-06)
(0 0 0 0 0 0)
(0.00173574 0.000495958 2.53831e-17 0.000991826 2.35513e-18 0.00147199)
(1.44433e-05 -1.0988e-06 9.98009e-20 1.27456e-05 6.2632e-21 1.31693e-05)
(1.02774e-05 -3.54081e-07 -2.977e-20 8.95469e-06 -2.71479e-21 9.38382e-06)
(1.17116e-06 1.0262e-09 5.90692e-23 1.15473e-06 1.09046e-23 1.16121e-06)
(0 0 -0 0 -0 0)
(2.26275e-05 -1.47384e-06 -6.67081e-21 1.82168e-05 5.49566e-21 2.08037e-05)
(2.34125e-05 -7.90185e-07 4.38684e-20 1.80627e-05 4.46906e-21 2.10493e-05)
(2.36798e-05 3.52085e-07 1.98608e-20 1.88751e-05 -8.15692e-21 2.12974e-05)
(8.0027e-07 1.9884e-09 -9.64205e-24 7.98077e-07 6.72626e-24 7.99274e-07)
(1.7808e-05 -1.48888e-06 4.52199e-20 1.48536e-05 4.96032e-21 1.60526e-05)
(1.68273e-05 -6.68863e-07 2.27782e-19 1.33143e-05 2.99324e-20 1.48612e-05)
(2.95622e-05 6.95905e-07 -2.80184e-19 2.17313e-05 -1.10847e-20 2.52681e-05)
(1.11906e-05 4.09784e-07 9.5461e-21 1.07779e-05 3.09009e-21 1.09965e-05)
(1.88234e-05 -1.3354e-06 1.7456e-21 1.52922e-05 5.2581e-21 1.71677e-05)
(1.85882e-05 -5.31239e-07 -2.69791e-19 1.4512e-05 -3.3647e-20 1.66944e-05)
(2.64661e-05 6.81599e-07 3.59027e-19 2.0035e-05 4.9951e-20 2.32864e-05)
(2.91268e-05 2.62689e-06 8.21216e-20 2.6394e-05 -1.75477e-20 2.79718e-05)
(1.70075e-05 -1.27588e-06 -9.98226e-20 1.39335e-05 -1.46395e-20 1.54408e-05)
(1.69709e-05 -4.91017e-07 1.75201e-19 1.32028e-05 2.07805e-20 1.51265e-05)
(2.17323e-05 6.09838e-07 -1.67628e-19 1.68289e-05 -4.19367e-20 1.92399e-05)
(3.37361e-05 3.69593e-06 -2.00404e-19 3.00277e-05 -7.4486e-20 3.2216e-05)
(1.63726e-05 -1.19839e-06 1.15295e-19 1.33723e-05 1.18885e-20 1.48923e-05)
(1.62594e-05 -4.27422e-07 -2.46262e-19 1.26227e-05 -2.98191e-20 1.45155e-05)
(1.95167e-05 6.07053e-07 -1.36496e-20 1.52065e-05 9.9048e-21 1.7316e-05)
(3.12098e-05 3.51801e-06 -3.15132e-19 2.79034e-05 8.82433e-21 2.985e-05)
(1.52196e-05 -1.13974e-06 -8.70707e-20 1.24739e-05 -7.103e-21 1.38252e-05)
(1.49007e-05 -3.81955e-07 1.64666e-19 1.1568e-05 2.15067e-20 1.3269e-05)
(1.75134e-05 6.08296e-07 2.66704e-20 1.36857e-05 1.02532e-20 1.55171e-05)
(2.77449e-05 3.16123e-06 1.88029e-19 2.50397e-05 4.64362e-20 2.66019e-05)
(1.43824e-05 -1.07309e-06 2.00557e-20 1.17834e-05 -1.79582e-23 1.30773e-05)
(1.3947e-05 -3.33672e-07 6.69558e-20 1.08209e-05 6.44131e-21 1.24291e-05)
(1.59408e-05 6.09372e-07 1.2749e-19 1.24894e-05 5.9493e-21 1.4141e-05)
(2.47992e-05 2.85755e-06 -9.51209e-20 2.25597e-05 -3.74225e-20 2.38471e-05)
(1.34342e-05 -1.01488e-06 1.07308e-20 1.10274e-05 1.63301e-21 1.22192e-05)
(1.2848e-05 -2.97799e-07 -1.02796e-19 9.967e-06 -1.22615e-20 1.14428e-05)
(1.43398e-05 5.99505e-07 -1.74971e-19 1.12719e-05 -2.96795e-20 1.27306e-05)
(2.21552e-05 2.58778e-06 -9.718e-20 2.03135e-05 1.67201e-20 2.13746e-05)
(1.2556e-05 -9.60236e-07 -3.3731e-21 1.03251e-05 -5.64792e-22 1.14322e-05)
(1.18217e-05 -2.69808e-07 5.31588e-20 9.17086e-06 5.41846e-21 1.05284e-05)
(1.28329e-05 5.80875e-07 -6.63293e-20 1.01222e-05 4.25714e-21 1.14054e-05)
(1.96779e-05 2.33196e-06 2.44955e-19 1.81956e-05 2.17971e-20 1.90544e-05)
(1.16772e-05 -9.10503e-07 4.2907e-20 9.62993e-06 5.33966e-21 1.0645e-05)
(1.07931e-05 -2.49993e-07 -1.58286e-19 8.37551e-06 -1.83894e-20 9.61081e-06)
(1.1395e-05 5.54069e-07 1.07006e-19 9.0203e-06 1.81538e-20 1.01392e-05)
(1.73322e-05 2.08549e-06 -1.88499e-19 1.61812e-05 -2.00093e-20 1.68521e-05)
(1.0816e-05 -8.62165e-07 -1.23283e-19 8.94973e-06 -1.31979e-20 9.87653e-06)
(9.79423e-06 -2.34866e-07 4.31081e-20 7.60431e-06 7.78674e-21 8.72214e-06)
(1.00426e-05 5.21221e-07 7.87567e-20 7.97922e-06 2.02744e-21 8.94894e-06)
(1.51365e-05 1.84953e-06 3.04101e-19 1.42849e-05 3.47008e-20 1.47867e-05)
(9.96264e-06 -8.15211e-07 6.35661e-20 8.2783e-06 5.98396e-21 9.11598e-06)
(8.81298e-06 -2.23538e-07 1.20235e-19 6.84804e-06 1.22471e-20 7.85004e-06)
(8.76367e-06 4.83664e-07 -8.02427e-20 6.9906e-06 -1.30929e-20 7.82249e-06)
(1.31054e-05 1.62595e-06 -1.84775e-19 1.25209e-05 -3.5804e-20 1.28726e-05)
(9.13465e-06 -7.70664e-07 -1.74034e-20 7.62995e-06 -1.47848e-21 8.38039e-06)
(7.86665e-06 -2.16252e-07 -9.49841e-20 6.12033e-06 -1.16094e-20 7.0108e-06)
(7.55876e-06 4.41601e-07 -4.20651e-20 6.05424e-06 -4.52959e-22 6.75989e-06)
(1.12405e-05 1.41523e-06 3.70096e-20 1.08923e-05 1.39361e-20 1.11116e-05)
(8.34077e-06 -7.29872e-07 5.22534e-21 7.01406e-06 6.08113e-22 7.67728e-06)
(6.95601e-06 -2.1394e-07 1.57205e-20 5.42283e-06 2.77524e-21 6.20435e-06)
(6.42152e-06 3.94429e-07 5.37949e-20 5.16399e-06 8.93436e-21 5.75444e-06)
(9.5365e-06 1.21682e-06 6.43868e-22 9.39415e-06 -3.81877e-21 9.49845e-06)
(7.58547e-06 -6.92181e-07 3.53034e-20 6.4338e-06 3.61618e-21 7.01106e-06)
(6.08978e-06 -2.15367e-07 3.34546e-21 4.76278e-06 -8.44669e-23 5.43898e-06)
(5.34853e-06 3.43254e-07 6.93048e-20 4.31769e-06 2.78497e-21 4.80284e-06)
(7.99225e-06 1.03071e-06 -5.17633e-20 8.02575e-06 -4.13623e-21 8.03219e-06)
(6.86604e-06 -6.5603e-07 -2.85388e-20 5.88582e-06 -2.91774e-21 6.37838e-06)
(5.27359e-06 -2.18851e-07 -2.60859e-20 4.14494e-06 -2.13349e-21 4.72001e-06)
(4.33516e-06 2.89616e-07 -1.40358e-19 3.51319e-06 -1.57182e-20 3.90073e-06)
(6.61033e-06 8.57316e-07 3.10052e-20 6.79263e-06 5.96268e-21 6.71615e-06)
(6.19279e-06 -6.21712e-07 2.0833e-20 5.37897e-06 1.89197e-21 5.78914e-06)
(4.51804e-06 -2.23925e-07 5.66361e-20 3.57888e-06 6.37831e-21 4.0573e-06)
(3.38607e-06 2.34852e-07 5.43216e-20 2.75492e-06 1.09607e-20 3.05282e-06)
(5.39887e-06 6.97354e-07 2.97997e-20 5.70422e-06 3.12987e-21 5.55937e-06)
(5.58897e-06 -5.9095e-07 -5.22305e-20 4.93395e-06 -5.1326e-21 5.26531e-06)
(3.8463e-06 -2.31963e-07 -1.00676e-21 3.086e-06 -3.56696e-22 3.47306e-06)
(2.49939e-06 1.78603e-07 9.39932e-20 2.04046e-06 7.49305e-21 2.25713e-06)
(4.35582e-06 5.49869e-07 4.64561e-20 4.7598e-06 1.24254e-21 4.56008e-06)
(5.05967e-06 -5.63296e-07 4.59865e-20 4.5548e-06 4.96532e-21 4.81187e-06)
(3.27925e-06 -2.42096e-07 3.46688e-20 2.68541e-06 3.54304e-21 2.98783e-06)
(1.67702e-06 1.21672e-07 -7.34511e-20 1.3716e-06 -8.72128e-21 1.51589e-06)
(3.48426e-06 4.14036e-07 -1.14152e-19 3.96347e-06 -1.12658e-20 3.72221e-06)
(4.59265e-06 -5.36284e-07 1.26365e-21 4.22864e-06 -1.56046e-22 4.41622e-06)
(2.82417e-06 -2.51937e-07 -1.15376e-20 2.38414e-06 -1.99326e-21 2.60891e-06)
(9.25376e-07 6.66855e-08 5.33841e-20 7.56265e-07 5.78991e-21 8.36184e-07)
(2.80715e-06 2.90579e-07 7.47533e-20 3.34138e-06 8.68547e-21 3.0698e-06)
(4.18677e-06 -5.09526e-07 -2.93961e-21 3.95414e-06 -4.15673e-22 4.077e-06)
(2.48737e-06 -2.60382e-07 -3.54774e-20 2.18838e-06 -3.8571e-21 2.34224e-06)
(2.51119e-07 1.53237e-08 -7.79051e-20 2.0192e-07 -8.55419e-21 2.24995e-07)
(2.35052e-06 1.80472e-07 -9.26757e-20 2.92283e-06 -1.11272e-20 2.63032e-06)
(3.85069e-06 -4.84007e-07 -1.1142e-20 3.73889e-06 -1.22214e-21 3.80202e-06)
(2.2782e-06 -2.68268e-07 -2.33333e-20 2.10717e-06 -2.15832e-21 2.1967e-06)
(3.05036e-07 -3.26532e-08 3.82155e-20 3.60143e-07 5.23339e-21 3.33243e-07)
(2.11388e-06 8.32579e-08 -7.68407e-21 2.70957e-06 2.01332e-21 2.40389e-06)
(3.59015e-06 -4.60809e-07 -1.00361e-20 3.58843e-06 -1.0615e-21 3.59658e-06)
(2.19232e-06 -2.76425e-07 -5.74245e-21 2.13599e-06 -4.02995e-23 2.16744e-06)
(7.54026e-07 -7.78414e-08 4.24544e-21 8.98288e-07 7.58417e-23 8.2806e-07)
(2.06152e-06 -2.46589e-09 9.0182e-20 2.66767e-06 1.04217e-20 2.35566e-06)
(3.39474e-06 -4.3934e-07 -1.27473e-20 3.49155e-06 -1.27666e-21 3.44993e-06)
(2.19995e-06 -2.84384e-07 3.29611e-20 2.24476e-06 3.40963e-21 2.22468e-06)
(1.1534e-06 -1.19673e-07 1.34389e-20 1.37234e-06 1.0375e-21 1.26531e-06)
(2.13486e-06 -7.75323e-08 8.787e-20 2.73999e-06 7.25175e-21 2.42766e-06)
(3.24352e-06 -4.18125e-07 -3.92589e-21 3.42747e-06 -8.51836e-23 3.34133e-06)
(2.25407e-06 -2.90292e-07 -1.09783e-20 2.38683e-06 -1.33165e-21 2.3217e-06)
(1.49375e-06 -1.56203e-07 -3.21829e-20 1.77384e-06 -3.55798e-21 1.6365e-06)
(2.27381e-06 -1.41239e-07 -7.85871e-20 2.86917e-06 -9.73175e-21 2.56139e-06)
(3.12432e-06 -3.97077e-07 2.45254e-20 3.38251e-06 2.51474e-21 3.25848e-06)
(2.32471e-06 -2.93895e-07 1.40666e-20 2.53146e-06 1.14882e-21 2.42869e-06)
(1.77272e-06 -1.87035e-07 -1.39704e-22 2.10036e-06 6.69706e-22 1.93968e-06)
(2.42421e-06 -1.93552e-07 -5.53337e-20 3.00176e-06 -4.91807e-21 2.70323e-06)
(3.03384e-06 -3.77413e-07 -5.43764e-21 3.35317e-06 -7.12804e-22 3.19794e-06)
(2.39982e-06 -2.96314e-07 -4.90563e-20 2.66683e-06 -5.09534e-21 2.53349e-06)
(1.99985e-06 -2.13254e-07 3.86482e-20 2.36288e-06 3.78141e-21 2.18491e-06)
(2.56282e-06 -2.36169e-07 2.64424e-20 3.11658e-06 2.98957e-21 2.83069e-06)
(2.94908e-06 -3.57493e-07 8.54871e-21 3.31673e-06 8.59867e-22 3.13717e-06)
(2.45593e-06 -2.96191e-07 3.11752e-20 2.76975e-06 3.63211e-21 2.61335e-06)
(2.17101e-06 -2.33953e-07 -4.7818e-20 2.55776e-06 -5.33567e-21 2.36884e-06)
(2.6731e-06 -2.69439e-07 -4.9676e-20 3.1984e-06 -5.57384e-21 2.92782e-06)
(2.86234e-06 -3.36942e-07 -8.25612e-21 3.26784e-06 -8.33277e-22 3.06876e-06)
(2.48479e-06 -2.92993e-07 -1.47834e-20 2.83434e-06 -1.84761e-21 2.66026e-06)
(2.28843e-06 -2.48752e-07 2.38309e-20 2.68945e-06 2.77721e-21 2.49434e-06)
(2.74575e-06 -2.93408e-07 1.55126e-20 3.24015e-06 2.33215e-21 2.98645e-06)
(2.77891e-06 -3.17284e-07 1.38949e-20 3.21245e-06 1.58338e-21 2.99804e-06)
(2.4896e-06 -2.8739e-07 3.2473e-21 2.86564e-06 3.2697e-22 2.67786e-06)
(2.36063e-06 -2.58461e-07 -2.87443e-20 2.76833e-06 -3.01112e-21 2.5704e-06)
(2.78238e-06 -3.09812e-07 6.94487e-20 3.2438e-06 7.58761e-21 3.00786e-06)
(2.93377e-06 -3.09028e-07 -8.99367e-21 3.47541e-06 -7.1344e-22 3.205e-06)
(2.6904e-06 -2.98191e-07 3.78845e-21 3.14195e-06 -5.42373e-23 2.91819e-06)
(2.47466e-06 -2.80549e-07 -1.6666e-20 2.8678e-06 -1.41272e-21 2.67107e-06)
(2.39491e-06 -2.64226e-07 5.07765e-20 2.80184e-06 5.90234e-21 2.60418e-06)
(2.78621e-06 -3.19854e-07 -1.07793e-20 3.21323e-06 -1.52726e-21 2.99537e-06)
(2.76534e-06 -2.80071e-07 2.46654e-20 3.30582e-06 2.67202e-21 3.03572e-06)
(2.58425e-06 -2.78349e-07 -4.05388e-20 3.04358e-06 -4.42148e-21 2.8155e-06)
(2.43396e-06 -2.71773e-07 6.32847e-20 2.8352e-06 6.88984e-21 2.6336e-06)
(2.39345e-06 -2.65641e-07 2.82846e-21 2.7947e-06 -3.28536e-22 2.5993e-06)
(2.75614e-06 -3.23285e-07 3.16118e-21 3.15017e-06 4.43156e-22 2.94939e-06)
(2.60609e-06 -2.54315e-07 -7.09031e-21 3.13862e-06 -1.07038e-21 2.87172e-06)
(2.47506e-06 -2.5973e-07 7.90138e-21 2.93469e-06 1.37714e-21 2.70526e-06)
(2.37014e-06 -2.61159e-07 -3.59429e-20 2.77226e-06 -4.52659e-21 2.56905e-06)
(2.35882e-06 -2.62948e-07 -5.72317e-20 2.75013e-06 -6.44742e-21 2.55874e-06)
(2.69606e-06 -3.21202e-07 -1.51543e-21 3.05867e-06 -3.05545e-22 2.87379e-06)
(2.44938e-06 -2.31037e-07 -9.71209e-21 2.96752e-06 -8.81149e-22 2.70709e-06)
(2.35667e-06 -2.41774e-07 2.42696e-20 2.80908e-06 2.80241e-21 2.58239e-06)
(2.28573e-06 -2.49295e-07 -6.55156e-21 2.68152e-06 -3.68814e-22 2.48082e-06)
(2.29567e-06 -2.57084e-07 2.11654e-20 2.67221e-06 2.77677e-21 2.48755e-06)
(2.6108e-06 -3.14934e-07 -3.65471e-20 2.9422e-06 -4.1651e-21 2.77301e-06)
(2.28918e-06 -2.09044e-07 1.63021e-20 2.7876e-06 1.92153e-21 2.53649e-06)
(2.22577e-06 -2.23564e-07 1.98352e-20 2.66507e-06 2.0426e-21 2.44415e-06)
(2.18089e-06 -2.35625e-07 1.89221e-20 2.56524e-06 2.08917e-21 2.36958e-06)
(2.2062e-06 -2.47826e-07 6.19431e-21 2.56516e-06 7.3471e-22 2.38848e-06)
(2.50107e-06 -3.04421e-07 3.55468e-20 2.8034e-06 4.37815e-21 2.64863e-06)
(2.12731e-06 -1.88667e-07 2.35515e-21 2.60133e-06 1.2832e-22 2.36227e-06)
(2.08661e-06 -2.05748e-07 -5.99006e-21 2.50764e-06 -9.53085e-22 2.29552e-06)
(2.06114e-06 -2.20962e-07 -2.19226e-20 2.42943e-06 -2.56497e-21 2.24154e-06)
(2.09675e-06 -2.36188e-07 2.61387e-20 2.43539e-06 2.96788e-21 2.26833e-06)
(2.37064e-06 -2.90593e-07 1.70841e-20 2.64494e-06 1.9314e-21 2.50411e-06)
(1.96771e-06 -1.70673e-07 -1.61263e-21 2.41325e-06 -1.64266e-22 2.18847e-06)
(1.94527e-06 -1.89385e-07 -2.4048e-20 2.34336e-06 -2.71379e-21 2.14254e-06)
(1.93519e-06 -2.06682e-07 1.55241e-20 2.28312e-06 1.92166e-21 2.10526e-06)
(1.97852e-06 -2.23845e-07 -1.9277e-20 2.29436e-06 -2.4995e-21 2.13829e-06)
(2.23315e-06 -2.75503e-07 -6.73078e-21 2.48016e-06 -9.72304e-22 2.35294e-06)
(1.80707e-06 -1.53663e-07 5.29217e-21 2.2217e-06 5.99085e-22 2.01259e-06)
(1.79789e-06 -1.73081e-07 4.84782e-21 2.17021e-06 8.50508e-22 1.98238e-06)
(1.79854e-06 -1.91457e-07 -9.61775e-21 2.12365e-06 -1.24517e-21 1.9574e-06)
(1.84643e-06 -2.09627e-07 -2.12608e-20 2.13839e-06 -2.39337e-21 1.99414e-06)
(2.0838e-06 -2.58422e-07 -3.85003e-20 2.30499e-06 -4.59142e-21 2.1908e-06)
(1.64716e-06 -1.37096e-07 -4.58824e-21 2.03021e-06 -5.46452e-22 1.83714e-06)
(1.64638e-06 -1.56547e-07 2.33037e-20 1.99161e-06 2.64421e-21 1.81749e-06)
(1.65349e-06 -1.75238e-07 -1.46839e-21 1.95459e-06 -1.21628e-22 1.8006e-06)
(1.70313e-06 -1.93726e-07 2.42398e-20 1.971e-06 3.05724e-21 1.83871e-06)
(1.9232e-06 -2.39416e-07 2.41205e-20 2.12072e-06 2.97238e-21 2.01862e-06)
(1.49342e-06 -1.22065e-07 7.5013e-21 1.84443e-06 1.00795e-21 1.66752e-06)
(1.49841e-06 -1.41075e-07 -1.84009e-20 1.81562e-06 -2.45983e-21 1.65564e-06)
(1.50962e-06 -1.5953e-07 -2.48807e-21 1.7858e-06 -2.53266e-22 1.64457e-06)
(1.55953e-06 -1.77836e-07 8.48187e-21 1.8031e-06 1.04391e-21 1.68297e-06)
(1.76176e-06 -2.20132e-07 -3.77131e-20 1.93652e-06 -4.72819e-21 1.84613e-06)
(1.34779e-06 -1.08928e-07 1.43755e-20 1.66653e-06 1.65389e-21 1.50579e-06)
(1.35718e-06 -1.27163e-07 -2.38071e-20 1.64574e-06 -2.79596e-21 1.50008e-06)
(1.37153e-06 -1.45002e-07 7.07056e-21 1.62216e-06 8.1227e-22 1.49379e-06)
(1.42137e-06 -1.62766e-07 2.51754e-20 1.64066e-06 3.12576e-21 1.53246e-06)
(1.60744e-06 -2.01644e-07 3.9662e-21 1.76038e-06 5.72658e-22 1.68109e-06)
(1.20823e-06 -9.67446e-08 -8.27766e-21 1.49536e-06 -1.05198e-21 1.35039e-06)
(1.21985e-06 -1.13871e-07 1.08634e-21 1.48003e-06 2.95636e-22 1.34852e-06)
(1.23548e-06 -1.30691e-07 -1.38969e-20 1.46093e-06 -1.76178e-21 1.34523e-06)
(1.28343e-06 -1.47469e-07 9.09455e-21 1.47942e-06 9.55479e-22 1.38265e-06)
(1.45395e-06 -1.82996e-07 -9.4772e-21 1.58691e-06 -1.23889e-21 1.51776e-06)
(1.07503e-06 -8.47696e-08 8.59786e-21 1.3325e-06 1.09406e-21 1.20222e-06)
(1.08664e-06 -1.00598e-07 1.25928e-20 1.32009e-06 1.45728e-21 1.20176e-06)
(1.10161e-06 -1.16254e-07 -1.16671e-21 1.30331e-06 1.44864e-23 1.19944e-06)
(1.14602e-06 -1.31845e-07 -2.75439e-20 1.32029e-06 -3.58536e-21 1.23403e-06)
(1.30052e-06 -1.64042e-07 -1.46408e-20 1.41602e-06 -1.84362e-21 1.35567e-06)
(9.50658e-07 -7.38802e-08 -3.56701e-21 1.17995e-06 -5.02269e-22 1.06374e-06)
(9.60317e-07 -8.81929e-08 -2.24447e-20 1.16799e-06 -2.87435e-21 1.06233e-06)
(9.74096e-07 -1.02578e-07 3.07417e-20 1.15294e-06 3.91998e-21 1.06041e-06)
(1.01494e-06 -1.16912e-07 -2.30503e-20 1.16864e-06 -2.74598e-21 1.09246e-06)
(1.15397e-06 -1.45865e-07 5.90466e-21 1.2534e-06 7.64816e-22 1.20125e-06)
(8.30233e-07 -5.20934e-08 1.79691e-21 1.04683e-06 1.73794e-22 9.37665e-07)
(8.3554e-07 -6.46273e-08 -4.69301e-21 1.03756e-06 -6.65684e-22 9.35466e-07)
(8.43138e-07 -7.73727e-08 -4.56457e-21 1.02552e-06 -3.57626e-22 9.32496e-07)
(8.5531e-07 -9.02416e-08 1.33807e-20 1.01172e-06 1.52585e-21 9.30384e-07)
(8.92483e-07 -1.0316e-07 3.03805e-20 1.02618e-06 4.02124e-21 9.59897e-07)
(1.01792e-06 -1.29023e-07 -4.53523e-21 1.10192e-06 -6.37847e-22 1.05775e-06)
(7.24261e-07 -4.5333e-08 -5.22447e-21 9.13347e-07 -6.19219e-22 8.18302e-07)
(7.29095e-07 -5.66748e-08 -2.4719e-20 9.04956e-07 -3.09676e-21 8.16258e-07)
(7.36263e-07 -6.79526e-08 3.56944e-20 8.94689e-07 4.50186e-21 8.13746e-07)
(7.4578e-07 -7.89623e-08 -1.79869e-20 8.81286e-07 -2.29958e-21 8.10626e-07)
(7.78515e-07 -9.02668e-08 2.32887e-20 8.93984e-07 2.89874e-21 8.36896e-07)
(8.91267e-07 -1.13261e-07 -9.07594e-21 9.61598e-07 -1.14059e-21 9.24608e-07)
(6.26432e-07 -3.91293e-08 1.34732e-20 7.9009e-07 1.7488e-21 7.08089e-07)
(6.31242e-07 -4.91612e-08 5.72135e-21 7.83389e-07 7.97513e-22 7.06945e-07)
(6.36442e-07 -5.89273e-08 -1.79358e-20 7.73037e-07 -2.40385e-21 7.03508e-07)
(6.43036e-07 -6.82592e-08 1.19791e-20 7.59399e-07 1.57253e-21 6.98901e-07)
(6.71969e-07 -7.81232e-08 -2.89228e-21 7.70791e-07 -4.53124e-22 7.22191e-07)
(7.7378e-07 -9.85577e-08 6.87213e-21 8.32102e-07 9.14485e-22 8.01356e-07)
(5.38618e-07 -3.33582e-08 3.83585e-21 6.79686e-07 4.02149e-22 6.0931e-07)
(5.42025e-07 -4.21401e-08 -4.10123e-21 6.72811e-07 -4.93729e-22 6.07336e-07)
(5.45605e-07 -5.05966e-08 4.3992e-21 6.62574e-07 6.46106e-22 6.03225e-07)
(5.50408e-07 -5.85459e-08 -1.09632e-20 6.49683e-07 -1.40274e-21 5.98146e-07)
(5.76365e-07 -6.71501e-08 -7.35794e-21 6.60552e-07 -9.51062e-22 6.19264e-07)
(6.67503e-07 -8.51764e-08 -4.06647e-22 7.15683e-07 -4.73829e-23 6.90046e-07)
(4.60358e-07 -2.83059e-08 -1.45051e-20 5.81166e-07 -1.86294e-21 5.20928e-07)
(4.63165e-07 -3.59342e-08 1.68589e-20 5.75058e-07 2.24335e-21 5.19152e-07)
(4.65701e-07 -4.32527e-08 7.1128e-21 5.65426e-07 8.68334e-22 5.1492e-07)
(4.69105e-07 -5.00448e-08 1.68846e-20 5.53288e-07 2.19445e-21 5.09571e-07)
(4.91983e-07 -5.74957e-08 -4.20968e-21 5.63107e-07 -5.11733e-22 5.28232e-07)
(5.73138e-07 -7.32683e-08 9.23255e-21 6.12434e-07 1.17372e-21 5.91196e-07)
(3.91717e-07 -2.38896e-08 6.94971e-21 4.94736e-07 9.35865e-22 4.43397e-07)
(3.93222e-07 -3.04808e-08 1.81143e-20 4.88264e-07 2.29072e-21 4.40744e-07)
(3.94714e-07 -3.68131e-08 -1.59382e-20 4.78908e-07 -2.04832e-21 4.36164e-07)
(3.97186e-07 -4.26078e-08 -1.38974e-20 4.67734e-07 -1.91446e-21 4.30951e-07)
(4.1786e-07 -4.9082e-08 5.88165e-21 4.7721e-07 7.67804e-22 4.48155e-07)
(4.89669e-07 -6.2739e-08 -1.92948e-20 5.20912e-07 -2.51153e-21 5.038e-07)
(3.30763e-07 -2.02122e-08 -2.77079e-21 4.17703e-07 -4.4317e-22 3.74276e-07)
(3.31516e-07 -2.58356e-08 -8.06167e-21 4.11428e-07 -1.03791e-21 3.71379e-07)
(3.32187e-07 -3.12072e-08 1.7198e-20 4.02552e-07 2.27842e-21 3.66712e-07)
(3.33822e-07 -3.60837e-08 -2.49774e-20 3.92244e-07 -3.22715e-21 3.61616e-07)
(3.51976e-07 -4.16035e-08 -5.10038e-21 4.00818e-07 -6.87317e-22 3.76947e-07)
(4.15695e-07 -5.33884e-08 2.52821e-20 4.39757e-07 3.3403e-21 4.26396e-07)
(2.77472e-07 -1.68213e-08 -2.77463e-20 3.50552e-07 -3.60582e-21 3.14041e-07)
(2.7683e-07 -2.15051e-08 2.32826e-20 3.43658e-07 3.02443e-21 3.10081e-07)
(2.76303e-07 -2.6049e-08 -4.78521e-21 3.34603e-07 -6.31041e-22 3.04719e-07)
(2.76994e-07 -3.00915e-08 5.03173e-21 3.2494e-07 7.326e-22 2.9957e-07)
(2.92384e-07 -3.47132e-08 2.07368e-21 3.32265e-07 2.31048e-22 3.12819e-07)
(3.47829e-07 -4.47481e-08 -1.91003e-20 3.66086e-07 -2.5406e-21 3.55775e-07)
(2.31598e-07 -1.39991e-08 8.58898e-21 2.92656e-07 1.17657e-21 2.62265e-07)
(2.29199e-07 -1.77392e-08 -2.42701e-20 2.8462e-07 -3.23134e-21 2.56674e-07)
(2.27839e-07 -2.15213e-08 1.59443e-20 2.75787e-07 2.12398e-21 2.50998e-07)
(2.27452e-07 -2.47827e-08 5.4503e-21 2.66539e-07 6.90922e-22 2.4567e-07)
(2.40333e-07 -2.86184e-08 -2.80752e-20 2.72732e-07 -3.72594e-21 2.56988e-07)
(2.87721e-07 -3.70609e-08 1.30799e-20 3.01262e-07 1.769e-21 2.9343e-07)
(1.9485e-07 -8.8445e-09 2.29194e-22 2.48937e-07 -2.62175e-23 2.22949e-07)
(1.92785e-07 -1.19386e-08 -5.71845e-21 2.43348e-07 -7.49755e-22 2.18702e-07)
(1.88672e-07 -1.47996e-08 4.35085e-21 2.34018e-07 6.36714e-22 2.11277e-07)
(1.86172e-07 -1.77575e-08 4.97184e-21 2.24945e-07 6.20752e-22 2.04731e-07)
(1.84949e-07 -2.02864e-08 -1.21451e-20 2.16247e-07 -1.5824e-21 1.99359e-07)
(1.95861e-07 -2.34097e-08 -5.43224e-21 2.21864e-07 -7.03356e-22 2.09268e-07)
(2.36269e-07 -3.04538e-08 7.05961e-21 2.45931e-07 8.97254e-22 2.40067e-07)
(1.62264e-07 -7.99518e-09 -2.71031e-20 2.06804e-07 -3.5828e-21 1.86088e-07)
(1.60323e-07 -1.06301e-08 1.01444e-20 2.01587e-07 1.38786e-21 1.8207e-07)
(1.5639e-07 -1.28641e-08 8.46203e-21 1.93069e-07 1.08079e-21 1.7501e-07)
(1.53076e-07 -1.49666e-08 -2.85495e-21 1.84169e-07 -4.16744e-22 1.68083e-07)
(1.50877e-07 -1.67326e-08 1.70079e-20 1.75821e-07 2.29843e-21 1.62368e-07)
(1.5974e-07 -1.91976e-08 -1.76548e-20 1.80457e-07 -2.2738e-21 1.70512e-07)
(1.93242e-07 -2.49026e-08 -9.01296e-21 1.99927e-07 -1.23013e-21 1.95506e-07)
(1.35222e-07 -7.64562e-09 -6.323e-22 1.71417e-07 -2.35683e-23 1.55132e-07)
(1.34911e-07 -9.89672e-09 1.90138e-20 1.68385e-07 2.49696e-21 1.53177e-07)
(1.31673e-07 -1.16206e-08 -1.51771e-20 1.612e-07 -2.03017e-21 1.47249e-07)
(1.28119e-07 -1.31105e-08 -1.71465e-20 1.52796e-07 -2.26891e-21 1.40422e-07)
(1.25596e-07 -1.43083e-08 1.42775e-20 1.4509e-07 1.90171e-21 1.34731e-07)
(1.33363e-07 -1.62373e-08 3.64155e-20 1.49583e-07 4.85886e-21 1.41945e-07)
(1.6046e-07 -2.06574e-08 -1.28398e-20 1.64696e-07 -1.73774e-21 1.61482e-07)
(1.12738e-07 -7.47146e-09 6.77131e-21 1.41646e-07 8.7709e-22 1.29201e-07)
(1.1438e-07 -9.47685e-09 -9.0345e-22 1.41009e-07 -1.26601e-22 1.29621e-07)
(1.12758e-07 -1.09309e-08 -1.5644e-21 1.35985e-07 -1.78587e-22 1.2573e-07)
(1.10342e-07 -1.20778e-08 -7.10111e-22 1.29404e-07 -8.20153e-23 1.20414e-07)
(1.08396e-07 -1.28949e-08 2.43777e-20 1.2307e-07 3.20034e-21 1.15621e-07)
(1.15392e-07 -1.43482e-08 -4.35293e-21 1.27618e-07 -6.22923e-22 1.22207e-07)
(1.36919e-07 -1.75901e-08 -3.38841e-20 1.38907e-07 -4.49274e-21 1.36949e-07)
(9.16301e-08 -6.976e-09 -1.36906e-20 1.13829e-07 -1.81854e-21 1.04734e-07)
(9.62458e-08 -8.8932e-09 1.67845e-20 1.16758e-07 2.22001e-21 1.08727e-07)
(9.71938e-08 -1.02591e-08 4.12477e-21 1.14908e-07 5.83861e-22 1.07937e-07)
(9.64979e-08 -1.12448e-08 -9.20445e-21 1.10641e-07 -1.25301e-21 1.04758e-07)
(9.56676e-08 -1.1856e-08 -1.1894e-20 1.06107e-07 -1.57999e-21 1.01435e-07)
(1.02214e-07 -1.29642e-08 4.39197e-21 1.10876e-07 5.72046e-22 1.07717e-07)
(1.18435e-07 -1.51541e-08 3.35644e-21 1.18403e-07 5.26542e-22 1.17817e-07)
(7.19439e-08 -5.82925e-09 5.98487e-21 8.88413e-08 7.88677e-22 8.19358e-08)
(7.85377e-08 -7.72547e-09 -9.53916e-21 9.41414e-08 -1.29063e-21 8.83596e-08)
(8.19049e-08 -9.10932e-09 2.47178e-20 9.51979e-08 3.2628e-21 9.05135e-08)
(8.3449e-08 -1.00976e-08 -1.97279e-20 9.37354e-08 -2.6084e-21 9.01029e-08)
(8.42331e-08 -1.06813e-08 2.77014e-20 9.13866e-08 3.69305e-21 8.88509e-08)
(9.08366e-08 -1.16248e-08 -1.5092e-20 9.6766e-08 -2.02757e-21 9.54285e-08)
(1.02594e-07 -1.30407e-08 3.07217e-20 1.01101e-07 4.10096e-21 1.01684e-07)
(5.29289e-08 -3.94913e-09 -1.56805e-20 6.59419e-08 -2.13621e-21 6.03448e-08)
(5.96289e-08 -5.74407e-09 -3.78893e-22 7.17143e-08 -3.73283e-23 6.73138e-08)
(6.393e-08 -7.09994e-09 -1.09448e-20 7.41279e-08 -1.46893e-21 7.08952e-08)
(6.63649e-08 -8.06031e-09 -6.07289e-22 7.40228e-08 -4.7295e-23 7.18727e-08)
(6.79052e-08 -8.62876e-09 -4.84458e-21 7.29213e-08 -7.06668e-22 7.18352e-08)
(7.38406e-08 -9.39014e-09 -7.80385e-21 7.79271e-08 -1.0114e-21 7.79396e-08)
(8.1119e-08 -1.01885e-08 1.09572e-20 7.86587e-08 1.39748e-21 8.02204e-08)
(4.15009e-08 -2.84109e-09 -2.27774e-20 5.20919e-08 -3.00386e-21 4.71821e-08)
(4.74071e-08 -4.48817e-09 -3.33269e-21 5.72342e-08 -4.24172e-22 5.35492e-08)
(5.23714e-08 -5.83845e-09 1.32221e-20 6.05465e-08 1.76884e-21 5.81157e-08)
(5.58996e-08 -6.81113e-09 -1.03131e-22 6.18472e-08 -3.19482e-23 6.06024e-08)
(5.86832e-08 -7.41662e-09 -1.14574e-20 6.24729e-08 -1.55233e-21 6.2318e-08)
(6.44783e-08 -8.04475e-09 1.14202e-21 6.76778e-08 2.43743e-22 6.86343e-08)
(6.58104e-08 -8.17174e-09 -1.72119e-20 6.33039e-08 -2.35437e-21 6.55858e-08)
(3.30358e-08 -2.38209e-09 3.35604e-21 4.12367e-08 5.03533e-22 3.68204e-08)
(3.84357e-08 -3.86734e-09 9.92114e-21 4.60268e-08 1.32148e-21 4.27344e-08)
(4.46833e-08 -5.24097e-09 -7.85792e-21 5.0854e-08 -1.068e-21 4.8856e-08)
(5.04758e-08 -6.32252e-09 -1.10119e-20 5.46885e-08 -1.49516e-21 5.39836e-08)
(5.5687e-08 -7.07325e-09 -2.05276e-20 5.81145e-08 -2.68256e-21 5.86128e-08)
(6.3322e-08 -7.82304e-09 4.40744e-20 6.5707e-08 5.8397e-21 6.73431e-08)
(6.1761e-08 -7.57158e-09 -2.9675e-20 5.92246e-08 -3.89089e-21 6.20499e-08)
(2.26745e-08 -1.63958e-09 9.32795e-21 2.81665e-08 1.24983e-21 2.48994e-08)
(2.661e-08 -2.77407e-09 -3.27612e-21 3.16218e-08 -4.61867e-22 2.91432e-08)
(3.32296e-08 -4.05857e-09 2.92227e-21 3.71523e-08 3.94582e-22 3.5739e-08)
(4.08989e-08 -5.21419e-09 -1.70309e-20 4.33661e-08 -2.27208e-21 4.31398e-08)
(4.83177e-08 -6.12571e-09 2.59227e-20 4.94707e-08 3.47409e-21 5.04378e-08)
(5.78986e-08 -7.04458e-09 -2.53332e-20 5.96346e-08 -3.40755e-21 6.16729e-08)
(5.52098e-08 -6.67641e-09 3.4917e-20 5.29849e-08 4.67727e-21 5.59867e-08)
(1.13622e-08 -6.34865e-10 1.26038e-20 1.41151e-08 1.68696e-21 1.21915e-08)
(1.34441e-08 -1.2889e-09 6.41928e-21 1.61489e-08 8.56793e-22 1.45265e-08)
(1.70121e-08 -2.05912e-09 -5.62755e-21 1.91007e-08 -7.62788e-22 1.79285e-08)
(2.35859e-08 -3.045e-09 -5.0623e-21 2.48938e-08 -6.92005e-22 2.44123e-08)
(3.17241e-08 -4.06991e-09 -1.11676e-20 3.21719e-08 -1.45394e-21 3.26146e-08)
(4.04906e-08 -5.05966e-09 -1.0925e-20 4.01826e-08 -1.46986e-21 4.1677e-08)
(5.12905e-08 -6.10382e-09 2.86596e-20 5.21248e-08 3.85563e-21 5.45899e-08)
(4.75998e-08 -5.60935e-09 -1.62264e-20 4.55024e-08 -2.19383e-21 4.86082e-08)
(6.61016e-09 -6.94784e-10 -6.32493e-21 7.26422e-09 -8.3632e-22 6.52256e-09)
(1.05265e-08 -1.33855e-09 1.06959e-20 1.10979e-08 1.39133e-21 1.06336e-08)
(1.53607e-08 -1.95345e-09 -1.11887e-20 1.53045e-08 -1.45435e-21 1.51618e-08)
(2.11691e-08 -2.64176e-09 -9.77897e-21 2.0416e-08 -1.32372e-21 2.07682e-08)
(2.82443e-08 -3.45966e-09 9.25814e-21 2.68289e-08 1.22114e-21 2.79232e-08)
(3.71337e-08 -4.45815e-09 1.82359e-20 3.51957e-08 2.49077e-21 3.72557e-08)
(4.84219e-08 -5.64819e-09 -3.37657e-21 4.77679e-08 -5.18605e-22 5.0855e-08)
(4.63689e-08 -5.09533e-09 8.4687e-21 4.29646e-08 1.16241e-21 4.69433e-08)
(1.53395e-08 -1.50166e-09 2.04553e-20 1.33633e-08 2.74331e-21 1.40178e-08)
(1.91935e-08 -2.14739e-09 -2.4117e-20 1.73711e-08 -3.26079e-21 1.8101e-08)
(2.38542e-08 -2.67566e-09 2.80055e-20 2.16578e-08 3.77027e-21 2.24449e-08)
(2.85125e-08 -3.19341e-09 -2.22806e-20 2.58891e-08 -2.97066e-21 2.67948e-08)
(3.37118e-08 -3.84879e-09 -2.51653e-20 3.07806e-08 -3.38475e-21 3.19478e-08)
(4.03791e-08 -4.76456e-09 3.64727e-20 3.73667e-08 4.88907e-21 3.89689e-08)
(4.58652e-08 -5.66442e-09 -2.27142e-20 4.45005e-08 -3.05078e-21 4.6533e-08)
(3.95573e-08 -4.6923e-09 1.78448e-20 3.67536e-08 2.37315e-21 3.86814e-08)
(3.99351e-08 -3.83629e-09 3.01776e-21 3.42783e-08 3.66645e-22 3.71139e-08)
(4.5683e-08 -4.67036e-09 -2.14167e-20 3.98814e-08 -2.84565e-21 4.31928e-08)
(5.20187e-08 -5.33848e-09 1.40247e-20 4.54661e-08 1.82786e-21 4.92403e-08)
(5.78652e-08 -5.88764e-09 -3.85333e-21 5.04375e-08 -4.59814e-22 5.46631e-08)
(6.37545e-08 -6.51262e-09 -1.53733e-20 5.56468e-08 -2.0187e-21 6.03789e-08)
(7.10548e-08 -7.45299e-09 4.1085e-20 6.26482e-08 5.42925e-21 6.80869e-08)
(8.02502e-08 -8.90653e-09 -2.14678e-20 7.34011e-08 -2.80603e-21 7.98325e-08)
(8.22302e-08 -8.49772e-09 4.37941e-21 7.2983e-08 5.28202e-22 8.05178e-08)
(5.05893e-08 -4.82828e-09 -1.07464e-20 4.57637e-08 -1.42727e-21 4.53987e-08)
(5.35066e-08 -5.53103e-09 -1.08916e-20 4.97434e-08 -1.42852e-21 4.87527e-08)
(5.83515e-08 -6.19882e-09 -1.74663e-20 5.51071e-08 -2.35927e-21 5.35482e-08)
(6.35569e-08 -6.80051e-09 3.03281e-20 6.06042e-08 4.03782e-21 5.85013e-08)
(6.85009e-08 -7.35104e-09 4.95346e-21 6.58398e-08 6.79437e-22 6.31922e-08)
(7.37511e-08 -7.89756e-09 -9.75475e-21 7.13471e-08 -1.33467e-21 6.81146e-08)
(7.06601e-08 -7.5209e-09 2.54293e-20 7.00187e-08 3.39294e-21 6.56951e-08)
(6.74415e-08 -5.46433e-09 -3.85153e-20 6.75395e-08 -5.12006e-21 6.11037e-08)
(1.40665e-07 -8.58e-09 1.41598e-20 1.15174e-07 1.88674e-21 1.34491e-07)
(1.43896e-07 -8.86192e-09 4.68237e-21 1.1805e-07 6.46817e-22 1.37864e-07)
(1.46993e-07 -8.99489e-09 -2.10174e-20 1.20477e-07 -2.78406e-21 1.40721e-07)
(1.49321e-07 -9.0446e-09 -1.42948e-20 1.22246e-07 -1.94777e-21 1.42844e-07)
(1.51013e-07 -9.26413e-09 5.57454e-21 1.23973e-07 7.79682e-22 1.44889e-07)