/*--------------------------------*- C++ -*----------------------------------*\
| =========                 |                                                 |
| \\      /  F ield         | OpenFOAM: The Open Source CFD Toolbox           |
|  \\    /   O peration     | Version:  2506                                  |
|   \\  /    A nd           | Website:  www.openfoam.com                      |
|    \\/     M anipulation  |                                                 |
\*---------------------------------------------------------------------------*/
FoamFile
{
    version     2.0;
    format      ascii;
    arch        "LSB;label=32;scalar=64";
    class       volScalarField;
    location    "50";
    object      turbulenceProperties:nut;
}
// * * * * * * * * * * * * * * * * * * * * * * * * * * * * * * * * * * * * * //

dimensions      [0 2 -1 0 0 0 0];

internalField   nonuniform List<scalar> 
1340
(
0.114658
0.112245
0.109248
0.0988885
0.0754779
0.0769805
0.0810727
0.0833593
0.0446751
0.0518299
0.0588608
0.0659242
0.00862572
0.0153657
0.0250614
0.0410192
0.000131365
0.00131316
0.00243878
0.0144094
4.98563e-06
0.000307683
0.000624478
0.00260265
1.5418e-07
7.97192e-09
0
0.000622163
4.25904e-06
2.44191e-06
1.85876e-08
0
6.30957e-06
6.74833e-06
4.77552e-06
2.83644e-09
6.29775e-06
5.87898e-06
9.27436e-06
6.17581e-07
6.23398e-06
5.98843e-06
7.46768e-06
4.15548e-06
6.18944e-06
6.16444e-06
6.384e-06
6.23463e-06
6.17288e-06
6.19075e-06
6.17794e-06
6.4158e-06
6.16151e-06
6.17681e-06
6.17507e-06
6.28633e-06
6.15165e-06
6.16328e-06
6.17541e-06
6.21776e-06
6.14312e-06
6.15282e-06
6.16708e-06
6.19168e-06
6.13645e-06
6.14473e-06
6.15792e-06
6.17756e-06
6.13103e-06
6.13822e-06
6.15017e-06
6.16678e-06
6.1261e-06
6.13241e-06
6.14335e-06
6.1576e-06
6.1215e-06
6.12698e-06
6.13694e-06
6.14929e-06
6.11764e-06
6.12231e-06
6.13123e-06
6.14172e-06
6.11463e-06
6.11864e-06
6.12661e-06
6.13518e-06
6.11215e-06
6.11571e-06
6.12294e-06
6.12987e-06
6.10993e-06
6.11313e-06
6.11978e-06
6.12546e-06
6.108e-06
6.11086e-06
6.11699e-06
6.12167e-06
6.10636e-06
6.109e-06
6.11471e-06
6.11852e-06
6.10481e-06
6.10736e-06
6.11279e-06
6.11601e-06
6.10329e-06
6.10573e-06
6.11092e-06
6.11376e-06
6.10189e-06
6.10417e-06
6.10904e-06
6.11149e-06
6.10065e-06
6.10276e-06
6.10727e-06
6.10935e-06
6.09947e-06
6.10148e-06
6.10569e-06
6.10745e-06
6.09827e-06
6.10021e-06
6.10421e-06
6.10573e-06
6.09716e-06
6.09901e-06
6.10277e-06
6.10406e-06
6.09619e-06
6.09794e-06
6.10143e-06
6.10248e-06
6.09516e-06
6.09685e-06
6.10013e-06
6.101e-06
6.09414e-06
6.09574e-06
6.09883e-06
6.0995e-06
6.09324e-06
6.09475e-06
6.0976e-06
6.09809e-06
6.09228e-06
6.09364e-06
6.09625e-06
6.09667e-06
6.08993e-06
6.09117e-06
6.09249e-06
6.09495e-06
6.09523e-06
6.08894e-06
6.09013e-06
6.0915e-06
6.09382e-06
6.09393e-06
6.08798e-06
6.0891e-06
6.09045e-06
6.09259e-06
6.09264e-06
6.08686e-06
6.0879e-06
6.08921e-06
6.09122e-06
6.0912e-06
6.08583e-06
6.08679e-06
6.08803e-06
6.08987e-06
6.08978e-06
6.08495e-06
6.08583e-06
6.08697e-06
6.08861e-06
6.0886e-06
6.08391e-06
6.0847e-06
6.08576e-06
6.08723e-06
6.08723e-06
6.0829e-06
6.08362e-06
6.08459e-06
6.08589e-06
6.08585e-06
6.08221e-06
6.08291e-06
6.08381e-06
6.08491e-06
6.08496e-06
6.08161e-06
6.08226e-06
6.0831e-06
6.08408e-06
6.08434e-06
6.08077e-06
6.08136e-06
6.08215e-06
6.08303e-06
6.08336e-06
6.0798e-06
6.08037e-06
6.08111e-06
6.08192e-06
6.08228e-06
6.07903e-06
6.07959e-06
6.08032e-06
6.08107e-06
6.08161e-06
6.0784e-06
6.07897e-06
6.07969e-06
6.08037e-06
6.0811e-06
6.07713e-06
6.0776e-06
6.07815e-06
6.07884e-06
6.07947e-06
6.0803e-06
6.07628e-06
6.07671e-06
6.07725e-06
6.0779e-06
6.07849e-06
6.07935e-06
6.07579e-06
6.07621e-06
6.07673e-06
6.07736e-06
6.07793e-06
6.07882e-06
6.07592e-06
6.07631e-06
6.0768e-06
6.0774e-06
6.07793e-06
6.07884e-06
6.07652e-06
6.07688e-06
6.07733e-06
6.07787e-06
6.07834e-06
6.07922e-06
6.07722e-06
6.07759e-06
6.07802e-06
6.07851e-06
6.07893e-06
6.07975e-06
6.07773e-06
6.07816e-06
6.0786e-06
6.07909e-06
6.07949e-06
6.08022e-06
6.07819e-06
6.07871e-06
6.07921e-06
6.07973e-06
6.08015e-06
6.08086e-06
6.07889e-06
6.07947e-06
6.08003e-06
6.08058e-06
6.08101e-06
6.08168e-06
6.07968e-06
6.08026e-06
6.08081e-06
6.08133e-06
6.08184e-06
6.08225e-06
6.08281e-06
6.08224e-06
6.0827e-06
6.08314e-06
6.08355e-06
6.08397e-06
6.08429e-06
6.08463e-06
6.08598e-06
6.08641e-06
6.08678e-06
6.0871e-06
6.0874e-06
6.08761e-06
6.08755e-06
6.09028e-06
6.09079e-06
6.09123e-06
6.09163e-06
6.09199e-06
6.09229e-06
6.092e-06
6.09435e-06
6.09497e-06
6.09551e-06
6.09602e-06
6.09651e-06
6.097e-06
6.097e-06
6.09754e-06
6.09825e-06
6.09889e-06
6.0995e-06
6.1001e-06
6.10071e-06
6.10104e-06
6.09959e-06
6.1003e-06
6.10092e-06
6.10151e-06
6.10208e-06
6.10264e-06
6.10303e-06
6.1011e-06
6.1019e-06
6.1026e-06
6.10325e-06
6.10385e-06
6.10443e-06
6.10478e-06
6.10236e-06
6.10331e-06
6.10418e-06
6.105e-06
6.10579e-06
6.10656e-06
6.10714e-06
6.10288e-06
6.10391e-06
6.1049e-06
6.10585e-06
6.10678e-06
6.10768e-06
6.10848e-06
6.10236e-06
6.10348e-06
6.10456e-06
6.10564e-06
6.10669e-06
6.10772e-06
6.10874e-06
6.1097e-06
6.10368e-06
6.10492e-06
6.10613e-06
6.10736e-06
6.10858e-06
6.1098e-06
6.11104e-06
6.11223e-06
6.1069e-06
6.10836e-06
6.10983e-06
6.11134e-06
6.11288e-06
6.11445e-06
6.1161e-06
6.11771e-06
6.1119e-06
6.1136e-06
6.11533e-06
6.11711e-06
6.11897e-06
6.12088e-06
6.12292e-06
6.125e-06
6.1153e-06
6.11692e-06
6.11856e-06
6.12026e-06
6.12204e-06
6.12389e-06
6.12584e-06
6.12797e-06
6.11147e-06
6.11247e-06
6.11347e-06
6.11451e-06
6.11558e-06
6.11668e-06
6.11773e-06
6.11915e-06
6.10123e-06
6.10211e-06
6.10299e-06
6.10392e-06
6.10492e-06
6.10593e-06
6.10708e-06
6.10844e-06
6.10005e-06
6.10252e-06
6.105e-06
6.10752e-06
6.11014e-06
6.11295e-06
6.11593e-06
6.11857e-06
6.09568e-06
6.09677e-06
6.09777e-06
6.09869e-06
6.09957e-06
6.10043e-06
6.10124e-06
6.10186e-06
0.143891
0.093564
0.0562194
0.0281827
0.00782824
0.000613834
0.000130698
0
3.19037e-09
1.18823e-06
5.02253e-06
6.37821e-06
6.37455e-06
6.264e-06
6.21497e-06
6.19388e-06
6.18014e-06
6.16897e-06
6.15923e-06
6.15043e-06
6.14252e-06
6.13575e-06
6.13027e-06
6.12575e-06
6.12197e-06
6.11889e-06
6.11634e-06
6.11403e-06
6.11183e-06
6.10985e-06
6.10803e-06
6.1063e-06
6.10465e-06
6.10311e-06
6.1016e-06
6.10015e-06
6.09883e-06
6.09743e-06
6.09604e-06
6.09492e-06
6.09372e-06
6.09233e-06
6.09116e-06
6.0901e-06
6.08869e-06
6.08746e-06
6.08682e-06
6.08622e-06
6.08514e-06
6.08413e-06
6.08364e-06
6.08315e-06
6.08231e-06
6.08138e-06
6.08088e-06
6.08087e-06
6.08114e-06
6.08148e-06
6.08179e-06
6.08233e-06
6.08303e-06
6.08404e-06
6.08569e-06
6.08829e-06
6.09233e-06
6.09717e-06
6.10134e-06
6.10333e-06
6.10511e-06
6.10759e-06
6.10905e-06
6.11047e-06
6.11332e-06
6.11918e-06
6.12677e-06
6.12948e-06
6.12014e-06
6.10957e-06
6.12087e-06
6.10271e-06
0.19764
0.153462
0.103318
0.0559083
0.0175887
0.00108855
1.63851e-07
1.06249e-09
3.04993e-10
2.05744e-06
5.62182e-06
6.42806e-06
6.34386e-06
6.25656e-06
6.21869e-06
6.19856e-06
6.1836e-06
6.17115e-06
6.16038e-06
6.15087e-06
6.14259e-06
6.13569e-06
6.13016e-06
6.12571e-06
6.12213e-06
6.11925e-06
6.11683e-06
6.11467e-06
6.11272e-06
6.11096e-06
6.10927e-06
6.10765e-06
6.10613e-06
6.10468e-06
6.10325e-06
6.10193e-06
6.10066e-06
6.09928e-06
6.09807e-06
6.09713e-06
6.09596e-06
6.09467e-06
6.09366e-06
6.09255e-06
6.09108e-06
6.09001e-06
6.08948e-06
6.08872e-06
6.08748e-06
6.08652e-06
6.08608e-06
6.08546e-06
6.08449e-06
6.08354e-06
6.08302e-06
6.08294e-06
6.08305e-06
6.08318e-06
6.08331e-06
6.08373e-06
6.08432e-06
6.08521e-06
6.08673e-06
6.08911e-06
6.09282e-06
6.09737e-06
6.10157e-06
6.10354e-06
6.10537e-06
6.1079e-06
6.10945e-06
6.11101e-06
6.11412e-06
6.12028e-06
6.12803e-06
6.13041e-06
6.12072e-06
6.11032e-06
6.12266e-06
6.10329e-06
0.178512
0.156502
0.119484
0.0718409
0.0257333
0.00245355
4.63605e-05
5.06822e-07
1.06763e-08
3.42277e-06
6.03335e-06
6.41819e-06
6.31937e-06
6.25443e-06
6.22296e-06
6.20273e-06
6.18671e-06
6.17327e-06
6.16173e-06
6.15173e-06
6.14322e-06
6.13627e-06
6.13077e-06
6.12647e-06
6.1231e-06
6.12043e-06
6.1182e-06
6.11628e-06
6.11458e-06
6.11302e-06
6.11149e-06
6.11004e-06
6.10866e-06
6.10732e-06
6.106e-06
6.10475e-06
6.10345e-06
6.10212e-06
6.10111e-06
6.10024e-06
6.09902e-06
6.09781e-06
6.09681e-06
6.09551e-06
6.094e-06
6.09307e-06
6.0925e-06
6.09147e-06
6.09008e-06
6.08916e-06
6.08865e-06
6.08781e-06
6.08667e-06
6.08568e-06
6.08512e-06
6.08492e-06
6.08484e-06
6.08474e-06
6.08472e-06
6.08503e-06
6.0855e-06
6.08632e-06
6.08774e-06
6.08992e-06
6.09332e-06
6.0976e-06
6.10177e-06
6.10371e-06
6.1056e-06
6.10818e-06
6.10979e-06
6.11151e-06
6.11486e-06
6.12132e-06
6.12921e-06
6.1312e-06
6.12118e-06
6.11128e-06
6.12458e-06
6.10378e-06
0.0853203
0.0732593
0.052391
0.0279999
0.00857793
0.000662765
1.29546e-07
6.90043e-09
1.60555e-06
5.54848e-06
6.39066e-06
6.43575e-06
6.35221e-06
6.30007e-06
6.26576e-06
6.23915e-06
6.21711e-06
6.19851e-06
6.18269e-06
6.16929e-06
6.15815e-06
6.14916e-06
6.14205e-06
6.13651e-06
6.13214e-06
6.12864e-06
6.12574e-06
6.1233e-06
6.12116e-06
6.11922e-06
6.11741e-06
6.11573e-06
6.11414e-06
6.11259e-06
6.11106e-06
6.10954e-06
6.10798e-06
6.10662e-06
6.10564e-06
6.10457e-06
6.10316e-06
6.10187e-06
6.10065e-06
6.09907e-06
6.09754e-06
6.09664e-06
6.09583e-06
6.09445e-06
6.09292e-06
6.09196e-06
6.09127e-06
6.09014e-06
6.08882e-06
6.08777e-06
6.08712e-06
6.08677e-06
6.08647e-06
6.08616e-06
6.08599e-06
6.08619e-06
6.08657e-06
6.08731e-06
6.08864e-06
6.09063e-06
6.09375e-06
6.09785e-06
6.10197e-06
6.10387e-06
6.10582e-06
6.10844e-06
6.11012e-06
6.11197e-06
6.11559e-06
6.12236e-06
6.13038e-06
6.13193e-06
6.12157e-06
6.11238e-06
6.12644e-06
6.10409e-06
0.0150955
0.0127701
0.00886741
0.00448823
0.00130982
0.000106762
1.50372e-06
3.2629e-06
5.65292e-06
6.60066e-06
6.64926e-06
6.58305e-06
6.50528e-06
6.44434e-06
6.39361e-06
6.35e-06
6.31231e-06
6.27978e-06
6.25189e-06
6.22825e-06
6.20851e-06
6.19231e-06
6.17915e-06
6.16849e-06
6.1598e-06
6.15265e-06
6.14671e-06
6.14171e-06
6.13743e-06
6.13371e-06
6.13042e-06
6.12749e-06
6.1248e-06
6.12228e-06
6.11984e-06
6.1175e-06
6.11535e-06
6.11366e-06
6.11227e-06
6.11064e-06
6.10883e-06
6.1072e-06
6.10552e-06
6.10359e-06
6.10194e-06
6.10086e-06
6.09963e-06
6.09784e-06
6.09613e-06
6.09503e-06
6.09402e-06
6.09256e-06
6.09104e-06
6.08988e-06
6.0891e-06
6.08856e-06
6.08802e-06
6.08749e-06
6.08718e-06
6.08727e-06
6.08754e-06
6.0882e-06
6.08941e-06
6.09122e-06
6.09411e-06
6.09815e-06
6.1022e-06
6.10409e-06
6.10609e-06
6.10873e-06
6.11046e-06
6.11245e-06
6.11635e-06
6.12347e-06
6.13159e-06
6.13266e-06
6.12197e-06
6.11357e-06
6.12812e-06
6.10421e-06
0.000905309
0.000939113
0.000769922
0.000453495
0.000156335
1.4659e-05
6.30139e-06
6.55607e-06
6.87078e-06
6.89177e-06
6.82661e-06
6.75257e-06
6.68052e-06
6.6145e-06
6.55347e-06
6.49737e-06
6.44628e-06
6.40026e-06
6.35936e-06
6.32353e-06
6.29258e-06
6.26613e-06
6.24369e-06
6.2247e-06
6.20864e-06
6.19505e-06
6.18353e-06
6.17374e-06
6.16536e-06
6.15817e-06
6.15193e-06
6.14644e-06
6.14152e-06
6.13704e-06
6.13291e-06
6.1292e-06
6.12606e-06
6.12353e-06
6.1212e-06
6.11867e-06
6.11619e-06
6.11393e-06
6.11158e-06
6.1092e-06
6.10728e-06
6.10577e-06
6.10393e-06
6.10168e-06
6.09974e-06
6.09837e-06
6.09695e-06
6.09511e-06
6.09339e-06
6.09208e-06
6.09112e-06
6.09034e-06
6.08954e-06
6.08879e-06
6.08833e-06
6.08828e-06
6.08842e-06
6.08898e-06
6.09005e-06
6.09169e-06
6.09445e-06
6.09856e-06
6.10253e-06
6.10441e-06
6.10644e-06
6.10908e-06
6.11085e-06
6.11299e-06
6.11719e-06
6.12469e-06
6.13287e-06
6.13341e-06
6.12238e-06
6.11482e-06
1.09637e-10
1.35974e-05
4.35059e-05
3.89968e-05
1.59596e-05
7.98773e-06
7.03023e-06
6.96898e-06
6.96401e-06
6.92305e-06
6.87606e-06
6.8246e-06
6.77116e-06
6.71685e-06
6.66252e-06
6.60913e-06
6.55757e-06
6.50866e-06
6.46308e-06
6.42127e-06
6.38342e-06
6.34952e-06
6.31938e-06
6.29276e-06
6.26937e-06
6.24893e-06
6.23112e-06
6.21564e-06
6.20221e-06
6.19054e-06
6.18034e-06
6.17135e-06
6.16334e-06
6.15619e-06
6.14982e-06
6.14434e-06
6.13976e-06
6.13585e-06
6.13212e-06
6.12843e-06
6.12502e-06
6.12186e-06
6.1187e-06
6.11577e-06
6.11338e-06
6.1112e-06
6.10865e-06
6.10592e-06
6.10368e-06
6.10193e-06
6.10001e-06
6.09779e-06
6.09585e-06
6.09436e-06
6.09317e-06
6.09211e-06
6.09102e-06
6.09004e-06
6.08942e-06
6.08921e-06
6.08921e-06
6.08963e-06
6.09056e-06
6.09209e-06
6.09483e-06
6.09911e-06
6.10301e-06
6.10489e-06
6.10693e-06
6.10953e-06
6.11132e-06
6.11361e-06
6.11816e-06
6.12604e-06
6.13422e-06
6.13419e-06
3.17672e-06
5.62118e-06
7.89014e-06
8.57797e-06
7.54331e-06
6.9895e-06
6.86112e-06
6.85873e-06
6.85342e-06
6.83865e-06
6.81864e-06
6.79342e-06
6.76334e-06
6.7291e-06
6.69169e-06
6.65204e-06
6.61114e-06
6.57003e-06
6.52959e-06
6.49051e-06
6.45326e-06
6.41817e-06
6.38546e-06
6.35528e-06
6.32768e-06
6.30265e-06
6.28013e-06
6.26e-06
6.24208e-06
6.22617e-06
6.21201e-06
6.19937e-06
6.1881e-06
6.1781e-06
6.16936e-06
6.16189e-06
6.15551e-06
6.14982e-06
6.14445e-06
6.13942e-06
6.13487e-06
6.13064e-06
6.12659e-06
6.123e-06
6.11993e-06
6.11693e-06
6.11363e-06
6.11042e-06
6.10782e-06
6.10558e-06
6.10312e-06
6.10054e-06
6.09837e-06
6.09665e-06
6.09519e-06
6.09382e-06
6.09244e-06
6.09123e-06
6.09043e-06
6.09005e-06
6.08989e-06
6.09018e-06
6.09098e-06
6.09249e-06
6.09539e-06
6.09981e-06
6.10364e-06
6.10552e-06
6.10753e-06
6.11007e-06
6.11188e-06
6.11435e-06
6.11926e-06
6.12753e-06
6.31335e-06
6.40764e-06
6.63861e-06
6.77514e-06
6.70545e-06
6.66667e-06
6.67454e-06
6.69287e-06
6.70272e-06
6.7071e-06
6.70737e-06
6.70258e-06
6.69233e-06
6.67716e-06
6.65773e-06
6.63461e-06
6.60853e-06
6.58027e-06
6.55058e-06
6.5201e-06
6.48934e-06
6.45877e-06
6.42882e-06
6.39987e-06
6.37223e-06
6.34616e-06
6.32184e-06
6.29936e-06
6.27874e-06
6.25991e-06
6.24277e-06
6.22721e-06
6.21322e-06
6.20079e-06
6.1899e-06
6.18044e-06
6.17211e-06
6.16451e-06
6.15747e-06
6.15104e-06
6.14524e-06
6.13986e-06
6.13491e-06
6.13054e-06
6.12665e-06
6.12275e-06
6.11874e-06
6.11507e-06
6.11202e-06
6.10923e-06
6.10624e-06
6.10331e-06
6.10089e-06
6.09892e-06
6.09715e-06
6.09545e-06
6.09378e-06
6.09234e-06
6.09137e-06
6.0908e-06
6.09049e-06
6.09064e-06
6.09137e-06
6.09294e-06
6.0961e-06
6.10064e-06
6.1044e-06
6.10626e-06
6.10823e-06
6.11069e-06
6.11251e-06
6.41414e-06
6.4789e-06
6.55284e-06
6.54714e-06
6.51003e-06
6.50607e-06
6.52368e-06
6.5406e-06
6.5539e-06
6.56679e-06
6.57851e-06
6.58676e-06
6.59061e-06
6.59031e-06
6.58598e-06
6.57779e-06
6.56606e-06
6.5512e-06
6.53367e-06
6.51394e-06
6.49249e-06
6.46972e-06
6.44606e-06
6.42194e-06
6.39776e-06
6.37394e-06
6.35081e-06
6.32864e-06
6.30758e-06
6.28773e-06
6.26918e-06
6.252e-06
6.23633e-06
6.22224e-06
6.2097e-06
6.19852e-06
6.18838e-06
6.17905e-06
6.17048e-06
6.16273e-06
6.15569e-06
6.14922e-06
6.14336e-06
6.13815e-06
6.13334e-06
6.12857e-06
6.1239e-06
6.11976e-06
6.11621e-06
6.11282e-06
6.10932e-06
6.10606e-06
6.10338e-06
6.10112e-06
6.09901e-06
6.09697e-06
6.09501e-06
6.09337e-06
6.09223e-06
6.09147e-06
6.091e-06
6.09106e-06
6.09175e-06
6.09344e-06
6.09692e-06
6.10157e-06
6.55038e-06
6.67528e-06
6.66224e-06
6.56312e-06
6.48963e-06
6.46169e-06
6.45203e-06
6.44519e-06
6.44309e-06
6.44899e-06
6.45943e-06
6.47059e-06
6.48098e-06
6.48964e-06
6.49588e-06
6.49924e-06
6.49937e-06
6.49625e-06
6.48999e-06
6.48089e-06
6.46928e-06
6.45543e-06
6.43968e-06
6.42236e-06
6.40387e-06
6.38464e-06
6.36507e-06
6.34546e-06
6.32609e-06
6.30718e-06
6.28895e-06
6.27167e-06
6.25558e-06
6.24081e-06
6.22731e-06
6.2149e-06
6.20338e-06
6.19267e-06
6.18283e-06
6.17387e-06
6.16572e-06
6.15827e-06
6.15155e-06
6.1455e-06
6.1398e-06
6.13423e-06
6.12899e-06
6.12437e-06
6.12028e-06
6.1163e-06
6.11234e-06
6.10878e-06
6.1058e-06
6.10319e-06
6.10076e-06
6.09842e-06
6.09619e-06
6.09436e-06
6.09305e-06
6.09215e-06
6.09156e-06
6.80736e-06
6.92313e-06
6.83581e-06
6.69621e-06
6.60203e-06
6.54354e-06
6.49281e-06
6.44728e-06
6.41432e-06
6.39483e-06
6.38609e-06
6.38446e-06
6.38835e-06
6.39611e-06
6.40554e-06
6.41482e-06
6.42264e-06
6.42808e-06
6.43085e-06
6.43079e-06
6.42805e-06
6.42274e-06
6.41497e-06
6.40497e-06
6.39302e-06
6.37952e-06
6.36483e-06
6.34927e-06
6.33313e-06
6.31671e-06
6.30032e-06
6.28434e-06
6.26906e-06
6.25463e-06
6.24101e-06
6.22811e-06
6.21587e-06
6.20442e-06
6.1939e-06
6.18426e-06
6.17525e-06
6.16697e-06
6.15955e-06
6.15271e-06
6.14614e-06
6.13986e-06
6.13409e-06
6.12898e-06
6.12431e-06
6.11974e-06
6.11536e-06
6.11153e-06
6.10835e-06
6.10548e-06
7.10038e-06
7.14124e-06
6.99317e-06
6.85036e-06
6.76036e-06
6.68935e-06
6.61563e-06
6.54234e-06
6.47789e-06
6.42455e-06
6.3836e-06
6.35568e-06
6.33813e-06
6.33067e-06
6.33096e-06
6.33625e-06
6.34479e-06
6.35422e-06
6.36302e-06
6.37052e-06
6.37597e-06
6.37904e-06
6.37948e-06
6.37719e-06
6.37234e-06
6.36522e-06
6.35616e-06
6.34545e-06
6.33337e-06
6.32027e-06
6.30656e-06
6.29266e-06
6.27888e-06
6.26538e-06
6.25217e-06
6.23929e-06
6.22685e-06
6.21499e-06
6.20394e-06
6.19379e-06
6.18451e-06
6.17568e-06
)
;

boundaryField
{
    inlet
    {
        type            freestream;
        freestreamValue uniform 1e-05;
        value           uniform 1e-05;
    }
    outlet
    {
        type            freestream;
        freestreamValue nonuniform List<scalar> 0();
        value           nonuniform List<scalar> 0();
    }
    walls
    {
        type            nutUSpaldingWallFunction;
        value           nonuniform List<scalar> 4(0.0029028 0.00283389 0.00272334 0.00245511);
    }
    frontAndBack
    {
        type            empty;
    }
    procBoundary2to1
    {
        type            processor;
        value           nonuniform List<scalar> 
84
(
0.116235
0.0737371
0.0361883
0.00415207
0.000976652
1.79922e-08
4.55917e-06
6.4246e-06
6.27496e-06
6.18568e-06
6.18267e-06
6.17124e-06
6.16117e-06
6.15088e-06
6.14216e-06
6.13486e-06
6.12928e-06
6.12474e-06
6.12056e-06
6.11669e-06
6.11352e-06
6.11102e-06
6.10889e-06
6.10699e-06
6.10535e-06
6.1039e-06
6.10242e-06
6.10101e-06
6.09978e-06
6.0987e-06
6.09762e-06
6.09649e-06
6.09547e-06
6.0946e-06
6.09365e-06
6.09271e-06
6.09191e-06
6.09104e-06
6.09104e-06
6.08896e-06
6.08807e-06
6.08718e-06
6.08613e-06
6.08517e-06
6.08436e-06
6.08341e-06
6.08244e-06
6.08175e-06
6.08119e-06
6.08038e-06
6.07941e-06
6.0786e-06
6.07794e-06
6.07794e-06
6.07683e-06
6.07602e-06
6.07556e-06
6.07569e-06
6.07623e-06
6.07685e-06
6.07726e-06
6.0776e-06
6.07825e-06
6.07825e-06
6.07908e-06
6.08172e-06
6.08543e-06
6.08962e-06
6.09353e-06
6.09662e-06
6.09864e-06
6.10005e-06
6.10121e-06
6.10173e-06
6.10173e-06
6.10112e-06
6.10236e-06
6.10537e-06
6.11009e-06
6.11354e-06
6.11029e-06
6.10021e-06
6.09753e-06
6.09445e-06
)
;
    }
    procBoundary2to3
    {
        type            processor;
        value           nonuniform List<scalar> 
88
(
6.12967e-06
6.10418e-06
6.12286e-06
6.12967e-06
6.11613e-06
6.13567e-06
6.12286e-06
6.135e-06
6.11519e-06
6.12051e-06
6.13567e-06
6.12913e-06
6.10533e-06
6.10717e-06
6.10904e-06
6.1114e-06
6.11519e-06
6.11323e-06
6.09151e-06
6.09222e-06
6.09413e-06
6.0979e-06
6.10533e-06
6.10261e-06
6.10269e-06
6.09988e-06
6.09739e-06
6.09534e-06
6.09385e-06
6.09278e-06
6.09151e-06
6.0921e-06
6.16746e-06
6.15972e-06
6.15259e-06
6.14576e-06
6.1395e-06
6.13384e-06
6.12856e-06
6.12343e-06
6.11861e-06
6.11439e-06
6.11082e-06
6.10269e-06
6.10754e-06
7.35843e-06
7.36416e-06
7.19913e-06
7.05519e-06
6.96309e-06
6.88643e-06
6.80373e-06
6.71819e-06
6.63823e-06
6.56504e-06
6.49732e-06
6.43596e-06
6.3823e-06
6.33972e-06
6.3103e-06
6.29071e-06
6.28039e-06
6.27717e-06
6.27851e-06
6.28348e-06
6.29064e-06
6.29851e-06
6.30572e-06
6.31134e-06
6.31478e-06
6.31601e-06
6.31511e-06
6.31218e-06
6.30726e-06
6.30055e-06
6.29245e-06
6.28337e-06
6.27364e-06
6.26344e-06
6.25284e-06
6.24195e-06
6.23101e-06
6.22006e-06
6.20902e-06
6.19855e-06
6.1893e-06
6.16746e-06
6.18116e-06
)
;
    }
    procBoundary2to6
    {
        type            processor;
        value           nonuniform List<scalar> 
13
(
0.191922
0.235744
0.207093
0.0969818
0.0155054
0.00064853
1.23645e-08
1.31119e-06
6.44083e-06
6.64677e-06
6.61555e-06
6.73389e-06
6.94579e-06
)
;
    }
}


// ************************************************************************* //
