/*--------------------------------*- C++ -*----------------------------------*\
| =========                 |                                                 |
| \\      /  F ield         | OpenFOAM: The Open Source CFD Toolbox           |
|  \\    /   O peration     | Version:  2506                                  |
|   \\  /    A nd           | Website:  www.openfoam.com                      |
|    \\/     M anipulation  |                                                 |
\*---------------------------------------------------------------------------*/
FoamFile
{
    version     2.0;
    format      ascii;
    arch        "LSB;label=32;scalar=64";
    class       volScalarField;
    location    "50";
    object      turbulenceProperties:nuEff;
}
// * * * * * * * * * * * * * * * * * * * * * * * * * * * * * * * * * * * * * //

dimensions      [0 2 -1 0 0 0 0];

internalField   nonuniform List<scalar> 
1340
(
0.114668
0.112255
0.109258
0.0988985
0.0754879
0.0769905
0.0810827
0.0833693
0.0446851
0.0518399
0.0588708
0.0659342
0.00863572
0.0153757
0.0250714
0.0410292
0.000141365
0.00132316
0.00244878
0.0144194
1.49856e-05
0.000317683
0.000634478
0.00261265
1.01542e-05
1.0008e-05
1e-05
0.000632163
1.4259e-05
1.24419e-05
1.00186e-05
1e-05
1.63096e-05
1.67483e-05
1.47755e-05
1.00028e-05
1.62977e-05
1.5879e-05
1.92744e-05
1.06176e-05
1.6234e-05
1.59884e-05
1.74677e-05
1.41555e-05
1.61894e-05
1.61644e-05
1.6384e-05
1.62346e-05
1.61729e-05
1.61907e-05
1.61779e-05
1.64158e-05
1.61615e-05
1.61768e-05
1.61751e-05
1.62863e-05
1.61516e-05
1.61633e-05
1.61754e-05
1.62178e-05
1.61431e-05
1.61528e-05
1.61671e-05
1.61917e-05
1.61364e-05
1.61447e-05
1.61579e-05
1.61776e-05
1.6131e-05
1.61382e-05
1.61502e-05
1.61668e-05
1.61261e-05
1.61324e-05
1.61433e-05
1.61576e-05
1.61215e-05
1.6127e-05
1.61369e-05
1.61493e-05
1.61176e-05
1.61223e-05
1.61312e-05
1.61417e-05
1.61146e-05
1.61186e-05
1.61266e-05
1.61352e-05
1.61122e-05
1.61157e-05
1.61229e-05
1.61299e-05
1.61099e-05
1.61131e-05
1.61198e-05
1.61255e-05
1.6108e-05
1.61109e-05
1.6117e-05
1.61217e-05
1.61064e-05
1.6109e-05
1.61147e-05
1.61185e-05
1.61048e-05
1.61074e-05
1.61128e-05
1.6116e-05
1.61033e-05
1.61057e-05
1.61109e-05
1.61138e-05
1.61019e-05
1.61042e-05
1.6109e-05
1.61115e-05
1.61006e-05
1.61028e-05
1.61073e-05
1.61093e-05
1.60995e-05
1.61015e-05
1.61057e-05
1.61075e-05
1.60983e-05
1.61002e-05
1.61042e-05
1.61057e-05
1.60972e-05
1.6099e-05
1.61028e-05
1.61041e-05
1.60962e-05
1.60979e-05
1.61014e-05
1.61025e-05
1.60952e-05
1.60968e-05
1.61001e-05
1.6101e-05
1.60941e-05
1.60957e-05
1.60988e-05
1.60995e-05
1.60932e-05
1.60948e-05
1.60976e-05
1.60981e-05
1.60923e-05
1.60936e-05
1.60963e-05
1.60967e-05
1.60899e-05
1.60912e-05
1.60925e-05
1.60949e-05
1.60952e-05
1.60889e-05
1.60901e-05
1.60915e-05
1.60938e-05
1.60939e-05
1.6088e-05
1.60891e-05
1.60904e-05
1.60926e-05
1.60926e-05
1.60869e-05
1.60879e-05
1.60892e-05
1.60912e-05
1.60912e-05
1.60858e-05
1.60868e-05
1.6088e-05
1.60899e-05
1.60898e-05
1.60849e-05
1.60858e-05
1.6087e-05
1.60886e-05
1.60886e-05
1.60839e-05
1.60847e-05
1.60858e-05
1.60872e-05
1.60872e-05
1.60829e-05
1.60836e-05
1.60846e-05
1.60859e-05
1.60859e-05
1.60822e-05
1.60829e-05
1.60838e-05
1.60849e-05
1.6085e-05
1.60816e-05
1.60823e-05
1.60831e-05
1.60841e-05
1.60843e-05
1.60808e-05
1.60814e-05
1.60822e-05
1.6083e-05
1.60834e-05
1.60798e-05
1.60804e-05
1.60811e-05
1.60819e-05
1.60823e-05
1.6079e-05
1.60796e-05
1.60803e-05
1.60811e-05
1.60816e-05
1.60784e-05
1.6079e-05
1.60797e-05
1.60804e-05
1.60811e-05
1.60771e-05
1.60776e-05
1.60782e-05
1.60788e-05
1.60795e-05
1.60803e-05
1.60763e-05
1.60767e-05
1.60772e-05
1.60779e-05
1.60785e-05
1.60794e-05
1.60758e-05
1.60762e-05
1.60767e-05
1.60774e-05
1.60779e-05
1.60788e-05
1.60759e-05
1.60763e-05
1.60768e-05
1.60774e-05
1.60779e-05
1.60788e-05
1.60765e-05
1.60769e-05
1.60773e-05
1.60779e-05
1.60783e-05
1.60792e-05
1.60772e-05
1.60776e-05
1.6078e-05
1.60785e-05
1.60789e-05
1.60797e-05
1.60777e-05
1.60782e-05
1.60786e-05
1.60791e-05
1.60795e-05
1.60802e-05
1.60782e-05
1.60787e-05
1.60792e-05
1.60797e-05
1.60802e-05
1.60809e-05
1.60789e-05
1.60795e-05
1.608e-05
1.60806e-05
1.6081e-05
1.60817e-05
1.60797e-05
1.60803e-05
1.60808e-05
1.60813e-05
1.60818e-05
1.60823e-05
1.60828e-05
1.60822e-05
1.60827e-05
1.60831e-05
1.60835e-05
1.6084e-05
1.60843e-05
1.60846e-05
1.6086e-05
1.60864e-05
1.60868e-05
1.60871e-05
1.60874e-05
1.60876e-05
1.60876e-05
1.60903e-05
1.60908e-05
1.60912e-05
1.60916e-05
1.6092e-05
1.60923e-05
1.6092e-05
1.60943e-05
1.6095e-05
1.60955e-05
1.6096e-05
1.60965e-05
1.6097e-05
1.6097e-05
1.60975e-05
1.60983e-05
1.60989e-05
1.60995e-05
1.61001e-05
1.61007e-05
1.6101e-05
1.60996e-05
1.61003e-05
1.61009e-05
1.61015e-05
1.61021e-05
1.61026e-05
1.6103e-05
1.61011e-05
1.61019e-05
1.61026e-05
1.61032e-05
1.61039e-05
1.61044e-05
1.61048e-05
1.61024e-05
1.61033e-05
1.61042e-05
1.6105e-05
1.61058e-05
1.61066e-05
1.61071e-05
1.61029e-05
1.61039e-05
1.61049e-05
1.61059e-05
1.61068e-05
1.61077e-05
1.61085e-05
1.61024e-05
1.61035e-05
1.61046e-05
1.61056e-05
1.61067e-05
1.61077e-05
1.61087e-05
1.61097e-05
1.61037e-05
1.61049e-05
1.61061e-05
1.61074e-05
1.61086e-05
1.61098e-05
1.6111e-05
1.61122e-05
1.61069e-05
1.61084e-05
1.61098e-05
1.61113e-05
1.61129e-05
1.61144e-05
1.61161e-05
1.61177e-05
1.61119e-05
1.61136e-05
1.61153e-05
1.61171e-05
1.6119e-05
1.61209e-05
1.61229e-05
1.6125e-05
1.61153e-05
1.61169e-05
1.61186e-05
1.61203e-05
1.6122e-05
1.61239e-05
1.61258e-05
1.6128e-05
1.61115e-05
1.61125e-05
1.61135e-05
1.61145e-05
1.61156e-05
1.61167e-05
1.61177e-05
1.61191e-05
1.61012e-05
1.61021e-05
1.6103e-05
1.61039e-05
1.61049e-05
1.61059e-05
1.61071e-05
1.61084e-05
1.61e-05
1.61025e-05
1.6105e-05
1.61075e-05
1.61101e-05
1.61129e-05
1.61159e-05
1.61186e-05
1.60957e-05
1.60968e-05
1.60978e-05
1.60987e-05
1.60996e-05
1.61004e-05
1.61012e-05
1.61019e-05
0.143901
0.093574
0.0562294
0.0281927
0.00783824
0.000623834
0.000140698
1e-05
1.00032e-05
1.11882e-05
1.50225e-05
1.63782e-05
1.63745e-05
1.6264e-05
1.6215e-05
1.61939e-05
1.61801e-05
1.6169e-05
1.61592e-05
1.61504e-05
1.61425e-05
1.61358e-05
1.61303e-05
1.61257e-05
1.6122e-05
1.61189e-05
1.61163e-05
1.6114e-05
1.61118e-05
1.61098e-05
1.6108e-05
1.61063e-05
1.61046e-05
1.61031e-05
1.61016e-05
1.61001e-05
1.60988e-05
1.60974e-05
1.6096e-05
1.60949e-05
1.60937e-05
1.60923e-05
1.60912e-05
1.60901e-05
1.60887e-05
1.60875e-05
1.60868e-05
1.60862e-05
1.60851e-05
1.60841e-05
1.60836e-05
1.60831e-05
1.60823e-05
1.60814e-05
1.60809e-05
1.60809e-05
1.60811e-05
1.60815e-05
1.60818e-05
1.60823e-05
1.6083e-05
1.6084e-05
1.60857e-05
1.60883e-05
1.60923e-05
1.60972e-05
1.61013e-05
1.61033e-05
1.61051e-05
1.61076e-05
1.61091e-05
1.61105e-05
1.61133e-05
1.61192e-05
1.61268e-05
1.61295e-05
1.61201e-05
1.61096e-05
1.61209e-05
1.61027e-05
0.19765
0.153472
0.103328
0.0559183
0.0175987
0.00109855
1.01639e-05
1.00011e-05
1.00003e-05
1.20574e-05
1.56218e-05
1.64281e-05
1.63439e-05
1.62566e-05
1.62187e-05
1.61986e-05
1.61836e-05
1.61712e-05
1.61604e-05
1.61509e-05
1.61426e-05
1.61357e-05
1.61302e-05
1.61257e-05
1.61221e-05
1.61193e-05
1.61168e-05
1.61147e-05
1.61127e-05
1.6111e-05
1.61093e-05
1.61077e-05
1.61061e-05
1.61047e-05
1.61032e-05
1.61019e-05
1.61007e-05
1.60993e-05
1.60981e-05
1.60971e-05
1.6096e-05
1.60947e-05
1.60937e-05
1.60925e-05
1.60911e-05
1.609e-05
1.60895e-05
1.60887e-05
1.60875e-05
1.60865e-05
1.60861e-05
1.60855e-05
1.60845e-05
1.60835e-05
1.6083e-05
1.60829e-05
1.6083e-05
1.60832e-05
1.60833e-05
1.60837e-05
1.60843e-05
1.60852e-05
1.60867e-05
1.60891e-05
1.60928e-05
1.60974e-05
1.61016e-05
1.61035e-05
1.61054e-05
1.61079e-05
1.61094e-05
1.6111e-05
1.61141e-05
1.61203e-05
1.6128e-05
1.61304e-05
1.61207e-05
1.61103e-05
1.61227e-05
1.61033e-05
0.178522
0.156512
0.119494
0.0718509
0.0257433
0.00246355
5.63605e-05
1.05068e-05
1.00107e-05
1.34228e-05
1.60333e-05
1.64182e-05
1.63194e-05
1.62544e-05
1.6223e-05
1.62027e-05
1.61867e-05
1.61733e-05
1.61617e-05
1.61517e-05
1.61432e-05
1.61363e-05
1.61308e-05
1.61265e-05
1.61231e-05
1.61204e-05
1.61182e-05
1.61163e-05
1.61146e-05
1.6113e-05
1.61115e-05
1.611e-05
1.61087e-05
1.61073e-05
1.6106e-05
1.61048e-05
1.61034e-05
1.61021e-05
1.61011e-05
1.61002e-05
1.6099e-05
1.60978e-05
1.60968e-05
1.60955e-05
1.6094e-05
1.60931e-05
1.60925e-05
1.60915e-05
1.60901e-05
1.60892e-05
1.60886e-05
1.60878e-05
1.60867e-05
1.60857e-05
1.60851e-05
1.60849e-05
1.60848e-05
1.60847e-05
1.60847e-05
1.6085e-05
1.60855e-05
1.60863e-05
1.60877e-05
1.60899e-05
1.60933e-05
1.60976e-05
1.61018e-05
1.61037e-05
1.61056e-05
1.61082e-05
1.61098e-05
1.61115e-05
1.61149e-05
1.61213e-05
1.61292e-05
1.61312e-05
1.61212e-05
1.61113e-05
1.61246e-05
1.61038e-05
0.0853303
0.0732693
0.052401
0.0280099
0.00858793
0.000672765
1.01295e-05
1.00069e-05
1.16055e-05
1.55485e-05
1.63907e-05
1.64358e-05
1.63522e-05
1.63001e-05
1.62658e-05
1.62391e-05
1.62171e-05
1.61985e-05
1.61827e-05
1.61693e-05
1.61582e-05
1.61492e-05
1.61421e-05
1.61365e-05
1.61321e-05
1.61286e-05
1.61257e-05
1.61233e-05
1.61212e-05
1.61192e-05
1.61174e-05
1.61157e-05
1.61141e-05
1.61126e-05
1.61111e-05
1.61095e-05
1.6108e-05
1.61066e-05
1.61056e-05
1.61046e-05
1.61032e-05
1.61019e-05
1.61006e-05
1.60991e-05
1.60975e-05
1.60966e-05
1.60958e-05
1.60945e-05
1.60929e-05
1.6092e-05
1.60913e-05
1.60901e-05
1.60888e-05
1.60878e-05
1.60871e-05
1.60868e-05
1.60865e-05
1.60862e-05
1.6086e-05
1.60862e-05
1.60866e-05
1.60873e-05
1.60886e-05
1.60906e-05
1.60938e-05
1.60978e-05
1.6102e-05
1.61039e-05
1.61058e-05
1.61084e-05
1.61101e-05
1.6112e-05
1.61156e-05
1.61224e-05
1.61304e-05
1.61319e-05
1.61216e-05
1.61124e-05
1.61264e-05
1.61041e-05
0.0151055
0.0127801
0.00887741
0.00449823
0.00131982
0.000116762
1.15037e-05
1.32629e-05
1.56529e-05
1.66007e-05
1.66493e-05
1.65831e-05
1.65053e-05
1.64443e-05
1.63936e-05
1.635e-05
1.63123e-05
1.62798e-05
1.62519e-05
1.62282e-05
1.62085e-05
1.61923e-05
1.61791e-05
1.61685e-05
1.61598e-05
1.61527e-05
1.61467e-05
1.61417e-05
1.61374e-05
1.61337e-05
1.61304e-05
1.61275e-05
1.61248e-05
1.61223e-05
1.61198e-05
1.61175e-05
1.61154e-05
1.61137e-05
1.61123e-05
1.61106e-05
1.61088e-05
1.61072e-05
1.61055e-05
1.61036e-05
1.61019e-05
1.61009e-05
1.60996e-05
1.60978e-05
1.60961e-05
1.6095e-05
1.6094e-05
1.60926e-05
1.6091e-05
1.60899e-05
1.60891e-05
1.60886e-05
1.6088e-05
1.60875e-05
1.60872e-05
1.60873e-05
1.60875e-05
1.60882e-05
1.60894e-05
1.60912e-05
1.60941e-05
1.60982e-05
1.61022e-05
1.61041e-05
1.61061e-05
1.61087e-05
1.61105e-05
1.61125e-05
1.61163e-05
1.61235e-05
1.61316e-05
1.61327e-05
1.6122e-05
1.61136e-05
1.61281e-05
1.61042e-05
0.000915309
0.000949113
0.000779922
0.000463495
0.000166335
2.4659e-05
1.63014e-05
1.65561e-05
1.68708e-05
1.68918e-05
1.68266e-05
1.67526e-05
1.66805e-05
1.66145e-05
1.65535e-05
1.64974e-05
1.64463e-05
1.64003e-05
1.63594e-05
1.63235e-05
1.62926e-05
1.62661e-05
1.62437e-05
1.62247e-05
1.62086e-05
1.61951e-05
1.61835e-05
1.61737e-05
1.61654e-05
1.61582e-05
1.61519e-05
1.61464e-05
1.61415e-05
1.6137e-05
1.61329e-05
1.61292e-05
1.61261e-05
1.61235e-05
1.61212e-05
1.61187e-05
1.61162e-05
1.61139e-05
1.61116e-05
1.61092e-05
1.61073e-05
1.61058e-05
1.61039e-05
1.61017e-05
1.60997e-05
1.60984e-05
1.60969e-05
1.60951e-05
1.60934e-05
1.60921e-05
1.60911e-05
1.60903e-05
1.60895e-05
1.60888e-05
1.60883e-05
1.60883e-05
1.60884e-05
1.6089e-05
1.609e-05
1.60917e-05
1.60944e-05
1.60986e-05
1.61025e-05
1.61044e-05
1.61064e-05
1.61091e-05
1.61109e-05
1.6113e-05
1.61172e-05
1.61247e-05
1.61329e-05
1.61334e-05
1.61224e-05
1.61148e-05
1.00001e-05
2.35974e-05
5.35059e-05
4.89968e-05
2.59596e-05
1.79877e-05
1.70302e-05
1.6969e-05
1.6964e-05
1.6923e-05
1.68761e-05
1.68246e-05
1.67712e-05
1.67169e-05
1.66625e-05
1.66091e-05
1.65576e-05
1.65087e-05
1.64631e-05
1.64213e-05
1.63834e-05
1.63495e-05
1.63194e-05
1.62928e-05
1.62694e-05
1.62489e-05
1.62311e-05
1.62156e-05
1.62022e-05
1.61905e-05
1.61803e-05
1.61713e-05
1.61633e-05
1.61562e-05
1.61498e-05
1.61443e-05
1.61398e-05
1.61358e-05
1.61321e-05
1.61284e-05
1.6125e-05
1.61219e-05
1.61187e-05
1.61158e-05
1.61134e-05
1.61112e-05
1.61087e-05
1.61059e-05
1.61037e-05
1.61019e-05
1.61e-05
1.60978e-05
1.60959e-05
1.60944e-05
1.60932e-05
1.60921e-05
1.6091e-05
1.609e-05
1.60894e-05
1.60892e-05
1.60892e-05
1.60896e-05
1.60906e-05
1.60921e-05
1.60948e-05
1.60991e-05
1.6103e-05
1.61049e-05
1.61069e-05
1.61095e-05
1.61113e-05
1.61136e-05
1.61182e-05
1.6126e-05
1.61342e-05
1.61342e-05
1.31767e-05
1.56212e-05
1.78901e-05
1.8578e-05
1.75433e-05
1.69895e-05
1.68611e-05
1.68587e-05
1.68534e-05
1.68387e-05
1.68186e-05
1.67934e-05
1.67633e-05
1.67291e-05
1.66917e-05
1.6652e-05
1.66111e-05
1.657e-05
1.65296e-05
1.64905e-05
1.64533e-05
1.64182e-05
1.63855e-05
1.63553e-05
1.63277e-05
1.63026e-05
1.62801e-05
1.626e-05
1.62421e-05
1.62262e-05
1.6212e-05
1.61994e-05
1.61881e-05
1.61781e-05
1.61694e-05
1.61619e-05
1.61555e-05
1.61498e-05
1.61445e-05
1.61394e-05
1.61349e-05
1.61306e-05
1.61266e-05
1.6123e-05
1.61199e-05
1.61169e-05
1.61136e-05
1.61104e-05
1.61078e-05
1.61056e-05
1.61031e-05
1.61005e-05
1.60984e-05
1.60967e-05
1.60952e-05
1.60938e-05
1.60924e-05
1.60912e-05
1.60904e-05
1.609e-05
1.60899e-05
1.60902e-05
1.6091e-05
1.60925e-05
1.60954e-05
1.60998e-05
1.61036e-05
1.61055e-05
1.61075e-05
1.61101e-05
1.61119e-05
1.61143e-05
1.61193e-05
1.61275e-05
1.63133e-05
1.64076e-05
1.66386e-05
1.67751e-05
1.67055e-05
1.66667e-05
1.66745e-05
1.66929e-05
1.67027e-05
1.67071e-05
1.67074e-05
1.67026e-05
1.66923e-05
1.66772e-05
1.66577e-05
1.66346e-05
1.66085e-05
1.65803e-05
1.65506e-05
1.65201e-05
1.64893e-05
1.64588e-05
1.64288e-05
1.63999e-05
1.63722e-05
1.63462e-05
1.63218e-05
1.62994e-05
1.62787e-05
1.62599e-05
1.62428e-05
1.62272e-05
1.62132e-05
1.62008e-05
1.61899e-05
1.61804e-05
1.61721e-05
1.61645e-05
1.61575e-05
1.6151e-05
1.61452e-05
1.61399e-05
1.61349e-05
1.61305e-05
1.61266e-05
1.61228e-05
1.61187e-05
1.61151e-05
1.6112e-05
1.61092e-05
1.61062e-05
1.61033e-05
1.61009e-05
1.60989e-05
1.60972e-05
1.60955e-05
1.60938e-05
1.60923e-05
1.60914e-05
1.60908e-05
1.60905e-05
1.60906e-05
1.60914e-05
1.60929e-05
1.60961e-05
1.61006e-05
1.61044e-05
1.61063e-05
1.61082e-05
1.61107e-05
1.61125e-05
1.64141e-05
1.64789e-05
1.65528e-05
1.65471e-05
1.651e-05
1.65061e-05
1.65237e-05
1.65406e-05
1.65539e-05
1.65668e-05
1.65785e-05
1.65868e-05
1.65906e-05
1.65903e-05
1.6586e-05
1.65778e-05
1.65661e-05
1.65512e-05
1.65337e-05
1.65139e-05
1.64925e-05
1.64697e-05
1.64461e-05
1.64219e-05
1.63978e-05
1.63739e-05
1.63508e-05
1.63286e-05
1.63076e-05
1.62877e-05
1.62692e-05
1.6252e-05
1.62363e-05
1.62222e-05
1.62097e-05
1.61985e-05
1.61884e-05
1.6179e-05
1.61705e-05
1.61627e-05
1.61557e-05
1.61492e-05
1.61434e-05
1.61382e-05
1.61333e-05
1.61286e-05
1.61239e-05
1.61198e-05
1.61162e-05
1.61128e-05
1.61093e-05
1.61061e-05
1.61034e-05
1.61011e-05
1.6099e-05
1.6097e-05
1.6095e-05
1.60934e-05
1.60922e-05
1.60915e-05
1.6091e-05
1.60911e-05
1.60918e-05
1.60934e-05
1.60969e-05
1.61016e-05
1.65504e-05
1.66753e-05
1.66622e-05
1.65631e-05
1.64896e-05
1.64617e-05
1.6452e-05
1.64452e-05
1.64431e-05
1.6449e-05
1.64594e-05
1.64706e-05
1.6481e-05
1.64896e-05
1.64959e-05
1.64992e-05
1.64994e-05
1.64962e-05
1.649e-05
1.64809e-05
1.64693e-05
1.64554e-05
1.64397e-05
1.64224e-05
1.64039e-05
1.63846e-05
1.63651e-05
1.63455e-05
1.63261e-05
1.63072e-05
1.62889e-05
1.62717e-05
1.62556e-05
1.62408e-05
1.62273e-05
1.62149e-05
1.62034e-05
1.61927e-05
1.61828e-05
1.61739e-05
1.61657e-05
1.61583e-05
1.61516e-05
1.61455e-05
1.61398e-05
1.61342e-05
1.6129e-05
1.61244e-05
1.61203e-05
1.61163e-05
1.61123e-05
1.61088e-05
1.61058e-05
1.61032e-05
1.61008e-05
1.60984e-05
1.60962e-05
1.60944e-05
1.60931e-05
1.60921e-05
1.60916e-05
1.68074e-05
1.69231e-05
1.68358e-05
1.66962e-05
1.6602e-05
1.65435e-05
1.64928e-05
1.64473e-05
1.64143e-05
1.63948e-05
1.63861e-05
1.63845e-05
1.63884e-05
1.63961e-05
1.64055e-05
1.64148e-05
1.64226e-05
1.64281e-05
1.64308e-05
1.64308e-05
1.6428e-05
1.64227e-05
1.6415e-05
1.6405e-05
1.6393e-05
1.63795e-05
1.63648e-05
1.63493e-05
1.63331e-05
1.63167e-05
1.63003e-05
1.62843e-05
1.62691e-05
1.62546e-05
1.6241e-05
1.62281e-05
1.62159e-05
1.62044e-05
1.61939e-05
1.61843e-05
1.61753e-05
1.6167e-05
1.61596e-05
1.61527e-05
1.61461e-05
1.61399e-05
1.61341e-05
1.6129e-05
1.61243e-05
1.61197e-05
1.61154e-05
1.61115e-05
1.61083e-05
1.61055e-05
1.71004e-05
1.71412e-05
1.69932e-05
1.68504e-05
1.67604e-05
1.66894e-05
1.66156e-05
1.65423e-05
1.64779e-05
1.64246e-05
1.63836e-05
1.63557e-05
1.63381e-05
1.63307e-05
1.6331e-05
1.63363e-05
1.63448e-05
1.63542e-05
1.6363e-05
1.63705e-05
1.6376e-05
1.6379e-05
1.63795e-05
1.63772e-05
1.63723e-05
1.63652e-05
1.63562e-05
1.63454e-05
1.63334e-05
1.63203e-05
1.63066e-05
1.62927e-05
1.62789e-05
1.62654e-05
1.62522e-05
1.62393e-05
1.62268e-05
1.6215e-05
1.62039e-05
1.61938e-05
1.61845e-05
1.61757e-05
)
;

boundaryField
{
    inlet
    {
        type            calculated;
        value           uniform 2e-05;
    }
    outlet
    {
        type            calculated;
        value           nonuniform List<scalar> 0();
    }
    walls
    {
        type            calculated;
        value           nonuniform List<scalar> 4(0.0029128 0.00284389 0.00273334 0.00246511);
    }
    frontAndBack
    {
        type            empty;
    }
    procBoundary2to1
    {
        type            processor;
        value           nonuniform List<scalar> 
84
(
0.116245
0.0737471
0.0361983
0.00416207
0.000986652
1.0018e-05
1.45592e-05
1.64246e-05
1.6275e-05
1.61857e-05
1.61827e-05
1.61712e-05
1.61612e-05
1.61509e-05
1.61422e-05
1.61349e-05
1.61293e-05
1.61247e-05
1.61206e-05
1.61167e-05
1.61135e-05
1.6111e-05
1.61089e-05
1.6107e-05
1.61054e-05
1.61039e-05
1.61024e-05
1.6101e-05
1.60998e-05
1.60987e-05
1.60976e-05
1.60965e-05
1.60955e-05
1.60946e-05
1.60937e-05
1.60927e-05
1.60919e-05
1.6091e-05
1.6091e-05
1.6089e-05
1.60881e-05
1.60872e-05
1.60861e-05
1.60852e-05
1.60844e-05
1.60834e-05
1.60824e-05
1.60818e-05
1.60812e-05
1.60804e-05
1.60794e-05
1.60786e-05
1.60779e-05
1.60779e-05
1.60768e-05
1.6076e-05
1.60756e-05
1.60757e-05
1.60762e-05
1.60768e-05
1.60773e-05
1.60776e-05
1.60782e-05
1.60782e-05
1.60791e-05
1.60817e-05
1.60854e-05
1.60896e-05
1.60935e-05
1.60966e-05
1.60986e-05
1.61001e-05
1.61012e-05
1.61017e-05
1.61017e-05
1.61011e-05
1.61024e-05
1.61054e-05
1.61101e-05
1.61135e-05
1.61103e-05
1.61002e-05
1.60975e-05
1.60945e-05
)
;
    }
    procBoundary2to3
    {
        type            processor;
        value           nonuniform List<scalar> 
88
(
1.61297e-05
1.61042e-05
1.61229e-05
1.61297e-05
1.61161e-05
1.61357e-05
1.61229e-05
1.6135e-05
1.61152e-05
1.61205e-05
1.61357e-05
1.61291e-05
1.61053e-05
1.61072e-05
1.6109e-05
1.61114e-05
1.61152e-05
1.61132e-05
1.60915e-05
1.60922e-05
1.60941e-05
1.60979e-05
1.61053e-05
1.61026e-05
1.61027e-05
1.60999e-05
1.60974e-05
1.60953e-05
1.60938e-05
1.60928e-05
1.60915e-05
1.60921e-05
1.61675e-05
1.61597e-05
1.61526e-05
1.61458e-05
1.61395e-05
1.61338e-05
1.61286e-05
1.61234e-05
1.61186e-05
1.61144e-05
1.61108e-05
1.61027e-05
1.61075e-05
1.73584e-05
1.73642e-05
1.71991e-05
1.70552e-05
1.69631e-05
1.68864e-05
1.68037e-05
1.67182e-05
1.66382e-05
1.6565e-05
1.64973e-05
1.6436e-05
1.63823e-05
1.63397e-05
1.63103e-05
1.62907e-05
1.62804e-05
1.62772e-05
1.62785e-05
1.62835e-05
1.62906e-05
1.62985e-05
1.63057e-05
1.63113e-05
1.63148e-05
1.6316e-05
1.63151e-05
1.63122e-05
1.63073e-05
1.63005e-05
1.62924e-05
1.62834e-05
1.62736e-05
1.62634e-05
1.62528e-05
1.6242e-05
1.6231e-05
1.62201e-05
1.6209e-05
1.61985e-05
1.61893e-05
1.61675e-05
1.61812e-05
)
;
    }
    procBoundary2to6
    {
        type            processor;
        value           nonuniform List<scalar> 
13
(
0.191932
0.235754
0.207103
0.0969918
0.0155154
0.00065853
1.00124e-05
1.13112e-05
1.64408e-05
1.66468e-05
1.66156e-05
1.67339e-05
1.69458e-05
)
;
    }
}


// ************************************************************************* //
