/*--------------------------------*- C++ -*----------------------------------*\
| =========                 |                                                 |
| \\      /  F ield         | OpenFOAM: The Open Source CFD Toolbox           |
|  \\    /   O peration     | Version:  2506                                  |
|   \\  /    A nd           | Website:  www.openfoam.com                      |
|    \\/     M anipulation  |                                                 |
\*---------------------------------------------------------------------------*/
FoamFile
{
    version     2.0;
    format      ascii;
    arch        "LSB;label=32;scalar=64";
    class       volScalarField;
    location    "50";
    object      turbulenceProperties:I;
}
// * * * * * * * * * * * * * * * * * * * * * * * * * * * * * * * * * * * * * //

dimensions      [0 0 0 0 0 0 0];

internalField   nonuniform List<scalar> 
1340
(
0.244429
0.24574
0.249699
0.256301
0.0395457
0.0421498
0.0480762
0.0613739
0.0190348
0.022269
0.0248299
0.0315964
0.00378182
0.00662434
0.0109014
0.0196019
0.000508037
0.00142914
0.0022714
0.00874224
0.00013594
0.000569987
0.00106573
0.00315637
7.87738e-05
3.73435e-05
0
0.0014704
0.000133079
0.00011365
4.04318e-05
0
0.000164794
0.000168247
0.000173139
3.49641e-05
0.000146726
0.000142908
0.000189686
0.000129303
0.000150806
0.000150509
0.000181188
0.000205227
0.000143658
0.000143718
0.000164953
0.000219438
0.000141167
0.000140822
0.000156559
0.000210688
0.000136373
0.000134893
0.000148363
0.000198487
0.000132802
0.000130639
0.000141644
0.000187482
0.000128603
0.00012549
0.00013443
0.000177062
0.000124585
0.000120483
0.000127256
0.000166775
0.000120416
0.000115225
0.000119992
0.000156486
0.000116168
0.000109867
0.000112724
0.000146268
0.000111776
0.00010432
0.000105378
0.000136197
0.00010733
9.86662e-05
9.79406e-05
0.0001263
0.00010288
9.28926e-05
9.03406e-05
0.000116571
9.84571e-05
8.70438e-05
8.251e-05
0.000107029
9.40449e-05
8.11506e-05
7.43399e-05
9.7736e-05
8.97226e-05
7.52983e-05
6.5753e-05
8.88186e-05
8.56863e-05
6.97238e-05
5.65314e-05
8.03654e-05
8.20249e-05
6.47236e-05
4.63254e-05
7.25544e-05
7.8684e-05
6.05289e-05
3.44077e-05
6.58558e-05
7.56985e-05
5.73982e-05
1.78577e-05
6.09395e-05
7.31937e-05
5.56332e-05
2.16742e-05
5.82469e-05
7.12812e-05
5.53144e-05
3.41719e-05
5.76543e-05
6.99062e-05
5.60982e-05
4.22625e-05
5.85285e-05
6.88918e-05
5.73708e-05
4.80911e-05
6.01241e-05
6.81231e-05
5.87387e-05
5.23871e-05
6.17772e-05
6.75755e-05
6.00549e-05
5.56373e-05
6.32366e-05
6.70133e-05
6.10527e-05
5.79708e-05
6.43416e-05
6.63618e-05
6.16606e-05
5.95313e-05
6.50206e-05
6.56781e-05
6.19324e-05
6.04846e-05
6.5301e-05
6.81792e-05
6.48739e-05
6.19225e-05
6.09419e-05
6.52242e-05
6.64295e-05
6.37955e-05
6.15593e-05
6.09528e-05
6.47889e-05
6.46827e-05
6.26098e-05
6.08754e-05
6.05481e-05
6.40277e-05
6.28685e-05
6.12417e-05
5.98914e-05
5.97712e-05
6.29731e-05
6.09164e-05
5.96465e-05
5.86031e-05
5.86418e-05
6.1626e-05
5.88396e-05
5.78634e-05
5.70617e-05
5.72167e-05
6.00013e-05
5.66801e-05
5.5956e-05
5.53605e-05
5.56189e-05
5.82408e-05
5.43957e-05
5.38722e-05
5.34362e-05
5.37731e-05
5.62737e-05
5.20062e-05
5.16263e-05
5.1302e-05
5.16924e-05
5.40876e-05
4.95789e-05
4.93126e-05
4.90743e-05
4.95064e-05
5.17896e-05
4.71422e-05
4.69748e-05
4.68142e-05
4.72905e-05
4.94814e-05
4.467e-05
4.45717e-05
4.44657e-05
4.49654e-05
4.70729e-05
4.21728e-05
4.21077e-05
4.20249e-05
4.25227e-05
4.45404e-05
3.96896e-05
3.96177e-05
3.95485e-05
4.00456e-05
4.19721e-05
3.73117e-05
3.72305e-05
3.71405e-05
3.70748e-05
3.75682e-05
3.94238e-05
3.48608e-05
3.47876e-05
3.4714e-05
3.46306e-05
3.5103e-05
3.68913e-05
3.24316e-05
3.23809e-05
3.22877e-05
3.21711e-05
3.26275e-05
3.43729e-05
3.00853e-05
3.00181e-05
2.99068e-05
2.97759e-05
3.02302e-05
3.19231e-05
2.7822e-05
2.77587e-05
2.76395e-05
2.74957e-05
2.79356e-05
2.95725e-05
2.56713e-05
2.55832e-05
2.54482e-05
2.52989e-05
2.57435e-05
2.73182e-05
2.35907e-05
2.34907e-05
2.33435e-05
2.31864e-05
2.362e-05
2.51472e-05
2.16118e-05
2.14707e-05
2.1289e-05
2.1116e-05
2.15252e-05
2.29834e-05
1.97491e-05
1.954e-05
1.93312e-05
1.91325e-05
1.95157e-05
2.08836e-05
1.81904e-05
1.80218e-05
1.7727e-05
1.7467e-05
1.72443e-05
1.76154e-05
1.89009e-05
1.65996e-05
1.64273e-05
1.61259e-05
1.58252e-05
1.55651e-05
1.59026e-05
1.70692e-05
1.51405e-05
1.50499e-05
1.47746e-05
1.4453e-05
1.41748e-05
1.45089e-05
1.55241e-05
1.3801e-05
1.38238e-05
1.36308e-05
1.33654e-05
1.31186e-05
1.3455e-05
1.43017e-05
1.24127e-05
1.26393e-05
1.2604e-05
1.24407e-05
1.22646e-05
1.2614e-05
1.32607e-05
1.0982e-05
1.13874e-05
1.15284e-05
1.15198e-05
1.14577e-05
1.18517e-05
1.2309e-05
9.43803e-06
9.93574e-06
1.01888e-05
1.02681e-05
1.02768e-05
1.06798e-05
1.09151e-05
8.36555e-06
8.8672e-06
9.2193e-06
9.41357e-06
9.54708e-06
9.98663e-06
9.83287e-06
7.43236e-06
7.95238e-06
8.47235e-06
8.89407e-06
9.25674e-06
9.87824e-06
9.53578e-06
6.13765e-06
6.59201e-06
7.26454e-06
7.95941e-06
8.58479e-06
9.43881e-06
9.03343e-06
4.32905e-06
4.68504e-06
5.18508e-06
6.02181e-06
6.92893e-06
7.80136e-06
8.86512e-06
8.39465e-06
3.18603e-06
4.00671e-06
4.77563e-06
5.5706e-06
6.42693e-06
7.38495e-06
8.55433e-06
8.23439e-06
4.61177e-06
5.21693e-06
5.81679e-06
6.35836e-06
6.92974e-06
7.62359e-06
8.25655e-06
7.56673e-06
7.44695e-06
8.00905e-06
8.54995e-06
9.01111e-06
9.46499e-06
1.00281e-05
1.07872e-05
1.08384e-05
8.4074e-06
8.7068e-06
9.12708e-06
9.54603e-06
9.92778e-06
1.03152e-05
1.01494e-05
9.89377e-06
1.39592e-05
1.4129e-05
1.42776e-05
1.43874e-05
1.44833e-05
1.46788e-05
1.52995e-05
1.54687e-05
1.3576e-05
1.37965e-05
1.40108e-05
1.42402e-05
1.4546e-05
1.50356e-05
1.61779e-05
1.74942e-05
2.19481e-05
2.20021e-05
2.20611e-05
2.21184e-05
2.21607e-05
2.2182e-05
2.23527e-05
2.17358e-05
2.97373e-05
2.96764e-05
2.96034e-05
2.9531e-05
2.94467e-05
2.93781e-05
2.92189e-05
2.83759e-05
0.163438
0.0745586
0.0338936
0.0167101
0.0066686
0.00162274
0.000745702
0
4.16923e-05
0.000177691
0.000247064
0.000253928
0.000244578
0.000233717
0.000222889
0.000212167
0.000201346
0.000190477
0.000179613
0.000168834
0.000158226
0.000147861
0.000137802
0.00012817
0.000119049
0.000110528
0.000102718
9.57989e-05
8.99144e-05
8.51179e-05
8.14084e-05
7.86979e-05
7.68027e-05
7.54314e-05
7.44124e-05
7.35539e-05
7.27047e-05
7.1808e-05
7.08027e-05
6.96105e-05
6.82574e-05
6.67435e-05
6.5017e-05
6.30979e-05
6.10912e-05
5.89153e-05
5.65592e-05
5.41426e-05
5.17367e-05
4.92368e-05
4.66197e-05
4.39897e-05
4.14028e-05
3.8828e-05
3.62802e-05
3.37809e-05
3.13751e-05
2.90712e-05
2.68558e-05
2.46541e-05
2.25147e-05
2.0471e-05
1.85351e-05
1.68398e-05
1.54221e-05
1.41667e-05
1.30053e-05
1.14889e-05
1.0213e-05
9.75056e-06
9.19056e-06
8.57603e-06
8.64289e-06
7.88212e-06
1.11876e-05
9.60687e-06
1.52738e-05
1.69271e-05
2.07939e-05
2.67988e-05
0.108702
0.0865998
0.0524997
0.025503
0.00927338
0.00194016
0.000107862
3.02551e-05
2.12238e-05
0.000187998
0.000237313
0.000241075
0.000234566
0.000227279
0.000219823
0.000212406
0.000204733
0.000196833
0.000188688
0.000180377
0.000171957
0.000163516
0.000155101
0.000146826
0.000138758
0.00013096
0.000123533
0.000116565
0.000110123
0.000104266
9.90544e-05
9.44887e-05
9.05149e-05
8.70482e-05
8.40462e-05
8.14057e-05
7.90272e-05
7.68524e-05
7.47676e-05
7.26975e-05
7.06535e-05
6.85897e-05
6.64236e-05
6.41896e-05
6.19296e-05
5.95484e-05
5.70519e-05
5.45625e-05
5.20993e-05
4.95515e-05
4.69132e-05
4.42962e-05
4.17265e-05
3.91649e-05
3.66251e-05
3.41282e-05
3.17088e-05
2.93948e-05
2.71668e-05
2.49702e-05
2.28556e-05
2.08343e-05
1.89093e-05
1.7209e-05
1.57606e-05
1.44508e-05
1.31999e-05
1.15881e-05
1.02423e-05
9.73694e-06
9.25214e-06
8.89618e-06
9.35111e-06
9.18713e-06
1.19736e-05
1.05702e-05
1.53341e-05
1.63412e-05
2.08443e-05
2.68388e-05
0.0562077
0.0560811
0.0400547
0.0215968
0.0102973
0.00306919
0.000484858
0.00013996
5.12518e-05
0.000213164
0.000241099
0.000239341
0.000231808
0.000224375
0.00021721
0.000210209
0.000203225
0.00019627
0.000189258
0.000182241
0.000175218
0.000168223
0.000161247
0.000154327
0.000147505
0.000140794
0.000134232
0.000127851
0.0001217
0.000115839
0.000110316
0.000105144
0.000100322
9.58594e-05
9.17612e-05
8.80031e-05
8.45517e-05
8.13594e-05
7.83317e-05
7.54509e-05
7.27183e-05
7.0061e-05
6.74104e-05
6.48075e-05
6.22351e-05
5.9597e-05
5.69254e-05
5.43252e-05
5.17666e-05
4.9139e-05
4.64634e-05
4.38516e-05
4.12865e-05
3.87285e-05
3.61902e-05
3.36953e-05
3.12817e-05
2.89739e-05
2.67493e-05
2.45692e-05
2.25016e-05
2.05453e-05
1.8705e-05
1.71022e-05
1.57466e-05
1.45082e-05
1.32993e-05
1.17511e-05
1.04576e-05
9.80398e-06
9.13079e-06
8.62324e-06
9.12007e-06
9.26458e-06
1.21252e-05
1.10914e-05
1.52736e-05
1.61463e-05
2.05668e-05
2.67795e-05
0.0158733
0.0141735
0.00792027
0.00441701
0.00361563
0.00109767
7.58014e-05
3.69129e-05
0.000146559
0.000202458
0.000209994
0.000209173
0.000206318
0.000202989
0.00019923
0.000195051
0.000190514
0.00018569
0.000180633
0.000175412
0.000170068
0.000164641
0.000159156
0.000153636
0.000148103
0.000142567
0.000137038
0.000131544
0.00012612
0.000120808
0.00011563
0.000110607
0.000105763
0.000101127
9.67219e-05
9.25561e-05
8.86237e-05
8.48833e-05
8.12956e-05
7.7896e-05
7.46744e-05
7.15589e-05
6.85206e-05
6.55923e-05
6.272e-05
5.98315e-05
5.69864e-05
5.42582e-05
5.15809e-05
4.88603e-05
4.61453e-05
4.3528e-05
4.09592e-05
3.83963e-05
3.58613e-05
3.33778e-05
3.09817e-05
2.86944e-05
2.64822e-05
2.43231e-05
2.22978e-05
2.03967e-05
1.8638e-05
1.71292e-05
1.58544e-05
1.46818e-05
1.35506e-05
1.21747e-05
1.1069e-05
1.03747e-05
9.60138e-06
8.85678e-06
8.96438e-06
9.04118e-06
1.2016e-05
1.11999e-05
1.50985e-05
1.61489e-05
2.03933e-05
2.66889e-05
0.00858558
0.00738146
0.0058111
0.00387313
0.00196792
0.00056186
0.000158501
0.00018534
0.00020629
0.000208801
0.000204443
0.000199971
0.000195836
0.000191956
0.000188138
0.000184234
0.000180221
0.000176072
0.000171797
0.000167417
0.000162956
0.000158435
0.000153857
0.000149245
0.000144597
0.000139925
0.000135233
0.000130541
0.00012586
0.000121213
0.000116601
0.00011205
0.000107574
0.000103202
9.89494e-05
9.48311e-05
9.08381e-05
8.69508e-05
8.31792e-05
7.95782e-05
7.61226e-05
7.27645e-05
6.95063e-05
6.63622e-05
6.32667e-05
6.01927e-05
5.72144e-05
5.43712e-05
5.15802e-05
4.87779e-05
4.60325e-05
4.34061e-05
4.08265e-05
3.82581e-05
3.57283e-05
3.32618e-05
3.08908e-05
2.86233e-05
2.64203e-05
2.42722e-05
2.22592e-05
2.03785e-05
1.86633e-05
1.71917e-05
1.59395e-05
1.47915e-05
1.37085e-05
1.24726e-05
1.15088e-05
1.07957e-05
9.99939e-06
9.18004e-06
8.98094e-06
8.86922e-06
1.18124e-05
1.11775e-05
1.48267e-05
1.63743e-05
2.04471e-05
2.66844e-05
0.00246338
0.0024083
0.00210543
0.00155533
0.000894807
0.00038963
0.00029664
0.000285161
0.000274346
0.000260923
0.000247508
0.000235034
0.000223655
0.00021339
0.000204149
0.000195823
0.000188304
0.000181436
0.0001751
0.000169182
0.000163605
0.000158286
0.000153161
0.000148194
0.000143341
0.000138585
0.00013392
0.000129343
0.000124843
0.000120417
0.000116059
0.000111778
0.00010757
0.000103448
9.94049e-05
9.54432e-05
9.15439e-05
8.77099e-05
8.39713e-05
8.03704e-05
7.68691e-05
7.34477e-05
7.01165e-05
6.68707e-05
6.3656e-05
6.04887e-05
5.74394e-05
5.45169e-05
5.16412e-05
4.87872e-05
4.60289e-05
4.33954e-05
4.08053e-05
3.82361e-05
3.5719e-05
3.32739e-05
3.09283e-05
2.86779e-05
2.64765e-05
2.43274e-05
2.2314e-05
2.04267e-05
1.8715e-05
1.72372e-05
1.59717e-05
1.48031e-05
1.37326e-05
1.25994e-05
1.17187e-05
1.09551e-05
1.00989e-05
9.21846e-06
8.89182e-06
8.6636e-06
1.1537e-05
1.10867e-05
1.44369e-05
1.66513e-05
2.23074e-05
0.000425308
0.000586385
0.000557613
0.000422275
0.000341847
0.0003209
0.000309624
0.00029839
0.000286305
0.000273937
0.000261518
0.00024923
0.000237259
0.000225728
0.000214761
0.000204445
0.000194817
0.000185885
0.000177644
0.000170048
0.000163037
0.000156539
0.000150478
0.000144786
0.000139401
0.000134275
0.00012937
0.000124652
0.000120095
0.000115682
0.0001114
0.000107231
0.000103167
9.91996e-05
9.53104e-05
9.14833e-05
8.77318e-05
8.40791e-05
8.05371e-05
7.70707e-05
7.3676e-05
7.03529e-05
6.70846e-05
6.38402e-05
6.06612e-05
5.75973e-05
5.46368e-05
5.17181e-05
4.88486e-05
4.60936e-05
4.34574e-05
4.08628e-05
3.83029e-05
3.5805e-05
3.33883e-05
3.10698e-05
2.8833e-05
2.66397e-05
2.45016e-05
2.24841e-05
2.05897e-05
1.88697e-05
1.73627e-05
1.60527e-05
1.48302e-05
1.37316e-05
1.26842e-05
1.18724e-05
1.1033e-05
1.00754e-05
9.11968e-06
8.71706e-06
8.40946e-06
1.12078e-05
1.09475e-05
0.000239653
0.000282638
0.000311582
0.000319782
0.000308647
0.000300563
0.00029577
0.000291127
0.000285324
0.000278425
0.00027063
0.000262102
0.000252999
0.000243492
0.000233742
0.000223901
0.000214108
0.000204484
0.000195132
0.000186147
0.000177582
0.000169477
0.000161859
0.000154718
0.00014804
0.000141795
0.000135948
0.000130458
0.000125284
0.00012039
0.000115737
0.000111284
0.00010701
0.00010289
9.88974e-05
9.50079e-05
9.12102e-05
8.75106e-05
8.39188e-05
8.04272e-05
7.70085e-05
7.36587e-05
7.0368e-05
6.71179e-05
6.38999e-05
6.07574e-05
5.77149e-05
5.4751e-05
5.18272e-05
4.89716e-05
4.62311e-05
4.35929e-05
4.0998e-05
3.84549e-05
3.59859e-05
3.36006e-05
3.13095e-05
2.90956e-05
2.69214e-05
2.48077e-05
2.28041e-05
2.09041e-05
1.91751e-05
1.76362e-05
1.62621e-05
1.49712e-05
1.38401e-05
1.28619e-05
1.20883e-05
1.11725e-05
1.00949e-05
8.98391e-06
8.47453e-06
8.09064e-06
0.000216694
0.000228073
0.000237682
0.00024512
0.000248937
0.000251544
0.000253191
0.000253598
0.000252662
0.000250519
0.000247265
0.000243
0.000237845
0.000231924
0.000225369
0.000218302
0.000210852
0.000203146
0.000195301
0.000187423
0.00017961
0.000171936
0.000164483
0.000157294
0.000150408
0.000143859
0.000137657
0.000131797
0.000126269
0.00012105
0.000116121
0.000111446
0.000106996
0.000102743
9.86619e-05
9.47253e-05
9.09219e-05
8.72447e-05
8.36872e-05
8.02279e-05
7.68489e-05
7.35423e-05
7.02921e-05
6.70824e-05
6.39191e-05
6.08326e-05
5.7827e-05
5.4882e-05
5.19819e-05
4.91569e-05
4.6434e-05
4.37977e-05
4.12137e-05
3.86954e-05
3.625e-05
3.38961e-05
3.16348e-05
2.94422e-05
2.72956e-05
2.52148e-05
2.32444e-05
2.13907e-05
1.96694e-05
1.8092e-05
1.66603e-05
1.52813e-05
1.40384e-05
1.30725e-05
1.2326e-05
1.13222e-05
1.01538e-05
0.000149837
0.000162953
0.00017483
0.000184887
0.000193047
0.000199948
0.000205569
0.000209823
0.000212753
0.000214464
0.000215019
0.000214483
0.000212936
0.000210465
0.000207161
0.000203122
0.000198454
0.000193256
0.000187629
0.000181675
0.000175493
0.000169168
0.000162781
0.000156407
0.000150112
0.000143959
0.000137984
0.000132219
0.000126686
0.0001214
0.000116364
0.000111564
0.000106995
0.000102641
9.84853e-05
9.45029e-05
9.06817e-05
8.70034e-05
8.3458e-05
8.00251e-05
7.66891e-05
7.34222e-05
7.02075e-05
6.70459e-05
6.39426e-05
6.09096e-05
5.79434e-05
5.50294e-05
5.2166e-05
4.93776e-05
4.66755e-05
4.40437e-05
4.14677e-05
3.89862e-05
3.66047e-05
3.42836e-05
3.20427e-05
2.98704e-05
2.77586e-05
2.57231e-05
2.37668e-05
2.18988e-05
2.01771e-05
1.85712e-05
1.70843e-05
1.56409e-05
0.00011501
0.000113078
0.000120495
0.000131349
0.000141974
0.000151808
0.00016038
0.000167581
0.000173473
0.000178144
0.000181655
0.000184053
0.000185401
0.000185767
0.00018522
0.000183832
0.000181684
0.000178855
0.000175426
0.000171487
0.00016712
0.000162405
0.000157419
0.000152243
0.000146952
0.000141615
0.000136287
0.000131019
0.000125853
0.000120826
0.000115958
0.000111258
0.000106737
0.000102402
9.8247e-05
9.42607e-05
9.0437e-05
8.67617e-05
8.32208e-05
7.97827e-05
7.6442e-05
7.322e-05
7.00977e-05
6.70003e-05
6.39599e-05
6.09794e-05
5.80532e-05
5.51773e-05
5.23573e-05
4.96044e-05
4.6923e-05
4.43163e-05
4.17816e-05
3.9298e-05
3.68784e-05
3.45906e-05
3.23735e-05
3.02193e-05
2.81333e-05
2.61337e-05
2.42279e-05
0.000140268
0.000124097
0.000108702
0.000101085
0.000101019
0.000107561
0.000116545
0.000125582
0.000133786
0.000140896
0.000146864
0.000151713
0.000155502
0.00015829
0.000160137
0.000161096
0.000161234
0.00016061
0.000159295
0.000157354
0.000154856
0.000151868
0.000148463
0.000144716
0.000140695
0.000136472
0.000132108
0.000127662
0.000123178
0.000118702
0.000114273
0.000109916
0.00010566
0.000101528
9.75226e-05
9.36431e-05
8.9889e-05
8.62545e-05
8.27717e-05
7.94453e-05
7.62167e-05
7.29797e-05
6.97965e-05
6.67821e-05
6.37922e-05
6.08476e-05
5.79591e-05
5.5123e-05
5.23459e-05
4.96246e-05
4.69549e-05
4.43705e-05
4.19046e-05
3.95422e-05
0.000170285
0.000155665
0.000140059
0.000126298
0.000112989
0.000102308
9.60286e-05
9.55891e-05
9.98726e-05
0.000106358
0.000113235
0.000119669
0.000125321
0.000130093
0.000133976
0.000136992
0.000139182
0.000140586
0.00014125
0.000141226
0.000140559
0.000139304
0.000137521
0.000135273
0.000132625
0.000129638
0.000126376
0.000122894
0.000119242
0.000115475
0.00011164
0.000107776
0.000103918
0.000100094
9.63249e-05
9.26209e-05
8.89923e-05
8.54044e-05
8.1866e-05
7.85578e-05
7.55826e-05
7.28366e-05
)
;

boundaryField
{
    inlet
    {
        type            calculated;
        value           nonuniform List<scalar> 
13
(
5.49847e-05
5.52117e-05
5.54034e-05
5.55729e-05
5.57397e-05
5.59146e-05
5.61611e-05
5.62428e-05
5.6085e-05
5.59218e-05
5.57342e-05
5.56122e-05
5.55383e-05
)
;
    }
    outlet
    {
        type            calculated;
        value           nonuniform List<scalar> 0();
    }
    walls
    {
        type            calculated;
        value           uniform 0;
    }
    frontAndBack
    {
        type            empty;
    }
    procBoundary2to1
    {
        type            processor;
        value           nonuniform List<scalar> 
84
(
0.243522
0.037309
0.0155673
0.00176431
0.0014215
3.49981e-05
0.00018672
0.000152795
0.000165207
0.000149294
0.000151384
0.000145793
0.00014362
0.000139832
0.000136811
0.000133423
0.000130164
0.000126809
0.00012334
0.000119721
0.000116039
0.000112351
0.000108665
0.000104935
0.000101244
9.77199e-05
9.43944e-05
9.11619e-05
8.80618e-05
8.5169e-05
8.26e-05
8.03205e-05
7.82488e-05
7.63444e-05
7.46465e-05
7.29922e-05
7.13445e-05
6.97783e-05
6.97783e-05
7.15662e-05
6.92912e-05
6.70174e-05
6.47347e-05
6.23989e-05
6.0009e-05
5.7578e-05
5.50711e-05
5.25156e-05
4.99558e-05
4.74039e-05
4.48438e-05
4.22935e-05
3.97878e-05
3.97878e-05
3.73744e-05
3.48977e-05
3.24555e-05
3.01199e-05
2.7866e-05
2.57397e-05
2.36817e-05
2.17313e-05
1.9907e-05
1.9907e-05
1.8321e-05
1.66836e-05
1.51422e-05
1.36499e-05
1.20559e-05
1.04691e-05
8.94968e-06
7.97352e-06
7.09505e-06
5.85546e-06
5.85546e-06
4.19014e-06
3.17984e-06
4.37548e-06
6.98691e-06
8.2592e-06
1.37716e-05
1.33185e-05
2.18927e-05
2.9778e-05
)
;
    }
    procBoundary2to3
    {
        type            processor;
        value           nonuniform List<scalar> 
88
(
2.06169e-05
2.67249e-05
1.39568e-05
2.06169e-05
1.69248e-05
1.08493e-05
1.39568e-05
1.07862e-05
8.89905e-06
8.24034e-06
1.08493e-05
7.76431e-06
1.43137e-05
1.33554e-05
1.25861e-05
1.15004e-05
8.89905e-06
1.03079e-05
2.23856e-05
2.06368e-05
1.89801e-05
1.74656e-05
1.43137e-05
1.60394e-05
3.71928e-05
3.48566e-05
3.26195e-05
3.04735e-05
2.83991e-05
2.64423e-05
2.23856e-05
2.46515e-05
6.98597e-05
6.66411e-05
6.3624e-05
6.06711e-05
5.77874e-05
5.49749e-05
5.22335e-05
4.95469e-05
4.68969e-05
4.43158e-05
4.19233e-05
3.71928e-05
3.97173e-05
0.000191438
0.000177255
0.000163879
0.000151072
0.00013806
0.000125374
0.000112964
0.000101588
9.25185e-05
8.75117e-05
8.73711e-05
9.09739e-05
9.62996e-05
0.000101945
0.000107239
0.000111892
0.000115817
0.000118999
0.00012145
0.000123195
0.000124269
0.000124706
0.000124551
0.000123848
0.000122651
0.00012101
0.000118981
0.000116611
0.000113953
0.000111058
0.00010798
0.000104764
0.00010145
9.80866e-05
9.46974e-05
9.13078e-05
8.79424e-05
8.45856e-05
8.10193e-05
7.75491e-05
7.46425e-05
6.98597e-05
7.1937e-05
)
;
    }
    procBoundary2to6
    {
        type            processor;
        value           nonuniform List<scalar> 
13
(
0.302125
0.107434
0.0492841
0.0164011
0.00827727
0.00197772
6.83417e-05
0.0001786
0.000201283
0.000139557
0.000115104
0.000141716
0.000169923
)
;
    }
}


// ************************************************************************* //
