/*--------------------------------*- C++ -*----------------------------------*\
| =========                 |                                                 |
| \\      /  F ield         | OpenFOAM: The Open Source CFD Toolbox           |
|  \\    /   O peration     | Version:  2506                                  |
|   \\  /    A nd           | Website:  www.openfoam.com                      |
|    \\/     M anipulation  |                                                 |
\*---------------------------------------------------------------------------*/
FoamFile
{
    version     2.0;
    format      ascii;
    arch        "LSB;label=32;scalar=64";
    class       volScalarField;
    location    "50";
    object      turbulenceProperties:k;
}
// * * * * * * * * * * * * * * * * * * * * * * * * * * * * * * * * * * * * * //

dimensions      [0 2 -2 0 0 0 0];

internalField   nonuniform List<scalar> 
1340
(
55.7586
53.227
49.9849
41.1189
1.67073
1.81516
2.24837
3.154
0.408799
0.537554
0.634659
0.893419
0.0166028
0.04927
0.127348
0.360639
0.0002963
0.00227686
0.00553041
0.0732252
2.12258e-05
0.000362307
0.00121679
0.00963602
7.08742e-06
1.5477e-06
0
0.00209978
2.01791e-05
1.4308e-05
1.74355e-06
0
3.0824e-05
3.12622e-05
3.19261e-05
1.19881e-06
2.43571e-05
2.25014e-05
3.82808e-05
1.64825e-05
2.56417e-05
2.48973e-05
3.48937e-05
4.17463e-05
2.31909e-05
2.26501e-05
2.89005e-05
4.79899e-05
2.23186e-05
2.16988e-05
2.60196e-05
4.44815e-05
2.07593e-05
1.98688e-05
2.33581e-05
3.96933e-05
1.96216e-05
1.85985e-05
2.12856e-05
3.5603e-05
1.83404e-05
1.71289e-05
1.91712e-05
3.19216e-05
1.71566e-05
1.57604e-05
1.71802e-05
2.84639e-05
1.59761e-05
1.43897e-05
1.52772e-05
2.51828e-05
1.48211e-05
1.30603e-05
1.34854e-05
2.2104e-05
1.36785e-05
1.17555e-05
1.17884e-05
1.92494e-05
1.25725e-05
1.04989e-05
1.01864e-05
1.66222e-05
1.15161e-05
9.2916e-06
8.66998e-06
1.42145e-05
1.05152e-05
8.14577e-06
7.23453e-06
1.20251e-05
9.56512e-06
7.06927e-06
5.87454e-06
1.00596e-05
8.68045e-06
6.07711e-06
4.59691e-06
8.33123e-06
7.89412e-06
5.20268e-06
3.39849e-06
6.83784e-06
7.21317e-06
4.47625e-06
2.28225e-06
5.58497e-06
6.61876e-06
3.90861e-06
1.25891e-06
4.60917e-06
6.10895e-06
3.50899e-06
3.39017e-07
3.95184e-06
5.6958e-06
3.29104e-06
4.99211e-07
3.61367e-06
5.38758e-06
3.24787e-06
1.24019e-06
3.54243e-06
5.16811e-06
3.33469e-06
1.89552e-06
3.65125e-06
5.00616e-06
3.4813e-06
2.45205e-06
3.85218e-06
4.88266e-06
3.64243e-06
2.90638e-06
4.0646e-06
4.79247e-06
3.80007e-06
3.27382e-06
4.25504e-06
4.70149e-06
3.91951e-06
3.54881e-06
4.39966e-06
4.59947e-06
3.9897e-06
3.7361e-06
4.48618e-06
4.4947e-06
4.01655e-06
3.84969e-06
4.51702e-06
4.80709e-06
4.37527e-06
4.00676e-06
3.90046e-06
4.49741e-06
4.55344e-06
4.22167e-06
3.95138e-06
3.89373e-06
4.42785e-06
4.30821e-06
4.05751e-06
3.85573e-06
3.83384e-06
4.31426e-06
4.06199e-06
3.87407e-06
3.72403e-06
3.72772e-06
4.16301e-06
3.80664e-06
3.6675e-06
3.55785e-06
3.57992e-06
3.97655e-06
3.54545e-06
3.44489e-06
3.36606e-06
3.40023e-06
3.75984e-06
3.28471e-06
3.21559e-06
3.16179e-06
3.20559e-06
3.53313e-06
3.02068e-06
2.97524e-06
2.93979e-06
2.98948e-06
3.28979e-06
2.75726e-06
2.72774e-06
2.70434e-06
2.75642e-06
3.03127e-06
2.50268e-06
2.48483e-06
2.46999e-06
2.5228e-06
2.77221e-06
2.26005e-06
2.2515e-06
2.24374e-06
2.29724e-06
2.52446e-06
2.02699e-06
2.0242e-06
2.02082e-06
2.07275e-06
2.27931e-06
1.80487e-06
1.80425e-06
1.80218e-06
1.85017e-06
2.0361e-06
1.59717e-06
1.59532e-06
1.59373e-06
1.63802e-06
1.80431e-06
1.40736e-06
1.40428e-06
1.40058e-06
1.39871e-06
1.43928e-06
1.5888e-06
1.22796e-06
1.22515e-06
1.22235e-06
1.21885e-06
1.2547e-06
1.38874e-06
1.06231e-06
1.06079e-06
1.05649e-06
1.05067e-06
1.08248e-06
1.20362e-06
9.13807e-07
9.11086e-07
9.05702e-07
8.99119e-07
9.2809e-07
1.03662e-06
7.81226e-07
7.78688e-07
7.73023e-07
7.65982e-07
7.91661e-07
8.88384e-07
6.64925e-07
6.61115e-07
6.54893e-07
6.47936e-07
6.71612e-07
7.57191e-07
5.61371e-07
5.57161e-07
5.50725e-07
5.43841e-07
5.6487e-07
6.40924e-07
4.71032e-07
4.65284e-07
4.57812e-07
4.50753e-07
4.68734e-07
5.34845e-07
3.93259e-07
3.85247e-07
3.77312e-07
3.6983e-07
3.85026e-07
4.41207e-07
3.33368e-07
3.27417e-07
3.16983e-07
3.07924e-07
3.00277e-07
3.13496e-07
3.61134e-07
2.77578e-07
2.7199e-07
2.62234e-07
2.52664e-07
2.44533e-07
2.55354e-07
2.94338e-07
2.30886e-07
2.28237e-07
2.20061e-07
2.10668e-07
2.02708e-07
2.12445e-07
2.43319e-07
1.91792e-07
1.92505e-07
1.87237e-07
1.8008e-07
1.73543e-07
1.82609e-07
2.06387e-07
1.55097e-07
1.60865e-07
1.6002e-07
1.55949e-07
1.51605e-07
1.60403e-07
1.77327e-07
1.2136e-07
1.30519e-07
1.33808e-07
1.33644e-07
1.32235e-07
1.41516e-07
1.52689e-07
8.96078e-08
9.93285e-08
1.04477e-07
1.0613e-07
1.06331e-07
1.14854e-07
1.19999e-07
7.03875e-08
7.90952e-08
8.55168e-08
8.91746e-08
9.17371e-08
1.00395e-07
9.735e-08
5.55464e-08
6.35985e-08
7.21967e-08
7.95739e-08
8.62072e-08
9.81861e-08
9.15178e-08
3.78702e-08
4.36875e-08
5.30605e-08
6.37024e-08
7.41131e-08
8.9603e-08
8.20907e-08
1.88344e-08
2.20597e-08
2.70206e-08
3.6446e-08
4.82553e-08
6.11751e-08
7.90026e-08
7.08552e-08
1.01985e-08
1.6129e-08
2.29135e-08
3.11766e-08
4.14982e-08
5.47925e-08
7.35224e-08
6.81384e-08
2.13603e-08
2.73328e-08
3.39785e-08
4.05982e-08
4.82201e-08
5.83573e-08
6.84493e-08
5.74961e-08
5.56637e-08
6.43786e-08
7.33626e-08
8.14829e-08
8.98901e-08
1.00895e-07
1.16742e-07
1.17866e-07
7.08758e-08
7.60014e-08
8.35033e-08
9.13312e-08
9.87665e-08
1.06606e-07
1.03187e-07
9.80423e-08
1.95165e-07
1.99905e-07
2.04095e-07
2.07205e-07
2.09937e-07
2.15607e-07
2.3421e-07
2.39468e-07
1.84221e-07
1.90215e-07
1.96137e-07
2.02579e-07
2.11338e-07
2.25751e-07
2.61253e-07
3.05334e-07
4.82571e-07
4.84922e-07
4.87496e-07
4.90003e-07
4.91867e-07
4.92858e-07
5.00706e-07
4.7382e-07
8.86333e-07
8.8284e-07
8.78646e-07
8.74491e-07
8.69573e-07
8.65463e-07
8.55627e-07
8.06284e-07
14.5497
4.2127
0.964968
0.245642
0.039999
0.00239647
0.000510735
0
1.62747e-06
2.98568e-05
5.83026e-05
6.22079e-05
5.82843e-05
5.37385e-05
4.93326e-05
4.51043e-05
4.09703e-05
3.69649e-05
3.3119e-05
2.94704e-05
2.60514e-05
2.28847e-05
1.99819e-05
1.73669e-05
1.50438e-05
1.3012e-05
1.127e-05
9.82456e-06
8.66894e-06
7.77731e-06
7.11839e-06
6.65286e-06
6.33386e-06
6.10477e-06
5.93382e-06
5.78863e-06
5.64515e-06
5.49495e-06
5.32938e-06
5.13809e-06
4.92676e-06
4.69719e-06
4.44419e-06
4.1733e-06
3.90042e-06
3.61674e-06
3.32358e-06
3.0371e-06
2.76566e-06
2.49828e-06
2.23422e-06
1.98468e-06
1.75435e-06
1.53988e-06
1.34198e-06
1.16155e-06
1.00052e-06
8.5784e-07
7.31202e-07
6.15568e-07
5.12896e-07
4.23662e-07
3.47076e-07
2.86308e-07
2.39984e-07
2.02375e-07
1.70443e-07
1.32937e-07
1.05016e-07
9.56817e-08
8.49677e-08
7.39473e-08
7.5063e-08
6.23838e-08
1.25572e-07
9.24192e-08
2.33454e-07
2.85757e-07
4.33749e-07
7.19019e-07
7.45125
5.83064
2.47826
0.628417
0.0852341
0.00375524
1.16771e-05
9.26133e-07
4.59197e-07
3.62862e-05
5.8205e-05
6.04409e-05
5.75519e-05
5.43208e-05
5.10655e-05
4.78945e-05
4.46823e-05
4.1458e-05
3.82294e-05
3.50439e-05
3.19358e-05
2.89463e-05
2.60963e-05
2.34247e-05
2.09478e-05
1.86762e-05
1.66263e-05
1.48053e-05
1.32105e-05
1.18354e-05
1.06713e-05
9.6974e-06
8.88421e-06
8.20074e-06
7.62792e-06
7.13848e-06
6.70942e-06
6.32702e-06
5.97025e-06
5.62649e-06
5.29741e-06
4.97604e-06
4.65123e-06
4.3293e-06
4.0166e-06
3.70166e-06
3.38717e-06
3.08871e-06
2.80796e-06
2.53298e-06
2.2645e-06
2.014e-06
1.78306e-06
1.56757e-06
1.36823e-06
1.18599e-06
1.02221e-06
8.77234e-07
7.48355e-07
6.31527e-07
5.28588e-07
4.38853e-07
3.61238e-07
2.98996e-07
2.50625e-07
2.10562e-07
1.75573e-07
1.35236e-07
1.05614e-07
9.54127e-08
8.61104e-08
7.9573e-08
8.78712e-08
8.47533e-08
1.43834e-07
1.11881e-07
2.35268e-07
2.6635e-07
4.35778e-07
7.2155e-07
2.96344
3.20931
1.77281
0.537717
0.123853
0.0110224
0.000275383
2.2976e-05
3.08282e-06
5.33302e-05
6.81876e-05
6.71311e-05
6.28792e-05
5.88028e-05
5.49853e-05
5.13689e-05
4.78798e-05
4.45264e-05
4.12717e-05
3.81429e-05
3.51408e-05
3.22798e-05
2.95544e-05
2.69771e-05
2.45578e-05
2.22947e-05
2.01928e-05
1.82535e-05
1.64803e-05
1.48777e-05
1.34442e-05
1.21687e-05
1.10375e-05
1.00401e-05
9.16557e-06
8.39841e-06
7.72312e-06
7.12361e-06
6.57795e-06
6.07975e-06
5.62597e-06
5.20267e-06
4.79864e-06
4.41914e-06
4.06084e-06
3.71103e-06
3.3746e-06
3.06366e-06
2.77346e-06
2.49187e-06
2.22192e-06
1.9742e-06
1.74592e-06
1.53298e-06
1.336e-06
1.15611e-06
9.94838e-07
8.52257e-07
7.25484e-07
6.11363e-07
5.12295e-07
4.26721e-07
3.53439e-07
2.95268e-07
2.50154e-07
2.12217e-07
1.78208e-07
1.39052e-07
1.10092e-07
9.67246e-08
8.38628e-08
7.47641e-08
8.35833e-08
8.61901e-08
1.47495e-07
1.23188e-07
2.33374e-07
2.60091e-07
4.2417e-07
7.18802e-07
0.301736
0.246787
0.0787316
0.0247701
0.0166677
0.00153766
7.33137e-06
1.73652e-06
2.73149e-05
5.19673e-05
5.56975e-05
5.50202e-05
5.32649e-05
5.12837e-05
4.91191e-05
4.67972e-05
4.43676e-05
4.18796e-05
3.93719e-05
3.68843e-05
3.44417e-05
3.20645e-05
2.97658e-05
2.75556e-05
2.54407e-05
2.34242e-05
2.15073e-05
1.96962e-05
1.79975e-05
1.64173e-05
1.49551e-05
1.36089e-05
1.23764e-05
1.12565e-05
1.02451e-05
9.33546e-06
8.51804e-06
7.77767e-06
7.1017e-06
6.49145e-06
5.94007e-06
5.43208e-06
4.96057e-06
4.52801e-06
4.1246e-06
3.73997e-06
3.38118e-06
3.05527e-06
2.7527e-06
2.4628e-06
2.19077e-06
1.94442e-06
1.71768e-06
1.50621e-06
1.31133e-06
1.134e-06
9.75492e-07
8.35594e-07
7.10827e-07
5.98985e-07
5.02906e-07
4.20453e-07
3.50821e-07
2.96126e-07
2.53532e-07
2.17278e-07
1.8497e-07
1.49231e-07
1.23319e-07
1.08297e-07
9.27172e-08
7.88602e-08
8.0748e-08
8.208e-08
1.44841e-07
1.25608e-07
2.28017e-07
2.60217e-07
4.1702e-07
7.14276e-07
0.0825932
0.0622361
0.0392594
0.017703
0.00462778
0.000381188
3.05965e-05
4.21198e-05
5.24444e-05
5.39142e-05
5.1788e-05
4.95746e-05
4.75135e-05
4.55682e-05
4.36541e-05
4.17122e-05
3.97454e-05
3.77529e-05
3.57513e-05
3.37584e-05
3.1792e-05
2.98657e-05
2.79851e-05
2.61619e-05
2.4397e-05
2.26959e-05
2.10606e-05
1.94971e-05
1.80076e-05
1.65969e-05
1.5263e-05
1.40094e-05
1.28365e-05
1.17466e-05
1.07384e-05
9.80991e-06
8.95413e-06
8.16268e-06
7.43357e-06
6.77203e-06
6.16873e-06
5.61203e-06
5.09942e-06
4.63001e-06
4.19211e-06
3.78093e-06
3.40439e-06
3.06453e-06
2.74958e-06
2.45191e-06
2.17791e-06
1.93173e-06
1.70506e-06
1.49415e-06
1.30062e-06
1.12532e-06
9.69127e-07
8.30942e-07
7.07102e-07
5.96162e-07
5.00926e-07
4.19523e-07
3.51638e-07
2.98187e-07
2.56181e-07
2.20473e-07
1.89254e-07
1.56583e-07
1.33281e-07
1.17238e-07
1.00543e-07
8.4707e-08
8.10353e-08
7.89792e-08
1.39959e-07
1.25095e-07
2.19846e-07
2.67567e-07
4.19229e-07
7.14334e-07
0.00586875
0.00572568
0.00446608
0.00248532
0.000838046
0.000161693
9.52513e-05
8.93328e-05
8.37906e-05
7.66854e-05
6.97051e-05
6.33953e-05
5.78075e-05
5.29119e-05
4.86247e-05
4.48611e-05
4.15435e-05
3.85825e-05
3.59118e-05
3.34742e-05
3.12318e-05
2.91475e-05
2.71947e-05
2.53576e-05
2.36201e-05
2.19752e-05
2.042e-05
1.89509e-05
1.7563e-05
1.62535e-05
1.5018e-05
1.38564e-05
1.2765e-05
1.17436e-05
1.07879e-05
9.89485e-06
9.05791e-06
8.27513e-06
7.54945e-06
6.88477e-06
6.27064e-06
5.70095e-06
5.17475e-06
4.68869e-06
4.23318e-06
3.80919e-06
3.42361e-06
3.07459e-06
2.75078e-06
2.44851e-06
2.17402e-06
1.92789e-06
1.70095e-06
1.49057e-06
1.29846e-06
1.12498e-06
9.70574e-07
8.33405e-07
7.09564e-07
5.98465e-07
5.03081e-07
4.21274e-07
3.53414e-07
2.99637e-07
2.57116e-07
2.20745e-07
1.89864e-07
1.59739e-07
1.38152e-07
1.20695e-07
1.02531e-07
8.53997e-08
7.9421e-08
7.53486e-08
1.33489e-07
1.23058e-07
2.08402e-07
2.76739e-07
4.30611e-07
0.000159174
0.000307881
0.000283385
0.000165448
0.000110376
9.89871e-05
9.37449e-05
8.85148e-05
8.278e-05
7.69103e-05
7.10614e-05
6.5355e-05
5.99006e-05
5.47661e-05
5.00079e-05
4.56575e-05
4.17149e-05
3.81655e-05
3.49888e-05
3.21469e-05
2.96009e-05
2.73096e-05
2.52345e-05
2.33434e-05
2.16085e-05
2.00091e-05
1.85284e-05
1.71527e-05
1.58712e-05
1.46759e-05
1.35603e-05
1.25168e-05
1.1541e-05
1.0628e-05
9.77175e-06
8.9667e-06
8.21363e-06
7.51442e-06
6.86815e-06
6.26603e-06
5.7053e-06
5.18388e-06
4.69738e-06
4.24014e-06
3.81652e-06
3.43064e-06
3.07847e-06
2.75115e-06
2.44836e-06
2.17508e-06
1.92935e-06
1.70254e-06
1.49326e-06
1.30276e-06
1.13121e-06
9.78294e-07
8.41539e-07
7.17649e-07
6.06547e-07
5.10397e-07
4.27741e-07
3.59072e-07
3.03861e-07
2.59615e-07
2.2147e-07
1.89775e-07
1.61846e-07
1.41761e-07
1.22386e-07
1.0203e-07
8.35616e-08
7.63153e-08
7.0981e-08
1.25955e-07
1.19971e-07
4.68019e-05
6.5841e-05
8.10061e-05
8.64528e-05
8.16582e-05
7.85613e-05
7.7215e-05
7.5952e-05
7.40778e-05
7.16224e-05
6.86939e-05
6.53863e-05
6.17942e-05
5.80182e-05
5.41534e-05
5.02863e-05
4.64924e-05
4.28328e-05
3.93563e-05
3.60997e-05
3.30806e-05
3.03063e-05
2.77768e-05
2.54788e-05
2.33965e-05
2.15104e-05
1.98005e-05
1.8246e-05
1.68288e-05
1.55321e-05
1.43409e-05
1.32405e-05
1.22218e-05
1.12759e-05
1.03942e-05
9.56911e-06
8.79644e-06
8.07541e-06
7.40556e-06
6.78302e-06
6.2011e-06
5.65743e-06
5.14894e-06
4.6716e-06
4.22326e-06
3.80846e-06
3.42829e-06
3.07812e-06
2.75214e-06
2.45223e-06
2.18133e-06
1.93606e-06
1.70962e-06
1.50187e-06
1.31343e-06
1.14369e-06
9.91962e-07
8.55808e-07
7.32055e-07
6.21166e-07
5.2456e-07
4.40561e-07
3.70537e-07
3.13328e-07
2.66299e-07
2.25603e-07
1.92714e-07
1.6636e-07
1.4692e-07
1.25469e-07
1.02402e-07
8.10745e-08
7.21135e-08
6.56891e-08
3.74212e-05
4.17191e-05
4.56432e-05
4.89505e-05
5.09551e-05
5.25556e-05
5.38271e-05
5.46266e-05
5.48844e-05
5.46385e-05
5.39173e-05
5.27575e-05
5.12095e-05
4.9329e-05
4.71797e-05
4.48214e-05
4.23185e-05
3.97324e-05
3.71203e-05
3.45306e-05
3.20061e-05
2.95775e-05
2.72745e-05
2.51105e-05
2.30954e-05
2.12346e-05
1.95258e-05
1.79613e-05
1.65317e-05
1.52255e-05
1.40318e-05
1.2937e-05
1.193e-05
1.10005e-05
1.01402e-05
9.3406e-06
8.59718e-06
7.90631e-06
7.26456e-06
6.66608e-06
6.10624e-06
5.58234e-06
5.09068e-06
4.62797e-06
4.19421e-06
3.79219e-06
3.42078e-06
3.07606e-06
2.75513e-06
2.46011e-06
2.19201e-06
1.94757e-06
1.72241e-06
1.51664e-06
1.32964e-06
1.16149e-06
1.01084e-06
8.74928e-07
7.5151e-07
6.40945e-07
5.44439e-07
4.60891e-07
3.89577e-07
3.29504e-07
2.79333e-07
2.34927e-07
1.98189e-07
1.71788e-07
1.52706e-07
1.28818e-07
1.03575e-07
1.79211e-05
2.12503e-05
2.45446e-05
2.75683e-05
3.02126e-05
3.26087e-05
3.47077e-05
3.64393e-05
3.77826e-05
3.87457e-05
3.93274e-05
3.95344e-05
3.93826e-05
3.88971e-05
3.81065e-05
3.7047e-05
3.57597e-05
3.42851e-05
3.26658e-05
3.09447e-05
2.9162e-05
2.73539e-05
2.55517e-05
2.37839e-05
2.20735e-05
2.04405e-05
1.88951e-05
1.74444e-05
1.60919e-05
1.48382e-05
1.3681e-05
1.26124e-05
1.16282e-05
1.07213e-05
9.88467e-06
9.11062e-06
8.39414e-06
7.72946e-06
7.11264e-06
6.5382e-06
6.00202e-06
5.49838e-06
5.02388e-06
4.57789e-06
4.16027e-06
3.7715e-06
3.40991e-06
3.07264e-06
2.75865e-06
2.46943e-06
2.20468e-06
1.96147e-06
1.73741e-06
1.53462e-06
1.35201e-06
1.1853e-06
1.03488e-06
8.98899e-07
7.75978e-07
6.66123e-07
5.68497e-07
4.82534e-07
4.09575e-07
3.46916e-07
2.9353e-07
2.45971e-07
1.0684e-05
1.03246e-05
1.17284e-05
1.39536e-05
1.63356e-05
1.87304e-05
2.09825e-05
2.30121e-05
2.47887e-05
2.62995e-05
2.75305e-05
2.84712e-05
2.91205e-05
2.94842e-05
2.95727e-05
2.94014e-05
2.89922e-05
2.83683e-05
2.75569e-05
2.65886e-05
2.54933e-05
2.43002e-05
2.30374e-05
2.17341e-05
2.04164e-05
1.91072e-05
1.78244e-05
1.65831e-05
1.53949e-05
1.42682e-05
1.32072e-05
1.22124e-05
1.12839e-05
1.04212e-05
9.62082e-06
8.87798e-06
8.18936e-06
7.55019e-06
6.95605e-06
6.40002e-06
5.87998e-06
5.39787e-06
4.94927e-06
4.52257e-06
4.12184e-06
3.74662e-06
3.39538e-06
3.06685e-06
2.76087e-06
2.47768e-06
2.21656e-06
1.97666e-06
1.75662e-06
1.55364e-06
1.36793e-06
1.20326e-06
1.05379e-06
9.18076e-07
7.95611e-07
6.86474e-07
5.89972e-07
1.62045e-05
1.26508e-05
9.68757e-06
8.36711e-06
8.35193e-06
9.4707e-06
1.11298e-05
1.29452e-05
1.47284e-05
1.63885e-05
1.7877e-05
1.91659e-05
2.02426e-05
2.11e-05
2.1736e-05
2.21519e-05
2.23558e-05
2.23571e-05
2.21711e-05
2.18146e-05
2.13063e-05
2.06661e-05
1.99165e-05
1.90815e-05
1.81825e-05
1.72418e-05
1.62786e-05
1.53103e-05
1.43503e-05
1.34109e-05
1.25019e-05
1.16295e-05
1.08e-05
1.00168e-05
9.27988e-06
8.58765e-06
7.93878e-06
7.33091e-06
6.768e-06
6.24885e-06
5.76246e-06
5.29207e-06
4.84716e-06
4.44293e-06
4.05824e-06
3.69553e-06
3.35556e-06
3.0372e-06
2.74047e-06
2.46417e-06
2.20714e-06
1.97159e-06
1.75913e-06
1.56688e-06
2.4441e-05
2.03387e-05
1.64044e-05
1.32984e-05
1.06172e-05
8.68925e-06
7.64658e-06
7.57331e-06
8.26919e-06
9.38667e-06
1.06571e-05
1.19298e-05
1.31222e-05
1.41916e-05
1.51151e-05
1.58793e-05
1.64787e-05
1.69109e-05
1.71782e-05
1.72863e-05
1.72424e-05
1.70576e-05
1.67458e-05
1.63232e-05
1.58072e-05
1.52148e-05
1.45638e-05
1.387e-05
1.31477e-05
1.24115e-05
1.16737e-05
1.09445e-05
1.0232e-05
9.54259e-06
8.88063e-06
8.24792e-06
7.64605e-06
7.0689e-06
6.51786e-06
6.02056e-06
5.58884e-06
5.20363e-06
)
;

boundaryField
{
    inlet
    {
        type            calculated;
        value           nonuniform List<scalar> 
13
(
3.05059e-06
3.07602e-06
3.09763e-06
3.11682e-06
3.13566e-06
3.15525e-06
3.18237e-06
3.19046e-06
3.17234e-06
3.15463e-06
3.13432e-06
3.12123e-06
3.1135e-06
)
;
    }
    outlet
    {
        type            calculated;
        value           nonuniform List<scalar> 0();
    }
    walls
    {
        type            calculated;
        value           uniform 0;
    }
    frontAndBack
    {
        type            empty;
    }
    procBoundary2to1
    {
        type            processor;
        value           nonuniform List<scalar> 
84
(
57.4683
1.53222
0.279888
0.00367903
0.0023568
1.42966e-06
4.04441e-05
2.70086e-05
3.14378e-05
2.55789e-05
2.6195e-05
2.42015e-05
2.33923e-05
2.20867e-05
2.10582e-05
1.99482e-05
1.89091e-05
1.78742e-05
1.68411e-05
1.5803e-05
1.47858e-05
1.38054e-05
1.28629e-05
1.19477e-05
1.10788e-05
1.02817e-05
9.55777e-06
8.88156e-06
8.25798e-06
7.69753e-06
7.21579e-06
6.80089e-06
6.43434e-06
6.10663e-06
5.82126e-06
5.55084e-06
5.28922e-06
5.04713e-06
5.04713e-06
5.26669e-06
4.92683e-06
4.6e-06
4.28444e-06
3.97442e-06
3.67045e-06
3.37461e-06
3.08336e-06
2.80074e-06
2.53187e-06
2.2778e-06
2.03676e-06
1.81037e-06
1.60123e-06
1.60123e-06
1.40914e-06
1.22825e-06
1.06212e-06
9.1458e-07
7.82707e-07
6.67736e-07
5.65172e-07
4.75868e-07
3.99291e-07
3.99291e-07
3.37962e-07
2.80244e-07
2.3083e-07
1.87543e-07
1.46261e-07
1.10261e-07
8.05607e-08
6.39368e-08
5.0615e-08
3.44665e-08
3.44665e-08
1.7645e-08
1.01591e-08
1.92288e-08
4.9004e-08
6.84119e-08
1.89993e-07
1.77341e-07
4.80169e-07
8.88661e-07
)
;
    }
    procBoundary2to3
    {
        type            processor;
        value           nonuniform List<scalar> 
88
(
4.26221e-07
7.16825e-07
1.94739e-07
4.26221e-07
2.85953e-07
1.18005e-07
1.94739e-07
1.16446e-07
7.95337e-08
6.81703e-08
1.18005e-07
6.04862e-08
2.05941e-07
1.7923e-07
1.59163e-07
1.32866e-07
7.95337e-08
1.06715e-07
5.03642e-07
4.28019e-07
3.62046e-07
3.0655e-07
2.05941e-07
2.585e-07
1.38664e-06
1.21821e-06
1.06709e-06
9.31488e-07
8.09135e-07
7.01599e-07
5.03642e-07
6.09893e-07
4.79865e-06
4.37586e-06
3.99629e-06
3.64026e-06
3.30763e-06
2.99777e-06
2.70977e-06
2.44108e-06
2.18929e-06
1.95682e-06
1.75277e-06
1.38664e-06
1.57445e-06
3.17151e-05
2.70428e-05
2.2999e-05
1.9456e-05
1.61833e-05
1.32993e-05
1.07652e-05
8.68593e-06
7.19178e-06
6.42738e-06
6.40378e-06
6.94402e-06
7.78717e-06
8.73959e-06
9.69086e-06
1.05783e-05
1.13704e-05
1.20496e-05
1.26053e-05
1.30328e-05
1.33305e-05
1.35001e-05
1.35467e-05
1.34778e-05
1.33034e-05
1.30348e-05
1.26847e-05
1.22655e-05
1.17899e-05
1.12713e-05
1.07227e-05
1.01556e-05
9.57976e-06
9.00593e-06
8.43973e-06
7.88661e-06
7.35135e-06
6.8318e-06
6.29453e-06
5.78883e-06
5.38173e-06
4.79865e-06
5.01517e-06
)
;
    }
    procBoundary2to6
    {
        type            processor;
        value           nonuniform List<scalar> 
13
(
20.1878
6.34827
2.22934
0.315965
0.0751524
0.00370085
3.97415e-06
2.57142e-05
3.21118e-05
1.55207e-05
1.07139e-05
1.65959e-05
2.4454e-05
)
;
    }
}


// ************************************************************************* //
