/*--------------------------------*- C++ -*----------------------------------*\
| =========                 |                                                 |
| \\      /  F ield         | OpenFOAM: The Open Source CFD Toolbox           |
|  \\    /   O peration     | Version:  2506                                  |
|   \\  /    A nd           | Website:  www.openfoam.com                      |
|    \\/     M anipulation  |                                                 |
\*---------------------------------------------------------------------------*/
FoamFile
{
    version     2.0;
    format      ascii;
    arch        "LSB;label=32;scalar=64";
    class       volVectorField;
    location    "300";
    object      momentError;
}
// * * * * * * * * * * * * * * * * * * * * * * * * * * * * * * * * * * * * * //

dimensions      [0 1 -2 0 0 0 0];

internalField   nonuniform List<vector> 
1340
(
(0.000195117 0.00400013 1.79209e-16)
(0.000429462 0.00369357 -1.65046e-15)
(0.000755528 0.00364182 -1.5232e-15)
(0.000206892 0.003543 -2.47968e-15)
(0.000408582 0.00326925 6.6636e-16)
(0.00068985 0.00325075 -1.50084e-15)
(0.000884607 0.00315004 5.53055e-15)
(0.00106942 0.00300045 6.93358e-15)
(0.000210475 0.0031506 9.9897e-16)
(0.00038654 0.00291068 4.23091e-15)
(0.000631944 0.00290888 2.88555e-15)
(0.000804877 0.00283001 8.86422e-17)
(0.000971512 0.00271297 -1.09656e-15)
(0.00116174 0.00264869 -5.31626e-16)
(0.00130096 0.00250758 4.56617e-14)
(0.000209122 0.00280959 -1.43985e-15)
(0.00036455 0.00260102 3.3879e-15)
(0.000580958 0.00261034 5.97263e-16)
(0.00073538 0.00254503 -4.24771e-15)
(0.000885506 0.00244564 1.43502e-14)
(0.00105797 0.00239732 -1.99052e-14)
(0.00118276 0.0022872 2.0433e-15)
(0.00129268 0.00214835 -6.63942e-15)
(0.00020526 0.002512 -3.25289e-15)
(0.000342922 0.00232968 -1.73912e-15)
(0.000535515 0.00234649 -3.89133e-16)
(0.000674212 0.00229199 -3.99327e-15)
(0.000809992 0.00220683 -8.0891e-16)
(0.000966462 0.00216828 1.51863e-14)
(0.00108049 0.00207413 -5.01016e-14)
(0.00118082 0.00196166 2.10059e-14)
(0.00127521 0.00183674 8.44272e-14)
(0.000200171 0.00225006 3.46131e-15)
(0.000322592 0.0020909 -3.22617e-15)
(0.000494543 0.00211206 1.34278e-15)
(0.000619677 0.00206623 2.12062e-15)
(0.000742415 0.00199264 -1.91919e-14)
(0.000884487 0.00196168 1.62845e-14)
(0.000988609 0.00188036 4.08867e-14)
(0.00108135 0.00178323 -2.99695e-14)
(0.00116876 0.0016868 -4.44621e-15)
(0.000193907 0.00201846 2.16445e-15)
(0.000303313 0.00187951 -1.17944e-15)
(0.000457438 0.00190297 -3.29277e-15)
(0.000570434 0.00186399 8.59527e-17)
(0.000681684 0.0018002 -1.73319e-15)
(0.000810461 0.00177479 -4.02689e-14)
(0.000905292 0.00170436 2.8845e-14)
(0.000990638 0.00162034 9.22493e-15)
(0.00107236 0.00153947 -7.90657e-14)
(0.00112042 0.00142684 -7.44692e-15)
(0.00018703 0.00181382 -1.74286e-16)
(0.000285044 0.00169182 7.6231e-16)
(0.000423505 0.00171592 1.49197e-16)
(0.000525955 0.00168279 -2.91927e-15)
(0.000626589 0.00162671 1.823e-14)
(0.000743519 0.00160606 1.92816e-14)
(0.000830094 0.00154508 -4.41556e-14)
(0.000907888 0.0014715 1.99979e-14)
(0.000983456 0.00140205 4.86983e-14)
(0.00103065 0.00130822 -4.44856e-15)
(0.00106231 0.001197 -3.35662e-14)
(0.000179583 0.00163097 -5.39981e-16)
(0.000267632 0.00152402 -1.97277e-15)
(0.000392398 0.00154816 5.02295e-17)
(0.000485185 0.00151942 -5.95974e-16)
(0.000576544 0.00147046 -1.24502e-14)
(0.000682592 0.00145318 3.30718e-14)
(0.000761387 0.00140008 3.43453e-14)
(0.00083267 0.00133626 6.44003e-15)
(0.000902316 0.00127614 9.94397e-15)
(0.000946766 0.00119424 -1.46317e-14)
(0.000979018 0.00110259 -1.34972e-14)
(0.000171859 0.00146809 -5.3296e-16)
(0.000251085 0.00137394 -6.72347e-16)
(0.000363735 0.0013975 -1.89638e-15)
(0.000447938 0.00137255 -8.63611e-16)
(0.000530711 0.00132918 -3.00778e-15)
(0.000626941 0.0013148 -1.89302e-14)
(0.000698743 0.00126843 -2.8306e-15)
(0.000763802 0.00121259 -3.49658e-14)
(0.000828046 0.00116078 7.17511e-15)
(0.000869655 0.00108924 1.19202e-14)
(0.000901127 0.00101001 1.52661e-14)
(0.000918656 0.000919045 -1.17299e-14)
(0.00016386 0.00132212 2.3394e-15)
(0.000235416 0.00123958 1.21192e-15)
(0.000337208 0.00126179 1.85582e-15)
(0.000413602 0.00123995 -1.34298e-15)
(0.000488802 0.00120175 -6.72502e-17)
(0.000576121 0.00118953 -7.68889e-15)
(0.000641261 0.00114859 2.15588e-14)
(0.000700989 0.00110008 8.58831e-15)
(0.000760105 0.0010553 -2.86776e-14)
(0.000798405 0.000992238 1.26979e-14)
(0.000828527 0.000923533 -2.54147e-14)
(0.000846827 0.000848302 3.94185e-14)
(0.000155738 0.00119105 2.32352e-15)
(0.000220429 0.00111834 -5.74723e-17)
(0.000312626 0.00113946 -5.57844e-16)
(0.000382052 0.00112031 2.1247e-15)
(0.00045026 0.00108632 -1.62778e-15)
(0.000529511 0.0010759 -3.51229e-15)
(0.000588924 0.00104006 1.2294e-14)
(0.000643262 0.000997242 2.42304e-14)
(0.00069762 0.000958721 -2.28378e-14)
(0.000733549 0.000903939 3.38161e-14)
(0.000761622 0.000843645 -2.0713e-14)
(0.000779943 0.000779304 -1.10957e-14)
(0.000782319 0.000702685 6.07043e-14)
(0.000147638 0.00107327 -5.68719e-16)
(0.000206247 0.00100922 2.76807e-15)
(0.000289755 0.00102873 -1.37371e-16)
(0.000352847 0.00101189 -8.43019e-16)
(0.000414857 0.000981856 -1.01333e-15)
(0.000486804 0.0009728 9.10055e-15)
(0.000540756 0.000941089 5.98412e-15)
(0.000590528 0.000903812 1.66423e-14)
(0.000640427 0.000870515 2.1495e-14)
(0.000673448 0.000822469 -2.66525e-14)
(0.000700181 0.000770209 4.39732e-14)
(0.000718169 0.00071435 -4.22515e-14)
(0.000721615 0.000649708 2.25253e-14)
(0.000139697 0.000967136 -2.12775e-15)
(0.000192825 0.00091047 2.3727e-15)
(0.000268558 0.000928594 1.11322e-15)
(0.000325934 0.000913865 -2.18425e-15)
(0.000382137 0.000886885 -1.12811e-14)
(0.000447535 0.000879168 1.21067e-14)
(0.000496844 0.000851486 -2.27736e-14)
(0.000542085 0.000818539 -3.11829e-14)
(0.000587909 0.000789808 5.01921e-15)
(0.000618767 0.000748299 4.94172e-15)
(0.000643673 0.00070248 -9.8409e-18)
(0.000661042 0.00065364 3.80961e-14)
(0.000665382 0.000596918 -8.7928e-14)
(0.000662296 0.000534269 6.75857e-16)
(0.000131887 0.000872136 1.99276e-16)
(0.000180169 0.000821991 -1.1266e-15)
(0.000248814 0.000838103 9.3906e-16)
(0.000300932 0.000824946 -5.00847e-15)
(0.000352057 0.000800951 1.16348e-15)
(0.000411485 0.000794208 -9.50696e-15)
(0.000456248 0.000769544 9.69751e-15)
(0.000497829 0.000740959 -1.62592e-14)
(0.00053993 0.000716237 -1.75377e-14)
(0.000568271 0.000679796 -3.26633e-14)
(0.000591958 0.0006402 -6.84176e-14)
(0.000608587 0.000597173 -3.47513e-15)
(0.000613359 0.000547185 -1.16556e-14)
(0.000611954 0.000492033 -5.71431e-14)
(0.000124152 0.000785704 1.99309e-16)
(0.000168038 0.000741737 -7.0515e-17)
(0.00023033 0.000756401 9.67266e-16)
(0.000277753 0.0007445 -2.9576e-15)
(0.000324202 0.000722841 3.05226e-15)
(0.000378288 0.000716962 -1.88021e-14)
(0.00041924 0.000695367 -3.91069e-15)
(0.000457033 0.000669967 6.24601e-15)
(0.000495745 0.000648711 1.75011e-14)
(0.000522301 0.000617233 1.23266e-14)
(0.00054429 0.000582341 -1.7944e-14)
(0.000560236 0.000544447 5.54463e-16)
(0.00056536 0.000500181 7.62465e-14)
(0.000564244 0.000452106 1.02901e-13)
(0.000116885 0.00070616 -2.17038e-15)
(0.000156702 0.000667663 -1.08749e-15)
(0.000213159 0.000681625 -6.40142e-16)
(0.000256302 0.000671214 6.07975e-15)
(0.000298662 0.000652105 -1.55526e-15)
(0.000347899 0.000646929 5.57105e-15)
(0.000385101 0.00062763 -1.86847e-16)
(0.000419889 0.00060561 1.45322e-15)
(0.000455418 0.00058717 1.49768e-14)
(0.000479803 0.000559379 -8.34588e-15)
(0.000500698 0.00052893 2.13588e-14)
(0.000515707 0.000495176 2.96718e-14)
(0.00052101 0.000455329 -1.39511e-15)
(0.000520458 0.000412676 -1.05756e-14)
(0.000512198 0.000363522 -4.61064e-14)
(0.00010892 0.000639956 1.6252e-15)
(0.000145868 0.000603038 -7.11044e-16)
(0.000197385 0.000614526 2.44112e-16)
(0.000236652 0.000605041 2.71713e-15)
(0.000275134 0.000587824 -1.57357e-15)
(0.000319967 0.000583349 9.2332e-15)
(0.000353979 0.000566386 4.80595e-15)
(0.000385628 0.00054675 1.49946e-14)
(0.000418279 0.000530681 9.03967e-15)
(0.000441134 0.000506513 2.0423e-14)
(0.000460391 0.000479326 -2.97531e-14)
(0.000474629 0.00044921 -3.76038e-14)
(0.000479815 0.000413385 -1.30068e-14)
(0.000479502 0.000374508 2.45212e-14)
(0.000472582 0.000331125 3.76354e-14)
(0.000101318 0.000577255 1.01539e-15)
(0.000135194 0.00054523 1.22065e-15)
(0.000182692 0.000554682 -1.68468e-16)
(0.000218586 0.000545641 -5.30733e-16)
(0.000253601 0.000530035 3.27662e-15)
(0.000294313 0.000525881 -1.02089e-14)
(0.000325238 0.000510624 -1.83097e-14)
(0.000354354 0.000493409 1.46784e-14)
(0.000384339 0.000479292 -4.01187e-15)
(0.000405247 0.000457589 -2.80448e-14)
(0.000423388 0.000433605 5.77971e-15)
(0.000436644 0.000406607 -1.21697e-15)
(0.000441477 0.000374274 -3.60227e-14)
(0.000441501 0.000339531 -4.7572e-14)
(0.000434744 0.000301685 -1.08516e-14)
(9.67034e-05 0.00051823 -8.93864e-16)
(0.000125676 0.000491829 2.2775e-16)
(0.000168874 0.000499972 -1.51548e-15)
(0.000201803 0.000491776 -2.04281e-15)
(0.000233624 0.000477581 1.70817e-15)
(0.000270616 0.000473725 7.55214e-15)
(0.000298905 0.000460181 3.3742e-15)
(0.000325369 0.000444597 -1.15347e-14)
(0.00035297 0.000432145 3.92123e-14)
(0.00037244 0.000412997 -5.41993e-15)
(0.000389044 0.000391367 -5.16808e-16)
(0.000401421 0.000367228 4.00707e-14)
(0.000405988 0.000338228 -8.2817e-16)
(0.000405831 0.000307004 -3.05351e-15)
(0.000400015 0.000274008 3.0936e-15)
(0.000389986 0.0002391 -6.82293e-15)
(8.9784e-05 0.000461357 -3.08086e-16)
(0.000117055 0.00044153 -8.17319e-16)
(0.000155948 0.000450449 -2.43576e-16)
(0.000185993 0.000442827 2.50651e-15)
(0.00021505 0.000430086 -2.0459e-15)
(0.000248727 0.000426467 1.80389e-15)
(0.000274423 0.000414096 9.21006e-15)
(0.000298797 0.000400323 -2.74648e-14)
(0.000324154 0.000389271 -1.82229e-14)
(0.000341882 0.000371901 2.23308e-15)
(0.000357416 0.000352706 6.96355e-15)
(0.000368836 0.0003311 4.72991e-15)
(0.000373051 0.000305105 5.38815e-14)
(0.000373156 0.000277405 4.28164e-14)
(0.000367781 0.000248246 -3.90373e-14)
(0.000359592 0.000218432 7.6253e-15)
(8.12598e-05 0.000404625 -7.68923e-16)
(0.000108477 0.00039611 -1.90584e-16)
(0.0001439 0.000405311 -1.2542e-15)
(0.000171284 0.000398698 5.11074e-15)
(0.000197774 0.000386995 -3.39753e-15)
(0.000228497 0.000383624 -3.50823e-15)
(0.000252029 0.000372535 -1.93367e-14)
(0.000274175 0.000359931 3.50404e-16)
(0.000297454 0.000350026 2.01351e-14)
(0.000313958 0.00033467 1.52562e-14)
(0.000328048 0.000317276 -1.5901e-14)
(0.00033866 0.000297969 -5.42886e-14)
(0.00034262 0.000274808 -3.3958e-14)
(0.000342703 0.000250155 4.13751e-14)
(0.000338421 0.0002248 2.02699e-14)
(0.000330907 0.000199109 -1.04229e-14)
(5.04179e-05 0.000367238 -4.53874e-17)
(7.54902e-05 0.000365053 5.68376e-16)
(9.99872e-05 0.000354362 2.68351e-16)
(0.00013284 0.000364743 -2.05739e-16)
(0.000157712 0.000358746 7.55591e-16)
(0.000181889 0.00034812 8.84918e-18)
(0.00020986 0.000344833 9.87244e-17)
(0.000231267 0.000334634 9.90243e-15)
(0.000251635 0.000323411 -5.22144e-15)
(0.000272931 0.000314463 9.38319e-15)
(0.000287908 0.000300467 2.16669e-14)
(0.000301032 0.000285019 -2.19909e-15)
(0.000310789 0.000267761 6.56007e-15)
(0.000314494 0.00024708 2.69732e-15)
(0.0003149 0.000225336 -2.3344e-14)
(0.000310996 0.000202697 -3.57484e-14)
(0.000304517 0.000180308 1.78364e-14)
(0.000295943 0.000156714 3.35361e-14)
(4.71797e-05 0.000330411 8.91903e-17)
(6.99821e-05 0.000328806 5.22266e-16)
(9.2495e-05 0.000319462 -2.38811e-16)
(0.000122544 0.000328246 2.36992e-15)
(0.000145219 0.000322628 -5.36784e-16)
(0.000167187 0.000312815 6.30486e-15)
(0.000192666 0.000309652 2.67791e-15)
(0.000212233 0.000300426 1.22643e-14)
(0.000230716 0.000290096 -8.15612e-16)
(0.000250209 0.000282009 -1.70323e-14)
(0.000264107 0.000269613 -2.62184e-16)
(0.000275973 0.00025557 -3.29511e-16)
(0.000285018 0.000240168 -1.88193e-14)
(0.00028853 0.000221785 9.16317e-15)
(0.00028895 0.000202384 6.63042e-15)
(0.000285962 0.00018248 2.99489e-14)
(0.000280047 0.000162294 5.83126e-16)
(0.00027255 0.000141615 -4.10409e-14)
(4.38932e-05 0.000297192 6.26129e-16)
(6.47804e-05 0.000295831 -7.94904e-16)
(8.54697e-05 0.000287641 -9.383e-17)
(0.000112907 0.000295178 2.79773e-16)
(0.000133613 0.000289892 -8.1907e-16)
(0.000153656 0.000280975 -6.16794e-15)
(0.00017684 0.000277866 -3.89301e-15)
(0.00019459 0.000269318 2.01756e-14)
(0.000211557 0.000260059 1.03508e-14)
(0.000229332 0.000252701 -2.52464e-15)
(0.000241892 0.00024133 -2.30909e-14)
(0.000252956 0.000228883 9.20591e-15)
(0.000261226 0.000215074 1.95909e-14)
(0.000264537 0.000198656 -1.57207e-15)
(0.00026525 0.000181526 8.93737e-15)
(0.000262372 0.000163642 -5.54997e-14)
(0.000257441 0.00014582 -3.19275e-14)
(0.000250522 0.000127873 3.98165e-14)
(4.08612e-05 0.000267161 8.95969e-17)
(5.99411e-05 0.000266044 8.02106e-18)
(7.88917e-05 0.000258748 3.52473e-16)
(0.000103956 0.000265262 2.85656e-16)
(0.000122864 0.000260352 1.52562e-15)
(0.000141097 0.000252095 -1.42154e-16)
(0.00016221 0.000249103 -3.50041e-15)
(0.000178445 0.000241367 1.08143e-14)
(0.000193788 0.000232776 1.16392e-14)
(0.000210037 0.000226061 -1.09171e-14)
(0.000221634 0.000215942 -1.30465e-15)
(0.000231623 0.000204595 -9.60494e-15)
(0.000239293 0.000192246 1.98333e-14)
(0.000242422 0.000177621 -1.71427e-14)
(0.000243114 0.000162253 -9.77519e-15)
(0.000240975 0.000146503 1.32679e-15)
(0.000236324 0.000130513 -1.55015e-14)
(0.000230139 0.000114982 -1.41406e-14)
(0.000222836 9.89747e-05 -1.92726e-14)
(3.80067e-05 0.000240064 -2.68992e-17)
(5.54211e-05 0.000239056 7.64762e-18)
(7.27756e-05 0.000232602 4.95337e-17)
(9.56301e-05 0.000238164 1.76251e-15)
(0.000112868 0.000233571 -2.26736e-15)
(0.000129513 0.000226049 1.1275e-14)
(0.000148703 0.000223119 -1.20845e-14)
(0.000163417 0.000215909 -7.33459e-15)
(0.0001775 0.000208195 -1.6031e-14)
(0.000192293 0.000202037 7.58017e-15)
(0.000202757 0.000192732 2.7555e-15)
(0.000212039 0.000182642 -8.68929e-15)
(0.000219047 0.000171529 -1.82461e-14)
(0.000221994 0.000158427 -1.17173e-15)
(0.000222893 0.000144821 -2.61094e-14)
(0.000220834 0.000130639 -1.07253e-14)
(0.000217079 0.000116617 2.19702e-14)
(0.000211451 0.000102633 6.9762e-14)
(0.000205053 8.8567e-05 3.00689e-14)
(3.533e-05 0.000215581 2.85356e-16)
(5.12193e-05 0.000214697 1.31265e-16)
(6.70806e-05 0.000208912 -2.06817e-16)
(8.79174e-05 0.000213694 -4.18769e-16)
(0.000103649 0.000209436 1.60094e-15)
(0.000118782 0.000202455 2.63447e-15)
(0.000136248 0.000199637 -1.22269e-14)
(0.000149678 0.000193073 -1.06789e-14)
(0.000162399 0.00018588 -3.34782e-15)
(0.000175886 0.000180235 4.84709e-15)
(0.000185548 0.000171948 1.28433e-14)
(0.000193904 0.000162708 -7.3131e-15)
(0.000200394 0.000152744 4.86331e-15)
(0.000203161 0.000141033 1.8847e-14)
(0.000204013 0.000128812 -5.98966e-15)
(0.000202579 0.000116353 -3.32108e-14)
(0.000198948 0.000103712 4.78722e-15)
(0.000194148 9.12361e-05 -6.95229e-15)
(0.000188611 7.90389e-05 -3.19588e-15)
(3.28055e-05 0.00019345 -4.58425e-17)
(4.72885e-05 0.000192634 7.03093e-17)
(6.17827e-05 0.000187486 1.05546e-16)
(8.07515e-05 0.000191541 -1.59552e-15)
(9.50945e-05 0.000187552 2.26998e-15)
(0.000108889 0.000181191 -1.53347e-15)
(0.000124766 0.000178437 4.83054e-15)
(0.000136915 0.000172311 1.1237e-14)
(0.000148562 0.000165829 -5.66968e-15)
(0.000160831 0.000160649 -1.41417e-15)
(0.000169508 0.000152983 -2.01364e-14)
(0.000177273 0.000144754 8.20285e-15)
(0.000183198 0.000135774 1.05747e-14)
(0.000185778 0.000125244 3.48223e-14)
(0.000186795 0.000114424 4.50159e-15)
(0.000185363 0.000103116 5.76916e-15)
(0.000182486 9.19145e-05 1.64446e-14)
(0.000178121 8.101e-05 -2.149e-15)
(0.000173295 7.01969e-05 -3.41451e-14)
(3.04199e-05 0.000173495 -8.23205e-17)
(4.3628e-05 0.000172758 -1.08707e-16)
(5.68464e-05 0.000168102 -1.2496e-16)
(7.41294e-05 0.00017155 1.71206e-15)
(8.72003e-05 0.000167858 -6.79339e-16)
(9.97195e-05 0.000161937 -4.70191e-15)
(0.000114157 0.000159295 -3.75614e-15)
(0.000125244 0.000153731 1.34457e-15)
(0.000135735 0.000147669 9.59918e-15)
(0.000146901 0.000142889 9.11769e-15)
(0.000154913 0.000136062 1.28291e-14)
(0.00016187 0.000128497 -1.79619e-14)
(0.000167348 0.000120415 3.81298e-15)
(0.000169768 0.000111002 1.1816e-14)
(0.0001707 0.0001012 5.90983e-15)
(0.00016975 9.12134e-05 -4.51207e-15)
(0.000167081 8.11266e-05 2.3599e-14)
(0.000163424 7.14336e-05 -6.90731e-15)
(0.000159011 6.19784e-05 -1.85778e-15)
(2.81648e-05 0.000155494 9.3904e-17)
(4.02064e-05 0.000154789 -4.02887e-16)
(5.22726e-05 0.000150623 -2.36554e-16)
(6.79882e-05 0.000153493 2.14553e-16)
(7.98754e-05 0.00015004 -2.25512e-15)
(9.12846e-05 0.000144639 5.7054e-15)
(0.000104381 0.000142068 -2.25052e-15)
(0.000114393 0.000136849 -2.24676e-14)
(0.000123999 0.000131386 1.07763e-14)
(0.000134135 0.000126974 5.0794e-15)
(0.0001413 0.000120632 -8.72398e-15)
(0.000147761 0.000113893 -1.85897e-15)
(0.000152741 0.000106582 -2.4915e-14)
(0.000154984 9.80837e-05 -2.11829e-14)
(0.000156005 8.93687e-05 -3.03994e-14)
(0.000155041 8.02826e-05 -2.11712e-14)
(0.000152954 7.13345e-05 -6.42654e-15)
(0.000149699 6.25435e-05 3.31338e-15)
(0.000145864 5.43549e-05 -1.96743e-15)
(0.000141404 4.58997e-05 1.40864e-14)
(2.60487e-05 0.000139261 3.89558e-16)
(3.70178e-05 0.000138601 -2.50927e-16)
(4.80118e-05 0.00013481 7.84057e-16)
(6.23062e-05 0.000137224 -8.63391e-16)
(7.31283e-05 0.000134022 -2.28615e-15)
(8.34715e-05 0.000128987 -1.3911e-15)
(9.5362e-05 0.00012652 3.94241e-15)
(0.000104491 0.000121772 -4.73549e-15)
(0.000113111 0.000116632 -1.37249e-14)
(0.000122327 0.000112563 2.112e-14)
(0.00012894 0.000106918 -3.59204e-15)
(0.000134706 0.000100692 -1.19007e-14)
(0.000139291 9.41021e-05 1.06478e-14)
(0.000141376 8.6483e-05 1.90523e-14)
(0.000142258 7.85829e-05 9.77285e-15)
(0.000141658 7.05623e-05 3.01851e-15)
(0.000139649 6.24194e-05 3.78466e-14)
(0.000137053 5.4608e-05 1.33683e-14)
(0.000133518 4.6967e-05 -1.53912e-14)
(0.000129632 3.92032e-05 1.08746e-14)
(2.40564e-05 0.000124625 5.57014e-16)
(3.40379e-05 0.000123985 -3.13196e-17)
(4.40607e-05 0.000120577 1.45072e-16)
(5.70397e-05 0.00012255 -1.20024e-15)
(6.68806e-05 0.000119538 5.1638e-15)
(7.62932e-05 0.000114952 -5.31551e-15)
(8.70693e-05 0.000112546 -2.98861e-15)
(9.5295e-05 0.000108093 1.58808e-14)
(0.000103185 0.000103465 -1.22125e-14)
(0.00011152 9.96904e-05 -4.071e-15)
(0.000117414 9.44245e-05 1.29833e-14)
(0.000122763 8.88768e-05 4.36556e-15)
(0.000126917 8.29069e-05 -1.37065e-15)
(0.00012882 7.60266e-05 3.27015e-15)
(0.00012976 6.90123e-05 6.44253e-15)
(0.000129049 6.16904e-05 1.24938e-14)
(0.00012749 5.44808e-05 -7.52992e-15)
(0.000124942 4.73861e-05 1.84348e-15)
(0.00012199 4.03237e-05 2.0471e-14)
(0.00011865 3.34794e-05 -3.71969e-15)
(2.21747e-05 0.000111435 -3.52453e-16)
(3.12624e-05 0.00011084 1.44013e-16)
(4.03789e-05 0.000107722 2.61687e-16)
(5.21789e-05 0.000109342 -1.61254e-16)
(6.11198e-05 0.000106544 -8.33827e-16)
(6.96428e-05 0.000102271 3.38996e-18)
(7.94225e-05 9.99769e-05 -4.14606e-15)
(8.69048e-05 9.59153e-05 6.57595e-15)
(9.39712e-05 9.15522e-05 1.13416e-14)
(0.000101534 8.80534e-05 -4.10521e-15)
(0.000106965 8.33623e-05 -6.82176e-15)
(0.000111714 7.82256e-05 -8.31863e-15)
(0.000115536 7.28402e-05 1.08698e-14)
(0.000117288 6.66817e-05 -5.67397e-15)
(0.000118073 6.02989e-05 -1.06333e-14)
(0.000117643 5.38565e-05 2.03246e-15)
(0.000116056 4.73237e-05 8.40129e-15)
(0.000113887 4.0946e-05 -2.69746e-14)
(0.000111031 3.47209e-05 -2.03498e-14)
(0.00010813 2.85027e-05 1.8892e-15)
(2.04056e-05 9.9562e-05 -6.88559e-17)
(2.86736e-05 9.89782e-05 1.02683e-16)
(3.69746e-05 9.61644e-05 -2.32103e-16)
(4.76815e-05 9.74545e-05 1.06258e-15)
(5.57879e-05 9.48295e-05 -1.68344e-15)
(6.35359e-05 9.09198e-05 -3.74375e-15)
(7.23797e-05 8.8701e-05 7.94361e-15)
(7.91172e-05 8.48817e-05 -5.27106e-15)
(8.55745e-05 8.09438e-05 4.30865e-15)
(9.24139e-05 7.7695e-05 6.58425e-15)
(9.72326e-05 7.33051e-05 8.73388e-15)
(0.000101635 6.8729e-05 -7.97224e-15)
(0.000105079 6.38458e-05 -6.38478e-15)
(0.000106673 5.828e-05 4.20662e-15)
(0.00010749 5.26283e-05 1.73434e-14)
(0.000106925 4.6761e-05 4.64159e-15)
(0.00010564 4.10137e-05 -1.93212e-14)
(0.000103527 3.53375e-05 -6.00632e-16)
(0.000101034 2.98527e-05 1.35012e-14)
(9.83373e-05 2.45459e-05 1.19342e-14)
(1.87556e-05 8.8866e-05 3.97587e-17)
(2.62693e-05 8.83137e-05 -2.34956e-17)
(3.38112e-05 8.5731e-05 -3.12585e-16)
(4.35241e-05 8.67635e-05 -3.35561e-16)
(5.08847e-05 8.43309e-05 1.59233e-15)
(5.7889e-05 8.06819e-05 -4.39177e-16)
(6.59011e-05 7.85681e-05 3.47524e-15)
(7.20289e-05 7.50866e-05 6.66379e-15)
(7.77989e-05 7.13681e-05 -4.73078e-15)
(8.39914e-05 6.83499e-05 -9.44451e-15)
(8.84324e-05 6.44443e-05 -9.15425e-15)
(9.2321e-05 6.01918e-05 6.63461e-16)
(9.54817e-05 5.57898e-05 1.19648e-14)
(9.69416e-05 5.08115e-05 9.45533e-15)
(9.76155e-05 4.56948e-05 -1.68058e-14)
(9.7294e-05 4.05774e-05 -1.23473e-14)
(9.5982e-05 3.54101e-05 -6.15298e-15)
(9.41591e-05 3.04292e-05 1.8816e-14)
(9.17955e-05 2.56151e-05 1.55469e-14)
(8.93407e-05 2.11983e-05 -1.09737e-14)
(8.73661e-05 1.69646e-05 4.51792e-15)
(1.72139e-05 7.92311e-05 -2.61544e-17)
(2.40316e-05 7.86949e-05 -1.64877e-17)
(3.08878e-05 7.63657e-05 1.37037e-16)
(3.96827e-05 7.71528e-05 -9.32609e-17)
(4.63556e-05 7.48644e-05 2.61409e-15)
(5.27107e-05 7.15377e-05 -2.78448e-15)
(5.99545e-05 6.94973e-05 1.45154e-15)
(6.54508e-05 6.62226e-05 -3.86434e-15)
(7.07212e-05 6.28685e-05 4.6436e-17)
(7.63025e-05 6.00638e-05 -1.27591e-15)
(8.02312e-05 5.63994e-05 -3.8803e-15)
(8.38425e-05 5.26203e-05 5.90344e-17)
(8.66808e-05 4.86269e-05 5.11374e-15)
(8.80087e-05 4.41423e-05 4.88261e-15)
(8.87216e-05 3.96362e-05 9.14276e-15)
(8.82725e-05 3.49784e-05 -8.64088e-15)
(8.72481e-05 3.04711e-05 -8.74363e-15)
(8.54956e-05 2.60673e-05 -1.02747e-14)
(8.35508e-05 2.19331e-05 -7.87028e-15)
(8.13078e-05 1.8062e-05 1.65364e-15)
(7.9444e-05 1.43649e-05 -3.56352e-15)
(1.57732e-05 7.05592e-05 1.50526e-16)
(2.19588e-05 7.00596e-05 6.63988e-17)
(2.81722e-05 6.79168e-05 -4.20297e-16)
(3.6143e-05 6.85139e-05 -1.81572e-15)
(4.21891e-05 6.64004e-05 1.97871e-15)
(4.79227e-05 6.32979e-05 -1.12948e-15)
(5.4476e-05 6.13631e-05 -8.37963e-15)
(5.94681e-05 5.83855e-05 4.92628e-15)
(6.41656e-05 5.5217e-05 -2.17118e-15)
(6.92168e-05 5.26117e-05 -7.45116e-15)
(7.28365e-05 4.9355e-05 9.46279e-15)
(7.60157e-05 4.58404e-05 -2.5317e-14)
(7.86287e-05 4.22432e-05 -4.80199e-16)
(7.98498e-05 3.82444e-05 1.51431e-15)
(8.04373e-05 3.41435e-05 4.18013e-15)
(8.02182e-05 3.00998e-05 2.13934e-14)
(7.91782e-05 2.60492e-05 -3.00106e-15)
(7.77295e-05 2.2221e-05 8.50756e-15)
(7.5826e-05 1.86148e-05 6.86632e-15)
(7.39386e-05 1.52098e-05 -6.02321e-15)
(7.24781e-05 1.21895e-05 1.13539e-14)
(1.44309e-05 6.27588e-05 1.25461e-17)
(2.00346e-05 6.22685e-05 -1.60976e-17)
(2.56699e-05 6.03334e-05 2.72964e-16)
(3.2876e-05 6.07528e-05 -1.17858e-15)
(3.83366e-05 5.87756e-05 -1.23966e-16)
(4.35371e-05 5.59499e-05 5.7975e-15)
(4.94438e-05 5.41019e-05 -1.04784e-15)
(5.39214e-05 5.13009e-05 -2.28767e-15)
(5.82076e-05 4.84462e-05 1.12372e-14)
(6.27558e-05 4.6025e-05 -1.02799e-14)
(6.59516e-05 4.29691e-05 1.69903e-14)
(6.89091e-05 3.98503e-05 5.46352e-15)
(7.12532e-05 3.65855e-05 -2.93347e-14)
(7.23747e-05 3.29747e-05 5.21817e-15)
(7.30037e-05 2.93687e-05 1.27393e-14)
(7.26817e-05 2.56789e-05 7.01748e-15)
(7.19102e-05 2.21674e-05 -6.0281e-15)
(7.05543e-05 1.87931e-05 4.13535e-15)
(6.90064e-05 1.5657e-05 -2.40331e-15)
(6.7286e-05 1.28425e-05 -1.03519e-14)
(6.59957e-05 1.02222e-05 9.08147e-15)
(1.31888e-05 5.57338e-05 5.05429e-17)
(1.82562e-05 5.52741e-05 -4.8168e-17)
(2.33517e-05 5.34928e-05 2.75043e-16)
(2.98644e-05 5.37853e-05 1.20158e-15)
(3.48027e-05 5.19619e-05 1.92526e-15)
(3.94841e-05 4.93292e-05 -1.06559e-15)
(4.48214e-05 4.75888e-05 5.71342e-15)
(4.88837e-05 4.50471e-05 -5.57983e-17)
(5.26967e-05 4.23552e-05 3.94834e-15)
(5.68076e-05 4.01113e-05 1.19348e-14)
(5.97549e-05 3.74024e-05 -2.77256e-15)
(6.23585e-05 3.44976e-05 1.69817e-14)
(6.45185e-05 3.1555e-05 -4.00749e-17)
(6.55557e-05 2.83312e-05 -1.98544e-14)
(6.60821e-05 2.50519e-05 -5.46329e-16)
(6.59761e-05 2.18629e-05 -8.86226e-15)
(6.51966e-05 1.87033e-05 -1.78125e-14)
(6.41109e-05 1.57573e-05 -8.87958e-15)
(6.26966e-05 1.30369e-05 -4.84192e-15)
(6.13026e-05 1.05657e-05 6.79369e-15)
(6.0186e-05 8.29414e-06 5.10664e-15)
(1.20366e-05 4.9417e-05 6.21928e-17)
(1.66092e-05 4.89716e-05 -2.75601e-17)
(2.12171e-05 4.73637e-05 -4.02339e-16)
(2.70866e-05 4.75291e-05 -3.99543e-17)
(3.15445e-05 4.58235e-05 -2.16739e-15)
(3.57759e-05 4.34329e-05 -7.30259e-16)
(4.05832e-05 4.17749e-05 8.01006e-16)
(4.42133e-05 3.93941e-05 -2.67828e-15)
(4.76958e-05 3.69802e-05 -5.17599e-15)
(5.1392e-05 3.4905e-05 5.07853e-15)
(5.3989e-05 3.23582e-05 -7.54499e-15)
(5.64182e-05 2.97847e-05 -2.0345e-14)
(5.83606e-05 2.71118e-05 1.52036e-14)
(5.932e-05 2.42001e-05 1.21914e-14)
(5.98993e-05 2.13221e-05 6.70169e-15)
(5.96972e-05 1.83943e-05 -1.42827e-15)
(5.91639e-05 1.56456e-05 2.6434e-15)
(5.81766e-05 1.303e-05 3.52293e-15)
(5.70544e-05 1.06211e-05 -6.69651e-15)
(5.57746e-05 8.4165e-06 -2.83306e-15)
(5.47627e-05 6.398e-06 -3.30488e-15)
(5.4856e-05 4.54481e-06 -6.95602e-15)
(1.09652e-05 4.37394e-05 5.81562e-17)
(1.50896e-05 4.33248e-05 3.7427e-17)
(1.924e-05 4.18416e-05 1.99444e-16)
(2.45343e-05 4.19148e-05 -3.89536e-16)
(2.85527e-05 4.03473e-05 -2.03866e-15)
(3.23528e-05 3.81264e-05 -3.07726e-15)
(3.66875e-05 3.65743e-05 2.20019e-15)
(3.99782e-05 3.44243e-05 -1.15962e-15)
(4.3066e-05 3.21502e-05 4.97755e-16)
(4.6408e-05 3.02287e-05 -5.64243e-15)
(4.88119e-05 2.79808e-05 -6.49895e-15)
(5.09448e-05 2.55805e-05 -1.40698e-14)
(5.27487e-05 2.31679e-05 -8.58945e-15)
(5.36406e-05 2.05676e-05 1.08731e-14)
(5.41397e-05 1.79241e-05 -1.99011e-15)
(5.41357e-05 1.53883e-05 9.26201e-15)
(5.35866e-05 1.28876e-05 4.351e-15)
(5.28081e-05 1.05726e-05 -1.32282e-14)
(5.17729e-05 8.43087e-06 -1.35497e-14)
(5.07899e-05 6.44073e-06 2.39116e-14)
(4.9936e-05 4.63034e-06 -2.85694e-17)
(5.00477e-05 3.02225e-06 -6.67458e-15)
(9.96956e-06 3.86473e-05 3.78602e-18)
(1.36833e-05 3.82421e-05 2.55647e-17)
(1.74237e-05 3.69011e-05 -4.65543e-17)
(2.21825e-05 3.68812e-05 8.00077e-16)
(2.57922e-05 3.54214e-05 -2.77708e-16)
(2.92227e-05 3.34076e-05 2.68479e-15)
(3.31118e-05 3.19417e-05 -3.68325e-15)
(3.60515e-05 2.99293e-05 3.80982e-15)
(3.88728e-05 2.78961e-05 -1.49709e-15)
(4.18755e-05 2.61207e-05 1.1072e-14)
(4.39938e-05 2.4007e-05 6.1003e-15)
(4.59916e-05 2.18819e-05 5.85953e-15)
(4.76173e-05 1.96853e-05 -4.01039e-15)
(4.8453e-05 1.73214e-05 -4.39748e-15)
(4.8998e-05 1.49931e-05 2.47222e-15)
(4.89147e-05 1.26406e-05 -7.53722e-15)
(4.85755e-05 1.04528e-05 6.2798e-16)
(4.78672e-05 8.38182e-06 1.09202e-14)
(4.704e-05 6.46964e-06 -4.89756e-16)
(4.60814e-05 4.70564e-06 -2.00755e-14)
(4.54842e-05 3.10273e-06 2.9088e-15)
(4.58479e-05 1.72848e-06 -8.8426e-16)
(9.05078e-06 3.40892e-05 -7.48878e-17)
(1.23881e-05 3.3704e-05 9.37918e-17)
(1.5747e-05 3.24645e-05 -2.37959e-16)
(2.00227e-05 3.2383e-05 1.05966e-15)
(2.32666e-05 3.10389e-05 -3.26927e-16)
(2.63373e-05 2.91669e-05 2.27381e-15)
(2.98364e-05 2.77984e-05 3.93159e-15)
(3.24976e-05 2.59834e-05 -1.56911e-15)
(3.49951e-05 2.40713e-05 -5.11782e-15)
(3.77096e-05 2.24312e-05 -3.92378e-15)
(3.96747e-05 2.05687e-05 1.33431e-14)
(4.14294e-05 1.85792e-05 -4.4143e-15)
(4.29404e-05 1.65895e-05 4.04276e-15)
(4.37244e-05 1.44695e-05 -1.11145e-17)
(4.42019e-05 1.23225e-05 8.65573e-15)
(4.42907e-05 1.02793e-05 7.76204e-15)
(4.39327e-05 8.27523e-06 -3.83239e-15)
(4.33965e-05 6.42647e-06 -1.56905e-15)
(4.26447e-05 4.71703e-06 6.89313e-16)
(4.19445e-05 3.1511e-06 7.6001e-15)
(4.14284e-05 1.77043e-06 -3.42834e-16)
(4.18425e-05 4.78381e-07 -3.93643e-15)
(8.19737e-06 3.00201e-05 3.18072e-17)
(1.11907e-05 2.9642e-05 1.0762e-16)
(1.4207e-05 2.85154e-05 -6.81404e-16)
(1.80345e-05 2.83647e-05 -1.21227e-15)
(2.09453e-05 2.71072e-05 2.96906e-16)
(2.37065e-05 2.54118e-05 1.30597e-15)
(2.68422e-05 2.41169e-05 -2.56526e-15)
(2.92088e-05 2.24203e-05 7.18052e-16)
(3.1491e-05 2.07133e-05 9.26456e-16)
(3.39252e-05 1.91997e-05 -2.95359e-15)
(3.5654e-05 1.74419e-05 -4.91452e-15)
(3.73053e-05 1.56793e-05 1.29685e-15)
(3.86656e-05 1.38592e-05 -2.59223e-15)
(3.94041e-05 1.19254e-05 -4.9239e-15)
(3.9923e-05 1.00276e-05 -1.32388e-14)
(3.9941e-05 8.11649e-06 -7.23894e-15)
(3.97642e-05 6.34683e-06 -2.1638e-15)
(3.92799e-05 4.67683e-06 4.18703e-15)
(3.87079e-05 3.13157e-06 3.42341e-15)
(3.80407e-05 1.73785e-06 -6.04055e-15)
(3.77365e-05 4.78618e-07 1.3501e-15)
(3.82558e-05 -6.3792e-07 4.20853e-15)
(7.40055e-06 2.63963e-05 3.27682e-17)
(1.00856e-05 2.60354e-05 -5.38951e-17)
(1.27842e-05 2.49893e-05 4.23551e-16)
(1.62161e-05 2.47909e-05 -8.04225e-16)
(1.88221e-05 2.36305e-05 2.38726e-16)
(2.12851e-05 2.20511e-05 -2.90143e-15)
(2.40995e-05 2.08414e-05 -4.65011e-15)
(2.62383e-05 1.93119e-05 2.67143e-15)
(2.82519e-05 1.77026e-05 8.59925e-15)
(3.04524e-05 1.62998e-05 2.93992e-16)
(3.20573e-05 1.4748e-05 2.99673e-15)
(3.35043e-05 1.30913e-05 -9.51395e-15)
(3.47724e-05 1.1433e-05 -4.49534e-15)
(3.54647e-05 9.6927e-06 -1.83867e-16)
(3.59265e-05 7.92073e-06 1.22189e-14)
(3.60873e-05 6.24735e-06 2.58239e-15)
(3.58947e-05 4.60439e-06 -1.55597e-15)
(3.55556e-05 3.09044e-06 1.07039e-14)
(3.50491e-05 1.70173e-06 -1.89043e-15)
(3.46078e-05 4.38693e-07 6.852e-15)
(3.43562e-05 -6.50485e-07 -5.39257e-15)
(3.48373e-05 -1.8281e-06 -7.674e-15)
(6.66012e-06 2.31896e-05 4.80927e-17)
(9.06609e-06 2.28291e-05 5.02231e-18)
(1.14827e-05 2.18716e-05 2.2821e-16)
(1.45456e-05 2.16199e-05 1.56457e-15)
(1.68715e-05 2.05328e-05 8.68028e-16)
(1.90833e-05 1.90966e-05 -3.25644e-15)
(2.1593e-05 1.79516e-05 4.95682e-15)
(2.3495e-05 1.65151e-05 -4.81816e-15)
(2.5334e-05 1.50735e-05 4.80636e-15)
(2.73039e-05 1.3771e-05 -2.34334e-15)
(2.87141e-05 1.22988e-05 1.10915e-15)
(3.00747e-05 1.08227e-05 6.57729e-15)
(3.12136e-05 9.29682e-06 -1.16107e-14)
(3.18629e-05 7.69257e-06 2.06374e-15)
(3.23521e-05 6.116e-06 -3.89141e-15)
(3.245e-05 4.53181e-06 -2.76519e-15)
(3.24022e-05 3.06758e-06 -1.22636e-15)
(3.21145e-05 1.68508e-06 -9.85595e-15)
(3.17572e-05 4.13261e-07 6.10496e-15)
(3.13652e-05 -7.26624e-07 2.84373e-15)
(3.12233e-05 -1.82472e-06 7.33114e-16)