/*--------------------------------*- C++ -*----------------------------------*\
| =========                 |                                                 |
| \\      /  F ield         | OpenFOAM: The Open Source CFD Toolbox           |
|  \\    /   O peration     | Version:  2506                                  |
|   \\  /    A nd           | Website:  www.openfoam.com                      |
|    \\/     M anipulation  |                                                 |
\*---------------------------------------------------------------------------*/
FoamFile
{
    version     2.0;
    format      ascii;
    arch        "LSB;label=32;scalar=64";
    class       volScalarField;
    location    "300";
    object      turbulenceProperties:I;
}
// * * * * * * * * * * * * * * * * * * * * * * * * * * * * * * * * * * * * * //

dimensions      [0 0 0 0 0 0 0];

internalField   nonuniform List<scalar> 
1340
(
0.000780587
0.000749879
0.000719494
0.000716755
0.000691394
0.000666092
0.000641952
0.000617874
0.000659912
0.00063891
0.000617802
0.000597609
0.000577334
0.0005576
0.00053857
0.000609026
0.000591577
0.00057392
0.000556984
0.000539874
0.000523164
0.00050699
0.000491143
0.00056335
0.000548816
0.00053402
0.000519799
0.000505366
0.000491214
0.000477478
0.000463971
0.000450779
0.000522198
0.000510071
0.000497642
0.000485686
0.000473509
0.000461517
0.000449853
0.000438352
0.000427081
0.000485002
0.000474863
0.000464407
0.000454359
0.000444079
0.000433928
0.000424037
0.000414258
0.000404653
0.000395157
0.000451267
0.000442773
0.000433979
0.000425531
0.000416856
0.00040827
0.000399896
0.00039159
0.000383415
0.000375313
0.000367206
0.00042057
0.000413448
0.000406058
0.000398951
0.000391642
0.000384388
0.000377309
0.000370271
0.000363336
0.000356446
0.000349536
0.000392546
0.000386587
0.000380369
0.000374409
0.000368255
0.000362146
0.00035617
0.000350225
0.000344358
0.000338517
0.000332639
0.000326714
0.000366896
0.000361912
0.000356692
0.000351699
0.000346536
0.000341397
0.000336374
0.000331367
0.00032642
0.000321488
0.000316513
0.000311486
0.000343356
0.000339194
0.000334822
0.000330651
0.000326333
0.000322025
0.000317818
0.00031362
0.000309468
0.000305324
0.000301136
0.00029689
0.00029255
0.000321694
0.000318234
0.000314577
0.000311113
0.000307514
0.00030392
0.000300416
0.000296914
0.000293449
0.000289985
0.000286476
0.000282913
0.000279257
0.000301717
0.000298849
0.000295807
0.000292945
0.00028996
0.000286982
0.000284078
0.000281178
0.000278305
0.000275432
0.000272516
0.000269549
0.000266493
0.000263332
0.000283253
0.000280887
0.000278374
0.000276021
0.000273566
0.000271115
0.000268731
0.000266344
0.000263984
0.00026162
0.000259218
0.000256765
0.000254234
0.000251606
0.000266151
0.000264214
0.000262154
0.000260238
0.000258237
0.000256239
0.0002543
0.00025236
0.00025044
0.000248518
0.00024656
0.000244555
0.000242481
0.000240315
0.000250284
0.000248713
0.000247038
0.000245497
0.000243885
0.000242276
0.000240718
0.000239164
0.000237624
0.000236084
0.000234509
0.000232895
0.000231215
0.000229454
0.000227604
0.000235534
0.000234277
0.000232931
0.000231712
0.000230433
0.000229157
0.00022793
0.000226706
0.000225495
0.000224282
0.00022304
0.000221762
0.000220426
0.000219019
0.00021753
0.0002218
0.000220814
0.000219748
0.000218804
0.000217813
0.000216822
0.00021588
0.000214938
0.000214011
0.00021308
0.000212124
0.000211135
0.000210097
0.000208995
0.000207819
0.000208996
0.000208238
0.000207414
0.000206704
0.000205957
0.000205213
0.000204514
0.000203815
0.00020313
0.000202443
0.000201732
0.000200994
0.000200213
0.000199376
0.000198474
0.000197498
0.000197041
0.000196476
0.00019586
0.00019535
0.000194811
0.00019428
0.000193787
0.000193298
0.000192821
0.000192343
0.000191843
0.000191321
0.00019076
0.000190151
0.000189483
0.000188752
0.000185863
0.000185464
0.000185023
0.000184684
0.000184325
0.000183973
0.000183659
0.000183349
0.000183049
0.000182749
0.00018243
0.000182092
0.000181719
0.000181305
0.000180843
0.000180324
0.000175575
0.0001754
0.000175141
0.00017485
0.000174656
0.000174449
0.000174251
0.000174087
0.00017393
0.000173781
0.000173633
0.000173468
0.000173287
0.000173077
0.00017283
0.000172541
0.000172203
0.00017181
0.000165668
0.000165595
0.000165454
0.000165291
0.00016522
0.000165141
0.000165074
0.000165039
0.00016501
0.000164991
0.000164971
0.000164938
0.000164889
0.000164816
0.000164711
0.000164571
0.000164388
0.000164159
0.000156383
0.000156396
0.000156355
0.000156301
0.000156332
0.000156363
0.000156406
0.00015648
0.000156561
0.000156651
0.000156739
0.000156816
0.000156881
0.000156923
0.000156939
0.000156924
0.000156873
0.000156781
0.000147674
0.000147758
0.0001478
0.000147837
0.000147956
0.000148078
0.000148214
0.000148379
0.000148553
0.000148734
0.000148914
0.000149084
0.000149243
0.000149383
0.000149499
0.00014959
0.00014965
0.000149674
0.00014966
0.000139497
0.000139639
0.000139751
0.000139864
0.000140056
0.000140255
0.000140468
0.000140711
0.000140961
0.000141217
0.000141474
0.000141721
0.000141959
0.000142179
0.00014238
0.000142559
0.000142711
0.000142833
0.000142921
0.000131813
0.000132001
0.000132171
0.000132347
0.000132599
0.000132862
0.000133141
0.000133447
0.00013376
0.00013408
0.0001344
0.000134711
0.000135013
0.000135301
0.000135571
0.000135822
0.00013605
0.000136252
0.000136425
0.000124584
0.000124811
0.000125029
0.000125256
0.000125558
0.000125873
0.000126205
0.000126564
0.000126929
0.000127301
0.000127673
0.000128036
0.000128391
0.000128733
0.000129061
0.000129371
0.000129661
0.000129928
0.000130169
0.000117779
0.000118037
0.000118292
0.000118562
0.000118904
0.000119263
0.000119638
0.000120039
0.000120448
0.000120862
0.000121275
0.00012168
0.000122078
0.000122464
0.000122836
0.000123193
0.000123534
0.000123853
0.00012415
0.000111369
0.00011165
0.000111935
0.00011224
0.000112613
0.000113007
0.000113418
0.000113853
0.000114296
0.000114744
0.00011519
0.000115629
0.000116061
0.000116481
0.000116889
0.000117283
0.000117662
0.000118023
0.000118363
0.000118678
0.000105326
0.000105624
0.000105933
0.000106265
0.000106664
0.000107084
0.000107523
0.000107986
0.000108457
0.000108931
0.000109403
0.000109868
0.000110325
0.000110772
0.000111207
0.00011163
0.000112039
0.00011243
0.000112803
0.000113153
9.96249e-05
9.99358e-05
0.000100261
0.000100615
0.000101033
0.000101475
0.000101937
0.000102421
0.000102912
0.000103406
0.000103898
0.000104383
0.00010486
0.000105326
0.000105782
0.000106225
0.000106655
0.00010707
0.000107467
0.000107842
9.42434e-05
9.45621e-05
9.49002e-05
9.52705e-05
9.57028e-05
9.61609e-05
9.66391e-05
9.71394e-05
9.76465e-05
9.81563e-05
9.86633e-05
9.91622e-05
9.96526e-05
0.000100133
0.000100603
0.000101061
0.000101506
0.000101936
0.000102349
0.000102741
8.91606e-05
8.94829e-05
8.98299e-05
9.02116e-05
9.06543e-05
9.11244e-05
9.16152e-05
9.21273e-05
9.26463e-05
9.3167e-05
9.36841e-05
9.41926e-05
9.46927e-05
9.51821e-05
9.56608e-05
9.61276e-05
9.65819e-05
9.70216e-05
9.74445e-05
9.78467e-05
8.43568e-05
8.46798e-05
8.50319e-05
8.54216e-05
8.58709e-05
8.63493e-05
8.68494e-05
8.73698e-05
8.78972e-05
8.8425e-05
8.89488e-05
8.94637e-05
8.99693e-05
9.04636e-05
9.09469e-05
9.14182e-05
9.18767e-05
9.23208e-05
9.27481e-05
9.31546e-05
9.35353e-05
7.9814e-05
8.01352e-05
8.04893e-05
8.08841e-05
8.13371e-05
8.18212e-05
8.23274e-05
8.28534e-05
8.33862e-05
8.39188e-05
8.44461e-05
8.49643e-05
8.54718e-05
8.5968e-05
8.64525e-05
8.69246e-05
8.73834e-05
8.78274e-05
8.82542e-05
8.86603e-05
8.90405e-05
7.55158e-05
7.5833e-05
7.61868e-05
7.6584e-05
7.70386e-05
7.75258e-05
7.80359e-05
7.85657e-05
7.91015e-05
7.96361e-05
8.0165e-05
8.06836e-05
8.11909e-05
8.16862e-05
8.21691e-05
8.26389e-05
8.30949e-05
8.35359e-05
8.39589e-05
8.43606e-05
8.47362e-05
7.14468e-05
7.17584e-05
7.21098e-05
7.25072e-05
7.29617e-05
7.34503e-05
7.39626e-05
7.44941e-05
7.50311e-05
7.55665e-05
7.60949e-05
7.66125e-05
7.71177e-05
7.761e-05
7.80888e-05
7.8554e-05
7.90046e-05
7.94392e-05
7.98554e-05
8.02498e-05
8.06174e-05
6.75928e-05
6.78973e-05
6.82446e-05
6.86406e-05
6.90938e-05
6.95824e-05
7.00958e-05
7.06276e-05
7.11649e-05
7.16998e-05
7.22265e-05
7.27413e-05
7.32429e-05
7.37303e-05
7.42035e-05
7.46622e-05
7.51053e-05
7.55315e-05
7.59387e-05
7.63235e-05
7.66805e-05
6.39405e-05
6.42367e-05
6.45787e-05
6.49723e-05
6.54228e-05
6.59108e-05
6.64243e-05
6.6956e-05
6.74929e-05
6.8026e-05
6.855e-05
6.90611e-05
6.95579e-05
7.00395e-05
7.05059e-05
7.09565e-05
7.13907e-05
7.18071e-05
7.22036e-05
7.25766e-05
7.29217e-05
7.32344e-05
6.04775e-05
6.07646e-05
6.11005e-05
6.14905e-05
6.19378e-05
6.24247e-05
6.2938e-05
6.34691e-05
6.40049e-05
6.45358e-05
6.50566e-05
6.55634e-05
6.60547e-05
6.65297e-05
6.69883e-05
6.743e-05
6.78543e-05
6.82597e-05
6.8644e-05
6.90042e-05
6.93358e-05
6.96344e-05
5.71924e-05
5.74697e-05
5.77986e-05
5.81845e-05
5.86287e-05
5.91142e-05
5.96272e-05
6.01575e-05
6.06919e-05
6.12207e-05
6.17381e-05
6.22403e-05
6.27256e-05
6.31934e-05
6.36435e-05
6.40758e-05
6.44895e-05
6.4883e-05
6.52543e-05
6.56009e-05
6.5918e-05
6.62017e-05
5.40744e-05
5.43414e-05
5.46628e-05
5.50445e-05
5.54855e-05
5.59698e-05
5.64827e-05
5.70124e-05
5.75457e-05
5.80723e-05
5.85861e-05
5.90836e-05
5.95629e-05
6.00233e-05
6.04647e-05
6.0887e-05
6.12895e-05
6.16708e-05
6.2029e-05
6.23613e-05
6.26635e-05
6.29319e-05
5.11135e-05
5.13698e-05
5.16835e-05
5.20609e-05
5.2499e-05
5.29825e-05
5.34958e-05
5.40254e-05
5.45578e-05
5.50824e-05
5.5593e-05
5.60859e-05
5.65592e-05
5.70122e-05
5.74449e-05
5.78572e-05
5.82484e-05
5.86175e-05
5.89623e-05
5.92801e-05
5.95672e-05
5.98202e-05
4.83003e-05
4.85456e-05
4.88516e-05
4.92249e-05
4.96607e-05
5.01443e-05
5.06584e-05
5.11884e-05
5.17207e-05
5.22439e-05
5.27516e-05
5.32402e-05
5.37075e-05
5.41533e-05
5.45776e-05
5.498e-05
5.536e-05
5.57167e-05
5.60481e-05
5.63516e-05
5.66239e-05
5.68617e-05
4.56258e-05
4.58602e-05
4.61584e-05
4.65281e-05
4.69626e-05
4.74471e-05
4.79628e-05
4.84941e-05
4.90269e-05
4.95492e-05
5.00546e-05
5.05392e-05
5.10011e-05
5.14401e-05
5.1856e-05
5.22488e-05
5.2618e-05
5.29627e-05
5.3281e-05
5.35708e-05
5.38285e-05
5.40513e-05
4.30819e-05
4.33053e-05
4.3596e-05
4.39629e-05
4.43972e-05
4.48833e-05
4.54017e-05
4.59352e-05
4.64692e-05
4.69914e-05
4.74949e-05
4.79763e-05
4.84335e-05
4.88659e-05
4.92739e-05
4.96577e-05
5.00169e-05
5.03502e-05
5.06562e-05
5.09326e-05
5.11763e-05
5.13848e-05
5.15546e-05
4.06609e-05
4.08733e-05
4.11568e-05
4.15221e-05
4.1957e-05
4.24459e-05
4.29683e-05
4.35048e-05
4.40411e-05
4.45638e-05
4.50664e-05
4.55453e-05
4.59982e-05
4.64247e-05
4.68257e-05
4.72013e-05
4.7551e-05
4.78738e-05
4.81681e-05
4.84319e-05
4.86624e-05
4.88573e-05
4.90138e-05
3.83554e-05
3.85568e-05
3.88338e-05
3.91987e-05
3.96355e-05
4.01285e-05
4.06559e-05
4.11965e-05
4.17359e-05
4.22602e-05
4.27628e-05
4.32401e-05
4.36892e-05
4.41106e-05
4.45053e-05
4.48736e-05
4.52147e-05
4.55276e-05
4.58109e-05
4.60626e-05
4.62803e-05
4.64621e-05
4.66059e-05
3.61586e-05
3.63492e-05
3.66205e-05
3.69864e-05
3.7426e-05
3.79247e-05
3.84584e-05
3.90038e-05
3.95475e-05
4.0074e-05
4.05776e-05
4.10544e-05
4.15009e-05
4.19176e-05
4.23068e-05
4.26683e-05
4.30009e-05
4.33036e-05
4.35754e-05
4.38147e-05
4.40196e-05
4.41886e-05
4.43201e-05
3.40641e-05
3.4244e-05
3.45106e-05
3.4879e-05
3.53227e-05
3.58287e-05
3.63696e-05
3.69206e-05
3.747e-05
3.7999e-05
3.85049e-05
3.89828e-05
3.9427e-05
3.98393e-05
4.02226e-05
4.05763e-05
4.0899e-05
4.119e-05
4.14489e-05
4.16749e-05
4.18665e-05
4.20226e-05
4.21424e-05
3.20657e-05
3.22354e-05
3.24983e-05
3.28707e-05
3.33198e-05
3.38352e-05
3.43836e-05
3.49416e-05
3.54977e-05
3.6029e-05
3.65399e-05
3.70204e-05
3.74609e-05
3.78664e-05
3.82417e-05
3.85855e-05
3.8896e-05
3.91737e-05
3.94191e-05
3.96318e-05
3.98102e-05
3.99539e-05
4.00623e-05
3.01581e-05
3.03183e-05
3.05787e-05
3.09565e-05
3.1412e-05
3.19388e-05
3.2494e-05
3.3061e-05
3.36242e-05
3.4157e-05
3.46788e-05
3.51631e-05
3.55938e-05
3.59868e-05
3.63516e-05
3.66843e-05
3.69824e-05
3.72476e-05
3.74811e-05
3.76822e-05
3.78494e-05
3.79821e-05
3.80802e-05
2.83372e-05
2.84887e-05
2.87477e-05
2.91319e-05
2.95948e-05
3.01347e-05
3.06937e-05
3.12735e-05
3.18414e-05
3.2373e-05
3.29141e-05
3.34009e-05
3.38133e-05
3.419e-05
3.45459e-05
3.4871e-05
3.51604e-05
3.54171e-05
3.56425e-05
3.5835e-05
3.59929e-05
3.61156e-05
3.62038e-05
2.65983e-05
2.67419e-05
2.70011e-05
2.73928e-05
2.78654e-05
2.84192e-05
2.89776e-05
2.95778e-05
3.01391e-05
3.06669e-05
3.12374e-05
3.17189e-05
3.2106e-05
3.24726e-05
3.28296e-05
3.31541e-05
3.34401e-05
3.36929e-05
3.39136e-05
3.40997e-05
3.42495e-05
3.43632e-05
3.44419e-05
3.44892e-05
2.49395e-05
2.50752e-05
2.53368e-05
2.57382e-05
2.62228e-05
2.67902e-05
2.73462e-05
2.79775e-05
2.84958e-05
2.9042e-05
2.96727e-05
3.0122e-05
3.04629e-05
3.08337e-05
3.12083e-05
3.15373e-05
3.18206e-05
3.20705e-05
3.22875e-05
3.24678e-05
3.26098e-05
3.27147e-05
3.2785e-05
3.2824e-05
2.33834e-05
2.35105e-05
2.3775e-05
2.41839e-05
2.46772e-05
2.52493e-05
2.57996e-05
2.64606e-05
2.68772e-05
2.7495e-05
2.8231e-05
2.86181e-05
2.8877e-05
2.92709e-05
2.96873e-05
3.00275e-05
3.03085e-05
3.05564e-05
3.07708e-05
3.09455e-05
3.10796e-05
3.1176e-05
3.12385e-05
3.12727e-05
2.2055e-05
2.21707e-05
2.24287e-05
2.28234e-05
2.33019e-05
2.38388e-05
2.43543e-05
2.49859e-05
2.52539e-05
2.59517e-05
2.67811e-05
2.71137e-05
2.73351e-05
2.78003e-05
2.82939e-05
2.86734e-05
2.89752e-05
2.92402e-05
2.94687e-05
2.96528e-05
2.97925e-05
2.98905e-05
2.99526e-05
2.99849e-05
2.09447e-05
2.10471e-05
2.12847e-05
2.16443e-05
2.20812e-05
2.25436e-05
2.29983e-05
2.352e-05
2.36818e-05
2.43304e-05
2.5201e-05
2.55358e-05
2.58259e-05
2.63852e-05
2.69618e-05
2.74054e-05
2.77557e-05
2.80592e-05
2.83196e-05
2.85288e-05
2.86863e-05
2.87957e-05
2.88642e-05
2.88961e-05
1.98734e-05
1.99646e-05
2.01806e-05
2.05054e-05
2.0897e-05
2.12848e-05
2.16812e-05
2.2078e-05
2.21736e-05
2.26932e-05
2.35608e-05
2.39312e-05
2.43459e-05
2.49841e-05
2.56245e-05
2.61339e-05
2.65403e-05
2.68862e-05
2.71798e-05
2.74144e-05
2.75891e-05
2.77091e-05
2.77833e-05
2.7819e-05
1.87682e-05
1.88505e-05
1.9047e-05
1.93402e-05
1.96875e-05
2.00082e-05
2.0354e-05
2.06312e-05
2.06831e-05
2.10849e-05
2.19455e-05
2.23431e-05
2.28995e-05
2.36143e-05
2.43055e-05
2.48717e-05
2.53309e-05
2.57161e-05
2.60387e-05
2.6296e-05
2.64868e-05
2.66169e-05
2.66944e-05
2.67264e-05
1.7654e-05
1.77289e-05
1.79067e-05
1.81692e-05
1.84697e-05
1.8729e-05
1.90223e-05
1.91836e-05
1.92026e-05
1.94916e-05
2.03452e-05
2.07586e-05
2.14692e-05
2.22677e-05
2.30038e-05
2.36182e-05
2.41266e-05
2.45496e-05
2.48989e-05
2.51755e-05
2.53803e-05
2.55204e-05
2.56062e-05
2.56481e-05
1.65354e-05
1.66039e-05
1.67613e-05
1.6991e-05
1.72397e-05
1.74436e-05
1.7676e-05
1.77298e-05
1.77219e-05
1.79017e-05
1.87497e-05
1.91779e-05
2.00478e-05
2.0936e-05
2.17173e-05
2.23763e-05
2.29319e-05
2.33937e-05
2.37706e-05
2.4065e-05
2.4277e-05
2.44108e-05
2.44736e-05
2.44784e-05
1.54278e-05
1.5489e-05
1.56197e-05
1.58066e-05
1.59929e-05
1.61434e-05
1.62992e-05
1.62656e-05
1.62298e-05
1.63056e-05
1.71415e-05
1.75963e-05
1.86273e-05
1.96143e-05
2.04484e-05
2.11531e-05
2.17549e-05
2.22557e-05
2.26631e-05
2.29846e-05
2.32268e-05
2.33995e-05
2.35178e-05
2.35953e-05
1.43462e-05
1.43987e-05
1.44935e-05
1.46195e-05
1.47253e-05
1.48094e-05
1.48601e-05
1.47737e-05
1.4691e-05
1.46895e-05
1.55122e-05
1.60191e-05
1.72089e-05
1.83053e-05
1.92042e-05
1.99621e-05
2.06152e-05
2.11528e-05
2.15708e-05
2.18743e-05
2.20679e-05
2.21542e-05
2.21399e-05
2.20516e-05
2.19325e-05
1.32963e-05
1.33404e-05
1.33919e-05
1.34379e-05
1.34405e-05
1.34252e-05
1.33269e-05
1.32229e-05
1.30209e-05
1.30429e-05
1.38776e-05
1.44624e-05
1.58108e-05
1.70303e-05
1.79987e-05
1.88126e-05
1.95377e-05
2.01641e-05
2.06822e-05
2.11e-05
2.14355e-05
2.17163e-05
2.19744e-05
2.22111e-05
2.23817e-05
1.2293e-05
1.23222e-05
1.23076e-05
1.22416e-05
1.21141e-05
1.1963e-05
1.1703e-05
1.16247e-05
1.11871e-05
1.15355e-05
1.23238e-05
1.29487e-05
1.44615e-05
1.58325e-05
1.68779e-05
1.77188e-05
1.84403e-05
1.90388e-05
1.95064e-05
1.98443e-05
2.00453e-05
2.01024e-05
2.00349e-05
1.99301e-05
1.99017e-05
1.14344e-05
1.14175e-05
1.12584e-05
1.09793e-05
1.0635e-05
1.02962e-05
9.94846e-06
1.00095e-05
9.4215e-06
1.06233e-05
1.10505e-05
1.15424e-05
1.31423e-05
1.46651e-05
1.59052e-05
1.7018e-05
1.80617e-05
1.90092e-05
1.98552e-05
2.0631e-05
2.13868e-05
2.2177e-05
2.30084e-05
2.37633e-05
2.42901e-05
1.08943e-05
1.07987e-05
1.04133e-05
9.76894e-06
8.97681e-06
8.19738e-06
7.74687e-06
8.12882e-06
8.01129e-06
1.01232e-05
1.02291e-05
1.0657e-05
1.20769e-05
1.34906e-05
1.4774e-05
1.61168e-05
1.75135e-05
1.88776e-05
2.01621e-05
2.13458e-05
2.24069e-05
2.33297e-05
2.41182e-05
2.4759e-05
2.52737e-05
1.06358e-05
1.0485e-05
9.9368e-06
8.97984e-06
7.62622e-06
5.8418e-06
4.70793e-06
6.10846e-06
7.39963e-06
9.20132e-06
8.47811e-06
1.06432e-05
1.34148e-05
1.58895e-05
1.81135e-05
2.0165e-05
2.20912e-05
2.39032e-05
2.55873e-05
2.71238e-05
2.84707e-05
2.95696e-05
3.03473e-05
3.07872e-05
3.10813e-05
)
;

boundaryField
{
    inlet
    {
        type            calculated;
        value           nonuniform List<scalar> 
25
(
1.06151e-05
1.04548e-05
9.89246e-06
8.90205e-06
7.45369e-06
5.4068e-06
4.32833e-06
6.4784e-06
8.26336e-06
7.99831e-06
1.15998e-05
1.59874e-05
2.09053e-05
2.56238e-05
3.01135e-05
3.44179e-05
3.85799e-05
4.26088e-05
4.64952e-05
5.02134e-05
5.37197e-05
5.69382e-05
5.97832e-05
6.2166e-05
6.411e-05
)
;
    }
    outlet
    {
        type            calculated;
        value           nonuniform List<scalar> 0();
    }
    walls
    {
        type            calculated;
        value           nonuniform List<scalar> 0();
    }
    frontAndBack
    {
        type            empty;
    }
    procBoundary4to0
    {
        type            processor;
        value           nonuniform List<scalar> 
72
(
0.00080956
0.000740433
0.000679323
0.000625007
0.000576558
0.000533154
0.000494104
0.000458833
0.000426866
0.000397792
0.000371261
0.000346979
0.000324692
0.000304186
0.000285275
0.000267795
0.000251603
0.000236577
0.000222612
0.000209608
0.000197482
0.00018616
0.00018616
0.000175692
0.000165695
0.000156336
0.000147565
0.000139337
0.000131612
0.000124352
0.000117523
0.000111094
0.000105039
9.93299e-05
9.39448e-05
8.88614e-05
8.406e-05
7.95223e-05
7.52312e-05
7.11712e-05
6.73274e-05
6.36864e-05
6.02356e-05
5.69634e-05
5.38587e-05
5.09114e-05
4.8112e-05
4.54515e-05
4.29214e-05
4.05142e-05
3.82224e-05
3.60391e-05
3.39576e-05
3.1972e-05
3.00772e-05
2.8269e-05
2.65426e-05
2.48951e-05
2.33476e-05
2.20224e-05
2.09132e-05
1.9844e-05
1.8741e-05
1.76287e-05
1.65105e-05
1.54005e-05
1.43126e-05
1.32514e-05
1.22269e-05
1.13323e-05
1.07528e-05
1.04758e-05
)
;
    }
    procBoundary4to5
    {
        type            processor;
        value           nonuniform List<scalar> 
95
(
0.000852048
0.000814658
0.000777991
0.000690642
0.000690642
0.000662056
0.000594542
0.000594542
0.000572139
0.000520011
0.000520011
0.000475725
0.000475725
0.000437823
0.000415976
0.000415976
0.000385688
0.000385688
0.000359091
0.000342588
0.000342588
0.000320695
0.000306365
0.000306365
0.000288094
0.000275493
0.000275493
0.000260054
0.000248866
0.00023805
0.00023805
0.00022565
0.000215946
0.000206561
0.000206561
0.000196442
0.000187951
0.000179742
0.000179742
0.000171359
0.000163879
0.000156644
0.000156644
0.000149602
0.00014297
0.000136563
0.000130381
0.00012442
0.00012442
0.000118964
0.000113476
0.00010819
0.000103107
9.8223e-05
9.8223e-05
9.38863e-05
8.93907e-05
8.50813e-05
8.0954e-05
7.70062e-05
7.70062e-05
7.35068e-05
6.98926e-05
6.64453e-05
6.31605e-05
6.00337e-05
5.70601e-05
5.42352e-05
5.42352e-05
5.16843e-05
4.91312e-05
4.67114e-05
4.44146e-05
4.22267e-05
4.01368e-05
3.81455e-05
3.62601e-05
3.62601e-05
3.451e-05
3.28368e-05
3.12827e-05
2.99916e-05
2.88981e-05
2.78246e-05
2.6724e-05
2.56578e-05
2.44431e-05
2.36354e-05
2.36354e-05
2.18141e-05
2.24707e-05
1.99639e-05
2.45937e-05
2.57648e-05
3.11053e-05
)
;
    }
}


// ************************************************************************* //
