/*--------------------------------*- C++ -*----------------------------------*\
| =========                 |                                                 |
| \\      /  F ield         | OpenFOAM: The Open Source CFD Toolbox           |
|  \\    /   O peration     | Version:  2506                                  |
|   \\  /    A nd           | Website:  www.openfoam.com                      |
|    \\/     M anipulation  |                                                 |
\*---------------------------------------------------------------------------*/
FoamFile
{
    version     2.0;
    format      ascii;
    arch        "LSB;label=32;scalar=64";
    class       volScalarField;
    location    "300";
    object      turbulenceProperties:epsilon;
}
// * * * * * * * * * * * * * * * * * * * * * * * * * * * * * * * * * * * * * //

dimensions      [0 2 -3 0 0 0 0];

internalField   nonuniform List<scalar> 
1340
(
0.000201566
0.00020463
0.000207017
0.00014557
0.000148193
0.000150426
0.000151866
0.000152462
0.000106549
0.00010874
0.00011071
0.000112202
0.000113176
0.000113555
0.000113153
7.88433e-05
8.06366e-05
8.23067e-05
8.36795e-05
8.47359e-05
8.54198e-05
8.55836e-05
8.51757e-05
5.89104e-05
6.03641e-05
6.17531e-05
6.29578e-05
6.39769e-05
6.47568e-05
6.51895e-05
6.52396e-05
6.48718e-05
4.43882e-05
4.55614e-05
4.66979e-05
4.7724e-05
4.86464e-05
4.94108e-05
4.99455e-05
5.02236e-05
5.02108e-05
3.36961e-05
3.46379e-05
3.5561e-05
3.64229e-05
3.72256e-05
3.79284e-05
3.84783e-05
3.88555e-05
3.90322e-05
3.89705e-05
2.57481e-05
2.65007e-05
2.72493e-05
2.79636e-05
2.86468e-05
2.92682e-05
2.97883e-05
3.01897e-05
3.04532e-05
3.05488e-05
3.04593e-05
1.97888e-05
2.03895e-05
2.09961e-05
2.15819e-05
2.21569e-05
2.26922e-05
2.31607e-05
2.35493e-05
2.38434e-05
2.40187e-05
2.40638e-05
1.52862e-05
1.57676e-05
1.62561e-05
1.67363e-05
1.72142e-05
1.76695e-05
1.80788e-05
1.84358e-05
1.87271e-05
1.89349e-05
1.90489e-05
1.90586e-05
1.18623e-05
1.22477e-05
1.26416e-05
1.30331e-05
1.34285e-05
1.38101e-05
1.41622e-05
1.44789e-05
1.47504e-05
1.49632e-05
1.51098e-05
1.51814e-05
9.24328e-06
9.55164e-06
9.86908e-06
1.01876e-05
1.05131e-05
1.08305e-05
1.11292e-05
1.14044e-05
1.16483e-05
1.18513e-05
1.20074e-05
1.21095e-05
1.21493e-05
7.22853e-06
7.47595e-06
7.73131e-06
7.99054e-06
8.25715e-06
8.51994e-06
8.77089e-06
9.00633e-06
9.22045e-06
9.40554e-06
9.5576e-06
9.67125e-06
9.73962e-06
5.67153e-06
5.86987e-06
6.07557e-06
6.28623e-06
6.50403e-06
6.72087e-06
6.92994e-06
7.12938e-06
7.31402e-06
7.47861e-06
7.61979e-06
7.73372e-06
7.81489e-06
7.85981e-06
4.46293e-06
4.62201e-06
4.788e-06
4.95868e-06
5.13646e-06
5.3146e-06
5.48816e-06
5.65535e-06
5.8128e-06
5.95601e-06
6.08305e-06
6.19037e-06
6.27452e-06
6.33243e-06
3.5211e-06
3.64875e-06
3.78282e-06
3.92105e-06
4.06597e-06
4.21195e-06
4.35528e-06
4.49484e-06
4.6277e-06
4.75077e-06
4.86246e-06
4.9602e-06
5.04144e-06
5.10352e-06
2.78462e-06
2.88716e-06
2.9953e-06
3.10733e-06
3.22523e-06
3.34466e-06
3.46256e-06
3.57852e-06
3.68986e-06
3.79453e-06
3.89114e-06
3.97807e-06
4.05301e-06
4.11432e-06
4.15978e-06
2.20683e-06
2.28932e-06
2.37652e-06
2.46725e-06
2.56312e-06
2.66056e-06
2.75745e-06
2.85331e-06
2.94619e-06
3.0344e-06
3.11706e-06
3.1929e-06
3.26024e-06
3.3179e-06
3.36399e-06
1.75223e-06
1.81868e-06
1.88897e-06
1.96245e-06
2.04038e-06
2.11975e-06
2.19924e-06
2.27816e-06
2.35531e-06
2.42918e-06
2.49926e-06
2.56444e-06
2.62377e-06
2.67611e-06
2.72012e-06
1.39369e-06
1.44715e-06
1.50388e-06
1.56335e-06
1.62659e-06
1.69126e-06
1.75626e-06
1.82112e-06
1.88489e-06
1.94646e-06
2.00539e-06
2.06099e-06
2.11244e-06
2.15892e-06
2.1995e-06
2.233e-06
1.11023e-06
1.15324e-06
1.19903e-06
1.24717e-06
1.29842e-06
1.35108e-06
1.40414e-06
1.45737e-06
1.50991e-06
1.56103e-06
1.61032e-06
1.65732e-06
1.70136e-06
1.74197e-06
1.77829e-06
1.80961e-06
8.85615e-07
9.20258e-07
9.5719e-07
9.96139e-07
1.03771e-06
1.0805e-06
1.12378e-06
1.16737e-06
1.21057e-06
1.25281e-06
1.29385e-06
1.33329e-06
1.37067e-06
1.40565e-06
1.43766e-06
1.46605e-06
6.82726e-07
7.07321e-07
7.35204e-07
7.65004e-07
7.96502e-07
8.30191e-07
8.6494e-07
9.00193e-07
9.35827e-07
9.71243e-07
1.00606e-06
1.04008e-06
1.073e-06
1.10452e-06
1.13436e-06
1.1621e-06
1.18725e-06
1.20926e-06
5.45742e-07
5.65533e-07
5.8797e-07
6.12021e-07
6.37485e-07
6.64766e-07
6.92975e-07
7.21666e-07
7.50736e-07
7.79741e-07
8.08363e-07
8.36457e-07
8.63813e-07
8.90207e-07
9.15431e-07
9.39205e-07
9.61156e-07
9.80872e-07
4.36677e-07
4.52597e-07
4.70655e-07
4.90062e-07
5.1064e-07
5.32729e-07
5.55604e-07
5.78935e-07
6.02627e-07
6.26351e-07
6.49811e-07
6.72944e-07
6.95596e-07
7.17585e-07
7.38774e-07
7.5895e-07
7.77849e-07
7.95157e-07
3.49715e-07
3.62519e-07
3.77049e-07
3.92701e-07
4.09333e-07
4.272e-07
4.45742e-07
4.64689e-07
4.83989e-07
5.03346e-07
5.22548e-07
5.41555e-07
5.60243e-07
5.78477e-07
5.96164e-07
6.13158e-07
6.29272e-07
6.44239e-07
6.57783e-07
2.8029e-07
2.9058e-07
3.0227e-07
3.1489e-07
3.28325e-07
3.42774e-07
3.57799e-07
3.73188e-07
3.88885e-07
4.04646e-07
4.20339e-07
4.35918e-07
4.51282e-07
4.66346e-07
4.81047e-07
4.95272e-07
5.08874e-07
5.21675e-07
5.3345e-07
2.24797e-07
2.33063e-07
2.42467e-07
2.52637e-07
2.63485e-07
2.75169e-07
2.87336e-07
2.99825e-07
3.12566e-07
3.25402e-07
3.38208e-07
3.50951e-07
3.63555e-07
3.75957e-07
3.88122e-07
3.99959e-07
4.1136e-07
4.22195e-07
4.32302e-07
1.8039e-07
1.87031e-07
1.94592e-07
2.02781e-07
2.11542e-07
2.20984e-07
2.30831e-07
2.40952e-07
2.51301e-07
2.61743e-07
2.72181e-07
2.82578e-07
2.92892e-07
3.03076e-07
3.13108e-07
3.2291e-07
3.32413e-07
3.41513e-07
3.50088e-07
1.44823e-07
1.50156e-07
1.56231e-07
1.62826e-07
1.69896e-07
1.77525e-07
1.85493e-07
1.93693e-07
2.02096e-07
2.10576e-07
2.19065e-07
2.27545e-07
2.35972e-07
2.44315e-07
2.52552e-07
2.60634e-07
2.68514e-07
2.76108e-07
2.83315e-07
1.16315e-07
1.20593e-07
1.2547e-07
1.30782e-07
1.36483e-07
1.42647e-07
1.49091e-07
1.55736e-07
1.62547e-07
1.69433e-07
1.76337e-07
1.83242e-07
1.90115e-07
1.96932e-07
2.03678e-07
2.10322e-07
2.16823e-07
2.23117e-07
2.2913e-07
2.34766e-07
9.3446e-08
9.68747e-08
1.00788e-07
1.05065e-07
1.09662e-07
1.1464e-07
1.1985e-07
1.25233e-07
1.30756e-07
1.36345e-07
1.41954e-07
1.47567e-07
1.53162e-07
1.58723e-07
1.64237e-07
1.69679e-07
1.7502e-07
1.8021e-07
1.85197e-07
1.899e-07
7.50881e-08
7.78343e-08
8.09726e-08
8.44144e-08
8.81208e-08
9.21385e-08
9.6354e-08
1.00711e-07
1.05188e-07
1.0972e-07
1.14274e-07
1.18835e-07
1.23387e-07
1.27915e-07
1.32412e-07
1.36857e-07
1.41228e-07
1.45492e-07
1.49603e-07
1.53497e-07
6.03436e-08
6.25406e-08
6.50564e-08
6.78246e-08
7.08134e-08
7.40567e-08
7.74649e-08
8.09934e-08
8.46204e-08
8.82977e-08
9.19943e-08
9.56989e-08
9.93957e-08
1.03078e-07
1.06738e-07
1.1036e-07
1.13928e-07
1.17416e-07
1.20785e-07
1.23992e-07
4.84959e-08
5.0251e-08
5.22674e-08
5.44924e-08
5.69022e-08
5.95207e-08
6.22771e-08
6.51345e-08
6.8075e-08
7.10573e-08
7.40564e-08
7.70627e-08
8.00655e-08
8.30555e-08
8.603e-08
8.89758e-08
9.18806e-08
9.47226e-08
9.74752e-08
1.00099e-07
3.89717e-08
4.03725e-08
4.19871e-08
4.37757e-08
4.57178e-08
4.78322e-08
5.00627e-08
5.23774e-08
5.47617e-08
5.71802e-08
5.9614e-08
6.20547e-08
6.44917e-08
6.69182e-08
6.93323e-08
7.17236e-08
7.40826e-08
7.63926e-08
7.86314e-08
8.07681e-08
8.27643e-08
3.13127e-08
3.24296e-08
3.37215e-08
3.51594e-08
3.67245e-08
3.84328e-08
4.02379e-08
4.21143e-08
4.40488e-08
4.60117e-08
4.79869e-08
4.99679e-08
5.19444e-08
5.39132e-08
5.58709e-08
5.781e-08
5.97219e-08
6.15938e-08
6.34083e-08
6.51409e-08
6.67611e-08
2.51524e-08
2.60419e-08
2.70751e-08
2.82305e-08
2.94925e-08
3.08731e-08
3.2335e-08
3.38578e-08
3.54281e-08
3.70217e-08
3.86258e-08
4.02338e-08
4.18377e-08
4.34345e-08
4.50212e-08
4.65916e-08
4.81393e-08
4.96543e-08
5.11212e-08
5.25211e-08
5.38298e-08
2.01967e-08
2.09042e-08
2.17299e-08
2.26583e-08
2.36763e-08
2.47929e-08
2.59782e-08
2.72146e-08
2.84903e-08
2.97861e-08
3.10896e-08
3.23961e-08
3.36982e-08
3.49934e-08
3.62787e-08
3.75499e-08
3.88012e-08
4.00241e-08
4.12073e-08
4.23351e-08
4.33876e-08
1.62097e-08
1.67718e-08
1.74312e-08
1.81772e-08
1.89989e-08
1.99027e-08
2.0865e-08
2.187e-08
2.29082e-08
2.39628e-08
2.50234e-08
2.60855e-08
2.71432e-08
2.81937e-08
2.92352e-08
3.02638e-08
3.12745e-08
3.22606e-08
3.32133e-08
3.41196e-08
3.49631e-08
1.3002e-08
1.3448e-08
1.39744e-08
1.4574e-08
1.52375e-08
1.59702e-08
1.67524e-08
1.75709e-08
1.84171e-08
1.92764e-08
2.01404e-08
2.10047e-08
2.18647e-08
2.27178e-08
2.35621e-08
2.43941e-08
2.52103e-08
2.60051e-08
2.67709e-08
2.74975e-08
2.8172e-08
2.87814e-08
1.04217e-08
1.07749e-08
1.1195e-08
1.16771e-08
1.22133e-08
1.28081e-08
1.34452e-08
1.4113e-08
1.48039e-08
1.55053e-08
1.62103e-08
1.69148e-08
1.76149e-08
1.83081e-08
1.8993e-08
1.96665e-08
2.03258e-08
2.09659e-08
2.15807e-08
2.21623e-08
2.27003e-08
2.3184e-08
8.34635e-09
8.6257e-09
8.9607e-09
9.34846e-09
9.78263e-09
1.02663e-08
1.07862e-08
1.13321e-08
1.18972e-08
1.2471e-08
1.30474e-08
1.36228e-08
1.41935e-08
1.47576e-08
1.53136e-08
1.58593e-08
1.63919e-08
1.69073e-08
1.74006e-08
1.78658e-08
1.8294e-08
1.86769e-08
6.6776e-09
6.8982e-09
7.16519e-09
7.47738e-09
7.82945e-09
8.22356e-09
8.64876e-09
9.09609e-09
9.55949e-09
1.003e-08
1.05022e-08
1.0973e-08
1.14392e-08
1.1899e-08
1.2351e-08
1.27934e-08
1.32239e-08
1.36391e-08
1.40352e-08
1.44067e-08
1.4747e-08
1.50496e-08
5.33632e-09
5.51017e-09
5.72293e-09
5.97458e-09
6.26053e-09
6.58242e-09
6.93114e-09
7.29861e-09
7.67958e-09
8.06631e-09
8.45409e-09
8.84022e-09
9.22177e-09
9.59724e-09
9.96543e-09
1.03246e-08
1.0673e-08
1.10079e-08
1.13258e-08
1.16225e-08
1.18927e-08
1.21314e-08
4.25878e-09
4.39549e-09
4.56502e-09
4.7681e-09
5.00088e-09
5.26459e-09
5.55127e-09
5.85403e-09
6.16812e-09
6.48694e-09
6.80627e-09
7.12368e-09
7.43667e-09
7.74394e-09
8.04447e-09
8.33671e-09
8.61898e-09
8.88924e-09
9.14461e-09
9.38161e-09
9.59625e-09
9.78428e-09
3.39362e-09
3.50092e-09
3.63597e-09
3.80015e-09
3.9902e-09
4.2068e-09
4.44321e-09
4.69338e-09
4.95313e-09
5.21669e-09
5.48038e-09
5.74201e-09
5.99949e-09
6.2516e-09
6.49737e-09
6.73556e-09
6.96477e-09
7.18328e-09
7.38866e-09
7.57828e-09
7.74869e-09
7.89667e-09
2.69951e-09
2.78354e-09
2.89112e-09
3.02416e-09
3.17978e-09
3.35818e-09
3.55376e-09
3.76115e-09
3.97659e-09
4.1951e-09
4.41348e-09
4.62985e-09
4.84228e-09
5.04964e-09
5.25117e-09
5.44585e-09
5.63255e-09
5.80961e-09
5.97521e-09
6.12709e-09
6.26252e-09
6.37902e-09
6.47399e-09
2.14315e-09
2.20877e-09
2.29448e-09
2.40261e-09
2.53037e-09
2.67778e-09
2.84015e-09
3.01257e-09
3.19186e-09
3.37359e-09
3.55506e-09
3.73457e-09
3.91034e-09
4.08142e-09
4.24724e-09
4.40691e-09
4.5594e-09
4.70337e-09
4.83724e-09
4.95914e-09
5.06698e-09
5.15875e-09
5.23261e-09
1.69766e-09
1.74874e-09
1.8171e-09
1.90525e-09
2.01046e-09
2.13267e-09
2.26789e-09
2.41168e-09
2.56136e-09
2.71302e-09
2.86432e-09
3.01377e-09
3.15966e-09
3.30129e-09
3.43819e-09
3.56964e-09
3.69465e-09
3.81204e-09
3.9205e-09
4.01853e-09
4.10443e-09
4.17675e-09
4.23411e-09
1.34138e-09
1.38101e-09
1.43561e-09
1.50773e-09
1.5946e-09
1.69628e-09
1.80924e-09
1.92948e-09
2.05486e-09
2.18176e-09
2.30838e-09
2.4333e-09
2.55485e-09
2.67243e-09
2.78586e-09
2.89442e-09
2.99707e-09
3.0928e-09
3.18061e-09
3.25929e-09
3.32761e-09
3.38448e-09
3.42889e-09
1.05686e-09
1.0875e-09
1.13118e-09
1.19041e-09
1.26234e-09
1.34726e-09
1.44185e-09
1.54264e-09
1.64803e-09
1.75444e-09
1.86082e-09
1.96574e-09
2.0673e-09
2.16514e-09
2.25922e-09
2.34878e-09
2.43282e-09
2.51056e-09
2.58128e-09
2.64415e-09
2.69821e-09
2.74268e-09
2.77696e-09
8.30023e-10
8.5363e-10
8.88659e-10
9.37478e-10
9.97191e-10
1.06839e-09
1.14772e-09
1.23246e-09
1.32132e-09
1.41064e-09
1.50058e-09
1.58914e-09
1.6739e-09
1.75501e-09
1.83274e-09
1.90626e-09
1.97465e-09
2.03742e-09
2.09415e-09
2.14422e-09
2.18687e-09
2.22154e-09
2.24787e-09
6.4955e-10
6.67706e-10
6.95866e-10
7.36224e-10
7.85897e-10
8.45822e-10
9.12298e-10
9.83823e-10
1.05887e-09
1.13381e-09
1.21079e-09
1.28584e-09
1.35578e-09
1.42221e-09
1.48605e-09
1.54621e-09
1.60177e-09
1.6525e-09
1.69819e-09
1.73828e-09
1.77211e-09
1.79924e-09
1.81944e-09
5.06363e-10
5.20313e-10
5.43011e-10
5.76443e-10
6.1783e-10
6.68401e-10
7.23843e-10
7.84604e-10
8.47779e-10
9.104e-10
9.77306e-10
1.04086e-09
1.09752e-09
1.15138e-09
1.20402e-09
1.25372e-09
1.29934e-09
1.3409e-09
1.37823e-09
1.41072e-09
1.43781e-09
1.45911e-09
1.47454e-09
3.93072e-10
4.03774e-10
4.22146e-10
4.49891e-10
4.84513e-10
5.27239e-10
5.73135e-10
6.25373e-10
6.77586e-10
7.2965e-10
7.88782e-10
8.41843e-10
8.869e-10
9.3119e-10
9.75762e-10
1.0177e-09
1.05586e-09
1.09053e-09
1.12151e-09
1.14816e-09
1.17e-09
1.18679e-09
1.19853e-09
1.20563e-09
3.03806e-10
3.11974e-10
3.26938e-10
3.50066e-10
3.79138e-10
4.15208e-10
4.5308e-10
4.98747e-10
5.392e-10
5.84161e-10
6.3902e-10
6.81073e-10
7.14815e-10
7.5254e-10
7.91969e-10
8.27955e-10
8.60045e-10
8.89148e-10
9.15042e-10
9.37018e-10
9.54646e-10
9.67863e-10
9.76832e-10
9.81851e-10
2.34776e-10
2.40963e-10
2.53197e-10
2.72404e-10
2.96693e-10
3.26723e-10
3.57804e-10
3.97595e-10
4.25016e-10
4.67177e-10
5.21074e-10
5.52104e-10
5.74128e-10
6.07775e-10
6.44706e-10
6.76304e-10
7.03419e-10
7.28033e-10
7.49862e-10
7.68054e-10
7.823e-10
7.92708e-10
7.99545e-10
8.03329e-10
1.85788e-10
1.90464e-10
2.00348e-10
2.1578e-10
2.3543e-10
2.58978e-10
2.83276e-10
3.14985e-10
3.29931e-10
3.69017e-10
4.19798e-10
4.42508e-10
4.58557e-10
4.919e-10
5.29053e-10
5.59257e-10
5.84348e-10
6.07098e-10
6.27263e-10
6.43918e-10
6.5683e-10
6.66057e-10
6.71986e-10
6.75123e-10
1.51094e-10
1.54625e-10
1.62364e-10
1.74309e-10
1.89515e-10
2.0666e-10
2.24625e-10
2.46461e-10
2.54078e-10
2.83651e-10
3.27315e-10
3.46229e-10
3.63441e-10
3.97071e-10
4.34014e-10
4.6436e-10
4.89585e-10
5.12298e-10
5.32435e-10
5.4908e-10
5.61926e-10
5.71023e-10
5.76815e-10
5.79581e-10
1.22459e-10
1.25127e-10
1.31092e-10
1.40231e-10
1.51746e-10
1.63849e-10
1.76913e-10
1.90689e-10
1.94475e-10
2.13615e-10
2.48706e-10
2.65629e-10
2.85531e-10
3.17585e-10
3.52313e-10
3.82074e-10
4.07278e-10
4.29745e-10
4.49564e-10
4.65936e-10
4.7847e-10
4.87273e-10
4.92816e-10
4.95545e-10
9.73954e-11
9.93997e-11
1.03934e-10
1.10823e-10
1.19333e-10
1.2764e-10
1.37016e-10
1.44909e-10
1.46626e-10
1.58445e-10
1.86225e-10
2.00779e-10
2.2235e-10
2.5218e-10
2.83756e-10
3.11879e-10
3.36295e-10
3.57917e-10
3.76847e-10
3.92521e-10
4.04509e-10
4.12884e-10
4.17982e-10
4.20161e-10
7.62337e-11
7.77315e-11
8.11141e-11
8.62028e-11
9.22621e-11
9.77674e-11
1.04223e-10
1.07957e-10
1.08509e-10
1.15193e-10
1.3689e-10
1.48857e-10
1.70943e-10
1.98417e-10
2.26559e-10
2.52356e-10
2.75404e-10
2.95814e-10
3.13542e-10
3.28183e-10
3.39391e-10
3.47264e-10
3.5219e-10
3.54653e-10
5.86608e-11
5.97665e-11
6.22069e-11
6.58313e-11
6.99009e-11
7.33936e-11
7.74833e-11
7.85083e-11
7.8418e-11
8.16177e-11
9.82898e-11
1.07927e-10
1.29357e-10
1.54307e-10
1.79113e-10
2.02339e-10
2.2369e-10
2.42738e-10
2.59203e-10
2.72678e-10
2.8275e-10
2.89304e-10
2.92491e-10
2.92846e-10
4.44434e-11
4.52327e-11
4.68652e-11
4.92346e-11
5.16728e-11
5.37126e-11
5.58649e-11
5.54401e-11
5.49617e-11
5.59637e-11
6.83818e-11
7.61588e-11
9.59812e-11
1.18337e-10
1.40131e-10
1.60839e-10
1.80331e-10
1.97901e-10
2.13152e-10
2.25833e-10
2.35786e-10
2.43109e-10
2.48238e-10
2.51648e-10
3.32224e-11
3.37585e-11
3.47065e-11
3.59764e-11
3.7068e-11
3.79548e-11
3.84966e-11
3.76211e-11
3.67761e-11
3.67395e-11
4.56955e-11
5.21063e-11
6.96304e-11
8.93879e-11
1.08537e-10
1.26991e-10
1.44746e-10
1.6075e-10
1.74124e-10
1.84393e-10
1.91234e-10
1.94422e-10
1.9405e-10
1.91054e-10
1.87009e-10
2.45065e-11
2.4859e-11
2.52718e-11
2.56444e-11
2.56826e-11
2.55785e-11
2.4842e-11
2.40782e-11
2.26282e-11
2.27725e-11
2.9183e-11
3.45015e-11
4.94306e-11
6.6704e-11
8.34e-11
9.9746e-11
1.16265e-10
1.32147e-10
1.46498e-10
1.58928e-10
1.69487e-10
1.78727e-10
1.87531e-10
1.95863e-10
2.02036e-10
1.78996e-11
1.80831e-11
1.80096e-11
1.76363e-11
1.69199e-11
1.60953e-11
1.47413e-11
1.43499e-11
1.23002e-11
1.39047e-11
1.81069e-11
2.21086e-11
3.44838e-11
4.96494e-11
6.42429e-11
7.81801e-11
9.18751e-11
1.04567e-10
1.15389e-10
1.2375e-10
1.28976e-10
1.30559e-10
1.28886e-10
1.26252e-10
1.25559e-10
1.33942e-11
1.33201e-11
1.25979e-11
1.13976e-11
1.00353e-11
8.81683e-12
7.68418e-12
7.8737e-12
6.17685e-12
9.98679e-12
1.16855e-11
1.39271e-11
2.34548e-11
3.64295e-11
5.0486e-11
6.62808e-11
8.42411e-11
1.0353e-10
1.23419e-10
1.44076e-10
1.66603e-10
1.92866e-10
2.23712e-10
2.54799e-10
2.78347e-10
1.10327e-11
1.06527e-11
9.21291e-12
7.13627e-12
5.08825e-12
3.53791e-12
2.82154e-12
3.41982e-12
3.22499e-12
8.2252e-12
8.56859e-12
1.01045e-11
1.66887e-11
2.60158e-11
3.74574e-11
5.31005e-11
7.41159e-11
1.0015e-10
1.30446e-10
1.64037e-10
1.99319e-10
2.34367e-10
2.67755e-10
2.97383e-10
3.22926e-10
1.00182e-11
9.46277e-12
7.63421e-12
5.09166e-12
2.64852e-12
9.1181e-13
3.84558e-13
1.08959e-12
2.34559e-12
5.60882e-12
4.03869e-12
1.00363e-11
2.53573e-11
4.99709e-11
8.44892e-11
1.29939e-10
1.87414e-10
2.57255e-10
3.38309e-10
4.2793e-10
5.20501e-10
6.06995e-10
6.75006e-10
7.16488e-10
7.4526e-10
)
;

boundaryField
{
    inlet
    {
        type            calculated;
        value           nonuniform List<scalar> 
25
(
9.15673e-12
8.61587e-12
6.90653e-12
4.52902e-12
2.22602e-12
6.16316e-13
2.53119e-13
1.27032e-12
3.36254e-12
2.95145e-12
1.4161e-11
5.11134e-11
1.49528e-10
3.37719e-10
6.44639e-10
1.1008e-09
1.73916e-09
2.58961e-09
3.67482e-09
5.0037e-09
6.56174e-09
8.29139e-09
1.00899e-08
1.18106e-08
1.33683e-08
)
;
    }
    outlet
    {
        type            calculated;
        value           nonuniform List<scalar> 0();
    }
    walls
    {
        type            calculated;
        value           nonuniform List<scalar> 0();
    }
    frontAndBack
    {
        type            empty;
    }
    procBoundary4to0
    {
        type            processor;
        value           nonuniform List<scalar> 
72
(
0.000197922
0.000142672
0.00010424
7.70153e-05
5.74685e-05
4.32537e-05
3.28003e-05
2.50384e-05
1.92265e-05
1.48412e-05
1.15092e-05
8.96226e-06
7.00471e-06
5.49287e-06
4.32024e-06
3.40702e-06
2.69318e-06
2.13349e-06
1.69342e-06
1.34644e-06
1.07221e-06
8.55051e-07
8.55051e-07
6.59413e-07
5.27055e-07
4.21696e-07
3.37705e-07
2.70657e-07
2.17076e-07
1.7421e-07
1.39877e-07
1.12359e-07
9.02847e-08
7.25657e-08
5.83337e-08
4.68961e-08
3.77003e-08
3.03044e-08
2.43543e-08
1.95665e-08
1.57132e-08
1.26119e-08
1.01159e-08
8.10753e-09
6.49171e-09
5.19219e-09
4.14751e-09
3.30815e-09
2.63422e-09
2.09358e-09
1.6603e-09
1.31347e-09
1.0362e-09
8.14899e-10
6.38662e-10
4.98686e-10
3.87783e-10
3.00245e-10
2.32365e-10
1.83989e-10
1.49664e-10
1.21352e-10
9.6559e-11
7.56111e-11
5.81856e-11
4.40526e-11
3.28659e-11
2.41512e-11
1.75053e-11
1.29164e-11
1.04682e-11
9.42788e-12
)
;
    }
    procBoundary4to5
    {
        type            processor;
        value           nonuniform List<scalar> 
95
(
0.000282895
0.000286127
0.000288155
0.000208133
0.000208133
0.000207844
0.000152108
0.000152108
0.000150582
0.000111911
0.000111911
8.41694e-05
8.41694e-05
6.40274e-05
4.98617e-05
4.98617e-05
3.86506e-05
3.86506e-05
3.01721e-05
2.3963e-05
2.3963e-05
1.89501e-05
1.51675e-05
1.51675e-05
1.21209e-05
9.75858e-06
9.75858e-06
7.86367e-06
6.36e-06
5.14371e-06
5.14371e-06
4.18684e-06
3.3966e-06
2.75446e-06
2.75446e-06
2.25822e-06
1.83492e-06
1.49006e-06
1.49006e-06
1.22754e-06
9.97872e-07
8.10478e-07
8.10478e-07
6.69551e-07
5.43921e-07
4.41451e-07
3.57963e-07
2.90013e-07
2.90013e-07
2.3991e-07
1.9423e-07
1.57104e-07
1.26974e-07
1.02546e-07
1.02546e-07
8.45825e-08
6.82379e-08
5.5022e-08
4.43449e-08
3.57284e-08
3.57284e-08
2.93072e-08
2.35992e-08
1.90038e-08
1.53062e-08
1.23321e-08
9.9409e-09
8.01871e-09
8.01871e-09
6.54595e-09
5.28764e-09
4.27599e-09
3.46069e-09
2.80105e-09
2.26592e-09
1.8329e-09
1.48441e-09
1.48441e-09
1.20876e-09
9.83551e-10
8.04475e-10
6.75832e-10
5.79846e-10
4.96041e-10
4.20095e-10
3.55274e-10
2.91233e-10
2.53439e-10
2.53439e-10
1.83027e-10
2.05327e-10
1.27155e-10
2.92641e-10
3.48868e-10
7.48167e-10
)
;
    }
}


// ************************************************************************* //
