/*--------------------------------*- C++ -*----------------------------------*\
| =========                 |                                                 |
| \\      /  F ield         | OpenFOAM: The Open Source CFD Toolbox           |
|  \\    /   O peration     | Version:  2506                                  |
|   \\  /    A nd           | Website:  www.openfoam.com                      |
|    \\/     M anipulation  |                                                 |
\*---------------------------------------------------------------------------*/
FoamFile
{
    version     2.0;
    format      ascii;
    arch        "LSB;label=32;scalar=64";
    class       volSymmTensorField;
    location    "300";
    object      turbulenceProperties:R;
}
// * * * * * * * * * * * * * * * * * * * * * * * * * * * * * * * * * * * * * //

dimensions      [0 2 -2 0 0 0 0];

internalField   nonuniform List<symmTensor> 
1340
(
(0.000370191 -3.47609e-05 1.29704e-21 0.000316081 2.96674e-22 0.000343164)
(0.000366612 -3.91739e-05 2.07293e-20 0.00032489 1.66711e-20 0.00034573)
(0.000361532 -4.24597e-05 -8.40536e-21 0.000333975 -6.41224e-21 0.000347756)
(0.000314323 -2.97492e-05 5.98395e-21 0.000268883 4.43341e-21 0.00029163)
(0.000311744 -3.34611e-05 -4.49069e-21 0.000276715 -3.51318e-21 0.000294223)
(0.000307998 -3.62496e-05 -1.32372e-20 0.000284864 -9.02148e-21 0.000296446)
(0.000303075 -3.78716e-05 8.88038e-20 0.000292615 6.47321e-20 0.000297862)
(0.000296894 -3.8274e-05 -2.05928e-20 0.000299971 -1.60119e-20 0.000298439)
(0.000268665 -2.56411e-05 2.53263e-21 0.000230294 1.97172e-21 0.000249495)
(0.000266811 -2.87823e-05 -1.00851e-20 0.000237269 -6.61642e-21 0.000252031)
(0.000264036 -3.11584e-05 -4.46221e-20 0.000244578 -2.96985e-20 0.000254315)
(0.000260378 -3.25691e-05 -4.13876e-21 0.000251652 -4.32502e-21 0.00025602)
(0.000255755 -3.2973e-05 -6.43644e-21 0.0002585 -2.25769e-21 0.000257124)
(0.000250459 -3.22853e-05 5.79729e-20 0.000264651 3.69709e-20 0.000257558)
(0.000244576 -3.0529e-05 8.34458e-21 0.000269618 9.06047e-21 0.000257105)
(0.000230878 -2.22281e-05 -5.67036e-21 0.000198336 -3.03787e-21 0.000214619)
(0.000229533 -2.48989e-05 -3.37764e-20 0.000204546 -2.13263e-20 0.000217033)
(0.000227456 -2.69271e-05 1.34775e-20 0.000211085 9.30741e-21 0.000219279)
(0.000224702 -2.81462e-05 9.99408e-21 0.000217483 6.13225e-21 0.000221098)
(0.0002212 -2.85255e-05 4.07341e-20 0.000223772 2.52806e-20 0.000222485)
(0.000217196 -2.79942e-05 -5.89828e-20 0.000229563 -4.00579e-20 0.000223385)
(0.000212747 -2.65676e-05 7.58734e-20 0.000234438 3.84715e-20 0.000223601)
(0.000207907 -2.42878e-05 -1.96679e-19 0.000238213 -1.09167e-19 0.000223065)
(0.000199359 -1.93659e-05 9.67622e-21 0.000171653 5.78185e-21 0.000185515)
(0.000198383 -2.16473e-05 8.74238e-21 0.000177188 5.47959e-21 0.00018778)
(0.000196821 -2.33826e-05 2.87561e-21 0.000183038 2.28557e-21 0.000189936)
(0.000194736 -2.44341e-05 -4.85769e-21 0.000188813 -3.10201e-21 0.000191777)
(0.000192079 -2.47795e-05 3.66748e-20 0.000194565 1.94818e-20 0.000193319)
(0.000189041 -2.43579e-05 -3.14613e-20 0.000199948 -1.76027e-20 0.000194498)
(0.000185666 -2.31814e-05 -9.82432e-20 0.00020462 -5.68812e-20 0.000195148)
(0.000182002 -2.1283e-05 1.04988e-19 0.000208436 7.2332e-20 0.00019522)
(0.000178169 -1.87603e-05 3.48057e-20 0.000211164 2.19993e-20 0.000194672)
(0.000172859 -1.69453e-05 -1.64334e-21 0.000149193 -4.4315e-22 0.000161033)
(0.000172154 -1.89011e-05 -4.693e-21 0.000154134 -2.29948e-21 0.000163139)
(0.000170965 -2.0388e-05 -1.88883e-20 0.00015936 -1.02041e-20 0.000165169)
(0.000169376 -2.1293e-05 8.9825e-21 0.000164562 3.96887e-21 0.00016697)
(0.000167354 -2.15996e-05 -2.8451e-20 0.000169798 -1.70391e-20 0.000168574)
(0.000165032 -2.12544e-05 6.64322e-20 0.000174754 3.8138e-20 0.000169897)
(0.000162464 -2.027e-05 -3.78367e-21 0.000179155 6.57747e-21 0.000170814)
(0.000159689 -1.86735e-05 3.66726e-20 0.000182882 7.26018e-21 0.000171286)
(0.000156791 -1.65418e-05 2.87747e-20 0.000185734 7.32799e-21 0.000171267)
(0.000150435 -1.48833e-05 -2.01659e-20 0.000130163 -1.10637e-20 0.000140303)
(0.000149924 -1.65643e-05 3.08609e-20 0.000134573 1.63542e-20 0.000142244)
(0.000149012 -1.78411e-05 -2.30568e-20 0.000139244 -1.16098e-20 0.000144134)
(0.000147803 -1.86194e-05 1.3092e-20 0.00014393 4.82932e-21 0.000145866)
(0.000146255 -1.88858e-05 -7.65954e-20 0.000148676 -3.77455e-20 0.000147464)
(0.000144481 -1.85959e-05 4.20418e-20 0.000153218 1.89735e-20 0.000148852)
(0.000142528 -1.77615e-05 1.0394e-19 0.000157321 4.86989e-20 0.000149927)
(0.000140427 -1.64051e-05 -1.47604e-19 0.00016089 -7.57363e-20 0.000150659)
(0.000138246 -1.45898e-05 -7.24381e-20 0.000163753 -3.20419e-20 0.000151003)
(0.000135987 -1.23741e-05 6.09626e-20 0.000165773 2.4894e-20 0.000150883)
(0.000131345 -1.31153e-05 1.02809e-20 0.000113938 4.95488e-21 0.000122644)
(0.000130972 -1.45633e-05 5.34679e-21 0.000117873 3.03728e-21 0.00012442)
(0.000130273 -1.5662e-05 1.52231e-20 0.000122057 7.64778e-21 0.00012617)
(0.000129349 -1.63298e-05 -4.40863e-20 0.000126271 -2.17656e-20 0.000127809)
(0.000128159 -1.65574e-05 8.30401e-20 0.000130565 4.16631e-20 0.00012936)
(0.000126802 -1.63074e-05 -1.56999e-19 0.000134711 -7.50548e-20 0.000130758)
(0.00012532 -1.55919e-05 -6.51373e-20 0.000138506 -3.07316e-20 0.000131915)
(0.00012373 -1.44282e-05 8.33681e-20 0.000141869 4.8703e-20 0.0001328)
(0.000122093 -1.28704e-05 4.27375e-20 0.000144661 2.11391e-20 0.00013338)
(0.000120411 -1.09681e-05 -3.97179e-20 0.000146762 -2.42836e-20 0.000133589)
(0.00011869 -8.77182e-06 -1.11285e-20 0.000148091 -4.47109e-21 0.000133392)
(0.000115006 -1.15893e-05 -1.08082e-20 0.000100027 -4.74883e-21 0.000107518)
(0.000114732 -1.28403e-05 -8.2166e-21 0.000103543 -4.2809e-21 0.000109135)
(0.000114199 -1.3787e-05 2.65059e-20 0.000107294 1.25291e-20 0.000110751)
(0.000113486 -1.4359e-05 6.50591e-21 0.00011108 3.32871e-21 0.000112282)
(0.000112574 -1.45508e-05 3.82428e-20 0.000114963 1.7569e-20 0.000113767)
(0.000111535 -1.43301e-05 2.22203e-19 0.000118732 1.08031e-19 0.000115136)
(0.000110411 -1.37091e-05 3.83306e-20 0.000122221 1.75094e-20 0.000116318)
(0.000109215 -1.27031e-05 3.72265e-20 0.000125362 1.10117e-20 0.000117289)
(0.000108 -1.13585e-05 -3.02649e-20 0.000128037 -1.41272e-20 0.00011802)
(0.00010676 -9.71494e-06 -2.64757e-20 0.000130143 -9.62439e-21 0.000118453)
(0.000105507 -7.81467e-06 -2.29419e-20 0.000131618 -8.98571e-21 0.000118564)
(0.000100953 -1.02661e-05 8.81797e-21 8.804e-05 3.56831e-21 9.4498e-05)
(0.000100758 -1.13497e-05 2.84684e-20 9.11906e-05 1.27734e-20 9.59717e-05)
(0.000100344 -1.21654e-05 2.98073e-20 9.45498e-05 1.33512e-20 9.74515e-05)
(9.97988e-05 -1.26554e-05 -4.44037e-20 9.79568e-05 -2.08278e-20 9.88766e-05)
(9.90979e-05 -1.28143e-05 -7.43071e-20 0.000101461 -3.5086e-20 0.000100278)
(9.83072e-05 -1.26161e-05 -4.91488e-20 0.000104885 -2.79488e-20 0.000101598)
(9.74554e-05 -1.20714e-05 -5.11437e-20 0.000108077 -2.17045e-20 0.000102767)
(9.65628e-05 -1.11949e-05 -2.95305e-20 0.00011099 -1.57286e-20 0.000103776)
(9.56684e-05 -1.00264e-05 4.88714e-20 0.000113516 2.27906e-20 0.000104594)
(9.47685e-05 -8.59937e-06 -2.2352e-21 0.000115574 -1.13593e-21 0.000105173)
(9.38688e-05 -6.94821e-06 9.31126e-21 0.000117106 4.74171e-21 0.000105489)
(9.29787e-05 -5.12134e-06 -2.54576e-20 0.000118049 -1.16387e-20 0.000105516)
(8.8817e-05 -9.11404e-06 -3.34153e-21 7.76701e-05 -1.09193e-21 8.32444e-05)
(8.86787e-05 -1.00537e-05 -2.71558e-20 8.04929e-05 -1.18505e-20 8.45842e-05)
(8.83598e-05 -1.07576e-05 -3.09501e-20 8.35068e-05 -1.38694e-20 8.59371e-05)
(8.79405e-05 -1.11763e-05 -6.07234e-21 8.65703e-05 -1.55089e-21 8.72542e-05)
(8.74046e-05 -1.1306e-05 2.37177e-20 8.9734e-05 1.04326e-20 8.85681e-05)
(8.68012e-05 -1.11244e-05 -1.85544e-20 9.2835e-05 -7.40844e-21 8.98195e-05)
(8.61629e-05 -1.06428e-05 8.66333e-20 9.57493e-05 3.83579e-20 9.09568e-05)
(8.55029e-05 -9.87411e-06 -6.67292e-20 9.84328e-05 -2.74011e-20 9.19676e-05)
(8.48547e-05 -8.85303e-06 -8.8546e-21 0.000100796 -6.14321e-21 9.28266e-05)
(8.42153e-05 -7.60827e-06 -2.43926e-20 0.00010277 -4.31227e-21 9.34934e-05)
(8.35901e-05 -6.1683e-06 2.54635e-20 0.00010431 1.76217e-21 9.39502e-05)
(8.29852e-05 -4.57342e-06 -4.60962e-20 0.000105359 -1.02245e-20 9.41727e-05)
(7.82994e-05 -8.1067e-06 -1.67722e-20 6.86642e-05 -6.8964e-21 7.34822e-05)
(7.82013e-05 -8.92269e-06 1.47086e-20 7.11946e-05 5.84526e-21 7.46965e-05)
(7.79547e-05 -9.53047e-06 -5.04683e-21 7.39001e-05 -1.93933e-21 7.5931e-05)
(7.76331e-05 -9.88762e-06 -1.11897e-20 7.66563e-05 -4.01176e-21 7.71433e-05)
(7.72241e-05 -9.99142e-06 -3.71886e-20 7.95097e-05 -1.58643e-20 7.83661e-05)
(7.67658e-05 -9.82295e-06 -2.953e-20 8.23155e-05 -1.08892e-20 7.95419e-05)
(7.62916e-05 -9.39377e-06 3.82263e-20 8.49686e-05 1.51057e-20 8.06306e-05)
(7.58109e-05 -8.7153e-06 1.91774e-20 8.74315e-05 9.86944e-21 8.16212e-05)
(7.53517e-05 -7.81807e-06 -3.09864e-20 8.96266e-05 -1.17267e-20 8.24904e-05)
(7.49125e-05 -6.72729e-06 1.07396e-19 9.14974e-05 4.12455e-20 8.32057e-05)
(7.44969e-05 -5.46651e-06 -1.35684e-19 9.30054e-05 -5.12684e-20 8.37516e-05)
(7.41088e-05 -4.06907e-06 1.38576e-19 9.4104e-05 5.08426e-20 8.41074e-05)
(7.37417e-05 -2.56546e-06 -1.19811e-19 9.47477e-05 -2.92921e-20 8.42455e-05)
(6.91501e-05 -7.22269e-06 -1.11096e-21 6.08136e-05 -4.48909e-22 6.49819e-05)
(6.9084e-05 -7.93243e-06 -2.05986e-20 6.30859e-05 -8.01897e-21 6.60838e-05)
(6.88912e-05 -8.45708e-06 3.8539e-21 6.55141e-05 1.81693e-21 6.72059e-05)
(6.86473e-05 -8.76134e-06 1.62375e-20 6.79959e-05 6.78987e-21 6.832e-05)
(6.83354e-05 -8.8423e-06 1.42175e-20 7.05682e-05 6.28771e-21 6.94511e-05)
(6.79902e-05 -8.68456e-06 4.80564e-20 7.31053e-05 2.05679e-20 7.05487e-05)
(6.76431e-05 -8.29967e-06 7.50541e-20 7.55157e-05 2.60717e-20 7.15797e-05)
(6.73002e-05 -7.69762e-06 3.33148e-20 7.77678e-05 1.01627e-20 7.25336e-05)
(6.69862e-05 -6.90574e-06 -4.24718e-20 7.97954e-05 -1.20228e-20 7.33916e-05)
(6.66984e-05 -5.94584e-06 -1.77189e-21 8.15494e-05 -6.13246e-21 7.41244e-05)
(6.64412e-05 -4.83794e-06 6.11736e-21 8.30002e-05 1.41312e-20 7.47212e-05)
(6.62187e-05 -3.61092e-06 -3.38153e-20 8.41086e-05 -2.15322e-20 7.51642e-05)
(6.60226e-05 -2.28805e-06 1.19997e-19 8.48349e-05 4.86731e-20 7.54296e-05)
(6.11692e-05 -6.44456e-06 4.51769e-21 5.395e-05 1.95757e-21 5.75593e-05)
(6.11247e-05 -7.06231e-06 -3.4904e-20 5.59905e-05 -1.28517e-20 5.85567e-05)
(6.09741e-05 -7.51554e-06 3.51341e-20 5.81729e-05 1.32415e-20 5.95765e-05)
(6.07905e-05 -7.77401e-06 -2.00284e-20 6.04076e-05 -7.84805e-21 6.05976e-05)
(6.05534e-05 -7.83506e-06 -1.88741e-20 6.27257e-05 -7.39487e-21 6.1639e-05)
(6.02973e-05 -7.68647e-06 5.2323e-20 6.50191e-05 1.85944e-20 6.2659e-05)
(6.00465e-05 -7.33889e-06 -6.91035e-20 6.72045e-05 -3.06373e-20 6.36259e-05)
(5.98102e-05 -6.80205e-06 -2.04007e-20 6.92593e-05 -7.28386e-21 6.45345e-05)
(5.96068e-05 -6.10017e-06 1.08443e-19 7.11229e-05 3.69204e-20 6.53655e-05)
(5.94358e-05 -5.25255e-06 -4.13278e-20 7.27569e-05 -1.55884e-20 6.60965e-05)
(5.92993e-05 -4.27607e-06 1.42963e-19 7.41355e-05 4.27528e-20 6.67174e-05)
(5.92016e-05 -3.19516e-06 -7.71123e-20 7.52267e-05 -2.31353e-20 6.72146e-05)
(5.91355e-05 -2.02941e-06 1.17797e-20 7.59966e-05 -1.24917e-20 6.75663e-05)
(5.91008e-05 -8.0239e-07 1.77377e-20 7.64193e-05 4.99381e-21 6.77602e-05)
(5.41873e-05 -5.75767e-06 1.44378e-20 4.79319e-05 5.33189e-21 5.10593e-05)
(5.41583e-05 -6.29578e-06 -1.97077e-20 4.97653e-05 -6.78099e-21 5.19611e-05)
(5.4042e-05 -6.68739e-06 -4.67138e-21 5.17291e-05 -2.01699e-21 5.28881e-05)
(5.39028e-05 -6.9061e-06 -3.28144e-20 5.37394e-05 -1.2294e-20 5.382e-05)
(5.37249e-05 -6.95014e-06 -5.05557e-20 5.58296e-05 -1.69755e-20 5.47767e-05)
(5.35368e-05 -6.80933e-06 4.81796e-20 5.79003e-05 1.42586e-20 5.57195e-05)
(5.33618e-05 -6.49417e-06 -8.49282e-20 5.98808e-05 -2.83048e-20 5.66215e-05)
(5.32055e-05 -6.01323e-06 -3.98299e-20 6.17493e-05 -1.40434e-20 5.74773e-05)
(5.30864e-05 -5.38853e-06 -1.10413e-19 6.34572e-05 -3.95894e-20 5.82725e-05)
(5.30019e-05 -4.63713e-06 -3.01503e-20 6.49687e-05 -1.19705e-20 5.89858e-05)
(5.29564e-05 -3.77388e-06 -1.4404e-19 6.62659e-05 -5.54044e-20 5.96114e-05)
(5.29506e-05 -2.81968e-06 3.72599e-20 6.73187e-05 1.90651e-20 6.01351e-05)
(5.29813e-05 -1.79067e-06 -1.99558e-19 6.8103e-05 -5.55448e-20 6.05423e-05)
(5.30471e-05 -7.06048e-07 3.50376e-20 6.85948e-05 1.86977e-20 6.08209e-05)
(4.80644e-05 -5.14984e-06 -1.0455e-20 4.26418e-05 -3.53854e-21 4.53527e-05)
(4.8046e-05 -5.61884e-06 2.13977e-20 4.42899e-05 7.76509e-21 4.61673e-05)
(4.79572e-05 -5.9571e-06 3.78703e-21 4.6058e-05 1.09545e-21 4.70098e-05)
(4.78523e-05 -6.14158e-06 -6.93896e-20 4.78675e-05 -2.31969e-20 4.78587e-05)
(4.77206e-05 -6.17111e-06 7.81693e-20 4.97516e-05 2.72942e-20 4.87355e-05)
(4.75852e-05 -6.03726e-06 -1.08659e-19 5.16205e-05 -3.93066e-20 4.96036e-05)
(4.74675e-05 -5.75013e-06 9.40955e-20 5.34125e-05 3.4351e-20 5.04401e-05)
(4.73734e-05 -5.31776e-06 -1.58972e-20 5.51104e-05 -3.93422e-21 5.12416e-05)
(4.73174e-05 -4.76007e-06 8.38686e-20 5.66694e-05 3.11611e-20 5.1994e-05)
(4.72987e-05 -4.09219e-06 -6.37408e-20 5.80621e-05 -2.15462e-20 5.26805e-05)
(4.73198e-05 -3.3269e-06 -5.37803e-20 5.92724e-05 -5.71279e-21 5.32962e-05)
(4.73817e-05 -2.4818e-06 9.30419e-20 6.02762e-05 3.11052e-20 5.38294e-05)
(4.74829e-05 -1.57156e-06 1.61292e-19 6.10533e-05 5.77006e-20 5.42683e-05)
(4.76204e-05 -6.11362e-07 1.10288e-19 6.15822e-05 2.73733e-20 5.46013e-05)
(4.26832e-05 -4.61083e-06 1.04122e-20 3.79812e-05 3.44509e-21 4.03316e-05)
(4.26723e-05 -5.01979e-06 -1.05088e-20 3.94636e-05 -3.18903e-21 4.10675e-05)
(4.26036e-05 -5.31163e-06 6.76268e-21 4.10549e-05 2.28822e-21 4.18313e-05)
(4.25259e-05 -5.46671e-06 4.78001e-21 4.26849e-05 2.67631e-21 4.26043e-05)
(4.24292e-05 -5.48382e-06 -5.28294e-20 4.43825e-05 -1.874e-20 4.34055e-05)
(4.23349e-05 -5.35635e-06 -6.05268e-20 4.60688e-05 -1.79715e-20 4.42026e-05)
(4.22605e-05 -5.09372e-06 -4.3984e-20 4.76884e-05 -1.49987e-20 4.49745e-05)
(4.2214e-05 -4.70388e-06 -1.33235e-20 4.92288e-05 -1.7296e-21 4.57213e-05)
(4.2205e-05 -4.20417e-06 4.06578e-21 5.0649e-05 1.50668e-21 4.64275e-05)
(4.22348e-05 -3.60876e-06 -1.02605e-21 5.19272e-05 2.15617e-21 4.70812e-05)
(4.23043e-05 -2.92869e-06 1.0341e-19 5.3049e-05 3.28674e-20 4.76768e-05)
(4.2416e-05 -2.1793e-06 1.92323e-20 5.39966e-05 -1.8866e-21 4.82063e-05)
(4.2566e-05 -1.37256e-06 -3.84014e-20 5.47504e-05 -1.68419e-20 4.86584e-05)
(4.27546e-05 -5.21454e-07 -2.86637e-20 5.52954e-05 -1.43361e-20 4.90248e-05)
(4.29782e-05 3.55953e-07 -1.55799e-19 5.56117e-05 -3.88666e-20 4.92951e-05)
(3.79438e-05 -4.13175e-06 1.40289e-20 3.3866e-05 4.48854e-21 3.59043e-05)
(3.79387e-05 -4.48855e-06 3.27917e-20 3.52007e-05 1.07444e-20 3.65692e-05)
(3.78849e-05 -4.7401e-06 -5.00751e-20 3.66328e-05 -1.56212e-20 3.72608e-05)
(3.78281e-05 -4.86983e-06 7.26192e-20 3.8101e-05 2.4025e-20 3.79634e-05)
(3.77588e-05 -4.87654e-06 1.2217e-20 3.96308e-05 4.84851e-21 3.86945e-05)
(3.76952e-05 -4.75493e-06 9.3401e-20 4.1151e-05 3.16929e-20 3.94238e-05)
(3.76549e-05 -4.51419e-06 7.17669e-20 4.26148e-05 2.19307e-20 4.01348e-05)
(3.76434e-05 -4.16162e-06 5.6075e-20 4.40096e-05 1.9238e-20 4.08264e-05)
(3.76697e-05 -3.71284e-06 8.56325e-20 4.53014e-05 2.33725e-20 4.14859e-05)
(3.77342e-05 -3.18076e-06 -3.74893e-20 4.64699e-05 -1.25116e-20 4.21022e-05)
(3.78383e-05 -2.57477e-06 -4.54416e-20 4.75052e-05 -1.93563e-20 4.26717e-05)
(3.79838e-05 -1.90847e-06 -6.01147e-20 4.83915e-05 -1.75354e-20 4.31879e-05)
(3.81682e-05 -1.19232e-06 7.33758e-20 4.91134e-05 1.92838e-20 4.36408e-05)
(3.83916e-05 -4.37077e-07 2.72423e-20 4.96585e-05 5.85968e-21 4.40249e-05)
(3.86505e-05 3.42445e-07 5.67274e-20 5.00089e-05 2.64267e-20 4.43299e-05)
(3.37619e-05 -3.70522e-06 -2.66968e-20 3.02256e-05 -8.159e-21 3.19932e-05)
(3.37612e-05 -4.0166e-06 -2.73623e-21 3.14281e-05 -8.86273e-22 3.25942e-05)
(3.37185e-05 -4.23317e-06 8.27353e-20 3.27171e-05 2.60464e-20 3.32196e-05)
(3.36778e-05 -4.3411e-06 -1.68871e-21 3.40397e-05 -1.12389e-21 3.38577e-05)
(3.363e-05 -4.33918e-06 -3.67147e-20 3.54184e-05 -1.1103e-20 3.45238e-05)
(3.35895e-05 -4.22305e-06 -1.14256e-20 3.67884e-05 -6.1062e-21 3.51896e-05)
(3.35752e-05 -4.0019e-06 -9.16143e-20 3.81106e-05 -2.95601e-20 3.58429e-05)
(3.3589e-05 -3.68208e-06 2.43864e-20 3.93718e-05 8.21399e-21 3.64804e-05)
(3.3641e-05 -3.27807e-06 -1.08672e-19 4.05447e-05 -3.30588e-20 3.70932e-05)
(3.37299e-05 -2.8013e-06 2.41833e-20 4.16103e-05 6.10837e-21 3.76703e-05)
(3.38579e-05 -2.26048e-06 -4.58149e-20 4.25614e-05 -1.08427e-20 3.82098e-05)
(3.40254e-05 -1.66714e-06 -9.0531e-21 4.33841e-05 -1.3879e-22 3.87048e-05)
(3.4232e-05 -1.03032e-06 -9.49555e-20 4.40677e-05 -3.29377e-20 3.915e-05)
(3.44767e-05 -3.59319e-07 -4.95447e-20 4.46004e-05 -1.00361e-20 3.95385e-05)
(3.4757e-05 3.3337e-07 5.87983e-20 4.49676e-05 9.46615e-21 3.98623e-05)
(3.00665e-05 -3.32499e-06 5.22935e-21 2.70003e-05 1.62187e-21 2.85327e-05)
(3.00678e-05 -3.59656e-06 -3.35156e-20 2.8083e-05 -1.01167e-20 2.90751e-05)
(3.00341e-05 -3.78287e-06 -5.30454e-20 2.92442e-05 -1.65439e-20 2.96407e-05)
(3.00054e-05 -3.872e-06 -1.10814e-20 3.04354e-05 -2.75848e-21 3.02194e-05)
(2.99733e-05 -3.86287e-06 5.08986e-20 3.16771e-05 1.53286e-20 3.0825e-05)
(2.99514e-05 -3.75215e-06 -5.89248e-20 3.29123e-05 -1.7305e-20 3.14324e-05)
(2.99557e-05 -3.54855e-06 -5.75522e-21 3.41049e-05 1.93262e-21 3.20304e-05)
(2.99882e-05 -3.25778e-06 1.06058e-19 3.52448e-05 2.86985e-20 3.26164e-05)
(3.00579e-05 -2.89344e-06 7.69692e-20 3.63071e-05 2.36236e-20 3.31829e-05)
(3.01635e-05 -2.46542e-06 -9.52191e-20 3.72769e-05 -2.82612e-20 3.37203e-05)
(3.03065e-05 -1.9817e-06 3.7071e-20 3.81471e-05 1.57618e-20 3.4227e-05)
(3.04884e-05 -1.45235e-06 2.28994e-20 3.89079e-05 6.79977e-21 3.46982e-05)
(3.07077e-05 -8.855e-07 -7.21631e-20 3.95492e-05 -1.11987e-20 3.51286e-05)
(3.09642e-05 -2.88399e-07 7.44613e-20 4.00618e-05 2.03953e-20 3.55129e-05)
(3.12561e-05 3.27912e-07 -6.41253e-20 4.0434e-05 -2.11463e-20 3.58452e-05)
(3.15806e-05 9.53053e-07 5.73371e-20 4.06537e-05 1.74506e-20 3.61169e-05)
(2.67959e-05 -2.98545e-06 2.52555e-21 2.41379e-05 7.50132e-22 2.54663e-05)
(2.67979e-05 -3.22226e-06 7.00251e-22 2.51129e-05 3.37581e-22 2.59551e-05)
(2.67712e-05 -3.38229e-06 -1.71408e-20 2.61589e-05 -4.82101e-21 2.64665e-05)
(2.67518e-05 -3.45534e-06 1.47387e-20 2.7232e-05 4.58864e-21 2.6991e-05)
(2.67315e-05 -3.44029e-06 -3.66225e-20 2.835e-05 -1.01817e-20 2.75405e-05)
(2.67236e-05 -3.33484e-06 7.86045e-20 2.94633e-05 2.36781e-20 2.80939e-05)
(2.67414e-05 -3.14707e-06 5.0701e-20 3.05386e-05 1.13986e-20 2.864e-05)
(2.67875e-05 -2.88236e-06 -1.77144e-19 3.1568e-05 -5.34849e-20 2.91777e-05)
(2.68689e-05 -2.55308e-06 1.83599e-20 3.25291e-05 7.23106e-21 2.96993e-05)
(2.69853e-05 -2.16821e-06 6.88985e-21 3.34099e-05 4.01514e-21 3.01976e-05)
(2.71373e-05 -1.73477e-06 9.11801e-20 3.42042e-05 2.2399e-20 3.06708e-05)
(2.73263e-05 -1.26199e-06 5.97055e-20 3.49039e-05 1.02972e-20 3.11152e-05)
(2.75509e-05 -7.56325e-07 1.09502e-19 3.55007e-05 3.29063e-20 3.15258e-05)
(2.78118e-05 -2.24738e-07 -3.32865e-20 3.5988e-05 -1.00043e-20 3.18998e-05)
(2.81066e-05 3.23866e-07 -3.77004e-20 3.63547e-05 -6.34996e-21 3.22307e-05)
(2.84342e-05 8.8056e-07 8.41157e-20 3.65924e-05 1.6639e-20 3.25131e-05)
(2.3897e-05 -2.68184e-06 7.50587e-21 2.15938e-05 2.08373e-21 2.27447e-05)
(2.38994e-05 -2.88834e-06 4.56257e-20 2.24723e-05 1.29442e-20 2.31856e-05)
(2.38776e-05 -3.02549e-06 3.05443e-21 2.34143e-05 1.15889e-21 2.36473e-05)
(2.38651e-05 -3.08476e-06 4.25707e-20 2.43809e-05 1.24829e-20 2.41222e-05)
(2.38541e-05 -3.06501e-06 8.5732e-21 2.5388e-05 2.15438e-21 2.46209e-05)
(2.38562e-05 -2.96462e-06 -3.98967e-20 2.63905e-05 -1.30199e-20 2.51238e-05)
(2.38838e-05 -2.79124e-06 -8.678e-20 2.73597e-05 -2.51762e-20 2.56217e-05)
(2.39393e-05 -2.54991e-06 -8.58359e-21 2.82887e-05 3.07554e-21 2.61138e-05)
(2.40281e-05 -2.25179e-06 7.15246e-20 2.91572e-05 2.02672e-20 2.65929e-05)
(2.41502e-05 -1.9052e-06 -3.97705e-20 2.99552e-05 -1.129e-20 2.70527e-05)
(2.43062e-05 -1.51625e-06 -6.53351e-20 3.06782e-05 -2.08388e-20 2.74922e-05)
(2.44971e-05 -1.09322e-06 -1.44421e-19 3.1319e-05 -3.7873e-20 2.79081e-05)
(2.47221e-05 -6.41909e-07 7.98524e-20 3.18712e-05 1.79043e-20 2.82967e-05)
(2.49814e-05 -1.6799e-07 8.52057e-20 3.23295e-05 1.72131e-20 2.86554e-05)
(2.52742e-05 3.20794e-07 -2.23681e-20 3.26856e-05 -5.11788e-21 2.89799e-05)
(2.55984e-05 8.16728e-07 -1.49209e-20 3.2931e-05 -2.81788e-21 2.92646e-05)
(2.12926e-05 -2.19519e-06 -1.21166e-21 1.86483e-05 -4.24524e-22 1.99707e-05)
(2.13246e-05 -2.41012e-06 2.64552e-21 1.93299e-05 7.53286e-22 2.03267e-05)
(2.13266e-05 -2.59005e-06 -2.68986e-20 2.01212e-05 -7.48915e-21 2.07237e-05)
(2.13087e-05 -2.70737e-06 -1.9979e-20 2.09699e-05 -5.27603e-21 2.11405e-05)
(2.13011e-05 -2.75484e-06 5.12238e-20 2.18403e-05 1.3616e-20 2.157e-05)
(2.12969e-05 -2.73137e-06 -7.88327e-20 2.27471e-05 -2.14822e-20 2.20219e-05)
(2.13062e-05 -2.63588e-06 2.39184e-21 2.36497e-05 1.67971e-21 2.24784e-05)
(2.13405e-05 -2.47563e-06 -2.05457e-20 2.45228e-05 -2.66726e-21 2.29316e-05)
(2.14019e-05 -2.25531e-06 5.36782e-20 2.53603e-05 1.41658e-20 2.33811e-05)
(2.14946e-05 -1.98505e-06 4.24356e-20 2.61441e-05 1.00854e-20 2.38197e-05)
(2.16191e-05 -1.67251e-06 4.92726e-20 2.68662e-05 1.40761e-20 2.42427e-05)
(2.17755e-05 -1.32307e-06 2.81702e-21 2.75226e-05 2.52814e-22 2.46491e-05)
(2.19648e-05 -9.44262e-07 4.37556e-21 2.81075e-05 5.81274e-21 2.50362e-05)
(2.21863e-05 -5.40914e-07 -1.40866e-20 2.86163e-05 -7.00192e-21 2.54012e-05)
(2.24402e-05 -1.18014e-07 -9.77975e-20 2.9044e-05 -2.43719e-20 2.5742e-05)
(2.27259e-05 3.17649e-07 -3.96057e-21 2.9384e-05 3.56448e-21 2.60549e-05)
(2.30417e-05 7.59567e-07 9.48145e-20 2.96293e-05 1.84188e-20 2.63353e-05)
(2.33845e-05 1.19897e-06 9.92861e-21 2.97721e-05 -1.88231e-21 2.65783e-05)
(1.90116e-05 -1.97769e-06 3.41143e-21 1.66982e-05 9.06315e-22 1.78552e-05)
(1.90393e-05 -2.16665e-06 -1.78034e-20 1.73128e-05 -4.6931e-21 1.81755e-05)
(1.90404e-05 -2.32333e-06 -2.18598e-20 1.80256e-05 -5.7461e-21 1.85328e-05)
(1.90255e-05 -2.42345e-06 1.72367e-20 1.87901e-05 4.76501e-21 1.89089e-05)
(1.90216e-05 -2.46087e-06 -3.41442e-20 1.95739e-05 -9.07857e-21 1.92971e-05)
(1.90222e-05 -2.43454e-06 5.28744e-20 2.03902e-05 1.50941e-20 1.9706e-05)
(1.90368e-05 -2.34389e-06 3.14953e-20 2.12027e-05 8.89494e-21 2.01202e-05)
(1.90756e-05 -2.19571e-06 9.21688e-20 2.19888e-05 2.42134e-20 2.05321e-05)
(1.91402e-05 -1.99437e-06 -7.85184e-20 2.27432e-05 -2.189e-20 2.09416e-05)
(1.92345e-05 -1.74908e-06 -5.20065e-21 2.34502e-05 -1.69002e-21 2.13425e-05)
(1.93586e-05 -1.4669e-06 3.79194e-20 2.41025e-05 6.08289e-21 2.17306e-05)
(1.95126e-05 -1.15251e-06 -8.02801e-20 2.46973e-05 -1.86114e-20 2.2105e-05)
(1.96973e-05 -8.12746e-07 1.09234e-20 2.52296e-05 3.4475e-21 2.24636e-05)
(1.99124e-05 -4.51951e-07 3.66094e-21 2.56959e-05 2.40556e-21 2.28042e-05)
(2.01578e-05 -7.44061e-08 6.03496e-20 2.60922e-05 1.61786e-20 2.31249e-05)
(2.04334e-05 3.14045e-07 5.18426e-20 2.64133e-05 6.56126e-21 2.34233e-05)
(2.07377e-05 7.08106e-07 -9.14447e-20 2.66534e-05 -2.21319e-20 2.36954e-05)
(2.10684e-05 1.09986e-06 -5.08765e-20 2.68062e-05 -5.41307e-21 2.39373e-05)
(1.69833e-05 -1.7822e-06 -8.6748e-22 1.49596e-05 -4.28074e-22 1.59717e-05)
(1.70068e-05 -1.94829e-06 1.65965e-21 1.55137e-05 4.2682e-22 1.62597e-05)
(1.70069e-05 -2.08464e-06 7.73231e-21 1.61557e-05 2.19865e-21 1.65811e-05)
(1.69943e-05 -2.16983e-06 5.79111e-20 1.68444e-05 1.5156e-20 1.69203e-05)
(1.69928e-05 -2.19871e-06 1.58218e-20 1.75501e-05 4.00341e-21 1.72708e-05)
(1.6997e-05 -2.17027e-06 2.25317e-20 1.82848e-05 4.8488e-21 1.76408e-05)
(1.70151e-05 -2.08429e-06 -1.30173e-20 1.90159e-05 -3.88769e-21 1.80159e-05)
(1.70566e-05 -1.94724e-06 1.52485e-20 1.97235e-05 5.1687e-21 1.839e-05)
(1.71226e-05 -1.76309e-06 3.76069e-21 2.04025e-05 1.95617e-21 1.87625e-05)
(1.72167e-05 -1.5403e-06 -2.45141e-20 2.10398e-05 -7.55358e-21 1.91284e-05)
(1.73383e-05 -1.28521e-06 -7.21216e-20 2.16282e-05 -1.79935e-20 1.94833e-05)
(1.7488e-05 -1.00224e-06 6.99566e-20 2.2166e-05 2.04216e-20 1.9827e-05)
(1.76665e-05 -6.97335e-07 -9.05311e-21 2.26494e-05 -1.50555e-21 2.0158e-05)
(1.78731e-05 -3.74275e-07 3.71702e-20 2.30751e-05 5.83978e-21 2.04741e-05)
(1.81081e-05 -3.67369e-08 -4.97198e-20 2.34403e-05 -1.36307e-20 2.07742e-05)
(1.83712e-05 3.09875e-07 -1.03725e-19 2.37407e-05 -2.65696e-20 2.1056e-05)
(1.86616e-05 6.61236e-07 6.24567e-20 2.39715e-05 1.7759e-20 2.13164e-05)
(1.89771e-05 1.01053e-06 1.21907e-19 2.41276e-05 2.48042e-20 2.15524e-05)
(1.51778e-05 -1.60636e-06 -1.73471e-21 1.34079e-05 -3.20581e-22 1.42932e-05)
(1.51975e-05 -1.75232e-06 1.66905e-20 1.39074e-05 4.20709e-21 1.4552e-05)
(1.51966e-05 -1.87087e-06 1.3658e-20 1.44856e-05 3.46429e-21 1.4841e-05)
(1.51855e-05 -1.94311e-06 -2.7362e-20 1.51058e-05 -7.04752e-21 1.51466e-05)
(1.51859e-05 -1.96476e-06 -3.39769e-20 1.57413e-05 -9.08563e-21 1.5463e-05)
(1.51924e-05 -1.93482e-06 -7.48654e-20 1.64023e-05 -1.85039e-20 1.57972e-05)
(1.52128e-05 -1.8534e-06 -2.28671e-20 1.70599e-05 -3.95574e-21 1.61367e-05)
(1.52554e-05 -1.72658e-06 1.84427e-19 1.76963e-05 4.54145e-20 1.64759e-05)
(1.53216e-05 -1.55806e-06 1.8171e-20 1.83075e-05 1.52797e-21 1.68145e-05)
(1.54138e-05 -1.35553e-06 -2.52765e-20 1.88811e-05 -6.52624e-21 1.71476e-05)
(1.55317e-05 -1.12477e-06 -1.45083e-20 1.94113e-05 -5.96836e-22 1.74716e-05)
(1.56758e-05 -8.69715e-07 4.20595e-20 1.9897e-05 6.8352e-21 1.77865e-05)
(1.58466e-05 -5.95793e-07 3.62317e-20 2.03349e-05 7.57353e-21 1.80908e-05)
(1.60433e-05 -3.06409e-07 -6.87761e-20 2.07222e-05 -1.8233e-20 1.83828e-05)
(1.62665e-05 -4.74425e-09 2.54792e-20 2.1057e-05 6.78482e-21 1.86616e-05)
(1.65158e-05 3.04733e-07 -7.17645e-20 2.13358e-05 -1.16482e-20 1.89258e-05)
(1.67909e-05 6.18098e-07 -1.98433e-20 2.1555e-05 -2.14439e-21 1.91728e-05)
(1.70895e-05 9.2947e-07 -6.5053e-20 2.17097e-05 -1.23624e-20 1.93996e-05)
(1.74093e-05 1.23322e-06 6.07819e-20 2.17957e-05 1.66905e-21 1.96024e-05)
(1.35696e-05 -1.44809e-06 -4.55273e-21 1.2022e-05 -1.11562e-21 1.27961e-05)
(1.35856e-05 -1.5763e-06 -1.00334e-20 1.2472e-05 -2.44625e-21 1.30283e-05)
(1.35836e-05 -1.67927e-06 1.88654e-20 1.29927e-05 4.6384e-21 1.3288e-05)
(1.35736e-05 -1.74031e-06 1.96295e-20 1.35512e-05 5.01621e-21 1.35632e-05)
(1.35752e-05 -1.75587e-06 3.48722e-20 1.41232e-05 8.67447e-21 1.38486e-05)
(1.35832e-05 -1.72498e-06 7.46801e-20 1.47178e-05 1.92429e-20 1.41504e-05)
(1.36051e-05 -1.64804e-06 1.44851e-20 1.53093e-05 1.13969e-21 1.44575e-05)
(1.36481e-05 -1.5307e-06 -5.17481e-20 1.58818e-05 -1.51826e-20 1.47649e-05)
(1.37132e-05 -1.37641e-06 -7.45738e-20 1.64313e-05 -1.84651e-20 1.50722e-05)
(1.38022e-05 -1.19208e-06 -2.90361e-20 1.6947e-05 -3.36669e-21 1.53748e-05)
(1.39156e-05 -9.8321e-07 3.00071e-20 1.74243e-05 5.97274e-21 1.567e-05)
(1.40532e-05 -7.53315e-07 -9.35338e-20 1.78622e-05 -2.22935e-20 1.59577e-05)
(1.42152e-05 -5.07036e-07 -1.17118e-22 1.82578e-05 -6.29934e-22 1.62365e-05)
(1.44013e-05 -2.47519e-07 -5.90185e-20 1.86092e-05 -1.02302e-20 1.65053e-05)
(1.46119e-05 2.24183e-08 -1.5614e-20 1.89149e-05 -5.8191e-21 1.67634e-05)
(1.48467e-05 2.98732e-07 1.33496e-20 1.91721e-05 4.70473e-21 1.70095e-05)
(1.51053e-05 5.7825e-07 1.08241e-19 1.93777e-05 2.50188e-20 1.72414e-05)
(1.53861e-05 8.55839e-07 1.26202e-19 1.95279e-05 2.41347e-20 1.7457e-05)
(1.56868e-05 1.12651e-06 -8.23741e-20 1.9619e-05 -1.5313e-20 1.76528e-05)
(1.21357e-05 -1.30554e-06 8.76545e-22 1.07829e-05 1.24003e-22 1.14596e-05)
(1.21483e-05 -1.41813e-06 7.15073e-21 1.11883e-05 1.72133e-21 1.16679e-05)
(1.21454e-05 -1.50746e-06 -3.66759e-20 1.16572e-05 -8.64485e-21 1.19011e-05)
(1.21361e-05 -1.55879e-06 2.44633e-20 1.21599e-05 5.45076e-21 1.21488e-05)
(1.21383e-05 -1.56924e-06 -6.01048e-20 1.26747e-05 -1.41875e-20 1.2406e-05)
(1.21475e-05 -1.53786e-06 5.47215e-20 1.32095e-05 1.15513e-20 1.26784e-05)
(1.21699e-05 -1.46522e-06 -1.99479e-19 1.37413e-05 -4.77475e-20 1.29559e-05)
(1.22126e-05 -1.35666e-06 1.18869e-20 1.42561e-05 4.47263e-21 1.32343e-05)
(1.22755e-05 -1.2153e-06 -2.26416e-20 1.47496e-05 -3.24569e-21 1.35126e-05)
(1.23612e-05 -1.04761e-06 1.48786e-19 1.52132e-05 3.2999e-20 1.37873e-05)
(1.24693e-05 -8.58424e-07 -4.46942e-20 1.56426e-05 -1.18098e-20 1.4056e-05)
(1.25997e-05 -6.50953e-07 1.00813e-20 1.60368e-05 4.68195e-21 1.43183e-05)
(1.27527e-05 -4.29449e-07 -7.92382e-22 1.63936e-05 1.11554e-21 1.45732e-05)
(1.29277e-05 -1.96723e-07 4.16239e-20 1.67115e-05 1.14434e-20 1.48196e-05)
(1.31254e-05 4.48771e-08 -8.38824e-20 1.69897e-05 -1.8561e-20 1.50574e-05)
(1.33452e-05 2.91737e-07 -3.77003e-20 1.72255e-05 -5.33297e-21 1.52854e-05)
(1.3587e-05 5.41108e-07 4.78324e-20 1.74165e-05 6.17116e-21 1.55016e-05)
(1.38493e-05 7.88469e-07 -5.56771e-20 1.75598e-05 -1.62943e-20 1.57045e-05)
(1.41306e-05 1.0297e-06 8.38109e-20 1.76523e-05 1.61332e-20 1.58914e-05)
(1.08563e-05 -1.17706e-06 -2.19626e-21 9.67413e-06 -4.87918e-22 1.02655e-05)
(1.0866e-05 -1.27589e-06 -1.92229e-20 1.00394e-05 -4.43372e-21 1.04523e-05)
(1.08621e-05 -1.35329e-06 2.17427e-20 1.04615e-05 5.10904e-21 1.06617e-05)
(1.08533e-05 -1.39624e-06 -4.13934e-20 1.09138e-05 -9.51359e-21 1.08843e-05)
(1.0856e-05 -1.40245e-06 7.64521e-20 1.13772e-05 1.7883e-20 1.11161e-05)
(1.08655e-05 -1.37093e-06 -9.22465e-21 1.18581e-05 -2.96297e-21 1.13618e-05)
(1.08881e-05 -1.30248e-06 1.58624e-20 1.23361e-05 5.66796e-21 1.16124e-05)
(1.09297e-05 -1.20208e-06 1.28822e-20 1.27985e-05 3.3578e-21 1.1864e-05)
(1.09904e-05 -1.07259e-06 -2.4996e-20 1.32419e-05 -6.30161e-21 1.21161e-05)
(1.10722e-05 -9.19916e-07 -9.26459e-20 1.36584e-05 -2.09402e-20 1.23654e-05)
(1.11746e-05 -7.48459e-07 -1.1606e-20 1.40443e-05 -2.19251e-21 1.26095e-05)
(1.12975e-05 -5.61169e-07 7.71461e-21 1.43986e-05 2.92414e-21 1.28481e-05)
(1.1441e-05 -3.61868e-07 4.23528e-20 1.47198e-05 1.04567e-20 1.30805e-05)
(1.16049e-05 -1.52995e-07 7.12506e-20 1.50068e-05 1.57151e-20 1.33059e-05)
(1.17896e-05 6.32618e-08 -4.26982e-20 1.52591e-05 -7.60692e-21 1.35243e-05)
(1.19945e-05 2.83874e-07 4.61485e-20 1.54743e-05 1.32454e-20 1.37344e-05)
(1.22195e-05 5.0633e-07 3.09982e-21 1.56506e-05 -1.83528e-21 1.39349e-05)