/*--------------------------------*- C++ -*----------------------------------*\
| =========                 |                                                 |
| \\      /  F ield         | OpenFOAM: The Open Source CFD Toolbox           |
|  \\    /   O peration     | Version:  2506                                  |
|   \\  /    A nd           | Website:  www.openfoam.com                      |
|    \\/     M anipulation  |                                                 |
\*---------------------------------------------------------------------------*/
FoamFile
{
    version     2.0;
    format      ascii;
    arch        "LSB;label=32;scalar=64";
    class       volScalarField;
    location    "46";
    object      p;
}
// * * * * * * * * * * * * * * * * * * * * * * * * * * * * * * * * * * * * * //

dimensions      [0 2 -2 0 0 0 0];

internalField   nonuniform List<scalar> 
400
(
2.64415e-07
-0.000149941
-0.000531746
-0.00106618
-0.00172367
-0.00248089
-0.00316849
-0.00357904
-0.00354625
-0.00291633
-0.00153514
0.000625609
0.00325032
0.00551643
0.006548
0.00595719
0.0040547
0.00221204
0.00117433
0.0011034
0.000116659
-5.68842e-05
-0.000373813
-0.000759264
-0.00123731
-0.00187806
-0.00269087
-0.00352219
-0.00405436
-0.00391245
-0.00282485
-0.00081051
0.00169795
0.00397069
0.00514561
0.00478248
0.00316187
0.00144007
0.000659004
0.000746906
0.000534295
0.000264927
-7.52091e-05
-0.000555235
-0.00133848
-0.00256353
-0.00419001
-0.00594114
-0.00734911
-0.00788656
-0.00721094
-0.00541643
-0.00285431
-0.000161107
0.00182966
0.00247725
0.00177205
0.000571575
-0.000325972
-0.000326409
0.00114433
0.000736182
0.000191031
-0.000768803
-0.0024325
-0.00489967
-0.00793261
-0.011033
-0.0135956
-0.0150587
-0.0150891
-0.0137304
-0.0111975
-0.00794646
-0.00467878
-0.00213978
-0.000800424
-0.00063577
-0.0012173
-0.00184825
0.0015663
0.000961618
-2.5803e-05
-0.0019103
-0.00496614
-0.00910384
-0.0137973
-0.0183246
-0.0220295
-0.0244467
-0.025317
-0.0245207
-0.0221814
-0.0185869
-0.0141739
-0.00954804
-0.0055033
-0.00287357
-0.00212452
-0.00394286
0.00127033
0.000429519
-0.00119629
-0.00427316
-0.00892969
-0.0147516
-0.0208875
-0.0264777
-0.0309111
-0.0338703
-0.035227
-0.0348809
-0.0329141
-0.0294722
-0.0246941
-0.0187976
-0.0123814
-0.00685681
-0.00432581
-0.00644064
-6.953e-05
-0.00115838
-0.00348515
-0.00773804
-0.0138124
-0.0209242
-0.0279754
-0.0340818
-0.0387489
-0.0418154
-0.0432883
-0.0431879
-0.0415803
-0.0385325
-0.0340203
-0.0279255
-0.020365
-0.0125804
-0.00776635
-0.00767253
-0.00245989
-0.00373871
-0.00666201
-0.0118197
-0.0188705
-0.0267288
-0.0341676
-0.0403652
-0.0449714
-0.0479507
-0.0493918
-0.04939
-0.0480233
-0.0453375
-0.0412816
-0.0356206
-0.0280921
-0.0192055
-0.0117143
-0.00790953
-0.00552722
-0.0068903
-0.0101996
-0.0158913
-0.0234409
-0.0315778
-0.0390453
-0.0451181
-0.049566
-0.0524295
-0.0538303
-0.0538749
-0.0526378
-0.0501753
-0.0464944
-0.0414336
-0.0345743
-0.025733
-0.0165661
-0.00990259
-0.00870124
-0.010038
-0.0135068
-0.0193788
-0.0270291
-0.0351277
-0.04245
-0.0483501
-0.0526646
-0.0554586
-0.0568491
-0.056923
-0.0557436
-0.0533808
-0.0499126
-0.0453226
-0.0392913
-0.0312659
-0.0221364
-0.0142058
-0.0114534
-0.0126915
-0.0161081
-0.0218682
-0.0293238
-0.037199
-0.0443292
-0.0500991
-0.0543525
-0.0571358
-0.058542
-0.0586352
-0.0574662
-0.0551103
-0.051706
-0.0473792
-0.0420604
-0.0350992
-0.026984
-0.0190084
-0.0134884
-0.0145419
-0.017735
-0.0231211
-0.0301405
-0.0376657
-0.044612
-0.0503395
-0.0546274
-0.0574696
-0.0589204
-0.0590245
-0.0578237
-0.055395
-0.0519284
-0.047663
-0.042838
-0.036775
-0.0298138
-0.0222327
-0.0147735
-0.0154906
-0.0182341
-0.0230243
-0.0294168
-0.0364996
-0.0432793
-0.0490524
-0.053477
-0.0564551
-0.057988
-0.0580976
-0.0568209
-0.0542568
-0.0506209
-0.0462145
-0.041632
-0.036053
-0.0300325
-0.022729
-0.0154062
-0.0156524
-0.0176748
-0.0215852
-0.0271479
-0.0336949
-0.0403133
-0.0462051
-0.0508706
-0.0540805
-0.0557599
-0.0559031
-0.0545259
-0.0517567
-0.0478544
-0.0432063
-0.0384659
-0.03296
-0.0279551
-0.020163
-0.0155178
-0.0152405
-0.0162595
-0.0189653
-0.0234642
-0.0293614
-0.0358058
-0.041877
-0.0468856
-0.0504349
-0.0523439
-0.0525528
-0.0511022
-0.048083
-0.0438251
-0.0387704
-0.0336097
-0.0279811
-0.0241631
-0.0143492
-0.0152281
-0.0145061
-0.0142103
-0.0153508
-0.0185615
-0.0237011
-0.0299534
-0.0362486
-0.0416916
-0.0456943
-0.0479511
-0.0483331
-0.0468639
-0.0436134
-0.0389501
-0.0333405
-0.0275738
-0.0216405
-0.0181026
-0.00389417
-0.0146241
-0.0135882
-0.0116861
-0.0110576
-0.0129014
-0.017272
-0.0233496
-0.0299022
-0.0358465
-0.0404041
-0.0431389
-0.0438253
-0.0424564
-0.0390648
-0.0339837
-0.0276117
-0.0207203
-0.0134014
-0.00696159
0.0158975
-0.0145619
-0.012643
-0.00865655
-0.0062606
-0.00692451
-0.0107165
-0.0167198
-0.0235616
-0.0300427
-0.0352218
-0.038552
-0.0396853
-0.0385685
-0.0352143
-0.0297693
-0.0222768
-0.0130011
-0.000917195
0.0164183
0.0568338
-0.0117902
-0.0118354
-0.00576693
-0.00184437
-0.00183096
-0.00543418
-0.0115404
-0.0187016
-0.0256839
-0.0314325
-0.0353696
-0.0370649
-0.0364209
-0.0331628
-0.0271403
-0.017587
-0.00332638
0.020208
0.0603903
0.129566
-0.029506
-0.0106465
-0.00066878
0.00299163
0.00236023
-0.00161048
-0.00799054
-0.0154667
-0.0228108
-0.0289431
-0.0332605
-0.0353088
-0.0349515
-0.0317731
-0.0251433
-0.0128955
0.00925783
0.0509117
0.122598
0.225848
)
;

boundaryField
{
    movingWall
    {
        type            zeroGradient;
    }
    fixedWalls
    {
        type            zeroGradient;
    }
    frontAndBack
    {
        type            empty;
    }
}


// ************************************************************************* //
