/*--------------------------------*- C++ -*----------------------------------*\
| =========                 |                                                 |
| \\      /  F ield         | OpenFOAM: The Open Source CFD Toolbox           |
|  \\    /   O peration     | Version:  2506                                  |
|   \\  /    A nd           | Website:  www.openfoam.com                      |
|    \\/     M anipulation  |                                                 |
\*---------------------------------------------------------------------------*/
FoamFile
{
    version     2.0;
    format      ascii;
    arch        "LSB;label=32;scalar=64";
    class       volVectorField;
    location    "46";
    object      U;
}
// * * * * * * * * * * * * * * * * * * * * * * * * * * * * * * * * * * * * * //

dimensions      [0 1 -1 0 0 0 0];

internalField   nonuniform List<vector> 
400
(
(0.00166859 -0.00167269 0)
(0.00479612 -0.0018782 0)
(0.00652482 -0.00119275 0)
(0.00560165 -0.000569696 0)
(0.00150668 0.000188896 0)
(-0.00686371 0.00173819 0)
(-0.0205799 0.00476366 0)
(-0.0394212 0.00868613 0)
(-0.0605993 0.0112368 0)
(-0.0788777 0.01048 0)
(-0.089564 0.00677348 0)
(-0.0902743 0.00169253 0)
(-0.0801381 -0.00357462 0)
(-0.0600198 -0.00822733 0)
(-0.0336542 -0.0108067 0)
(-0.00549937 -0.00977612 0)
(0.0164982 -0.00479934 0)
(0.0242949 0.00273607 0)
(0.0161012 0.00643321 0)
(0.00430376 0.00469746 0)
(0.00169622 -0.00501595 0)
(0.00309562 -0.00397948 0)
(-0.000504181 0.000609952 0)
(-0.01139 0.0064319 0)
(-0.0314009 0.013999 0)
(-0.0609794 0.0236623 0)
(-0.0965114 0.0328977 0)
(-0.130997 0.0369301 0)
(-0.158441 0.033408 0)
(-0.175562 0.0233681 0)
(-0.180949 0.00915182 0)
(-0.17465 -0.00688541 0)
(-0.157241 -0.0230224 0)
(-0.129454 -0.0367468 0)
(-0.0935471 -0.0444189 0)
(-0.0522528 -0.0417544 0)
(-0.0115442 -0.0263527 0)
(0.0167144 -0.0013841 0)
(0.0177721 0.0161095 0)
(0.00552467 0.0147545 0)
(-0.000262455 -0.00568735 0)
(-0.00542359 0.000881857 0)
(-0.0196226 0.0142888 0)
(-0.0444137 0.0311182 0)
(-0.0800741 0.0492202 0)
(-0.12174 0.0640229 0)
(-0.161723 0.0702453 0)
(-0.194533 0.0657882 0)
(-0.218059 0.0520494 0)
(-0.231708 0.0315094 0)
(-0.235488 0.00651107 0)
(-0.230059 -0.0209109 0)
(-0.215733 -0.0485887 0)
(-0.192005 -0.0729064 0)
(-0.158606 -0.0887295 0)
(-0.1155 -0.0890234 0)
(-0.0644893 -0.0669755 0)
(-0.0138976 -0.0228018 0)
(0.00942001 0.0177369 0)
(0.00415339 0.0234741 0)
(-0.00347111 0.000560554 0)
(-0.0174796 0.0172802 0)
(-0.0433837 0.0413698 0)
(-0.0793755 0.0678947 0)
(-0.122437 0.0907416 0)
(-0.165139 0.103394 0)
(-0.201067 0.102495 0)
(-0.228285 0.0893621 0)
(-0.247054 0.0671474 0)
(-0.257978 0.0385525 0)
(-0.261896 0.00545167 0)
(-0.25961 -0.0308261 0)
(-0.251057 -0.0680414 0)
(-0.235191 -0.103257 0)
(-0.210017 -0.131004 0)
(-0.172835 -0.142487 0)
(-0.121089 -0.125536 0)
(-0.0567554 -0.070871 0)
(-0.00103512 0.00336583 0)
(0.0047402 0.0281078 0)
(-0.00663711 0.0148445 0)
(-0.0286082 0.0440344 0)
(-0.0630058 0.0767891 0)
(-0.103967 0.108425 0)
(-0.146576 0.130616 0)
(-0.183713 0.137609 0)
(-0.211927 0.128995 0)
(-0.23161 0.108359 0)
(-0.244053 0.0795639 0)
(-0.250983 0.0453963 0)
(-0.254094 0.00739011 0)
(-0.254313 -0.0336505 0)
(-0.251415 -0.0765732 0)
(-0.244844 -0.120066 0)
(-0.231785 -0.160164 0)
(-0.207617 -0.188422 0)
(-0.166299 -0.189514 0)
(-0.103157 -0.142659 0)
(-0.0221779 -0.0389725 0)
(0.00734655 0.0269447 0)
(-0.00846355 0.0348285 0)
(-0.034988 0.0764004 0)
(-0.0727045 0.114459 0)
(-0.112663 0.147022 0)
(-0.149741 0.165288 0)
(-0.178468 0.165259 0)
(-0.197878 0.149145 0)
(-0.209516 0.12202 0)
(-0.215369 0.0882333 0)
(-0.217923 0.050771 0)
(-0.219159 0.0110978 0)
(-0.220086 -0.0303738 0)
(-0.220907 -0.0741275 0)
(-0.221711 -0.120554 0)
(-0.220294 -0.16844 0)
(-0.211551 -0.212296 0)
(-0.187393 -0.237921 0)
(-0.139238 -0.218052 0)
(-0.0626413 -0.118759 0)
(0.0057867 0.0140871 0)
(-0.00823594 0.0568255 0)
(-0.0351212 0.109596 0)
(-0.0714093 0.149822 0)
(-0.106455 0.180344 0)
(-0.135934 0.192997 0)
(-0.156221 0.185654 0)
(-0.168012 0.16259 0)
(-0.173418 0.129943 0)
(-0.174854 0.0924863 0)
(-0.174834 0.0532396 0)
(-0.174885 0.0134411 0)
(-0.175697 -0.0268706 0)
(-0.177819 -0.0688565 0)
(-0.181785 -0.113819 0)
(-0.186931 -0.162884 0)
(-0.1896 -0.214899 0)
(-0.18188 -0.260858 0)
(-0.153777 -0.274509 0)
(-0.0990345 -0.205455 0)
(-0.00889177 -0.0146964 0)
(-0.00608493 0.0772795 0)
(-0.0295839 0.139976 0)
(-0.0610274 0.180395 0)
(-0.0893308 0.207357 0)
(-0.11121 0.213923 0)
(-0.124637 0.199655 0)
(-0.131197 0.170515 0)
(-0.133194 0.133483 0)
(-0.13309 0.0935612 0)
(-0.13285 0.0534757 0)
(-0.133175 0.0139491 0)
(-0.134258 -0.025402 0)
(-0.136563 -0.065625 0)
(-0.140782 -0.107976 0)
(-0.147514 -0.154461 0)
(-0.155419 -0.207445 0)
(-0.158479 -0.26494 0)
(-0.146309 -0.30733 0)
(-0.111906 -0.276568 0)
(-0.0308309 -0.0751659 0)
(-0.00269813 0.0931706 0)
(-0.0202554 0.164914 0)
(-0.044831 0.204648 0)
(-0.0658921 0.2275 0)
(-0.0810557 0.228449 0)
(-0.0894484 0.208517 0)
(-0.0929558 0.174841 0)
(-0.0937163 0.134916 0)
(-0.093837 0.0937637 0)
(-0.094504 0.0536327 0)
(-0.0957759 0.0146154 0)
(-0.0975629 -0.0240879 0)
(-0.100042 -0.0632843 0)
(-0.103722 -0.103703 0)
(-0.109751 -0.147012 0)
(-0.118847 -0.197186 0)
(-0.12782 -0.258646 0)
(-0.126177 -0.322533 0)
(-0.107206 -0.333947 0)
(-0.0372225 -0.162881 0)
(0.0012223 0.102225 0)
(-0.00885174 0.182634 0)
(-0.0254393 0.222095 0)
(-0.039343 0.241584 0)
(-0.0487468 0.238337 0)
(-0.0535443 0.214407 0)
(-0.0554141 0.177709 0)
(-0.0560083 0.136111 0)
(-0.0568535 0.094557 0)
(-0.0585062 0.054763 0)
(-0.0607425 0.0162645 0)
(-0.0634155 -0.0220152 0)
(-0.0665219 -0.0607554 0)
(-0.0702499 -0.100226 0)
(-0.0755423 -0.141176 0)
(-0.083981 -0.187318 0)
(-0.0956435 -0.247006 0)
(-0.100427 -0.323299 0)
(-0.0950028 -0.371353 0)
(-0.0308611 -0.241859 0)
(0.00508519 0.103357 0)
(0.00296005 0.192156 0)
(-0.00532484 0.232518 0)
(-0.0123879 0.24955 0)
(-0.0167364 0.24345 0)
(-0.0185811 0.217269 0)
(-0.0192132 0.179257 0)
(-0.0196774 0.137276 0)
(-0.0209205 0.0960235 0)
(-0.023119 0.0568354 0)
(-0.0259804 0.0189703 0)
(-0.0294371 -0.0187426 0)
(-0.0335063 -0.0570239 0)
(-0.0381417 -0.0959869 0)
(-0.0439012 -0.135617 0)
(-0.0520461 -0.178398 0)
(-0.0654843 -0.234118 0)
(-0.0741257 -0.316968 0)
(-0.0811217 -0.395802 0)
(-0.0229166 -0.306327 0)
(0.00838254 0.0969144 0)
(0.0141234 0.193124 0)
(0.0140138 0.236012 0)
(0.013626 0.252302 0)
(0.0142502 0.245201 0)
(0.0154487 0.218524 0)
(0.0163133 0.180524 0)
(0.0163722 0.138906 0)
(0.015229 0.0981724 0)
(0.0129378 0.0595938 0)
(0.00976749 0.0224621 0)
(0.00568313 -0.0143912 0)
(0.000540645 -0.051808 0)
(-0.00552971 -0.0899444 0)
(-0.0129366 -0.128476 0)
(-0.0218718 -0.168487 0)
(-0.0376372 -0.219055 0)
(-0.0487833 -0.303283 0)
(-0.0679238 -0.407571 0)
(-0.0144694 -0.359202 0)
(0.0102181 0.0840414 0)
(0.0232218 0.185568 0)
(0.0308384 0.232155 0)
(0.0367288 0.248861 0)
(0.0423508 0.241995 0)
(0.0472651 0.216244 0)
(0.0506587 0.179542 0)
(0.0522844 0.139244 0)
(0.0520949 0.0996838 0)
(0.0503079 0.0622007 0)
(0.047167 0.0262688 0)
(0.042578 -0.00921904 0)
(0.0363661 -0.0451947 0)
(0.0286366 -0.0818817 0)
(0.0186079 -0.118943 0)
(0.00738221 -0.156667 0)
(-0.0119545 -0.202734 0)
(-0.0244378 -0.285263 0)
(-0.0559451 -0.410119 0)
(-0.00617159 -0.401109 0)
(0.00975833 0.0669603 0)
(0.0287555 0.169873 0)
(0.0439776 0.221143 0)
(0.056433 0.240092 0)
(0.0676436 0.235127 0)
(0.0772482 0.211797 0)
(0.0843831 0.177574 0)
(0.0887446 0.139351 0)
(0.090413 0.101386 0)
(0.0897028 0.0652482 0)
(0.0869522 0.030784 0)
(0.0819231 -0.00303853 0)
(0.074478 -0.0368339 0)
(0.0648898 -0.0712116 0)
(0.0518075 -0.105996 0)
(0.0370386 -0.141111 0)
(0.0127676 -0.18264 0)
(-0.000243991 -0.262076 0)
(-0.0449655 -0.405903 0)
(0.00270873 -0.435602 0)
(0.00684154 0.0493176 0)
(0.0290569 0.148335 0)
(0.0506415 0.202686 0)
(0.0693879 0.223434 0)
(0.0867424 0.220529 0)
(0.102318 0.200403 0)
(0.114866 0.169889 0)
(0.123706 0.135125 0)
(0.128754 0.100115 0)
(0.130274 0.0665542 0)
(0.128542 0.0346776 0)
(0.123618 0.00365568 0)
(0.115036 -0.0268647 0)
(0.103418 -0.0577526 0)
(0.0865283 -0.0890761 0)
(0.067545 -0.121473 0)
(0.0377241 -0.15939 0)
(0.0234713 -0.236087 0)
(-0.0346508 -0.398262 0)
(0.0133893 -0.463924 0)
(0.00235277 0.0347066 0)
(0.0233728 0.123503 0)
(0.0504647 0.179192 0)
(0.0760114 0.201993 0)
(0.100509 0.201613 0)
(0.123231 0.185231 0)
(0.142526 0.159249 0)
(0.157182 0.128939 0)
(0.166786 0.0979153 0)
(0.171562 0.0678766 0)
(0.171466 0.0394081 0)
(0.167222 0.0120874 0)
(0.157448 -0.0144505 0)
(0.143833 -0.0409558 0)
(0.122747 -0.0677431 0)
(0.0994426 -0.0963641 0)
(0.0638749 -0.131491 0)
(0.0465835 -0.206604 0)
(-0.0229537 -0.386608 0)
(0.0284112 -0.485234 0)
(-0.0034047 0.0288128 0)
(0.00988174 0.101346 0)
(0.0366714 0.148157 0)
(0.068318 0.168711 0)
(0.101007 0.16985 0)
(0.132529 0.157568 0)
(0.160335 0.137199 0)
(0.182699 0.112907 0)
(0.198591 0.0877685 0)
(0.208381 0.063313 0)
(0.211233 0.0402828 0)
(0.20894 0.0185384 0)
(0.198746 -0.00229072 0)
(0.184234 -0.0227071 0)
(0.159642 -0.0431936 0)
(0.133287 -0.0668444 0)
(0.0920943 -0.100772 0)
(0.0694611 -0.179329 0)
(-0.00460098 -0.369756 0)
(0.0520453 -0.491483 0)
(-0.0138789 0.0187115 0)
(-0.00750141 0.0882109 0)
(0.0189537 0.123934 0)
(0.0559279 0.136854 0)
(0.0968168 0.136342 0)
(0.136943 0.127138 0)
(0.172957 0.112517 0)
(0.20258 0.0948133 0)
(0.224302 0.0764512 0)
(0.239245 0.0584344 0)
(0.245216 0.0417234 0)
(0.246103 0.0261904 0)
(0.236857 0.0120045 0)
(0.225153 -0.00165347 0)
(0.200399 -0.0155701 0)
(0.176719 -0.0344517 0)
(0.132723 -0.0672285 0)
(0.107414 -0.14567 0)
(0.0372809 -0.326079 0)
(0.0922902 -0.455855 0)
(-0.105926 0.0825548 0)
(-0.077679 0.0691032 0)
(-0.0485981 0.0732749 0)
(0.00354966 0.0776651 0)
(0.0568201 0.0779242 0)
(0.109301 0.073636 0)
(0.156236 0.0663189 0)
(0.198376 0.0569577 0)
(0.230326 0.0473511 0)
(0.258346 0.0377718 0)
(0.274029 0.0291977 0)
(0.289176 0.0212956 0)
(0.289618 0.0146246 0)
(0.293853 0.00830148 0)
(0.277791 0.00139395 0)
(0.270818 -0.0097457 0)
(0.231757 -0.0353338 0)
(0.217887 -0.0953158 0)
(0.150162 -0.229722 0)
(0.170664 -0.34148 0)
(0.130021 0.103781 0)
(0.158431 0.075328 0)
(0.212342 0.0533409 0)
(0.270843 0.0417116 0)
(0.32334 0.0359698 0)
(0.375648 0.0319769 0)
(0.420095 0.028929 0)
(0.465259 0.0255865 0)
(0.498231 0.0229118 0)
(0.533385 0.0197261 0)
(0.552777 0.0175752 0)
(0.578584 0.0146479 0)
(0.584767 0.0132166 0)
(0.603194 0.0104072 0)
(0.59474 0.00945268 0)
(0.603385 0.00506183 0)
(0.56772 0.000139638 0)
(0.547688 -0.0182857 0)
(0.435837 -0.0504134 0)
(0.336824 -0.101399 0)
)
;

boundaryField
{
    movingWall
    {
        type            fixedValue;
        value           uniform (1 0 0);
    }
    fixedWalls
    {
        type            noSlip;
    }
    frontAndBack
    {
        type            empty;
    }
}


// ************************************************************************* //
