/*--------------------------------*- C++ -*----------------------------------*\
| =========                 |                                                 |
| \\      /  F ield         | OpenFOAM: The Open Source CFD Toolbox           |
|  \\    /   O peration     | Version:  2506                                  |
|   \\  /    A nd           | Website:  www.openfoam.com                      |
|    \\/     M anipulation  |                                                 |
\*---------------------------------------------------------------------------*/
FoamFile
{
    version     2.0;
    format      ascii;
    arch        "LSB;label=32;scalar=64";
    class       volScalarField;
    location    "450";
    object      magR;
}
// * * * * * * * * * * * * * * * * * * * * * * * * * * * * * * * * * * * * * //

dimensions      [0 2 -2 0 0 0 0];

internalField   nonuniform List<scalar> 
10720
(
0.023538
0.0274622
0.0324771
0.039289
0.0473598
0.0576333
0.0707698
0.0870424
0.107706
0.134069
0.16813
0.213098
0.273425
0.356422
0.474562
0.647437
0.913672
1.32394
2.04424
3.16551
5.69245
9.5138
22.2732
43.4787
48.1808
46.0941
45.2947
46.1248
47.1529
47.4143
46.7863
45.3894
43.1324
40.0444
36.0571
31.264
24.7596
18.2989
4.26569
0.0200321
0.0171884
0.0140007
0.0112669
0.00868558
0.00635914
0.00448041
0.00335174
0.0035062
0.00474345
0.00705511
0.0106247
0.0158801
0.0234977
0.034339
0.0497158
0.071825
0.104785
0.156208
0.239903
0.383333
0.637031
1.12101
2.05261
4.08369
8.35114
18.6657
38.4622
54.5031
61.3866
63.3394
63.6591
63.2924
62.3971
61.0191
59.2335
56.6214
53.5796
43.8856
0.00360468
0.00358439
0.00354303
0.00344052
0.00328199
0.00309975
0.00288483
0.00264315
0.00240398
0.0021695
0.00194593
0.00179067
0.0017693
0.0019439
0.00252449
0.00397242
0.00759086
0.0159119
0.0384739
0.0943331
0.27953
0.771775
2.37089
7.60626
14.8862
22.3846
29.4312
34.4273
35.4226
32.5011
27.6994
22.8381
18.8952
15.8727
13.5506
11.7091
10.4219
9.07993
9.74995
0.0035722
0.00352404
0.00342528
0.00327883
0.00307843
0.00281404
0.00250371
0.0022027
0.00192412
0.00164763
0.00138453
0.00115676
0.000964337
0.000801114
0.00066282
0.000546299
0.00044747
0.000363858
0.000290611
0.000223739
0.000157662
9.31623e-05
3.2283e-05
5.26518e-06
1.34243e-05
0.00191625
0.0103751
0.0836567
0.281749
0.551417
0.824341
1.06463
1.26666
1.44423
1.61013
1.78086
1.9613
2.36386
3.2879
0.0024198
0.0024007
0.00234657
0.00226374
0.00217716
0.00208203
0.00198581
0.0018993
0.00182487
0.00176715
0.00172255
0.00169697
0.00169023
0.00170478
0.00170944
0.00166258
0.00139696
0.00126034
0.000416246
0.00777974
0.0154033
0.000734994
0.0084436
0.0194803
0.220091
0.788597
2.01897
4.56201
9.01322
14.8907
20.2072
22.8213
22.3124
20.0354
17.3832
14.8929
12.9416
10.7141
12.0389
0.00243862
0.00243559
0.00242913
0.00238588
0.0023091
0.00218025
0.00200263
0.00179981
0.00161135
0.00141749
0.00120888
0.00100689
0.000826098
0.000670408
0.000541883
0.000438111
0.000357223
0.000295874
0.000251237
0.000219178
0.000197099
0.000182767
0.000174904
0.000170574
0.000170348
0.000169183
0.000179935
0.000106717
0.000756712
0.00502239
0.0142341
0.02998
0.0675865
0.1414
0.250388
0.383858
0.528931
0.633137
1.08066
0.00204214
0.00204636
0.00203607
0.00201912
0.00198413
0.00193204
0.00186711
0.00178608
0.00169344
0.00159096
0.00148086
0.00136464
0.00124346
0.00111949
0.000993838
0.000862424
0.000728012
0.000620054
0.000479724
0.000262326
3.39147e-05
9.70357e-05
0
0.00480934
0.0259755
0.0523992
0.0733733
0.00175616
0.0419496
0.440311
1.95598
5.33179
9.99512
13.8703
15.5401
15.3158
14.4034
12.6069
13.5767
0.00202023
0.00198707
0.00193497
0.00187224
0.00179357
0.00169056
0.00157029
0.00144231
0.00130906
0.00116444
0.00101496
0.000874828
0.000751005
0.000644322
0.000554166
0.000478577
0.0004164
0.000365758
0.000325107
0.000292012
0.000265118
0.000242533
0.000222291
0.000200998
0.00017913
0.000160939
0.000147193
0.000137315
0.000125327
0.000109899
8.24898e-05
5.20384e-05
0.000415176
0.000705765
0.00263361
0.0141543
0.0466269
0.117988
0.429375
0.00153211
0.0015294
0.00151744
0.00149615
0.00146319
0.00141853
0.00136454
0.00130202
0.00123305
0.00116185
0.00109067
0.00102243
0.000960132
0.000905699
0.00086039
0.000822338
0.000782478
0.000730924
0.000683195
0.00060923
0.000482767
0.00029029
3.07498e-05
8.93387e-06
0
0
0
0.000948919
0.0272843
0.0119718
0.0352406
0.0652134
0.410725
2.39796
6.15486
9.97342
12.3863
12.8391
14.2911
0.00152813
0.00151733
0.0014958
0.00146132
0.00141274
0.00134392
0.00126152
0.00117309
0.00107878
0.000975273
0.000867578
0.000762218
0.000663263
0.00057244
0.000490955
0.000419361
0.000357804
0.000306015
0.000263404
0.000228653
0.000200602
0.000177736
0.000158427
0.000139993
0.000121264
0.000103978
9.02496e-05
8.07287e-05
7.65751e-05
7.07283e-05
8.65992e-05
2.03323e-05
0.000134635
0.0006597
0.000180445
0.000602553
0.0016478
0.00387943
0.0833101
0.00125582
0.00126117
0.00126067
0.00125615
0.0012438
0.00122381
0.00119702
0.00116239
0.00112064
0.00107289
0.00101953
0.000961858
0.000901209
0.000838676
0.000775348
0.000709729
0.00063825
0.000564582
0.00049686
0.000436098
0.000390592
0.000343877
0.000294681
0.000114351
1.4801e-05
7.66923e-06
3.43531e-06
2.07908e-07
0
0.0015135
0.00840756
0.0453985
0.00868339
0.111395
0.243541
2.28128
6.36776
10.2643
13.6363
0.00124441
0.00122868
0.00120583
0.00117564
0.00113689
0.00108596
0.00102734
0.000964454
0.000896056
0.000820452
0.000741286
0.000662484
0.000587057
0.000516796
0.000452912
0.000396186
0.000346883
0.000304846
0.000269607
0.000240246
0.00021573
0.000194769
0.000175929
0.000157183
0.000137705
0.000119173
0.000102987
8.94648e-05
7.81096e-05
6.86633e-05
6.05569e-05
5.31584e-05
4.22939e-05
2.99969e-05
1.66943e-05
7.61484e-05
0.000281046
0.000886218
0.00949252
0.00101585
0.00102033
0.00102104
0.00101845
0.00101034
0.000996273
0.000976638
0.000950827
0.000919067
0.0008822
0.000840924
0.000796234
0.000749519
0.000702074
0.000655045
0.000609993
0.000569166
0.000531115
0.000492257
0.000451962
0.000412435
0.000376011
0.000356107
0.000312746
0.000221018
0.000134868
5.14358e-05
2.57672e-06
4.31916e-06
3.73285e-07
0
0
0.0011182
0.0351641
0.0266178
0.157021
1.04596
5.23432
10.9402
0.00100752
0.00099623
0.000979792
0.000957172
0.000927818
0.000890149
0.000847832
0.000801683
0.000750876
0.000695156
0.000636599
0.000577416
0.000519372
0.000463762
0.000411553
0.000363623
0.000320435
0.000282253
0.000249085
0.00022054
0.00019606
0.000174834
0.000155808
0.000137535
0.000119228
0.000101891
8.6638e-05
7.38209e-05
6.3135e-05
5.4456e-05
4.7969e-05
4.3767e-05
4.14032e-05
3.81027e-05
2.74309e-05
8.2246e-06
1.45405e-06
7.85713e-08
0.000281701
0.000841977
0.000847722
0.000851148
0.000852518
0.000850177
0.000843811
0.00083362
0.00081893
0.000799707
0.000776337
0.000748789
0.000717651
0.000683481
0.000646839
0.000608399
0.000568942
0.00052799
0.000484462
0.000440334
0.000398719
0.000361747
0.000331316
0.000309066
0.000295093
0.00027274
0.000233467
0.000180403
0.000123195
7.40374e-05
5.88827e-06
3.52783e-06
1.30828e-07
0
0
0.00384211
0.0663638
0.121895
1.1902
6.55449
0.000833339
0.00082292
0.000808979
0.000790461
0.000767252
0.000738515
0.0007071
0.000672475
0.000634139
0.000592543
0.000548637
0.000503771
0.000459089
0.0004154
0.000373561
0.000334404
0.000298397
0.000265979
0.000237321
0.000212247
0.000190353
0.000171029
0.000153435
0.000136465
0.000119551
0.000103398
8.89239e-05
7.63353e-05
6.54214e-05
5.58955e-05
4.77023e-05
4.06943e-05
3.46926e-05
2.95102e-05
2.57866e-05
2.15127e-05
1.57437e-05
1.83007e-06
1.94401e-05
0.00070236
0.000707894
0.000711916
0.000714441
0.000714348
0.000711295
0.000705315
0.00069579
0.000682622
0.000665923
0.000645645
0.000622078
0.000595632
0.000566763
0.000536052
0.000503996
0.000471377
0.000439414
0.000408217
0.00037781
0.000348685
0.000322042
0.000298174
0.000277317
0.000256903
0.000232648
0.000206147
0.000177128
0.000149657
0.000107338
6.96942e-05
2.62829e-06
1.85704e-06
0
0
0
0.0382839
0.162595
2.60736
0.00069476
0.000685978
0.000674637
0.000659568
0.000641193
0.000618999
0.000595085
0.000568593
0.000539306
0.000507823
0.00047458
0.00044035
0.00040584
0.000371513
0.000338002
0.000305891
0.000275679
0.000247762
0.000222382
0.000199583
0.000179199
0.000160828
0.000143891
0.000127646
0.00011169
9.64809e-05
8.27768e-05
7.08061e-05
6.04496e-05
5.15365e-05
4.4006e-05
3.79132e-05
3.32607e-05
3.00297e-05
2.81712e-05
2.84465e-05
3.05122e-05
3.24666e-05
1.22086e-06
0.000592091
0.000597519
0.000602048
0.000605549
0.000607186
0.000606765
0.000604243
0.000599038
0.000591067
0.000580365
0.000566721
0.000550244
0.000531188
0.000509755
0.00048624
0.000460995
0.000434587
0.00040693
0.000378228
0.000349699
0.000322876
0.000298902
0.000277792
0.000257733
0.000236409
0.000212699
0.000188781
0.000167634
0.000150896
0.000136961
0.000122989
8.88834e-05
3.72266e-05
3.30362e-06
0
0
5.22208e-06
0.00301595
0.680106
0.000585153
0.000577514
0.000567957
0.000555428
0.000540632
0.000523319
0.000504678
0.000484049
0.000461458
0.000437333
0.000411893
0.00038563
0.000358847
0.000331846
0.000305063
0.000278936
0.000253833
0.000230169
0.000208201
0.000188043
0.00016967
0.000152843
0.000137152
0.000122106
0.000107404
9.33826e-05
8.06184e-05
6.93711e-05
5.9492e-05
5.08554e-05
4.33894e-05
3.70503e-05
3.17625e-05
2.76142e-05
2.45775e-05
2.39568e-05
2.35801e-05
3.9734e-05
1.64646e-05
0.000502716
0.000507787
0.000512355
0.000516204
0.000518658
0.00051966
0.000519058
0.000516453
0.000511675
0.000504682
0.000495234
0.000483417
0.000469291
0.000452913
0.000434564
0.000414503
0.000393005
0.000370585
0.000347744
0.000324946
0.00030291
0.000282232
0.000263126
0.000244495
0.000224275
0.000201561
0.000177967
0.000156749
0.000139736
0.000127347
0.000118081
0.00011249
9.84237e-05
5.71354e-05
3.78813e-06
0
0
0.0036008
0.175475
0.000496482
0.000489857
0.00048186
0.000471376
0.000459292
0.000445621
0.000430843
0.000414551
0.00039694
0.00037827
0.000358633
0.000338285
0.000317421
0.000296194
0.000274817
0.000253597
0.000232832
0.000212844
0.000193868
0.000176078
0.000159507
0.00014404
0.000129444
0.0001154
0.000101728
8.86959e-05
7.67281e-05
6.60856e-05
5.67089e-05
4.84912e-05
4.14007e-05
3.54589e-05
3.0638e-05
2.7025e-05
2.45467e-05
2.42489e-05
2.41277e-05
3.42667e-05
4.2683e-05
0.000429717
0.00043444
0.000438871
0.000442839
0.000445806
0.000447751
0.000448488
0.000447702
0.000445232
0.000441014
0.000434873
0.000426751
0.000416665
0.000404588
0.000390691
0.000375129
0.000358094
0.000339985
0.000320901
0.000301281
0.000281979
0.000263654
0.000246473
0.000229677
0.000211628
0.000191429
0.000170124
0.000150191
0.000133379
0.000119889
0.000108903
0.000101757
9.83582e-05
9.47731e-05
6.18876e-05
3.04025e-06
0
0.00100195
0.0607641
0.000424134
0.000418333
0.000411565
0.000402724
0.000392756
0.000381788
0.000369925
0.000356896
0.000343037
0.000328425
0.000313117
0.000297262
0.000280963
0.000264201
0.00024714
0.000229974
0.000212886
0.000196095
0.000179828
0.00016428
0.000149525
0.00013553
0.00012215
0.000109204
9.66318e-05
8.46176e-05
7.35276e-05
6.35535e-05
5.47039e-05
4.68917e-05
4.0104e-05
3.43291e-05
2.9546e-05
2.58249e-05
2.31715e-05
2.24864e-05
2.27376e-05
2.92291e-05
4.66864e-05
0.00036935
0.000373706
0.000377921
0.000381819
0.000385005
0.000387424
0.000388974
0.000389354
0.000388424
0.000386124
0.000382254
0.000376738
0.00036957
0.000360692
0.000350172
0.000338083
0.000324574
0.000309966
0.000294472
0.000278372
0.000262194
0.00024643
0.000231205
0.00021601
0.000199796
0.000181824
0.000162846
0.000144791
0.000129146
0.000116031
0.000104831
9.54973e-05
8.8989e-05
8.6561e-05
9.12084e-05
4.6577e-05
7.22696e-08
0.000318386
0.0201601
0.000364395
0.000359293
0.000353502
0.000346031
0.000337762
0.00032883
0.000319185
0.000308678
0.000297643
0.000286123
0.000274095
0.000261653
0.000248834
0.000235583
0.000221953
0.00020807
0.000194022
0.000180004
0.000166173
0.000152678
0.000139612
0.000127006
0.00011481
0.000102925
9.13656e-05
8.03e-05
7.00043e-05
6.0681e-05
5.23314e-05
4.49386e-05
3.84636e-05
3.2951e-05
2.83931e-05
2.48654e-05
2.23732e-05
2.16344e-05
2.19413e-05
2.6907e-05
4.29095e-05
0.000319047
0.000323019
0.000326992
0.000330727
0.000333941
0.000336625
0.000338674
0.000339806
0.00033994
0.000338975
0.000336754
0.000333219
0.000328284
0.000321931
0.000314113
0.000304913
0.000294374
0.00028275
0.000270194
0.000256829
0.000243102
0.000229478
0.000216072
0.00020251
0.000188074
0.000172172
0.000155369
0.000139175
0.000124865
0.000112655
0.000102116
9.29084e-05
8.517e-05
7.94597e-05
7.82151e-05
9.34464e-05
1.28828e-07
3.25917e-05
0.00511081
0.00031462
0.000310149
0.00030514
0.000298799
0.000291876
0.000284528
0.000276579
0.000268049
0.000259188
0.000250021
0.000240492
0.000230669
0.000220535
0.000210008
0.000199114
0.000187899
0.000176395
0.000164737
0.000153025
0.000141385
0.000129906
0.000118655
0.00010761
9.67904e-05
8.62381e-05
7.60923e-05
6.65827e-05
5.79002e-05
5.0072e-05
4.30934e-05
3.69426e-05
3.16689e-05
2.72631e-05
2.37862e-05
2.12923e-05
2.04295e-05
2.06103e-05
2.49121e-05
3.8602e-05
0.000276794
0.0002804
0.00028408
0.00028761
0.000290746
0.000293538
0.000295841
0.000297433
0.000298258
0.000298226
0.000297179
0.000295074
0.000291827
0.00028734
0.000281617
0.00027466
0.00026652
0.000257309
0.000247214
0.000236331
0.000224875
0.00021327
0.00020159
0.000189611
0.000176812
0.000162792
0.000147937
0.000133416
0.000120343
0.000109043
9.92133e-05
9.06657e-05
8.31622e-05
7.75385e-05
6.97908e-05
8.7545e-05
4.41747e-05
4.88997e-07
0.000372777
0.000272821
0.00026889
0.000264556
0.00025912
0.000253297
0.000247165
0.000240573
0.00023359
0.000226429
0.000219053
0.000211448
0.000203645
0.000195574
0.000187197
0.000178477
0.00016941
0.000160005
0.000150331
0.000140454
0.00013046
0.000120453
0.000110486
0.000100575
9.07607e-05
8.1143e-05
7.18748e-05
6.31277e-05
5.50587e-05
4.77415e-05
4.11523e-05
3.5331e-05
3.03031e-05
2.60696e-05
2.27118e-05
2.0274e-05
1.93474e-05
1.94149e-05
2.30475e-05
3.48081e-05
0.000241035
0.000244319
0.000247702
0.000250972
0.000253997
0.000256786
0.000259192
0.000261067
0.000262346
0.000262944
0.000262733
0.000261645
0.000259633
0.000256595
0.000252514
0.000247356
0.00024116
0.000233959
0.000225913
0.00021709
0.00020758
0.000197734
0.000187633
0.000177167
0.000165901
0.000153601
0.000140525
0.000127571
0.000115691
0.00010525
9.60845e-05
8.81046e-05
8.10776e-05
7.58806e-05
6.90747e-05
6.99819e-05
8.29221e-05
1.66714e-07
2.6421e-05
0.000237491
0.000234002
0.000230236
0.000225564
0.000220645
0.000215463
0.000209959
0.000204188
0.000198341
0.000192369
0.000186257
0.000180007
0.000173574
0.000166865
0.000159858
0.000152514
0.000144839
0.000136827
0.000128523
0.000119997
0.000111317
0.000102539
9.36976e-05
8.48638e-05
7.6154e-05
6.77142e-05
5.96953e-05
5.22333e-05
4.54082e-05
3.92319e-05
3.37271e-05
2.89309e-05
2.48751e-05
2.16154e-05
1.91982e-05
1.81817e-05
1.81477e-05
2.11947e-05
3.13778e-05
0.000210593
0.000213551
0.000216656
0.000219692
0.000222555
0.000225267
0.000227676
0.00022969
0.000231241
0.000232255
0.000232611
0.000232265
0.000231174
0.000229245
0.000226415
0.00022267
0.000218017
0.000212451
0.00020611
0.000199006
0.000191207
0.000182936
0.000174305
0.000165214
0.000155399
0.000144654
0.000133193
0.000121703
0.000110975
0.000101364
9.28465e-05
8.53506e-05
7.88106e-05
7.35142e-05
6.93991e-05
6.11782e-05
9.20599e-05
4.03935e-07
3.80295e-10
0.00020745
0.000204342
0.000201024
0.000197008
0.000192808
0.000188425
0.000183782
0.00017898
0.000174168
0.000169298
0.000164347
0.0001593
0.00015413
0.000148742
0.000143096
0.000137155
0.000130874
0.000124247
0.000117294
0.000110057
0.000102566
9.48802e-05
8.70345e-05
7.91227e-05
7.12691e-05
6.36087e-05
5.62813e-05
4.94054e-05
4.30552e-05
3.7281e-05
3.20926e-05
2.75315e-05
2.36563e-05
2.05008e-05
1.81251e-05
1.70248e-05
1.6898e-05
1.942e-05
2.82039e-05
0.000184537
0.00018722
0.000190036
0.000192841
0.000195523
0.000198101
0.000200489
0.000202538
0.000204245
0.000205497
0.000206249
0.000206458
0.000206024
0.00020489
0.000203023
0.000200396
0.000196973
0.000192728
0.000187786
0.000182134
0.00017579
0.000168886
0.000161575
0.000153764
0.000145283
0.000135958
0.000125954
0.00011582
0.000106183
9.74004e-05
8.95216e-05
8.25076e-05
7.6408e-05
7.1077e-05
6.80508e-05
5.95203e-05
7.79985e-05
2.93685e-05
6.07373e-07
0.000181722
0.00017898
0.000176058
0.000172567
0.000168974
0.000165219
0.000161271
0.000157269
0.000153264
0.000149263
0.000145221
0.00014114
0.000136952
0.00013261
0.00012804
0.000123208
0.000118065
0.000112589
0.000106789
0.000100649
9.4217e-05
8.75316e-05
8.06197e-05
7.35671e-05
6.65063e-05
5.95805e-05
5.29133e-05
4.66022e-05
4.07203e-05
3.53216e-05
3.04443e-05
2.61355e-05
2.24069e-05
1.93617e-05
1.70238e-05
1.58549e-05
1.56301e-05
1.77218e-05
2.52554e-05
0.000162129
0.00016455
0.000167119
0.000169686
0.000172172
0.000174614
0.00017691
0.000178942
0.000180711
0.00018213
0.000183131
0.000183687
0.000183729
0.000183206
0.000182073
0.000180293
0.000177836
0.000174687
0.000170871
0.000166429
0.000161315
0.000155616
0.000149465
0.000142842
0.000135555
0.000127519
0.000118835
0.000109941
0.000101332
9.33642e-05
8.61173e-05
7.95874e-05
7.38808e-05
6.88051e-05
6.55469e-05
5.99475e-05
6.37294e-05
5.98096e-05
7.31521e-06
0.000159615
0.00015717
0.000154595
0.000151557
0.000148461
0.00014522
0.000141856
0.00013848
0.00013514
0.000131827
0.000128508
0.000125171
0.000121772
0.000118232
0.000114519
0.000110588
0.000106364
0.000101846
9.69997e-05
9.18166e-05
8.63171e-05
8.05165e-05
7.44475e-05
6.82005e-05
6.18842e-05
5.56483e-05
4.96004e-05
4.38272e-05
3.8402e-05
3.33782e-05
2.88024e-05
2.4718e-05
2.11632e-05
1.82087e-05
1.59009e-05
1.4673e-05
1.43696e-05
1.60968e-05
2.25335e-05
0.000142781
0.000144947
0.000147285
0.000149639
0.00015193
0.000154224
0.000156397
0.000158382
0.000160138
0.000161632
0.000162792
0.000163592
0.000163977
0.000163902
0.000163333
0.000162203
0.000160501
0.000158201
0.0001553
0.000151853
0.000147792
0.000143142
0.000138019
0.000132431
0.000126236
0.000119342
0.000111863
0.000104088
9.64512e-05
8.92634e-05
8.26333e-05
7.6602e-05
7.12616e-05
6.65567e-05
6.28578e-05
5.95646e-05
5.62398e-05
6.43864e-05
3.02522e-05
0.000140523
0.000138347
0.000136062
0.000133421
0.000130726
0.000127924
0.00012504
0.000122167
0.000119367
0.000116602
0.00011385
0.000111103
0.000108321
0.000105429
0.000102398
9.91792e-05
9.57109e-05
9.1978e-05
8.79273e-05
8.3563e-05
7.88747e-05
7.38668e-05
6.85631e-05
6.30426e-05
5.74274e-05
5.1832e-05
4.63542e-05
4.10878e-05
3.60991e-05
3.14374e-05
2.71555e-05
2.32998e-05
1.99083e-05
1.70582e-05
1.47868e-05
1.34933e-05
1.31169e-05
1.45528e-05
2.00395e-05
0.000125996
0.000127952
0.000130077
0.000132213
0.000134324
0.000136461
0.000138506
0.000140402
0.000142127
0.000143637
0.00014488
0.000145833
0.000146451
0.000146698
0.000146522
0.000145903
0.000144789
0.000143166
0.000141014
0.00013837
0.000135198
0.000131441
0.000127228
0.000122548
0.000117332
0.00011147
0.000105046
9.82958e-05
9.15608e-05
8.51173e-05
7.90935e-05
7.35617e-05
6.85577e-05
6.42069e-05
6.03618e-05
5.79138e-05
5.32919e-05
5.79264e-05
4.69818e-05
0.000123977
0.000122027
0.000120007
0.000117694
0.000115346
0.00011291
0.000110416
0.00010797
0.000105589
0.00010327
0.000100972
9.86953e-05
9.63968e-05
9.40283e-05
9.1543e-05
8.88871e-05
8.60356e-05
8.2941e-05
7.95692e-05
7.58952e-05
7.18973e-05
6.75877e-05
6.29821e-05
5.81255e-05
5.31363e-05
4.81296e-05
4.31974e-05
3.84081e-05
3.38299e-05
2.95156e-05
2.55155e-05
2.18815e-05
1.86568e-05
1.59036e-05
1.36671e-05
1.23189e-05
1.18745e-05
1.30777e-05
1.77565e-05
0.000111388
0.000113153
0.00011507
0.000117018
0.000118966
0.000120935
0.00012284
0.000124638
0.000126305
0.0001278
0.000129074
0.000130115
0.000130888
0.000131346
0.000131463
0.000131217
0.000130565
0.000129478
0.000127932
0.000125948
0.000123485
0.000120498
0.000117068
0.000113201
0.000108831
0.000103894
9.84096e-05
9.25908e-05
8.66926e-05
8.09588e-05
7.55123e-05
7.04521e-05
6.58054e-05
6.1754e-05
5.8017e-05
5.557e-05
5.17701e-05
5.14239e-05
5.08423e-05
0.000109595
0.000107835
0.000106039
0.000104006
0.000101951
9.98256e-05
9.76642e-05
9.55665e-05
9.35367e-05
9.15687e-05
8.96444e-05
8.77446e-05
8.58334e-05
8.38709e-05
8.18146e-05
7.96336e-05
7.72766e-05
7.47086e-05
7.18919e-05
6.8792e-05
6.53984e-05
6.17016e-05
5.7696e-05
5.34427e-05
4.90355e-05
4.4571e-05
4.01331e-05
3.57942e-05
3.1606e-05
2.7627e-05
2.39005e-05
2.04778e-05
1.7413e-05
1.47456e-05
1.25497e-05
1.11564e-05
1.06605e-05
1.16799e-05
1.56794e-05
9.86338e-05
0.000100229
0.000101963
0.000103734
0.000105516
0.00010733
0.000109107
0.000110788
0.000112369
0.000113814
0.000115097
0.000116177
0.000117044
0.000117649
0.00011799
0.000118012
0.000117703
0.00011703
0.000115964
0.000114518
0.000112641
0.000110305
0.000107538
0.000104385
0.000100763
9.66205e-05
9.19874e-05
8.69942e-05
8.18612e-05
7.67827e-05
7.18936e-05
6.72906e-05
6.30095e-05
5.92129e-05
5.56931e-05
5.30551e-05
5.01223e-05
4.71813e-05
4.83192e-05
9.70301e-05
9.54651e-05
9.38593e-05
9.20667e-05
9.02518e-05
8.83991e-05
8.65165e-05
8.46957e-05
8.29585e-05
8.12822e-05
7.96491e-05
7.80522e-05
7.64528e-05
7.48208e-05
7.31216e-05
7.13074e-05
6.93495e-05
6.7213e-05
6.48491e-05
6.22389e-05
5.93633e-05
5.61937e-05
5.27343e-05
4.90174e-05
4.51262e-05
4.1161e-05
3.71857e-05
3.32619e-05
2.94396e-05
2.57748e-05
2.23125e-05
1.90982e-05
1.61779e-05
1.36101e-05
1.14593e-05
1.00255e-05
9.47297e-06
1.03601e-05
1.37987e-05
8.74772e-05
8.89062e-05
9.04774e-05
9.20918e-05
9.37169e-05
9.53783e-05
9.70194e-05
9.85923e-05
0.000100084
0.00010147
0.000102707
0.000103795
0.000104714
0.000105424
0.000105907
0.000106135
0.000106085
0.000105723
0.000105037
0.000104017
0.000102629
0.000100831
9.86341e-05
9.6081e-05
9.3116e-05
8.96721e-05
8.57719e-05
8.15246e-05
7.70846e-05
7.26202e-05
6.82625e-05
6.40925e-05
6.01672e-05
5.66181e-05
5.33285e-05
5.05824e-05
4.80466e-05
4.43855e-05
4.44386e-05
8.60352e-05
8.46315e-05
8.32078e-05
8.16247e-05
8.00151e-05
7.83828e-05
7.67441e-05
7.51602e-05
7.36599e-05
7.22185e-05
7.08305e-05
6.94793e-05
6.81372e-05
6.67681e-05
6.53394e-05
6.38197e-05
6.21942e-05
6.04071e-05
5.84244e-05
5.62308e-05
5.37894e-05
5.10814e-05
4.80898e-05
4.48486e-05
4.14262e-05
3.7905e-05
3.43552e-05
3.08154e-05
2.73403e-05
2.39743e-05
2.07617e-05
1.77434e-05
1.49747e-05
1.24987e-05
1.03831e-05
8.91572e-06
8.31935e-06
9.11269e-06
1.20932e-05
7.76798e-05
7.89696e-05
8.03896e-05
8.18503e-05
8.33327e-05
8.48619e-05
8.63752e-05
8.78301e-05
8.92253e-05
9.05351e-05
9.17304e-05
9.28027e-05
9.37301e-05
9.44976e-05
9.50764e-05
9.5451e-05
9.55926e-05
9.54748e-05
9.50732e-05
9.43922e-05
9.33973e-05
9.20452e-05
9.0328e-05
8.82856e-05
8.58825e-05
8.3051e-05
7.97961e-05
7.62032e-05
7.23878e-05
6.84938e-05
6.46277e-05
6.08745e-05
5.7299e-05
5.39969e-05
5.09121e-05
4.81733e-05
4.57198e-05
4.21041e-05
4.09057e-05
7.63934e-05
7.51348e-05
7.38576e-05
7.24617e-05
7.10406e-05
6.95896e-05
6.81554e-05
6.6782e-05
6.54776e-05
6.42289e-05
6.30383e-05
6.18876e-05
6.07434e-05
5.9582e-05
5.83817e-05
5.71202e-05
5.57524e-05
5.42474e-05
5.25877e-05
5.0735e-05
4.86598e-05
4.63418e-05
4.37599e-05
4.09405e-05
3.79396e-05
3.48258e-05
3.16541e-05
2.84705e-05
2.53144e-05
2.223e-05
1.92529e-05
1.64311e-05
1.3803e-05
1.142e-05
9.3376e-06
7.8419e-06
7.20903e-06
7.94297e-06
1.05703e-05
6.90632e-05
7.02275e-05
7.15097e-05
7.28382e-05
7.41876e-05
7.55783e-05
7.69683e-05
7.8313e-05
7.96111e-05
8.08405e-05
8.19789e-05
8.30186e-05
8.39404e-05
8.47286e-05
8.53648e-05
8.5836e-05
8.61156e-05
8.61828e-05
8.60092e-05
8.55873e-05
8.49084e-05
8.39228e-05
8.26038e-05
8.10005e-05
7.90759e-05
7.67642e-05
7.40702e-05
7.10476e-05
6.77946e-05
6.44193e-05
6.1013e-05
5.76551e-05
5.44133e-05
5.13529e-05
4.84586e-05
4.57891e-05
4.33187e-05
3.98983e-05
3.78873e-05
6.79087e-05
6.67875e-05
6.56362e-05
6.4397e-05
6.314e-05
6.18627e-05
6.0596e-05
5.93886e-05
5.8253e-05
5.71692e-05
5.61394e-05
5.51451e-05
5.41683e-05
5.31851e-05
5.21674e-05
5.11017e-05
4.99473e-05
4.86821e-05
4.72828e-05
4.57121e-05
4.39567e-05
4.19687e-05
3.97464e-05
3.72928e-05
3.46595e-05
3.19095e-05
2.9092e-05
2.62338e-05
2.33742e-05
2.05522e-05
1.78035e-05
1.51617e-05
1.26768e-05
1.03824e-05
8.33876e-06
6.81003e-06
6.14566e-06
6.85432e-06
9.21211e-06
6.14702e-05
6.25188e-05
6.36783e-05
6.48792e-05
6.61055e-05
6.73761e-05
6.86439e-05
6.98834e-05
7.10908e-05
7.22396e-05
7.33083e-05
7.43001e-05
7.5204e-05
7.59901e-05
7.66571e-05
7.71894e-05
7.75622e-05
7.77596e-05
7.77636e-05
7.75473e-05
7.71136e-05
7.64253e-05
7.54389e-05
7.41984e-05
7.26705e-05
7.08066e-05
6.8599e-05
6.60767e-05
6.33282e-05
6.04177e-05
5.74323e-05
5.44495e-05
5.15184e-05
4.86993e-05
4.5985e-05
4.34159e-05
4.09394e-05
3.76752e-05
3.52136e-05
6.04363e-05
5.94275e-05
5.84031e-05
5.72979e-05
5.61779e-05
5.50457e-05
5.39276e-05
5.28641e-05
5.18669e-05
5.09266e-05
5.00281e-05
4.91643e-05
4.83309e-05
4.74842e-05
4.66146e-05
4.57097e-05
4.47332e-05
4.36626e-05
4.24787e-05
4.11534e-05
3.96518e-05
3.7954e-05
3.60354e-05
3.39038e-05
3.16019e-05
2.91796e-05
2.66744e-05
2.41103e-05
2.15257e-05
1.89503e-05
1.64157e-05
1.39516e-05
1.15978e-05
9.39495e-06
7.38904e-06
5.83361e-06
5.13507e-06
5.84748e-06
8.00635e-06
5.47626e-05
5.57079e-05
5.67583e-05
5.78424e-05
5.89552e-05
6.01137e-05
6.12724e-05
6.24127e-05
6.35202e-05
6.45888e-05
6.55966e-05
6.65298e-05
6.7393e-05
6.8169e-05
6.88457e-05
6.94123e-05
6.98457e-05
7.01382e-05
7.02668e-05
7.02155e-05
6.99744e-05
6.95146e-05
6.88069e-05
6.7858e-05
6.66707e-05
6.51841e-05
6.33921e-05
6.13041e-05
5.89892e-05
5.64982e-05
5.39019e-05
5.12689e-05
4.86257e-05
4.60483e-05
4.35132e-05
4.10554e-05
3.86066e-05
3.54638e-05
3.27623e-05
5.3838e-05
5.29308e-05
5.20153e-05
5.10369e-05
5.00359e-05
4.90294e-05
4.80354e-05
4.71029e-05
4.62211e-05
4.53917e-05
4.46133e-05
4.38622e-05
4.31303e-05
4.23993e-05
4.16632e-05
4.0891e-05
4.00555e-05
3.91435e-05
3.81437e-05
3.70063e-05
3.57293e-05
3.42763e-05
3.26185e-05
3.07742e-05
2.87571e-05
2.66247e-05
2.43991e-05
2.21067e-05
1.97771e-05
1.74312e-05
1.50975e-05
1.28084e-05
1.05828e-05
8.46504e-06
6.50392e-06
4.91656e-06
4.18272e-06
4.9252e-06
6.9445e-06
4.88313e-05
4.96866e-05
5.06281e-05
5.16106e-05
5.26207e-05
5.36733e-05
5.47316e-05
5.57721e-05
5.67915e-05
5.77772e-05
5.87172e-05
5.95988e-05
6.04181e-05
6.11658e-05
6.18336e-05
6.24163e-05
6.2889e-05
6.32393e-05
6.34624e-05
6.35339e-05
6.34447e-05
6.31635e-05
6.26738e-05
6.19782e-05
6.10674e-05
5.98981e-05
5.84462e-05
5.67385e-05
5.48064e-05
5.26877e-05
5.04456e-05
4.81253e-05
4.57614e-05
4.341e-05
4.1056e-05
3.87118e-05
3.63177e-05
3.32933e-05
3.04731e-05
4.80032e-05
4.71928e-05
4.63636e-05
4.54963e-05
4.46026e-05
4.37084e-05
4.28253e-05
4.1995e-05
4.12187e-05
4.04891e-05
3.98033e-05
3.91442e-05
3.85046e-05
3.78763e-05
3.72404e-05
3.65687e-05
3.5854e-05
3.50848e-05
3.42214e-05
3.32591e-05
3.21686e-05
3.09134e-05
2.94904e-05
2.78858e-05
2.61265e-05
2.42481e-05
2.22742e-05
2.02322e-05
1.81302e-05
1.59955e-05
1.38558e-05
1.1728e-05
9.64066e-06
7.61074e-06
5.69258e-06
4.06723e-06
3.29348e-06
4.09447e-06
6.01207e-06
4.35776e-05
4.4346e-05
4.51948e-05
4.60848e-05
4.69961e-05
4.79521e-05
4.89183e-05
4.98687e-05
5.08065e-05
5.17145e-05
5.25807e-05
5.34036e-05
5.41792e-05
5.48963e-05
5.55459e-05
5.61201e-05
5.6615e-05
5.7008e-05
5.72864e-05
5.7448e-05
5.74753e-05
5.73439e-05
5.7019e-05
5.65281e-05
5.58407e-05
5.49367e-05
5.37808e-05
5.23923e-05
5.07873e-05
4.89993e-05
4.70741e-05
4.50378e-05
4.29362e-05
4.07994e-05
3.86213e-05
3.63987e-05
3.40833e-05
3.11896e-05
2.8335e-05
4.28298e-05
4.21117e-05
4.13632e-05
4.05856e-05
3.97965e-05
3.8995e-05
3.82133e-05
3.7473e-05
3.6785e-05
3.61408e-05
3.55284e-05
3.49535e-05
3.43948e-05
3.3845e-05
3.32908e-05
3.27076e-05
3.20977e-05
3.14367e-05
3.06977e-05
2.98763e-05
2.89346e-05
2.78606e-05
2.66334e-05
2.5239e-05
2.37009e-05
2.20461e-05
2.03016e-05
1.84797e-05
1.65907e-05
1.46547e-05
1.26932e-05
1.07224e-05
8.76736e-06
6.8362e-06
4.96526e-06
3.30721e-06
2.46593e-06
3.36162e-06
5.21682e-06
3.89185e-05
3.96076e-05
4.03709e-05
4.1171e-05
4.20023e-05
4.28713e-05
4.3746e-05
4.46148e-05
4.54717e-05
4.63021e-05
4.7106e-05
4.78702e-05
4.85941e-05
4.92744e-05
4.98958e-05
5.04595e-05
5.09545e-05
5.13754e-05
5.16974e-05
5.19113e-05
5.20263e-05
5.20044e-05
5.18196e-05
5.14856e-05
5.09824e-05
5.02904e-05
4.93827e-05
4.82653e-05
4.69405e-05
4.54457e-05
4.37952e-05
4.20244e-05
4.01611e-05
3.82303e-05
3.62222e-05
3.4131e-05
3.19075e-05
2.91541e-05
2.63324e-05
3.82442e-05
3.75975e-05
3.69344e-05
3.62321e-05
3.55266e-05
3.48178e-05
3.41192e-05
3.3462e-05
3.28491e-05
3.22731e-05
3.17325e-05
3.12248e-05
3.07348e-05
3.0249e-05
2.97636e-05
2.92631e-05
2.87345e-05
2.81567e-05
2.75297e-05
2.68181e-05
2.60142e-05
2.50922e-05
2.40276e-05
2.28135e-05
2.14713e-05
2.00178e-05
1.84774e-05
1.68545e-05
1.51597e-05
1.34094e-05
1.16174e-05
9.8014e-06
7.97321e-06
6.14309e-06
4.3318e-06
2.63975e-06
1.70518e-06
2.74017e-06
4.54799e-06
3.47756e-05
3.5393e-05
3.60819e-05
3.68099e-05
3.7562e-05
3.83461e-05
3.91384e-05
3.9928e-05
4.07126e-05
4.14772e-05
4.22102e-05
4.29185e-05
4.35936e-05
4.42332e-05
4.48249e-05
4.53663e-05
4.58547e-05
4.62784e-05
4.663e-05
4.6888e-05
4.70556e-05
4.71168e-05
4.70426e-05
4.68325e-05
4.64825e-05
4.59629e-05
4.52522e-05
4.43609e-05
4.32826e-05
4.20336e-05
4.06286e-05
3.90997e-05
3.7452e-05
3.57127e-05
3.38717e-05
3.19148e-05
2.97974e-05
2.71959e-05
2.44564e-05
3.41744e-05
3.35938e-05
3.30014e-05
3.23745e-05
3.17421e-05
3.11061e-05
3.04854e-05
2.99032e-05
2.93538e-05
2.88391e-05
2.83635e-05
2.7909e-05
2.74746e-05
2.7047e-05
2.66211e-05
2.61857e-05
2.57214e-05
2.52255e-05
2.46805e-05
2.40715e-05
2.33811e-05
2.25815e-05
2.16627e-05
2.06088e-05
1.94342e-05
1.81611e-05
1.67974e-05
1.53516e-05
1.38366e-05
1.2261e-05
1.06309e-05
8.96095e-06
7.26509e-06
5.54576e-06
3.80703e-06
2.09948e-06
1.01403e-06
2.24831e-06
3.99381e-06
3.10897e-05
3.16467e-05
3.22713e-05
3.29253e-05
3.36019e-05
3.43109e-05
3.50332e-05
3.57512e-05
3.64637e-05
3.71629e-05
3.78372e-05
3.84876e-05
3.91136e-05
3.97076e-05
4.027e-05
4.07873e-05
4.12595e-05
4.16784e-05
4.2039e-05
4.23271e-05
4.25368e-05
4.26524e-05
4.26596e-05
4.25454e-05
4.23128e-05
4.19311e-05
4.13961e-05
4.06855e-05
3.98114e-05
3.87738e-05
3.75898e-05
3.62675e-05