/*--------------------------------*- C++ -*----------------------------------*\
| =========                 |                                                 |
| \\      /  F ield         | OpenFOAM: The Open Source CFD Toolbox           |
|  \\    /   O peration     | Version:  2506                                  |
|   \\  /    A nd           | Website:  www.openfoam.com                      |
|    \\/     M anipulation  |                                                 |
\*---------------------------------------------------------------------------*/
FoamFile
{
    version     2.0;
    format      ascii;
    arch        "LSB;label=32;scalar=64";
    class       volScalarField;
    location    "450";
    object      static(p)_coeff;
}
// * * * * * * * * * * * * * * * * * * * * * * * * * * * * * * * * * * * * * //

dimensions      [0 0 0 0 0 0 0];

internalField   nonuniform List<scalar> 
10720
(
-0.184205
-0.395059
-0.643072
-0.8875
-1.11336
-1.34345
-1.54759
-1.71898
-1.86786
-1.98436
-2.07307
-2.13839
-2.18367
-2.21106
-2.22108
-2.21181
-2.18594
-2.14035
-2.07927
-2.00287
-1.9211
-1.84299
-1.77612
-1.69638
-1.57736
-1.42629
-1.27138
-1.1365
-1.02041
-0.911222
-0.803284
-0.696325
-0.590473
-0.484635
-0.37762
-0.266369
-0.152491
-0.0204719
0.0769082
0.0268891
0.219272
0.424363
0.615836
0.779461
0.90344
0.97662
1.00113
0.994027
0.955856
0.893655
0.824015
0.75437
0.686981
0.623739
0.564251
0.508676
0.45574
0.404646
0.353936
0.303464
0.252307
0.200742
0.149987
0.105565
0.0705562
0.0418225
0.0185109
0.00116869
-0.0103067
-0.0166496
-0.0182984
-0.0154978
-0.00826624
0.00342197
0.0206126
0.0450034
0.0861879
0.15626
0.127803
-0.0323781
-0.211838
-0.402439
-0.598305
-0.798773
-0.993338
-1.17585
-1.34429
-1.49346
-1.62274
-1.73214
-1.8214
-1.8905
-1.93891
-1.96572
-1.97317
-1.96091
-1.93205
-1.88821
-1.83722
-1.78606
-1.73793
-1.67166
-1.56296
-1.41789
-1.26661
-1.13333
-1.0178
-0.908844
-0.800989
-0.694142
-0.588503
-0.482946
-0.376244
-0.265281
-0.151637
-0.0195716
0.0759925
0.27194
0.409337
0.546383
0.678578
0.795073
0.888145
0.948508
0.974224
0.97
0.938381
0.887556
0.827816
0.764927
0.701667
0.640129
0.581052
0.524811
0.470878
0.41866
0.367187
0.316168
0.264992
0.213901
0.164154
0.120105
0.0844975
0.0553112
0.031321
0.0124201
-0.00109516
-0.00926286
-0.0123626
-0.0107006
-0.00437386
0.00661396
0.0232814
0.0472795
0.0882315
0.15555
0.168558
0.0246393
-0.13741
-0.316333
-0.501838
-0.691974
-0.882111
-1.06438
-1.2341
-1.38832
-1.52333
-1.6375
-1.72992
-1.80115
-1.85189
-1.88337
-1.89568
-1.889
-1.86525
-1.82656
-1.77845
-1.72691
-1.67538
-1.61066
-1.51253
-1.38209
-1.24338
-1.11757
-1.00621
-0.900287
-0.79494
-0.690004
-0.585607
-0.480795
-0.374591
-0.264022
-0.15069
-0.0188335
0.0763539
0.298426
0.424599
0.550092
0.668906
0.771543
0.853212
0.90769
0.934065
0.934536
0.911056
0.869785
0.81768
0.760008
0.700224
0.640723
0.5828
0.527041
0.473345
0.421284
0.370145
0.319528
0.269024
0.218815
0.170033
0.126117
0.0897394
0.059803
0.0352576
0.0160614
0.00247353
-0.00569377
-0.0089075
-0.00751655
-0.00156298
0.00904401
0.0253757
0.0491127
0.0896672
0.154378
0.235428
0.114782
-0.0230422
-0.17461
-0.33374
-0.500223
-0.669142
-0.835288
-0.994743
-1.14409
-1.28001
-1.40034
-1.50372
-1.58969
-1.6579
-1.7087
-1.74075
-1.75395
-1.7492
-1.72832
-1.69513
-1.65421
-1.60801
-1.54807
-1.45983
-1.34311
-1.21629
-1.09774
-0.990572
-0.887943
-0.785525
-0.683033
-0.580632
-0.477415
-0.372367
-0.262602
-0.149805
-0.0185397
0.076963
0.343492
0.447274
0.55137
0.651795
0.739699
0.811335
0.861347
0.888301
0.892925
0.876588
0.844014
0.800356
0.749936
0.696009
0.640904
0.586059
0.53228
0.479816
0.428507
0.377921
0.327762
0.277809
0.228272
0.180214
0.136473
0.0995612
0.068985
0.0437874
0.0238391
0.00932296
7.28421e-05
-0.00422017
-0.00378055
0.00140722
0.0114462
0.0273761
0.0508209
0.0908634
0.153063
0.253547
0.146129
0.02284
-0.113731
-0.257509
-0.409709
-0.566271
-0.722428
-0.875189
-1.02114
-1.15687
-1.28
-1.38852
-1.48095
-1.55641
-1.61398
-1.65291
-1.67323
-1.67564
-1.66197
-1.63524
-1.59924
-1.55591
-1.49919
-1.41782
-1.31077
-1.19247
-1.07921
-0.97515
-0.875118
-0.775184
-0.674934
-0.574479
-0.472942
-0.369347
-0.260829
-0.148944
-0.018664
0.0771517
0.350002
0.442139
0.534806
0.624195
0.702492
0.767118
0.813947
0.84126
0.849145
0.838843
0.813764
0.77779
0.734307
0.686153
0.635553
0.584004
0.532505
0.481579
0.431328
0.381586
0.332178
0.283023
0.234369
0.187196
0.143848
0.106611
0.0754618
0.0496401
0.0290308
0.013835
0.00397399
-0.000805618
-0.000746115
0.004122
0.0138818
0.0295547
0.0527272
0.0921506
0.151723
0.264762
0.169661
0.0599337
-0.0615188
-0.189418
-0.325834
-0.466979
-0.609066
-0.749904
-0.88637
-1.0156
-1.13531
-1.24334
-1.33791
-1.41775
-1.48176
-1.52959
-1.56064
-1.57495
-1.57358
-1.55854
-1.53246
-1.49655
-1.44644
-1.37353
-1.27657
-1.16725
-1.06001
-0.959665
-0.862444
-0.764932
-0.666764
-0.568144
-0.468242
-0.366087
-0.258901
-0.14817
-0.0192949
0.0768136
0.350165
0.431438
0.51377
0.593779
0.664244
0.723259
0.767479
0.794895
0.805233
0.799723
0.780869
0.751664
0.714755
0.672509
0.626919
0.579401
0.531002
0.482399
0.43389
0.385514
0.337254
0.28915
0.241503
0.195244
0.152372
0.114965
0.0833549
0.0570108
0.0358326
0.0200102
0.00950251
0.00406252
0.00346246
0.00769251
0.0168769
0.0320518
0.0547655
0.0933932
0.150266
0.264524
0.178694
0.0794035
-0.0305975
-0.146208
-0.270191
-0.399183
-0.529869
-0.66079
-0.789166
-0.912517
-1.02881
-1.13584
-1.23169
-1.31481
-1.38388
-1.43768
-1.47545
-1.49672
-1.50232
-1.49388
-1.47346
-1.442
-1.39655
-1.33065
-1.24281
-1.14208
-1.04088
-0.944356
-0.850006
-0.754941
-0.658814
-0.561885
-0.463486
-0.362783
-0.257038
-0.147669
-0.020543
0.0758706
0.341679
0.414871
0.489394
0.562116
0.62641
0.680927
0.722922
0.750193
0.762347
0.76059
0.74683
0.723413
0.692421
0.655758
0.615135
0.571811
0.526787
0.480825
0.434363
0.387617
0.340712
0.293814
0.247281
0.202004
0.159716
0.122308
0.0903593
0.0635615
0.0418465
0.025403
0.014232
0.00814172
0.00693935
0.0106412
0.0193849
0.0341877
0.0565298
0.0943483
0.148588
0.259555
0.181646
0.0913316
-0.00863571
-0.113418
-0.226147
-0.343726
-0.463267
-0.583817
-0.703013
-0.818703
-0.929203
-1.03247
-1.12662
-1.20999
-1.28109
-1.33855
-1.38164
-1.40979
-1.42317
-1.42268
-1.40959
-1.38437
-1.34485
-1.28634
-1.20743
-1.11517
-1.02019
-0.927812
-0.836622
-0.744272
-0.65044
-0.555407
-0.458612
-0.359361
-0.255123
-0.147388
-0.0223608
0.0741699
0.329694
0.396089
0.464066
0.530727
0.58989
0.640676
0.680672
0.707595
0.721076
0.722218
0.712564
0.694009
0.668211
0.636692
0.600869
0.561802
0.52041
0.477447
0.433423
0.388673
0.343445
0.298
0.25276
0.20858
0.167012
0.129782
0.0976389
0.0704879
0.0483144
0.0313142
0.0195346
0.0128317
0.0110364
0.0141763
0.0224073
0.0367326
0.0585713
0.0953806
0.146905
0.250989
0.179651
0.0968557
0.00527988
-0.0904061
-0.193523
-0.301272
-0.411049
-0.522324
-0.633033
-0.741388
-0.846025
-0.945101
-1.03685
-1.11965
-1.19192
-1.25218
-1.29936
-1.33261
-1.35161
-1.35686
-1.34923
-1.32899
-1.2946
-1.2426
-1.17177
-1.08744
-0.9986
-0.910476
-0.822563
-0.733035
-0.641605
-0.548589
-0.453524
-0.355812
-0.253107
-0.147141
-0.0244684
0.0716554
0.315307
0.376096
0.43864
0.500223
0.555055
0.60268
0.640851
0.667285
0.681696
0.685071
0.678708
0.664194
0.642871
0.615963
0.584625
0.549707
0.512007
0.472218
0.430864
0.388348
0.345015
0.301207
0.257387
0.214399
0.173658
0.136753
0.104544
0.0771274
0.0545561
0.03704
0.0246707
0.0173542
0.0149573
0.0175308
0.025251
0.0391007
0.0604244
0.0961706
0.145045
0.240495
0.174796
0.0984925
0.0142002
-0.0735919
-0.168279
-0.267257
-0.368178
-0.47081
-0.573344
-0.674316
-0.772632
-0.866662
-0.954868
-1.03569
-1.10754
-1.16891
-1.21859
-1.25569
-1.27957
-1.29025
-1.28811
-1.27312
-1.24409
-1.19852
-1.13535
-1.05866
-0.975978
-0.892283
-0.807801
-0.721207
-0.632288
-0.541393
-0.448162
-0.352094
-0.251001
-0.146845
-0.0266946
0.0684736
0.299834
0.355844
0.413747
0.470972
0.522087
0.566949
0.603443
0.629291
0.644311
0.649393
0.64566
0.634474
0.616966
0.594128
0.566887
0.535915
0.501861
0.465335
0.426827
0.386762
0.345539
0.303558
0.261319
0.219647
0.179864
0.143447
0.111325
0.0837542
0.0608708
0.0429051
0.0299929
0.0220953
0.0191131
0.0211162
0.0283028
0.0416291
0.0623609
0.0969042
0.143095
0.228861
0.168031
0.0973511
0.0193754
-0.0615537
-0.14887
-0.240128
-0.33319
-0.427998
-0.522986
-0.616966
-0.709094
-0.797942
-0.882173
-0.960378
-1.03104
-1.09266
-1.14395
-1.18384
-1.21149
-1.22646
-1.22886
-1.21847
-1.19436
-1.15469
-1.09859
-1.02912
-0.952481
-0.873302
-0.792367
-0.708804
-0.622503
-0.533827
-0.442527
-0.348204
-0.24883
-0.146487
-0.0290666
0.0648186
0.283897
0.335799
0.389688
0.443136
0.491012
0.533422
0.568345
0.593555
0.608935
0.61531
0.613668
0.605217
0.590934
0.571637
0.548078
0.52078
0.49024
0.456964
0.421384
0.383911
0.344959
0.304963
0.264439
0.224193
0.185485
0.149702
0.117805
0.090189
0.0670728
0.0487176
0.0353025
0.0268433
0.023283
0.0247131
0.0313559
0.0441361
0.0642333
0.0974952
0.141041
0.21669
0.160127
0.0943897
0.0219699
-0.0529346
-0.133739
-0.218127
-0.304129
-0.391832
-0.479855
-0.567215
-0.653291
-0.736854
-0.816778
-0.891795
-0.960491
-1.02144
-1.07332
-1.11499
-1.1455
-1.16407
-1.17051
-1.16444
-1.14505
-1.11096
-1.06146
-0.998827
-0.928111
-0.853529
-0.776255
-0.69584
-0.612257
-0.525906
-0.436635
-0.344158
-0.24662
-0.14612
-0.0316315
0.060769
0.267966
0.316283
0.366652
0.416767
0.461794
0.501988
0.53543
0.559968
0.575515
0.582853
0.582877
0.576665
0.565094
0.548853
0.528568
0.504624
0.477406
0.447298
0.414661
0.379862
0.343306
0.305431
0.266747
0.228046
0.190533
0.155527
0.124001
0.0964581
0.073202
0.0545306
0.0406666
0.0316806
0.0275609
0.0284193
0.0345027
0.0466994
0.0660994
0.0979811
0.138896
0.204364
0.151566
0.0902088
0.0227103
-0.0468656
-0.121886
-0.200153
-0.279819
-0.361097
-0.442752
-0.523953
-0.604271
-0.682654
-0.758156
-0.82968
-0.89595
-0.955619
-1.00739
-1.05004
-1.08259
-1.104
-1.11382
-1.11155
-1.09648
-1.06755
-1.02413
-0.967915
-0.902955
-0.833004
-0.759484
-0.682305
-0.601541
-0.517621
-0.430485
-0.339955
-0.244369
-0.145808
-0.0343912
0.0563414
0.252307
0.297474
0.344714
0.391859
0.434345
0.472525
0.504565
0.528408
0.543975
0.552021
0.55336
0.54898
0.539677
0.526062
0.508653
0.487743
0.463607
0.436531
0.406793
0.374694
0.340608
0.304951
0.268215
0.231165
0.194961
0.160865
0.129848
0.102497
0.0791949
0.0602819
0.0460235
0.036546
0.0318853
0.0321749
0.0376874
0.0492722
0.0679244
0.0983494
0.136668
0.192138
0.142695
0.0852532
0.0221517
-0.0426714
-0.112524
-0.185308
-0.259273
-0.334731
-0.410558
-0.486058
-0.560933
-0.634302
-0.705376
-0.773238
-0.836737
-0.894622
-0.945663
-0.988602
-1.02246
-1.04604
-1.05868
-1.05979
-1.04867
-1.02449
-0.9867
-0.936488
-0.877082
-0.811758
-0.742065
-0.668205
-0.590354
-0.508966
-0.424067
-0.335589
-0.242067
-0.145572
-0.0373366
0.051579
0.237104
0.279459
0.323908
0.368377
0.40858
0.444902
0.475607
0.498753
0.514228
0.522782
0.525154
0.522268
0.514861
0.503485
0.488589
0.47039
0.449081
0.424866
0.397928
0.36851
0.336923
0.303546
0.268845
0.23354
0.19875
0.165689
0.135318
0.10828
0.0850314
0.065958
0.0513684
0.0414418
0.0362647
0.0359923
0.0409242
0.0518644
0.0697141
0.0986109
0.134369
0.180178
0.133752
0.0798332
0.0206888
-0.0398727
-0.105083
-0.172924
-0.241751
-0.311926
-0.38242
-0.452652
-0.522433
-0.591023
-0.657784
-0.721922
-0.78244
-0.838195
-0.888038
-0.930732
-0.965279
-0.990445
-1.00536
-1.00936
-1.00179
-0.981932
-0.949286
-0.904664
-0.850586
-0.789846
-0.724025
-0.653549
-0.578697
-0.499936
-0.417382
-0.331057
-0.239711
-0.145399
-0.0404604
0.0465196
0.222468
0.262294
0.304221
0.346267
0.384384
0.418991
0.44844
0.470869
0.486176
0.49507
0.498256
0.496582
0.49076
0.481292
0.46858
0.452788
0.434044
0.412484
0.388218
0.361408
0.332311
0.301251
0.268645
0.235163
0.20188
0.16997
0.14037
0.113765
0.090672
0.0715229
0.056668
0.0463392
0.0406734
0.0398496
0.044192
0.0544599
0.0714572
0.0987667
0.13201
0.168592
0.124902
0.0741743
0.0186141
-0.038103
-0.0991131
-0.162482
-0.226655
-0.292023
-0.357642
-0.423023
-0.488066
-0.552133
-0.614715
-0.675156
-0.732579
-0.785969
-0.834256
-0.876263
-0.910967
-0.937189
-0.95388
-0.960331
-0.955897
-0.939951
-0.912003
-0.87256
-0.823554
-0.767319
-0.705388
-0.638354
-0.566573
-0.490533
-0.410422
-0.32636
-0.237298
-0.145279
-0.0437428
0.041181
0.208461
0.245999
0.285627
0.325461
0.361671
0.394678
0.422934
0.444654
0.459721
0.468831
0.472647
0.47196
0.467459
0.459611
0.448786
0.435114
0.418684
0.399564
0.377806
0.353507
0.326854
0.29811
0.267632
0.236036
0.204344
0.173685
0.144975
0.118919
0.0960854
0.0769482
0.0618992
0.0512202
0.0450986
0.0437371
0.0474844
0.0570528
0.07315
0.0988241
0.129603
0.157456
0.116255
0.0684334
0.0161415
-0.0370888
-0.0942803
-0.15359
-0.213528
-0.274515
-0.335677
-0.396594
-0.457224
-0.517038
-0.57563
-0.632456
-0.686759
-0.737631
-0.784111
-0.82508
-0.859519
-0.886331
-0.904354
-0.912825
-0.911121
-0.89866
-0.874964
-0.840293
-0.796085
-0.744245
-0.6862
-0.622639
-0.55399
-0.48076
-0.403193
-0.321498
-0.234828
-0.145206
-0.04716
0.0355823
0.195112
0.23057
0.268094
0.305895
0.340342
0.371855
0.398975
0.419988
0.434765
0.443997
0.448292
0.448404
0.445006
0.438537
0.429338
0.417527
0.403164
0.386269
0.366844
0.34493
0.32064
0.294182
0.265843
0.236171
0.206134
0.176817
0.149105
0.12371
0.101237
0.0822016
0.0670332
0.0560601
0.0495191
0.0476376
0.0507872
0.059632
0.0747863
0.0987892
0.127159
0.146809
0.107886
0.0627357
0.0134276
-0.0366137
-0.0903274
-0.145928
-0.202006
-0.258987
-0.316064
-0.372864
-0.429412
-0.485244
-0.54005
-0.59338
-0.644583
-0.69287
-0.737359
-0.777021
-0.810853
-0.837855
-0.856806
-0.866904
-0.867534
-0.858155
-0.838287
-0.807987
-0.768284
-0.720698
-0.666501
-0.606433
-0.54097
-0.47062
-0.395689
-0.316463
-0.232296
-0.145176
-0.0506854
0.0297563
0.182435
0.215986
0.251571
0.287494
0.320308
0.350419
0.376457
0.396769
0.411227
0.420494
0.425152
0.425916
0.423431
0.41813
0.410334
0.400153
0.387623
0.372739
0.355465
0.335787
0.313766
0.289537
0.263319
0.235591
0.207257
0.179357
0.152738
0.128107
0.106097
0.087253
0.072042
0.0608344
0.0539145
0.0515358
0.0540872
0.0621882
0.0763607
0.0986694
0.124693
0.136672
0.0998493
0.0571545
0.0105976
-0.0365268
-0.0870466
-0.139253
-0.191791
-0.245105
-0.298429
-0.35144
-0.404202
-0.456322
-0.507552
-0.557531
-0.605703
-0.651378
-0.693767
-0.731926
-0.764897
-0.791742
-0.81127
-0.822631
-0.825216
-0.818526
-0.802074
-0.775755
-0.740258
-0.696757
-0.646346
-0.589769
-0.527524
-0.460126
-0.387919
-0.311257
-0.2297
-0.145184
-0.0542931
0.0237381
0.170427
0.20222
0.236013
0.270196
0.301479
0.330271
0.355276
0.374904
0.389016
0.398257
0.403182
0.404465
0.402747
0.398437
0.39185
0.383089
0.372183
0.359107
0.3438
0.326203
0.306327
0.284244
0.260108
0.234323
0.207727
0.181302
0.155857
0.132086
0.110634
0.0920711
0.0768961
0.0655176
0.0582628
0.0554129
0.0573696
0.0647101
0.0778692
0.0984721
0.122218
0.127057
0.0921764
0.0517517
0.00773442
-0.0367007
-0.0842848
-0.133365
-0.182657
-0.2326
-0.282472
-0.331983
-0.381237
-0.429891
-0.477758
-0.524548
-0.569785
-0.612872
-0.653105
-0.689629
-0.721538
-0.747946
-0.767751
-0.780044
-0.784232
-0.779855
-0.766426
-0.743707
-0.712114
-0.672506
-0.625795
-0.572684
-0.513678
-0.449286
-0.379883
-0.305886
-0.227033
-0.145223
-0.0579579
0.0175667
0.159077
0.189244
0.221371
0.253933
0.283781
0.311326
0.335349
0.3543
0.368048
0.377218
0.382335
0.384038
0.382953
0.379486
0.37394
0.366415
0.356941
0.345483
0.331957
0.31628
0.298417
0.278384
0.256272
0.23241
0.207562
0.182655
0.158452
0.135625
0.114821
0.096627
0.0815665
0.0700824
0.0625405
0.0592493
0.0606188
0.0671873
0.0793068
0.0982059
0.119748
0.117962
0.0848838
0.0465693
0.00490687
-0.0370447
-0.0819153
-0.128114
-0.174413
-0.221249
-0.267937
-0.314224
-0.360228
-0.405657
-0.450368
-0.494135
-0.536554
-0.577106
-0.615165
-0.649961
-0.68066
-0.706411
-0.726226
-0.739158
-0.74463
-0.742216
-0.731441
-0.711957
-0.683958
-0.648035
-0.604916
-0.555227
-0.499462
-0.438117
-0.371592
-0.300343
-0.224289
-0.145278
-0.0616513
0.0112841
0.14837
0.177023
0.207596
0.238642
0.267143
0.293509
0.31659
0.334888
0.34826
0.357317
0.362558
0.364599
0.364043
0.361292
0.35664
0.350192
0.341978
0.331959
0.320045
0.306126
0.290133
0.272039
0.251874
0.229894
0.206789
0.183424
0.160517
0.138708
0.118634
0.100892
0.0860246
0.0745014
0.0667232
0.0630241
0.063818
0.0696083
0.08067
0.0978782
0.117295
0.109379
0.0779816
0.0416314
0.00216155
-0.0374854
-0.0798421
-0.123373
-0.166907
-0.210868
-0.254617
-0.297921
-0.340916
-0.383346
-0.425105
-0.466021
-0.505742
-0.543833
-0.579736
-0.612757
-0.642137
-0.667066
-0.686665
-0.699981
-0.706444
-0.705675
-0.697201
-0.680607
-0.655897
-0.623435
-0.583773
-0.537444
-0.48491
-0.426643
-0.363049
-0.294633
-0.221462
-0.145337
-0.0653433
0.00493455
0.138283
0.165523
0.194641
0.224263
0.251496
0.276746
0.298926
0.316582
0.329572
0.33849
0.343809
0.346116
0.346003
0.343859
0.339975
0.334465
0.32736
0.31862
0.308149
0.295829
0.281565
0.265288
0.246978
0.226824
0.205442
0.18363
0.162055
0.141323
0.122053
0.104841
0.0902422
0.0787477
0.0707855
0.0667155
0.0669503
0.0719615
0.0819552
0.0974972
0.114874
0.101298
0.0714699
0.0369569
-0.000465607
-0.0379732
-0.0779887
-0.119045
-0.160015
-0.201317
-0.242341
-0.28288
-0.323083
-0.362721
-0.401723
-0.439954
-0.477119
-0.512838
-0.546625
-0.57786
-0.605853
-0.629833
-0.649029
-0.662505
-0.669707
-0.670284
-0.663786
-0.649748
-0.628031
-0.598802
-0.562444
-0.519395
-0.470061
-0.414886
-0.354273
-0.288757
-0.218544
-0.145384
-0.0690075
-0.00144032
0.128791
0.154712
0.182464
0.210744
0.23678
0.260971
0.282289
0.29932
0.311923
0.320681
0.326035
0.328555
0.328806
0.327185
0.323961
0.319267
0.313133
0.305522
0.296344
0.285474
0.272795
0.25821
0.241655
0.223258
0.203559
0.183292
0.163072
0.143464
0.125061
0.108451
0.0941933
0.0827935
0.0747029
0.070301
0.0699981
0.0742355
0.0831588
0.0970704
0.112496
0.0937038
0.0653454
0.0325541
-0.0029512
-0.0384609
-0.0762963
-0.115048
-0.153636
-0.192469
-0.230969
-0.268945
-0.306554
-0.343593
-0.380016
-0.415729
-0.450472
-0.483922
-0.515651
-0.545111
-0.571672
-0.594617
-0.61326
-0.626709
-0.634426
-0.63608
-0.631261
-0.619471
-0.600458
-0.574231
-0.541011
-0.50114
-0.454959
-0.402871
-0.345279
-0.28272
-0.215529
-0.145399
-0.0726111
-0.00779458
0.119872
0.144553
0.17102
0.198035
0.222939
0.24612
0.26661
0.283034
0.295257
0.303833
0.309196
0.311876
0.312435
0.311255
0.308604
0.30462
0.299334
0.292725
0.284701
0.275135
0.263902
0.250881
0.235973
0.21925
0.201183
0.18244
0.163582
0.14513
0.127646
0.111702
0.0978531
0.0866132
0.0784484
0.0737575
0.0729423
0.0764184
0.0842777
0.0966051
0.110173
0.0865766
0.0596013
0.0284279
-0.00527926
-0.0389185
-0.0747168
-0.111317
-0.147687
-0.184224
-0.220378
-0.255973
-0.291171
-0.325792
-0.359814
-0.393157
-0.425614
-0.456902
-0.486649
-0.514361
-0.539473
-0.561326
-0.579301
-0.592567
-0.6006
-0.603097
-0.599686
-0.589857
-0.57327
-0.549805
-0.519552
-0.482739
-0.439649
-0.390634
-0.336077
-0.276525
-0.212407
-0.145364
-0.0761241
-0.014084
0.111499
0.135015
0.160269
0.186086
0.209915
0.232135
0.251832
0.267671
0.279514
0.287901
0.293242
0.296048
0.296862
0.296057
0.293903
0.290534
0.285996
0.280269
0.273269
0.264875
0.254953
0.243369
0.229995
0.214858
0.19836
0.181107
0.163603
0.146327
0.129802
0.114578
0.101199
0.0901813
0.0819984
0.0770617
0.0757653
0.0784978
0.0853094
0.0961073
0.107916
0.0798992
0.0542274
0.024577
-0.00743964
-0.0393246
-0.0732151
-0.107803
-0.142102
-0.176499
-0.210468
-0.243849
-0.276803
-0.309169
-0.340948
-0.372077
-0.40238
-0.431615
-0.459461
-0.485469
-0.509141
-0.529869
-0.547087
-0.560045
-0.568227
-0.571362
-0.569114
-0.560977
-0.546551
-0.525613
-0.49814
-0.464261
-0.424182
-0.378205
-0.326694
-0.270175
-0.209173
-0.145256
-0.079515
-0.0202636
0.103647
0.126064
0.15017
0.174851
0.19766
0.218965
0.2379
0.253173
0.264642
0.272831
0.278131
0.281029
0.282057
0.281574
0.279848
0.277017
0.273132
0.268183
0.262093
0.254747
0.24601
0.235738
0.223785
0.210137
0.195138
0.179327
0.163159
0.147063
0.131525
0.117067
0.104213
0.0934751
0.0853283
0.080192
0.0784478
0.0804627
0.0862503
0.0955829
0.105732
0.0736534
0.0492103
0.0209986
-0.00942593
-0.0396621
-0.071761
-0.104464
-0.136827
-0.169224
-0.201154
-0.232473
-0.263338
-0.293608
-0.323287
-0.352345
-0.380622
-0.407917
-0.433943
-0.458307
-0.480559
-0.500146
-0.516547
-0.529091
-0.537282
-0.540872
-0.539574
-0.532892
-0.52038
-0.501743
-0.476862
-0.445775
-0.408615
-0.365626
-0.317144
-0.263683
-0.205817
-0.145056
-0.0827577
-0.0262882
0.0962904
0.117668
0.140687
0.164291
0.186129
0.206562
0.224765
0.239489
0.250591
0.258578
0.263821
0.266787
0.267991
0.267784
0.26643
0.264068
0.260757
0.256492
0.251208
0.244797
0.237126
0.228047
0.217402
0.205146
0.191565
0.17714
0.162274
0.147352
0.132818
0.119159
0.106878
0.0964732
0.0884154
0.0831256
0.0809723
0.0823007
0.0870977
0.0950354
0.10363
0.0678185
0.0445384
0.0176847
-0.0112347
-0.03992
-0.0703335
-0.101266
-0.131817
-0.162343
-0.192371
-0.221764
-0.250683
-0.278994
-0.30672
-0.333835
-0.36021
-0.385674
-0.40997
-0.432754
-0.453619
-0.472064
-0.487607
-0.499667
-0.507744
-0.51164
-0.511102
-0.50565
-0.494825
-0.478267
-0.45579
-0.427344
-0.392998
-0.352937
-0.307454
-0.257051
-0.202334
-0.144742
-0.0858193
-0.0321169
0.0894034
0.109798
0.131787
0.154365
0.175279
0.19488
0.21238
0.226574
0.237317
0.245099
0.250274
0.253286
0.254636
0.254667
0.253635
0.251682
0.248874
0.245212
0.240641
0.235061
0.228346
0.220349
0.210902
0.199936
0.187689
0.174585
0.160979
0.147213
0.133688
0.120852
0.109183
0.0991578
0.0912384
0.0858424
0.0833217
0.0840012
0.0878484
0.0944687
0.101615
0.0623748
0.040196
0.0146285
-0.0128677
-0.0400904
-0.0689176
-0.0981849
-0.127034
-0.155808
-0.184056
-0.21165
-0.238751
-0.265238
-0.291136
-0.316437
-0.341031
-0.364765
-0.387422
-0.408692
-0.428211
-0.445532
-0.460197
-0.471706
-0.479589
-0.483659
-0.483712
-0.479302
-0.469946
-0.455263
-0.434999
-0.409041
-0.377389
-0.340173
-0.297654
-0.250292
-0.198716
-0.144289
-0.0886754
-0.0377105
0.0829627
0.102424
0.123435
0.145036
0.165069
0.183874
0.2007
0.214381
0.224774
0.232351
0.237448
0.24049
0.241962
0.242197
0.241444
0.23985
0.237482
0.234352
0.230411
0.225569
0.219709
0.212687
0.204332
0.194557
0.183557
0.171703
0.159307
0.146668
0.134144
0.122146
0.111118
0.101514
0.0937792
0.0883229
0.0854792
0.0855528
0.0884992
0.0938845
0.0996893
0.0573036
0.0361686
0.0118211
-0.0143281
-0.0401691
-0.0674981
-0.0951978
-0.122447
-0.149577
-0.176157
-0.20207
-0.227472
-0.252254
-0.276447
-0.300053
-0.322974
-0.345086
-0.366194
-0.386023
-0.404246
-0.420461
-0.434245
-0.445165
-0.452773
-0.456914
-0.457417
-0.453873
-0.445798
-0.432793
-0.414557
-0.390927
-0.361843
-0.327384
-0.287767
-0.243416
-0.194958
-0.14368
-0.0912967
-0.0430317
0.076944
0.0955184
0.1156
0.136271
0.155462
0.173505
0.189685
0.202871
0.212923
0.220295
0.225308
0.228366
0.229937
0.230349
0.229841
0.22856
0.226579
0.223915
0.22053
0.216344
0.211247
0.2051
0.197737
0.189055
0.179213
0.168534
0.157291
0.145742
0.134203
0.123045
0.112679
0.10353
0.0960219
0.0905498
0.0874293
0.0869451
0.0890464
0.0932835
0.0978542
0.0525849
0.0324414
0.00925168
-0.0156199
-0.0401546
-0.0660689
-0.0922899
-0.118034
-0.143619
-0.168636
-0.192974
-0.216787
-0.239977
-0.262576
-0.284594
-0.305951
-0.326538
-0.346184
-0.364644
-0.381625
-0.396766
-0.409677
-0.419982
-0.427261
-0.431385
-0.432219
-0.429388
-0.422422
-0.41091
-0.39453
-0.373065
-0.346417
-0.314612
-0.277824
-0.236435
-0.191058
-0.142896
-0.0936615
-0.0480488
0.0713247
0.0890564
0.108252
0.128036
0.146422
0.163738
0.179295
0.192005
0.201726
0.208895
0.213818
0.21688
0.218535
0.219098
0.218802
0.217796
0.216156
0.213903
0.211008
0.207401
0.202983
0.197622
0.191155
0.183472
0.174699
0.165119
0.154965
0.14446
0.13388
0.123558
0.113865
0.105198
0.0979533
0.0925082
0.0891591
0.0881688
0.0894862
0.092665
0.0961088
0.0482008
0.0289994
0.00691001
-0.0167491
-0.0400472
-0.0646231
-0.0894483
-0.113775
-0.137908
-0.161456
-0.184319
-0.206645
-0.228344
-0.249453
-0.269988
-0.289881
-0.309036
-0.327304
-0.344468
-0.360269
-0.374372
-0.386428
-0.3961
-0.403013
-0.40705
-0.408115
-0.405864
-0.399854
-0.389667
-0.37497
-0.355516
-0.331167
-0.301899
-0.267854
-0.229363
-0.187014
-0.141919
-0.0957483
-0.0527331
0.0660828
0.0830132
0.101364
0.1203
0.137917
0.154535
0.169495
0.181747
0.191145
0.198115
0.202945
0.206003
0.207725
0.208417
0.208308
0.207543
0.206201
0.20431
0.201848
0.198754
0.194939
0.190279
0.18462
0.177845
0.170055
0.161495
0.152364
0.142851
0.133198
0.123695
0.11468
0.106514
0.0995645
0.0941865
0.0906563
0.089215
0.0898148
0.092027
0.0944501
0.044132
0.0258274
0.00478497
-0.0177224
-0.0398481
-0.0631569
-0.0866623
-0.109652
-0.132417
-0.154585
-0.176065
-0.196998
-0.217304
-0.23702
-0.256168
-0.27469
-0.292504
-0.30948
-0.325423
-0.340094
-0.353206
-0.364425
-0.373467
-0.379983
-0.383885
-0.385094
-0.383314
-0.37812
-0.369107
-0.355933
-0.338334
-0.316138
-0.289292
-0.257887
-0.222217
-0.182826
-0.140735
-0.0975378
-0.0570575
0.0611973
0.077364
0.0949085
0.113034
0.129917
0.145866
0.160253
0.17206
0.181148
0.187922
0.192657
0.195702
0.197478
0.198284
0.198336
0.197783
0.196704
0.19513
0.19305
0.190409
0.187128
0.183094
0.178159
0.172208
0.165317
0.157697
0.149521
0.140946
0.132178
0.123474
0.115131
0.107477
0.100849
0.0955746
0.0919116
0.090076
0.0900278
0.0913665
0.0928723
0.0403613
0.0229108
0.00286521
-0.018547
-0.0395601
-0.0616688
-0.0839254
-0.105653
-0.127128
-0.147999
-0.16818
-0.187807
-0.206808
-0.225222
-0.243074
-0.260314
-0.276873
-0.292634
-0.307424
-0.32103
-0.33319
-0.343607
-0.352023
-0.358128
-0.361851
-0.363144
-0.361736
-0.357237
-0.349257
-0.337458
-0.321563
-0.301381
-0.276827
-0.247954
-0.215012
-0.178496
-0.139333
-0.099014
-0.061003
0.0566481
0.0720866
0.0888615
0.106213
0.122391
0.137699
0.151534
0.162915
0.171701
0.178283
0.182921
0.185947
0.187767
0.188669
0.188863
0.188496
0.187648
0.186355
0.184609
0.182368
0.17956
0.176083
0.171796
0.166588
0.160516
0.153761
0.146469
0.138772
0.130846
0.12291
0.115228
0.108091
0.101805
0.0966676
0.0929167
0.0907453
0.0901212
0.0906791
0.0913689
0.0368723
0.0202351
0.00113943
-0.0192308
-0.0391877
-0.0601579
-0.0812329
-0.101767
-0.122027
-0.141676
-0.160637
-0.17904
-0.196819
-0.214014
-0.230654
-0.246695
-0.262078
-0.276702
-0.290408
-0.303011
-0.314266
-0.323911
-0.331714
-0.337405
-0.340919
-0.342238
-0.341126
-0.337219
-0.330146
-0.319584
-0.30525
-0.286942
-0.264546
-0.238087
-0.207767
-0.17403
-0.137706
-0.100167
-0.0645515
0.0524155
0.0671589
0.0831984
0.0998079
0.115312
0.130006
0.143311
0.154281
0.162775
0.169168
0.173708
0.17671
0.178564
0.17955
0.179869
0.179664
0.179019
0.177972
0.176522
0.174633
0.172242
0.169258
0.16555
0.161011
0.155681
0.149716
0.143239
0.13636
0.129226
0.122025
0.114985
0.108364
0.102434
0.0974623
0.0936674
0.091218
0.0900908
0.08996
0.0899311
0.0336473
0.0177865
-0.000403809
-0.0197817
-0.0387348
-0.0586249
-0.0785794
-0.0979856
-0.117099
-0.135598
-0.153411
-0.170666
-0.187299
-0.203355
-0.218861
-0.233782
-0.248066
-0.261623
-0.274314
-0.285968
-0.296371
-0.30528
-0.312488
-0.317762
-0.321054
-0.322358
-0.321474
-0.318066
-0.311793
-0.302337
-0.289431
-0.272856
-0.252485
-0.228313
-0.2005
-0.169434
-0.13585
-0.100987
-0.0676922
0.0484812
0.0625609
0.0778967
0.093797
0.108655
0.122759
0.135554
0.146127
0.154339
0.160548
0.164991
0.167964
0.169845
0.1709
0.171328
0.171267
0.1708
0.16997
0.168778
0.167199
0.165177
0.162629
0.159437
0.155497
0.150837
0.145591
0.139862
0.133739
0.127345
0.120839
0.114418
0.108305
0.102739
0.0979595
0.0941605
0.0914904
0.0899331
0.0892028
0.0885491
0.0306711
0.0155513
-0.00177561
-0.0202084
-0.0382071
-0.0570714
-0.0759644
-0.0943039
-0.112334
-0.129748
-0.146482
-0.162659
-0.178219
-0.193207
-0.207654
-0.221528
-0.234785
-0.247345
-0.259084
-0.26985
-0.279446
-0.287655
-0.294294
-0.29916
-0.302215
-0.303475
-0.302765
-0.299781
-0.294206
-0.285745
-0.274134
-0.259159
-0.240677
-0.218661
-0.193231
-0.164719
-0.133764
-0.101471
-0.0704172
0.0448277
0.0582732
0.0729358
0.0881563
0.102395
0.115932
0.128237
0.138428
0.146366
0.152396
0.156741
0.159682
0.161582
0.162698
0.163219
0.163284
0.162974
0.162333
0.16137
0.160062
0.158364
0.156202
0.153467
0.150063
0.146006
0.141411
0.136363
0.130935
0.125229
0.119377
0.113547
0.107928
0.102731
0.0981627
0.0943971
0.0915608
0.0896444
0.0884018
0.0872119
0.0279287
0.0135164
-0.00298678
-0.0205185
-0.0376096
-0.0554993
-0.073386
-0.0907155
-0.107721
-0.124114
-0.139833
-0.154997
-0.169551
-0.18354
-0.196996
-0.209891
-0.222189
-0.233818
-0.244667
-0.254599
-0.263439
-0.270987
-0.277082
-0.281552
-0.284368
-0.285561
-0.28498
-0.282354
-0.277392
-0.269819
-0.259385
-0.245878
-0.229152
-0.209158
-0.18598
-0.159895
-0.131452
-0.101617
-0.0727235
0.0414371
0.0542771
0.0682947
0.0828642
0.0965093
0.109502
0.121335
0.131157
0.13883
0.144685
0.148932
0.151838
0.153751
0.154918
0.155521
0.155696
0.155523
0.155049
0.154285
0.153215
0.151802
0.14998
0.147651
0.144723
0.141207
0.137198
0.132768
0.127976
0.122904
0.117662
0.11239
0.10725
0.10242
0.098079
0.0943794
0.0914289
0.0892224
0.0875503
0.0859087
0.0254055
0.0116686
-0.00404773
-0.0207204
-0.0369483
-0.053911
-0.0708429
-0.087216
-0.103255
-0.118683
-0.133447
-0.147659
-0.16127
-0.174325
-0.186854
-0.198836
-0.210238
-0.220998
-0.231016
-0.240168
-0.248298
-0.255225
-0.260806
-0.264894
-0.267472
-0.268583
-0.268098
-0.265775
-0.261349
-0.254569
-0.2452
-0.233039
-0.217936
-0.199827
-0.178767
-0.154977
-0.128921
-0.101431
-0.0746126
0.0382944
0.0505547
0.0639552
0.0778997
0.0909755
0.103445
0.114823
0.124289
0.131707
0.137391
0.141541
0.144408
0.146328
0.147538
0.148212
0.148482
0.14843
0.148101
0.147512
0.146651
0.145487
0.143964
0.141992
0.139488
0.136455
0.132972
0.129101
0.124887
0.120396
0.115719
0.110971
0.106288
0.10182
0.0977179
0.0941135
0.0910964
0.0886645
0.0866416
0.084627
0.0230875
0.00999608
-0.00496919
-0.0208223
-0.036228
-0.0523099
-0.0683352
-0.083803
-0.0989271
-0.113447
-0.12731
-0.140628
-0.153354
-0.165534
-0.177198
-0.188327
-0.198894