/*--------------------------------*- C++ -*----------------------------------*\
| =========                 |                                                 |
| \\      /  F ield         | OpenFOAM: The Open Source CFD Toolbox           |
|  \\    /   O peration     | Version:  2506                                  |
|   \\  /    A nd           | Website:  www.openfoam.com                      |
|    \\/     M anipulation  |                                                 |
\*---------------------------------------------------------------------------*/
FoamFile
{
    version     2.0;
    format      ascii;
    arch        "LSB;label=32;scalar=64";
    class       volScalarField;
    location    "450";
    object      turbulenceProperties:I;
}
// * * * * * * * * * * * * * * * * * * * * * * * * * * * * * * * * * * * * * //

dimensions      [0 0 0 0 0 0 0];

internalField   nonuniform List<scalar> 
10720
(
0.00417416
0.00414921
0.00416936
0.00429777
0.00446111
0.00469043
0.0050034
0.00538905
0.00586657
0.00645473
0.00717316
0.00806411
0.00918813
0.0106284
0.0125285
0.0150859
0.018693
0.0238216
0.0320094
0.0443813
0.0693728
0.111447
0.228012
0.420835
0.507715
0.466951
0.40838
0.366426
0.339385
0.322245
0.311163
0.303446
0.298981
0.296872
0.296934
0.299226
0.307508
0.3181
0.40142
0.00422557
0.0043826
0.00456351
0.00498547
0.00568733
0.00704487
0.0101849
0.0170031
0.013481
0.00874218
0.00732141
0.00706284
0.00731372
0.00787057
0.00865662
0.00966578
0.0109378
0.0125664
0.0146964
0.0175308
0.021403
0.0267187
0.034406
0.0453584
0.0627105
0.0884411
0.130981
0.186829
0.221537
0.234698
0.238639
0.240294
0.241518
0.242567
0.243553
0.244663
0.246102
0.249517
0.255935
0.00181802
0.00166489
0.00152728
0.00139742
0.00127678
0.00116854
0.00106938
0.000977947
0.000896852
0.000824205
0.000759311
0.000711284
0.000692093
0.000711361
0.000795722
0.000979791
0.00132928
0.00190045
0.00294606
0.00464788
0.00817336
0.0141517
0.0265284
0.0521469
0.0806319
0.108895
0.136969
0.161287
0.175632
0.177655
0.171217
0.161862
0.153532
0.147633
0.144809
0.145246
0.154559
0.167087
0.320387
0.00198376
0.00219117
0.00247007
0.00286811
0.00346347
0.00439781
0.00583364
0.0071565
0.00638394
0.00446761
0.00313629
0.00234222
0.00183756
0.00148993
0.00123537
0.00104034
0.000884557
0.000756303
0.000645143
0.000542907
0.000438667
0.000325452
0.000185339
7.26342e-05
0.000113087
0.00129856
0.00295741
0.0083007
0.0151198
0.0210814
0.0257805
0.0293931
0.0322553
0.0347429
0.0371136
0.0396033
0.042467
0.0476508
0.0611855
0.00157883
0.00145487
0.00133339
0.00121912
0.00112084
0.00103368
0.00095823
0.000895787
0.000844884
0.000805012
0.000774134
0.00075251
0.000739231
0.000734093
0.000729783
0.000716415
0.000654952
0.000620307
0.000355311
0.00148772
0.00205502
0.000455079
0.00148406
0.0022666
0.00778734
0.0152476
0.0254443
0.040238
0.0601957
0.0834078
0.105696
0.122337
0.131132
0.134228
0.135525
0.137358
0.144902
0.152881
0.257515
0.00172246
0.00189317
0.00212898
0.00244351
0.00286722
0.00342281
0.0040558
0.00446454
0.00424682
0.00349845
0.00272198
0.00212258
0.0016859
0.00136378
0.00112244
0.000937907
0.000796152
0.0006871
0.000604301
0.000541297
0.000494057
0.000459232
0.000434771
0.000416871
0.000406306
0.000396892
0.000402781
0.000306695
0.000797244
0.00202963
0.00340331
0.00491186
0.00734829
0.0106611
0.0142954
0.017902
0.0214169
0.0239675
0.0337465
0.00149034
0.0013868
0.00128707
0.00119638
0.00111327
0.00103596
0.000965531
0.000900592
0.000840985
0.000786003
0.000735046
0.000687288
0.000641878
0.000598311
0.000555821
0.000512419
0.000467921
0.000430987
0.000380039
0.000282736
0.000102305
0.000173656
0
0.00119238
0.00276052
0.00397065
0.00478162
0.000755497
0.00376816
0.0125686
0.0276291
0.0484248
0.0716596
0.0923695
0.107723
0.118666
0.130887
0.142673
0.216756
0.0016001
0.00172815
0.00189096
0.00210534
0.00237238
0.00268424
0.00299088
0.00316901
0.00308218
0.00273176
0.0022909
0.00189352
0.0015748
0.00132674
0.00113409
0.000982731
0.000862991
0.000767326
0.000690432
0.000627383
0.00057523
0.000530988
0.000491939
0.000454107
0.000417905
0.000387941
0.000364826
0.000347672
0.00032874
0.000305553
0.000263515
0.000208882
0.000578093
0.00076122
0.00145463
0.00339688
0.00626087
0.0101594
0.0207135
0.00131461
0.0012294
0.00114556
0.00106632
0.000993192
0.000924214
0.000860475
0.000802017
0.000748383
0.000700076
0.000656902
0.000618873
0.00058619
0.000558873
0.000536879
0.000519364
0.000503071
0.000484379
0.000467871
0.000442696
0.000396034
0.000309373
0.00010149
5.51612e-05
0
0
0
0.000604212
0.00320376
0.00215436
0.00375242
0.00520654
0.0134817
0.0342943
0.059318
0.0834047
0.105608
0.125444
0.183962
0.00140573
0.00150917
0.00163746
0.0017953
0.00197621
0.00216723
0.00233681
0.00242972
0.00238877
0.00220553
0.0019453
0.00167728
0.00143624
0.00123099
0.00105994
0.000918156
0.000800785
0.000703742
0.000623718
0.000557498
0.00050269
0.000456842
0.000417553
0.00038115
0.000345825
0.000313549
0.000287168
0.000267916
0.00025818
0.000246292
0.000270907
0.000131334
0.000335123
0.000729327
0.000386861
0.00070387
0.00117887
0.00183919
0.00901012
0.00119683
0.00112924
0.00106151
0.000997577
0.000938213
0.000881794
0.000829329
0.000780559
0.00073507
0.000692831
0.000653431
0.00061664
0.000582301
0.000550186
0.000520099
0.000490995
0.000461053
0.000430912
0.000403105
0.000377807
0.000358698
0.000338557
0.000316189
0.000199686
7.30378e-05
5.36717e-05
3.67708e-05
9.26271e-06
0
0.000811506
0.00192525
0.00455444
0.00202578
0.00739434
0.0112928
0.0366835
0.0678585
0.0992728
0.152772
0.00126679
0.00134422
0.00143798
0.00155024
0.00167237
0.00179421
0.00189739
0.00195253
0.0019304
0.0018247
0.00166314
0.00148159
0.00130497
0.00114524
0.00100615
0.000887387
0.00078704
0.000702779
0.000632274
0.000573104
0.000523111
0.000480094
0.000441876
0.000405659
0.000370118
0.000337011
0.000307833
0.000282868
0.000261394
0.000243092
0.000227076
0.000212159
0.00018923
0.000159769
0.000119845
0.000254807
0.000488497
0.000880527
0.00302552
0.00107725
0.00102236
0.000966458
0.000912782
0.000862543
0.000814027
0.00076824
0.000725226
0.000684569
0.00064639
0.000610574
0.000576989
0.00054572
0.0005168
0.000490228
0.000466246
0.000445445
0.000427041
0.000409335
0.000391685
0.000374638
0.000359014
0.000351473
0.000332652
0.000284015
0.00022642
0.00014317
3.28392e-05
4.35839e-05
1.3143e-05
0
0
0.000763108
0.00432377
0.00383991
0.00955894
0.0260581
0.0646168
0.1193
0.00113336
0.00119407
0.00126593
0.00134886
0.0014348
0.00151694
0.00158485
0.00162033
0.0016071
0.00154193
0.00143747
0.00131253
0.00118286
0.00105846
0.00094439
0.000842577
0.000753083
0.000675261
0.000608073
0.000550146
0.000500119
0.000456487
0.000417555
0.000381171
0.000345989
0.000313021
0.000283536
0.000257956
0.000235846
0.000217187
0.000202684
0.000193007
0.000187604
0.000180326
0.000153844
8.49662e-05
3.62019e-05
8.56209e-06
0.000526466
0.00097736
0.000933363
0.000887894
0.000843819
0.000802387
0.000762037
0.000723773
0.000687671
0.000653355
0.000620947
0.000590237
0.000561132
0.000533584
0.000507509
0.000482843
0.000459597
0.000437253
0.000415008
0.000393312
0.000373205
0.000355496
0.000341123
0.000331203
0.000326348
0.000317743
0.000299155
0.000268639
0.000227287
0.000180591
5.22659e-05
4.15544e-05
8.23591e-06
0
0
0.0015018
0.00640535
0.00893369
0.0293915
0.0831474
0.00102152
0.00106851
0.00112331
0.00118507
0.00124696
0.00130455
0.00135162
0.00137584
0.00136745
0.00132513
0.00125491
0.00116712
0.00107157
0.000975473
0.000883642
0.000798743
0.00072184
0.000653338
0.000593009
0.000540137
0.000493783
0.000452809
0.000415848
0.000381216
0.000347916
0.000316629
0.000288368
0.000263248
0.000240852
0.000220663
0.000202614
0.000186492
0.000172028
0.000158906
0.000149172
0.000137292
0.000119069
4.13475e-05
0.000140593
0.000887765
0.000852077
0.00081468
0.000778016
0.000743365
0.000709274
0.000676649
0.000645614
0.000615837
0.000587432
0.000560268
0.000534244
0.000509371
0.00048563
0.000463031
0.000441559
0.00042131
0.000402602
0.000385273
0.00036912
0.000354164
0.000340864
0.000329378
0.000320015
0.000311523
0.000301103
0.000288863
0.000273468
0.000257063
0.00022311
0.000184581
3.68947e-05
3.19647e-05
0
0
0
0.00513417
0.0108168
0.0491382
0.000923119
0.00096016
0.0010028
0.00104972
0.00109557
0.00113744
0.00117135
0.00118855
0.00118306
0.00115439
0.00110567
0.0010428
0.000971824
0.000897643
0.000824099
0.000753651
0.000687815
0.000627415
0.000572728
0.000523629
0.000479671
0.00044011
0.000403969
0.00037006
0.000337632
0.000307092
0.000279309
0.000254466
0.000232304
0.000212537
0.000195142
0.000180445
0.000168798
0.000160588
0.000156162
0.000158004
0.000165664
0.000173906
3.51572e-05
0.000809567
0.000780596
0.000749891
0.000719506
0.000690659
0.000662072
0.000634571
0.000608268
0.000582898
0.000558591
0.0005352
0.000512625
0.000490901
0.000469989
0.000449867
0.00043054
0.000412095
0.000394284
0.000376986
0.000360573
0.000345638
0.000332694
0.000321779
0.000311961
0.000301862
0.000290449
0.000278506
0.00026769
0.000259397
0.000252749
0.000245389
0.000214393
0.000143038
4.40055e-05
0
0
6.26867e-05
0.00149633
0.0243949
0.000837914
0.00086728
0.000900723
0.000936845
0.000971489
0.00100288
0.00102799
0.00104057
0.00103692
0.00101684
0.000982095
0.000936267
0.000882993
0.000825594
0.000766902
0.000708981
0.000653257
0.000600809
0.000552185
0.000507581
0.000466909
0.000429749
0.000395423
0.000363132
0.000332314
0.000303275
0.000276678
0.000252774
0.000231223
0.000211768
0.000194295
0.000178806
0.000165296
0.00015427
0.000146087
0.000145192
0.00014582
0.000192151
0.000128753
0.000740442
0.00071676
0.000691408
0.000666109
0.000641962
0.000617875
0.000594546
0.000572145
0.000550401
0.000529427
0.000509089
0.000489328
0.000470143
0.000451485
0.000433391
0.000415889
0.000398989
0.000382801
0.000367426
0.00035295
0.000339608
0.000327615
0.000317057
0.000307302
0.000297016
0.000285256
0.000272464
0.00026054
0.000251041
0.000244927
0.000241442
0.000241681
0.000232474
0.000182906
4.88016e-05
0
0
0.00165556
0.0123154
0.00076333
0.000786824
0.000813428
0.00084164
0.000868258
0.000892352
0.000911367
0.000920776
0.000918314
0.000903883
0.000878539
0.000844492
0.000804109
0.000759562
0.00071278
0.000665347
0.000618511
0.000573284
0.00053031
0.000490006
0.000452487
0.000417592
0.000384947
0.000354035
0.000324507
0.000296636
0.0002709
0.000247584
0.000226499
0.00020742
0.000190317
0.000175356
0.000162697
0.000152904
0.000146232
0.000146275
0.000147642
0.000178646
0.000206444
0.000679334
0.000659918
0.000638908
0.000617807
0.000597613
0.000577346
0.000557605
0.000538579
0.000520017
0.000502029
0.000484525
0.000467404
0.000450675
0.000434283
0.000418269
0.000402657
0.000387467
0.000372814
0.000358627
0.000345019
0.000332341
0.000320873
0.00031067
0.000301251
0.000291494
0.000280498
0.000268441
0.000256696
0.000246644
0.000238821
0.000232895
0.000230783
0.000233083
0.000235623
0.000197133
4.5391e-05
0
0.000876591
0.00724826
0.000697924
0.000716835
0.000738195
0.000760482
0.00078125
0.000800045
0.000814716
0.000821881
0.0008202
0.000809566
0.000790683
0.000765016
0.000734117
0.00069931
0.000661987
0.000623293
0.000584164
0.000545441
0.000507794
0.000471737
0.000437524
0.000405181
0.000374509
0.000345234
0.000317234
0.000290711
0.000266111
0.000243625
0.000223187
0.000204592
0.000187834
0.00017297
0.000160122
0.000149757
0.000142308
0.000141053
0.000143444
0.000165122
0.000215221
0.000625002
0.000609022
0.000591568
0.000573916
0.000556991
0.000539879
0.000523162
0.000506995
0.000491146
0.000475729
0.000460644
0.000445793
0.000431196
0.000416802
0.000402626
0.000388688
0.000375026
0.000361762
0.000348935
0.000336616
0.000325022
0.000314361
0.000304653
0.000295526
0.000286193
0.000275892
0.000264717
0.000253737
0.000244093
0.000236106
0.00022947
0.000224416
0.000222469
0.000225854
0.000239333
0.000177678
7.31661e-06
0.000497912
0.00416892
0.000640203
0.000655517
0.000672785
0.000690594
0.000707028
0.000721872
0.000733341
0.000738894
0.000737696
0.000729727
0.000715419
0.000695784
0.000671862
0.000644529
0.000614679
0.000583123
0.00055052
0.000517591
0.000484887
0.000452879
0.000421885
0.000392074
0.000363424
0.000335815
0.000309292
0.000284075
0.000260512
0.000238845
0.000218996
0.000200894
0.000184466
0.00016989
0.000157318
0.000147236
0.000140067
0.000138547
0.000141034
0.000158487
0.000205836
0.000576545
0.000563335
0.000548812
0.000534014
0.000519798
0.000505359
0.00049121
0.000477476
0.000463971
0.000450775
0.000437815
0.000425009
0.000412337
0.000399787
0.000387325
0.000375003
0.000362829
0.000350932
0.000339347
0.000328086
0.000317359
0.000307389
0.000298193
0.000289463
0.00028061
0.000270995
0.000260679
0.000250508
0.000241449
0.000233836
0.000227463
0.000222165
0.000218326
0.000217002
0.00022224
0.000251272
9.76769e-06
0.000162229
0.00209063
0.000589005
0.000601495
0.000615533
0.000629893
0.000643028
0.000654887
0.000663915
0.00066829
0.00066742
0.00066133
0.000650307
0.000635095
0.00061639
0.000594757
0.000570818
0.000545093
0.000518019
0.000490138
0.000461877
0.000433658
0.000405805
0.00037856
0.00035197
0.000326134
0.000301172
0.000277306
0.000254849
0.00023405
0.000214888
0.000197317
0.000181286
0.000166975
0.000154505
0.00014429
0.000136873
0.000134819
0.000136808
0.000152534
0.00019479
0.000533143
0.000522188
0.000510062
0.000497642
0.000485681
0.000473501
0.000461516
0.000449849
0.000438348
0.000427081
0.000415969
0.000404948
0.000393996
0.000383058
0.000372142
0.000361269
0.000350474
0.000339823
0.000329409
0.000319254
0.000309457
0.000300246
0.000291619
0.000283354
0.000274984
0.000266031
0.0002565
0.000247047
0.000238514
0.000231286
0.000225224
0.0002203
0.000216412
0.0002149
0.000210417
0.000243603
0.000180744
1.98532e-05
0.000567764
0.000543372
0.000553606
0.000565099
0.000576738
0.000587338
0.000596855
0.000604044
0.000607518
0.000606877
0.000602115
0.000593501
0.000581576
0.000566782
0.000549567
0.000530298
0.000509287
0.000486833
0.000463293
0.000438986
0.000414241
0.000389397
0.000364675
0.000340199
0.000316121
0.000292687
0.000270183
0.000248857
0.000228925
0.000210467
0.000193391
0.00017778
0.000163751
0.000151431
0.000141276
0.000133787
0.000131381
0.000132894
0.000146738
0.000184559
0.00049409
0.000485004
0.000474858
0.000464397
0.000454352
0.000444078
0.000433921
0.000424034
0.000414257
0.000404653
0.000395155
0.000385681
0.000376237
0.000366759
0.000357253
0.000347719
0.000338202
0.000328733
0.000319419
0.000310284
0.000301367
0.00029288
0.000284834
0.000277089
0.000269229
0.000260922
0.000252138
0.000243381
0.00023537
0.000228492
0.000222696
0.00021803
0.000214379
0.000213136
0.000209713
0.000218314
0.000247003
1.15822e-05
0.000153544
0.000502525
0.000510914
0.00052037
0.000529868
0.000538491
0.000546154
0.000551918
0.000554672
0.000554161
0.000550387
0.000543566
0.00053409
0.000522325
0.0005085
0.000492901
0.000475698
0.00045709
0.000437253
0.000416418
0.000394852
0.00037281
0.000350512
0.000328114
0.000305831
0.000283962
0.000262813
0.000242629
0.00022361
0.000205862
0.000189369
0.000174175
0.000160407
0.00014826
0.000138102
0.000130412
0.000127537
0.000128589
0.00014073
0.000174851
0.000458818
0.000451249
0.000442762
0.000433967
0.000425523
0.000416856
0.000408252
0.00039988
0.000391582
0.000383413
0.000375304
0.000367194
0.000359085
0.000350918
0.000342663
0.000334343
0.000325987
0.000317612
0.00030933
0.000301145
0.0002931
0.000285339
0.000277913
0.00027069
0.000263382
0.000255697
0.000247623
0.000239546
0.000232065
0.000225529
0.000219992
0.000215487
0.00021208
0.000210355
0.000210581
0.000204455
0.000259997
1.80149e-05
5.8017e-07
0.000465811
0.000472695
0.000480467
0.000488268
0.000495298
0.000501526
0.000506145
0.000508338
0.0005079
0.00050486
0.000499381
0.000491759
0.000482287
0.000471124
0.000458435
0.000444329
0.000428869
0.00041217
0.000394375
0.000375665
0.000356211
0.000336215
0.000315828
0.000295309
0.000274989
0.000255183
0.00023614
0.00021805
0.000201018
0.000185119
0.000170362
0.000156875
0.000144915
0.000134768
0.000126932
0.000123581
0.00012418
0.000134715
0.000165426
0.000426848
0.000420558
0.000413433
0.000406043
0.000398947
0.000391631
0.000384386
0.000377297
0.000370273
0.000363322
0.000356431
0.000349535
0.000342586
0.00033555
0.000328418
0.000321205
0.000313908
0.000306536
0.00029921
0.000291927
0.000284704
0.000277641
0.000270835
0.000264164
0.00025742
0.000250352
0.000242947
0.000235526
0.000228566
0.000222398
0.000217124
0.000212783
0.000209563
0.000207421
0.000208933
0.000201898
0.000239556
0.000153349
2.3092e-05
0.00043262
0.000438311
0.000444725
0.000451125
0.000456892
0.000461935
0.000465635
0.000467399
0.000466981
0.00046449
0.000460028
0.000453858
0.000446155
0.000437078
0.000426692
0.000415062
0.000402195
0.000388142
0.000372988
0.000356781
0.00033969
0.000321866
0.000303429
0.000284625
0.000265809
0.000247331
0.000229436
0.00021229
0.000196008
0.000180675
0.000166368
0.000153228
0.000141358
0.000131236
0.000123227
0.00011942
0.000119521
0.000128687
0.000156227
0.000397771
0.000392535
0.000386576
0.000380357
0.000374394
0.000368245
0.000362137
0.000356157
0.000350224
0.000344353
0.000338507
0.000332633
0.000326705
0.000320686
0.000314557
0.00030832
0.000301978
0.000295552
0.000289094
0.000282653
0.000276205
0.000269829
0.000263624
0.000257536
0.000251341
0.000244878
0.000238116
0.000231321
0.000224868
0.000219087
0.000214087
0.000209921
0.000206828
0.000204672
0.000205485
0.000202829
0.000216748
0.000218087
7.98249e-05
0.000402546
0.000407226
0.000412531
0.000417803
0.000422533
0.000426612
0.00042959
0.000430972
0.000430583
0.0004285
0.000424825
0.000419754
0.000413454
0.000405982
0.000397431
0.000387816
0.000377072
0.00036525
0.000352331
0.000338347
0.000323391
0.000307548
0.000290937
0.000273802
0.000256462
0.000239295
0.000222529
0.000206328
0.000190817
0.000176088
0.000162235
0.000149381
0.000137691
0.000127526
0.000119297
0.000115035
0.000114683
0.000122637
0.000147285
0.000371249
0.000366875
0.000361896
0.000356682
0.00035168
0.000346526
0.000341384
0.000336366
0.000331354
0.000326407
0.000321474
0.000316504
0.000311474
0.000306355
0.000301124
0.000295757
0.000290273
0.000284685
0.000279022
0.000273358
0.000267653
0.000261944
0.000256331
0.000250797
0.000245161
0.000239272
0.000233139
0.000226929
0.000220983
0.000215586
0.000210863
0.000206903
0.000203905
0.000201904
0.000201664
0.000202399
0.00020369
0.000225833
0.000161594
0.00037518
0.000379034
0.00038341
0.000387771
0.000391633
0.000394937
0.000397323
0.00039838
0.000398006
0.000396232
0.000393153
0.00038894
0.000383727
0.000377544
0.000370461
0.000362457
0.000353471
0.000343506
0.000332487
0.000320444
0.000307392
0.000293372
0.000278471
0.000262902
0.000247012
0.000231115
0.000215437
0.000200168
0.00018543
0.000171311
0.000157919
0.00014538
0.000133845
0.000123678
0.000115236
0.000110457
0.000109645
0.000116592
0.000138641
0.000346966
0.000343341
0.00033919
0.000334809
0.000330633
0.000326325
0.000322016
0.00031781
0.000313613
0.000309458
0.000305312
0.000301125
0.00029688
0.000292546
0.000288086
0.00028351
0.000278797
0.000273969
0.000269043
0.000264083
0.000259079
0.000254
0.000248974
0.000243972
0.000238889
0.000233564
0.000228008
0.000222365
0.000216909
0.000211896
0.000207466
0.000203729
0.000200792
0.000198924
0.00019806
0.000199814
0.000198282
0.000213998
0.000200369
0.000350206
0.000353357
0.000356979
0.000360572
0.00036373
0.000366395
0.000368281
0.000369089
0.000368685
0.000367152
0.000364539
0.000361001
0.000356635
0.000351493
0.000345587
0.000338872
0.000331337
0.000322908
0.00031353
0.000303159
0.000291769
0.0002794
0.000266103
0.000252016
0.000237473
0.000222796
0.000208211
0.00019386
0.000179882
0.000166373
0.000153439
0.000141214
0.000129853
0.000119654
0.000110972
0.000105675
0.000104391
0.000110507
0.000130277
0.000324678
0.000321681
0.000318217
0.000314562
0.000311102
0.000307503
0.000303905
0.000300404
0.000296908
0.000293446
0.000289979
0.000286474
0.000282911
0.000279253
0.000275477
0.000271592
0.000267576
0.000263438
0.000259188
0.000254878
0.000250496
0.000246021
0.000241552
0.000237083
0.000232516
0.000227745
0.000222735
0.000217639
0.000212664
0.00020804
0.000203895
0.000200365
0.000197524
0.000195713
0.000194618
0.000195981
0.000195408
0.000201434
0.000207547
0.000327357
0.000329907
0.000332888
0.000335842
0.000338412
0.000340551
0.000342033
0.000342625
0.000342203
0.000340837
0.000338603
0.0003356
0.00033191
0.000327576
0.000322603
0.000316977
0.00031062
0.000303476
0.000295468
0.00028652
0.000276612
0.000265727
0.000253856
0.000241161
0.000227919
0.000214413
0.000200858
0.000187417
0.000174193
0.000161305
0.000148838
0.000136915
0.000125718
0.000115438
0.000106512
0.000100689
9.89707e-05
0.000104413
0.000122218
0.000304167
0.000301706
0.000298832
0.000295791
0.000292929
0.000289948
0.000286972
0.000284065
0.000281162
0.00027829
0.000275429
0.000272511
0.000269545
0.000266482
0.000263324
0.00026004
0.000256637
0.000253113
0.00024947
0.000245758
0.000241951
0.000238047
0.000234098
0.000230146
0.000226081
0.000221817
0.000217346
0.000212758
0.000208243
0.000203989
0.000200138
0.000196816
0.000194098
0.00019228
0.000191127
0.000191748
0.000192255
0.000192713
0.000201603
0.000306359
0.000308442
0.000310878
0.000313295
0.000315357
0.000317075
0.000318219
0.000318605
0.000318166
0.000316939
0.000314984
0.000312404
0.000309255
0.000305583
0.000301388
0.000296614
0.000291223
0.000285146
0.000278277
0.000270563
0.000261953
0.000252378
0.000241839
0.000230421
0.000218374
0.000205991
0.000193445
0.000180877
0.000168392
0.000156107
0.000144111
0.000132506
0.000121426
0.000111112
0.000101941
9.55622e-05
9.33487e-05
9.83139e-05
0.000114473
0.000285261
0.000283234
0.000280871
0.000278364
0.000276009
0.000273549
0.000271101
0.000268718
0.000266334
0.000263978
0.000261607
0.000259203
0.00025676
0.000254229
0.000251599
0.000248857
0.000245997
0.000243013
0.000239922
0.000236746
0.000233475
0.000230095
0.000226641
0.000223165
0.000219586
0.000215807
0.000211824
0.000207727
0.000203651
0.000199764
0.000196209
0.000193087
0.000190491
0.000188661
0.000187477
0.00018748
0.000188226
0.000186664
0.0001927
0.000287032
0.000288705
0.000290706
0.000292676
0.000294311
0.000295653
0.000296528
0.000296751
0.000296284
0.000295154
0.000293436
0.000291195
0.000288495
0.000285347
0.000281748
0.000277667
0.000273086
0.000267889
0.000261991
0.000255344
0.000247849
0.000239447
0.00023008
0.000219832
0.000208908
0.000197561
0.00018598
0.000174254
0.000162505
0.000150819
0.000139284
0.000127977
0.000117053
0.000106671
9.71847e-05
9.022e-05
8.75263e-05
9.21805e-05
0.000107006
0.000267776
0.000266133
0.000264199
0.000262135
0.00026022
0.000258225
0.000256232
0.000254289
0.000252349
0.00025043
0.000248507
0.00024655
0.000244545
0.000242474
0.000240307
0.000238043
0.000235666
0.000233171
0.000230558
0.000227865
0.000225081
0.000222185
0.000219194
0.000216161
0.000213035
0.00020972
0.000206202
0.00020256
0.0001989
0.000195375
0.000192101
0.000189184
0.000186722
0.000184888
0.000183635
0.000183215
0.000183616
0.000181552
0.000184296
0.000269208
0.00027054
0.000272149
0.000273752
0.000275047
0.00027606
0.000276705
0.000276809
0.000276311
0.000275254
0.000273718
0.000271752
0.000269389
0.000266658
0.000263564
0.000260092
0.000256152
0.000251675
0.000246612
0.000240857
0.000234322
0.000226935
0.000218623
0.000209442
0.000199564
0.000189201
0.00017851
0.000167598
0.000156549
0.000145454
0.000134366
0.000123386
0.00011259
0.00010214
9.22968e-05
8.47035e-05
8.15159e-05
8.60361e-05
9.99008e-05
0.000251583
0.000250268
0.000248699
0.000247027
0.000245486
0.000243869
0.000242266
0.000240708
0.000239151
0.000237612
0.000236072
0.0002345
0.000232886
0.000231208
0.000229444
0.000227596
0.000225643
0.000223584
0.000221409
0.000219142
0.000216798
0.000214346
0.000211779
0.00020917
0.000206467
0.000203575
0.000200492
0.000197268
0.000194007
0.000190827
0.000187831
0.000185118
0.000182787
0.000180952
0.000179614
0.000178879
0.000178742
0.000176492
0.000176826
0.000252718
0.000253774
0.000255046
0.000256326
0.000257337
0.000258106
0.000258541
0.00025852
0.000258003
0.000257012
0.000255617
0.000253855
0.000251781
0.000249408
0.000246721
0.000243717
0.000240312
0.000236454
0.000232077
0.000227075
0.000221392
0.000214885
0.00020752
0.000199291
0.000190352
0.000180901
0.000171077
0.000160937
0.000150568
0.000140042
0.000129416
0.00011873
0.000108088
9.75484e-05
8.73419e-05
7.9014e-05
7.52969e-05
7.98979e-05
9.31382e-05
0.00023656
0.000235519
0.000234266
0.000232919
0.000231699
0.000230419
0.000229142
0.000227917
0.000226697
0.000225488
0.000224268
0.000223026
0.000221757
0.000220416
0.000219007
0.000217521
0.000215936
0.000214254
0.000212476
0.000210594
0.000208639
0.000206591
0.000204418
0.000202194
0.000199871
0.000197378
0.0001947
0.00019187
0.000188992
0.000186135
0.000183402
0.000180896
0.000178684
0.000176862
0.000175428
0.000174439
0.000173786
0.00017128
0.000169976
0.000237448
0.000238255
0.000239269
0.000240271
0.000241029
0.000241581
0.00024185
0.000241727
0.000241183
0.000240256
0.00023897
0.000237378
0.000235553
0.000233452
0.000231097
0.000228481
0.000225526
0.000222178
0.000218378
0.000214039
0.000209048
0.000203331
0.000196787
0.000189419
0.000181354
0.000172752
0.000163718
0.000154302
0.000144589
0.000134623
0.000124445
0.000114073
0.000103553
9.29355e-05
8.23249e-05
7.3199e-05
6.88548e-05
7.37725e-05
8.67204e-05
0.00022259
0.000221784
0.000220807
0.000219737
0.00021879
0.000217798
0.000216809
0.000215871
0.000214924
0.000214001
0.000213075
0.000212109
0.000211122
0.000210086
0.000208984
0.000207813
0.00020655
0.000205205
0.000203765
0.000202236
0.000200629
0.000198932
0.000197127
0.000195242
0.00019328
0.00019115
0.000188847
0.000186381
0.000183845
0.000181295
0.000178823
0.00017652
0.000174414
0.000172626
0.000171107
0.000169889
0.000168792
0.000165972
0.000163501
0.000223272
0.000223871
0.000224659
0.000225444
0.000225987
0.000226355
0.000226474
0.000226283
0.000225709
0.000224811
0.000223639
0.000222195
0.000220534
0.000218665
0.000216613
0.000214319
0.000211726
0.000208799
0.000205499
0.000201679
0.000197313
0.000192274
0.000186453
0.000179874
0.00017258
0.000164753
0.00015645
0.00014773
0.000138651
0.000129229
0.000119489
0.000109454
9.90633e-05
8.83407e-05
7.73302e-05
6.72577e-05
6.21635e-05
6.76819e-05
8.06697e-05
0.000209588
0.00020899
0.000208226
0.000207402
0.000206691
0.000205943
0.000205202
0.000204501
0.0002038
0.000203116
0.000202436
0.000201724
0.000200984
0.000200201
0.000199361
0.000198466
0.000197489
0.000196427
0.000195293
0.000194074
0.000192782
0.000191394
0.000189912
0.000188355
0.000186712
0.000184915
0.000182935
0.000180815
0.000178601
0.000176339
0.000174117
0.000171994
0.000170009
0.000168248
0.000166663
0.000165231
0.000163753
0.000160628
0.000157276
0.000210094
0.000210528
0.000211102
0.000211704
0.00021207
0.000212289
0.000212288
0.000212014
0.000211431
0.00021057
0.00020947
0.000208144
0.000206637
0.000204979
0.000203153
0.000201103
0.000198822
0.000196279
0.000193356
0.000190026
0.000186187
0.00018171
0.000176554
0.00017065
0.000164076
0.000156947
0.000149326
0.000141274
0.000132778
0.000123874
0.000114586
0.000104865
9.46758e-05
8.38717e-05
7.24261e-05
6.12207e-05
5.51769e-05
6.16885e-05
7.49753e-05
0.000197467
0.000197032
0.000196464
0.000195851
0.000195332
0.000194793
0.000194269
0.000193775
0.000193289
0.000192812
0.000192331
0.00019183
0.000191312
0.000190754
0.000190141
0.000189471
0.000188745
0.000187941
0.000187058
0.000186112
0.000185099
0.000184004
0.000182795
0.000181532
0.000180171
0.000178679
0.000177007
0.000175195
0.00017327
0.00017128
0.000169292
0.000167336
0.000165474
0.000163743
0.0001621
0.000160481
0.000158687
0.000155307
0.000151291
0.00019781
0.00019812
0.000198519
0.000198946
0.000199188
0.000199268
0.000199178
0.000198838
0.000198241
0.000197411
0.000196359
0.000195148
0.000193779
0.000192277
0.000190635
0.000188802
0.000186796
0.000184547
0.000181972
0.000179044
0.000175634
0.000171681
0.000167092
0.000161795
0.000155856
0.00014936
0.000142383
0.000134935
0.000127011
0.00011862
0.00010976
0.000100373
9.03907e-05
7.95805e-05
6.77083e-05
5.52432e-05
4.7755e-05
5.58751e-05
6.97675e-05
0.000186155
0.000185856
0.000185449
0.000185004
0.00018467
0.000184314
0.000183962
0.00018365
0.00018334
0.000183034
0.00018274
0.000182419
0.000182081
0.000181715
0.000181295
0.00018083
0.00018031
0.000179738
0.000179085
0.000178358
0.000177593
0.000176747
0.000175798
0.000174786
0.000173681
0.000172451
0.00017106
0.000169528
0.000167864
0.000166133
0.00016435
0.000162567
0.000160818
0.000159125
0.000157435
0.000155666
0.000153601
0.000150012
0.00014552
0.000186362
0.000186543
0.000186825
0.000187093
0.00018721
0.0001872
0.000187022
0.000186639
0.000186028
0.000185211
0.000184222
0.000183098
0.000181847
0.000180469
0.000178982
0.000177358
0.000175566
0.000173544
0.000171288
0.000168677
0.000165671
0.000162169
0.00015806
0.000153296
0.000147934
0.000142028
0.000135643
0.000128762
0.00012138
0.000113494
0.000105068
9.60468e-05
8.6285e-05
7.55137e-05
6.3297e-05
4.93845e-05
3.9718e-05
5.04276e-05
6.50771e-05
0.000175568
0.000175384
0.000175121
0.000174841
0.000174651
0.000174439
0.000174236
0.000174073
0.000173921
0.000173774
0.000173618
0.000173456
0.000173276
0.000173074
0.000172823
0.000172529
0.00017219
0.000171799
0.000171354
0.000170835
0.000170267
0.000169641
0.000168924
0.000168134
0.000167265
0.000166268
0.000165112
0.00016383
0.000162418
0.000160907
0.00015932
0.000157707
0.00015606
0.000154406
0.000152685
0.000150794
0.000148509
0.000144767
0.00013995
0.000175678
0.000175755
0.000175928
0.000176082
0.000176092
0.000175984
0.000175747
0.000175336
0.000174708
0.000173909
0.000172985
0.000171922
0.000170762
0.000169502
0.00016815
0.000166689
0.000165066
0.000163274
0.000161252
0.000158944
0.000156278
0.000153143
0.000149477
0.000145199
0.000140344
0.000134983
0.000129125
0.000122765
0.000115909
0.000108526
0.000100547
9.1897e-05
8.24312e-05
7.18089e-05
5.93833e-05
4.40636e-05
3.0632e-05
4.56598e-05
6.09262e-05
0.000165655
0.000165578
0.000165445
0.000165284
0.000165209
0.000165125
0.000165062
0.000165028
0.000164999
0.000164982