/*--------------------------------*- C++ -*----------------------------------*\
| =========                 |                                                 |
| \\      /  F ield         | OpenFOAM: The Open Source CFD Toolbox           |
|  \\    /   O peration     | Version:  2506                                  |
|   \\  /    A nd           | Website:  www.openfoam.com                      |
|    \\/     M anipulation  |                                                 |
\*---------------------------------------------------------------------------*/
FoamFile
{
    version     2.0;
    format      ascii;
    arch        "LSB;label=32;scalar=64";
    class       volScalarField;
    location    "450";
    object      turbulenceProperties:k;
}
// * * * * * * * * * * * * * * * * * * * * * * * * * * * * * * * * * * * * * //

dimensions      [0 2 -2 0 0 0 0];

internalField   nonuniform List<scalar> 
10720
(
0.0199781
0.0232532
0.0274179
0.0330499
0.0396727
0.0480533
0.0587088
0.0718505
0.0885053
0.109757
0.137256
0.17364
0.222542
0.289909
0.385877
0.526365
0.742766
1.07626
1.66179
2.57328
4.62742
7.73378
18.1058
35.3436
39.1658
37.4695
36.8197
37.4945
38.3302
38.5427
38.0322
36.8967
35.062
32.5518
29.3105
25.4143
20.1269
14.875
3.46755
0.0170386
0.0146483
0.011955
0.00963847
0.00744358
0.00545906
0.00385213
0.00288488
0.00301492
0.00406983
0.00603133
0.00903308
0.0133978
0.0196371
0.028419
0.0408173
0.0586624
0.0853448
0.12707
0.195059
0.311628
0.517847
0.911263
1.66856
3.31962
6.78861
15.1733
31.2658
44.3054
49.9008
51.4882
51.7481
51.4499
50.7222
49.6019
48.1504
46.0271
43.5545
35.6742
0.0031076
0.00309043
0.00305509
0.00296699
0.00283059
0.00267372
0.00248861
0.00228038
0.00207425
0.0018721
0.00167934
0.00154524
0.00152589
0.00167372
0.00216395
0.00336932
0.00632408
0.0130685
0.031385
0.0767767
0.227314
0.627431
1.92731
6.18307
12.1009
18.1964
23.9246
27.9859
28.7949
26.42
22.5167
18.5649
15.3598
12.9029
11.0152
9.51829
8.47187
7.38117
7.92664
0.00307934
0.00303752
0.00295212
0.00282556
0.00265253
0.00242442
0.00215683
0.00189734
0.00165748
0.00141947
0.00119299
0.000996944
0.000831315
0.000690803
0.000571735
0.000471396
0.000386278
0.000314248
0.000251126
0.000193459
0.000136415
8.06524e-05
2.79567e-05
4.55977e-06
1.16257e-05
0.00159576
0.00854139
0.0688327
0.231453
0.451774
0.673403
0.867768
1.03112
1.17491
1.30945
1.44808
1.59465
1.92193
2.67275
0.00208396
0.00206751
0.00202089
0.00194959
0.00187506
0.00179316
0.00171036
0.00163592
0.00157187
0.0015222
0.0014838
0.00146173
0.00145581
0.00146813
0.00147204
0.00143202
0.00120494
0.00108775
0.000360324
0.00641746
0.0125492
0.000633441
0.00686496
0.015842
0.178928
0.641069
1.64123
3.70843
7.32678
12.1046
16.4262
18.5513
18.1376
16.2866
14.1307
12.1063
10.5201
8.70941
9.78635
0.00210018
0.00209759
0.00209204
0.00205482
0.00198873
0.00187778
0.00172483
0.00155016
0.00138783
0.00122085
0.00104116
0.000867179
0.000711459
0.000577364
0.000466673
0.000377307
0.000307654
0.000254832
0.000216404
0.000188806
0.000169799
0.000157461
0.000150687
0.00014697
0.000146797
0.000145858
0.000155148
9.22795e-05
0.000635763
0.00417625
0.0118345
0.0247096
0.055126
0.115001
0.20355
0.312036
0.429964
0.514673
0.878532
0.00175895
0.00176259
0.00175373
0.00173914
0.00170901
0.00166415
0.00160824
0.00153846
0.00145869
0.00137045
0.00127564
0.00117557
0.00107122
0.000964459
0.000856252
0.000743061
0.000627369
0.000534439
0.000414003
0.000226936
2.93706e-05
8.40288e-05
0
0.00397769
0.0211213
0.0426031
0.0596599
0.00143288
0.0341069
0.35793
1.59
4.33417
8.12495
11.2751
12.6325
12.4501
11.7084
10.2481
11.0364
0.00174007
0.0017115
0.00166662
0.00161259
0.00154483
0.0014561
0.0013525
0.00124228
0.0011275
0.00100295
0.0008742
0.000753505
0.000646856
0.00055497
0.000477319
0.000412214
0.000358663
0.000315048
0.000280039
0.000251538
0.000228377
0.000208928
0.000191498
0.000173161
0.000154333
0.000138677
0.000126854
0.000118357
0.000108052
9.477e-05
7.11783e-05
4.49378e-05
0.000344168
0.000593823
0.00214554
0.0115062
0.0379086
0.0959136
0.3491
0.00131961
0.00131728
0.00130698
0.00128864
0.00126025
0.00122179
0.00117529
0.00112145
0.00106204
0.00100073
0.000939435
0.00088067
0.000827025
0.000780154
0.000741139
0.000708363
0.000674004
0.000629591
0.000588351
0.000524712
0.000416307
0.000250966
2.66297e-05
7.73695e-06
0
0
0
0.000814891
0.0221806
0.00973664
0.0286471
0.0530124
0.333877
1.94928
5.00323
8.10731
10.0687
10.4368
11.6173
0.00131619
0.00130688
0.00128834
0.00125864
0.0012168
0.00115752
0.00108655
0.00101039
0.000929165
0.000840011
0.000747252
0.000656504
0.000571274
0.000493047
0.000422863
0.000361198
0.00030818
0.000263573
0.000226873
0.000196943
0.000172783
0.00015309
0.000136461
0.000120586
0.000104459
8.95743e-05
7.77572e-05
6.9569e-05
6.59974e-05
6.09937e-05
7.45295e-05
1.76003e-05
0.000114595
0.000540234
0.000150517
0.00049085
0.00134015
0.00315372
0.0677497
0.00108164
0.00108626
0.00108582
0.00108193
0.00107129
0.00105407
0.001031
0.00100118
0.000965216
0.000924087
0.000878133
0.000828463
0.00077623
0.000722375
0.000667838
0.000611328
0.000549766
0.000486316
0.000427962
0.000375598
0.000336318
0.000296138
0.000254002
9.89562e-05
1.28179e-05
6.64173e-06
2.97506e-06
1.80053e-07
0
0.00126508
0.00683876
0.0369043
0.00706188
0.0905524
0.197973
1.85443
5.1763
8.34378
11.085
0.00107182
0.00105827
0.00103859
0.00101258
0.00097921
0.000935347
0.000884851
0.000830692
0.000771781
0.000706663
0.000638477
0.000570604
0.000505639
0.000445122
0.000390098
0.000341239
0.000298774
0.000262567
0.000232215
0.000206926
0.000185812
0.000167758
0.000151531
0.000135386
0.000118609
0.000102649
8.87097e-05
7.70649e-05
6.72884e-05
5.91573e-05
5.21834e-05
4.58147e-05
3.64763e-05
2.58982e-05
1.44354e-05
6.42826e-05
0.000229985
0.00072174
0.00771993
0.000874963
0.000878817
0.000879425
0.0008772
0.00087021
0.000858097
0.000841185
0.000818954
0.000791599
0.000759845
0.000724293
0.000685802
0.000645567
0.000604703
0.000564198
0.000525397
0.000490235
0.000457461
0.000423988
0.000389275
0.000355207
0.000323805
0.000306512
0.000269268
0.000190678
0.000116573
4.45273e-05
2.2315e-06
3.74049e-06
3.23274e-07
0
0
0.000932019
0.0285847
0.0216376
0.127641
0.850254
4.25495
8.89326
0.000867781
0.000858061
0.000843902
0.00082442
0.000799136
0.000766691
0.000730244
0.000690496
0.000646736
0.000598745
0.000548309
0.000497335
0.00044734
0.000399443
0.000354475
0.000313192
0.000275994
0.000243107
0.00021454
0.000189953
0.000168869
0.000150586
0.000134199
0.00011846
0.000102693
8.77605e-05
7.46231e-05
6.35843e-05
5.43816e-05
4.6908e-05
4.13234e-05
3.77072e-05
3.56717e-05
3.28401e-05
2.36891e-05
7.12072e-06
1.25924e-06
6.80447e-08
0.00023484
0.000725201
0.000730149
0.0007331
0.00073428
0.000732264
0.000726781
0.000718003
0.000705351
0.000688794
0.000668665
0.000644938
0.000618119
0.000588687
0.000557128
0.00052402
0.000490036
0.000454765
0.000417273
0.000379266
0.00034342
0.000311576
0.000285364
0.000266179
0.000254054
0.00023474
0.000200967
0.000155425
0.000106311
6.40015e-05
5.09931e-06
3.05517e-06
1.133e-07
0
0
0.00312473
0.0539466
0.0990882
0.967516
5.32819
0.000717761
0.000708788
0.00069678
0.000680831
0.00066084
0.000636089
0.000609031
0.000579209
0.00054619
0.000510363
0.000472547
0.000433903
0.000395418
0.000357789
0.000321752
0.000288025
0.000257013
0.00022909
0.000204407
0.00018281
0.000163953
0.000147309
0.000132155
0.000117539
0.000102971
8.90578e-05
7.65913e-05
6.57487e-05
5.63487e-05
4.81443e-05
4.10882e-05
3.50532e-05
2.9885e-05
2.54236e-05
2.22148e-05
1.85508e-05
1.35996e-05
1.58486e-06
1.68259e-05
0.000604948
0.000609714
0.000613178
0.000615354
0.000615273
0.000612644
0.000607493
0.000599289
0.000587947
0.000573565
0.000556099
0.0005358
0.000513023
0.000488157
0.000461706
0.000434096
0.000406
0.000378471
0.0003516
0.000325409
0.000300323
0.000277375
0.000256823
0.00023885
0.000221228
0.000200288
0.000177414
0.000152425
0.000128808
9.25504e-05
6.0205e-05
2.27616e-06
1.60824e-06
0
0
0
0.0311209
0.132179
2.11962
0.000598402
0.000590839
0.000581071
0.000568092
0.000552265
0.000533149
0.000512552
0.000489735
0.000464509
0.000437393
0.00040876
0.000379278
0.000349554
0.000319988
0.000291125
0.000263467
0.000237445
0.0002134
0.00019154
0.000171903
0.000154346
0.000138523
0.000123935
0.000109943
9.61994e-05
8.30999e-05
7.12964e-05
6.0986e-05
5.20658e-05
4.4389e-05
3.7903e-05
3.26554e-05
2.86485e-05
2.58658e-05
2.42647e-05
2.44999e-05
2.62697e-05
2.8e-05
1.05729e-06
0.000509972
0.000514647
0.000518549
0.000521564
0.000522974
0.000522611
0.00052044
0.000515956
0.000509091
0.000499874
0.000488122
0.00047393
0.000457517
0.000439057
0.000418803
0.000397059
0.000374314
0.000350492
0.000325772
0.000301199
0.000278096
0.000257446
0.000239265
0.000221991
0.000203623
0.000183191
0.000162569
0.000144327
0.000129879
0.00011785
0.000105811
7.66249e-05
3.22044e-05
2.86099e-06
0
0
4.52234e-06
0.00245246
0.552994
0.000503997
0.000497418
0.000489186
0.000478395
0.000465651
0.000450739
0.000434684
0.000416916
0.000397459
0.00037668
0.000354767
0.000332147
0.000309079
0.000285822
0.000262754
0.00024025
0.000218629
0.000198247
0.000179325
0.000161963
0.000146138
0.000131645
0.00011813
0.000105171
9.25082e-05
8.04313e-05
6.94374e-05
5.97499e-05
5.12411e-05
4.38022e-05
3.73717e-05
3.19119e-05
2.73575e-05
2.37845e-05
2.11694e-05
2.06334e-05
2.03149e-05
3.41476e-05
1.42511e-05
0.000432993
0.000437361
0.000441295
0.000444611
0.000446724
0.000447588
0.00044707
0.000444826
0.00044071
0.000434687
0.00042655
0.000416372
0.000404204
0.000390098
0.000374294
0.000357015
0.000338498
0.000319188
0.000299514
0.000279878
0.000260898
0.000243089
0.000226632
0.000210586
0.000193172
0.000173609
0.000153286
0.000135006
0.000120342
0.000109651
0.000101639
9.67661e-05
8.46989e-05
4.93445e-05
3.28057e-06
0
0
0.00292746
0.142744
0.000427624
0.000421918
0.000415031
0.000406001
0.000395592
0.000383817
0.000371089
0.000357057
0.000341889
0.000325808
0.000308894
0.000291369
0.000273398
0.000255115
0.000236702
0.000218426
0.00020054
0.000183325
0.000166981
0.000151658
0.000137385
0.000124063
0.000111491
9.93955e-05
8.76189e-05
7.63946e-05
6.60867e-05
5.69201e-05
4.88439e-05
4.17659e-05
3.56588e-05
3.05411e-05
2.63888e-05
2.32768e-05
2.11425e-05
2.08847e-05
2.07859e-05
2.94881e-05
3.68198e-05
0.000370118
0.000374187
0.000378003
0.00038142
0.000383976
0.000385652
0.000386287
0.000385609
0.000383483
0.00037985
0.00037456
0.000367565
0.000358878
0.000348476
0.000336506
0.000323102
0.00030843
0.000292832
0.000276395
0.000259496
0.000242871
0.000227087
0.000212289
0.000197822
0.000182277
0.000164879
0.00014653
0.000129362
0.000114882
0.000103261
9.37943e-05
8.76147e-05
8.46386e-05
8.15139e-05
5.34013e-05
2.63291e-06
0
0.000815518
0.0494311
0.00036531
0.000360314
0.000354485
0.00034687
0.000338284
0.000328838
0.00031862
0.000307398
0.000295461
0.000282876
0.000269691
0.000256035
0.000241997
0.000227559
0.000212864
0.000198079
0.000183361
0.000168899
0.000154888
0.000141496
0.000128787
0.000116733
0.000105209
9.40585e-05
8.32299e-05
7.28819e-05
6.333e-05
5.47392e-05
4.71169e-05
4.03882e-05
3.45419e-05
2.95679e-05
2.54482e-05
2.22432e-05
1.99578e-05
1.93675e-05
1.95849e-05
2.51732e-05
4.02113e-05
0.000318124
0.000321876
0.000325507
0.000328864
0.000331609
0.000333692
0.000335027
0.000335355
0.000334553
0.000332572
0.000329239
0.000324488
0.000318315
0.000310668
0.000301607
0.000291195
0.000279559
0.000266976
0.000253631
0.000239764
0.00022583
0.000212252
0.000199139
0.000186051
0.000172086
0.000156606
0.00014026
0.00012471
0.000111235
9.99399e-05
9.02943e-05
8.22552e-05
7.66379e-05
7.4512e-05
7.83993e-05
4.02438e-05
6.25873e-08
0.000264179
0.0163973
0.000313856
0.000309462
0.000304475
0.00029804
0.000290917
0.000283224
0.000274917
0.000265867
0.000256363
0.000246441
0.000236081
0.000225365
0.000214323
0.00020291
0.000191171
0.000179213
0.000167113
0.000155039
0.000143127
0.000131504
0.000120249
0.000109392
9.88872e-05
8.86505e-05
7.86941e-05
6.91632e-05
6.02954e-05
5.22651e-05
4.50736e-05
3.8706e-05
3.3129e-05
2.8381e-05
2.44552e-05
2.14168e-05
1.92702e-05
1.86339e-05
1.88981e-05
2.31763e-05
3.69551e-05
0.000274797
0.000278219
0.000281641
0.000284858
0.000287627
0.000289938
0.000291703
0.000292678
0.000292793
0.000291962
0.00029005
0.000287005
0.000282754
0.000277282
0.000270548
0.000262625
0.000253547
0.000243536
0.00023272
0.000221209
0.000209386
0.000197652
0.000186104
0.000174424
0.00016199
0.000148293
0.00013382
0.000119872
0.000107546
9.70305e-05
8.79533e-05
8.00249e-05
7.33612e-05
6.84407e-05
6.73352e-05
8.0229e-05
1.11568e-07
2.81894e-05
0.00415638
0.000270985
0.000267134
0.00026282
0.000257358
0.000251396
0.000245066
0.00023822
0.000230873
0.000223241
0.000215346
0.000207138
0.000198677
0.000189949
0.000180882
0.000171499
0.000161839
0.000151931
0.00014189
0.000131802
0.000121776
0.000111889
0.000102199
9.26859e-05
8.33665e-05
7.42778e-05
6.5539e-05
5.73483e-05
4.987e-05
4.31274e-05
3.71167e-05
3.1819e-05
2.72767e-05
2.34819e-05
2.04873e-05
1.83392e-05
1.75961e-05
1.77518e-05
2.14575e-05
3.32484e-05
0.000238405
0.000241511
0.000244681
0.000247721
0.000250422
0.000252827
0.000254811
0.000256182
0.000256893
0.000256865
0.000255964
0.00025415
0.000251353
0.000247489
0.000242559
0.000236567
0.000229556
0.000221622
0.000212928
0.000203554
0.000193687
0.000183691
0.000173631
0.000163314
0.000152289
0.000140214
0.000127419
0.000114912
0.000103652
9.39186e-05
8.54525e-05
7.80905e-05
7.16298e-05
6.67845e-05
6.01354e-05
7.5203e-05
3.8162e-05
4.23484e-07
0.000309635
0.000234983
0.000231597
0.000227865
0.000223183
0.000218167
0.000212886
0.000207208
0.000201194
0.000195026
0.000188673
0.000182122
0.000175402
0.00016845
0.000161235
0.000153725
0.000145915
0.000137814
0.000129482
0.000120975
0.000112367
0.000103748
9.51627e-05
8.6626e-05
7.81731e-05
6.98893e-05
6.19064e-05
5.43725e-05
4.74226e-05
4.11202e-05
3.54448e-05
3.04309e-05
2.61004e-05
2.2454e-05
1.95618e-05
1.74622e-05
1.66641e-05
1.67222e-05
1.98511e-05
2.99815e-05
0.000207606
0.000210434
0.000213348
0.000216165
0.00021877
0.000221173
0.000223244
0.00022486
0.000225961
0.000226476
0.000226295
0.000225358
0.000223625
0.000221008
0.000217493
0.00021305
0.000207714
0.000201511
0.000194581
0.000186981
0.00017879
0.00017031
0.00016161
0.000152596
0.000142892
0.000132298
0.000121035
0.000109878
9.9645e-05
9.06523e-05
8.27578e-05
7.58842e-05
6.98328e-05
6.53532e-05
5.95093e-05
6.02593e-05
7.12229e-05
1.44379e-07
2.28664e-05
0.000204553
0.000201548
0.000198304
0.000194281
0.000190044
0.000185581
0.00018084
0.000175869
0.000170833
0.000165689
0.000160426
0.000155042
0.000149501
0.000143723
0.000137687
0.000131362
0.000124751
0.000117851
0.000110699
0.000103355
9.58788e-05
8.8318e-05
8.07027e-05
7.30941e-05
6.55922e-05
5.83229e-05
5.14162e-05
4.4989e-05
3.91105e-05
3.37908e-05
2.90495e-05
2.49185e-05
2.14252e-05
1.86175e-05
1.65356e-05
1.56601e-05
1.56308e-05
1.82552e-05
2.70268e-05
0.000181386
0.000183933
0.000186608
0.000189223
0.000191689
0.000194025
0.000196099
0.000197834
0.00019917
0.000200043
0.00020035
0.000200052
0.000199113
0.000197451
0.000195013
0.000191788
0.00018778
0.000182986
0.000177525
0.000171406
0.000164689
0.000157564
0.00015013
0.0001423
0.000133846
0.000124592
0.00011472
0.000104824
9.55833e-05
8.73051e-05
7.9969e-05
7.35125e-05
6.78797e-05
6.33173e-05
5.97697e-05
5.27312e-05
7.89049e-05
3.49818e-07
3.29345e-10
0.000178679
0.000176002
0.000173144
0.000169685
0.000166067
0.000162293
0.000158293
0.000154158
0.000150013
0.000145818
0.000141554
0.000137207
0.000132754
0.000128113
0.00012325
0.000118133
0.000112723
0.000107016
0.000101027
9.47931e-05
8.8341e-05
8.17213e-05
7.49637e-05
6.81492e-05
6.13848e-05
5.47868e-05
4.84757e-05
4.25533e-05
3.70839e-05
3.21105e-05
2.76417e-05
2.37132e-05
2.03754e-05
1.76575e-05
1.56113e-05
1.46636e-05
1.45544e-05
1.67266e-05
2.42929e-05
0.000158943
0.000161255
0.00016368
0.000166096
0.000168406
0.000170626
0.000172683
0.000174448
0.000175918
0.000176997
0.000177644
0.000177824
0.000177451
0.000176474
0.000174866
0.000172603
0.000169655
0.000165999
0.000161742
0.000156874
0.00015141
0.000145463
0.000139166
0.000132438
0.000125133
0.000117102
0.000108485
9.97563e-05
9.14563e-05
8.38915e-05
7.71053e-05
7.10641e-05
6.581e-05
6.12203e-05
5.86023e-05
5.13003e-05
6.69937e-05
2.53961e-05
5.26001e-07
0.000156519
0.000154157
0.00015164
0.000148634
0.000145539
0.000142305
0.000138904
0.000135458
0.000132008
0.000128562
0.000125081
0.000121566
0.000117958
0.000114219
0.000110282
0.000106121
0.000101691
9.69742e-05
9.19784e-05
8.66902e-05
8.11501e-05
7.53919e-05
6.94386e-05
6.33641e-05
5.72826e-05
5.13173e-05
4.55747e-05
4.01389e-05
3.50728e-05
3.04228e-05
2.62219e-05
2.25107e-05
1.92993e-05
1.66764e-05
1.46628e-05
1.36559e-05
1.34624e-05
1.52639e-05
2.17531e-05
0.000139643
0.000141728
0.000143941
0.000146153
0.000148293
0.000150397
0.000152374
0.000154125
0.000155648
0.000156871
0.000157733
0.000158211
0.000158248
0.000157797
0.000156821
0.000155288
0.000153172
0.00015046
0.000147172
0.000143347
0.000138942
0.000134034
0.000128736
0.000123031
0.000116755
0.000109833
0.000102354
9.46928e-05
8.72776e-05
8.04152e-05
7.41733e-05
6.8549e-05
6.36333e-05
5.92635e-05
5.64493e-05
5.16492e-05
5.48526e-05
5.14829e-05
6.33463e-06
0.000137478
0.000135372
0.000133154
0.000130538
0.000127871
0.00012508
0.000122182
0.000119274
0.000116397
0.000113544
0.000110685
0.000107811
0.000104884
0.000101835
9.86366e-05
9.52505e-05
9.16126e-05
8.77211e-05
8.35469e-05
7.90827e-05
7.43459e-05
6.93498e-05
6.41225e-05
5.87418e-05
5.33015e-05
4.79305e-05
4.27213e-05
3.77488e-05
3.3076e-05
2.87489e-05
2.48077e-05
2.12898e-05
1.82281e-05
1.56833e-05
1.36956e-05
1.2638e-05
1.23767e-05
1.38643e-05
1.94087e-05
0.000122978
0.000124845
0.000126858
0.000128885
0.000130858
0.000132834
0.000134706
0.000136416
0.000137928
0.000139215
0.000140215
0.000140903
0.000141235
0.000141171
0.00014068
0.000139707
0.000138241
0.00013626
0.000133762
0.000130792
0.000127295
0.00012329
0.000118877
0.000114064
0.000108728
0.00010279
9.63487e-05
8.96519e-05
8.30741e-05
7.68831e-05
7.11725e-05
6.59777e-05
6.13776e-05
5.73261e-05
5.41377e-05
5.13047e-05
4.84493e-05
5.53459e-05
2.61579e-05
0.000121034
0.00011916
0.000117191
0.000114917
0.000112596
0.000110182
0.000107698
0.000105224
0.000102813
0.000100431
9.80607e-05
9.56947e-05
9.32985e-05
9.08075e-05
8.8197e-05
8.54242e-05
8.24369e-05
7.92218e-05
7.57328e-05
7.19737e-05
6.79357e-05
6.36223e-05
5.90541e-05
5.42993e-05
4.94628e-05
4.46435e-05
3.99254e-05
3.53894e-05
3.10925e-05
2.70774e-05
2.33893e-05
2.00683e-05
1.71472e-05
1.46924e-05
1.2736e-05
1.16219e-05
1.12977e-05
1.25345e-05
1.72605e-05
0.000108521
0.000110207
0.000112036
0.000113877
0.000115695
0.000117536
0.000119296
0.000120929
0.000122415
0.000123716
0.000124787
0.000125607
0.00012614
0.000126353
0.000126201
0.000125668
0.000124708
0.00012331
0.000121457
0.000119179
0.000116447
0.000113212
0.000109583
0.000105552
0.000101059
9.601e-05
9.04767e-05
8.4663e-05
7.8862e-05
7.33121e-05
6.81237e-05
6.33591e-05
5.9049e-05
5.53016e-05
5.19901e-05
4.98778e-05
4.59153e-05
4.98307e-05
4.05184e-05
0.000106782
0.000105103
0.000103363
0.000101371
9.93488e-05
9.72502e-05
9.51022e-05
9.29954e-05
9.09451e-05
8.89477e-05
8.69683e-05
8.50074e-05
8.30277e-05
8.09877e-05
7.88471e-05
7.65595e-05
7.41035e-05
7.14381e-05
6.85339e-05
6.53694e-05
6.19259e-05
5.82141e-05
5.42472e-05
5.00641e-05
4.57669e-05
4.14546e-05
3.72064e-05
3.30813e-05
2.9138e-05
2.54221e-05
2.19767e-05
1.88467e-05
1.60692e-05
1.36979e-05
1.17716e-05
1.06104e-05
1.02276e-05
1.1264e-05
1.5294e-05
9.59393e-05
9.746e-05
9.91109e-05
0.000100789
0.000102467
0.000104163
0.000105804
0.000107352
0.000108788
0.000110075
0.000111173
0.00011207
0.000112735
0.00011313
0.000113231
0.000113019
0.000112457
0.00011152
0.000110189
0.00010848
0.000106359
0.000103786
0.000100832
9.75014e-05
9.37374e-05
8.94844e-05
8.4761e-05
7.97492e-05
7.4669e-05
6.97304e-05
6.50392e-05
6.06807e-05
5.66786e-05
5.31888e-05
4.99709e-05
4.78596e-05
4.45981e-05
4.42726e-05
4.37893e-05
9.43948e-05
9.28789e-05
9.13321e-05
8.95815e-05
8.78118e-05
8.59809e-05
8.41192e-05
8.23125e-05
8.05642e-05
7.88692e-05
7.72118e-05
7.55755e-05
7.39293e-05
7.2239e-05
7.04679e-05
6.85894e-05
6.65592e-05
6.43474e-05
6.19214e-05
5.92514e-05
5.63284e-05
5.31443e-05
4.96942e-05
4.60308e-05
4.22348e-05
3.83895e-05
3.4567e-05
3.08299e-05
2.72226e-05
2.37954e-05
2.05858e-05
1.76377e-05
1.4998e-05
1.27005e-05
1.08092e-05
9.60911e-06
9.18199e-06
1.006e-05
1.3505e-05
8.49543e-05
8.63283e-05
8.78216e-05
8.93472e-05
9.08822e-05
9.24447e-05
9.39746e-05
9.54229e-05
9.67843e-05
9.80292e-05
9.91345e-05
0.000100064
0.000100811
0.000101332
0.000101626
0.000101645
0.000101379
0.000100799
9.98808e-05
9.86352e-05
9.70187e-05
9.50064e-05
9.26237e-05
8.99081e-05
8.67879e-05
8.322e-05
7.92295e-05
7.49288e-05
7.05077e-05
6.61335e-05
6.19224e-05
5.79578e-05
5.42704e-05
5.10002e-05
4.7969e-05
4.56952e-05
4.3173e-05
4.06354e-05
4.16069e-05
8.35729e-05
8.2225e-05
8.0842e-05
7.92981e-05
7.77348e-05
7.61391e-05
7.45176e-05
7.29494e-05
7.14531e-05
7.00093e-05
6.86027e-05
6.72273e-05
6.58497e-05
6.44441e-05
6.29805e-05
6.1418e-05
5.97316e-05
5.78914e-05
5.58553e-05
5.36071e-05
5.11303e-05
4.84003e-05
4.54206e-05
4.22192e-05
3.88677e-05
3.54524e-05
3.20284e-05
2.86489e-05
2.53567e-05
2.22001e-05
1.9218e-05
1.64495e-05
1.39342e-05
1.17225e-05
9.87e-06
8.63508e-06
8.15917e-06
8.92328e-06
1.18851e-05
7.5345e-05
7.65759e-05
7.79292e-05
7.93196e-05
8.07194e-05
8.21503e-05
8.35638e-05
8.49186e-05
8.6203e-05
8.73975e-05
8.84624e-05
8.93996e-05
9.0191e-05
9.08026e-05
9.12187e-05
9.14155e-05
9.13717e-05
9.10599e-05
9.04691e-05
8.9591e-05
8.83952e-05
8.68466e-05
8.49544e-05
8.27554e-05
8.02016e-05
7.72353e-05
7.3876e-05
7.02178e-05
6.63935e-05
6.25483e-05
5.87949e-05
5.52033e-05
5.18224e-05
4.87653e-05
4.59322e-05
4.35664e-05
4.13826e-05
3.8231e-05
3.82695e-05
7.4103e-05
7.2894e-05
7.16677e-05
7.03042e-05
6.89179e-05
6.7512e-05
6.61006e-05
6.47364e-05
6.34442e-05
6.22027e-05
6.10072e-05
5.98433e-05
5.86874e-05
5.75082e-05
5.62776e-05
5.49687e-05
5.35686e-05
5.20294e-05
5.03216e-05
4.84323e-05
4.63294e-05
4.3997e-05
4.14203e-05
3.86286e-05
3.56809e-05
3.2648e-05
2.95905e-05
2.65417e-05
2.35485e-05
2.06493e-05
1.78823e-05
1.52826e-05
1.28978e-05
1.07652e-05
8.94308e-06
7.6792e-06
7.16554e-06
7.84884e-06
1.04161e-05
6.69064e-05
6.80173e-05
6.92405e-05
7.04985e-05
7.17753e-05
7.30924e-05
7.43958e-05
7.5649e-05
7.68507e-05
7.79788e-05
7.90083e-05
7.99319e-05
8.07306e-05
8.13916e-05
8.18902e-05
8.22128e-05
8.23348e-05
8.22333e-05
8.18874e-05
8.13008e-05
8.04439e-05
7.92794e-05
7.78003e-05
7.60411e-05
7.39713e-05
7.15325e-05
6.8729e-05
6.56344e-05
6.23482e-05
5.89942e-05
5.56643e-05
5.24316e-05
4.9352e-05
4.65077e-05
4.38507e-05
4.14918e-05
3.93781e-05
3.62655e-05
3.52307e-05
6.57984e-05
6.47144e-05
6.36143e-05
6.24121e-05
6.11881e-05
5.99383e-05
5.8703e-05
5.75201e-05
5.63966e-05
5.53212e-05
5.42956e-05
5.33046e-05
5.23191e-05
5.13187e-05
5.02849e-05
4.91983e-05
4.80202e-05
4.6724e-05
4.52944e-05
4.36986e-05
4.19113e-05
3.99147e-05
3.76909e-05
3.52625e-05
3.26779e-05
2.99958e-05
2.7264e-05
2.4522e-05
2.18036e-05
1.9147e-05
1.65827e-05
1.41523e-05
1.18886e-05
9.83612e-06
8.04257e-06
6.7543e-06
6.20921e-06
6.84135e-06
9.10431e-06
5.94848e-05
6.04877e-05
6.15921e-05
6.27363e-05
6.38986e-05
6.50964e-05
6.62936e-05
6.74518e-05
6.85698e-05
6.96287e-05
7.06093e-05
7.15047e-05
7.22986e-05
7.29775e-05
7.35255e-05
7.39313e-05
7.41722e-05
7.423e-05
7.40805e-05
7.37171e-05
7.31324e-05
7.22834e-05
7.11473e-05
6.97664e-05
6.81087e-05
6.61177e-05
6.37973e-05
6.11939e-05
5.8392e-05
5.54848e-05
5.25509e-05
4.96587e-05
4.68665e-05
4.42305e-05
4.17375e-05
3.94384e-05
3.73101e-05
3.43648e-05
3.26323e-05
5.84905e-05
5.75248e-05
5.65331e-05
5.54658e-05
5.43832e-05
5.3283e-05
5.2192e-05
5.11521e-05
5.0174e-05
4.92405e-05
4.83536e-05
4.74971e-05
4.66558e-05
4.5809e-05
4.49324e-05
4.40146e-05
4.30202e-05
4.19305e-05
4.07252e-05
3.93724e-05
3.78604e-05
3.61482e-05
3.4234e-05
3.21207e-05
2.98526e-05
2.7484e-05
2.50573e-05
2.25955e-05
2.01325e-05
1.77018e-05
1.53343e-05
1.30589e-05
1.09187e-05
8.94247e-06
7.18225e-06
5.86554e-06
5.29332e-06
5.90369e-06
7.93451e-06
5.29449e-05
5.38481e-05
5.48468e-05
5.58811e-05
5.69373e-05
5.80318e-05
5.91237e-05
6.01913e-05
6.12312e-05
6.22206e-05
6.31412e-05
6.39954e-05
6.47739e-05
6.5451e-05
6.60255e-05
6.6484e-05
6.6805e-05
6.69751e-05
6.69784e-05
6.67922e-05
6.64186e-05
6.58257e-05
6.49761e-05
6.39077e-05
6.25917e-05
6.09863e-05
5.90848e-05
5.69124e-05
5.45451e-05
5.20382e-05
4.94668e-05
4.68977e-05
4.43731e-05
4.19449e-05
3.9607e-05
3.73943e-05
3.52611e-05
3.24497e-05
3.03296e-05
5.20544e-05
5.11855e-05
5.03032e-05
4.93513e-05
4.83866e-05
4.74115e-05
4.64485e-05
4.55325e-05
4.46736e-05
4.38637e-05
4.30898e-05
4.23459e-05
4.1628e-05
4.08988e-05
4.01498e-05
3.93704e-05
3.85293e-05
3.76072e-05
3.65875e-05
3.54459e-05
3.41525e-05
3.26902e-05
3.10377e-05
2.92018e-05
2.72191e-05
2.51327e-05
2.2975e-05
2.07665e-05
1.85404e-05
1.63221e-05
1.4139e-05
1.20167e-05
9.98932e-06
8.09196e-06
6.36425e-06
5.02454e-06
4.42289e-06
5.03649e-06
6.89596e-06
4.71676e-05
4.79818e-05
4.88865e-05
4.98202e-05
5.07788e-05
5.17765e-05
5.27746e-05
5.37567e-05
5.47106e-05
5.56309e-05
5.6499e-05
5.73027e-05
5.80462e-05
5.87146e-05
5.92974e-05
5.97854e-05
6.01587e-05
6.04107e-05
6.05214e-05
6.04772e-05
6.02695e-05
5.98735e-05
5.9264e-05
5.84466e-05
5.7424e-05
5.61436e-05
5.46001e-05
5.28017e-05
5.08078e-05
4.86623e-05
4.64261e-05
4.41583e-05
4.18816e-05
3.96616e-05
3.74781e-05
3.53612e-05
3.32519e-05
3.05449e-05
2.82182e-05
4.63712e-05
4.55898e-05
4.48013e-05
4.39587e-05
4.30965e-05
4.22296e-05
4.13735e-05
4.05703e-05
3.98108e-05
3.90965e-05
3.8426e-05
3.77791e-05
3.71487e-05
3.6519e-05
3.5885e-05
3.52199e-05
3.45004e-05
3.37148e-05
3.28537e-05
3.1874e-05
3.07741e-05
2.95226e-05
2.80947e-05
2.65062e-05
2.47688e-05
2.29321e-05
2.10152e-05
1.90407e-05
1.70342e-05
1.50137e-05
1.30036e-05
1.1032e-05
9.11511e-06
7.29103e-06
5.60189e-06
4.23469e-06
3.60262e-06
4.24212e-06
5.98138e-06
4.20589e-05
4.27956e-05
4.36065e-05
4.44527e-05
4.53228e-05
4.62294e-05
4.71409e-05
4.8037e-05
4.89151e-05
4.97641e-05
5.05737e-05
5.1333e-05
5.20387e-05
5.26827e-05
5.32578e-05
5.37597e-05
5.41669e-05
5.44685e-05
5.46607e-05
5.47223e-05
5.46454e-05
5.44032e-05
5.39814e-05
5.33823e-05
5.25978e-05
5.15907e-05
5.03402e-05
4.88693e-05
4.72052e-05
4.53803e-05
4.34491e-05
4.14507e-05
3.94145e-05
3.73893e-05
3.53617e-05
3.33426e-05
3.12805e-05
2.86756e-05
2.62464e-05
4.13457e-05
4.06476e-05
3.99335e-05
3.91865e-05
3.84167e-05
3.76465e-05
3.6886e-05
3.61708e-05
3.55022e-05
3.48738e-05
3.42831e-05
3.37154e-05
3.31645e-05
3.26233e-05
3.20757e-05
3.14971e-05
3.08815e-05
3.0219e-05
2.94754e-05
2.86465e-05
2.77073e-05
2.66261e-05
2.54004e-05
2.40184e-05
2.2503e-05
2.08852e-05
1.9185e-05
1.74262e-05
1.56158e-05
1.37771e-05
1.19342e-05
1.01014e-05
8.3036e-06
6.55521e-06
4.90308e-06
3.50315e-06
2.83671e-06
3.5266e-06
5.17826e-06
3.75339e-05
3.81957e-05
3.89267e-05
3.96933e-05
4.04782e-05
4.13017e-05
4.21338e-05
4.29524e-05
4.37602e-05
4.45422e-05
4.52883e-05
4.5997e-05
4.6665e-05
4.72827e-05
4.78421e-05
4.83367e-05
4.8763e-05
4.91014e-05
4.93412e-05
4.94804e-05
4.95039e-05
4.93908e-05
4.91109e-05
4.86881e-05
4.8096e-05
4.73174e-05
4.63218e-05
4.51259e-05
4.37434e-05
4.22034e-05
4.05452e-05
3.87913e-05
3.69812e-05
3.51408e-05
3.32647e-05
3.13504e-05
2.9356e-05
2.68637e-05
2.44049e-05
3.68898e-05
3.62713e-05
3.56266e-05
3.49568e-05
3.42772e-05
3.35868e-05
3.29135e-05
3.22759e-05
3.16834e-05
3.11285e-05
3.06011e-05
3.01059e-05
2.96247e-05
2.91512e-05
2.86738e-05
2.81715e-05
2.76462e-05
2.70769e-05
2.64403e-05
2.57328e-05
2.49218e-05
2.39967e-05
2.29397e-05
2.17387e-05
2.04139e-05
1.89886e-05
1.7486e-05
1.59167e-05
1.42898e-05
1.26222e-05
1.09328e-05
9.23531e-06
7.55142e-06
5.88809e-06
4.27663e-06
2.84853e-06
2.12393e-06
2.89539e-06
4.4933e-06
3.35209e-05
3.41145e-05
3.47719e-05
3.5461e-05
3.6177e-05
3.69255e-05
3.76789e-05
3.84271e-05
3.91652e-05
3.98805e-05
4.05728e-05
4.1231e-05
4.18546e-05
4.24405e-05
4.29757e-05
4.34612e-05
4.38876e-05
4.42501e-05
4.45274e-05
4.47117e-05
4.48107e-05
4.47918e-05
4.46326e-05
4.4345e-05
4.39115e-05
4.33155e-05
4.25337e-05
4.15713e-05
4.04302e-05
3.91427e-05
3.77211e-05
3.61959e-05
3.4591e-05
3.29279e-05
3.11983e-05
2.93971e-05
2.7482e-05
2.51105e-05
2.26801e-05
3.29401e-05
3.23832e-05
3.1812e-05
3.12071e-05
3.05995e-05
2.9989e-05
2.93873e-05
2.88212e-05
2.82934e-05
2.77972e-05
2.73316e-05
2.68943e-05
2.64723e-05
2.60538e-05
2.56358e-05
2.52047e-05
2.47494e-05
2.42518e-05
2.37117e-05
2.30988e-05
2.24064e-05
2.16123e-05
2.06953e-05
1.96495e-05
1.84935e-05
1.72416e-05
1.59148e-05
1.45169e-05
1.30572e-05
1.15497e-05
1.00062e-05
8.44205e-06
6.86741e-06
5.29111e-06
3.73102e-06
2.27364e-06
1.46869e-06
2.36014e-06
3.91723e-06
2.99526e-05
3.04844e-05
3.10777e-05
3.17048e-05
3.23525e-05
3.30279e-05
3.37103e-05
3.43904e-05
3.50662e-05
3.57247e-05
3.63561e-05
3.69661e-05
3.75476e-05
3.80985e-05
3.86081e-05
3.90744e-05
3.9495e-05
3.986e-05
4.01628e-05
4.0385e-05
4.05294e-05
4.05821e-05
4.05181e-05
4.03372e-05
4.00357e-05
3.95882e-05
3.8976e-05
3.82084e-05
3.72796e-05
3.62038e-05
3.49937e-05
3.36768e-05
3.22577e-05
3.07595e-05
2.91738e-05
2.74884e-05
2.56646e-05
2.34239e-05
2.10643e-05
2.94348e-05
2.89347e-05
2.84245e-05
2.78845e-05
2.73399e-05
2.6792e-05
2.62575e-05
2.5756e-05
2.52828e-05
2.48395e-05
2.44298e-05
2.40384e-05
2.36643e-05
2.32959e-05
2.29291e-05
2.25541e-05
2.21542e-05
2.17271e-05
2.12576e-05
2.07331e-05
2.01385e-05
1.94498e-05
1.86584e-05
1.77506e-05
1.67389e-05
1.56423e-05
1.44678e-05
1.32225e-05
1.19177e-05
1.05606e-05
9.15654e-06
7.71817e-06
6.25751e-06
4.77662e-06
3.27903e-06
1.8083e-06
8.73397e-07
1.93649e-06
3.43991e-06
2.67779e-05
2.72576e-05
2.77957e-05
2.83589e-05
2.89417e-05
2.95523e-05
3.01744e-05
3.07928e-05
3.14065e-05
3.20087e-05
3.25895e-05
3.31497e-05
3.36889e-05
3.42005e-05
3.46849e-05
3.51305e-05
3.55371e-05
3.5898e-05
3.62085e-05
3.64567e-05
3.66373e-05
3.67369e-05
3.6743e-05
3.66447e-05
3.64444e-05
3.61156e-05