/*--------------------------------*- C++ -*----------------------------------*\
| =========                 |                                                 |
| \\      /  F ield         | OpenFOAM: The Open Source CFD Toolbox           |
|  \\    /   O peration     | Version:  2506                                  |
|   \\  /    A nd           | Website:  www.openfoam.com                      |
|    \\/     M anipulation  |                                                 |
\*---------------------------------------------------------------------------*/
FoamFile
{
    version     2.0;
    format      ascii;
    arch        "LSB;label=32;scalar=64";
    class       volScalarField;
    location    "37";
    object      p;
}
// * * * * * * * * * * * * * * * * * * * * * * * * * * * * * * * * * * * * * //

dimensions      [0 2 -2 0 0 0 0];

internalField   nonuniform List<scalar> 
400
(
1.48552e-09
-0.000149422
-0.0005271
-0.0010562
-0.00170726
-0.00245608
-0.00313685
-0.0035435
-0.00350942
-0.00288179
-0.00150888
0.000637267
0.00324798
0.00551007
0.00655456
0.00599207
0.00411915
0.00229385
0.00125952
0.00118563
0.000116414
-5.56566e-05
-0.000368861
-0.000751138
-0.00122552
-0.00185938
-0.00266145
-0.00348083
-0.00400436
-0.0038614
-0.00278202
-0.00078228
0.00171192
0.00397997
0.00516621
0.00482819
0.00323748
0.0015279
0.000748364
0.000831193
0.000528266
0.000263009
-7.29211e-05
-0.000548139
-0.00132213
-0.00253059
-0.00413418
-0.00586081
-0.00724986
-0.00778077
-0.00711251
-0.00533256
-0.00278762
-0.00010632
0.00188464
0.00254468
0.00185781
0.000666765
-0.000229463
-0.000235486
0.00112688
0.000724026
0.000187671
-0.000757838
-0.00239645
-0.00482717
-0.00781743
-0.0108765
-0.0134075
-0.0148551
-0.0148876
-0.0135436
-0.0110343
-0.00780855
-0.00456079
-0.00203328
-0.000699122
-0.000537167
-0.0011187
-0.00175095
0.00153132
0.000936628
-3.20525e-05
-0.00188363
-0.00488984
-0.00896532
-0.0135937
-0.0180625
-0.0217232
-0.0241147
-0.0249801
-0.0241999
-0.0218922
-0.0183375
-0.013966
-0.00937941
-0.00536892
-0.00276505
-0.00202939
-0.00383712
0.00122567
0.000399683
-0.00119374
-0.00421454
-0.00879388
-0.0145286
-0.0205803
-0.0260984
-0.0304775
-0.0334038
-0.0347517
-0.0344227
-0.0324931
-0.0291022
-0.0243828
-0.0185484
-0.0121937
-0.00672208
-0.00421952
-0.00632334
-0.000108922
-0.00117803
-0.00345785
-0.0076323
-0.0136053
-0.0206103
-0.0275631
-0.0335864
-0.03819
-0.0412165
-0.0426766
-0.0425923
-0.041026
-0.0380394
-0.0336012
-0.0275869
-0.0201086
-0.0124009
-0.00763966
-0.00756802
-0.00247658
-0.0037319
-0.0065962
-0.0116578
-0.0185895
-0.0263274
-0.0336571
-0.0397614
-0.0442942
-0.0472246
-0.0486468
-0.0486585
-0.0473365
-0.0447214
-0.0407542
-0.03519
-0.0277591
-0.0189679
-0.0115607
-0.0078112
-0.00550886
-0.0068465
-0.010089
-0.015673
-0.0230923
-0.0310996
-0.0384493
-0.0444197
-0.0487845
-0.0515904
-0.0529658
-0.0530215
-0.0518314
-0.0494471
-0.0458668
-0.0409172
-0.0341675
-0.0254323
-0.0163644
-0.00977331
-0.00864588
-0.00995663
-0.0133546
-0.0191129
-0.026627
-0.0345904
-0.0417887
-0.0475793
-0.0518036
-0.0545337
-0.0558946
-0.0559779
-0.0548466
-0.0525664
-0.0492064
-0.044738
-0.0388257
-0.0309106
-0.0218786
-0.014017
-0.0113692
-0.012581
-0.0159262
-0.0215717
-0.0288895
-0.0366271
-0.0436297
-0.0492859
-0.0534454
-0.0561618
-0.0575366
-0.0576385
-0.0565182
-0.0542472
-0.0509553
-0.0467556
-0.0415623
-0.0347122
-0.0266874
-0.0187689
-0.0133886
-0.0144164
-0.0175403
-0.0228158
-0.0297007
-0.0370889
-0.0439068
-0.0495194
-0.0537125
-0.0564873
-0.0579066
-0.0580197
-0.0568684
-0.0545262
-0.0511739
-0.0470389
-0.0423426
-0.0363903
-0.0295106
-0.0219737
-0.0146705
-0.0153661
-0.0180466
-0.0227347
-0.0290002
-0.0359499
-0.0426027
-0.0482618
-0.0525921
-0.0555038
-0.0570061
-0.0571256
-0.0559001
-0.0534238
-0.0499038
-0.0456308
-0.0411793
-0.0357103
-0.0297592
-0.0224912
-0.015308
-0.0155415
-0.0175127
-0.0213348
-0.0267826
-0.0332039
-0.0396985
-0.0454779
-0.0500503
-0.053195
-0.0548447
-0.0549972
-0.0536744
-0.0509959
-0.0472127
-0.0427007
-0.0380966
-0.032699
-0.0277435
-0.0199906
-0.0154288
-0.0151502
-0.0161362
-0.0187741
-0.0231757
-0.0289576
-0.0352824
-0.041242
-0.0461576
-0.0496422
-0.0515233
-0.0517459
-0.0503476
-0.0474223
-0.0432891
-0.0383759
-0.0333554
-0.0278354
-0.0240508
-0.0142841
-0.0151526
-0.0144387
-0.0141325
-0.0152328
-0.0183693
-0.0234069
-0.0295442
-0.0357278
-0.0410761
-0.0450124
-0.0472398
-0.0476345
-0.0462217
-0.0430701
-0.0385379
-0.033077
-0.0274541
-0.0216289
-0.0181496
-0.00396319
-0.0145668
-0.0135449
-0.0116574
-0.0110215
-0.0128169
-0.0170998
-0.023067
-0.0295065
-0.0353523
-0.0398392
-0.0425406
-0.0432373
-0.0419243
-0.0386368
-0.0336933
-0.0274794
-0.0207431
-0.0135485
-0.00718984
0.0156908
-0.0145322
-0.0126268
-0.00867689
-0.00630544
-0.00694437
-0.010662
-0.0165596
-0.0232872
-0.0296653
-0.0347683
-0.0380604
-0.0392017
-0.0381404
-0.0348843
-0.0295779
-0.0222537
-0.013154
-0.00121845
0.0160353
0.05651
-0.011789
-0.0118536
-0.00584529
-0.00196265
-0.00193377
-0.00547032
-0.0114734
-0.0185186
-0.0253934
-0.0310605
-0.0349536
-0.0366488
-0.0360515
-0.0328893
-0.0270104
-0.0176313
-0.00355704
0.0198204
0.0599427
0.129195
-0.0294984
-0.0106887
-0.000780811
0.00283954
0.00222099
-0.00168515
-0.00796344
-0.015323
-0.0225572
-0.0286041
-0.0328726
-0.0349161
-0.0346016
-0.0315137
-0.0250155
-0.0129312
0.0090387
0.0505489
0.122195
0.22551
)
;

boundaryField
{
    movingWall
    {
        type            zeroGradient;
    }
    fixedWalls
    {
        type            zeroGradient;
    }
    frontAndBack
    {
        type            empty;
    }
}


// ************************************************************************* //
