/*--------------------------------*- C++ -*----------------------------------*\
| =========                 |                                                 |
| \\      /  F ield         | OpenFOAM: The Open Source CFD Toolbox           |
|  \\    /   O peration     | Version:  2506                                  |
|   \\  /    A nd           | Website:  www.openfoam.com                      |
|    \\/     M anipulation  |                                                 |
\*---------------------------------------------------------------------------*/
FoamFile
{
    version     2.0;
    format      ascii;
    arch        "LSB;label=32;scalar=64";
    class       surfaceScalarField;
    location    "37";
    object      phi;
}
// * * * * * * * * * * * * * * * * * * * * * * * * * * * * * * * * * * * * * //

dimensions      [0 3 -1 0 0 0 0];

oriented        oriented;

internalField   nonuniform List<scalar> 
760
(
1.52045e-05
-1.52046e-05
2.85024e-05
-1.32978e-05
2.99469e-05
-1.44453e-06
1.73571e-05
1.25898e-05
-1.27449e-05
3.0102e-05
-6.65992e-05
5.38544e-05
-0.000147351
8.07517e-05
-0.000246557
9.92064e-05
-0.000344467
9.79093e-05
-0.000418087
7.36203e-05
-0.000450734
3.26466e-05
-0.000432733
-1.80008e-05
-0.000358237
-7.44954e-05
-0.000238423
-0.000119814
-9.59978e-05
-0.000142425
3.19002e-05
-0.000127898
0.00010635
-7.44498e-05
0.000101712
4.63838e-06
4.55364e-05
5.61752e-05
4.55364e-05
1.18345e-05
-2.70391e-05
6.28691e-06
-7.75025e-06
-3.06926e-05
3.55349e-05
-0.000107931
8.98286e-05
-0.0002299
0.000152071
-0.000388825
0.000212779
-0.000560264
0.000252191
-0.000713382
0.000252325
-0.000825798
0.000210325
-0.000886438
0.00013426
-0.000890525
3.67342e-05
-0.000835708
-7.28185e-05
-0.000725076
-0.000185127
-0.000561808
-0.000283082
-0.000360092
-0.000344142
-0.000150078
-0.000337912
1.58428e-05
-0.00024037
8.4233e-05
-6.37519e-05
5.18929e-05
8.85152e-05
9.74293e-05
-1.32019e-05
-1.38372e-05
-6.36613e-05
4.27093e-05
-0.000161612
0.000133485
-0.00031114
0.000239357
-0.000500128
0.000341059
-0.000699349
0.000411999
-0.000877681
0.000430523
-0.00101707
0.000391719
-0.00111222
0.00030547
-0.00116231
0.000184346
-0.00116237
3.67949e-05
-0.00111736
-0.000117823
-0.00102543
-0.000277056
-0.000881134
-0.000427382
-0.000682391
-0.000542885
-0.000437975
-0.000582328
-0.000187452
-0.000490894
-9.26808e-06
-0.000241936
2.91719e-05
5.00752e-05
0.000126601
-4.97124e-05
3.58752e-05
-0.000154522
0.000147519
-0.000308345
0.000287308
-0.000501843
0.000432855
-0.000709664
0.00054888
-0.000901499
0.000603834
-0.00105717
0.00058619
-0.00117221
0.000506763
-0.00124936
0.000382615
-0.00129209
0.000227076
-0.00129906
4.3768e-05
-0.00127582
-0.000141059
-0.00121869
-0.000334189
-0.00111746
-0.000528612
-0.000958999
-0.000701346
-0.000730855
-0.000810473
-0.000436846
-0.000784902
-0.000137327
-0.000541455
1.18008e-05
-9.90526e-05
0.000138402
-8.50467e-05
0.000120922
-0.000232946
0.000295419
-0.000417423
0.000471784
-0.000619516
0.000634948
-0.000811624
0.000740988
-0.000971602
0.000763812
-0.00109159
0.000706175
-0.00117407
0.00058925
-0.00122523
0.00043377
-0.00125237
0.000254216
-0.0012645
5.59038e-05
-0.00126059
-0.000144969
-0.0012396
-0.00035518
-0.00119352
-0.00057469
-0.00110367
-0.000791201
-0.000941283
-0.000972859
-0.000676691
-0.00104949
-0.000319925
-0.000898221
-2.62316e-05
-0.000392746
0.00011217
-0.000106895
0.000227816
-0.000274127
0.000462652
-0.000460869
0.000658526
-0.000644387
0.000818466
-0.000802493
0.000899094
-0.000921978
0.000883296
-0.00100218
0.000786379
-0.00104949
0.000636562
-0.00107296
0.000457233
-0.00108267
0.000263926
-0.0010908
6.4038e-05
-0.00109646
-0.000139311
-0.00110102
-0.000350622
-0.00110142
-0.00057429
-0.00108209
-0.00081053
-0.00101018
-0.00104477
-0.000836456
-0.00122322
-0.000519881
-0.0012148
-0.000115044
-0.000797582
-2.87387e-06
-0.000109026
0.000336842
-0.000271287
0.000624913
-0.000438753
0.000825992
-0.000590452
0.000970166
-0.000710448
0.00101909
-0.000792286
0.000965135
-0.00083948
0.000833572
-0.000860632
0.000657715
-0.000866164
0.000462764
-0.000865992
0.000263754
-0.000868646
6.66917e-05
-0.000876221
-0.000131737
-0.000890646
-0.000336197
-0.000912951
-0.000551985
-0.000937152
-0.000786329
-0.000939718
-0.0010422
-0.000868576
-0.00129436
-0.000648515
-0.00143486
-0.000240139
-0.00120596
-0.000243013
-9.17285e-05
0.000428571
-0.0002307
0.000763885
-0.000367562
0.000962854
-0.000484011
0.00108662
-0.000569895
0.00110497
-0.000623299
0.00101854
-0.000649722
0.000859995
-0.000658212
0.000666205
-0.00065853
0.000463082
-0.000658232
0.000263456
-0.000661182
6.96412e-05
-0.000669223
-0.000123695
-0.000684541
-0.000320879
-0.000710185
-0.000526341
-0.000747657
-0.000748857
-0.000787355
-0.0010025
-0.000787756
-0.00129396
-0.000667132
-0.00155548
-0.000355335
-0.00151775
-0.000598348
-6.11586e-05
0.000489729
-0.000165743
0.000868469
-0.000267683
0.00106479
-0.000350479
0.00116941
-0.000408479
0.00116297
-0.00044252
0.00105258
-0.000458344
0.00087582
-0.000463805
0.000671667
-0.000466288
0.000465564
-0.000470374
0.000267543
-0.00047721
7.64766e-05
-0.000487526
-0.000113378
-0.00050241
-0.000305995
-0.000524835
-0.000503916
-0.000560338
-0.000713353
-0.000609967
-0.000952876
-0.000651128
-0.0012528
-0.000609274
-0.00159734
-0.000389789
-0.00173724
-0.000988137
-2.2632e-05
0.000512361
-8.76222e-05
0.000933459
-0.000153879
0.00113105
-0.000206086
0.00122162
-0.000241367
0.00119825
-0.000262052
0.00107326
-0.000272912
0.00088668
-0.000279304
0.000678059
-0.000285817
0.000472077
-0.000294753
0.00027648
-0.000306405
8.81287e-05
-0.000320768
-9.90155e-05
-0.000337933
-0.000288831
-0.000359269
-0.00048258
-0.000390135
-0.000682488
-0.000438717
-0.000904293
-0.000499095
-0.00119242
-0.000510222
-0.00158621
-0.000354367
-0.00189309
-0.0013425
1.61759e-05
0.000496185
-6.71542e-06
0.00095635
-3.95444e-05
0.00116388
-6.42583e-05
0.00124633
-7.93697e-05
0.00121337
-8.79495e-05
0.00108184
-9.39631e-05
0.000892693
-0.000100635
0.00068473
-0.000109661
0.000481103
-0.000121793
0.000288612
-0.000137217
0.000103552
-0.000156127
-8.01053e-05
-0.000178442
-0.000266516
-0.000204109
-0.000456913
-0.000236145
-0.000650451
-0.000284156
-0.000856283
-0.000354157
-0.00112242
-0.000401583
-0.00153878
-0.000301934
-0.00199274
-0.00164444
4.91862e-05
0.000446999
6.87096e-05
0.000936827
7.2958e-05
0.00115963
7.65203e-05
0.00124277
8.10793e-05
0.00120881
8.40346e-05
0.00107889
8.33357e-05
0.000893392
7.81314e-05
0.000689935
6.86396e-05
0.000490595
5.5115e-05
0.000302137
3.71686e-05
0.000121499
1.41957e-05
-5.71325e-05
-1.40715e-05
-0.000238249
-4.82788e-05
-0.000422706
-8.9127e-05
-0.000609603
-0.00014153
-0.00080388
-0.000220241
-0.00104371
-0.000295744
-0.00146328
-0.000246293
-0.0020422
-0.00189073
7.40931e-05
0.000372906
0.000132957
0.000877963
0.000171705
0.00112088
0.000204303
0.00121017
0.000231409
0.0011817
0.000249858
0.00106044
0.000258707
0.000884543
0.00025903
0.000689612
0.000252349
0.000497275
0.000239563
0.000314923
0.000220103
0.000140959
0.000192591
-2.96202e-05
0.000156884
-0.000202542
0.000112462
-0.000378284
5.87493e-05
-0.00055589
-9.75144e-06
-0.000735379
-9.72033e-05
-0.000956255
-0.00019356
-0.00136692
-0.000193303
-0.00204245
-0.00208403
8.51737e-05
0.000287732
0.000177572
0.000785565
0.000250726
0.00104773
0.000314094
0.0011468
0.000368316
0.00112748
0.000408931
0.00101983
0.000434217
0.000859257
0.000445569
0.00067826
0.000445426
0.000497418
0.000435476
0.000324873
0.000415633
0.000160802
0.00038334
2.67328e-06
0.000339565
-0.000158768
0.000282278
-0.000320996
0.000211361
-0.000484974
0.000128352
-0.000652369
2.38457e-05
-0.000851749
-9.82891e-05
-0.00124479
-0.000143896
-0.00199685
-0.00222793
7.8778e-05
0.000208954
0.000191427
0.000672916
0.00029418
0.000944975
0.000390392
0.00105059
0.000477207
0.00104066
0.000547911
0.000949121
0.000598474
0.000808693
0.000629175
0.000647559
0.000642232
0.000484361
0.000639661
0.000327444
0.000621543
0.00017892
0.000587156
3.706e-05
0.000534056
-0.000105668
0.000462382
-0.000249322
0.000371349
-0.00039394
0.000263749
-0.000544769
0.000135053
-0.000723054
-1.76269e-05
-0.00109211
-9.29353e-05
-0.00192154
-0.00232086
5.63409e-05
0.000152613
0.000172127
0.000557129
0.000303949
0.000813154
0.000437343
0.000917198
0.000562583
0.000915425
0.000669749
0.000841956
0.000752207
0.000726235
0.000808649
0.000591117
0.000840393
0.000452617
0.000849283
0.000318554
0.000836075
0.000192129
0.000800613
7.25215e-05
0.000738607
-4.36612e-05
0.000651653
-0.000162369
0.000538449
-0.000280736
0.000403132
-0.000409453
0.000252178
-0.0005721
9.19574e-05
-0.000931887
-1.61837e-05
-0.0018134
-0.00233705
1.4398e-05
0.000138216
0.000100909
0.000470618
0.000246337
0.000667726
0.000416348
0.000747186
0.000586654
0.00074512
0.000738559
0.00069005
0.000861724
0.00060307
0.000953145
0.000499696
0.00101235
0.000393415
0.00104063
0.000290267
0.00103864
0.000194123
0.00100701
0.000104149
0.000941734
2.16159e-05
0.000844107
-6.47423e-05
0.000713766
-0.000150395
0.000555674
-0.00025136
0.000385544
-0.00040197
0.000220711
-0.000767054
6.40143e-05
-0.0016567
-0.00227303
-5.11304e-05
0.000189346
1.88775e-05
0.00040061
0.000171727
0.000514877
0.000375217
0.000543696
0.000588155
0.000532182
0.000782138
0.000496067
0.000943451
0.000441757
0.00106797
0.000375177
0.00115391
0.000307473
0.00120304
0.000241143
0.00121582
0.00018134
0.00119434
0.000125635
0.00114058
7.53706e-05
0.00105229
2.35505e-05
0.000929851
-2.79566e-05
0.000779969
-0.000101478
0.000621254
-0.000243255
0.000442721
-0.000588522
0.000204334
-0.00141831
-0.0020687
-0.000417299
0.000606645
-0.000363941
0.000347253
-0.000126281
0.000277216
0.000151087
0.000266328
0.000422512
0.000260757
0.000673642
0.000244937
0.000893379
0.00022202
0.00107578
0.000192773
0.0012191
0.000164158
0.00132603
0.000134215
0.00139829
0.000109079
0.0014403
8.36236e-05
0.00145099
6.4677e-05
0.00143152
4.30258e-05
0.00138066
2.29019e-05
0.0012999
-2.0716e-05
0.00118853
-0.000131887
0.00100974
-0.00040973
0.000563173
-0.00097175
-0.00150553
0.000606645
0.000953898
0.00123111
0.00149744
0.0017582
0.00200314
0.00222516
0.00241793
0.00258209
0.0027163
0.00282538
0.002909
0.00297368
0.00301671
0.00303961
0.00301889
0.00288701
0.00247728
0.00150553
)
;

boundaryField
{
    movingWall
    {
        type            calculated;
        value           uniform 0;
    }
    fixedWalls
    {
        type            calculated;
        value           uniform 0;
    }
    frontAndBack
    {
        type            empty;
    }
}


// ************************************************************************* //
