/*--------------------------------*- C++ -*----------------------------------*\
| =========                 |                                                 |
| \\      /  F ield         | OpenFOAM: The Open Source CFD Toolbox           |
|  \\    /   O peration     | Version:  2506                                  |
|   \\  /    A nd           | Website:  www.openfoam.com                      |
|    \\/     M anipulation  |                                                 |
\*---------------------------------------------------------------------------*/
FoamFile
{
    version     2.0;
    format      ascii;
    arch        "LSB;label=32;scalar=64";
    class       surfaceScalarField;
    location    "35";
    object      phi;
}
// * * * * * * * * * * * * * * * * * * * * * * * * * * * * * * * * * * * * * //

dimensions      [0 3 -1 0 0 0 0];

oriented        oriented;

internalField   nonuniform List<scalar> 
760
(
1.50721e-05
-1.50722e-05
2.8223e-05
-1.31509e-05
2.96121e-05
-1.38916e-06
1.70459e-05
1.25663e-05
-1.29542e-05
3.00001e-05
-6.65865e-05
5.36323e-05
-0.000146983
8.03967e-05
-0.00024579
9.88071e-05
-0.000343382
9.7592e-05
-0.000416856
7.34734e-05
-0.000449532
3.26768e-05
-0.000431757
-1.77756e-05
-0.000357629
-7.41274e-05
-0.000238266
-0.000119364
-9.62879e-05
-0.000141978
3.12819e-05
-0.00012757
0.000105676
-7.43943e-05
0.00010125
4.42616e-06
4.53601e-05
5.58899e-05
4.53601e-05
1.16158e-05
-2.6688e-05
5.9097e-06
-7.44473e-06
-3.09939e-05
3.55145e-05
-0.000107913
8.94851e-05
-0.000229335
0.000151423
-0.000387603
0.0002119
-0.000558476
0.00025127
-0.00071125
0.000251581
-0.000823531
0.000209873
-0.000884197
0.000134139
-0.000888454
3.69337e-05
-0.000833919
-7.23106e-05
-0.000723682
-0.000184365
-0.000560896
-0.000282149
-0.000359702
-0.000343172
-0.000150163
-0.000337109
1.5413e-05
-0.000239971
8.38073e-05
-6.39681e-05
5.17019e-05
8.79954e-05
9.7062e-05
-1.33362e-05
-1.33518e-05
-6.37219e-05
4.2941e-05
-0.000161289
0.000133081
-0.000310157
0.000238354
-0.000498405
0.00033967
-0.000697041
0.000410537
-0.000875038
0.000429267
-0.00101428
0.000390823
-0.00110938
0.00030497
-0.00115949
0.000184253
-0.00115971
3.7151e-05
-0.00111489
-0.000117127
-0.00102325
-0.00027601
-0.000879337
-0.000426058
-0.000681077
-0.000541432
-0.000437218
-0.000580967
-0.000187223
-0.000489965
-9.3809e-06
-0.000241811
2.90959e-05
4.95186e-05
0.000126158
-4.95855e-05
3.62337e-05
-0.000154019
0.000147374
-0.00030719
0.000286252
-0.000499949
0.000431113
-0.000707177
0.000546897
-0.000898679
0.000602039
-0.00105422
0.000584804
-0.00116921
0.000505817
-0.00124634
0.000382098
-0.00128908
0.000226994
-0.00129613
4.42012e-05
-0.001273
-0.000140257
-0.00121606
-0.000332951
-0.00111511
-0.000527003
-0.000957041
-0.000699506
-0.000729389
-0.000808619
-0.000435988
-0.000783366
-0.00013713
-0.000540668
1.17459e-05
-9.93577e-05
0.000137904
-8.46756e-05
0.000120909
-0.00023194
0.000294639
-0.000415689
0.000470001
-0.00061717
0.000632594
-0.000808926
0.000738654
-0.000968782
0.000761895
-0.00108875
0.000704769
-0.00117123
0.000588298
-0.00122237
0.000433236
-0.00124948
0.000254111
-0.00126157
5.62925e-05
-0.00125771
-0.000144122
-0.00123684
-0.000353819
-0.00119096
-0.000572882
-0.00110138
-0.000789086
-0.00093936
-0.00097064
-0.000675296
-0.00104743
-0.000319269
-0.000896695
-2.62311e-05
-0.000392395
0.000111673
-0.000106349
0.000227258
-0.000272866
0.000461156
-0.000458955
0.00065609
-0.000642042
0.000815682
-0.000799975
0.000896586
-0.000919446
0.000881366
-0.000999662
0.000784986
-0.00104695
0.000635582
-0.00107033
0.000456614
-0.00107991
0.000263699
-0.00108792
6.42973e-05
-0.00109356
-0.00013848
-0.0010982
-0.000349175
-0.00109879
-0.000572296
-0.00107971
-0.000808162
-0.00100809
-0.00104226
-0.000834731
-0.00122079
-0.000518727
-0.0012127
-0.000114818
-0.000796304
-3.14561e-06
-0.000108436
0.000335694
-0.000270023
0.000622743
-0.000436974
0.00082304
-0.000588379
0.000967087
-0.000708291
0.0010165
-0.000790139
0.000963214
-0.000837317
0.000832164
-0.00085837
0.000656636
-0.000863715
0.000461958
-0.000863307
0.000263292
-0.000865755
6.67449e-05
-0.000873236
-0.000130999
-0.000887715
-0.000334695
-0.000910235
-0.000549776
-0.000934758
-0.000783639
-0.000937663
-0.00103936
-0.000866822
-0.00129163
-0.000647156
-0.00143237
-0.000239563
-0.0012039
-0.000242709
-9.12157e-05
0.00042691
-0.000229623
0.00076115
-0.000366094
0.000959511
-0.000482339
0.00108333
-0.000568166
0.00110232
-0.000621559
0.00101661
-0.000647922
0.000858526
-0.000656256
0.00066497
-0.000656325
0.000462028
-0.000655739
0.000262705
-0.000658434
6.94398e-05
-0.000666312
-0.000123121
-0.000681618
-0.000319389
-0.000707447
-0.000523947
-0.000745289
-0.000745797
-0.00078543
-0.000999216
-0.0007862
-0.00129086
-0.000665866
-0.0015527
-0.000354441
-0.00151532
-0.00059715
-6.07947e-05
0.000487704
-0.000164952
0.000865307
-0.000266604
0.00106116
-0.000349246
0.00116597
-0.000407188
0.00116027
-0.000441193
0.00105061
-0.00045694
0.000874274
-0.000462246
0.000670276
-0.000464501
0.000464282
-0.000468325
0.00026653
-0.000474907
7.60215e-05
-0.000485023
-0.000113005
-0.000499813
-0.000304599
-0.000522322
-0.000501438
-0.000558134
-0.000709985
-0.000608239
-0.000949111
-0.000649841
-0.00124926
-0.000608249
-0.00159429
-0.000389051
-0.00173452
-0.000986201
-2.24675e-05
0.000510172
-8.71753e-05
0.000930015
-0.000153229
0.00112722
-0.000205315
0.00121806
-0.000240529
0.00119548
-0.000261162
0.00107125
-0.000271955
0.000885067
-0.000278241
0.000676562
-0.000284603
0.000470644
-0.000293358
0.000275285
-0.000304807
8.74704e-05
-0.00031897
-9.88417e-05
-0.000335979
-0.00028759
-0.000357273
-0.000480145
-0.000388308
-0.00067895
-0.000437294
-0.000900124
-0.000498135
-0.00118842
-0.000509543
-0.00158288
-0.000353904
-0.00189016
-0.0013401
1.61187e-05
0.000494053
-6.61768e-06
0.000952752
-3.93156e-05
0.00115991
-6.39395e-05
0.00124268
-7.89863e-05
0.00121053
-8.75142e-05
0.00107977
-9.3484e-05
0.000891037
-0.000100117
0.000683195
-0.000109093
0.00047962
-0.00012115
0.000287342
-0.000136455
0.000102775
-0.000155205
-8.0091e-05
-0.000177345
-0.000265451
-0.00020287
-0.00045462
-0.000234902
-0.000646918
-0.000283159
-0.000851866
-0.000353553
-0.00111803
-0.000401227
-0.00153521
-0.000301698
-0.00198969
-0.0016418
4.89119e-05
0.000445141
6.83888e-05
0.000933275
7.26841e-05
0.00115562
7.63272e-05
0.00123904
8.09773e-05
0.00120588
8.39995e-05
0.00107675
8.33188e-05
0.000891717
7.80885e-05
0.000688425
6.85532e-05
0.000489155
5.50049e-05
0.00030089
3.70882e-05
0.000120692
1.42109e-05
-5.72137e-05
-1.39056e-05
-0.000237334
-4.79438e-05
-0.000420581
-8.86589e-05
-0.000606203
-0.000141112
-0.000799413
-0.000220073
-0.00103907
-0.000295737
-0.00145955
-0.000246289
-0.00203914
-0.00188809
7.36051e-05
0.000371536
0.000132234
0.000874646
0.000170918
0.00111694
0.000203555
0.0012064
0.000230768
0.00117866
0.000249312
0.00105821
0.000258182
0.000882848
0.000258441
0.000688166
0.000251644
0.000495952
0.000238745
0.000313789
0.000219223
0.000140214
0.000191731
-2.97218e-05
0.000156125
-0.000201728
0.000111878
-0.000376334
5.83643e-05
-0.00055269
-1.00005e-05
-0.000731048
-9.75222e-05
-0.000951544
-0.000193941
-0.00136313
-0.000193478
-0.0020396
-0.00208157
8.45441e-05
0.000286992
0.000176493
0.000782696
0.000249434
0.001044
0.000312756
0.00114308
0.000367042
0.00112438
0.000407748
0.0010175
0.000433067
0.000857528
0.000444361
0.000676872
0.000444084
0.000496229
0.000433975
0.000323899
0.000414008
0.000160181
0.000381667
2.61926e-06
0.000337941
-0.000158003
0.000280811
-0.000319203
0.000210147
-0.000482026
0.000127409
-0.00064831
2.30756e-05
-0.000847211
-9.89693e-05
-0.00124108
-0.000144214
-0.00199435
-0.00222578
7.81321e-05
0.00020886
0.000190108
0.000670721
0.000292463
0.00094164
0.000388495
0.00104705
0.000475277
0.00103759
0.000546021
0.000946758
0.000596607
0.000806942
0.000627256
0.000646224
0.000640183
0.000483302
0.000637436
0.000326645
0.000619155
0.000178463
0.00058468
3.70936e-05
0.000531588
-0.000104911
0.000460057
-0.000247672
0.000369313
-0.000391282
0.000262139
-0.000541136
0.000133867
-0.000718939
-1.82978e-05
-0.00108892
-9.34324e-05
-0.00191922
-0.00231922
5.58248e-05
0.000153035
0.000170779
0.000555767
0.000301968
0.00081045
0.000434922
0.000914097
0.000559922
0.000912596
0.000666988
0.000839691
0.000749398
0.000724532
0.000805768
0.000589854
0.000837389
0.000451682
0.000846121
0.000317913
0.000832759
0.000191824
0.00079721
7.26433e-05
0.000735223
-4.29244e-05
0.000648445
-0.000160894
0.000535605
-0.000278443
0.000400879
-0.000406409
0.000250525
-0.000568585
9.0698e-05
-0.00092909
-1.67766e-05
-0.00181175
-0.00233599
1.40824e-05
0.000138953
9.97461e-05
0.000470103
0.000244364
0.000665832
0.000413677
0.000744784
0.000583482
0.000742791
0.000735079
0.000688094
0.000858045
0.000601565
0.000949304
0.000498595
0.00100833
0.000392652
0.00103645
0.000289797
0.0010343
0.000193977
0.00100258
0.000104364
0.000937416
2.2235e-05
0.000840012
-6.34895e-05
0.000710164
-0.000148595
0.000552817
-0.000249062
0.000383593
-0.000399361
0.00021953
-0.000765027
6.35549e-05
-0.00165577
-0.00227244
-5.09384e-05
0.000189891
1.83463e-05
0.000400818
0.000170124
0.000514055
0.000372552
0.000542356
0.00058462
0.000530723
0.000777986
0.000494729
0.000938864
0.000440687
0.00106307
0.000374385
0.00114877
0.00030696
0.00119771
0.000240851
0.00121041
0.000181284
0.00118896
0.000125806
0.00113534
7.586e-05
0.00104745
2.44e-05
0.000925739
-2.68845e-05
0.00077677
-0.000100093
0.000619157
-0.000241749
0.000441582
-0.000587452
0.000203859
-0.00141805
-0.00206858
-0.000417096
0.000606987
-0.000363944
0.000347667
-0.000127047
0.000277157
0.000149351
0.000265958
0.00041985
0.000260224
0.000670203
0.000244376
0.000889356
0.000221534
0.00107135
0.000192391
0.00121441
0.000163899
0.0013212
0.00013406
0.00139344
0.000109043
0.00143555
8.36964e-05
0.00144653
6.48884e-05
0.00142759
4.33309e-05
0.0013774
2.33103e-05
0.00129739
-2.00851e-05
0.00118702
-0.000131376
0.0010091
-0.000409532
0.000562912
-0.00097186
-0.00150567
0.000606987
0.000954653
0.00123181
0.00149777
0.00175799
0.00200237
0.0022239
0.00241629
0.00258019
0.00271425
0.00282329
0.00290699
0.00297188
0.00301521
0.00303852
0.00301844
0.00288706
0.00247753
0.00150567
)
;

boundaryField
{
    movingWall
    {
        type            calculated;
        value           uniform 0;
    }
    fixedWalls
    {
        type            calculated;
        value           uniform 0;
    }
    frontAndBack
    {
        type            empty;
    }
}


// ************************************************************************* //
