/*--------------------------------*- C++ -*----------------------------------*\
| =========                 |                                                 |
| \\      /  F ield         | OpenFOAM: The Open Source CFD Toolbox           |
|  \\    /   O peration     | Version:  2506                                  |
|   \\  /    A nd           | Website:  www.openfoam.com                      |
|    \\/     M anipulation  |                                                 |
\*---------------------------------------------------------------------------*/
FoamFile
{
    version     2.0;
    format      ascii;
    arch        "LSB;label=32;scalar=64";
    class       volVectorField;
    location    "35";
    object      U;
}
// * * * * * * * * * * * * * * * * * * * * * * * * * * * * * * * * * * * * * //

dimensions      [0 1 -1 0 0 0 0];

internalField   nonuniform List<vector> 
400
(
(0.00162719 -0.00163829 0)
(0.00466526 -0.00183511 0)
(0.00632516 -0.00116929 0)
(0.00538756 -0.000553935 0)
(0.00132371 0.000203122 0)
(-0.00694825 0.00173258 0)
(-0.020478 0.00469131 0)
(-0.0390561 0.00853138 0)
(-0.05997 0.0110624 0)
(-0.0780966 0.0103672 0)
(-0.0887819 0.00674373 0)
(-0.0896152 0.00172857 0)
(-0.0797078 -0.00348617 0)
(-0.0598664 -0.0081118 0)
(-0.0337827 -0.0106927 0)
(-0.00585758 -0.00970096 0)
(0.016023 -0.00482303 0)
(0.0238744 0.00265209 0)
(0.0158946 0.0063363 0)
(0.00426501 0.00464205 0)
(0.00162365 -0.00486548 0)
(0.00290031 -0.00382245 0)
(-0.000745041 0.000666376 0)
(-0.0115286 0.00638684 0)
(-0.0312664 0.0138291 0)
(-0.060416 0.0233225 0)
(-0.0954964 0.0324276 0)
(-0.12966 0.0364848 0)
(-0.156946 0.0331122 0)
(-0.174051 0.0232653 0)
(-0.179536 0.00923413 0)
(-0.173412 -0.00664806 0)
(-0.156253 -0.0226576 0)
(-0.128758 -0.0363168 0)
(-0.0931663 -0.0440017 0)
(-0.0521956 -0.0414535 0)
(-0.0117522 -0.0262857 0)
(0.0163488 -0.00157029 0)
(0.0175353 0.0158432 0)
(0.00547904 0.0145827 0)
(-0.000323386 -0.0054142 0)
(-0.00552149 0.00109871 0)
(-0.0196047 0.0142169 0)
(-0.0440668 0.0307264 0)
(-0.0792189 0.0485451 0)
(-0.120379 0.0632033 0)
(-0.160008 0.0694776 0)
(-0.192619 0.0652159 0)
(-0.216056 0.0517326 0)
(-0.229707 0.0314669 0)
(-0.233568 0.00673769 0)
(-0.228274 -0.0204356 0)
(-0.214133 -0.0479096 0)
(-0.190648 -0.0721074 0)
(-0.157538 -0.0879316 0)
(-0.114775 -0.0883834 0)
(-0.0641597 -0.06667 0)
(-0.0139671 -0.0229801 0)
(0.00929713 0.0173455 0)
(0.00414817 0.0232116 0)
(-0.00345599 0.00084908 0)
(-0.0173324 0.0173421 0)
(-0.0429272 0.0409227 0)
(-0.0784267 0.0669965 0)
(-0.120954 0.0895954 0)
(-0.163266 0.102256 0)
(-0.19898 0.101559 0)
(-0.226078 0.0887102 0)
(-0.244792 0.0668078 0)
(-0.255717 0.0385395 0)
(-0.259685 0.00577261 0)
(-0.257496 -0.030177 0)
(-0.249089 -0.0671181 0)
(-0.233416 -0.102138 0)
(-0.208487 -0.129819 0)
(-0.171609 -0.141412 0)
(-0.120263 -0.124799 0)
(-0.0564286 -0.0707061 0)
(-0.00110451 0.00297985 0)
(0.00473365 0.0277973 0)
(-0.00655164 0.0149727 0)
(-0.0282234 0.0437397 0)
(-0.0621593 0.0758633 0)
(-0.102593 0.107057 0)
(-0.14477 0.129125 0)
(-0.181671 0.136268 0)
(-0.209773 0.127942 0)
(-0.229386 0.107632 0)
(-0.24179 0.0791805 0)
(-0.2487 0.0453719 0)
(-0.251819 0.0077422 0)
(-0.252096 -0.0329276 0)
(-0.249321 -0.0755251 0)
(-0.242904 -0.118759 0)
(-0.230046 -0.158714 0)
(-0.206119 -0.186981 0)
(-0.165121 -0.188292 0)
(-0.102429 -0.141939 0)
(-0.0220909 -0.0390819 0)
(0.00727315 0.0266131 0)
(-0.00832781 0.0346433 0)
(-0.0344501 0.0756594 0)
(-0.0716478 0.11307 0)
(-0.111134 0.145275 0)
(-0.147909 0.16355 0)
(-0.176512 0.163776 0)
(-0.195856 0.147995 0)
(-0.20743 0.12121 0)
(-0.213209 0.0877773 0)
(-0.215684 0.0506956 0)
(-0.216875 0.0114339 0)
(-0.217827 -0.0296251 0)
(-0.218757 -0.0729964 0)
(-0.219726 -0.119123 0)
(-0.218516 -0.166828 0)
(-0.209996 -0.210639 0)
(-0.186084 -0.236362 0)
(-0.138245 -0.216793 0)
(-0.0621182 -0.118159 0)
(0.00567016 0.0138559 0)
(-0.00808939 0.0562755 0)
(-0.034544 0.108408 0)
(-0.0703285 0.148036 0)
(-0.10499 0.178304 0)
(-0.134269 0.191082 0)
(-0.154486 0.184061 0)
(-0.166207 0.161344 0)
(-0.171507 0.129029 0)
(-0.172794 0.0919221 0)
(-0.172615 0.053077 0)
(-0.172559 0.0137468 0)
(-0.173352 -0.0260614 0)
(-0.175565 -0.0675638 0)
(-0.179727 -0.112157 0)
(-0.185142 -0.16103 0)
(-0.188095 -0.213034 0)
(-0.180624 -0.259099 0)
(-0.152748 -0.272929 0)
(-0.0982365 -0.204302 0)
(-0.00882716 -0.0147923 0)
(-0.00596772 0.0763734 0)
(-0.0290743 0.138383 0)
(-0.0600754 0.178279 0)
(-0.0880805 0.205082 0)
(-0.109825 0.211861 0)
(-0.123193 0.197955 0)
(-0.129658 0.169154 0)
(-0.131501 0.132424 0)
(-0.131193 0.0928321 0)
(-0.13075 0.0531641 0)
(-0.130933 0.0141715 0)
(-0.131958 -0.0245648 0)
(-0.134313 -0.0641748 0)
(-0.138707 -0.106032 0)
(-0.145732 -0.15225 0)
(-0.153987 -0.205244 0)
(-0.157357 -0.262936 0)
(-0.145438 -0.305529 0)
(-0.111186 -0.275052 0)
(-0.030536 -0.074699 0)
(-0.00263656 0.091964 0)
(-0.0198821 0.162975 0)
(-0.0441023 0.202267 0)
(-0.06494 0.225042 0)
(-0.0800079 0.226267 0)
(-0.0883444 0.206714 0)
(-0.0917464 0.173349 0)
(-0.0923443 0.133684 0)
(-0.0922656 0.0928343 0)
(-0.0927509 0.0531363 0)
(-0.093892 0.0147103 0)
(-0.0956036 -0.023293 0)
(-0.0980823 -0.0617705 0)
(-0.101862 -0.101561 0)
(-0.108113 -0.144471 0)
(-0.117545 -0.1946 0)
(-0.126861 -0.256339 0)
(-0.125518 -0.320532 0)
(-0.106651 -0.332096 0)
(-0.0369668 -0.161609 0)
(0.00120975 0.100822 0)
(-0.00866245 0.180436 0)
(-0.0249987 0.219518 0)
(-0.0387495 0.238982 0)
(-0.048087 0.236042 0)
(-0.0528346 0.212493 0)
(-0.054614 0.176084 0)
(-0.0550797 0.134718 0)
(-0.0557815 0.093456 0)
(-0.0573148 0.0541129 0)
(-0.0594602 0.0162405 0)
(-0.0620605 -0.021298 0)
(-0.0651219 -0.0592599 0)
(-0.0688598 -0.0980001 0)
(-0.0742547 -0.138404 0)
(-0.0829313 -0.184375 0)
(-0.0948998 -0.244371 0)
(-0.100022 -0.321144 0)
(-0.094667 -0.369413 0)
(-0.0307448 -0.240266 0)
(0.0049872 0.101898 0)
(0.00293927 0.189797 0)
(-0.00520518 0.229807 0)
(-0.0121792 0.246847 0)
(-0.0164869 0.241073 0)
(-0.0182976 0.215278 0)
(-0.0188776 0.177549 0)
(-0.0192769 0.13579 0)
(-0.0204576 0.0948267 0)
(-0.0226123 0.0560888 0)
(-0.025432 0.0188464 0)
(-0.0288304 -0.01813 0)
(-0.0328252 -0.0556243 0)
(-0.0373963 -0.0938112 0)
(-0.043134 -0.132779 0)
(-0.0513753 -0.175218 0)
(-0.0650048 -0.231176 0)
(-0.0739686 -0.314623 0)
(-0.0809689 -0.39376 0)
(-0.0228733 -0.304554 0)
(0.00818826 0.0955537 0)
(0.0138784 0.19072 0)
(0.0137991 0.233248 0)
(0.0134279 0.249551 0)
(0.0140568 0.242771 0)
(0.0152641 0.216478 0)
(0.0161387 0.178769 0)
(0.0162004 0.137384 0)
(0.0150467 0.0969439 0)
(0.0127331 0.0588077 0)
(0.00955998 0.0222726 0)
(0.00551596 -0.0138778 0)
(0.000460448 -0.0505319 0)
(-0.00550368 -0.0878989 0)
(-0.01279 -0.125718 0)
(-0.0216867 -0.165244 0)
(-0.0374968 -0.215931 0)
(-0.0489034 -0.300859 0)
(-0.0679583 -0.405581 0)
(-0.014496 -0.357415 0)
(0.00994221 0.0829454 0)
(0.022755 0.183259 0)
(0.0302972 0.229415 0)
(0.0361357 0.246109 0)
(0.0417206 0.23955 0)
(0.046612 0.214193 0)
(0.0499769 0.177812 0)
(0.0515539 0.137777 0)
(0.0512976 0.098515 0)
(0.0494375 0.0614475 0)
(0.0462549 0.0260613 0)
(0.0416889 -0.00878451 0)
(0.0355625 -0.0440419 0)
(0.0279526 -0.0799964 0)
(0.0181105 -0.116347 0)
(0.00703599 -0.153499 0)
(-0.0121898 -0.199535 0)
(-0.0248192 -0.282782 0)
(-0.0561317 -0.408196 0)
(-0.00624369 -0.399424 0)
(0.00946439 0.0662726 0)
(0.0281095 0.167823 0)
(0.0431384 0.218543 0)
(0.0554588 0.237414 0)
(0.0665723 0.232706 0)
(0.0761084 0.209757 0)
(0.0831768 0.175879 0)
(0.0874548 0.137951 0)
(0.0890245 0.100297 0)
(0.088218 0.0645507 0)
(0.0853878 0.0305775 0)
(0.0803773 -0.0026444 0)
(0.0730154 -0.0357972 0)
(0.0635485 -0.0695115 0)
(0.0506904 -0.103629 0)
(0.0361448 -0.138155 0)
(0.0121217 -0.179545 0)
(-0.000860479 -0.259665 0)
(-0.0452829 -0.404131 0)
(0.00259099 -0.434131 0)
(0.00662424 0.0490944 0)
(0.0283218 0.146698 0)
(0.0495743 0.200332 0)
(0.0680967 0.220901 0)
(0.0852865 0.218192 0)
(0.100736 0.198429 0)
(0.113174 0.16828 0)
(0.121898 0.133844 0)
(0.126825 0.0991574 0)
(0.128236 0.0659668 0)
(0.126425 0.0345239 0)
(0.121495 0.00402357 0)
(0.112965 -0.0259493 0)
(0.101469 -0.0562567 0)
(0.0848416 -0.0869898 0)
(0.0661289 -0.118835 0)
(0.0366696 -0.156544 0)
(0.0227227 -0.233843 0)
(-0.0350606 -0.396695 0)
(0.0132114 -0.46277 0)
(0.00226668 0.0348688 0)
(0.0227117 0.122415 0)
(0.0493002 0.177257 0)
(0.0744897 0.199748 0)
(0.0987149 0.199455 0)
(0.121217 0.183365 0)
(0.14033 0.157723 0)
(0.154825 0.127742 0)
(0.164286 0.0970371 0)
(0.168942 0.0673427 0)
(0.168774 0.039255 0)
(0.164509 0.0123611 0)
(0.154813 -0.0137132 0)
(0.141329 -0.0397128 0)
(0.120535 -0.0659911 0)
(0.0975525 -0.0941544 0)
(0.0624325 -0.129053 0)
(0.0457392 -0.204753 0)
(-0.0234593 -0.385497 0)
(0.0281563 -0.484453 0)
(-0.00335315 0.0292674 0)
(0.00939061 0.100837 0)
(0.0355848 0.146697 0)
(0.0667665 0.166853 0)
(0.0990699 0.167993 0)
(0.13026 0.15593 0)
(0.157787 0.135858 0)
(0.179916 0.111877 0)
(0.195622 0.0870462 0)
(0.205251 0.062902 0)
(0.208028 0.0402058 0)
(0.20568 0.0188092 0)
(0.195592 -0.00162796 0)
(0.18123 -0.0216617 0)
(0.156969 -0.0417783 0)
(0.131011 -0.0651289 0)
(0.0903967 -0.0988762 0)
(0.0685818 -0.177809 0)
(-0.00510739 -0.369043 0)
(0.051793 -0.491068 0)
(-0.0135531 0.0191705 0)
(-0.00751536 0.0882127 0)
(0.0182084 0.123174 0)
(0.0545682 0.135639 0)
(0.0948822 0.134986 0)
(0.134498 0.125863 0)
(0.170094 0.111429 0)
(0.199368 0.0939516 0)
(0.22085 0.0758347 0)
(0.235588 0.0580629 0)
(0.241499 0.0416239 0)
(0.242356 0.0263549 0)
(0.233279 0.0124716 0)
(0.221746 -0.000939088 0)
(0.19741 -0.0145899 0)
(0.174257 -0.0333114 0)
(0.130923 -0.0660076 0)
(0.106443 -0.144901 0)
(0.0368291 -0.325944 0)
(0.0921131 -0.455773 0)
(-0.105713 0.0828805 0)
(-0.0775442 0.0693112 0)
(-0.0487892 0.0729376 0)
(0.00284088 0.0770264 0)
(0.0555264 0.0771552 0)
(0.10745 0.0728778 0)
(0.153918 0.0656606 0)
(0.195652 0.0564328 0)
(0.227348 0.0469861 0)
(0.255171 0.037561 0)
(0.270825 0.0291588 0)
(0.285982 0.0214066 0)
(0.286615 0.0148977 0)
(0.291074 0.00869392 0)
(0.275468 0.00192388 0)
(0.268938 -0.00919538 0)
(0.230373 -0.0348173 0)
(0.21721 -0.0950573 0)
(0.149994 -0.229703 0)
(0.170632 -0.341511 0)
(0.130151 0.103889 0)
(0.158709 0.075594 0)
(0.212766 0.0536216 0)
(0.27121 0.0419175 0)
(0.323483 0.0360905 0)
(0.37545 0.0320324 0)
(0.419552 0.0289535 0)
(0.464386 0.0256004 0)
(0.497119 0.0229353 0)
(0.532101 0.019763 0)
(0.551426 0.017635 0)
(0.577241 0.0147255 0)
(0.583524 0.0133201 0)
(0.602118 0.010528 0)
(0.593912 0.00959259 0)
(0.602838 0.00519186 0)
(0.567474 0.000255396 0)
(0.54776 -0.0182058 0)
(0.436098 -0.0503922 0)
(0.336963 -0.101412 0)
)
;

boundaryField
{
    movingWall
    {
        type            fixedValue;
        value           uniform (1 0 0);
    }
    fixedWalls
    {
        type            noSlip;
    }
    frontAndBack
    {
        type            empty;
    }
}


// ************************************************************************* //
