/*--------------------------------*- C++ -*----------------------------------*\
| =========                 |                                                 |
| \\      /  F ield         | OpenFOAM: The Open Source CFD Toolbox           |
|  \\    /   O peration     | Version:  2506                                  |
|   \\  /    A nd           | Website:  www.openfoam.com                      |
|    \\/     M anipulation  |                                                 |
\*---------------------------------------------------------------------------*/
FoamFile
{
    version     2.0;
    format      ascii;
    arch        "LSB;label=32;scalar=64";
    class       volScalarField;
    location    "400";
    object      nut;
}
// * * * * * * * * * * * * * * * * * * * * * * * * * * * * * * * * * * * * * //

dimensions      [0 2 -1 0 0 0 0];

internalField   nonuniform List<scalar> 
1340
(
6.10199e-06
6.10274e-06
6.10233e-06
6.08333e-06
6.10338e-06
6.10276e-06
6.08133e-06
6.08325e-06
6.10405e-06
6.10328e-06
6.07231e-06
6.07456e-06
6.08121e-06
6.08314e-06
6.10476e-06
6.10389e-06
6.07744e-06
6.07309e-06
6.07228e-06
6.07449e-06
6.0811e-06
6.08301e-06
6.1055e-06
6.10459e-06
6.09024e-06
6.08641e-06
6.08221e-06
6.07784e-06
6.07333e-06
6.07225e-06
6.07442e-06
6.08099e-06
6.08286e-06
6.10627e-06
6.10539e-06
6.09963e-06
6.09674e-06
6.0941e-06
6.09085e-06
6.08698e-06
6.0827e-06
6.07828e-06
6.0736e-06
6.07224e-06
6.07433e-06
6.08087e-06
6.08268e-06
6.10707e-06
6.10629e-06
6.11213e-06
6.11002e-06
6.10728e-06
6.1039e-06
6.10039e-06
6.09744e-06
6.09477e-06
6.09149e-06
6.08759e-06
6.08323e-06
6.07874e-06
6.07391e-06
6.07224e-06
6.07423e-06
6.08075e-06
6.08246e-06
6.10788e-06
6.10729e-06
6.11859e-06
6.11783e-06
6.1169e-06
6.11583e-06
6.11457e-06
6.11301e-06
6.11092e-06
6.10818e-06
6.10477e-06
6.10119e-06
6.09818e-06
6.09548e-06
6.09218e-06
6.08824e-06
6.0838e-06
6.07923e-06
6.07425e-06
6.07227e-06
6.07412e-06
6.08063e-06
6.08222e-06
6.10871e-06
6.10839e-06
6.12113e-06
6.12111e-06
6.12108e-06
6.121e-06
6.12082e-06
6.12053e-06
6.12009e-06
6.1195e-06
6.11874e-06
6.11782e-06
6.11674e-06
6.11549e-06
6.11393e-06
6.11186e-06
6.10913e-06
6.10569e-06
6.10205e-06
6.09897e-06
6.09623e-06
6.09291e-06
6.08893e-06
6.08441e-06
6.07976e-06
6.07463e-06
6.07232e-06
6.07401e-06
6.0805e-06
6.08195e-06
6.10955e-06
6.10959e-06
6.1227e-06
6.12347e-06
6.12328e-06
6.12303e-06
6.12281e-06
6.12254e-06
6.12231e-06
6.12219e-06
6.12213e-06
6.1221e-06
6.12209e-06
6.12207e-06
6.12204e-06
6.12201e-06
6.12199e-06
6.12191e-06
6.12175e-06
6.12147e-06
6.12104e-06
6.12046e-06
6.11971e-06
6.11879e-06
6.11771e-06
6.11645e-06
6.1149e-06
6.11285e-06
6.11013e-06
6.10667e-06
6.10296e-06
6.09981e-06
6.09703e-06
6.09369e-06
6.08966e-06
6.08506e-06
6.08033e-06
6.07505e-06
6.0724e-06
6.07388e-06
6.08036e-06
6.08164e-06
6.11039e-06
6.11089e-06
7.29565e-09
3.28507e-11
0
0
0.000142285
0.000455479
0.0161181
0.055214
0.112695
0.176125
0.235552
0.285664
0.324124
0.350468
0.365869
0.372677
0.373811
0.362818
0.330968
0.272181
0.189049
0.0999441
0.0339273
0.00196427
0.000543385
0
0
0
1.86415e-09
4.40367e-07
6.25532e-06
8.03997e-06
6.46401e-06
5.90877e-06
6.03352e-06
6.14176e-06
6.14191e-06
6.12812e-06
6.12596e-06
6.1256e-06
6.12418e-06
6.12343e-06
6.12338e-06
6.12337e-06
6.12323e-06
6.1231e-06
6.12305e-06
6.12303e-06
6.12302e-06
6.12299e-06
6.12296e-06
6.12293e-06
6.12287e-06
6.12272e-06
6.12245e-06
6.12204e-06
6.12147e-06
6.12073e-06
6.11981e-06
6.11872e-06
6.11746e-06
6.11593e-06
6.1139e-06
6.11119e-06
6.10772e-06
6.10393e-06
6.1007e-06
6.09788e-06
6.09452e-06
6.09045e-06
6.08577e-06
6.08094e-06
6.07552e-06
6.07251e-06
6.07375e-06
6.08021e-06
6.08131e-06
6.11122e-06
6.11229e-06
6.44194e-06
2.2166e-08
1.00665e-10
0
0
1.48024e-09
0.00209225
0.00822228
0.0367014
0.087589
0.150415
0.213221
0.268326
0.31198
0.342892
0.361638
0.370783
0.373057
0.364429
0.336162
0.281334
0.201307
0.112008
0.0398712
0.00356631
0.000995688
0
0
0
3.07632e-10
5.98375e-08
5.10731e-06
8.73223e-06
6.97559e-06
5.98445e-06
5.99295e-06
6.12082e-06
6.13258e-06
6.11864e-06
6.12144e-06
6.12681e-06
6.12673e-06
6.12488e-06
6.12409e-06
6.12409e-06
6.12414e-06
6.12409e-06
6.12404e-06
6.12401e-06
6.12399e-06
6.12396e-06
6.12393e-06
6.12388e-06
6.12374e-06
6.12349e-06
6.12309e-06
6.12253e-06
6.12179e-06
6.12088e-06
6.11979e-06
6.11853e-06
6.117e-06
6.11499e-06
6.11231e-06
6.10883e-06
6.10497e-06
6.10165e-06
6.09878e-06
6.0954e-06
6.09129e-06
6.08652e-06
6.0816e-06
6.07603e-06
6.07266e-06
6.07362e-06
6.08006e-06
6.08097e-06
6.11204e-06
6.11378e-06
8.087e-06
6.46869e-06
7.87635e-08
3.68931e-10
0
0
0
0.000623964
0.00229249
0.0211348
0.0633526
0.123014
0.187903
0.247834
0.297083
0.333242
0.356295
0.368349
0.37194
0.3656
0.340834
0.290055
0.213318
0.124086
0.0476414
0.00673413
0.00181409
0
0
0
1.50237e-12
5.30519e-11
2.76448e-06
8.24199e-06
7.30416e-06
6.07903e-06
5.99585e-06
6.16682e-06
6.18343e-06
6.13373e-06
6.11469e-06
6.12072e-06
6.12665e-06
6.12691e-06
6.12558e-06
6.12503e-06
6.12504e-06
6.1251e-06
6.12508e-06
6.12504e-06
6.125e-06
6.12498e-06
6.12493e-06
6.12481e-06
6.12457e-06
6.12419e-06
6.12365e-06
6.12292e-06
6.12201e-06
6.12092e-06
6.11965e-06
6.11814e-06
6.11615e-06
6.1135e-06
6.11001e-06
6.10608e-06
6.10267e-06
6.09974e-06
6.09633e-06
6.09218e-06
6.08733e-06
6.0823e-06
6.0766e-06
6.07286e-06
6.07348e-06
6.07989e-06
6.08063e-06
6.11283e-06
6.11537e-06
6.25786e-06
7.83747e-06
6.35338e-06
4.80733e-07
2.24127e-09
0
0
0
9.12522e-06
5.17167e-05
0.0107626
0.0420905
0.0956152
0.160531
0.224699
0.279812
0.321792
0.349709
0.365008
0.370015
0.365828
0.3445
0.297845
0.224367
0.135284
0.0555593
0.0102388
0.00270416
0
0
0
7.55628e-17
7.88951e-09
1.92734e-06
7.90021e-06
7.69728e-06
6.00589e-06
5.6775e-06
5.98192e-06
6.18126e-06
6.18071e-06
6.13518e-06
6.119e-06
6.12259e-06
6.12674e-06
6.12714e-06
6.1264e-06
6.12609e-06
6.12612e-06
6.12615e-06
6.12612e-06
6.12608e-06
6.12603e-06
6.12593e-06
6.12571e-06
6.12535e-06
6.12482e-06
6.1241e-06
6.1232e-06
6.12211e-06
6.12084e-06
6.11933e-06
6.11737e-06
6.11474e-06
6.11125e-06
6.10726e-06
6.10375e-06
6.10076e-06
6.09732e-06
6.09314e-06
6.0882e-06
6.08306e-06
6.07721e-06
6.0731e-06
6.07335e-06
6.07971e-06
6.08027e-06
6.11357e-06
6.11701e-06
6.02127e-06
6.24348e-06
7.46241e-06
6.4564e-06
1.82497e-06
8.37132e-09
4.33484e-16
0
0
2.13673e-12
0.000973283
0.00364824
0.0244478
0.06833
0.129698
0.196655
0.258237
0.307678
0.34221
0.362099
0.36954
0.367163
0.348979
0.306544
0.236624
0.148214
0.0651416
0.0135681
0.00395863
0.000114866
0
0
0
3.0856e-09
6.95586e-07
6.86848e-06
9.73363e-06
7.60625e-06
6.04674e-06
5.79155e-06
6.00556e-06
6.15308e-06
6.16349e-06
6.13566e-06
6.12367e-06
6.1251e-06
6.1276e-06
6.12786e-06
6.12741e-06
6.12724e-06
6.12725e-06
6.12725e-06
6.1272e-06
6.1271e-06
6.1269e-06
6.12656e-06
6.12605e-06
6.12535e-06
6.12445e-06
6.12336e-06
6.12209e-06
6.12058e-06
6.11865e-06
6.11606e-06
6.11258e-06
6.10852e-06
6.10491e-06
6.10185e-06
6.09838e-06
6.09416e-06
6.08914e-06
6.08388e-06
6.07789e-06
6.07341e-06
6.07323e-06
6.07951e-06
6.07992e-06
6.11431e-06
6.11879e-06
6.13368e-06
6.06798e-06
6.206e-06
6.77457e-06
6.64209e-06
4.56388e-06
1.73514e-07
8.37286e-10
2.23501e-18
0
0
0.000159121
0.000577948
0.0099317
0.0352328
0.080623
0.140562
0.205066
0.264306
0.311603
0.343905
0.361411
0.364933
0.354251
0.322685
0.265309
0.186387
0.102772
0.0406016
0.00591709
0.00197498
1.58501e-05
0
0
5.89637e-13
1.9707e-09
2.64664e-07
4.53e-06
8.41359e-06
7.63909e-06
6.28321e-06
5.8806e-06
5.99745e-06
6.13271e-06
6.1559e-06
6.13571e-06
6.1255e-06
6.12674e-06
6.12891e-06
6.12912e-06
6.12877e-06
6.12864e-06
6.12864e-06
6.12859e-06
6.12842e-06
6.12811e-06
6.12762e-06
6.12693e-06
6.12604e-06
6.12495e-06
6.12367e-06
6.12216e-06
6.12025e-06
6.1177e-06
6.11423e-06
6.1101e-06
6.10636e-06
6.10319e-06
6.09967e-06
6.09541e-06
6.09028e-06
6.08487e-06
6.07872e-06
6.07381e-06
6.07309e-06
6.0793e-06
6.07956e-06
6.11496e-06
6.12068e-06
6.13762e-06
6.13489e-06
6.08137e-06
6.13359e-06
6.39237e-06
7.24074e-06
6.07179e-06
3.07656e-06
1.52099e-09
9.56714e-12
0
0
1.07885e-09
4.72142e-05
0.00232102
0.00859495
0.0316156
0.0738562
0.131432
0.195336
0.255552
0.304541
0.338486
0.356412
0.358392
0.342571
0.302997
0.238123
0.158327
0.0823723
0.0297549
0.00261586
0.000950516
2.94462e-07
0
0
1.29154e-13
2.02617e-09
3.74009e-07
5.13208e-06
8.51706e-06
7.38861e-06
6.13964e-06
5.89162e-06
6.05113e-06
6.15553e-06
6.15364e-06
6.13236e-06
6.12722e-06
6.12974e-06
6.13108e-06
6.13088e-06
6.13056e-06
6.13042e-06
6.13027e-06
6.12999e-06
6.12953e-06
6.12887e-06
6.12798e-06
6.12688e-06
6.12558e-06
6.12406e-06
6.12217e-06
6.11966e-06
6.11622e-06
6.112e-06
6.1081e-06
6.10479e-06
6.10119e-06
6.09687e-06
6.09163e-06
6.08604e-06
6.0797e-06
6.07433e-06
6.07297e-06
6.07907e-06
6.07922e-06
6.11561e-06
6.12269e-06
6.12711e-06
6.13236e-06
6.12733e-06
6.10685e-06
6.09654e-06
6.28416e-06
6.77824e-06
7.26979e-06
5.28059e-06
9.58728e-07
4.51349e-09
1.58408e-16
0
0
0
3.82908e-05
0.00202766
0.00742953
0.0294867
0.070764
0.127859
0.192006
0.253011
0.302806
0.336877
0.352969
0.35083
0.326925
0.277369
0.206248
0.127569
0.0595944
0.016418
0.000841355
0.000338028
0
0
0
2.26444e-13
6.42681e-09
1.40385e-06
7.07833e-06
8.27213e-06
6.68146e-06
5.90686e-06
5.9446e-06
6.11613e-06
6.16151e-06
6.14204e-06
6.12945e-06
6.12994e-06
6.13205e-06
6.13251e-06
6.13243e-06
6.1323e-06
6.13203e-06
6.13155e-06
6.13089e-06
6.13003e-06
6.12892e-06
6.12761e-06
6.12607e-06
6.12419e-06
6.12172e-06
6.11831e-06
6.11404e-06
6.10999e-06
6.10651e-06
6.10282e-06
6.09844e-06
6.09309e-06
6.08731e-06
6.08078e-06
6.07496e-06
6.0729e-06
6.0788e-06
6.07888e-06
6.11617e-06
6.12471e-06
6.12532e-06
6.12791e-06
6.1271e-06
6.11788e-06
6.09019e-06
6.16678e-06
6.41638e-06
7.20138e-06
6.78923e-06
4.21607e-06
8.54759e-08
4.15339e-10
0
0
0
0
3.03864e-05
0.00201453
0.00740724
0.0296084
0.0712662
0.129
0.193945
0.255484
0.304784
0.336731
0.347942
0.338554
0.30469
0.245897
0.170653
0.0947528
0.0382116
0.00668011
0.00197228
1.11715e-05
0
0
0
5.99592e-10
1.09744e-07
4.45742e-06
8.62502e-06
7.54548e-06
6.1654e-06
5.89982e-06
6.06191e-06
6.15864e-06
6.15443e-06
6.13736e-06
6.13392e-06
6.13467e-06
6.13441e-06
6.13399e-06
6.13389e-06
6.13366e-06
6.13307e-06
6.13219e-06
6.13108e-06
6.12974e-06
6.12819e-06
6.12631e-06
6.12389e-06
6.12053e-06
6.11622e-06
6.11202e-06
6.10837e-06
6.10456e-06
6.10012e-06
6.09467e-06
6.0887e-06
6.08195e-06
6.07571e-06
6.07288e-06
6.07851e-06
6.07851e-06
6.1166e-06
6.12673e-06
6.12395e-06
6.12456e-06
6.12559e-06
6.12776e-06
6.11876e-06
6.10592e-06
6.084e-06
6.25374e-06
6.67132e-06
7.33707e-06
6.03395e-06
1.57725e-06
7.46209e-09
2.55651e-16
0
0
0
0
3.46979e-05
0.00225581
0.00838328
0.0319794
0.0755111
0.135029
0.201045
0.262219
0.308985
0.335992
0.340424
0.321346
0.276397
0.208729
0.13148
0.0629392
0.0189087
0.00210152
0.000616715
0
0
0
8.2451e-14
6.53656e-09
1.45492e-06
7.51685e-06
8.17487e-06
6.55308e-06
5.91412e-06
5.99574e-06
6.12913e-06
6.14761e-06
6.13396e-06
6.13349e-06
6.13763e-06
6.13804e-06
6.13661e-06
6.13568e-06
6.13515e-06
6.13443e-06
6.13336e-06
6.132e-06
6.13042e-06
6.12855e-06
6.12616e-06
6.12287e-06
6.11855e-06
6.11422e-06
6.11038e-06
6.10642e-06
6.10191e-06
6.09636e-06
6.0902e-06
6.08324e-06
6.07658e-06
6.07293e-06
6.07819e-06
6.07813e-06
6.11691e-06
6.12873e-06
6.12386e-06
6.12407e-06
6.12432e-06
6.12523e-06
6.12621e-06
6.12446e-06
6.11067e-06
6.08547e-06
6.12551e-06
6.34474e-06
7.07201e-06
6.97382e-06
4.52955e-06
1.0967e-07
5.42766e-10
6.02576e-20
0
0
0
0
0.000108784
0.000176094
0.0102011
0.0365851
0.0836629
0.145934
0.212797
0.272057
0.314159
0.333449
0.32859
0.297599
0.240622
0.16618
0.0914061
0.0359585
0.00562522
0.00164369
0
0
0
0
1.74533e-09
3.91586e-07
5.65155e-06
8.60508e-06
7.09344e-06
6.05759e-06
6.00941e-06
6.1626e-06
6.18169e-06
6.14216e-06
6.12749e-06
6.13343e-06
6.13873e-06
6.13908e-06
6.13785e-06
6.13677e-06
6.13571e-06
6.13439e-06
6.1328e-06
6.13092e-06
6.12856e-06
6.12535e-06
6.12105e-06
6.11662e-06
6.11258e-06
6.10844e-06
6.10385e-06
6.0982e-06
6.09186e-06
6.08466e-06
6.07761e-06
6.07309e-06
6.07785e-06
6.0777e-06
6.11703e-06
6.1307e-06
6.1242e-06
6.12439e-06
6.12458e-06
6.12474e-06
6.12533e-06
6.12603e-06
6.12711e-06
6.11814e-06
6.10205e-06
6.07162e-06
6.20374e-06
6.56242e-06
7.40782e-06
5.74241e-06
2.39128e-06
2.08471e-11
3.00886e-13
0
0
0
0
3.42157e-11
0.000387445
0.00120756
0.0136415
0.0445396
0.0964363
0.161861
0.228614
0.283764
0.318361
0.327282
0.310186
0.265391
0.197311
0.120616
0.0546191
0.0146044
0.00397475
3.64271e-05
0
0
0
1.15183e-10
1.85343e-08
3.14438e-06
8.23551e-06
7.40279e-06
5.92941e-06
5.75214e-06
6.05589e-06
6.20906e-06
6.18837e-06
6.1468e-06
6.13546e-06
6.13811e-06
6.14003e-06
6.13953e-06
6.13826e-06
6.13685e-06
6.13524e-06
6.13335e-06
6.13103e-06
6.1279e-06
6.12364e-06
6.11913e-06
6.1149e-06
6.11055e-06
6.10586e-06
6.10013e-06
6.09361e-06
6.08617e-06
6.07872e-06
6.07334e-06
6.07754e-06
6.07728e-06
6.11711e-06
6.13259e-06
6.1248e-06
6.12497e-06
6.12516e-06
6.12533e-06
6.12554e-06
6.12576e-06
6.1267e-06
6.12742e-06
6.12619e-06
6.11146e-06
6.08707e-06
6.09293e-06
6.354e-06
6.92932e-06
7.29581e-06
4.46099e-06
6.28258e-07
2.97476e-09
7.35951e-16
0
0
0
0
7.57981e-08
0.000606838
0.00195568
0.0186777
0.0564823
0.114201
0.182365
0.246949
0.294847
0.318011
0.313819
0.280966
0.22139
0.146072
0.0740879
0.0250787
0.0029622
0.000722578
0
0
0
1.78799e-14
6.51133e-09
1.53585e-06
9.09155e-06
9.72382e-06
6.97487e-06
5.77466e-06
5.8143e-06
6.07165e-06
6.16814e-06
6.16106e-06
6.14526e-06
6.14135e-06
6.14153e-06
6.14104e-06
6.13973e-06
6.13806e-06
6.13614e-06
6.13384e-06
6.13079e-06
6.12661e-06
6.12207e-06
6.11766e-06
6.11307e-06
6.10823e-06
6.1024e-06
6.09572e-06
6.08799e-06
6.08021e-06
6.07385e-06
6.0771e-06
6.07675e-06
6.11656e-06
6.13454e-06
6.12528e-06
6.12546e-06
6.12565e-06
6.12585e-06
6.12605e-06
6.12624e-06
6.12646e-06
6.12702e-06
6.12799e-06
6.12895e-06
6.12208e-06
6.10207e-06
6.07198e-06
6.1965e-06
6.58028e-06
7.41734e-06
6.54238e-06
3.39587e-06
1.98352e-07
9.84415e-10
6.7674e-16
0
0
0
0
6.37828e-07
0.00153175
0.00564975
0.0284847
0.0743312
0.139133
0.210509
0.272634
0.312677
0.322684
0.301682
0.249553
0.174075
0.0944949
0.0305184
0.00156907
0.00143189
0.000451656
0.000138633
2.2193e-06
0
1.95809e-12
1.14731e-08
2.29243e-06
8.59824e-06
8.35637e-06
6.69059e-06
6.06202e-06
6.05004e-06
6.12654e-06
6.15037e-06
6.14777e-06
6.14425e-06
6.14294e-06
6.14182e-06
6.14024e-06
6.1383e-06
6.136e-06
6.13303e-06
6.12893e-06
6.12439e-06
6.11982e-06
6.11501e-06
6.11002e-06
6.10415e-06
6.09729e-06
6.08942e-06
6.08118e-06
6.07426e-06
6.07703e-06
6.07642e-06
6.11716e-06
6.13597e-06
6.12582e-06
6.12604e-06
6.12627e-06
6.12652e-06
6.12677e-06
6.12704e-06
6.12729e-06
6.12758e-06
6.12789e-06
6.12887e-06
6.12991e-06
6.13062e-06
6.11592e-06
6.09548e-06
6.0794e-06
6.31003e-06
6.84554e-06
7.41368e-06
6.30944e-06
3.26213e-06
1.4556e-07
5.5643e-10
0
0
0
0
0
3.10074e-05
0.00173284
0.00594599
0.0276538
0.0690326
0.126006
0.188313
0.242969
0.278979
0.288127
0.267768
0.219542
0.15355
0.089753
0.0436676
0.017598
0.00563049
0.00106709
0.000236087
0
0
2.27785e-09
4.68451e-07
3.83567e-06
6.32541e-06
6.51115e-06
6.24315e-06
6.14147e-06
6.13993e-06
6.14849e-06
6.14969e-06
6.14835e-06
6.14689e-06
6.14529e-06
6.14334e-06
6.14103e-06
6.13813e-06
6.1342e-06
6.12975e-06
6.12502e-06
6.11978e-06
6.11443e-06
6.10828e-06
6.10127e-06
6.09282e-06
6.08429e-06
6.07561e-06
6.077e-06
6.07569e-06
6.11447e-06
6.13951e-06
)
;

boundaryField
{
    inlet
    {
        type            freestream;
        freestreamValue uniform 1e-05;
        value           nonuniform List<scalar> 
27
(
6.10199e-06
6.10233e-06
6.10276e-06
6.10328e-06
6.10389e-06
6.10459e-06
6.10539e-06
6.10629e-06
6.10729e-06
6.10839e-06
6.10959e-06
6.11089e-06
6.11229e-06
6.11378e-06
6.11537e-06
6.11701e-06
6.11879e-06
6.12068e-06
6.12269e-06
6.12471e-06
6.12673e-06
6.12873e-06
6.1307e-06
6.13259e-06
6.13454e-06
6.13597e-06
6.13951e-06
)
;
    }
    outlet
    {
        type            freestream;
        freestreamValue uniform 1e-05;
        value           nonuniform List<scalar> 
78
(
6.12582e-06
6.12604e-06
6.12627e-06
6.12652e-06
6.12677e-06
6.12704e-06
6.12729e-06
6.12758e-06
6.12789e-06
6.12887e-06
6.12991e-06
6.13062e-06
6.11592e-06
6.09548e-06
6.0794e-06
6.31003e-06
6.84554e-06
7.41368e-06
6.30944e-06
3.26213e-06
1.4556e-07
5.5643e-10
0
0
0
0
0
3.10074e-05
0.00173284
0.00594599
0.0276538
0.0690326
0.126006
0.188313
0.242969
0.278979
0.288127
0.267768
0.219542
0.15355
0.089753
0.0436676
0.017598
0.00563049
0.00106709
0.000236087
0
0
2.27785e-09
4.68451e-07
3.83567e-06
6.32541e-06
6.51115e-06
6.24315e-06
6.14147e-06
6.13993e-06
6.14849e-06
6.14969e-06
6.14835e-06
6.14689e-06
6.14529e-06
6.14334e-06
6.14103e-06
6.13813e-06
6.1342e-06
6.12975e-06
6.12502e-06
6.11978e-06
6.11443e-06
6.10828e-06
6.10127e-06
6.09282e-06
6.08429e-06
6.07561e-06
6.077e-06
6.07569e-06
6.11447e-06
6.13951e-06
)
;
    }
    walls
    {
        type            nutUSpaldingWallFunction;
        value           nonuniform List<scalar> 0();
    }
    frontAndBack
    {
        type            empty;
    }
    procBoundary7to3
    {
        type            processor;
        value           nonuniform List<scalar> 
16
(
5.91197e-06
7.99305e-06
6.30107e-06
6.00838e-06
6.12457e-06
6.14381e-06
6.13099e-06
6.12629e-06
6.1246e-06
6.1246e-06
6.1238e-06
6.12365e-06
6.12402e-06
6.12463e-06
6.1251e-06
6.1256e-06
)
;
    }
    procBoundary7to6
    {
        type            processor;
        value           nonuniform List<scalar> 
91
(
6.10177e-06
6.10214e-06
6.10214e-06
6.08339e-06
6.08339e-06
6.08144e-06
6.08144e-06
6.07236e-06
6.07461e-06
6.07461e-06
6.07706e-06
6.07287e-06
6.07287e-06
6.08966e-06
6.08588e-06
6.08175e-06
6.08175e-06
6.09892e-06
6.09609e-06
6.09346e-06
6.09346e-06
6.1113e-06
6.10917e-06
6.10642e-06
6.10308e-06
6.10308e-06
6.11772e-06
6.11695e-06
6.11603e-06
6.11496e-06
6.11371e-06
6.11371e-06
6.12027e-06
6.12025e-06
6.12022e-06
6.12013e-06
6.11994e-06
6.11963e-06
6.11918e-06
6.11918e-06
6.12363e-06
6.12301e-06
6.12243e-06
6.12201e-06
6.12171e-06
6.1215e-06
6.12136e-06
6.12128e-06
6.12122e-06
6.1212e-06
6.12118e-06
6.12116e-06
6.12116e-06
3.78674e-17
0
0
0.00120078
0.00469589
0.0287975
0.0763332
0.137243
0.199205
0.254645
0.299995
0.333813
0.356231
0.369034
0.374792
0.374584
0.36089
0.325269
0.262583
0.176728
0.0878248
0.026049
0.00282983
0.000698488
0
0
0
4.37871e-09
1.06596e-06
7.01348e-06
7.66183e-06
6.30153e-06
5.96595e-06
6.08871e-06
6.14852e-06
6.13457e-06
6.12303e-06
6.12303e-06
)
;
    }
}


// ************************************************************************* //
