/*--------------------------------*- C++ -*----------------------------------*\
| =========                 |                                                 |
| \\      /  F ield         | OpenFOAM: The Open Source CFD Toolbox           |
|  \\    /   O peration     | Version:  2506                                  |
|   \\  /    A nd           | Website:  www.openfoam.com                      |
|    \\/     M anipulation  |                                                 |
\*---------------------------------------------------------------------------*/
FoamFile
{
    version     2.0;
    format      ascii;
    arch        "LSB;label=32;scalar=64";
    class       volScalarField;
    location    "400";
    object      nuTilda;
}
// * * * * * * * * * * * * * * * * * * * * * * * * * * * * * * * * * * * * * //

dimensions      [0 2 -1 0 0 0 0];

internalField   nonuniform List<scalar> 
1340
(
4.00638e-05
4.00652e-05
4.00644e-05
4.00292e-05
4.00664e-05
4.00652e-05
4.00255e-05
4.0029e-05
4.00676e-05
4.00662e-05
4.00087e-05
4.00129e-05
4.00252e-05
4.00288e-05
4.00689e-05
4.00673e-05
4.00182e-05
4.00101e-05
4.00086e-05
4.00128e-05
4.0025e-05
4.00286e-05
4.00703e-05
4.00686e-05
4.0042e-05
4.00349e-05
4.00271e-05
4.0019e-05
4.00106e-05
4.00086e-05
4.00126e-05
4.00248e-05
4.00283e-05
4.00717e-05
4.00701e-05
4.00594e-05
4.00541e-05
4.00492e-05
4.00431e-05
4.0036e-05
4.0028e-05
4.00198e-05
4.00111e-05
4.00086e-05
4.00125e-05
4.00246e-05
4.0028e-05
4.00732e-05
4.00718e-05
4.00826e-05
4.00787e-05
4.00736e-05
4.00673e-05
4.00608e-05
4.00554e-05
4.00504e-05
4.00443e-05
4.00371e-05
4.0029e-05
4.00206e-05
4.00117e-05
4.00086e-05
4.00123e-05
4.00244e-05
4.00276e-05
4.00747e-05
4.00736e-05
4.00945e-05
4.00931e-05
4.00914e-05
4.00894e-05
4.00871e-05
4.00842e-05
4.00803e-05
4.00752e-05
4.00689e-05
4.00623e-05
4.00567e-05
4.00517e-05
4.00456e-05
4.00383e-05
4.003e-05
4.00216e-05
4.00123e-05
4.00086e-05
4.00121e-05
4.00242e-05
4.00271e-05
4.00762e-05
4.00756e-05
4.00992e-05
4.00992e-05
4.00991e-05
4.0099e-05
4.00987e-05
4.00981e-05
4.00973e-05
4.00962e-05
4.00948e-05
4.00931e-05
4.00911e-05
4.00888e-05
4.00859e-05
4.00821e-05
4.0077e-05
4.00706e-05
4.00639e-05
4.00582e-05
4.00531e-05
4.0047e-05
4.00396e-05
4.00312e-05
4.00225e-05
4.0013e-05
4.00087e-05
4.00119e-05
4.00239e-05
4.00266e-05
4.00778e-05
4.00779e-05
4.01021e-05
4.01036e-05
4.01032e-05
4.01027e-05
4.01023e-05
4.01018e-05
4.01014e-05
4.01012e-05
4.01011e-05
4.0101e-05
4.0101e-05
4.0101e-05
4.01009e-05
4.01008e-05
4.01008e-05
4.01007e-05
4.01004e-05
4.00998e-05
4.00991e-05
4.0098e-05
4.00966e-05
4.00949e-05
4.00929e-05
4.00906e-05
4.00877e-05
4.00839e-05
4.00789e-05
4.00725e-05
4.00656e-05
4.00597e-05
4.00546e-05
4.00484e-05
4.00409e-05
4.00324e-05
4.00236e-05
4.00138e-05
4.00089e-05
4.00116e-05
4.00237e-05
4.0026e-05
4.00794e-05
4.00803e-05
7.15024e-06
1.85175e-06
0
0
0.000155761
0.000457185
0.0161181
0.055214
0.112695
0.176125
0.235552
0.285664
0.324124
0.350468
0.365869
0.372677
0.373811
0.362818
0.330968
0.272181
0.189049
0.0999441
0.0339273
0.00196437
0.000544589
0
0
0
5.08281e-06
2.0036e-05
4.03457e-05
4.33539e-05
4.07226e-05
3.97021e-05
3.99365e-05
4.01373e-05
4.01376e-05
4.01121e-05
4.01082e-05
4.01075e-05
4.01049e-05
4.01035e-05
4.01034e-05
4.01034e-05
4.01031e-05
4.01029e-05
4.01028e-05
4.01027e-05
4.01027e-05
4.01027e-05
4.01026e-05
4.01026e-05
4.01024e-05
4.01022e-05
4.01017e-05
4.01009e-05
4.00998e-05
4.00985e-05
4.00968e-05
4.00948e-05
4.00924e-05
4.00896e-05
4.00858e-05
4.00808e-05
4.00744e-05
4.00674e-05
4.00614e-05
4.00562e-05
4.00499e-05
4.00424e-05
4.00337e-05
4.00247e-05
4.00147e-05
4.00091e-05
4.00114e-05
4.00234e-05
4.00254e-05
4.00809e-05
4.00829e-05
4.06831e-05
9.44324e-06
2.45001e-06
0
0
4.798e-06
0.00209233
0.00822229
0.0367014
0.087589
0.150415
0.213221
0.268326
0.31198
0.342892
0.361638
0.370783
0.373057
0.364429
0.336162
0.281334
0.201307
0.112008
0.0398712
0.00356634
0.000996048
0
0
0
3.23938e-06
1.21123e-05
3.81164e-05
4.44114e-05
4.16158e-05
3.98446e-05
3.98606e-05
4.00986e-05
4.01204e-05
4.00946e-05
4.00998e-05
4.01097e-05
4.01096e-05
4.01061e-05
4.01047e-05
4.01047e-05
4.01048e-05
4.01047e-05
4.01046e-05
4.01045e-05
4.01045e-05
4.01045e-05
4.01044e-05
4.01043e-05
4.0104e-05
4.01036e-05
4.01028e-05
4.01018e-05
4.01004e-05
4.00988e-05
4.00967e-05
4.00944e-05
4.00916e-05
4.00879e-05
4.00829e-05
4.00765e-05
4.00693e-05
4.00632e-05
4.00578e-05
4.00516e-05
4.00439e-05
4.00351e-05
4.0026e-05
4.00156e-05
4.00094e-05
4.00111e-05
4.00231e-05
4.00248e-05
4.00824e-05
4.00856e-05
4.34274e-05
4.0731e-05
1.29773e-05
3.38994e-06
0
0
0
0.000624879
0.00229256
0.0211348
0.0633526
0.123014
0.187903
0.247834
0.297083
0.333242
0.356295
0.368349
0.37194
0.3656
0.340834
0.290055
0.213318
0.124086
0.0476414
0.00673414
0.0018142
0
0
0
8.56324e-07
2.08748e-06
3.22535e-05
4.36679e-05
4.21685e-05
4.00212e-05
3.9866e-05
4.01835e-05
4.02141e-05
4.01225e-05
4.00873e-05
4.00985e-05
4.01094e-05
4.01099e-05
4.01075e-05
4.01064e-05
4.01065e-05
4.01066e-05
4.01065e-05
4.01064e-05
4.01064e-05
4.01063e-05
4.01062e-05
4.0106e-05
4.01056e-05
4.01049e-05
4.01039e-05
4.01025e-05
4.01008e-05
4.00988e-05
4.00965e-05
4.00937e-05
4.009e-05
4.00851e-05
4.00786e-05
4.00714e-05
4.0065e-05
4.00596e-05
4.00533e-05
4.00456e-05
4.00366e-05
4.00273e-05
4.00167e-05
4.00097e-05
4.00109e-05
4.00228e-05
4.00242e-05
4.00839e-05
4.00886e-05
4.03504e-05
4.30344e-05
4.05238e-05
2.04879e-05
5.32247e-06
0
0
0
4.49901e-05
8.3505e-05
0.0107626
0.0420905
0.0956152
0.160531
0.224699
0.279812
0.321792
0.349709
0.365008
0.370015
0.365828
0.3445
0.297845
0.224367
0.135284
0.0555593
0.0102388
0.00270421
0
0
0
7.21142e-08
7.29162e-06
2.93135e-05
4.31339e-05
4.28103e-05
3.98848e-05
3.92593e-05
3.98399e-05
4.02101e-05
4.02091e-05
4.01252e-05
4.00953e-05
4.01019e-05
4.01096e-05
4.01103e-05
4.0109e-05
4.01084e-05
4.01085e-05
4.01085e-05
4.01084e-05
4.01084e-05
4.01083e-05
4.01081e-05
4.01077e-05
4.0107e-05
4.0106e-05
4.01047e-05
4.0103e-05
4.0101e-05
4.00987e-05
4.00959e-05
4.00923e-05
4.00874e-05
4.00809e-05
4.00735e-05
4.0067e-05
4.00615e-05
4.00551e-05
4.00474e-05
4.00382e-05
4.00287e-05
4.00178e-05
4.00102e-05
4.00106e-05
4.00224e-05
4.00235e-05
4.00852e-05
4.00916e-05
3.99136e-05
4.03241e-05
4.24293e-05
4.0709e-05
2.88962e-05
7.40057e-06
1.11606e-07
0
0
9.3515e-07
0.00097366
0.00364827
0.0244478
0.06833
0.129698
0.196655
0.258237
0.307678
0.34221
0.362099
0.36954
0.367163
0.348979
0.306544
0.236624
0.148214
0.0651416
0.0135681
0.00395865
0.000132528
0
0
0
5.7655e-06
2.25133e-05
4.14322e-05
4.58581e-05
4.26635e-05
3.99611e-05
3.94791e-05
3.98842e-05
4.01582e-05
4.01774e-05
4.01261e-05
4.01039e-05
4.01066e-05
4.01112e-05
4.01117e-05
4.01108e-05
4.01105e-05
4.01105e-05
4.01105e-05
4.01104e-05
4.01103e-05
4.01099e-05
4.01093e-05
4.01083e-05
4.0107e-05
4.01054e-05
4.01033e-05
4.0101e-05
4.00982e-05
4.00946e-05
4.00898e-05
4.00834e-05
4.00759e-05
4.00692e-05
4.00635e-05
4.00571e-05
4.00493e-05
4.004e-05
4.00302e-05
4.00191e-05
4.00107e-05
4.00104e-05
4.00221e-05
4.00228e-05
4.00866e-05
4.00949e-05
4.01224e-05
4.00007e-05
4.02555e-05
4.12698e-05
4.10383e-05
3.69481e-05
1.58297e-05
4.16087e-06
2.99064e-08
0
0
0.000170592
0.000579014
0.00993171
0.0352328
0.080623
0.140562
0.205066
0.264306
0.311603
0.343905
0.361411
0.364933
0.354251
0.322685
0.265309
0.186387
0.102772
0.0406016
0.0059171
0.00197507
5.33049e-05
0
0
6.77782e-07
5.15395e-06
1.76101e-05
3.68723e-05
4.3931e-05
4.27166e-05
4.03965e-05
3.96488e-05
3.9869e-05
4.01206e-05
4.01634e-05
4.01262e-05
4.01073e-05
4.01096e-05
4.01136e-05
4.0114e-05
4.01133e-05
4.01131e-05
4.01131e-05
4.0113e-05
4.01127e-05
4.01121e-05
4.01112e-05
4.01099e-05
4.01083e-05
4.01063e-05
4.01039e-05
4.01011e-05
4.00976e-05
4.00929e-05
4.00865e-05
4.00788e-05
4.00719e-05
4.0066e-05
4.00595e-05
4.00516e-05
4.00421e-05
4.0032e-05
4.00206e-05
4.00115e-05
4.00102e-05
4.00217e-05
4.00222e-05
4.00878e-05
4.00984e-05
4.01297e-05
4.01246e-05
4.00255e-05
4.01223e-05
4.05941e-05
4.2063e-05
4.00077e-05
3.31911e-05
4.83069e-06
1.36032e-06
0
0
4.43313e-06
8.00981e-05
0.00232109
0.00859495
0.0316156
0.0738562
0.131432
0.195336
0.255552
0.304541
0.338486
0.356412
0.358392
0.342571
0.302997
0.238123
0.158327
0.0823723
0.0297549
0.00261591
0.000950911
1.80918e-05
0
0
4.63683e-07
5.18985e-06
1.9222e-05
3.81677e-05
4.40882e-05
4.23081e-05
4.01334e-05
3.96697e-05
3.99693e-05
4.01627e-05
4.01592e-05
4.012e-05
4.01105e-05
4.01151e-05
4.01176e-05
4.01172e-05
4.01167e-05
4.01164e-05
4.01161e-05
4.01156e-05
4.01147e-05
4.01135e-05
4.01119e-05
4.01099e-05
4.01075e-05
4.01046e-05
4.01011e-05
4.00965e-05
4.00901e-05
4.00823e-05
4.00751e-05
4.0069e-05
4.00623e-05
4.00543e-05
4.00446e-05
4.00342e-05
4.00224e-05
4.00125e-05
4.00099e-05
4.00213e-05
4.00215e-05
4.0089e-05
4.01021e-05
4.01103e-05
4.012e-05
4.01107e-05
4.00728e-05
4.00537e-05
4.03983e-05
4.12762e-05
4.21114e-05
3.84719e-05
2.44462e-05
6.34088e-06
8.67737e-08
0
0
0
7.32131e-05
0.00202775
0.00742954
0.0294867
0.070764
0.127859
0.192006
0.253011
0.302806
0.336877
0.352969
0.35083
0.326925
0.277369
0.206248
0.127569
0.0595944
0.016418
0.00084186
0.000341077
0
0
0
5.33561e-07
6.92697e-06
2.69821e-05
4.17903e-05
4.37143e-05
4.11074e-05
3.96985e-05
3.97697e-05
4.009e-05
4.01737e-05
4.01378e-05
4.01146e-05
4.01155e-05
4.01194e-05
4.01203e-05
4.01201e-05
4.01199e-05
4.01194e-05
4.01185e-05
4.01173e-05
4.01157e-05
4.01136e-05
4.01112e-05
4.01084e-05
4.01049e-05
4.01003e-05
4.0094e-05
4.00861e-05
4.00786e-05
4.00722e-05
4.00653e-05
4.00572e-05
4.00473e-05
4.00366e-05
4.00244e-05
4.00136e-05
4.00098e-05
4.00208e-05
4.00209e-05
4.009e-05
4.01058e-05
4.0107e-05
4.01118e-05
4.01103e-05
4.00932e-05
4.00419e-05
4.01835e-05
4.06373e-05
4.19973e-05
4.12953e-05
3.61521e-05
1.32467e-05
3.49186e-06
0
0
0
0
6.68274e-05
0.00201462
0.00740724
0.0296084
0.0712662
0.129
0.193945
0.255484
0.304784
0.336731
0.347942
0.338554
0.30469
0.245897
0.170653
0.0947528
0.0382116
0.00668011
0.00197237
4.77944e-05
0
0
0
3.82758e-06
1.41054e-05
3.67088e-05
4.4251e-05
4.25649e-05
4.01809e-05
3.96852e-05
3.99894e-05
4.01685e-05
4.01607e-05
4.01292e-05
4.01229e-05
4.01242e-05
4.01238e-05
4.0123e-05
4.01228e-05
4.01224e-05
4.01213e-05
4.01197e-05
4.01176e-05
4.01151e-05
4.01123e-05
4.01088e-05
4.01043e-05
4.00981e-05
4.00901e-05
4.00824e-05
4.00756e-05
4.00685e-05
4.00603e-05
4.00502e-05
4.00391e-05
4.00266e-05
4.0015e-05
4.00098e-05
4.00202e-05
4.00202e-05
4.00908e-05
4.01096e-05
4.01044e-05
4.01056e-05
4.01075e-05
4.01115e-05
4.00948e-05
4.00711e-05
4.00304e-05
4.03428e-05
4.10896e-05
4.2223e-05
3.99373e-05
2.78136e-05
7.19071e-06
9.78038e-08
0
0
0
0
7.03565e-05
0.00225588
0.00838328
0.0319794
0.0755111
0.135029
0.201045
0.262219
0.308985
0.335992
0.340424
0.321346
0.276397
0.208729
0.13148
0.0629392
0.0189087
0.0021016
0.000617651
0
0
0
4.1447e-07
6.95638e-06
2.72342e-05
4.25182e-05
4.35641e-05
4.08812e-05
3.97122e-05
3.98658e-05
4.0114e-05
4.01481e-05
4.01229e-05
4.01221e-05
4.01297e-05
4.01305e-05
4.01278e-05
4.01261e-05
4.01251e-05
4.01238e-05
4.01218e-05
4.01193e-05
4.01164e-05
4.01129e-05
4.01085e-05
4.01024e-05
4.00944e-05
4.00864e-05
4.00793e-05
4.0072e-05
4.00636e-05
4.00534e-05
4.00419e-05
4.0029e-05
4.00166e-05
4.00099e-05
4.00196e-05
4.00195e-05
4.00914e-05
4.01133e-05
4.01043e-05
4.01047e-05
4.01051e-05
4.01068e-05
4.01086e-05
4.01054e-05
4.00799e-05
4.00331e-05
4.01073e-05
4.05082e-05
4.17796e-05
4.16128e-05
3.68713e-05
1.4103e-05
3.73347e-06
1.21184e-08
0
0
0
0
0.000127547
0.000185904
0.0102011
0.0365851
0.0836629
0.145934
0.212797
0.272057
0.314159
0.333449
0.32859
0.297599
0.240622
0.16618
0.0914061
0.0359585
0.00562524
0.00164382
0
0
0
0
4.99978e-06
1.94473e-05
3.92089e-05
4.4221e-05
4.18158e-05
3.99813e-05
3.98914e-05
4.01758e-05
4.02109e-05
4.01381e-05
4.0111e-05
4.0122e-05
4.01317e-05
4.01324e-05
4.01301e-05
4.01281e-05
4.01262e-05
4.01237e-05
4.01208e-05
4.01173e-05
4.0113e-05
4.0107e-05
4.00991e-05
4.00909e-05
4.00834e-05
4.00757e-05
4.00672e-05
4.00568e-05
4.0045e-05
4.00316e-05
4.00185e-05
4.00101e-05
4.0019e-05
4.00187e-05
4.00916e-05
4.01169e-05
4.01049e-05
4.01052e-05
4.01056e-05
4.01059e-05
4.0107e-05
4.01083e-05
4.01103e-05
4.00937e-05
4.00639e-05
4.00074e-05
4.02514e-05
4.08977e-05
4.23397e-05
3.93847e-05
3.10319e-05
1.65275e-06
5.72855e-07
0
0
0
0
1.87069e-06
0.000389787
0.00120781
0.0136415
0.0445396
0.0964363
0.161861
0.228614
0.283764
0.318361
0.327282
0.310186
0.265391
0.197311
0.120616
0.0546191
0.0146044
0.00397477
7.17394e-05
0
0
0
2.53394e-06
9.02944e-06
3.33862e-05
4.36579e-05
4.23314e-05
3.97411e-05
3.94034e-05
3.99782e-05
4.02611e-05
4.02232e-05
4.01466e-05
4.01257e-05
4.01306e-05
4.01341e-05
4.01332e-05
4.01309e-05
4.01283e-05
4.01253e-05
4.01218e-05
4.01175e-05
4.01117e-05
4.01039e-05
4.00955e-05
4.00877e-05
4.00796e-05
4.0071e-05
4.00603e-05
4.00482e-05
4.00344e-05
4.00206e-05
4.00106e-05
4.00184e-05
4.00179e-05
4.00918e-05
4.01204e-05
4.0106e-05
4.01063e-05
4.01067e-05
4.0107e-05
4.01074e-05
4.01078e-05
4.01095e-05
4.01108e-05
4.01086e-05
4.00813e-05
4.00361e-05
4.0047e-05
4.05249e-05
4.15367e-05
4.21546e-05
3.67169e-05
2.19348e-05
5.71299e-06
1.27396e-07
0
0
0
0
1.28529e-05
0.000607805
0.00195577
0.0186777
0.0564823
0.114201
0.182365
0.246949
0.294847
0.318011
0.313819
0.280966
0.22139
0.146072
0.0740879
0.0250787
0.00296224
0.000723262
0
0
0
2.82836e-07
6.94965e-06
2.76212e-05
4.49411e-05
4.58444e-05
4.16146e-05
3.94467e-05
3.95226e-05
4.00075e-05
4.0186e-05
4.01729e-05
4.01438e-05
4.01366e-05
4.01369e-05
4.0136e-05
4.01336e-05
4.01305e-05
4.0127e-05
4.01227e-05
4.01171e-05
4.01093e-05
4.0101e-05
4.00928e-05
4.00843e-05
4.00753e-05
4.00645e-05
4.00522e-05
4.00378e-05
4.00234e-05
4.00116e-05
4.00176e-05
4.00169e-05
4.00908e-05
4.0124e-05
4.01069e-05
4.01072e-05
4.01076e-05
4.01079e-05
4.01083e-05
4.01087e-05
4.01091e-05
4.01101e-05
4.01119e-05
4.01137e-05
4.0101e-05
4.00639e-05
4.00081e-05
4.02381e-05
4.09293e-05
4.23554e-05
4.08622e-05
3.4086e-05
1.63729e-05
4.33274e-06
1.24752e-07
0
0
0
0
2.20197e-05
0.00153191
0.00564976
0.0284847
0.0743312
0.139133
0.210509
0.272634
0.312677
0.322684
0.301682
0.249553
0.174075
0.0944949
0.0305184
0.00156922
0.00143206
0.00045339
0.000152596
3.04243e-05
0
9.1496e-07
8.00791e-06
3.06865e-05
4.42107e-05
4.38436e-05
4.11234e-05
3.99896e-05
3.99673e-05
4.01092e-05
4.01532e-05
4.01484e-05
4.01419e-05
4.01395e-05
4.01374e-05
4.01345e-05
4.01309e-05
4.01267e-05
4.01212e-05
4.01136e-05
4.01052e-05
4.00968e-05
4.00879e-05
4.00787e-05
4.00678e-05
4.00551e-05
4.00405e-05
4.00252e-05
4.00123e-05
4.00175e-05
4.00163e-05
4.00919e-05
4.01266e-05
4.01079e-05
4.01083e-05
4.01087e-05
4.01092e-05
4.01097e-05
4.01101e-05
4.01106e-05
4.01111e-05
4.01117e-05
4.01135e-05
4.01155e-05
4.01168e-05
4.00896e-05
4.00517e-05
4.00219e-05
4.04453e-05
4.13927e-05
4.23493e-05
4.04442e-05
3.37184e-05
1.51444e-05
3.75675e-06
0
0
0
0
0
6.7344e-05
0.00173296
0.005946
0.0276538
0.0690326
0.126006
0.188313
0.242969
0.278979
0.288127
0.267768
0.219542
0.15355
0.089753
0.0436676
0.017598
0.00563051
0.0010674
0.000242046
0
0
5.34406e-06
2.03534e-05
3.52305e-05
4.04732e-05
4.08067e-05
4.03235e-05
4.01368e-05
4.0134e-05
4.01497e-05
4.0152e-05
4.01495e-05
4.01468e-05
4.01438e-05
4.01403e-05
4.0136e-05
4.01306e-05
4.01234e-05
4.01152e-05
4.01064e-05
4.00967e-05
4.00868e-05
4.00754e-05
4.00625e-05
4.00468e-05
4.00309e-05
4.00148e-05
4.00174e-05
4.0015e-05
4.00869e-05
4.01332e-05
)
;

boundaryField
{
    inlet
    {
        type            freestream;
        freestreamValue uniform 4e-05;
        value           nonuniform List<scalar> 
27
(
4.00638e-05
4.00644e-05
4.00652e-05
4.00662e-05
4.00673e-05
4.00686e-05
4.00701e-05
4.00718e-05
4.00736e-05
4.00756e-05
4.00779e-05
4.00803e-05
4.00829e-05
4.00856e-05
4.00886e-05
4.00916e-05
4.00949e-05
4.00984e-05
4.01021e-05
4.01058e-05
4.01096e-05
4.01133e-05
4.01169e-05
4.01204e-05
4.0124e-05
4.01266e-05
4.01332e-05
)
;
    }
    outlet
    {
        type            freestream;
        freestreamValue uniform 4e-05;
        value           nonuniform List<scalar> 
78
(
4.01079e-05
4.01083e-05
4.01087e-05
4.01092e-05
4.01097e-05
4.01101e-05
4.01106e-05
4.01111e-05
4.01117e-05
4.01135e-05
4.01155e-05
4.01168e-05
4.00896e-05
4.00517e-05
4.00219e-05
4.04453e-05
4.13927e-05
4.23493e-05
4.04442e-05
3.37184e-05
1.51444e-05
3.75675e-06
0
0
0
0
0
6.7344e-05
0.00173296
0.005946
0.0276538
0.0690326
0.126006
0.188313
0.242969
0.278979
0.288127
0.267768
0.219542
0.15355
0.089753
0.0436676
0.017598
0.00563051
0.0010674
0.000242046
0
0
5.34406e-06
2.03534e-05
3.52305e-05
4.04732e-05
4.08067e-05
4.03235e-05
4.01368e-05
4.0134e-05
4.01497e-05
4.0152e-05
4.01495e-05
4.01468e-05
4.01438e-05
4.01403e-05
4.0136e-05
4.01306e-05
4.01234e-05
4.01152e-05
4.01064e-05
4.00967e-05
4.00868e-05
4.00754e-05
4.00625e-05
4.00468e-05
4.00309e-05
4.00148e-05
4.00174e-05
4.0015e-05
4.00869e-05
4.01332e-05
)
;
    }
    walls
    {
        type            fixedValue;
        value           nonuniform List<scalar> 0();
    }
    frontAndBack
    {
        type            empty;
    }
    procBoundary7to3
    {
        type            processor;
        value           nonuniform List<scalar> 
16
(
3.97082e-05
4.32803e-05
4.0429e-05
3.98895e-05
4.01056e-05
4.01411e-05
4.01174e-05
4.01088e-05
4.01056e-05
4.01056e-05
4.01042e-05
4.01039e-05
4.01046e-05
4.01057e-05
4.01066e-05
4.01075e-05
)
;
    }
    procBoundary7to6
    {
        type            processor;
        value           nonuniform List<scalar> 
91
(
4.00634e-05
4.00641e-05
4.00641e-05
4.00293e-05
4.00293e-05
4.00257e-05
4.00257e-05
4.00088e-05
4.0013e-05
4.0013e-05
4.00175e-05
4.00097e-05
4.00097e-05
4.00409e-05
4.00339e-05
4.00262e-05
4.00262e-05
4.00581e-05
4.00528e-05
4.0048e-05
4.0048e-05
4.0081e-05
4.00771e-05
4.0072e-05
4.00658e-05
4.00658e-05
4.00929e-05
4.00915e-05
4.00898e-05
4.00878e-05
4.00855e-05
4.00855e-05
4.00976e-05
4.00976e-05
4.00975e-05
4.00974e-05
4.0097e-05
4.00964e-05
4.00956e-05
4.00956e-05
4.01038e-05
4.01027e-05
4.01016e-05
4.01009e-05
4.01003e-05
4.00999e-05
4.00997e-05
4.00995e-05
4.00994e-05
4.00993e-05
4.00993e-05
4.00993e-05
4.00993e-05
6.06751e-08
0
0
0.00120103
0.0046959
0.0287975
0.0763332
0.137243
0.199205
0.254645
0.299995
0.333813
0.356231
0.369034
0.374792
0.374584
0.36089
0.325269
0.262583
0.176728
0.0878248
0.026049
0.00282988
0.000699219
0
0
0
6.29297e-06
2.51239e-05
4.16804e-05
4.27532e-05
4.04298e-05
3.98099e-05
4.00392e-05
4.01498e-05
4.01241e-05
4.01027e-05
4.01027e-05
)
;
    }
}


// ************************************************************************* //
