/*--------------------------------*- C++ -*----------------------------------*\
| =========                 |                                                 |
| \\      /  F ield         | OpenFOAM: The Open Source CFD Toolbox           |
|  \\    /   O peration     | Version:  2506                                  |
|   \\  /    A nd           | Website:  www.openfoam.com                      |
|    \\/     M anipulation  |                                                 |
\*---------------------------------------------------------------------------*/
FoamFile
{
    version     2.0;
    format      ascii;
    arch        "LSB;label=32;scalar=64";
    class       volScalarField;
    location    "400";
    object      turbulenceProperties:I;
}
// * * * * * * * * * * * * * * * * * * * * * * * * * * * * * * * * * * * * * //

dimensions      [0 0 0 0 0 0 0];

internalField   nonuniform List<scalar> 
1340
(
3.02094e-05
2.64679e-05
3.04408e-05
2.60157e-05
2.60487e-05
3.04457e-05
1.6809e-05
2.58544e-05
2.57677e-05
3.05165e-05
1.58701e-05
2.1515e-05
1.67317e-05
2.57262e-05
2.55261e-05
3.06278e-05
1.89124e-05
2.05117e-05
1.56332e-05
2.13213e-05
1.66515e-05
2.56105e-05
2.53291e-05
3.07409e-05
2.24272e-05
2.10249e-05
2.10376e-05
1.85358e-05
2.023e-05
1.53805e-05
2.11306e-05
1.65734e-05
2.55117e-05
2.51868e-05
3.08471e-05
2.40793e-05
2.33382e-05
2.24035e-05
2.19433e-05
2.05573e-05
2.06507e-05
1.81451e-05
1.99412e-05
1.5115e-05
2.09475e-05
1.64971e-05
2.54325e-05
2.50969e-05
3.09446e-05
2.7089e-05
2.61617e-05
2.52408e-05
2.43341e-05
2.34132e-05
2.27329e-05
2.18332e-05
2.14407e-05
2.00737e-05
2.02499e-05
1.77418e-05
1.96463e-05
1.48379e-05
2.07703e-05
1.6423e-05
2.53684e-05
2.50478e-05
3.10464e-05
3.04659e-05
2.95769e-05
2.8693e-05
2.78168e-05
2.695e-05
2.60938e-05
2.52501e-05
2.44076e-05
2.35795e-05
2.2723e-05
2.2105e-05
2.12416e-05
2.09179e-05
1.95727e-05
1.98341e-05
1.7325e-05
1.9344e-05
1.45494e-05
2.05955e-05
1.63526e-05
2.53142e-05
2.50311e-05
3.11376e-05
3.43807e-05
3.36454e-05
3.28937e-05
3.21277e-05
3.13511e-05
3.05667e-05
2.97776e-05
2.89865e-05
2.81958e-05
2.74075e-05
2.66232e-05
2.5845e-05
2.50734e-05
2.43126e-05
2.35485e-05
2.27997e-05
2.20092e-05
2.14549e-05
2.06293e-05
2.03753e-05
1.90547e-05
1.94036e-05
1.68955e-05
1.90341e-05
1.42506e-05
2.04217e-05
1.62855e-05
2.52678e-05
2.50561e-05
3.12277e-05
3.7922e-05
3.75958e-05
3.72451e-05
3.68684e-05
3.64637e-05
3.603e-05
3.55671e-05
3.50753e-05
3.45552e-05
3.40083e-05
3.34358e-05
3.28395e-05
3.22217e-05
3.15846e-05
3.09311e-05
3.02632e-05
2.95841e-05
2.88964e-05
2.82028e-05
2.75059e-05
2.68079e-05
2.61102e-05
2.54142e-05
2.47218e-05
2.4033e-05
2.33538e-05
2.26675e-05
2.19981e-05
2.1275e-05
2.07856e-05
1.99989e-05
1.98151e-05
1.85221e-05
1.89598e-05
1.64549e-05
1.87172e-05
1.39439e-05
2.02492e-05
1.62201e-05
2.52283e-05
2.51034e-05
3.13166e-05
5.17221e-06
1.2704e-06
0
0
0.000197192
0.000282938
0.00263072
0.00938374
0.0185835
0.0279876
0.0358419
0.0410306
0.0426443
0.0396686
0.0305684
0.01002
0.0299871
0.0390916
0.040667
0.0358232
0.0261351
0.0146666
0.00545132
0.000540749
0.000182256
0
0
0
5.29007e-06
1.95477e-05
3.73336e-05
3.94203e-05
3.68848e-05
3.56966e-05
3.55943e-05
3.54956e-05
3.52423e-05
3.49637e-05
3.46903e-05
3.44016e-05
3.4089e-05
3.37523e-05
3.33903e-05
3.30015e-05
3.25856e-05
3.21433e-05
3.1676e-05
3.1185e-05
3.06717e-05
3.01379e-05
2.95862e-05
2.90189e-05
2.84379e-05
2.78461e-05
2.72459e-05
2.66397e-05
2.603e-05
2.54186e-05
2.48067e-05
2.4195e-05
2.35854e-05
2.2977e-05
2.23779e-05
2.17684e-05
2.11784e-05
2.05235e-05
2.00999e-05
1.93533e-05
1.92397e-05
1.79767e-05
1.85041e-05
1.60059e-05
1.83929e-05
1.36312e-05
2.00744e-05
1.61587e-05
2.51925e-05
2.51763e-05
3.14046e-05
2.865e-05
6.35506e-06
1.60767e-06
0
0
8.30598e-06
0.000708847
0.000944404
0.00592682
0.0139274
0.0230623
0.0313284
0.0373505
0.0401455
0.0387634
0.0319631
0.0161758
0.0245793
0.0353976
0.0384101
0.0349596
0.0264425
0.0156032
0.00616409
0.000836199
0.000241438
0
0
0
3.13722e-06
1.09181e-05
3.23737e-05
3.67804e-05
3.43656e-05
3.27208e-05
3.2475e-05
3.24308e-05
3.22302e-05
3.19851e-05
3.1749e-05
3.14988e-05
3.12198e-05
3.09147e-05
3.05862e-05
3.02339e-05
2.98569e-05
2.94566e-05
2.90344e-05
2.85915e-05
2.81299e-05
2.76519e-05
2.71597e-05
2.66552e-05
2.61411e-05
2.56197e-05
2.50932e-05
2.45637e-05
2.4033e-05
2.3502e-05
2.29705e-05
2.24406e-05
2.19101e-05
2.13894e-05
2.08551e-05
2.03442e-05
1.97581e-05
1.94008e-05
1.86953e-05
1.86515e-05
1.74216e-05
1.80387e-05
1.55501e-05
1.8062e-05
1.33126e-05
1.98993e-05
1.60952e-05
2.51584e-05
2.52509e-05
3.14976e-05
2.8844e-05
2.67743e-05
8.45407e-06
2.04644e-06
0
0
0
0.000391489
0.000500455
0.00318506
0.00974843
0.0182867
0.0267687
0.0335297
0.0374244
0.0374995
0.0326866
0.0207879
0.0187329
0.0316452
0.0360704
0.0339661
0.0266014
0.0164265
0.00697156
0.00129212
0.000295605
0
0
0
7.65829e-07
1.72073e-06
2.51328e-05
3.30399e-05
3.18138e-05
3.00535e-05
2.96943e-05
2.97112e-05
2.95482e-05
2.92913e-05
2.90538e-05
2.88278e-05
2.85808e-05
2.83045e-05
2.80032e-05
2.76799e-05
2.73356e-05
2.69713e-05
2.65881e-05
2.61881e-05
2.57736e-05
2.53468e-05
2.49098e-05
2.44649e-05
2.40144e-05
2.35606e-05
2.31052e-05
2.265e-05
2.21951e-05
2.17405e-05
2.12875e-05
2.08326e-05
2.03887e-05
1.99289e-05
1.94958e-05
1.898e-05
1.86893e-05
1.80266e-05
1.80513e-05
1.68581e-05
1.75628e-05
1.50895e-05
1.77254e-05
1.29905e-05
1.97149e-05
1.60275e-05
2.51358e-05
2.53288e-05
3.15955e-05
2.5359e-05
2.67025e-05
2.54941e-05
1.25542e-05
2.93322e-06
0
0
0
7.52278e-05
0.000119316
0.00128207
0.00624133
0.0138312
0.0222618
0.0296348
0.0345477
0.0359575
0.0328675
0.0237238
0.0120768
0.0279092
0.0337111
0.032875
0.0265951
0.0170691
0.00769659
0.00171395
0.000347233
0
0
0
6.1915e-08
5.5819e-06
2.07294e-05
2.95603e-05
2.94468e-05
2.7474e-05
2.68459e-05
2.70023e-05
2.70561e-05
2.68796e-05
2.66337e-05
2.63992e-05
2.61653e-05
2.59115e-05
2.56326e-05
2.53324e-05
2.50145e-05
2.468e-05
2.43311e-05
2.39695e-05
2.35983e-05
2.32191e-05
2.28345e-05
2.2447e-05
2.20583e-05
2.16706e-05
2.12848e-05
2.09015e-05
2.05197e-05
2.01402e-05
1.97585e-05
1.93891e-05
1.90023e-05
1.86456e-05
1.81994e-05
1.79759e-05
1.73558e-05
1.74485e-05
1.62913e-05
1.7086e-05
1.46234e-05
1.73892e-05
1.26418e-05
1.95416e-05
1.59317e-05
2.51125e-05
2.54188e-05
3.17268e-05
2.36953e-05
2.36265e-05
2.50136e-05
2.39065e-05
1.64414e-05
3.80532e-06
5.53e-08
0
0
1.41694e-06
0.000462572
0.000491216
0.00340344
0.00961148
0.0175377
0.0253144
0.0312598
0.0341071
0.0328111
0.0261472
0.00972332
0.0236428
0.0311581
0.0317612
0.0266892
0.017919
0.00866467
0.00220672
0.000331966
0.000104455
0
0
0
4.30174e-06
1.4928e-05
2.56905e-05
2.81955e-05
2.65064e-05
2.48617e-05
2.44039e-05
2.4456e-05
2.44408e-05
2.42733e-05
2.40467e-05
2.38156e-05
2.35781e-05
2.33237e-05
2.30503e-05
2.27614e-05
2.24609e-05
2.21496e-05
2.1831e-05
2.15073e-05
2.11804e-05
2.08536e-05
2.05282e-05
2.02066e-05
1.98886e-05
1.95761e-05
1.92667e-05
1.89604e-05
1.86527e-05
1.83581e-05
1.80446e-05
1.77665e-05
1.73916e-05
1.72366e-05
1.66645e-05
1.68217e-05
1.57126e-05
1.65841e-05
1.41638e-05
1.70244e-05
1.23329e-05
1.93356e-05
1.58625e-05
2.50694e-05
2.55003e-05
3.18145e-05
2.22199e-05
2.18817e-05
2.21079e-05
2.24565e-05
2.20038e-05
1.93735e-05
7.8047e-06
1.87307e-06
1.32156e-08
0
0
0.000159584
0.000277606
0.00104944
0.00475285
0.0106701
0.0177677
0.0244788
0.0292739
0.0308752
0.0281709
0.0195869
0.0129791
0.0251331
0.0289467
0.0268623
0.0204388
0.0121866
0.0052205
0.000967466
0.000314226
4.63676e-05
0
0
4.75277e-07
3.34301e-06
1.03592e-05
2.03926e-05
2.39058e-05
2.33998e-05
2.21923e-05
2.16776e-05
2.16305e-05
2.15974e-05
2.14505e-05
2.12453e-05
2.1031e-05
2.08102e-05
2.05776e-05
2.03334e-05
2.00791e-05
1.98202e-05
1.95591e-05
1.92983e-05
1.90396e-05
1.87855e-05
1.85386e-05
1.82985e-05
1.80668e-05
1.78404e-05
1.76194e-05
1.73976e-05
1.71901e-05
1.69627e-05
1.67734e-05
1.64876e-05
1.64044e-05
1.59032e-05
1.61133e-05
1.50989e-05
1.59985e-05
1.37285e-05
1.65388e-05
1.20949e-05
1.88859e-05
1.54896e-05
2.45085e-05
2.48593e-05
3.06737e-05
2.04183e-05
2.02287e-05
2.02796e-05
2.01693e-05
2.00928e-05
2.05884e-05
1.94757e-05
1.56086e-05
2.04883e-06
5.44952e-07
0
0
4.99209e-06
0.000101064
0.000552579
0.000880432
0.00411817
0.00937937
0.0158286
0.0220424
0.0264989
0.0278525
0.0249423
0.0159565
0.0144128
0.0238049
0.0259917
0.0229359
0.0165366
0.00931472
0.00367998
0.000474515
0.000219534
1.49193e-05
0
0
2.81415e-07
2.89587e-06
9.68364e-06
1.81037e-05
2.07178e-05
2.00873e-05
1.91046e-05
1.8774e-05
1.87611e-05
1.87006e-05
1.85448e-05
1.83572e-05
1.81692e-05
1.79774e-05
1.77789e-05
1.75783e-05
1.73781e-05
1.71837e-05
1.69964e-05
1.68192e-05
1.66547e-05
1.65022e-05
1.6364e-05
1.62345e-05
1.61146e-05
1.59948e-05
1.58908e-05
1.57661e-05
1.56802e-05
1.54973e-05
1.54999e-05
1.50783e-05
1.53562e-05
1.44324e-05
1.53988e-05
1.32354e-05
1.61084e-05
1.18334e-05
1.86432e-05
1.55161e-05
2.4465e-05
2.51513e-05
3.08098e-05
1.85955e-05
1.84685e-05
1.85942e-05
1.85021e-05
1.82756e-05
1.82104e-05
1.84709e-05
1.87607e-05
1.68637e-05
1.00018e-05
2.31416e-06
3.28908e-08
0
0
0
9.9275e-05
0.000534224
0.00072382
0.00375172
0.00869381
0.0147624
0.0205658
0.0245707
0.0253955
0.0218253
0.0114182
0.0162067
0.0227699
0.0231706
0.0191839
0.0128824
0.00658723
0.00210294
0.000119405
0.000138085
0
0
0
2.78939e-07
3.21869e-06
1.12818e-05
1.67342e-05
1.76318e-05
1.67656e-05
1.61605e-05
1.60515e-05
1.60342e-05
1.59292e-05
1.57718e-05
1.56094e-05
1.54537e-05
1.53021e-05
1.51554e-05
1.50216e-05
1.49027e-05
1.48023e-05
1.47228e-05
1.46637e-05
1.46254e-05
1.46015e-05
1.45917e-05
1.45829e-05
1.45899e-05
1.45737e-05
1.45954e-05
1.45156e-05
1.46074e-05
1.4266e-05
1.4616e-05
1.37752e-05
1.48216e-05
1.27379e-05
1.57157e-05
1.15192e-05
1.8453e-05
1.54708e-05
2.44935e-05
2.53663e-05
3.09288e-05
1.67241e-05
1.68824e-05
1.68458e-05
1.66959e-05
1.65352e-05
1.64485e-05
1.65328e-05
1.70012e-05
1.66372e-05
1.40751e-05
4.70973e-06
1.19763e-06
0
0
0
0
9.36124e-05
0.000521187
0.000729071
0.00369423
0.0084679
0.0142424
0.0196072
0.0229999
0.0230205
0.0183906
0.00483102
0.0174584
0.021433
0.0202028
0.0155105
0.00943642
0.00419811
0.000909059
0.000246256
3.92871e-05
0
0
0
1.65195e-06
5.23236e-06
1.23836e-05
1.47783e-05
1.44986e-05
1.37744e-05
1.35129e-05
1.34814e-05
1.34176e-05
1.32963e-05
1.31704e-05
1.30599e-05
1.29658e-05
1.28948e-05
1.28487e-05
1.28317e-05
1.28458e-05
1.28893e-05
1.29602e-05
1.30493e-05
1.31552e-05
1.32607e-05
1.33793e-05
1.34688e-05
1.35924e-05
1.36077e-05
1.37805e-05
1.35167e-05
1.39302e-05
1.31708e-05
1.42862e-05
1.22832e-05
1.53579e-05
1.12308e-05
1.8298e-05
1.54047e-05
2.45535e-05
2.54847e-05
3.1039e-05
1.50272e-05
1.52069e-05
1.51909e-05
1.50954e-05
1.50082e-05
1.49042e-05
1.48106e-05
1.48224e-05
1.50427e-05
1.54344e-05
1.45026e-05
9.66081e-06
2.29273e-06
3.31847e-08
0
0
0
0
9.63884e-05
0.000518594
0.000875748
0.00389318
0.00861351
0.0141326
0.0189817
0.0215698
0.0205059
0.0143771
0.00962647
0.0180346
0.0197031
0.0170306
0.0118578
0.00629634
0.00216727
0.000217319
0.000177974
0
0
0
1.6438e-07
2.33304e-06
7.72323e-06
1.1365e-05
1.18585e-05
1.13068e-05
1.09516e-05
1.08914e-05
1.08694e-05
1.08102e-05
1.07518e-05
1.07238e-05
1.07359e-05
1.07879e-05
1.08818e-05
1.10181e-05
1.11901e-05
1.13925e-05
1.16114e-05
1.18431e-05
1.20681e-05
1.22986e-05
1.24899e-05
1.27062e-05
1.28062e-05
1.30468e-05
1.28575e-05
1.33218e-05
1.2645e-05
1.38094e-05
1.19016e-05
1.50423e-05
1.10132e-05
1.81713e-05
1.53371e-05
2.46397e-05
2.55089e-05
3.11664e-05
1.34033e-05
1.35808e-05
1.35796e-05
1.35103e-05
1.34518e-05
1.33824e-05
1.33345e-05
1.32478e-05
1.31906e-05
1.32622e-05
1.36786e-05
1.36463e-05
1.1908e-05
4.31854e-06
1.15886e-06
4.26804e-09
0
0
0
0
0.000139021
0.000131529
0.0011495
0.00432649
0.00908024
0.0143285
0.0185217
0.0200667
0.0176262
0.00914791
0.0130985
0.0178675
0.0174489
0.0136038
0.00831275
0.00365255
0.00072551
0.000234059
0
0
0
0
1.46469e-06
4.50729e-06
7.99081e-06
9.03087e-06
8.72765e-06
8.3037e-06
8.17084e-06
8.18302e-06
8.22828e-06
8.313e-06
8.46634e-06
8.68875e-06
8.96608e-06
9.28463e-06
9.63098e-06
9.99379e-06
1.03582e-05
1.07188e-05
1.10587e-05
1.13903e-05
1.16695e-05
1.19603e-05
1.21268e-05
1.24136e-05
1.22881e-05
1.2787e-05
1.21886e-05
1.33819e-05
1.15714e-05
1.47554e-05
1.08276e-05
1.80628e-05
1.52489e-05
2.47325e-05
2.5406e-05
3.13268e-05
1.22983e-05
1.24415e-05
1.24652e-05
1.24083e-05
1.23516e-05
1.23088e-05
1.22852e-05
1.22326e-05
1.21738e-05
1.20963e-05
1.21176e-05
1.22744e-05
1.27019e-05
1.18645e-05
9.21621e-06
4.91721e-07
1.97709e-07
0
0
0
0
2.56023e-06
0.000239544
0.000267438
0.00159785
0.00504146
0.009841
0.0147182
0.0180406
0.0182596
0.0140582
0.00555348
0.0148881
0.0168304
0.014598
0.0100049
0.00509911
0.00158767
6.53515e-05
5.18198e-05
0
0
0
5.68551e-07
1.08137e-06
3.27937e-06
4.06031e-06
4.49049e-06
4.55509e-06
4.68033e-06
5.0978e-06
5.66109e-06
6.24639e-06
6.83221e-06
7.41383e-06
7.98046e-06
8.52271e-06
9.03896e-06
9.52361e-06
9.98087e-06
1.04005e-05
1.07997e-05
1.11368e-05
1.14708e-05
1.16797e-05
1.19857e-05
1.19136e-05
1.24211e-05
1.19087e-05
1.30882e-05
1.14117e-05
1.4562e-05
1.07981e-05
1.80071e-05
1.51411e-05
2.48461e-05
2.50633e-05
3.16491e-05
1.11091e-05
1.12748e-05
1.1291e-05
1.12329e-05
1.118e-05
1.11679e-05
1.11761e-05
1.11073e-05
1.10918e-05
1.10691e-05
1.10055e-05
1.09699e-05
1.10863e-05
1.13275e-05
1.14955e-05
1.00882e-05
6.08394e-06
1.75423e-06
4.79131e-08
0
0
0
0
1.76727e-05
0.000279111
0.00018136
0.00221925
0.00603096
0.0108141
0.0151181
0.0172603
0.0157797
0.00896338
0.0109524
0.0153409
0.0147904
0.0111271
0.00634116
0.00241286
0.000283335
0.000189292
0
0
0
8.381e-08
1.22883e-06
2.83712e-06
6.07577e-06
5.49807e-06
4.65561e-06
4.84638e-06
5.49697e-06
6.18309e-06
6.79755e-06
7.35549e-06
7.88489e-06
8.38886e-06
8.86777e-06
9.31516e-06
9.73718e-06
1.01267e-05
1.04995e-05
1.08185e-05
1.11295e-05
1.13229e-05
1.15951e-05
1.15283e-05
1.20134e-05
1.15393e-05
1.27042e-05
1.10648e-05
1.42585e-05
1.04637e-05
1.78478e-05
1.48518e-05
2.48409e-05
2.44109e-05
3.21752e-05
1.15464e-05
1.16283e-05
1.16218e-05
1.15597e-05
1.15003e-05
1.146e-05
1.14361e-05
1.13729e-05
1.13309e-05
1.12819e-05
1.12051e-05
1.11369e-05
1.10854e-05
1.10715e-05
1.11487e-05
1.13947e-05
1.09421e-05
9.2524e-06
4.80193e-06
1.53118e-06
5.25994e-08
0
0
0
0
2.99243e-05
0.000388967
0.000591272
0.00319027
0.00736331
0.0120886
0.0157277
0.0165647
0.0131511
0.00535668
0.0135266
0.014996
0.0124478
0.00785544
0.00322897
0.000382452
0.000253273
0.000172032
7.75971e-05
1.35482e-05
0
1.48358e-07
1.47006e-06
6.52766e-06
9.27809e-06
8.93958e-06
8.34431e-06
8.24524e-06
8.45756e-06
8.75259e-06
9.06144e-06
9.37993e-06
9.70699e-06
1.00331e-05
1.03541e-05
1.06633e-05
1.0968e-05
1.12391e-05
1.15019e-05
1.16679e-05
1.18936e-05
1.18504e-05
1.22671e-05
1.18857e-05
1.29137e-05
1.14776e-05
1.44261e-05
1.08049e-05
1.80243e-05
1.44716e-05
2.50832e-05
2.32634e-05
3.38859e-05
1.06842e-05
1.07197e-05
1.07333e-05
1.07541e-05
1.07678e-05
1.07817e-05
1.0809e-05
1.08417e-05
1.08692e-05
1.08849e-05
1.08999e-05
1.09271e-05
1.0951e-05
1.09763e-05
1.09983e-05
1.11191e-05
1.13283e-05
1.14764e-05
1.09695e-05
9.53632e-06
4.84139e-06
1.44401e-06
0
0
0
0
0
7.53869e-05
0.000357648
0.000673025
0.00294578
0.00641709
0.0101641
0.012869
0.0131833
0.00991155
0.00534843
0.0112047
0.0118948
0.00964718
0.00621128
0.00313782
0.00113912
0.000161247
0.000149778
6.15984e-05
0
0
1.31164e-06
5.1415e-06
8.87951e-06
1.00643e-05
1.00944e-05
9.99488e-06
1.00066e-05
1.00863e-05
1.01872e-05
1.02968e-05
1.0412e-05
1.05302e-05
1.06483e-05
1.07731e-05
1.08854e-05
1.10033e-05
1.10371e-05
1.11098e-05
1.09528e-05
1.12655e-05
1.07923e-05
1.18093e-05
1.01131e-05
1.33451e-05
8.8462e-06
1.70384e-05
1.31718e-05
2.39543e-05
2.32311e-05
3.3769e-05
)
;

boundaryField
{
    inlet
    {
        type            calculated;
        value           nonuniform List<scalar> 
27
(
7.72747e-05
7.73426e-05
7.74503e-05
7.75864e-05
7.77306e-05
7.78799e-05
7.80376e-05
7.82025e-05
7.83739e-05
7.85459e-05
7.87179e-05
7.88869e-05
7.90499e-05
7.92035e-05
7.93443e-05
7.94685e-05
7.95787e-05
7.94045e-05
7.94411e-05
7.94417e-05
7.93888e-05
7.92761e-05
7.90876e-05
7.88141e-05
7.84249e-05
7.80383e-05
7.72938e-05
)
;
    }
    outlet
    {
        type            calculated;
        value           nonuniform List<scalar> 
78
(
9.62951e-06
9.68487e-06
9.71132e-06
9.74738e-06
9.77446e-06
9.80189e-06
9.84727e-06
9.89981e-06
9.94535e-06
9.97549e-06
1.0005e-05
1.00497e-05
1.00928e-05
1.01377e-05
1.01776e-05
1.03054e-05
1.05068e-05
1.06362e-05
1.01611e-05
8.87844e-06
4.58824e-06
1.39938e-06
0
0
0
0
0
7.55633e-05
0.000357238
0.000653684
0.00293261
0.00640568
0.0101577
0.0128729
0.0132046
0.00996312
0.00517124
0.0111459
0.0118628
0.00963374
0.00620983
0.00314253
0.00114638
0.000130931
0.000146286
6.00711e-05
0
0
1.2266e-06
4.85153e-06
8.41693e-06
9.54857e-06
9.56995e-06
9.45983e-06
9.44696e-06
9.49005e-06
9.54603e-06
9.60469e-06
9.66419e-06
9.72432e-06
9.78271e-06
9.85126e-06
9.90573e-06
9.97938e-06
9.94924e-06
1.00049e-05
9.74088e-06
1.01706e-05
9.42808e-06
1.08894e-05
8.27963e-06
1.27766e-05
4.57566e-06
1.67161e-05
1.24648e-05
2.35482e-05
2.32591e-05
3.28542e-05
)
;
    }
    walls
    {
        type            calculated;
        value           nonuniform List<scalar> 0();
    }
    frontAndBack
    {
        type            empty;
    }
    procBoundary7to3
    {
        type            processor;
        value           nonuniform List<scalar> 
16
(
3.42759e-05
3.45091e-05
3.00469e-05
2.77291e-05
2.60748e-05
2.41026e-05
2.18181e-05
1.96991e-05
1.68072e-05
1.68072e-05
1.50852e-05
1.34625e-05
1.23606e-05
1.11234e-05
1.16577e-05
1.06037e-05
)
;
    }
    procBoundary7to6
    {
        type            processor;
        value           nonuniform List<scalar> 
91
(
3.01652e-05
2.69083e-05
2.69083e-05
2.62655e-05
2.62655e-05
1.6875e-05
1.6875e-05
1.60884e-05
2.17073e-05
2.17073e-05
1.92684e-05
2.07817e-05
2.07817e-05
2.28904e-05
2.14744e-05
2.14091e-05
2.14091e-05
2.47231e-05
2.39226e-05
2.29542e-05
2.29542e-05
2.80575e-05
2.70462e-05
2.60471e-05
2.50629e-05
2.50629e-05
3.19366e-05
3.09437e-05
2.99602e-05
2.8989e-05
2.80314e-05
2.80314e-05
3.66132e-05
3.57653e-05
3.49023e-05
3.40264e-05
3.31416e-05
3.22512e-05
3.13582e-05
3.13582e-05
4.11371e-05
4.07381e-05
4.03115e-05
3.9855e-05
3.93672e-05
3.88477e-05
3.82963e-05
3.77133e-05
3.71e-05
3.64585e-05
3.57898e-05
3.50962e-05
3.50962e-05
4.60022e-08
0
0
0.000579724
0.000546659
0.00511703
0.0135194
0.0235587
0.0329693
0.0403024
0.0446058
0.044961
0.0402235
0.0283552
0.0167371
0.0352281
0.0427833
0.0428743
0.0365794
0.0257065
0.0136219
0.00454139
0.000555898
0.00020003
0
0
0
7.05037e-06
2.66335e-05
4.22312e-05
4.27351e-05
4.01761e-05
3.92086e-05
3.90708e-05
3.88636e-05
3.85473e-05
3.82317e-05
3.82317e-05
)
;
    }
}


// ************************************************************************* //
