/*--------------------------------*- C++ -*----------------------------------*\
| =========                 |                                                 |
| \\      /  F ield         | OpenFOAM: The Open Source CFD Toolbox           |
|  \\    /   O peration     | Version:  2506                                  |
|   \\  /    A nd           | Website:  www.openfoam.com                      |
|    \\/     M anipulation  |                                                 |
\*---------------------------------------------------------------------------*/
FoamFile
{
    version     2.0;
    format      ascii;
    arch        "LSB;label=32;scalar=64";
    class       volScalarField;
    location    "400";
    object      turbulenceProperties:epsilon;
}
// * * * * * * * * * * * * * * * * * * * * * * * * * * * * * * * * * * * * * //

dimensions      [0 2 -3 0 0 0 0];

internalField   nonuniform List<scalar> 
1340
(
6.71403e-10
3.87681e-10
6.91133e-10
3.64611e-10
3.63911e-10
6.90698e-10
6.34836e-11
3.5531e-10
3.48584e-10
6.96385e-10
5.06881e-11
1.70843e-10
6.23012e-11
3.47963e-10
3.35784e-10
7.05817e-10
1.02681e-10
1.41701e-10
4.76858e-11
1.64609e-10
6.10895e-11
3.41391e-10
3.25602e-10
7.15457e-10
2.04282e-10
1.57404e-10
1.57396e-10
9.46166e-11
1.33909e-10
4.46336e-11
1.58633e-10
5.99234e-11
3.35797e-10
3.18382e-10
7.24539e-10
2.72682e-10
2.40093e-10
2.03465e-10
1.86853e-10
1.43612e-10
1.45902e-10
8.67665e-11
1.2626e-10
4.15887e-11
1.53037e-10
5.87954e-11
3.31287e-10
3.13865e-10
7.32878e-10
4.39185e-10
3.81384e-10
3.29806e-10
2.84312e-10
2.43122e-10
2.15636e-10
1.83132e-10
1.69976e-10
1.30333e-10
1.3468e-10
7.9193e-11
1.18798e-10
3.85817e-11
1.47758e-10
5.77108e-11
3.27596e-10
3.11388e-10
7.41706e-10
7.0307e-10
6.24328e-10
5.5266e-10
4.87779e-10
4.29299e-10
3.76787e-10
3.29863e-10
2.87501e-10
2.49956e-10
2.1515e-10
1.92328e-10
1.63719e-10
1.53684e-10
1.17585e-10
1.23746e-10
7.19031e-11
1.11499e-10
3.5628e-11
1.42682e-10
5.6689e-11
3.24444e-10
3.105e-10
7.49575e-10
1.12916e-09
1.03705e-09
9.48559e-10
8.64108e-10
7.84158e-10
7.08979e-10
6.38767e-10
5.73597e-10
5.13455e-10
4.58216e-10
4.07718e-10
3.6178e-10
3.20123e-10
2.82632e-10
2.48372e-10
2.17894e-10
1.88882e-10
1.70281e-10
1.45322e-10
1.38068e-10
1.05427e-10
1.13152e-10
6.49347e-11
1.04375e-10
3.27522e-11
1.37759e-10
5.57229e-11
3.21708e-10
3.1166e-10
7.57389e-10
1.62941e-09
1.57693e-09
1.52174e-09
1.46383e-09
1.40325e-09
1.3402e-09
1.27502e-09
1.20816e-09
1.14012e-09
1.07149e-09
1.0028e-09
9.34602e-10
8.6748e-10
8.01927e-10
7.38444e-10
6.77369e-10
6.19083e-10
5.63841e-10
5.11836e-10
4.63184e-10
4.17916e-10
3.75989e-10
3.37315e-10
3.01819e-10
2.69316e-10
2.39872e-10
2.12617e-10
1.88321e-10
1.64497e-10
1.49656e-10
1.28076e-10
1.23247e-10
9.39473e-11
1.02971e-10
5.83313e-11
9.74527e-11
2.9986e-11
1.32999e-10
5.47893e-11
3.19326e-10
3.13914e-10
7.65133e-10
2.87841e-13
5.33859e-16
0
0
4.37715e-07
6.34591e-07
0.000134538
0.00629043
0.0460572
0.144258
0.270958
0.353836
0.334226
0.214205
0.0684036
0.000758626
0.0619566
0.196271
0.276663
0.225196
0.101229
0.0203724
0.001187
2.00252e-06
9.29845e-08
0
0
0
2.71228e-13
9.73482e-11
1.51353e-09
1.86816e-09
1.44483e-09
1.27141e-09
1.25822e-09
1.24571e-09
1.21231e-09
1.17625e-09
1.14165e-09
1.10586e-09
1.06793e-09
1.02802e-09
9.86223e-10
9.42612e-10
8.97435e-10
8.51033e-10
8.03843e-10
7.5627e-10
7.08686e-10
6.615e-10
6.15114e-10
5.69895e-10
5.26103e-10
4.8404e-10
4.43916e-10
4.05894e-10
3.70086e-10
3.36546e-10
3.05248e-10
2.76138e-10
2.49206e-10
2.24302e-10
2.01616e-10
1.80326e-10
1.61351e-10
1.42105e-10
1.30558e-10
1.12077e-10
1.09318e-10
8.32036e-11
9.32571e-11
5.2137e-11
9.07376e-11
2.73509e-11
1.28302e-10
5.39185e-11
3.17146e-10
3.17441e-10
7.72836e-10
5.15154e-10
7.55978e-13
1.5823e-15
0
0
1.57871e-12
5.4838e-06
4.40592e-06
0.00152333
0.0190737
0.0802198
0.181528
0.270463
0.286087
0.209262
0.0862681
0.00535051
0.0286083
0.132531
0.216649
0.196464
0.0989737
0.0232026
0.00165225
6.32893e-06
1.57197e-07
0
0
0
2.68549e-14
7.57261e-12
8.59452e-10
1.41238e-09
1.08822e-09
8.98694e-10
8.73014e-10
8.69012e-10
8.48755e-10
8.24336e-10
8.01326e-10
7.7741e-10
7.51263e-10
7.23332e-10
6.94048e-10
6.63541e-10
6.31934e-10
5.99527e-10
5.66625e-10
5.33504e-10
5.00465e-10
4.67816e-10
4.35822e-10
4.04688e-10
3.74642e-10
3.45842e-10
3.18423e-10
2.92472e-10
2.68036e-10
2.45102e-10
2.23615e-10
2.03593e-10
1.84898e-10
1.67799e-10
1.51504e-10
1.37038e-10
1.21768e-10
1.13063e-10
9.73857e-11
9.63555e-11
7.32532e-11
8.40732e-11
4.63722e-11
8.42552e-11
2.48504e-11
1.23722e-10
5.30265e-11
3.15052e-10
3.21064e-10
7.81061e-10
5.27184e-10
3.94507e-10
2.77138e-12
4.90648e-15
0
0
0
1.71361e-06
1.25108e-06
0.000222425
0.00642962
0.0397562
0.113581
0.198086
0.237259
0.197224
0.099733
0.0151722
0.00988759
0.0851879
0.16618
0.168846
0.0950075
0.0256116
0.0022614
1.91579e-05
1.94618e-07
0
0
0
4.91366e-17
1.95754e-15
3.08718e-10
9.23888e-10
7.99094e-10
6.40176e-10
6.10882e-10
6.12617e-10
5.99903e-10
5.80045e-10
5.62139e-10
5.45478e-10
5.27637e-10
5.08128e-10
4.87418e-10
4.6585e-10
4.43619e-10
4.20921e-10
3.97941e-10
3.74921e-10
3.52081e-10
3.29628e-10
3.0772e-10
2.86519e-10
2.66142e-10
2.46694e-10
2.28234e-10
2.10803e-10
1.94366e-10
1.7889e-10
1.64381e-10
1.50692e-10
1.38157e-10
1.26e-10
1.15283e-10
1.03446e-10
9.71495e-11
8.40028e-11
8.43675e-11
6.41051e-11
7.54121e-11
4.10512e-11
7.80276e-11
2.25013e-11
1.1904e-10
5.20895e-11
3.13532e-10
3.24868e-10
7.89797e-10
3.1883e-10
3.89165e-10
3.25599e-10
1.65587e-11
2.60309e-14
0
0
0
2.43625e-08
1.0816e-07
1.15284e-05
0.00164492
0.0170817
0.0654857
0.138303
0.190624
0.18008
0.107991
0.0268041
0.00175388
0.0520456
0.125587
0.143646
0.0896878
0.027271
0.00287837
3.90889e-05
2.49288e-07
0
0
0
6.10223e-22
4.05162e-13
1.40473e-10
5.93926e-10
5.85996e-10
4.47637e-10
4.08771e-10
4.18457e-10
4.21946e-10
4.11435e-10
3.9703e-10
3.8363e-10
3.70585e-10
3.5677e-10
3.41999e-10
3.26584e-10
3.10802e-10
2.94788e-10
2.78716e-10
2.6274e-10
2.4703e-10
2.31695e-10
2.16853e-10
2.02606e-10
1.89009e-10
1.76114e-10
1.63927e-10
1.52433e-10
1.41576e-10
1.31348e-10
1.21611e-10
1.12698e-10
1.03891e-10
9.62215e-11
8.725e-11
8.29638e-11
7.20305e-11
7.35051e-11
5.58042e-11
6.74314e-11
3.61499e-11
7.21625e-11
2.01536e-11
1.14752e-10
5.08041e-11
3.11973e-10
3.29316e-10
8.01914e-10
2.43986e-10
2.41012e-10
3.01228e-10
2.52473e-10
5.47221e-11
8.7136e-14
4.77979e-22
0
0
5.96925e-16
2.16007e-06
7.35285e-07
0.000252412
0.00566476
0.0320377
0.0871067
0.144185
0.159077
0.114039
0.0411761
0.00075378
0.0269517
0.090371
0.120695
0.0854896
0.0300483
0.00393881
8.13082e-05
1.42915e-07
4.15349e-08
0
0
0
1.27346e-13
3.49054e-11
3.40998e-10
4.86711e-10
3.85565e-10
3.00611e-10
2.7947e-10
2.81934e-10
2.81341e-10
2.73923e-10
2.6408e-10
2.543e-10
2.4451e-10
2.34325e-10
2.23714e-10
2.12876e-10
2.02011e-10
1.9118e-10
1.80537e-10
1.70166e-10
1.6014e-10
1.50549e-10
1.41416e-10
1.32792e-10
1.24644e-10
1.1699e-10
1.09753e-10
1.0291e-10
9.63499e-11
9.03527e-11
8.42784e-11
7.91375e-11
7.26005e-11
6.99864e-11
6.10974e-11
6.33745e-11
4.81985e-11
5.97442e-11
3.17634e-11
6.61896e-11
1.82306e-11
1.09832e-10
4.98779e-11
3.0941e-10
3.33383e-10
8.09583e-10
1.89272e-10
1.78051e-10
1.85459e-10
1.97027e-10
1.81717e-10
1.09581e-10
2.23022e-12
3.8544e-15
8.09875e-25
0
0
1.74831e-07
4.73188e-07
5.64054e-06
0.000665394
0.00725451
0.0308875
0.0723646
0.107537
0.105255
0.0621274
0.0132685
0.00251454
0.0375441
0.0772631
0.0756471
0.0391443
0.00955485
0.000844113
6.91333e-06
2.30193e-07
3.38537e-09
0
0
6.51684e-18
4.40058e-14
7.34258e-12
1.36178e-10
2.54107e-10
2.34445e-10
1.90931e-10
1.7414e-10
1.7269e-10
1.71679e-10
1.67156e-10
1.60968e-10
1.54676e-10
1.4838e-10
1.41944e-10
1.35409e-10
1.28836e-10
1.22384e-10
1.16117e-10
1.10094e-10
1.04344e-10
9.89102e-11
9.38298e-11
8.90683e-11
8.46405e-11
8.04647e-11
7.65325e-11
7.27213e-11
6.92778e-11
6.56421e-11
6.27141e-11
5.8502e-11
5.72851e-11
5.05614e-11
5.3241e-11
4.1015e-11
5.16429e-11
2.79849e-11
5.88527e-11
1.68379e-11
9.98124e-11
4.52993e-11
2.82237e-10
3.00895e-10
6.98573e-10
1.35455e-10
1.30501e-10
1.31846e-10
1.28985e-10
1.26937e-10
1.39432e-10
1.12169e-10
4.59507e-11
5.96716e-15
1.58539e-17
0
0
2.01528e-13
5.81393e-08
1.86133e-06
3.24396e-06
0.000420116
0.00475861
0.020983
0.0505059
0.0757505
0.0726291
0.0396963
0.00609981
0.00403067
0.0324712
0.0555867
0.04632
0.0202311
0.00412564
0.000286096
9.06916e-07
1.14074e-07
3.19885e-11
0
0
6.63701e-19
2.4903e-14
5.82698e-12
8.47123e-11
1.43402e-10
1.27597e-10
1.0499e-10
9.80215e-11
9.77568e-11
9.65182e-11
9.3385e-11
8.97115e-11
8.61335e-11
8.25902e-11
7.90339e-11
7.55561e-11
7.21985e-11
6.90411e-11
6.60957e-11
6.33927e-11
6.09554e-11
5.87543e-11
5.68075e-11
5.50216e-11
5.34002e-11
5.1811e-11
5.04515e-11
4.88587e-11
4.77693e-11
4.55464e-11
4.5545e-11
4.07628e-11
4.38182e-11
3.41643e-11
4.42322e-11
2.4129e-11
5.28648e-11
1.54027e-11
9.46323e-11
4.55472e-11
2.79877e-10
3.14967e-10
7.10304e-10
9.34851e-11
9.09587e-11
9.34644e-11
9.16362e-11
8.72375e-11
8.59494e-11
9.0808e-11
9.64284e-11
6.3358e-11
7.21716e-12
1.11559e-14
5.33003e-23
0
0
0
5.84735e-08
1.87055e-06
1.72348e-06
0.000311974
0.00368612
0.0164078
0.0391559
0.0569375
0.0509709
0.0237351
0.00165174
0.00678893
0.0295572
0.0398514
0.027073
0.00947797
0.00144674
5.56332e-05
1.13185e-08
4.98054e-08
0
0
0
6.88239e-19
4.39265e-14
1.21308e-11
6.15558e-11
7.53967e-11
6.21592e-11
5.38155e-11
5.2389e-11
5.21543e-11
5.08104e-11
4.88488e-11
4.68833e-11
4.50529e-11
4.33202e-11
4.16913e-11
4.02452e-11
3.8991e-11
3.7953e-11
3.7144e-11
3.65491e-11
3.61643e-11
3.59209e-11
3.58136e-11
3.57138e-11
3.57646e-11
3.55859e-11
3.57751e-11
3.49749e-11
3.58453e-11
3.2591e-11
3.5883e-11
2.82939e-11
3.78871e-11
2.06607e-11
4.7809e-11
1.3807e-11
9.06889e-11
4.49519e-11
2.80835e-10
3.25498e-10
7.20624e-10
6.1338e-11
6.36959e-11
6.31466e-11
6.09332e-11
5.86273e-11
5.73948e-11
5.85329e-11
6.52386e-11
5.99422e-11
3.08047e-11
2.7505e-13
5.96031e-16
0
0
0
0
4.9644e-08
1.71316e-06
1.78733e-06
0.000293235
0.0033036
0.0141098
0.0320433
0.0433439
0.0343534
0.0121108
5.48451e-05
0.00977116
0.0258473
0.0269912
0.0144451
0.00375871
0.000376873
4.79614e-06
8.74464e-08
1.825e-09
0
0
0
2.26967e-15
4.33671e-13
1.8564e-11
3.71422e-11
3.46306e-11
2.83847e-11
2.6314e-11
2.60625e-11
2.5569e-11
2.46606e-11
2.37438e-11
2.29595e-11
2.23065e-11
2.18226e-11
2.15124e-11
2.13979e-11
2.14897e-11
2.17791e-11
2.22572e-11
2.28688e-11
2.3612e-11
2.43679e-11
2.52389e-11
2.5906e-11
2.68521e-11
2.6955e-11
2.83326e-11
2.62098e-11
2.95478e-11
2.35985e-11
3.26395e-11
1.78309e-11
4.35241e-11
1.24538e-11
8.75428e-11
4.41215e-11
2.83234e-10
3.31214e-10
7.30115e-10
4.00869e-11
4.20396e-11
4.18636e-11
4.08206e-11
3.98877e-11
3.87956e-11
3.78336e-11
3.7935e-11
4.01803e-11
4.43983e-11
3.47909e-11
6.56488e-12
1.15022e-14
5.89562e-23
0
0
0
0
5.39675e-08
1.50546e-06
3.2992e-06
0.000335642
0.00333853
0.0130392
0.0270488
0.0325734
0.0213743
0.00458191
0.000903294
0.0121071
0.0211441
0.0166733
0.00660347
0.00114399
5.45964e-05
4.98959e-08
7.6133e-08
0
0
0
7.32786e-20
1.21686e-14
2.67437e-12
1.30799e-11
1.54471e-11
1.28704e-11
1.13517e-11
1.1102e-11
1.10082e-11
1.07696e-11
1.05388e-11
1.04289e-11
1.04753e-11
1.06782e-11
1.10531e-11
1.16148e-11
1.23542e-11
1.32684e-11
1.43124e-11
1.54829e-11
1.66854e-11
1.79869e-11
1.91199e-11
2.04657e-11
2.11025e-11
2.27187e-11
2.14174e-11
2.46662e-11
2.00114e-11
2.84421e-11
1.56874e-11
3.99838e-11
1.14961e-11
8.50064e-11
4.32827e-11
2.86843e-10
3.32039e-10
7.41195e-10
2.54353e-11
2.68097e-11
2.68e-11
2.62575e-11
2.58058e-11
2.52781e-11
2.49188e-11
2.42795e-11
2.38602e-11
2.43649e-11
2.74905e-11
2.7244e-11
1.58725e-11
2.01218e-13
5.42964e-16
5.69173e-27
0
0
0
0
1.3699e-07
7.58318e-08
8.0706e-06
0.000447796
0.00371205
0.012673
0.0229911
0.0233816
0.0114854
0.000765661
0.00328723
0.0130437
0.0155426
0.0088439
0.00235755
0.000230274
2.31706e-06
8.58322e-08
0
0
0
0
1.60462e-15
2.75526e-13
3.2201e-12
5.18275e-12
4.5587e-12
3.74995e-12
3.51572e-12
3.53466e-12
3.61272e-12
3.76361e-12
4.04842e-12
4.48971e-12
5.08942e-12
5.85025e-12
6.77076e-12
7.84683e-12
9.05112e-12
1.03734e-11
1.17463e-11
1.32117e-11
1.45452e-11
1.60387e-11
1.69376e-11
1.8585e-11
1.78348e-11
2.08987e-11
1.72431e-11
2.50337e-11
1.39915e-11
3.69541e-11
1.07214e-11
8.2857e-11
4.22251e-11
2.90758e-10
3.26244e-10
7.55346e-10
1.80695e-11
1.89254e-11
1.90703e-11
1.87244e-11
1.83846e-11
1.81308e-11
1.79918e-11
1.76861e-11
1.7349e-11
1.69131e-11
1.70254e-11
1.79012e-11
2.04504e-11
1.56662e-11
5.59871e-12
1.17376e-17
1.80584e-19
0
0
0
0
9.2078e-15
3.97665e-07
2.00185e-07
2.25675e-05
0.000677065
0.00441642
0.0125944
0.0190462
0.0152508
0.00459276
0.00010752
0.00597937
0.0119595
0.00966118
0.00368505
0.000570658
2.04278e-05
2.1612e-10
4.45856e-09
0
0
0
2.59634e-17
6.3939e-16
9.07021e-14
2.12293e-13
3.18988e-13
3.39646e-13
3.78637e-13
5.32342e-13
8.08957e-13
1.19874e-12
1.71535e-12
2.37749e-12
3.19054e-12
4.14811e-12
5.24547e-12
6.4605e-12
7.78868e-12
9.17748e-12
1.06619e-11
1.20476e-11
1.3548e-11
1.45503e-11
1.61243e-11
1.57305e-11
1.85748e-11
1.56847e-11
2.28661e-11
1.32111e-11
3.49917e-11
1.05862e-11
8.1701e-11
4.09713e-11
2.95669e-10
3.08503e-10
7.85372e-10
1.20632e-11
1.27988e-11
1.28724e-11
1.26095e-11
1.23733e-11
1.23196e-11
1.23557e-11
1.2054e-11
1.19868e-11
1.18894e-11
1.16189e-11
1.1469e-11
1.19531e-11
1.29976e-11
1.37619e-11
8.21274e-12
9.62596e-13
3.54092e-15
2.94433e-22
0
0
0
0
5.45052e-11
4.71872e-07
2.62292e-08
6.13816e-05
0.00108932
0.0053881
0.0122793
0.0145816
0.00813163
0.000764325
0.0017335
0.00771217
0.00892442
0.00458627
0.000997124
6.32778e-05
1.02532e-07
8.34085e-08
0
0
0
4.09534e-21
9.37044e-16
4.89245e-14
1.05871e-12
7.06557e-13
3.69152e-13
4.35126e-13
7.19819e-13
1.15097e-12
1.68002e-12
2.30215e-12
3.0384e-12
3.89059e-12
4.85488e-12
5.90717e-12
7.04743e-12
8.2383e-12
9.51199e-12
1.07126e-11
1.19879e-11
1.28311e-11
1.40992e-11
1.3768e-11
1.62245e-11
1.38022e-11
2.02606e-11
1.16544e-11
3.21037e-11
9.31621e-12
7.86988e-11
3.7856e-11
2.94835e-10
2.77171e-10
8.36059e-10
1.41014e-11
1.45056e-11
1.44727e-11
1.41654e-11
1.38765e-11
1.36822e-11
1.35684e-11
1.32704e-11
1.3075e-11
1.28496e-11
1.2503e-11
1.22021e-11
1.19782e-11
1.19131e-11
1.22318e-11
1.32967e-11
1.13506e-11
5.78894e-12
3.31244e-13
1.79296e-15
4.23703e-22
0
0
0
0
5.68109e-10
7.08151e-07
1.02733e-06
0.000171503
0.00182423
0.00680407
0.0122221
0.0109982
0.00365935
9.63606e-05
0.00427651
0.00818833
0.00591234
0.00182125
0.000166593
6.46215e-07
1.3605e-07
9.09046e-08
1.11113e-08
2.60438e-11
0
7.23347e-20
2.05812e-15
1.40434e-12
5.7723e-12
4.97976e-12
3.81082e-12
3.63904e-12
4.02636e-12
4.61429e-12
5.29693e-12
6.07754e-12
6.96537e-12
7.94346e-12
9.00216e-12
1.01176e-11
1.13143e-11
1.24631e-11
1.36569e-11
1.44483e-11
1.55859e-11
1.535e-11
1.76123e-11
1.55112e-11
2.15963e-11
1.3471e-11
3.35857e-11
1.05742e-11
8.17264e-11
3.40676e-11
3.05955e-10
2.28275e-10
1.02476e-09
1.03747e-11
1.05132e-11
1.05662e-11
1.06478e-11
1.07017e-11
1.07569e-11
1.08655e-11
1.09973e-11
1.11087e-11
1.11721e-11
1.12334e-11
1.13452e-11
1.14445e-11
1.15508e-11
1.16434e-11
1.21532e-11
1.30659e-11
1.3725e-11
1.15096e-11
6.54481e-12
3.31397e-13
1.32463e-15
0
0
0
0
0
2.10712e-08
4.48354e-07
1.64074e-06
0.000128534
0.00113568
0.00377982
0.00621212
0.0050704
0.00136721
0.000111381
0.00235257
0.00378935
0.00245458
0.000750611
0.000103033
4.4885e-06
5.64118e-09
2.21094e-08
2.78348e-09
0
0
1.06735e-15
4.75204e-13
4.89731e-12
8.07796e-12
8.1638e-12
7.84799e-12
7.88128e-12
8.12835e-12
8.45099e-12
8.81246e-12
9.2046e-12
9.62005e-12
1.00486e-11
1.05165e-11
1.095e-11
1.14191e-11
1.15472e-11
1.18429e-11
1.11785e-11
1.25e-11
1.05206e-11
1.50683e-11
8.10066e-12
2.45304e-11
4.74034e-12
6.50546e-11
2.33448e-11
2.53258e-10
2.27303e-10
9.98821e-10
)
;

boundaryField
{
    inlet
    {
        type            calculated;
        value           nonuniform List<scalar> 
27
(
2.8353e-08
2.84279e-08
2.85659e-08
2.87495e-08
2.89455e-08
2.91491e-08
2.93663e-08
2.95956e-08
2.98359e-08
3.00785e-08
3.03225e-08
3.0563e-08
3.07953e-08
3.10137e-08
3.12119e-08
3.13838e-08
3.1531e-08
3.12311e-08
3.12703e-08
3.12538e-08
3.11507e-08
3.09514e-08
3.06304e-08
3.0176e-08
2.95288e-08
2.88915e-08
2.76228e-08
)
;
    }
    outlet
    {
        type            calculated;
        value           nonuniform List<scalar> 
78
(
6.84551e-12
7.00404e-12
7.08063e-12
7.18612e-12
7.26604e-12
7.34761e-12
7.4843e-12
7.64496e-12
7.78619e-12
7.88058e-12
7.97379e-12
8.11687e-12
8.25677e-12
8.40469e-12
8.53745e-12
8.96724e-12
9.66835e-12
1.01255e-11
8.47327e-12
4.91697e-12
2.67318e-13
1.16823e-15
0
0
0
0
0
2.12677e-08
4.46266e-07
1.45999e-06
0.000126243
0.00112762
0.00377072
0.00622111
0.00510506
0.00139655
9.7387e-05
0.0023046
0.00375004
0.00244137
0.000749956
0.000103651
4.6038e-06
2.4522e-09
2.01177e-08
2.51742e-09
0
0
8.16292e-16
3.76724e-13
3.95371e-12
6.54502e-12
6.59469e-12
6.29755e-12
6.26042e-12
6.37014e-12
6.51588e-12
6.67134e-12
6.83162e-12
6.99623e-12
7.15838e-12
7.35326e-12
7.50899e-12
7.72611e-12
7.62463e-12
7.78918e-12
6.99325e-12
8.30429e-12
6.12751e-12
1.08941e-11
3.63947e-12
2.06113e-11
3.39321e-13
6.02723e-11
1.87223e-11
2.36525e-10
2.28405e-10
8.94945e-10
)
;
    }
    walls
    {
        type            calculated;
        value           nonuniform List<scalar> 0();
    }
    frontAndBack
    {
        type            empty;
    }
    procBoundary7to3
    {
        type            processor;
        value           nonuniform List<scalar> 
16
(
1.05213e-09
1.07629e-09
6.26045e-10
4.56131e-10
3.57642e-10
2.6202e-10
1.76594e-10
1.17727e-10
6.25653e-11
6.25653e-11
4.0708e-11
2.58869e-11
1.84384e-11
1.21254e-11
1.46534e-11
1.00659e-11
)
;
    }
    procBoundary7to6
    {
        type            processor;
        value           nonuniform List<scalar> 
91
(
6.68162e-10
4.13767e-10
4.13767e-10
3.79218e-10
3.79218e-10
6.45068e-11
6.45068e-11
5.35805e-11
1.77202e-10
1.77202e-10
1.10774e-10
1.49487e-10
1.49487e-10
2.2211e-10
1.71597e-10
1.69074e-10
1.69074e-10
3.03799e-10
2.65669e-10
2.24692e-10
2.24692e-10
5.07263e-10
4.37084e-10
3.7515e-10
3.20824e-10
3.20824e-10
8.52989e-10
7.51356e-10
6.59763e-10
5.7766e-10
5.04361e-10
5.04361e-10
1.45928e-09
1.33062e-09
1.20821e-09
1.09249e-09
9.83922e-10
8.82784e-10
7.89169e-10
7.89169e-10
2.25945e-09
2.17771e-09
2.09244e-09
2.00363e-09
1.91148e-09
1.81648e-09
1.71917e-09
1.62022e-09
1.52042e-09
1.42069e-09
1.3217e-09
1.22424e-09
1.22424e-09
1.65247e-22
0
0
4.22513e-06
8.56581e-07
0.00106905
0.0193088
0.0953178
0.237374
0.38406
0.448385
0.380991
0.211955
0.0480589
0.00567905
0.115326
0.280643
0.348023
0.255211
0.101954
0.0172949
0.000743374
1.54586e-06
1.04608e-07
0
0
0
9.49065e-13
3.63471e-10
2.46481e-09
2.58017e-09
2.03098e-09
1.84709e-09
1.82359e-09
1.78784e-09
1.73337e-09
1.68028e-09
1.68028e-09
)
;
    }
}


// ************************************************************************* //
