/*--------------------------------*- C++ -*----------------------------------*\
| =========                 |                                                 |
| \\      /  F ield         | OpenFOAM: The Open Source CFD Toolbox           |
|  \\    /   O peration     | Version:  2506                                  |
|   \\  /    A nd           | Website:  www.openfoam.com                      |
|    \\/     M anipulation  |                                                 |
\*---------------------------------------------------------------------------*/
FoamFile
{
    version     2.0;
    format      ascii;
    arch        "LSB;label=32;scalar=64";
    class       volScalarField;
    location    "400";
    object      turbulenceProperties:L;
}
// * * * * * * * * * * * * * * * * * * * * * * * * * * * * * * * * * * * * * //

dimensions      [0 1 0 0 0 0 0];

internalField   nonuniform List<scalar> 
1340
(
0.22283
0.255624
0.221223
0.259564
0.2597
0.221258
0.401817
0.261246
0.262509
0.220805
0.425066
0.31372
0.40371
0.262614
0.264976
0.220064
0.356303
0.328735
0.431604
0.316649
0.405697
0.263869
0.267024
0.219319
0.300019
0.32022
0.320221
0.363664
0.333417
0.4388
0.31959
0.407656
0.264961
0.268526
0.218629
0.279127
0.28815
0.300323
0.306784
0.327646
0.32635
0.371625
0.338355
0.446619
0.322472
0.409597
0.265858
0.269487
0.218005
0.247781
0.256677
0.26617
0.276231
0.28725
0.295995
0.308333
0.314131
0.335691
0.332946
0.380207
0.343548
0.455077
0.325314
0.411508
0.266603
0.270022
0.217354
0.220286
0.226925
0.233948
0.241367
0.249196
0.257458
0.266161
0.275464
0.285269
0.296164
0.304582
0.317093
0.322144
0.344441
0.340068
0.389498
0.349037
0.464228
0.32817
0.413349
0.267248
0.270215
0.216781
0.195681
0.199889
0.204396
0.209217
0.214357
0.219826
0.225633
0.231785
0.238292
0.24517
0.252432
0.260088
0.268164
0.276645
0.285726
0.29523
0.305964
0.313995
0.326685
0.330891
0.353969
0.347763
0.399552
0.354846
0.474098
0.331063
0.415129
0.267815
0.269964
0.216221
0.178539
0.180006
0.181617
0.183387
0.185335
0.187477
0.189828
0.192401
0.19521
0.198263
0.201575
0.205155
0.209014
0.21316
0.217601
0.222348
0.227406
0.232782
0.238482
0.244511
0.250879
0.257598
0.264683
0.272142
0.280005
0.288227
0.297048
0.306195
0.316722
0.324296
0.337167
0.340419
0.36432
0.356058
0.410409
0.360987
0.484672
0.333986
0.416886
0.268312
0.269479
0.215672
2.49172
6.95209
0
0
0.0912328
0.186302
0.706394
0.680204
0.706115
0.741913
0.788156
0.852047
0.950158
1.12603
1.54702
4.83353
1.61153
1.18121
1.01187
0.919973
0.854825
0.79128
0.716262
0.417153
0.343338
0
0
0
2.8716
0.405603
0.181919
0.173678
0.184145
0.189877
0.190421
0.190943
0.192245
0.193696
0.195146
0.196706
0.198429
0.200327
0.202417
0.204719
0.207248
0.210017
0.213033
0.216307
0.21985
0.22367
0.227772
0.232162
0.236849
0.241835
0.247123
0.252718
0.25862
0.264836
0.271377
0.278262
0.285492
0.293105
0.301022
0.309537
0.318258
0.328524
0.335556
0.348605
0.350781
0.37555
0.364989
0.42209
0.367488
0.495945
0.337001
0.418559
0.268772
0.268728
0.215133
0.238288
1.76987
8.39861
0
0
1.89482
0.339997
1.00232
0.713816
0.728619
0.763256
0.808461
0.869445
0.959937
1.11421
1.44716
2.9547
1.95201
1.30738
1.08829
0.975817
0.901127
0.834306
0.7443
0.489336
0.473556
0
0
0
5.86347
0.909912
0.209209
0.186848
0.197979
0.207113
0.208623
0.208921
0.210162
0.211695
0.2132
0.214823
0.216669
0.21873
0.221001
0.223498
0.226242
0.229239
0.232497
0.236024
0.239827
0.243906
0.248264
0.252907
0.257832
0.263039
0.268527
0.274295
0.280343
0.286682
0.293333
0.300292
0.307609
0.315161
0.323312
0.331523
0.341457
0.347845
0.361068
0.362026
0.387701
0.374572
0.434637
0.374361
0.507974
0.340077
0.420308
0.269217
0.267967
0.214566
0.23834
0.254745
1.14118
7.59706
0
0
0
0.183714
0.526857
0.763353
0.74998
0.782323
0.826793
0.885483
0.969674
1.10688
1.38013
2.26572
2.54012
1.46364
1.17499
1.03696
0.950833
0.878934
0.786442
0.597581
0.703866
0
0
0
2.26803
9.13424
0.272858
0.207291
0.214119
0.225488
0.228103
0.228027
0.229235
0.231145
0.232954
0.234716
0.236679
0.238919
0.241417
0.244163
0.247166
0.250433
0.253973
0.257785
0.261867
0.266217
0.270833
0.27571
0.280842
0.28622
0.29184
0.297694
0.303796
0.310163
0.316791
0.323751
0.330855
0.33856
0.346165
0.355665
0.36129
0.374662
0.374253
0.400849
0.384893
0.448084
0.381617
0.52074
0.343373
0.422185
0.269543
0.267179
0.213971
0.268527
0.256855
0.267186
0.627325
4.90157
0
0
0
0.0918622
0.082756
0.964424
0.776022
0.799898
0.843149
0.900048
0.979215
1.10303
1.33415
1.95186
3.89886
1.65628
1.27036
1.10139
1.00186
0.923172
0.830909
0.684613
0.892539
0
0
0
0.00125899
2.2733
0.336846
0.231155
0.231738
0.246546
0.252058
0.250723
0.250314
0.251897
0.254124
0.256305
0.258534
0.261003
0.263777
0.266836
0.27016
0.273757
0.277621
0.281748
0.286124
0.290746
0.295597
0.300662
0.305929
0.311381
0.317013
0.322826
0.328844
0.335065
0.341578
0.348139
0.355291
0.362165
0.371133
0.375833
0.389344
0.387374
0.41499
0.395808
0.462555
0.389146
0.535282
0.346536
0.42483
0.269879
0.266273
0.213158
0.286947
0.287974
0.273427
0.284807
0.427439
3.29032
0.000889897
0
0
9.38084
0.241803
0.852557
0.824945
0.819287
0.859126
0.914193
0.988682
1.10013
1.29488
1.74274
4.81069
1.95781
1.39272
1.17549
1.05521
0.964904
0.865616
0.704089
1.3651
0.145792
0
0
0
3.29587
0.506743
0.264518
0.245113
0.257209
0.272374
0.277247
0.276752
0.276988
0.278851
0.281396
0.284055
0.286858
0.289927
0.293306
0.296969
0.300884
0.305058
0.309458
0.314069
0.318873
0.323834
0.32894
0.334155
0.339486
0.344907
0.350456
0.35614
0.362052
0.367914
0.374369
0.380303
0.388585
0.39216
0.405702
0.402005
0.430472
0.407969
0.477757
0.397643
0.548869
0.350353
0.426789
0.270436
0.265458
0.212653
0.305828
0.310491
0.30744
0.303305
0.309375
0.350178
1.12442
7.14335
1.21778e-05
0
0
0.122824
0.239349
1.0857
0.851557
0.871896
0.920931
0.988123
1.08259
1.23144
1.5128
2.30977
3.52629
1.75437
1.36573
1.18546
1.07255
0.976389
0.892442
0.699733
0.719344
0.156672
0
0
0.567171
4.41737
0.805951
0.331676
0.286464
0.291311
0.305271
0.312101
0.312826
0.313378
0.315494
0.318468
0.321651
0.325011
0.328635
0.332531
0.336693
0.341045
0.345556
0.350189
0.354916
0.359692
0.364465
0.36924
0.373976
0.378736
0.383508
0.388435
0.393173
0.398505
0.403073
0.410136
0.412294
0.425361
0.419902
0.448196
0.423105
0.493125
0.409495
0.55988
0.358833
0.437186
0.276722
0.27235
0.22064
0.332509
0.335619
0.334719
0.336599
0.338166
0.331215
0.348513
0.437941
6.5326
0.842997
0
0
3.25113
0.0941057
0.481488
1.11863
0.880756
0.907179
0.964565
1.04237
1.15222
1.3281
1.67202
2.77592
3.09169
1.77403
1.41452
1.23575
1.11927
1.02032
0.926432
0.630373
0.495542
0.553068
0
0
0.118583
4.99473
0.830392
0.373377
0.330668
0.338828
0.354378
0.360326
0.360687
0.361923
0.36492
0.368581
0.372346
0.376279
0.380443
0.384747
0.389144
0.393518
0.397831
0.402005
0.405964
0.409713
0.413178
0.416489
0.419614
0.422793
0.425611
0.429036
0.431457
0.436623
0.436623
0.448897
0.440855
0.469147
0.439811
0.511743
0.420629
0.572488
0.363645
0.436589
0.277303
0.269256
0.219725
0.3648
0.367311
0.36482
0.366609
0.371137
0.372686
0.368114
0.363241
0.40153
0.735327
5.40815
0.00018872
0
0
0
0.0889792
0.434551
1.17461
0.900455
0.93646
1.00475
1.09663
1.22822
1.44483
1.89465
3.82023
2.67082
1.75365
1.43865
1.26891
1.15054
1.04011
0.89316
0.805852
0.28255
0
0
0
0.115605
3.95783
0.631288
0.406095
0.387884
0.404581
0.418609
0.421461
0.422088
0.424896
0.429079
0.433494
0.437832
0.442148
0.446404
0.450361
0.453939
0.457011
0.459479
0.461336
0.462557
0.463338
0.463683
0.464005
0.463838
0.464417
0.463798
0.466424
0.463562
0.474719
0.463433
0.491788
0.45717
0.531984
0.431334
0.588353
0.367535
0.438027
0.277066
0.267052
0.218935
0.405325
0.401523
0.402393
0.40599
0.409899
0.412154
0.410393
0.400414
0.408407
0.481195
2.01185
5.72121
0
0
0
0
0.0881419
0.442046
1.16135
0.917338
0.967583
1.05035
1.16171
1.32453
1.60241
2.241
8.85356
2.37414
1.72013
1.44888
1.28804
1.16
1.04321
0.839726
0.915331
0.177566
0
0
0
7.35552
1.75854
0.54588
0.463742
0.46971
0.49147
0.500581
0.501951
0.504465
0.509042
0.513865
0.518194
0.521945
0.524814
0.526695
0.527398
0.526834
0.525074
0.522231
0.518703
0.514572
0.510533
0.506069
0.502777
0.498285
0.497804
0.491636
0.501296
0.486493
0.514611
0.47453
0.551937
0.441579
0.603718
0.370794
0.440073
0.276478
0.265892
0.218221
0.450796
0.445469
0.445937
0.448761
0.451353
0.454483
0.457322
0.457198
0.451192
0.44107
0.466957
0.731426
5.13431
0.000194616
0
0
0
0
0.0887469
0.496983
1.09328
0.939629
1.00784
1.10861
1.2451
1.45062
1.82286
2.85271
4.32345
2.16392
1.68122
1.44528
1.28817
1.1491
0.997649
1.10451
0.396677
0
0
0
0.0237032
5.1478
0.919229
0.599065
0.576257
0.599503
0.617655
0.6212
0.6227
0.626146
0.629524
0.631176
0.630481
0.627466
0.622077
0.614417
0.605012
0.594312
0.583167
0.571819
0.561226
0.550787
0.542438
0.53329
0.529215
0.519538
0.52725
0.508958
0.536265
0.491144
0.569893
0.451045
0.615915
0.373529
0.44219
0.275603
0.265727
0.217402
0.505086
0.498486
0.498531
0.501087
0.503266
0.50587
0.507668
0.510948
0.513223
0.510819
0.496742
0.497694
0.567618
2.12519
5.38167
4.14769e-07
0
0
0
0
0.105168
0.161397
1.01282
0.967121
1.05991
1.1835
1.35318
1.62012
2.15575
4.43645
3.04828
2.00515
1.63641
1.4274
1.26879
1.12736
0.885409
0.80214
0
0
0
0
6.44191
1.76822
0.84577
0.75856
0.77834
0.814808
0.827953
0.827124
0.822661
0.814223
0.799496
0.779112
0.755099
0.729271
0.703124
0.677681
0.653928
0.632019
0.612686
0.594944
0.580813
0.566792
0.559114
0.546287
0.551936
0.530488
0.5566
0.50707
0.586426
0.460019
0.626748
0.375928
0.444932
0.274671
0.2669
0.216377
0.550151
0.543823
0.542788
0.545277
0.54778
0.549687
0.550747
0.5531
0.555746
0.559255
0.5585
0.552065
0.535523
0.569701
0.747098
0.628001
0.0412886
0
0
0
0
8.80762
0.185787
0.515125
0.973978
1.01082
1.12898
1.2811
1.49674
1.86066
2.73807
7.14648
2.51377
1.88043
1.5881
1.39706
1.22938
1.05094
6.94354
0.167358
0
0
0
0.956981
4.12038
2.05394
1.67571
1.51065
1.48091
1.44119
1.3253
1.19484
1.08334
0.990657
0.913148
0.848504
0.794677
0.749425
0.711414
0.678942
0.651666
0.6277
0.608818
0.591214
0.580756
0.56603
0.569534
0.546354
0.569937
0.518682
0.594901
0.466339
0.628741
0.377251
0.448297
0.273523
0.270657
0.21428
0.608613
0.599676
0.598817
0.601914
0.604766
0.605424
0.604982
0.608733
0.609582
0.610806
0.614295
0.6163
0.610351
0.598731
0.591005
0.669285
1.25129
6.36487
0.000588806
0
0
0
0
0.543941
0.248393
1.22904
0.959964
1.07255
1.21945
1.40989
1.69542
2.24091
4.28336
3.45581
2.19012
1.76602
1.52698
1.34399
1.18833
1.19336
0.436457
0
0
0
0.00314453
5.11762
2.44328
1.13016
1.2539
1.45486
1.39248
1.22902
1.09408
0.995862
0.92057
0.858932
0.807502
0.764056
0.727512
0.696126
0.669489
0.645863
0.626957
0.609574
0.5993
0.585343
0.588825
0.565147
0.588447
0.534609
0.613839
0.476491
0.649147
0.380799
0.457247
0.273716
0.278001
0.210956
0.585324
0.581205
0.581535
0.584664
0.587682
0.589757
0.59099
0.59428
0.596489
0.599088
0.603186
0.606843
0.609618
0.610622
0.607224
0.596379
0.61861
0.733247
1.7862
6.88817
0.000779728
0
0
0
0
0.253858
0.448916
1.0886
1.01898
1.15846
1.33399
1.57195
1.95942
2.85919
7.26743
2.67708
1.974
1.6345
1.38751
1.08089
0.467671
0.644644
0.300941
0.225094
0.510251
0
0.0174429
5.54874
1.05681
0.738393
0.765283
0.81289
0.820948
0.800451
0.773792
0.747619
0.722374
0.698174
0.675622
0.654824
0.635984
0.618459
0.603687
0.59004
0.581784
0.570862
0.573037
0.553674
0.57153
0.526147
0.592016
0.471147
0.628922
0.377223
0.469459
0.271194
0.291822
0.200492
0.631986
0.629896
0.629105
0.627898
0.627105
0.6263
0.624731
0.622851
0.621285
0.620403
0.619556
0.618027
0.616662
0.61521
0.613961
0.607754
0.597783
0.591664
0.616075
0.711748
1.83385
6.95666
0
0
0
0
0
0.109642
0.552025
1.00619
1.07111
1.23381
1.4345
1.71247
2.1811
3.35732
6.43809
2.84254
2.17405
1.85339
1.66612
1.59458
1.76541
3.98878
0.814468
0.449339
0
0
5.83094
1.52404
0.762829
0.673092
0.671653
0.677828
0.676947
0.671744
0.665255
0.65833
0.651205
0.644058
0.637079
0.629871
0.623542
0.617036
0.615312
0.61143
0.620309
0.60322
0.629769
0.575681
0.672258
0.509645
0.768527
0.399364
0.515977
0.284317
0.292132
0.201783
)
;

boundaryField
{
    inlet
    {
        type            calculated;
        value           nonuniform List<scalar> 
27
(
0.0874119
0.0873543
0.0872487
0.0871091
0.0869615
0.0868093
0.0866485
0.0864804
0.0863059
0.0861316
0.085958
0.0857886
0.0856267
0.0854759
0.0853401
0.0852233
0.085124
0.085328
0.0853017
0.0853134
0.0853842
0.0855217
0.0857453
0.0860667
0.0865348
0.0870084
0.0879914
)
;
    }
    outlet
    {
        type            calculated;
        value           nonuniform List<scalar> 
78
(
0.701179
0.69718
0.695288
0.692724
0.690813
0.688889
0.685724
0.682095
0.678983
0.676943
0.674958
0.671967
0.669081
0.666088
0.663461
0.655728
0.644509
0.638393
0.665077
0.764459
1.93366
6.78773
0
0
0
0
0
0.109388
0.552669
1.03599
1.07594
1.23601
1.43536
1.71185
2.17739
3.33954
6.65786
2.85721
2.17973
1.85589
1.66648
1.5922
1.75425
4.9124
0.833918
0.460768
0
0
5.42776
1.61426
0.804719
0.70943
0.708446
0.716147
0.717033
0.713925
0.709915
0.705747
0.701571
0.697407
0.693424
0.688782
0.685181
0.680314
0.682559
0.67892
0.697447
0.668128
0.720843
0.624293
0.820996
0.532309
1.48174
0.40706
0.545234
0.289217
0.291779
0.207399
)
;
    }
    walls
    {
        type            calculated;
        value           nonuniform List<scalar> 0();
    }
    frontAndBack
    {
        type            empty;
    }
    procBoundary7to3
    {
        type            processor;
        value           nonuniform List<scalar> 
16
(
0.199081
0.199309
0.226869
0.245391
0.260843
0.281953
0.311173
0.344367
0.403322
0.403322
0.449067
0.502869
0.547378
0.607831
0.579734
0.636776
)
;
    }
    procBoundary7to6
    {
        type            processor;
        value           nonuniform List<scalar> 
91
(
0.2231
0.251496
0.251496
0.257027
0.257027
0.400214
0.400214
0.41921
0.310867
0.310867
0.349609
0.324369
0.324369
0.293809
0.313383
0.314542
0.314542
0.271687
0.280949
0.292963
0.292963
0.239012
0.248076
0.257734
0.268011
0.268011
0.209894
0.216657
0.223814
0.231374
0.239357
0.239357
0.183528
0.187812
0.192399
0.197303
0.202534
0.208101
0.214015
0.214015
0.164528
0.166051
0.167717
0.169545
0.171552
0.173753
0.176161
0.178791
0.181655
0.184762
0.188129
0.191766
0.191766
0.000504239
0
0
0.239319
0.991676
0.650188
0.655192
0.682489
0.718437
0.765815
0.833097
0.940095
1.14291
1.7007
2.93458
1.38182
1.07588
0.94309
0.867956
0.811242
0.748179
0.660411
0.585202
0.402107
0
0
0
1.94381
0.274227
0.161402
0.159955
0.169044
0.17297
0.17357
0.174455
0.175804
0.177172
0.177172
)
;
    }
}


// ************************************************************************* //
