/*--------------------------------*- C++ -*----------------------------------*\
| =========                 |                                                 |
| \\      /  F ield         | OpenFOAM: The Open Source CFD Toolbox           |
|  \\    /   O peration     | Version:  2506                                  |
|   \\  /    A nd           | Website:  www.openfoam.com                      |
|    \\/     M anipulation  |                                                 |
\*---------------------------------------------------------------------------*/
FoamFile
{
    version     2.0;
    format      ascii;
    arch        "LSB;label=32;scalar=64";
    class       volScalarField;
    location    "350";
    object      magR;
}
// * * * * * * * * * * * * * * * * * * * * * * * * * * * * * * * * * * * * * //

dimensions      [0 2 -2 0 0 0 0];

internalField   nonuniform List<scalar> 
1340
(
0.000592119
0.000585172
0.000577519
0.000567982
0.000555453
0.000502725
0.000496503
0.000489878
0.000481875
0.000471388
0.000459304
0.000429712
0.000424144
0.00041834
0.000411562
0.000402727
0.000392766
0.0003818
0.000369358
0.000364403
0.000359305
0.000353512
0.000346042
0.000337765
0.000328845
0.000319193
0.00031906
0.000314632
0.000310157
0.000305154
0.00029881
0.000291888
0.000284533
0.000276593
0.000268058
0.000276801
0.000272834
0.000268897
0.000264558
0.000259132
0.000253308
0.000247173
0.000240586
0.000233598
0.000226427
0.000241043
0.0002375
0.000234012
0.000230236
0.000225572
0.000220644
0.000215474
0.000209963
0.000204196
0.000198341
0.000210599
0.000207443
0.000204349
0.000201036
0.000197011
0.000192817
0.000188424
0.000183777
0.000178986
0.000174169
0.0001693
0.000184545
0.000181728
0.00017898
0.000176063
0.000172572
0.000168984
0.000165222
0.000161279
0.000157269
0.000153274
0.000149269
0.000162138
0.00015962
0.000157174
0.000154597
0.00015156
0.000148467
0.00014523
0.000141863
0.000138485
0.000135147
0.000131831
0.000128511
0.000142782
0.000140531
0.000138348
0.000136067
0.000133419
0.00013073
0.000127931
0.000125043
0.000122174
0.000119367
0.000116601
0.000113852
0.000125996
0.000123983
0.000122032
0.00012001
0.000117694
0.000115343
0.00011291
0.00011042
0.000107971
0.000105594
0.00010327
0.000100976
0.000111389
0.00010959
0.000107842
0.000106045
0.000104012
0.00010195
9.9826e-05
9.7669e-05
9.55658e-05
9.35385e-05
9.15699e-05
8.96444e-05
8.77438e-05
9.86383e-05
9.70308e-05
9.54628e-05
9.3863e-05
9.20724e-05
9.02557e-05
8.83963e-05
8.65175e-05
8.47019e-05
8.29628e-05
8.1285e-05
7.96537e-05
7.80554e-05
8.7478e-05
8.60373e-05
8.46349e-05
8.32064e-05
8.16252e-05
8.00206e-05
7.83858e-05
7.67432e-05
7.51656e-05
7.3664e-05
7.22241e-05
7.08348e-05
6.94818e-05
6.81372e-05
7.76839e-05
7.63923e-05
7.51367e-05
7.38591e-05
7.24602e-05
7.10394e-05
6.95963e-05
6.81559e-05
6.67795e-05
6.54752e-05
6.42321e-05
6.30397e-05
6.1884e-05
6.07415e-05
6.90677e-05
6.79118e-05
6.67859e-05
6.56411e-05
6.44018e-05
6.3141e-05
6.18633e-05
6.05961e-05
5.93889e-05
5.82508e-05
5.71707e-05
5.6141e-05
5.51479e-05
5.41711e-05
6.14733e-05
6.0439e-05
5.94294e-05
5.84024e-05
5.73021e-05
5.61811e-05
5.50467e-05
5.39282e-05
5.28667e-05
5.18686e-05
5.09247e-05
5.00289e-05
4.917e-05
4.83294e-05
4.74859e-05
5.47675e-05
5.38404e-05
5.29358e-05
5.20145e-05
5.10356e-05
5.00376e-05
4.90294e-05
4.80384e-05
4.71014e-05
4.62222e-05
4.53932e-05
4.46097e-05
4.38615e-05
4.31325e-05
4.24056e-05
4.88352e-05
4.80038e-05
4.71941e-05
4.63678e-05
4.54943e-05
4.46052e-05
4.37083e-05
4.28282e-05
4.19984e-05
4.1221e-05
4.049e-05
3.98013e-05
3.91457e-05
3.85099e-05
3.78786e-05
4.35791e-05
4.2834e-05
4.21089e-05
4.13683e-05
4.05875e-05
3.9795e-05
3.89959e-05
3.82132e-05
3.74761e-05
3.67867e-05
3.61391e-05
3.55305e-05
3.4954e-05
3.43967e-05
3.38451e-05
3.32884e-05
3.89164e-05
3.82484e-05
3.75987e-05
3.69351e-05
3.62373e-05
3.55299e-05
3.48173e-05
3.41204e-05
3.34643e-05
3.28511e-05
3.22756e-05
3.17365e-05
3.12257e-05
3.07342e-05
3.02511e-05
2.97652e-05
3.41754e-05
3.35938e-05
3.29988e-05
3.23751e-05
3.17435e-05
3.11078e-05
3.04865e-05
2.99018e-05
2.93553e-05
2.88425e-05
2.83625e-05
2.79095e-05
2.74745e-05
2.70482e-05
2.66218e-05
2.6184e-05
3.05536e-05
3.00335e-05
2.95e-05
2.89422e-05
2.83786e-05
2.78113e-05
2.72568e-05
2.67354e-05
2.62476e-05
2.57899e-05
2.53617e-05
2.49582e-05
2.45716e-05
2.41944e-05
2.38188e-05
2.34349e-05
2.73296e-05
2.68645e-05
2.63867e-05
2.58879e-05
2.53851e-05
2.48788e-05
2.43843e-05
2.39185e-05
2.34827e-05
2.30737e-05
2.26907e-05
2.23306e-05
2.19867e-05
2.16516e-05
2.13196e-05
2.09825e-05
2.44568e-05
2.40411e-05
2.36134e-05
2.31679e-05
2.27192e-05
2.22677e-05
2.18267e-05
2.14107e-05
2.10213e-05
2.06555e-05
2.03129e-05
1.99909e-05
1.96836e-05
1.93857e-05
1.90917e-05
1.87944e-05
1.8486e-05
2.18947e-05
2.15233e-05
2.1141e-05
2.07432e-05
2.03433e-05
1.9941e-05
1.95476e-05
1.91766e-05
1.88286e-05
1.85014e-05
1.81947e-05
1.79066e-05
1.76322e-05
1.73667e-05
1.71057e-05
1.6843e-05
1.65723e-05
1.96081e-05
1.92763e-05
1.89349e-05
1.85802e-05
1.82241e-05
1.78659e-05
1.75156e-05
1.71847e-05
1.68742e-05
1.65815e-05
1.63072e-05
1.60493e-05
1.58038e-05
1.55673e-05
1.53357e-05
1.51034e-05
1.48651e-05
1.75656e-05
1.72694e-05
1.69647e-05
1.66491e-05
1.63324e-05
1.6014e-05
1.57024e-05
1.54079e-05
1.51309e-05
1.48694e-05
1.46242e-05
1.43936e-05
1.41744e-05
1.39635e-05
1.37576e-05
1.35522e-05
1.33424e-05
1.31231e-05
1.57398e-05
1.54758e-05
1.52041e-05
1.49237e-05
1.46427e-05
1.43599e-05
1.40833e-05
1.38217e-05
1.35751e-05
1.3342e-05
1.31231e-05
1.2917e-05
1.27214e-05
1.25335e-05
1.23508e-05
1.21693e-05
1.19846e-05
1.17925e-05
1.41068e-05
1.38717e-05
1.36298e-05
1.33811e-05
1.31322e-05
1.28817e-05
1.26368e-05
1.24048e-05
1.21859e-05
1.19786e-05
1.17834e-05
1.15997e-05
1.14254e-05
1.12583e-05
1.10962e-05
1.09358e-05
1.07737e-05
1.06056e-05
1.26454e-05
1.24361e-05
1.22213e-05
1.20011e-05
1.17812e-05
1.156e-05
1.13436e-05
1.11386e-05
1.09447e-05
1.07607e-05
1.05872e-05
1.04238e-05
1.02688e-05
1.01205e-05
9.97709e-06
9.83577e-06
9.69332e-06
9.54629e-06
9.39058e-06
1.13367e-05
1.11507e-05
1.09603e-05
1.0766e-05
1.05722e-05
1.03772e-05
1.01867e-05
1.00061e-05
9.83509e-06
9.67227e-06
9.51851e-06
9.37359e-06
9.23607e-06
9.10479e-06
8.97816e-06
8.85377e-06
8.72901e-06
8.601e-06
8.46589e-06
1.01644e-05
9.99921e-06
9.83072e-06
9.65978e-06
9.48954e-06
9.31834e-06
9.15122e-06
8.99277e-06
8.8424e-06
8.69898e-06
8.56315e-06
8.43506e-06
8.31343e-06
8.19751e-06
8.08604e-06
7.97692e-06
7.86794e-06
7.7566e-06
7.63953e-06
9.11357e-06
8.96719e-06
8.81844e-06
8.66861e-06
8.51952e-06
8.36977e-06
8.22384e-06
8.08548e-06
7.95397e-06
7.82805e-06
7.70849e-06
7.59559e-06
7.4885e-06
7.38655e-06
7.2888e-06
7.19329e-06
7.09833e-06
7.00182e-06
6.90088e-06
6.79218e-06
8.17131e-06
8.04176e-06
7.91094e-06
7.77998e-06
7.64999e-06
7.5196e-06
7.39291e-06
7.27277e-06
7.15819e-06
7.04812e-06
6.94343e-06
6.84435e-06
6.75036e-06
6.66102e-06
6.57557e-06
6.49238e-06
6.41007e-06
6.32674e-06
6.23983e-06
6.14657e-06
7.32607e-06
7.2116e-06
7.09696e-06
6.98302e-06
6.87021e-06
6.75727e-06
6.64793e-06
6.54425e-06
6.44503e-06
6.34934e-06
6.25801e-06
6.17147e-06
6.08935e-06
6.01141e-06
5.93707e-06
5.86496e-06
5.79384e-06
5.7221e-06
5.64761e-06
5.5681e-06
6.56758e-06
6.46663e-06
6.36654e-06
6.26795e-06
6.17048e-06
6.07331e-06
5.9797e-06
5.89086e-06
5.80552e-06
5.72276e-06
5.6435e-06
5.5683e-06
5.49693e-06
5.42927e-06
5.36486e-06
5.30263e-06
5.2415e-06
5.18009e-06
5.11662e-06
5.04906e-06
4.97483e-06
5.88671e-06
5.79788e-06
5.71087e-06
5.62608e-06
5.54241e-06
5.45943e-06
5.38e-06
5.30453e-06
5.23162e-06
5.16051e-06
5.09213e-06
5.02716e-06
4.9655e-06
4.9071e-06
4.85163e-06
4.79827e-06
4.74603e-06
4.69371e-06
4.63982e-06
4.58267e-06
4.52012e-06
5.2753e-06
5.19736e-06
5.12207e-06
5.04969e-06
4.9784e-06
4.90819e-06
4.84157e-06
4.77808e-06
4.71629e-06
4.65566e-06
4.59706e-06
4.54128e-06
4.48836e-06
4.43833e-06
4.39092e-06
4.34541e-06
4.301e-06
4.25672e-06
4.2113e-06
4.16322e-06
4.11072e-06
4.72611e-06
4.65795e-06
4.5932e-06
4.53194e-06
4.47167e-06
4.41301e-06
4.35792e-06
4.30515e-06
4.25329e-06
4.20199e-06
4.15221e-06
4.10472e-06
4.05968e-06
4.01714e-06
3.97692e-06
3.9384e-06
3.90094e-06
3.86368e-06
3.8256e-06
3.7854e-06
3.74163e-06
4.23268e-06
4.17328e-06
4.118e-06
4.06666e-06
4.01627e-06
3.96805e-06
3.92328e-06
3.88007e-06
3.83705e-06
3.79412e-06
3.75224e-06
3.71221e-06
3.67422e-06
3.6384e-06
3.60457e-06
3.57224e-06
3.54086e-06
3.50973e-06
3.47798e-06
3.44455e-06
3.40818e-06
3.3672e-06
3.78927e-06
3.7377e-06
3.69092e-06
3.64842e-06
3.60687e-06
3.56805e-06
3.53256e-06
3.49778e-06
3.46264e-06
3.42718e-06
3.39238e-06
3.35906e-06
3.32741e-06
3.29754e-06
3.26934e-06
3.24239e-06
3.21627e-06
3.19045e-06
3.16413e-06
3.13645e-06
3.10639e-06
3.07252e-06
3.3907e-06
3.34613e-06
3.307e-06
3.27235e-06
3.2387e-06
3.20839e-06
3.18116e-06
3.15382e-06
3.12567e-06
3.0969e-06
3.06848e-06
3.04114e-06
3.01507e-06
2.9904e-06
2.96709e-06
2.94482e-06
2.92322e-06
2.90185e-06
2.88009e-06
2.85724e-06
2.83242e-06
2.80443e-06
3.03238e-06
2.99406e-06
2.9618e-06
2.93411e-06
2.90752e-06
2.88491e-06
2.86502e-06
2.8442e-06
2.82227e-06
2.7995e-06
2.77675e-06
2.75468e-06
2.73349e-06
2.7133e-06
2.69413e-06
2.67574e-06
2.65788e-06
2.6402e-06
2.62222e-06
2.60332e-06
2.58278e-06
2.55965e-06
2.7102e-06
2.67744e-06
2.65137e-06
2.62981e-06
2.60955e-06
2.59392e-06
2.58048e-06
2.56535e-06
2.549e-06
2.53161e-06
2.51385e-06
2.49634e-06
2.47925e-06
2.46276e-06
2.44696e-06
2.43172e-06
2.41687e-06
2.40216e-06
2.38718e-06
2.37145e-06
2.35436e-06
2.3351e-06
2.31272e-06
2.42047e-06
2.39268e-06
2.37216e-06
2.35597e-06
2.34143e-06
2.33212e-06
2.32428e-06
2.31411e-06
2.30279e-06
2.2902e-06
2.27674e-06
2.26299e-06
2.2492e-06
2.23563e-06
2.22245e-06
2.20964e-06
2.19712e-06
2.18472e-06
2.1721e-06
2.15886e-06
2.14451e-06
2.12837e-06
2.10962e-06
2.15989e-06
2.13653e-06
2.12099e-06
2.1095e-06
2.10013e-06
2.09655e-06
2.0935e-06
2.08765e-06
2.08095e-06
2.07257e-06
2.06263e-06
2.0518e-06
2.04049e-06
2.02906e-06
2.0178e-06
2.00681e-06
1.99607e-06
1.98546e-06
1.9747e-06
1.96345e-06
1.95131e-06
1.9377e-06
1.92194e-06
1.92553e-06
1.90612e-06
1.89502e-06
1.88763e-06
1.88297e-06
1.88455e-06
1.88549e-06
1.88348e-06
1.88108e-06
1.87625e-06
1.86894e-06
1.86017e-06
1.85057e-06
1.84064e-06
1.83079e-06
1.82119e-06
1.81185e-06
1.80269e-06
1.79346e-06
1.78388e-06
1.77361e-06
1.76216e-06
1.74896e-06
1.71474e-06
1.69885e-06
1.69172e-06
1.68787e-06
1.68755e-06
1.6937e-06
1.69788e-06
1.69937e-06
1.70102e-06
1.69898e-06
1.69336e-06
1.68586e-06
1.67739e-06
1.66854e-06
1.6598e-06
1.65138e-06
1.64329e-06
1.63542e-06
1.62758e-06
1.61953e-06
1.61095e-06
1.60143e-06
1.5905e-06
1.52515e-06
1.51243e-06
1.5088e-06
1.50802e-06
1.51173e-06
1.52187e-06
1.52857e-06
1.53336e-06
1.53882e-06
1.53866e-06
1.53382e-06
1.52704e-06
1.51943e-06
1.51154e-06
1.50389e-06
1.49665e-06
1.4898e-06
1.48321e-06
1.47672e-06
1.47008e-06
1.46304e-06
1.45526e-06
1.44634e-06
1.43615e-06
1.35464e-06
1.34474e-06
1.34422e-06
1.34608e-06
1.3536e-06
1.3671e-06
1.3757e-06
1.38379e-06
1.39275e-06
1.39337e-06
1.38856e-06
1.38235e-06
1.3757e-06
1.36894e-06
1.3625e-06
1.35651e-06
1.3509e-06
1.34554e-06
1.34026e-06
1.33487e-06
1.32916e-06
1.32281e-06
1.31551e-06
1.30712e-06
1.2013e-06
1.19392e-06
1.19609e-06
1.20023e-06
1.21135e-06
1.22755e-06
1.2376e-06
1.24925e-06
1.26135e-06
1.2615e-06
1.25625e-06
1.25088e-06
1.24554e-06
1.2401e-06
1.23492e-06
1.23011e-06
1.22558e-06
1.22121e-06
1.21686e-06
1.21238e-06
1.20759e-06
1.20223e-06
1.19601e-06
1.18883e-06
1.06349e-06
1.05837e-06
1.06283e-06
1.0689e-06
1.08339e-06
1.10149e-06
1.11263e-06
1.12815e-06
1.14316e-06
1.14186e-06
1.13614e-06
1.1321e-06
1.12834e-06
1.12412e-06
1.11989e-06
1.11586e-06
1.11198e-06
1.10815e-06
1.10427e-06
1.10023e-06
1.09588e-06
1.09099e-06
1.08531e-06
1.07874e-06
9.3975e-07
9.36702e-07
9.43091e-07
9.50831e-07
9.68467e-07
9.87638e-07
9.99469e-07
1.0186e-06
1.03625e-06
1.03339e-06
1.02781e-06
1.02549e-06
1.02308e-06
1.01951e-06
1.01558e-06
1.0117e-06
1.00787e-06
1.00403e-06
1.00013e-06
9.9608e-07
9.91761e-07
9.86958e-07
9.81405e-07
9.75043e-07
8.28691e-07
8.27548e-07
8.35586e-07
8.44938e-07
8.65573e-07
8.85204e-07
8.97515e-07
9.19733e-07
9.3931e-07
9.34798e-07
9.30149e-07
9.29643e-07
9.27798e-07
9.23988e-07
9.19697e-07
9.15468e-07
9.11277e-07
9.07113e-07
9.02931e-07
8.98658e-07
8.9418e-07
8.89286e-07
8.83707e-07
8.77422e-07
7.29181e-07
7.2962e-07
7.38937e-07
7.49882e-07
7.73257e-07
7.92962e-07
8.05976e-07
8.32818e-07
8.54369e-07
8.4525e-07
8.4078e-07
8.4216e-07
8.40231e-07
8.35464e-07
8.30469e-07
8.25788e-07
8.21228e-07
8.16752e-07
8.12336e-07
8.07919e-07
8.03341e-07
7.98403e-07
7.92861e-07
7.86686e-07
7.80138e-07
6.41477e-07
6.43074e-07
6.52891e-07
6.64929e-07
6.90006e-07
7.08592e-07
7.21686e-07
7.55259e-07
7.83269e-07
7.65468e-07
7.58433e-07
7.62241e-07
7.60627e-07
7.54923e-07
7.49321e-07
7.44402e-07
7.39684e-07
7.35032e-07
7.30518e-07
7.2606e-07
7.21478e-07
7.16572e-07
7.1113e-07
7.05086e-07
6.98696e-07
5.70808e-07
5.72902e-07
5.81943e-07
5.93456e-07
6.17687e-07
6.31788e-07
6.41548e-07
6.81578e-07
7.16956e-07
6.92448e-07
6.83828e-07
6.90959e-07
6.91282e-07
6.86031e-07
6.80657e-07
6.76085e-07
6.7167e-07
6.67235e-07
6.6288e-07
6.58559e-07
6.54134e-07
6.49382e-07
6.44096e-07
6.38221e-07
6.32009e-07
5.14815e-07
5.16885e-07
5.24369e-07
5.34221e-07
5.55297e-07
5.62701e-07
5.69205e-07
6.05683e-07
6.45823e-07
6.23412e-07
6.17156e-07
6.26902e-07
6.3015e-07
6.26863e-07
6.22525e-07
6.18723e-07
6.15007e-07
6.1119e-07
6.0732e-07
6.03408e-07
5.9937e-07
5.95009e-07
5.90086e-07
5.84553e-07
5.78679e-07
4.63571e-07
4.65579e-07
4.71605e-07
4.80295e-07
4.98183e-07
5.00044e-07
5.06132e-07
5.3425e-07
5.74492e-07
5.59503e-07
5.56786e-07
5.67313e-07
5.72872e-07
5.71828e-07
5.68754e-07
5.65728e-07
5.6271e-07
5.59528e-07
5.56229e-07
5.52841e-07
5.49298e-07
5.45431e-07
5.4101e-07
5.3595e-07
5.30531e-07
4.13513e-07
4.15425e-07
4.20051e-07
4.28088e-07
4.42557e-07
4.40819e-07
4.47982e-07
4.68099e-07
5.08855e-07
5.01974e-07
5.02321e-07
5.1226e-07
5.18889e-07
5.19567e-07
5.17683e-07
5.15468e-07
5.13176e-07
5.10603e-07
5.07795e-07
5.04848e-07
5.01735e-07
4.98298e-07
4.94346e-07
4.8972e-07
4.84658e-07
3.65919e-07
3.67642e-07
3.70984e-07
3.78657e-07
3.89428e-07
3.86186e-07
3.94438e-07
4.07452e-07
4.49245e-07
4.49871e-07
4.53262e-07
4.62493e-07
4.69547e-07
4.71302e-07
4.70199e-07
4.68662e-07
4.67195e-07
4.65463e-07
4.63316e-07
4.60849e-07
4.58097e-07
4.54991e-07
4.51335e-07
4.46986e-07
4.42114e-07
3.20996e-07
3.2232e-07
3.24431e-07
3.31729e-07
3.38619e-07
3.3625e-07
3.44613e-07
3.52484e-07
3.96391e-07
4.03469e-07
4.09376e-07
4.18081e-07
4.25626e-07
4.28408e-07
4.27669e-07
4.25907e-07
4.24286e-07
4.22819e-07
4.21227e-07
4.19327e-07
4.17001e-07
4.14141e-07
4.10518e-07
4.06074e-07
4.00971e-07
2.79303e-07
2.79905e-07
2.80701e-07
2.87081e-07
2.89963e-07
2.90725e-07
2.97368e-07
3.03368e-07
3.50618e-07
3.63194e-07
3.71135e-07
3.7876e-07
3.85855e-07
3.89659e-07
3.90313e-07
3.88972e-07
3.86588e-07
3.83767e-07
3.80926e-07
3.78209e-07
3.75457e-07
3.72313e-07
3.68261e-07
3.62877e-07
3.56211e-07
2.41247e-07
2.40869e-07
2.40235e-07
2.44636e-07
2.4332e-07
2.48226e-07
2.50071e-07
2.59276e-07
3.1169e-07
3.28652e-07
3.39692e-07
3.46326e-07
3.49904e-07
3.5043e-07
3.50138e-07
3.50122e-07
3.49751e-07
3.47907e-07
3.44364e-07
3.39673e-07
3.34357e-07
3.2856e-07
3.2201e-07
3.14346e-07
3.05504e-07
2.95628e-07
2.06803e-07
2.05346e-07
2.03251e-07
2.0458e-07
1.99403e-07
2.0746e-07
2.00545e-07
2.20761e-07
2.79655e-07
2.96585e-07
3.11708e-07
3.19852e-07
3.20825e-07
3.15255e-07
3.06778e-07
2.99612e-07
2.95745e-07
2.94366e-07
2.93361e-07
2.91047e-07
2.86633e-07
2.79963e-07
2.71053e-07
2.6032e-07
2.48473e-07
2.36265e-07
1.76064e-07
1.73075e-07
1.68817e-07
1.6618e-07
1.58869e-07
1.68853e-07
1.53245e-07
1.97278e-07
2.57458e-07
2.68278e-07
2.84134e-07
2.89811e-07
2.9153e-07
2.90488e-07
2.82125e-07
2.66524e-07
2.49613e-07
2.37419e-07
2.32533e-07
2.34171e-07
2.39776e-07
2.46407e-07
2.50394e-07
2.48335e-07
2.40536e-07
2.30605e-07
1.51235e-07
1.45394e-07
1.36433e-07
1.27528e-07
1.19102e-07
1.31018e-07
1.19223e-07
1.99448e-07
2.47586e-07
2.66553e-07
3.05161e-07
3.15116e-07
3.03422e-07
2.84176e-07
2.7153e-07
2.73877e-07
2.86054e-07
2.97369e-07
3.02696e-07
3.0308e-07
3.01267e-07
3.00158e-07
3.04199e-07
3.18847e-07
3.4424e-07
3.74639e-07
1.36148e-07
1.26705e-07
1.10554e-07
9.08175e-08
7.59529e-08
8.6681e-08
9.78936e-08
2.02092e-07
2.20776e-07
2.57821e-07
3.29188e-07
3.90556e-07
4.52471e-07
5.15996e-07
5.73984e-07
6.21896e-07
6.58519e-07
6.88351e-07
7.17332e-07
7.49004e-07
7.84381e-07
8.22739e-07
8.62188e-07
8.97937e-07
9.25097e-07
9.46196e-07
1.29205e-07
1.18015e-07
9.72035e-08
6.70907e-08
3.56618e-08
4.27141e-08
8.748e-08
1.52613e-07
2.20653e-07
4.82915e-07
7.37387e-07
9.66089e-07
1.14761e-06
1.27875e-06
1.36598e-06
1.4242e-06
1.46867e-06
1.51053e-06
1.55351e-06
1.59696e-06
1.63869e-06
1.67836e-06
1.71759e-06
1.76214e-06
1.80761e-06
1.84615e-06
)
;

boundaryField
{
    inlet
    {
        type            calculated;
        value           nonuniform List<scalar> 
26
(
1.30098e-07
1.19109e-07
9.81467e-08
6.65968e-08
3.06949e-08
4.3811e-08
1.03855e-07
1.11286e-07
4.98195e-07
1.02033e-06
1.61302e-06
2.20421e-06
2.74245e-06
3.20584e-06
3.58412e-06
3.88662e-06
4.12886e-06
4.32742e-06
4.49782e-06
4.65267e-06
4.80156e-06
4.95476e-06
5.12438e-06
5.31947e-06
5.52689e-06
5.725e-06
)
;
    }
    outlet
    {
        type            calculated;
        value           nonuniform List<scalar> 0();
    }
    walls
    {
        type            calculated;
        value           nonuniform List<scalar> 0();
    }
    frontAndBack
    {
        type            empty;
    }
    procBoundary0to1
    {
        type            processor;
        value           nonuniform List<scalar> 
94
(
0.000659581
0.000540639
0.000540639
0.000445628
0.000445628
0.000369927
0.000369927
0.000308683
0.000308683
0.000259201
0.000259201
0.000219056
0.000192374
0.000192374
0.000164348
0.00014523
0.00014523
0.000125172
0.000111106
9.86974e-05
9.86974e-05
8.58351e-05
7.64582e-05
7.64582e-05
6.67656e-05
5.95844e-05
5.31861e-05
5.31861e-05
4.66199e-05
4.16632e-05
3.72379e-05
3.72379e-05
3.27112e-05
2.92636e-05
2.92636e-05
2.57235e-05
2.30337e-05
2.06311e-05
2.06311e-05
1.81592e-05
1.62865e-05
1.46146e-05
1.46146e-05
1.28876e-05
1.15871e-05
1.04265e-05
1.04265e-05
9.22118e-06
8.31925e-06
7.51297e-06
7.51297e-06
6.67172e-06
6.04368e-06
5.48057e-06
5.48057e-06
4.89081e-06
4.44942e-06
4.0515e-06
3.69224e-06
3.69224e-06
3.31968e-06
3.0332e-06
2.77196e-06
2.53275e-06
2.53275e-06
2.28677e-06
2.08793e-06
1.90377e-06
1.7338e-06
1.57801e-06
1.57801e-06
1.42495e-06
1.29788e-06
1.18089e-06
1.0715e-06
9.68136e-07
8.70713e-07
8.70713e-07
7.73543e-07
6.92334e-07
6.25839e-07
5.72836e-07
5.25083e-07
4.79451e-07
4.36938e-07
3.95472e-07
3.48749e-07
3.48749e-07
2.84861e-07
2.2423e-07
2.21453e-07
4.05423e-07
9.64974e-07
1.87675e-06
)
;
    }
    procBoundary0to4
    {
        type            processor;
        value           nonuniform List<scalar> 
72
(
0.000597545
0.000507805
0.000434444
0.000373715
0.000323037
0.000280407
0.000244312
0.000213563
0.000187224
0.000164551
0.000144955
0.000127956
0.000113154
0.000100229
8.89107e-05
7.89736e-05
7.02303e-05
6.25209e-05
5.57103e-05
4.96846e-05
4.43449e-05
3.96058e-05
3.47743e-05
3.47743e-05
3.10905e-05
2.78108e-05
2.48879e-05
2.2281e-05
1.99537e-05
1.78745e-05
1.60157e-05
1.4353e-05
1.28649e-05
1.15321e-05
1.0338e-05
9.26772e-06
8.30796e-06
7.44696e-06
6.67432e-06
5.98076e-06
5.35799e-06
4.79866e-06
4.29618e-06
3.84468e-06
3.43891e-06
3.07419e-06
2.74632e-06
2.45154e-06
2.1865e-06
1.94819e-06
1.73392e-06
1.54127e-06
1.36808e-06
1.2124e-06
1.07252e-06
9.46955e-07
8.34321e-07
7.33491e-07
6.44796e-07
5.7359e-07
5.17268e-07
4.6568e-07
4.15298e-07
3.67421e-07
3.22302e-07
2.80538e-07
2.42551e-07
2.08318e-07
1.78036e-07
1.54008e-07
1.39773e-07
1.33192e-07
)
;
    }
    procBoundary0to5
    {
        type            processor;
        value           nonuniform List<scalar> 4(0.000702371 0.000694784 0.000686001 0.000674652);
    }
}


// ************************************************************************* //
