/*--------------------------------*- C++ -*----------------------------------*\
| =========                 |                                                 |
| \\      /  F ield         | OpenFOAM: The Open Source CFD Toolbox           |
|  \\    /   O peration     | Version:  2506                                  |
|   \\  /    A nd           | Website:  www.openfoam.com                      |
|    \\/     M anipulation  |                                                 |
\*---------------------------------------------------------------------------*/
FoamFile
{
    version     2.0;
    format      ascii;
    arch        "LSB;label=32;scalar=64";
    class       volVectorField;
    location    "350";
    object      momentError;
}
// * * * * * * * * * * * * * * * * * * * * * * * * * * * * * * * * * * * * * //

dimensions      [0 1 -2 0 0 0 0];

internalField   nonuniform List<vector> 
1340
(
(2.82227e-05 0.00153021 -2.94617e-15)
(-4.57549e-05 0.00145783 -2.40507e-14)
(-0.000106126 0.00132323 1.50614e-14)
(-0.000160309 0.00112635 4.42744e-14)
(-0.000207798 0.000994136 1.44993e-14)
(3.05815e-05 0.00133595 -6.0032e-15)
(-3.51058e-05 0.00127397 9.69766e-15)
(-8.94489e-05 0.00116121 2.38073e-14)
(-0.000138053 0.000996851 -3.81645e-14)
(-0.00017782 0.000884462 -2.82771e-14)
(-0.000207395 0.000755992 -1.8179e-14)
(3.10327e-05 0.00117071 2.60348e-15)
(-2.66099e-05 0.00111687 5.17355e-15)
(-7.4939e-05 0.00102303 -1.3721e-14)
(-0.000117967 0.000884915 1.79631e-14)
(-0.000155271 0.000787744 3.21896e-14)
(-0.000182668 0.000684516 1.62781e-15)
(-0.00022046 0.000643 1.13909e-14)
(3.05041e-05 0.0010289 -1.68972e-15)
(-1.97717e-05 0.000982807 -7.01576e-15)
(-6.23847e-05 0.00090389 3.88158e-15)
(-0.000101109 0.000786696 1.96471e-16)
(-0.000135286 0.000702552 -2.05682e-14)
(-0.000163372 0.000626507 1.64721e-14)
(-0.000200905 0.000597252 -4.47634e-14)
(-0.000250193 0.000583929 6.26826e-15)
(3.0222e-05 0.000907083 -1.8859e-15)
(-1.39097e-05 0.000867069 4.62976e-15)
(-5.17496e-05 0.000800452 4.25659e-15)
(-8.67937e-05 0.000700962 -1.875e-14)
(-0.000117975 0.000627652 -5.85219e-14)
(-0.000145517 0.000571571 3.66015e-14)
(-0.000182925 0.000551701 -7.66483e-14)
(-0.000226663 0.000537963 2.5896e-14)
(-0.000266503 0.000513171 1.37785e-13)
(2.96399e-05 0.00080167 8.91926e-16)
(-9.08262e-06 0.000766999 3.92503e-16)
(-4.28217e-05 0.000710183 -1.03348e-14)
(-7.45983e-05 0.000625147 -7.62045e-15)
(-0.000103014 0.000561206 3.01496e-15)
(-0.000129862 0.000520702 1.7037e-14)
(-0.000165994 0.00050753 9.70272e-16)
(-0.000205811 0.000493642 -7.22271e-14)
(-0.000241119 0.000470686 6.96891e-14)
(-0.000269516 0.000440529 2.73517e-14)
(2.90507e-05 0.000709984 1.09048e-15)
(-5.20258e-06 0.000679791 -4.00261e-15)
(-3.53395e-05 0.000631154 1.4889e-15)
(-6.40183e-05 0.000558397 1.98389e-14)
(-8.99011e-05 0.000502232 4.59626e-14)
(-0.000115793 0.000473852 -7.60326e-14)
(-0.000150244 0.000465492 6.16782e-14)
(-0.000186101 0.00045171 -3.67911e-14)
(-0.000218228 0.000430595 -6.93633e-14)
(-0.000243672 0.000403953 8.4761e-15)
(2.83004e-05 0.000630063 -1.83202e-15)
(-2.09945e-06 0.00060364 -1.54151e-16)
(-2.90638e-05 0.00056179 1.43741e-16)
(-5.48944e-05 0.000499142 1.59693e-14)
(-7.86129e-05 0.000449783 1.12671e-15)
(-0.000102916 0.000429584 3.17717e-14)
(-0.000135704 0.000425732 -1.61857e-14)
(-0.000167878 0.000412376 -4.82401e-14)
(-0.000196919 0.000393378 -3.13536e-14)
(-0.000220009 0.000369761 -6.74611e-14)
(-0.000236371 0.00034267 -1.839e-14)
(2.74096e-05 0.000559822 -2.13671e-17)
(3.47162e-07 0.000536713 -6.79603e-15)
(-2.38032e-05 0.000500532 2.95964e-15)
(-4.72165e-05 0.000446494 9.02523e-15)
(-6.91058e-05 0.000405588 -1.16835e-14)
(-9.21293e-05 0.000390825 -1.19104e-14)
(-0.000122419 0.000388539 -1.99072e-14)
(-0.000151151 0.000375791 -1.52703e-14)
(-0.000177358 0.000358756 3.16785e-14)
(-0.000198419 0.00033802 8.43432e-14)
(-0.000213464 0.00031415 -4.37674e-14)
(2.64159e-05 0.000498057 -8.35023e-16)
(2.27352e-06 0.000477801 6.40691e-16)
(-1.94253e-05 0.000446407 -4.73587e-16)
(-4.06158e-05 0.000399582 -1.32259e-14)
(-6.09179e-05 0.000367668 9.08431e-15)
(-8.27957e-05 0.000356828 -6.57038e-15)
(-0.000110151 0.000353885 -1.35697e-15)
(-0.0001359 0.000342033 7.30515e-14)
(-0.000159522 0.000326752 7.48711e-15)
(-0.000178691 0.000308554 5.97147e-14)
(-0.000192636 0.000287557 6.86916e-14)
(-0.000205346 0.000269598 -3.41275e-14)
(2.53525e-05 0.000443549 1.3595e-16)
(3.75134e-06 0.000425722 -5.8823e-15)
(-1.57477e-05 0.000398404 -8.24495e-15)
(-3.49179e-05 0.000357813 -9.6911e-15)
(-5.36251e-05 0.000332942 1.21008e-14)
(-7.42673e-05 0.000325226 5.11904e-14)
(-9.88814e-05 0.000321848 -4.15843e-15)
(-0.000122047 0.000310889 2.46249e-14)
(-0.000143325 0.00029727 -1.82172e-15)
(-0.000160772 0.000281215 -7.131e-14)
(-0.000173693 0.000262947 -3.71788e-14)
(-0.000186023 0.000247665 5.53499e-14)
(2.42432e-05 0.000395351 -2.97832e-18)
(4.88656e-06 0.000379631 2.65642e-15)
(-1.26513e-05 0.00035576 8.61395e-15)
(-2.99831e-05 0.000320422 3.3016e-15)
(-4.72131e-05 0.000301178 1.10848e-15)
(-6.65256e-05 0.000295954 -6.98723e-15)
(-8.86938e-05 0.000292408 7.87784e-14)
(-0.000109528 0.00028232 -2.69621e-16)
(-0.000128728 0.000270173 -9.5793e-14)
(-0.00014467 0.000256048 -2.17968e-14)
(-0.000156511 0.000240038 1.28185e-14)
(-0.000167884 0.000226936 1.59161e-14)
(2.31162e-05 0.000352552 6.75396e-16)
(5.764e-06 0.000338646 5.40468e-15)
(-1.00062e-05 0.000317776 -3.1269e-15)
(-2.56876e-05 0.000287032 2.60637e-14)
(-4.15289e-05 0.000272275 2.40103e-14)
(-5.9519e-05 0.000268915 -3.57811e-16)
(-7.94541e-05 0.000265321 2.13581e-14)
(-9.82233e-05 0.000256067 -3.76696e-14)
(-0.000115537 0.000245178 -2.42398e-14)
(-0.000130027 0.000232735 -7.96649e-14)
(-0.00014113 0.00021882 5.243e-14)
(-0.000151437 0.000207408 8.1923e-14)
(-0.000160911 0.000197007 -1.46929e-14)
(2.20786e-05 0.000314518 7.43458e-16)
(6.43649e-06 0.000302304 1.95113e-16)
(-7.77237e-06 0.000284002 -8.6468e-15)
(-2.19806e-05 0.000257148 4.01759e-15)
(-3.65248e-05 0.000245994 -4.69709e-15)
(-5.31975e-05 0.000244102 -4.99219e-15)
(-7.11504e-05 0.000240504 -6.9131e-14)
(-8.80281e-05 0.000232049 4.70095e-14)
(-0.000103663 0.000222294 1.9979e-14)
(-0.000116832 0.000211321 1.40361e-14)
(-0.000127017 0.000199086 -5.60443e-14)
(-0.000136828 0.000189166 1.66201e-15)
(-0.000145242 0.000180513 -3.75749e-14)
(2.10247e-05 0.000280734 6.51525e-16)
(6.92206e-06 0.000269835 -2.03537e-15)
(-5.90702e-06 0.000253803 4.3247e-15)
(-1.88077e-05 0.000230435 -1.13354e-14)
(-3.21018e-05 0.000221981 -3.33731e-14)
(-4.75327e-05 0.000221313 1.79083e-16)
(-6.36634e-05 0.000217756 -1.03284e-15)
(-7.88598e-05 0.00021003 -8.29344e-15)
(-9.29546e-05 0.000201341 4.82687e-14)
(-0.000104903 0.000191664 -1.92336e-14)
(-0.000114267 0.000180928 -5.63815e-15)
(-0.000123407 0.000172429 -6.53709e-15)
(-0.000131251 0.000164887 1.03538e-14)
(-0.000137197 0.000156666 -2.14131e-14)
(1.99759e-05 0.00025055 -1.48561e-15)
(7.25842e-06 0.000241028 -9.95851e-16)
(-4.30981e-06 0.000226901 9.86333e-15)
(-1.60015e-05 0.000206434 -1.18473e-14)
(-2.8231e-05 0.00020036 5.62809e-15)
(-4.24149e-05 0.00020038 -1.95359e-14)
(-5.69491e-05 0.000196969 -8.86862e-16)
(-7.06309e-05 0.000189967 -2.06361e-14)
(-8.33289e-05 0.000182208 2.1485e-14)
(-9.41526e-05 0.000173679 -2.17536e-14)
(-0.000102677 0.000164225 3.30903e-15)
(-0.000111101 0.0001569 2.67112e-15)
(-0.000118475 0.00015047 3.2169e-14)
(-0.000124213 0.000143593 1.184e-14)
(1.88645e-05 0.000223709 3.18671e-18)
(7.57217e-06 0.00021524 8.88271e-16)
(-2.8742e-06 0.000202838 1.49089e-15)
(-1.35394e-05 0.000184918 2.1704e-15)
(-2.47449e-05 0.000180547 3.04071e-14)
(-3.78534e-05 0.00018129 4.25917e-15)
(-5.09059e-05 0.000177996 -7.87764e-15)
(-6.32364e-05 0.000171635 5.93913e-15)
(-7.46581e-05 0.000164735 5.06639e-15)
(-8.44225e-05 0.000157216 5.36583e-14)
(-9.22008e-05 0.00014893 2.03842e-14)
(-9.99278e-05 0.000142623 5.35124e-15)
(-0.000106757 0.000137206 -5.20662e-14)
(-0.00011193 0.000131252 1.94329e-14)
(1.802e-05 0.000199793 -4.67895e-16)
(7.81117e-06 0.000192434 -2.67632e-15)
(-1.63738e-06 0.000181285 -6.08228e-15)
(-1.14305e-05 0.000165688 -2.63566e-15)
(-2.16921e-05 0.000162454 -1.28188e-14)
(-3.37676e-05 0.000163832 -1.37153e-15)
(-4.55229e-05 0.000160758 5.60486e-14)
(-5.65955e-05 0.000154978 1.36717e-14)
(-6.68814e-05 0.00014882 -4.42827e-14)
(-7.56911e-05 0.000142205 -9.69079e-15)
(-8.27192e-05 0.000134916 2.51609e-15)
(-8.97731e-05 0.000129518 2.42055e-14)
(-9.60155e-05 0.000125 -1.49939e-14)
(-0.000100857 0.000119947 -2.80234e-14)
(-0.00010656 0.000116113 5.0682e-14)
(1.71515e-05 0.000178654 -1.12888e-15)
(7.84958e-06 0.000171835 -9.00984e-16)
(-6.92416e-07 0.000162012 -9.09083e-16)
(-9.65728e-06 0.000149155 -9.40747e-16)
(-1.91626e-05 0.000146793 2.17957e-14)
(-3.01227e-05 0.000147929 5.71257e-16)
(-4.06974e-05 0.000145047 -4.33184e-15)
(-5.06691e-05 0.00013983 9.40455e-15)
(-5.99144e-05 0.000134338 3.38294e-14)
(-6.78357e-05 0.000128485 -6.37708e-14)
(-7.41994e-05 0.00012211 -3.18604e-14)
(-8.06172e-05 0.000117531 -4.83826e-15)
(-8.63225e-05 0.000113779 3.59987e-14)
(-9.068e-05 0.000109736 -1.80583e-14)
(-9.64187e-05 0.00010664 -3.06468e-14)
(1.60873e-05 0.000159653 8.47519e-17)
(7.70215e-06 0.000153617 -7.4833e-16)
(-1.46003e-07 0.000144691 1.30909e-15)
(-8.22611e-06 0.000134086 1.80217e-15)
(-1.69489e-05 0.000132498 1.88226e-14)
(-2.68508e-05 0.000133425 -1.96808e-14)
(-3.63963e-05 0.00013079 -4.71348e-16)
(-4.53585e-05 0.000126059 -2.16027e-14)
(-5.36801e-05 0.000121158 -1.67601e-14)
(-6.08142e-05 0.000116003 4.87662e-14)
(-6.655e-05 0.000110404 -2.7705e-14)
(-7.23548e-05 0.000106527 -1.96943e-14)
(-7.76353e-05 0.00010353 -1.74457e-14)
(-8.15349e-05 0.000100179 3.33007e-14)
(-8.67407e-05 9.80815e-05 2.08323e-14)
(1.51694e-05 0.000142615 5.88393e-17)
(7.28335e-06 0.000137085 1.97641e-15)
(1.42875e-07 0.000129191 -6.52086e-15)
(-7.08256e-06 0.000120572 6.43395e-16)
(-1.50154e-05 0.000119525 -2.99633e-14)
(-2.39545e-05 0.000120303 2.12454e-15)
(-3.25393e-05 0.000117852 4.36266e-15)
(-4.06238e-05 0.000113586 -4.52177e-14)
(-4.80919e-05 0.000109206 1.12634e-14)
(-5.45127e-05 0.00010463 -3.26367e-15)
(-5.96973e-05 9.97471e-05 2.72072e-14)
(-6.50099e-05 9.64713e-05 1.78696e-15)
(-6.97426e-05 9.40331e-05 -2.22548e-14)
(-7.35928e-05 9.12828e-05 -2.44091e-14)
(-7.80249e-05 9.00918e-05 4.36166e-15)
(-8.411e-05 8.88484e-05 1.88337e-14)
(1.3998e-05 0.000127208 8.39035e-16)
(6.89263e-06 0.000122351 2.46933e-15)
(4.01723e-07 0.000115421 -2.30084e-16)
(-6.09762e-06 0.000108377 5.88921e-16)
(-1.33225e-05 0.000107775 2.6656e-15)
(-2.1362e-05 0.000108394 -1.57626e-14)
(-2.91096e-05 0.000106144 1.26621e-14)
(-3.63674e-05 0.000102275 1.8046e-14)
(-4.31042e-05 9.83646e-05 -1.17167e-14)
(-4.88858e-05 9.4329e-05 -8.22174e-15)
(-5.35587e-05 9.00258e-05 3.96679e-15)
(-5.83693e-05 8.72335e-05 3.39795e-14)
(-6.2731e-05 8.52347e-05 4.41733e-14)
(-6.63942e-05 8.32353e-05 1.62144e-15)
(-7.08753e-05 8.232e-05 -1.31127e-14)
(-7.59675e-05 8.22505e-05 -2.7717e-14)
(6.51767e-06 0.00010923 2.84938e-16)
(6.35947e-07 0.000103067 -5.08288e-16)
(-5.23729e-06 9.73896e-05 1.16297e-14)
(-1.18131e-05 9.7106e-05 8.9902e-15)
(-1.90667e-05 9.76228e-05 8.00103e-15)
(-2.6038e-05 9.55403e-05 -6.02775e-15)
(-3.25837e-05 9.20492e-05 4.16234e-14)
(-3.86344e-05 8.85307e-05 -2.36071e-14)
(-4.38272e-05 8.49344e-05 -1.21359e-14)
(-4.80591e-05 8.11658e-05 -4.088e-14)
(-5.24495e-05 7.87972e-05 -2.24315e-14)
(-5.64825e-05 7.71634e-05 -3.22569e-14)
(-5.97893e-05 7.56061e-05 6.94259e-15)
(-6.45038e-05 7.52078e-05 9.8655e-15)
(-6.90036e-05 7.52926e-05 9.82812e-15)
(-7.31485e-05 7.38139e-05 -5.91462e-15)
(6.12591e-06 9.73391e-05 3.17498e-15)
(8.15985e-07 9.20497e-05 2.14092e-16)
(-4.47968e-06 8.74634e-05 -9.77574e-15)
(-1.04781e-05 8.74626e-05 -8.04315e-15)
(-1.70117e-05 8.78563e-05 4.80377e-15)
(-2.33053e-05 8.59616e-05 1.22905e-14)
(-2.9185e-05 8.27793e-05 -1.01235e-14)
(-3.46362e-05 7.96319e-05 1.79638e-14)
(-3.93224e-05 7.64539e-05 1.86489e-15)
(-4.31263e-05 7.31197e-05 -8.62365e-15)
(-4.70828e-05 7.10662e-05 2.38612e-15)
(-5.08332e-05 6.97398e-05 5.40975e-15)
(-5.40646e-05 6.84631e-05 -1.98465e-14)
(-5.845e-05 6.85207e-05 9.84054e-16)
(-6.29285e-05 6.85453e-05 1.49884e-15)
(-6.64002e-05 6.75913e-05 2.36626e-15)
(5.74605e-06 8.68337e-05 -2.4074e-16)
(9.50361e-07 8.21469e-05 -5.61585e-15)
(-3.82169e-06 7.8498e-05 -3.24195e-15)
(-9.27809e-06 7.86932e-05 2.10675e-14)
(-1.51815e-05 7.90285e-05 -1.72004e-14)
(-2.08412e-05 7.72785e-05 1.30525e-14)
(-2.61533e-05 7.44178e-05 -1.11137e-14)
(-3.10423e-05 7.15909e-05 -1.56635e-14)
(-3.52489e-05 6.87489e-05 1.36465e-14)
(-3.86745e-05 6.58185e-05 2.78266e-14)
(-4.22763e-05 6.40343e-05 -1.96641e-14)
(-4.56652e-05 6.28909e-05 2.23592e-14)
(-4.87807e-05 6.18799e-05 1.55031e-14)
(-5.30351e-05 6.21949e-05 -1.92664e-14)
(-5.71191e-05 6.23548e-05 -8.25512e-15)
(-5.9944e-05 6.14162e-05 3.62588e-15)
(5.34189e-06 7.73916e-05 -2.06837e-15)
(1.03743e-06 7.32737e-05 2.91375e-15)
(-3.24595e-06 7.03603e-05 5.04483e-15)
(-8.21194e-06 7.07304e-05 -1.84942e-14)
(-1.35253e-05 7.09955e-05 2.46587e-14)
(-1.86415e-05 6.94212e-05 -3.94694e-15)
(-2.34087e-05 6.68365e-05 3.52602e-16)
(-2.78206e-05 6.43152e-05 -4.61265e-15)
(-3.1606e-05 6.18159e-05 -3.57389e-14)
(-3.46654e-05 5.92097e-05 1.81771e-14)
(-3.78518e-05 5.76449e-05 8.89055e-15)
(-4.10003e-05 5.66709e-05 -5.08824e-14)
(-4.39762e-05 5.60402e-05 8.95106e-15)
(-4.79839e-05 5.63698e-05 1.50699e-14)
(-5.18267e-05 5.66357e-05 -1.12035e-14)
(-5.40432e-05 5.59411e-05 -2.61063e-14)
(-5.61823e-05 5.44646e-05 -9.97162e-15)
(4.96729e-06 6.89566e-05 2.18057e-15)
(1.10908e-06 6.52908e-05 1.36838e-15)
(-2.74418e-06 6.30087e-05 -4.75097e-15)
(-7.25365e-06 6.3486e-05 8.68118e-15)
(-1.20526e-05 6.37261e-05 -9.89145e-15)
(-1.66582e-05 6.22897e-05 1.04274e-14)
(-2.09604e-05 5.99781e-05 -2.72047e-14)
(-2.49191e-05 5.77252e-05 -1.6123e-15)
(-2.83173e-05 5.55152e-05 2.61193e-14)
(-3.10627e-05 5.32365e-05 -6.7032e-15)
(-3.39022e-05 5.18857e-05 2.6611e-14)
(-3.67419e-05 5.1169e-05 1.71923e-14)
(-3.94933e-05 5.06878e-05 -7.02441e-15)
(-4.32655e-05 5.12022e-05 3.08886e-14)
(-4.69035e-05 5.16047e-05 1.68984e-14)
(-4.88311e-05 5.10074e-05 4.21449e-15)
(-5.06682e-05 4.9884e-05 -4.17916e-15)
(4.64011e-06 6.13315e-05 2.48915e-16)
(1.16958e-06 5.81217e-05 -6.65896e-15)
(-2.29863e-06 5.63243e-05 2.95589e-15)
(-6.40104e-06 5.68971e-05 6.40407e-15)
(-1.07215e-05 5.70904e-05 -7.25084e-15)
(-1.48802e-05 5.58193e-05 -1.05125e-14)
(-1.8747e-05 5.37516e-05 6.24895e-15)
(-2.23185e-05 5.17646e-05 -2.65332e-14)
(-2.53795e-05 4.983e-05 1.82759e-15)
(-2.78208e-05 4.78242e-05 4.47341e-14)
(-3.03501e-05 4.66865e-05 7.8391e-16)
(-3.28815e-05 4.61901e-05 -2.59605e-15)
(-3.55534e-05 4.59332e-05 -1.4521e-14)
(-3.90207e-05 4.65581e-05 -7.64385e-15)
(-4.22618e-05 4.70384e-05 1.39485e-14)
(-4.39249e-05 4.64437e-05 -3.4277e-15)
(-4.52912e-05 4.57018e-05 9.52921e-16)
(4.35222e-06 5.44982e-05 -3.35011e-17)
(1.21723e-06 5.16434e-05 3.26136e-15)
(-1.91186e-06 5.02731e-05 2.03076e-15)
(-5.63277e-06 5.08899e-05 -1.20887e-14)
(-9.53317e-06 5.10806e-05 1.69634e-14)
(-1.32683e-05 4.99409e-05 4.97749e-15)
(-1.67619e-05 4.81115e-05 2.36668e-14)
(-1.99655e-05 4.6365e-05 3.75392e-14)
(-2.27245e-05 4.46689e-05 -4.61214e-14)
(-2.49294e-05 4.29417e-05 -4.30421e-14)
(-2.72046e-05 4.20043e-05 2.1921e-15)
(-2.9487e-05 4.1655e-05 4.49143e-15)
(-3.187e-05 4.1573e-05 -1.17059e-14)
(-3.51911e-05 4.22315e-05 -2.33029e-14)
(-3.80529e-05 4.27298e-05 8.73222e-15)
(-3.96281e-05 4.23582e-05 1.01127e-15)
(-4.04958e-05 4.18232e-05 -2.23984e-14)
(-4.15143e-05 4.04372e-05 7.57593e-15)
(4.07345e-06 4.83326e-05 -6.31153e-16)
(1.24249e-06 4.58367e-05 4.91365e-15)
(-1.57687e-06 4.47962e-05 -2.37469e-15)
(-4.95631e-06 4.54535e-05 4.42292e-15)
(-8.45831e-06 4.56149e-05 -1.43374e-14)
(-1.18292e-05 4.46198e-05 -1.52003e-14)
(-1.49571e-05 4.29951e-05 1.58023e-14)
(-1.78527e-05 4.14645e-05 1.44525e-14)
(-2.03435e-05 4.00032e-05 1.54799e-14)
(-2.23283e-05 3.84951e-05 -8.84007e-15)
(-2.43664e-05 3.77269e-05 -1.10878e-14)
(-2.64622e-05 3.75243e-05 1.52341e-15)
(-2.86875e-05 3.75704e-05 5.54271e-15)
(-3.1662e-05 3.8241e-05 -1.08244e-14)
(-3.43002e-05 3.87919e-05 -2.25284e-15)
(-3.56386e-05 3.86456e-05 1.46256e-14)
(-3.63635e-05 3.81533e-05 -4.18886e-15)
(-3.72503e-05 3.72938e-05 -8.16845e-15)
(3.80554e-06 4.28307e-05 1.13262e-16)
(1.25051e-06 4.06308e-05 -2.09687e-15)
(-1.29509e-06 3.98805e-05 4.8422e-15)
(-4.35521e-06 4.05357e-05 8.48587e-15)
(-7.50956e-06 4.06883e-05 2.01259e-15)
(-1.05312e-05 3.97948e-05 -2.19815e-14)
(-1.33509e-05 3.83706e-05 -2.80508e-14)
(-1.59475e-05 3.70249e-05 6.22141e-15)
(-1.81938e-05 3.57518e-05 3.65197e-15)
(-2.00027e-05 3.44609e-05 2.92855e-14)
(-2.18698e-05 3.38364e-05 1.38445e-14)
(-2.37602e-05 3.37242e-05 5.02885e-15)
(-2.57602e-05 3.38204e-05 2.00251e-14)
(-2.85709e-05 3.45544e-05 1.63941e-15)
(-3.09704e-05 3.51403e-05 -1.39063e-14)
(-3.21103e-05 3.51478e-05 -5.24071e-15)
(-3.26752e-05 3.48208e-05 -2.65852e-15)
(-3.31191e-05 3.40989e-05 1.87007e-14)
(3.55181e-06 3.79018e-05 2.6938e-15)
(1.23597e-06 3.60087e-05 -3.70208e-15)
(-1.05836e-06 3.54667e-05 -2.52779e-15)
(-3.83369e-06 3.6124e-05 -2.37242e-15)
(-6.66267e-06 3.6242e-05 7.06135e-16)
(-9.38057e-06 3.54559e-05 2.09429e-14)
(-1.19007e-05 3.41834e-05 1.89337e-14)
(-1.42418e-05 3.30087e-05 -2.60883e-15)
(-1.62723e-05 3.19104e-05 4.81813e-15)
(-1.79059e-05 3.07836e-05 -1.45577e-14)
(-1.95939e-05 3.02609e-05 -2.06318e-14)
(-2.13504e-05 3.02142e-05 -9.09078e-15)
(-2.32285e-05 3.03739e-05 1.1581e-15)
(-2.57373e-05 3.10642e-05 4.91165e-15)
(-2.80298e-05 3.16887e-05 -8.40188e-15)
(-2.90073e-05 3.17654e-05 1.08766e-14)
(-2.93779e-05 3.15334e-05 -6.27118e-15)
(-2.95145e-05 3.1056e-05 -1.23484e-14)
(-2.99716e-05 2.99698e-05 1.63817e-14)
(3.30037e-06 3.3561e-05 -2.49812e-16)
(1.19659e-06 3.1899e-05 3.05354e-15)
(-8.69874e-07 3.15465e-05 -3.6943e-15)
(-3.37522e-06 3.21718e-05 1.95808e-15)
(-5.92013e-06 3.22741e-05 -1.02801e-14)
(-8.34632e-06 3.15606e-05 -8.75284e-15)
(-1.06154e-05 3.04342e-05 2.61862e-15)
(-1.27033e-05 2.93948e-05 1.06939e-14)
(-1.45314e-05 2.84251e-05 3.5305e-15)
(-1.602e-05 2.74549e-05 2.31358e-15)
(-1.7573e-05 2.70128e-05 -1.85845e-14)
(-1.91593e-05 2.69835e-05 -7.37761e-15)
(-2.0855e-05 2.71281e-05 6.20361e-15)
(-2.32422e-05 2.78189e-05 -2.57357e-15)
(-2.53283e-05 2.84364e-05 1.55405e-14)
(-2.62069e-05 2.85609e-05 1.21794e-14)
(-2.6572e-05 2.85611e-05 8.45905e-15)
(-2.64834e-05 2.81845e-05 -9.92163e-15)
(-2.67932e-05 2.75021e-05 -1.41096e-14)
(3.03303e-06 2.97165e-05 -5.17445e-16)
(1.12996e-06 2.82871e-05 6.28162e-16)
(-7.20079e-07 2.80657e-05 6.25368e-15)
(-2.9843e-06 2.86698e-05 5.75101e-15)
(-5.26014e-06 2.87375e-05 -4.51407e-15)
(-7.44118e-06 2.80953e-05 -3.1947e-15)
(-9.4575e-06 2.70757e-05 -1.12815e-14)
(-1.13356e-05 2.615e-05 3.88071e-15)
(-1.29761e-05 2.53034e-05 -7.89373e-15)
(-1.43111e-05 2.44352e-05 1.47566e-14)
(-1.57024e-05 2.40445e-05 1.39169e-14)
(-1.71666e-05 2.40281e-05 5.74018e-15)
(-1.87571e-05 2.41927e-05 5.3543e-15)
(-2.08993e-05 2.48201e-05 1.23529e-14)
(-2.29218e-05 2.54576e-05 -4.94855e-15)
(-2.38136e-05 2.56682e-05 -2.24583e-14)
(-2.40113e-05 2.57961e-05 -5.4131e-15)
(-2.39092e-05 2.56031e-05 1.99146e-14)
(-2.39567e-05 2.51707e-05 2.14039e-15)
(2.7598e-06 2.63534e-05 1.08893e-16)
(1.04842e-06 2.51002e-05 -1.19496e-15)
(-6.05358e-07 2.49929e-05 2.26528e-15)
(-2.64308e-06 2.5555e-05 -2.99454e-15)
(-4.68865e-06 2.56058e-05 4.38371e-15)
(-6.63598e-06 2.5007e-05 1.24083e-14)
(-8.44555e-06 2.40923e-05 -5.04607e-15)
(-1.01145e-05 2.32533e-05 -1.32482e-14)
(-1.15785e-05 2.24893e-05 -1.7517e-14)
(-1.27804e-05 2.17264e-05 4.15516e-16)
(-1.40405e-05 2.13791e-05 -4.20718e-15)
(-1.53387e-05 2.13619e-05 -4.66814e-16)
(-1.67591e-05 2.1505e-05 1.02196e-14)
(-1.88098e-05 2.21376e-05 -1.46554e-14)
(-2.06653e-05 2.27586e-05 -4.35873e-15)
(-2.1618e-05 2.30228e-05 7.96642e-15)
(-2.19393e-05 2.32362e-05 -1.0396e-14)
(-2.17241e-05 2.31155e-05 4.45261e-15)
(-2.16032e-05 2.29505e-05 5.77909e-15)
(-2.18175e-05 2.22989e-05 -1.27446e-14)
(2.49558e-06 2.33798e-05 -6.24228e-17)
(9.59295e-07 2.23025e-05 1.42646e-15)
(-5.1428e-07 2.22683e-05 -5.2179e-15)
(-2.35163e-06 2.28057e-05 -4.89443e-15)
(-4.18328e-06 2.28256e-05 -1.4222e-15)
(-5.93367e-06 2.22807e-05 1.32248e-14)
(-7.54202e-06 2.14357e-05 -6.07086e-15)
(-9.03673e-06 2.06771e-05 -1.03096e-14)
(-1.03432e-05 1.99935e-05 1.44269e-14)
(-1.14026e-05 1.92971e-05 -6.30223e-15)
(-1.25112e-05 1.89785e-05 1.15718e-14)
(-1.36898e-05 1.89708e-05 -9.46979e-15)
(-1.50099e-05 1.91389e-05 -1.07948e-15)
(-1.68422e-05 1.97154e-05 1.35083e-14)
(-1.86498e-05 2.0338e-05 -2.04684e-14)
(-1.95926e-05 2.06382e-05 -4.35562e-15)
(-1.98571e-05 2.08354e-05 2.17825e-14)
(-1.99047e-05 2.09116e-05 -9.28236e-16)
(-1.97356e-05 2.07425e-05 -2.84571e-15)
(-1.97833e-05 2.03541e-05 2.4184e-15)
(2.24494e-06 2.07704e-05 5.03764e-16)
(8.69017e-07 1.98103e-05 -1.88013e-15)
(-4.4268e-07 1.98496e-05 -2.59334e-15)
(-2.09139e-06 2.03465e-05 8.59415e-15)
(-3.74011e-06 2.03611e-05 -8.55342e-15)
(-5.30179e-06 1.98536e-05 -1.10325e-14)
(-6.74969e-06 1.90898e-05 1.56851e-14)
(-8.07117e-06 1.8395e-05 -5.71062e-15)
(-9.23206e-06 1.77661e-05 -6.03316e-15)
(-1.01764e-05 1.71475e-05 -8.22056e-16)
(-1.11666e-05 1.68587e-05 -3.4524e-15)
(-1.21953e-05 1.68473e-05 1.98986e-14)
(-1.33594e-05 1.69961e-05 9.57899e-16)
(-1.51077e-05 1.75722e-05 -5.43245e-15)
(-1.67523e-05 1.81515e-05 3.23263e-15)
(-1.77304e-05 1.84566e-05 -5.81768e-15)
(-1.82155e-05 1.87097e-05 1.82516e-15)
(-1.80774e-05 1.87698e-05 1.22535e-14)
(-1.80117e-05 1.86814e-05 -4.06368e-15)
(-1.77555e-05 1.82292e-05 -2.07011e-15)
(2.00348e-06 1.84373e-05 -2.30838e-16)
(7.78718e-07 1.7598e-05 1.51775e-16)
(-3.82267e-07 1.76718e-05 1.23757e-15)
(-1.86537e-06 1.81543e-05 -6.44819e-15)
(-3.33835e-06 1.81568e-05 1.79117e-15)
(-4.74652e-06 1.77001e-05 -1.63101e-14)
(-6.03101e-06 1.70001e-05 8.49043e-15)
(-7.21827e-06 1.63699e-05 2.45727e-14)
(-8.24819e-06 1.58058e-05 -2.09942e-14)
(-9.07567e-06 1.52354e-05 -1.93369e-14)
(-9.93563e-06 1.49683e-05 -9.66535e-15)
(-1.08636e-05 1.49653e-05 -1.38551e-15)
(-1.19383e-05 1.51312e-05 5.62553e-15)
(-1.34809e-05 1.56401e-05 4.09357e-15)
(-1.50618e-05 1.6192e-05 2.22678e-15)
(-1.59768e-05 1.64806e-05 -1.57198e-14)
(-1.64283e-05 1.66674e-05 -1.67396e-14)
(-1.66196e-05 1.6748e-05 7.46549e-15)
(-1.63237e-05 1.65466e-05 4.94252e-15)
(-1.59097e-05 1.61024e-05 -6.91631e-15)
(-1.57039e-05 1.55932e-05 4.77827e-15)
(1.7808e-06 1.63559e-05 1.18105e-16)
(7.00765e-07 1.56243e-05 3.31681e-16)
(-3.34025e-07 1.57262e-05 1.75229e-15)
(-1.65867e-06 1.61682e-05 1.24683e-15)
(-2.98275e-06 1.61795e-05 1.04665e-14)
(-4.24188e-06 1.5764e-05 1.92841e-14)
(-5.39886e-06 1.51403e-05 -2.16402e-14)
(-6.45098e-06 1.45663e-05 1.1913e-14)
(-7.36457e-06 1.40521e-05 1.0436e-14)
(-8.09962e-06 1.3549e-05 7.57909e-15)
(-8.86647e-06 1.33122e-05 -2.14499e-15)
(-9.66703e-06 1.33078e-05 8.36429e-15)
(-1.06011e-05 1.34495e-05 8.31837e-16)
(-1.20574e-05 1.39425e-05 -3.51238e-15)
(-1.34628e-05 1.44299e-05 5.70765e-15)
(-1.4347e-05 1.46804e-05 -1.32499e-15)
(-1.4872e-05 1.48702e-05 9.43235e-16)
(-1.47997e-05 1.48204e-05 -5.17369e-15)
(-1.4716e-05 1.46295e-05 -5.33642e-15)
(-1.45625e-05 1.43638e-05 8.5307e-15)
(-1.44489e-05 1.40475e-05 -3.64031e-15)
(1.58718e-06 1.44631e-05 4.32073e-16)
(6.35663e-07 1.38591e-05 -1.86159e-15)
(-2.87068e-07 1.39643e-05 -1.27221e-15)
(-1.4732e-06 1.43722e-05 2.29787e-15)
(-2.65609e-06 1.43826e-05 -6.83128e-15)
(-3.79035e-06 1.40236e-05 4.91201e-15)
(-4.82031e-06 1.34625e-05 -8.18559e-15)
(-5.76609e-06 1.29546e-05 -1.6818e-14)
(-6.58058e-06 1.25025e-05 -2.27156e-15)
(-7.22333e-06 1.20474e-05 9.25958e-15)
(-7.88846e-06 1.1837e-05 9.6299e-15)
(-8.61019e-06 1.18462e-05 3.50266e-15)
(-9.46557e-06 1.20021e-05 2.88569e-15)
(-1.07223e-05 1.24279e-05 -1.50707e-15)
(-1.20378e-05 1.28767e-05 5.87937e-15)
(-1.28147e-05 1.30978e-05 -2.44143e-15)
(-1.322e-05 1.32041e-05 3.8204e-15)
(-1.33695e-05 1.3183e-05 7.06639e-15)
(-1.32087e-05 1.3043e-05 -1.71503e-15)
(-1.31895e-05 1.29271e-05 7.8059e-15)
(-1.32866e-05 1.27355e-05 -1.23691e-15)
(1.42081e-06 1.27594e-05 2.39242e-16)
(5.80148e-07 1.22409e-05 -3.92892e-16)
(-2.43566e-07 1.23587e-05 5.28053e-16)
(-1.29829e-06 1.27256e-05 -1.92371e-15)
(-2.36014e-06 1.27532e-05 -5.0991e-15)
(-3.36933e-06 1.24388e-05 -1.64758e-14)
(-4.29967e-06 1.19529e-05 1.80049e-14)
(-5.13717e-06 1.15078e-05 -1.04013e-14)
(-5.865e-06 1.11076e-05 -2.87719e-16)
(-6.44178e-06 1.07208e-05 8.24735e-15)
(-7.04043e-06 1.05453e-05 -1.71306e-14)
(-7.66352e-06 1.05625e-05 -1.18998e-14)
(-8.39809e-06 1.07027e-05 -3.19281e-15)
(-9.57044e-06 1.11217e-05 3.15395e-15)
(-1.07036e-05 1.15193e-05 4.88531e-15)
(-1.13954e-05 1.1704e-05 -3.19478e-15)
(-1.1789e-05 1.18254e-05 -1.88554e-15)
(-1.17663e-05 1.17782e-05 7.03334e-15)
(-1.19492e-05 1.18622e-05 -4.96878e-16)
(-1.21217e-05 1.19667e-05 5.65486e-15)
(-1.20527e-05 1.18267e-05 -1.14187e-15)
(1.27183e-06 1.12006e-05 2.7772e-16)
(5.31673e-07 1.07709e-05 -5.29198e-16)
(-2.00726e-07 1.08878e-05 5.32645e-16)
(-1.14099e-06 1.12291e-05 -4.14476e-16)
(-2.08248e-06 1.12617e-05 6.0487e-15)
(-2.98935e-06 1.10011e-05 7.74141e-15)
(-3.81219e-06 1.05796e-05 -2.55386e-15)
(-4.56924e-06 1.01991e-05 1.79294e-15)
(-5.21987e-06 9.86374e-06 -2.56679e-15)
(-5.7326e-06 9.52634e-06 -8.24223e-15)
(-6.25936e-06 9.38522e-06 9.11429e-15)
(-6.83116e-06 9.42645e-06 -2.353e-20)
(-7.50928e-06 9.59278e-06 -5.35192e-16)
(-8.50789e-06 9.96389e-06 -5.1556e-16)
(-9.54674e-06 1.0345e-05 -7.97676e-15)
(-1.0124e-05 1.05327e-05 3.26206e-15)
(-1.04104e-05 1.06542e-05 -4.21925e-15)
(-1.07225e-05 1.08808e-05 1.08784e-16)
(-1.09554e-05 1.12257e-05 6.65457e-15)
(-1.1119e-05 1.12902e-05 -6.05902e-15)
(-1.10042e-05 1.11737e-05 -1.9657e-15)
(-1.05928e-05 1.06995e-05 -2.90725e-15)
(1.14191e-06 9.79459e-06 -3.02455e-16)
(4.92628e-07 9.43156e-06 -5.03079e-17)
(-1.60949e-07 9.5548e-06 -1.52118e-15)
(-9.93515e-07 9.86028e-06 -3.53875e-15)
(-1.83315e-06 9.90693e-06 -5.14819e-16)
(-2.63604e-06 9.68658e-06 -4.96174e-15)
(-3.37502e-06 9.33381e-06 -7.51248e-15)
(-4.04555e-06 9.0105e-06 3.51567e-15)
(-4.62965e-06 8.72763e-06 2.38412e-15)
(-5.09725e-06 8.45584e-06 3.84733e-15)
(-5.58466e-06 8.3558e-06 -6.43236e-15)
(-6.09003e-06 8.41508e-06 8.484e-15)
(-6.6767e-06 8.57482e-06 -7.26382e-15)
(-7.61921e-06 8.95448e-06 -4.30064e-15)
(-8.51535e-06 9.30928e-06 1.28464e-14)
(-9.0525e-06 9.50131e-06 -3.40439e-15)
(-9.52522e-06 9.83105e-06 2.13669e-15)
(-9.92233e-06 1.02535e-05 -1.82921e-15)
(-1.01855e-05 1.04968e-05 -6.10035e-16)
(-1.01454e-05 1.05306e-05 3.38149e-15)
(-9.88978e-06 1.02546e-05 3.66592e-15)
(-9.41563e-06 9.71194e-06 -2.88567e-15)
(1.03052e-06 8.52174e-06 -6.47649e-16)
(4.56303e-07 8.23478e-06 5.87034e-16)
(-1.25367e-07 8.35032e-06 5.47138e-17)
(-8.6433e-07 8.62957e-06 2.45971e-15)
(-1.60432e-06 8.67484e-06 -1.66375e-15)
(-2.31897e-06 8.49779e-06 -2.95161e-17)
(-2.96937e-06 8.19683e-06 8.95959e-15)
(-3.57225e-06 7.93146e-06 9.45048e-15)
(-4.0977e-06 7.70518e-06 2.7904e-16)
(-4.51879e-06 7.48e-06 1.3111e-14)
(-4.9598e-06 7.41346e-06 6.21917e-15)
(-5.43985e-06 7.49668e-06 -1.20331e-14)
(-6.00132e-06 7.68008e-06 4.28643e-16)
(-6.80941e-06 8.02668e-06 -5.06203e-15)
(-7.6488e-06 8.36261e-06 -1.50996e-15)
(-8.25998e-06 8.66486e-06 8.24867e-15)
(-8.84567e-06 9.07345e-06 -1.45843e-14)
(-9.25879e-06 9.38171e-06 -1.91055e-15)
(-9.35076e-06 9.53787e-06 8.16182e-15)
(-9.18367e-06 9.43887e-06 1.22804e-15)
(-8.68797e-06 9.04364e-06 -1.42144e-15)
(-8.32183e-06 8.58086e-06 -4.08552e-15)
(9.31832e-07 7.39976e-06 9.82356e-18)
(4.22688e-07 7.16446e-06 2.68964e-16)
(-9.5271e-08 7.28159e-06 1.71385e-15)
(-7.463e-07 7.52558e-06 4.88947e-15)
(-1.40214e-06 7.57602e-06 2.16882e-15)
(-2.02696e-06 7.42618e-06 4.12859e-15)
(-2.60758e-06 7.17689e-06 3.7579e-16)
(-3.13597e-06 6.95779e-06 -1.38872e-14)
(-3.60859e-06 6.77206e-06 1.55893e-14)
(-3.99775e-06 6.60078e-06 1.25383e-15)
(-4.41722e-06 6.56504e-06 4.26221e-16)
(-4.85643e-06 6.65613e-06 6.35591e-15)
(-5.36079e-06 6.82712e-06 3.44635e-15)
(-6.13482e-06 7.16593e-06 7.24533e-15)
(-6.94479e-06 7.50899e-06 6.20654e-15)
(-7.58683e-06 7.80955e-06 -6.02648e-15)
(-8.15741e-06 8.11718e-06 2.5509e-15)
(-8.56763e-06 8.32119e-06 8.21546e-15)
(-8.61905e-06 8.35342e-06 -4.16947e-15)
(-8.13156e-06 8.13056e-06 -4.45703e-15)
(-7.67142e-06 7.86379e-06 1.32552e-15)
(-7.32612e-06 7.53701e-06 -3.61186e-15)
(8.32779e-07 6.4065e-06 2.36405e-16)
(3.82858e-07 6.2255e-06 -4.42344e-16)
(-7.27714e-08 6.3363e-06 -1.66327e-15)
(-6.46752e-07 6.55609e-06 -7.21172e-16)
(-1.21915e-06 6.59972e-06 3.67843e-15)
(-1.77174e-06 6.47696e-06 4.37747e-15)
(-2.27516e-06 6.26394e-06 -8.54675e-15)
(-2.74854e-06 6.08388e-06 -3.17595e-15)
(-3.16977e-06 5.93945e-06 -2.02551e-14)
(-3.52235e-06 5.7977e-06 9.56048e-16)
(-3.90559e-06 5.77985e-06 2.24929e-15)
(-4.3346e-06 5.87539e-06 -2.62766e-15)
(-4.83033e-06 6.04729e-06 -4.92823e-15)
(-5.52274e-06 6.33568e-06 5.79024e-15)
(-6.2859e-06 6.63951e-06 9.31734e-15)
(-6.89904e-06 6.87925e-06 -3.54373e-15)
(-7.48202e-06 7.1159e-06 -8.04425e-15)
(-7.8019e-06 7.2173e-06 4.41175e-15)
(-7.71298e-06 7.14965e-06 1.77986e-15)
(-7.43147e-06 6.99351e-06 -2.29367e-15)
(-6.92003e-06 6.75657e-06 1.50396e-15)
(-6.46841e-06 6.54935e-06 3.57013e-15)
(-6.18074e-06 6.2615e-06 3.93277e-15)
(7.36438e-07 5.54411e-06 4.12923e-16)
(3.43729e-07 5.40023e-06 -1.22722e-15)
(-5.68832e-08 5.51227e-06 -1.36383e-15)
(-5.5909e-07 5.70306e-06 -8.91921e-16)
(-1.06348e-06 5.74587e-06 1.35939e-15)
(-1.54355e-06 5.63766e-06 -6.33318e-15)
(-1.98878e-06 5.45884e-06 1.83085e-15)
(-2.40011e-06 5.30602e-06 5.59934e-15)
(-2.77482e-06 5.18566e-06 6.97691e-15)
(-3.0974e-06 5.07723e-06 -1.04815e-14)
(-3.45902e-06 5.07151e-06 -8.9464e-16)
(-3.84858e-06 5.15618e-06 4.19823e-15)
(-4.29428e-06 5.29257e-06 -8.98161e-15)
(-4.96103e-06 5.54913e-06 3.99922e-16)
(-5.67049e-06 5.8014e-06 5.87797e-15)
(-6.26291e-06 5.98888e-06 -2.50146e-15)
(-6.74986e-06 6.14877e-06 -3.78425e-15)
(-7.03768e-06 6.20318e-06 -3.53454e-15)
(-7.01099e-06 6.162e-06 6.24693e-15)
(-6.53028e-06 5.99385e-06 -1.08747e-15)
(-6.23061e-06 5.85604e-06 -5.58962e-15)
(-5.93637e-06 5.68322e-06 6.15166e-15)