/*--------------------------------*- C++ -*----------------------------------*\
| =========                 |                                                 |
| \\      /  F ield         | OpenFOAM: The Open Source CFD Toolbox           |
|  \\    /   O peration     | Version:  2506                                  |
|   \\  /    A nd           | Website:  www.openfoam.com                      |
|    \\/     M anipulation  |                                                 |
\*---------------------------------------------------------------------------*/
FoamFile
{
    version     2.0;
    format      ascii;
    arch        "LSB;label=32;scalar=64";
    class       volScalarField;
    location    "350";
    object      turbulenceProperties:k;
}
// * * * * * * * * * * * * * * * * * * * * * * * * * * * * * * * * * * * * * //

dimensions      [0 2 -2 0 0 0 0];

internalField   nonuniform List<scalar> 
1340
(
0.000509997
0.000504013
0.000497423
0.000489208
0.000478417
0.000433
0.000427642
0.000421936
0.000415043
0.000406011
0.000395603
0.000370114
0.000365319
0.000360319
0.000354482
0.000346873
0.000338293
0.000328848
0.000318131
0.000313864
0.000309473
0.000304484
0.00029805
0.00029092
0.000283237
0.000274924
0.000274809
0.000270995
0.000267141
0.000262832
0.000257368
0.000251406
0.000245071
0.000238232
0.000230881
0.000238411
0.000234994
0.000231603
0.000227866
0.000223193
0.000218177
0.000212892
0.000207219
0.0002012
0.000195024
0.000207612
0.000204561
0.000201557
0.000198304
0.000194287
0.000190043
0.00018559
0.000180843
0.000175876
0.000170833
0.000181391
0.000178672
0.000176007
0.000173154
0.000169688
0.000166075
0.000162292
0.000158289
0.000154163
0.000150014
0.00014582
0.00015895
0.000156524
0.000154157
0.000151644
0.000148638
0.000145548
0.000142307
0.000138911
0.000135457
0.000132017
0.000128567
0.000139651
0.000137482
0.000135376
0.000133156
0.00013054
0.000127876
0.000125088
0.000122188
0.000119278
0.000116404
0.000113548
0.000110688
0.000122979
0.00012104
0.000119161
0.000117195
0.000114915
0.000112599
0.000110189
0.000107701
0.00010523
0.000102812
0.000100429
9.80623e-05
0.000108522
0.000106788
0.000105108
0.000103366
0.000101371
9.93461e-05
9.72505e-05
9.51056e-05
9.29969e-05
9.09492e-05
8.89475e-05
8.69715e-05
9.59404e-05
9.43911e-05
9.2885e-05
9.13376e-05
8.95867e-05
8.78103e-05
8.59812e-05
8.41234e-05
8.23119e-05
8.05658e-05
7.88702e-05
7.72118e-05
7.55748e-05
8.49581e-05
8.35735e-05
8.2223e-05
8.08452e-05
7.93029e-05
7.77382e-05
7.61367e-05
7.45185e-05
7.29547e-05
7.14568e-05
7.00118e-05
6.86067e-05
6.723e-05
7.53457e-05
7.41048e-05
7.28968e-05
7.16665e-05
7.03047e-05
6.89226e-05
6.75146e-05
6.60998e-05
6.4741e-05
6.34477e-05
6.22075e-05
6.10109e-05
5.98455e-05
5.86874e-05
6.69099e-05
6.57975e-05
6.4716e-05
6.36156e-05
6.24108e-05
6.1187e-05
5.99441e-05
5.87034e-05
5.7518e-05
5.63946e-05
5.53239e-05
5.42968e-05
5.33015e-05
5.23174e-05
5.94888e-05
5.84931e-05
5.75234e-05
5.65373e-05
5.547e-05
5.4384e-05
5.32836e-05
5.21922e-05
5.11524e-05
5.01721e-05
4.92418e-05
4.83549e-05
4.74996e-05
4.66583e-05
5.29476e-05
5.20567e-05
5.11872e-05
5.03026e-05
4.93549e-05
4.83895e-05
4.74123e-05
4.6449e-05
4.55347e-05
4.46751e-05
4.38621e-05
4.30905e-05
4.23507e-05
4.16267e-05
4.09002e-05
4.71718e-05
4.63733e-05
4.55941e-05
4.48007e-05
4.39575e-05
4.30979e-05
4.22296e-05
4.13761e-05
4.0569e-05
3.98118e-05
3.90978e-05
3.84229e-05
3.77785e-05
3.71506e-05
3.65245e-05
4.20622e-05
4.13462e-05
4.06488e-05
3.99371e-05
3.91848e-05
3.8419e-05
3.76464e-05
3.68885e-05
3.61737e-05
3.55041e-05
3.48746e-05
3.42813e-05
3.37167e-05
3.31691e-05
3.26253e-05
3.75352e-05
3.68934e-05
3.62689e-05
3.56309e-05
3.49585e-05
3.42759e-05
3.35876e-05
3.29135e-05
3.22786e-05
3.16848e-05
3.11271e-05
3.06029e-05
3.01063e-05
2.96264e-05
2.91513e-05
2.86717e-05
3.35191e-05
3.29438e-05
3.23842e-05
3.18126e-05
3.12116e-05
3.06023e-05
2.99886e-05
2.93883e-05
2.88232e-05
2.8295e-05
2.77994e-05
2.7335e-05
2.68951e-05
2.64718e-05
2.60557e-05
2.56372e-05
2.94357e-05
2.89347e-05
2.84223e-05
2.7885e-05
2.73411e-05
2.67936e-05
2.62584e-05
2.57548e-05
2.52841e-05
2.48424e-05
2.4429e-05
2.40388e-05
2.36641e-05
2.3297e-05
2.29297e-05
2.25526e-05
2.63161e-05
2.58682e-05
2.54087e-05
2.49283e-05
2.44428e-05
2.39542e-05
2.34767e-05
2.30275e-05
2.26074e-05
2.22132e-05
2.18444e-05
2.14968e-05
2.11638e-05
2.0839e-05
2.05155e-05
2.01848e-05
2.35393e-05
2.31387e-05
2.27272e-05
2.22976e-05
2.18645e-05
2.14284e-05
2.10025e-05
2.06013e-05
2.02259e-05
1.98737e-05
1.95438e-05
1.92337e-05
1.89374e-05
1.86488e-05
1.83629e-05
1.80725e-05
2.1065e-05
2.07069e-05
2.03385e-05
1.99548e-05
1.95683e-05
1.91795e-05
1.87996e-05
1.84413e-05
1.81059e-05
1.77908e-05
1.74958e-05
1.72184e-05
1.69537e-05
1.66972e-05
1.6444e-05
1.61879e-05
1.59222e-05
1.88582e-05
1.85383e-05
1.8209e-05
1.78664e-05
1.7522e-05
1.71755e-05
1.68366e-05
1.65171e-05
1.62174e-05
1.59355e-05
1.56713e-05
1.54232e-05
1.51868e-05
1.49582e-05
1.47334e-05
1.45071e-05
1.42739e-05
1.68887e-05
1.66029e-05
1.63088e-05
1.60034e-05
1.56967e-05
1.53881e-05
1.50864e-05
1.48014e-05
1.4534e-05
1.42819e-05
1.40456e-05
1.38235e-05
1.3612e-05
1.34084e-05
1.32089e-05
1.30087e-05
1.28036e-05
1.51295e-05
1.48744e-05
1.46119e-05
1.434e-05
1.40673e-05
1.3793e-05
1.35247e-05
1.3271e-05
1.30325e-05
1.28072e-05
1.2596e-05
1.23974e-05
1.22086e-05
1.2027e-05
1.18497e-05
1.16727e-05
1.1492e-05
1.13032e-05
1.35569e-05
1.33295e-05
1.30955e-05
1.28539e-05
1.26119e-05
1.23684e-05
1.21301e-05
1.19048e-05
1.16924e-05
1.14917e-05
1.13031e-05
1.11256e-05
1.09571e-05
1.07953e-05
1.0638e-05
1.04816e-05
1.03226e-05
1.01571e-05
1.21504e-05
1.19478e-05
1.17395e-05
1.15253e-05
1.13109e-05
1.10952e-05
1.08842e-05
1.06845e-05
1.04959e-05
1.03173e-05
1.01492e-05
9.99099e-06
9.84084e-06
9.69694e-06
9.55733e-06
9.4192e-06
9.27952e-06
9.13475e-06
1.08916e-05
1.07114e-05
1.05263e-05
1.03367e-05
1.01473e-05
9.95678e-06
9.77037e-06
9.5938e-06
9.42681e-06
9.26832e-06
9.1189e-06
8.97818e-06
8.84466e-06
8.71691e-06
8.59343e-06
8.4717e-06
8.34901e-06
8.22237e-06
8.08826e-06
9.76448e-06
9.60426e-06
9.44022e-06
9.27286e-06
9.10596e-06
8.93805e-06
8.77393e-06
8.6184e-06
8.47112e-06
8.33088e-06
8.19844e-06
8.07362e-06
7.95517e-06
7.8421e-06
7.73304e-06
7.6259e-06
7.51844e-06
7.40818e-06
7.29181e-06
8.75472e-06
8.61245e-06
8.46732e-06
8.3201e-06
8.17347e-06
8.02603e-06
7.88208e-06
7.74561e-06
7.6161e-06
7.49257e-06
7.37558e-06
7.26525e-06
7.16049e-06
7.06065e-06
6.96464e-06
6.87066e-06
6.77679e-06
6.68089e-06
6.58005e-06
7.84964e-06
7.72356e-06
7.59544e-06
7.46639e-06
7.33799e-06
7.20901e-06
7.08332e-06
6.96415e-06
6.85088e-06
6.74243e-06
6.63945e-06
6.54221e-06
6.44997e-06
6.36216e-06
6.27797e-06
6.1957e-06
6.11392e-06
6.03079e-06
5.94385e-06
5.85022e-06
7.03806e-06
6.92648e-06
6.8138e-06
6.701e-06
6.58905e-06
6.47675e-06
6.36763e-06
6.26415e-06
6.16546e-06
6.07067e-06
5.9805e-06
5.89515e-06
5.81421e-06
5.73725e-06
5.66365e-06
5.59201e-06
5.5211e-06
5.44934e-06
5.37448e-06
5.29415e-06
6.31004e-06
6.21145e-06
6.11271e-06
6.01457e-06
5.91741e-06
5.82014e-06
5.72597e-06
5.63667e-06
5.55122e-06
5.4688e-06
5.39013e-06
5.3156e-06
5.24486e-06
5.17773e-06
5.11371e-06
5.0516e-06
4.99034e-06
4.92855e-06
4.86439e-06
4.79591e-06
5.65674e-06
5.5698e-06
5.48359e-06
5.39867e-06
5.31473e-06
5.23104e-06
5.15041e-06
5.0739e-06
5.00039e-06
4.92911e-06
4.86085e-06
4.79608e-06
4.73461e-06
4.67634e-06
4.62086e-06
4.56726e-06
4.5146e-06
4.46171e-06
4.40705e-06
4.34885e-06
4.28492e-06
5.0703e-06
4.99379e-06
4.91885e-06
4.84582e-06
4.77377e-06
4.70229e-06
4.63388e-06
4.56888e-06
4.50609e-06
4.44484e-06
4.38595e-06
4.32999e-06
4.27688e-06
4.22658e-06
4.17881e-06
4.13284e-06
4.08785e-06
4.04279e-06
3.99637e-06
3.94714e-06
3.89327e-06
4.54369e-06
4.47656e-06
4.41171e-06
4.34938e-06
4.28797e-06
4.2275e-06
4.17012e-06
4.11544e-06
4.06223e-06
4.01e-06
3.95954e-06
3.91149e-06
3.86592e-06
3.82283e-06
3.78198e-06
3.74279e-06
3.70454e-06
3.6664e-06
3.62728e-06
3.58586e-06
3.54065e-06
4.07066e-06
4.01196e-06
3.95619e-06
3.90343e-06
3.85152e-06
3.801e-06
3.75355e-06
3.7081e-06
3.66344e-06
3.61926e-06
3.57638e-06
3.53548e-06
3.49669e-06
3.46005e-06
3.4254e-06
3.39223e-06
3.35996e-06
3.32787e-06
3.29507e-06
3.26045e-06
3.22275e-06
3.64567e-06
3.59451e-06
3.5469e-06
3.50268e-06
3.45928e-06
3.41775e-06
3.37919e-06
3.34197e-06
3.30493e-06
3.26795e-06
3.23188e-06
3.1974e-06
3.16469e-06
3.13383e-06
3.10469e-06
3.07685e-06
3.04982e-06
3.02301e-06
2.99566e-06
2.96686e-06
2.93554e-06
2.90024e-06
3.26375e-06
3.21933e-06
3.17905e-06
3.14244e-06
3.10666e-06
3.07323e-06
3.04266e-06
3.0127e-06
2.98245e-06
2.9519e-06
2.92193e-06
2.89323e-06
2.86597e-06
2.84025e-06
2.81595e-06
2.79274e-06
2.77025e-06
2.748e-06
2.72534e-06
2.70149e-06
2.6756e-06
2.64643e-06
2.92046e-06
2.88207e-06
2.84837e-06
2.81853e-06
2.78955e-06
2.76344e-06
2.73999e-06
2.71645e-06
2.69221e-06
2.66743e-06
2.64295e-06
2.6194e-06
2.59695e-06
2.5757e-06
2.55563e-06
2.53644e-06
2.51784e-06
2.49943e-06
2.48069e-06
2.46101e-06
2.43963e-06
2.41552e-06
2.61184e-06
2.57883e-06
2.55105e-06
2.5272e-06
2.5043e-06
2.48482e-06
2.46769e-06
2.44977e-06
2.43088e-06
2.41127e-06
2.39168e-06
2.37267e-06
2.35442e-06
2.33703e-06
2.32052e-06
2.30468e-06
2.2893e-06
2.27406e-06
2.25858e-06
2.2423e-06
2.22461e-06
2.20469e-06
2.33434e-06
2.30612e-06
2.28367e-06
2.2651e-06
2.24765e-06
2.23419e-06
2.22262e-06
2.20959e-06
2.19551e-06
2.18053e-06
2.16524e-06
2.15015e-06
2.13544e-06
2.12124e-06
2.10763e-06
2.0945e-06
2.08171e-06
2.06904e-06
2.05614e-06
2.04259e-06
2.02787e-06
2.01128e-06
1.992e-06
2.08479e-06
2.06085e-06
2.04318e-06
2.02924e-06
2.01672e-06
2.0087e-06
2.00195e-06
1.99319e-06
1.98345e-06
1.9726e-06
1.96101e-06
1.94917e-06
1.93729e-06
1.9256e-06
1.91425e-06
1.90322e-06
1.89244e-06
1.88176e-06
1.87088e-06
1.85948e-06
1.84712e-06
1.83322e-06
1.81707e-06
1.86035e-06
1.84023e-06
1.82684e-06
1.81695e-06
1.80888e-06
1.8058e-06
1.80317e-06
1.79814e-06
1.79237e-06
1.78515e-06
1.7766e-06
1.76727e-06
1.75753e-06
1.74768e-06
1.73798e-06
1.72852e-06
1.71927e-06
1.71013e-06
1.70086e-06
1.69118e-06
1.68072e-06
1.669e-06
1.65542e-06
1.65849e-06
1.64177e-06
1.63221e-06
1.62585e-06
1.62184e-06
1.6232e-06
1.62401e-06
1.62228e-06
1.62022e-06
1.61606e-06
1.60977e-06
1.60222e-06
1.59395e-06
1.58539e-06
1.57691e-06
1.56864e-06
1.5606e-06
1.55271e-06
1.54476e-06
1.53651e-06
1.52766e-06
1.5178e-06
1.50643e-06
1.47693e-06
1.46325e-06
1.45711e-06
1.4538e-06
1.45352e-06
1.45882e-06
1.46242e-06
1.4637e-06
1.46514e-06
1.46338e-06
1.45854e-06
1.45208e-06
1.44478e-06
1.43716e-06
1.42964e-06
1.42238e-06
1.41541e-06
1.40864e-06
1.40189e-06
1.39495e-06
1.38756e-06
1.37936e-06
1.36994e-06
1.31364e-06
1.30268e-06
1.29956e-06
1.29889e-06
1.30209e-06
1.31082e-06
1.31659e-06
1.32072e-06
1.32543e-06
1.32529e-06
1.32112e-06
1.31529e-06
1.30873e-06
1.30194e-06
1.29534e-06
1.28911e-06
1.28321e-06
1.27754e-06
1.27194e-06
1.26623e-06
1.26017e-06
1.25346e-06
1.24578e-06
1.237e-06
1.16677e-06
1.15825e-06
1.1578e-06
1.1594e-06
1.16588e-06
1.17752e-06
1.18493e-06
1.19189e-06
1.19961e-06
1.20015e-06
1.19601e-06
1.19066e-06
1.18493e-06
1.17911e-06
1.17356e-06
1.1684e-06
1.16357e-06
1.15896e-06
1.15441e-06
1.14977e-06
1.14485e-06
1.13938e-06
1.13309e-06
1.12587e-06
1.0347e-06
1.02834e-06
1.03022e-06
1.03378e-06
1.04336e-06
1.05732e-06
1.06598e-06
1.07601e-06
1.08643e-06
1.08657e-06
1.08205e-06
1.07742e-06
1.07282e-06
1.06814e-06
1.06368e-06
1.05953e-06
1.05563e-06
1.05186e-06
1.04812e-06
1.04426e-06
1.04014e-06
1.03552e-06
1.03016e-06
1.02398e-06
9.16008e-07
9.11593e-07
9.1544e-07
9.20664e-07
9.33147e-07
9.4874e-07
9.58338e-07
9.71708e-07
9.84636e-07
9.8352e-07
9.78595e-07
9.75117e-07
9.71876e-07
9.68242e-07
9.64597e-07
9.61129e-07
9.57787e-07
9.54487e-07
9.51145e-07
9.47663e-07
9.43912e-07
9.39706e-07
9.34811e-07
9.29149e-07
8.09425e-07
8.068e-07
8.12304e-07
8.18972e-07
8.34163e-07
8.50677e-07
8.60869e-07
8.77349e-07
8.92554e-07
8.9009e-07
8.85288e-07
8.83291e-07
8.81213e-07
8.78138e-07
8.74752e-07
8.71409e-07
8.68107e-07
8.64799e-07
8.61438e-07
8.57953e-07
8.54234e-07
8.50096e-07
8.45312e-07
8.39833e-07
7.13768e-07
7.12784e-07
7.19708e-07
7.27764e-07
7.45539e-07
7.62449e-07
7.73054e-07
7.92193e-07
8.09056e-07
8.05171e-07
8.01167e-07
8.00731e-07
7.99142e-07
7.95859e-07
7.92163e-07
7.8852e-07
7.8491e-07
7.81323e-07
7.77721e-07
7.7404e-07
7.70183e-07
7.65967e-07
7.61161e-07
7.55747e-07
6.28059e-07
6.28438e-07
6.36463e-07
6.45891e-07
6.66025e-07
6.82999e-07
6.9421e-07
7.17331e-07
7.35895e-07
7.28041e-07
7.2419e-07
7.25379e-07
7.23717e-07
7.1961e-07
7.15308e-07
7.11274e-07
7.07347e-07
7.03491e-07
6.99687e-07
6.95882e-07
6.91938e-07
6.87685e-07
6.82911e-07
6.77592e-07
6.71952e-07
5.52518e-07
5.53894e-07
5.6235e-07
5.7272e-07
5.9432e-07
6.1033e-07
6.21609e-07
6.50528e-07
6.74654e-07
6.59322e-07
6.53263e-07
6.56541e-07
6.55151e-07
6.50237e-07
6.45411e-07
6.41174e-07
6.37109e-07
6.33102e-07
6.29213e-07
6.25373e-07
6.21426e-07
6.17201e-07
6.12512e-07
6.07306e-07
6.01802e-07
4.9165e-07
4.93454e-07
5.01241e-07
5.11158e-07
5.3203e-07
5.44177e-07
5.52585e-07
5.87065e-07
6.17538e-07
5.96427e-07
5.89002e-07
5.95143e-07
5.95421e-07
5.90897e-07
5.86267e-07
5.82329e-07
5.78525e-07
5.74705e-07
5.70954e-07
5.67232e-07
5.6342e-07
5.59327e-07
5.54773e-07
5.49712e-07
5.44362e-07
4.43422e-07
4.45205e-07
4.51651e-07
4.60138e-07
4.78292e-07
4.84671e-07
4.90273e-07
5.21695e-07
5.56271e-07
5.36965e-07
5.31575e-07
5.39969e-07
5.42765e-07
5.39933e-07
5.36196e-07
5.32921e-07
5.29719e-07
5.26432e-07
5.23098e-07
5.19728e-07
5.1625e-07
5.12493e-07
5.08253e-07
5.03486e-07
4.98426e-07
3.99284e-07
4.01014e-07
4.06205e-07
4.1369e-07
4.29098e-07
4.30703e-07
4.35948e-07
4.60167e-07
4.94835e-07
4.81921e-07
4.79576e-07
4.88642e-07
4.93429e-07
4.92529e-07
4.89881e-07
4.87274e-07
4.84674e-07
4.81932e-07
4.79091e-07
4.76172e-07
4.73121e-07
4.6979e-07
4.65982e-07
4.61623e-07
4.56955e-07
3.56169e-07
3.57816e-07
3.61801e-07
3.68724e-07
3.81187e-07
3.7969e-07
3.85861e-07
4.0319e-07
4.38303e-07
4.3237e-07
4.32663e-07
4.41222e-07
4.46931e-07
4.47514e-07
4.45891e-07
4.43983e-07
4.42009e-07
4.39792e-07
4.37373e-07
4.34835e-07
4.32153e-07
4.29192e-07
4.25788e-07
4.21804e-07
4.17444e-07
3.15175e-07
3.16659e-07
3.19538e-07
3.26147e-07
3.35425e-07
3.32634e-07
3.39743e-07
3.50953e-07
3.86962e-07
3.87492e-07
3.90407e-07
3.98356e-07
4.04431e-07
4.05942e-07
4.04992e-07
4.03668e-07
4.02404e-07
4.00911e-07
3.99062e-07
3.96937e-07
3.94566e-07
3.91891e-07
3.88741e-07
3.84996e-07
3.80799e-07
2.76482e-07
2.77622e-07
2.79441e-07
2.85727e-07
2.91663e-07
2.89623e-07
2.96827e-07
3.03608e-07
3.4144e-07
3.47525e-07
3.52607e-07
3.60103e-07
3.66601e-07
3.68996e-07
3.68359e-07
3.66841e-07
3.65445e-07
3.64181e-07
3.6281e-07
3.61173e-07
3.5917e-07
3.56706e-07
3.53585e-07
3.49757e-07
3.45362e-07
2.40571e-07
2.4109e-07
2.41775e-07
2.47271e-07
2.49754e-07
2.50411e-07
2.56134e-07
2.61303e-07
3.02015e-07
3.12835e-07
3.19669e-07
3.26234e-07
3.32345e-07
3.35621e-07
3.36184e-07
3.35028e-07
3.32974e-07
3.30545e-07
3.28098e-07
3.25757e-07
3.23387e-07
3.20678e-07
3.17188e-07
3.12551e-07
3.06809e-07
2.07792e-07
2.07468e-07
2.06921e-07
2.10712e-07
2.0958e-07
2.13806e-07
2.15395e-07
2.23324e-07
2.68486e-07
2.83083e-07
2.92587e-07
2.98298e-07
3.0138e-07
3.01832e-07
3.01579e-07
3.01566e-07
3.01246e-07
2.99657e-07
2.96606e-07
2.92565e-07
2.87986e-07
2.82993e-07
2.77351e-07
2.7075e-07
2.63133e-07
2.54627e-07
1.78125e-07
1.7687e-07
1.75067e-07
1.76211e-07
1.71753e-07
1.78693e-07
1.72737e-07
1.90149e-07
2.40896e-07
2.55465e-07
2.68486e-07
2.75495e-07
2.76333e-07
2.71535e-07
2.64234e-07
2.58064e-07
2.54733e-07
2.53544e-07
2.52677e-07
2.50683e-07
2.4688e-07
2.41135e-07
2.3346e-07
2.24215e-07
2.14011e-07
2.03497e-07
1.51649e-07
1.49074e-07
1.45408e-07
1.43136e-07
1.3684e-07
1.4544e-07
1.31998e-07
1.69923e-07
2.21785e-07
2.3108e-07
2.44736e-07
2.49622e-07
2.51109e-07
2.50223e-07
2.43021e-07
2.29574e-07
2.14998e-07
2.04492e-07
2.00286e-07
2.01703e-07
2.06535e-07
2.12251e-07
2.15691e-07
2.13924e-07
2.07219e-07
1.98682e-07
1.30263e-07
1.25233e-07
1.17515e-07
1.09844e-07
1.02587e-07
1.12851e-07
1.02709e-07
1.71794e-07
2.13282e-07
2.29588e-07
2.62852e-07
2.71452e-07
2.61372e-07
2.4477e-07
2.33878e-07
2.35945e-07
2.46502e-07
2.56312e-07
2.60945e-07
2.61308e-07
2.59776e-07
2.58864e-07
2.62407e-07
2.75095e-07
2.97026e-07
3.23251e-07
1.17269e-07
1.09135e-07
9.52243e-08
7.82246e-08
6.54208e-08
7.46613e-08
8.43574e-08
1.7407e-07
1.90161e-07
2.22105e-07
2.83537e-07
3.36448e-07
3.89919e-07
4.4483e-07
4.94982e-07
5.36411e-07
5.6803e-07
5.93721e-07
6.1864e-07
6.45878e-07
6.76333e-07
7.09406e-07
7.43491e-07
7.74446e-07
7.97989e-07
8.16258e-07
1.11289e-07
1.01651e-07
8.37268e-08
5.77908e-08
3.07194e-08
3.67914e-08
7.53496e-08
1.3147e-07
1.90427e-07
4.16879e-07
6.36388e-07
8.33672e-07
9.90276e-07
1.10337e-06
1.1785e-06
1.22853e-06
1.26664e-06
1.30249e-06
1.33934e-06
1.37666e-06
1.41258e-06
1.44683e-06
1.48085e-06
1.51952e-06
1.5589e-06
1.59216e-06
)
;

boundaryField
{
    inlet
    {
        type            calculated;
        value           nonuniform List<scalar> 
26
(
1.11035e-07
1.0166e-07
8.37734e-08
5.68472e-08
2.61973e-08
3.7432e-08
8.86961e-08
9.54087e-08
4.27624e-07
8.75632e-07
1.38369e-06
1.89043e-06
2.35176e-06
2.74878e-06
3.07266e-06
3.33143e-06
3.53847e-06
3.7081e-06
3.85372e-06
3.98624e-06
4.11392e-06
4.24562e-06
4.39179e-06
4.55991e-06
4.73823e-06
4.90813e-06
)
;
    }
    outlet
    {
        type            calculated;
        value           nonuniform List<scalar> 0();
    }
    walls
    {
        type            calculated;
        value           nonuniform List<scalar> 0();
    }
    frontAndBack
    {
        type            empty;
    }
    procBoundary0to1
    {
        type            processor;
        value           nonuniform List<scalar> 
94
(
0.000568103
0.000465657
0.000465657
0.000383824
0.000383824
0.000318621
0.000318621
0.000265872
0.000265872
0.000223252
0.000223252
0.000188676
0.000165694
0.000165694
0.000141555
0.000125088
0.000125088
0.000107812
9.56966e-05
8.50092e-05
8.50092e-05
7.39308e-05
6.58544e-05
6.58544e-05
5.75061e-05
5.13208e-05
4.58098e-05
4.58098e-05
4.01543e-05
3.58851e-05
3.20735e-05
3.20735e-05
2.81746e-05
2.52051e-05
2.52051e-05
2.2156e-05
1.98393e-05
1.77698e-05
1.77698e-05
1.56408e-05
1.40278e-05
1.25878e-05
1.25878e-05
1.11003e-05
9.98017e-06
8.98053e-06
8.98053e-06
7.94235e-06
7.16551e-06
6.47105e-06
6.47105e-06
5.74647e-06
5.20553e-06
4.72052e-06
4.72052e-06
4.21255e-06
3.83238e-06
3.48964e-06
3.18021e-06
3.18021e-06
2.85931e-06
2.61257e-06
2.38755e-06
2.18152e-06
2.18152e-06
1.96966e-06
1.79839e-06
1.63977e-06
1.49337e-06
1.35919e-06
1.35919e-06
1.22735e-06
1.11791e-06
1.01714e-06
9.22914e-07
8.33883e-07
7.49968e-07
7.49968e-07
6.66271e-07
5.96322e-07
5.39047e-07
4.93394e-07
4.52262e-07
4.12958e-07
3.76341e-07
3.40625e-07
3.00381e-07
3.00381e-07
2.45353e-07
1.93131e-07
1.90823e-07
3.49795e-07
8.32489e-07
1.61851e-06
)
;
    }
    procBoundary0to4
    {
        type            processor;
        value           nonuniform List<scalar> 
72
(
0.00051467
0.000437376
0.00037419
0.000321884
0.000278235
0.000241517
0.000210428
0.000183943
0.000161258
0.000141729
0.000124851
0.00011021
9.7461e-05
8.63286e-05
7.65797e-05
6.80208e-05
6.04901e-05
5.38499e-05
4.79838e-05
4.27939e-05
3.81947e-05
3.41129e-05
2.99515e-05
2.99515e-05
2.67786e-05
2.39537e-05
2.14362e-05
1.91909e-05
1.71864e-05
1.53955e-05
1.37945e-05
1.23624e-05
1.10807e-05
9.93274e-06
8.90427e-06
7.98241e-06
7.15575e-06
6.41416e-06
5.74868e-06
5.1513e-06
4.61491e-06
4.13315e-06
3.70036e-06
3.31148e-06
2.96198e-06
2.64784e-06
2.36544e-06
2.11155e-06
1.88326e-06
1.67801e-06
1.49345e-06
1.32752e-06
1.17835e-06
1.04426e-06
9.23781e-07
8.1563e-07
7.18617e-07
6.31771e-07
5.55376e-07
4.94046e-07
4.45534e-07
4.011e-07
3.57706e-07
3.16468e-07
2.77607e-07
2.41635e-07
2.08915e-07
1.7943e-07
1.53347e-07
1.32651e-07
1.20391e-07
1.14723e-07
)
;
    }
    procBoundary0to5
    {
        type            processor;
        value           nonuniform List<scalar> 4(0.000604957 0.000598423 0.000590859 0.000581084);
    }
}


// ************************************************************************* //
