/*--------------------------------*- C++ -*----------------------------------*\
| =========                 |                                                 |
| \\      /  F ield         | OpenFOAM: The Open Source CFD Toolbox           |
|  \\    /   O peration     | Version:  2506                                  |
|   \\  /    A nd           | Website:  www.openfoam.com                      |
|    \\/     M anipulation  |                                                 |
\*---------------------------------------------------------------------------*/
FoamFile
{
    version     2.0;
    format      ascii;
    arch        "LSB;label=32;scalar=64";
    class       volScalarField;
    location    "350";
    object      turbulenceProperties:epsilon;
}
// * * * * * * * * * * * * * * * * * * * * * * * * * * * * * * * * * * * * * //

dimensions      [0 2 -3 0 0 0 0];

internalField   nonuniform List<scalar> 
1340
(
0.000197885
0.00019327
0.000188249
0.000182083
0.000174139
0.000142645
0.000139136
0.000135448
0.000131059
0.000125418
0.000119069
0.00010422
0.000101537
9.87771e-05
9.56028e-05
9.15427e-05
8.70701e-05
8.22755e-05
7.7e-05
7.49482e-05
7.28661e-05
7.05358e-05
6.75866e-05
6.43917e-05
6.10355e-05
5.75053e-05
5.74567e-05
5.5873e-05
5.42951e-05
5.25582e-05
5.03956e-05
4.80877e-05
4.56947e-05
4.318e-05
4.05565e-05
4.32447e-05
4.2014e-05
4.08104e-05
3.95041e-05
3.79006e-05
3.6216e-05
3.44828e-05
3.26696e-05
3.07992e-05
2.89374e-05
3.27934e-05
3.18364e-05
3.09083e-05
2.99189e-05
2.87192e-05
2.7478e-05
2.62056e-05
2.48821e-05
2.35341e-05
2.22038e-05
2.50329e-05
2.42882e-05
2.35691e-05
2.28113e-05
2.19071e-05
2.09842e-05
2.0039e-05
1.90628e-05
1.80819e-05
1.71217e-05
1.61777e-05
1.92222e-05
1.86398e-05
1.80804e-05
1.74959e-05
1.6809e-05
1.61174e-05
1.54077e-05
1.46811e-05
1.39601e-05
1.326e-05
1.25761e-05
1.48378e-05
1.43805e-05
1.39432e-05
1.34897e-05
1.29651e-05
1.24413e-05
1.19046e-05
1.1359e-05
1.08245e-05
1.0309e-05
9.80938e-06
9.32154e-06
1.15066e-05
1.11466e-05
1.08031e-05
1.04497e-05
1.00471e-05
9.64613e-06
9.23756e-06
8.82511e-06
8.42487e-06
8.04215e-06
7.67374e-06
7.31628e-06
8.96015e-06
8.67607e-06
8.40525e-06
8.12896e-06
7.81826e-06
7.50907e-06
7.19562e-06
6.88172e-06
6.57994e-06
6.29337e-06
6.01941e-06
5.75493e-06
7.00302e-06
6.77867e-06
6.56407e-06
6.3472e-06
6.10621e-06
5.86645e-06
5.6246e-06
5.38416e-06
5.15478e-06
4.93841e-06
4.73274e-06
4.53579e-06
4.34551e-06
5.49152e-06
5.31398e-06
5.14362e-06
4.97269e-06
4.78479e-06
4.59784e-06
4.41035e-06
4.22486e-06
4.04941e-06
3.88484e-06
3.72931e-06
3.58112e-06
3.43885e-06
4.31916e-06
4.17807e-06
4.04297e-06
3.90765e-06
3.76056e-06
3.61416e-06
3.46801e-06
3.32419e-06
3.18892e-06
3.06279e-06
2.94423e-06
2.83206e-06
2.7249e-06
2.62046e-06
3.40616e-06
3.29383e-06
3.18644e-06
3.07901e-06
2.96349e-06
2.84842e-06
2.73387e-06
2.62188e-06
2.51706e-06
2.4197e-06
2.32869e-06
2.24303e-06
2.16155e-06
2.08248e-06
2.69249e-06
2.60311e-06
2.51751e-06
2.43195e-06
2.341e-06
2.25023e-06
2.16009e-06
2.07251e-06
1.99076e-06
1.91519e-06
1.84483e-06
1.77897e-06
1.71659e-06
1.65632e-06
2.13293e-06
2.06175e-06
1.99345e-06
1.92515e-06
1.8533e-06
1.7815e-06
1.71029e-06
1.64149e-06
1.57751e-06
1.51851e-06
1.46375e-06
1.4127e-06
1.36461e-06
1.31835e-06
1.27274e-06
1.69297e-06
1.63614e-06
1.58162e-06
1.52705e-06
1.47012e-06
1.41318e-06
1.35681e-06
1.30252e-06
1.25221e-06
1.2059e-06
1.16303e-06
1.12323e-06
1.08587e-06
1.05007e-06
1.01498e-06
1.34607e-06
1.30063e-06
1.25713e-06
1.21349e-06
1.16821e-06
1.123e-06
1.07829e-06
1.0353e-06
9.95575e-07
9.59059e-07
9.2535e-07
8.94136e-07
8.64923e-07
8.37058e-07
8.09836e-07
1.07192e-06
1.03558e-06
1.00081e-06
9.65916e-07
9.29802e-07
8.93849e-07
8.58312e-07
8.24205e-07
7.92716e-07
7.63818e-07
7.37166e-07
7.12545e-07
6.89609e-07
6.67798e-07
6.46552e-07
6.25456e-07
8.5481e-07
8.25717e-07
7.97904e-07
7.69985e-07
7.41169e-07
7.12516e-07
6.84225e-07
6.57109e-07
6.3208e-07
6.09128e-07
5.87975e-07
5.68497e-07
5.50346e-07
5.33158e-07
5.16527e-07
5.00069e-07
6.59224e-07
6.36976e-07
6.14614e-07
5.916e-07
5.68746e-07
5.46195e-07
5.24596e-07
5.04666e-07
4.86387e-07
4.69543e-07
4.54046e-07
4.39657e-07
4.26059e-07
4.12942e-07
4.00024e-07
3.86976e-07
5.26902e-07
5.09115e-07
4.91191e-07
4.72792e-07
4.54559e-07
4.36566e-07
4.19334e-07
4.03444e-07
3.88856e-07
3.75415e-07
3.63052e-07
3.51592e-07
3.40783e-07
3.30401e-07
3.20223e-07
3.09982e-07
4.21571e-07
4.07345e-07
3.92985e-07
3.78271e-07
3.63718e-07
3.49355e-07
3.35606e-07
3.22908e-07
3.11248e-07
3.00502e-07
2.90609e-07
2.81458e-07
2.72855e-07
2.64602e-07
2.56549e-07
2.48501e-07
3.37603e-07
3.26223e-07
3.14721e-07
3.02957e-07
2.91337e-07
2.79873e-07
2.68896e-07
2.58746e-07
2.4942e-07
2.40814e-07
2.32893e-07
2.25568e-07
2.18686e-07
2.12117e-07
2.05732e-07
1.99375e-07
1.92885e-07
2.70574e-07
2.61472e-07
2.52265e-07
2.42862e-07
2.33589e-07
2.24443e-07
2.15675e-07
2.07566e-07
2.00102e-07
1.93207e-07
1.86854e-07
1.80983e-07
1.75479e-07
1.70234e-07
1.65156e-07
1.60123e-07
1.55016e-07
2.17009e-07
2.09728e-07
2.02363e-07
1.94854e-07
1.87458e-07
1.80161e-07
1.73165e-07
1.66685e-07
1.60715e-07
1.5519e-07
1.50097e-07
1.45388e-07
1.40973e-07
1.36786e-07
1.32746e-07
1.28754e-07
1.24725e-07
1.74155e-07
1.68331e-07
1.62443e-07
1.56455e-07
1.50561e-07
1.44747e-07
1.39169e-07
1.33998e-07
1.29224e-07
1.24797e-07
1.20714e-07
1.16938e-07
1.13403e-07
1.10054e-07
1.06832e-07
1.03666e-07
1.00481e-07
9.72054e-08
1.39832e-07
1.3518e-07
1.30475e-07
1.25707e-07
1.21019e-07
1.1639e-07
1.11949e-07
1.0783e-07
1.04016e-07
1.00475e-07
9.72043e-08
9.41758e-08
9.13453e-08
8.8667e-08
8.61011e-08
8.35882e-08
8.10712e-08
7.84931e-08
1.12322e-07
1.08609e-07
1.04854e-07
1.01063e-07
9.73389e-08
9.36616e-08
9.01337e-08
8.68555e-08
8.38165e-08
8.09893e-08
7.83711e-08
7.59468e-08
7.36812e-08
7.15421e-08
6.9497e-08
6.75027e-08
6.55155e-08
6.34871e-08
9.02549e-08
8.7293e-08
8.43028e-08
8.12933e-08
7.83418e-08
7.54273e-08
7.26294e-08
7.00282e-08
6.76116e-08
6.53574e-08
6.32671e-08
6.13295e-08
5.9519e-08
5.78121e-08
5.61857e-08
5.46053e-08
5.30351e-08
5.14384e-08
4.97741e-08
7.25414e-08
7.01803e-08
6.78035e-08
6.5421e-08
6.30872e-08
6.07822e-08
5.85706e-08
5.65126e-08
5.45976e-08
5.28049e-08
5.11394e-08
4.95941e-08
4.81496e-08
4.67907e-08
4.54982e-08
4.42462e-08
4.3008e-08
4.17558e-08
4.04543e-08
5.83139e-08
5.64341e-08
5.45482e-08
5.2668e-08
5.08281e-08
4.90109e-08
4.72687e-08
4.56461e-08
4.41325e-08
4.27125e-08
4.13892e-08
4.01602e-08
3.90104e-08
3.79301e-08
3.69056e-08
3.59163e-08
3.49417e-08
3.39597e-08
3.29423e-08
4.68799e-08
4.53861e-08
4.38929e-08
4.24142e-08
4.0968e-08
3.95405e-08
3.81739e-08
3.69002e-08
3.57097e-08
3.45881e-08
3.35396e-08
3.25645e-08
3.16527e-08
3.07968e-08
2.99871e-08
2.92063e-08
2.84403e-08
2.76722e-08
2.68801e-08
2.604e-08
3.76872e-08
3.65017e-08
3.53239e-08
3.41641e-08
3.30322e-08
3.19158e-08
3.08495e-08
2.98551e-08
2.89218e-08
2.80393e-08
2.72126e-08
2.64415e-08
2.57204e-08
2.5044e-08
2.44056e-08
2.37921e-08
2.31926e-08
2.25935e-08
2.19771e-08
2.1325e-08
3.02938e-08
2.93545e-08
2.84287e-08
2.75233e-08
2.66413e-08
2.57727e-08
2.49455e-08
2.41735e-08
2.34461e-08
2.27551e-08
2.21052e-08
2.14981e-08
2.09298e-08
2.03975e-08
1.98962e-08
1.94158e-08
1.89478e-08
1.84815e-08
1.80034e-08
1.75001e-08
2.43457e-08
2.36031e-08
2.28781e-08
2.21751e-08
2.14909e-08
2.08195e-08
2.01826e-08
1.95875e-08
1.90241e-08
1.84856e-08
1.79772e-08
1.75013e-08
1.70556e-08
1.66383e-08
1.62459e-08
1.58712e-08
1.55074e-08
1.51461e-08
1.47773e-08
1.43896e-08
1.39696e-08
1.95595e-08
1.89736e-08
1.84085e-08
1.7866e-08
1.73387e-08
1.68234e-08
1.63375e-08
1.58824e-08
1.54488e-08
1.50318e-08
1.46361e-08
1.4265e-08
1.39172e-08
1.35918e-08
1.32863e-08
1.29956e-08
1.27143e-08
1.24355e-08
1.21516e-08
1.1854e-08
1.15327e-08
1.57075e-08
1.52468e-08
1.48083e-08
1.43928e-08
1.39894e-08
1.35976e-08
1.3231e-08
1.28863e-08
1.25553e-08
1.22346e-08
1.19286e-08
1.16408e-08
1.13712e-08
1.11191e-08
1.08828e-08
1.06584e-08
1.04417e-08
1.02278e-08
1.00107e-08
9.7834e-09
9.53824e-09
1.26072e-08
1.22463e-08
1.19082e-08
1.15927e-08
1.12865e-08
1.09924e-08
1.07197e-08
1.04617e-08
1.02112e-08
9.96642e-09
9.73168e-09
9.51036e-09
9.30283e-09
9.10892e-09
8.92743e-09
8.75533e-09
8.58956e-09
8.42627e-09
8.261e-09
8.0883e-09
7.90234e-09
1.01122e-08
9.8304e-09
9.57172e-09
9.33457e-09
9.1047e-09
8.88742e-09
8.68805e-09
8.49776e-09
8.31044e-09
8.12553e-09
7.94716e-09
7.77851e-09
7.62016e-09
7.47231e-09
7.334e-09
7.20303e-09
7.07705e-09
6.95317e-09
6.82793e-09
6.6973e-09
6.55662e-09
6.39989e-09
8.10449e-09
7.8854e-09
7.68931e-09
7.51326e-09
7.34316e-09
7.18597e-09
7.04374e-09
6.90577e-09
6.76778e-09
6.62987e-09
6.49596e-09
6.36899e-09
6.24954e-09
6.13785e-09
6.03331e-09
5.93425e-09
5.83905e-09
5.74566e-09
5.65128e-09
5.55281e-09
5.4469e-09
5.32878e-09
6.48926e-09
6.31979e-09
6.17286e-09
6.04421e-09
5.92058e-09
5.8103e-09
5.71213e-09
5.61441e-09
5.51466e-09
5.41362e-09
5.31473e-09
5.22045e-09
5.13137e-09
5.04775e-09
4.96936e-09
4.89502e-09
4.82349e-09
4.75324e-09
4.68223e-09
4.60822e-09
4.5285e-09
4.43944e-09
5.19021e-09
5.05985e-09
4.95144e-09
4.85931e-09
4.77166e-09
4.69774e-09
4.63322e-09
4.56616e-09
4.49605e-09
4.42382e-09
4.35222e-09
4.28333e-09
4.21768e-09
4.15563e-09
4.0971e-09
4.04136e-09
3.9876e-09
3.93472e-09
3.88132e-09
3.82557e-09
3.76544e-09
3.6983e-09
4.14592e-09
4.0463e-09
3.9679e-09
3.90364e-09
3.84376e-09
3.79786e-09
3.75864e-09
3.71474e-09
3.66754e-09
3.61768e-09
3.56714e-09
3.5176e-09
3.46961e-09
3.42363e-09
3.37984e-09
3.33786e-09
3.29724e-09
3.25722e-09
3.21674e-09
3.17449e-09
3.12889e-09
3.07791e-09
3.01919e-09
3.30687e-09
3.23138e-09
3.1762e-09
3.13303e-09
3.09448e-09
3.06994e-09
3.04935e-09
3.02276e-09
2.99328e-09
2.96064e-09
2.92597e-09
2.89074e-09
2.85562e-09
2.82126e-09
2.7881e-09
2.75605e-09
2.72493e-09
2.69425e-09
2.66321e-09
2.63085e-09
2.59599e-09
2.55707e-09
2.51222e-09
2.6332e-09
2.57656e-09
2.53921e-09
2.5118e-09
2.48954e-09
2.48108e-09
2.47387e-09
2.4601e-09
2.44435e-09
2.42471e-09
2.40153e-09
2.37638e-09
2.35025e-09
2.324e-09
2.29828e-09
2.27332e-09
2.24906e-09
2.22521e-09
2.20116e-09
2.17617e-09
2.14934e-09
2.11946e-09
2.08512e-09
2.09276e-09
2.0508e-09
2.02699e-09
2.01122e-09
2.00131e-09
2.00468e-09
2.0067e-09
2.00244e-09
1.99736e-09
1.98712e-09
1.97169e-09
1.95324e-09
1.93313e-09
1.91243e-09
1.89203e-09
1.87224e-09
1.85309e-09
1.8344e-09
1.81568e-09
1.79633e-09
1.77571e-09
1.75286e-09
1.7267e-09
1.65965e-09
1.62905e-09
1.61541e-09
1.60808e-09
1.60747e-09
1.61922e-09
1.62723e-09
1.6301e-09
1.6333e-09
1.62939e-09
1.61863e-09
1.60434e-09
1.58826e-09
1.57154e-09
1.55513e-09
1.53939e-09
1.52434e-09
1.50978e-09
1.49535e-09
1.48058e-09
1.46494e-09
1.44768e-09
1.42799e-09
1.31295e-09
1.29114e-09
1.28497e-09
1.28364e-09
1.28998e-09
1.30735e-09
1.31889e-09
1.32718e-09
1.33667e-09
1.3364e-09
1.32801e-09
1.31631e-09
1.30321e-09
1.28972e-09
1.2767e-09
1.26444e-09
1.25289e-09
1.24184e-09
1.23099e-09
1.21995e-09
1.2083e-09
1.19548e-09
1.18087e-09
1.16429e-09
1.03579e-09
1.0207e-09
1.01992e-09
1.02275e-09
1.03422e-09
1.05497e-09
1.0683e-09
1.0809e-09
1.09495e-09
1.09593e-09
1.08839e-09
1.07869e-09
1.06832e-09
1.05785e-09
1.04793e-09
1.03874e-09
1.03017e-09
1.02202e-09
1.01401e-09
1.00587e-09
9.97277e-10
9.87775e-10
9.76894e-10
9.64482e-10
8.14575e-10
8.04592e-10
8.07534e-10
8.13129e-10
8.28277e-10
8.50585e-10
8.64583e-10
8.80941e-10
8.9809e-10
8.98313e-10
8.90864e-10
8.83267e-10
8.75744e-10
8.68113e-10
8.60875e-10
8.54177e-10
8.47897e-10
8.41862e-10
8.35881e-10
8.29739e-10
8.23191e-10
8.15898e-10
8.07483e-10
7.97817e-10
6.38407e-10
6.32269e-10
6.37618e-10
6.44919e-10
6.6253e-10
6.84861e-10
6.98792e-10
7.18431e-10
7.37678e-10
7.36012e-10
7.28662e-10
7.23492e-10
7.18693e-10
7.13327e-10
7.07967e-10
7.02886e-10
6.98005e-10
6.93203e-10
6.88357e-10
6.83326e-10
6.77927e-10
6.71898e-10
6.64916e-10
6.56886e-10
4.98487e-10
4.9526e-10
5.02041e-10
5.10319e-10
5.2943e-10
5.50603e-10
5.6388e-10
5.85678e-10
6.06158e-10
6.0282e-10
5.96334e-10
5.93648e-10
5.90858e-10
5.86742e-10
5.82224e-10
5.77782e-10
5.73411e-10
5.69049e-10
5.64634e-10
5.60074e-10
5.55228e-10
5.49862e-10
5.4369e-10
5.36663e-10
3.87628e-10
3.86561e-10
3.94109e-10
4.02983e-10
4.2291e-10
4.42316e-10
4.54709e-10
4.77505e-10
4.98054e-10
4.93284e-10
4.8839e-10
4.87859e-10
4.85924e-10
4.81939e-10
4.77473e-10
4.7309e-10
4.68767e-10
4.64492e-10
4.60218e-10
4.55872e-10
4.51339e-10
4.4641e-10
4.40825e-10
4.34576e-10
3.00125e-10
3.00488e-10
3.08213e-10
3.17413e-10
3.37513e-10
3.54938e-10
3.66688e-10
3.91523e-10
4.12052e-10
4.03304e-10
3.99049e-10
4.00359e-10
3.98526e-10
3.94015e-10
3.89316e-10
3.84937e-10
3.80697e-10
3.76557e-10
3.72496e-10
3.68454e-10
3.64289e-10
3.59824e-10
3.54844e-10
3.49338e-10
3.43545e-10
2.32272e-10
2.33431e-10
2.40613e-10
2.4957e-10
2.68751e-10
2.83428e-10
2.94003e-10
3.21996e-10
3.46325e-10
3.30762e-10
3.2471e-10
3.27977e-10
3.26587e-10
3.21705e-10
3.16947e-10
3.12798e-10
3.08844e-10
3.0497e-10
3.01234e-10
2.97569e-10
2.93824e-10
2.89841e-10
2.85454e-10
2.80621e-10
2.75556e-10
1.83914e-10
1.85267e-10
1.91162e-10
1.98801e-10
2.15369e-10
2.25318e-10
2.32336e-10
2.62236e-10
2.90167e-10
2.70667e-10
2.63969e-10
2.69501e-10
2.69751e-10
2.65666e-10
2.61518e-10
2.58015e-10
2.54655e-10
2.51303e-10
2.48032e-10
2.44808e-10
2.41529e-10
2.38031e-10
2.34171e-10
2.29917e-10
2.25463e-10
1.49603e-10
1.50809e-10
1.55208e-10
1.61096e-10
1.7406e-10
1.78735e-10
1.82893e-10
2.07088e-10
2.35448e-10
2.19388e-10
2.15004e-10
2.21846e-10
2.24148e-10
2.21815e-10
2.18753e-10
2.16088e-10
2.135e-10
2.10857e-10
2.08194e-10
2.0552e-10
2.02778e-10
1.99837e-10
1.96543e-10
1.92873e-10
1.89016e-10
1.21303e-10
1.22356e-10
1.25545e-10
1.30215e-10
1.40097e-10
1.41147e-10
1.44607e-10
1.61122e-10
1.86312e-10
1.76713e-10
1.74996e-10
1.81674e-10
1.8525e-10
1.84574e-10
1.82594e-10
1.80655e-10
1.78732e-10
1.76715e-10
1.74637e-10
1.72515e-10
1.70311e-10
1.67921e-10
1.65209e-10
1.62133e-10
1.5887e-10
9.65204e-11
9.74152e-11
9.95977e-11
1.03446e-10
1.10558e-10
1.09693e-10
1.13288e-10
1.23692e-10
1.46174e-10
1.42242e-10
1.42433e-10
1.48124e-10
1.5198e-10
1.52377e-10
1.51272e-10
1.4998e-10
1.48649e-10
1.47161e-10
1.45546e-10
1.43862e-10
1.42093e-10
1.40152e-10
1.37937e-10
1.35368e-10
1.32583e-10
7.55811e-11
7.62947e-11
7.76885e-11
8.09358e-11
8.56068e-11
8.41885e-11
8.78261e-11
9.37173e-11
1.13934e-10
1.14246e-10
1.1597e-10
1.2074e-10
1.24449e-10
1.2538e-10
1.24794e-10
1.23979e-10
1.23203e-10
1.22291e-10
1.21165e-10
1.19877e-10
1.1845e-10
1.16848e-10
1.14978e-10
1.12772e-10
1.10327e-10
5.81625e-11
5.86435e-11
5.94145e-11
6.21181e-11
6.47262e-11
6.38244e-11
6.70395e-11
7.0137e-11
8.87043e-11
9.18932e-11
9.45995e-11
9.86637e-11
1.02256e-10
1.03596e-10
1.03238e-10
1.02389e-10
1.01611e-10
1.00909e-10
1.0015e-10
9.92487e-11
9.81503e-11
9.68082e-11
9.51215e-11
9.30731e-11
9.07483e-11
4.40351e-11
4.42252e-11
4.44773e-11
4.65226e-11
4.74618e-11
4.77124e-11
4.99181e-11
5.19525e-11
6.9402e-11
7.44626e-11
7.7751e-11
8.09768e-11
8.40386e-11
8.57029e-11
8.59904e-11
8.54e-11
8.4356e-11
8.31294e-11
8.19029e-11
8.07382e-11
7.95673e-11
7.824e-11
7.65461e-11
7.43241e-11
7.16179e-11
3.28528e-11
3.27502e-11
3.25781e-11
3.37828e-11
3.34209e-11
3.47827e-11
3.53018e-11
3.7948e-11
5.48474e-11
6.09728e-11
6.51347e-11
6.7702e-11
6.91079e-11
6.93151e-11
6.91989e-11
6.91925e-11
6.90456e-11
6.83189e-11
6.69343e-11
6.51228e-11
6.31001e-11
6.09309e-11
5.85254e-11
5.57726e-11
5.26785e-11
4.93274e-11
2.41416e-11
2.38027e-11
2.33197e-11
2.36258e-11
2.24455e-11
2.42964e-11
2.27036e-11
2.75111e-11
4.4154e-11
4.96557e-11
5.48464e-11
5.7747e-11
5.80981e-11
5.60977e-11
5.31214e-11
5.06695e-11
4.93696e-11
4.89095e-11
4.85754e-11
4.78116e-11
4.63719e-11
4.42386e-11
4.14672e-11
3.82479e-11
3.48457e-11
3.15056e-11
1.74983e-11
1.69092e-11
1.60877e-11
1.55891e-11
1.42478e-11
1.60951e-11
1.32574e-11
2.19695e-11
3.74261e-11
4.06285e-11
4.55719e-11
4.74096e-11
4.79755e-11
4.76373e-11
4.49341e-11
4.00988e-11
3.51684e-11
3.18152e-11
3.05201e-11
3.09531e-11
3.2454e-11
3.4275e-11
3.5395e-11
3.48174e-11
3.26688e-11
3.00324e-11
1.29111e-11
1.19331e-11
1.05076e-11
9.18064e-12
8.00772e-12
9.69028e-12
8.02682e-12
2.2456e-11
3.46115e-11
4.01058e-11
5.25683e-11
5.60641e-11
5.19771e-11
4.55836e-11
4.1617e-11
4.23555e-11
4.62305e-11
4.99833e-11
5.18065e-11
5.19506e-11
5.13434e-11
5.09832e-11
5.23883e-11
5.7577e-11
6.7123e-11
7.94989e-11
1.04638e-11
9.06258e-12
6.89951e-12
4.65597e-12
3.25654e-12
4.24147e-12
5.41464e-12
2.30553e-11
2.75142e-11
3.75339e-11
6.11681e-11
8.61272e-11
1.15678e-10
1.50553e-10
1.86415e-10
2.18925e-10
2.45495e-10
2.68203e-10
2.91189e-10
3.17395e-10
3.48032e-10
3.82901e-10
4.20579e-10
4.56326e-10
4.8449e-10
5.06925e-10
9.42389e-12
7.86228e-12
5.33402e-12
2.54122e-12
7.18045e-13
1.02995e-12
4.32003e-12
1.31516e-11
2.75916e-11
1.32232e-10
3.08151e-10
5.28824e-10
7.4616e-10
9.26315e-10
1.05676e-09
1.14836e-09
1.22072e-09
1.29079e-09
1.36485e-09
1.44196e-09
1.51819e-09
1.59269e-09
1.66846e-09
1.75673e-09
1.84895e-09
1.92867e-09
)
;

boundaryField
{
    inlet
    {
        type            calculated;
        value           nonuniform List<scalar> 
26
(
8.6432e-12
7.24518e-12
4.92e-12
2.26553e-12
4.81133e-13
9.82287e-13
5.5152e-12
6.38157e-12
1.28196e-10
5.3752e-10
1.34224e-09
2.50537e-09
3.87738e-09
5.29703e-09
6.61882e-09
7.78062e-09
8.77776e-09
9.63951e-09
1.04115e-08
1.11399e-08
1.18649e-08
1.26367e-08
1.35218e-08
1.45769e-08
1.57393e-08
1.68882e-08
)
;
    }
    outlet
    {
        type            calculated;
        value           nonuniform List<scalar> 0();
    }
    walls
    {
        type            calculated;
        value           nonuniform List<scalar> 0();
    }
    frontAndBack
    {
        type            empty;
    }
    procBoundary0to1
    {
        type            processor;
        value           nonuniform List<scalar> 
94
(
0.000245548
0.000164973
0.000164973
0.000112084
0.000112084
7.72381e-05
7.72381e-05
5.3781e-05
5.3781e-05
3.79207e-05
3.79207e-05
2.70842e-05
2.0888e-05
2.0888e-05
1.52453e-05
1.19046e-05
1.19046e-05
8.84343e-06
6.96754e-06
5.49817e-06
5.49817e-06
4.15851e-06
3.29956e-06
3.29956e-06
2.51602e-06
2.00389e-06
1.59663e-06
1.59663e-06
1.22674e-06
9.79751e-07
7.82673e-07
7.82673e-07
6.03952e-07
4.83354e-07
4.83354e-07
3.73483e-07
2.99461e-07
2.40246e-07
2.40246e-07
1.86126e-07
1.49716e-07
1.20557e-07
1.20557e-07
9.37478e-08
7.57823e-08
6.13616e-08
6.13616e-08
4.79945e-08
3.90651e-08
3.18599e-08
3.18599e-08
2.51246e-08
2.06171e-08
1.69542e-08
1.69542e-08
1.35018e-08
1.11747e-08
9.26539e-09
7.6951e-09
7.6951e-09
6.22053e-09
5.19326e-09
4.33723e-09
3.621e-09
3.621e-09
2.95183e-09
2.46083e-09
2.04588e-09
1.69689e-09
1.40565e-09
1.40565e-09
1.1462e-09
9.50892e-10
7.87193e-10
6.48099e-10
5.29086e-10
4.27955e-10
4.27955e-10
3.3776e-10
2.7056e-10
2.21081e-10
1.85218e-10
1.55623e-10
1.29749e-10
1.07759e-10
8.82757e-11
6.86485e-11
6.86485e-11
4.57995e-11
2.83776e-11
2.77035e-11
9.30912e-11
5.2728e-10
1.99303e-09
)
;
    }
    procBoundary0to4
    {
        type            processor;
        value           nonuniform List<scalar> 
72
(
0.000201528
0.000145542
0.000106528
7.88276e-05
5.88984e-05
4.43789e-05
3.3689e-05
2.57424e-05
1.97844e-05
1.52827e-05
1.18596e-05
9.2411e-06
7.22679e-06
5.67013e-06
4.46181e-06
3.5202e-06
2.7839e-06
2.20625e-06
1.75176e-06
1.39331e-06
1.10992e-06
8.85365e-07
6.8253e-07
6.8253e-07
5.45582e-07
4.36547e-07
3.49609e-07
2.80204e-07
2.24727e-07
1.80332e-07
1.44777e-07
1.16277e-07
9.34152e-08
7.50629e-08
6.03231e-08
4.84792e-08
3.89581e-08
3.13017e-08
2.51434e-08
2.01894e-08
1.62038e-08
1.29973e-08
1.04178e-08
8.34322e-09
6.67507e-09
5.33428e-09
4.25714e-09
3.3923e-09
2.69846e-09
2.14231e-09
1.69698e-09
1.34085e-09
1.05644e-09
8.29688e-10
6.49287e-10
5.06157e-10
3.92912e-10
3.03683e-10
2.34681e-10
1.85711e-10
1.51031e-10
1.22409e-10
9.73552e-11
7.62024e-11
5.86368e-11
4.44252e-11
3.32088e-11
2.44965e-11
1.78924e-11
1.33888e-11
1.10284e-11
1.00144e-11
)
;
    }
    procBoundary0to5
    {
        type            processor;
        value           nonuniform List<scalar> 4(0.000278437 0.000272456 0.000265612 0.000256897);
    }
}


// ************************************************************************* //
