/*--------------------------------*- C++ -*----------------------------------*\
| =========                 |                                                 |
| \\      /  F ield         | OpenFOAM: The Open Source CFD Toolbox           |
|  \\    /   O peration     | Version:  2506                                  |
|   \\  /    A nd           | Website:  www.openfoam.com                      |
|    \\/     M anipulation  |                                                 |
\*---------------------------------------------------------------------------*/
FoamFile
{
    version     2.0;
    format      ascii;
    arch        "LSB;label=32;scalar=64";
    class       surfaceScalarField;
    location    "6";
    object      phi;
}
// * * * * * * * * * * * * * * * * * * * * * * * * * * * * * * * * * * * * * //

dimensions      [0 3 -1 0 0 0 0];

oriented        oriented;

internalField   nonuniform List<scalar> 
760
(
-3.70886e-06
3.70885e-06
-1.24473e-05
8.73848e-06
-2.3208e-05
1.07606e-05
-3.46918e-05
1.14839e-05
-4.66009e-05
1.1909e-05
-5.89188e-05
1.23179e-05
-7.15963e-05
1.26775e-05
-8.4408e-05
1.28117e-05
-9.68462e-05
1.24383e-05
-0.000108013
1.11672e-05
-0.000116541
8.52723e-06
-0.000120613
4.07221e-06
-0.00011807
-2.54284e-06
-0.000107269
-1.08012e-05
-8.78686e-05
-1.94002e-05
-6.20324e-05
-2.58362e-05
-3.47253e-05
-2.73071e-05
-1.24362e-05
-2.2289e-05
-5.31122e-07
-1.19051e-05
-5.31106e-07
-9.93213e-06
1.3641e-05
-2.83635e-05
2.71698e-05
-5.02546e-05
3.26518e-05
-7.35694e-05
3.47986e-05
-9.75859e-05
3.59256e-05
-0.000121996
3.67281e-05
-0.000146441
3.71223e-05
-0.000170267
3.66377e-05
-0.000192363
3.45343e-05
-0.000211033
2.98371e-05
-0.000223944
2.14381e-05
-0.000228252
8.38086e-06
-0.000221005
-9.78978e-06
-0.000199639
-3.21681e-05
-0.000164089
-5.49496e-05
-0.000117964
-7.19611e-05
-6.93448e-05
-7.59265e-05
-2.88919e-05
-6.27419e-05
-5.01651e-06
-3.57805e-05
-5.54761e-06
-1.33639e-05
2.70049e-05
-3.70683e-05
5.08742e-05
-6.47748e-05
6.03582e-05
-9.40856e-05
6.41094e-05
-0.000124119
6.5959e-05
-0.000154445
6.70544e-05
-0.000184581
6.72577e-05
-0.000213729
6.57863e-05
-0.00024061
6.14154e-05
-0.000263312
5.25392e-05
-0.000279194
3.73196e-05
-0.000284958
1.41452e-05
-0.000276761
-1.79867e-05
-0.000250976
-5.79536e-05
-0.00020642
-9.9505e-05
-0.00014692
-0.000131462
-8.34148e-05
-0.000139431
-3.17702e-05
-0.000114386
-3.97177e-06
-6.3579e-05
-9.51938e-06
-1.48748e-05
4.18798e-05
-4.11666e-05
7.7166e-05
-7.17556e-05
9.09472e-05
-0.000104045
9.63986e-05
-0.000137155
9.90695e-05
-0.000170726
0.000100625
-0.000204382
0.000100914
-0.000237477
9.8881e-05
-0.000268905
9.28433e-05
-0.000296898
8.05321e-05
-0.000318772
5.91943e-05
-0.000330738
2.61113e-05
-0.000327891
-2.08344e-05
-0.000303633
-8.22116e-05
-0.000253542
-0.000149595
-0.000179868
-0.000205135
-9.69521e-05
-0.000222348
-2.98267e-05
-0.000181512
8.87563e-07
-9.42932e-05
-8.63183e-06
-1.52824e-05
5.71622e-05
-4.2532e-05
0.000104416
-7.43293e-05
0.000122745
-0.000108016
0.000130085
-0.000142822
0.000133875
-0.000178599
0.000136403
-0.000215285
0.000137599
-0.000252643
0.00013624
-0.000290071
0.000130271
-0.000326344
0.000116805
-0.00035918
9.20296e-05
-0.000384381
5.13124e-05
-0.000396451
-8.76424e-06
-0.000383096
-9.55667e-05
-0.000333694
-0.000198997
-0.000245029
-0.000293801
-0.000133647
-0.00033373
-3.66403e-05
-0.000278519
7.63298e-06
-0.000138567
-9.98864e-07
-1.50206e-05
7.21828e-05
-4.22219e-05
0.000131617
-7.42132e-05
0.000154736
-0.000108373
0.000164245
-0.000144105
0.000169607
-0.000181583
0.000173881
-0.000221223
0.000177239
-0.000263466
0.000178483
-0.000308617
0.000175422
-0.000356609
0.000164797
-0.000406528
0.000141949
-0.000455184
9.99679e-05
-0.000494106
3.01579e-05
-0.000508165
-8.15071e-05
-0.000472727
-0.000234435
-0.000374781
-0.000391747
-0.000229118
-0.000479393
-7.95231e-05
-0.000428114
5.97078e-06
-0.00022406
4.9719e-06
-1.42944e-05
8.64772e-05
-4.07474e-05
0.00015807
-7.21978e-05
0.000186186
-0.000106102
0.000198149
-0.000142063
0.000205567
-0.000180625
0.000212443
-0.000222807
0.000219421
-0.000269972
0.000225648
-0.00032379
0.000229239
-0.000386178
0.000227186
-0.000458979
0.00021475
-0.000541537
0.000182525
-0.00062255
0.000111171
-0.000681448
-2.26091e-05
-0.000675198
-0.000240685
-0.00058388
-0.000483065
-0.000413811
-0.000649462
-0.000196038
-0.000645887
-2.14357e-05
-0.000398662
-1.64638e-05
-1.31965e-05
9.96737e-05
-3.83278e-05
0.000183201
-6.85707e-05
0.000216429
-0.000101446
0.000231024
-0.000136717
0.000240838
-0.000175289
0.000251015
-0.000218821
0.000262953
-0.000269755
0.000276582
-0.000331554
0.000291039
-0.000408875
0.000304507
-0.000506926
0.000312801
-0.000627263
0.000302862
-0.00075657
0.000240479
-0.000854815
7.56359e-05
-0.00088461
-0.00021089
-0.000822504
-0.000545172
-0.000662338
-0.000809628
-0.000398873
-0.000909353
-0.00010029
-0.000697245
-0.000116754
-1.17924e-05
0.000111466
-3.50961e-05
0.000206505
-6.34589e-05
0.000244792
-9.43943e-05
0.00026196
-0.00012773
0.000274174
-0.000164615
0.0002879
-0.000207208
0.000305546
-0.000258881
0.000328255
-0.000324711
0.000356869
-0.000411653
0.000391448
-0.000526585
0.000427734
-0.000669315
0.000445591
-0.000820536
0.000391699
-0.000937997
0.000193097
-0.000986589
-0.000162298
-0.000967791
-0.000563969
-0.000862846
-0.000914573
-0.000623365
-0.00114883
-0.000243721
-0.00107689
-0.000360475
-1.01867e-05
0.000121653
-3.12624e-05
0.000227581
-5.70967e-05
0.000270626
-8.50828e-05
0.000289946
-0.000114958
0.000304049
-0.00014789
0.000320832
-0.000186185
0.000343841
-0.000233526
0.000375597
-0.000295477
0.000418819
-0.000379188
0.00047516
-0.000489544
0.00053809
-0.00062025
0.000576298
-0.00074825
0.000519699
-0.000846941
0.000291788
-0.00089751
-0.000111729
-0.00091627
-0.00054521
-0.000881685
-0.000949158
-0.000733393
-0.00129712
-0.000396027
-0.00141426
-0.000756501
-8.57379e-06
0.000130227
-2.72348e-05
0.000246242
-5.00231e-05
0.000293415
-7.40783e-05
0.000314001
-9.88761e-05
0.000328847
-0.000125306
0.000347263
-0.000155265
0.0003738
-0.000191687
0.000412018
-0.000238636
0.000465768
-0.000300486
0.000537009
-0.000378274
0.000615878
-0.00046375
0.000661774
-0.000540494
0.000596443
-0.000601039
0.000352333
-0.000652684
-6.00839e-05
-0.000691892
-0.000506002
-0.00071354
-0.00092751
-0.000666957
-0.00134371
-0.000438701
-0.00164251
-0.0011952
-7.28203e-06
0.000137509
-2.37128e-05
0.000262672
-4.32094e-05
0.000312911
-6.25597e-05
0.000333351
-8.0888e-05
0.000347175
-9.85876e-05
0.000364962
-0.000116687
0.000391899
-0.00013656
0.000431892
-0.000159598
0.000488806
-0.000186334
0.000563746
-0.000215772
0.000645316
-0.000244506
0.000690507
-0.0002699
0.000621837
-0.000299587
0.00038202
-0.000351556
-8.11507e-06
-0.000406968
-0.00045059
-0.000471931
-0.000862547
-0.000504732
-0.00131091
-0.000369175
-0.00177807
-0.00156438
-6.79241e-06
0.000144301
-2.17288e-05
0.000277609
-3.81281e-05
0.000329311
-5.23794e-05
0.000347603
-6.33536e-05
0.000358149
-7.0995e-05
0.000372603
-7.53976e-05
0.000396302
-7.62795e-05
0.000432774
-7.26169e-05
0.000485143
-6.14314e-05
0.00055256
-4.25698e-05
0.000626455
-2.11307e-05
0.000669068
-1.1337e-05
0.000612043
-1.89399e-05
0.000389623
-6.01299e-05
3.30749e-05
-0.000134726
-0.000375994
-0.000239142
-0.00075813
-0.000336445
-0.0012136
-0.000279597
-0.00183492
-0.00184397
-7.89903e-06
0.0001522
-2.27885e-05
0.000292498
-3.66237e-05
0.000343146
-4.56815e-05
0.00035666
-4.90083e-05
0.000361476
-4.6378e-05
0.000369973
-3.72099e-05
0.000387134
-1.98936e-05
0.000415458
8.99526e-06
0.000456254
5.05317e-05
0.000511024
0.000107877
0.000569109
0.000174644
0.000602302
0.000229969
0.000556718
0.00024264
0.000376952
0.000198866
7.68495e-05
0.000108591
-0.000285719
-2.22514e-05
-0.000627288
-0.000170351
-0.00106551
-0.000194283
-0.00181098
-0.00203826
-1.16734e-05
0.000163873
-2.9018e-05
0.000309843
-4.15243e-05
0.000355652
-4.54349e-05
0.000360571
-4.09942e-05
0.000357035
-2.8577e-05
0.000357556
-7.52546e-06
0.000366082
2.42299e-05
0.000383702
6.86104e-05
0.000411874
0.000130783
0.000448851
0.000212449
0.000487443
0.000306559
0.000508192
0.000388609
0.000474668
0.000422606
0.000342955
0.000388142
0.000111313
0.000286727
-0.000184304
0.000131819
-0.00047238
-4.6558e-05
-0.000887128
-0.000120532
-0.00173701
-0.00215879
-1.96959e-05
0.000183569
-4.24638e-05
0.000332611
-5.37859e-05
0.000366974
-5.25012e-05
0.000359286
-4.07423e-05
0.000345276
-1.96793e-05
0.000336493
1.10815e-05
0.000335321
5.28733e-05
0.00034191
0.000108662
0.000356085
0.000181559
0.000375954
0.000272465
0.000396538
0.000375007
0.00040565
0.000467728
0.000381947
0.000516323
0.00029436
0.000493807
0.000133829
0.000393399
-8.38957e-05
0.000231078
-0.000310059
4.41134e-05
-0.000700163
-5.22496e-05
-0.00164065
-0.00221104
-3.85151e-05
0.000222084
-7.75155e-05
0.000371611
-8.53121e-05
0.000374771
-7.24478e-05
0.000346422
-4.98519e-05
0.000322681
-1.99354e-05
0.000306576
1.84123e-05
0.000296974
6.75182e-05
0.000292804
0.000129553
0.00029405
0.000206596
0.000298911
0.000297955
0.000305178
0.000398421
0.000305184
0.000490463
0.000289905
0.000545762
0.000239061
0.00053199
0.000147602
0.000446559
1.53465e-06
0.000300653
-0.000164153
0.000152299
-0.000551809
3.06923e-05
-0.00151904
-0.00218035
-3.9728e-05
0.000261812
-8.68119e-05
0.000418695
-0.000104574
0.000392533
-9.89839e-05
0.000340832
-7.6579e-05
0.000300276
-4.22452e-05
0.000272243
3.1828e-06
0.000251546
6.00859e-05
0.000235901
0.000128686
0.00022545
0.000209961
0.000217636
0.000301044
0.000214095
0.000398629
0.000207599
0.000489042
0.000199492
0.000553123
0.000174981
0.000566057
0.000134668
0.000516079
5.15119e-05
0.000438234
-8.63078e-05
0.000333193
-0.000446768
0.000157368
-0.00134322
-0.00202298
-0.000392359
0.000654172
-0.000373912
0.000400248
-0.000252666
0.000271287
-0.000134187
0.000222353
-2.54901e-05
0.000191579
8.02162e-05
0.000166536
0.000184479
0.000147282
0.00028935
0.00013103
0.000394249
0.000120551
0.000501173
0.000110712
0.000608857
0.000106411
0.000716619
9.98382e-05
0.000817791
9.83187e-05
0.000904733
8.80391e-05
0.000966941
7.24601e-05
0.00098736
3.10933e-05
0.000969761
-6.87095e-05
0.000895459
-0.000372466
0.000518762
-0.00096652
-0.00150422
0.000654172
0.00105442
0.00132571
0.00154806
0.00173964
0.00190617
0.00205346
0.00218449
0.00230504
0.00241575
0.00252216
0.002622
0.00272032
0.00280836
0.00288082
0.00291191
0.0028432
0.00247074
0.00150422
)
;

boundaryField
{
    movingWall
    {
        type            calculated;
        value           uniform 0;
    }
    fixedWalls
    {
        type            calculated;
        value           uniform 0;
    }
    frontAndBack
    {
        type            empty;
    }
}


// ************************************************************************* //
