/*--------------------------------*- C++ -*----------------------------------*\
| =========                 |                                                 |
| \\      /  F ield         | OpenFOAM: The Open Source CFD Toolbox           |
|  \\    /   O peration     | Version:  2506                                  |
|   \\  /    A nd           | Website:  www.openfoam.com                      |
|    \\/     M anipulation  |                                                 |
\*---------------------------------------------------------------------------*/
FoamFile
{
    version     2.0;
    format      ascii;
    arch        "LSB;label=32;scalar=64";
    class       volVectorField;
    location    "6";
    object      U;
}
// * * * * * * * * * * * * * * * * * * * * * * * * * * * * * * * * * * * * * //

dimensions      [0 1 -1 0 0 0 0];

internalField   nonuniform List<vector> 
400
(
(-0.000243676 0.000210755 0)
(-0.00143927 0.000624891 0)
(-0.00350539 0.000792576 0)
(-0.0057722 0.000848637 0)
(-0.00812008 0.000886151 0)
(-0.0105473 0.000931421 0)
(-0.0130553 0.000982253 0)
(-0.0156202 0.00102451 0)
(-0.0181717 0.0010348 0)
(-0.0205709 0.000979069 0)
(-0.0225904 0.000813351 0)
(-0.023905 0.000491552 0)
(-0.0241048 -1.90533e-05 0)
(-0.022786 -0.000710417 0)
(-0.0197293 -0.00145243 0)
(-0.0151125 -0.00202506 0)
(-0.00966357 -0.00217402 0)
(-0.0045123 -0.00175646 0)
(-0.00073162 -0.000859426 0)
(0.000349733 0.000116101 0)
(-0.0007732 0.00151224 0)
(-0.00350894 0.00322402 0)
(-0.00773788 0.00392161 0)
(-0.0123484 0.00418759 0)
(-0.0171051 0.00433942 0)
(-0.0219643 0.0044706 0)
(-0.0268754 0.00457006 0)
(-0.0317442 0.00457685 0)
(-0.0363985 0.00439414 0)
(-0.0405578 0.00389096 0)
(-0.0438132 0.00291295 0)
(-0.0456341 0.00131707 0)
(-0.0454126 -0.000961635 0)
(-0.0425595 -0.00379319 0)
(-0.0367842 -0.00669463 0)
(-0.0284343 -0.00885435 0)
(-0.018694 -0.00935356 0)
(-0.00942483 -0.00769678 0)
(-0.00249654 -0.00427302 0)
(7.77874e-05 -0.000427324 0)
(-0.00106513 0.00397885 0)
(-0.00464959 0.00764168 0)
(-0.0100349 0.00911359 0)
(-0.015849 0.00969701 0)
(-0.0218136 0.00999426 0)
(-0.0278725 0.010186 0)
(-0.0339525 0.0102495 0)
(-0.0399333 0.0100598 0)
(-0.0456126 0.00942247 0)
(-0.0506713 0.00808317 0)
(-0.0546484 0.00575301 0)
(-0.0569351 0.00217574 0)
(-0.05679 -0.0027496 0)
(-0.0534251 -0.00876382 0)
(-0.0463114 -0.0149203 0)
(-0.0356825 -0.0195377 0)
(-0.0229919 -0.0206028 0)
(-0.0109146 -0.0169798 0)
(-0.00232859 -0.00965007 0)
(0.000347322 -0.00155581 0)
(-0.00118319 0.0068581 0)
(-0.00516759 0.0127417 0)
(-0.0111303 0.0150563 0)
(-0.0175398 0.0159712 0)
(-0.0241084 0.0164166 0)
(-0.0307966 0.0166703 0)
(-0.0375496 0.0167011 0)
(-0.0442735 0.0163238 0)
(-0.0508003 0.0152478 0)
(-0.0568459 0.01309 0)
(-0.0619629 0.00940271 0)
(-0.0655028 0.00375661 0)
(-0.0665749 -0.00409653 0)
(-0.063987 -0.0139443 0)
(-0.0565627 -0.0243956 0)
(-0.0439925 -0.0326204 0)
(-0.0277945 -0.0347666 0)
(-0.0117945 -0.0283392 0)
(-0.000923009 -0.0153123 0)
(0.00117824 -0.00194453 0)
(-0.00120347 0.00989581 0)
(-0.00531861 0.0181343 0)
(-0.0115135 0.0213345 0)
(-0.0181846 0.0226041 0)
(-0.0250545 0.0232358 0)
(-0.0321214 0.0236204 0)
(-0.0393831 0.0237316 0)
(-0.0468186 0.023338 0)
(-0.0543536 0.0220635 0)
(-0.0618132 0.0193935 0)
(-0.0688504 0.0146787 0)
(-0.0748586 0.00718854 0)
(-0.0788377 -0.00368259 0)
(-0.079002 -0.0179401 0)
(-0.0729628 -0.0342772 0)
(-0.0591381 -0.048374 0)
(-0.0386026 -0.053331 0)
(-0.0160817 -0.0436292 0)
(0.000255086 -0.0220156 0)
(0.00236837 -0.00100557 0)
(-0.00116528 0.01294 0)
(-0.00524504 0.0236022 0)
(-0.0114591 0.027736 0)
(-0.0181923 0.0294081 0)
(-0.0251895 0.0303036 0)
(-0.0325002 0.030951 0)
(-0.0402013 0.0313541 0)
(-0.0483856 0.0312635 0)
(-0.0571364 0.0302463 0)
(-0.066493 0.0276798 0)
(-0.0763873 0.022717 0)
(-0.0864529 0.0142368 0)
(-0.0956129 0.000917801 0)
(-0.101544 -0.0182048 0)
(-0.0999567 -0.0425318 0)
(-0.0868568 -0.0661843 0)
(-0.0625231 -0.0779066 0)
(-0.0309945 -0.0667708 0)
(-0.00215037 -0.03306 0)
(0.00379212 0.000915991 0)
(-0.00108624 0.0158819 0)
(-0.0050155 0.0289853 0)
(-0.0110984 0.0340991 0)
(-0.0177446 0.0362329 0)
(-0.0247235 0.0374898 0)
(-0.0321404 0.0385681 0)
(-0.0401666 0.0395399 0)
(-0.0490419 0.040187 0)
(-0.0590683 0.0400842 0)
(-0.0706137 0.0385838 0)
(-0.0841218 0.0347408 0)
(-0.0998852 0.0270095 0)
(-0.117093 0.0127079 0)
(-0.132271 -0.0115051 0)
(-0.13821 -0.0460957 0)
(-0.128635 -0.0841238 0)
(-0.103586 -0.108307 0)
(-0.0636658 -0.101522 0)
(-0.015418 -0.0555753 0)
(0.00456173 0.000841231 0)
(-0.000974409 0.0186395 0)
(-0.00466087 0.0341592 0)
(-0.0104854 0.040287 0)
(-0.0168998 0.0429325 0)
(-0.0236904 0.0446385 0)
(-0.0310103 0.0463107 0)
(-0.0391246 0.0481409 0)
(-0.048434 0.0500173 0)
(-0.0595016 0.0516368 0)
(-0.0731103 0.0524889 0)
(-0.0904223 0.0516997 0)
(-0.112773 0.0472074 0)
(-0.139492 0.0339752 0)
(-0.164318 0.00434414 0)
(-0.177422 -0.0446257 0)
(-0.173252 -0.101505 0)
(-0.152352 -0.142986 0)
(-0.110484 -0.149682 0)
(-0.0482305 -0.101327 0)
(0.00194087 -0.00937702 0)
(-0.000836419 0.0211453 0)
(-0.00420217 0.039017 0)
(-0.00965017 0.0461674 0)
(-0.0156764 0.0493409 0)
(-0.0220652 0.0515369 0)
(-0.0289942 0.0539081 0)
(-0.0367944 0.0568217 0)
(-0.0459948 0.0603637 0)
(-0.0573805 0.0645007 0)
(-0.072064 0.06904 0)
(-0.0917348 0.0731889 0)
(-0.118514 0.0737134 0)
(-0.151526 0.0616849 0)
(-0.181606 0.0244599 0)
(-0.196733 -0.04114 0)
(-0.196831 -0.116936 0)
(-0.184667 -0.177971 0)
(-0.152113 -0.207687 0)
(-0.0942118 -0.172719 0)
(-0.0098506 -0.036625 0)
(-0.000683801 0.0233472 0)
(-0.00367279 0.0434668 0)
(-0.00864149 0.0516081 0)
(-0.0141179 0.0552663 0)
(-0.0198576 0.057909 0)
(-0.0260248 0.0609666 0)
(-0.0329584 0.065027 0)
(-0.0412211 0.0704444 0)
(-0.0516623 0.0775593 0)
(-0.0654202 0.0865341 0)
(-0.0841283 0.0962717 0)
(-0.109937 0.101392 0)
(-0.141305 0.0889911 0)
(-0.167685 0.0444333 0)
(-0.178819 -0.0326132 0)
(-0.181546 -0.121613 0)
(-0.178957 -0.199823 0)
(-0.162776 -0.257174 0)
(-0.12234 -0.252646 0)
(-0.0294934 -0.0979393 0)
(-0.00053777 0.0252213 0)
(-0.00313497 0.0474455 0)
(-0.00755815 0.0564874 0)
(-0.0123412 0.0605047 0)
(-0.017182 0.0634349 0)
(-0.0221882 0.0669982 0)
(-0.0276282 0.0720071 0)
(-0.0339478 0.0790781 0)
(-0.0417916 0.0888792 0)
(-0.0518975 0.101754 0)
(-0.0652228 0.115935 0)
(-0.0834772 0.123902 0)
(-0.105458 0.110532 0)
(-0.122842 0.0620468 0)
(-0.129048 -0.0189825 0)
(-0.133035 -0.111819 0)
(-0.138236 -0.198431 0)
(-0.137345 -0.279046 0)
(-0.118489 -0.320758 0)
(-0.0379432 -0.201892 0)
(-0.000433816 0.0267957 0)
(-0.00269354 0.0509521 0)
(-0.00657065 0.0607336 0)
(-0.0105648 0.0648845 0)
(-0.0143005 0.0678119 0)
(-0.0178041 0.0715121 0)
(-0.0212166 0.0769726 0)
(-0.0247521 0.0849643 0)
(-0.028666 0.0962886 0)
(-0.033106 0.111248 0)
(-0.0382854 0.12757 0)
(-0.0457284 0.136612 0)
(-0.0555544 0.122782 0)
(-0.0632922 0.0739511 0)
(-0.0670563 -0.00618027 0)
(-0.0728384 -0.0961487 0)
(-0.0850626 -0.182139 0)
(-0.0961528 -0.272974 0)
(-0.0978792 -0.35451 0)
(-0.02695 -0.290549 0)
(-0.00042476 0.0281734 0)
(-0.00250102 0.0540484 0)
(-0.00593171 0.0642912 0)
(-0.00912164 0.0682421 0)
(-0.0116297 0.0707762 0)
(-0.0134215 0.0741176 0)
(-0.0145173 0.0793379 0)
(-0.014895 0.0872142 0)
(-0.0144354 0.0984889 0)
(-0.0127575 0.113221 0)
(-0.00955393 0.129356 0)
(-0.00631808 0.138624 0)
(-0.00436816 0.126194 0)
(-0.00391762 0.0797987 0)
(-0.00696624 0.00357664 0)
(-0.0152629 -0.0806381 0)
(-0.0346468 -0.161311 0)
(-0.0551113 -0.254343 0)
(-0.0765482 -0.365217 0)
(-0.0140633 -0.347055 0)
(-0.00060178 0.0296119 0)
(-0.00279664 0.0570524 0)
(-0.00597926 0.0674182 0)
(-0.00840497 0.0706912 0)
(-0.00964329 0.0723083 0)
(-0.00967169 0.0747085 0)
(-0.00844718 0.0789462 0)
(-0.00577976 0.0856466 0)
(-0.0014179 0.0952954 0)
(0.00550876 0.107995 0)
(0.0157138 0.121903 0)
(0.0277841 0.130463 0)
(0.0387288 0.121222 0)
(0.0455279 0.0814137 0)
(0.0448672 0.0136229 0)
(0.0357994 -0.0629682 0)
(0.0101956 -0.134975 0)
(-0.0161322 -0.224743 0)
(-0.0569574 -0.363214 0)
(-0.00216573 -0.39238 0)
(-0.00108745 0.0314324 0)
(-0.00390204 0.0599861 0)
(-0.00722281 0.069594 0)
(-0.00900117 0.0716679 0)
(-0.00893656 0.0720347 0)
(-0.00721722 0.0731209 0)
(-0.00387618 0.0758588 0)
(0.00129493 0.0806455 0)
(0.00884925 0.0877774 0)
(0.0195669 0.0972803 0)
(0.0340234 0.107486 0)
(0.0513469 0.113795 0)
(0.0681815 0.107147 0)
(0.0799887 0.076819 0)
(0.0817085 0.0224277 0)
(0.073032 -0.0435632 0)
(0.0435883 -0.105812 0)
(0.0162674 -0.190136 0)
(-0.0417164 -0.353444 0)
(0.0104834 -0.42543 0)
(-0.00213946 0.0342821 0)
(-0.00618461 0.0646393 0)
(-0.00992686 0.0733671 0)
(-0.0110971 0.073027 0)
(-0.00974472 0.0710809 0)
(-0.00640107 0.0701584 0)
(-0.0012625 0.070881 0)
(0.00592743 0.0733454 0)
(0.0156866 0.0776535 0)
(0.0285614 0.0834461 0)
(0.0449219 0.0895462 0)
(0.0641265 0.0929091 0)
(0.0833518 0.0878617 0)
(0.0981168 0.0666658 0)
(0.101892 0.0272457 0)
(0.0945063 -0.0245695 0)
(0.0638104 -0.0753253 0)
(0.0388356 -0.157596 0)
(-0.0309917 -0.34712 0)
(0.0246654 -0.455013 0)
(-0.00411174 0.0424677 0)
(-0.0123405 0.0687059 0)
(-0.0169773 0.0712097 0)
(-0.0163191 0.0688412 0)
(-0.0126473 0.0659383 0)
(-0.00733161 0.0638998 0)
(-0.000559659 0.0631065 0)
(0.00812224 0.063554 0)
(0.0192322 0.0652351 0)
(0.0331287 0.0677773 0)
(0.0499404 0.0704301 0)
(0.0690494 0.0713072 0)
(0.0881179 0.0674655 0)
(0.103896 0.0539792 0)
(0.108597 0.0290227 0)
(0.103375 -0.00666739 0)
(0.0744755 -0.0465092 0)
(0.0552705 -0.128994 0)
(-0.0163962 -0.337643 0)
(0.0467526 -0.470354 0)
(-0.00311249 0.0369835 0)
(-0.0111212 0.0831604 0)
(-0.0207652 0.0844615 0)
(-0.0219968 0.0743819 0)
(-0.0183913 0.0664635 0)
(-0.0124537 0.0612668 0)
(-0.00444693 0.0577173 0)
(0.005807 0.0553177 0)
(0.0184486 0.0539791 0)
(0.0334892 0.0532821 0)
(0.0506423 0.0530895 0)
(0.0695867 0.0519684 0)
(0.0877107 0.049219 0)
(0.104662 0.0414379 0)
(0.110773 0.0283744 0)
(0.112305 0.00640006 0)
(0.0886091 -0.0261438 0)
(0.0789109 -0.112822 0)
(0.0202474 -0.314215 0)
(0.0863954 -0.447223 0)
(-0.0978517 0.0963726 0)
(-0.074008 0.0762787 0)
(-0.0624837 0.0582325 0)
(-0.0385492 0.0503904 0)
(-0.0163185 0.0447604 0)
(0.00553823 0.0402091 0)
(0.026339 0.0365306 0)
(0.0478628 0.0335373 0)
(0.0680258 0.031526 0)
(0.0903973 0.0298359 0)
(0.109874 0.0290584 0)
(0.133821 0.0279111 0)
(0.150138 0.0272166 0)
(0.173677 0.0247765 0)
(0.179571 0.0205526 0)
(0.197182 0.00955481 0)
(0.176471 -0.0166447 0)
(0.182676 -0.082967 0)
(0.135155 -0.226876 0)
(0.167508 -0.339597 0)
(0.135333 0.109366 0)
(0.171119 0.0867482 0)
(0.230963 0.0650945 0)
(0.286385 0.0510691 0)
(0.329148 0.0420033 0)
(0.366843 0.0351628 0)
(0.395766 0.0301329 0)
(0.426116 0.0257204 0)
(0.447588 0.0226784 0)
(0.475108 0.0195963 0)
(0.490904 0.0179101 0)
(0.517924 0.0155716 0)
(0.527971 0.0149019 0)
(0.554677 0.0127969 0)
(0.554933 0.0125869 0)
(0.575537 0.00862555 0)
(0.549497 0.00399133 0)
(0.53991 -0.0148758 0)
(0.437538 -0.0472697 0)
(0.338911 -0.0992162 0)
)
;

boundaryField
{
    movingWall
    {
        type            fixedValue;
        value           uniform (1 0 0);
    }
    fixedWalls
    {
        type            noSlip;
    }
    frontAndBack
    {
        type            empty;
    }
}


// ************************************************************************* //
