/*--------------------------------*- C++ -*----------------------------------*\
| =========                 |                                                 |
| \\      /  F ield         | OpenFOAM: The Open Source CFD Toolbox           |
|  \\    /   O peration     | Version:  2506                                  |
|   \\  /    A nd           | Website:  www.openfoam.com                      |
|    \\/     M anipulation  |                                                 |
\*---------------------------------------------------------------------------*/
FoamFile
{
    version     2.0;
    format      ascii;
    arch        "LSB;label=32;scalar=64";
    class       volScalarField;
    location    "150";
    object      div(phi);
}
// * * * * * * * * * * * * * * * * * * * * * * * * * * * * * * * * * * * * * //

dimensions      [0 0 -1 0 0 0 0];

internalField   nonuniform List<scalar> 
1340
(
6.45894e-07
-1.51861e-06
-1.27524e-07
-2.12072e-07
1.70777e-07
-2.43726e-07
-5.36702e-07
7.09526e-08
3.41808e-07
3.69485e-07
-3.0768e-07
-4.61203e-07
-5.20265e-07
-2.0568e-07
-8.04436e-07
1.91523e-07
4.80303e-07
8.81461e-08
-1.85833e-07
-8.73683e-08
-1.98359e-07
-5.00402e-07
-2.34769e-07
3.55043e-07
6.67549e-07
-4.17216e-07
-7.98542e-08
-2.29923e-07
1.99956e-07
3.16104e-08
-3.03023e-09
2.10896e-07
1.77756e-07
-3.95021e-07
-4.81163e-07
1.10709e-06
3.89621e-07
-3.72588e-07
7.18296e-07
-5.28346e-07
-1.4034e-08
4.46894e-08
2.69761e-07
1.1948e-07
1.73171e-07
-2.16122e-07
-9.28241e-08
-3.15766e-07
9.96178e-08
3.62008e-07
8.49803e-08
-2.72256e-07
-2.01125e-07
-1.97862e-07
-1.28415e-06
5.62421e-07
-1.6176e-06
-5.48453e-07
-8.75362e-07
-3.56101e-07
-3.39622e-08
5.86655e-07
-7.18892e-08
1.1392e-07
-1.57571e-07
2.2445e-07
-2.68998e-07
-8.54141e-09
3.72068e-07
4.0909e-07
-1.64259e-07
-1.56717e-07
-3.00001e-07
1.06935e-07
4.71845e-08
-2.01801e-08
1.38378e-07
8.61952e-08
-4.24665e-07
-4.70951e-07
1.4733e-07
-1.18109e-06
5.65672e-07
-1.60691e-06
7.27076e-07
-1.73513e-06
7.2187e-07
-1.73581e-06
9.47521e-07
-1.63727e-06
1.00106e-06
-1.73311e-06
1.02782e-06
-1.46953e-06
7.60692e-07
-1.43666e-06
6.02192e-07
-6.91159e-07
5.67091e-07
-6.67291e-08
2.48058e-09
-9.09617e-09
5.35489e-07
-1.25909e-07
-4.61863e-07
3.22444e-07
2.25738e-07
1.21941e-07
7.04025e-08
-2.56545e-07
-1.11147e-07
-2.68452e-07
5.39467e-08
3.24593e-07
5.17248e-08
-3.06289e-07
-2.47808e-07
-1.8606e-07
-0.000117568
-8.85428e-05
-6.34231e-05
-3.21478e-05
-2.28063e-05
-6.76742e-06
-1.37347e-06
3.88227e-06
8.51168e-06
7.55648e-06
1.58148e-05
8.70155e-06
1.92192e-05
8.79402e-06
2.10331e-05
8.66557e-06
2.1028e-05
8.58493e-06
1.91135e-05
8.32515e-06
1.67271e-05
8.04593e-06
1.28775e-05
7.4238e-06
9.65158e-06
6.72469e-06
5.95618e-06
5.81108e-06
3.43028e-06
4.87651e-06
1.13221e-06
4.12293e-06
-9.8871e-08
3.52507e-06
4.0193e-07
2.77741e-06
1.56482e-07
2.08289e-06
9.44235e-07
1.32956e-06
1.27552e-06
5.33994e-07
1.30977e-06
6.30144e-08
1.2524e-06
-3.47201e-07
1.07247e-06
-6.14509e-07
8.43902e-07
-7.03113e-07
6.32107e-07
-6.80843e-07
4.65275e-07
-5.74994e-07
2.15887e-07
-5.01934e-07
1.04491e-07
-4.02522e-07
-8.18668e-08
-2.81217e-07
7.89926e-08
4.54581e-08
1.42674e-08
-1.27611e-09
5.10523e-07
2.86053e-07
-5.65014e-07
1.15612e-07
-6.17979e-07
4.53996e-07
2.39045e-07
-1.62611e-07
-2.12934e-07
-3.09452e-07
7.23823e-08
8.2698e-08
-4.07452e-08
9.40931e-08
4.51657e-08
-4.20078e-07
-4.46119e-07
0.000598808
0.000256994
0.000229209
0.000186921
0.000149386
0.00013532
8.65057e-05
9.83849e-05
4.79706e-05
7.32819e-05
2.19196e-05
5.55473e-05
6.83914e-06
4.27444e-05
-1.42023e-06
3.31497e-05
-5.92132e-06
2.54899e-05
-6.86552e-06
1.95096e-05
-7.17007e-06
1.45826e-05
-5.53665e-06
1.07999e-05
-4.62153e-06
7.74194e-06
-2.75809e-06
5.41655e-06
-2.11054e-06
3.47272e-06
-9.29063e-07
1.66596e-06
-7.57113e-07
3.16319e-08
-1.76792e-06
-5.63396e-07
-9.98185e-07
-5.30667e-07
-4.74091e-09
-1.06774e-07
8.69479e-07
1.16473e-07
1.88445e-06
1.21019e-08
1.88113e-06
-3.8774e-07
1.51011e-06
-5.78113e-07
1.12584e-06
-6.8519e-07
7.52726e-07
-5.78328e-07
4.31938e-07
-4.89253e-07
1.7374e-07
-3.28112e-07
-1.28092e-08
-2.24153e-07
-1.07057e-07
-1.11128e-07
-8.38508e-08
5.62691e-08
-5.82529e-08
1.75692e-07
4.43019e-07
-3.61166e-07
2.04038e-07
-1.24852e-06
5.16757e-07
1.36854e-07
7.36111e-08
-7.11344e-10
-2.39516e-07
-1.07361e-07
-2.09459e-07
8.54169e-09
3.12565e-07
4.48919e-08
-3.54243e-07
-2.61158e-07
-1.76662e-07
0.000610345
0.000348485
0.000333807
0.000316667
0.000263138
0.0002489
0.000186398
0.000185898
0.000114618
0.00013662
6.78245e-05
0.00010269
3.68813e-05
7.89951e-05
1.82424e-05
6.19324e-05
8.02344e-06
4.88712e-05
1.29714e-06
3.80628e-05
-8.06543e-07
2.91415e-05
-2.67629e-06
2.13589e-05
-1.96585e-06
1.50603e-05
-1.7422e-06
9.78725e-06
-7.33411e-07
5.85638e-06
4.50512e-08
3.124e-06
2.58936e-07
1.74316e-06
2.10182e-06
7.76388e-07
2.66094e-06
5.38632e-08
2.55784e-06
-6.04202e-07
2.75931e-06
-1.1494e-06
1.93748e-06
-1.45866e-06
1.50182e-06
-1.49221e-06
1.22555e-06
-1.36954e-06
9.49521e-07
-1.17019e-06
6.5523e-07
-9.50554e-07
3.70533e-07
-7.16927e-07
1.20216e-07
-4.99167e-07
-4.13739e-08
-3.00062e-07
-1.24516e-07
-1.36575e-07
-1.36641e-07
-1.43297e-08
-1.11552e-07
2.0398e-07
-1.2072e-07
1.75749e-07
-9.22656e-07
3.98426e-08
-5.93475e-08
2.4537e-07
3.7659e-07
-1.61658e-07
-3.89813e-07
-2.58044e-07
7.27094e-09
1.54608e-07
-2.51957e-08
2.2874e-08
-2.85479e-09
-4.20753e-07
-3.88054e-07
0.000359194
0.000317764
0.000214648
0.000200459
9.94137e-05
0.000132836
4.21184e-05
9.58381e-05
1.47734e-05
7.3093e-05
6.5475e-07
5.6765e-05
-5.60323e-06
4.39496e-05
-9.56659e-06
3.33797e-05
-9.82566e-06
2.4849e-05
-1.02555e-05
1.79103e-05
-7.98108e-06
1.2481e-05
-6.93896e-06
8.08427e-06
-4.09811e-06
4.69549e-06
-2.92571e-06
1.98685e-06
-6.69229e-07
-5.39039e-08
9.72441e-08
-1.68439e-06
1.43273e-06
-3.01203e-06
1.43307e-06
-3.5894e-06
1.5294e-06
-3.59918e-06
2.49762e-06
-3.29148e-06
2.22295e-06
-2.93795e-06
2.43145e-06
-2.72222e-06
2.01983e-06
-2.53657e-06
1.45231e-06
-2.23192e-06
1.00935e-06
-1.84514e-06
6.19188e-07
-1.41187e-06
3.15095e-07
-1.03011e-06
7.72417e-08
-7.10277e-07
-6.28155e-08
-4.40104e-07
-1.06237e-07
-2.31382e-07
-9.2395e-08
-1.14931e-07
-4.6859e-08
-7.77818e-08
8.80502e-08
-4.33241e-07
-1.55892e-07
-1.64926e-07
2.29421e-07
5.70597e-07
3.07112e-08
-5.86381e-07
-1.69948e-07
-1.99373e-07
1.19674e-09
-1.83729e-07
3.14596e-07
6.50091e-08
-3.4894e-07
-2.9985e-07
-1.88082e-07
0.00057752
3.51577e-05
-3.45938e-06
-4.92395e-05
-7.03928e-05
-6.4655e-05
-6.1943e-05
-4.86118e-05
-3.91341e-05
-2.84056e-05
-1.37308e-05
-1.16166e-05
1.92545e-06
-9.74142e-07
1.29378e-05
5.16778e-06
1.69084e-05
7.32855e-06
1.87192e-05
7.231e-06
1.72936e-05
5.30433e-06
1.5485e-05
2.81838e-06
1.27405e-05
2.77037e-08
1.06707e-05
-2.32585e-06
8.61418e-06
-4.33438e-06
7.11969e-06
-5.6494e-06
5.85221e-06
-6.37451e-06
4.89397e-06
-6.65913e-06
4.85886e-06
-6.76557e-06
3.43592e-06
-6.66217e-06
3.06383e-06
-6.26912e-06
2.02972e-06
-5.57252e-06
1.33002e-06
-4.45182e-06
1.24111e-06
-3.29176e-06
1.01064e-06
-2.264e-06
8.22929e-07
-1.50194e-06
4.81471e-07
-9.95573e-07
1.24734e-07
-6.00778e-07
-1.29452e-07
-2.50347e-07
-2.64459e-07
4.25704e-08
-3.29881e-07
2.25078e-07
-3.61408e-07
2.73588e-07
-3.71768e-07
3.81482e-08
-2.96074e-07
1.87819e-07
4.39388e-07
2.95571e-07
-5.70862e-07
-3.87286e-08
-4.85752e-07
-2.19581e-09
-3.57234e-07
3.39977e-07
-2.25774e-08
-2.38181e-08
-6.54873e-08
-3.54516e-07
-3.16399e-07
-0.000507271
-7.91511e-05
-5.65583e-05
-3.87714e-05
-1.59825e-05
-3.01801e-05
-5.4458e-06
-3.61418e-05
-7.43694e-06
-4.47701e-05
-7.45005e-06
-5.08176e-05
-8.18929e-06
-5.401e-05
-4.80089e-06
-5.40438e-05
-2.58925e-06
-5.23273e-05
1.69657e-06
-4.89752e-05
4.22928e-06
-4.5183e-05
7.41775e-06
-4.08645e-05
9.06737e-06
-3.67945e-05
1.06945e-05
-3.26829e-05
1.13507e-05
-2.90344e-05
1.15317e-05
-2.54752e-05
1.13646e-05
-2.23146e-05
1.06185e-05
-1.92424e-05
1.01733e-05
-1.65686e-05
8.87296e-06
-1.4095e-05
8.15269e-06
-1.17373e-05
6.45152e-06
-9.34623e-06
6.36284e-06
-7.00695e-06
5.58974e-06
-5.21597e-06
5.04626e-06
-3.87319e-06
4.13374e-06
-3.06814e-06
2.97745e-06
-2.48866e-06
2.00657e-06
-1.94677e-06
1.33308e-06
-1.40678e-06
8.94279e-07
-9.12314e-07
5.79715e-07
-5.13983e-07
2.90046e-07
-2.47145e-07
2.03907e-08
-2.49475e-07
6.33327e-08
2.68752e-07
4.51912e-07
-5.00227e-07
1.76142e-07
-6.8144e-07
1.15281e-07
-4.75014e-07
2.82205e-07
-2.11344e-07
2.2849e-07
8.10141e-08
-2.83356e-07
-2.94254e-07
-1.63718e-07
-0.000719786
-0.000391458
-0.00036282
-0.000300997
-0.000271622
-0.000234569
-0.000186141
-0.000185845
-0.000130576
-0.000153418
-8.35209e-05
-0.000129814
-5.49824e-05
-0.000113033
-2.97598e-05
-9.92837e-05
-1.48954e-05
-8.83386e-05
-1.74281e-06
-7.83741e-05
5.50969e-06
-6.95299e-05
1.23165e-05
-6.1263e-05
1.55744e-05
-5.39467e-05
1.79656e-05
-4.72814e-05
1.85257e-05
-4.12491e-05
1.81684e-05
-3.57614e-05
1.73053e-05
-3.06637e-05
1.57084e-05
-2.60826e-05
1.44557e-05
-2.18605e-05
1.23181e-05
-1.81256e-05
1.09977e-05
-1.45025e-05
8.73602e-06
-1.11634e-05
8.32028e-06
-8.09014e-06
6.88105e-06
-5.81189e-06
6.22961e-06
-4.23092e-06
4.81353e-06
-3.31896e-06
3.47689e-06
-2.70208e-06
2.33756e-06
-2.16241e-06
1.55966e-06
-1.62277e-06
1.05672e-06
-1.11284e-06
7.15578e-07
-6.82487e-07
4.06681e-07
-3.69691e-07
9.81507e-08
-2.70526e-07
1.60642e-07
2.78577e-07
-4.71162e-07
4.96545e-07
-5.85709e-07
3.34244e-07
-5.11736e-07
3.1645e-07
-4.59554e-07
3.57722e-07
6.02034e-08
-1.51604e-08
-1.35598e-07
-2.86829e-07
-2.16151e-07
-0.000317355
-7.8932e-05
-8.27807e-05
-7.79162e-05
-5.94881e-05
-7.38801e-05
-4.36885e-05
-7.24208e-05
-2.49373e-05
-7.1086e-05
-1.50096e-05
-7.03619e-05
-2.48061e-06
-6.82197e-05
3.84268e-06
-6.5755e-05
1.2073e-05
-6.20176e-05
1.56487e-05
-5.80614e-05
2.06973e-05
-5.36383e-05
2.23658e-05
-4.95833e-05
2.39552e-05
-4.5497e-05
2.37061e-05
-4.14963e-05
2.30881e-05
-3.74903e-05
2.19208e-05
-3.35222e-05
1.97671e-05
-2.96393e-05
1.8097e-05
-2.56711e-05
1.55524e-05
-2.19068e-05
1.39888e-05
-1.81869e-05
1.15488e-05
-1.48341e-05
1.00162e-05
-1.15454e-05
7.97821e-06
-8.69278e-06
7.36078e-06
-6.27094e-06
5.99414e-06
-4.62775e-06
5.0769e-06
-3.48369e-06
3.81296e-06
-2.76136e-06
2.67574e-06
-2.17027e-06
1.83702e-06
-1.63648e-06
1.26346e-06
-1.15798e-06
8.58447e-07
-7.59732e-07
5.22864e-07
-4.64544e-07
1.88611e-07
-3.78741e-07
2.4725e-07
-2.84448e-07
2.42006e-07
-9.38665e-08
4.60979e-07
-3.94436e-07
4.99459e-07
-5.87816e-07
3.96386e-07
-1.49797e-07
2.77219e-07
-5.29492e-08
-1.77661e-07
-2.65158e-07
-1.41587e-07
-0.00299431
-0.000626434
-0.000600489
-0.000472604
-0.000370138
-0.000215481
-0.000232313
-9.23723e-05
-0.000163047
-2.76416e-05
-0.000124618
2.8394e-06
-0.000100821
2.32361e-05
-8.35159e-05
3.26407e-05
-7.07982e-05
3.86287e-05
-6.05315e-05
3.97509e-05
-5.23292e-05
3.99187e-05
-4.54182e-05
3.77316e-05
-3.98226e-05
3.53839e-05
-3.52518e-05
3.21445e-05
-3.16834e-05
2.831e-05
-2.86055e-05
2.47879e-05
-2.5703e-05
2.11007e-05
-2.2833e-05
1.82524e-05
-1.99805e-05
1.52145e-05
-1.72411e-05
1.31916e-05
-1.46247e-05
1.06219e-05
-1.22099e-05
9.14441e-06
-9.80053e-06
6.94654e-06
-7.4018e-06
6.46729e-06
-5.10434e-06
5.59969e-06
-3.44418e-06
5.1262e-06
-2.40701e-06
4.19187e-06
-1.93017e-06
3.15639e-06
-1.69641e-06
2.18137e-06
-1.45865e-06
1.46405e-06
-1.15809e-06
9.49712e-07
-8.29266e-07
5.7687e-07
-5.32931e-07
2.21794e-07
-3.84858e-07
2.45703e-07
-2.42824e-07
1.46278e-07
4.32631e-07
-3.05791e-07
6.21236e-07
-4.5208e-07
4.64665e-07
-3.47116e-07
4.53656e-07
-1.60771e-07
8.36242e-08
-1.52808e-07
-2.01815e-07
-1.47292e-07
0.00193527
0.000278783
0.000188342
0.000255965
5.2016e-05
0.000113464
-8.01892e-06
6.08431e-05
-2.57554e-05
4.1122e-05
-2.94968e-05
3.4794e-05
-2.97135e-05
3.01153e-05
-2.99081e-05
2.76689e-05
-3.00225e-05
2.4706e-05
-2.99385e-05
2.31433e-05
-2.91556e-05
2.11494e-05
-2.77409e-05
2.03124e-05
-2.59187e-05
1.91101e-05
-2.39726e-05
1.77312e-05
-2.19045e-05
1.63404e-05
-1.95377e-05
1.50434e-05
-1.72054e-05
1.38214e-05
-1.4891e-05
1.21019e-05
-1.28627e-05
1.07197e-05
-1.08893e-05
9.00548e-06
-9.2087e-06
7.79681e-06
-7.59429e-06
6.35857e-06
-6.23101e-06
5.2737e-06
-4.91342e-06
4.2931e-06
-3.87311e-06
3.99499e-06
-3.05354e-06
3.33961e-06
-2.54733e-06
3.00108e-06
-2.16883e-06
2.3359e-06
-1.85892e-06
1.77131e-06
-1.51101e-06
1.31288e-06
-1.16334e-06
9.39618e-07
-8.3855e-07
6.23843e-07
-5.48174e-07
3.06575e-07
-3.90615e-07
3.5393e-07
-3.32566e-07
3.03438e-07
-2.47355e-07
2.84074e-07
-6.9777e-08
5.30199e-07
-3.0823e-07
5.54387e-07
-3.26006e-07
3.20637e-07
-7.1176e-08
-1.14087e-07
-2.13676e-07
-1.01179e-07
-0.00126811
0.000175662
-0.000262297
-6.37214e-05
-0.000159562
2.38682e-05
-0.00010466
4.51036e-05
-7.70798e-05
4.8008e-05
-5.8908e-05
4.12712e-05
-4.50406e-05
3.6824e-05
-3.30339e-05
3.13521e-05
-2.33819e-05
2.82166e-05
-1.56158e-05
2.41172e-05
-9.87677e-06
2.14681e-05
-5.56944e-06
1.81197e-05
-2.48004e-06
1.56638e-05
-2.11742e-07
1.34317e-05
1.20188e-06
1.15461e-05
1.76502e-06
9.52101e-06
1.81589e-06
7.73132e-06
1.51627e-06
6.21744e-06
1.11261e-06
4.88423e-06
5.53528e-07
3.94887e-06
1.76655e-08
3.16931e-06
-5.5962e-07
2.55973e-06
-9.95981e-07
2.15528e-06
-1.29272e-06
1.69908e-06
-1.27162e-06
1.91915e-06
-1.05411e-06
2.25302e-06
-8.78081e-07
2.50299e-06
-8.21224e-07
2.46797e-06
-8.61894e-07
2.11492e-06
-9.10851e-07
1.61375e-06
-8.61712e-07
1.15254e-06
-6.95458e-07
7.90375e-07
-4.81907e-07
4.71871e-07
-3.37007e-07
4.69586e-07
-2.45541e-07
3.77839e-07
-1.15452e-07
1.47656e-07
4.77573e-07
-1.31492e-07
5.51134e-07
-2.92726e-07
4.41479e-07
-6.31282e-08
7.44924e-08
-1.84748e-07
-1.4555e-07
-9.10976e-08
0.00193012
0.000258569
0.000225865
0.000392337
9.44903e-05
0.000225981
2.41207e-05
0.000146673
-1.14406e-06
9.8564e-05
-8.36916e-06
7.26681e-05
-7.726e-06
5.1393e-05
-5.63925e-06
3.85834e-05
-3.1517e-06
2.5625e-05
-1.55759e-06
1.79929e-05
6.38071e-08
1.06647e-05
1.20697e-06
6.82651e-06
2.43333e-06
3.21346e-06
3.35437e-06
1.63273e-06
4.24004e-06
3.04617e-07
4.89767e-06
-1.82941e-07
5.45149e-06
-5.47967e-08
5.70766e-06
-5.24755e-08
5.60013e-06
2.36721e-07
5.13054e-06
1.01566e-07
4.36587e-06
3.06926e-07
3.42917e-06
1.33519e-07
2.4247e-06
2.47197e-07
1.49037e-06
5.18648e-08
6.36424e-07
2.20956e-07
-5.28225e-08
5.93058e-07
-5.88081e-07
9.4574e-07
-9.09218e-07
1.34351e-06
-1.01939e-06
1.43529e-06
-9.52343e-07
1.37014e-06
-7.58855e-07
1.21627e-06
-5.37808e-07
9.83885e-07
-3.1828e-07
6.86169e-07
-1.83345e-07
6.81893e-07
-1.59185e-07
6.40199e-07
-1.72624e-07
2.78448e-07
-3.36923e-09
2.7912e-07
-1.45282e-08
4.73038e-07
-7.73859e-08
2.86156e-07
-1.34204e-07
-7.72071e-08
-1.43365e-07
-5.18974e-08
-0.00324145
4.8851e-05
-0.000585364
-0.000346687
-0.000353885
-0.000112633
-0.000202173
-4.41671e-06
-0.000121062
3.54195e-05
-7.57058e-05
5.07083e-05
-4.72384e-05
4.84492e-05
-2.85364e-05
4.55178e-05
-1.47609e-05
3.6721e-05
-5.16989e-06
3.14518e-05
2.16202e-06
2.32984e-05
7.18202e-06
1.87859e-05
1.11148e-05
1.3157e-05
1.36461e-05
1.00298e-05
1.5338e-05
6.55961e-06
1.5958e-05
4.35675e-06
1.57938e-05
2.30163e-06
1.49071e-05
6.61424e-07
1.34784e-05
-3.72093e-07
1.16953e-05
-1.42728e-06
9.62585e-06
-1.60049e-06
7.54319e-06
-1.9932e-06
5.50526e-06
-1.6257e-06
3.7701e-06
-1.55699e-06
2.31396e-06
-9.05141e-07
1.25388e-06
-1.28567e-07
5.79016e-07
1.03642e-06
1.86869e-07
1.9844e-06
-1.48485e-08
2.43336e-06
-1.01642e-07
2.43346e-06
-1.37305e-07
2.03433e-06
-8.83312e-08
1.58941e-06
5.43746e-09
1.15048e-06
2.29041e-08
9.82739e-07
-5.18671e-08
8.69087e-07
-5.39105e-08
3.81715e-07
1.29707e-07
1.72152e-07
4.67875e-07
-8.87032e-08
4.0403e-07
-4.97892e-08
6.73343e-08
-5.33264e-08
-3.91247e-08
-2.32874e-08
0.00327804
0.00052313
0.000500979
0.000441245
0.000262678
0.000204511
0.000150609
0.000103123
0.00010772
6.35277e-05
9.05353e-05
3.70854e-05
8.01285e-05
2.27709e-05
7.25336e-05
7.57253e-06
6.5337e-05
-1.17007e-06
5.92462e-05
-9.34115e-06
5.32715e-05
-1.35384e-05
4.7646e-05
-1.66522e-05
4.21885e-05
-1.79341e-05
3.70219e-05
-1.71403e-05
3.21701e-05
-1.63005e-05
2.73239e-05
-1.37083e-05
2.28767e-05
-1.20562e-05
1.85472e-05
-9.21313e-06
1.48626e-05
-7.54023e-06
1.1525e-05
-5.12502e-06
8.88012e-06
-3.72973e-06
6.59412e-06
-1.78008e-06
4.88716e-06
-6.68668e-07
3.47114e-06
8.66629e-07
2.48079e-06
1.6747e-06
1.64966e-06
2.83401e-06
1.08411e-06
3.64967e-06
6.9601e-07
3.88149e-06
4.71385e-07
3.93837e-06
4.5108e-07
3.46376e-06
4.95147e-07
2.95595e-06
5.51071e-07
2.38718e-06
5.38795e-07
1.73278e-06
4.14701e-07
1.31386e-06
2.41266e-07
1.29651e-06
2.02041e-07
7.10655e-07
1.31071e-07
3.89998e-07
-2.83744e-08
3.38085e-07
8.29327e-08
1.81845e-07
8.07479e-08
2.49034e-08
-1.57825e-08
-4.78531e-09
-7.07127e-05
-6.95474e-05
-6.31911e-05
-1.19369e-05
-5.78719e-05
-2.13891e-06
-5.35147e-05
7.74068e-06
-4.82771e-05
1.40712e-05
-4.25273e-05
1.9837e-05
-3.64786e-05
2.32984e-05
-3.06572e-05
2.4726e-05
-2.52701e-05
2.54534e-05
-2.0189e-05
2.42742e-05
-1.55755e-05
2.35135e-05
-1.1114e-05
2.18076e-05
-7.26981e-06
2.08639e-05
-3.86099e-06
1.93422e-05
-1.15559e-06
1.85649e-05
1.14297e-06
1.79173e-05
2.92707e-06
1.75873e-05
4.34071e-06
1.76863e-05
5.40909e-06
1.75497e-05
6.12135e-06
1.76179e-05
6.5645e-06
1.72416e-05
6.70927e-06
1.66863e-05
6.6694e-06
1.58275e-05
6.47967e-06
1.45622e-05
6.22575e-06
1.32539e-05
5.88603e-06
1.15297e-05
5.48572e-06
1.0586e-05
5.05536e-06
9.57177e-06
4.4669e-06
8.38297e-06
3.71673e-06
6.83247e-06
2.84545e-06
4.97651e-06
1.98822e-06
3.27309e-06
1.29045e-06
1.98668e-06
7.12601e-07
1.22912e-06
4.23081e-07
1.16466e-06
3.201e-07
4.89787e-07
1.57005e-07
1.70473e-07
1.54207e-07
1.34239e-07
1.40518e-07
9.21577e-08
3.72301e-08
1.25936e-09
-3.86975e-09
0
)
;

boundaryField
{
    inlet
    {
        type            extrapolatedCalculated;
        value           nonuniform List<scalar> 
23
(
-1.51861e-06
-2.43726e-07
-4.61203e-07
-1.98359e-07
-4.81163e-07
-1.97862e-07
-4.70951e-07
-1.8606e-07
-4.46119e-07
-1.76662e-07
-3.88054e-07
-1.88082e-07
-3.16399e-07
-1.63718e-07
-2.16151e-07
-1.41587e-07
-1.47292e-07
-1.01179e-07
-9.10976e-08
-5.18974e-08
-2.32874e-08
-4.78531e-09
0
)
;
    }
    outlet
    {
        type            extrapolatedCalculated;
        value           nonuniform List<scalar> 
82
(
-7.07127e-05
-6.31911e-05
-6.95474e-05
-1.19369e-05
-5.78719e-05
-2.13891e-06
-5.35147e-05
7.74068e-06
-4.82771e-05
1.40712e-05
-4.25273e-05
1.9837e-05
-3.64786e-05
2.32984e-05
-3.06572e-05
2.4726e-05
-2.52701e-05
2.54534e-05
-2.0189e-05
2.42742e-05
-1.55755e-05
2.35135e-05
-1.1114e-05
2.18076e-05
-7.26981e-06
2.08639e-05
-3.86099e-06
1.93422e-05
-1.15559e-06
1.85649e-05
1.14297e-06
1.79173e-05
2.92707e-06
1.75873e-05
4.34071e-06
1.76863e-05
5.40909e-06
1.75497e-05
6.12135e-06
1.76179e-05
6.5645e-06
1.72416e-05
6.70927e-06
1.66863e-05
6.6694e-06
1.58275e-05
6.47967e-06
1.45622e-05
6.22575e-06
1.32539e-05
5.88603e-06
1.15297e-05
5.48572e-06
1.0586e-05
5.05536e-06
9.57177e-06
4.4669e-06
8.38297e-06
3.71673e-06
6.83247e-06
2.84545e-06
4.97651e-06
1.98822e-06
3.27309e-06
1.29045e-06
1.98668e-06
7.12601e-07
1.22912e-06
4.23081e-07
1.16466e-06
3.201e-07
4.89787e-07
1.57005e-07
1.70473e-07
1.54207e-07
1.34239e-07
1.40518e-07
9.21577e-08
3.72301e-08
1.25936e-09
-3.86975e-09
0
)
;
    }
    walls
    {
        type            extrapolatedCalculated;
        value           nonuniform List<scalar> 0();
    }
    frontAndBack
    {
        type            empty;
    }
    procBoundary3to2
    {
        type            processor;
        value           nonuniform List<scalar> 
88
(
4.88594e-07
-2.23071e-07
7.49203e-07
9.47646e-07
9.47646e-07
5.20888e-07
7.20167e-07
7.20167e-07
2.30416e-07
-1.52041e-07
8.0622e-07
8.0622e-07
1.87193e-07
2.42674e-07
8.63032e-08
-8.6223e-08
6.17401e-07
6.17401e-07
-8.5084e-07
-7.00117e-08
3.62889e-07
-4.47703e-07
6.70844e-07
6.70844e-07
-1.84818e-07
-7.35938e-07
-5.69012e-07
-6.58313e-07
-1.3044e-06
7.47117e-07
-9.86481e-07
-9.86481e-07
-9.13752e-08
-9.03297e-07
-1.29155e-07
-1.0096e-06
-2.23255e-07
-9.3568e-07
-2.83124e-07
-6.38977e-07
-4.2213e-07
-2.51244e-07
-3.44645e-07
-1.50876e-07
-1.50876e-07
0.000598726
0.000218031
0.000202641
0.000120521
0.00011599
6.38835e-05
6.70454e-05
3.3916e-05
3.2658e-05
1.78311e-05
1.40918e-05
1.00392e-05
6.85952e-07
6.10487e-06
-5.59837e-06
4.50009e-06
-9.42849e-06
3.80231e-06
-1.0299e-05
3.64894e-06
-9.8614e-06
3.62985e-06
-8.78307e-06
3.62818e-06
-7.09596e-06
3.49629e-06
-6.03365e-06
3.08486e-06
-4.66025e-06
2.35754e-06
-4.46485e-06
1.50201e-06
-4.0819e-06
8.07854e-07
-3.40021e-06
3.69367e-07
-2.3086e-06
-1.18674e-07
-1.3601e-06
-4.74468e-07
-2.75152e-07
-6.57214e-07
-6.57214e-07
)
;
    }
    procBoundary3to6
    {
        type            processor;
        value           uniform 0.000614927;
    }
    procBoundary3to7
    {
        type            processor;
        value           nonuniform List<scalar> 
16
(
-0.000179597
0.000462361
0.000613357
0.00033199
0.000684845
-0.000447003
-0.000567115
-0.000255444
-0.000255444
-0.00276122
0.00174261
-0.000985031
0.00148164
-0.0027321
0.00290533
-8.38333e-05
)
;
    }
}


// ************************************************************************* //
