/*--------------------------------*- C++ -*----------------------------------*\
| =========                 |                                                 |
| \\      /  F ield         | OpenFOAM: The Open Source CFD Toolbox           |
|  \\    /   O peration     | Version:  2506                                  |
|   \\  /    A nd           | Website:  www.openfoam.com                      |
|    \\/     M anipulation  |                                                 |
\*---------------------------------------------------------------------------*/
FoamFile
{
    version     2.0;
    format      ascii;
    arch        "LSB;label=32;scalar=64";
    class       volVectorField;
    location    "150";
    object      momentError;
}
// * * * * * * * * * * * * * * * * * * * * * * * * * * * * * * * * * * * * * //

dimensions      [0 1 -2 0 0 0 0];

internalField   nonuniform List<vector> 
1340
(
(0.00320721 0.000341161 5.90912e-16)
(0.00246508 0.00347973 -1.89427e-15)
(0.00353207 0.00035297 5.79022e-15)
(0.00392948 0.00178566 7.66655e-16)
(0.0035164 0.000363024 1.1711e-15)
(0.00233623 0.00340206 2.712e-15)
(0.00317173 7.4293e-05 9.51833e-17)
(0.00342845 0.000622392 6.14478e-16)
(0.00404421 0.000403287 6.83689e-16)
(0.00405887 0.00178934 -3.80967e-16)
(0.00317637 0.000374181 -5.26213e-16)
(0.00223507 0.0033282 2.96472e-15)
(0.00323039 -0.000232925 -1.28775e-15)
(0.00311357 -0.00012383 2.68947e-15)
(0.00318873 8.19886e-05 8.38697e-18)
(0.00362241 0.000116301 1.65751e-18)
(0.00359803 0.000650924 1.17188e-15)
(0.00355772 0.000444564 -4.06634e-15)
(0.00373334 0.00177137 -2.14588e-15)
(0.00309327 0.000379844 1.54821e-17)
(0.00215858 0.00325203 -5.27567e-15)
(0.00391293 -0.000654692 2.09747e-16)
(0.00388976 -0.000569217 -2.57602e-16)
(0.00364952 -0.000473925 1.7806e-16)
(0.00342375 -0.000379534 1.08734e-15)
(0.0034204 -0.000285823 -3.99777e-16)
(0.00375651 -0.000170522 2.62166e-15)
(0.00360803 -6.85692e-05 -7.98308e-16)
(0.00335413 0.000125658 -1.35573e-15)
(0.00309325 0.000157109 -1.72375e-17)
(0.00320419 0.000665984 -1.76942e-16)
(0.00347371 0.000480641 2.6487e-15)
(0.00364426 0.00174723 1.47414e-15)
(0.00303243 0.000386993 3.31227e-18)
(0.00205986 0.00317348 4.26253e-16)
(0.00499786 -0.00110527 -9.24742e-16)
(0.00468623 -0.00099024 2.1328e-16)
(0.00441176 -0.000880398 3.35555e-16)
(0.00413802 -0.000774298 1.07518e-15)
(0.00413627 -0.000666883 9.92168e-16)
(0.00453512 -0.000551103 -3.85759e-16)
(0.00464989 -0.000463396 -6.06472e-16)
(0.00435253 -0.000369071 -5.49214e-16)
(0.00410747 -0.000277092 1.63628e-15)
(0.00368389 -0.000189478 -1.08329e-16)
(0.00315069 -9.27049e-05 -6.6149e-16)
(0.00303979 -8.32728e-06 8.34289e-16)
(0.0029348 0.000169109 -6.13441e-16)
(0.00298345 0.000201859 1.4909e-17)
(0.00311671 0.000680526 -1.59245e-16)
(0.00341547 0.000511331 6.04752e-16)
(0.00355153 0.00171437 7.00589e-16)
(0.00296048 0.000395146 2.56159e-17)
(0.00194676 0.00309486 -2.24037e-16)
(0.00784139 -0.00170635 4.43637e-16)
(0.00735967 -0.00158962 7.73078e-16)
(0.0068926 -0.00148087 9.52295e-16)
(0.00644686 -0.00137702 -2.46117e-16)
(0.00602568 -0.00127702 7.41394e-16)
(0.00554131 -0.00118261 -7.20635e-16)
(0.00543073 -0.00108631 -2.2034e-15)
(0.00595571 -0.000981799 -1.11665e-15)
(0.00555637 -0.000869897 6.04813e-16)
(0.00521749 -0.000763791 9.84954e-17)
(0.00493596 -0.000658278 1.40335e-15)
(0.00445167 -0.000549511 -2.17002e-16)
(0.00379769 -0.000432677 -5.03959e-17)
(0.00380961 -0.000352352 7.78916e-17)
(0.003585 -0.000265562 -5.44885e-17)
(0.00340961 -0.000176769 -5.2335e-16)
(0.00319773 -9.01053e-05 1.04382e-15)
(0.00305477 -6.73457e-06 -9.41531e-16)
(0.00294824 6.15154e-05 1.19711e-16)
(0.0028584 0.000219187 1.67873e-15)
(0.0029193 0.000251112 -3.65397e-17)
(0.00305501 0.000699783 1.66879e-16)
(0.00335589 0.000542205 -1.37258e-15)
(0.00344476 0.00167623 -1.62914e-15)
(0.00287145 0.000401784 -2.05108e-17)
(0.00183427 0.00301464 6.11314e-16)
(0.0151105 -0.00332016 -2.27025e-16)
(0.0143673 -0.00314591 2.52339e-16)
(0.0136451 -0.00297215 -1.04464e-16)
(0.0129545 -0.00280244 -2.03825e-16)
(0.0122895 -0.00263532 6.66726e-16)
(0.0116502 -0.00247459 -5.35596e-16)
(0.0110317 -0.00231978 9.4564e-17)
(0.0104372 -0.00217185 5.86652e-16)
(0.00987181 -0.00202585 -5.84666e-16)
(0.00933666 -0.00189267 -1.77192e-15)
(0.00858912 -0.00177427 3.23628e-17)
(0.00845222 -0.00165848 -3.38482e-16)
(0.00944792 -0.00154643 3.14101e-16)
(0.00884755 -0.00141734 3.30015e-16)
(0.0082778 -0.00130644 -9.63209e-17)
(0.00773177 -0.00120513 -2.14125e-16)
(0.00721741 -0.0011086 6.84154e-16)
(0.00673064 -0.00101918 -2.63412e-16)
(0.00590114 -0.000930877 -3.85202e-16)
(0.00487192 -0.000825022 3.18127e-16)
(0.00455076 -0.000736109 -9.67886e-16)
(0.00427973 -0.00064335 6.17437e-16)
(0.00406217 -0.00054119 -3.66323e-16)
(0.0038248 -0.00042891 -5.03914e-16)
(0.00366503 -0.000321415 2.7838e-16)
(0.0036802 -0.00024442 1.9549e-16)
(0.00347158 -0.00016287 4.07614e-16)
(0.00331007 -8.13272e-05 -4.4289e-16)
(0.00313034 -2.20829e-06 -7.58461e-16)
(0.00300482 7.74396e-05 2.61314e-16)
(0.00289866 0.000142007 4.20552e-17)
(0.00281322 0.000282204 -1.67455e-16)
(0.00286925 0.000310473 1.2145e-17)
(0.00300102 0.000727006 -1.35269e-16)
(0.00329696 0.000577289 2.76543e-15)
(0.00333846 0.00163631 -1.29625e-16)
(0.00277975 0.000405515 2.62937e-16)
(0.00172675 0.00293111 -9.25943e-17)
(0.0951814 -0.0180394 -6.69271e-17)
(0.0879134 -0.018261 -2.13892e-17)
(0.0844938 -0.0172045 -2.58936e-18)
(0.0801757 -0.0165101 -2.34004e-17)
(0.0759393 -0.0157041 -1.04585e-17)
(0.0724875 -0.0149812 -7.58105e-18)
(0.0693487 -0.014256 2.1878e-17)
(0.0664807 -0.0135784 6.00812e-17)
(0.0638823 -0.0129314 -2.58517e-17)
(0.0614861 -0.0123272 -4.88672e-17)
(0.0592613 -0.0117619 2.30067e-17)
(0.0571724 -0.0112345 -4.45271e-17)
(0.0552028 -0.0107405 -5.48555e-17)
(0.0533285 -0.0102791 -4.82062e-17)
(0.0515364 -0.00984526 -9.82018e-17)
(0.0498094 -0.00943836 -9.85738e-18)
(0.048135 -0.00905107 -8.18866e-17)
(0.0465045 -0.00868594 -4.80331e-17)
(0.0449078 -0.00833756 -1.09836e-16)
(0.0433382 -0.00800793 -8.6939e-18)
(0.0417952 -0.00769536 1.27619e-16)
(0.0402762 -0.00740242 1.30109e-16)
(0.0387849 -0.00712815 -7.7801e-17)
(0.0373279 -0.00687447 5.31861e-17)
(0.0359064 -0.00664006 1.1575e-16)
(0.0345185 -0.00642433 1.10782e-17)
(0.0331593 -0.00622559 -9.84026e-17)
(0.0318284 -0.00604075 -7.36718e-18)
(0.0305232 -0.00586632 2.36737e-17)
(0.0292513 -0.00569529 -1.12683e-17)
(0.0280159 -0.00552602 -8.77877e-17)
(0.0268211 -0.00535355 7.63862e-17)
(0.0256585 -0.00517726 -2.24099e-16)
(0.0245366 -0.00499446 -8.66834e-17)
(0.0234521 -0.00480837 1.57934e-16)
(0.0224047 -0.00461802 2.90026e-17)
(0.0213913 -0.00442905 1.97605e-17)
(0.0204118 -0.00424132 -3.12305e-17)
(0.0194453 -0.00405913 4.22629e-17)
(0.0185512 -0.00386397 2.39916e-16)
(0.0177779 -0.00371429 -8.88036e-17)
(0.0161373 -0.00357287 2.04748e-18)
(0.0156917 -0.00338655 1.66576e-17)
(0.0177755 -0.0032604 -1.42575e-16)
(0.0169369 -0.00306697 6.68506e-16)
(0.016141 -0.00287571 1.39003e-17)
(0.0153667 -0.00269237 -6.22408e-16)
(0.0146144 -0.00251321 5.67672e-16)
(0.0138807 -0.00234256 3.63029e-16)
(0.013168 -0.00217738 -7.58017e-17)
(0.012476 -0.00202051 9.80801e-18)
(0.0118035 -0.00186652 -6.06872e-16)
(0.0111755 -0.00171272 -9.56419e-16)
(0.0105621 -0.00158194 -5.82102e-17)
(0.00929083 -0.00146067 -2.0478e-16)
(0.00767647 -0.00130304 3.0309e-16)
(0.00719121 -0.00119848 -7.04994e-17)
(0.0067327 -0.00109997 -1.37755e-15)
(0.0062922 -0.00100781 -4.79003e-17)
(0.00587427 -0.000922689 4.33303e-16)
(0.00548759 -0.000838569 2.04771e-16)
(0.00502501 -0.000748931 4.82296e-16)
(0.00468363 -0.000674265 4.00755e-16)
(0.00438043 -0.000601933 6.37426e-16)
(0.00411839 -0.000519247 1.08131e-15)
(0.00390916 -0.000429837 2.49265e-17)
(0.003706 -0.000332182 1.29938e-16)
(0.00357178 -0.000228843 -1.74711e-16)
(0.00359076 -0.000145887 -1.59621e-16)
(0.00339499 -6.44323e-05 8.16586e-16)
(0.00324354 1.46981e-05 -6.62986e-16)
(0.00307946 8.90338e-05 -4.1283e-17)
(0.00295384 0.000164583 -5.64054e-16)
(0.00284851 0.000227232 7.40809e-16)
(0.00277136 0.000353642 -3.09325e-16)
(0.0028271 0.000379013 4.14412e-17)
(0.00295988 0.000761461 8.53191e-17)
(0.00325135 0.000616671 -1.8669e-15)
(0.00324644 0.0015973 7.40465e-16)
(0.00269592 0.000409141 1.76597e-16)
(0.00162001 0.00284335 6.55736e-18)
(0.114445 -0.0313511 -1.18207e-17)
(0.111236 -0.0310305 -8.74671e-18)
(0.105137 -0.0293819 7.61314e-18)
(0.0979199 -0.0278236 -8.601e-19)
(0.0915191 -0.0263576 -1.04993e-17)
(0.0859866 -0.0249743 3.3214e-17)
(0.0808793 -0.0236705 1.1509e-17)
(0.076305 -0.0224408 -8.69782e-18)
(0.0721972 -0.0212786 2.81697e-17)
(0.0684881 -0.0201838 -3.75447e-18)
(0.065142 -0.0191533 3.05239e-17)
(0.0621073 -0.0181762 4.93429e-17)
(0.0593506 -0.0172524 -3.31327e-17)
(0.0568322 -0.0163755 4.13231e-17)
(0.0545201 -0.0155449 -2.5439e-17)
(0.0523842 -0.0147541 -8.1276e-17)
(0.0503942 -0.0140016 -6.04423e-18)
(0.0485307 -0.0132836 1.91146e-17)
(0.0467704 -0.0126001 1.67401e-17)
(0.0450977 -0.0119468 -2.17582e-17)
(0.0435008 -0.0113256 -8.97673e-18)
(0.0419729 -0.0107327 -2.67518e-18)
(0.0405053 -0.0101702 -2.34468e-17)
(0.0390979 -0.00963619 -3.80135e-17)
(0.0377416 -0.00913341 1.17402e-17)
(0.0364333 -0.0086583 5.17052e-17)
(0.0351597 -0.00821219 -4.54774e-17)
(0.0339224 -0.00779183 4.35199e-17)
(0.0327123 -0.00739697 -2.05443e-17)
(0.0315373 -0.00702075 4.27833e-17)
(0.0303916 -0.00666097 -1.01419e-16)
(0.029282 -0.00631418 -1.08076e-16)
(0.0281942 -0.00597963 -8.05794e-18)
(0.0271373 -0.00565513 -1.8384e-16)
(0.0261052 -0.00534122 -2.19452e-17)
(0.0250988 -0.00503558 7.5289e-17)
(0.0241118 -0.00474155 3.68892e-17)
(0.0231488 -0.0044582 2.93305e-17)
(0.02219 -0.0041892 5.74999e-17)
(0.0212301 -0.00392242 1.77254e-16)
(0.0204448 -0.00365101 -1.49131e-17)
(0.0196986 -0.00344775 -1.23274e-16)
(0.0175011 -0.00324712 1.10925e-16)
(0.0147191 -0.00293793 -2.50132e-16)
(0.0139841 -0.00276036 -4.26602e-16)
(0.0132925 -0.00258357 2.4193e-17)
(0.012621 -0.00241017 1.88444e-16)
(0.011974 -0.00224104 -2.74673e-16)
(0.011346 -0.00207785 2.51152e-16)
(0.0107448 -0.00191919 1.1078e-16)
(0.0101656 -0.00176581 2.05076e-16)
(0.00960618 -0.00161822 4.73975e-16)
(0.00907661 -0.00147366 5.15417e-16)
(0.00858392 -0.00133509 -2.18346e-17)
(0.00790984 -0.00119445 -4.68225e-17)
(0.00742015 -0.00108491 1.58775e-16)
(0.00695775 -0.000990775 1.7645e-16)
(0.00651441 -0.000896586 1.07856e-15)
(0.00608735 -0.000810022 1.5139e-17)
(0.0056806 -0.000735401 -1.01481e-15)
(0.00530466 -0.000668851 1.05636e-16)
(0.00488764 -0.000600246 -4.93782e-16)
(0.00456313 -0.000533824 -2.53648e-16)
(0.00426297 -0.000463684 6.90717e-19)
(0.00400398 -0.000387427 -8.88391e-16)
(0.00379784 -0.000310739 1.00198e-16)
(0.00360783 -0.000228792 5.5364e-17)
(0.00347307 -0.000137127 -9.74398e-18)
(0.00349086 -5.71559e-05 1.2845e-16)
(0.00330355 2.1731e-05 -4.26967e-16)
(0.00316207 0.000102152 2.06592e-16)
(0.0030134 0.000177418 1.04741e-16)
(0.00289302 0.000250509 4.05951e-17)
(0.0027955 0.000311015 -1.7751e-15)
(0.00273364 0.000426108 -5.24337e-16)
(0.00279896 0.000451088 -1.46863e-17)
(0.00293884 0.000800691 3.55122e-17)
(0.00322422 0.000660587 -1.40474e-15)
(0.00316998 0.00156113 4.82691e-16)
(0.00261905 0.000414761 -3.97579e-16)
(0.00151095 0.00275225 1.05082e-17)
(0.138004 -0.0366134 -1.04921e-17)
(0.13611 -0.0360981 -4.28624e-18)
(0.127613 -0.0342298 1.06463e-17)
(0.11931 -0.0323517 7.15608e-18)
(0.111652 -0.0305726 -3.17444e-18)
(0.104478 -0.0288567 -3.26683e-18)
(0.097752 -0.0272249 1.22407e-17)
(0.0915438 -0.0256798 -8.96165e-18)
(0.0858103 -0.0242242 -2.87645e-18)
(0.0805363 -0.0228534 1.38042e-17)
(0.0756977 -0.0215675 -1.78588e-18)
(0.0712568 -0.0203571 2.03586e-17)
(0.0671898 -0.0192215 1.87114e-17)
(0.0634593 -0.0181504 -1.13781e-17)
(0.0600325 -0.0171408 3.29635e-17)
(0.0568753 -0.0161841 -9.24306e-18)
(0.0539564 -0.0152778 -2.2605e-17)
(0.05125 -0.0144173 2.80287e-17)
(0.0487305 -0.0136011 1.44869e-17)
(0.0463758 -0.0128253 2.40811e-18)
(0.0441701 -0.01209 -8.96317e-18)
(0.0420993 -0.0113945 -6.28386e-17)
(0.0401498 -0.0107377 3.35038e-18)
(0.0383129 -0.0101195 -3.3214e-17)
(0.0365725 -0.0095384 -1.04448e-17)
(0.0349209 -0.00899456 1.66702e-17)
(0.0333461 -0.00848407 3.25334e-17)
(0.0318457 -0.00800537 2.9425e-18)
(0.0304109 -0.00755334 7.70379e-18)
(0.0290429 -0.00712545 -1.02317e-17)
(0.0277362 -0.00671455 2.62992e-17)
(0.0264906 -0.00631989 -5.40129e-17)
(0.0252942 -0.00593613 -1.25896e-17)
(0.0241506 -0.00556521 3.62951e-17)
(0.0230562 -0.00520578 -1.07674e-16)
(0.0220067 -0.00485832 -5.5974e-17)
(0.0209977 -0.00452208 1.94016e-17)
(0.020029 -0.0041998 -1.62319e-17)
(0.0190917 -0.00389483 -3.11492e-17)
(0.0181647 -0.00360337 -4.79875e-17)
(0.0173575 -0.00331768 3.67097e-17)
(0.0166431 -0.00306951 -3.75576e-17)
(0.0154843 -0.00282006 -1.08023e-16)
(0.0146857 -0.00261757 4.40446e-17)
(0.0139362 -0.00243228 -2.24939e-16)
(0.0132193 -0.00225206 5.94804e-19)
(0.012523 -0.00208049 1.42385e-17)
(0.0118504 -0.00191951 1.61163e-16)
(0.0112017 -0.00176639 -3.16236e-16)
(0.0105827 -0.00161995 7.54376e-20)
(0.00999012 -0.00147777 3.39749e-16)
(0.00941844 -0.00134293 -1.1245e-16)
(0.00887272 -0.00121556 4.72221e-16)
(0.00836906 -0.00110168 2.8491e-17)
(0.0077583 -0.000986425 -6.22132e-17)
(0.00727806 -0.000880033 -6.18529e-17)
(0.00681616 -0.000779221 -4.40936e-18)
(0.00637549 -0.000686027 -6.06602e-16)
(0.00595432 -0.00060527 2.10309e-16)
(0.00555381 -0.000536525 5.81956e-16)
(0.00518066 -0.000478681 -1.28939e-16)
(0.00478259 -0.000424447 9.68573e-16)
(0.00444953 -0.000371732 1.47782e-17)
(0.00414493 -0.000314758 -1.77872e-16)
(0.00388775 -0.000253494 -2.14622e-16)
(0.0036852 -0.000189701 -2.61498e-16)
(0.00350577 -0.000119398 5.03433e-16)
(0.00337519 -4.17355e-05 1.19181e-16)
(0.00339485 2.92855e-05 2.54472e-16)
(0.00321387 0.000100894 -4.66858e-16)
(0.00308021 0.000180102 1.47073e-16)
(0.00294671 0.000257297 -1.08641e-16)
(0.00283885 0.000329939 -1.1368e-15)
(0.00275484 0.000390136 -3.72622e-16)
(0.00271087 0.000496839 1.35326e-16)
(0.00278738 0.000524297 9.60039e-18)
(0.00293406 0.000843423 1.77184e-16)
(0.00320823 0.000708742 2.61631e-16)
(0.00310118 0.00152936 -8.74099e-16)
(0.00254511 0.000424793 -1.98801e-16)
(0.00139679 0.00265852 -4.97906e-16)
(0.145522 -0.032205 6.01007e-18)
(0.145832 -0.0323631 -1.67985e-18)
(0.138964 -0.0312213 -7.79986e-18)
(0.132065 -0.0299803 -2.20816e-18)
(0.125184 -0.0287568 5.18961e-18)
(0.118337 -0.0275108 -3.31798e-19)
(0.11166 -0.0262585 -4.08482e-18)
(0.105228 -0.0250116 1.63691e-18)
(0.0990683 -0.0237838 -1.74962e-17)
(0.093225 -0.0225812 -1.14923e-17)
(0.0877195 -0.0214166 -8.95875e-18)
(0.0825468 -0.020292 -1.86888e-18)
(0.0777146 -0.019214 2.34659e-17)
(0.0732091 -0.0181794 -6.77517e-18)
(0.0690159 -0.0171879 -2.73673e-17)
(0.0651149 -0.0162353 1.3414e-17)
(0.0614846 -0.0153185 -8.53557e-18)
(0.0581064 -0.0144345 -4.21274e-17)
(0.0549599 -0.0135809 -6.08919e-18)
(0.052025 -0.0127575 -6.28485e-19)
(0.0492865 -0.0119638 3.58371e-17)
(0.0467266 -0.0112034 4.72775e-17)
(0.0443295 -0.0104778 4.4488e-18)
(0.0420814 -0.00979168 1.7156e-17)
(0.0399649 -0.00914429 -4.10174e-19)
(0.0379675 -0.00854118 3.04443e-17)
(0.0360766 -0.00797959 -1.35252e-17)
(0.0342869 -0.0074599 -3.38679e-18)
(0.0325881 -0.00697532 -2.00808e-18)
(0.030976 -0.00652675 6.67264e-18)
(0.0294444 -0.00610605 -2.16104e-18)
(0.0279896 -0.00570929 2.71492e-17)
(0.0266012 -0.00532714 -1.57725e-19)
(0.0252811 -0.00496431 1.14023e-18)
(0.0240267 -0.00461637 1.96521e-17)
(0.0228303 -0.00428465 6.53489e-17)
(0.0216879 -0.00396436 -4.14057e-17)
(0.0205975 -0.00365783 -2.65161e-18)
(0.0195595 -0.003365 4.52199e-17)
(0.0185476 -0.00308745 3.87203e-18)
(0.0176221 -0.00282012 -7.92112e-17)
(0.0167957 -0.00259524 3.44145e-17)
(0.0157253 -0.00237718 7.2608e-17)
(0.0148819 -0.00217946 1.88378e-16)
(0.0140822 -0.00198801 1.98945e-16)
(0.0133168 -0.00181008 4.64315e-17)
(0.0125778 -0.00164643 -6.64414e-18)
(0.0118671 -0.0014984 -9.88935e-17)
(0.0111862 -0.00136216 1.13383e-16)
(0.0105379 -0.00123721 -5.16457e-17)
(0.00991924 -0.00111806 -2.62905e-16)
(0.0093242 -0.00100545 -1.67288e-16)
(0.00875424 -0.000898002 -7.62673e-17)
(0.00822508 -0.000804417 -4.54481e-17)
(0.0076352 -0.000712706 4.0746e-17)
(0.0071373 -0.000625787 -3.87428e-16)
(0.00666278 -0.000543344 -1.83716e-16)
(0.00621801 -0.000469758 -2.1586e-16)
(0.00579784 -0.000404279 -5.28631e-16)
(0.00540143 -0.000343374 1.2033e-16)
(0.00503389 -0.000288717 -1.35055e-16)
(0.00465705 -0.000240292 -5.22309e-16)
(0.00432858 -0.000199453 5.49378e-16)
(0.00402928 -0.000161402 6.86978e-16)
(0.00377774 -0.000120671 -1.08814e-16)
(0.00357907 -7.35201e-05 -3.2129e-16)
(0.00341076 -1.73079e-05 -7.83914e-18)
(0.00328907 4.67462e-05 -6.24248e-17)
(0.0033145 0.00010937 1.53905e-16)
(0.00313913 0.000172458 1.23806e-16)
(0.00300944 0.000248196 1.01322e-16)
(0.00288773 0.000324482 2.92462e-16)
(0.00279095 0.000396654 5.58509e-16)
(0.00271828 0.000458794 2.37395e-16)
(0.0026897 0.000560061 5.36783e-17)
(0.00277564 0.000592587 -1.36121e-16)
(0.00292715 0.00088347 -9.46282e-16)
(0.00318577 0.000757195 4.16197e-16)
(0.00302733 0.00149681 4.46953e-16)
(0.00246729 0.000436187 5.99526e-16)
(0.00128146 0.00256133 1.8319e-15)
(0.134166 -0.0233521 6.95641e-19)
(0.137481 -0.0235391 1.645e-18)
(0.134042 -0.0227629 5.06472e-18)
(0.130015 -0.0218452 1.51384e-18)
(0.125522 -0.0210295 -2.68168e-18)
(0.120663 -0.0201987 -1.29412e-18)
(0.115574 -0.0193774 -3.29041e-19)
(0.110354 -0.0185578 -7.09519e-20)
(0.105084 -0.0177437 7.42708e-20)
(0.0998441 -0.0169374 -6.9633e-18)
(0.0947032 -0.0161474 8.28421e-18)
(0.0896965 -0.0153785 -6.2123e-18)
(0.0848686 -0.0146374 -1.48573e-17)
(0.0802398 -0.0139267 -8.85102e-18)
(0.0758243 -0.0132462 -3.20746e-18)
(0.0716313 -0.0125936 2.99363e-18)
(0.0676599 -0.0119649 1.49942e-18)
(0.063911 -0.0113554 -1.07694e-17)
(0.0603766 -0.0107592 -1.59084e-17)
(0.0570503 -0.0101722 -4.15949e-18)
(0.0539245 -0.00959158 2.41919e-18)
(0.0509879 -0.00901754 1.76341e-17)
(0.0482277 -0.00845148 -2.42914e-17)
(0.0456329 -0.00789876 5.42177e-18)
(0.043189 -0.00736244 -2.0143e-17)
(0.0408862 -0.00684867 1.07145e-17)
(0.0387143 -0.0063603 3.02721e-17)
(0.0366639 -0.00590197 -2.34718e-17)
(0.0347233 -0.00547311 -4.24655e-17)
(0.0328863 -0.00507615 -1.21674e-17)
(0.0311475 -0.00470687 9.00363e-17)
(0.0295016 -0.00436456 6.02624e-17)
(0.0279364 -0.00403914 5.05508e-17)
(0.026455 -0.00373278 1.09704e-20)
(0.0250521 -0.0034413 -5.28815e-17)
(0.0237202 -0.00316871 -5.91756e-17)
(0.02245 -0.00291106 4.49054e-17)
(0.0212397 -0.00266828 -1.8988e-17)
(0.0200983 -0.00243425 -5.92202e-17)
(0.0189996 -0.00220923 4.64505e-17)
(0.0179644 -0.00198958 -1.21572e-17)
(0.0170191 -0.00180561 5.64601e-19)
(0.0159617 -0.00163163 -3.59852e-17)
(0.0150565 -0.00147375 3.33789e-18)
(0.0141969 -0.00132467 -1.62062e-16)
(0.013377 -0.00119008 -1.06768e-16)
(0.0125915 -0.0010658 -2.23467e-17)
(0.0118421 -0.000953599 -2.16761e-16)
(0.0111289 -0.000851809 -1.70713e-16)
(0.0104515 -0.000762461 -5.58565e-17)
(0.00980656 -0.000680108 -1.54869e-16)
(0.00918898 -0.000602426 1.12529e-16)
(0.00860004 -0.000524913 -3.0302e-16)
(0.00805361 -0.000455571 -4.2617e-17)
(0.00748158 -0.000388665 2.032e-16)
(0.00697975 -0.000328847 3.97912e-17)
(0.00650554 -0.000276535 -9.84909e-17)
(0.006061 -0.000231884 8.79535e-16)
(0.00564298 -0.000189858 5.11954e-17)
(0.00525271 -0.000145739 -7.54821e-16)
(0.00489413 -0.000101846 1.85175e-16)
(0.00454153 -6.17222e-05 -6.35388e-16)
(0.00423051 -3.03093e-05 -3.50643e-17)
(0.00394784 -5.83937e-06 7.62617e-17)
(0.00370608 1.88829e-05 -1.65839e-15)
(0.0035118 4.98975e-05 4.13802e-17)
(0.00335218 9.16099e-05 7.5579e-17)
(0.00323798 0.000142903 -2.38479e-16)
(0.00326839 0.000200166 3.12372e-16)
(0.00309403 0.000256341 -2.22382e-17)
(0.00296509 0.000326066 1.03333e-16)
(0.00284802 0.000397504 -6.90652e-16)
(0.00275551 0.000467334 -6.63191e-16)
(0.00268899 0.000530874 5.95886e-17)
(0.0026704 0.000627591 -4.90719e-17)
(0.00276492 0.000666617 1.21139e-16)
(0.00291727 0.000931276 -6.50543e-16)
(0.00316619 0.000814572 8.31818e-17)
(0.00294843 0.00147542 -6.68132e-16)
(0.0023987 0.000458004 -7.93242e-17)
(0.00115203 0.00247407 1.40865e-15)
(0.102497 -0.00907894 2.46912e-18)
(0.106913 -0.00936216 3.43414e-18)
(0.106281 -0.00920104 -9.50224e-19)
(0.105067 -0.00895881 1.71041e-18)
(0.103359 -0.00877671 1.57161e-18)
(0.101162 -0.00856603 -1.3317e-17)
(0.0985393 -0.00835129 -7.96288e-18)
(0.0955392 -0.00811923 -2.90124e-18)
(0.0922286 -0.00786311 -7.72967e-19)
(0.088699 -0.00759101 3.55344e-18)
(0.0849965 -0.00729738 -7.87728e-18)
(0.0811983 -0.00699063 1.05868e-17)
(0.0773588 -0.00667735 1.79735e-18)
(0.0735252 -0.00636532 6.56063e-18)
(0.0697358 -0.00605812 1.64121e-17)
(0.0660319 -0.00576082 1.49452e-17)
(0.0624284 -0.00547814 1.31054e-17)
(0.0589474 -0.00520559 5.22916e-18)
(0.0556089 -0.00494634 2.27985e-17)
(0.052411 -0.00469272 -1.12415e-17)
(0.0493681 -0.00444499 -3.37364e-17)
(0.0464743 -0.00419908 -7.52207e-18)
(0.0437294 -0.0039538 -2.11959e-18)
(0.0411347 -0.00370932 -9.89555e-18)
(0.0386807 -0.00346815 -7.53719e-18)
(0.0363612 -0.00323058 -2.55273e-17)
(0.0341735 -0.00299946 -4.61773e-18)
(0.032112 -0.00277752 -1.38798e-18)
(0.030169 -0.00256765 2.72617e-17)
(0.028336 -0.00237091 -8.63014e-18)
(0.0266081 -0.00218594 9.4437e-18)
(0.0249854 -0.00201265 2.91288e-17)
(0.0234563 -0.0018484 2.36033e-17)
(0.0220207 -0.00169105 6.31969e-17)
(0.0206728 -0.00153952 4.88295e-18)
(0.019402 -0.0013975 -4.168e-17)
(0.018204 -0.00126613 -5.9906e-17)
(0.0170773 -0.00114551 1.93924e-17)
(0.0160233 -0.00103153 5.39385e-17)
(0.0150193 -0.000919886 -3.36905e-17)
(0.0140818 -0.000811617 5.78267e-17)
(0.0132034 -0.000719146 -1.03894e-17)
(0.0123321 -0.000632584 2.11617e-17)
(0.0115508 -0.000555281 -1.20403e-16)
(0.0108146 -0.000485082 -3.45432e-17)
(0.0101202 -0.000422671 3.12832e-17)
(0.00946419 -0.000364538 -3.99118e-17)
(0.00884728 -0.000311793 -4.60224e-17)
(0.00826861 -0.000264732 7.13517e-17)
(0.00772434 -0.00022579 3.77336e-18)
(0.0072123 -0.000192869 1.34758e-16)
(0.00672695 -0.000164028 2.26035e-16)
(0.00627201 -0.000135482 2.72037e-17)
(0.00584875 -0.00010966 6.71047e-17)
(0.00543404 -8.33578e-05 1.2306e-17)
(0.00506321 -5.95962e-05 1.82651e-16)
(0.00471612 -3.89662e-05 4.09012e-17)
(0.00439298 -2.14988e-05 -3.05632e-16)
(0.0040904 -4.467e-06 2.95925e-16)
(0.00381075 1.48096e-05 7.83439e-17)
(0.0035557 3.6274e-05 -5.63809e-17)
(0.00331439 5.85124e-05 4.572e-16)
(0.00310231 7.80077e-05 -1.38983e-16)
(0.00291145 9.35054e-05 -1.16795e-16)
(0.00274885 0.00010715 8.14389e-16)
(0.00261739 0.000122008 -6.16005e-17)
(0.00251397 0.000142385 -3.64638e-16)
(0.00244015 0.000171136 -3.67913e-18)
(0.0025053 0.000213925 -1.31177e-16)
(0.00237171 0.000250213 -3.44885e-17)
(0.00227669 0.000298031 -8.36031e-17)
(0.00219439 0.000349915 4.40401e-16)
(0.0021344 0.000403879 4.60565e-16)
(0.00209898 0.000459523 1.99728e-16)
(0.00210997 0.000536703 1.66159e-16)
(0.00221842 0.000585857 -1.16756e-16)
(0.00237576 0.00078456 7.06473e-16)
(0.00262029 0.000721545 9.83976e-18)
(0.00243764 0.00121716 7.83689e-16)
(0.0020274 0.000410212 -4.01746e-16)
(0.000923261 0.00213967 -2.27204e-15)
(0.0777782 0.00755874 7.8084e-18)
(0.0798095 0.00762186 -2.7006e-18)
(0.0790716 0.00738217 -3.81139e-18)
(0.0785753 0.00711486 5.53531e-19)
(0.0781838 0.00675698 4.59732e-18)
(0.0777504 0.00637322 6.30856e-18)
(0.0771653 0.00596134 -3.42285e-18)
(0.0763586 0.00553287 3.7084e-19)
(0.075283 0.00510289 7.67357e-18)
(0.0739458 0.0046895 4.35816e-18)
(0.0723339 0.00429503 -3.71438e-18)
(0.0704787 0.00393143 -8.07581e-18)
(0.0684069 0.00359778 6.61545e-19)
(0.0661608 0.00329799 1.03469e-19)
(0.0637658 0.00303028 -6.33203e-19)
(0.0612791 0.0027919 1.45167e-18)
(0.0587182 0.00257431 9.83305e-18)
(0.0561265 0.00237814 5.16252e-18)
(0.0535301 0.00220187 -1.0795e-17)
(0.0509483 0.00203994 1.79689e-17)
(0.0484118 0.00189247 1.17479e-17)
(0.0459291 0.00175862 -5.15705e-18)
(0.0435067 0.00163934 1.47302e-18)
(0.0411662 0.00153308 1.36177e-17)
(0.0389073 0.00143784 1.23334e-17)
(0.0367342 0.00135207 1.46222e-17)
(0.0346527 0.00127394 -1.22032e-17)
(0.0326584 0.00120079 -2.75911e-19)
(0.0307539 0.00113175 1.62748e-17)
(0.0289391 0.00106538 3.93627e-18)
(0.0272154 0.00100203 -2.34167e-17)
(0.0255827 0.000942838 -1.24331e-17)
(0.024038 0.000889455 -6.36825e-18)
(0.0225749 0.000843946 1.88029e-17)
(0.0211943 0.000807094 3.80506e-17)
(0.0198864 0.000775372 3.88211e-17)
(0.0186508 0.000745402 2.73405e-17)
(0.0174845 0.000715536 -1.92292e-17)
(0.0163905 0.000685424 -5.90137e-17)
(0.0153433 0.000657547 2.65634e-17)
(0.0143486 0.000635306 6.62532e-18)
(0.0134271 0.000610296 2.42904e-17)
(0.0125397 0.000589247 -4.79852e-17)
(0.0117248 0.000568339 8.80108e-17)
(0.0109554 0.00054822 -3.20131e-17)
(0.0102294 0.000527846 1.02601e-16)
(0.00954818 0.000509944 3.43939e-17)
(0.00890903 0.00049366 -6.52494e-17)
(0.0083118 0.000477653 4.85516e-17)
(0.00775011 0.000457723 1.15204e-16)
(0.00722317 0.000433519 3.12894e-17)
(0.00672615 0.000404945 -4.04379e-17)
(0.00625892 0.000376269 2.1611e-16)
(0.00582896 0.000347357 4.56835e-17)
(0.00541594 0.000323684 -1.09096e-16)
(0.00504283 0.000304725 -2.78144e-16)
(0.00469545 0.000289945 -2.39492e-17)
(0.0043728 0.00027766 -1.9337e-17)
(0.00407324 0.000267736 -2.40973e-16)
(0.00379637 0.000261591 1.87769e-16)
(0.003546 0.000260198 1.12542e-16)
(0.00331236 0.000264699 1.99499e-16)
(0.00310704 0.000272072 1.88305e-16)
(0.00292297 0.000278493 -4.19393e-16)
(0.00276556 0.000281315 5.17478e-16)
(0.00263608 0.000280665 3.32967e-16)
(0.00253049 0.000281299 2.08926e-17)
(0.0024563 0.000289969 1.1184e-16)
(0.00252308 0.000321204 -2.67648e-16)
(0.0023834 0.000345092 -5.76174e-17)
(0.00228201 0.000382475 -1.91438e-17)
(0.0021956 0.000426376 4.68048e-16)
(0.00213285 0.000475515 5.34047e-16)
(0.00209989 0.000530806 4.71146e-16)
(0.00211985 0.000600699 2.0686e-16)
(0.00223902 0.000656764 1.026e-16)
(0.00240126 0.000823381 -7.27834e-16)
(0.00261851 0.000769973 1.61828e-16)
(0.0023932 0.00118314 6.99954e-16)
(0.00193766 0.00040625 -1.41744e-16)
(0.000836307 0.00202894 -5.27171e-16)
(0.0756623 0.0207897 -1.6864e-18)
(0.0720551 0.0208956 3.23019e-18)
(0.0670013 0.0201172 1.31759e-18)
(0.0632727 0.0193476 3.60087e-19)
(0.0605683 0.0185605 4.15849e-19)
(0.0586627 0.0177656 1.1327e-18)
(0.0573113 0.016957 4.17714e-18)
(0.0563407 0.0161424 2.23405e-20)
(0.0555852 0.0153199 -5.62286e-18)
(0.054916 0.0144949 -1.79114e-18)
(0.0542557 0.0136733 2.01929e-18)
(0.0535242 0.0128657 -2.78716e-18)
(0.0526841 0.0120777 -7.5312e-19)
(0.051709 0.0113168 -5.65421e-18)
(0.0505953 0.0105876 2.06428e-18)
(0.0493464 0.0098994 -1.5622e-18)
(0.047962 0.00924985 -3.60233e-18)
(0.0464766 0.00864161 1.41038e-18)
(0.0448966 0.00807584 3.38153e-18)
(0.0432451 0.00755091 -9.91619e-18)
(0.0415458 0.00706614 -8.02889e-18)
(0.0398169 0.00661771 -1.91911e-18)
(0.0380676 0.00620317 -1.1533e-18)
(0.0363246 0.00582165 -9.87663e-18)
(0.0345934 0.00546984 -9.02681e-18)
(0.0328856 0.00513976 -8.31759e-18)
(0.0312127 0.00483039 2.56393e-17)
(0.0295768 0.00453654 -4.92909e-19)
(0.0279867 0.00425537 -2.41769e-17)
(0.02645 0.00398425 3.12522e-18)
(0.024973 0.00372382 9.15138e-18)
(0.0235592 0.00347383 2.2637e-18)
(0.0222073 0.00323753 -6.92017e-18)
(0.0209147 0.00301672 -3.32128e-17)
(0.0196853 0.00281368 -6.86709e-18)
(0.0185118 0.00262643 1.69393e-17)
(0.0173988 0.00245284 1.77961e-17)
(0.01634 0.00228901 4.92047e-18)
(0.0153368 0.0021326 -1.56339e-17)
(0.0143723 0.00198283 -4.50947e-17)
(0.013453 0.00184213 5.01121e-18)
(0.0125979 0.00170718 -3.35359e-17)
(0.0117844 0.0015809 2.53963e-17)
(0.0110238 0.00146096 -1.95586e-17)
(0.0103049 0.00134793 6.19706e-17)
(0.0096268 0.00124308 -8.6003e-17)
(0.0089914 0.00114809 3.36712e-17)
(0.00839642 0.00106341 4.44964e-17)
(0.00783974 0.000986978 -9.08828e-17)
(0.00731737 0.000915507 -8.18705e-17)
(0.00682796 0.000845331 -5.18055e-17)
(0.00636778 0.000775397 -5.93818e-17)
(0.00593438 0.000706834 -2.91883e-18)
(0.00553336 0.000640403 -1.35967e-16)
(0.00515318 0.000580819 8.3504e-17)
(0.00480421 0.000529481 1.44613e-16)
(0.00447919 0.00048618 -1.31234e-16)
(0.00417717 0.000449703 9.42483e-17)
(0.00389784 0.000418965 2.57062e-16)
(0.00364027 0.000395208 4.51716e-17)
(0.00340685 0.00037933 1.00528e-16)
(0.00319124 0.000372705 -1.75333e-16)
(0.00300005 0.000372523 -1.58574e-16)
(0.00283009 0.000374714 3.4403e-17)
(0.00268629 0.000374522 -5.3887e-16)
(0.00256926 0.000370772 -3.09024e-16)
(0.00247389 0.000367265 3.61313e-16)
(0.00240774 0.000370301 -1.77549e-16)
(0.00248353 0.000399263 -1.83652e-16)
(0.00234612 0.00041539 4.52761e-17)
(0.00224573 0.00044398 -1.70126e-16)
(0.00216077 0.000479436 -1.06462e-16)
(0.00209987 0.000521991 -3.42126e-16)
(0.00207181 0.000572561 -1.99173e-17)
(0.00210388 0.000635087 2.56553e-17)
(0.00222992 0.000695157 3.66441e-18)
(0.00240568 0.000840985 1.11868e-15)
(0.00258481 0.000795545 -4.04106e-16)
(0.00235453 0.00115316 -4.41776e-16)
(0.00183397 0.000408004 1.63354e-16)
(0.00078044 0.00193485 -1.10001e-16)
(0.0997673 0.0275639 7.98968e-19)
(0.106037 0.0257004 8.98507e-19)
(0.0907778 0.0277771 3.62237e-20)
(0.0791798 0.026812 -4.45903e-19)
(0.0698109 0.0258221 -1.45253e-18)
(0.0621809 0.0248832 -1.43472e-18)
(0.0561023 0.0239362 -2.08794e-18)
(0.0513265 0.0230129 7.32108e-19)
(0.0476411 0.0220988 2.40613e-18)
(0.0448299 0.021194 3.7886e-18)
(0.0426976 0.0202911 8.65715e-19)
(0.0410847 0.0193881 -1.28785e-18)
(0.039841 0.0184808 2.75872e-18)
(0.0388531 0.0175751 5.47807e-18)
(0.0380171 0.0166683 8.41574e-18)
(0.0372649 0.0157657 -3.62015e-18)
(0.0365387 0.0148788 1.41579e-18)
(0.0357932 0.0140061 -3.44305e-18)
(0.035015 0.0131593 -3.42521e-18)
(0.034179 0.0123437 -5.48717e-19)
(0.0332835 0.0115637 4.90322e-18)
(0.0323296 0.0108264 -8.30936e-19)
(0.0313205 0.0101278 5.70431e-18)
(0.0302646 0.00947365 5.84654e-18)
(0.0291676 0.00886182 -2.01851e-18)
(0.0280417 0.00829346 -1.02766e-17)
(0.0268918 0.00776188 -1.20523e-17)
(0.0257326 0.00726397 -1.09564e-17)
(0.0245713 0.00679606 1.60526e-17)
(0.0234152 0.00635167 -9.79137e-20)
(0.0222784 0.00592774 -1.66181e-17)
(0.0211673 0.00552267 6.39152e-18)
(0.0200873 0.00513494 1.00783e-17)