/*--------------------------------*- C++ -*----------------------------------*\
| =========                 |                                                 |
| \\      /  F ield         | OpenFOAM: The Open Source CFD Toolbox           |
|  \\    /   O peration     | Version:  2506                                  |
|   \\  /    A nd           | Website:  www.openfoam.com                      |
|    \\/     M anipulation  |                                                 |
\*---------------------------------------------------------------------------*/
FoamFile
{
    version     2.0;
    format      ascii;
    arch        "LSB;label=32;scalar=64";
    class       volScalarField;
    location    "150";
    object      p;
}
// * * * * * * * * * * * * * * * * * * * * * * * * * * * * * * * * * * * * * //

dimensions      [0 2 -2 0 0 0 0];

internalField   nonuniform List<scalar> 
1340
(
4.948
12.5917
7.4267
8.68849
4.93466
12.3451
8.26235
8.17548
7.32263
8.52489
4.90888
12.0945
9.02661
8.73091
8.45574
8.09937
8.01467
7.20722
8.3486
4.86684
11.8428
10.0573
9.79326
9.56003
9.31492
9.05826
8.79283
8.51598
8.25706
7.92284
7.83913
7.07768
8.158
4.81083
11.5853
10.9897
10.7543
10.5067
10.2486
9.98119
9.70786
9.46694
9.25291
9.02694
8.78967
8.54358
8.28564
8.04246
7.72995
7.64712
6.93365
7.95264
4.74272
11.3187
11.46
11.3683
11.2599
11.1348
10.9931
10.8352
10.6618
10.4732
10.2702
10.0539
9.82601
9.58794
9.34292
9.12486
8.9299
8.72299
8.50431
8.27625
8.0373
7.81031
7.52049
7.43883
6.77524
7.7325
4.66238
11.0416
10.3691
10.4572
10.5376
10.6092
10.6711
10.7223
10.762
10.7894
10.8036
10.8039
10.79
10.7611
10.7165
10.6556
10.578
10.4839
10.3734
10.2467
10.1047
9.94765
9.7751
9.58867
9.38969
9.17911
8.96012
8.7641
8.58797
8.40016
8.20055
7.99124
7.77166
7.56116
7.29482
7.21446
6.60166
7.49683
4.56955
10.7522
5.61431
5.6588
5.70132
5.74641
5.79329
5.84239
5.89361
5.94709
6.00286
6.061
6.12157
6.18465
6.25029
6.31855
6.38953
6.46324
6.53975
6.61908
6.70131
6.78642
6.87445
6.96539
7.05926
7.15601
7.25566
7.35808
7.46328
7.57109
7.68142
7.79408
7.90888
8.02555
8.14381
8.26333
8.38374
8.50459
8.62545
8.74579
8.8651
8.98271
9.09812
9.2108
9.31997
9.42431
9.52304
9.61502
9.69958
9.77582
9.84293
9.89999
9.94625
9.9808
10.0029
10.0118
10.0075
9.98871
9.95392
9.90317
9.83653
9.75386
9.6552
9.54079
9.41101
9.26652
9.1083
8.93708
8.75352
8.56071
8.38648
8.22894
8.06007
7.87968
7.68956
7.4894
7.29542
7.05248
6.97337
6.41198
7.24486
4.46461
10.4476
4.97981
5.0197
5.05818
5.09874
5.14088
5.18496
5.23095
5.27898
5.32909
5.38139
5.43592
5.49279
5.55203
5.61376
5.678
5.74483
5.8143
5.88648
5.96139
6.03908
6.11959
6.20293
6.28911
6.37814
6.47
6.56466
6.6621
6.76221
6.86495
6.97018
7.07778
7.18752
7.29924
7.41266
7.52752
7.64346
7.76014
7.87711
7.99398
8.11015
8.22508
8.33823
8.44935
8.55727
8.66064
8.75878
8.85106
8.93651
9.01438
9.08372
9.14375
9.19352
9.23223
9.25884
9.27267
9.27299
9.25943
9.23161
9.18895
9.1311
9.05794
8.96943
8.86587
8.74795
8.61621
8.47129
8.31394
8.14677
7.99394
7.85451
7.70415
7.54254
7.37116
7.19005
7.01241
6.79264
6.71509
6.20578
6.97562
4.34902
10.1231
4.45883
4.49431
4.52866
4.56474
4.60219
4.64127
4.68198
4.72442
4.76868
4.81484
4.86298
4.9132
4.96556
5.02016
5.07706
5.13634
5.19807
5.26232
5.32913
5.39857
5.47069
5.54553
5.62313
5.70351
5.78669
5.87267
5.96146
6.05298
6.14724
6.2441
6.34352
6.44528
6.54929
6.65527
6.76308
6.87232
6.98278
7.09398
7.20566
7.31724
7.4283
7.53808
7.64616
7.75188
7.85494
7.9546
8.05008
8.14041
8.22483
8.30231
8.37206
8.43307
8.48454
8.52547
8.55502
8.5725
8.5775
8.56936
8.54742
8.51134
8.4609
8.39596
8.31664
8.2232
8.11592
7.99552
7.86255
7.71954
7.58685
7.46482
7.33234
7.18882
7.03558
6.87307
6.71174
6.51487
6.43923
5.98316
6.68739
4.22547
9.77222
3.97947
4.01072
4.04107
4.073
4.1062
4.14094
4.17718
4.21504
4.25455
4.2958
4.33884
4.38377
4.43063
4.47953
4.5305
4.58365
4.63901
4.69666
4.75664
4.81901
4.88383
4.95112
5.02095
5.09334
5.16835
5.24597
5.32627
5.4092
5.49482
5.58301
5.67383
5.76706
5.86269
5.96049
6.06037
6.162
6.26525
6.36969
6.47512
6.58103
6.68717
6.79292
6.89791
7.00152
7.10343
7.20281
7.2991
7.39143
7.4792
7.56145
7.63745
7.70622
7.76699
7.81881
7.86093
7.8925
7.91278
7.92104
7.91666
7.89918
7.8683
7.82375
7.76549
7.69366
7.60848
7.51043
7.39992
7.2791
7.16535
7.05979
6.94431
6.81823
6.68262
6.53829
6.39315
6.21887
6.1451
5.74489
6.376
4.10078
9.38327
3.58209
3.60916
3.63549
3.66314
3.69194
3.72206
3.75357
3.78648
3.8209
3.85686
3.89445
3.93371
3.97475
4.01759
4.06238
4.10912
4.15794
4.20884
4.26196
4.31726
4.37488
4.43476
4.49704
4.56164
4.62872
4.69818
4.77017
4.84455
4.92149
5.00086
5.0828
5.16708
5.25381
5.3427
5.43387
5.52695
5.62193
5.71842
5.81639
5.91531
6.01505
6.11504
6.21504
6.31446
6.41298
6.50977
6.60444
6.69615
6.78439
6.86829
6.94724
7.02029
7.08674
7.14558
7.19611
7.23753
7.26903
7.28988
7.2995
7.29718
7.28252
7.25513
7.21481
7.16168
7.09591
7.01785
6.92764
6.82718
6.73101
6.6408
6.54126
6.43173
6.31299
6.18608
6.05673
5.90474
5.83133
5.49299
6.0357
3.98401
8.94751
3.07901
3.10208
3.1247
3.14846
3.17325
3.19917
3.22626
3.25454
3.28412
3.31497
3.34723
3.38087
3.41603
3.45268
3.49104
3.53101
3.57279
3.61637
3.66194
3.70941
3.75901
3.81062
3.8645
3.92049
3.9788
4.03929
4.1022
4.16733
4.23491
4.30473
4.37707
4.45163
4.5286
4.60772
4.68921
4.77264
4.85817
4.94542
5.03455
5.12499
5.21678
5.30936
5.40264
5.4961
5.58958
5.68231
5.77411
5.86413
5.952
6.0369
6.11835
6.19544
6.26763
6.33382
6.39344
6.44564
6.48974
6.52484
6.55046
6.5657
6.5701
6.56307
6.54437
6.51381
6.47149
6.41749
6.35202
6.27647
6.20191
6.13069
6.05096
5.96201
5.86452
5.75955
5.65038
5.52753
5.45319
5.20146
5.6178
3.87851
8.41383
2.58227
2.59854
2.61461
2.6316
2.64952
2.66839
2.68833
2.7093
2.73148
2.75476
2.77936
2.80514
2.83232
2.86079
2.89079
2.92214
2.95511
2.98959
3.02583
3.0637
3.10346
3.14494
3.1885
3.23391
3.28146
3.33098
3.38279
3.43668
3.49296
3.55136
3.61223
3.67528
3.74079
3.80849
3.87866
3.95088
4.02543
4.10194
4.18061
4.26099
4.34324
4.42681
4.51181
4.59769
4.68438
4.77131
4.85836
4.94478
5.03031
5.11426
5.19627
5.27552
5.35163
5.42362
5.49097
5.5528
5.60848
5.65706
5.69802
5.73045
5.75384
5.76751
5.77108
5.76411
5.74648
5.71811
5.67915
5.63072
5.57992
5.52978
5.47221
5.40659
5.33335
5.2536
5.16924
5.07729
5.01594
4.83135
5.19991
3.62804
8.06706
2.16627
2.17838
2.19044
2.20321
2.21678
2.2311
2.24633
2.26238
2.27941
2.29738
2.31645
2.33652
2.3578
2.38021
2.40394
2.42885
2.4552
2.48284
2.51201
2.54258
2.57476
2.6084
2.6438
2.68078
2.71961
2.76013
2.8026
2.84686
2.89323
2.94148
2.99192
3.04436
3.09906
3.15581
3.21488
3.27594
3.33926
3.40456
3.47203
3.54134
3.61269
3.68567
3.76041
3.83644
3.91378
3.992
4.07101
4.15018
4.22935
4.30791
4.38566
4.46181
4.53612
4.6078
4.67636
4.74105
4.80124
4.85606
4.905
4.94718
4.98208
5.00902
5.02746
5.03689
5.03707
5.02779
5.00916
4.98203
4.95042
4.91753
4.87856
4.83279
4.78072
4.72327
4.66191
4.59795
4.5518
4.42728
4.76994
3.33646
7.72701
1.74451
1.73624
1.7528
1.76124
1.77052
1.78059
1.79141
1.80312
1.81558
1.82896
1.84317
1.85839
1.87449
1.89169
1.9099
1.92933
1.94983
1.97168
1.99471
2.01918
2.04494
2.07221
2.10084
2.13108
2.16277
2.19614
2.23103
2.26766
2.30588
2.34596
2.38769
2.43136
2.47679
2.5242
2.57345
2.62472
2.67778
2.73284
2.78968
2.84844
2.9089
2.9712
3.03506
3.10059
3.16747
3.23576
3.30512
3.3755
3.44646
3.51784
3.58917
3.66026
3.73052
3.79972
3.86726
3.93273
3.99552
4.05513
4.11079
4.16206
4.20815
4.24853
4.28255
4.30966
4.32933
4.34132
4.34531
4.34133
4.33006
4.31316
4.29387
4.26985
4.24054
4.20633
4.16817
4.1274
4.08847
4.0577
3.98894
4.30707
3.02165
7.29917
1.43362
1.42556
1.4396
1.44562
1.45206
1.4591
1.46664
1.47488
1.48368
1.49321
1.50335
1.5143
1.52591
1.53837
1.55156
1.56569
1.58065
1.59665
1.61358
1.63164
1.65077
1.67114
1.69268
1.71555
1.73967
1.76522
1.79212
1.82052
1.85033
1.88174
1.91468
1.9493
1.98555
2.02357
2.06333
2.10493
2.14827
2.19347
2.24045
2.28925
2.33976
2.39202
2.4459
2.50142
2.55842
2.61686
2.67654
2.73738
2.79913
2.86157
2.92437
2.98732
3.05
3.11216
3.17336
3.23323
3.2913
3.34718
3.40025
3.45011
3.4961
3.53774
3.57443
3.60571
3.63104
3.6502
3.66285
3.66899
3.66905
3.66307
3.65417
3.64189
3.62574
3.60626
3.58416
3.5612
3.54346
3.52702
3.50708
3.80045
2.66107
6.79182
1.03646
1.03137
1.04147
1.04665
1.05236
1.05866
1.06548
1.07295
1.08098
1.0897
1.09904
1.1091
1.11982
1.13127
1.14343
1.15636
1.17007
1.1846
1.19997
1.21622
1.23341
1.25157
1.27075
1.29096
1.31227
1.33467
1.35825
1.38296
1.40887
1.43597
1.46435
1.49396
1.5249
1.55712
1.59075
1.62572
1.6621
1.69986
1.73906
1.7796
1.82157
1.86486
1.9095
1.95543
2.00267
2.05105
2.10062
2.15121
2.20277
2.25506
2.30794
2.36115
2.41443
2.46753
2.52018
2.572
2.6227
2.67195
2.71928
2.76435
2.80663
2.84578
2.88125
2.91266
2.93956
2.9617
2.97878
2.99077
2.99797
2.99939
2.99775
2.99388
2.98745
2.97907
2.96939
2.96056
2.95928
2.95444
2.97458
3.24242
2.23689
6.20356
0.724627
0.718061
0.729647
0.73469
0.739872
0.745384
0.751155
0.757337
0.76386
0.770839
0.778242
0.786152
0.794534
0.803453
0.812902
0.822914
0.833499
0.844668
0.856462
0.868895
0.882031
0.895855
0.91045
0.925809
0.942038
0.959073
0.977057
0.995913
1.01578
1.03657
1.05844
1.0813
1.1053
1.13032
1.15657
1.18389
1.21244
1.2421
1.27301
1.30497
1.33814
1.37234
1.40768
1.44397
1.48133
1.51954
1.55876
1.59872
1.63955
1.68096
1.72297
1.76529
1.80784
1.85036
1.89269
1.93454
1.97572
2.01596
2.05495
2.09243
2.12802
2.16147
2.19236
2.22038
2.24521
2.26657
2.2842
2.29812
2.30852
2.31385
2.31654
2.31792
2.31782
2.31687
2.31545
2.31618
2.32508
2.32598
2.37432
2.61417
1.71941
5.47788
0.503438
0.499819
0.508144
0.512908
0.517917
0.523146
0.528554
0.5342
0.540035
0.546136
0.552477
0.559112
0.566016
0.573242
0.580789
0.588682
0.59692
0.605505
0.614471
0.623816
0.633566
0.6437
0.654281
0.665277
0.676775
0.688697
0.701149
0.71406
0.727548
0.741512
0.756098
0.7712
0.786977
0.803316
0.820412
0.838109
0.856624
0.875799
0.895851
0.916553
0.938118
0.960354
0.983431
1.00713
1.03165
1.0568
1.08274
1.10925
1.13651
1.16429
1.19267
1.22141
1.25051
1.27974
1.30902
1.33813
1.36695
1.39527
1.42287
1.44963
1.47527
1.49964
1.52243
1.54346
1.56247
1.57925
1.59361
1.60557
1.61526
1.62144
1.62528
1.62832
1.63056
1.63266
1.6349
1.64047
1.65409
1.6556
1.7183
1.92776
1.11944
4.55103
0.0875473
0.0786739
0.094719
0.1016
0.108333
0.114893
0.121417
0.127808
0.134224
0.14055
0.146971
0.153338
0.159846
0.166341
0.173039
0.179767
0.18674
0.193776
0.201107
0.208544
0.216313
0.224208
0.232496
0.240949
0.24982
0.25887
0.268372
0.278078
0.288257
0.298648
0.309523
0.320641
0.332262
0.344153
0.356573
0.369294
0.382567
0.396172
0.410329
0.424795
0.439765
0.455017
0.470682
0.486561
0.50279
0.51919
0.53587
0.552702
0.569761
0.586933
0.604279
0.621668
0.639115
0.6565
0.673787
0.690883
0.707725
0.724243
0.740331
0.755996
0.771071
0.785524
0.79917
0.811946
0.823685
0.834253
0.843518
0.851495
0.858287
0.862729
0.86621
0.869742
0.873335
0.877169
0.880456
0.885232
0.893917
0.881491
0.925483
1.09811
0.374899
3.11966
0.372281
0.368385
0.376223
0.379982
0.383531
0.386871
0.389947
0.392796
0.395312
0.397566
0.399461
0.401088
0.402314
0.403255
0.403774
0.404011
0.403797
0.403291
0.402315
0.401053
0.399305
0.397267
0.394759
0.391966
0.388696
0.385151
0.381141
0.376857
0.372127
0.367135
0.361713
0.35606
0.350043
0.343859
0.337401
0.330874
0.324222
0.317631
0.311058
0.304669
0.298444
0.292514
0.286838
0.281531
0.276566
0.272032
0.267901
0.264275
0.261114
0.258502
0.25639
0.254834
0.253758
0.253164
0.252939
0.253071
0.253426
0.253999
0.254664
0.255478
0.256304
0.2572
0.258071
0.258951
0.259754
0.260492
0.261182
0.261812
0.262502
0.26419
0.263723
0.26211
0.259586
0.256945
0.254953
0.257387
0.267991
0.270053
0.303661
0.39346
0.00991083
1.30072
)
;

boundaryField
{
    inlet
    {
        type            freestreamPressure;
        freestreamValue uniform 0;
        value           nonuniform List<scalar> 
23
(
7.10138
6.9624
6.82121
6.67938
6.53424
6.38403
6.22784
6.06482
5.89323
5.71041
5.51277
5.29369
5.04822
4.7475
4.55234
4.36109
4.12039
3.83488
3.50373
3.09495
2.57239
1.76413
0.736102
)
;
    }
    outlet
    {
        type            freestreamPressure;
        freestreamValue uniform 0;
        value           nonuniform List<scalar> 
82
(
0.00107596
0.00108785
0.00106466
0.00109936
0.00111039
0.00112095
0.00113085
0.00114021
0.0011487
0.00115653
0.00116339
0.00116954
0.00117459
0.00117885
0.00118192
0.00118418
0.00118515
0.00118528
0.00118404
0.00118195
0.00117842
0.00117403
0.00116823
0.00116157
0.00115348
0.00114455
0.00113422
0.00112305
0.00111053
0.0010972
0.00108256
0.0010672
0.00105073
0.00103373
0.00101587
0.000997783
0.000979288
0.000960952
0.000942649
0.000924886
0.000907606
0.000891213
0.000875587
0.000861091
0.000847646
0.000835539
0.000824695
0.000815435
0.000807658
0.000801638
0.000797241
0.000794663
0.000793695
0.000794366
0.000796348
0.000799629
0.000803811
0.000808908
0.000814539
0.000820917
0.000827634
0.000834892
0.000842423
0.00085036
0.000858458
0.000866776
0.000875401
0.000884342
0.000894028
0.000906557
0.000911139
0.000912475
0.000911318
0.000910501
0.000912831
0.000932052
0.000982737
0.00100559
0.00114747
0.00151449
4.00764e-05
0.00488668
)
;
    }
    walls
    {
        type            zeroGradient;
    }
    frontAndBack
    {
        type            empty;
    }
    procBoundary3to2
    {
        type            processor;
        value           nonuniform List<scalar> 
88
(
4.95979
12.8167
7.52137
8.83853
8.83853
8.41301
8.32304
8.32304
9.24564
8.93149
8.64021
8.64021
10.3909
10.1042
9.85182
9.58752
9.31147
9.31147
11.4951
11.2262
10.9463
10.6571
10.3596
10.3596
12.2154
12.0897
11.9471
11.7877
11.6118
11.4198
11.2121
11.2121
11.3942
11.4673
11.5309
11.584
11.6259
11.6555
11.6722
11.675
11.6635
11.6368
11.5945
11.5356
11.5356
6.48371
6.52857
6.57602
6.62526
6.67678
6.73058
6.78678
6.84547
6.90676
6.97073
7.03747
7.10704
7.17951
7.25496
7.33341
7.41493
7.49952
7.58723
7.67805
7.77199
7.86902
7.96911
8.0722
8.17823
8.28707
8.39857
8.51258
8.62888
8.74721
8.86728
8.98874
9.11119
9.23424
9.35738
9.48012
9.60187
9.72206
9.83996
9.95494
10.0662
10.1731
10.2743
10.2743
)
;
    }
    procBoundary3to6
    {
        type            processor;
        value           uniform 6.43537;
    }
    procBoundary3to7
    {
        type            processor;
        value           nonuniform List<scalar> 
16
(
5.56122
4.93303
4.41759
3.94334
3.55049
3.05268
2.56359
2.15224
2.15224
1.72571
1.41696
1.02526
0.712252
0.495747
0.0710454
0.365195
)
;
    }
}


// ************************************************************************* //
