/*--------------------------------*- C++ -*----------------------------------*\
| =========                 |                                                 |
| \\      /  F ield         | OpenFOAM: The Open Source CFD Toolbox           |
|  \\    /   O peration     | Version:  2506                                  |
|   \\  /    A nd           | Website:  www.openfoam.com                      |
|    \\/     M anipulation  |                                                 |
\*---------------------------------------------------------------------------*/
FoamFile
{
    version     2.0;
    format      ascii;
    arch        "LSB;label=32;scalar=64";
    class       volSymmTensorField;
    location    "150";
    object      turbulenceProperties:R;
}
// * * * * * * * * * * * * * * * * * * * * * * * * * * * * * * * * * * * * * //

dimensions      [0 2 -2 0 0 0 0];

internalField   nonuniform List<symmTensor> 
1340
(
(4.6435e-07 2.79177e-08 -4.14893e-20 4.01299e-07 -5.38073e-21 4.71835e-07)
(8.14925e-07 3.26196e-08 2.09099e-20 1.00768e-06 2.4422e-21 8.58112e-07)
(9.60334e-08 -2.08615e-09 -8.13037e-20 9.31542e-08 -1.01933e-20 1.07029e-07)
(3.84043e-07 8.84305e-09 -1.27211e-20 4.80586e-07 -1.44778e-21 4.08503e-07)
(4.60412e-07 2.91916e-08 6.13875e-21 4.01614e-07 6.68333e-22 4.70444e-07)
(8.16461e-07 3.22301e-08 -8.40549e-20 1.00877e-06 -9.58788e-21 8.585e-07)
(1.06439e-07 -2.1702e-09 -0 1.37248e-07 -4.86391e-23 1.24512e-07)
(1.6857e-07 -5.86359e-09 -2.75186e-20 2.14331e-07 -3.26206e-21 1.85464e-07)
(9.37825e-08 -1.71185e-09 7.72932e-20 9.35525e-08 9.71586e-21 1.06123e-07)
(3.85491e-07 8.2988e-09 3.89393e-20 4.82472e-07 4.62546e-21 4.09936e-07)
(4.58036e-07 3.0281e-08 1.25708e-23 4.03389e-07 7.46898e-23 4.70805e-07)
(8.17595e-07 3.16492e-08 6.9269e-20 1.00879e-06 7.84501e-21 8.57737e-07)
(1.87672e-07 5.55669e-09 -3.50647e-20 2.41668e-07 -4.22112e-21 2.14576e-07)
(1.66252e-07 3.88245e-09 7.32502e-22 2.14582e-07 1.76771e-22 1.90804e-07)
(1.56779e-07 6.16235e-10 4.79488e-21 2.02851e-07 5.73616e-22 1.78765e-07)
(1.11758e-07 -3.25227e-09 -0 1.43775e-07 -9.78933e-24 1.30398e-07)
(1.72683e-07 -7.02322e-09 -1.22213e-22 2.19043e-07 -2.14421e-23 1.89926e-07)
(9.23096e-08 -1.38915e-09 5.39938e-22 9.46843e-08 9.30743e-23 1.05913e-07)
(3.87009e-07 7.95724e-09 3.16094e-22 4.84354e-07 5.85123e-23 4.11396e-07)
(4.56936e-07 3.12343e-08 2.59009e-24 4.06093e-07 2.34889e-24 4.72323e-07)
(8.18238e-07 3.06843e-08 3.62325e-22 1.00838e-06 6.67389e-23 8.56503e-07)
(2.66453e-07 7.12972e-09 2.48859e-21 3.43418e-07 3.8829e-22 3.04938e-07)
(2.47082e-07 6.14597e-09 1.05567e-20 3.18664e-07 1.27921e-21 2.82881e-07)
(2.31242e-07 5.52209e-09 1.07273e-20 2.98338e-07 1.09348e-21 2.64837e-07)
(2.16741e-07 5.28402e-09 -3.73266e-20 2.79589e-07 -4.47977e-21 2.48183e-07)
(2.01789e-07 4.88587e-09 9.74198e-21 2.60322e-07 1.26079e-21 2.31108e-07)
(1.8756e-07 4.06714e-09 -1.48618e-20 2.42134e-07 -1.83442e-21 2.14763e-07)
(1.67344e-07 2.4464e-09 9.36315e-23 2.16431e-07 1.33218e-22 1.92268e-07)
(1.58912e-07 -8.4554e-10 3.54036e-20 2.0561e-07 4.31489e-21 1.81247e-07)
(1.17208e-07 -4.38826e-09 -0 1.50319e-07 -6.98797e-23 1.36308e-07)
(1.76528e-07 -8.09037e-09 2.0506e-21 2.23385e-07 1.44508e-22 1.94101e-07)
(9.19988e-08 -1.0913e-09 -7.06465e-20 9.70514e-08 -8.85788e-21 1.06904e-07)
(3.8852e-07 7.73605e-09 -3.5554e-20 4.86279e-07 -4.22934e-21 4.12953e-07)
(4.56772e-07 3.20977e-08 -2.32324e-21 4.09214e-07 -2.32188e-22 4.74434e-07)
(8.18531e-07 2.93118e-08 9.13768e-21 1.00789e-06 1.04632e-21 8.55179e-07)
(3.72045e-07 5.07371e-09 2.05958e-20 4.80889e-07 2.15476e-21 4.26503e-07)
(3.4878e-07 5.51802e-09 -1.90258e-20 4.50669e-07 -2.31984e-21 3.99748e-07)
(3.25802e-07 5.64181e-09 -4.95757e-21 4.20885e-07 -6.18186e-22 3.7337e-07)
(3.03557e-07 5.55252e-09 -3.07932e-20 3.92097e-07 -3.59239e-21 3.47836e-07)
(2.81888e-07 5.32978e-09 -7.12015e-21 3.6409e-07 -6.95991e-22 3.2303e-07)
(2.61509e-07 4.90039e-09 4.99553e-21 3.37807e-07 6.22694e-22 2.99661e-07)
(2.43582e-07 4.05757e-09 2.54875e-21 3.14812e-07 2.81909e-22 2.79206e-07)
(2.2889e-07 3.60637e-09 5.08412e-23 2.95888e-07 2.49377e-23 2.62433e-07)
(2.15276e-07 3.51892e-09 6.25028e-21 2.7826e-07 6.82135e-22 2.46787e-07)
(2.00976e-07 3.23492e-09 -1.71027e-20 2.59796e-07 -1.97432e-21 2.30431e-07)
(1.87284e-07 2.53895e-09 3.24828e-20 2.42201e-07 3.9166e-21 2.14638e-07)
(1.68446e-07 1.00863e-09 -2.10788e-20 2.18093e-07 -2.72932e-21 1.93608e-07)
(1.6128e-07 -2.28608e-09 -3.3436e-20 2.08473e-07 -4.00601e-21 1.83901e-07)
(1.23296e-07 -5.5485e-09 -0 1.57542e-07 7.11513e-23 1.42906e-07)
(1.8024e-07 -9.09935e-09 -1.95211e-21 2.27557e-07 -1.31399e-22 1.98189e-07)
(9.23417e-08 -8.14135e-10 6.70686e-20 1.00008e-07 8.38708e-21 1.08454e-07)
(3.89835e-07 7.61329e-09 3.36098e-20 4.87978e-07 3.97816e-21 4.14356e-07)
(4.57204e-07 3.28733e-08 2.21051e-21 4.12517e-07 2.21647e-22 4.76869e-07)
(8.18621e-07 2.75692e-08 -8.60078e-21 1.0074e-06 -9.77888e-22 8.53824e-07)
(5.14187e-07 -1.05259e-08 -2.22608e-21 6.63574e-07 -3.68222e-22 5.88928e-07)
(4.90698e-07 -8.18883e-09 -1.20418e-20 6.33812e-07 -1.45627e-21 5.62288e-07)
(4.67588e-07 -6.00898e-09 -2.14887e-20 6.04388e-07 -2.23798e-21 5.36028e-07)
(4.44988e-07 -3.94365e-09 7.60582e-21 5.75486e-07 9.75473e-22 5.10278e-07)
(4.228e-07 -2.03727e-09 -1.96282e-21 5.46983e-07 -2.10545e-22 4.84935e-07)
(4.0099e-07 -3.30571e-10 9.82319e-21 5.18849e-07 1.27043e-21 4.59964e-07)
(3.79665e-07 1.09702e-09 2.53715e-20 4.91248e-07 2.82763e-21 4.35487e-07)
(3.58636e-07 2.01788e-09 1.34991e-22 4.63998e-07 -3.98848e-23 4.11353e-07)
(3.37263e-07 2.55431e-09 1.50005e-20 4.36305e-07 1.71379e-21 3.86808e-07)
(3.16187e-07 2.87845e-09 -1.37765e-21 4.09009e-07 -2.18553e-22 3.62621e-07)
(2.95793e-07 2.96804e-09 1.32281e-21 3.82617e-07 2.08488e-22 3.39212e-07)
(2.75529e-07 2.90444e-09 1.35524e-20 3.56416e-07 1.55578e-21 3.16003e-07)
(2.5626e-07 2.66708e-09 -4.70224e-21 3.31517e-07 -6.11612e-22 2.93851e-07)
(2.39767e-07 2.02329e-09 -2.36497e-21 3.1027e-07 -2.59517e-22 2.74988e-07)
(2.26299e-07 1.74008e-09 7.59876e-23 2.92874e-07 2.60124e-23 2.59589e-07)
(2.13617e-07 1.80906e-09 -4.56168e-23 2.76441e-07 -3.81586e-24 2.45006e-07)
(2.00314e-07 1.65638e-09 -1.32888e-22 2.59239e-07 -7.82724e-23 2.29796e-07)
(1.87596e-07 1.03963e-09 -1.7714e-20 2.42837e-07 -2.07251e-21 2.15142e-07)
(1.70071e-07 -4.56563e-10 2.00506e-20 2.2024e-07 2.47361e-21 1.9549e-07)
(1.64017e-07 -3.74363e-09 -1.29832e-22 2.11621e-07 -7.40624e-23 1.86918e-07)
(1.29524e-07 -6.73972e-09 -0 1.64806e-07 4.38426e-24 1.49557e-07)
(1.83598e-07 -1.00413e-08 1.85315e-21 2.31256e-07 1.16851e-22 2.01887e-07)
(9.3219e-08 -5.5016e-10 -6.83694e-20 1.03436e-07 -8.47545e-21 1.10442e-07)
(3.90944e-07 7.58333e-09 1.09542e-22 4.89442e-07 1.15057e-22 4.15596e-07)
(4.57976e-07 3.35513e-08 -6.28958e-21 4.15841e-07 -8.13472e-22 4.79446e-07)
(8.18398e-07 2.54717e-08 -4.5567e-23 1.0067e-06 -3.23712e-24 8.52263e-07)
(7.56942e-07 -5.92502e-08 2.14173e-21 9.39405e-07 3.2442e-23 8.48267e-07)
(7.31687e-07 -5.45232e-08 -1.34899e-20 9.12072e-07 -1.40951e-21 8.21941e-07)
(7.07474e-07 -5.00831e-08 -2.69135e-22 8.85462e-07 2.81441e-22 7.96544e-07)
(6.83511e-07 -4.56689e-08 1.22385e-20 8.58877e-07 1.1144e-21 7.71275e-07)
(6.59873e-07 -4.13013e-08 -1.30593e-20 8.32388e-07 -1.47257e-21 7.46211e-07)
(6.36655e-07 -3.70782e-08 2.37818e-21 8.06019e-07 4.07719e-22 7.21414e-07)
(6.13944e-07 -3.30656e-08 9.22548e-22 7.79849e-07 4.90653e-23 6.96972e-07)
(5.91684e-07 -2.92481e-08 -2.21016e-21 7.53851e-07 -9.34501e-23 6.72837e-07)
(5.69843e-07 -2.56203e-08 1.54548e-20 7.2802e-07 1.86998e-21 6.48992e-07)
(5.48269e-07 -2.22576e-08 2.172e-20 7.02137e-07 2.19816e-21 6.25265e-07)
(5.26703e-07 -1.91086e-08 1.6157e-21 6.7594e-07 3.14566e-23 6.01378e-07)
(5.05694e-07 -1.61891e-08 5.71066e-21 6.50169e-07 5.55646e-22 5.77962e-07)
(4.85787e-07 -1.38393e-08 -6.15958e-21 6.25413e-07 -7.16787e-22 5.55637e-07)
(4.65156e-07 -1.16777e-08 -6.53285e-23 5.99532e-07 2.73209e-22 5.32367e-07)
(4.44392e-07 -9.39332e-09 3.24144e-20 5.73427e-07 3.5715e-21 5.08945e-07)
(4.24059e-07 -7.23441e-09 4.26589e-23 5.47718e-07 -3.36241e-22 4.8592e-07)
(4.04066e-07 -5.23199e-09 -1.84484e-20 5.22295e-07 -2.09065e-21 4.63212e-07)
(3.84364e-07 -3.46285e-09 -3.77212e-21 4.97101e-07 -4.10143e-22 4.4077e-07)
(3.64554e-07 -1.99579e-09 -1.73449e-20 4.7164e-07 -1.9624e-21 4.18116e-07)
(3.447e-07 -9.10875e-10 -4.07869e-21 4.46035e-07 -3.71042e-22 3.95343e-07)
(3.25384e-07 -1.85209e-10 1.33779e-22 4.21087e-07 -5.05257e-23 3.73219e-07)
(3.06299e-07 2.86078e-10 -2.13925e-20 3.96418e-07 -2.46789e-21 3.51339e-07)
(2.87764e-07 5.46357e-10 -1.40939e-21 3.72453e-07 -9.08864e-23 3.30072e-07)
(2.69279e-07 6.52106e-10 -5.20858e-21 3.48557e-07 -6.03614e-22 3.08925e-07)
(2.51744e-07 5.50134e-10 -3.76567e-23 3.25888e-07 2.26176e-23 2.88801e-07)
(2.36597e-07 4.49873e-11 2.25228e-21 3.06307e-07 1.8469e-22 2.71447e-07)
(2.24202e-07 -8.87727e-11 -1.82663e-20 2.90271e-07 -2.1098e-21 2.57265e-07)
(2.12339e-07 1.17e-10 1.66048e-20 2.74911e-07 2.10237e-21 2.43624e-07)
(1.99906e-07 8.33534e-11 1.52715e-20 2.58823e-07 1.85741e-21 2.29394e-07)
(1.8795e-07 -4.56669e-10 2.77906e-20 2.43337e-07 3.20516e-21 2.15582e-07)
(1.71816e-07 -1.93345e-09 -3.23394e-20 2.22344e-07 -3.98421e-21 1.97385e-07)
(1.66855e-07 -5.20473e-09 -5.36743e-23 2.14703e-07 7.04328e-23 1.89945e-07)
(1.35829e-07 -7.95134e-09 -0 1.72039e-07 -2.64154e-24 1.56197e-07)
(1.86539e-07 -1.09015e-08 -1.74912e-21 2.34432e-07 -1.80536e-22 2.05145e-07)
(9.46658e-08 -2.87602e-10 1.74702e-20 1.07397e-07 2.16035e-21 1.12931e-07)
(3.91803e-07 7.6339e-09 7.50147e-21 4.90639e-07 8.84959e-22 4.1665e-07)
(4.58724e-07 3.41305e-08 -7.37196e-21 4.18872e-07 -9.65544e-22 4.81794e-07)
(8.18033e-07 2.30122e-08 1.83969e-24 1.006e-06 6.40844e-24 8.50717e-07)
(2.57241e-05 -1.2314e-05 6.05229e-20 3.26787e-05 7.56848e-21 2.8389e-05)
(4.2763e-06 -1.04497e-06 5.55802e-21 4.78181e-06 3.70092e-22 4.53659e-06)
(7.92902e-08 -4.069e-10 -1.28615e-25 7.94717e-08 -5.38477e-26 7.93971e-08)
(1.31585e-06 -1.11834e-07 1.49559e-22 1.37374e-06 1.95375e-23 1.34471e-06)
(2.60215e-06 -4.41433e-07 7.65201e-22 2.82338e-06 6.62022e-23 2.71726e-06)
(1.7487e-06 -2.05328e-07 1.60608e-22 1.85442e-06 7.04331e-24 1.8027e-06)
(1.89727e-06 -2.45151e-07 1.02151e-22 2.02411e-06 -2.89646e-23 1.96227e-06)
(1.89963e-06 -2.49766e-07 -1.58811e-21 2.03095e-06 -1.63645e-22 1.96668e-06)
(1.83466e-06 -2.37009e-07 -6.04294e-22 1.96119e-06 8.10012e-24 1.89922e-06)
(1.81041e-06 -2.34707e-07 1.3782e-21 1.93812e-06 1.43016e-22 1.87544e-06)
(1.77718e-06 -2.30159e-07 -0 1.90508e-06 -3.46039e-23 1.84223e-06)
(1.74248e-06 -2.25303e-07 -7.31944e-23 1.87076e-06 5.59698e-23 1.8076e-06)
(1.70782e-06 -2.20553e-07 2.78088e-21 1.83674e-06 2.69213e-22 1.7732e-06)
(1.67177e-06 -2.15539e-07 8.34178e-23 1.80143e-06 1.18183e-23 1.73747e-06)
(1.63499e-06 -2.10389e-07 2.8488e-21 1.7657e-06 2.74097e-22 1.7011e-06)
(1.59741e-06 -2.05107e-07 1.72974e-22 1.7292e-06 -2.91338e-23 1.66401e-06)
(1.55902e-06 -1.99673e-07 5.56449e-22 1.69206e-06 8.81637e-23 1.62617e-06)
(1.52e-06 -1.94113e-07 2.04853e-21 1.65438e-06 2.01231e-22 1.58775e-06)
(1.48034e-06 -1.88422e-07 9.88822e-22 1.61619e-06 1.07821e-22 1.54876e-06)
(1.44025e-06 -1.82627e-07 2.65116e-21 1.57765e-06 1.85834e-22 1.50938e-06)
(1.39998e-06 -1.7676e-07 -2.34433e-21 1.53899e-06 -3.41041e-22 1.46986e-06)
(1.35996e-06 -1.70883e-07 -3.36483e-21 1.50058e-06 -2.53214e-22 1.43061e-06)
(1.32053e-06 -1.65037e-07 1.12425e-21 1.46279e-06 1.55444e-22 1.39195e-06)
(1.28196e-06 -1.59265e-07 -8.03324e-22 1.42584e-06 -1.42725e-22 1.35416e-06)
(1.24419e-06 -1.53554e-07 -2.28925e-21 1.38968e-06 -2.46197e-22 1.31718e-06)
(1.20706e-06 -1.47877e-07 -1.9504e-21 1.35417e-06 -7.5972e-23 1.28085e-06)
(1.17049e-06 -1.42212e-07 3.87963e-21 1.3192e-06 3.86829e-22 1.24507e-06)
(1.1346e-06 -1.3658e-07 -1.30937e-21 1.28489e-06 -1.84961e-22 1.20997e-06)
(1.09954e-06 -1.31001e-07 4.89119e-22 1.25138e-06 4.0255e-23 1.17568e-06)
(1.06563e-06 -1.25516e-07 -1.69342e-21 1.21896e-06 -1.26742e-22 1.14251e-06)
(1.03291e-06 -1.20139e-07 2.67533e-21 1.18767e-06 3.16008e-22 1.11049e-06)
(1.00136e-06 -1.14867e-07 1.63476e-21 1.15748e-06 1.46478e-22 1.07961e-06)
(9.70847e-07 -1.09679e-07 1.91652e-21 1.12822e-06 2.37815e-22 1.04971e-06)
(9.41268e-07 -1.04561e-07 4.7037e-21 1.09981e-06 3.79392e-22 1.0207e-06)
(9.12744e-07 -9.95399e-08 -3.58499e-21 1.07232e-06 -4.58632e-22 9.92676e-07)
(8.85403e-07 -9.46467e-08 -1.98168e-21 1.04586e-06 -1.43537e-22 9.65759e-07)
(8.59318e-07 -8.99226e-08 1.67118e-22 1.02045e-06 1.3284e-23 9.40001e-07)
(8.34363e-07 -8.53489e-08 -2.29652e-21 9.95965e-07 -2.4393e-22 9.15274e-07)
(8.10045e-07 -8.08365e-08 -9.13521e-22 9.71938e-07 -1.14161e-22 8.91088e-07)
(7.86153e-07 -7.63421e-08 -3.63632e-21 9.4817e-07 -3.34623e-22 8.67251e-07)
(7.62681e-07 -7.18972e-08 1.25857e-21 9.24585e-07 2.00979e-22 8.43751e-07)
(7.3712e-07 -6.70168e-08 1.60141e-21 8.98634e-07 9.41419e-23 8.17985e-07)
(7.11977e-07 -6.20361e-08 -4.07486e-21 8.73074e-07 -3.9718e-22 7.92592e-07)
(6.94037e-07 -5.84246e-08 3.22519e-21 8.54677e-07 3.8806e-22 7.74445e-07)
(6.75698e-07 -5.49878e-08 -1.0106e-22 8.35224e-07 -6.14781e-23 7.55511e-07)
(6.53978e-07 -5.08091e-08 8.08244e-26 8.1213e-07 -1.54036e-23 7.33119e-07)
(6.32814e-07 -4.6696e-08 6.22506e-23 7.89406e-07 5.51956e-23 7.11165e-07)
(6.11918e-07 -4.26311e-08 3.25174e-21 7.66695e-07 2.21382e-22 6.89356e-07)
(5.91451e-07 -3.87058e-08 -1.12268e-20 7.44108e-07 -1.2159e-21 6.67825e-07)
(5.71482e-07 -3.4961e-08 4.41139e-24 7.21719e-07 1.09179e-22 6.46644e-07)
(5.51928e-07 -3.13741e-08 2.60934e-23 6.99476e-07 -3.92859e-23 6.25741e-07)
(5.32773e-07 -2.79533e-08 -4.29349e-21 6.77377e-07 -4.55073e-22 6.05103e-07)
(5.14006e-07 -2.47708e-08 1.53795e-22 6.55376e-07 6.68287e-23 5.84707e-07)
(4.95429e-07 -2.18705e-08 -5.05319e-22 6.33233e-07 -4.76439e-23 5.64362e-07)
(4.76373e-07 -1.921e-08 1.58587e-23 6.10145e-07 -8.90594e-24 5.43259e-07)
(4.57305e-07 -1.67993e-08 -2.39035e-21 5.86757e-07 -2.60548e-22 5.2197e-07)
(4.39063e-07 -1.45082e-08 1.91195e-23 5.64279e-07 -8.3064e-23 5.01633e-07)
(4.20902e-07 -1.22292e-08 -1.38506e-20 5.41784e-07 -1.52061e-21 4.81303e-07)
(4.02858e-07 -1.00481e-08 3.47681e-24 5.19279e-07 1.97308e-22 4.61028e-07)
(3.84991e-07 -8.00379e-09 1.55257e-20 4.96837e-07 1.73004e-21 4.4088e-07)
(3.67317e-07 -6.18574e-09 -1.702e-23 4.7447e-07 -5.72363e-24 4.20867e-07)
(3.49553e-07 -4.6647e-09 1.65747e-20 4.51832e-07 1.86668e-21 4.0068e-07)
(3.31853e-07 -3.5225e-09 -1.00828e-21 4.29149e-07 -2.73244e-22 3.80509e-07)
(3.14362e-07 -2.72186e-09 -1.37783e-20 4.06651e-07 -1.56786e-21 3.60522e-07)
(2.9706e-07 -2.14554e-09 -1.90814e-22 3.84353e-07 3.70869e-23 3.40722e-07)
(2.80206e-07 -1.75412e-09 -1.58712e-23 3.62604e-07 1.34415e-23 3.21404e-07)
(2.6332e-07 -1.51067e-09 5.03575e-21 3.40797e-07 5.99927e-22 3.0209e-07)
(2.47265e-07 -1.48755e-09 4.31229e-21 3.20036e-07 4.84143e-22 2.83645e-07)
(2.33455e-07 -1.85533e-09 4.05725e-23 3.0213e-07 -8.55498e-24 2.67788e-07)
(2.22064e-07 -1.84373e-09 -1.22978e-22 2.87388e-07 -1.90303e-23 2.54754e-07)
(2.10991e-07 -1.52193e-09 8.02532e-23 2.73085e-07 -3.92766e-23 2.42036e-07)
(1.99442e-07 -1.46197e-09 -1.44893e-20 2.58141e-07 -1.79934e-21 2.28812e-07)
(1.88289e-07 -1.94022e-09 -2.24119e-20 2.43634e-07 -2.55366e-21 2.15901e-07)
(1.73692e-07 -3.40963e-09 3.19371e-20 2.24422e-07 3.93927e-21 1.99318e-07)
(1.69828e-07 -6.655e-09 1.53896e-20 2.17776e-07 1.78047e-21 1.93036e-07)
(1.42255e-07 -9.16742e-09 -0 1.79311e-07 -4.30162e-23 1.62901e-07)
(1.89051e-07 -1.16723e-08 -5.08085e-21 2.37098e-07 -5.44958e-22 2.07973e-07)
(9.65871e-08 -1.21836e-11 4.5266e-20 1.11793e-07 5.55462e-21 1.15819e-07)
(3.92251e-07 7.74294e-09 -3.48627e-20 4.91384e-07 -4.30717e-21 4.17366e-07)
(4.59295e-07 3.46355e-08 1.84198e-21 4.21449e-07 2.93659e-22 4.83725e-07)
(8.1762e-07 2.01927e-08 1.79849e-24 1.00545e-06 -1.5845e-24 8.49339e-07)
(5.45334e-09 -1.72668e-12 -6.41067e-28 5.45425e-09 -4.46425e-29 5.45371e-09)
(3.29225e-08 -6.57739e-11 4.34453e-26 3.29496e-08 4.01722e-27 3.29368e-08)
(5.66732e-07 -2.02209e-08 -1.62256e-23 5.74338e-07 -1.90416e-24 5.71109e-07)
(2.56572e-06 -4.14277e-07 -1.25385e-22 2.7453e-06 -5.48068e-24 2.65585e-06)
(2.1681e-06 -3.088e-07 6.88712e-25 2.29967e-06 2.64855e-24 2.23641e-06)
(1.77783e-06 -2.1456e-07 1.47812e-25 1.8719e-06 -2.70313e-23 1.82583e-06)
(1.90815e-06 -2.5324e-07 -1.62274e-21 2.02033e-06 -1.40305e-22 1.96558e-06)
(1.83088e-06 -2.39453e-07 6.36761e-22 1.9391e-06 9.28078e-23 1.88605e-06)
(1.77316e-06 -2.30357e-07 6.05659e-23 1.87922e-06 -2.82842e-23 1.82717e-06)
(1.73573e-06 -2.26196e-07 -1.00373e-21 1.84216e-06 -9.74451e-23 1.78983e-06)
(1.6913e-06 -2.20037e-07 -0 1.79734e-06 -1.86422e-23 1.74513e-06)
(1.64931e-06 -2.14353e-07 -1.90552e-21 1.7554e-06 -2.0038e-22 1.70309e-06)
(1.60837e-06 -2.08816e-07 -7.75265e-22 1.71476e-06 -3.62569e-23 1.66224e-06)
(1.56776e-06 -2.03266e-07 1.47813e-25 1.67463e-06 -2.15094e-23 1.62181e-06)
(1.52767e-06 -1.97763e-07 -1.94708e-21 1.63529e-06 -1.52427e-22 1.58202e-06)
(1.48783e-06 -1.92267e-07 1.77136e-21 1.59631e-06 2.42676e-22 1.54256e-06)
(1.44808e-06 -1.86748e-07 1.9074e-21 1.55761e-06 1.24446e-22 1.50329e-06)
(1.40843e-06 -1.81207e-07 -1.44953e-21 1.51918e-06 -1.94378e-22 1.46419e-06)
(1.36888e-06 -1.75644e-07 -1.17665e-21 1.48094e-06 -1.00304e-22 1.42524e-06)
(1.32951e-06 -1.70066e-07 -5.92151e-22 1.443e-06 -3.82932e-23 1.38654e-06)
(1.29062e-06 -1.64514e-07 -3.29125e-22 1.40562e-06 3.10374e-23 1.34835e-06)
(1.25241e-06 -1.59016e-07 2.92963e-21 1.36896e-06 2.87102e-22 1.31089e-06)
(1.21507e-06 -1.53596e-07 1.77843e-24 1.33319e-06 -2.72741e-23 1.2743e-06)
(1.17858e-06 -1.48247e-07 1.26813e-21 1.29832e-06 1.49389e-22 1.23859e-06)
(1.14285e-06 -1.42959e-07 1.4705e-21 1.26421e-06 1.2284e-22 1.20365e-06)
(1.10777e-06 -1.37708e-07 1.86858e-22 1.23078e-06 -3.00953e-23 1.16938e-06)
(1.07339e-06 -1.32499e-07 -1.17709e-21 1.19807e-06 -1.24246e-22 1.13583e-06)
(1.03983e-06 -1.27346e-07 -6.26842e-22 1.16614e-06 -4.2253e-23 1.10308e-06)
(1.00727e-06 -1.22279e-07 1.47922e-24 1.1352e-06 1.5242e-23 1.07133e-06)
(9.75882e-07 -1.17317e-07 3.41993e-22 1.1054e-06 3.07533e-23 1.04073e-06)
(9.45666e-07 -1.12462e-07 8.37421e-24 1.07673e-06 2.92698e-23 1.01127e-06)
(9.16586e-07 -1.07706e-07 2.34087e-21 1.04916e-06 2.34457e-22 9.82934e-07)
(8.88498e-07 -1.03032e-07 3.76e-24 1.02251e-06 -3.28814e-23 9.55555e-07)
(8.61423e-07 -9.84375e-08 1.60825e-23 9.96814e-07 6.79561e-23 9.29155e-07)
(8.35524e-07 -9.3961e-08 4.0246e-21 9.72193e-07 4.19499e-22 9.03881e-07)
(8.10913e-07 -8.9632e-08 1.22407e-21 9.48729e-07 3.39081e-23 8.79833e-07)
(7.876e-07 -8.54638e-08 -2.23367e-21 9.26411e-07 -2.20756e-22 8.5701e-07)
(7.65255e-07 -8.1408e-08 1.44577e-21 9.04909e-07 1.73094e-22 8.35086e-07)
(7.43385e-07 -7.73684e-08 -4.08028e-24 8.8377e-07 -4.28907e-23 8.13578e-07)
(7.21759e-07 -7.32821e-08 -1.71617e-21 8.62809e-07 -1.95796e-22 7.92266e-07)
(7.00795e-07 -6.92319e-08 -1.52103e-21 8.42408e-07 -1.17826e-22 7.71585e-07)
(6.80191e-07 -6.52492e-08 1.37041e-21 8.22066e-07 1.88112e-22 7.5117e-07)
(6.59037e-07 -6.13558e-08 2.20154e-21 8.00458e-07 2.17311e-22 7.29754e-07)
(6.39108e-07 -5.77532e-08 1.17018e-21 7.79737e-07 2.05994e-22 7.09355e-07)
(6.20711e-07 -5.41498e-08 9.34482e-21 7.60951e-07 9.51749e-22 6.90815e-07)
(6.02008e-07 -5.03762e-08 1.08367e-24 7.41782e-07 -1.10019e-22 6.7186e-07)
(5.83623e-07 -4.66478e-08 6.75628e-24 7.22695e-07 -2.47794e-23 6.53109e-07)
(5.65383e-07 -4.29532e-08 -3.21564e-21 7.0348e-07 -2.5805e-22 6.34377e-07)
(5.47555e-07 -3.93775e-08 7.04059e-21 6.8439e-07 7.64121e-22 6.15913e-07)
(5.30156e-07 -3.59403e-08 1.19088e-22 6.65448e-07 -1.36437e-22 5.97739e-07)
(5.13092e-07 -3.2624e-08 -8.54009e-21 6.46577e-07 -9.09556e-22 5.79772e-07)
(4.96338e-07 -2.94484e-08 3.34786e-23 6.27749e-07 -1.20413e-23 5.61981e-07)
(4.79968e-07 -2.64848e-08 -9.89276e-21 6.0902e-07 -1.05494e-21 5.4443e-07)
(4.63865e-07 -2.3795e-08 4.86281e-22 5.90226e-07 1.60579e-22 5.26991e-07)
(4.4743e-07 -2.13077e-08 3.2305e-21 5.70694e-07 3.37558e-22 5.09025e-07)
(4.31104e-07 -1.90013e-08 -1.8992e-21 5.51051e-07 -2.69035e-22 4.91072e-07)
(4.1511e-07 -1.67983e-08 -5.48011e-21 5.31663e-07 -5.9265e-22 4.73399e-07)
(3.9905e-07 -1.45887e-08 -1.15687e-22 5.12082e-07 1.23786e-23 4.55576e-07)
(3.82949e-07 -1.24403e-08 3.25876e-24 4.92301e-07 -2.1146e-24 4.37642e-07)
(3.66945e-07 -1.04139e-08 1.20734e-22 4.72472e-07 2.23887e-23 4.19731e-07)
(3.5107e-07 -8.60574e-09 -1.14341e-23 4.52615e-07 -8.87529e-23 4.01866e-07)
(3.35118e-07 -7.07543e-09 -1.57403e-20 4.32477e-07 -1.74806e-21 3.83822e-07)
(3.19223e-07 -5.90035e-09 5.60152e-21 4.12251e-07 7.86917e-22 3.65765e-07)
(3.03471e-07 -5.03889e-09 1.30876e-20 3.92094e-07 1.56562e-21 3.47808e-07)
(2.87867e-07 -4.37723e-09 1.94765e-20 3.72064e-07 2.18742e-21 3.29992e-07)
(2.72651e-07 -3.89059e-09 -4.30858e-23 3.52485e-07 -1.41275e-22 3.12577e-07)
(2.57343e-07 -3.55053e-09 -1.17187e-20 3.32754e-07 -1.38165e-21 2.95089e-07)
(2.42784e-07 -3.42641e-09 -4.08816e-21 3.13934e-07 -4.61089e-22 2.78352e-07)
(2.30336e-07 -3.66216e-09 -7.56679e-21 2.97758e-07 -8.1576e-22 2.64041e-07)
(2.19932e-07 -3.51329e-09 1.18055e-20 2.84311e-07 1.4166e-21 2.52143e-07)
(2.09678e-07 -3.08851e-09 -3.67617e-21 2.71118e-07 -4.35713e-22 2.40386e-07)
(1.99041e-07 -2.95259e-09 1.41444e-20 2.57367e-07 1.82073e-21 2.28213e-07)
(1.8875e-07 -3.39099e-09 3.87219e-20 2.43916e-07 4.64069e-21 2.1628e-07)
(1.75788e-07 -4.8782e-09 1.76554e-20 2.266e-07 2.01917e-21 2.0142e-07)
(1.7299e-07 -8.09008e-09 6.11277e-23 2.20925e-07 -3.36561e-23 1.96271e-07)
(1.48772e-07 -1.03776e-08 -0 1.86603e-07 1.22493e-23 1.69645e-07)
(1.91103e-07 -1.23539e-08 4.80859e-21 2.39224e-07 5.85566e-22 2.10341e-07)
(9.88036e-08 2.93267e-10 1.52239e-22 1.16451e-07 7.16041e-23 1.18903e-07)
(3.92429e-07 7.87541e-09 3.30947e-20 4.9189e-07 4.03903e-21 4.1793e-07)
(4.59458e-07 3.51041e-08 1.88413e-20 4.23311e-07 2.39077e-21 4.84922e-07)
(8.1738e-07 1.70055e-08 1.78477e-24 1.00543e-06 -1.63816e-23 8.48525e-07)
(0 -0 0 0 0 0)
(1.33365e-07 -1.02007e-09 1.76083e-24 1.33718e-07 1.47121e-25 1.33554e-07)
(2.04202e-06 -2.46416e-07 -2.29067e-23 2.12269e-06 -1.53084e-23 2.08829e-06)
(2.6894e-06 -4.37913e-07 -6.34307e-22 2.85424e-06 -6.06318e-23 2.77353e-06)
(1.93171e-06 -2.38913e-07 4.2724e-23 2.02127e-06 1.30612e-23 1.97855e-06)
(1.93174e-06 -2.47634e-07 1.55251e-22 2.02794e-06 1.64619e-23 1.9812e-06)
(1.93139e-06 -2.56587e-07 -2.0727e-24 2.03322e-06 -3.93456e-24 1.98367e-06)
(1.82652e-06 -2.3799e-07 5.01195e-25 1.9235e-06 -1.06962e-24 1.876e-06)
(1.76781e-06 -2.30732e-07 -2.29439e-25 1.86425e-06 2.60534e-25 1.81682e-06)
(1.71095e-06 -2.23461e-07 -1.85968e-24 1.80681e-06 -1.21698e-24 1.75951e-06)
(1.65337e-06 -2.15583e-07 -0 1.74835e-06 9.31997e-25 1.70138e-06)
(1.60059e-06 -2.08548e-07 -3.01318e-24 1.69518e-06 -3.01503e-24 1.64828e-06)
(1.5501e-06 -2.01769e-07 2.90079e-25 1.6444e-06 -5.8838e-25 1.59757e-06)
(1.50171e-06 -1.95238e-07 4.85953e-25 1.59592e-06 1.00858e-23 1.54907e-06)
(1.45527e-06 -1.88954e-07 4.53369e-22 1.54959e-06 3.56128e-23 1.50263e-06)
(1.41028e-06 -1.82839e-07 -3.77187e-22 1.50493e-06 -4.60481e-23 1.45775e-06)
(1.36659e-06 -1.76874e-07 3.44875e-24 1.4617e-06 1.05294e-23 1.41425e-06)
(1.32399e-06 -1.7102e-07 -3.58625e-24 1.41982e-06 2.16175e-24 1.37193e-06)
(1.28252e-06 -1.65296e-07 -3.28074e-24 1.37916e-06 5.43816e-24 1.33082e-06)
(1.24206e-06 -1.59676e-07 5.69767e-22 1.33963e-06 6.31668e-23 1.29079e-06)
(1.20284e-06 -1.54191e-07 3.07084e-22 1.30145e-06 1.89064e-23 1.25204e-06)
(1.1648e-06 -1.48832e-07 8.7867e-24 1.26456e-06 -3.06279e-24 1.21454e-06)
(1.12795e-06 -1.43601e-07 -3.41581e-25 1.22889e-06 1.2378e-24 1.17826e-06)
(1.0921e-06 -1.38472e-07 3.28123e-24 1.19427e-06 8.14527e-25 1.14302e-06)
(1.05718e-06 -1.33425e-07 2.35653e-24 1.16067e-06 -2.59443e-23 1.10875e-06)
(1.02317e-06 -1.28462e-07 -1.80059e-21 1.12801e-06 -1.77301e-22 1.07542e-06)
(9.90065e-07 -1.23575e-07 2.27213e-22 1.09629e-06 5.01678e-23 1.04301e-06)
(9.58027e-07 -1.18789e-07 -2.39409e-24 1.06565e-06 -4.57008e-24 1.01168e-06)
(9.27143e-07 -1.14113e-07 -2.38939e-23 1.03618e-06 -7.8452e-24 9.81515e-07)
(8.9747e-07 -1.09554e-07 -3.30636e-22 1.00792e-06 -3.48553e-23 9.52558e-07)
(8.68973e-07 -1.05104e-07 1.20836e-24 9.80845e-07 5.18405e-25 9.24773e-07)
(8.41595e-07 -1.00752e-07 8.46877e-24 9.54891e-07 2.20861e-23 8.981e-07)
(8.15234e-07 -9.64872e-08 1.2992e-21 9.29924e-07 1.33142e-22 8.72433e-07)
(7.89985e-07 -9.23238e-08 2.21011e-24 9.06031e-07 -1.27892e-23 8.47856e-07)
(7.6606e-07 -8.83012e-08 1.08089e-23 8.83398e-07 -9.71823e-24 8.2457e-07)
(7.43513e-07 -8.44377e-08 -1.16841e-21 8.6205e-07 -8.87911e-23 8.02616e-07)
(7.2216e-07 -8.07089e-08 2.12177e-21 8.41802e-07 2.1158e-22 7.81809e-07)
(7.01568e-07 -7.70462e-08 -1.3838e-21 8.22224e-07 -1.67401e-22 7.61723e-07)
(6.81255e-07 -7.33602e-08 -8.84759e-25 8.02863e-07 3.48717e-23 7.41893e-07)
(6.61037e-07 -6.96062e-08 1.62182e-21 7.83551e-07 1.81483e-22 7.22135e-07)
(6.41804e-07 -6.59494e-08 1.44246e-21 7.65125e-07 1.26475e-22 7.03315e-07)
(6.24312e-07 -6.26015e-08 8.34775e-24 7.48164e-07 -1.2938e-23 6.86114e-07)
(6.06433e-07 -5.92675e-08 5.96703e-24 7.30377e-07 -1.34042e-23 6.68304e-07)
(5.88689e-07 -5.58972e-08 -1.07669e-21 7.12646e-07 -1.5886e-22 6.50613e-07)
(5.72056e-07 -5.25827e-08 -4.75054e-21 6.96126e-07 -4.79093e-22 6.34063e-07)
(5.55489e-07 -4.92217e-08 9.60996e-25 6.79537e-07 4.21331e-23 6.17485e-07)
(5.39142e-07 -4.58838e-08 6.0093e-24 6.62957e-07 9.7401e-24 6.01036e-07)
(5.2303e-07 -4.25739e-08 -2.64711e-23 6.46401e-07 -1.88661e-23 5.84711e-07)
(5.07359e-07 -3.93621e-08 -1.78449e-21 6.30048e-07 -1.936e-22 5.68704e-07)
(4.92077e-07 -3.62476e-08 -1.12014e-22 6.13852e-07 7.94087e-24 5.52965e-07)
(4.77101e-07 -3.3225e-08 -6.24062e-23 5.97727e-07 1.84852e-23 5.37415e-07)
(4.62419e-07 -3.03276e-08 3.92207e-21 5.81638e-07 4.06587e-22 5.22031e-07)
(4.48121e-07 -2.76365e-08 -1.49598e-21 5.65646e-07 -1.93607e-22 5.06886e-07)
(4.3414e-07 -2.52047e-08 -5.20284e-24 5.49651e-07 -1.488e-23 4.91896e-07)
(4.19943e-07 -2.29105e-08 -3.05531e-21 5.33116e-07 -2.99415e-22 4.76527e-07)
(4.05772e-07 -2.07282e-08 3.90253e-21 5.16407e-07 4.86589e-22 4.6109e-07)
(3.91725e-07 -1.86179e-08 5.16508e-21 4.99697e-07 6.25048e-22 4.45709e-07)
(3.77467e-07 -1.64814e-08 1.40501e-20 4.82625e-07 1.5187e-21 4.30045e-07)
(3.63166e-07 -1.43973e-08 -3.69565e-23 4.65349e-07 -1.65945e-22 4.14262e-07)
(3.4895e-07 -1.24315e-08 -1.25333e-20 4.48003e-07 -1.38565e-21 3.98485e-07)
(3.34831e-07 -1.06796e-08 3.32656e-21 4.30569e-07 4.46583e-22 3.82708e-07)
(3.20668e-07 -9.1886e-09 -1.25858e-22 4.12879e-07 -7.76284e-23 3.66783e-07)
(3.06547e-07 -8.01468e-09 -7.03623e-21 3.95058e-07 -8.84509e-22 3.50813e-07)
(2.92557e-07 -7.11353e-09 -1.81163e-20 3.7727e-07 -2.10136e-21 3.34924e-07)
(2.78665e-07 -6.39631e-09 -1.66758e-20 3.59528e-07 -1.79791e-21 3.19109e-07)
(2.65099e-07 -5.83803e-09 9.1962e-21 3.42141e-07 1.13015e-21 3.03617e-07)
(2.51391e-07 -5.42921e-09 -7.46626e-22 3.24518e-07 -1.13754e-22 2.87986e-07)
(2.38368e-07 -5.22893e-09 3.88847e-21 3.07701e-07 4.49249e-22 2.73025e-07)
(2.27279e-07 -5.35316e-09 -1.09087e-21 2.9327e-07 -1.42546e-22 2.6027e-07)
(2.17833e-07 -5.08729e-09 4.23438e-23 2.81105e-07 1.22553e-23 2.4949e-07)
(2.08405e-07 -4.57494e-09 8.77669e-24 2.69042e-07 -5.45738e-23 2.38708e-07)
(1.98683e-07 -4.38068e-09 -1.6087e-20 2.56492e-07 -1.9672e-21 2.27588e-07)
(1.89279e-07 -4.80193e-09 -1.52541e-20 2.44127e-07 -1.77453e-21 2.16657e-07)
(1.78033e-07 -6.33343e-09 8.15855e-23 2.28791e-07 5.44744e-23 2.03598e-07)
(1.76262e-07 -9.5068e-09 7.21725e-24 2.24052e-07 2.40515e-24 1.99551e-07)
(1.55242e-07 -1.15685e-08 -0 1.93756e-07 -6.47646e-24 1.76272e-07)
(1.92659e-07 -1.29514e-08 -4.72495e-21 2.40763e-07 -5.85392e-22 2.12204e-07)
(1.01203e-07 6.72944e-10 5.85839e-23 1.21255e-07 -2.08824e-23 1.22048e-07)
(3.91791e-07 7.97731e-09 -1.98901e-20 4.91519e-07 -2.4311e-21 4.17813e-07)
(4.59639e-07 3.56192e-08 -1.78879e-20 4.2476e-07 -2.27721e-21 4.8573e-07)
(8.17637e-07 1.35284e-08 2.3397e-22 1.0062e-06 5.93955e-23 8.48531e-07)
(1.02595e-07 -6.01066e-10 -9.13318e-25 1.02821e-07 -9.12873e-26 1.02695e-07)
(1.63349e-06 -1.48312e-07 5.75243e-25 1.6769e-06 4.95588e-24 1.65715e-06)
(2.93232e-06 -4.8417e-07 -2.4968e-25 3.07264e-06 1.31286e-23 3.01208e-06)
(2.24242e-06 -2.99128e-07 4.0007e-22 2.34222e-06 3.76632e-23 2.2933e-06)
(2.01733e-06 -2.53081e-07 -4.14524e-23 2.10251e-06 -1.21791e-23 2.06164e-06)
(2.04422e-06 -2.70184e-07 -1.56794e-22 2.1392e-06 -1.26677e-23 2.09292e-06)
(1.95108e-06 -2.56664e-07 -6.68885e-25 2.04401e-06 1.78693e-24 1.9987e-06)
(1.85799e-06 -2.42588e-07 -4.42432e-26 1.94872e-06 1.39387e-24 1.90429e-06)
(1.78901e-06 -2.34203e-07 1.55165e-22 1.87935e-06 2.99761e-23 1.83502e-06)
(1.71694e-06 -2.24515e-07 9.3616e-22 1.80629e-06 8.97701e-23 1.76234e-06)
(1.64912e-06 -2.1541e-07 -0 1.73752e-06 -5.17593e-24 1.69399e-06)
(1.5859e-06 -2.07009e-07 5.03421e-22 1.67358e-06 3.69335e-23 1.63035e-06)
(1.52582e-06 -1.98969e-07 -7.25929e-22 1.61284e-06 -8.85169e-23 1.56991e-06)
(1.46901e-06 -1.91355e-07 -5.82616e-22 1.55552e-06 -3.2942e-23 1.51282e-06)
(1.41508e-06 -1.84113e-07 9.04169e-22 1.50127e-06 1.02541e-22 1.4587e-06)
(1.3637e-06 -1.77192e-07 3.62556e-22 1.44974e-06 2.2041e-23 1.40722e-06)
(1.31462e-06 -1.70558e-07 8.98984e-25 1.40064e-06 1.70886e-23 1.35811e-06)
(1.26767e-06 -1.64183e-07 1.3217e-21 1.35392e-06 1.49448e-22 1.31121e-06)
(1.22275e-06 -1.58059e-07 1.06611e-21 1.30934e-06 7.73747e-23 1.26641e-06)
(1.17971e-06 -1.52163e-07 -5.41918e-22 1.26677e-06 -7.05858e-23 1.22356e-06)
(1.13853e-06 -1.46488e-07 -2.94833e-22 1.22621e-06 -6.06317e-23 1.18263e-06)
(1.09906e-06 -1.41015e-07 -2.67015e-21 1.18748e-06 -2.63132e-22 1.14346e-06)
(1.06111e-06 -1.35717e-07 -1.46927e-24 1.15032e-06 2.61799e-23 1.10586e-06)
(1.02452e-06 -1.30575e-07 -7.11795e-22 1.11461e-06 -7.13087e-23 1.06968e-06)
(9.89261e-07 -1.25574e-07 -2.72524e-25 1.08032e-06 1.15842e-23 1.03487e-06)
(9.55227e-07 -1.20709e-07 -5.46791e-24 1.04728e-06 -4.50777e-24 1.00133e-06)
(9.22444e-07 -1.15975e-07 3.878e-24 1.01555e-06 9.22265e-25 9.69066e-07)
(8.91053e-07 -1.11394e-07 -1.85288e-24 9.85234e-07 -3.41669e-25 9.38221e-07)