/*--------------------------------*- C++ -*----------------------------------*\
| =========                 |                                                 |
| \\      /  F ield         | OpenFOAM: The Open Source CFD Toolbox           |
|  \\    /   O peration     | Version:  2506                                  |
|   \\  /    A nd           | Website:  www.openfoam.com                      |
|    \\/     M anipulation  |                                                 |
\*---------------------------------------------------------------------------*/
FoamFile
{
    version     2.0;
    format      ascii;
    arch        "LSB;label=32;scalar=64";
    class       volScalarField;
    location    "150";
    object      turbulenceProperties:I;
}
// * * * * * * * * * * * * * * * * * * * * * * * * * * * * * * * * * * * * * //

dimensions      [0 0 0 0 0 0 0];

internalField   nonuniform List<scalar> 
1340
(
2.58893e-05
3.66408e-05
1.22116e-05
2.5332e-05
2.58383e-05
3.66423e-05
1.36018e-05
1.69074e-05
1.2153e-05
2.53717e-05
2.58326e-05
3.66258e-05
1.79829e-05
1.69416e-05
1.64413e-05
1.39223e-05
1.71003e-05
1.21397e-05
2.54118e-05
2.58583e-05
3.65998e-05
2.14412e-05
2.06474e-05
1.99746e-05
1.93346e-05
1.86543e-05
1.79841e-05
1.70013e-05
1.65487e-05
1.42381e-05
1.72771e-05
1.22004e-05
2.54526e-05
2.59017e-05
3.65702e-05
2.53715e-05
2.45569e-05
2.37271e-05
2.28966e-05
2.20596e-05
2.12435e-05
2.05026e-05
1.98745e-05
1.92717e-05
1.86196e-05
1.79727e-05
1.70559e-05
1.66627e-05
1.4581e-05
1.74461e-05
1.22974e-05
2.54871e-05
2.59546e-05
3.6539e-05
2.98201e-05
2.91354e-05
2.84437e-05
2.77485e-05
2.70466e-05
2.63366e-05
2.56218e-05
2.48967e-05
2.4138e-05
2.33667e-05
2.25963e-05
2.18055e-05
2.10258e-05
2.03376e-05
1.97579e-05
1.91943e-05
1.85867e-05
1.79858e-05
1.71326e-05
1.67906e-05
1.49193e-05
1.75955e-05
1.24224e-05
2.55151e-05
2.60111e-05
3.65025e-05
3.57068e-05
3.51561e-05
3.4615e-05
3.40673e-05
3.35143e-05
3.2957e-05
3.23972e-05
3.1834e-05
3.12668e-05
3.06909e-05
3.00993e-05
2.95075e-05
2.8931e-05
2.83178e-05
2.7686e-05
2.70505e-05
2.64083e-05
2.57576e-05
2.50839e-05
2.43887e-05
2.36929e-05
2.29848e-05
2.22758e-05
2.1547e-05
2.08318e-05
2.01946e-05
1.96586e-05
1.91303e-05
1.85617e-05
1.79962e-05
1.72096e-05
1.69176e-05
1.52499e-05
1.77237e-05
1.25777e-05
2.55355e-05
2.60611e-05
3.64649e-05
0.000205564
8.13761e-05
1.0773e-05
4.43488e-05
6.30208e-05
5.13606e-05
5.35954e-05
5.36708e-05
5.27564e-05
5.244e-05
5.19884e-05
5.15129e-05
5.10357e-05
5.05342e-05
5.00187e-05
4.94861e-05
4.89364e-05
4.83711e-05
4.77898e-05
4.71946e-05
4.65888e-05
4.59784e-05
4.5369e-05
4.47645e-05
4.41644e-05
4.35663e-05
4.29684e-05
4.2373e-05
4.17827e-05
4.12031e-05
4.06356e-05
4.00801e-05
3.95345e-05
3.89972e-05
3.84707e-05
3.79576e-05
3.74596e-05
3.69748e-05
3.64939e-05
3.60128e-05
3.55309e-05
3.49935e-05
3.44549e-05
3.40656e-05
3.36547e-05
3.3159e-05
3.26653e-05
3.21662e-05
3.16649e-05
3.11629e-05
3.06586e-05
3.01517e-05
2.96415e-05
2.91224e-05
2.85742e-05
2.80103e-05
2.7459e-05
2.68965e-05
2.63231e-05
2.57402e-05
2.51473e-05
2.45345e-05
2.39062e-05
2.32675e-05
2.26175e-05
2.19655e-05
2.1293e-05
2.06323e-05
2.00467e-05
1.95519e-05
1.90582e-05
1.85295e-05
1.80014e-05
1.72879e-05
1.70459e-05
1.55764e-05
1.78312e-05
1.27563e-05
2.55434e-05
2.60998e-05
3.64288e-05
2.81885e-06
6.92889e-06
2.88498e-05
6.22468e-05
5.71153e-05
5.16299e-05
5.35803e-05
5.25007e-05
5.16888e-05
5.11724e-05
5.05437e-05
4.99458e-05
4.93577e-05
4.87684e-05
4.81814e-05
4.75915e-05
4.69966e-05
4.63964e-05
4.57902e-05
4.51791e-05
4.45674e-05
4.39586e-05
4.33553e-05
4.27579e-05
4.21648e-05
4.15741e-05
4.09871e-05
4.04053e-05
3.98327e-05
3.92728e-05
3.87259e-05
3.81919e-05
3.76685e-05
3.71565e-05
3.66593e-05
3.61796e-05
3.57182e-05
3.52689e-05
3.4822e-05
3.43729e-05
3.39306e-05
3.34868e-05
3.30149e-05
3.25593e-05
3.21378e-05
3.17012e-05
3.12625e-05
3.08169e-05
3.03706e-05
2.99239e-05
2.94748e-05
2.90225e-05
2.85686e-05
2.81095e-05
2.76278e-05
2.71371e-05
2.66451e-05
2.61395e-05
2.56199e-05
2.50898e-05
2.45493e-05
2.39909e-05
2.34184e-05
2.28352e-05
2.22416e-05
2.16462e-05
2.10306e-05
2.04263e-05
1.98944e-05
1.94408e-05
1.89833e-05
1.84963e-05
1.80085e-05
1.73722e-05
1.71787e-05
1.58978e-05
1.79171e-05
1.29464e-05
2.55441e-05
2.61196e-05
3.64009e-05
0
1.39354e-05
5.50685e-05
6.35277e-05
5.36629e-05
5.37196e-05
5.37676e-05
5.2305e-05
5.14892e-05
5.0686e-05
4.98566e-05
4.90874e-05
4.8341e-05
4.76159e-05
4.6911e-05
4.62195e-05
4.55388e-05
4.48668e-05
4.42036e-05
4.35476e-05
4.29029e-05
4.22693e-05
4.16467e-05
4.10323e-05
4.04256e-05
3.98261e-05
3.92339e-05
3.86525e-05
3.80839e-05
3.75298e-05
3.699e-05
3.64642e-05
3.59506e-05
3.54517e-05
3.49722e-05
3.4514e-05
3.40739e-05
3.36432e-05
3.32118e-05
3.27757e-05
3.23545e-05
3.19645e-05
3.15548e-05
3.11414e-05
3.07497e-05
3.0352e-05
2.99513e-05
2.95475e-05
2.91457e-05
2.87445e-05
2.83418e-05
2.7937e-05
2.75322e-05
2.7125e-05
2.67005e-05
2.62667e-05
2.58268e-05
2.53705e-05
2.49015e-05
2.44233e-05
2.39352e-05
2.34318e-05
2.29158e-05
2.23906e-05
2.18554e-05
2.13186e-05
2.0762e-05
2.0217e-05
1.97398e-05
1.9327e-05
1.89066e-05
1.84614e-05
1.8015e-05
1.74591e-05
1.73117e-05
1.62073e-05
1.79799e-05
1.31406e-05
2.55206e-05
2.61309e-05
3.63865e-05
1.22033e-05
4.90139e-05
6.60547e-05
5.77064e-05
5.47223e-05
5.51564e-05
5.39159e-05
5.26439e-05
5.1693e-05
5.06744e-05
4.96967e-05
4.87689e-05
4.78705e-05
4.70059e-05
4.61713e-05
4.53628e-05
4.45777e-05
4.38149e-05
4.30734e-05
4.23517e-05
4.16507e-05
4.09684e-05
4.0302e-05
3.96498e-05
3.90118e-05
3.83862e-05
3.77744e-05
3.71797e-05
3.66013e-05
3.60403e-05
3.54954e-05
3.4967e-05
3.44543e-05
3.39621e-05
3.34938e-05
3.30484e-05
3.26191e-05
3.21959e-05
3.17714e-05
3.13492e-05
3.09543e-05
3.06015e-05
3.02255e-05
2.98331e-05
2.94608e-05
2.90859e-05
2.87126e-05
2.83413e-05
2.79744e-05
2.76102e-05
2.72474e-05
2.68858e-05
2.65274e-05
2.61692e-05
2.57976e-05
2.54148e-05
2.50228e-05
2.46148e-05
2.41962e-05
2.37685e-05
2.33324e-05
2.28845e-05
2.24249e-05
2.19576e-05
2.14806e-05
2.10018e-05
2.05031e-05
2.00168e-05
1.95927e-05
1.92189e-05
1.88346e-05
1.84306e-05
1.80266e-05
1.7553e-05
1.74503e-05
1.65071e-05
1.80281e-05
1.33248e-05
2.54839e-05
2.61128e-05
3.64115e-05
4.70801e-05
6.3811e-05
5.99082e-05
5.56163e-05
5.5784e-05
5.5043e-05
5.37422e-05
5.27012e-05
5.16624e-05
5.05884e-05
4.95528e-05
4.85386e-05
4.75484e-05
4.65867e-05
4.56527e-05
4.47485e-05
4.38718e-05
4.30233e-05
4.2203e-05
4.14094e-05
4.06418e-05
3.98977e-05
3.91744e-05
3.84718e-05
3.77883e-05
3.71235e-05
3.64803e-05
3.58579e-05
3.52553e-05
3.4672e-05
3.41086e-05
3.35654e-05
3.30437e-05
3.25486e-05
3.20807e-05
3.16393e-05
3.1207e-05
3.0779e-05
3.03553e-05
2.99498e-05
2.9582e-05
2.92515e-05
2.88902e-05
2.85103e-05
2.81558e-05
2.78016e-05
2.74539e-05
2.7113e-05
2.67776e-05
2.64485e-05
2.61234e-05
2.58035e-05
2.54915e-05
2.51819e-05
2.4861e-05
2.45286e-05
2.41857e-05
2.38269e-05
2.34598e-05
2.30831e-05
2.26997e-05
2.23091e-05
2.19073e-05
2.14991e-05
2.10816e-05
2.06623e-05
2.02224e-05
1.97963e-05
1.94264e-05
1.90927e-05
1.87455e-05
1.83847e-05
1.80283e-05
1.76417e-05
1.75862e-05
1.67921e-05
1.80502e-05
1.35997e-05
2.53708e-05
2.61455e-05
3.6438e-05
5.72091e-05
5.7243e-05
5.47665e-05
5.44531e-05
5.41038e-05
5.32572e-05
5.24032e-05
5.15567e-05
5.06374e-05
4.96928e-05
4.87303e-05
4.77603e-05
4.67856e-05
4.58164e-05
4.48577e-05
4.39184e-05
4.29941e-05
4.20925e-05
4.12177e-05
4.03637e-05
3.95384e-05
3.87336e-05
3.79548e-05
3.72014e-05
3.64707e-05
3.57643e-05
3.50845e-05
3.44275e-05
3.37955e-05
3.31834e-05
3.25976e-05
3.20386e-05
3.15078e-05
3.10059e-05
3.05363e-05
3.00853e-05
2.96387e-05
2.92018e-05
2.87863e-05
2.84074e-05
2.8064e-05
2.77371e-05
2.73766e-05
2.70156e-05
2.6683e-05
2.63507e-05
2.6032e-05
2.57236e-05
2.54216e-05
2.5131e-05
2.48483e-05
2.45744e-05
2.43156e-05
2.40584e-05
2.3791e-05
2.35134e-05
2.32256e-05
2.29206e-05
2.26099e-05
2.22917e-05
2.19698e-05
2.16445e-05
2.13101e-05
2.09707e-05
2.06221e-05
2.02703e-05
1.98983e-05
1.95424e-05
1.92327e-05
1.89426e-05
1.8639e-05
1.83296e-05
1.80313e-05
1.7748e-05
1.77344e-05
1.7117e-05
1.79941e-05
1.40954e-05
2.50907e-05
2.59953e-05
3.5804e-05
5.18937e-05
5.16902e-05
5.12986e-05
5.10242e-05
5.04641e-05
4.99114e-05
4.93546e-05
4.8742e-05
4.80778e-05
4.73753e-05
4.66249e-05
4.58426e-05
4.50253e-05
4.41865e-05
4.33309e-05
4.24697e-05
4.15992e-05
4.0735e-05
3.98771e-05
3.90279e-05
3.81969e-05
3.73778e-05
3.65798e-05
3.5806e-05
3.50513e-05
3.43212e-05
3.36169e-05
3.29345e-05
3.22796e-05
3.16467e-05
3.10447e-05
3.04749e-05
2.99368e-05
2.94244e-05
2.89409e-05
2.84654e-05
2.8004e-05
2.75679e-05
2.71732e-05
2.68155e-05
2.64757e-05
2.61298e-05
2.5768e-05
2.54271e-05
2.51074e-05
2.47957e-05
2.45029e-05
2.42218e-05
2.39535e-05
2.37003e-05
2.34628e-05
2.32397e-05
2.30342e-05
2.28302e-05
2.26168e-05
2.23937e-05
2.21612e-05
2.19148e-05
2.16655e-05
2.14128e-05
2.11609e-05
2.09081e-05
2.06499e-05
2.03871e-05
2.0115e-05
1.98391e-05
1.95448e-05
1.92674e-05
1.90225e-05
1.87799e-05
1.85261e-05
1.82768e-05
1.80498e-05
1.78815e-05
1.7912e-05
1.74613e-05
1.79204e-05
1.46129e-05
2.50229e-05
2.58611e-05
3.57746e-05
5.08341e-05
5.0564e-05
4.95111e-05
4.85123e-05
4.76478e-05
4.69211e-05
4.62649e-05
4.56528e-05
4.50619e-05
4.44714e-05
4.3871e-05
4.32483e-05
4.25992e-05
4.19242e-05
4.12243e-05
4.05008e-05
3.97551e-05
3.89987e-05
3.82277e-05
3.74539e-05
3.66796e-05
3.59073e-05
3.51429e-05
3.43919e-05
3.36516e-05
3.29302e-05
3.22263e-05
3.15394e-05
3.08779e-05
3.02395e-05
2.963e-05
2.90516e-05
2.84984e-05
2.7964e-05
2.74522e-05
2.69539e-05
2.64859e-05
2.60588e-05
2.56734e-05
2.53076e-05
2.49426e-05
2.45702e-05
2.42092e-05
2.38765e-05
2.35614e-05
2.32638e-05
2.29872e-05
2.27278e-05
2.24882e-05
2.22692e-05
2.20746e-05
2.19008e-05
2.17419e-05
2.15867e-05
2.14215e-05
2.1249e-05
2.10701e-05
2.08814e-05
2.0695e-05
2.05095e-05
2.03283e-05
2.01497e-05
1.99681e-05
1.97814e-05
1.95873e-05
1.93888e-05
1.91738e-05
1.89743e-05
1.87925e-05
1.85991e-05
1.83995e-05
1.82148e-05
1.80679e-05
1.80134e-05
1.80932e-05
1.77699e-05
1.78757e-05
1.50873e-05
2.50766e-05
2.54846e-05
3.57709e-05
5.49105e-05
5.30789e-05
5.29501e-05
5.0987e-05
4.89846e-05
4.73459e-05
4.59225e-05
4.4712e-05
4.3672e-05
4.27707e-05
4.19709e-05
4.12484e-05
4.05747e-05
3.99317e-05
3.93023e-05
3.86776e-05
3.80465e-05
3.74055e-05
3.67548e-05
3.60907e-05
3.5418e-05
3.47366e-05
3.40498e-05
3.33628e-05
3.26756e-05
3.19939e-05
3.13183e-05
3.06535e-05
3.00006e-05
2.93665e-05
2.87517e-05
2.81575e-05
2.75865e-05
2.70307e-05
2.64907e-05
2.59757e-05
2.5487e-05
2.50389e-05
2.46304e-05
2.42433e-05
2.38596e-05
2.34717e-05
2.30932e-05
2.27425e-05
2.24177e-05
2.21133e-05
2.18297e-05
2.1569e-05
2.1333e-05
2.11217e-05
2.09383e-05
2.07856e-05
2.06562e-05
2.05384e-05
2.04243e-05
2.03009e-05
2.01738e-05
2.00436e-05
1.99085e-05
1.97805e-05
1.96585e-05
1.95433e-05
1.94335e-05
1.9322e-05
1.92058e-05
1.90843e-05
1.89581e-05
1.88171e-05
1.86886e-05
1.85645e-05
1.84194e-05
1.82754e-05
1.81572e-05
1.80955e-05
1.81491e-05
1.82755e-05
1.8041e-05
1.78605e-05
1.56351e-05
2.51907e-05
2.50023e-05
3.57628e-05
6.04585e-05
5.75939e-05
5.81551e-05
5.54809e-05
5.2619e-05
5.01367e-05
4.78789e-05
4.5881e-05
4.41195e-05
4.25781e-05
4.12314e-05
4.00549e-05
3.90214e-05
3.81039e-05
3.72792e-05
3.65229e-05
3.58183e-05
3.51482e-05
3.4503e-05
3.3871e-05
3.32472e-05
3.2627e-05
3.20088e-05
3.13915e-05
3.07725e-05
3.01565e-05
2.95409e-05
2.89321e-05
2.833e-05
2.77383e-05
2.71592e-05
2.65922e-05
2.60407e-05
2.55005e-05
2.49831e-05
2.44948e-05
2.40404e-05
2.36173e-05
2.3216e-05
2.28173e-05
2.24171e-05
2.20255e-05
2.1659e-05
2.13234e-05
2.10131e-05
2.0724e-05
2.04597e-05
2.02219e-05
2.00149e-05
1.98394e-05
1.9697e-05
1.95885e-05
1.95019e-05
1.94228e-05
1.93472e-05
1.92649e-05
1.91808e-05
1.90977e-05
1.90153e-05
1.89438e-05
1.8882e-05
1.88292e-05
1.87825e-05
1.87356e-05
1.86844e-05
1.8629e-05
1.85696e-05
1.84964e-05
1.84317e-05
1.83607e-05
1.82635e-05
1.81746e-05
1.8124e-05
1.81493e-05
1.83019e-05
1.84668e-05
1.82909e-05
1.79013e-05
1.63388e-05
2.53646e-05
2.44363e-05
3.57676e-05
6.6563e-05
6.24349e-05
6.42938e-05
6.13043e-05
5.79962e-05
5.49774e-05
5.21188e-05
4.94697e-05
4.70348e-05
4.4815e-05
4.28099e-05
4.10127e-05
3.9411e-05
3.79874e-05
3.67261e-05
3.56046e-05
3.46032e-05
3.37023e-05
3.28824e-05
3.21277e-05
3.14226e-05
3.07567e-05
3.01185e-05
2.94998e-05
2.88957e-05
2.83018e-05
2.77155e-05
2.71387e-05
2.6568e-05
2.60077e-05
2.54575e-05
2.49192e-05
2.43971e-05
2.38926e-05
2.34149e-05
2.29666e-05
2.25402e-05
2.21276e-05
2.172e-05
2.13097e-05
2.09095e-05
2.05336e-05
2.01887e-05
1.98717e-05
1.95818e-05
1.9314e-05
1.90763e-05
1.88698e-05
1.86995e-05
1.85669e-05
1.84701e-05
1.84077e-05
1.83617e-05
1.83212e-05
1.82848e-05
1.8244e-05
1.82045e-05
1.81699e-05
1.81415e-05
1.81263e-05
1.81228e-05
1.81297e-05
1.81431e-05
1.81552e-05
1.81644e-05
1.81702e-05
1.81719e-05
1.81601e-05
1.81514e-05
1.81293e-05
1.8081e-05
1.80494e-05
1.80686e-05
1.81818e-05
1.84202e-05
1.86052e-05
1.84533e-05
1.79357e-05
1.71001e-05
2.5586e-05
2.37303e-05
3.58219e-05
7.14556e-05
6.57891e-05
6.96988e-05
6.68919e-05
6.35625e-05
6.04268e-05
5.73421e-05
5.43721e-05
5.15379e-05
4.88527e-05
4.63327e-05
4.39883e-05
4.18251e-05
3.98433e-05
3.80402e-05
3.64098e-05
3.49408e-05
3.36213e-05
3.24345e-05
3.13663e-05
3.04e-05
2.95193e-05
2.87101e-05
2.79563e-05
2.725e-05
2.65821e-05
2.59436e-05
2.53332e-05
2.47461e-05
2.41832e-05
2.36418e-05
2.31255e-05
2.26334e-05
2.21671e-05
2.1725e-05
2.13028e-05
2.08876e-05
2.04776e-05
2.00704e-05
1.96753e-05
1.93041e-05
1.89667e-05
1.86605e-05
1.83812e-05
1.81311e-05
1.79067e-05
1.77201e-05
1.75678e-05
1.74559e-05
1.73844e-05
1.7348e-05
1.73388e-05
1.73399e-05
1.7347e-05
1.73563e-05
1.73645e-05
1.73772e-05
1.73963e-05
1.74249e-05
1.74674e-05
1.7521e-05
1.75844e-05
1.76527e-05
1.77178e-05
1.77822e-05
1.78434e-05
1.78994e-05
1.79428e-05
1.79859e-05
1.80114e-05
1.80085e-05
1.80266e-05
1.81049e-05
1.82915e-05
1.85913e-05
1.87826e-05
1.86617e-05
1.81738e-05
1.81783e-05
2.59574e-05
2.30506e-05
3.60605e-05
7.36253e-05
6.67155e-05
7.2599e-05
7.02794e-05
6.73393e-05
6.44661e-05
6.15402e-05
5.86304e-05
5.57595e-05
5.2952e-05
5.02338e-05
4.76257e-05
4.51417e-05
4.27961e-05
4.05988e-05
3.85566e-05
3.66703e-05
3.4939e-05
3.33567e-05
3.19168e-05
3.06086e-05
2.94178e-05
2.83349e-05
2.73434e-05
2.64348e-05
2.55975e-05
2.48226e-05
2.41048e-05
2.34383e-05
2.28192e-05
2.22416e-05
2.17044e-05
2.12002e-05
2.07223e-05
2.0265e-05
1.98179e-05
1.93778e-05
1.8947e-05
1.85343e-05
1.81489e-05
1.77949e-05
1.74784e-05
1.71911e-05
1.69335e-05
1.67075e-05
1.65171e-05
1.63672e-05
1.62569e-05
1.61904e-05
1.61619e-05
1.61661e-05
1.6188e-05
1.62199e-05
1.6258e-05
1.62988e-05
1.63439e-05
1.63966e-05
1.64593e-05
1.65334e-05
1.66232e-05
1.67228e-05
1.68315e-05
1.69429e-05
1.70514e-05
1.71606e-05
1.72662e-05
1.7366e-05
1.74517e-05
1.7527e-05
1.75847e-05
1.76297e-05
1.77072e-05
1.78606e-05
1.81332e-05
1.84791e-05
1.86217e-05
1.84453e-05
1.80009e-05
1.87717e-05
2.61262e-05
2.18139e-05
3.64556e-05
7.44276e-05
6.58406e-05
7.45259e-05
7.30653e-05
7.07648e-05
6.83999e-05
6.58464e-05
6.31994e-05
6.04791e-05
5.77139e-05
5.49518e-05
5.22087e-05
4.9518e-05
4.68935e-05
4.43599e-05
4.19363e-05
3.96282e-05
3.7453e-05
3.541e-05
3.35064e-05
3.17467e-05
3.01139e-05
2.86204e-05
2.72509e-05
2.60016e-05
2.48625e-05
2.38325e-05
2.29008e-05
2.20594e-05
2.13047e-05
2.06183e-05
1.99988e-05
1.94307e-05
1.89047e-05
1.84135e-05
1.79486e-05
1.75183e-05
1.71212e-05
1.67695e-05
1.64581e-05
1.61913e-05
1.59668e-05
1.5777e-05
1.56251e-05
1.55108e-05
1.54381e-05
1.53999e-05
1.54022e-05
1.54363e-05
1.5497e-05
1.5578e-05
1.56669e-05
1.57642e-05
1.58641e-05
1.59677e-05
1.60747e-05
1.61863e-05
1.6305e-05
1.64287e-05
1.65619e-05
1.66992e-05
1.68409e-05
1.69827e-05
1.71224e-05
1.72621e-05
1.73978e-05
1.75293e-05
1.76507e-05
1.77729e-05
1.78771e-05
1.79427e-05
1.80256e-05
1.81736e-05
1.84295e-05
1.8744e-05
1.88719e-05
1.88416e-05
1.88686e-05
2.059e-05
2.67929e-05
2.20051e-05
3.81549e-05
6.16338e-05
5.22189e-05
6.40644e-05
6.4576e-05
6.42808e-05
6.36574e-05
6.26884e-05
6.14471e-05
5.99677e-05
5.8291e-05
5.64673e-05
5.4518e-05
5.2486e-05
5.03909e-05
4.82673e-05
4.61377e-05
4.40194e-05
4.19379e-05
3.99024e-05
3.79319e-05
3.60376e-05
3.42185e-05
3.24944e-05
3.08595e-05
2.93221e-05
2.78805e-05
2.65393e-05
2.52942e-05
2.41434e-05
2.30866e-05
2.21106e-05
2.12155e-05
2.03889e-05
1.96265e-05
1.89229e-05
1.82748e-05
1.76847e-05
1.71494e-05
1.66719e-05
1.62435e-05
1.58657e-05
1.55346e-05
1.5249e-05
1.50101e-05
1.48172e-05
1.4669e-05
1.45597e-05
1.44905e-05
1.44487e-05
1.44322e-05
1.44315e-05
1.44442e-05
1.44701e-05
1.45056e-05
1.45543e-05
1.46149e-05
1.46907e-05
1.47818e-05
1.48864e-05
1.50074e-05
1.51369e-05
1.52734e-05
1.54129e-05
1.55556e-05
1.57033e-05
1.58498e-05
1.59909e-05
1.61147e-05
1.61964e-05
1.62579e-05
1.63616e-05
1.65465e-05
1.68477e-05
1.7277e-05
1.76354e-05
1.75516e-05
1.7174e-05
1.73476e-05
2.00644e-05
2.45012e-05
2.04561e-05
3.81377e-05
)
;

boundaryField
{
    inlet
    {
        type            calculated;
        value           nonuniform List<scalar> 
23
(
7.46581e-05
7.44391e-05
7.42262e-05
7.40191e-05
7.38139e-05
7.36063e-05
7.33911e-05
7.31643e-05
7.29203e-05
7.26543e-05
7.23595e-05
7.20373e-05
7.16689e-05
7.11104e-05
7.06401e-05
7.00671e-05
6.93517e-05
6.84746e-05
6.74088e-05
6.61391e-05
6.45939e-05
6.33739e-05
6.09714e-05
)
;
    }
    outlet
    {
        type            calculated;
        value           nonuniform List<scalar> 
82
(
6.19254e-05
6.43422e-05
5.2562e-05
6.48502e-05
6.45545e-05
6.39321e-05
6.29655e-05
6.1728e-05
6.02533e-05
5.85823e-05
5.67652e-05
5.48233e-05
5.27995e-05
5.07132e-05
4.85989e-05
4.64792e-05
4.43711e-05
4.23e-05
4.02748e-05
3.83144e-05
3.64299e-05
3.46198e-05
3.29037e-05
3.12754e-05
2.97429e-05
2.83041e-05
2.69631e-05
2.57151e-05
2.45578e-05
2.34905e-05
2.24994e-05
2.15843e-05
2.07326e-05
1.99389e-05
1.91983e-05
1.85066e-05
1.78675e-05
1.72773e-05
1.67403e-05
1.62482e-05
1.5803e-05
1.54018e-05
1.50447e-05
1.47345e-05
1.44726e-05
1.42599e-05
1.40916e-05
1.39699e-05
1.38814e-05
1.38225e-05
1.37819e-05
1.37559e-05
1.37442e-05
1.3743e-05
1.37568e-05
1.37852e-05
1.3833e-05
1.39017e-05
1.39897e-05
1.41004e-05
1.42241e-05
1.43577e-05
1.44953e-05
1.46367e-05
1.4785e-05
1.49329e-05
1.50729e-05
1.51863e-05
1.52404e-05
1.52798e-05
1.53911e-05
1.5611e-05
1.59844e-05
1.65116e-05
1.69326e-05
1.67801e-05
1.61403e-05
1.60397e-05
1.89319e-05
2.39675e-05
1.81636e-05
3.62998e-05
)
;
    }
    walls
    {
        type            calculated;
        value           nonuniform List<scalar> 0();
    }
    frontAndBack
    {
        type            empty;
    }
    procBoundary3to2
    {
        type            processor;
        value           nonuniform List<scalar> 
88
(
2.59954e-05
3.66324e-05
1.23254e-05
2.52823e-05
2.52823e-05
1.32844e-05
1.67033e-05
1.67033e-05
1.79795e-05
1.68878e-05
1.63401e-05
1.63401e-05
2.16256e-05
2.07806e-05
2.00686e-05
1.93964e-05
1.86848e-05
1.86848e-05
2.58174e-05
2.49531e-05
2.4072e-05
2.31885e-05
2.23028e-05
2.23028e-05
3.06546e-05
2.99168e-05
2.91713e-05
2.84214e-05
2.76662e-05
2.69061e-05
2.61456e-05
2.61456e-05
3.72292e-05
3.66467e-05
3.60555e-05
3.54569e-05
3.48497e-05
3.42364e-05
3.36186e-05
3.29965e-05
3.23692e-05
3.17322e-05
3.10893e-05
3.04581e-05
3.04581e-05
0.000642443
6.86769e-06
2.9382e-05
6.54933e-05
5.36467e-05
5.38856e-05
5.50106e-05
5.42116e-05
5.39644e-05
5.36282e-05
5.32346e-05
5.28329e-05
5.23941e-05
5.19304e-05
5.14398e-05
5.09266e-05
5.0391e-05
4.9834e-05
4.92578e-05
4.86642e-05
4.80585e-05
4.74481e-05
4.68391e-05
4.62346e-05
4.56337e-05
4.50307e-05
4.44263e-05
4.38234e-05
4.32266e-05
4.26395e-05
4.20622e-05
4.14938e-05
4.09315e-05
4.03746e-05
3.98268e-05
3.92887e-05
3.87622e-05
3.82405e-05
3.77138e-05
3.71685e-05
3.66376e-05
3.61818e-05
3.61818e-05
)
;
    }
    procBoundary3to6
    {
        type            processor;
        value           uniform 0.00133601;
    }
    procBoundary3to7
    {
        type            processor;
        value           nonuniform List<scalar> 
16
(
0.00171432
0.00073094
0
0
1.17727e-05
5.22523e-05
5.30479e-05
5.1285e-05
5.1285e-05
5.14816e-05
5.47616e-05
5.85494e-05
6.07115e-05
6.07498e-05
5.85264e-05
4.47139e-05
)
;
    }
}


// ************************************************************************* //
