/*--------------------------------*- C++ -*----------------------------------*\
| =========                 |                                                 |
| \\      /  F ield         | OpenFOAM: The Open Source CFD Toolbox           |
|  \\    /   O peration     | Version:  2506                                  |
|   \\  /    A nd           | Website:  www.openfoam.com                      |
|    \\/     M anipulation  |                                                 |
\*---------------------------------------------------------------------------*/
FoamFile
{
    version     2.0;
    format      ascii;
    arch        "LSB;label=32;scalar=64";
    class       volScalarField;
    location    "150";
    object      turbulenceProperties:epsilon;
}
// * * * * * * * * * * * * * * * * * * * * * * * * * * * * * * * * * * * * * //

dimensions      [0 2 -3 0 0 0 0];

internalField   nonuniform List<scalar> 
1340
(
3.40208e-10
1.3668e-09
1.66885e-11
3.08279e-10
3.3766e-10
1.36987e-09
2.57842e-11
6.14387e-11
1.6379e-11
3.1059e-10
3.37538e-10
1.37027e-09
7.88626e-11
6.2151e-11
5.51312e-11
2.83273e-11
6.43446e-11
1.63176e-11
3.12955e-10
3.39119e-10
1.36925e-09
1.59178e-10
1.36978e-10
1.20036e-10
1.05429e-10
9.14016e-11
7.89948e-11
6.31124e-11
5.66516e-11
3.10165e-11
6.71087e-11
1.66588e-11
3.15395e-10
3.41696e-10
1.3677e-09
3.11374e-10
2.73541e-10
2.38625e-10
2.07113e-10
1.786e-10
1.53716e-10
1.33441e-10
1.17868e-10
1.04245e-10
9.08706e-11
7.89128e-11
6.40148e-11
5.83001e-11
3.415e-11
6.98408e-11
1.72093e-11
3.1756e-10
3.44847e-10
1.36592e-09
5.9371e-10
5.41227e-10
4.91844e-10
4.45719e-10
4.02539e-10
3.62146e-10
3.24638e-10
2.89644e-10
2.56116e-10
2.25085e-10
1.96971e-10
1.7092e-10
1.47839e-10
1.29464e-10
1.15351e-10
1.02769e-10
9.03837e-11
7.92689e-11
6.52684e-11
6.01897e-11
3.74737e-11
7.23417e-11
1.79369e-11
3.19434e-10
3.48271e-10
1.36338e-09
1.23162e-09
1.15642e-09
1.08604e-09
1.01822e-09
9.53119e-10
8.90832e-10
8.31494e-10
7.74913e-10
7.20972e-10
6.69216e-10
6.19066e-10
5.71826e-10
5.28494e-10
4.85168e-10
4.434e-10
4.04189e-10
3.67293e-10
3.32556e-10
2.99265e-10
2.6759e-10
2.3847e-10
2.1133e-10
1.86531e-10
1.63365e-10
1.42787e-10
1.26136e-10
1.1328e-10
1.01601e-10
9.00622e-11
7.95867e-11
6.65544e-11
6.21192e-11
4.09579e-11
7.45579e-11
1.88711e-11
3.20967e-10
3.5143e-10
1.36073e-09
3.40352e-07
3.07278e-08
5.899e-12
3.05675e-09
1.22723e-08
5.56835e-09
6.58283e-09
6.60822e-09
6.16741e-09
6.01335e-09
5.80254e-09
5.58698e-09
5.37657e-09
5.16226e-09
4.94884e-09
4.73558e-09
4.52296e-09
4.31203e-09
4.10311e-09
3.89736e-09
3.69614e-09
3.50152e-09
3.31504e-09
3.1376e-09
2.96865e-09
2.8072e-09
2.6526e-09
2.50519e-09
2.36524e-09
2.23368e-09
2.11029e-09
1.99459e-09
1.8857e-09
1.78295e-09
1.68644e-09
1.59628e-09
1.51229e-09
1.4338e-09
1.35905e-09
1.28734e-09
1.21847e-09
1.14521e-09
1.07528e-09
1.02657e-09
9.77059e-10
9.19979e-10
8.65722e-10
8.1345e-10
7.63439e-10
7.15784e-10
6.70263e-10
6.26795e-10
5.85269e-10
5.45229e-10
5.05253e-10
4.66502e-10
4.30835e-10
3.96623e-10
3.63913e-10
3.32795e-10
3.03261e-10
2.74853e-10
2.47857e-10
2.22494e-10
1.98723e-10
1.76838e-10
1.56198e-10
1.37727e-10
1.22757e-10
1.11079e-10
1.00281e-10
8.96102e-11
7.98217e-11
6.78852e-11
6.41209e-11
4.46381e-11
7.64763e-11
1.99901e-11
3.21908e-10
3.54059e-10
1.35835e-09
1.39368e-14
8.02417e-13
4.79652e-10
1.18406e-08
8.50053e-09
5.71188e-09
6.59949e-09
6.08115e-09
5.70908e-09
5.47764e-09
5.20786e-09
4.96028e-09
4.72539e-09
4.49853e-09
4.2808e-09
4.07009e-09
3.86567e-09
3.66742e-09
3.4751e-09
3.28912e-09
3.11062e-09
2.9403e-09
2.77857e-09
2.62515e-09
2.47922e-09
2.34012e-09
2.20781e-09
2.08237e-09
1.96424e-09
1.85368e-09
1.75029e-09
1.65361e-09
1.56281e-09
1.4777e-09
1.39845e-09
1.32506e-09
1.25724e-09
1.19375e-09
1.13306e-09
1.07452e-09
1.01916e-09
9.65856e-10
9.11631e-10
8.61503e-10
8.16985e-10
7.72801e-10
7.30296e-10
6.89016e-10
6.49505e-10
6.1175e-10
5.75531e-10
5.40756e-10
5.07513e-10
4.75512e-10
4.43624e-10
4.12849e-10
3.83648e-10
3.55305e-10
3.27874e-10
3.0158e-10
2.76451e-10
2.52179e-10
2.29004e-10
2.07069e-10
1.86395e-10
1.6725e-10
1.49035e-10
1.32636e-10
1.19347e-10
1.08817e-10
9.89236e-11
8.91476e-11
8.00979e-11
6.93414e-11
6.62462e-11
4.85058e-11
7.80638e-11
2.12372e-11
3.22523e-10
3.5573e-10
1.35726e-09
0
1.83728e-11
7.4494e-09
1.28917e-08
6.70043e-09
6.71495e-09
6.72169e-09
6.01819e-09
5.6447e-09
5.29449e-09
4.95103e-09
4.64724e-09
4.36598e-09
4.10518e-09
3.86293e-09
3.63586e-09
3.42228e-09
3.22082e-09
3.03089e-09
2.85144e-09
2.68301e-09
2.52485e-09
2.37638e-09
2.23642e-09
2.1044e-09
1.97982e-09
1.86232e-09
1.75215e-09
1.64923e-09
1.55337e-09
1.46409e-09
1.3809e-09
1.30313e-09
1.23078e-09
1.16414e-09
1.103e-09
1.04659e-09
9.93519e-10
9.42469e-10
8.92942e-10
8.47005e-10
8.06053e-10
7.64725e-10
7.24714e-10
6.88282e-10
6.52767e-10
6.18437e-10
5.8529e-10
5.5368e-10
5.23461e-10
4.94436e-10
4.66533e-10
4.39857e-10
4.14229e-10
3.88751e-10
3.63969e-10
3.40093e-10
3.16607e-10
2.93788e-10
2.71832e-10
2.50733e-10
2.30297e-10
2.10676e-10
1.92022e-10
1.74312e-10
1.57806e-10
1.41952e-10
1.27609e-10
1.15961e-10
1.06539e-10
9.7549e-11
8.86639e-11
8.03736e-11
7.08686e-11
6.84366e-11
5.24736e-11
7.92763e-11
2.25728e-11
3.21962e-10
3.56998e-10
1.35832e-09
1.01835e-11
4.6547e-09
1.51229e-08
8.98576e-09
7.27482e-09
7.48581e-09
6.82833e-09
6.20113e-09
5.75772e-09
5.31115e-09
4.90742e-09
4.54578e-09
4.21509e-09
3.91418e-09
3.63923e-09
3.38697e-09
3.15476e-09
2.94083e-09
2.74346e-09
2.56108e-09
2.3928e-09
2.23712e-09
2.09255e-09
1.95797e-09
1.83271e-09
1.71587e-09
1.60711e-09
1.50644e-09
1.41316e-09
1.32689e-09
1.24695e-09
1.17295e-09
1.10435e-09
1.04137e-09
9.83965e-10
9.31597e-10
8.83126e-10
8.37236e-10
7.9307e-10
7.50936e-10
7.1306e-10
6.80391e-10
6.46902e-10
6.1335e-10
5.82747e-10
5.53135e-10
5.24823e-10
4.97788e-10
4.72145e-10
4.47707e-10
4.2435e-10
4.02025e-10
3.808e-10
3.6046e-10
3.40249e-10
3.20357e-10
3.00924e-10
2.81671e-10
2.62917e-10
2.44757e-10
2.27242e-10
2.1026e-10
1.9385e-10
1.78168e-10
1.6316e-10
1.49067e-10
1.35376e-10
1.22951e-10
1.12826e-10
1.04426e-10
9.62932e-11
8.82666e-11
8.07483e-11
7.25469e-11
7.07806e-11
5.65559e-11
8.02511e-11
2.39035e-11
3.20778e-10
3.56703e-10
1.36545e-09
3.97685e-09
1.33685e-08
1.04608e-08
7.80271e-09
7.8777e-09
7.45555e-09
6.76991e-09
6.25284e-09
5.76721e-09
5.29627e-09
4.86998e-09
4.47806e-09
4.11878e-09
3.79104e-09
3.49191e-09
3.21955e-09
2.97104e-09
2.74451e-09
2.5381e-09
2.3497e-09
2.17767e-09
2.0201e-09
1.8753e-09
1.74227e-09
1.61979e-09
1.50699e-09
1.40358e-09
1.30867e-09
1.22147e-09
1.14129e-09
1.06766e-09
1.0001e-09
9.3829e-10
8.82307e-10
8.31728e-10
7.86017e-10
7.43104e-10
7.02405e-10
6.63806e-10
6.28383e-10
5.97466e-10
5.7062e-10
5.424e-10
5.13924e-10
4.88372e-10
4.6383e-10
4.40672e-10
4.18838e-10
3.98183e-10
3.7868e-10
3.60152e-10
3.42608e-10
3.26136e-10
3.10397e-10
2.94705e-10
2.79111e-10
2.63699e-10
2.48283e-10
2.3324e-10
2.1854e-10
2.04321e-10
1.90564e-10
1.7716e-10
1.64277e-10
1.51842e-10
1.40075e-10
1.28477e-10
1.1794e-10
1.09325e-10
1.01961e-10
9.47105e-11
8.75918e-11
8.09556e-11
7.41753e-11
7.3147e-11
6.0666e-11
8.07778e-11
2.59828e-11
3.15851e-10
3.592e-10
1.37323e-09
8.74712e-09
8.77561e-09
7.36976e-09
7.19233e-09
6.99843e-09
6.56411e-09
6.14645e-09
5.75201e-09
5.34641e-09
4.95272e-09
4.57461e-09
4.21612e-09
3.87775e-09
3.56203e-09
3.26924e-09
3.00033e-09
2.75234e-09
2.52563e-09
2.31939e-09
2.13054e-09
1.95926e-09
1.80242e-09
1.65982e-09
1.53012e-09
1.41177e-09
1.30402e-09
1.20628e-09
1.11716e-09
1.03618e-09
9.62044e-10
8.94896e-10
8.3414e-10
7.79365e-10
7.30089e-10
6.86115e-10
6.45777e-10
6.0763e-10
5.71989e-10
5.39565e-10
5.11193e-10
4.8643e-10
4.63699e-10
4.39623e-10
4.16488e-10
3.95985e-10
3.76286e-10
3.58097e-10
3.4114e-10
3.25141e-10
3.10287e-10
2.96347e-10
2.83296e-10
2.7137e-10
2.599e-10
2.48376e-10
2.3684e-10
2.25322e-10
2.13602e-10
2.02152e-10
1.90923e-10
1.80053e-10
1.69559e-10
1.59257e-10
1.4929e-10
1.39548e-10
1.30206e-10
1.20847e-10
1.12367e-10
1.05354e-10
9.90888e-11
9.28412e-11
8.67845e-11
8.122e-11
7.6164e-11
7.58117e-11
6.5632e-11
7.99362e-11
3.00456e-11
3.02927e-10
3.51865e-10
1.28357e-09
5.96367e-09
5.8716e-09
5.68999e-09
5.56207e-09
5.31715e-09
5.08318e-09
4.85508e-09
4.61369e-09
4.3627e-09
4.10878e-09
3.85033e-09
3.59436e-09
3.34103e-09
3.09543e-09
2.85928e-09
2.63564e-09
2.42333e-09
2.22557e-09
2.04158e-09
1.871e-09
1.71471e-09
1.5705e-09
1.43899e-09
1.31955e-09
1.21041e-09
1.11143e-09
1.02184e-09
9.40328e-10
8.66791e-10
7.99917e-10
7.39971e-10
6.86395e-10
6.38515e-10
5.95288e-10
5.56536e-10
5.20319e-10
4.86901e-10
4.56816e-10
4.30789e-10
4.08147e-10
3.87471e-10
3.67262e-10
3.47008e-10
3.28701e-10
3.12198e-10
2.96719e-10
2.82708e-10
2.69733e-10
2.57773e-10
2.46855e-10
2.36929e-10
2.27879e-10
2.19769e-10
2.11934e-10
2.03976e-10
1.95911e-10
1.87775e-10
1.79446e-10
1.71316e-10
1.63368e-10
1.55728e-10
1.4834e-10
1.41069e-10
1.33949e-10
1.26863e-10
1.19968e-10
1.12931e-10
1.06575e-10
1.01188e-10
9.6064e-11
9.09197e-11
8.60665e-11
8.18047e-11
7.87053e-11
7.91001e-11
7.12436e-11
7.88152e-11
3.47966e-11
3.00529e-10
3.45752e-10
1.28201e-09
5.50814e-09
5.38697e-09
4.94714e-09
4.556e-09
4.2363e-09
3.98017e-09
3.75876e-09
3.56052e-09
3.37655e-09
3.19993e-09
3.02762e-09
2.85647e-09
2.68608e-09
2.51721e-09
2.35081e-09
2.18776e-09
2.02885e-09
1.87677e-09
1.73082e-09
1.59315e-09
1.46386e-09
1.34294e-09
1.23085e-09
1.12775e-09
1.03263e-09
9.45872e-10
8.66639e-10
7.94244e-10
7.28912e-10
6.69785e-10
6.1676e-10
5.69411e-10
5.26735e-10
4.87832e-10
4.5264e-10
4.20246e-10
3.91433e-10
3.66436e-10
3.44908e-10
3.2536e-10
3.06706e-10
2.88527e-10
2.71695e-10
2.56839e-10
2.43333e-10
2.31077e-10
2.20096e-10
2.10161e-10
2.01278e-10
1.93405e-10
1.86594e-10
1.80654e-10
1.75336e-10
1.70259e-10
1.64983e-10
1.59616e-10
1.54197e-10
1.48644e-10
1.4331e-10
1.38152e-10
1.33247e-10
1.28544e-10
1.23891e-10
1.19239e-10
1.14545e-10
1.09887e-10
1.05008e-10
1.00617e-10
9.67355e-11
9.27472e-11
8.87657e-11
8.51871e-11
8.23946e-11
8.12953e-11
8.25737e-11
7.66086e-11
7.82273e-11
3.96511e-11
3.04046e-10
3.272e-10
1.28394e-09
7.51167e-09
6.56625e-09
6.48867e-09
5.57346e-09
4.744e-09
4.13675e-09
3.65815e-09
3.28464e-09
2.98698e-09
2.74557e-09
2.5437e-09
2.37093e-09
2.2178e-09
2.07864e-09
1.94886e-09
1.82616e-09
1.70823e-09
1.59444e-09
1.4849e-09
1.3791e-09
1.27785e-09
1.18113e-09
1.08937e-09
1.00307e-09
9.22012e-10
8.46598e-10
7.76543e-10
7.11961e-10
6.52564e-10
5.98526e-10
5.49423e-10
5.049e-10
4.6472e-10
4.27973e-10
3.94415e-10
3.64284e-10
3.37317e-10
3.13926e-10
2.93665e-10
2.75383e-10
2.58129e-10
2.41533e-10
2.26126e-10
2.12518e-10
2.00468e-10
1.89643e-10
1.79955e-10
1.71376e-10
1.6387e-10
1.57356e-10
1.5185e-10
1.47362e-10
1.43621e-10
1.40269e-10
1.37073e-10
1.33693e-10
1.30278e-10
1.26853e-10
1.2338e-10
1.20153e-10
1.17136e-10
1.14335e-10
1.11706e-10
1.09084e-10
1.06401e-10
1.03649e-10
1.00848e-10
9.77905e-11
9.50517e-11
9.24672e-11
8.95389e-11
8.67006e-11
8.44041e-11
8.31723e-11
8.40314e-11
8.61991e-11
8.1613e-11
7.81737e-11
4.58736e-11
3.10664e-10
3.04262e-10
1.28555e-09
1.10647e-08
9.12455e-09
9.46132e-09
7.82868e-09
6.32744e-09
5.21009e-09
4.32895e-09
3.647e-09
3.11557e-09
2.70011e-09
2.37235e-09
2.11115e-09
1.89996e-09
1.726e-09
1.58004e-09
1.45442e-09
1.34425e-09
1.24536e-09
1.1554e-09
1.07209e-09
9.94375e-10
9.21403e-10
8.52758e-10
7.88129e-10
7.27121e-10
6.70009e-10
6.16386e-10
5.66603e-10
5.2041e-10
4.77842e-10
4.38775e-10
4.02897e-10
3.70169e-10
3.40094e-10
3.13043e-10
2.89025e-10
2.67933e-10
2.49349e-10
2.32627e-10
2.16869e-10
2.01879e-10
1.87982e-10
1.75634e-10
1.64869e-10
1.55357e-10
1.4687e-10
1.39414e-10
1.32947e-10
1.27493e-10
1.22995e-10
1.19416e-10
1.16724e-10
1.14594e-10
1.12664e-10
1.10841e-10
1.08885e-10
1.06919e-10
1.05002e-10
1.03128e-10
1.01513e-10
1.00123e-10
9.8937e-11
9.78867e-11
9.68359e-11
9.57016e-11
9.44891e-11
9.32027e-11
9.16483e-11
9.02752e-11
8.88059e-11
8.68668e-11
8.5113e-11
8.40848e-11
8.44525e-11
8.71759e-11
9.0136e-11
8.64782e-11
7.91249e-11
5.48934e-11
3.20529e-10
2.78757e-10
1.28937e-09
1.6313e-08
1.2648e-08
1.41789e-08
1.17037e-08
9.36241e-09
7.55071e-09
6.09147e-09
4.93881e-09
4.03168e-09
3.31948e-09
2.76146e-09
2.32401e-09
1.97992e-09
1.70749e-09
1.49052e-09
1.31552e-09
1.17268e-09
1.05439e-09
9.54689e-10
8.69307e-10
7.94814e-10
7.28957e-10
6.69755e-10
6.15886e-10
5.66501e-10
5.20907e-10
4.78671e-10
4.39682e-10
4.03512e-10
3.70226e-10
3.39592e-10
3.11513e-10
2.85977e-10
2.62831e-10
2.42237e-10
2.24029e-10
2.07681e-10
1.92734e-10
1.78778e-10
1.65516e-10
1.53309e-10
1.42471e-10
1.33038e-10
1.24784e-10
1.17577e-10
1.11196e-10
1.0575e-10
1.01177e-10
9.75072e-11
9.47086e-11
9.26875e-11
9.13819e-11
9.04104e-11
8.95532e-11
8.87833e-11
8.79323e-11
8.71126e-11
8.63921e-11
8.57922e-11
8.54467e-11
8.532e-11
8.53884e-11
8.5576e-11
8.57346e-11
8.58334e-11
8.58651e-11
8.58123e-11
8.54997e-11
8.52396e-11
8.47401e-11
8.37662e-11
8.31043e-11
8.33683e-11
8.5362e-11
8.97548e-11
9.3167e-11
8.98722e-11
8.00016e-11
6.61147e-11
3.33274e-10
2.49029e-10
1.30089e-09
2.17591e-08
1.56654e-08
1.96624e-08
1.6653e-08
1.35552e-08
1.10549e-08
8.9516e-09
7.22632e-09
5.82581e-09
4.69754e-09
3.79636e-09
3.08099e-09
2.51559e-09
2.06957e-09
1.718e-09
1.44055e-09
1.22069e-09
1.0456e-09
9.0485e-10
7.90767e-10
6.97179e-10
6.19346e-10
5.53743e-10
4.97456e-10
4.48711e-10
4.05999e-10
3.68095e-10
3.34406e-10
3.04234e-10
2.77277e-10
2.53077e-10
2.31513e-10
2.12271e-10
1.95166e-10
1.79925e-10
1.66218e-10
1.5352e-10
1.41716e-10
1.3068e-10
1.20606e-10
1.11682e-10
1.04005e-10
9.73857e-11
9.16242e-11
8.66835e-11
8.24188e-11
7.89879e-11
7.62611e-11
7.42924e-11
7.30399e-11
7.23861e-11
7.21891e-11
7.21632e-11
7.2235e-11
7.23442e-11
7.2434e-11
7.25988e-11
7.28722e-11
7.33038e-11
7.39743e-11
7.48351e-11
7.58697e-11
7.69973e-11
7.80763e-11
7.91484e-11
8.01681e-11
8.10978e-11
8.17995e-11
8.24938e-11
8.28769e-11
8.27487e-11
8.30011e-11
8.43574e-11
8.77598e-11
9.34622e-11
9.70935e-11
9.43148e-11
8.46393e-11
8.47861e-11
3.54692e-10
2.22782e-10
1.34024e-09
2.46604e-08
1.666e-08
2.32688e-08
2.03958e-08
1.71597e-08
1.43879e-08
1.19281e-08
9.81126e-09
8.01376e-09
6.50812e-09
5.26385e-09
4.24733e-09
3.42389e-09
2.76257e-09
2.23493e-09
1.81615e-09
1.48448e-09
1.22221e-09
1.01447e-09
8.49576e-10
7.18013e-10
6.12128e-10
5.26435e-10
4.56175e-10
3.98194e-10
3.49829e-10
3.09129e-10
2.74696e-10
2.45377e-10
2.20304e-10
1.98693e-10
1.80057e-10
1.63788e-10
1.49411e-10
1.36558e-10
1.24818e-10
1.14018e-10
1.04144e-10
9.53001e-11
8.75619e-11
8.0878e-11
7.52299e-11
7.03624e-11
6.62009e-11
6.27008e-11
5.98579e-11
5.76842e-11
5.61143e-11
5.51724e-11
5.47559e-11
5.47838e-11
5.50508e-11
5.54545e-11
5.59452e-11
5.6476e-11
5.70705e-11
5.77771e-11
5.86311e-11
5.96584e-11
6.09265e-11
6.23608e-11
6.39539e-11
6.56156e-11
6.72591e-11
6.89396e-11
7.05857e-11
7.21608e-11
7.35157e-11
7.47064e-11
7.56182e-11
7.63251e-11
7.75983e-11
8.02252e-11
8.51009e-11
9.158e-11
9.41653e-11
9.03672e-11
8.18174e-11
9.69022e-11
3.66061e-10
1.79741e-10
1.40686e-09
2.58961e-08
1.58924e-08
2.5978e-08
2.39501e-08
2.10297e-08
1.83192e-08
1.5702e-08
1.32998e-08
1.1133e-08
9.21597e-09
7.56151e-09
6.15106e-09
4.9701e-09
3.99147e-09
3.1919e-09
2.54616e-09
2.02777e-09
1.61604e-09
1.28984e-09
1.03301e-09
8.31712e-10
6.7275e-10
5.48416e-10
4.50379e-10
3.73005e-10
3.11577e-10
2.62874e-10
2.23962e-10
1.92685e-10
1.67528e-10
1.46867e-10
1.29913e-10
1.15696e-10
1.03606e-10
9.31937e-11
8.40846e-11
7.62619e-11
6.95409e-11
6.39652e-11
5.93127e-11
5.5531e-11
5.24869e-11
5.00113e-11
4.8089e-11
4.66754e-11
4.57857e-11
4.53132e-11
4.53201e-11
4.57032e-11
4.64052e-11
4.73603e-11
4.84279e-11
4.96183e-11
5.08629e-11
5.21781e-11
5.35639e-11
5.50383e-11
5.66415e-11
5.83485e-11
6.02307e-11
6.22157e-11
6.43134e-11
6.64608e-11
6.86223e-11
7.083e-11
7.30178e-11
7.51759e-11
7.71973e-11
7.92693e-11
8.10631e-11
8.21853e-11
8.36303e-11
8.6305e-11
9.11173e-11
9.72702e-11
9.96569e-11
9.87228e-11
9.91439e-11
1.4089e-10
4.06916e-10
1.87058e-10
1.69688e-09
1.22736e-08
6.33316e-09
1.43043e-08
1.4742e-08
1.44491e-08
1.38717e-08
1.30223e-08
1.19991e-08
1.08645e-08
9.68164e-09
8.51031e-09
7.38146e-09
6.32999e-09
5.36914e-09
4.51229e-09
3.7612e-09
3.11187e-09
2.56002e-09
2.09514e-09
1.70869e-09
1.39036e-09
1.12883e-09
9.16908e-10
7.45044e-10
6.06687e-10
4.95414e-10
4.06371e-10
3.35021e-10
2.77858e-10
2.32126e-10
1.95141e-10
1.6529e-10
1.40898e-10
1.20896e-10
1.04403e-10
9.07612e-11
7.95481e-11
7.03046e-11
6.2761e-11
5.65259e-11
5.14221e-11
4.72383e-11
4.38396e-11
4.11371e-11
3.90459e-11
3.7492e-11
3.63715e-11
3.56704e-11
3.5246e-11
3.50707e-11
3.50501e-11
3.51588e-11
3.53964e-11
3.57293e-11
3.61957e-11
3.6786e-11
3.75388e-11
3.84609e-11
3.95424e-11
4.08227e-11
4.22259e-11
4.37442e-11
4.53337e-11
4.70017e-11
4.87727e-11
5.05743e-11
5.23483e-11
5.39327e-11
5.49747e-11
5.5761e-11
5.71449e-11
5.97074e-11
6.40874e-11
7.07409e-11
7.66052e-11
7.494e-11
6.8522e-11
7.12992e-11
1.28074e-10
2.87159e-10
1.40751e-10
1.71915e-09
)
;

boundaryField
{
    inlet
    {
        type            calculated;
        value           nonuniform List<scalar> 
23
(
2.20922e-08
2.18539e-08
2.16247e-08
2.14038e-08
2.11868e-08
2.09687e-08
2.07439e-08
2.0508e-08
2.02553e-08
1.99812e-08
1.96791e-08
1.93518e-08
1.8982e-08
1.84189e-08
1.79525e-08
1.73917e-08
1.67081e-08
1.58957e-08
1.49474e-08
1.38725e-08
1.26481e-08
1.17461e-08
1.01292e-08
)
;
    }
    outlet
    {
        type            calculated;
        value           nonuniform List<scalar> 
82
(
1.25044e-08
1.45505e-08
6.49961e-09
1.49904e-08
1.46932e-08
1.41095e-08
1.32512e-08
1.22173e-08
1.10706e-08
9.87458e-09
8.68955e-09
7.54674e-09
6.48134e-09
5.50679e-09
4.63674e-09
3.8731e-09
3.21195e-09
2.64912e-09
2.17409e-09
1.77837e-09
1.45166e-09
1.18254e-09
9.63843e-10
7.85914e-10
6.42179e-10
5.26141e-10
4.32894e-10
3.57829e-10
2.97388e-10
2.48765e-10
2.09208e-10
1.77064e-10
1.50621e-10
1.28762e-10
1.106e-10
9.54438e-11
8.2878e-11
7.24169e-11
6.37899e-11
5.65843e-11
5.06077e-11
4.56385e-11
4.15319e-11
3.81934e-11
3.5535e-11
3.34774e-11
3.19111e-11
3.08107e-11
3.00251e-11
2.95064e-11
2.91498e-11
2.89181e-11
2.88072e-11
2.87845e-11
2.88883e-11
2.91145e-11
2.95078e-11
3.00841e-11
3.08385e-11
3.18103e-11
3.29227e-11
3.41562e-11
3.54612e-11
3.68389e-11
3.83232e-11
3.98447e-11
4.13201e-11
4.25338e-11
4.30968e-11
4.35023e-11
4.47424e-11
4.73042e-11
5.19248e-11
5.90112e-11
6.51021e-11
6.26049e-11
5.34544e-11
5.21066e-11
1.01513e-10
2.62927e-10
8.74827e-11
1.41075e-09
)
;
    }
    walls
    {
        type            calculated;
        value           nonuniform List<scalar> 0();
    }
    frontAndBack
    {
        type            empty;
    }
    procBoundary3to2
    {
        type            processor;
        value           nonuniform List<scalar> 
88
(
3.45732e-10
1.3628e-09
1.73122e-11
3.05519e-10
3.05519e-10
2.34419e-11
5.84802e-11
5.84802e-11
7.86995e-11
6.12915e-11
5.37296e-11
5.37296e-11
1.64392e-10
1.40285e-10
1.22099e-10
1.0661e-10
9.18618e-11
9.18618e-11
3.32804e-10
2.90778e-10
2.52123e-10
2.17337e-10
1.86176e-10
1.86176e-10
6.59882e-10
5.98958e-10
5.41808e-10
4.88559e-10
4.3902e-10
3.93069e-10
3.50811e-10
3.50811e-10
1.44608e-09
1.3567e-09
1.27043e-09
1.18747e-09
1.10766e-09
1.03134e-09
9.58637e-10
8.89471e-10
8.23686e-10
7.60773e-10
7.0107e-10
6.45986e-10
6.45986e-10
3.25927e-06
7.74214e-13
5.15781e-10
1.41235e-08
6.58713e-09
6.69634e-09
7.25307e-09
6.83893e-09
6.70731e-09
6.5344e-09
6.33768e-09
6.14133e-09
5.93276e-09
5.71848e-09
5.49845e-09
5.27552e-09
5.0504e-09
4.82434e-09
4.5988e-09
4.37509e-09
4.15554e-09
3.94288e-09
3.73907e-09
3.54473e-09
3.35926e-09
3.18068e-09
3.00908e-09
2.84503e-09
2.68944e-09
2.54276e-09
2.40455e-09
2.27414e-09
2.15051e-09
2.03323e-09
1.92268e-09
1.81863e-09
1.72103e-09
1.62837e-09
1.53878e-09
1.45015e-09
1.3677e-09
1.29967e-09
1.29967e-09
)
;
    }
    procBoundary3to6
    {
        type            processor;
        value           uniform 1.48365e-05;
    }
    procBoundary3to7
    {
        type            processor;
        value           nonuniform List<scalar> 
16
(
1.93321e-05
4.2292e-06
0
0
8.94229e-12
6.12887e-09
6.48442e-09
5.70794e-09
5.70794e-09
5.81437e-09
7.4658e-09
9.79296e-09
1.13756e-08
1.14691e-08
9.93582e-09
3.40753e-09
)
;
    }
}


// ************************************************************************* //
