/*--------------------------------*- C++ -*----------------------------------*\
| =========                 |                                                 |
| \\      /  F ield         | OpenFOAM: The Open Source CFD Toolbox           |
|  \\    /   O peration     | Version:  2506                                  |
|   \\  /    A nd           | Website:  www.openfoam.com                      |
|    \\/     M anipulation  |                                                 |
\*---------------------------------------------------------------------------*/
FoamFile
{
    version     2.0;
    format      ascii;
    arch        "LSB;label=32;scalar=64";
    class       volScalarField;
    location    "150";
    object      turbulenceProperties:L;
}
// * * * * * * * * * * * * * * * * * * * * * * * * * * * * * * * * * * * * * //

dimensions      [0 1 0 0 0 0 0];

internalField   nonuniform List<scalar> 
1340
(
0.264134
0.186556
0.561189
0.270708
0.264631
0.186451
0.503375
0.405163
0.56382
0.270204
0.264657
0.186437
0.380632
0.403983
0.416277
0.491678
0.40051
0.564351
0.269694
0.264349
0.186472
0.319336
0.331557
0.342684
0.353983
0.366846
0.380473
0.402437
0.413457
0.480658
0.396321
0.56144
0.269172
0.26385
0.186525
0.270011
0.2789
0.288588
0.298992
0.310274
0.322136
0.333733
0.34425
0.354984
0.367381
0.380572
0.401012
0.410504
0.469234
0.392388
0.556897
0.268713
0.263246
0.186586
0.229775
0.235153
0.240846
0.246849
0.253219
0.260003
0.267209
0.274939
0.283528
0.292834
0.302769
0.313702
0.325291
0.336268
0.346113
0.356252
0.367876
0.380145
0.399074
0.407245
0.458467
0.388952
0.551163
0.26832
0.262598
0.186672
0.191466
0.194505
0.197581
0.200791
0.204135
0.207612
0.21122
0.214974
0.218886
0.223
0.227385
0.231942
0.236557
0.24167
0.247171
0.25296
0.259087
0.265603
0.272701
0.280437
0.288634
0.297488
0.30692
0.317269
0.328132
0.338465
0.347685
0.357273
0.368204
0.379766
0.397133
0.404047
0.448391
0.386029
0.544213
0.268
0.262007
0.186763
0.138015
0.0947676
1.14442
0.154003
0.109995
0.13113
0.125949
0.1259
0.128021
0.12885
0.130004
0.131238
0.132503
0.133856
0.135275
0.136771
0.138349
0.140009
0.141757
0.14359
0.145503
0.147482
0.149512
0.151581
0.153691
0.155852
0.158073
0.160347
0.162666
0.165008
0.167367
0.169741
0.172139
0.174565
0.177009
0.179456
0.181896
0.184334
0.186817
0.189365
0.191984
0.194983
0.198077
0.200385
0.202876
0.205951
0.209104
0.212384
0.215779
0.219283
0.222914
0.226682
0.230599
0.234721
0.239232
0.244053
0.248954
0.254158
0.259686
0.265555
0.271798
0.278565
0.28586
0.293682
0.302098
0.311043
0.320847
0.331106
0.340771
0.349395
0.358443
0.368668
0.379487
0.395174
0.400858
0.438851
0.383586
0.536434
0.267806
0.261521
0.186844
8.13963
2.2459
0.271353
0.11033
0.118634
0.130317
0.125965
0.128504
0.130523
0.131895
0.133567
0.135202
0.13685
0.138542
0.14027
0.14205
0.14389
0.145794
0.147769
0.149813
0.151915
0.154067
0.156259
0.158492
0.160772
0.163108
0.165496
0.167932
0.1704
0.172884
0.17538
0.177887
0.180414
0.182956
0.185493
0.188008
0.190493
0.192975
0.195507
0.198116
0.200752
0.203465
0.206424
0.209362
0.212157
0.215125
0.218188
0.221384
0.224676
0.228064
0.23157
0.235206
0.238965
0.242888
0.24714
0.251623
0.25628
0.261245
0.266546
0.272175
0.278161
0.284626
0.291571
0.299005
0.306975
0.315409
0.324636
0.334239
0.34318
0.351197
0.359667
0.369146
0.37916
0.393084
0.397605
0.429831
0.381621
0.528382
0.26768
0.261214
0.186881
0
0.801799
0.12194
0.108091
0.125252
0.125277
0.125385
0.128817
0.130905
0.133023
0.135267
0.137425
0.139585
0.14175
0.14392
0.146114
0.148341
0.150606
0.15291
0.155258
0.157637
0.160048
0.162489
0.164972
0.167498
0.170071
0.17269
0.17534
0.178012
0.180695
0.183386
0.186086
0.1888
0.191514
0.194196
0.196831
0.19943
0.202039
0.20472
0.2075
0.210257
0.212876
0.215695
0.218611
0.221447
0.224398
0.227448
0.230601
0.233823
0.237126
0.240531
0.244049
0.247668
0.251413
0.255434
0.259676
0.264119
0.268886
0.273962
0.279335
0.285035
0.291159
0.297715
0.304699
0.312162
0.320026
0.328613
0.337484
0.345659
0.35306
0.360928
0.369649
0.378836
0.390951
0.394387
0.421466
0.380154
0.520389
0.267799
0.260983
0.186844
0.975562
0.138184
0.104016
0.116619
0.122731
0.122028
0.124846
0.12786
0.130266
0.132919
0.135569
0.138188
0.14082
0.14345
0.146084
0.148729
0.151391
0.15407
0.156767
0.159484
0.162215
0.164964
0.16774
0.170549
0.173388
0.176265
0.179172
0.182091
0.185022
0.187956
0.190897
0.193837
0.196777
0.199685
0.202534
0.20532
0.208079
0.210872
0.213747
0.216683
0.219503
0.22209
0.224909
0.227922
0.230856
0.233885
0.236976
0.240129
0.243324
0.246577
0.249901
0.2533
0.256758
0.260305
0.264088
0.268096
0.272323
0.276862
0.281673
0.286759
0.292132
0.297861
0.303976
0.310457
0.317365
0.324617
0.332533
0.340637
0.348036
0.354833
0.362099
0.370065
0.378397
0.388671
0.391082
0.413647
0.378994
0.512992
0.268048
0.261038
0.186599
0.14391
0.106502
0.112533
0.120607
0.120439
0.122147
0.125094
0.127606
0.130214
0.133013
0.135831
0.138709
0.141638
0.144602
0.147602
0.150627
0.153681
0.156756
0.159848
0.162957
0.166082
0.169228
0.172401
0.175599
0.178826
0.18208
0.185343
0.188613
0.19189
0.195172
0.198451
0.201719
0.204959
0.208134
0.211226
0.214231
0.217257
0.220336
0.22347
0.226553
0.229427
0.232078
0.235038
0.238227
0.241282
0.244411
0.247559
0.250723
0.253912
0.257119
0.260362
0.263633
0.2669
0.270221
0.273748
0.277495
0.281464
0.285735
0.290235
0.294998
0.300002
0.305277
0.310896
0.316823
0.323121
0.329707
0.336911
0.344199
0.35079
0.356959
0.363603
0.370777
0.378155
0.386522
0.387882
0.406457
0.378375
0.502409
0.26909
0.260584
0.186333
0.117743
0.11748
0.122412
0.123192
0.124083
0.126073
0.128156
0.130302
0.132704
0.135264
0.137975
0.140817
0.143791
0.146874
0.150056
0.153308
0.156648
0.160049
0.163491
0.166997
0.17053
0.174122
0.177744
0.181394
0.185079
0.188787
0.192497
0.196224
0.199948
0.20369
0.207406
0.211081
0.214694
0.218226
0.221639
0.22502
0.228469
0.231946
0.235353
0.238551
0.241529
0.244434
0.247713
0.251082
0.254269
0.257532
0.26074
0.26392
0.267107
0.270247
0.27337
0.276464
0.279453
0.282486
0.285708
0.289125
0.292752
0.296688
0.300802
0.305132
0.309637
0.314322
0.319289
0.324492
0.330016
0.335785
0.342109
0.348391
0.354051
0.359519
0.365421
0.371637
0.377849
0.383976
0.38443
0.398542
0.379367
0.484493
0.271918
0.261932
0.189504
0.129199
0.129601
0.130632
0.13141
0.13289
0.13439
0.135942
0.137686
0.139623
0.141731
0.14405
0.146547
0.149248
0.152122
0.155168
0.158358
0.161716
0.165192
0.168791
0.172511
0.176312
0.180224
0.184205
0.188236
0.19234
0.196483
0.200652
0.204863
0.209073
0.21331
0.217502
0.221625
0.225665
0.229652
0.233547
0.237507
0.241479
0.245358
0.248981
0.252362
0.255662
0.259106
0.262805
0.266389
0.26984
0.27329
0.276614
0.27988
0.28307
0.286149
0.289099
0.291927
0.294583
0.297269
0.300127
0.30317
0.306402
0.309897
0.313511
0.317257
0.321079
0.325007
0.329118
0.33341
0.337974
0.342732
0.347954
0.353032
0.357641
0.362317
0.367337
0.372411
0.377174
0.380841
0.380373
0.390452
0.380709
0.467039
0.272462
0.263083
0.189561
0.131708
0.132448
0.135312
0.138126
0.140657
0.142866
0.144924
0.146899
0.148859
0.150871
0.152971
0.155212
0.157615
0.160193
0.162953
0.165906
0.169061
0.172384
0.175906
0.179586
0.183424
0.187417
0.191543
0.195775
0.200133
0.204569
0.20909
0.213696
0.218329
0.222993
0.227635
0.232224
0.236789
0.241372
0.24593
0.250536
0.255021
0.259261
0.263213
0.267079
0.271048
0.275218
0.279383
0.283336
0.287186
0.290919
0.29448
0.297898
0.301131
0.304148
0.306886
0.309378
0.311697
0.313996
0.316476
0.319104
0.321872
0.324837
0.327818
0.330837
0.333842
0.336857
0.339978
0.343249
0.346716
0.350337
0.35434
0.358147
0.361688
0.365515
0.369547
0.37337
0.3765
0.377774
0.376311
0.38343
0.381423
0.452042
0.271675
0.266736
0.189488
0.121907
0.126069
0.12645
0.131346
0.136741
0.141501
0.145915
0.149895
0.153495
0.156761
0.15978
0.162613
0.165348
0.168046
0.170775
0.173572
0.176491
0.179557
0.182778
0.186184
0.189765
0.193533
0.197483
0.201598
0.205886
0.210323
0.214911
0.219624
0.224456
0.229357
0.234315
0.239315
0.244325
0.249406
0.254547
0.259652
0.26469
0.269486
0.274016
0.278452
0.282991
0.287729
0.292507
0.297079
0.301444
0.305654
0.309685
0.313488
0.317016
0.320246
0.323109
0.325541
0.32764
0.32958
0.331485
0.333561
0.335726
0.337969
0.340323
0.342586
0.344772
0.346866
0.348891
0.350972
0.353167
0.355492
0.357938
0.360707
0.363279
0.365792
0.368747
0.371729
0.374235
0.375619
0.374664
0.372292
0.377413
0.381489
0.43587
0.27022
0.271627
0.189427
0.110674
0.11614
0.115085
0.120661
0.127252
0.133581
0.139909
0.146031
0.151891
0.157421
0.162594
0.167402
0.171869
0.176042
0.179971
0.183735
0.187387
0.190998
0.194609
0.198282
0.202045
0.205929
0.209951
0.214126
0.218479
0.222991
0.227687
0.232528
0.237521
0.24264
0.247866
0.253206
0.258623
0.264157
0.269685
0.275118
0.280377
0.285458
0.290453
0.295588
0.300926
0.306337
0.311582
0.316546
0.321281
0.325823
0.330092
0.334033
0.337547
0.340591
0.343113
0.345074
0.346667
0.348142
0.349565
0.351124
0.352728
0.354327
0.355926
0.357334
0.358568
0.35964
0.360604
0.361581
0.362651
0.363812
0.365064
0.366605
0.367994
0.369507
0.371552
0.373452
0.374592
0.37419
0.371242
0.368161
0.37199
0.380337
0.416749
0.26812
0.277637
0.189285
0.10045
0.107051
0.104028
0.109133
0.115391
0.121759
0.128469
0.135381
0.142421
0.149508
0.156543
0.163436
0.170112
0.176521
0.182618
0.188406
0.193895
0.199115
0.204119
0.208953
0.213683
0.218351
0.223021
0.227742
0.232548
0.237474
0.242545
0.247748
0.25312
0.258623
0.264265
0.270026
0.275858
0.281737
0.28754
0.29321
0.298814
0.304443
0.310215
0.316248
0.32236
0.32832
0.333988
0.339376
0.344459
0.349295
0.353706
0.357634
0.36095
0.363587
0.365552
0.36685
0.367831
0.368709
0.369505
0.370396
0.371265
0.372036
0.372686
0.373062
0.373202
0.37313
0.372928
0.372758
0.372654
0.372624
0.372684
0.373027
0.373313
0.373862
0.374944
0.37569
0.375397
0.373193
0.368549
0.365132
0.368427
0.379292
0.397821
0.265523
0.285575
0.188863
0.0934792
0.101485
0.0958732
0.0999338
0.105206
0.110702
0.116694
0.123105
0.129911
0.137088
0.14458
0.152322
0.160236
0.168243
0.176254
0.184184
0.191965
0.199537
0.206877
0.213961
0.220803
0.227431
0.233883
0.240232
0.246503
0.252742
0.259007
0.265294
0.271637
0.278008
0.284424
0.290824
0.297199
0.303504
0.309733
0.315927
0.322262
0.328769
0.335498
0.342291
0.348929
0.355194
0.361078
0.366622
0.371735
0.37645
0.380471
0.383825
0.386341
0.387985
0.388858
0.389123
0.389158
0.389061
0.388914
0.388793
0.388573
0.388208
0.387636
0.386755
0.38564
0.384321
0.382909
0.381583
0.380287
0.379076
0.377988
0.377178
0.376383
0.375947
0.376093
0.375809
0.374294
0.370621
0.364842
0.361385
0.36401
0.373987
0.373844
0.261424
0.293637
0.187459
0.0906026
0.0999376
0.0919259
0.0950017
0.0991909
0.103653
0.108622
0.114054
0.119968
0.126369
0.133248
0.140585
0.148361
0.156533
0.165045
0.173827
0.182809
0.191908
0.201053
0.210164
0.219188
0.228103
0.236863
0.245495
0.253977
0.26233
0.270564
0.278667
0.286638
0.294463
0.302159
0.309688
0.317104
0.324468
0.331843
0.339381
0.347143
0.35509
0.363052
0.370816
0.378247
0.385151
0.391642
0.397653
0.403087
0.407787
0.411573
0.414419
0.416175
0.416963
0.41691
0.416403
0.415643
0.414729
0.413751
0.412669
0.411402
0.409896
0.40812
0.405981
0.403629
0.401094
0.398534
0.39608
0.393648
0.391336
0.389186
0.387383
0.385831
0.384662
0.383769
0.382189
0.379027
0.373487
0.366706
0.364163
0.367922
0.377173
0.361574
0.259373
0.309823
0.185199
0.0894967
0.101115
0.089429
0.0912649
0.0942796
0.0975865
0.101418
0.105712
0.110514
0.115855
0.121725
0.128166
0.135176
0.142787
0.150988
0.159759
0.169109
0.178975
0.189346
0.200148
0.211287
0.222788
0.234459
0.246286
0.258165
0.270039
0.281756
0.293264
0.304498
0.315332
0.325876
0.33602
0.345894
0.355567
0.365103
0.374608
0.383861
0.392813
0.401102
0.408742
0.415526
0.421419
0.426536
0.430733
0.433954
0.436044
0.437174
0.437155
0.436235
0.434575
0.432367
0.429964
0.427362
0.424723
0.422021
0.419265
0.416428
0.41345
0.410394
0.407151
0.403866
0.400535
0.397263
0.3941
0.390997
0.388038
0.385226
0.382681
0.380156
0.378035
0.376739
0.375105
0.372172
0.367167
0.361224
0.35904
0.359877
0.359492
0.329284
0.252605
0.306745
0.17672
0.107827
0.12722
0.103785
0.103011
0.103533
0.104596
0.106263
0.10846
0.111186
0.114436
0.118183
0.12246
0.127253
0.132595
0.138481
0.144925
0.151951
0.159545
0.167736
0.176502
0.185831
0.195763
0.206202
0.217179
0.228618
0.240491
0.252698
0.265188
0.27788
0.290653
0.303536
0.316394
0.329273
0.342116
0.354888
0.367526
0.379839
0.391747
0.403017
0.413693
0.423592
0.43267
0.440817
0.447881
0.453757
0.458384
0.461872
0.464123
0.465513
0.466092
0.46616
0.465799
0.465015
0.463928
0.462426
0.460559
0.458233
0.455462
0.452317
0.448731
0.444958
0.44105
0.437136
0.433209
0.429226
0.425355
0.421707
0.418577
0.416579
0.415103
0.41257
0.408077
0.400928
0.391158
0.383452
0.385559
0.394275
0.390385
0.337242
0.275608
0.329346
0.176147
)
;

boundaryField
{
    inlet
    {
        type            calculated;
        value           nonuniform List<scalar> 
23
(
0.0989255
0.099194
0.0994558
0.0997114
0.0999659
0.100225
0.100495
0.100783
0.101096
0.101441
0.101828
0.102256
0.10275
0.103527
0.104192
0.105022
0.106081
0.107411
0.109075
0.111129
0.113726
0.11585
0.120219
)
;
    }
    outlet
    {
        type            calculated;
        value           nonuniform List<scalar> 
82
(
0.107326
0.103343
0.126398
0.102581
0.1031
0.104153
0.105801
0.107972
0.110665
0.113873
0.117569
0.121784
0.126503
0.131759
0.137542
0.143867
0.150753
0.158186
0.166192
0.174747
0.183838
0.193501
0.203645
0.214299
0.225392
0.236901
0.248735
0.260858
0.273201
0.285666
0.2983
0.310998
0.323826
0.336767
0.34981
0.362933
0.375965
0.388858
0.401382
0.413586
0.425286
0.436412
0.446817
0.456271
0.464571
0.471547
0.477227
0.48143
0.484547
0.486661
0.488142
0.489116
0.489586
0.489682
0.489241
0.488288
0.486653
0.484306
0.481318
0.477602
0.473519
0.469189
0.464815
0.460412
0.455892
0.45148
0.447398
0.444173
0.442716
0.441681
0.438591
0.432536
0.422585
0.409294
0.39937
0.403288
0.419526
0.42222
0.357418
0.281749
0.370923
0.185072
)
;
    }
    walls
    {
        type            calculated;
        value           nonuniform List<scalar> 0();
    }
    frontAndBack
    {
        type            empty;
    }
    procBoundary3to2
    {
        type            processor;
        value           nonuniform List<scalar> 
88
(
0.263071
0.186692
0.556065
0.271317
0.271317
0.5155
0.410192
0.410192
0.380828
0.405391
0.418964
0.418964
0.316773
0.329585
0.341227
0.352998
0.366385
0.366385
0.265555
0.274672
0.284645
0.295412
0.307067
0.307067
0.223784
0.22927
0.23509
0.24125
0.247786
0.254731
0.262079
0.262079
0.183934
0.186891
0.189985
0.193219
0.196608
0.200148
0.203839
0.20769
0.211717
0.215964
0.220422
0.224978
0.224978
0.437743
2.24694
0.264301
0.106827
0.125799
0.12532
0.123009
0.12476
0.125376
0.126199
0.127164
0.128169
0.129279
0.130473
0.131757
0.133126
0.134584
0.136132
0.137769
0.139496
0.141301
0.143167
0.145077
0.147024
0.149011
0.151058
0.153165
0.155325
0.157523
0.159745
0.161991
0.164263
0.166573
0.168923
0.171299
0.173698
0.176108
0.17856
0.181104
0.183808
0.186517
0.18891
0.18891
)
;
    }
    procBoundary3to6
    {
        type            processor;
        value           uniform 0.8656;
    }
    procBoundary3to7
    {
        type            processor;
        value           nonuniform List<scalar> 
16
(
1.41065
0.501634
0
0
1.0014
0.128134
0.127014
0.130598
0.130598
0.12999
0.122114
0.114126
0.109941
0.109715
0.113708
0.148536
)
;
    }
}


// ************************************************************************* //
