/*--------------------------------*- C++ -*----------------------------------*\
| =========                 |                                                 |
| \\      /  F ield         | OpenFOAM: The Open Source CFD Toolbox           |
|  \\    /   O peration     | Version:  2506                                  |
|   \\  /    A nd           | Website:  www.openfoam.com                      |
|    \\/     M anipulation  |                                                 |
\*---------------------------------------------------------------------------*/
FoamFile
{
    version     2.0;
    format      ascii;
    arch        "LSB;label=32;scalar=64";
    class       pointScalarField;
    location    "160.018072304027271";
    object      streamFunction;
}
// * * * * * * * * * * * * * * * * * * * * * * * * * * * * * * * * * * * * * //

dimensions      [0 3 -1 0 0 0 0];

internalField   nonuniform List<scalar> 
19880
(
0
0.110002
0.204798
0.280596
0.322809
0.322146
0
0.0952255
0.177568
0.249324
0.298283
0.312018
0
0.0613226
0.120129
0.179488
0.228362
0.256661
0
0.0218394
0.0493838
0.0910872
0.142752
0.189473
0
-0.00614817
0.00096479
0.035334
0.097258
0.161741
0
-0.0158811
-0.0034633
0.0513501
0.133362
0.218818
0
0.110002
0.204798
0.280596
0.322809
0.322146
0
0.0952255
0.177568
0.249324
0.298283
0.312018
0
0.0613226
0.120129
0.179488
0.228362
0.256661
0
0.0218394
0.0493838
0.0910872
0.142752
0.189473
0
-0.00614817
0.00096479
0.035334
0.097258
0.161741
0
-0.0158811
-0.0034633
0.0513501
0.133362
0.218818
-2e-07
1e-07
1e-07
9e-08
0
0.127174
0.0928203
0.0454493
0.0070171
-0.0109038
0.255859
0.218715
0.158032
0.086743
0.027869
0.374751
0.338076
0.279967
0.201055
0.11655
0.494189
0.45671
0.398062
0.317503
0.22283
0.610946
0.572663
0.511654
0.42853
0.32677
-2e-07
1e-07
1e-07
9e-08
0
0.127174
0.0928203
0.0454493
0.0070171
-0.0109038
0.255859
0.218715
0.158032
0.086743
0.027869
0.374751
0.338076
0.279967
0.201055
0.11655
0.494189
0.45671
0.398062
0.317503
0.22283
0.610946
0.572663
0.511654
0.42853
0.32677
-7e-08
-7e-08
6.3e-07
2.6e-07
4e-07
0.115908
0.131187
0.142954
0.147416
0.14462
0.211113
0.239779
0.260909
0.271949
0.272889
0.301164
0.343312
0.374343
0.391956
0.392298
0.38645
0.441461
0.482065
0.50559
0.510377
0.46895
0.536645
0.586923
0.617386
0.62571
-7e-08
-7e-08
6.3e-07
2.6e-07
4e-07
0.115908
0.131187
0.142954
0.147416
0.14462
0.211113
0.239779
0.260909
0.271949
0.272889
0.301164
0.343312
0.374343
0.391956
0.392298
0.38645
0.441461
0.482065
0.50559
0.510377
0.46895
0.536645
0.586923
0.617386
0.62571
-0.0319725
-0.0275167
-0.0224171
-0.0164345
-0.00981007
2.3e-07
0.0809615
0.065996
0.0508583
0.0352074
0.018482
2.3e-07
0.190488
0.156638
0.121895
0.0853615
0.0465865
2.3e-07
0.293598
0.241896
0.188632
0.132457
0.0731616
1.3e-07
0.387614
0.319486
0.24916
0.174946
0.0965528
1.3e-07
-0.0319725
-0.0275167
-0.0224171
-0.0164345
-0.00981007
2.3e-07
0.0809615
0.065996
0.0508583
0.0352074
0.018482
2.3e-07
0.190488
0.156638
0.121895
0.0853615
0.0465865
2.3e-07
0.293598
0.241896
0.188632
0.132457
0.0731616
1.3e-07
0.387614
0.319486
0.24916
0.174946
0.0965528
1.3e-07
-0.540433
-0.447997
-0.351232
-0.247715
-0.136245
-4.4e-07
-0.456373
-0.378536
-0.297146
-0.209955
-0.116054
2.3e-07
-0.360238
-0.299131
-0.235109
-0.166322
-0.0923104
2.3e-07
-0.25558
-0.212583
-0.167323
-0.118429
-0.0652863
2.3e-07
-0.145183
-0.121229
-0.0957639
-0.0679656
-0.0371327
2.3e-07
-0.540433
-0.447997
-0.351232
-0.247715
-0.136245
-4.4e-07
-0.456373
-0.378536
-0.297146
-0.209955
-0.116054
2.3e-07
-0.360238
-0.299131
-0.235109
-0.166322
-0.0923104
2.3e-07
-0.25558
-0.212583
-0.167323
-0.118429
-0.0652863
2.3e-07
-0.145183
-0.121229
-0.0957639
-0.0679656
-0.0371327
2.3e-07
-0.612096
-0.667024
-0.702471
-0.716319
-0.706969
-0.506444
-0.551219
-0.579509
-0.588921
-0.577416
-0.396309
-0.430918
-0.452266
-0.457138
-0.444113
-0.278809
-0.303721
-0.319466
-0.322285
-0.310377
-0.153154
-0.168234
-0.177047
-0.17727
-0.163499
6.6e-07
6e-08
2.9e-07
2.9e-07
2.9e-07
-0.612096
-0.667024
-0.702471
-0.716319
-0.706969
-0.506444
-0.551219
-0.579509
-0.588921
-0.577416
-0.396309
-0.430918
-0.452266
-0.457138
-0.444113
-0.278809
-0.303721
-0.319466
-0.322285
-0.310377
-0.153154
-0.168234
-0.177047
-0.17727
-0.163499
6.6e-07
6e-08
2.9e-07
2.9e-07
2.9e-07
-0.673174
-0.613374
-0.526161
-0.411917
-0.271557
-0.543177
-0.483809
-0.396909
-0.284338
-0.150422
-0.410711
-0.351848
-0.265111
-0.158127
-0.049144
-0.277361
-0.216965
-0.132349
-0.0486591
0.0070322
-0.130625
-0.0786794
-0.0228943
0.00833945
0.0126284
2.9e-07
2.9e-07
2.9e-07
2.9e-07
2.9e-07
-0.673174
-0.613374
-0.526161
-0.411917
-0.271557
-0.543177
-0.483809
-0.396909
-0.284338
-0.150422
-0.410711
-0.351848
-0.265111
-0.158127
-0.049144
-0.277361
-0.216965
-0.132349
-0.0486591
0.0070322
-0.130625
-0.0786794
-0.0228943
0.00833945
0.0126284
2.9e-07
2.9e-07
2.9e-07
2.9e-07
2.9e-07
2.9e-07
0.0183921
0.0426682
0.0380123
-0.0156539
-0.113428
2.9e-07
0.0438759
0.0947522
0.119374
0.105269
0.0437613
2.9e-07
0.0781537
0.15469
0.201207
0.211914
0.179227
0
0.102788
0.195494
0.261957
0.289664
0.275216
2.9e-07
0.0183921
0.0426682
0.0380123
-0.0156539
-0.113428
2.9e-07
0.0438759
0.0947522
0.119374
0.105269
0.0437613
2.9e-07
0.0781537
0.15469
0.201207
0.211914
0.179227
0
0.102788
0.195494
0.261957
0.289664
0.275216
0.224541
0.0243573
-0.18973
-0.390669
-0.577757
-0.71457
-0.738761
-0.645712
-0.481138
-0.304975
-0.134135
0.0296997
0.19207
0.347464
0.469097
0.521539
0.491467
0.388926
0.240803
0.0805491
-0.0790519
-0.236043
-0.389168
-0.527824
-0.627756
-0.668435
-0.643607
-0.561192
-0.438006
-0.292666
-0.141337
0.00940013
0.155183
0.284925
0.381011
0.42777
0.419256
0.360207
0.262493
0.139934
0.00527716
-0.13146
-0.266157
-0.391592
-0.494512
-0.56094
-0.581655
-0.555422
-0.488616
-0.391911
-0.276452
-0.152192
-0.0268622
0.0951918
0.205026
0.290347
0.340172
0.348507
0.316023
0.248987
0.156591
0.0482503
-0.0666877
-0.181327
-0.289761
-0.381126
-0.444898
-0.47365
-0.464912
-0.421322
-0.349381
-0.257349
-0.154064
-0.048757
0.053152
0.142077
0.207858
0.243406
0.245573
0.215327
0.15719
0.0779592
-0.014208
-0.109449
-0.201938
-0.282362
-0.34104
-0.372019
-0.372983
-0.345063
-0.292321
-0.220943
-0.139506
-0.0572115
0.0192021
0.0792406
0.115855
0.126419
0.11074
0.222842
0.251234
0.0888102
-0.106006
-0.304288
-0.488752
-0.611248
-0.619613
-0.515485
-0.34783
-0.17336
-0.00752127
0.150006
0.307447
0.461321
0.586192
0.64379
0.618827
0.520979
0.377356
0.220111
0.0614701
-0.0957839
-0.248894
-0.386647
-0.486133
-0.528277
-0.506491
-0.428349
-0.309852
-0.168713
-0.0209369
0.125711
0.267297
0.395014
0.492003
0.541806
0.537083
0.481508
0.386373
0.265373
0.131394
-0.00551284
-0.140938
-0.267248
-0.370215
-0.436252
-0.456759
-0.430787
-0.364771
-0.269282
-0.155387
-0.0331802
0.0900868
0.209777
0.318296
0.403938
0.455286
0.465646
0.435079
0.369481
0.277771
0.169241
0.0536833
-0.0618097
-0.171538
-0.263921
-0.328385
-0.357821
-0.349887
-0.307234
-0.236388
-0.145743
-0.044279
0.059523
0.159625
0.247204
0.312454
0.347909
0.350184
0.320021
0.261716
0.181959
0.089026
-0.00673856
-0.100159
-0.181796
-0.241714
-0.274056
-0.276554
-0.250298
-0.199395
-0.130066
-0.0504755
0.0305769
0.105535
0.16432
0.199564
0.20833
0.19032
0.145345
0.25105
0.143394
-0.01799
-0.200604
-0.37241
-0.481213
-0.481708
-0.378451
-0.219169
-0.0532563
0.103293
0.25115
0.398737
0.54669
0.673679
0.741792
0.731024
0.647654
0.516616
0.36729
0.213563
0.0598598
-0.0902032
-0.225978
-0.327025
-0.374854
-0.361995
-0.294347
-0.185933
-0.0530989
0.0883571
0.228617
0.363893
0.488286
0.587
0.642578
0.64579
0.598427
0.510338
0.394717
0.264394
0.129368
-0.00491455
-0.130799
-0.234249
-0.301751
-0.324765
-0.302332
-0.240523
-0.149182
-0.0391365
0.0794845
0.199229
0.315419
0.421935
0.508283
0.562573
0.577159
0.551106
0.489397
0.400456
0.293603
0.178854
0.0635719
-0.0465621
-0.140023
-0.205984
-0.237421
-0.231988
-0.192064
-0.123889
-0.0358864
0.0628906
0.164263
0.26196
0.348178
0.413402
0.449792
0.453378
0.424513
0.367242
0.288034
0.195365
0.0995905
0.00587174
-0.076845
-0.1384
-0.172768
-0.177598
-0.153849
-0.105502
-0.0388081
0.038358
0.11756
0.190942
0.248818
0.283458
0.291327
0.27193
0.225349
0.228439
0.185245
0.0698765
-0.0841565
-0.236017
-0.332203
-0.331356
-0.239018
-0.096965
0.054859
0.199753
0.336497
0.471215
0.608446
0.734929
0.816069
0.8258
0.764863
0.653378
0.517194
0.372287
0.225258
0.0805542
-0.0522648
-0.155562
-0.211671
-0.212027
-0.160099
-0.0665581
0.0546629
0.18759
0.320179
0.447703
0.56685
0.666732
0.729968
0.744378
0.709193
0.632242
0.525657
0.401943
0.271034
0.139522
0.0152456
-0.0888144
-0.159224
-0.187063
-0.171054
-0.116483
-0.0319141
0.0724199
0.186134
0.301262
0.413025
0.516713
0.603629
0.66198
0.682635
0.663265
0.607718
0.523742
0.420598
0.308108
0.193935
0.0843335
-0.00987609
-0.0778313
-0.112355
-0.110991
-0.0754977
-0.0114761
0.0728278
0.168149
0.266297
0.360999
0.44553
0.511264
0.549579
0.555574
0.529157
0.474079
0.396672
0.30538
0.210152
0.116644
0.0331677
-0.0300998
-0.0669431
-0.0748012
-0.0543286
-0.00924549
0.0542613
0.128484
0.205305
0.276844
0.333997
0.368695
0.376624
0.356906
0.309284
0.214026
0.212545
0.14866
0.0349308
-0.0900682
-0.173333
-0.176783
-0.102735
0.0172139
0.151671
0.28375
0.409389
0.531199
0.654433
0.775381
0.86851
0.902591
0.869201
0.782532
0.664339
0.531781
0.393855
0.25608
0.126929
0.0212555
-0.0443341
-0.0606064
-0.0276681
0.0480808
0.155344
0.278097
0.402405
0.521828
0.634175
0.733129
0.804082
0.832087
0.812185
0.749689
0.655261
0.54083
0.416318
0.289161
0.167454
0.0630231
-0.0109056
-0.0453851
-0.0384373
0.00640435
0.0823074
0.179468
0.287179
0.396969
0.503759
0.603774
0.690458
0.753156
0.781457
0.770789
0.72346
0.646478
0.548886
0.440144
0.328167
0.219863
0.125325
0.0553479
0.0169538
0.0129606
0.042568
0.101238
0.180918
0.272103
0.366452
0.457743
0.540055
0.606064
0.647068
0.656727
0.634072
0.582456
0.508094
0.419233
0.325231
0.232425
0.148626
0.083801
0.0442875
0.032896
0.0494344
0.0906417
0.150474
0.221301
0.295225
0.364611
0.420984
0.456207
0.465166
0.44632
0.398362
0.252986
0.253012
0.219524
0.146674
0.0534708
-0.0157092
-0.025169
0.0274459
0.122842
0.237921
0.356115
0.47104
0.581989
0.691712
0.801932
0.899527
0.955271
0.95213
0.894681
0.799692
0.683726
0.557705
0.428568
0.304231
0.19747
0.122996
0.0904506
0.103039
0.159215
0.25021
0.360823
0.47616
0.587869
0.693178
0.788589
0.864105
0.905135
0.902677
0.857672
0.778519
0.676137
0.56043
0.439424
0.321411
0.217392
0.139934
0.0978249
0.0941767
0.127911
0.193788
0.282381
0.383014
0.486894
0.588564
0.684353
0.7695
0.835484
0.871655
0.871189
0.834164
0.766211
0.675976
0.572574
0.464028
0.35797
0.263831
0.191911
0.149118
0.13894
0.161995
0.21466
0.288922
0.375297
0.4654
0.553004
0.63271
0.698242
0.741689
0.755915
0.738504
0.691817
0.621741
0.536368
0.444464
0.352987
0.269571
0.203609
0.161383
0.146107
0.158338
0.195291
0.251064
0.318087
0.388692
0.455535
0.510832
0.546732
0.557507
0.540801
0.303273
0.224541
0.0243573
-0.18973
-0.390669
-0.577757
-0.71457
-0.738761
-0.645712
-0.481138
-0.304975
-0.134135
0.0296997
0.19207
0.347464
0.469097
0.521539
0.491467
0.388926
0.240803
0.0805491
-0.0790519
-0.236043
-0.389168
-0.527824
-0.627756
-0.668435
-0.643607
-0.561192
-0.438006
-0.292666
-0.141337
0.00940013
0.155183
0.284925
0.381011
0.42777
0.419256
0.360207
0.262493
0.139934
0.00527716
-0.13146
-0.266157
-0.391592
-0.494512
-0.56094
-0.581655
-0.555422
-0.488616
-0.391911
-0.276452
-0.152192
-0.0268622
0.0951918
0.205026
0.290347
0.340172
0.348507
0.316023
0.248987
0.156591
0.0482503
-0.0666877
-0.181327
-0.289761
-0.381126
-0.444898
-0.47365
-0.464912
-0.421322
-0.349381
-0.257349
-0.154064
-0.048757
0.053152
0.142077
0.207858
0.243406
0.245573
0.215327
0.15719
0.0779592
-0.014208
-0.109449
-0.201938
-0.282362
-0.34104
-0.372019
-0.372983
-0.345063
-0.292321
-0.220943
-0.139506
-0.0572115
0.0192021
0.0792406
0.115855
0.126419
0.11074
0.222842
0.251234
0.0888102
-0.106006
-0.304288
-0.488752
-0.611248
-0.619613
-0.515485
-0.34783
-0.17336
-0.00752127
0.150006
0.307447
0.461321
0.586192
0.64379
0.618827
0.520979
0.377356
0.220111
0.0614701
-0.0957839
-0.248894
-0.386647
-0.486133
-0.528277
-0.506491
-0.428349
-0.309852
-0.168713
-0.0209369
0.125711
0.267297
0.395014
0.492003
0.541806
0.537083
0.481508
0.386373
0.265373
0.131394
-0.00551284
-0.140938
-0.267248
-0.370215
-0.436252
-0.456759
-0.430787
-0.364771
-0.269282
-0.155387
-0.0331802
0.0900868
0.209777
0.318296
0.403938
0.455286
0.465646
0.435079
0.369481
0.277771
0.169241
0.0536833
-0.0618097
-0.171538
-0.263921
-0.328385
-0.357821
-0.349887
-0.307234
-0.236388
-0.145743
-0.044279
0.059523
0.159625
0.247204
0.312454
0.347909
0.350184
0.320021
0.261716
0.181959
0.089026
-0.00673856
-0.100159
-0.181796
-0.241714
-0.274056
-0.276554
-0.250298
-0.199395
-0.130066
-0.0504755
0.0305769
0.105535
0.16432
0.199564
0.20833
0.19032
0.145345
0.25105
0.143394
-0.01799
-0.200604
-0.37241
-0.481213
-0.481708
-0.378451
-0.219169
-0.0532563
0.103293
0.25115
0.398737
0.54669
0.673679
0.741792
0.731024
0.647654
0.516616
0.36729
0.213563
0.0598598
-0.0902032
-0.225978
-0.327025
-0.374854
-0.361995
-0.294347
-0.185933
-0.0530989
0.0883571
0.228617
0.363893
0.488286
0.587
0.642578
0.64579
0.598427
0.510338
0.394717
0.264394
0.129368
-0.00491455
-0.130799
-0.234249
-0.301751
-0.324765
-0.302332
-0.240523
-0.149182
-0.0391365
0.0794845
0.199229
0.315419
0.421935
0.508283
0.562573
0.577159
0.551106
0.489397
0.400456
0.293603
0.178854
0.0635719
-0.0465621
-0.140023
-0.205984
-0.237421
-0.231988
-0.192064
-0.123889
-0.0358864
0.0628906
0.164263
0.26196
0.348178
0.413402
0.449792
0.453378
0.424513
0.367242
0.288034
0.195365
0.0995905
0.00587174
-0.076845
-0.1384
-0.172768
-0.177598
-0.153849
-0.105502
-0.0388081
0.038358
0.11756
0.190942
0.248818
0.283458
0.291327
0.27193
0.225349
0.228439
0.185245
0.0698765
-0.0841565
-0.236017
-0.332203
-0.331356
-0.239018
-0.096965
0.054859
0.199753
0.336497
0.471215
0.608446
0.734929
0.816069
0.8258
0.764863
0.653378
0.517194
0.372287
0.225258
0.0805542
-0.0522648
-0.155562
-0.211671
-0.212027
-0.160099
-0.0665581
0.0546629
0.18759
0.320179
0.447703
0.56685
0.666732
0.729968
0.744378
0.709193
0.632242
0.525657
0.401943
0.271034
0.139522
0.0152456
-0.0888144
-0.159224
-0.187063
-0.171054
-0.116483
-0.0319141
0.0724199
0.186134
0.301262
0.413025
0.516713
0.603629
0.66198
0.682635
0.663265
0.607718
0.523742
0.420598
0.308108
0.193935
0.0843335
-0.00987609
-0.0778313
-0.112355
-0.110991
-0.0754977
-0.0114761
0.0728278
0.168149
0.266297
0.360999
0.44553
0.511264
0.549579
0.555574
0.529157
0.474079
0.396672
0.30538
0.210152
0.116644
0.0331677
-0.0300998
-0.0669431
-0.0748012
-0.0543286
-0.00924549
0.0542613
0.128484
0.205305
0.276844
0.333997
0.368695
0.376624
0.356906
0.309284
0.214026
0.212545
0.14866
0.0349308
-0.0900682
-0.173333
-0.176783
-0.102735
0.0172139
0.151671
0.28375
0.409389
0.531199
0.654433
0.775381
0.86851
0.902591
0.869201
0.782532
0.664339
0.531781
0.393855
0.25608
0.126929
0.0212555
-0.0443341
-0.0606064
-0.0276681
0.0480808
0.155344
0.278097
0.402405
0.521828
0.634175
0.733129
0.804082
0.832087
0.812185
0.749689
0.655261
0.54083
0.416318
0.289161
0.167454
0.0630231
-0.0109056
-0.0453851
-0.0384373
0.00640435
0.0823074
0.179468
0.287179
0.396969
0.503759
0.603774
0.690458
0.753156
0.781457
0.770789
0.72346
0.646478
0.548886
0.440144
0.328167
0.219863
0.125325
0.0553479
0.0169538
0.0129606
0.042568
0.101238
0.180918
0.272103
0.366452
0.457743
0.540055
0.606064
0.647068
0.656727
0.634072
0.582456
0.508094
0.419233
0.325231
0.232425
0.148626
0.083801
0.0442875
0.032896
0.0494344
0.0906417
0.150474
0.221301
0.295225
0.364611
0.420984
0.456207
0.465166
0.44632
0.398362
0.252986
0.253012
0.219524
0.146674
0.0534708
-0.0157092
-0.025169
0.0274459
0.122842
0.237921
0.356115
0.47104
0.581989
0.691712
0.801932
0.899527
0.955271
0.95213
0.894681
0.799692
0.683726
0.557705
0.428568
0.304231
0.19747
0.122996
0.0904506
0.103039
0.159215
0.25021
0.360823
0.47616
0.587869
0.693178
0.788589
0.864105
0.905135
0.902677
0.857672
0.778519
0.676137
0.56043
0.439424
0.321411
0.217392
0.139934
0.0978249
0.0941767
0.127911
0.193788
0.282381
0.383014
0.486894
0.588564
0.684353
0.7695
0.835484
0.871655
0.871189
0.834164
0.766211
0.675976
0.572574
0.464028
0.35797
0.263831
0.191911
0.149118
0.13894
0.161995
0.21466
0.288922
0.375297
0.4654
0.553004
0.63271
0.698242
0.741689
0.755915
0.738504
0.691817
0.621741
0.536368
0.444464
0.352987
0.269571
0.203609
0.161383
0.146107
0.158338
0.195291
0.251064
0.318087
0.388692
0.455535
0.510832
0.546732
0.557507
0.540801
0.303273
0.456018
0.454291
0.434695
0.398598
0.348386
0.298876
0.271227
0.281021
0.329368
0.405972
0.495683
0.588631
0.680841
0.770895
0.858194
0.942194
1.01636
1.06319
1.06662
1.02525
0.950226
0.854222
0.747179
0.6367
0.530915
0.440369
0.376026
0.346708
0.357655
0.407093
0.486163
0.581105
0.67912
0.773117
0.860636
0.938847
1.00069
1.03604
1.03655
1.00058
0.933646
0.844397
0.741719
0.633683
0.528743
0.436967
0.368601
0.331241
0.328835
0.3605
0.420496
0.499989
0.589607
0.681612
0.77108
0.854839
0.929153
0.987513
1.02121
1.02327
0.992225
0.932115
0.850278
0.755029
0.654251
0.555943
0.468982
0.402036
0.361311
0.350844
0.37166
0.419664
0.487176
0.565522
0.646976
0.725796
0.797387
0.856706
0.897187
0.912313
0.898613
0.857149
0.79288
0.713219
0.626104
0.5388
0.45894
0.394425
0.351097
0.332704
0.340266
0.371176
0.420055
0.480001
0.543889
0.604952
0.656533
0.691864
0.705047
0.692975
0.458314
0.695337
0.686051
0.669401
0.643327
0.611902
0.585195
0.575339
0.588638
0.62626
0.682285
0.748546
0.819407
0.891669
0.963095
1.03162
1.0951
1.14953
1.18577
1.19246
1.1656
1.10928
1.03247
0.944079
0.851921
0.763888
0.688704
0.635539
0.612745
0.623835
0.666363
0.732251
0.809888
0.889263
0.965064
1.03551
1.09848
1.14844
1.17736
1.17873
1.15055
1.0956
1.02014
0.931728
0.838052
0.747288
0.668351
0.610018
0.579274
0.579117
0.60769
0.659815
0.728222
0.80513
0.883905
0.96022
1.03148
1.09499
1.14559
1.17582
1.17947
1.15432
1.10274
1.03053
0.944991
0.853666
0.764468
0.685498
0.624431
0.587429
0.578177
0.596501
0.638555
0.697839
0.76681
0.838441
0.907489
0.970165
1.02271
1.05984
1.07555
1.06588
1.03068
0.973644
0.901149
0.820439
0.738713
0.663307
0.601164
0.557992
0.537536
0.540464
0.564618
0.605634
0.657564
0.713851
0.768214
0.814978
0.848673
0.86393
0.857713
0.288318
0.934717
0.923327
0.909848
0.892944
0.875079
0.862253
0.860518
0.873404
0.901609
0.942681
0.992492
1.04724
1.10388
1.15979
1.21252
1.25961
1.29834
1.32446
1.33178
1.31531
1.27527
1.21664
1.14653
1.07231
1.00144
0.941652
0.900347
0.883026
0.892781
0.927809
0.980415
1.04131
1.10335
1.16265
1.21758
1.26648
1.30569
1.32938
1.33171
1.31005
1.26587
1.20375
1.12991
1.05129
0.975357
0.909787
0.861893
0.837412
0.838108
0.862084
0.905501
0.962485
1.02653
1.09207
1.15537
1.21422
1.26669
1.30922
1.33602
1.34135
1.32198
1.27906
1.21707
1.14227
1.0617
0.982775
0.912857
0.858812
0.825984
0.817215
0.832267
0.867956
0.918698
0.977842
1.03916
1.09801
1.15131
1.19641
1.22954
1.24561
1.24024
1.21204
1.16333
1.0993
1.02647
0.951684
0.881836
0.823257
0.781154
0.758817
0.757105
0.774564
0.807666
0.851248
0.899402
0.946381
0.987274
1.01786
1.03387
1.03342
0.471584
1.17294
1.16188
1.15099
1.13983
1.12987
1.12417
1.1261
1.13805
1.1606
1.19242
1.23093
1.27338
1.31733
1.36055
1.4009
1.43609
1.46358
1.48063
1.48458
1.47317
1.44547
1.40322
1.35078
1.29396
1.23923
1.19332
1.16239
1.15083
1.16022
1.18795
1.22783
1.27344
1.32023
1.36544
1.40737
1.44434
1.47379
1.49187
1.49429
1.47835
1.44421
1.39491
1.33539
1.27165
1.21015
1.15747
1.11938
1.09977
1.10023
1.11977
1.15492
1.2008
1.25235
1.30519
1.35625
1.40361
1.44577
1.48023
1.50282
1.5088
1.49484
1.46071
1.40943
1.34616
1.27716
1.20917
1.14871
1.10177
1.07305
1.06497
1.07705
1.10646
1.14847
1.19748
1.24827
1.29692
1.34092
1.37838
1.40675
1.42216
1.42055
1.39959
1.36005
1.30569
1.24206
1.17544
1.11216
1.05799
1.01763
0.994185
0.988644
0.999967
1.02532
1.06039
1.10007
1.13925
1.17362
1.19994
1.21501
1.21847
0.278213
1.40982
1.4
1.39131
1.38372
1.37815
1.37643
1.38049
1.3916
1.41001
1.43488
1.46466
1.49746
1.53141
1.56464
1.59531
1.62157
1.64151
1.65311
1.65444
1.64455
1.62364
1.59296
1.55505
1.51373
1.47393
1.44104
1.41983
1.41314
1.42113
1.44142
1.47005
1.50317
1.53782
1.57178
1.60324
1.63055
1.65191
1.66499
1.66695
1.65548
1.63005
1.59242
1.54624
1.49633
1.44811
1.40699
1.37747
1.36208
1.36209
1.37706
1.40419
1.43974
1.47992
1.52136
1.56153
1.59872
1.63168
1.6587
1.67693
1.68281
1.67325
1.64726
1.60654
1.555
1.49788
1.44107
1.39023
1.35052
1.32606
1.31859
1.32754
1.35065
1.38406
1.42316
1.46373
1.50265
1.53785
1.56793
1.59123
1.60508
1.60614
1.59177
1.56147
1.51747
1.46406
1.40662
1.35085
1.30191
1.26414
1.24048
1.23192
1.23775
1.25582
1.28263
1.31386
1.34514
1.37272
1.39405
1.40674
1.41153
0.478478
1.64519
1.6368
1.62995
1.62476
1.62185
1.62225
1.62702
1.63687
1.65191
1.67158
1.69483
1.72031
1.74656
1.77212
1.79548
1.81518
1.82973
1.83774
1.83803
1.82996
1.81389
1.79118
1.76387
1.73473
1.7072
1.68496
1.67105
1.66699
1.67268
1.6867
1.70681
1.73066
1.75612
1.78132
1.80462
1.82449
1.83944
1.84795
1.84852
1.83986
1.8214
1.7939
1.75965
1.72218
1.68569
1.65438
1.63167
1.61963
1.6192
1.63003
1.65024
1.67706
1.70764
1.73941
1.77037
1.79901
1.82417
1.84459
1.85844
1.86337
1.85698
1.83798
1.80704
1.7668
1.72134
1.67556
1.63434
1.60196
1.58126
1.57392
1.57997
1.59729
1.62259
1.65239
1.68354
1.71364
1.74095
1.76432
1.78256
1.79399
1.79627
1.7871
1.76524
1.73152
1.68879
1.64129
1.59382
1.55092
1.5166
1.49366
1.48297
1.48415
1.49571
1.51483
1.53795
1.56146
1.58226
1.59832
1.60784
1.61185
0.273116
1.87885
1.87186
1.86649
1.86291
1.86151
1.8629
1.86769
1.87624
1.88853
1.90416
1.92237
1.94217
1.96248
1.98213
1.99996
2.01483
2.02565
2.03149
2.03162
2.02568
2.01402
1.99769
1.97834
1.95803
1.93916
1.92404
1.9145
1.91152
1.91516
1.9247
1.93882
1.95595
1.97448
1.99293
2.00992
2.02419
2.03449
2.0397
2.0389
2.03164
2.01781
1.99787
1.97317
1.94602
1.91934
1.89617
1.87911
1.86989
1.86927
1.87699
1.89173
1.91153
1.93434
1.95826
1.98173
2.00345
2.02233
2.03735
2.0473
2.05073
2.04612
2.03242
2.00976
1.97967
1.94503
1.90961
1.87734
1.85166
1.83482
1.82805
1.83132
1.8431
1.86101
1.88261
1.90562
1.92818
1.94879
1.96638
1.98002
1.98865
1.99087
1.98504
1.96987
1.9453
1.91285
1.87543
1.83683
1.8009
1.77084
1.7491
1.73708
1.73476
1.74084
1.75311
1.76878
1.78503
1.79946
1.81048
1.81669
1.81898
0.483154
2.11077
2.105
2.10079
2.09827
2.09772
2.0995
2.10394
2.11121
2.12123
2.13368
2.14801
2.16347
2.17923
2.1944
2.20808
2.21942
2.22761
2.23201
2.23219
2.22803
2.21985
2.20841
2.19491
2.18081
2.16772
2.15718
2.15041
2.14819
2.15059
2.15724
2.16727
2.17958
2.193
2.20638
2.21861
2.22869
2.23565
2.23871
2.23725
2.23103
2.22017
2.20521
2.18716
2.16759
2.14843
2.13177
2.11945
2.11277
2.11231
2.11785
2.12849
2.14291
2.15971
2.1775
2.19509
2.21136
2.22532
2.23609
2.24279
2.24459
2.2407
2.23056
2.21416
2.19237
2.167
2.14069
2.11633
2.09648
2.08296
2.0767
2.07766
2.08493
2.09698
2.11211
2.12867
2.14516
2.16029
2.17311
2.18282
2.18872
2.19002
2.18579
2.17512
2.15766
2.134
2.10589
2.07595
2.04716
2.02209
2.00277
1.99056
1.98577
1.98742
1.99381
2.00295
2.01282
2.02167
2.0283
2.03155
2.032
0.268686
2.34104
2.33628
2.33294
2.33114
2.33104
2.33288
2.33682
2.34291
2.35106
2.36099
2.37229
2.38439
2.39665
2.4084
2.41896
2.42768
2.43399
2.43745
2.4378
2.435
2.42934
2.42139
2.412
2.40221
2.39312
2.38579
2.38108
2.37951
2.38119
2.38587
2.39299
2.40179
2.41143
2.42104
2.42977
2.43684
2.44155
2.44329
2.44164
2.43648
2.42797
2.41661
2.40323
2.38899
2.37523
2.36337
2.35464
2.34991
2.34954
2.35342
2.361
2.37142
2.38371
2.39686
2.40991
2.42195
2.43215
2.43975
2.44411
2.44467
2.44104
2.43303
2.42079
2.40492
2.38657
2.36746
2.34949
2.33448
2.32378
2.31814
2.31768
2.32189
2.32981
2.34023
2.35192
2.36369
2.37454
2.38361
2.39024
2.39385
2.39398
2.39017
2.38197
2.36917
2.35201
2.33142
2.30903
2.28683
2.26677
2.25048
2.23902
2.23274
2.23108
2.23295
2.23705
2.24201
2.2466
2.24985
2.2508
2.24969
0.486955
2.56981
2.56588
2.56321
2.56188
2.56201
2.56372
2.56711
2.57215
2.57875
2.58668
2.59561
2.60511
2.61468
2.62383
2.63203
2.63882
2.64377
2.64657
2.64708
2.6453
2.64146
2.63599
2.62951
2.62274
2.61646
2.6114
2.60816
2.6071
2.60831
2.61164
2.61671
2.623
2.6299
2.63674
2.64291
2.6478
2.65089
2.65178
2.65019
2.64605
2.63951
2.63098
2.62109
2.61069
2.60074
2.59219
2.58589
2.58242
2.58205
2.58473
2.59013
2.59767
2.60665
2.61632
2.62594
2.63477
2.64215
2.6475
2.65027
2.65008
2.6467
2.64011
2.63057
2.6186
2.60504
2.59101
2.57778
2.56653
2.55825
2.55352
2.55248
2.55485
2.55998
2.56702
2.57509
2.5833
2.59087
2.5971
2.60142
2.60334
2.6025
2.59865
2.59166
2.58154
2.56853
2.55318
2.53646
2.51961
2.50392
2.49056
2.4803
2.47348
2.46988
2.46891
2.46973
2.47144
2.47311
2.47398
2.47327
2.47103
0.265386
2.79724
2.79397
2.79181
2.79079
2.79101
2.79252
2.79537
2.79951
2.80484
2.81117
2.81823
2.8257
2.83321
2.84036
2.84678
2.85211
2.85604
2.85838
2.85902
2.85799
2.85547
2.85177
2.84735
2.84272
2.83842
2.83497
2.83276
2.83207
2.83297
2.83535
2.83896
2.84344
2.84833
2.85317
2.85748
2.86081
2.8628
2.86315
2.86169
2.85838
2.85337
2.84698
2.83967
2.83205
2.82479
2.81857
2.81396
2.81138
2.81103
2.8129
2.81676
2.8222
2.82874
2.83579
2.8428
2.84919
2.85446
2.85814
2.85985
2.8593
2.85635
2.85101
2.84353
2.83434
2.82408
2.81357
2.80367
2.7952
2.78883
2.78495
2.78368
2.78485
2.78801
2.79262
2.79802
2.80357
2.80865
2.81273
2.81533
2.81606
2.81462
2.81084
2.80468
2.79623
2.78577
2.77374
2.76081
2.74775
2.73539
2.72449
2.71561
2.70902
2.70467
2.70224
2.70119
2.70087
2.70062
2.69985
2.69798
2.69498
0.489511
3.02347
3.02074
3.01896
3.01816
3.01838
3.01967
3.02202
3.02539
3.02967
3.03472
3.04032
3.04621
3.05211
3.05774
3.06279
3.06702
3.07019
3.07217
3.0729
3.0724
3.07082
3.06839
3.06542
3.0623
3.05939
3.05706
3.05559
3.05517
3.05585
3.05757
3.06014
3.06332
3.06678
3.07017
3.07315
3.07539
3.07661
3.07662
3.07531
3.07267
3.06882
3.064
3.05856
3.05294
3.04761
3.04305
3.03966
3.03775
3.03744
3.03875
3.0415
3.04543
3.05016
3.05527
3.06034
3.06492
3.06863
3.07112
3.07209
3.07135
3.06882
3.06453
3.05868
3.05162
3.04381
3.03585
3.02834
3.02186
3.01685
3.01361
3.01221
3.01256
3.01437
3.01724
3.02073
3.02434
3.02761
3.03011
3.03146
3.03136
3.02957
3.02598
3.02056
3.01341
3.00477
2.99502
2.98464
2.97418
2.96421
2.95523
2.94762
2.94159
2.93713
2.93401
2.93189
2.93031
2.92881
2.92695
2.9243
2.92083
0.263427
3.24868
3.24639
3.2449
3.24424
3.24443
3.2455
3.24741
3.25014
3.25357
3.25759
3.26202
3.26668
3.27134
3.27578
3.27978
3.28316
3.28575
3.28745
3.28822
3.2881
3.28718
3.28563
3.28369
3.28162
3.27969
3.27815
3.27721
3.27697
3.2775
3.27875
3.28058
3.28283
3.28526
3.28761
3.28963
3.2911
3.29181
3.29163
3.29047
3.28836
3.28539
3.28174
3.27768
3.27351
3.26958
3.26622
3.26372
3.26228
3.26201
3.26291
3.26487
3.26768
3.27108
3.27475
3.27837
3.28161
3.28418
3.2858
3.28627
3.28546
3.28331
3.27986
3.27529
3.26983
3.26385
3.25776
3.252
3.24696
3.24296
3.24021
3.23877
3.23859
3.23947
3.24114
3.24325
3.24546
3.2474
3.24874
3.2492
3.24855
3.24661
3.24328
3.23855
3.23252
3.22537
3.21738
3.20892
3.20039
3.19219
3.18469
3.17813
3.17265
3.16826
3.16481
3.16206
3.1597
3.15741
3.15487
3.15176
3.14805
0.490946
3.47298
3.47105
3.4698
3.46923
3.46938
3.47024
3.47178
3.47396
3.4767
3.4799
3.48341
3.4871
3.49079
3.4943
3.49749
3.50021
3.50234
3.50381
3.50459
3.50471
3.50425
3.50332
3.5021
3.50077
3.49952
3.49853
3.49794
3.49784
3.49826
3.49917
3.50048
3.50207
3.50376
3.50537
3.50673
3.50766
3.50803
3.50773
3.50673
3.50504
3.50274
3.49996
3.49691
3.4938
3.49088
3.48839
3.48653
3.48544
3.48521
3.48582
3.4872
3.48919
3.49162
3.49423
3.49679
3.49905
3.50079
3.5018
3.50194
3.50111
3.49927
3.49649
3.49288
3.48863
3.484
3.47929
3.47482
3.47085
3.46763
3.46529
3.46389
3.46338
3.46365
3.46448
3.46563
3.46684
3.46785
3.46838
3.46823
3.46723
3.46522
3.46216
3.45804
3.45294
3.44699
3.44042
3.43347
3.42645
3.41964
3.41329
3.40758
3.40262
3.39841
3.39485
3.39179
3.389
3.38627
3.38337
3.38005
3.37629
0.262372
3.69653
3.69489
3.69383
3.69334
3.69343
3.69411
3.69534
3.69708
3.69925
3.70179
3.70457
3.70749
3.71041
3.71321
3.71576
3.71796
3.71972
3.72098
3.72175
3.72202
3.72186
3.72136
3.72063
3.71981
3.71904
3.71843
3.71809
3.71808
3.71842
3.71909
3.72003
3.72114
3.72231
3.7234
3.72428
3.72485
3.72499
3.72465
3.72379
3.72244
3.72065
3.71853
3.71622
3.71389
3.71171
3.70985
3.70846
3.70763
3.70742
3.70782
3.70878
3.71018
3.71189
3.71373
3.71551
3.71706
3.7182
3.71878
3.7187
3.7179
3.71634
3.71408
3.71121
3.70787
3.70426
3.70059
3.69708
3.69393
3.69131
3.68931
3.68798
3.68729
3.68715
3.68742
3.68791
3.68843
3.68878
3.68876
3.68821
3.68701
3.68504
3.68225
3.67867
3.67433
3.66936
3.6639
3.65816
3.65233
3.64662
3.64122
3.63625
3.63179
3.62784
3.62434
3.62119
3.61824
3.61533
3.61228
3.60893
3.60526
0.491723
3.91942
3.91803
3.91712
3.91669
3.91674
3.91726
3.91823
3.9196
3.92132
3.92333
3.92554
3.92785
3.93016
3.93239
3.93443
3.93621
3.93767
3.93876
3.93948
3.93984
3.93988
3.93965
3.93926
3.9388
3.93835
3.938
3.93783
3.93788
3.93816
3.93865
3.93932
3.94009
3.94089
3.94162
3.94218
3.9425
3.9425
3.94215
3.94142
3.94033
3.93894
3.93731
3.93556
3.9338
3.93217
3.93077
3.92972
3.92908
3.92889
3.92915
3.9298
3.93078
3.93197
3.93324
3.93446
3.93549
3.93621
3.9365
3.93629
3.93553
3.93421
3.93237
3.93008
3.92744
3.9246
3.92172
3.91894
3.91642
3.91427
3.91256
3.91133
3.91055
3.91017
3.91007
3.91012
3.91018
3.91009
3.90972
3.90894
3.90764
3.90576
3.90325
3.90013
3.89644
3.89227
3.88772
3.88293
3.87807
3.87327
3.86867
3.86435
3.86037
3.85675
3.85344
3.85037
3.84743
3.84451
3.84149
3.83825
3.83477
0.261806
4.14175
4.14057
4.1398
4.13942
4.13943
4.13982
4.14057
4.14165
4.143
4.14459
4.14632
4.14815
4.14998
4.15175
4.15338
4.15483
4.15603
4.15697
4.15763
4.15802
4.15818
4.15814
4.15797
4.15774
4.1575
4.15733
4.15727
4.15735
4.15758
4.15795
4.15842
4.15896
4.1595
4.15998
4.16032
4.16048
4.1604
4.16006
4.15944
4.15857
4.15748
4.15623
4.1549
4.15357
4.15234
4.15128
4.15049
4.14999
4.14982
4.14997
4.15041
4.15107
4.15189
4.15276
4.15357
4.15424
4.15466