/*--------------------------------*- C++ -*----------------------------------*\
| =========                 |                                                 |
| \\      /  F ield         | OpenFOAM: The Open Source CFD Toolbox           |
|  \\    /   O peration     | Version:  2506                                  |
|   \\  /    A nd           | Website:  www.openfoam.com                      |
|    \\/     M anipulation  |                                                 |
\*---------------------------------------------------------------------------*/
FoamFile
{
    version     2.0;
    format      ascii;
    arch        "LSB;label=32;scalar=64";
    class       volVectorField;
    location    "500";
    object      momentError;
}
// * * * * * * * * * * * * * * * * * * * * * * * * * * * * * * * * * * * * * //

dimensions      [0 1 -2 0 0 0 0];

internalField   nonuniform List<vector> 
1340
(
(7.64894e-06 -9.81505e-05 1.78892e-16)
(2.52669e-06 -0.000108162 -1.65406e-15)
(-6.66203e-06 -0.000115778 -1.5231e-15)
(6.7661e-06 -9.13307e-05 -2.4814e-15)
(8.06559e-07 -9.95367e-05 6.67455e-16)
(-8.02943e-06 -0.000106 -1.48845e-15)
(-1.84038e-05 -0.000104732 5.51855e-15)
(-2.88999e-05 -0.000104526 6.91985e-15)
(4.677e-06 -8.38806e-05 9.9965e-16)
(-1.66552e-06 -9.13766e-05 4.23553e-15)
(-1.04589e-05 -9.69838e-05 2.89052e-15)
(-1.99562e-05 -9.57885e-05 9.5865e-17)
(-2.93108e-05 -9.64844e-05 -1.098e-15)
(-3.89857e-05 -9.60466e-05 -5.33414e-16)
(-4.595e-05 -9.18268e-05 4.56362e-14)
(2.35507e-06 -7.79481e-05 -1.44123e-15)
(-3.65916e-06 -8.36669e-05 3.39092e-15)
(-1.23247e-05 -8.83397e-05 5.967e-16)
(-2.1233e-05 -8.74836e-05 -4.24932e-15)
(-3.00921e-05 -8.82032e-05 1.43371e-14)
(-3.91594e-05 -8.8131e-05 -1.98943e-14)
(-4.67141e-05 -8.54494e-05 2.04621e-15)
(-5.08088e-05 -7.97827e-05 -6.63952e-15)
(3.45499e-07 -7.18871e-05 -3.25435e-15)
(-5.54255e-06 -7.68761e-05 -1.74033e-15)
(-1.35384e-05 -8.06938e-05 -3.88655e-16)
(-2.19432e-05 -7.99898e-05 -3.99186e-15)
(-3.03043e-05 -8.07039e-05 -8.10459e-16)
(-3.90635e-05 -8.08332e-05 1.51753e-14)
(-4.60085e-05 -7.81518e-05 -5.00756e-14)
(-5.14659e-05 -7.29707e-05 2.10025e-14)
(-5.18186e-05 -6.67734e-05 8.43937e-14)
(-8.9715e-07 -6.63192e-05 3.46389e-15)
(-6.70718e-06 -7.05822e-05 -3.22906e-15)
(-1.43009e-05 -7.38589e-05 1.34764e-15)
(-2.2077e-05 -7.32903e-05 2.11869e-15)
(-3.00599e-05 -7.40168e-05 -1.91782e-14)
(-3.84061e-05 -7.42268e-05 1.6275e-14)
(-4.51516e-05 -7.17634e-05 4.08658e-14)
(-4.98461e-05 -6.77817e-05 -2.99585e-14)
(-5.25513e-05 -6.22688e-05 -4.44598e-15)
(-1.78351e-06 -6.10232e-05 2.16539e-15)
(-7.42767e-06 -6.48348e-05 -1.18253e-15)
(-1.45577e-05 -6.76462e-05 -3.29421e-15)
(-2.19221e-05 -6.72612e-05 9.00905e-17)
(-2.94353e-05 -6.79652e-05 -1.73324e-15)
(-3.73498e-05 -6.83314e-05 -4.02443e-14)
(-4.39058e-05 -6.63712e-05 2.88283e-14)
(-4.8483e-05 -6.29037e-05 9.22025e-15)
(-5.13105e-05 -5.86755e-05 -7.9032e-14)
(-5.27873e-05 -5.47402e-05 -7.44458e-15)
(-2.33135e-06 -5.60224e-05 -1.74297e-16)
(-7.81543e-06 -5.95254e-05 7.63599e-16)
(-1.45454e-05 -6.19978e-05 1.44622e-16)
(-2.13965e-05 -6.17485e-05 -2.91568e-15)
(-2.859e-05 -6.25655e-05 1.82171e-14)
(-3.61462e-05 -6.30213e-05 1.92681e-14)
(-4.23808e-05 -6.13776e-05 -4.41294e-14)
(-4.71008e-05 -5.86374e-05 1.99907e-14)
(-5.01853e-05 -5.48905e-05 4.86786e-14)
(-5.21548e-05 -5.14785e-05 -4.44751e-15)
(-5.36606e-05 -4.93071e-05 -3.35548e-14)
(-2.66853e-06 -5.13786e-05 -5.40123e-16)
(-7.93223e-06 -5.46032e-05 -1.97421e-15)
(-1.42557e-05 -5.68373e-05 4.59012e-17)
(-2.07234e-05 -5.67909e-05 -5.94998e-16)
(-2.753e-05 -5.75457e-05 -1.24407e-14)
(-3.47207e-05 -5.81792e-05 3.30504e-14)
(-4.08916e-05 -5.69472e-05 3.43231e-14)
(-4.5593e-05 -5.4384e-05 6.43838e-15)
(-4.89514e-05 -5.12819e-05 9.94067e-15)
(-5.1394e-05 -4.8358e-05 -1.46259e-14)
(-5.38283e-05 -4.61908e-05 -1.34927e-14)
(-2.83675e-06 -4.70601e-05 -5.3326e-16)
(-7.8855e-06 -5.00882e-05 -6.71742e-16)
(-1.38176e-05 -5.21327e-05 -1.89728e-15)
(-1.98606e-05 -5.21488e-05 -8.62435e-16)
(-2.63993e-05 -5.30368e-05 -3.00118e-15)
(-3.33031e-05 -5.36934e-05 -1.89163e-14)
(-3.91771e-05 -5.26054e-05 -2.82779e-15)
(-4.4093e-05 -5.06205e-05 -3.49523e-14)
(-4.7691e-05 -4.78167e-05 7.17325e-15)
(-5.03532e-05 -4.4898e-05 1.19148e-14)
(-5.32131e-05 -4.2898e-05 1.52634e-14)
(-5.53612e-05 -4.02634e-05 -1.17275e-14)
(-2.91798e-06 -4.31525e-05 2.34064e-15)
(-7.71208e-06 -4.59269e-05 1.21245e-15)
(-1.32527e-05 -4.78138e-05 1.85993e-15)
(-1.90018e-05 -4.79671e-05 -1.34083e-15)
(-2.51591e-05 -4.87406e-05 -6.77815e-17)
(-3.17605e-05 -4.95201e-05 -7.68543e-15)
(-3.75979e-05 -4.8762e-05 2.15501e-14)
(-4.2418e-05 -4.68603e-05 8.58343e-15)
(-4.62178e-05 -4.43723e-05 -2.86665e-14)
(-4.93527e-05 -4.16757e-05 1.26949e-14)
(-5.23304e-05 -3.91759e-05 -2.54094e-14)
(-5.50798e-05 -3.63646e-05 3.94098e-14)
(-2.92247e-06 -3.95083e-05 2.32467e-15)
(-7.48236e-06 -4.21565e-05 -5.73345e-17)
(-1.26783e-05 -4.38503e-05 -5.58616e-16)
(-1.80196e-05 -4.40175e-05 2.12341e-15)
(-2.39282e-05 -4.49246e-05 -1.62622e-15)
(-3.02402e-05 -4.56716e-05 -3.50965e-15)
(-3.57995e-05 -4.49487e-05 1.22895e-14)
(-4.07573e-05 -4.34876e-05 2.42212e-14)
(-4.48023e-05 -4.10063e-05 -2.28311e-14)
(-4.78898e-05 -3.80733e-05 3.38066e-14)
(-5.12638e-05 -3.54257e-05 -2.071e-14)
(-5.42075e-05 -3.21682e-05 -1.10904e-14)
(-5.61809e-05 -2.8278e-05 6.06884e-14)
(-2.89675e-06 -3.62383e-05 -5.69123e-16)
(-7.2131e-06 -3.86341e-05 2.7714e-15)
(-1.20731e-05 -4.02279e-05 -1.39227e-16)
(-1.70971e-05 -4.05151e-05 -8.43504e-16)
(-2.26322e-05 -4.12578e-05 -1.01423e-15)
(-2.86317e-05 -4.20884e-05 9.09472e-15)
(-3.41534e-05 -4.16189e-05 5.98033e-15)
(-3.89395e-05 -3.99842e-05 1.66353e-14)
(-4.30488e-05 -3.7646e-05 2.14892e-14)
(-4.651e-05 -3.47704e-05 -2.66443e-14)
(-4.97544e-05 -3.15256e-05 4.3963e-14)
(-5.27869e-05 -2.79348e-05 -4.22426e-14)
(-5.54944e-05 -2.41492e-05 2.25214e-14)
(-2.87405e-06 -3.31521e-05 -2.12926e-15)
(-6.94013e-06 -3.54539e-05 2.3756e-15)
(-1.1465e-05 -3.69159e-05 1.11258e-15)
(-1.6135e-05 -3.71683e-05 -2.18347e-15)
(-2.14149e-05 -3.8016e-05 -1.12737e-14)
(-2.71099e-05 -3.87689e-05 1.21001e-14)
(-3.22976e-05 -3.81986e-05 -2.27656e-14)
(-3.71748e-05 -3.68666e-05 -3.11705e-14)
(-4.12976e-05 -3.44736e-05 5.01679e-15)
(-4.45731e-05 -3.11895e-05 4.93858e-15)
(-4.79575e-05 -2.79366e-05 -1.01736e-17)
(-5.11171e-05 -2.4107e-05 3.80845e-14)
(-5.39773e-05 -2.06287e-05 -8.79086e-14)
(-5.59147e-05 -1.6868e-05 6.75326e-16)
(-2.77885e-06 -3.03222e-05 1.99338e-16)
(-6.6262e-06 -3.24746e-05 -1.12803e-15)
(-1.08372e-05 -3.38646e-05 9.3993e-16)
(-1.52585e-05 -3.41862e-05 -5.00327e-15)
(-2.01503e-05 -3.48493e-05 1.16267e-15)
(-2.55428e-05 -3.56319e-05 -9.50207e-15)
(-3.06267e-05 -3.52539e-05 9.69291e-15)
(-3.51947e-05 -3.36922e-05 -1.62521e-14)
(-3.92274e-05 -3.13112e-05 -1.75316e-14)
(-4.26974e-05 -2.81692e-05 -3.26529e-14)
(-4.58044e-05 -2.44414e-05 -6.84004e-14)
(-4.89203e-05 -2.07694e-05 -3.4715e-15)
(-5.1946e-05 -1.71266e-05 -1.16523e-14)
(-5.40164e-05 -1.33317e-05 -5.71264e-14)
(-2.68629e-06 -2.76499e-05 1.99537e-16)
(-6.28801e-06 -2.97315e-05 -7.06188e-17)
(-1.02284e-05 -3.09972e-05 9.64912e-16)
(-1.43124e-05 -3.12733e-05 -2.9536e-15)
(-1.89619e-05 -3.20454e-05 3.05176e-15)
(-2.40267e-05 -3.27248e-05 -1.87941e-14)
(-2.87412e-05 -3.22062e-05 -3.90748e-15)
(-3.32805e-05 -3.0906e-05 6.24154e-15)
(-3.72034e-05 -2.84506e-05 1.7496e-14)
(-4.02635e-05 -2.49922e-05 1.2322e-14)
(-4.3471e-05 -2.15457e-05 -1.79372e-14)
(-4.64301e-05 -1.79284e-05 5.54733e-16)
(-4.9495e-05 -1.45312e-05 7.62274e-14)
(-5.22524e-05 -1.1336e-05 1.02877e-13)
(-2.58326e-06 -2.52005e-05 -2.17188e-15)
(-5.94737e-06 -2.7119e-05 -1.08879e-15)
(-9.62449e-06 -2.83214e-05 -6.36673e-16)
(-1.34387e-05 -2.86838e-05 6.07385e-15)
(-1.77384e-05 -2.92642e-05 -1.5538e-15)
(-2.2485e-05 -2.99706e-05 5.56975e-15)
(-2.70634e-05 -2.96185e-05 -1.85506e-16)
(-3.12048e-05 -2.80548e-05 1.45332e-15)
(-3.4906e-05 -2.56523e-05 1.49728e-14)
(-3.80695e-05 -2.25224e-05 -8.34349e-15)
(-4.08348e-05 -1.89728e-05 2.13532e-14)
(-4.37191e-05 -1.57375e-05 2.96629e-14)
(-4.67179e-05 -1.29391e-05 -1.39418e-15)
(-4.97468e-05 -1.03611e-05 -1.05726e-14)
(-5.24163e-05 -9.33933e-06 -4.60961e-14)
(-2.63357e-06 -2.30206e-05 1.62625e-15)
(-5.62713e-06 -2.47251e-05 -7.13054e-16)
(-9.01632e-06 -2.58536e-05 2.4127e-16)
(-1.25535e-05 -2.61502e-05 2.71541e-15)
(-1.66243e-05 -2.6833e-05 -1.57423e-15)
(-2.10537e-05 -2.74296e-05 9.22857e-15)
(-2.52236e-05 -2.6914e-05 4.8025e-15)
(-2.92804e-05 -2.56335e-05 1.49892e-14)
(-3.27294e-05 -2.32707e-05 9.03624e-15)
(-3.54316e-05 -2.00321e-05 2.04173e-14)
(-3.82823e-05 -1.70467e-05 -2.97449e-14)
(-4.10105e-05 -1.42501e-05 -3.75942e-14)
(-4.40125e-05 -1.19412e-05 -1.30037e-14)
(-4.74341e-05 -1.0495e-05 2.45145e-14)
(-5.02852e-05 -9.35894e-06 3.76284e-14)
(-2.45282e-06 -2.09452e-05 1.01611e-15)
(-5.30933e-06 -2.27393e-05 1.22339e-15)
(-8.41109e-06 -2.36237e-05 -1.69775e-16)
(-1.17651e-05 -2.39499e-05 -5.31546e-16)
(-1.54996e-05 -2.44484e-05 3.27573e-15)
(-1.9643e-05 -2.50506e-05 -1.02035e-14)
(-2.36377e-05 -2.47084e-05 -1.83028e-14)
(-2.72418e-05 -2.32232e-05 1.46748e-14)
(-3.04294e-05 -2.10025e-05 -4.01063e-15)
(-3.31625e-05 -1.82847e-05 -2.80362e-14)
(-3.56386e-05 -1.54146e-05 5.77799e-15)
(-3.83481e-05 -1.30933e-05 -1.21576e-15)
(-4.15104e-05 -1.13999e-05 -3.6015e-14)
(-4.4991e-05 -1.02397e-05 -4.75601e-14)
(-4.86148e-05 -9.35663e-06 -1.08496e-14)
(-1.94658e-06 -1.8816e-05 -8.94419e-16)
(-4.79932e-06 -2.07406e-05 2.28906e-16)
(-7.81642e-06 -2.16508e-05 -1.5113e-15)
(-1.09442e-05 -2.1838e-05 -2.04122e-15)
(-1.44864e-05 -2.24272e-05 1.70687e-15)
(-1.83176e-05 -2.29214e-05 7.54878e-15)
(-2.19205e-05 -2.24385e-05 3.37424e-15)
(-2.54133e-05 -2.12535e-05 -1.15316e-14)
(-2.83435e-05 -1.91667e-05 3.91998e-14)
(-3.06391e-05 -1.64521e-05 -5.41856e-15)
(-3.32249e-05 -1.41847e-05 -5.14912e-16)
(-3.5878e-05 -1.22417e-05 4.0061e-14)
(-3.90379e-05 -1.08474e-05 -8.27316e-16)
(-4.2959e-05 -9.98022e-06 -3.05227e-15)
(-4.64942e-05 -8.89456e-06 3.09191e-15)
(-4.92129e-05 -6.93867e-06 -6.82017e-15)
(-1.73583e-06 -1.70473e-05 -3.08395e-16)
(-4.31e-06 -1.88019e-05 -8.19961e-16)
(-7.23675e-06 -1.97206e-05 -2.43741e-16)
(-1.01924e-05 -2.00261e-05 2.50452e-15)
(-1.34548e-05 -2.04432e-05 -2.04509e-15)
(-1.70155e-05 -2.09513e-05 1.80345e-15)
(-2.046e-05 -2.06291e-05 9.20601e-15)
(-2.35266e-05 -1.9289e-05 -2.74559e-14)
(-2.62331e-05 -1.73789e-05 -1.82157e-14)
(-2.85826e-05 -1.51981e-05 2.23176e-15)
(-3.08421e-05 -1.3031e-05 6.96151e-15)
(-3.35068e-05 -1.14187e-05 4.72726e-15)
(-3.67383e-05 -1.02984e-05 5.38694e-14)
(-4.05166e-05 -9.37043e-06 4.28068e-14)
(-4.44356e-05 -8.12331e-06 -3.90285e-14)
(-4.66525e-05 -5.301e-06 7.62369e-15)
(-1.58984e-06 -1.59847e-05 -7.69224e-16)
(-4.03746e-06 -1.7065e-05 -1.91023e-16)
(-6.69663e-06 -1.80432e-05 -1.25393e-15)
(-9.4544e-06 -1.82562e-05 5.10699e-15)
(-1.25409e-05 -1.87707e-05 -3.39587e-15)
(-1.58315e-05 -1.91834e-05 -3.50656e-15)
(-1.89197e-05 -1.87258e-05 -1.93294e-14)
(-2.18994e-05 -1.7689e-05 3.50824e-16)
(-2.43792e-05 -1.59442e-05 2.0129e-14)
(-2.63641e-05 -1.37654e-05 1.52517e-14)
(-2.87383e-05 -1.20776e-05 -1.58966e-14)
(-3.13122e-05 -1.06855e-05 -5.42753e-14)
(-3.44719e-05 -9.65002e-06 -3.39496e-14)
(-3.83328e-05 -8.74678e-06 4.13647e-14)
(-4.17606e-05 -7.00041e-06 2.02651e-14)
(-4.42902e-05 -4.17606e-06 -1.042e-14)
(1.3102e-07 -1.34775e-05 -4.54467e-17)
(-1.52728e-06 -1.48446e-05 5.68968e-16)
(-3.74601e-06 -1.56564e-05 2.70283e-16)
(-6.23027e-06 -1.64614e-05 -2.0471e-16)
(-8.8122e-06 -1.67582e-05 7.55505e-16)
(-1.16305e-05 -1.71232e-05 8.49553e-18)
(-1.4703e-05 -1.75402e-05 9.92314e-17)
(-1.76435e-05 -1.72515e-05 9.8988e-15)
(-2.02495e-05 -1.6088e-05 -5.2198e-15)
(-2.25438e-05 -1.45106e-05 9.37987e-15)
(-2.45965e-05 -1.27868e-05 2.16611e-14)
(-2.66747e-05 -1.11165e-05 -2.19912e-15)
(-2.92197e-05 -9.91471e-06 6.55863e-15)
(-3.22993e-05 -8.98392e-06 2.69656e-15)
(-3.58067e-05 -7.8797e-06 -2.33386e-14)
(-3.93827e-05 -6.27518e-06 -3.57401e-14)
(-4.16867e-05 -3.51832e-06 1.78322e-14)
(-4.2719e-05 -6.2435e-07 3.35286e-14)
(8.59841e-08 -1.25515e-05 8.91151e-17)
(-1.51984e-06 -1.35341e-05 5.22656e-16)
(-3.56555e-06 -1.43456e-05 -2.38418e-16)
(-5.81516e-06 -1.50416e-05 2.36692e-15)
(-8.17888e-06 -1.53027e-05 -5.36332e-16)
(-1.08365e-05 -1.57537e-05 6.3019e-15)
(-1.36654e-05 -1.6095e-05 2.67615e-15)
(-1.62987e-05 -1.56964e-05 1.22598e-14)
(-1.88407e-05 -1.48136e-05 -8.15547e-16)
(-2.09581e-05 -1.33709e-05 -1.70266e-14)
(-2.26915e-05 -1.1604e-05 -2.62447e-16)
(-2.48562e-05 -1.03037e-05 -3.29452e-16)
(-2.72695e-05 -9.20424e-06 -1.88143e-14)
(-3.0185e-05 -8.26813e-06 9.16106e-15)
(-3.36501e-05 -7.25214e-06 6.62897e-15)
(-3.66376e-05 -5.47244e-06 2.9942e-14)
(-3.92636e-05 -3.21954e-06 5.83e-16)
(-4.04053e-05 -4.38945e-07 -4.10317e-14)
(-1.74125e-07 -1.1617e-05 6.26259e-16)
(-1.58901e-06 -1.24729e-05 -7.95686e-16)
(-3.4016e-06 -1.31034e-05 -9.43927e-17)
(-5.45736e-06 -1.37817e-05 2.79308e-16)
(-7.62885e-06 -1.40844e-05 -8.1901e-16)
(-1.0054e-05 -1.43973e-05 -6.16497e-15)
(-1.26776e-05 -1.47556e-05 -3.89162e-15)
(-1.52026e-05 -1.45036e-05 2.01691e-14)
(-1.74203e-05 -1.35049e-05 1.03478e-14)
(-1.93938e-05 -1.21886e-05 -2.52388e-15)
(-2.11982e-05 -1.08062e-05 -2.30847e-14)
(-2.30715e-05 -9.46258e-06 9.20413e-15)
(-2.54078e-05 -8.47236e-06 1.95859e-14)
(-2.81776e-05 -7.6058e-06 -1.57177e-15)
(-3.12608e-05 -6.47021e-06 8.93531e-15)
(-3.44586e-05 -4.97928e-06 -5.54881e-14)
(-3.67292e-05 -2.77964e-06 -3.19206e-14)
(-3.82295e-05 -1.13245e-07 3.9808e-14)
(-3.08281e-07 -1.07306e-05 8.97479e-17)
(-1.6112e-06 -1.14432e-05 8.10041e-18)
(-3.26772e-06 -1.20486e-05 3.51077e-16)
(-5.11742e-06 -1.26388e-05 2.85938e-16)
(-7.10294e-06 -1.28846e-05 1.52519e-15)
(-9.38405e-06 -1.32716e-05 -1.41679e-16)
(-1.17986e-05 -1.35611e-05 -3.49875e-15)
(-1.40544e-05 -1.32026e-05 1.08102e-14)
(-1.6236e-05 -1.24542e-05 1.16345e-14)
(-1.80555e-05 -1.12569e-05 -1.09138e-14)
(-1.95728e-05 -9.80383e-06 -1.30405e-15)
(-2.15105e-05 -8.74689e-06 -9.60281e-15)
(-2.36757e-05 -7.81583e-06 1.98285e-14)
(-2.62526e-05 -6.93361e-06 -1.71391e-14)
(-2.92489e-05 -5.95621e-06 -9.77269e-15)
(-3.19065e-05 -4.34006e-06 1.32638e-15)
(-3.44586e-05 -2.3691e-06 -1.54977e-14)
(-3.59905e-05 3.00979e-07 -1.41374e-14)
(-3.66146e-05 3.00222e-06 -1.9269e-14)
(-4.03418e-07 -9.88294e-06 -2.6879e-17)
(-1.61364e-06 -1.0545e-05 7.68274e-18)
(-3.11157e-06 -1.10286e-05 5.06014e-17)
(-4.80813e-06 -1.16029e-05 1.76063e-15)
(-6.6535e-06 -1.18629e-05 -2.26589e-15)
(-8.71691e-06 -1.2132e-05 1.12697e-14)
(-1.09726e-05 -1.24282e-05 -1.208e-14)
(-1.31272e-05 -1.22171e-05 -7.33214e-15)
(-1.50305e-05 -1.13661e-05 -1.6026e-14)
(-1.67284e-05 -1.02743e-05 7.5787e-15)
(-1.83099e-05 -9.13853e-06 2.75485e-15)
(-1.99701e-05 -8.01282e-06 -8.68725e-15)
(-2.20359e-05 -7.15984e-06 -1.82414e-14)
(-2.44555e-05 -6.357e-06 -1.17141e-15)
(-2.70865e-05 -5.29419e-06 -2.61037e-14)
(-2.98657e-05 -3.93706e-06 -1.07232e-14)
(-3.19139e-05 -1.83942e-06 2.19657e-14)
(-3.36714e-05 4.92249e-07 6.97477e-14)
(-3.44949e-05 3.07509e-06 3.00629e-14)
(-4.7725e-07 -9.09319e-06 2.85447e-16)
(-1.59261e-06 -9.6567e-06 1.31585e-16)
(-2.97296e-06 -1.0148e-05 -2.06659e-16)
(-4.52047e-06 -1.06331e-05 -4.1773e-16)
(-6.20019e-06 -1.08452e-05 1.59994e-15)
(-8.14244e-06 -1.11819e-05 2.63373e-15)
(-1.02161e-05 -1.14234e-05 -1.22224e-14)
(-1.21439e-05 -1.11241e-05 -1.06744e-14)
(-1.40215e-05 -1.04972e-05 -3.34737e-15)
(-1.55981e-05 -9.49699e-06 4.84558e-15)
(-1.69207e-05 -8.27416e-06 1.28393e-14)
(-1.86283e-05 -7.38981e-06 -7.31089e-15)
(-2.05239e-05 -6.57409e-06 4.86207e-15)
(-2.2746e-05 -5.76762e-06 1.88429e-14)
(-2.52967e-05 -4.83325e-06 -5.98863e-15)
(-2.75231e-05 -3.32473e-06 -3.32035e-14)
(-2.98369e-05 -1.52866e-06 4.78616e-15)
(-3.13493e-05 5.9728e-07 -6.9513e-15)
(-3.21044e-05 3.46529e-06 -3.19509e-15)
(-5.39065e-07 -8.34405e-06 -4.59412e-17)
(-1.56807e-06 -8.88616e-06 7.05296e-17)
(-2.82493e-06 -9.27733e-06 1.05099e-16)
(-4.25855e-06 -9.75309e-06 -1.59418e-15)
(-5.80143e-06 -9.98786e-06 2.26884e-15)
(-7.5682e-06 -1.02095e-05 -1.53329e-15)
(-9.49311e-06 -1.0468e-05 4.82862e-15)
(-1.1353e-05 -1.02926e-05 1.12332e-14)
(-1.29894e-05 -9.56758e-06 -5.66811e-15)
(-1.44708e-05 -8.64465e-06 -1.41353e-15)
(-1.58575e-05 -7.69772e-06 -2.01309e-14)
(-1.73045e-05 -6.73557e-06 8.20086e-15)
(-1.91047e-05 -5.98031e-06 1.05722e-14)
(-2.11684e-05 -5.238e-06 3.48145e-14)
(-2.33711e-05 -4.22226e-06 4.50042e-15)
(-2.56897e-05 -2.99386e-06 5.76843e-15)
(-2.75242e-05 -1.24365e-06 1.6441e-14)
(-2.90873e-05 9.67469e-07 -2.14846e-15)
(-2.97255e-05 3.69195e-06 -3.41385e-14)
(-5.7389e-07 -7.65962e-06 -8.23067e-17)
(-1.52407e-06 -8.12912e-06 -1.08992e-16)
(-2.69556e-06 -8.52853e-06 -1.24404e-16)
(-3.99815e-06 -8.93719e-06 1.71055e-15)
(-5.4159e-06 -9.11782e-06 -6.78726e-16)
(-7.07931e-06 -9.39643e-06 -4.69958e-15)
(-8.85019e-06 -9.60308e-06 -3.7548e-15)
(-1.05106e-05 -9.33946e-06 1.34379e-15)
(-1.21386e-05 -8.80989e-06 9.59605e-15)
(-1.35114e-05 -7.96821e-06 9.11526e-15)
(-1.46695e-05 -6.93209e-06 1.28253e-14)
(-1.61609e-05 -6.17132e-06 -1.79572e-14)
(-1.77929e-05 -5.44878e-06 3.81161e-15)
(-1.96788e-05 -4.69475e-06 1.1813e-14)
(-2.18122e-05 -3.85435e-06 5.90817e-15)
(-2.36554e-05 -2.55651e-06 -4.5111e-15)
(-2.55332e-05 -1.00435e-06 2.35938e-14)
(-2.67838e-05 1.07226e-06 -6.90582e-15)
(-2.74853e-05 3.54693e-06 -1.85737e-15)
(-5.88412e-07 -7.03583e-06 9.40412e-17)
(-1.47671e-06 -7.4807e-06 -4.03811e-16)
(-2.5512e-06 -7.79632e-06 -2.35759e-16)
(-3.76087e-06 -8.19269e-06 2.14333e-16)
(-5.08545e-06 -8.37852e-06 -2.25408e-15)
(-6.58797e-06 -8.55889e-06 5.70303e-15)
(-8.24664e-06 -8.76729e-06 -2.24944e-15)
(-9.83975e-06 -8.6202e-06 -2.24602e-14)
(-1.12568e-05 -8.00067e-06 1.07731e-14)
(-1.25459e-05 -7.22231e-06 5.07743e-15)
(-1.37618e-05 -6.42078e-06 -8.72149e-15)
(-1.50219e-05 -5.58204e-06 -1.8586e-15)
(-1.65677e-05 -4.90851e-06 -2.49087e-14)
(-1.83231e-05 -4.23959e-06 -2.11779e-14)
(-2.01603e-05 -3.35084e-06 -3.03925e-14)
(-2.20744e-05 -2.30127e-06 -2.11666e-14)
(-2.35308e-05 -7.73007e-07 -6.42495e-15)
(-2.47634e-05 1.02888e-06 3.31254e-15)
(-2.53059e-05 3.37932e-06 -1.96697e-15)
(-2.56959e-05 5.48568e-06 1.40837e-14)
(-5.9367e-07 -6.47639e-06 3.89725e-16)
(-1.42071e-06 -6.84635e-06 -2.51348e-16)
(-2.42356e-06 -7.17145e-06 7.81902e-16)
(-3.53669e-06 -7.49507e-06 -8.6243e-16)
(-4.74848e-06 -7.63496e-06 -2.28489e-15)
(-6.16573e-06 -7.86421e-06 -1.39032e-15)
(-7.68909e-06 -8.02644e-06 3.9407e-15)
(-9.11325e-06 -7.8005e-06 -4.73369e-15)
(-1.05228e-05 -7.34854e-06 -1.37206e-14)
(-1.17236e-05 -6.631e-06 2.1114e-14)
(-1.27354e-05 -5.73528e-06 -3.5911e-15)
(-1.40357e-05 -5.07506e-06 -1.18976e-14)
(-1.54409e-05 -4.42677e-06 1.0645e-14)
(-1.70416e-05 -3.75419e-06 1.9048e-14)
(-1.88563e-05 -3.00323e-06 9.77056e-15)
(-2.03791e-05 -1.88169e-06 3.018e-15)
(-2.19308e-05 -6.08161e-07 3.78385e-14)
(-2.27705e-05 1.09923e-06 1.33655e-14)
(-2.34968e-05 2.91626e-06 -1.53881e-14)
(-2.4002e-05 4.51223e-06 1.08723e-14)
(-5.96364e-07 -5.95551e-06 5.57308e-16)
(-1.36692e-06 -6.30744e-06 -3.09529e-17)
(-2.2903e-06 -6.55287e-06 1.44479e-16)
(-3.33293e-06 -6.86509e-06 -1.19958e-15)
(-4.44898e-06 -7.01706e-06 5.16103e-15)
(-5.73902e-06 -7.14902e-06 -5.31329e-15)
(-7.15396e-06 -7.3178e-06 -2.98726e-15)
(-8.53283e-06 -7.18416e-06 1.58756e-14)
(-9.75756e-06 -6.64279e-06 -1.2209e-14)
(-1.08886e-05 -5.96871e-06 -4.06959e-15)
(-1.19562e-05 -5.28147e-06 1.29796e-14)
(-1.30471e-05 -4.54192e-06 4.36451e-15)
(-1.43819e-05 -3.93139e-06 -1.3703e-15)
(-1.58764e-05 -3.31658e-06 3.26912e-15)
(-1.74385e-05 -2.50643e-06 6.44101e-15)
(-1.90878e-05 -1.60499e-06 1.2491e-14)
(-2.02997e-05 -3.38165e-07 -7.52845e-15)
(-2.13642e-05 1.12562e-06 1.84306e-15)
(-2.18918e-05 2.50522e-06 2.04667e-14)
(-2.22952e-05 4.12059e-06 -3.71894e-15)
(-5.86373e-07 -5.47618e-06 -3.52569e-16)
(-1.30316e-06 -5.77158e-06 1.44064e-16)
(-2.17271e-06 -6.02275e-06 2.61648e-16)
(-3.12634e-06 -6.28028e-06 -1.61018e-16)
(-4.15617e-06 -6.38389e-06 -8.333e-16)
(-5.37413e-06 -6.55694e-06 2.95589e-18)
(-6.67509e-06 -6.67902e-06 -4.14464e-15)
(-7.90228e-06 -6.46551e-06 6.57366e-15)
(-9.1262e-06 -6.07068e-06 1.13381e-14)
(-1.01733e-05 -5.44991e-06 -4.10375e-15)
(-1.1059e-05 -4.6725e-06 -6.81988e-15)
(-1.21912e-05 -4.08055e-06 -8.31654e-15)
(-1.33953e-05 -3.48456e-06 1.0867e-14)
(-1.47617e-05 -2.84839e-06 -5.67263e-15)
(-1.63174e-05 -2.17098e-06 -1.06308e-14)
(-1.76384e-05 -1.18735e-06 2.03194e-15)
(-1.89993e-05 -8.98537e-08 8.3994e-15)
(-1.98993e-05 1.21538e-06 -2.69691e-14)
(-2.06614e-05 2.59148e-06 -2.03455e-14)
(-2.10149e-05 3.96607e-06 1.88877e-15)
(-5.70408e-07 -5.02302e-06 -6.89587e-17)
(-1.24184e-06 -5.30495e-06 1.03288e-16)
(-2.04342e-06 -5.49279e-06 -2.31802e-16)
(-2.93567e-06 -5.7414e-06 1.06163e-15)
(-3.90116e-06 -5.84668e-06 -1.68241e-15)
(-4.99979e-06 -5.93915e-06 -3.74197e-15)
(-6.22007e-06 -6.05733e-06 7.94066e-15)
(-7.3988e-06 -5.93058e-06 -5.2693e-15)
(-8.45755e-06 -5.45521e-06 4.30743e-15)
(-9.44163e-06 -4.8717e-06 6.58217e-15)
(-1.03746e-05 -4.26941e-06 8.73155e-15)
(-1.13196e-05 -3.59947e-06 -7.97031e-15)
(-1.24626e-05 -3.02623e-06 -6.38296e-15)
(-1.37384e-05 -2.44136e-06 4.20546e-15)
(-1.50743e-05 -1.69513e-06 1.73395e-14)
(-1.65135e-05 -8.708e-07 4.64044e-15)
(-1.76431e-05 2.56549e-07 -1.9317e-14)
(-1.86858e-05 1.50217e-06 -6.00416e-16)
(-1.93717e-05 2.84713e-06 1.34984e-14)
(-1.9816e-05 4.31253e-06 1.19318e-14)
(-5.56832e-07 -4.59686e-06 3.97605e-17)
(-1.17955e-06 -4.82966e-06 -2.36872e-17)
(-1.92851e-06 -5.03012e-06 -3.11902e-16)
(-2.7509e-06 -5.22581e-06 -3.35202e-16)
(-3.6361e-06 -5.29514e-06 1.59156e-15)
(-4.67368e-06 -5.42458e-06 -4.38905e-16)
(-5.79239e-06 -5.50412e-06 3.474e-15)
(-6.84179e-06 -5.31007e-06 6.6613e-15)
(-7.89876e-06 -4.96098e-06 -4.7292e-15)
(-8.81034e-06 -4.41699e-06 -9.44175e-15)
(-9.57946e-06 -3.72539e-06 -9.15166e-15)
(-1.05574e-05 -3.18325e-06 6.63315e-16)
(-1.15859e-05 -2.61216e-06 1.19619e-14)
(-1.2744e-05 -2.00219e-06 9.45303e-15)
(-1.40799e-05 -1.33762e-06 -1.68019e-14)
(-1.52172e-05 -4.02806e-07 -1.23446e-14)
(-1.6445e-05 6.24584e-07 -6.15163e-15)
(-1.73422e-05 1.8763e-06 1.88121e-14)
(-1.81611e-05 3.23088e-06 1.55436e-14)
(-1.86223e-05 4.81304e-06 -1.09715e-14)
(-1.86863e-05 6.44901e-06 4.51701e-15)
(-5.5068e-07 -4.18201e-06 -2.61235e-17)
(-1.12404e-06 -4.41153e-06 -1.69431e-17)
(-1.81033e-06 -4.5583e-06 1.36827e-16)
(-2.58131e-06 -4.74993e-06 -9.32208e-17)
(-3.39556e-06 -4.83035e-06 2.61267e-15)
(-4.338e-06 -4.8848e-06 -2.78326e-15)
(-5.37628e-06 -4.96808e-06 1.45105e-15)
(-6.3922e-06 -4.84317e-06 -3.86302e-15)
(-7.30283e-06 -4.41846e-06 4.64113e-17)
(-8.16066e-06 -3.89843e-06 -1.27545e-15)
(-8.97141e-06 -3.36151e-06 -3.87923e-15)
(-9.77715e-06 -2.74152e-06 5.88846e-17)
(-1.07485e-05 -2.18551e-06 5.11241e-15)
(-1.18176e-05 -1.60259e-06 4.88146e-15)
(-1.29427e-05 -8.59871e-07 9.14072e-15)
(-1.41786e-05 -5.766e-08 -8.63887e-15)
(-1.5164e-05 1.01733e-06 -8.74173e-15)
(-1.61308e-05 2.22415e-06 -1.02725e-14)
(-1.6719e-05 3.63342e-06 -7.86863e-15)
(-1.72402e-05 5.15655e-06 1.65324e-15)
(-1.75366e-05 6.69035e-06 -3.5628e-15)
(-5.40847e-07 -3.79268e-06 1.50604e-16)
(-1.06598e-06 -3.98744e-06 6.62497e-17)
(-1.70703e-06 -4.14609e-06 -4.19602e-16)
(-2.40803e-06 -4.30097e-06 -1.81457e-15)
(-3.15872e-06 -4.34637e-06 1.97747e-15)
(-4.04706e-06 -4.43344e-06 -1.12918e-15)
(-4.99728e-06 -4.47985e-06 -8.37642e-15)
(-5.89717e-06 -4.2893e-06 4.92448e-15)
(-6.80801e-06 -3.97412e-06 -2.17036e-15)
(-7.59574e-06 -3.48885e-06 -7.44903e-15)
(-8.25827e-06 -2.86838e-06 9.46041e-15)
(-9.09241e-06 -2.35469e-06 -2.53107e-14)
(-9.949e-06 -1.79712e-06 -4.79975e-16)
(-1.091e-05 -1.18443e-06 1.51382e-15)
(-1.20183e-05 -5.33116e-07 4.17935e-15)
(-1.29643e-05 3.63466e-07 2.13886e-14)
(-1.40087e-05 1.34457e-06 -3.00042e-15)
(-1.47762e-05 2.56258e-06 8.50581e-15)
(-1.5511e-05 3.94032e-06 6.86477e-15)
(-1.59172e-05 5.3628e-06 -6.02195e-15)
(-1.60436e-05 7.05582e-06 1.13516e-14)
(-5.2922e-07 -3.42885e-06 1.25751e-17)
(-1.0133e-06 -3.61857e-06 -1.60907e-17)
(-1.59715e-06 -3.73455e-06 2.72583e-16)
(-2.2491e-06 -3.8859e-06 -1.17759e-15)
(-2.94915e-06 -3.93472e-06 -1.23878e-16)
(-3.74647e-06 -3.96092e-06 5.79488e-15)
(-4.63584e-06 -4.00229e-06 -1.04748e-15)
(-5.49733e-06 -3.87605e-06 -2.28662e-15)
(-6.27668e-06 -3.49255e-06 1.12336e-14)
(-7.01198e-06 -3.02705e-06 -1.0277e-14)
(-7.70623e-06 -2.53585e-06 1.6986e-14)
(-8.38264e-06 -1.95123e-06 5.46191e-15)
(-9.18449e-06 -1.40693e-06 -2.93273e-14)
(-1.00584e-05 -8.32301e-07 5.2167e-15)
(-1.09715e-05 -1.17765e-07 1.27363e-14)
(-1.1988e-05 6.5166e-07 7.01581e-15)
(-1.27859e-05 1.67753e-06 -6.0268e-15)
(-1.35646e-05 2.8464e-06 4.13448e-15)
(-1.40889e-05 4.18367e-06 -2.40287e-15)
(-1.4525e-05 5.71468e-06 -1.03497e-14)
(-1.46929e-05 7.32461e-06 9.07958e-15)
(-5.17718e-07 -3.10169e-06 5.05846e-17)
(-9.61505e-07 -3.25424e-06 -4.79751e-17)
(-1.50104e-06 -3.3821e-06 2.74517e-16)
(-2.09642e-06 -3.49499e-06 1.20057e-15)
(-2.73464e-06 -3.51668e-06 1.92435e-15)
(-3.48405e-06 -3.57118e-06 -1.06516e-15)
(-4.29347e-06 -3.58123e-06 5.71122e-15)
(-5.05413e-06 -3.39863e-06 -5.5911e-17)
(-5.83027e-06 -3.10643e-06 3.94724e-15)
(-6.50226e-06 -2.66371e-06 1.19312e-14)
(-7.06014e-06 -2.0936e-06 -2.77189e-15)
(-7.75594e-06 -1.60502e-06 1.69773e-14)
(-8.45322e-06 -1.06158e-06 -4.00605e-17)
(-9.22512e-06 -4.71005e-07 -1.98495e-14)
(-1.01203e-05 1.64754e-07 -5.46188e-16)
(-1.08627e-05 1.01544e-06 -8.86031e-15)
(-1.16925e-05 1.94945e-06 -1.78084e-14)
(-1.22852e-05 3.0895e-06 -8.87767e-15)
(-1.28155e-05 4.39196e-06 -4.8409e-15)
(-1.31015e-05 5.82103e-06 6.79225e-15)
(-1.32597e-05 7.3376e-06 5.10557e-15)
(-5.08154e-07 -2.80332e-06 6.22443e-17)
(-9.1447e-07 -2.94962e-06 -2.78411e-17)
(-1.40418e-06 -3.03599e-06 -4.01837e-16)
(-1.95872e-06 -3.14467e-06 -3.99638e-17)
(-2.54102e-06 -3.17389e-06 -2.1663e-15)
(-3.21624e-06 -3.17075e-06 -7.29898e-16)
(-3.96276e-06 -3.18089e-06 8.00843e-16)
(-4.69494e-06 -3.04665e-06 -2.67736e-15)
(-5.3529e-06 -2.68975e-06 -5.1744e-15)
(-5.97862e-06 -2.25692e-06 5.07708e-15)
(-6.56028e-06 -1.80128e-06 -7.5431e-15)
(-7.10972e-06 -1.25017e-06 -2.03397e-14)
(-7.75562e-06 -7.24156e-07 1.51998e-14)
(-8.44373e-06 -1.6772e-07 1.21884e-14)
(-9.15772e-06 5.1766e-07 6.70019e-15)
(-9.95882e-06 1.24154e-06 -1.42791e-15)
(-1.05582e-05 2.1857e-06 2.6429e-15)
(-1.11299e-05 3.24998e-06 3.52214e-15)
(-1.14749e-05 4.45391e-06 -6.69504e-15)
(-1.18103e-05 5.7636e-06 -2.83246e-15)
(-1.20157e-05 7.12599e-06 -3.30418e-15)
(-1.18869e-05 8.58558e-06 -6.95459e-15)
(-4.9075e-07 -2.54247e-06 5.81868e-17)
(-8.63876e-07 -2.65619e-06 3.73169e-17)
(-1.31967e-06 -2.7475e-06 1.99153e-16)
(-1.81977e-06 -2.82641e-06 -3.89247e-16)
(-2.35334e-06 -2.82735e-06 -2.03759e-15)
(-2.98561e-06 -2.84745e-06 -3.07589e-15)
(-3.66204e-06 -2.82706e-06 2.1993e-15)
(-4.3031e-06 -2.63805e-06 -1.15927e-15)
(-4.95755e-06 -2.35882e-06 4.97718e-16)
(-5.51991e-06 -1.94699e-06 -5.64072e-15)
(-5.97924e-06 -1.42198e-06 -6.49706e-15)
(-6.54396e-06 -9.54866e-07 -1.4066e-14)
(-7.08913e-06 -4.366e-07 -8.58727e-15)
(-7.68628e-06 1.28588e-07 1.08703e-14)
(-8.37516e-06 7.19101e-07 -1.98963e-15)
(-8.92891e-06 1.49373e-06 9.25986e-15)
(-9.55869e-06 2.3282e-06 4.35009e-15)
(-9.98256e-06 3.32496e-06 -1.32253e-14)
(-1.03563e-05 4.43253e-06 -1.35467e-14)
(-1.05196e-05 5.59354e-06 2.39065e-14)
(-1.07061e-05 6.8283e-06 -2.8548e-17)
(-1.06836e-05 8.21088e-06 -6.67319e-15)
(-4.67719e-07 -2.31083e-06 3.72558e-18)
(-8.14508e-07 -2.41476e-06 2.58314e-17)
(-1.22937e-06 -2.46921e-06 -4.65267e-17)
(-1.69317e-06 -2.54207e-06 7.99439e-16)
(-2.18733e-06 -2.54323e-06 -2.77573e-16)
(-2.74982e-06 -2.51611e-06 2.68364e-15)
(-3.37863e-06 -2.48963e-06 -3.68184e-15)
(-3.98658e-06 -2.34585e-06 3.80853e-15)
(-4.53492e-06 -2.01083e-06 -1.49668e-15)
(-5.05247e-06 -1.60954e-06 1.10687e-14)
(-5.52759e-06 -1.18352e-06 6.09861e-15)
(-5.96179e-06 -6.67048e-07 5.85801e-15)
(-6.46194e-06 -1.70452e-07 -4.00942e-15)
(-6.98324e-06 3.45883e-07 -4.39628e-15)
(-7.51394e-06 9.65852e-07 2.4716e-15)
(-8.11454e-06 1.61007e-06 -7.5354e-15)
(-8.5441e-06 2.43524e-06 6.27801e-16)
(-8.95471e-06 3.35101e-06 1.09178e-14)
(-9.2093e-06 4.36043e-06 -4.89671e-16)
(-9.47284e-06 5.43289e-06 -2.00712e-14)
(-9.52267e-06 6.56582e-06 2.90816e-15)
(-9.32227e-06 7.90796e-06 -8.84062e-16)
(-4.41892e-07 -2.1077e-06 -7.4984e-17)
(-7.63644e-07 -2.1798e-06 9.37872e-17)
(-1.1483e-06 -2.23821e-06 -2.37491e-16)
(-1.57032e-06 -2.27986e-06 1.05912e-15)
(-2.0188e-06 -2.25851e-06 -3.26739e-16)
(-2.54419e-06 -2.25049e-06 2.27293e-15)
(-3.11006e-06 -2.19938e-06 3.93e-15)
(-3.63968e-06 -2.01153e-06 -1.56849e-15)
(-4.18186e-06 -1.74379e-06 -5.11635e-15)
(-4.64301e-06 -1.36008e-06 -3.92254e-15)
(-5.00939e-06 -8.76199e-07 1.33393e-14)
(-5.45478e-06 -4.41327e-07 -4.4131e-15)
(-5.86941e-06 3.88697e-08 4.0418e-15)
(-6.3125e-06 5.49834e-07 -1.12399e-17)
(-6.82533e-06 1.08215e-06 8.65364e-15)
(-7.2114e-06 1.76028e-06 7.76018e-15)
(-7.66659e-06 2.48294e-06 -3.83146e-15)
(-7.95571e-06 3.32719e-06 -1.5687e-15)
(-8.22274e-06 4.24976e-06 6.89178e-16)
(-8.3272e-06 5.2343e-06 7.59843e-15)
(-8.3964e-06 6.32762e-06 -3.42761e-16)
(-8.20736e-06 7.50095e-06 -3.93559e-15)
(-4.1744e-07 -1.91887e-06 3.18807e-17)
(-7.14146e-07 -1.98513e-06 1.07291e-16)
(-1.06438e-06 -2.01009e-06 -6.80609e-16)
(-1.45767e-06 -2.04653e-06 -1.21146e-15)
(-1.86413e-06 -2.02879e-06 2.9672e-16)
(-2.3337e-06 -1.97738e-06 1.3054e-15)
(-2.85166e-06 -1.92607e-06 -2.56424e-15)
(-3.35632e-06 -1.77411e-06 7.17816e-16)
(-3.80507e-06 -1.45918e-06 9.26362e-16)
(-4.22845e-06 -1.08557e-06 -2.95273e-15)
(-4.60781e-06 -6.95142e-07 -4.91307e-15)
(-4.93954e-06 -2.25062e-07 1.29648e-15)
(-5.31811e-06 2.25795e-07 -2.59148e-15)
(-5.69815e-06 6.87852e-07 -4.92271e-15)
(-6.07543e-06 1.23574e-06 -1.32355e-14)
(-6.50568e-06 1.79193e-06 -7.23727e-15)
(-6.78729e-06 2.48901e-06 -2.1633e-15)
(-7.06807e-06 3.25228e-06 4.18608e-15)
(-7.22615e-06 4.07925e-06 3.42263e-15)
(-7.39152e-06 4.98647e-06 -6.0392e-15)
(-7.34026e-06 5.96134e-06 1.34982e-15)
(-7.088e-06 7.0946e-06 4.20762e-15)
(-3.89e-07 -1.74555e-06 3.28065e-17)
(-6.62256e-07 -1.79071e-06 -5.35817e-17)
(-9.88746e-07 -1.8188e-06 4.22963e-16)
(-1.34226e-06 -1.8333e-06 -8.03689e-16)
(-1.71348e-06 -1.79413e-06 2.38582e-16)