/*--------------------------------*- C++ -*----------------------------------*\
| =========                 |                                                 |
| \\      /  F ield         | OpenFOAM: The Open Source CFD Toolbox           |
|  \\    /   O peration     | Version:  2506                                  |
|   \\  /    A nd           | Website:  www.openfoam.com                      |
|    \\/     M anipulation  |                                                 |
\*---------------------------------------------------------------------------*/
FoamFile
{
    version     2.0;
    format      ascii;
    arch        "LSB;label=32;scalar=64";
    class       volScalarField;
    location    "500";
    object      turbulenceProperties:I;
}
// * * * * * * * * * * * * * * * * * * * * * * * * * * * * * * * * * * * * * //

dimensions      [0 0 0 0 0 0 0];

internalField   nonuniform List<scalar> 
1340
(
0.000780602
0.000749894
0.000719509
0.000716762
0.000691402
0.000666101
0.000641961
0.000617883
0.000659913
0.000638913
0.000617806
0.000597613
0.000577339
0.000557605
0.000538574
0.000609023
0.000591575
0.00057392
0.000556984
0.000539875
0.000523165
0.000506992
0.000491144
0.000563343
0.000548811
0.000534017
0.000519796
0.000505364
0.000491213
0.000477476
0.00046397
0.000450778
0.000522188
0.000510063
0.000497635
0.000485681
0.000473504
0.000461513
0.00044985
0.000438349
0.000427079
0.000484991
0.000474853
0.000464399
0.000454352
0.000444073
0.000433922
0.000424032
0.000414254
0.000404649
0.000395153
0.000451255
0.000442762
0.000433969
0.000425522
0.000416847
0.000408263
0.000399889
0.000391583
0.000383409
0.000375307
0.000367201
0.000420556
0.000413436
0.000406047
0.000398941
0.000391633
0.00038438
0.000377301
0.000370264
0.000363329
0.000356439
0.00034953
0.000392532
0.000386574
0.000380357
0.000374397
0.000368245
0.000362136
0.000356161
0.000350217
0.00034435
0.00033851
0.000332631
0.000326707
0.000366881
0.000361899
0.00035668
0.000351687
0.000346525
0.000341386
0.000336364
0.000331358
0.000326411
0.000321479
0.000316506
0.000311479
0.000343341
0.00033918
0.000334808
0.000330639
0.000326321
0.000322014
0.000317808
0.000313611
0.000309459
0.000305316
0.000301127
0.000296882
0.000292542
0.000321679
0.00031822
0.000314564
0.000311101
0.000307502
0.000303909
0.000300405
0.000296903
0.000293439
0.000289975
0.000286467
0.000282905
0.000279249
0.000301702
0.000298835
0.000295793
0.000292932
0.000289948
0.00028697
0.000284067
0.000281167
0.000278294
0.000275422
0.000272506
0.00026954
0.000266484
0.000263324
0.000283238
0.000280873
0.00027836
0.000276008
0.000273554
0.000271103
0.000268719
0.000266333
0.000263974
0.00026161
0.000259208
0.000256756
0.000254225
0.000251597
0.000266136
0.0002642
0.000262141
0.000260225
0.000258225
0.000256227
0.000254288
0.000252349
0.000250429
0.000248507
0.000246549
0.000244545
0.000242471
0.000240306
0.000250269
0.000248699
0.000247025
0.000245484
0.000243872
0.000242264
0.000240707
0.000239153
0.000237614
0.000236073
0.000234499
0.000232885
0.000231205
0.000229445
0.000227595
0.000235519
0.000234263
0.000232918
0.000231699
0.000230421
0.000229145
0.000227919
0.000226694
0.000225484
0.000224272
0.000223029
0.000221752
0.000220416
0.00021901
0.00021752
0.000221786
0.000220801
0.000219735
0.000218791
0.0002178
0.00021681
0.000215868
0.000214926
0.000214
0.00021307
0.000212114
0.000211125
0.000210087
0.000208985
0.00020781
0.000208982
0.000208225
0.000207401
0.000206691
0.000205945
0.000205201
0.000204502
0.000203803
0.000203119
0.000202432
0.000201722
0.000200984
0.000200203
0.000199366
0.000198465
0.000197489
0.000197027
0.000196463
0.000195847
0.000195338
0.000194799
0.000194268
0.000193776
0.000193287
0.00019281
0.000192332
0.000191833
0.000191311
0.00019075
0.000190141
0.000189473
0.000188743
0.00018585
0.000185452
0.000185011
0.000184672
0.000184313
0.000183962
0.000183647
0.000183338
0.000183038
0.000182738
0.00018242
0.000182081
0.000181709
0.000181295
0.000180833
0.000180314
0.000175562
0.000175387
0.000175129
0.000174838
0.000174645
0.000174437
0.000174239
0.000174076
0.000173919
0.00017377
0.000173622
0.000173458
0.000173277
0.000173067
0.00017282
0.000172531
0.000172194
0.0001718
0.000165655
0.000165582
0.000165442
0.000165279
0.000165208
0.00016513
0.000165063
0.000165028
0.000165
0.00016498
0.000164961
0.000164928
0.000164879
0.000164806
0.000164702
0.000164561
0.000164379
0.000164149
0.000156371
0.000156384
0.000156343
0.000156289
0.000156321
0.000156352
0.000156395
0.00015647
0.00015655
0.00015664
0.000156729
0.000156806
0.000156871
0.000156914
0.00015693
0.000156915
0.000156864
0.000156772
0.000147662
0.000147746
0.000147789
0.000147826
0.000147945
0.000148068
0.000148203
0.000148369
0.000148542
0.000148724
0.000148904
0.000149074
0.000149233
0.000149373
0.00014949
0.00014958
0.00014964
0.000149665
0.000149651
0.000139486
0.000139628
0.00013974
0.000139853
0.000140045
0.000140244
0.000140458
0.000140701
0.000140951
0.000141207
0.000141464
0.000141712
0.000141949
0.00014217
0.000142371
0.00014255
0.000142702
0.000142824
0.000142912
0.000131802
0.00013199
0.000132161
0.000132337
0.000132589
0.000132852
0.000133131
0.000133438
0.00013375
0.00013407
0.00013439
0.000134702
0.000135004
0.000135291
0.000135562
0.000135813
0.000136041
0.000136243
0.000136416
0.000124573
0.000124801
0.000125018
0.000125246
0.000125548
0.000125863
0.000126195
0.000126554
0.00012692
0.000127292
0.000127664
0.000128027
0.000128382
0.000128724
0.000129052
0.000129362
0.000129652
0.000129919
0.000130161
0.000117769
0.000118027
0.000118282
0.000118552
0.000118894
0.000119253
0.000119629
0.00012003
0.000120439
0.000120853
0.000121265
0.000121671
0.000122069
0.000122455
0.000122828
0.000123185
0.000123525
0.000123845
0.000124141
0.000111359
0.00011164
0.000111926
0.000112231
0.000112604
0.000112998
0.000113408
0.000113844
0.000114287
0.000114735
0.000115181
0.00011562
0.000116052
0.000116472
0.00011688
0.000117275
0.000117654
0.000118015
0.000118354
0.00011867
0.000105316
0.000105615
0.000105923
0.000106256
0.000106654
0.000107075
0.000107514
0.000107978
0.000108448
0.000108922
0.000109395
0.000109859
0.000110317
0.000110764
0.000111199
0.000111622
0.00011203
0.000112422
0.000112795
0.000113145
9.96158e-05
9.99268e-05
0.000100252
0.000100607
0.000101024
0.000101466
0.000101928
0.000102412
0.000102903
0.000103398
0.00010389
0.000104374
0.000104851
0.000105318
0.000105774
0.000106217
0.000106647
0.000107062
0.000107459
0.000107834
9.42347e-05
9.45534e-05
9.48916e-05
9.5262e-05
9.56943e-05
9.61525e-05
9.66307e-05
9.7131e-05
9.76382e-05
9.8148e-05
9.8655e-05
9.9154e-05
9.96444e-05
0.000100125
0.000100595
0.000101053
0.000101498
0.000101928
0.000102341
0.000102733
8.91522e-05
8.94746e-05
8.98217e-05
9.02034e-05
9.06461e-05
9.11162e-05
9.16071e-05
9.21192e-05
9.26383e-05
9.3159e-05
9.36761e-05
9.41847e-05
9.46847e-05
9.51741e-05
9.56529e-05
9.61198e-05
9.65741e-05
9.70138e-05
9.74368e-05
9.7839e-05
8.43487e-05
8.46718e-05
8.50239e-05
8.54136e-05
8.5863e-05
8.63414e-05
8.68416e-05
8.7362e-05
8.78894e-05
8.84172e-05
8.8941e-05
8.9456e-05
8.99615e-05
9.04559e-05
9.09392e-05
9.14105e-05
9.18691e-05
9.23133e-05
9.27405e-05
9.31471e-05
9.35279e-05
7.98063e-05
8.01275e-05
8.04816e-05
8.08765e-05
8.13295e-05
8.18136e-05
8.23198e-05
8.28459e-05
8.33787e-05
8.39112e-05
8.44386e-05
8.49568e-05
8.54642e-05
8.59605e-05
8.6445e-05
8.69171e-05
8.7376e-05
8.782e-05
8.82469e-05
8.86529e-05
8.90333e-05
7.55084e-05
7.58257e-05
7.61795e-05
7.65767e-05
7.70313e-05
7.75185e-05
7.80285e-05
7.85584e-05
7.90942e-05
7.96288e-05
8.01576e-05
8.06763e-05
8.11836e-05
8.16789e-05
8.21618e-05
8.26317e-05
8.30877e-05
8.35287e-05
8.39517e-05
8.43534e-05
8.47291e-05
7.14397e-05
7.17513e-05
7.21027e-05
7.25002e-05
7.29546e-05
7.34432e-05
7.39555e-05
7.4487e-05
7.5024e-05
7.55595e-05
7.60878e-05
7.66054e-05
7.71106e-05
7.76029e-05
7.80817e-05
7.8547e-05
7.89976e-05
7.94322e-05
7.98484e-05
8.02429e-05
8.06105e-05
6.7586e-05
6.78905e-05
6.82379e-05
6.86339e-05
6.9087e-05
6.95756e-05
7.0089e-05
7.06208e-05
7.11581e-05
7.16929e-05
7.22196e-05
7.27345e-05
7.3236e-05
7.37234e-05
7.41966e-05
7.46553e-05
7.50985e-05
7.55247e-05
7.59319e-05
7.63167e-05
7.66738e-05
6.39339e-05
6.42302e-05
6.45722e-05
6.49658e-05
6.54163e-05
6.59042e-05
6.64177e-05
6.69494e-05
6.74863e-05
6.80194e-05
6.85434e-05
6.90544e-05
6.95512e-05
7.00329e-05
7.04993e-05
7.09499e-05
7.13841e-05
7.18005e-05
7.21969e-05
7.257e-05
7.29151e-05
7.32279e-05
6.04713e-05
6.07584e-05
6.10942e-05
6.14843e-05
6.19316e-05
6.24184e-05
6.29317e-05
6.34628e-05
6.39986e-05
6.45294e-05
6.50502e-05
6.55569e-05
6.60482e-05
6.65233e-05
6.69818e-05
6.74235e-05
6.78479e-05
6.82533e-05
6.86376e-05
6.89977e-05
6.93294e-05
6.9628e-05
5.71865e-05
5.74637e-05
5.77927e-05
5.81786e-05
5.86227e-05
5.91081e-05
5.96211e-05
6.01514e-05
6.06858e-05
6.12145e-05
6.17319e-05
6.2234e-05
6.27194e-05
6.31871e-05
6.36372e-05
6.40695e-05
6.44832e-05
6.48767e-05
6.52481e-05
6.55946e-05
6.59118e-05
6.61955e-05
5.40688e-05
5.43358e-05
5.46571e-05
5.50387e-05
5.54797e-05
5.5964e-05
5.64768e-05
5.70065e-05
5.75398e-05
5.80663e-05
5.85801e-05
5.90776e-05
5.95569e-05
6.00173e-05
6.04587e-05
6.0881e-05
6.12834e-05
6.16647e-05
6.2023e-05
6.23552e-05
6.26575e-05
6.29259e-05
5.11081e-05
5.13644e-05
5.16781e-05
5.20554e-05
5.24935e-05
5.2977e-05
5.34902e-05
5.40197e-05
5.45521e-05
5.50767e-05
5.55872e-05
5.60801e-05
5.65533e-05
5.70063e-05
5.74391e-05
5.78513e-05
5.82425e-05
5.86116e-05
5.89564e-05
5.92742e-05
5.95613e-05
5.98144e-05
4.82951e-05
4.85405e-05
4.88464e-05
4.92196e-05
4.96554e-05
5.0139e-05
5.0653e-05
5.1183e-05
5.17152e-05
5.22384e-05
5.27461e-05
5.32346e-05
5.37019e-05
5.41476e-05
5.45719e-05
5.49743e-05
5.53543e-05
5.5711e-05
5.60424e-05
5.63459e-05
5.66182e-05
5.6856e-05
4.56209e-05
4.58552e-05
4.61534e-05
4.65231e-05
4.69576e-05
4.74419e-05
4.79576e-05
4.84888e-05
4.90215e-05
4.95439e-05
5.00492e-05
5.05337e-05
5.09957e-05
5.14346e-05
5.18505e-05
5.22433e-05
5.26124e-05
5.29572e-05
5.32755e-05
5.35652e-05
5.3823e-05
5.40457e-05
4.30772e-05
4.33006e-05
4.35912e-05
4.39581e-05
4.43923e-05
4.48784e-05
4.53967e-05
4.59301e-05
4.64641e-05
4.69862e-05
4.74897e-05
4.79711e-05
4.84282e-05
4.88606e-05
4.92686e-05
4.96524e-05
5.00115e-05
5.03448e-05
5.06508e-05
5.09272e-05
5.11709e-05
5.13794e-05
5.15493e-05
4.06564e-05
4.08688e-05
4.11522e-05
4.15175e-05
4.19524e-05
4.24412e-05
4.29635e-05
4.35e-05
4.40361e-05
4.45588e-05
4.50614e-05
4.55403e-05
4.59931e-05
4.64196e-05
4.68206e-05
4.71961e-05
4.75458e-05
4.78686e-05
4.81629e-05
4.84267e-05
4.86572e-05
4.8852e-05
4.90086e-05
3.83512e-05
3.85526e-05
3.88295e-05
3.91943e-05
3.9631e-05
4.01239e-05
4.06513e-05
4.11918e-05
4.17312e-05
4.22554e-05
4.27579e-05
4.32352e-05
4.36843e-05
4.41057e-05
4.45003e-05
4.48686e-05
4.52096e-05
4.55225e-05
4.58058e-05
4.60575e-05
4.62752e-05
4.6457e-05
4.66008e-05
3.61546e-05
3.63452e-05
3.66164e-05
3.69822e-05
3.74218e-05
3.79203e-05
3.84539e-05
3.89993e-05
3.9543e-05
4.00694e-05
4.0573e-05
4.10497e-05
4.14961e-05
4.19128e-05
4.23019e-05
4.26634e-05
4.2996e-05
4.32987e-05
4.35705e-05
4.38098e-05
4.40146e-05
4.41837e-05
4.43152e-05
3.40603e-05
3.42402e-05
3.45066e-05
3.4875e-05
3.53186e-05
3.58246e-05
3.63653e-05
3.69163e-05
3.74656e-05
3.79946e-05
3.85004e-05
3.89783e-05
3.94224e-05
3.98347e-05
4.02179e-05
4.05717e-05
4.08943e-05
4.11852e-05
4.14441e-05
4.16702e-05
4.18617e-05
4.20178e-05
4.21376e-05
3.20621e-05
3.22317e-05
3.24946e-05
3.28669e-05
3.33159e-05
3.38312e-05
3.43795e-05
3.49374e-05
3.54935e-05
3.60248e-05
3.65355e-05
3.70161e-05
3.74565e-05
3.78619e-05
3.82372e-05
3.85809e-05
3.88914e-05
3.91691e-05
3.94145e-05
3.96272e-05
3.98056e-05
3.99492e-05
4.00577e-05
3.01547e-05
3.03148e-05
3.05752e-05
3.09529e-05
3.14083e-05
3.1935e-05
3.24901e-05
3.3057e-05
3.36201e-05
3.41528e-05
3.46746e-05
3.51589e-05
3.55896e-05
3.59825e-05
3.63473e-05
3.66799e-05
3.6978e-05
3.72431e-05
3.74767e-05
3.76778e-05
3.7845e-05
3.79776e-05
3.80756e-05
2.8334e-05
2.84854e-05
2.87443e-05
2.91285e-05
2.95912e-05
3.0131e-05
3.06899e-05
3.12697e-05
3.18376e-05
3.23691e-05
3.29101e-05
3.33968e-05
3.38092e-05
3.41859e-05
3.45417e-05
3.48668e-05
3.51561e-05
3.54128e-05
3.56382e-05
3.58307e-05
3.59886e-05
3.61113e-05
3.61994e-05
2.65953e-05
2.67388e-05
2.6998e-05
2.73896e-05
2.78621e-05
2.84157e-05
2.89741e-05
2.95741e-05
3.01354e-05
3.06631e-05
3.12335e-05
3.1715e-05
3.2102e-05
3.24686e-05
3.28256e-05
3.31501e-05
3.3436e-05
3.36888e-05
3.39095e-05
3.40955e-05
3.42453e-05
3.43589e-05
3.44377e-05
3.44848e-05
2.49366e-05
2.50723e-05
2.53338e-05
2.57351e-05
2.62196e-05
2.67869e-05
2.73428e-05
2.7974e-05
2.84922e-05
2.90383e-05
2.96689e-05
3.01182e-05
3.04591e-05
3.08298e-05
3.12044e-05
3.15333e-05
3.18166e-05
3.20665e-05
3.22835e-05
3.24638e-05
3.26057e-05
3.27106e-05
3.27809e-05
3.28198e-05
2.33808e-05
2.35078e-05
2.37721e-05
2.4181e-05
2.46741e-05
2.52462e-05
2.57963e-05
2.64572e-05
2.68738e-05
2.74915e-05
2.82274e-05
2.86145e-05
2.88734e-05
2.92672e-05
2.96835e-05
3.00237e-05
3.03047e-05
3.05525e-05
3.07669e-05
3.09416e-05
3.10757e-05
3.11721e-05
3.12346e-05
3.12687e-05
2.20525e-05
2.21681e-05
2.24259e-05
2.28206e-05
2.3299e-05
2.38357e-05
2.43512e-05
2.49827e-05
2.52507e-05
2.59483e-05
2.67776e-05
2.71103e-05
2.73317e-05
2.77967e-05
2.82902e-05
2.86698e-05
2.89715e-05
2.92365e-05
2.9465e-05
2.9649e-05
2.97886e-05
2.98866e-05
2.99487e-05
2.99809e-05
2.09422e-05
2.10446e-05
2.12821e-05
2.16416e-05
2.20784e-05
2.25407e-05
2.29953e-05
2.3517e-05
2.36787e-05
2.43272e-05
2.51977e-05
2.55325e-05
2.58226e-05
2.63818e-05
2.69583e-05
2.74018e-05
2.77521e-05
2.80555e-05
2.8316e-05
2.85251e-05
2.86826e-05
2.87919e-05
2.88603e-05
2.88922e-05
1.98711e-05
1.99622e-05
2.01781e-05
2.05028e-05
2.08943e-05
2.12821e-05
2.16783e-05
2.20751e-05
2.21707e-05
2.26902e-05
2.35577e-05
2.3928e-05
2.43427e-05
2.49808e-05
2.56212e-05
2.61305e-05
2.65368e-05
2.68826e-05
2.71762e-05
2.74108e-05
2.75855e-05
2.77055e-05
2.77796e-05
2.78152e-05
1.87661e-05
1.88482e-05
1.90447e-05
1.93378e-05
1.9685e-05
2.00056e-05
2.03513e-05
2.06285e-05
2.06803e-05
2.10821e-05
2.19425e-05
2.23401e-05
2.28965e-05
2.36111e-05
2.43023e-05
2.48684e-05
2.53275e-05
2.57127e-05
2.60352e-05
2.62925e-05
2.64833e-05
2.66134e-05
2.66908e-05
2.67228e-05
1.7652e-05
1.77268e-05
1.79045e-05
1.81669e-05
1.84673e-05
1.87266e-05
1.90197e-05
1.91811e-05
1.92e-05
1.94889e-05
2.03425e-05
2.07559e-05
2.14664e-05
2.22647e-05
2.30007e-05
2.36151e-05
2.41234e-05
2.45463e-05
2.48956e-05
2.51722e-05
2.53769e-05
2.5517e-05
2.56027e-05
2.56446e-05
1.65335e-05
1.66019e-05
1.67593e-05
1.69889e-05
1.72375e-05
1.74414e-05
1.76736e-05
1.77274e-05
1.77195e-05
1.78991e-05
1.87471e-05
1.91753e-05
2.0045e-05
2.09332e-05
2.17144e-05
2.23732e-05
2.29288e-05
2.33905e-05
2.37674e-05
2.40617e-05
2.42737e-05
2.44075e-05
2.44703e-05
2.4475e-05
1.5426e-05
1.54872e-05
1.56178e-05
1.58046e-05
1.59909e-05
1.61413e-05
1.6297e-05
1.62634e-05
1.62276e-05
1.63033e-05
1.71391e-05
1.75939e-05
1.86248e-05
1.96116e-05
2.04456e-05
2.11501e-05
2.17519e-05
2.22527e-05
2.266e-05
2.29814e-05
2.32236e-05
2.33963e-05
2.35145e-05
2.35919e-05
1.43446e-05
1.4397e-05
1.44918e-05
1.46177e-05
1.47234e-05
1.48075e-05
1.48582e-05
1.47717e-05
1.46889e-05
1.46873e-05
1.551e-05
1.60168e-05
1.72064e-05
1.83026e-05
1.92015e-05
1.99593e-05
2.06123e-05
2.11499e-05
2.15678e-05
2.18713e-05
2.20649e-05
2.21512e-05
2.21369e-05
2.20485e-05
2.19295e-05
1.32948e-05
1.33389e-05
1.33904e-05
1.34363e-05
1.34389e-05
1.34235e-05
1.33251e-05
1.32211e-05
1.30191e-05
1.30409e-05
1.38755e-05
1.44603e-05
1.58085e-05
1.70278e-05
1.7996e-05
1.88099e-05
1.95349e-05
2.01612e-05
2.06792e-05
2.1097e-05
2.14324e-05
2.17131e-05
2.19711e-05
2.22076e-05
2.23781e-05
1.22916e-05
1.23208e-05
1.23062e-05
1.22402e-05
1.21127e-05
1.19616e-05
1.17015e-05
1.1623e-05
1.11855e-05
1.15335e-05
1.23218e-05
1.29467e-05
1.44593e-05
1.58301e-05
1.68753e-05
1.77162e-05
1.84376e-05
1.90361e-05
1.95035e-05
1.98414e-05
2.00423e-05
2.00994e-05
2.00318e-05
1.9927e-05
1.98985e-05
1.14332e-05
1.14162e-05
1.12573e-05
1.09782e-05
1.06339e-05
1.02951e-05
9.94724e-06
1.0008e-05
9.42e-06
1.06211e-05
1.10485e-05
1.15404e-05
1.31401e-05
1.46627e-05
1.59026e-05
1.70153e-05
1.80587e-05
1.90061e-05
1.98519e-05
2.06275e-05
2.13831e-05
2.21731e-05
2.30042e-05
2.37589e-05
2.42855e-05
1.08931e-05
1.07976e-05
1.04124e-05
9.76819e-06
8.97617e-06
8.19668e-06
7.74582e-06
8.12719e-06
8.00951e-06
1.01208e-05
1.02269e-05
1.0655e-05
1.20748e-05
1.34884e-05
1.47716e-05
1.61141e-05
1.75104e-05
1.88741e-05
2.01582e-05
2.13417e-05
2.24024e-05
2.33249e-05
2.41131e-05
2.47537e-05
2.52682e-05
1.06347e-05
1.0484e-05
9.93608e-06
8.9794e-06
7.62613e-06
5.84203e-06
4.70689e-06
6.10638e-06
7.39746e-06
9.19908e-06
8.47606e-06
1.06406e-05
1.34117e-05
1.5886e-05
1.81096e-05
2.01608e-05
2.20868e-05
2.38984e-05
2.55823e-05
2.71186e-05
2.84653e-05
2.9564e-05
3.03416e-05
3.07814e-05
3.10754e-05
)
;

boundaryField
{
    inlet
    {
        type            calculated;
        value           nonuniform List<scalar> 
25
(
1.0614e-05
1.04538e-05
9.89177e-06
8.90166e-06
7.45369e-06
5.40728e-06
4.32681e-06
6.47619e-06
8.26107e-06
7.99645e-06
1.1597e-05
1.59835e-05
2.09002e-05
2.56177e-05
3.01064e-05
3.44099e-05
3.85711e-05
4.25993e-05
4.64849e-05
5.02023e-05
5.3708e-05
5.69259e-05
5.97702e-05
6.21526e-05
6.40962e-05
)
;
    }
    outlet
    {
        type            calculated;
        value           nonuniform List<scalar> 0();
    }
    walls
    {
        type            calculated;
        value           nonuniform List<scalar> 0();
    }
    frontAndBack
    {
        type            empty;
    }
    procBoundary4to0
    {
        type            processor;
        value           nonuniform List<scalar> 
72
(
0.000809574
0.000740438
0.000679322
0.000625001
0.00057655
0.000533143
0.000494091
0.000458819
0.000426851
0.000397776
0.000371245
0.000346962
0.000324676
0.00030417
0.000285259
0.00026778
0.000251588
0.000236562
0.000222597
0.000209594
0.000197468
0.000186147
0.000186147
0.000175679
0.000165682
0.000156323
0.000147553
0.000139326
0.000131601
0.000124341
0.000117513
0.000111084
0.000105029
9.93207e-05
9.39359e-05
8.88529e-05
8.40519e-05
7.95145e-05
7.52238e-05
7.1164e-05
6.73206e-05
6.36799e-05
6.02293e-05
5.69574e-05
5.3853e-05
5.0906e-05
4.81068e-05
4.54466e-05
4.29168e-05
4.05098e-05
3.82182e-05
3.60351e-05
3.39538e-05
3.19684e-05
3.00739e-05
2.82659e-05
2.65396e-05
2.48923e-05
2.3345e-05
2.20199e-05
2.09108e-05
1.98418e-05
1.87389e-05
1.76268e-05
1.65087e-05
1.53988e-05
1.4311e-05
1.32499e-05
1.22255e-05
1.1331e-05
1.07515e-05
1.04746e-05
)
;
    }
    procBoundary4to5
    {
        type            processor;
        value           nonuniform List<scalar> 
95
(
0.000852073
0.000814683
0.000778014
0.000690657
0.000690657
0.000662071
0.000594551
0.000594551
0.000572147
0.000520015
0.000520015
0.000475726
0.000475726
0.000437822
0.000415973
0.000415973
0.000385684
0.000385684
0.000359086
0.000342582
0.000342582
0.000320688
0.000306357
0.000306357
0.000288086
0.000275485
0.000275485
0.000260046
0.000248858
0.000238041
0.000238041
0.000225641
0.000215937
0.000206552
0.000206552
0.000196433
0.000187942
0.000179732
0.000179732
0.00017135
0.000163869
0.000156635
0.000156635
0.000149593
0.000142961
0.000136555
0.000130372
0.000124411
0.000124411
0.000118956
0.000113468
0.000108182
0.000103099
9.82154e-05
9.82154e-05
9.38788e-05
8.93835e-05
8.50742e-05
8.09471e-05
7.69995e-05
7.69995e-05
7.35002e-05
6.98863e-05
6.64391e-05
6.31545e-05
6.00278e-05
5.70544e-05
5.42296e-05
5.42296e-05
5.16789e-05
4.91259e-05
4.67063e-05
4.44097e-05
4.22219e-05
4.01321e-05
3.81409e-05
3.62556e-05
3.62556e-05
3.45056e-05
3.28326e-05
3.12786e-05
2.99876e-05
2.88941e-05
2.78208e-05
2.67203e-05
2.56542e-05
2.44396e-05
2.36319e-05
2.36319e-05
2.1811e-05
2.24671e-05
1.99605e-05
2.4589e-05
2.57592e-05
3.10995e-05
)
;
    }
}


// ************************************************************************* //
