/*--------------------------------*- C++ -*----------------------------------*\
| =========                 |                                                 |
| \\      /  F ield         | OpenFOAM: The Open Source CFD Toolbox           |
|  \\    /   O peration     | Version:  2506                                  |
|   \\  /    A nd           | Website:  www.openfoam.com                      |
|    \\/     M anipulation  |                                                 |
\*---------------------------------------------------------------------------*/
FoamFile
{
    version     2.0;
    format      ascii;
    arch        "LSB;label=32;scalar=64";
    class       surfaceScalarField;
    location    "500";
    object      phi;
}
// * * * * * * * * * * * * * * * * * * * * * * * * * * * * * * * * * * * * * //

dimensions      [0 3 -1 0 0 0 0];

oriented        oriented;

internalField   nonuniform List<scalar> 
2579
(
0.201731
0.00470613
0.194917
0.0068132
0.181097
0.0138198
0.161217
0.0198804
0.228741
0.00873112
0.223785
0.011768
0.21344
0.0241645
0.19539
0.0379301
0.248125
0.0123453
0.242973
0.0169205
0.232687
0.03445
0.214883
0.0557341
0.265378
0.0153317
0.260651
0.021647
0.250921
0.0441793
0.232551
0.0741034
0.279303
0.0180977
0.274957
0.0259925
0.266412
0.0527242
0.248615
0.0919
0.294581
0.0210011
0.289911
0.0306616
0.281546
0.0610888
0.264165
0.109281
0.310231
0.0239961
0.305358
0.0355337
0.296977
0.0694703
0.280107
0.12615
0.326949
0.0270924
0.32189
0.0405929
0.313385
0.0779744
0.297025
0.14251
0.344492
0.0302625
0.339256
0.0458286
0.330724
0.0865057
0.314945
0.158289
0.36299
0.0335247
0.357631
0.0511867
0.349089
0.095048
0.333869
0.173508
0.382497
0.0368383
0.377005
0.056679
0.368473
0.10358
0.353879
0.188103
0.40303
0.0402151
0.397431
0.0622778
0.388972
0.112039
0.375014
0.20206
0.424699
0.0436145
0.419022
0.0679543
0.410601
0.12046
0.397322
0.215339
0.447507
0.0470427
0.441785
0.0736759
0.433489
0.128756
0.420863
0.227965
0.471564
0.0504819
0.465825
0.0794154
0.457625
0.136956
0.445697
0.239894
0.496921
0.0539081
0.491179
0.0851567
0.48314
0.144995
0.471929
0.251104
0.523641
0.057311
0.517958
0.0908394
0.510073
0.15288
0.499548
0.26163
0.551836
0.0606255
0.546202
0.0964728
0.538549
0.160533
0.528719
0.271459
0.581543
0.0638777
0.576036
0.10198
0.56859
0.167979
0.559467
0.280583
0.612879
0.0670114
0.607511
0.107348
0.600312
0.175177
0.591874
0.289021
0.645917
0.0700381
0.640738
0.112527
0.63383
0.182086
0.626036
0.296815
0.680788
0.0728756
0.675795
0.117521
0.669188
0.188692
0.662087
0.303916
0.717558
0.0755451
0.71282
0.122259
0.706543
0.194968
0.700053
0.310407
0.756353
0.0779929
0.7519
0.126712
0.745953
0.200916
0.740079
0.31628
0.797281
0.0802803
0.793165
0.130828
0.78757
0.206511
0.782278
0.321572
0.840474
0.0822761
0.836627
0.134675
0.83153
0.211607
0.826787
0.326316
0.886099
0.0839102
0.882701
0.138073
0.87785
0.216459
0.873645
0.33052
0.934368
0.0852808
0.93107
0.141372
0.926789
0.220739
0.923128
0.334181
0.985035
0.0863776
0.982371
0.144036
0.978401
0.224708
0.975338
0.337244
1.03876
0.0871674
1.03646
0.146331
1.03297
0.228196
1.03036
0.339863
1.09552
0.0876527
1.09351
0.148336
1.09049
0.23122
1.08819
0.342167
1.15536
0.087816
1.1539
0.149797
1.15136
0.233755
1.14947
0.344062
1.21877
0.0874131
1.21759
0.150977
1.2153
0.23605
1.21407
0.34529
1.28541
0.0870732
1.28479
0.151594
1.28299
0.237851
1.28202
0.346266
1.3562
0.0861548
1.35572
0.152068
1.35453
0.239043
1.35395
0.346843
1.43087
0.0850498
1.43093
0.152002
1.42985
0.240125
1.42963
0.347065
1.50971
0.0836388
1.51004
0.151675
1.50955
0.240617
1.50969
0.346926
1.59324
0.0819565
1.59395
0.150959
1.59368
0.240888
1.59403
0.34658
1.67954
0.0228179
1.68138
0.0801138
1.68234
0.150002
1.68237
0.240862
1.68317
0.345777
1.77255
0.0198707
1.77464
0.0780202
1.77581
0.148831
1.77627
0.240402
1.77725
0.344801
1.87098
0.0167727
1.87319
0.0758113
1.87468
0.147338
1.87531
0.239774
1.87656
0.343552
1.97499
0.0136641
1.97741
0.0733898
1.9791
0.14565
1.97984
0.239032
1.98137
0.34203
2.08511
0.0104314
2.0876
0.0708987
2.08957
0.143688
2.09057
0.238031
2.09207
0.340527
2.2015
0.00720641
2.20419
0.0682109
2.20616
0.141719
2.20723
0.236955
2.2091
0.338657
2.32468
0.00400236
2.32742
0.0654743
2.32936
0.139772
2.33066
0.235656
2.33258
0.336737
2.45494
0.000574406
2.45757
0.0628413
2.45975
0.137588
2.46097
0.234442
2.46295
0.334759
2.59256
-0.00271098
2.59534
0.0600638
2.59748
0.135444
2.59887
0.233053
2.60073
0.332903
2.73805
-0.00594935
2.74085
0.0572595
2.74293
0.133365
2.74434
0.231644
2.74635
0.330894
2.89199
-0.00917889
2.89465
0.0545989
2.89692
0.131099
2.8981
0.230462
2.90009
0.328897
3.05473
-0.0125028
3.05731
0.0520274
3.05936
0.129041
3.06067
0.22916
3.06264
0.326925
3.2266
-0.0155672
3.22916
0.049461
3.23127
0.126931
3.23234
0.228091
3.23412
0.325142
3.40823
-0.0186336
3.41093
0.0467566
3.41271
0.125147
3.41378
0.227027
3.41551
0.323414
3.59731
-0.0817509
3.60038
-0.0217007
3.60274
0.0443938
3.60457
0.123326
3.60539
0.226204
3.60694
0.32186
3.80014
-0.0855215
3.80313
-0.0246927
3.8055
0.0420326
3.80729
0.121532
3.80786
0.225639
3.80933
0.320383
4.01454
-0.0893565
4.01756
-0.0277189
4.01976
0.0398396
4.02133
0.119955
4.0218
0.225173
4.02309
0.319093
4.24089
-0.0930313
4.24385
-0.0306783
4.24611
0.0375802
4.24741
0.118654
4.24767
0.224911
4.24863
0.318128
4.48007
-0.0969415
4.48289
-0.0335012
4.48485
0.0356177
4.48614
0.117367
4.48619
0.22486
4.48709
0.31723
4.73238
-0.100762
4.73518
-0.0362981
4.73727
0.0335286
4.73829
0.116347
4.73804
0.225106
4.73864
0.316627
4.99893
-0.104748
5.00176
-0.0391336
5.00359
0.0317041
5.00453
0.115408
5.00402
0.225607
5.00433
0.316326
5.28029
-0.108694
5.28304
-0.041886
5.28481
0.0299398
5.28552
0.114691
5.28477
0.226365
5.28492
0.316172
5.57723
-0.112634
5.57995
-0.0446056
5.58151
0.0283738
5.5822
0.114007
5.5811
0.227461
5.581
0.316278
5.88655
-0.186119
5.89066
-0.116741
5.89335
-0.047297
5.89502
0.0267031
5.89532
0.113701
5.89405
0.228733
5.89356
0.316768
6.21736
-0.192123
6.2214
-0.120773
6.22412
-0.0500264
6.22568
0.0251452
6.22588
0.113501
6.22422
0.230402
6.22353
0.317451
6.56619
-0.198281
6.57045
-0.12503
6.57324
-0.0528136
6.57448
0.0239026
6.57461
0.113369
6.57263
0.232383
6.57171
0.318366
6.93437
-0.204758
6.9389
-0.129562
6.94167
-0.0555825
6.94287
0.0227017
6.94286
0.113381
6.93967
0.235576
6.93887
0.319161
7.3225
-0.212242
7.32658
-0.13364
7.32885
-0.0578594
7.32992
0.0216347
7.33043
0.112866
7.3284
0.237611
7.32595
0.321608
7.73053
-0.217972
7.73535
-0.138457
7.73831
-0.0608221
7.74006
0.019888
7.73875
0.114172
7.73624
0.24012
7.7351
0.322751
5.66328
-0.245998
5.69467
-0.169843
5.731
-0.097156
5.77027
-0.0193817
5.81694
0.0675077
5.87525
0.181811
5.92677
0.271227
6.23302
-0.277818
6.26815
-0.204976
6.30566
-0.134669
6.34997
-0.0636869
6.40177
0.0157119
6.46549
0.118089
6.52316
0.213555
6.85858
-0.31227
6.89759
-0.243983
6.9402
-0.177287
6.98967
-0.113156
7.04547
-0.0400849
7.11602
0.0475408
7.17737
0.152206
7.54899
-0.349484
7.59069
-0.285684
7.63729
-0.223894
7.69076
-0.166625
7.75322
-0.102538
7.82953
-0.0287688
7.89971
0.082019
8.26553
-0.457618
8.3082
-0.39216
8.35277
-0.330249
8.406
-0.27713
8.4636
-0.224218
8.53291
-0.171853
8.61763
-0.113494
8.69301
0.00664824
9.09688
-0.497969
9.1426
-0.437882
9.19396
-0.38161
9.24888
-0.332046
9.31462
-0.289954
9.38961
-0.246848
9.48177
-0.205656
9.56627
-0.0778496
10.0108
-0.542869
10.0597
-0.486793
10.1155
-0.43734
10.1786
-0.395144
10.2487
-0.360073
10.3307
-0.328923
10.4342
-0.309078
10.5252
-0.168874
11.0154
-0.592461
11.0702
-0.541568
11.1317
-0.498869
11.1993
-0.462728
11.2765
-0.437312
11.3673
-0.419633
11.4801
-0.421869
11.5808
-0.269662
12.1165
-0.646634
12.177
-0.602095
12.2429
-0.564783
12.3174
-0.537215
12.4028
-0.522742
12.5017
-0.518504
12.6235
-0.543649
12.7322
-0.378341
13.3268
-0.704748
13.3923
-0.667637
13.4657
-0.638158
13.5476
-0.619085
13.6406
-0.61577
13.7504
-0.628342
13.889
-0.682171
14.0119
-0.501274
14.6507
-0.768882
14.7223
-0.739295
14.8018
-0.71768
14.8911
-0.708384
14.9937
-0.718328
15.1115
-0.746195
15.2532
-0.823871
15.3794
-0.627409
16.1469
-0.841506
16.2278
-0.820164
16.3187
-0.808579
16.4194
-0.809143
16.5337
-0.832621
16.6716
-0.884065
16.8497
-1.00203
17.0084
-0.786107
17.778
17.8663
17.9634
18.0722
18.1952
18.3326
18.4903
18.6388
-0.178839
0.177435
-0.19134
0.207891
-0.204079
0.227622
-0.215788
0.24426
-0.226769
0.259596
-0.237119
0.274515
-0.24692
0.289907
-0.256126
0.30623
-0.264718
0.323538
-0.272681
0.341831
-0.280043
0.361241
-0.28678
0.38175
-0.292914
0.403456
-0.298463
0.426411
-0.303449
0.450684
-0.307892
0.476371
-0.311857
0.503513
-0.315349
0.532211
-0.318425
0.562542
-0.321128
0.594577
-0.323509
0.628417
-0.325614
0.664192
-0.327493
0.701932
-0.329195
0.741781
-0.330765
0.783848
-0.332245
0.828267
-0.333676
0.875076
-0.335093
0.924545
-0.336529
0.976774
-0.33801
1.03184
-0.339562
1.08974
-0.341193
1.1511
-0.342956
1.21583
-0.34483
1.28389
-0.346837
1.35596
-0.348987
1.43178
-0.351285
1.51199
-0.353733
1.59647
-0.356332
1.68577
-0.35908
1.78
-0.36197
1.87945
-0.364996
1.98439
-0.368147
2.09522
-0.371399
2.21236
-0.374763
2.33595
-0.378223
2.46641
-0.381736
2.60424
-0.385299
2.74991
-0.388892
2.90369
-0.392498
3.06624
-0.396099
3.23772
-0.399677
3.41909
-0.403215
3.61048
-0.406697
3.81282
-0.410109
4.0265
-0.413437
4.25196
-0.416669
4.49032
-0.419798
4.74177
-0.422816
5.00734
-0.425719
5.28782
-0.42849
5.58377
-0.431167
5.89624
-0.433704
6.22607
-0.43611
6.57412
-0.438383
6.94115
-0.440525
7.3281
-0.44254
7.73711
-0.443925
5.92816
-0.445316
6.52455
-0.446691
7.17874
-0.44809
7.90111
-0.449459
8.69437
-0.450788
9.5676
-0.452066
10.5265
-0.4531
11.5819
-0.454209
12.7333
-0.454332
14.012
-0.457141
15.3822
-0.455333
17.0066
18.6481
-0.192724
0.191204
-0.200594
0.215761
-0.206962
0.23399
-0.211911
0.249209
-0.216158
0.263844
-0.220404
0.278761
-0.224966
0.294469
-0.229844
0.311108
-0.235
0.328694
-0.240402
0.347233
-0.245985
0.366824
-0.251737
0.387502
-0.257605
0.409324
-0.263544
0.43235
-0.269509
0.456649
-0.275466
0.482328
-0.281341
0.509389
-0.287123
0.537993
-0.292766
0.568185
-0.298238
0.600049
-0.303514
0.633692
-0.308573
0.669251
-0.313404
0.706762
-0.318002
0.746379
-0.322367
0.788214
-0.326509
0.832409
-0.330442
0.879009
-0.334185
0.928288
-0.33776
0.980349
-0.341192
1.03527
-0.344509
1.09305
-0.347749
1.15434
-0.350905
1.21899
-0.354037
1.28702
-0.357158
1.35908
-0.360287
1.43491
-0.363444
1.51514
-0.366644
1.59968
-0.3699
1.68903
-0.373221
1.78332
-0.376613
1.88284
-0.380077
1.98786
-0.383614
2.09876
-0.387233
2.21598
-0.390903
2.33962
-0.394615
2.47012
-0.398384
2.60801
-0.402187
2.75371
-0.406009
2.90751
-0.409836
3.07007
-0.413654
3.24154
-0.417447
3.42288
-0.421201
3.61423
-0.424899
3.81651
-0.428528
4.03013
-0.432074
4.25551
-0.43554
4.49379
-0.438888
4.74512
-0.442112
5.01057
-0.445234
5.29095
-0.448251
5.58678
-0.451112
5.8991
-0.453858
6.22881
-0.456483
6.57675
-0.458941
6.9436
-0.461275
7.33043
-0.463476
7.73931
-0.465008
5.92969
-0.466519
6.52606
-0.468064
7.18029
-0.469575
7.90262
-0.471088
8.69589
-0.472562
9.56907
-0.473986
10.5279
-0.47515
11.583
-0.476411
12.7345
-0.476661
14.0123
-0.479738
15.3853
-0.478456
17.0053
18.6576
-0.221887
0.203318
-0.229775
0.223649
-0.235888
0.240102
-0.240891
0.254213
-0.245408
0.26836
-0.249812
0.283165
-0.254182
0.298839
-0.258509
0.315435
-0.262765
0.332949
-0.266976
0.351444
-0.271153
0.371001
-0.27529
0.391639
-0.279407
0.41344
-0.283505
0.436449
-0.287614
0.460758
-0.291734
0.486448
-0.295883
0.513537
-0.300038
0.542147
-0.304229
0.572376
-0.308447
0.604267
-0.312697
0.637943
-0.316944
0.673498
-0.321208
0.711027
-0.32548
0.750651
-0.329727
0.792461
-0.333937
0.836619
-0.338121
0.883193
-0.342259
0.932426
-0.346345
0.984435
-0.350376
1.0393
-0.354348
1.09703
-0.358267
1.15826
-0.362136
1.22286
-0.365975
1.29086
-0.36977
1.36288
-0.373543
1.43868
-0.377306
1.51891
-0.381069
1.60344
-0.384832
1.69279
-0.388639
1.78713
-0.392449
1.88665
-0.396304
1.99171
-0.400208
2.10266
-0.404123
2.21989
-0.408086
2.34358
-0.412081
2.47411
-0.416115
2.61205
-0.420153
2.75775
-0.4242
2.91156
-0.428231
3.0741
-0.432261
3.24557
-0.436278
3.4269
-0.440227
3.61818
-0.444135
3.82042
-0.447989
4.03399
-0.451733
4.25925
-0.455398
4.49745
-0.458962
4.74868
-0.462415
5.01402
-0.465754
5.29428
-0.468972
5.59
-0.472062
5.90219
-0.475018
6.23177
-0.477836
6.57956
-0.480526
6.94629
-0.483058
7.33296
-0.485436
7.74169
-0.487089
5.93134
-0.488772
6.52774
-0.490431
7.18195
-0.492121
7.90431
-0.493771
8.69754
-0.495413
9.57072
-0.496997
10.5295
-0.498287
11.5843
-0.499731
12.736
-0.500066
14.0126
-0.503512
15.3887
-0.50257
17.0044
18.6674
-0.250585
0.211599
-0.255946
0.22901
-0.259692
0.243848
-0.262933
0.257453
-0.266181
0.271608
-0.269581
0.286565
-0.273121
0.302378
-0.276771
0.319085
-0.280517
0.336695
-0.284344
0.355271
-0.28824
0.374898
-0.292192
0.395591
-0.296187
0.417435
-0.300213
0.440474
-0.304267
0.464812
-0.308314
0.490495
-0.312371
0.517595
-0.316426
0.546202
-0.320473
0.576424
-0.324512
0.608306
-0.328543
0.641973
-0.332576
0.677532
-0.336585
0.715036
-0.340603
0.754668
-0.344623
0.79648
-0.348647
0.840643
-0.352677
0.887223
-0.356715
0.936464
-0.360762
0.988481
-0.364816
1.04335
-0.368875
1.10109
-0.37294
1.16232
-0.37701
1.22693
-0.381082
1.29493
-0.385157
1.36695
-0.389236
1.44276
-0.39332
1.52299
-0.397412
1.60753
-0.401527
1.6969
-0.405632
1.79123
-0.409765
1.89079
-0.413918
1.99586
-0.418091
2.10684
-0.422285
2.22409
-0.4265
2.34779
-0.430732
2.47835
-0.434978
2.61629
-0.439232
2.76201
-0.443488
2.91581
-0.447736
3.07835
-0.451966
3.2498
-0.456168
3.4311
-0.46033
3.62234
-0.464439
3.82453
-0.468481
4.03803
-0.472459
4.26323
-0.476318
4.50131
-0.480092
4.75246
-0.483773
5.0177
-0.487326
5.29784
-0.490744
5.59342
-0.494049
5.9055
-0.497219
6.23494
-0.500248
6.58259
-0.50313
6.94918
-0.505866
7.3357
-0.508459
7.74429
-0.510255
5.93314
-0.51207
6.52956
-0.513897
7.18377
-0.515731
7.90615
-0.517558
8.69937
-0.51935
9.57251
-0.521099
10.5312
-0.522544
11.5858
-0.52417
12.7376
-0.524677
14.0131
-0.528382
15.3924
-0.527997
17.004
18.6773
-0.286274
0.217465
-0.289767
0.232504
-0.291939
0.24602
-0.293933
0.259447
-0.296041
0.273715
-0.298289
0.288813
-0.300634
0.304724
-0.3031
0.32155
-0.30568
0.339275
-0.308378
0.357969
-0.311199
0.377718
-0.314142
0.398534
-0.317208
0.420501
-0.320404
0.44367
-0.323699
0.468107
-0.327115
0.493911
-0.330638
0.521118
-0.334259
0.549823
-0.33797
0.580134
-0.341761
0.612096
-0.345621
0.645833
-0.349541
0.681452
-0.353511
0.719006
-0.357523
0.75868
-0.361568
0.800525
-0.36564
0.844716
-0.369735
0.891318
-0.373849
0.940578
-0.377979
0.992612
-0.382125
1.0475
-0.386285
1.10525
-0.39046
1.1665
-0.394651
1.23112
-0.398857
1.29914
-0.40308
1.37117
-0.40732
1.447
-0.411577
1.52725
-0.415854
1.61181
-0.420149
1.7012
-0.424463
1.79554
-0.428797
1.89512
-0.433163
2.00023
-0.437523
2.1112
-0.441914
2.22848
-0.446321
2.3522
-0.450741
2.48277
-0.455172
2.62072
-0.459608
2.76644
-0.464042
2.92025
-0.468468
3.08278
-0.472891
3.25423
-0.47726
3.43547
-0.481604
3.62669
-0.485898
3.82882
-0.49013
4.04226
-0.494287
4.26739
-0.498359
4.50538
-0.502335
4.75643
-0.506208
5.02158
-0.509971
5.3016
-0.513615
5.59706
-0.517148
5.90903
-0.520517
6.23831
-0.523758
6.58583
-0.526851
6.95227
-0.529796
7.33864
-0.532595
7.74708
-0.534539
5.93508
-0.536508
6.53153
-0.538497
7.18576
-0.540496
7.90815
-0.542496
8.70137
-0.544464
9.57448
-0.546385
10.5331
-0.548009
11.5874
-0.549789
12.7394
-0.550563
14.0139
-0.554429
15.3963
-0.554751
-0.323394
0.221325
-0.325506
0.234616
-0.326998
0.247512
-0.328583
0.261033
-0.330281
0.275413
-0.332056
0.290588
-0.333926
0.306593
-0.335856
0.32348
-0.337886
0.341304
-0.33999
0.360074
-0.342173
0.379901
-0.344455
0.400816
-0.346831
0.422876
-0.349303
0.446142
-0.351876
0.47068
-0.354552
0.496587
-0.357335
0.5239
-0.360235
0.552723
-0.363236
0.583135
-0.366346
0.615207
-0.369556
0.649043
-0.372885
0.68478
-0.376329
0.722449
-0.379853
0.762204
-0.383483
0.804156
-0.387214
0.848446
-0.391017
0.895121
-0.394897
0.944457
-0.398845
0.99656
-0.402855
1.05151
-0.40692
1.10931
-0.411036
1.17061
-0.415197
1.23528
-0.419388
1.30333
-0.423628
1.37541
-0.427904
1.45127
-0.432214
1.53156
-0.436556
1.61615
-0.44093
1.70557
-0.445334
1.79995
-0.449779
1.89957
-0.454227
2.00468
-0.458714
2.11568
-0.463236
2.233
-0.467767
2.35673
-0.472316
2.48731
-0.476865
2.62527
-0.481436
2.77101
-0.48601
2.92482
-0.490593
3.08736
-0.495136
3.25877
-0.499671
3.44
-0.504187
3.6312
-0.508645
3.83328
-0.513034
4.04665
-0.517368
4.27172
-0.521623
4.50964
-0.525789
4.7606
-0.529857
5.02564
-0.533821
5.30556
-0.537671
5.60092
-0.541398
5.91276
-0.545007
6.24192
-0.548445
6.58927
-0.55175
6.95558
-0.554906
7.3418
-0.55793
7.75011
-0.560011
5.93716
-0.56214
6.53366
-0.564295
7.18792
-0.566469
7.91032
-0.568665
8.70356
-0.570804
9.57661
-0.572908
10.5353
-0.574724
11.5892
-0.576687
12.7413
-0.577729
-0.360663
0.223412
-0.36186
0.235813
-0.363014
0.248666
-0.36432
0.262338
-0.3657
0.276793
-0.367149
0.292037
-0.368665
0.30811
-0.370253
0.325068
-0.371915
0.342966
-0.373654
0.361813
-0.375472
0.381719
-0.377372
0.402716
-0.379355
0.42486
-0.381424
0.448211
-0.383581
0.472836
-0.385827
0.498834
-0.388165
0.526238
-0.390597
0.555155
-0.393124
0.585662
-0.395749
0.617831
-0.398473
0.651767
-0.401298
0.687605
-0.404226
0.725377
-0.407257
0.765235
-0.410393
0.807292
-0.413634
0.851687
-0.416979
0.898466
-0.420426
0.947905
-0.423975
1.00011
-0.427621
1.05516
-0.43136
1.11305
-0.43519
1.17444
-0.439104
1.23919
-0.443098
1.30732
-0.447167
1.37948
-0.451305
1.45541
-0.455509
1.53576
-0.459773
1.62041
-0.464094
1.70989
-0.468467
1.80432
-0.472889
1.90399
-0.477356
2.00914
-0.481865
2.12019
-0.486411
2.23755
-0.490991
2.36131
-0.4956
2.49192
-0.500233
2.6299
-0.504885
2.77567
-0.50955
2.92948
-0.514219
3.09203
-0.518885
3.26344
-0.523539
3.44465
-0.528169
3.63583
-0.532764
3.83788
-0.537313
4.0512
-0.541802
4.27621
-0.546221
4.51406
-0.550561
4.76494
-0.554811
5.02989
-0.558964
5.30972
-0.563024
5.60498
-0.566938
5.91667
-0.570738
6.24572
-0.574399
6.59293
-0.577915
6.95909
-0.581283
7.34517
-0.584504
7.75333
-0.586755
5.93941
-0.589049
6.53595
-0.591376
7.19024
-0.593732
7.91268
-0.596101
8.70593
-0.598452
9.57897
-0.600749
10.5375
-0.602767
-0.398649
0.224414
-0.39947
0.236634
-0.400439
0.249635
-0.40149
0.26339
-0.402589
0.277892
-0.403742
0.29319
-0.404952
0.30932
-0.406233
0.326349
-0.407558
0.344291
-0.408961
0.363215
-0.410444
0.383202
-0.411991
0.404263
-0.413616
0.426484
-0.415311
0.449906
-0.4171
0.474625
-0.418986
0.50072
-0.420952
0.528204
-0.422999
0.557202
-0.425152
0.587815
-0.427402
0.620081
-0.429762
0.654127
-0.432201
0.690045
-0.434754
0.72793
-0.43742
0.767902
-0.440181
0.810052
-0.443036
0.854543
-0.446009
0.901438
-0.449088
0.950984
-0.452274
1.00329
-0.455567
1.05845
-0.458966
1.11645
-0.462469
1.17794
-0.466076
1.2428
-0.469795
1.31104
-0.473602
1.38329
-0.477503
1.45931
-0.481495
1.53975
-0.485575
1.62449
-0.489725
1.71404
-0.493977
1.80857
-0.498278
1.90829
-0.502659
2.01352
-0.507116
2.12465
-0.511606
2.24203
-0.516161
2.36587
-0.520762
2.49652
-0.525416
2.63456
-0.530092
2.78034
-0.534795
2.93419
-0.539504
3.09674
-0.544237
3.26817
-0.548984
3.4494
-0.553693
3.64054
-0.558393
3.84258
-0.563073
4.05588
-0.567677
4.28081
-0.572252
4.51863
-0.576744
4.76943
-0.581144
5.0343
-0.585471
5.31404
-0.5897
5.6092
-0.593819
5.92079
-0.597816
6.24971
-0.601695
6.59681
-0.605418
6.96282
-0.608998
7.34875
-0.612418
7.75675
-0.614841
5.94184
-0.617302
6.53841
-0.619807
7.19275
-0.62235
7.91522
-0.624901
-0.627472
-0.437593
0.225027
-0.438335
0.237376
-0.439145
0.250444
-0.440001
0.264246
-0.440896
0.278787
-0.441846
0.29414
-0.442822
0.310296
-0.443859
0.327386
-0.44495
0.345382
-0.446096
0.364362
-0.447302
0.384408
-0.448571
0.405531
-0.449905
0.427819
-0.451319
0.451321
-0.452796
0.476102
-0.45434
0.502263
-0.455974
0.529838
-0.457693
0.558921
-0.4595
0.589622
-0.461399
0.62198
-0.463394
0.656121
-0.465498
0.692149
-0.467682
0.730114
-0.469981
0.770202
-0.472388
0.812459
-0.474904
0.857058
-0.477531
0.904065
-0.48027
0.953723
-0.483122
1.00615
-0.486088
1.06141
-0.489179
1.11954
-0.492361
1.18113
-0.495668
1.24611
-0.499086
1.31446
-0.502616
1.38682
-0.506255
1.46295
-0.510001
1.5435
-0.513851
1.62834
-0.517814
1.71801
-0.521851
1.81261
-0.526006
1.91244
-0.530237
2.01776
-0.534539
2.12895
-0.538932
2.24643
-0.543398
2.37033
-0.54793
2.50106
-0.552522
2.63915
-0.557167
2.78499
-0.561857
2.93888
-0.566584
3.10146
-0.571352
3.27294
-0.576109
3.45416
-0.5809
3.64533
-0.58567
3.84735
-0.590407
4.06061
-0.59514
4.28555
-0.599802
4.5233
-0.604423
4.77405
-0.608995
5.03887
-0.613478
5.31853
-0.617859
5.61359
-0.622171
5.9251
-0.62634
6.25388
-0.630399
6.60087
-0.634324
6.96674
-0.638111
7.35253
-0.641774
-0.644325
-0.646955
-0.649642
-0.477646
0.225595
-0.478296
0.238027
-0.47899
0.251137
-0.479699
0.264955
-0.480444
0.279532
-0.481216
0.294912
-0.48205
0.31113
-0.482904
0.328241
-0.483825
0.346303
-0.484783
0.36532
-0.485781
0.385406
-0.486843
0.406593
-0.487962
0.428937
-0.48914
0.452499
-0.490382
0.477344
-0.49169
0.503571
-0.493069
0.531217
-0.494534
0.560386
-0.496065
0.591153
-0.497679
0.623594
-0.499367
0.65781
-0.501157
0.693938
-0.503052
0.732008
-0.505022
0.772172
-0.507105
0.814542
-0.509304
0.859258
-0.511601
0.906362
-0.514009
0.956131
-0.516532
1.00867
-0.519171
1.06405
-0.521916
1.12228
-0.524804
1.18401
-0.527802
1.2491
-0.530908
1.31757
-0.534146
1.39006
-0.537505
1.46631
-0.540983
1.54698
-0.544578
1.63194
-0.548288
1.72172
-0.552111
1.81643
-0.556044
1.91638
-0.560082
2.02179
-0.564221
2.13309
-0.56847
2.25068
-0.572798
2.37466
-0.577212
2.50547
-0.581691
2.64363
-0.586256
2.78955
-0.590886
2.94351
-0.595585
3.10616
-0.600303
3.27765
-0.605071
3.45893
-0.609863
3.65013
-0.614667
3.85215
-0.619469
4.06541
-0.624256
4.29033
-0.629017
4.52806
-0.633742
4.77878
-0.638418
5.04354
-0.643035
5.32314
-0.647595
5.61815
-0.652039
-0.65641
-0.660639
-0.664758
-0.518903
0.226116
-0.519453
0.238576
-0.520011
0.251695
-0.520607
0.265552
-0.521234
0.280159
-0.521904
0.295582
-0.522586
0.311812
-0.523326
0.328981
-0.524083
0.34706
-0.524892
0.366129
-0.525755
0.386269
-0.526653
0.407492
-0.527601
0.429885
-0.52859
0.453488
-0.529657
0.478411
-0.530771
0.504686
-0.531947
0.532394
-0.533178
0.561617
-0.534491
0.592466
-0.535876
0.624979
-0.537351
0.659284
-0.538896
0.695483
-0.540515
0.733627
-0.542247
0.773904
-0.54406
0.816356
-0.54596
0.861158
-0.547973
0.908375
-0.550092
0.95825
-0.55232
1.0109
-0.55466
1.06639
-0.557116
1.12474
-0.559691
1.18659
-0.562388
1.2518
-0.565219
1.3204
-0.568164
1.393
-0.571234
1.46938
-0.57443
1.55017
-0.577753
1.63526
-0.581202
1.72516
-0.584774
1.82001
-0.588456
1.92006
-0.592271
2.02561
-0.596214
2.13703
-0.600245
2.25471
-0.604397
2.37881
-0.608652
2.50973
-0.613018
2.648
-0.617462
2.794
-0.62199
2.94803
-0.62658
3.11075
-0.631249
3.28232
-0.635988
3.46367
-0.640744
3.65488
-0.645544
3.85695
-0.650376
-0.655199
-0.660016
-0.664815
-0.669571
-0.674314
-0.561426
0.226561
-0.561887
0.239037
-0.56238
0.252188
-0.562887
0.266058
-0.56342
0.280691
-0.563968
0.296131
-0.564569
0.312412
-0.565178
0.32959
-0.565843
0.347724
-0.566531
0.366818
-0.567246
0.386984
-0.568012
0.408258
-0.568821
0.430694
-0.569687
0.454354
-0.570579
0.479302
-0.571534
0.50564
-0.572544
0.533404
-0.573624
0.562697
-0.574754
0.593596
-0.57595
0.626176
-0.577205
0.660539
-0.578545
0.696823
-0.579974
0.735057
-0.581462
0.775392
-0.583048
0.817941
-0.584736
0.862846
-0.586507
0.910146
-0.588377
0.96012
-0.590349
1.01287
-0.592429
1.06847
-0.594619
1.12693
-0.596912
1.18888
-0.599347
1.25424
-0.601879
1.32293
-0.604547
1.39567
-0.607341
1.47217
-0.610263
1.5531
-0.613315
1.63831
-0.616498
1.72835
-0.619812
1.82332
-0.623269
1.92352
-0.626843
2.02918
-0.630531
-0.634358
-0.63832
-0.642388
-0.646556
-0.650846
-0.655238
-0.659737
-0.664309
-0.668942
-0.673667
-0.60536
-0.605742
-0.606156
-0.606591
-0.607048
-0.607528
-0.608034
-0.608579
-0.609129
-0.609721
-0.610346
-0.611017
-0.611715
-0.61244
-0.613219
-0.614056
-0.61493
-0.615843
-0.616824
-0.617863
-0.618977
-0.620133
-0.621371
-0.622683
-0.624086
-0.625548
-0.627109
-0.628762
-0.630511
-0.63236
-0.634314
-0.636389
-0.638553
-0.640846
-0.64326
-0.645797
-0.648462
-0.651269
-0.654182
-0.657242
-0.660436
)
;

boundaryField
{
    inlet
    {
        type            calculated;
        value           nonuniform List<scalar> 
13
(
-0.919757
-0.90841
-0.905726
-0.917927
-0.955591
-1.02152
-1.15972
-0.934637
-0.464631
-0.487908
-0.51236
-0.537884
-0.564599
)
;
    }
    outlet
    {
        type            calculated;
        value           nonuniform List<scalar> 0();
    }
    walls
    {
        type            calculated;
        value           uniform 0;
    }
    frontAndBack
    {
        type            empty;
    }
    procBoundary2to1
    {
        type            processor;
        value           nonuniform List<scalar> 
84
(
-0.206437
-0.232765
-0.25174
-0.268364
-0.282069
-0.297484
-0.313226
-0.330046
-0.347662
-0.366252
-0.385811
-0.406407
-0.428098
-0.450936
-0.475004
-0.500347
-0.527044
-0.555151
-0.584795
-0.616013
-0.648944
-0.683626
-0.720227
-0.758801
-0.799568
-0.84247
-0.887733
-0.935739
-0.986132
-1.03955
-1.096
-1.15552
-1.21837
-1.28507
-1.35528
-1.42976
-1.5083
-1.59155
-0.0257251
-1.67663
-1.7696
-1.86788
-1.97188
-2.08188
-2.19827
-2.32148
-2.45151
-2.58928
-2.73481
-2.88876
-3.05141
-3.22353
-3.40516
0.0778976
-3.59346
-3.79637
-4.0107
-4.23721
-4.47616
-4.72856
-4.99494
-5.27634
-5.57329
0.180481
-5.88091
-6.21136
-6.56003
-6.92789
-7.31501
-7.7248
-5.63526
-6.2012
-6.82413
-7.51177
0.420407
-8.22832
-9.05653
-9.96592
-10.9658
-12.0623
-13.2687
-14.5865
-16.0743
-17.6998
)
;
    }
    procBoundary2to3
    {
        type            processor;
        value           nonuniform List<scalar> 
88
(
17.0043
18.6871
14.0149
-0.581792
15.4003
11.5912
-0.6049
12.7435
8.70848
9.58154
-0.629972
10.5401
7.76041
5.94439
6.54104
7.19544
-0.652378
7.91795
5.92954
6.25826
6.6051
6.97086
-0.668748
7.35652
4.07025
4.29516
4.53287
4.78358
5.0483
5.32789
-0.678972
5.6228
2.14072
2.25854
2.38277
2.51379
2.65216
2.79829
2.95243
3.11525
3.2869
3.4683
3.65961
-0.678429
3.86172
0.226949
0.239419
0.252602
0.266493
0.281149
0.296612
0.312918
0.330135
0.348274
0.36741
0.387608
0.40893
0.431391
0.455079
0.480082
0.506477
0.534278
0.56361
0.594577
0.627215
0.661652
0.697979
0.736295
0.776704
0.819344
0.864308
0.911707
0.961772
1.01462
1.07032
1.12889
1.19096
1.2564
1.32522
1.39808
1.47471
1.55576
1.64112
1.73126
1.82638
1.92671
-0.663766
2.03251
)
;
    }
    procBoundary2to6
    {
        type            processor;
        value           nonuniform List<scalar> 
13
(
0.162617
0.178953
0.209772
0.242302
0.280407
0.319534
0.358575
0.397647
0.436981
0.477077
0.518382
0.560981
0.604972
)
;
    }
}


// ************************************************************************* //
