/*--------------------------------*- C++ -*----------------------------------*\
| =========                 |                                                 |
| \\      /  F ield         | OpenFOAM: The Open Source CFD Toolbox           |
|  \\    /   O peration     | Version:  2506                                  |
|   \\  /    A nd           | Website:  www.openfoam.com                      |
|    \\/     M anipulation  |                                                 |
\*---------------------------------------------------------------------------*/
FoamFile
{
    version     2.0;
    format      ascii;
    arch        "LSB;label=32;scalar=64";
    class       volScalarField;
    location    "300";
    object      magR;
}
// * * * * * * * * * * * * * * * * * * * * * * * * * * * * * * * * * * * * * //

dimensions      [0 2 -2 0 0 0 0];

internalField   nonuniform List<scalar> 
10720
(
0.0235471
0.0274726
0.0324889
0.039303
0.047376
0.0576523
0.0707926
0.0870697
0.107738
0.134108
0.168178
0.213159
0.2735
0.356519
0.474692
0.647613
0.913939
1.32429
2.04497
3.16621
5.69553
9.51481
22.2927
43.4813
48.1582
46.0682
45.2733
46.1079
47.1395
47.4032
46.7787
45.3845
43.1303
40.0448
36.0596
31.2684
24.7658
18.3057
4.26917
0.02004
0.0171955
0.0140068
0.011272
0.00868982
0.00636249
0.00448283
0.00335302
0.00350539
0.00474119
0.00705151
0.0106196
0.015873
0.0234879
0.0343255
0.0496979
0.0718007
0.10475
0.156157
0.239825
0.383205
0.636825
1.12062
2.05193
4.08222
8.34842
18.6589
38.4526
54.4946
61.3801
63.3335
63.6533
63.2869
62.3916
61.0138
59.2283
56.6168
53.5744
43.8806
0.003605
0.00358472
0.00354333
0.00344078
0.00328221
0.00309997
0.002885
0.00264329
0.00240411
0.00216962
0.00194602
0.0017909
0.00176982
0.00194485
0.00252631
0.0039761
0.0075995
0.0159301
0.038527
0.094444
0.279998
0.772647
2.37512
7.61738
14.9027
22.4053
29.4551
34.4506
35.441
32.5139
27.7083
22.8452
18.9006
15.8768
13.5538
11.7113
10.4235
9.08189
9.7506
0.00357252
0.00352437
0.00342564
0.00327917
0.00307874
0.00281433
0.00250394
0.0022028
0.00192422
0.00164775
0.00138463
0.00115681
0.000964356
0.000801145
0.000662834
0.000546315
0.000447481
0.000363863
0.000290607
0.000223735
0.000157661
9.31569e-05
3.22774e-05
5.26066e-06
1.33472e-05
0.00191478
0.010366
0.0836046
0.281646
0.55127
0.824194
1.06447
1.26644
1.44406
1.60988
1.78061
1.96113
2.36377
3.28789
0.00241998
0.00240091
0.00234681
0.00226401
0.00217744
0.00208228
0.00198608
0.00189958
0.00182521
0.0017675
0.00172286
0.00169731
0.00169061
0.00170525
0.0017098
0.00166278
0.00139683
0.0012605
0.000415977
0.00778434
0.0154164
0.000742969
0.00835153
0.0196264
0.22097
0.79082
2.02342
4.57013
9.02609
14.907
20.224
22.8351
22.3226
20.043
17.3889
14.8971
12.9446
10.7167
12.0403
0.00243885
0.00243582
0.00242934
0.00238608
0.00230933
0.0021805
0.00200286
0.0018
0.00161149
0.00141764
0.00120904
0.00100701
0.000826214
0.000670534
0.000541988
0.000438177
0.000357288
0.000295923
0.000251282
0.000219217
0.000197107
0.00018278
0.0001749
0.000170571
0.000170342
0.000169151
0.000179918
0.000106717
0.000755934
0.00501997
0.0142287
0.0299693
0.0675475
0.141358
0.250326
0.383738
0.528791
0.633052
1.08048
0.00204237
0.00204658
0.00203632
0.00201933
0.00198436
0.00193228
0.00186733
0.00178628
0.00169361
0.00159112
0.00148102
0.00136477
0.00124355
0.00111955
0.000993861
0.00086235
0.000728309
0.000620521
0.000477476
0.000262085
3.40411e-05
9.76641e-05
0
0.00483736
0.0260302
0.0524485
0.0733627
0.00178364
0.0422119
0.441641
1.95969
5.33861
10.0038
13.8783
15.5464
15.3202
14.4068
12.6093
13.5781
0.00202051
0.0019873
0.0019352
0.00187244
0.00179375
0.00169074
0.00157046
0.00144245
0.00130919
0.00116456
0.00101506
0.000874917
0.000751103
0.000644371
0.000554197
0.000478609
0.000416423
0.000365765
0.000325112
0.000292018
0.000265124
0.000242532
0.000222284
0.000200999
0.000179127
0.000160939
0.000147185
0.000137302
0.000125337
0.000109865
8.26149e-05
5.21164e-05
0.000415054
0.000705889
0.00263022
0.0141512
0.0466076
0.117978
0.429315
0.00153225
0.00152954
0.0015176
0.0014963
0.00146334
0.00141869
0.00136466
0.00130215
0.00123318
0.00116198
0.0010908
0.00102255
0.000960282
0.000905831
0.000860522
0.000822446
0.000782664
0.000730972
0.000682334
0.000609957
0.000484727
0.000289343
3.07228e-05
8.88368e-06
0
0
0
0.000981922
0.0273613
0.0120558
0.0353626
0.0652266
0.411626
2.40036
6.15828
9.97642
12.3881
12.8402
14.2917
0.00152829
0.00151746
0.00149596
0.00146148
0.00141288
0.00134405
0.00126167
0.00117321
0.00107889
0.000975361
0.000867687
0.000762309
0.000663326
0.000572492
0.000491019
0.000419408
0.000357843
0.000306055
0.000263439
0.000228682
0.000200628
0.000177752
0.000158427
0.000139993
0.000121264
0.000103986
9.02328e-05
8.07237e-05
7.6568e-05
7.07222e-05
8.65585e-05
2.0363e-05
0.000134562
0.000659437
0.000180298
0.000602075
0.0016473
0.00387878
0.0833102
0.00125595
0.0012613
0.0012608
0.00125629
0.00124395
0.00122395
0.00119717
0.00116253
0.00112078
0.00107301
0.00101962
0.000961945
0.000901307
0.000838766
0.000775425
0.000709781
0.000638278
0.000564655
0.000496957
0.000435935
0.000390654
0.000343935
0.000294542
0.000113706
1.47796e-05
7.65715e-06
3.41588e-06
2.02025e-07
0
0.0015294
0.00844395
0.0454895
0.00879173
0.111523
0.243704
2.28154
6.3671
10.2633
13.6354
0.00124456
0.00122883
0.00120596
0.00117576
0.00113701
0.00108608
0.00102745
0.00096454
0.000896153
0.000820567
0.000741377
0.000662536
0.000587123
0.000516853
0.00045296
0.000396227
0.000346914
0.000304882
0.000269624
0.000240259
0.000215745
0.000194784
0.000175933
0.000157179
0.000137705
0.000119162
0.000102998
8.94501e-05
7.80926e-05
6.86595e-05
6.05515e-05
5.31688e-05
4.23067e-05
2.99996e-05
1.66802e-05
7.60989e-05
0.000280961
0.000886164
0.00949332
0.00101597
0.00102043
0.00102114
0.00101857
0.00101047
0.000996413
0.000976763
0.000950907
0.000919144
0.000882298
0.00084103
0.000796327
0.000749565
0.000702132
0.000655111
0.000610078
0.000569233
0.000531187
0.000492309
0.000451849
0.000412448
0.000376338
0.000356372
0.000312677
0.000220781
0.000134603
5.11258e-05
2.50286e-06
4.30998e-06
3.69108e-07
0
0
0.00113751
0.0352189
0.0267021
0.157141
1.04494
5.23152
10.9367
0.00100762
0.000996348
0.000979919
0.000957258
0.000927925
0.000890261
0.00084791
0.000801768
0.000750957
0.000695249
0.000636658
0.000577478
0.000519435
0.000463796
0.0004116
0.000363667
0.000320466
0.000282282
0.000249109
0.00022056
0.000196073
0.000174847
0.000155821
0.000137546
0.000119239
0.000101886
8.66552e-05
7.38249e-05
6.31344e-05
5.44542e-05
4.7967e-05
4.37623e-05
4.13853e-05
3.80991e-05
2.74317e-05
8.23271e-06
1.45419e-06
7.86377e-08
0.000281885
0.000842071
0.000847848
0.000851243
0.000852616
0.000850281
0.000843893
0.000833727
0.000819041
0.000799779
0.00077641
0.000748885
0.000717738
0.000683543
0.000646912
0.000608469
0.000569
0.000528045
0.000484491
0.000440388
0.000398749
0.000361762
0.00033141
0.000309181
0.000295177
0.000272743
0.000233412
0.00018028
0.000123064
7.39255e-05
5.82029e-06
3.52184e-06
1.29075e-07
0
0
0.00385441
0.0663792
0.121923
1.18821
6.54942
0.000833413
0.000823023
0.000809071
0.000790573
0.000767346
0.000738587
0.000707171
0.000672556
0.000634213
0.000592598
0.000548685
0.000503845
0.000459128
0.000415446
0.000373614
0.000334429
0.000298423
0.000266011
0.000237342
0.000212262
0.000190367
0.000171038
0.000153439
0.000136472
0.000119551
0.000103398
8.89125e-05
7.63507e-05
6.54214e-05
5.58809e-05
4.76858e-05
4.06928e-05
3.46742e-05
2.95094e-05
2.57858e-05
2.15246e-05
1.57457e-05
1.83015e-06
1.94598e-05
0.000702427
0.000707985
0.000712014
0.00071452
0.000714416
0.000711366
0.0007054
0.000695865
0.000682676
0.000665983
0.000645721
0.000622157
0.000595711
0.000566825
0.000536091
0.000504071
0.000471421
0.000439454
0.000408271
0.000377841
0.000348705
0.00032208
0.00029822
0.000277391
0.000256956
0.000232683
0.00020617
0.000177125
0.000149634
0.000107273
6.96143e-05
2.59271e-06
1.85306e-06
0
0
0
0.0382534
0.162497
2.60345
0.000694848
0.000686077
0.000674721
0.000659643
0.000641249
0.000619074
0.000595153
0.000568654
0.000539374
0.000507871
0.00047464
0.000440408
0.000405879
0.000371563
0.000338031
0.000305914
0.000275712
0.000247782
0.000222397
0.000199598
0.000179207
0.000160837
0.0001439
0.000127648
0.000111699
9.64946e-05
8.27566e-05
7.08084e-05
6.04526e-05
5.15227e-05
4.40048e-05
3.7912e-05
3.32586e-05
3.00272e-05
2.81572e-05
2.84442e-05
3.05168e-05
3.24651e-05
1.22037e-06
0.000592162
0.000597602
0.00060214
0.000605623
0.000607248
0.000606838
0.000604315
0.000599099
0.000591147
0.000580432
0.000566787
0.000550315
0.000531253
0.000509808
0.000486282
0.000461058
0.000434625
0.000406978
0.000378266
0.000349741
0.00032292
0.000298946
0.00027784
0.000257788
0.000236467
0.000212728
0.000188831
0.000167654
0.00015092
0.000136972
0.000122991
8.88421e-05
3.71648e-05
3.30025e-06
0
0
4.91205e-06
0.00292545
0.678485
0.000585213
0.000577577
0.000568039
0.000555493
0.00054069
0.000523372
0.000504741
0.000484104
0.00046151
0.000437392
0.000411952
0.000385654
0.000358884
0.000331878
0.000305079
0.000278965
0.000253859
0.000230191
0.000208213
0.000188065
0.000169683
0.000152848
0.000137159
0.000122108
0.000107406
9.33902e-05
8.06213e-05
6.93603e-05
5.94946e-05
5.08554e-05
4.33886e-05
3.70353e-05
3.17614e-05
2.76128e-05
2.45631e-05
2.39466e-05
2.35731e-05
3.97353e-05
1.64577e-05
0.000502765
0.000507861
0.000512401
0.000516265
0.000518733
0.000519723
0.00051914
0.000516518
0.00051172
0.000504733
0.0004953
0.000483473
0.000469347
0.000452962
0.000434622
0.000414542
0.000393046
0.000370627
0.000347791
0.000324989
0.000302945
0.000282278
0.000263171
0.000244541
0.000224321
0.000201606
0.000177998
0.000156776
0.000139748
0.000127376
0.000118088
0.000112525
9.84338e-05
5.7085e-05
3.78754e-06
0
0
0.00358026
0.175124
0.000496535
0.000489927
0.000481911
0.000471429
0.000459357
0.000445668
0.000430886
0.000414602
0.000396989
0.000378327
0.000358656
0.000338318
0.00031746
0.000296223
0.000274841
0.000253627
0.000232864
0.00021286
0.000193885
0.000176095
0.000159512
0.000144051
0.000129452
0.0001154
0.000101733
8.86935e-05
7.67319e-05
6.6078e-05
5.67104e-05
4.84921e-05
4.14007e-05
3.54442e-05
3.06366e-05
2.70232e-05
2.45559e-05
2.42476e-05
2.41266e-05
3.42692e-05
4.26889e-05
0.000429745
0.000434469
0.000438938
0.000442894
0.000445861
0.000447788
0.000448535
0.000447757
0.000445284
0.000441085
0.000434935
0.000426812
0.000416696
0.000404633
0.000390745
0.000375153
0.000358139
0.00034002
0.000320946
0.000301304
0.000282008
0.000263683
0.000246516
0.000229719
0.00021167
0.000191469
0.000170137
0.000150224
0.000133397
0.000119925
0.000108901
0.000101803
9.83929e-05
9.4693e-05
6.18884e-05
3.04532e-06
0
0.00100016
0.060649
0.000424195
0.000418389
0.000411608
0.000402756
0.000392805
0.000381834
0.000369963
0.000356944
0.000343067
0.000328465
0.000313153
0.000297309
0.000280994
0.00026423
0.000247165
0.000229994
0.000212903
0.000196109
0.000179846
0.00016429
0.000149536
0.00013554
0.000122156
0.000109207
9.66288e-05
8.46197e-05
7.35232e-05
6.35443e-05
5.4695e-05
4.68924e-05
4.01033e-05
3.43406e-05
2.95446e-05
2.58113e-05
2.31826e-05
2.24862e-05
2.27349e-05
2.92282e-05
4.66974e-05
0.000369402
0.000373744
0.00037798
0.000381869
0.000385037
0.000387468
0.000389024
0.000389406
0.000388474
0.000386168
0.000382277
0.000376796
0.000369632
0.000360736
0.000350199
0.000338124
0.000324616
0.000310013
0.000294502
0.000278395
0.000262234
0.00024647
0.000231246
0.00021605
0.000199824
0.000181849
0.000162881
0.000144814
0.000129173
0.000116051
0.000104836
9.55144e-05
8.90149e-05
8.65295e-05
9.11998e-05
4.66645e-05
7.43005e-08
0.00031736
0.0201114
0.000364455
0.000359346
0.000353547
0.000346079
0.000337792
0.000328869
0.000319231
0.000308711
0.000297683
0.000286163
0.00027413
0.000261682
0.000248864
0.0002356
0.000221972
0.000208089
0.000194051
0.000180025
0.000166185
0.000152681
0.000139627
0.000127022
0.000114807
0.000102925
9.13681e-05
8.0304e-05
7.00076e-05
6.06752e-05
5.23306e-05
4.49278e-05
3.84624e-05
3.29507e-05
2.83917e-05
2.48516e-05
2.23616e-05
2.16235e-05
2.19372e-05
2.69069e-05
4.29116e-05
0.000319089
0.000323064
0.000327038
0.000330777
0.000333985
0.000336682
0.000338724
0.000339837
0.000339981
0.000339014
0.000336799
0.000333264
0.000328333
0.000321969
0.00031416
0.000304946
0.000294406
0.000282782
0.000270206
0.000256871
0.000243141
0.000229517
0.000216099
0.000202549
0.000188099
0.000172208
0.000155402
0.000139185
0.000124874
0.000112664
0.000102128
9.29125e-05
8.51942e-05
7.9472e-05
7.81882e-05
9.34643e-05
1.40586e-07
3.23542e-05
0.00509215
0.000314651
0.000310187
0.000305187
0.000298848
0.000291915
0.000284561
0.000276612
0.000268077
0.000259227
0.000250044
0.000240512
0.0002307
0.000220548
0.000210023
0.000199141
0.000187925
0.000176412
0.000164743
0.000153036
0.0001414
0.000129922
0.000118659
0.000107618
9.67958e-05
8.62321e-05
7.6093e-05
6.65893e-05
5.79e-05
5.00738e-05
4.3084e-05
3.69414e-05
3.16566e-05
2.72507e-05
2.37842e-05
2.12799e-05
2.04279e-05
2.06112e-05
2.4914e-05
3.86039e-05
0.000276826
0.000280435
0.000284124
0.000287647
0.000290786
0.000293575
0.000295874
0.000297477
0.000298308
0.000298257
0.000297231
0.000295108
0.000291851
0.000287373
0.000281648
0.000274692
0.000266548
0.000257351
0.00024725
0.000236359
0.000224902
0.000213296
0.000201626
0.000189647
0.000176846
0.000162816
0.000147957
0.000133434
0.000120359
0.000109052
9.92294e-05
9.06768e-05
8.31805e-05
7.75546e-05
6.97758e-05
8.74746e-05
4.43249e-05
4.80585e-07
0.000366664
0.000272859
0.00026892
0.000264591
0.000259158
0.000253334
0.000247197
0.000240603
0.000233618
0.000226442
0.000219073
0.000211478
0.000203652
0.000195598
0.000187225
0.00017849
0.00016942
0.000160019
0.00015035
0.000140465
0.000130473
0.000120461
0.000110491
0.000100578
9.07671e-05
8.11486e-05
7.18679e-05
6.31259e-05
5.50614e-05
4.77273e-05
4.11599e-05
3.53301e-05
3.0303e-05
2.60682e-05
2.27212e-05
2.02725e-05
1.93458e-05
1.94132e-05
2.30485e-05
3.48178e-05
0.000241066
0.000244345
0.00024773
0.000251016
0.000254021
0.000256807
0.000259226
0.000261101
0.000262374
0.000262981
0.000262763
0.000261685
0.000259675
0.000256619
0.000252539
0.000247399
0.000241192
0.000233988
0.000225953
0.000217121
0.000207603
0.000197758
0.000187668
0.000177191
0.000165943
0.000153622
0.000140545
0.000127591
0.000115715
0.000105265
9.61015e-05
8.81144e-05
8.10896e-05
7.58907e-05
6.9083e-05
6.9937e-05
8.30048e-05
1.72553e-07
2.57788e-05
0.00023752
0.000234026
0.000230263
0.000225601
0.000220669
0.000215501
0.000209988
0.000204213
0.000198362
0.00019239
0.000186274
0.000180022
0.000173602
0.000166885
0.00015987
0.000152536
0.000144859
0.000136835
0.000128533
0.000120012
0.000111324
0.000102544
9.37009e-05
8.48652e-05
7.61592e-05
6.77154e-05
5.96954e-05
5.22358e-05
4.54007e-05
3.92302e-05
3.37183e-05
2.89308e-05
2.48747e-05
2.1614e-05
1.9196e-05
1.8181e-05
1.81473e-05
2.11936e-05
3.13789e-05
0.000210622
0.000213581
0.000216678
0.000219724
0.000222579
0.000225285
0.000227711
0.000229729
0.000231276
0.000232283
0.000232647
0.000232303
0.000231206
0.000229275
0.000226441
0.000222707
0.000218045
0.000212473
0.000206135
0.000199039
0.000191233
0.000182957
0.000174318
0.000165236
0.00015543
0.000144683
0.00013321
0.000121721
0.000110982
0.000101386
9.28529e-05
8.53627e-05
7.88138e-05
7.35208e-05
6.94135e-05
6.11785e-05
9.19777e-05
4.44815e-07
4.18741e-10
0.000207475
0.000204372
0.000201055
0.000197034
0.000192835
0.000188442
0.000183797
0.000179003
0.000174189
0.000169316
0.000164364
0.000159326
0.000154144
0.000148753
0.000143116
0.000137177
0.000130881
0.000124254
0.000117311
0.000110061
0.000102573
9.48855e-05
8.70366e-05
7.91243e-05
7.12742e-05
6.36095e-05
5.62816e-05
4.94108e-05
4.30636e-05
3.72728e-05
3.20832e-05
2.75314e-05
2.36452e-05
2.04893e-05
1.81234e-05
1.70239e-05
1.68962e-05
1.94202e-05
2.82049e-05
0.00018456
0.000187248
0.000190068
0.000192867
0.000195549
0.000198129
0.000200509
0.000202563
0.000204261
0.000205538
0.000206292
0.000206477
0.000206045
0.000204931
0.00020306
0.000200419
0.000196986
0.000192762
0.000187811
0.000182159
0.000175812
0.000168916
0.000161596
0.000153793
0.000145302
0.000135987
0.00012598
0.000115843
0.000106199
9.74219e-05
8.95273e-05
8.25118e-05
7.64118e-05
7.10868e-05
6.80562e-05
5.95431e-05
7.79012e-05
2.95665e-05
6.14434e-07
0.000181751
0.000178998
0.000176079
0.000172589
0.000169003
0.000165237
0.000161293
0.000157291
0.000153283
0.000149281
0.000145245
0.000141154
0.000136974
0.000132621
0.000128053
0.000123218
0.000118072
0.000112606
0.000106793
0.000100657
9.42296e-05
8.75322e-05
8.0623e-05
7.35695e-05
6.65063e-05
5.95829e-05
5.29067e-05
4.65976e-05
4.07278e-05
3.53225e-05
3.04431e-05
2.6135e-05
2.24152e-05
1.93602e-05
1.70223e-05
1.58472e-05
1.56296e-05
1.77207e-05
2.52636e-05
0.000162156
0.000164569
0.00016714
0.000169708
0.000172201
0.000174644
0.000176932
0.00017898
0.000180727
0.000182147
0.000183156
0.000183712
0.000183759
0.000183227
0.000182111
0.000180332
0.000177863
0.000174701
0.000170893
0.00016645
0.000161343
0.000155644
0.000149494
0.00014286
0.000135573
0.000127536
0.000118861
0.000109956
0.000101347
9.33769e-05
8.61264e-05
7.9598e-05
7.38954e-05
6.88094e-05
6.55488e-05
5.9972e-05
6.3685e-05
5.9873e-05
7.4107e-06
0.000159638
0.000157198
0.000154614
0.000151582
0.000148485
0.000145251
0.000141876
0.000138499
0.000135158
0.000131844
0.000128523
0.000125184
0.000121784
0.00011824
0.000114528
0.000110593
0.000106376
0.000101852
9.70035e-05
9.18253e-05
8.63234e-05
8.05185e-05
7.44514e-05
6.82019e-05
6.18884e-05
5.56527e-05
4.96003e-05
4.38198e-05
3.83958e-05
3.3373e-05
2.87942e-05
2.47092e-05
2.11626e-05
1.82073e-05
1.58988e-05
1.46709e-05
1.43657e-05
1.60966e-05
2.2534e-05
0.000142802
0.000144971
0.000147308
0.00014966
0.000151961
0.00015425
0.000156425
0.000158403
0.000160161
0.000161662
0.000162825
0.000163618
0.000164004
0.000163922
0.000163355
0.000162226
0.000160526
0.000158222
0.000155327
0.000151872
0.000147817
0.000143161
0.000138048
0.000132448
0.000126253
0.000119358
0.000111879
0.000104101
9.64647e-05
8.92765e-05
8.26517e-05
7.66188e-05
7.12629e-05
6.65635e-05
6.28638e-05
5.95795e-05
5.62363e-05
6.4361e-05
3.03708e-05
0.000140539
0.000138364
0.000136086
0.000133437
0.000130748
0.000127946
0.00012506
0.000122186
0.000119383
0.000116618
0.000113863
0.000111116
0.000108325
0.000105439
0.000102415
9.91852e-05
9.57214e-05
9.19877e-05
8.79374e-05
8.35708e-05
7.88827e-05
7.38671e-05
6.8567e-05
6.30492e-05
5.74286e-05
5.18288e-05
4.63581e-05
4.10907e-05
3.6096e-05
3.14389e-05
2.71478e-05
2.32906e-05
1.98983e-05
1.70487e-05
1.47779e-05
1.34911e-05
1.31114e-05
1.45507e-05
2.004e-05
0.000126016
0.000127967
0.000130089
0.000132236
0.000134358
0.000136473
0.000138524
0.00014042
0.000142141
0.000143661
0.00014491
0.000145863
0.00014647
0.000146718
0.000146544
0.000145922
0.000144808
0.000143186
0.000141032
0.000138395
0.000135216
0.000131459
0.000127246
0.000122573
0.000117348
0.000111485
0.000105059
9.83095e-05
9.15813e-05
8.51297e-05
7.91039e-05
7.35638e-05
6.85647e-05
6.42191e-05
6.03655e-05
5.79189e-05
5.33031e-05
5.78996e-05
4.7036e-05
0.000124003
0.00012204
0.000120023
0.000117709
0.000115357
0.000112921
0.000110433
0.000107987
0.000105605
0.000103276
0.000100985
9.87059e-05
9.64075e-05
9.40401e-05
9.15518e-05
8.89009e-05
8.60518e-05
8.29498e-05
7.95731e-05
7.58969e-05
7.18995e-05
6.75935e-05
6.29858e-05
5.81276e-05
5.31375e-05
4.81299e-05
4.31952e-05
3.84055e-05
3.3826e-05
2.95176e-05
2.55161e-05
2.18804e-05
1.86487e-05
1.58939e-05
1.36653e-05
1.23172e-05
1.18753e-05
1.30775e-05
1.77629e-05
0.000111397
0.000113167
0.00011509
0.000117042
0.000118981
0.000120949
0.000122864
0.000124656
0.000126326
0.00012781
0.000129087
0.000130131
0.000130896
0.000131363
0.000131489
0.000131244
0.000130588
0.000129495
0.000127951
0.000125973
0.000123502
0.000120515
0.000117085
0.000113225
0.000108854
0.000103908
9.84232e-05
9.26031e-05
8.67065e-05
8.0963e-05
7.55219e-05
7.04572e-05
6.58151e-05
6.17559e-05
5.80221e-05
5.55747e-05
5.17811e-05
5.14108e-05
5.08525e-05
0.000109608
0.000107857
0.000106053
0.000104026
0.000101964
9.98371e-05
9.76813e-05
9.55749e-05
9.35442e-05
9.15738e-05
8.96489e-05
8.77486e-05
8.58442e-05
8.38799e-05
8.18181e-05
7.96437e-05
7.72826e-05
7.47075e-05
7.189e-05
6.8794e-05
6.54034e-05
6.17065e-05
5.77001e-05
5.34472e-05
4.90373e-05
4.4567e-05
4.01344e-05
3.57971e-05
3.16062e-05
2.76214e-05
2.39002e-05
2.04717e-05
1.74048e-05
1.47441e-05
1.25564e-05
1.11544e-05
1.0658e-05
1.16812e-05
1.56797e-05
9.86511e-05
0.000100243
0.000101979
0.000103749
0.000105533
0.000107354
0.000109122
0.000110804
0.000112393
0.000113835
0.000115107
0.000116185
0.000117059
0.000117671
0.000118006
0.00011803
0.000117729
0.000117047
0.000115978
0.000114529
0.000112659
0.000110321
0.000107553
0.0001044
0.000100785
9.66341e-05
9.19937e-05
8.70061e-05
8.1866e-05
7.67941e-05
7.1903e-05
6.72969e-05
6.30123e-05
5.9217e-05
5.5704e-05
5.30585e-05
5.01295e-05
4.71798e-05
4.83121e-05
9.70379e-05
9.54769e-05
9.38733e-05
9.20791e-05
9.02634e-05
8.84074e-05
8.65251e-05
8.47111e-05
8.29723e-05
8.12942e-05
7.96612e-05
7.80627e-05
7.64632e-05
7.48295e-05
7.31226e-05
7.13171e-05
6.93544e-05
6.72175e-05
6.48574e-05
6.22512e-05
5.93733e-05
5.61986e-05
5.27347e-05
4.90204e-05
4.5131e-05
4.11613e-05
3.71827e-05
3.3259e-05
2.94382e-05
2.57764e-05
2.23085e-05
1.90922e-05
1.61769e-05
1.36086e-05
1.14509e-05
1.00178e-05
9.4718e-06
1.036e-05
1.37928e-05
8.74898e-05
8.8919e-05
9.04944e-05
9.21047e-05
9.373e-05
9.53962e-05
9.70375e-05
9.86064e-05
0.000100097
0.000101485
0.000102727
0.000103817
0.000104727
0.000105434
0.000105923
0.000106152
0.0001061
0.000105747
0.000105051
0.000104027
0.000102643
0.000100847
9.86485e-05
9.60947e-05
9.31296e-05
8.96842e-05
8.57907e-05
8.15357e-05
7.70962e-05
7.26318e-05
6.82657e-05
6.41005e-05
6.01784e-05
5.66289e-05
5.3334e-05
5.05847e-05
4.80536e-05
4.43924e-05
4.44382e-05
8.60464e-05
8.46426e-05
8.32205e-05
8.16353e-05
8.00254e-05
7.83979e-05
7.6751e-05
7.51733e-05
7.36727e-05
7.22366e-05
7.08413e-05
6.94891e-05
6.81461e-05
6.6768e-05
6.53483e-05
6.38317e-05
6.21997e-05
6.04104e-05
5.84367e-05
5.62374e-05
5.37919e-05
5.1082e-05
4.80936e-05
4.48517e-05
4.14278e-05
3.79061e-05
3.43552e-05
3.08168e-05
2.73374e-05
2.39702e-05
2.07575e-05
1.77421e-05
1.49734e-05
1.24971e-05
1.03748e-05
8.91437e-06
8.31692e-06
9.11407e-06
1.20989e-05
7.76901e-05
7.89839e-05
8.04049e-05
8.18659e-05
8.33467e-05
8.48784e-05
8.63862e-05
8.78417e-05
8.9238e-05
9.05474e-05
9.1744e-05
9.28164e-05
9.3744e-05
9.45123e-05
9.50916e-05
9.54665e-05
9.56036e-05
9.54931e-05
9.50961e-05
9.441e-05
9.34122e-05
9.20592e-05
9.03464e-05
8.82976e-05
8.58952e-05
8.30694e-05
7.98144e-05
7.62136e-05
7.24042e-05
6.85034e-05
6.46363e-05
6.08833e-05
5.73076e-05
5.40028e-05
5.09148e-05
4.81777e-05
4.57231e-05
4.21109e-05
4.09055e-05
7.64032e-05
7.51438e-05
7.38684e-05
7.24722e-05
7.1048e-05
6.96027e-05
6.81688e-05
6.67881e-05
6.54828e-05
6.42396e-05
6.30479e-05
6.18903e-05
6.07459e-05
5.95898e-05
5.8396e-05
5.71216e-05
5.57516e-05
5.42546e-05
5.25902e-05
5.07368e-05
4.86651e-05
4.63466e-05
4.37602e-05
4.09434e-05
3.79418e-05
3.48228e-05
3.16533e-05
2.84702e-05
2.53169e-05
2.2228e-05
1.92522e-05
1.64299e-05
1.38019e-05
1.14187e-05
9.33614e-06
7.83443e-06
7.20456e-06
7.94592e-06
1.05771e-05
6.90766e-05
7.02445e-05
7.15199e-05
7.28448e-05
7.41979e-05
7.55923e-05
7.69788e-05
7.83244e-05
7.96275e-05
8.08569e-05
8.19918e-05
8.30303e-05
8.39522e-05
8.4738e-05
8.53784e-05
8.5851e-05
8.61296e-05
8.61898e-05
8.6024e-05
8.56084e-05
8.49217e-05
8.39345e-05
8.26165e-05
8.10128e-05
7.90811e-05
7.67752e-05
7.40745e-05
7.10577e-05
6.78051e-05
6.44283e-05
6.10213e-05
5.76671e-05
5.4416e-05
5.13581e-05
4.84646e-05
4.57945e-05
4.33212e-05
3.99021e-05
3.78863e-05
6.79181e-05
6.67963e-05
6.56475e-05
6.44119e-05
6.31522e-05
6.18691e-05
6.06031e-05
5.94007e-05
5.82572e-05
5.71729e-05
5.61491e-05
5.51531e-05
5.41715e-05
5.31937e-05
5.21742e-05
5.11072e-05
4.99543e-05
4.8686e-05
4.72888e-05
4.57226e-05
4.39549e-05
4.19692e-05
3.97472e-05
3.72963e-05
3.46607e-05
3.19099e-05
2.90892e-05
2.62327e-05
2.33746e-05
2.05513e-05
1.78028e-05
1.51613e-05
1.26706e-05
1.03753e-05
8.33724e-06
6.80773e-06
6.14464e-06
6.85441e-06
9.2176e-06
6.1483e-05
6.2529e-05
6.36847e-05
6.4891e-05
6.61157e-05
6.73863e-05
6.86582e-05
6.98981e-05
7.1101e-05
7.22455e-05
7.33201e-05
7.43171e-05
7.52121e-05
7.5999e-05
7.66715e-05
7.72024e-05
7.75792e-05
7.77764e-05
7.77692e-05
7.75576e-05
7.71335e-05
7.64374e-05
7.54491e-05
7.42103e-05
7.26817e-05
7.0817e-05
6.86086e-05
6.60923e-05
6.33324e-05
6.04209e-05
5.7441e-05
5.44567e-05
5.1521e-05
4.87064e-05
4.59895e-05
4.34207e-05
4.09429e-05
3.76774e-05
3.5217e-05
6.04451e-05
5.94359e-05
5.84109e-05
5.73097e-05
5.61909e-05
5.50532e-05
5.3933e-05
5.28705e-05
5.18772e-05
5.09295e-05
5.00311e-05
4.91783e-05
4.83386e-05
4.74919e-05
4.66214e-05
4.57173e-05
4.47381e-05
4.36693e-05
4.24854e-05
4.11476e-05
3.96567e-05
3.79593e-05
3.60352e-05
3.39043e-05
3.16027e-05
2.91809e-05
2.66747e-05
2.41094e-05
2.15239e-05
1.89501e-05
1.64154e-05
1.39525e-05
1.15973e-05
9.38771e-06
7.38762e-06
5.83166e-06
5.13277e-06
5.84596e-06
8.00687e-06
5.47747e-05
5.57167e-05
5.67635e-05
5.78508e-05
5.89666e-05
6.01273e-05
6.12807e-05
6.2422e-05
6.35348e-05
6.45995e-05
6.56028e-05
6.6541e-05
6.7405e-05
6.81788e-05
6.88556e-05
6.94207e-05
6.98579e-05
7.01539e-05
7.02789e-05
7.02209e-05
6.99862e-05
6.95308e-05
6.88185e-05
6.78691e-05
6.66862e-05
6.51991e-05
6.34019e-05
6.13183e-05
5.90022e-05
5.65075e-05
5.39154e-05
5.12703e-05
4.86314e-05
4.60523e-05
4.35169e-05
4.10591e-05
3.86099e-05
3.54658e-05
3.27645e-05
5.38459e-05
5.29387e-05
5.20224e-05
5.10431e-05
5.00437e-05
4.90363e-05
4.80417e-05
4.71064e-05
4.62303e-05
4.54005e-05
4.46162e-05
4.387e-05
4.31372e-05
4.24127e-05
4.16683e-05
4.089e-05
4.00571e-05
3.91525e-05
3.81416e-05
3.70147e-05
3.57351e-05
3.42739e-05
3.2622e-05
3.07736e-05
2.87625e-05
2.66272e-05
2.43999e-05
2.21096e-05
1.97742e-05
1.7427e-05
1.50944e-05
1.28033e-05
1.05878e-05
8.46399e-06
6.49709e-06
4.90907e-06
4.18181e-06
4.92542e-06
6.93953e-06
4.88428e-05
4.96921e-05
5.0636e-05
5.16186e-05
5.26291e-05
5.3682e-05
5.47409e-05
5.57812e-05
5.6801e-05
5.77914e-05
5.87277e-05
5.96078e-05
6.04276e-05
6.11752e-05
6.18447e-05
6.24242e-05
6.28975e-05
6.32535e-05
6.34738e-05
6.35386e-05
6.34537e-05
6.31752e-05
6.26844e-05
6.19875e-05
6.10771e-05
5.99076e-05
5.8455e-05
5.67482e-05
5.48143e-05
5.27001e-05
5.0453e-05
4.81306e-05
4.57708e-05
4.34149e-05
4.10602e-05
3.87152e-05
3.63224e-05
3.32966e-05
3.04749e-05
4.80112e-05
4.71998e-05
4.63699e-05
4.54986e-05
4.46098e-05
4.37145e-05
4.28338e-05
4.20036e-05
4.12223e-05
4.04978e-05
3.98061e-05
3.91464e-05
3.85117e-05
3.78835e-05
3.72394e-05
3.65727e-05
3.58619e-05
3.50864e-05
3.42288e-05
3.32615e-05
3.2166e-05
3.09212e-05
2.94949e-05
2.78884e-05
2.6129e-05
2.42485e-05
2.22751e-05
2.02291e-05
1.81299e-05
1.59961e-05
1.38527e-05
1.17226e-05
9.63602e-06
7.61015e-06
5.68611e-06
4.06592e-06
3.29256e-06
4.09478e-06
6.01696e-06
4.35847e-05
4.43504e-05
4.52023e-05
4.60924e-05
4.70073e-05
4.7963e-05
4.89263e-05
4.98773e-05
5.08142e-05
5.17193e-05
5.25892e-05
5.34175e-05
5.41877e-05
5.49012e-05
5.5555e-05
5.61309e-05
5.66232e-05
5.7019e-05
5.73032e-05
5.7456e-05
5.74844e-05
5.73495e-05
5.70289e-05
5.65378e-05
5.58492e-05
5.49402e-05
5.3789e-05
5.23951e-05
5.07902e-05
4.90078e-05
4.70767e-05
4.50442e-05
4.29421e-05
4.0807e-05
3.86252e-05
3.64033e-05
3.40867e-05
3.11914e-05
2.83366e-05
4.28395e-05
4.21179e-05
4.1375e-05
4.05909e-05
3.98012e-05
3.89989e-05
3.8222e-05
3.74777e-05
3.67882e-05
3.61439e-05
3.55355e-05
3.49555e-05
3.44019e-05
3.38459e-05
3.32909e-05
3.27189e-05
3.21014e-05
3.14331e-05
3.06988e-05
2.98743e-05
2.89396e-05
2.78649e-05
2.66343e-05
2.52395e-05
2.37008e-05
2.20466e-05
2.03028e-05
1.84794e-05
1.65904e-05
1.46543e-05
1.26926e-05
1.07224e-05
8.76284e-06
6.83555e-06
4.95941e-06
3.30141e-06
2.46351e-06
3.36378e-06
5.2224e-06
3.89217e-05
3.96139e-05
4.03806e-05
4.11794e-05
4.20095e-05
4.28776e-05
4.37531e-05
4.46231e-05
4.54799e-05
4.63145e-05
4.711e-05
4.78786e-05
4.8607e-05
4.92766e-05
4.99023e-05
5.04708e-05
5.09651e-05
5.13796e-05
5.17073e-05
5.19247e-05
5.20316e-05
5.20138e-05
5.18281e-05
5.14937e-05
5.09957e-05
5.02987e-05
4.93904e-05
4.82727e-05
4.69524e-05
4.54526e-05
4.38018e-05
4.20306e-05
4.01678e-05
3.82353e-05
3.62245e-05
3.41353e-05
3.19106e-05
2.9155e-05
2.63331e-05
3.82504e-05
3.7604e-05
3.69427e-05
3.62424e-05
3.55366e-05
3.48218e-05
3.41236e-05
3.34709e-05
3.28567e-05
3.22799e-05
3.17397e-05
3.12312e-05
3.07363e-05
3.025e-05
2.97695e-05
2.92648e-05
2.87315e-05
2.816e-05
2.75305e-05
2.68225e-05
2.60153e-05
2.50964e-05
2.40309e-05
2.28137e-05
2.14713e-05
2.002e-05
1.84779e-05
1.68527e-05
1.51598e-05
1.34085e-05
1.16174e-05
9.79904e-06
7.97263e-06
6.1434e-06
4.32672e-06
2.63372e-06
1.70287e-06
2.74422e-06
4.54869e-06
3.47819e-05
3.54011e-05
3.60907e-05
3.68147e-05
3.75654e-05
3.83522e-05
3.91487e-05
3.99349e-05
4.07166e-05
4.1485e-05
4.22224e-05
4.29253e-05
4.3599e-05
4.42386e-05
4.48326e-05
4.53761e-05
4.58639e-05
4.62875e-05
4.66336e-05
4.68971e-05
4.7065e-05
4.71287e-05
4.70516e-05
4.68396e-05
4.64907e-05
4.59708e-05
4.52639e-05
4.43682e-05
4.32895e-05
4.20402e-05
4.06347e-05
3.91054e-05
3.74572e-05
3.57172e-05
3.38755e-05
3.19189e-05
2.98007e-05
2.71982e-05
2.44559e-05
3.41803e-05
3.35966e-05
3.30031e-05
3.23791e-05
3.17481e-05
3.11149e-05
3.04881e-05
2.99063e-05
2.93606e-05
2.88462e-05
2.83657e-05
2.79148e-05
2.74759e-05
2.70529e-05
2.66258e-05
2.61856e-05
2.57222e-05
2.52343e-05
2.46901e-05
2.40739e-05
2.3385e-05
2.25888e-05
2.16609e-05
2.06089e-05
1.94361e-05
1.81601e-05
1.6797e-05
1.53553e-05
1.38372e-05
1.22583e-05
1.06296e-05
8.95838e-06
7.26066e-06
5.54297e-06
3.80699e-06
2.09835e-06
1.01277e-06
2.24905e-06
3.99473e-06
3.10951e-05
3.16526e-05
3.22727e-05
3.29314e-05
3.36078e-05
3.43175e-05
3.50392e-05
3.57571e-05
3.64706e-05
3.71699e-05
3.78437e-05
3.84964e-05
3.91218e-05
3.97133e-05
4.02738e-05
4.0796e-05
4.12654e-05
4.16871e-05
4.20476e-05
4.23342e-05
4.25441e-05
4.26612e-05
4.26675e-05
4.25528e-05
4.23208e-05
4.1942e-05
4.14032e-05
4.0692e-05
3.98137e-05