/*--------------------------------*- C++ -*----------------------------------*\
| =========                 |                                                 |
| \\      /  F ield         | OpenFOAM: The Open Source CFD Toolbox           |
|  \\    /   O peration     | Version:  2506                                  |
|   \\  /    A nd           | Website:  www.openfoam.com                      |
|    \\/     M anipulation  |                                                 |
\*---------------------------------------------------------------------------*/
FoamFile
{
    version     2.0;
    format      ascii;
    arch        "LSB;label=32;scalar=64";
    class       surfaceScalarField;
    location    "300";
    object      phi;
}
// * * * * * * * * * * * * * * * * * * * * * * * * * * * * * * * * * * * * * //

dimensions      [0 3 -1 0 0 0 0];

oriented        oriented;

internalField   nonuniform List<scalar> 
21254
(
-0.233853
0.25345
-0.0195969
0.275448
-0.0219973
0.294383
-0.0189356
0.311295
-0.0169114
0.327267
-0.0159729
0.339993
-0.0127255
0.349974
-0.00998081
0.357961
-0.00798682
0.362986
-0.00502516
0.366046
-0.00305989
0.36719
-0.00114438
0.365867
0.00132286
0.36221
0.00365756
0.356038
0.00617212
0.346951
0.00908665
0.334838
0.0121127
0.318919
0.0159191
0.298507
0.0204123
0.272436
0.026071
0.239955
0.0324806
0.200576
0.0393794
0.157646
0.0429302
0.119193
0.0384528
0.0950399
0.0241532
0.0900668
0.0049731
0.0995921
-0.00952524
0.113568
-0.0139757
0.126055
-0.0124873
0.135112
-0.00905729
0.140736
-0.00562403
0.143492
-0.00275615
0.143532
-3.94724e-05
0.14072
0.00281182
0.135164
0.00555658
0.126589
0.00857487
0.113974
0.0126149
0.0954549
0.0185215
0.067182
0.0282724
0.066216
0.000967669
-0.210769
-0.0230842
-0.186831
-0.0239383
-0.157442
-0.0293894
-0.125234
-0.0322073
-0.0913212
-0.0339131
-0.0563768
-0.0349444
-0.0219942
-0.0343826
0.00987835
-0.0318726
0.038841
-0.0289626
0.0644217
-0.0255807
0.0863776
-0.0219559
0.105073
-0.0186951
0.120797
-0.0157245
0.133894
-0.0130971
0.145082
-0.0111878
0.154683
-0.00960067
0.163173
-0.00849025
0.170784
-0.00761093
0.177824
-0.00704038
0.184414
-0.00658921
0.19072
-0.0063065
0.196728
-0.00600798
0.202362
-0.0056341
0.20697
-0.00460817
0.210373
-0.00340276
0.212895
-0.00252236
0.214593
-0.00169776
0.215695
-0.00110188
0.216341
-0.000645969
0.216523
-0.000182522
0.216028
0.000495753
0.214768
0.00126005
0.212742
0.00202534
0.209991
0.0027517
0.206428
0.00356207
0.201722
0.00470613
0.194908
0.00681384
0.181087
0.0138211
0.1612
0.0198866
-0.213227
0.234735
-0.0411047
0.256759
-0.0440217
0.279784
-0.0419598
0.301296
-0.0384233
0.322337
-0.0370144
0.34192
-0.0323087
0.359645
-0.027706
0.375797
-0.0241383
0.390005
-0.0192335
0.40235
-0.0154044
0.413068
-0.0118624
0.422608
-0.00821704
0.431309
-0.00504353
0.439221
-0.00173999
0.446135
0.00217239
0.451613
0.00663496
0.455319
0.0122123
0.456893
0.0188387
0.454981
0.0279833
0.448403
0.0390587
0.434688
0.0530941
0.41223
0.0653882
0.380864
0.0698182
0.345598
0.0594197
0.312937
0.0376337
0.284781
0.0186311
0.260885
0.00992002
0.241361
0.00703666
0.226448
0.00585574
0.215515
0.00530924
0.206704
0.00605501
0.198428
0.00823694
0.189742
0.0114972
0.179895
0.0154037
0.168139
0.0203308
0.152953
0.0278018
0.133166
0.0383104
0.0994317
0.0620081
0.0714294
0.0289728
-0.191267
-0.0450445
-0.167767
-0.0474384
-0.140253
-0.0569034
-0.111147
-0.0613134
-0.0802303
-0.0648293
-0.0479006
-0.0672742
-0.0156577
-0.0666255
0.015167
-0.0626972
0.043324
-0.0571196
0.0683762
-0.0506329
0.0901561
-0.0437359
0.109042
-0.0375808
0.125489
-0.0321713
0.139719
-0.0273277
0.152183
-0.0236519
0.163183
-0.0206007
0.173013
-0.0183197
0.181979
-0.0165774
0.190339
-0.0154005
0.198204
-0.014454
0.205737
-0.0138394
0.213009
-0.0132798
0.219952
-0.0125768
0.226107
-0.0107636
0.231203
-0.00849826
0.235427
-0.00674713
0.238685
-0.00495534
0.240884
-0.00330062
0.241975
-0.00173732
0.242066
-0.000273169
0.24138
0.00118103
0.240104
0.00253623
0.238256
0.00387393
0.235832
0.0051753
0.232756
0.00663821
0.228731
0.00873082
0.223776
0.0117689
0.21343
0.0241661
0.195377
0.0379399
-0.206988
0.228685
-0.0628021
0.250533
-0.0658691
0.274121
-0.0655478
0.295682
-0.059985
0.316175
-0.0575075
0.335771
-0.0519039
0.353169
-0.0451044
0.368762
-0.0397315
0.382101
-0.0325728
0.393451
-0.0267541
0.402773
-0.0211839
0.410198
-0.0156421
0.415578
-0.0104241
0.419395
-0.0055563
0.421648
-8.1421e-05
0.423369
0.00491432
0.424655
0.0109262
0.42644
0.0170535
0.429158
0.0252653
0.433492
0.0347249
0.439417
0.0471687
0.444922
0.0598842
0.446158
0.0685816
0.44022
0.0653583
0.428155
0.0496985
0.412472
0.0343142
0.394211
0.0281807
0.372843
0.0284045
0.348214
0.0304846
0.321622
0.0319019
0.295507
0.0321696
0.27193
0.0318143
0.251258
0.0321695
0.232263
0.0343983
0.213237
0.039357
0.192049
0.0489894
0.167161
0.0631992
0.129622
0.0995464
0.0871129
0.0714819
-0.185149
-0.0668828
-0.161219
-0.0713687
-0.132596
-0.0855267
-0.102831
-0.0910783
-0.0717267
-0.0959335
-0.0394345
-0.0995664
-0.00753645
-0.0985236
0.0222464
-0.09248
0.0495388
-0.0844121
0.0742461
-0.0753402
0.096043
-0.0655327
0.115105
-0.0566428
0.131816
-0.0488818
0.146452
-0.0419638
0.159321
-0.0365209
0.170761
-0.0320411
0.181038
-0.0285965
0.190418
-0.0259575
0.199109
-0.0240915
0.207276
-0.0226206
0.215104
-0.0216679
0.222608
-0.0207836
0.22969
-0.0196586
0.236049
-0.0171229
0.241397
-0.0138459
0.245845
-0.0111954
0.249462
-0.00857259
0.252287
-0.00612563
0.254384
-0.00383433
0.255745
-0.00163423
0.256427
0.000498754
0.256394
0.00256991
0.25565
0.00461787
0.254123
0.00670213
0.251729
0.00903247
0.248115
0.0123447
0.242962
0.0169217
0.232676
0.034452
0.21487
0.0557461
-0.199383
0.222066
-0.0854853
0.244831
-0.0886345
0.269865
-0.0905816
0.29272
-0.0828397
0.314881
-0.0796682
0.336133
-0.0731564
0.355657
-0.0646281
0.373276
-0.0573506
0.389203
-0.0485
0.403218
-0.0407692
0.415433
-0.0333986
0.425861
-0.0260703
0.434568
-0.0191306
0.441626
-0.0126152
0.447338
-0.00579338
0.451157
0.00109523
0.45319
0.00889412
0.453209
0.0170335
0.451768
0.0267064
0.449354
0.0371395
0.447224
0.0492981
0.446648
0.0604606
0.447102
0.0681279
0.44632
0.0661402
0.442397
0.0536209
0.43591
0.0408013
0.428221
0.0358701
0.419617
0.0370086
0.409041
0.0410605
0.394797
0.0461456
0.375425
0.0515422
0.35076
0.0564787
0.322735
0.0601946
0.294046
0.0630872
0.265986
0.0674177
0.237227
0.0777485
0.205688
0.0947391
0.162947
0.142289
0.112358
0.122073
-0.176988
-0.0892782
-0.152982
-0.095374
-0.123861
-0.114648
-0.0939653
-0.120974
-0.0627979
-0.127101
-0.0304039
-0.13196
0.00140725
-0.130335
0.0308157
-0.121888
0.0576367
-0.111233
0.0819703
-0.0996738
0.103465
-0.0870272
0.122363
-0.0755407
0.139095
-0.0656142
0.153915
-0.0567841
0.167144
-0.0497493
0.179004
-0.0439017
0.189791
-0.0393834
0.199682
-0.0358486
0.208908
-0.0333172
0.217606
-0.031319
0.225888
-0.0299494
0.233818
-0.028714
0.241337
-0.0271772
0.248122
-0.0239079
0.253924
-0.0196483
0.258806
-0.0160769
0.262818
-0.0125852
0.266014
-0.00932147
0.268425
-0.00624504
0.27012
-0.0033292
0.271131
-0.000512527
0.271481
0.00222008
0.271163
0.00493554
0.270161
0.00770406
0.268352
0.0108414
0.265366
0.0153314
0.260639
0.0216481
0.250909
0.044182
0.232537
0.0741169
-0.195544
0.219048
-0.10899
0.242683
-0.11227
0.269109
-0.117007
0.292703
-0.106434
0.315841
-0.102806
0.338132
-0.0954471
0.358468
-0.0849648
0.376955
-0.0758375
0.393882
-0.0654264
0.408593
-0.0554805
0.421469
-0.0462746
0.432441
-0.0370423
0.441786
-0.0284757
0.449184
-0.0200133
0.45478
-0.0113891
0.458639
-0.00276403
0.461037
0.00649662
0.462098
0.0159725
0.46169
0.0271139
0.460242
0.0385878
0.457861
0.0516786
0.454967
0.0633547
0.451635
0.0714603
0.447182
0.0705929
0.440952
0.0598514
0.433387
0.0483661
0.425673
0.0435847
0.418553
0.0441284
0.412062
0.0475513
0.405854
0.0523536
0.398827
0.058569
0.388899
0.0664075
0.373391
0.0757021
0.350603
0.0858755
0.321316
0.0967045
0.287394
0.111671
0.249289
0.132845
0.20066
0.190917
0.144273
0.178459
-0.172098
-0.112724
-0.147364
-0.120107
-0.116979
-0.145034
-0.0862307
-0.151722
-0.0543308
-0.159001
-0.0212864
-0.165005
0.0109261
-0.162547
0.0403733
-0.151336
0.0670614
-0.137921
0.0911812
-0.123794
0.112432
-0.108278
0.131159
-0.0942678
0.147863
-0.0823181
0.162764
-0.0716845
0.176177
-0.0631631
0.188367
-0.0560916
0.19951
-0.0505262
0.20979
-0.0461287
0.219402
-0.0429288
0.228483
-0.0404001
0.237125
-0.0385915
0.245368
-0.0369572
0.253176
-0.0349851
0.260272
-0.0310042
0.266393
-0.0257693
0.271571
-0.0212549
0.275846
-0.01686
0.27927
-0.0127458
0.281866
-0.00884023
0.283667
-0.00513023
0.284717
-0.00156319
0.285084
0.00185332
0.284775
0.00524505
0.283773
0.00870573
0.282056
0.0125581
0.279289
0.0180981
0.274944
0.0259928
0.266398
0.0527281
0.248601
0.0919146
-0.192368
0.216888
-0.13351
0.241847
-0.137228
0.269651
-0.144812
0.294453
-0.131235
0.318614
-0.126968
0.342276
-0.119109
0.363591
-0.10628
0.383373
-0.0956193
0.401314
-0.0833673
0.417298
-0.0714648
0.431555
-0.0605309
0.443899
-0.0493863
0.454561
-0.0391379
0.463536
-0.0289886
0.470696
-0.0185485
0.476401
-0.00846935
0.480255
0.0026429
0.482378
0.0138491
0.482964
0.0265279
0.481992
0.0395601
0.479698
0.0539724
0.476335
0.0667172
0.471635
0.076161
0.465135
0.0770922
0.456655
0.0683316
0.446817
0.0582044
0.436649
0.0537523
0.426793
0.0539849
0.417439
0.0569049
0.408747
0.0610458
0.400964
0.0663515
0.394028
0.0733441
0.387046
0.0826839
0.377356
0.0955654
0.360671
0.113389
0.333438
0.138904
0.295057
0.171228
0.24248
0.243494
0.181309
0.239633
-0.167958
-0.137135
-0.142412
-0.145653
-0.11072
-0.176725
-0.0788317
-0.183611
-0.0459307
-0.191902
-0.0119589
-0.198977
0.0209729
-0.195479
0.0507845
-0.181147
0.0775818
-0.164719
0.101654
-0.147865
0.122757
-0.129382
0.141299
-0.11281
0.15788
-0.0988982
0.172761
-0.0865663
0.186252
-0.0766542
0.198611
-0.0684504
0.21
-0.0619151
0.220615
-0.0567432
0.230581
-0.0528953
0.240029
-0.0498478
0.249049
-0.0476113
0.257662
-0.0455702
0.265813
-0.0431366
0.273318
-0.0385089
0.279843
-0.032295
0.285379
-0.02679
0.290015
-0.0214969
0.293751
-0.0164814
0.296628
-0.0117172
0.298679
-0.00718088
0.299947
-0.00283134
0.300461
0.00133879
0.300231
0.0054757
0.29928
0.00965686
0.297471
0.0143669
0.294567
0.0210016
0.289898
0.0306616
0.281532
0.0610937
0.26415
0.109296
-0.190516
0.216365
-0.159358
0.242364
-0.163227
0.271734
-0.174182
0.297806
-0.157307
0.323216
-0.152378
0.347947
-0.143841
0.370419
-0.128752
0.391038
-0.116238
0.410007
-0.102336
0.426904
-0.0883623
0.44196
-0.0755869
0.455313
-0.0627392
0.466835
-0.0506596
0.476597
-0.0387513
0.484674
-0.0266257
0.490896
-0.0146909
0.495452
-0.00191328
0.498336
0.0109657
0.499686
0.0251773
0.499597
0.0396487
0.498277
0.0552925
0.495783
0.0692113
0.491987
0.0799572
0.486145
0.0829347
0.478046
0.0764302
0.468177
0.0680739
0.45748
0.0644493
0.446544
0.0649201
0.435507
0.0679421
0.42437
0.0721835
0.413329
0.0773923
0.402735
0.0839382
0.39309
0.0923287
0.384615
0.104041
0.375954
0.12205
0.361817
0.153041
0.334176
0.19887
0.285361
0.292307
0.222159
0.302835
-0.164895
-0.162756
-0.138238
-0.17231
-0.105089
-0.209874
-0.071885
-0.216815
-0.0377781
-0.226009
-0.0025596
-0.234195
0.031358
-0.229397
0.0618397
-0.211629
0.0889961
-0.191875
0.113237
-0.172107
0.134294
-0.150439
0.152714
-0.13123
0.169175
-0.115359
0.183977
-0.101368
0.197458
-0.0901353
0.209902
-0.080895
0.221482
-0.073495
0.232339
-0.0676001
0.242607
-0.0631631
0.252379
-0.0596192
0.261724
-0.0569569
0.270657
-0.0545032
0.279153
-0.0516327
0.286967
-0.0463225
0.293868
-0.0391965
0.299776
-0.0326975
0.304717
-0.0264375
0.308743
-0.0205082
0.311854
-0.0148274
0.31411
-0.00943768
0.315518
-0.00423895
0.316139
0.000717212
0.315989
0.00562567
0.315027
0.0106192
0.313211
0.0161825
0.310217
0.0239964
0.305344
0.035534
0.296962
0.0694759
0.280091
0.126167
-0.189354
0.216538
-0.186542
0.243968
-0.190658
0.27502
-0.205234
0.302293
-0.18458
0.328992
-0.179077
0.354973
-0.169821
0.378463
-0.152242
0.40029
-0.138065
0.420076
-0.122122
0.437911
-0.106197
0.454023
-0.091699
0.468253
-0.0769694
0.480682
-0.0630882
0.491437
-0.0495065
0.500465
-0.0356536
0.507744
-0.0219699
0.513336
-0.00750576
0.517234
0.00706763
0.519412
0.0229993
0.519998
0.0390635
0.519213
0.0560773
0.517085
0.0713394
0.513536
0.0835057
0.508174
0.0882969
0.500631
0.0839732
0.491252
0.0774528
0.480858
0.074843
0.469978
0.0758005
0.458686
0.0792338
0.446965
0.0839052
0.434725
0.0896318
0.422046
0.096617
0.409089
0.105287
0.396453
0.116677
0.385057
0.133445
0.374798
0.163301
0.359259
0.21441
0.322986
0.328581
0.263992
0.36183
-0.1625
-0.18961
-0.134683
-0.200127
-0.0998193
-0.244738
-0.065091
-0.251543
-0.0295465
-0.261553
0.00703999
-0.270782
0.0421783
-0.264535
0.073549
-0.243
0.101257
-0.219583
0.125808
-0.196657
0.146962
-0.171593
0.165325
-0.149593
0.181681
-0.131715
0.196379
-0.116066
0.209797
-0.103553
0.222281
-0.0933794
0.233947
-0.0851614
0.244978
-0.0786306
0.25547
-0.0736554
0.265517
-0.0696664
0.275149
-0.0665888
0.28441
-0.0637639
0.293234
-0.060457
0.301417
-0.054505
0.308689
-0.0464692
0.314966
-0.038974
0.320262
-0.031734
0.324612
-0.0248578
0.328004
-0.0182199
0.330484
-0.0119171
0.332101
-0.00585627
0.332863
-4.44294e-05
0.332806
0.005682
0.331896
0.0115296
0.330031
0.0180479
0.326935
0.0270924
0.321875
0.0405935
0.31337
0.0779806
0.297008
0.142528
-0.189024
0.217578
-0.215096
0.246457
-0.219537
0.279209
-0.237986
0.307872
-0.213243
0.336039
-0.207243
0.363377
-0.197159
0.388086
-0.176951
0.4108
-0.160778
0.431697
-0.14302
0.450366
-0.124866
0.467188
-0.108521
0.482236
-0.0920175
0.495529
-0.0763814
0.507087
-0.0610638
0.516923
-0.0454896
0.525083
-0.0301301
0.531456
-0.0138791
0.53606
0.00246362
0.53896
0.0201
0.540219
0.037804
0.540022
0.0562744
0.538412
0.0729496
0.535286
0.0866315
0.530349
0.0932335
0.523323
0.0909998
0.514425
0.0863502
0.504344
0.084924
0.493667
0.0864781
0.482525
0.090376
0.470834
0.0955957
0.458531
0.101935
0.445515
0.109633
0.431633
0.119168
0.416823
0.131487
0.401467
0.148801
0.387049
0.177719
0.374577
0.226883
0.351123
0.352033
0.302049
0.410904
-0.160681
-0.217953
-0.131508
-0.2293
-0.0948636
-0.281382
-0.0585678
-0.287839
-0.021368
-0.298753
0.0168024
-0.308952
0.0534146
-0.301147
0.0858459
-0.275431
0.114287
-0.248025
0.139319
-0.221689
0.160688
-0.192962
0.179096
-0.168001
0.195399
-0.148018
0.210001
-0.130668
0.223339
-0.116891
0.235772
-0.105812
0.247488
-0.0968775
0.25862
-0.0897628
0.269277
-0.0843121
0.279548
-0.0799376
0.289468
-0.0765087
0.299
-0.0732963
0.30813
-0.0695871
0.316662
-0.0630366
0.324321
-0.0541279
0.330946
-0.0455995
0.336594
-0.0373818
0.341239
-0.0295026
0.344926
-0.0219067
0.347651
-0.0146427
0.34945
-0.00765469
0.350361
-0.000956359
0.350384
0.00565972
0.349513
0.0124005
0.347646
0.0199146
0.344476
0.0302624
0.33924
0.0458296
0.330708
0.0865124
0.314928
0.158308
-0.189123
0.21929
-0.245263
0.249719
-0.249966
0.284365
-0.272632
0.314488
-0.243366
0.343947
-0.236702
0.372759
-0.225972
0.398642
-0.202834
0.422497
-0.184633
0.444383
-0.164906
0.463934
-0.144417
0.481616
-0.126203
0.497547
-0.107948
0.511557
-0.0903913
0.523846
-0.0733524
0.534561
-0.0562053
0.543446
-0.0390149
0.550627
-0.0210602
0.556004
-0.00291327
0.559718
0.0163861
0.561738
0.0357841
0.562054
0.0559579
0.560917
0.0740866
0.558158
0.0893911
0.553584
0.0978075
0.546931
0.0976529
0.538329
0.0949516
0.528471
0.0947825
0.517891
0.0970582
0.5067
0.101566
0.49497
0.107326
0.482618
0.114287
0.469551
0.1227
0.455609
0.133111
0.440503
0.146594
0.423892
0.165412
0.405695
0.195916
0.389541
0.243039
0.371683
0.369891
0.332353
0.450235
-0.159405
-0.247672
-0.128764
-0.25994
-0.0901572
-0.319989
-0.0519999
-0.325996
-0.0131116
-0.337641
0.0269004
-0.348964
0.0650545
-0.339301
0.0987337
-0.30911
0.12808
-0.277371
0.153761
-0.247369
0.175466
-0.214668
0.19399
-0.186524
0.210303
-0.164331
0.224833
-0.145199
0.238079
-0.130137
0.250452
-0.118185
0.262147
-0.108572
0.27332
-0.100936
0.284111
-0.0951036
0.294556
-0.0903817
0.304663
-0.0866162
0.314476
-0.0831088
0.323912
-0.0790238
0.332774
-0.0718989
0.340782
-0.0621351
0.347792
-0.0526095
0.353771
-0.0433616
0.358759
-0.0344905
0.36273
-0.0258772
0.365708
-0.0176212
0.367733
-0.00967981
0.36879
-0.00201333
0.368934
0.00551598
0.368121
0.0132136
0.366236
0.0217998
0.362973
0.0335244
0.357615
0.0511879
0.349072
0.0950552
0.333851
0.173528
-0.189831
0.221571
-0.277004
0.253582
-0.281976
0.29016
-0.309209
0.321964
-0.275171
0.353041
-0.267778
0.383328
-0.256259
0.410362
-0.229867
0.435448
-0.20972
0.458373
-0.187831
0.47887
-0.164915
0.49735
-0.144683
0.513923
-0.124522
0.528739
-0.105207
0.54188
-0.0864931
0.553195
-0.0675199
0.562863
-0.0486835
0.57077
-0.0289673
0.576932
-0.00907548
0.581285
0.0120335
0.583925
0.0331444
0.584868
0.0550144
0.584161
0.0747936
0.581815
0.0917376
0.577647
0.101975
0.571422
0.103878
0.563243
0.103131
0.553602
0.104424
0.543031
0.10763
0.531798
0.112798
0.519853
0.119272
0.507255
0.126885
0.493963
0.135992
0.479842
0.147231
0.464656
0.16178
0.448011
0.182057
0.428856
0.215072
0.408683
0.263212
0.390208
0.388364
0.355348
0.485096
-0.158437
-0.279065
-0.126286
-0.292092
-0.0856006
-0.360674
-0.0455083
-0.366089
-0.00465212
-0.378497
0.0372358
-0.390852
0.0771611
-0.379227
0.112239
-0.344188
0.142659
-0.307791
0.169066
-0.273776
0.191248
-0.23685
0.209996
-0.205271
0.226392
-0.180727
0.240883
-0.15969
0.254049
-0.143303
0.266337
-0.130474
0.277982
-0.120217
0.289172
-0.112125
0.300003
-0.105935
0.310568
-0.100947
0.320886
-0.0969348
0.330926
-0.0931486
0.340621
-0.0887191
0.349814
-0.0810914
0.358172
-0.0704933
0.365534
-0.0599717
0.371881
-0.0497082
0.37719
-0.0397992
0.381474
-0.0301619
0.384713
-0.0208601
0.386937
-0.0119032
0.388187
-0.0032634
0.388436
0.00526615
0.387687
0.0139625
0.385793
0.0236937
0.38248
0.0368378
0.376987
0.0566804
0.368455
0.103588
0.35386
0.188123
-0.19085
0.224392
-0.310545
0.258163
-0.315748
0.296782
-0.347828
0.330193
-0.308582
0.362885
-0.30047
0.394761
-0.288135
0.423303
-0.25841
0.449529
-0.235946
0.473533
-0.211834
0.49494
-0.186321
0.514323
-0.164066
0.531767
-0.141966
0.547209
-0.120649
0.560982
-0.100266
0.573079
-0.0796168
0.583444
-0.0590483
0.592016
-0.0375399
0.598815
-0.0158746
0.603836
0.00701246
0.607124
0.0298562
0.608658
0.0534809
0.608477
0.0749743
0.606554
0.0936608
0.602777
0.105752
0.596953
0.109702
0.589155
0.110929
0.579768
0.11381
0.569316
0.118082
0.557996
0.124119
0.545883
0.131385
0.532987
0.139781
0.519304
0.149675
0.504795
0.16174
0.489233
0.177341
0.472402
0.198889
0.453416
0.234058
0.431434
0.285195
0.410433
0.409365
0.376028
0.519502
-0.157816
-0.3121
-0.123934
-0.325973
-0.0811112
-0.403498
-0.0389227
-0.408277
0.00398026
-0.4214
0.0479225
-0.434794
0.0897986
-0.421103
0.126383
-0.380772
0.157984
-0.339392
0.185301
-0.301093
0.208067
-0.259616
0.227138
-0.224342
0.24365
-0.197239
0.258162
-0.174202
0.271268
-0.156409
0.283478
-0.142684
0.295042
-0.131781
0.306193
-0.123276
0.317063
-0.116804
0.3277
-0.111584
0.338145
-0.107381
0.348372
-0.103375
0.358345
-0.0986927
0.36784
-0.0905861
0.376538
-0.0791914
0.384254
-0.0676879
0.39094
-0.0563943
0.396596
-0.0454552
0.401164
-0.0347302
0.404687
-0.0243826
0.407147
-0.0143629
0.408566
-0.00468249
0.408961
0.00487051
0.408265
0.0146587
0.406389
0.0255699
0.403012
0.0402145
0.397413
0.0622795
0.388954
0.112047
0.374995
0.202081
-0.19236
0.227615
-0.3458
0.263249
-0.351383
0.30403
-0.388609
0.339297
-0.34385
0.373745
-0.334918
0.407266
-0.321655
0.437232
-0.288376
0.464798
-0.263512
0.48987
-0.236906
0.512269
-0.20872
0.532496
-0.184292
0.550686
-0.160157
0.566955
-0.136918
0.581441
-0.114752
0.594163
-0.0923384
0.60513
-0.0700155
0.614377
-0.0467868
0.621863
-0.0233603
0.627518
0.00135741
0.63133
0.0260444
0.633408
0.0514029
0.633684
0.0746985
0.632184
0.0951608
0.628859
0.109076
0.623534
0.115027
0.616129
0.118334
0.607052
0.122887
0.596715
0.128419
0.585374
0.13546
0.573122
0.143636
0.559974
0.15293
0.54592
0.16373
0.530914
0.176746
0.514807
0.193447
0.497422
0.216274
0.478335
0.253146
0.456015
0.307515
0.433212
0.432166
0.398482
0.554232
-0.157406
-0.347053
-0.12186
-0.36152
-0.076667
-0.44869
-0.0322833
-0.452661
0.0128677
-0.466551
0.0590797
-0.481006
0.102929
-0.464952
0.141222
-0.419065
0.174129
-0.372299
0.202459
-0.329423
0.225905
-0.283062
0.245385
-0.243822
0.262133
-0.213986
0.276715
-0.188784
0.28979
-0.169484
0.301926
-0.154821
0.313408
-0.143263
0.324496
-0.134364
0.335336
-0.127645
0.346019
-0.122267
0.356558
-0.117919
0.366958
-0.113775
0.377145
-0.108879
0.386935
-0.100376
0.395951
-0.0882069
0.404007
-0.0757443
0.411038
-0.0634247
0.417003
-0.0514202
0.421896
-0.0396231
0.425697
-0.0281833
0.428402
-0.0170687
0.430028
-0.00630794
0.430554
0.00434399
0.429949
0.0152637
0.428079
0.02744
0.42468
0.0436138
0.419003
0.0679562
0.410581
0.120469
0.397302
0.21536
-0.194107
0.23131
-0.383003
0.268912
-0.388985
0.311994
-0.431691
0.349155
-0.381011
0.38539
-0.371153
0.420675
-0.35694
0.452193
-0.319895
0.48108
-0.292398
0.507391
-0.263217
0.530793
-0.232123
0.551993
-0.205492
0.570977
-0.179141
0.587966
-0.153907
0.603135
-0.129922
0.616408
-0.105612
0.628063
-0.0816701
0.637933
-0.0566563
0.646006
-0.031434
0.652286
-0.00492276
0.656718
0.0216122
0.6593
0.0488216
0.660073
0.0739247
0.65902
0.0962143
0.656108
0.111988
0.651197
0.119938
0.6442
0.125331
0.635457
0.131631
0.625306
0.138569
0.613986
0.14678
0.601621
0.156002
0.588232
0.166318
0.573848
0.178115
0.558375
0.192219
0.541737
0.210085
0.52368
0.234331
0.504028
0.272799
0.4815
0.330044
0.457952
0.455715
0.423466
0.588719
-0.157369
-0.383791
-0.119778
-0.39911
-0.0722014
-0.496267
-0.0254386
-0.499424
0.0220308
-0.514021
0.0705807
-0.529556
0.116699
-0.51107
0.156784
-0.459151
0.191168
-0.406683
0.220611
-0.358867
0.244848
-0.307299
0.26481
-0.263785
0.281846
-0.231022
0.296543
-0.203481
0.309615
-0.182557
0.321706
-0.166911
0.333114
-0.154671
0.344107
-0.145356
0.354902
-0.138439
0.365593
-0.132959
0.376197
-0.128523
0.386715
-0.124293
0.39711
-0.119275
0.407157
-0.110423
0.416472
-0.0975211
0.424851
-0.0841239
0.432216
-0.070789
0.438523
-0.0577273
0.443729
-0.0448291
0.447814
-0.0322685
0.450763
-0.0200182
0.452581
-0.00812599
0.453267
0.00365874
0.452753
0.0157768
0.450915
0.0292779
0.447487
0.0470418
0.441765
0.073678
0.433469
0.128765
0.420843
0.227986
-0.196162
0.235474
-0.422314
0.275102
-0.428613
0.320601
-0.47719
0.359722
-0.420132
0.397894
-0.409325
0.435136
-0.394182
0.468188
-0.352947
0.498525
-0.322735
0.5262
-0.290892
0.550712
-0.256635
0.572808
-0.227587
0.592649
-0.198982
0.610279
-0.171537
0.626134
-0.145776
0.640167
-0.119645
0.652393
-0.0938959
0.662864
-0.0671272
0.671499
-0.040069
0.678245
-0.0116691
0.6832
0.0166576
0.68632
0.0457016
0.68751
0.0727339
0.686897
0.0968275
0.684422
0.114463
0.67997
0.124391
0.673445
0.131855
0.665003
0.140073
0.655055
0.148517
0.643828
0.158006
0.631387
0.168443
0.617812
0.179894
0.603102
0.192825
0.587249
0.208071
0.570087
0.227247
0.551376
0.253042
0.53098
0.293196
0.508012
0.353012
0.484068
0.479656
0.450441
0.622346
-0.157419
-0.422535
-0.117946
-0.438583
-0.0677055
-0.546507
-0.0184546
-0.548675
0.0315101
-0.563985
0.0826323
-0.580678
0.131047
-0.559485
0.173119
-0.501222
0.209033
-0.442596
0.239746
-0.38958
0.264846
-0.332398
0.285417
-0.284356
0.302815
-0.24842
0.317694
-0.21836
0.330825
-0.195688
0.342869
-0.178955
0.354193
-0.165995
0.365119
-0.156283
0.375844
-0.149164
0.386498
-0.143613
0.397129
-0.139154
0.407757
-0.134921
0.418321
-0.12984
0.428599
-0.120701
0.43821
-0.107132
0.446893
-0.0928075
0.454579
-0.0784742
0.461196
-0.0643446
0.466714
-0.0503474
0.471075
-0.0366296
0.474288
-0.0232307
0.476335
-0.0101734
0.477165
0.00282894
0.476771
0.0161709
0.474983
0.0310658
0.471544
0.0504809
0.465804
0.0794176
0.457604
0.136965
0.445675
0.239915
-0.198579
0.240053
-0.463787
0.281814
-0.470374
0.329831
-0.525207
0.371023
-0.461324
0.411317
-0.449619
0.45052
-0.433385
0.485283
-0.38771
0.517184
-0.354636
0.546161
-0.319869
0.571777
-0.282252
0.594875
-0.250685
0.615601
-0.219708
0.634111
-0.190047
0.650604
-0.162269
0.665231
-0.134271
0.678042
-0.106707
0.689061
-0.0781457
0.69824
-0.0492486
0.705612
-0.0190409
0.711041
0.0112286
0.714585
0.0421579
0.716267
0.0710513
0.716048
0.097047
0.71399
0.116521
0.709958
0.128423
0.703858
0.137955
0.695805
0.148126
0.68609
0.158232
0.67494
0.169157
0.662459
0.180924
0.648731
0.193622
0.633759
0.207797
0.617495
0.224336
0.599844
0.244898
0.580569
0.272316
0.559483
0.314282
0.535824
0.376671
0.511462
0.504018
0.478867
0.654942
-0.157669
-0.463445
-0.116047
-0.480205
-0.0631009
-0.599454
-0.0112167
-0.600559
0.0413977
-0.6166
0.0952124
-0.634493
0.146131
-0.610404
0.190282
-0.545373
0.227902
-0.480216
0.259944
-0.421623
0.286043
-0.358497
0.307266
-0.305579
0.325086
-0.26624
0.340209
-0.233483
0.35343
-0.208909
0.36548
-0.191005
0.376736
-0.177251
0.387572
-0.167118
0.398217
-0.159809
0.408827
-0.154223
0.419454
-0.14978
0.430135
-0.145603
0.440846
-0.14055
0.451358
-0.131213
0.461218
-0.116992
0.470183
-0.101772
0.478172
-0.0864636
0.485102
-0.0712745
0.490928
-0.0561734
0.495591
-0.0412923
0.499062
-0.0267017
0.501309
-0.0124209
0.502335
0.00180338
0.502048
0.0164577
0.500325
0.0327884
0.496899
0.053907
0.491158
0.085159
0.483118
0.145004
0.471907
0.251126
-0.201206
0.244903
-0.507484
0.288996
-0.514468
0.339698
-0.575909
0.383129
-0.504755
0.425588
-0.492078
0.46683
-0.474627
0.503455
-0.424334
0.536972
-0.388154
0.567337
-0.350235
0.594193
-0.309108
0.618432
-0.274923
0.640021
-0.241298
0.659303
-0.209329
0.676532
-0.179498
0.691762
-0.149501
0.705174
-0.12012
0.716727
-0.089699
0.726458
-0.0589789
0.734271
-0.0268542
0.740215
0.00528484
0.744196
0.0381761
0.746261
0.0689863
0.74648
0.0968289
0.744824
0.118177
0.741251
0.131996
0.735561
0.143644
0.727871
0.155816
0.718415
0.167689
0.707376
0.180195
0.694909
0.193391
0.681046
0.207484
0.665829
0.223014
0.649213
0.240952
0.631097
0.263014
0.611294
0.292119
0.58954
0.336037
0.565205
0.401006
0.540303
0.528918
0.508605
0.686641
-0.15807
-0.506581
-0.114235
-0.524041
-0.0584168
-0.655272
-0.00369526
-0.655281
0.0516986
-0.671993
0.108327
-0.691121
0.161956
-0.664034
0.208298
-0.591715
0.247756
-0.519674
0.281245
-0.455112
0.308398
-0.38565
0.330364
-0.327545
0.348705
-0.284581
0.36412
-0.248898
0.37748
-0.222269
0.389573
-0.203099
0.400794
-0.188472
0.411552
-0.177876
0.42211
-0.170367
0.432644
-0.164757
0.443256
-0.160392
0.453972
-0.15632
0.464797
-0.151375
0.475484
-0.1419
0.485574
-0.127082
0.494819
-0.111018
0.503093
-0.0947377
0.510335
-0.0785163
0.516449
-0.0622874
0.5214
-0.0462438
0.525132
-0.0304339
0.527627
-0.0149158
0.528821
0.000609596
0.528657
0.0166219
0.527021
0.0344242
0.523618
0.0573097
0.517936
0.0908418
0.51005
0.152889
0.499525
0.261651
-0.204154
0.250254
-0.553585
0.296791
-0.561004
0.350185
-0.629303
0.396083
-0.550653
0.440716
-0.536711
0.484233
-0.518144
0.522711
-0.462813
0.55795
-0.423393
0.589862
-0.382147
0.618032
-0.337278
0.643262
-0.300153
0.665894
-0.26393
0.685947
-0.229382
0.703897
-0.197448
0.719862
-0.165466
0.733813
-0.134071
0.745938
-0.101824
0.756156
-0.0691973
0.764497
-0.0351949
0.770848
-0.00106614
0.775242
0.0337822
0.777751
0.0664768
0.778301
0.0962791
0.77704
0.119439
0.773855
0.13518
0.76858
0.148919
0.761277
0.163119
0.752102
0.176863
0.741258
0.19104
0.728806
0.205843
0.714846
0.221444
0.699401
0.238459
0.68245
0.257904
0.663912
0.281552
0.643545
0.312486
0.621236
0.358345
0.596257
0.425986
0.570713
0.554462
0.539789
0.717565
-0.158673
-0.552062
-0.112454
-0.57026
-0.0535498
-0.714175
0.00408274
-0.712913
0.0624725
-0.730383
0.122117
-0.750765
0.178493
-0.72041
0.227266
-0.640488
0.268637
-0.561045
0.303721
-0.490196
0.33204
-0.413969
0.354837
-0.350342
0.373742
-0.303486
0.38951
-0.264666
0.403065
-0.235824
0.415211
-0.215244
0.426435
-0.199696
0.437113
-0.188555
0.447583
-0.180837
0.458039
-0.175213
0.468605
-0.170958
0.479335
-0.16705
0.490255
-0.162295
0.501107
-0.152752
0.511413
-0.137388
0.52089
-0.120494
0.529426
-0.103274
0.536939
-0.0860287
0.543356
-0.0687046
0.54858
-0.0514674
0.552588
-0.0344422
0.555298
-0.0176264
0.556699
-0.000790933
0.556698
0.0166231
0.555127
0.0359949
0.551812
0.060624
0.546179
0.0964752
0.538525
0.160543
0.528696
0.27148
-0.207331
0.255963
-0.602217
0.304974
-0.610016
0.361437
-0.685765
0.409652
-0.598868
0.45681
-0.583869
0.502597
-0.563932
0.543187
-0.503403
0.580163
-0.460368
0.613663
-0.415647
0.643171
-0.366786
0.669684
-0.326666
0.693251
-0.287497
0.71425
-0.25038
0.732958
-0.216156
0.749553
-0.182062
0.764122
-0.14864
0.776757
-0.114458
0.787443
-0.0798832
0.79619
-0.0439425
0.802983
-0.00785865
0.807815
0.0289501
0.810625
0.0636667
0.811547
0.0953573
0.810676
0.120309
0.807882
0.137974
0.80305
0.153752
0.796118
0.170051
0.787223
0.185758
0.776534
0.201729
0.764168
0.218209
0.750149
0.235462
0.734516
0.254093
0.717263
0.275156
0.698308
0.300507
0.677461
0.333332
0.654586
0.38122
0.629037
0.451536
0.602889
0.580607
0.572604
0.747851
-0.15938
-0.600013
-0.110654
-0.618986
-0.0485301
-0.776299
0.0121738
-0.773617
0.0737067
-0.791916
0.136544
-0.813603
0.19593
-0.779795
0.247183
-0.691741
0.290631
-0.604493
0.327376
-0.526941
0.356965
-0.443559
0.380679
-0.374056
0.400218
-0.323025
0.416413
-0.280861
0.430207
-0.249618
0.442469
-0.227506
0.453694
-0.21092
0.46433
-0.199191
0.474715
-0.191223
0.48511
-0.185607
0.495602
-0.18145
0.506339
-0.177786
0.517317
-0.173273
0.528308
-0.163743
0.538804
-0.147883
0.548484
-0.130175
0.557284
-0.112074
0.565061
-0.0938057
0.571731
-0.0753751
0.577258
-0.0569937
0.581516
-0.0387007
0.584473
-0.0205832
0.586051
-0.00236929
0.586203
0.0164713
0.58477
0.0374275
0.581518
0.0638761
0.576012
0.101982
0.568566
0.167989
0.559442
0.280603
-0.210796
0.262049
-0.65347
0.313736
-0.661703
0.373255
-0.745284
0.424194
-0.649807
0.473799
-0.633474
0.522119
-0.612252
0.564732
-0.546015
0.603664
-0.4993
0.638866
-0.45085
0.669863
-0.397783
0.697557
-0.35436
0.72228
-0.31222
0.744163
-0.272263
0.763669
-0.235661
0.780908
-0.199301
0.796113
-0.163845
0.809249
-0.127594
0.820405
-0.0910395
0.829632
-0.0531691
0.836798
-0.015025
0.841962
0.0237861
0.845136
0.0604931
0.846389
0.0941039