/*--------------------------------*- C++ -*----------------------------------*\
| =========                 |                                                 |
| \\      /  F ield         | OpenFOAM: The Open Source CFD Toolbox           |
|  \\    /   O peration     | Version:  2506                                  |
|   \\  /    A nd           | Website:  www.openfoam.com                      |
|    \\/     M anipulation  |                                                 |
\*---------------------------------------------------------------------------*/
FoamFile
{
    version     2.0;
    format      ascii;
    arch        "LSB;label=32;scalar=64";
    class       volScalarField;
    location    "300";
    object      static(p)_coeff;
}
// * * * * * * * * * * * * * * * * * * * * * * * * * * * * * * * * * * * * * //

dimensions      [0 0 0 0 0 0 0];

internalField   nonuniform List<scalar> 
10720
(
-0.184709
-0.395601
-0.643652
-0.888109
-1.11399
-1.34408
-1.54822
-1.7196
-1.86847
-1.98494
-2.07362
-2.13891
-2.18417
-2.21153
-2.22152
-2.21222
-2.18631
-2.14069
-2.07957
-2.00315
-1.92137
-1.84328
-1.77645
-1.69671
-1.57766
-1.42655
-1.27158
-1.13668
-1.02058
-0.91137
-0.803417
-0.696443
-0.590579
-0.484729
-0.377706
-0.266447
-0.152555
-0.0205153
0.0769162
0.0264315
0.218859
0.424011
0.615555
0.779248
0.903304
0.976561
1.00112
0.994056
0.955933
0.893756
0.824131
0.754497
0.687111
0.62387
0.564378
0.508803
0.455861
0.404764
0.354052
0.303576
0.252416
0.200848
0.15009
0.105665
0.0706521
0.0419136
0.0185972
0.00125019
-0.0102299
-0.0165772
-0.0182303
-0.0154336
-0.0082057
0.00347935
0.0206674
0.0450563
0.08624
0.156314
0.127475
-0.0327348
-0.212223
-0.40285
-0.598737
-0.799223
-0.993799
-1.17632
-1.34476
-1.49392
-1.62319
-1.73259
-1.82184
-1.89092
-1.93931
-1.9661
-1.97352
-1.96124
-1.93236
-1.88851
-1.83752
-1.78638
-1.73828
-1.67201
-1.56327
-1.41816
-1.26683
-1.13352
-1.01797
-0.908992
-0.801122
-0.694261
-0.588609
-0.483041
-0.37633
-0.265359
-0.1517
-0.0196149
0.0760014
0.271641
0.409068
0.546149
0.678383
0.794922
0.888041
0.948461
0.974218
0.970033
0.938449
0.887645
0.82792
0.765036
0.701785
0.64025
0.58117
0.52493
0.470993
0.418772
0.3673
0.316277
0.265098
0.214005
0.164255
0.120203
0.0845909
0.0554002
0.0314059
0.0125006
-0.00101907
-0.00919107
-0.0122949
-0.0106368
-0.00431361
0.0066711
0.0233359
0.0473321
0.0882832
0.155604
0.168262
0.0243167
-0.137759
-0.316709
-0.502237
-0.692391
-0.882542
-1.06482
-1.23455
-1.38876
-1.52377
-1.63793
-1.73033
-1.80154
-1.85226
-1.88373
-1.89602
-1.88932
-1.86555
-1.82685
-1.77873
-1.72721
-1.6757
-1.61098
-1.51283
-1.38235
-1.2436
-1.11776
-1.00638
-0.900437
-0.795073
-0.690123
-0.585716
-0.480893
-0.37468
-0.264101
-0.150753
-0.0188767
0.0763625
0.298157
0.424363
0.549891
0.66874
0.771419
0.853133
0.907652
0.934065
0.934568
0.911118
0.869868
0.817777
0.760114
0.700336
0.640842
0.582918
0.52716
0.47346
0.421399
0.370255
0.319637
0.269129
0.218918
0.170133
0.126214
0.0898323
0.0598917
0.0353419
0.0161414
0.00254911
-0.00562249
-0.0088403
-0.00745313
-0.00150305
0.00910089
0.02543
0.0491651
0.0897187
0.154431
0.235194
0.114527
-0.02332
-0.17491
-0.33406
-0.500563
-0.669494
-0.835652
-0.995112
-1.14446
-1.28038
-1.40071
-1.50408
-1.59005
-1.65824
-1.70903
-1.74107
-1.75425
-1.74949
-1.7286
-1.69541
-1.65449
-1.60831
-1.54838
-1.46011
-1.34336
-1.2165
-1.09792
-0.990738
-0.888091
-0.785658
-0.683151
-0.580738
-0.477509
-0.372452
-0.26268
-0.149868
-0.0185829
0.0769706
0.343279
0.447082
0.551207
0.651662
0.739596
0.81127
0.861317
0.888301
0.892954
0.876645
0.844087
0.800444
0.750034
0.696115
0.641016
0.586172
0.532389
0.479929
0.428616
0.378031
0.327869
0.277912
0.228373
0.180312
0.136568
0.0996526
0.069072
0.0438705
0.023918
0.00939768
0.000143523
-0.00415335
-0.00371743
0.00146693
0.0115029
0.0274303
0.0508732
0.0909145
0.153115
0.253344
0.145907
0.0225974
-0.113994
-0.257792
-0.410011
-0.566588
-0.722756
-0.875529
-1.02148
-1.15722
-1.28035
-1.38886
-1.48129
-1.55674
-1.6143
-1.65322
-1.67352
-1.67592
-1.66224
-1.6355
-1.59952
-1.55619
-1.49948
-1.4181
-1.311
-1.19268
-1.07939
-0.975312
-0.875263
-0.775317
-0.675052
-0.574586
-0.473037
-0.369432
-0.260907
-0.149007
-0.0187072
0.0771579
0.349819
0.441977
0.534667
0.624083
0.702409
0.767065
0.813923
0.841266
0.849175
0.838896
0.813832
0.777873
0.734402
0.686254
0.635657
0.584113
0.532614
0.481689
0.431438
0.381693
0.332282
0.283125
0.234468
0.187293
0.143941
0.106701
0.0755485
0.0497223
0.0291092
0.0139093
0.0040443
-0.000739161
-0.000683322
0.00418139
0.0139382
0.0296087
0.0527793
0.0922015
0.151774
0.26459
0.169471
0.0597261
-0.0617448
-0.189661
-0.326094
-0.467252
-0.609353
-0.750202
-0.886675
-1.01591
-1.13562
-1.24365
-1.33821
-1.41805
-1.48206
-1.52987
-1.56092
-1.57522
-1.57385
-1.5588
-1.53273
-1.49682
-1.44671
-1.37379
-1.2768
-1.16745
-1.06018
-0.959822
-0.862589
-0.76506
-0.66688
-0.568247
-0.468337
-0.366173
-0.258977
-0.148232
-0.019338
0.076818
0.350008
0.431299
0.513651
0.593685
0.664173
0.723215
0.767461
0.794901
0.805263
0.799773
0.780931
0.75174
0.714844
0.672603
0.627017
0.579505
0.531109
0.482502
0.433993
0.385618
0.337355
0.289249
0.2416
0.195339
0.152464
0.115053
0.0834398
0.0570918
0.0359098
0.0200837
0.00957205
0.00412833
0.00352472
0.00775149
0.0169329
0.0321054
0.0548172
0.0934438
0.150316
0.264373
0.178528
0.079221
-0.0307968
-0.146424
-0.270421
-0.399428
-0.530129
-0.661059
-0.789444
-0.912801
-1.0291
-1.13613
-1.23197
-1.31509
-1.38416
-1.43796
-1.47571
-1.49697
-1.50258
-1.49413
-1.47371
-1.44227
-1.39681
-1.3309
-1.24303
-1.14228
-1.04105
-0.944512
-0.850148
-0.755068
-0.658929
-0.561988
-0.463581
-0.362869
-0.257113
-0.147731
-0.020586
0.075873
0.341543
0.414753
0.489293
0.562036
0.626351
0.680891
0.722907
0.750202
0.762377
0.760638
0.74689
0.723484
0.692501
0.655847
0.61523
0.571909
0.526888
0.480926
0.434464
0.387718
0.340812
0.293911
0.247376
0.202097
0.159807
0.122395
0.0904434
0.0636417
0.0419231
0.0254758
0.0143011
0.00820712
0.00700132
0.0106999
0.0194407
0.034241
0.0565813
0.0943983
0.148638
0.259423
0.1815
0.091171
-0.00881164
-0.113609
-0.226351
-0.343945
-0.463498
-0.584057
-0.703261
-0.818961
-0.929463
-1.03273
-1.12688
-1.21026
-1.28136
-1.3388
-1.3819
-1.41004
-1.42342
-1.42292
-1.40983
-1.38461
-1.3451
-1.28657
-1.20765
-1.11536
-1.02036
-0.927966
-0.836761
-0.744399
-0.650552
-0.555511
-0.458703
-0.359444
-0.255198
-0.147448
-0.0224033
0.0741704
0.329575
0.395982
0.463977
0.530659
0.58984
0.640647
0.680663
0.707603
0.721106
0.722263
0.71262
0.694077
0.668288
0.636775
0.600958
0.561897
0.520505
0.477542
0.43352
0.388771
0.343539
0.298098
0.252854
0.208671
0.167101
0.129867
0.0977214
0.0705669
0.0483898
0.031386
0.0196029
0.0128964
0.0110978
0.0142345
0.0224628
0.0367856
0.0586225
0.0954303
0.146954
0.250872
0.179522
0.0967128
0.00512288
-0.0905765
-0.193706
-0.30147
-0.411256
-0.52254
-0.633261
-0.741622
-0.846264
-0.945344
-1.0371
-1.1199
-1.19216
-1.25242
-1.2996
-1.33284
-1.35185
-1.3571
-1.34947
-1.32923
-1.29483
-1.24283
-1.17198
-1.08762
-0.998765
-0.910627
-0.822702
-0.733159
-0.641717
-0.548693
-0.453616
-0.355894
-0.25318
-0.1472
-0.0245103
0.0716536
0.315203
0.376005
0.438563
0.500163
0.555011
0.602656
0.640845
0.667297
0.681722
0.685112
0.678761
0.664256
0.642945
0.616043
0.584708
0.549796
0.512098
0.472309
0.430956
0.388443
0.345107
0.301298
0.257478
0.214488
0.173745
0.136837
0.104626
0.0772052
0.0546306
0.037111
0.0247383
0.0174185
0.0150183
0.0175887
0.0253061
0.0391534
0.0604753
0.0962197
0.145093
0.240391
0.174681
0.0983645
0.0140593
-0.0737451
-0.168444
-0.267435
-0.368368
-0.471008
-0.573551
-0.674529
-0.772851
-0.866887
-0.955096
-1.03592
-1.10777
-1.16914
-1.21882
-1.25591
-1.2798
-1.29048
-1.28834
-1.27335
-1.24432
-1.19874
-1.13555
-1.05885
-0.976144
-0.892431
-0.807937
-0.721328
-0.6324
-0.541494
-0.44825
-0.352173
-0.251073
-0.146903
-0.0267356
0.0684698
0.29974
0.355761
0.413679
0.470919
0.522049
0.566928
0.60344
0.629303
0.644338
0.649431
0.645713
0.634536
0.617037
0.594202
0.566967
0.535998
0.50195
0.465424
0.426915
0.386854
0.345628
0.303647
0.261407
0.219734
0.179948
0.14353
0.111404
0.0838308
0.0609441
0.0429752
0.0300597
0.0221589
0.0191735
0.0211736
0.0283574
0.0416814
0.0624112
0.096953
0.143143
0.228768
0.167927
0.0972358
0.0192483
-0.0616922
-0.14902
-0.240289
-0.333361
-0.428178
-0.523176
-0.617161
-0.709295
-0.798149
-0.882386
-0.960591
-1.03125
-1.09287
-1.14416
-1.18406
-1.2117
-1.22668
-1.22908
-1.21868
-1.19457
-1.1549
-1.09878
-1.0293
-0.952641
-0.873447
-0.7925
-0.708926
-0.622613
-0.533927
-0.442616
-0.348284
-0.248901
-0.146543
-0.029107
0.0648136
0.283814
0.335728
0.389626
0.443092
0.490979
0.533407
0.568345
0.593566
0.608962
0.615345
0.613715
0.605274
0.590999
0.571708
0.548155
0.52086
0.490326
0.45705
0.42147
0.383997
0.345045
0.305049
0.264525
0.224278
0.185568
0.149783
0.117884
0.0902644
0.0671453
0.0487868
0.0353688
0.0269062
0.0233428
0.02477
0.03141
0.0441879
0.0642832
0.0975437
0.141088
0.216606
0.160033
0.0942853
0.0218545
-0.0530606
-0.133875
-0.218274
-0.304283
-0.391998
-0.480026
-0.567395
-0.653478
-0.737046
-0.816976
-0.891993
-0.960692
-1.02164
-1.07352
-1.11519
-1.1457
-1.16427
-1.17071
-1.16464
-1.14525
-1.11116
-1.06165
-0.998999
-0.928265
-0.853674
-0.776385
-0.695958
-0.612364
-0.526003
-0.436724
-0.344237
-0.246689
-0.146175
-0.0316712
0.0607625
0.267892
0.316218
0.366599
0.416728
0.461768
0.501977
0.53543
0.559983
0.575541
0.582889
0.582921
0.576719
0.565153
0.548918
0.528642
0.504701
0.477486
0.447381
0.414744
0.379945
0.343389
0.305516
0.266831
0.228129
0.190614
0.155606
0.124078
0.0965321
0.0732733
0.0545989
0.0407317
0.0317428
0.0276202
0.0284758
0.0345566
0.0467509
0.0661491
0.0980291
0.138942
0.204288
0.151481
0.0901138
0.0226051
-0.0469804
-0.122011
-0.200287
-0.279963
-0.361248
-0.442911
-0.524122
-0.604442
-0.682831
-0.758336
-0.829866
-0.896137
-0.955808
-1.00759
-1.05023
-1.08279
-1.10419
-1.11401
-1.11175
-1.09668
-1.06774
-1.02431
-0.968081
-0.903105
-0.833143
-0.759611
-0.68242
-0.601647
-0.517718
-0.430571
-0.340031
-0.244437
-0.145862
-0.03443
0.0563337
0.252239
0.297415
0.344666
0.391823
0.434322
0.472516
0.504565
0.528423
0.544002
0.552056
0.553405
0.54903
0.539737
0.526125
0.508724
0.487817
0.463681
0.436611
0.406873
0.374777
0.340691
0.305034
0.268296
0.231245
0.19504
0.160942
0.129924
0.10257
0.079265
0.0603493
0.046088
0.0366075
0.0319439
0.0322308
0.037741
0.0493233
0.0679735
0.0983967
0.136714
0.192069
0.142617
0.0851665
0.0220554
-0.042777
-0.112638
-0.185431
-0.259405
-0.33487
-0.410706
-0.486211
-0.561092
-0.634465
-0.705548
-0.77341
-0.836915
-0.8948
-0.945846
-0.988783
-1.02264
-1.04623
-1.05887
-1.05997
-1.04886
-1.02467
-0.986872
-0.936647
-0.87723
-0.811897
-0.742192
-0.66832
-0.590458
-0.509061
-0.424153
-0.335666
-0.242134
-0.145626
-0.0373748
0.0515704
0.237043
0.279406
0.323867
0.368347
0.408559
0.444893
0.475613
0.498767
0.514255
0.522815
0.525196
0.522315
0.514917
0.503547
0.488655
0.470458
0.449152
0.424939
0.398005
0.368589
0.337003
0.303626
0.268924
0.233618
0.198827
0.165765
0.135391
0.108351
0.0851003
0.0660242
0.0514317
0.0415025
0.0363227
0.0360479
0.0409769
0.0519153
0.069763
0.0986576
0.134414
0.180115
0.133681
0.0797537
0.0206004
-0.0399694
-0.105188
-0.173038
-0.241873
-0.312053
-0.382556
-0.452794
-0.522584
-0.591177
-0.657941
-0.722082
-0.782606
-0.838364
-0.88821
-0.930903
-0.965454
-0.990619
-1.00553
-1.00953
-1.00196
-0.982104
-0.949452
-0.904818
-0.850731
-0.78998
-0.724147
-0.653661
-0.578798
-0.50003
-0.417465
-0.331134
-0.239776
-0.145451
-0.040498
0.0465098
0.222413
0.262246
0.304182
0.34624
0.38437
0.418985
0.448443
0.470884
0.486199
0.495103
0.498294
0.496629
0.490814
0.481352
0.468642
0.452853
0.434115
0.412555
0.388289
0.361482
0.332385
0.301328
0.268721
0.235239
0.201955
0.170043
0.140442
0.113834
0.0907394
0.0715879
0.0567304
0.0463992
0.0407308
0.0399043
0.0442444
0.0545099
0.0715054
0.0988129
0.132054
0.168534
0.124837
0.0741009
0.0185326
-0.0381926
-0.0992107
-0.162587
-0.226768
-0.292143
-0.357767
-0.423156
-0.488202
-0.552275
-0.614863
-0.67531
-0.732736
-0.786128
-0.834418
-0.876426
-0.911133
-0.937357
-0.954048
-0.9605
-0.956066
-0.940114
-0.912159
-0.872708
-0.823693
-0.76745
-0.705509
-0.638464
-0.566674
-0.490624
-0.410505
-0.326434
-0.237362
-0.14533
-0.0437797
0.04117
0.20841
0.245955
0.285592
0.325437
0.361656
0.394675
0.42294
0.444668
0.459744
0.468864
0.472685
0.472005
0.467509
0.459668
0.448845
0.435177
0.418749
0.399629
0.377874
0.353578
0.326925
0.298184
0.267706
0.236109
0.204416
0.173756
0.145045
0.118987
0.0961514
0.0770118
0.0619607
0.0512791
0.0451551
0.043791
0.0475362
0.0571025
0.0731976
0.0988697
0.129646
0.157402
0.116195
0.068366
0.0160662
-0.0371716
-0.0943705
-0.153688
-0.213633
-0.274626
-0.335796
-0.396716
-0.457352
-0.517171
-0.575766
-0.632595
-0.686904
-0.737782
-0.784262
-0.825234
-0.859675
-0.886491
-0.90451
-0.912985
-0.911278
-0.898817
-0.875115
-0.840437
-0.796221
-0.744372
-0.686316
-0.622746
-0.554091
-0.480849
-0.403273
-0.321569
-0.234891
-0.145256
-0.047196
0.0355702
0.195066
0.23053
0.268062
0.305871
0.34033
0.371852
0.398981
0.420003
0.434789
0.444026
0.448327
0.448448
0.445053
0.43859
0.429394
0.417586
0.403226
0.386331
0.366909
0.344998
0.320711
0.294253
0.265914
0.236241
0.206204
0.176887
0.149173
0.123776
0.101302
0.0822643
0.0670935
0.0561181
0.0495747
0.0476912
0.0508383
0.0596811
0.0748333
0.0988342
0.127201
0.146759
0.107831
0.062673
0.0133578
-0.0366903
-0.0904111
-0.146019
-0.202103
-0.25909
-0.316173
-0.372979
-0.42953
-0.485368
-0.54018
-0.593513
-0.644722
-0.693012
-0.737501
-0.777166
-0.811001
-0.838006
-0.856957
-0.867058
-0.867685
-0.858303
-0.838432
-0.808126
-0.768414
-0.720819
-0.666614
-0.606537
-0.541065
-0.470709
-0.395769
-0.316534
-0.232358
-0.145225
-0.0507209
0.029743
0.182392
0.215949
0.251543
0.287474
0.320297
0.350416
0.376463
0.396784
0.411251
0.420523
0.425188
0.425957
0.423475
0.418181
0.410387
0.400209
0.387682
0.372801
0.355528
0.335852
0.313834
0.289604
0.263387
0.235659
0.207325
0.179425
0.152804
0.128172
0.10616
0.0873142
0.0721011
0.0608915
0.0539695
0.0515887
0.0541378
0.0622367
0.0764072
0.0987138
0.124734
0.136627
0.0997978
0.0570966
0.0105328
-0.0365981
-0.0871243
-0.139337
-0.191881
-0.245201
-0.29853
-0.351546
-0.404314
-0.456438
-0.507673
-0.557655
-0.60583
-0.651511
-0.6939
-0.732065
-0.765036
-0.791884
-0.811415
-0.822776
-0.825358
-0.818668
-0.80221
-0.775885
-0.740385
-0.696875
-0.646456
-0.589869
-0.527615
-0.460212
-0.387996
-0.311328
-0.22976
-0.145232
-0.0543283
0.0237239
0.170388
0.202187
0.235986
0.270177
0.301467
0.330271
0.355285
0.374916
0.389037
0.398286
0.403214
0.404507
0.402791
0.398484
0.3919
0.383142
0.372239
0.359166
0.343859
0.326266
0.306392
0.284309
0.260174
0.234389
0.207793
0.181367
0.155921
0.132149
0.110695
0.0921311
0.0769541
0.0655738
0.058317
0.055465
0.0574193
0.064758
0.0779148
0.0985159
0.122259
0.127015
0.0921284
0.0516979
0.00767402
-0.0367673
-0.0843576
-0.133444
-0.182741
-0.23269
-0.282567
-0.332084
-0.381344
-0.43
-0.47787
-0.524666
-0.569907
-0.612997
-0.653232
-0.689759
-0.721671
-0.748082
-0.767887
-0.78018
-0.784368
-0.779988
-0.766556
-0.743834
-0.712235
-0.672621
-0.625902
-0.572785
-0.51377
-0.449368
-0.379959
-0.305954
-0.227092
-0.14527
-0.0579925
0.0175514
0.159041
0.189213
0.221347
0.253916
0.283772
0.311326
0.335355
0.354315
0.368072
0.377247
0.382367
0.384077
0.382994
0.379534
0.373988
0.366469
0.356995
0.345539
0.332016
0.316342
0.29848
0.278446
0.256334
0.232473
0.207626
0.182718
0.158514
0.135687
0.114881
0.0966856
0.0816233
0.0701374
0.0625934
0.0593004
0.0606679
0.0672346
0.079352
0.0982488
0.119788
0.117923
0.0848394
0.046519
0.00485046
-0.0371068
-0.0819833
-0.128188
-0.174492
-0.221333
-0.268027
-0.314319
-0.360325
-0.405761
-0.450475
-0.494245
-0.536669
-0.577221
-0.615286
-0.650082
-0.680785
-0.706539
-0.726353
-0.739285
-0.744757
-0.742346
-0.731565
-0.712079
-0.684074
-0.648145
-0.605019
-0.555321
-0.499551
-0.4382
-0.371666
-0.300408
-0.224346
-0.145324
-0.0616854
0.0112679
0.148336
0.176994
0.207574
0.238627
0.267136
0.293509
0.316599
0.334903
0.348281
0.357344
0.362588
0.364635
0.364085
0.361337
0.356684
0.350242
0.342028
0.332013
0.320098
0.306182
0.290191
0.272098
0.251934
0.229955
0.20685
0.183485
0.160577
0.138768
0.118692
0.100949
0.0860802
0.0745556
0.0667752
0.0630744
0.0638665
0.0696547
0.0807147
0.0979205
0.117334
0.109343
0.0779402
0.0415844
0.00210878
-0.0375437
-0.079906
-0.123442
-0.166981
-0.210947
-0.254701
-0.298006
-0.341008
-0.383441
-0.425203
-0.466125
-0.505851
-0.543943
-0.579848
-0.612872
-0.642256
-0.667187
-0.686789
-0.700102
-0.706568
-0.705796
-0.697319
-0.680722
-0.65601
-0.623541
-0.583874
-0.537539
-0.484999
-0.426723
-0.363123
-0.294698
-0.221518
-0.145383
-0.0653771
0.0049174
0.138252
0.165496
0.194621
0.22425
0.251489
0.276747
0.298935
0.316596
0.329593
0.338514
0.343838
0.346151
0.346039
0.3439
0.34002
0.334512
0.327407
0.31867
0.308202
0.295883
0.28162
0.265345
0.247036
0.226883
0.2055
0.183688
0.162113
0.141381
0.12211
0.104897
0.0902966
0.0788007
0.0708367
0.0667649
0.066998
0.0720074
0.081999
0.0975386
0.114912
0.101264
0.0714312
0.0369128
-0.000515071
-0.0380276
-0.0780485
-0.11911
-0.160084
-0.201391
-0.242419
-0.282963
-0.323169
-0.362813
-0.401815
-0.440051
-0.477219
-0.512941
-0.546732
-0.57797
-0.605963
-0.629945
-0.649144
-0.66262
-0.669826
-0.6704
-0.663898
-0.649857
-0.628138
-0.598905
-0.562542
-0.519487
-0.470147
-0.414963
-0.354344
-0.288821
-0.218599
-0.145428
-0.0690406
-0.00145834
0.128762
0.154688
0.182445
0.210731
0.236774
0.260972
0.282296
0.299334
0.311944
0.320705
0.326064
0.328588
0.328845
0.327224
0.324006
0.319312
0.313177
0.30557
0.296394
0.285526
0.272848
0.258264
0.24171
0.223314
0.203615
0.183349
0.163129
0.14352
0.125116
0.108506
0.0942463
0.0828452
0.0747528
0.0703495
0.0700448
0.0742805
0.0832016
0.0971112
0.112533
0.0936718
0.065309
0.0325127
-0.00299763
-0.0385124
-0.0763525
-0.115109
-0.153702
-0.192539
-0.231043
-0.269023
-0.306637
-0.343678
-0.380104
-0.41582
-0.450566
-0.48402
-0.515751
-0.545212
-0.571776
-0.594723
-0.613369
-0.626819
-0.634536
-0.636189
-0.631368
-0.619578
-0.600562
-0.574329
-0.541106
-0.501228
-0.455041
-0.402948
-0.345347
-0.282781
-0.215583
-0.145443
-0.0726442
-0.00781337
0.119845
0.144531
0.171003
0.198024
0.222933
0.246121
0.266617
0.283047
0.295275
0.303857
0.309225
0.311908
0.31247
0.31129
0.308646
0.304661
0.299379
0.292772
0.284749
0.275184
0.263952
0.250932
0.236026
0.219303
0.201237
0.182495
0.163637
0.145185
0.1277
0.111755
0.0979048
0.0866638
0.0784975
0.0738052
0.0729885
0.0764625
0.08432
0.0966451
0.11021
0.0865467
0.0595672
0.0283891
-0.00532295
-0.0389667
-0.0747697
-0.111374
-0.147748
-0.184289
-0.220448
-0.256046
-0.291248
-0.325872
-0.359896
-0.393243
-0.425703
-0.456997
-0.486744
-0.514459
-0.539574
-0.561429
-0.579404
-0.592673
-0.600704
-0.603203
-0.59979
-0.589961
-0.573367
-0.5499
-0.519641
-0.482825
-0.439729
-0.390708
-0.336145
-0.276585
-0.21246
-0.145407
-0.0761566
-0.0141035
0.111473
0.134994
0.160252
0.186076
0.209911
0.232137
0.25184
0.267684
0.279532
0.287924
0.293269
0.296078
0.296894
0.296093
0.293941
0.290574
0.286038
0.280313
0.273314
0.264922
0.255002
0.243418
0.230046
0.214909
0.198413
0.181159
0.163656
0.146379
0.129854
0.11463
0.10125
0.0902307
0.0820463
0.0771085
0.0758103
0.0785413
0.0853508
0.0961467
0.107951
0.0798711
0.0541955
0.0245405
-0.00748082
-0.0393702
-0.073265
-0.107857
-0.14216
-0.176561
-0.210534
-0.243918
-0.276875
-0.309246
-0.341025
-0.372157
-0.402463
-0.431704
-0.459549
-0.485564
-0.509235
-0.529964
-0.547187
-0.560143
-0.568324
-0.57146
-0.569212
-0.561074
-0.546643
-0.525705
-0.498226
-0.464344
-0.424259
-0.378276
-0.32676
-0.270234
-0.209224
-0.145298
-0.0795472
-0.0202837
0.103623
0.126044
0.150155
0.174841
0.197657
0.218967
0.237908
0.253185
0.264659
0.272853
0.278157
0.281058
0.282089
0.281609
0.279885
0.277055
0.273172
0.268225
0.262136
0.254791
0.246056
0.235785
0.223833
0.210186
0.195188
0.179377
0.163209
0.147113
0.131576
0.117116
0.104262
0.0935231
0.0853754
0.0802376
0.0784919
0.0805053
0.0862911
0.0956211
0.105767
0.0736271
0.0491802
0.0209642
-0.00946476
-0.039705
-0.071808
-0.104515
-0.136882
-0.169283
-0.201217
-0.232539
-0.263406
-0.29368
-0.323364
-0.352422
-0.380702
-0.408
-0.434029
-0.458396
-0.480648
-0.500237
-0.516639
-0.529186
-0.537373
-0.540967
-0.539666
-0.532984
-0.520469
-0.501829
-0.476944
-0.445851
-0.408689
-0.365694
-0.317206
-0.26374
-0.205867
-0.145097
-0.0827896
-0.0263089
0.0962682
0.11765
0.140674
0.164283
0.186126
0.206564
0.224773
0.239502
0.250608
0.258599
0.263846
0.266815
0.268021
0.267817
0.266465
0.264105
0.260795
0.256532
0.25125
0.244839
0.23717
0.228092
0.217448
0.205193
0.191613
0.177188
0.162322
0.147401
0.132867
0.119208
0.106926
0.09652
0.0884613
0.0831703
0.0810155
0.0823424
0.0871377
0.095073
0.103665
0.0677936
0.04451
0.0176522
-0.0112714
-0.0399605
-0.0703779
-0.101315
-0.131869
-0.162399
-0.192429
-0.221826
-0.250748
-0.279062
-0.306791
-0.333909
-0.360287
-0.385751
-0.41005
-0.432834
-0.453702
-0.472153
-0.487693
-0.499752
-0.507833
-0.511729
-0.51119
-0.505739
-0.49491
-0.478349
-0.45587
-0.427418
-0.393069
-0.353002
-0.307516
-0.257107
-0.202382
-0.144783
-0.085851
-0.0321382
0.0893824
0.10978
0.131775
0.154357
0.175276
0.194882
0.212387
0.226586
0.237333
0.245119
0.250297
0.253312
0.254666
0.254698
0.253668
0.251717
0.24891
0.24525
0.240681
0.235101
0.228387
0.220392
0.210946
0.199981
0.187735
0.174631
0.161026
0.14726
0.133735
0.120899
0.109229
0.099203
0.0912831
0.0858859
0.083364
0.084042
0.0878875
0.0945054
0.101649
0.0623515
0.0401691
0.0145978
-0.0129024
-0.0401288
-0.0689596
-0.0982305
-0.127083
-0.155861
-0.184111
-0.211709
-0.238813
-0.265302
-0.291203
-0.316508
-0.341102
-0.364839
-0.387499
-0.408772
-0.428291
-0.445612
-0.46028
-0.471789
-0.479672
-0.483744
-0.483795
-0.479385
-0.470029
-0.455343
-0.435076
-0.409112
-0.377457
-0.340238
-0.297713
-0.250345
-0.198763
-0.144328
-0.0887065
-0.0377321
0.0829428
0.102408
0.123423
0.145029
0.165066
0.183876
0.200707
0.214393
0.224789
0.23237
0.237471
0.240515
0.24199
0.242227
0.241476
0.239884
0.237517
0.234388
0.230448
0.225608
0.219749
0.212728
0.204374
0.1946
0.183601
0.171747
0.159352
0.146713
0.13419
0.122191
0.111162
0.101558
0.0938227
0.0883655
0.0855203
0.0855925
0.0885373
0.0939206
0.0997221
0.0572814
0.0361431
0.011792
-0.014361
-0.0402058
-0.0675384
-0.0952413
-0.122494
-0.149627
-0.176209
-0.202126
-0.22753
-0.252315
-0.276511
-0.300118
-0.323042
-0.345154
-0.366265
-0.386094
-0.40432
-0.420535
-0.434322
-0.445245
-0.452853
-0.456994
-0.457497
-0.45395
-0.445875
-0.432867
-0.414631
-0.390995
-0.361911
-0.327446
-0.287824
-0.243468
-0.195004
-0.143719
-0.0913275
-0.0430536
0.0769254
0.095503
0.115589
0.136264
0.155459
0.173508
0.189692
0.202882
0.212938
0.220314
0.22533
0.22839
0.229964
0.230378
0.229871
0.228592
0.226613
0.223949
0.220566
0.21638
0.211285
0.205139
0.197777
0.189096
0.179254
0.168577
0.157334
0.145785
0.134246
0.123089
0.112722
0.103573
0.0960639
0.0905909
0.0874695
0.0869838
0.0890836
0.0933187
0.0978865
0.0525639
0.0324174
0.00922408
-0.0156511
-0.0401892
-0.0661068
-0.0923311
-0.118078
-0.143667
-0.168686
-0.193027
-0.216843
-0.240034
-0.262635
-0.284656
-0.306016
-0.326606
-0.346252
-0.364712
-0.381696
-0.39684
-0.409751
-0.420056
-0.427338
-0.431462
-0.432296
-0.429462
-0.422496
-0.410981
-0.394598
-0.373133
-0.34648
-0.314671
-0.277879
-0.236485
-0.191103
-0.142934
-0.093692
-0.048071
0.071307
0.0890422
0.108241
0.12803
0.14642
0.16374
0.179302
0.192016
0.20174
0.208913
0.213839
0.216904
0.218561
0.219125
0.218831
0.217827
0.216188
0.213935
0.211042
0.207436
0.203019
0.197659
0.191193
0.183511
0.174739
0.16516
0.155007
0.144501
0.133922
0.1236
0.113907
0.105239
0.0979941
0.0925485
0.0891981
0.0882066
0.0895226
0.0926993
0.0961405
0.048181
0.0289766
0.0068838
-0.0167788
-0.04008
-0.0646592
-0.0894874
-0.113817
-0.137953
-0.161504
-0.184369
-0.206697
-0.228399
-0.249509
-0.270047
-0.289941
-0.309098
-0.327369
-0.344536
-0.360337
-0.37444
-0.386496
-0.396171
-0.403084
-0.407124
-0.408186
-0.405935
-0.399925
-0.389735
-0.375038
-0.355581
-0.331226
-0.301958
-0.267907
-0.229412
-0.187058
-0.141955
-0.0957784
-0.0527553
0.0660662
0.0829996
0.101354
0.120294
0.137916
0.154538
0.169502
0.181757
0.191159
0.198133
0.202966
0.206026
0.20775
0.208444
0.208336
0.207572
0.206232
0.204342
0.20188
0.198788
0.194973
0.190315
0.184656
0.177883
0.170093
0.161534
0.152404
0.142891
0.133238
0.123736
0.11472
0.106554
0.0996041
0.0942253
0.0906945
0.0892519
0.08985
0.0920604
0.0944808
0.0441134
0.0258057
0.0047601
-0.0177506
-0.0398792
-0.0631912
-0.0866996
-0.109692
-0.13246
-0.15463
-0.176113
-0.197048
-0.217356
-0.237074
-0.256224
-0.274748
-0.292564
-0.309542
-0.325485
-0.340159
-0.353271
-0.36449
-0.373535
-0.380051
-0.383953
-0.385162
-0.383382
-0.378185
-0.369172
-0.355995
-0.338396
-0.316197
-0.289347
-0.257938
-0.222264
-0.182867
-0.140771
-0.0975673
-0.05708
0.0611816
0.0773513
0.0948994
0.113029
0.129915
0.145868
0.16026
0.172071
0.181161
0.187939
0.192676
0.195723
0.197502
0.198309
0.198363
0.197811
0.196733
0.19516
0.19308
0.190441
0.187161
0.183128
0.178194
0.172244
0.165353
0.157735
0.149559
0.140984
0.132217
0.123513
0.11517
0.107515
0.100888
0.0956125
0.0919483
0.0901118
0.0900621
0.091399
0.0929025
0.0403436
0.0228902
0.00284154
-0.0185738
-0.0395896
-0.0617016
-0.0839606
-0.10569
-0.127169
-0.148042
-0.168225
-0.187855
-0.206857
-0.225273
-0.243127
-0.260369
-0.276929
-0.292692
-0.307483
-0.321092
-0.333252
-0.34367
-0.352085
-0.358193
-0.361917
-0.363206
-0.361798
-0.357299
-0.349319
-0.337517
-0.321622
-0.301437
-0.27688
-0.248004
-0.215058
-0.178537
-0.139368
-0.099043
-0.0610255
0.0566331
0.0720745
0.0888526
0.106207
0.12239
0.137702
0.151541
0.162925
0.171714
0.178299
0.182939
0.185968
0.18779
0.188693
0.188889
0.188523
0.187676
0.186384
0.184639
0.182399
0.179592
0.176115
0.171829
0.166622
0.160551
0.153797
0.146505
0.138809
0.130883
0.122947
0.115265
0.108129
0.101842
0.0967039
0.0929525
0.09078
0.0901547
0.090711
0.0913981
0.0368554
0.0202155
0.0011169
-0.0192563
-0.0392158
-0.060189
-0.0812666
-0.101803
-0.122066
-0.141717
-0.16068
-0.179085
-0.196866
-0.214063
-0.230704
-0.246747
-0.262132
-0.276756
-0.290464
-0.303067
-0.314325
-0.32397
-0.331773
-0.337464
-0.340981
-0.3423
-0.341185
-0.337278
-0.330205
-0.31964
-0.305306
-0.286995
-0.264597
-0.238134
-0.207811
-0.174069
-0.13774
-0.100195
-0.064574
0.0524013
0.0671473
0.0831898
0.0998032
0.115311
0.130008
0.143317
0.154291
0.162787
0.169183
0.173726
0.17673
0.178586
0.179573
0.179893
0.17969
0.179046
0.178
0.17655
0.174662
0.172272
0.169288
0.165582
0.161043
0.155714
0.14975
0.143274
0.136395
0.129261
0.12206
0.115021
0.1084
0.102469
0.0974975
0.093702
0.0912517
0.0901233
0.0899908
0.0899597
0.0336313
0.0177679
-0.000425271
-0.0198061
-0.0387617
-0.0586545
-0.0786114
-0.0980202
-0.117136
-0.135637
-0.153452
-0.170709
-0.187344
-0.203401
-0.218909
-0.233831
-0.248117
-0.261675
-0.274367
-0.286023
-0.296427
-0.305336
-0.312544
-0.317821
-0.32111
-0.322417
-0.32153
-0.318123
-0.311849
-0.302393
-0.289484
-0.272907
-0.252534
-0.228359
-0.200542
-0.169472
-0.135884
-0.101015
-0.0677146
0.0484676
0.0625499
0.0778888
0.0937925
0.108654
0.122761
0.13556
0.146136
0.154351
0.160563
0.165008
0.167983
0.169865
0.170923
0.171351
0.171291
0.170826
0.169996
0.168805
0.167226
0.165205
0.162658
0.159467
0.155528
0.150869
0.145624
0.139895
0.133772
0.127379
0.120874
0.114453
0.10834
0.102774
0.0979933
0.0941942
0.091523
0.0899645
0.089233
0.0885769
0.0306557
0.0155335
-0.00179607
-0.0202316
-0.0382329
-0.0570995
-0.0759951
-0.0943368
-0.112369
-0.129785
-0.146521
-0.162699
-0.178261
-0.193251
-0.207699
-0.221575
-0.234833
-0.247394
-0.259134
-0.269901
-0.279499
-0.287709
-0.294348
-0.299213
-0.302272
-0.303532
-0.302819
-0.299834
-0.294259
-0.285797
-0.274185
-0.259207
-0.240723
-0.218705
-0.193272
-0.164755
-0.133797
-0.101498
-0.0704397
0.0448147
0.0582628
0.0729284
0.0881522
0.102395
0.115935
0.128243
0.138437
0.146377
0.15241
0.156757
0.1597
0.161602
0.162719
0.163242
0.163307
0.162999
0.162358
0.161396
0.160089
0.158391
0.156229
0.153496
0.150093
0.146036
0.141441
0.136394
0.130967
0.125261
0.11941
0.113579
0.107962
0.102764
0.0981956
0.0944293
0.0915922
0.0896749
0.0884308
0.0872394
0.0279141
0.0134995
-0.0030063
-0.0205406
-0.0376342
-0.0555262
-0.073415
-0.0907468
-0.107755
-0.124149
-0.13987
-0.155035
-0.169591
-0.183582
-0.197039
-0.209936
-0.222235
-0.233865
-0.244715
-0.254648
-0.263489
-0.271038
-0.277134
-0.281604
-0.28442
-0.285613
-0.285032
-0.282406
-0.277442
-0.269868
-0.259433
-0.245925
-0.229196
-0.2092
-0.186019
-0.15993
-0.131484
-0.101644
-0.0727456
0.041425
0.0542671
0.0682876
0.0828603
0.0965084
0.109505
0.12134
0.131166
0.138841
0.144699
0.148948
0.151855
0.15377
0.154938
0.155543
0.155718
0.155547
0.155073
0.15431
0.153241
0.151828
0.150006
0.147678
0.144751
0.141236
0.137227
0.132798
0.128007
0.122935
0.117694
0.112422
0.107282
0.102451
0.0981104
0.0944107
0.0914594
0.0892519
0.0875784
0.0859353
0.0253916
0.0116524
-0.00406639
-0.0207415
-0.0369716
-0.0539364
-0.0708707
-0.0872459
-0.103287
-0.118717
-0.133482
-0.147696
-0.161308
-0.174364
-0.186895
-0.198878
-0.210281
-0.221042
-0.231061
-0.240215
-0.248345
-0.255273
-0.260855
-0.264943
-0.267522
-0.268632
-0.268147
-0.265824
-0.261397
-0.254616
-0.245245
-0.233083
-0.217978
-0.199867
-0.178804
-0.155011
-0.128952
-0.101457
-0.0746348
0.0382829
0.0505452
0.0639484
0.0778962
0.0909746
0.103448
0.114829
0.124298
0.131717
0.137404
0.141556
0.144426
0.146347
0.147558
0.148233
0.148504
0.148453
0.148124
0.147535
0.146675
0.145512
0.143989
0.142018
0.139515
0.136482
0.133
0.129129
0.124916
0.120426
0.11575
0.111002
0.106319
0.10185
0.0977484
0.0941436
0.091126
0.0886932
0.0866688
0.0846528
0.0230742
0.00998064
-0.00498699
-0.0208424
-0.0362505
-0.0523344
-0.0683618
-0.0838314
-0.0989572
-0.113478
-0.127344
-0.140663
-0.153391
-0.165572
-0.177237
-0.188367
-0.198935
-0.208886