/*--------------------------------*- C++ -*----------------------------------*\
| =========                 |                                                 |
| \\      /  F ield         | OpenFOAM: The Open Source CFD Toolbox           |
|  \\    /   O peration     | Version:  2506                                  |
|   \\  /    A nd           | Website:  www.openfoam.com                      |
|    \\/     M anipulation  |                                                 |
\*---------------------------------------------------------------------------*/
FoamFile
{
    version     2.0;
    format      ascii;
    arch        "LSB;label=32;scalar=64";
    class       volScalarField;
    location    "300";
    object      turbulenceProperties:epsilon;
}
// * * * * * * * * * * * * * * * * * * * * * * * * * * * * * * * * * * * * * //

dimensions      [0 2 -3 0 0 0 0];

internalField   nonuniform List<scalar> 
10720
(
0.259514
0.340281
0.453224
0.623899
0.840618
1.13539
1.53149
2.03584
2.68516
3.51584
4.57962
5.96657
7.80496
10.2944
13.7756
18.7639
26.2447
37.3645
56.0622
83.0322
139.686
211.731
435.285
738.991
735.784
666.777
636.96
637.121
643.137
639.529
622.908
593.415
548.504
489.478
416.653
334.483
232.457
145.828
16.2929
0.194241
0.147163
0.100426
0.0667106
0.0405745
0.0221907
0.0111886
0.00631608
0.00684939
0.0122469
0.0258731
0.0541954
0.107109
0.197594
0.339999
0.553476
0.870035
1.35242
2.12108
3.40095
5.64472
9.7107
17.6384
33.2191
67.6413
140.803
318.86
663.079
944.854
1066.77
1100.03
1101.6
1087.99
1062.24
1025.26
978.8
912.759
836.817
619.279
0.00736194
0.00728097
0.00711526
0.00671044
0.00610708
0.00544852
0.00471965
0.00396249
0.00327839
0.00267063
0.00214905
0.00182036
0.00177356
0.00210666
0.003311
0.00671912
0.0165856
0.0442628
0.139286
0.450692
1.76277
6.2677
23.5527
84.0439
166.89
235.596
278.65
285.249
251.093
193.212
135.895
91.9277
63.5193
45.7385
34.2777
26.5077
21.7496
17.5794
20.2106
0.00722836
0.0070328
0.00664231
0.00608385
0.00536026
0.00447672
0.00354178
0.00273978
0.00209122
0.00153436
0.00108426
0.000757422
0.000526752
0.000363746
0.000249056
0.00016914
0.000113325
7.46809e-05
4.72818e-05
2.75706e-05
1.31803e-05
4.21805e-06
4.01144e-07
6.82861e-09
5.52305e-08
0.000985828
0.00606033
0.051253
0.170705
0.319686
0.466564
0.615287
0.77365
0.946665
1.13434
1.34781
1.59516
2.20741
4.09724
0.00330295
0.0032509
0.00310585
0.00289046
0.00267351
0.00244482
0.00222407
0.00203445
0.00187812
0.00176103
0.00167286
0.00162308
0.00160953
0.00163604
0.00164451
0.00155844
0.00110627
0.0009
8.5046e-05
0.0155704
0.0272574
0.00031228
0.00140568
0.0217099
0.499882
2.50375
7.82326
20.034
42.2604
70.4813
91.5736
94.2372
80.113
60.7003
44.1865
31.9783
24.001
16.9482
20.5011
0.00335483
0.00334677
0.00332918
0.00321199
0.00300893
0.00268283
0.00226372
0.0018285
0.00146553
0.00113407
0.000824796
0.000572114
0.000385074
0.000253593
0.000165659
0.000108263
7.19739e-05
4.93701e-05
3.55953e-05
2.70871e-05
2.18935e-05
1.88185e-05
1.72173e-05
1.63637e-05
1.63036e-05
1.6113e-05
1.82262e-05
6.37709e-06
0.000167365
0.000991824
0.00208778
0.0036413
0.00958537
0.0265139
0.0598184
0.110583
0.176923
0.222041
0.549712
0.00235454
0.00236428
0.00234066
0.00230178
0.00222276
0.00210763
0.00196835
0.00180118
0.00161914
0.00142911
0.00123816
0.00105142
0.000872921
0.000707486
0.000557512
0.000419678
0.000299601
0.000217711
0.000129281
3.67835e-05
3.82576e-07
3.87015e-06
0
0.00659229
0.0332114
0.0518495
0.047567
0.00044379
0.0153715
0.435215
3.20942
11.6448
25.0357
35.4909
37.1871
32.4026
26.606
19.7683
21.4799
0.00230438
0.00222922
0.00211385
0.00197894
0.00181607
0.00161347
0.00139204
0.00117436
0.000967405
0.000765481
0.000581569
0.000432074
0.000318441
0.000234374
0.00017337
0.000129306
9.78908e-05
7.5526e-05
5.96734e-05
4.81459e-05
3.96888e-05
3.32154e-05
2.79035e-05
2.28178e-05
1.8125e-05
1.46345e-05
1.22444e-05
1.06566e-05
8.88677e-06
6.83187e-06
3.87289e-06
1.54194e-06
2.28611e-05
1.51679e-05
6.79707e-05
0.000863937
0.00493174
0.0189466
0.139771
0.00132509
0.0013204
0.00129986
0.00126363
0.00120857
0.00113593
0.00105105
0.000956972
0.000858275
0.00076203
0.000671529
0.000590122
0.000520439
0.000463085
0.000417899
0.000381703
0.000345592
0.000301447
0.000262349
0.000209788
0.000133163
4.6132e-05
3.18211e-07
1.89312e-08
0
0
0
0.000527619
0.0288144
0.0111719
0.023431
0.0157853
0.170107
2.42156
9.08277
16.9037
21.0104
19.7646
21.8287
0.00131824
0.00129962
0.00126306
0.00120551
0.00112666
0.00101957
0.000898428
0.00077686
0.000656976
0.000536942
0.000424935
0.000327988
0.000248342
0.000184984
0.000136079
9.92808e-05
7.2273e-05
5.28674e-05
3.91696e-05
2.95159e-05
2.27183e-05
1.78332e-05
1.41666e-05
1.10622e-05
8.30098e-06
6.10476e-06
4.59767e-06
3.68149e-06
3.31148e-06
2.83286e-06
4.16801e-06
2.08243e-07
8.53933e-06
5.1814e-05
1.07734e-05
3.45172e-05
7.74413e-05
0.000256355
0.0150705
0.000890307
0.000897914
0.000897188
0.000890781
0.000873367
0.000845517
0.00080892
0.000762778
0.000708975
0.000649824
0.000586773
0.000522262
0.000458494
0.000397072
0.000339365
0.00028434
0.000229932
0.000179944
0.000139341
0.000107181
8.59366e-05
6.66853e-05
4.91239e-05
6.68525e-06
7.06843e-08
1.61217e-08
2.62434e-09
4.47979e-12
0
0.000835134
0.00596124
0.0336263
0.00574163
0.0421925
0.0463569
1.65891
7.51514
13.9847
19.8673
0.000874236
0.000852273
0.000820844
0.000780243
0.000729659
0.000665755
0.000595825
0.000525096
0.000453277
0.000380039
0.000310227
0.000247754
0.000194564
0.000150778
0.000115804
8.86119e-05
6.79277e-05
5.24647e-05
4.10318e-05
3.25809e-05
2.62717e-05
2.14149e-05
1.74705e-05
1.39445e-05
1.07034e-05
8.01507e-06
5.98842e-06
4.51701e-06
3.44327e-06
2.66218e-06
2.07148e-06
1.59721e-06
1.01431e-06
5.10737e-07
1.54478e-07
2.29294e-06
9.62057e-06
5.13703e-05
0.00112383
0.000582578
0.000587701
0.000588524
0.000585561
0.000576288
0.000560366
0.000538481
0.00051035
0.000476824
0.00043936
0.00039922
0.000357907
0.000317106
0.000278241
0.000242221
0.000210063
0.000182874
0.000159241
0.000136779
0.000115213
9.59643e-05
7.9847e-05
7.13646e-05
5.50533e-05
2.76209e-05
1.00455e-05
1.26731e-06
1.51795e-09
5.23854e-09
2.07362e-11
0
0
0.000434153
0.0179041
0.0126061
0.0337625
0.415019
4.89741
14.1002
0.000573046
0.000560298
0.000541972
0.000517195
0.000485981
0.00044733
0.000405784
0.000362824
0.000318295
0.000272823
0.000228778
0.000188223
0.000152288
0.00012141
9.5621e-05
7.46465e-05
5.79649e-05
4.49746e-05
3.5025e-05
2.74571e-05
2.16988e-05
1.7255e-05
1.37041e-05
1.06781e-05
8.02483e-06
5.85905e-06
4.23831e-06
3.07623e-06
2.2499e-06
1.67389e-06
1.29902e-06
1.08143e-06
9.66985e-07
8.21085e-07
4.2499e-07
3.19322e-08
6.60234e-10
8.8206e-13
2.66322e-05
0.000400214
0.000405724
0.000408979
0.000410299
0.000408055
0.000401947
0.000392322
0.000378622
0.000361023
0.000340234
0.000316537
0.000290755
0.00026371
0.000236202
0.000208964
0.000182733
0.000157374
0.000132484
0.000109461
8.97381e-05
7.38623e-05
6.19876e-05
5.39268e-05
4.90437e-05
4.17862e-05
3.06349e-05
1.83699e-05
8.57581e-06
3.01975e-06
1.12438e-08
3.71601e-09
2.20735e-12
0
0
0.00113648
0.0241571
0.0273405
0.464291
6.37855
0.000392027
0.000382315
0.000369463
0.000352763
0.000332337
0.000307892
0.000282258
0.000255304
0.000227024
0.000198209
0.000169922
0.000143284
0.000118979
9.74163e-05
7.87861e-05
6.31264e-05
5.02651e-05
3.99394e-05
3.17944e-05
2.543e-05
2.04543e-05
1.65116e-05
1.32884e-05
1.0512e-05
8.0669e-06
6.03425e-06
4.462e-06
3.29026e-06
2.41573e-06
1.76256e-06
1.28355e-06
9.34778e-07
6.78755e-07
4.91788e-07
3.75334e-07
2.62588e-07
1.39423e-07
1.12886e-09
1.91243e-07
0.000278482
0.000282907
0.000286135
0.000288153
0.00028807
0.000285615
0.000280846
0.000273304
0.000263042
0.000250336
0.000235335
0.000218472
0.000200294
0.00018134
0.000162208
0.000143409
0.000125432
0.000108997
9.40768e-05
8.05748e-05
6.86266e-05
5.85472e-05
5.01999e-05
4.34231e-05
3.72218e-05
3.04702e-05
2.38656e-05
1.76024e-05
1.25789e-05
6.52067e-06
2.71971e-06
1.92825e-09
9.23079e-10
0
0
0
0.00984699
0.0257063
1.51808
0.000272506
0.000265671
0.00025695
0.000245594
0.000232087
0.000216313
0.00019992
0.000182514
0.000164203
0.000145583
0.000127154
0.000109475
9.29813e-05
7.79234e-05
6.44937e-05
5.28205e-05
4.29057e-05
3.46532e-05
2.79164e-05
2.24862e-05
1.81263e-05
1.46007e-05
1.16876e-05
9.19659e-06
7.04209e-06
5.25541e-06
3.86549e-06
2.82988e-06
2.06267e-06
1.49829e-06
1.09295e-06
8.11254e-07
6.24338e-07
5.08924e-07
4.47455e-07
4.56442e-07
5.24203e-07
5.97366e-07
3.95389e-10
0.000197914
0.000201567
0.00020464
0.000207014
0.000208127
0.000207846
0.000206122
0.000202579
0.000197238
0.000190152
0.000181317
0.000170931
0.000159295
0.000146694
0.000133467
0.000119981
0.000106618
9.34848e-05
8.07598e-05
6.90385e-05
5.88553e-05
5.04398e-05
4.35701e-05
3.75112e-05
3.15619e-05
2.55349e-05
2.01038e-05
1.5826e-05
1.27992e-05
1.05192e-05
8.47077e-06
4.47104e-06
7.36153e-07
3.43986e-09
0
0
8.42402e-09
0.000571532
0.189314
0.000193296
0.000188286
0.000182119
0.000174164
0.000165004
0.000154604
0.000143792
0.000132275
0.000120217
0.00010798
9.57846e-05
8.39457e-05
7.26964e-05
6.2167e-05
5.25326e-05
4.39241e-05
3.63736e-05
2.99074e-05
2.4469e-05
1.99626e-05
1.62508e-05
1.31862e-05
1.06183e-05
8.41566e-06
6.51113e-06
4.92271e-06
3.6686e-06
2.71533e-06
1.99781e-06
1.45974e-06
1.06256e-06
7.74162e-07
5.6938e-07
4.30346e-07
3.40569e-07
3.23558e-07
3.14047e-07
8.75462e-07
1.35771e-07
0.000142668
0.000145574
0.000148189
0.000150432
0.000151875
0.000152455
0.000152114
0.000150581
0.000147796
0.000143788
0.000138464
0.00013193
0.000124334
0.000115804
0.000106616
9.69918e-05
8.71937e-05
7.75302e-05
6.82706e-05
5.96119e-05
5.17992e-05
4.49724e-05
3.90898e-05
3.37522e-05
2.84025e-05
2.29425e-05
1.78833e-05
1.38702e-05
1.10159e-05
9.14053e-06
7.83868e-06
7.08297e-06
5.43699e-06
1.8346e-06
4.75292e-09
0
0
0.000477239
0.0274589
0.000139154
0.000135475
0.000131079
0.00012544
0.000119097
0.000112104
0.000104791
9.70208e-05
8.89527e-05
8.07861e-05
7.26039e-05
6.46032e-05
5.68828e-05
4.9527e-05
4.26351e-05
3.63073e-05
3.06061e-05
2.55737e-05
2.12174e-05
1.75023e-05
1.43612e-05
1.17121e-05
9.45835e-06
7.51641e-06
5.84152e-06
4.44001e-06
3.32317e-06
2.46441e-06
1.8152e-06
1.32722e-06
9.67415e-07
7.09067e-07
5.2976e-07
4.12156e-07
3.40354e-07
3.31749e-07
3.28905e-07
6.58933e-07
1.0329e-06
0.000104236
0.00010654
0.000108744
0.000110713
0.000112201
0.000113173
0.000113551
0.000113158
0.000111912
0.000109811
0.00010677
0.000102819
9.80028e-05
9.24112e-05
8.61762e-05
7.94359e-05
7.23943e-05
6.52543e-05
5.81385e-05
5.12399e-05
4.4887e-05
3.92429e-05
3.42993e-05
2.97843e-05
2.52878e-05
2.06919e-05
1.63385e-05
1.27381e-05
1.00445e-05
8.11734e-06
6.69162e-06
5.83781e-06
5.43039e-06
5.01026e-06
2.16951e-06
2.92318e-09
0
0.000104046
0.00836981
0.000101561
9.88005e-05
9.56242e-05
9.1556e-05
8.7087e-05
8.22903e-05
7.72535e-05
7.1912e-05
6.64293e-05
6.08949e-05
5.53498e-05
4.98906e-05
4.45653e-05
3.94066e-05
3.44808e-05
2.98564e-05
2.5584e-05
2.17069e-05
1.82559e-05
1.52344e-05
1.26209e-05
1.03691e-05
8.42224e-06
6.73131e-06
5.27004e-06
4.04151e-06
3.05105e-06
2.27905e-06
1.68848e-06
1.24109e-06
9.07733e-07
6.65603e-07
4.92668e-07
3.76024e-07
3.03336e-07
2.85363e-07
2.91793e-07
4.81943e-07
1.23056e-06
7.70182e-05
7.88397e-05
8.0637e-05
8.23051e-05
8.36768e-05
8.47366e-05
8.54185e-05
8.55864e-05
8.51774e-05
8.41694e-05
8.24817e-05
8.01334e-05
7.71154e-05
7.34483e-05
6.922e-05
6.45288e-05
5.94759e-05
5.4245e-05
4.89527e-05
4.37444e-05
3.8813e-05
3.42867e-05
3.01818e-05
2.63453e-05
2.25366e-05
1.86643e-05
1.49738e-05
1.18363e-05
9.41782e-06
7.60202e-06
6.20425e-06
5.14997e-06
4.46917e-06
4.21054e-06
4.62082e-06
1.21803e-06
6.94429e-13
3.10191e-05
0.00278087
7.49695e-05
7.28825e-05
7.05497e-05
6.76011e-05
6.44021e-05
6.10443e-05
5.75191e-05
5.37906e-05
5.00161e-05
4.62201e-05
4.24149e-05
3.86504e-05
3.49566e-05
3.13297e-05
2.78099e-05
2.44401e-05
2.12539e-05
1.82923e-05
1.55879e-05
1.31576e-05
1.10038e-05
9.10672e-06
7.43946e-06
5.97923e-06
4.71183e-06
3.63978e-06
2.76625e-06
2.07789e-06
1.54565e-06
1.13928e-06
8.34972e-07
6.12813e-07
4.54966e-07
3.48583e-07
2.82228e-07
2.63907e-07
2.71604e-07
4.08726e-07
1.03863e-06
5.74672e-05
5.8908e-05
6.03663e-05
6.17548e-05
6.29585e-05
6.39795e-05
6.47578e-05
6.51844e-05
6.52395e-05
6.4869e-05
6.4024e-05
6.26873e-05
6.0846e-05
5.85101e-05
5.57061e-05
5.24864e-05
4.89209e-05
4.51342e-05
4.1209e-05
3.72417e-05
3.3367e-05
2.97324e-05
2.63573e-05
2.31557e-05
1.99695e-05
1.67379e-05
1.36302e-05
1.09338e-05
8.80087e-06
7.16394e-06
5.88701e-06
4.87316e-06
4.09757e-06
3.56513e-06
3.44046e-06
4.79464e-06
2.95006e-12
5.64502e-07
0.000697552
5.58797e-05
5.43056e-05
5.25695e-05
5.04084e-05
4.80967e-05
4.57039e-05
4.31861e-05
4.05622e-05
3.79283e-05
3.52888e-05
3.26496e-05
3.00401e-05
2.74544e-05
2.48965e-05
2.23835e-05
1.9933e-05
1.75655e-05
1.53185e-05
1.32188e-05
1.12851e-05
9.5273e-06
7.947e-06
6.53692e-06
5.28828e-06
4.197e-06
3.26806e-06
2.5027e-06
1.89215e-06
1.41521e-06
1.04769e-06
7.70241e-07
5.65625e-07
4.19136e-07
3.19284e-07
2.55585e-07
2.35531e-07
2.39765e-07
3.50373e-07
8.4102e-07
4.32524e-05
4.43878e-05
4.55633e-05
4.67004e-05
4.77253e-05
4.8645e-05
4.94101e-05
4.9947e-05
5.02265e-05
5.02092e-05
4.98643e-05
4.91547e-05
4.80756e-05
4.66115e-05
4.4773e-05
4.25885e-05
4.01008e-05
3.73812e-05
3.45044e-05
3.15316e-05
2.85486e-05
2.56783e-05
2.29451e-05
2.02996e-05
1.76517e-05
1.4962e-05
1.23556e-05
1.00489e-05
8.17604e-06
6.71184e-06
5.55718e-06
4.64059e-06
3.9056e-06
3.39475e-06
2.75334e-06
4.22476e-06
1.10212e-06
4.74592e-11
4.26974e-05
4.20218e-05
4.08173e-05
3.9514e-05
3.7908e-05
3.62233e-05
3.44896e-05
3.26742e-05
3.08046e-05
2.89413e-05
2.70883e-05
2.52426e-05
2.3409e-05
2.1594e-05
1.97849e-05
1.79818e-05
1.62008e-05
1.44527e-05
1.27588e-05
1.11363e-05
9.60829e-06
8.19018e-06
6.89061e-06
5.70962e-06
4.65006e-06
3.71676e-06
2.91522e-06
2.24913e-06
1.71118e-06
1.28568e-06
9.56202e-07
7.04513e-07
5.18289e-07
3.83548e-07
2.91382e-07
2.3196e-07
2.11238e-07
2.12711e-07
2.9984e-07
6.84262e-07
3.27996e-05
3.36981e-05
3.46382e-05
3.55635e-05
3.642e-05
3.72234e-05
3.79278e-05
3.84786e-05
3.88547e-05
3.90346e-05
3.897e-05
3.86508e-05
3.80593e-05
3.71688e-05
3.59964e-05
3.4546e-05
3.28344e-05
3.09022e-05
2.88163e-05
2.66075e-05
2.43257e-05
2.20733e-05
1.98784e-05
1.77207e-05
1.55422e-05
1.332e-05
1.11488e-05
9.18817e-06
7.55737e-06
6.25392e-06
5.21241e-06
4.38185e-06
3.71132e-06
3.24971e-06
2.69705e-06
2.75627e-06
3.79804e-06
4.79503e-12
3.37722e-07
3.18418e-05
3.0912e-05
2.99261e-05
2.87266e-05
2.74843e-05
2.6212e-05
2.48881e-05
2.3538e-05
2.22085e-05
2.08915e-05
1.95845e-05
1.82919e-05
1.70104e-05
1.57196e-05
1.44259e-05
1.31327e-05
1.1844e-05
1.05682e-05
9.32475e-06
8.12936e-06
6.9949e-06
5.93509e-06
4.95553e-06
4.06501e-06
3.27376e-06
2.58807e-06
2.01133e-06
1.54006e-06
1.16339e-06
8.68645e-07
6.41701e-07
4.72411e-07
3.49234e-07
2.63676e-07
2.07979e-07
1.86567e-07
1.85876e-07
2.53516e-07
5.5578e-07
2.50384e-05
2.57468e-05
2.64991e-05
2.72495e-05
2.79622e-05
2.86462e-05
2.92664e-05
2.97875e-05
3.019e-05
3.04536e-05
3.0549e-05
3.04586e-05
3.01718e-05
2.96697e-05
2.89408e-05
2.79943e-05
2.68344e-05
2.54805e-05
2.3983e-05
2.23603e-05
2.06408e-05
1.88929e-05
1.71508e-05
1.54101e-05
1.36354e-05
1.18149e-05
1.00154e-05
8.36225e-06
6.95182e-06
5.80158e-06
4.86604e-06
4.11254e-06
3.50577e-06
3.05052e-06
2.71835e-06
2.11912e-06
4.5534e-06
4.07885e-11
6.03985e-18
2.42958e-05
2.35745e-05
2.28156e-05
2.19121e-05
2.09882e-05
2.00427e-05
1.90668e-05
1.80853e-05
1.71256e-05
1.61809e-05
1.52482e-05
1.43279e-05
1.3411e-05
1.24894e-05
1.15606e-05
1.06211e-05
9.66849e-06
8.71413e-06
7.7675e-06
6.83705e-06
5.93838e-06
5.08164e-06
4.27571e-06
3.53365e-06
2.86726e-06
2.28374e-06
1.78786e-06
1.37798e-06
1.0467e-06
7.84124e-07
5.80973e-07
4.27814e-07
3.15562e-07
2.36948e-07
1.85387e-07
1.63575e-07
1.61131e-07
2.12865e-07
4.49025e-07
1.92253e-05
1.97895e-05
2.03901e-05
2.09951e-05
2.15831e-05
2.21565e-05
2.26918e-05
2.31591e-05
2.3549e-05
2.38443e-05
2.40197e-05
2.40628e-05
2.39621e-05
2.37037e-05
2.32729e-05
2.26715e-05
2.19015e-05
2.09722e-05
1.99086e-05
1.87285e-05
1.7446e-05
1.61043e-05
1.47387e-05
1.33497e-05
1.19162e-05
1.04374e-05
8.95769e-06
7.57419e-06
6.36547e-06
5.35677e-06
4.52374e-06
3.84252e-06
3.29524e-06
2.85243e-06
2.61151e-06
2.00708e-06
3.34636e-06
4.77528e-07
8.21135e-11
1.86446e-05
1.80841e-05
1.74992e-05
1.68123e-05
1.6121e-05
1.54105e-05
1.46837e-05
1.39641e-05
1.32615e-05
1.25781e-05
1.19072e-05
1.12459e-05
1.05897e-05
9.92732e-06
9.25523e-06
8.56946e-06
7.86862e-06
7.15694e-06
6.43717e-06
5.7186e-06
5.01165e-06
4.32454e-06
3.66877e-06
3.05492e-06
2.49648e-06
2.00376e-06
1.57988e-06
1.22554e-06
9.36232e-07
7.04211e-07
5.23091e-07
3.85519e-07
2.83587e-07
2.11554e-07
1.63544e-07
1.41744e-07
1.37879e-07
1.7724e-07
3.60252e-07
1.48411e-05
1.52861e-05
1.57676e-05
1.62557e-05
1.67368e-05
1.72151e-05
1.76691e-05
1.80805e-05
1.84352e-05
1.87261e-05
1.8934e-05
1.90492e-05
1.9059e-05
1.89487e-05
1.87186e-05
1.83547e-05
1.78555e-05
1.72262e-05
1.64834e-05
1.56376e-05
1.46928e-05
1.36731e-05
1.26138e-05
1.15192e-05
1.03739e-05
9.18045e-06
7.97396e-06
6.82388e-06
5.7971e-06
4.92119e-06
4.18659e-06
3.57596e-06
3.08178e-06
2.67262e-06
2.42344e-06
2.03313e-06
2.27911e-06
2.01529e-06
2.24674e-08
1.43838e-05
1.39474e-05
1.34928e-05
1.29687e-05
1.24442e-05
1.19081e-05
1.13612e-05
1.08267e-05
1.03107e-05
9.81126e-06
9.32328e-06
8.8451e-06
8.3712e-06
7.89104e-06
7.40341e-06
6.90339e-06
6.38695e-06
5.85523e-06
5.31106e-06
4.75916e-06
4.20593e-06
3.65929e-06
3.1286e-06
2.62541e-06
2.16183e-06
1.74813e-06
1.38858e-06
1.08378e-06
8.32087e-07
6.28623e-07
4.67962e-07
3.44601e-07
2.52778e-07
1.87108e-07
1.42668e-07
1.21482e-07
1.16481e-07
1.4624e-07
2.86609e-07
1.15099e-05
1.18622e-05
1.22478e-05
1.2642e-05
1.30336e-05
1.34293e-05
1.38106e-05
1.41622e-05
1.44783e-05
1.47509e-05
1.49638e-05
1.51099e-05
1.51813e-05
1.51661e-05
1.50615e-05
1.4854e-05
1.45442e-05
1.41298e-05
1.36174e-05
1.30184e-05
1.23325e-05
1.15678e-05
1.07562e-05
9.9013e-06
8.99664e-06
8.04089e-06
7.06466e-06
6.11658e-06
5.25207e-06
4.49848e-06
3.8556e-06
3.31329e-06
2.86616e-06
2.50081e-06
2.22997e-06
2.00375e-06
1.78681e-06
2.30211e-06
5.05618e-07
1.11479e-05
1.08055e-05
1.04527e-05
1.00498e-05
9.64886e-06
9.23972e-06
8.82759e-06
8.42647e-06
8.04441e-06
7.67601e-06
7.31769e-06
6.96886e-06
6.62316e-06
6.27499e-06
5.92018e-06
5.55266e-06
5.1716e-06
4.77602e-06
4.3647e-06
3.94199e-06
3.51212e-06
3.0797e-06
2.6536e-06
2.24369e-06
1.86149e-06
1.51616e-06
1.21298e-06
9.5299e-07
7.35394e-07
5.57874e-07
4.15976e-07
3.0617e-07
2.23476e-07
1.64052e-07
1.23261e-07
1.0273e-07
9.70291e-08
1.19499e-07
2.26676e-07
8.96296e-06
9.24274e-06
9.55171e-06
9.86972e-06
1.01889e-05
1.05123e-05
1.08306e-05
1.11291e-05
1.14036e-05
1.16487e-05
1.18521e-05
1.20087e-05
1.21087e-05
1.21497e-05
1.2121e-05
1.20184e-05
1.18355e-05
1.15718e-05
1.12263e-05
1.08104e-05
1.03194e-05
9.75391e-06
9.13881e-06
8.47985e-06
7.77235e-06
7.01505e-06
6.22966e-06
5.4549e-06
4.73378e-06
4.0903e-06
3.53172e-06
3.05434e-06
2.65329e-06
2.32762e-06
2.05671e-06
1.89256e-06
1.60618e-06
1.87578e-06
1.25392e-06
8.67893e-06
8.40627e-06
8.13073e-06
7.82023e-06
7.51087e-06
7.19703e-06
6.88344e-06
6.58183e-06
6.29473e-06
6.02016e-06
5.75602e-06
5.49912e-06
5.246e-06
4.99153e-06
4.73087e-06
4.46087e-06
4.17953e-06
3.88364e-06
3.57388e-06
3.25128e-06
2.91782e-06
2.57878e-06
2.23919e-06
1.90708e-06
1.5937e-06
1.30748e-06
1.05311e-06
8.3251e-07
6.45806e-07
4.91773e-07
3.67477e-07
2.70216e-07
1.96289e-07
1.42581e-07
1.05399e-07
8.56293e-08
7.95961e-08
9.65262e-08
1.78088e-07
7.00397e-06
7.22835e-06
7.47609e-06
7.73187e-06
7.99025e-06
8.25673e-06
8.52029e-06
8.77065e-06
9.00715e-06
9.22005e-06
9.40514e-06
9.55797e-06
9.67066e-06
9.7397e-06
9.75848e-06
9.7221e-06
9.62511e-06
9.46476e-06
9.24027e-06
8.95688e-06
8.60894e-06
8.19752e-06
7.73746e-06
7.23572e-06
6.68786e-06
6.09396e-06
5.46754e-06
4.84002e-06
4.24324e-06
3.6997e-06
3.21912e-06
2.80181e-06
2.44478e-06
2.15245e-06
1.90021e-06
1.74254e-06
1.51478e-06
1.48786e-06
1.45922e-06
6.7809e-06
6.56597e-06
6.34814e-06
6.10781e-06
5.86809e-06
5.62585e-06
5.38553e-06
5.15577e-06
4.939e-06
4.73313e-06
4.53625e-06
4.34599e-06
4.15939e-06
3.97122e-06
3.77839e-06
3.58023e-06
3.3711e-06
3.15019e-06
2.91706e-06
2.67121e-06
2.41439e-06
2.14916e-06
1.87914e-06
1.61233e-06
1.35724e-06
1.12106e-06
9.09152e-07
7.23267e-07
5.63828e-07
4.3062e-07
3.22406e-07
2.36541e-07
1.70977e-07
1.22697e-07
8.89874e-08
7.0225e-08
6.41142e-08
7.70145e-08
1.38767e-07
5.49295e-06
5.67162e-06
5.86984e-06
6.07533e-06
6.28605e-06
6.50485e-06
6.72094e-06
6.9297e-06
7.12982e-06
7.31393e-06
7.47837e-06
7.61905e-06
7.73405e-06
7.8152e-06
7.85979e-06
7.86295e-06
7.82292e-06
7.73254e-06
7.59189e-06
7.40335e-06
7.16365e-06
6.86937e-06
6.52892e-06
6.15174e-06
5.73305e-06
5.27058e-06
4.77654e-06
4.27263e-06
3.78271e-06
3.3285e-06
2.91801e-06
2.55611e-06
2.24099e-06
1.97912e-06
1.75136e-06
1.58862e-06
1.41874e-06
1.25594e-06
1.31533e-06
5.31476e-06
5.14514e-06
4.97378e-06
4.78548e-06
4.59862e-06
4.41146e-06
4.22561e-06
4.0503e-06
3.88573e-06
3.73015e-06
3.5818e-06
3.4395e-06
3.29999e-06
3.16048e-06
3.01795e-06
2.87075e-06
2.71491e-06
2.55019e-06
2.37425e-06
2.18728e-06
1.98971e-06
1.78261e-06
1.56964e-06
1.35631e-06
1.14962e-06
9.56273e-07
7.80345e-07
6.2434e-07
4.89132e-07
3.75014e-07
2.80894e-07
2.05736e-07
1.47704e-07
1.04527e-07
7.40082e-08
5.66429e-08
5.06368e-08
6.05791e-08
1.07377e-07
4.32033e-06
4.46264e-06
4.62218e-06
4.78814e-06
4.95861e-06
5.13648e-06
5.31474e-06
5.48799e-06
5.65518e-06
5.81303e-06
5.95623e-06
6.08324e-06
6.19038e-06
6.27428e-06
6.33259e-06
6.35998e-06
6.35378e-06
6.3115e-06
6.22868e-06
6.10794e-06
5.9464e-06
5.74011e-06
5.49261e-06
5.21191e-06
4.89523e-06
4.53973e-06
4.1541e-06
3.75225e-06
3.35476e-06
2.97747e-06
2.63025e-06
2.31906e-06
2.04395e-06
1.80992e-06
1.60546e-06
1.44412e-06
1.30325e-06
1.1125e-06
1.1136e-06
4.17894e-06
4.0437e-06
3.90897e-06
3.76149e-06
3.6146e-06
3.46907e-06
3.32486e-06
3.18958e-06
3.06351e-06
2.94525e-06
2.83257e-06
2.72547e-06
2.62114e-06
2.5162e-06
2.41033e-06
2.29975e-06
2.18366e-06
2.05983e-06
1.92743e-06
1.78508e-06
1.6332e-06
1.4728e-06
1.30551e-06
1.13544e-06
9.68699e-07
8.11002e-07
6.66174e-07
5.36016e-07
4.21812e-07
3.24299e-07
2.43194e-07
1.77669e-07
1.26544e-07
8.81489e-08
6.07522e-08
4.4852e-08
3.90415e-08
4.68839e-08
8.26217e-08
3.4067e-06
3.52111e-06
3.64896e-06
3.78277e-06
3.92085e-06
4.06628e-06
4.21203e-06
4.35515e-06
4.49471e-06
4.62757e-06
4.75069e-06
4.8624e-06
4.96007e-06
5.0417e-06
5.10369e-06
5.14401e-06
5.15879e-06
5.14688e-06
5.10417e-06
5.03077e-06
4.92499e-06
4.78335e-06
4.60702e-06
4.40044e-06
4.16424e-06
3.89475e-06
3.5955e-06
3.27839e-06
2.95885e-06
2.64861e-06
2.35801e-06
2.09213e-06
1.85359e-06
1.64596e-06
1.46309e-06
1.31002e-06
1.17983e-06
1.00102e-06
9.4414e-07
3.29477e-06
3.18704e-06
3.07978e-06
2.96447e-06
2.8491e-06
2.73437e-06
2.62287e-06
2.5177e-06
2.42026e-06
2.32924e-06
2.24362e-06
2.16199e-06
2.08278e-06
2.00425e-06
1.92475e-06
1.84166e-06
1.75438e-06
1.66143e-06
1.56105e-06
1.45296e-06
1.33673e-06
1.21239e-06
1.08085e-06
9.46181e-07
8.12536e-07
6.84436e-07
5.65512e-07
4.57493e-07
3.61764e-07
2.78872e-07
2.09201e-07
1.5236e-07
1.07517e-07
7.35923e-08
4.91966e-08
3.4643e-08
2.92966e-08
3.5636e-08
6.31452e-08
2.69318e-06
2.78502e-06
2.88707e-06
2.99503e-06
3.10733e-06
3.22521e-06
3.34461e-06
3.46256e-06
3.57873e-06
3.69008e-06
3.79439e-06
3.89111e-06
3.97799e-06
4.05281e-06
4.1143e-06
4.15997e-06
4.18701e-06
4.19286e-06
4.17675e-06
4.13648e-06
4.07039e-06
3.9763e-06
3.8524e-06
3.70429e-06
3.52974e-06
3.3269e-06
3.09695e-06
2.84982e-06
2.5949e-06
2.34287e-06
2.10163e-06
1.87693e-06
1.67126e-06
1.4887e-06
1.32566e-06
1.18362e-06
1.05916e-06
8.9866e-07
8.1009e-07
2.60359e-06
2.5183e-06
2.43243e-06
2.34173e-06
2.25104e-06
2.16049e-06
2.07298e-06
1.99155e-06
1.91561e-06
1.84497e-06
1.77949e-06
1.71691e-06
1.65634e-06
1.59709e-06
1.53646e-06
1.47426e-06
1.40849e-06
1.33788e-06
1.26219e-06
1.17997e-06
1.09049e-06
9.94192e-07
8.91706e-07
7.85124e-07
6.78081e-07
5.74722e-07
4.77605e-07
3.88409e-07
3.08384e-07
2.38386e-07
1.78888e-07
1.29741e-07
9.0614e-08
6.07584e-08
3.92325e-08
2.6158e-08
2.13105e-08
2.6518e-08
4.79555e-08
2.1336e-06
2.20682e-06
2.28915e-06
2.37669e-06
2.46724e-06
2.56298e-06
2.66065e-06
2.75761e-06
2.85334e-06
2.94593e-06
3.03422e-06
3.1173e-06
3.19283e-06
3.25998e-06
3.31793e-06
3.36404e-06
3.39695e-06
3.41425e-06
3.41361e-06
3.39506e-06
3.35802e-06
3.29769e-06
3.21297e-06
3.10832e-06
2.98159e-06
2.83056e-06
2.65677e-06
2.46546e-06
2.26385e-06
2.06048e-06
1.86225e-06
1.67376e-06
1.49816e-06
1.33894e-06
1.19372e-06
1.06409e-06
9.46085e-07
8.01198e-07
6.99983e-07
2.06217e-06
1.99388e-06
1.92571e-06
1.85379e-06
1.78212e-06
1.71069e-06
1.64178e-06
1.57773e-06
1.51901e-06
1.46402e-06
1.41282e-06
1.36507e-06
1.31886e-06
1.27306e-06
1.22682e-06
1.1797e-06
1.1297e-06
1.07637e-06
1.0188e-06
9.55646e-07
8.87649e-07
8.13287e-07
7.32928e-07
6.4881e-07
5.63709e-07
4.80624e-07
4.01611e-07
3.28078e-07
2.61486e-07
2.02687e-07
1.52092e-07
1.09876e-07
7.59126e-08
4.97417e-08
3.08042e-08
1.91949e-08
1.48698e-08
1.92891e-08
3.61849e-08
1.69342e-06
1.75216e-06
1.81862e-06
1.88896e-06
1.96252e-06
2.04055e-06
2.11958e-06
2.19926e-06
2.27838e-06
2.35537e-06
2.4291e-06
2.49907e-06
2.56439e-06
2.6236e-06
2.67595e-06
2.72005e-06
2.75442e-06
2.77781e-06
2.78771e-06
2.78312e-06
2.76454e-06
2.72868e-06
2.67306e-06
2.59981e-06
2.50997e-06
2.39927e-06
2.26882e-06
2.12215e-06
1.96486e-06
1.80221e-06
1.64066e-06
1.48362e-06
1.33483e-06
1.19699e-06
1.06881e-06
9.51488e-07
8.41352e-07
7.09893e-07
6.05875e-07
1.63647e-06
1.58179e-06
1.52751e-06
1.47055e-06
1.41353e-06
1.35719e-06
1.3027e-06
1.25247e-06
1.20632e-06
1.1634e-06
1.12355e-06
1.08629e-06
1.0503e-06
1.01532e-06
9.79988e-07
9.43724e-07
9.05665e-07
8.65222e-07
8.21122e-07
7.73316e-07
7.20773e-07
6.63035e-07
6.00661e-07
5.34519e-07
4.66941e-07
4.00182e-07
3.36034e-07
2.7591e-07
2.20699e-07
1.71416e-07
1.28599e-07
9.25222e-08
6.3272e-08
4.04345e-08
2.38253e-08
1.36019e-08
9.87031e-09
1.36926e-08
2.71808e-08
1.3465e-06
1.39373e-06
1.44718e-06
1.50389e-06
1.56335e-06
1.62653e-06
1.69132e-06
1.75622e-06
1.82102e-06
1.88507e-06
1.94664e-06
2.00542e-06
2.06096e-06
2.11227e-06
2.15876e-06
2.19941e-06
2.23288e-06
2.25823e-06
2.27398e-06
2.27862e-06
2.27254e-06
2.25263e-06
2.21777e-06
2.16872e-06
2.10549e-06
2.02562e-06
1.92859e-06
1.8176e-06
1.69583e-06
1.56753e-06
1.43671e-06
1.30748e-06
1.18241e-06
1.06381e-06
9.51543e-07
8.45955e-07
7.44615e-07
6.25714e-07
5.24151e-07
1.30103e-06
1.25743e-06
1.2136e-06
1.16843e-06
1.12322e-06
1.07859e-06
1.03558e-06
9.95821e-07
9.59123e-07
9.25705e-07
8.94351e-07
8.64954e-07
8.37133e-07
8.10046e-07
7.82736e-07
7.54962e-07
7.259e-07
6.94844e-07
6.61291e-07
6.24442e-07
5.83988e-07
5.39663e-07
4.91023e-07
4.3899e-07
3.85347e-07
3.31877e-07
2.80057e-07
2.30972e-07
1.85522e-07
1.44423e-07
1.08312e-07
7.7563e-08
5.24081e-08
3.26881e-08
1.82488e-08
9.33084e-09
6.11887e-09
9.46374e-09
2.04341e-08
1.07219e-06
1.11019e-06
1.15325e-06
1.19912e-06
1.2472e-06
1.29842e-06
1.3511e-06
1.40413e-06
1.45738e-06
1.50976e-06
1.56096e-06
1.61052e-06
1.6573e-06
1.70123e-06
1.74199e-06
1.77829e-06
1.80962e-06
1.83501e-06
1.85334e-06
1.86324e-06
1.86508e-06
1.85633e-06
1.83564e-06
1.80416e-06
1.76048e-06
1.70363e-06
1.63299e-06
1.54945e-06
1.45597e-06
1.35558e-06
1.25085e-06
1.14517e-06
1.04078e-06
9.39848e-07
8.42033e-07
7.47939e-07
6.5577e-07
5.49096e-07
4.53174e-07
1.03584e-06
1.00124e-06
9.6623e-07
9.29959e-07
8.94128e-07
8.58444e-07
8.24582e-07
7.92781e-07
7.63883e-07
7.37358e-07
7.12747e-07
6.8967e-07
6.67997e-07
6.4658e-07
6.2555e-07
6.04239e-07
5.81646e-07
5.57679e-07
5.3193e-07
5.03741e-07
4.72711e-07
4.38251e-07
4.00398e-07
3.5956e-07
3.17056e-07
2.74341e-07
2.32658e-07
1.92746e-07
1.55353e-07
1.2121e-07
9.09301e-08
6.48916e-08
4.33405e-08
2.63724e-08
1.38823e-08
6.15177e-09
3.4254e-09
6.38642e-09
1.53937e-08
8.55042e-07
8.85728e-07
9.20343e-07
9.57114e-07
9.9609e-07
1.03768e-06
1.08049e-06
1.12388e-06
1.16746e-06
1.2107e-06
1.25264e-06
1.29385e-06
1.33351e-06
1.3705e-06
1.40553e-06
1.43774e-06
1.46603e-06
1.48997e-06
1.50904e-06
1.52176e-06
1.52802e-06
1.52698e-06
1.51609e-06
1.49659e-06
1.46778e-06
1.42794e-06
1.37683e-06
1.31522e-06
1.24426e-06
1.16603e-06
1.08287e-06
9.97063e-07
9.1064e-07
8.25121e-07
7.40616e-07
6.57648e-07
5.74713e-07
4.79739e-07
3.9136e-07
8.25805e-07
7.98128e-07
7.70303e-07
7.41379e-07
7.12787e-07
6.844e-07
6.57231e-07
6.32329e-07
6.09337e-07
5.88132e-07
5.68613e-07
5.5054e-07
5.3323e-07
5.16488e-07
5.00211e-07
4.83395e-07
4.65936e-07
4.47585e-07
4.27799e-07
4.06079e-07
3.82004e-07
3.55494e-07
3.2595e-07
2.93766e-07
2.6021e-07
2.26224e-07
1.92715e-07
1.60304e-07
1.29717e-07
1.01477e-07
7.61773e-08
5.41967e-08
3.58763e-08
2.13021e-08
1.05663e-08
3.91508e-09
1.63669e-09
4.25049e-09
1.16782e-08
6.8283e-07
7.07358e-07
7.35183e-07
7.64974e-07
7.9649e-07
8.30203e-07
8.65044e-07
9.00133e-07
9.35718e-07
9.71364e-07
1.00621e-06
1.03998e-06
1.07288e-06
1.10459e-06
1.13445e-06
1.16212e-06
1.18724e-06
1.20927e-06
1.22742e-06
1.24133e-06
1.25024e-06
1.25362e-06
1.24952e-06
1.23829e-06
1.21991e-06
1.19278e-06
1.15637e-06
1.11106e-06
1.05769e-06
9.97524e-07
9.31938e-07
8.63108e-07
7.91881e-07
7.20019e-07
6.47679e-07
5.75018e-07
5.01227e-07
4.17505e-07
3.37551e-07
6.59413e-07
6.37081e-07
6.14771e-07
5.91747e-07
5.68908e-07
5.46442e-07
5.24648e-07
5.04818e-07
4.86565e-07
4.69666e-07
4.54148e-07
4.39825e-07
4.26105e-07
4.13084e-07
4.00143e-07
3.87022e-07
3.73445e-07
3.59412e-07
3.44077e-07
3.27117e-07
3.08663e-07
2.88002e-07
2.64828e-07
2.39728e-07
2.1322e-07
1.86142e-07
1.59248e-07
1.33084e-07
1.0807e-07
8.48142e-08
6.3773e-08
4.52965e-08
2.97548e-08
1.73416e-08
8.18029e-09
2.4852e-09
5.78931e-10
2.85497e-09
9.00692e-09
5.45745e-07
5.65487e-07
5.87862e-07
6.12104e-07
6.37507e-07
6.64715e-07
6.92966e-07
7.21652e-07
7.50738e-07
7.79801e-07
8.08329e-07
8.36451e-07
8.63846e-07
8.90165e-07
9.15468e-07
9.39362e-07
9.61105e-07
9.80844e-07
9.97883e-07
1.01153e-06
1.02159e-06
1.02722e-06
1.02752e-06
1.022e-06