/*--------------------------------*- C++ -*----------------------------------*\
| =========                 |                                                 |
| \\      /  F ield         | OpenFOAM: The Open Source CFD Toolbox           |
|  \\    /   O peration     | Version:  2506                                  |
|   \\  /    A nd           | Website:  www.openfoam.com                      |
|    \\/     M anipulation  |                                                 |
\*---------------------------------------------------------------------------*/
FoamFile
{
    version     2.0;
    format      ascii;
    arch        "LSB;label=32;scalar=64";
    class       volSymmTensorField;
    location    "300";
    object      turbulenceProperties:devReff;
}
// * * * * * * * * * * * * * * * * * * * * * * * * * * * * * * * * * * * * * //

dimensions      [0 2 -2 0 0 0 0];

internalField   nonuniform List<symmTensor> 
10720
(
(0.00163753 0.00425976 -9.47781e-22 -0.00177419 -2.23957e-20 0.000136663)
(0.00238922 0.00488225 -1.43313e-22 -0.0024872 1.40415e-19 9.79861e-05)
(0.00361225 0.0054631 -2.76236e-20 -0.00380957 -4.35167e-19 0.000197314)
(0.00524777 0.00621763 1.19085e-19 -0.00549386 8.792e-19 0.00024609)
(0.00742757 0.00687636 -2.26007e-19 -0.00769634 -8.34602e-19 0.000268765)
(0.0104076 0.00726493 -1.72353e-19 -0.0107993 -4.50788e-19 0.000391618)
(0.014304 0.00737761 3.26041e-19 -0.0147904 1.25297e-18 0.000486434)
(0.019194 0.0068618 -8.31519e-19 -0.0197768 -2.26214e-18 0.000582782)
(0.025247 0.00535374 -2.06576e-19 -0.0259939 6.04717e-19 0.000746816)
(0.0325743 0.00260753 6.13892e-19 -0.033475 1.25986e-18 0.000900764)
(0.0413544 -0.00189794 1.58023e-18 -0.0424462 5.77785e-19 0.00109182)
(0.0519746 -0.00873564 -3.55336e-18 -0.0532927 -3.30028e-18 0.00131813)
(0.0649758 -0.018826 6.73002e-19 -0.0665694 8.68654e-19 0.0015936)
(0.0812693 -0.0337571 2.687e-18 -0.0832246 1.27338e-18 0.00195536)
(0.102396 -0.0561825 -4.07833e-18 -0.104863 -6.37134e-18 0.00246686)
(0.130567 -0.0904266 -4.36605e-18 -0.133742 -2.58584e-18 0.00317531)
(0.169933 -0.145099 1.92195e-17 -0.174241 1.77969e-17 0.00430782)
(0.224348 -0.232486 1.7859e-17 -0.230229 3.38047e-17 0.00588183)
(0.311051 -0.389018 -3.54011e-17 -0.319668 -5.48842e-17 0.00861732)
(0.426564 -0.641887 -1.37176e-18 -0.43874 1.45606e-17 0.0121759)
(0.667206 -1.21482 -2.72327e-17 -0.686606 5.20916e-17 0.0193995)
(0.945717 -2.11468 -1.25119e-17 -0.971825 4.1922e-17 0.0261079)
(1.76722 -5.13333 -1.43209e-16 -1.8194 -6.43078e-16 0.0521729)
(2.42868 -10.3126 3.31741e-16 -2.51203 5.59507e-16 0.0833567)
(1.52765 -11.6429 4.24449e-17 -1.56859 -7.12716e-16 0.0409429)
(0.525967 -11.2237 3.65675e-16 -0.514357 5.81554e-16 -0.0116102)
(-0.146138 -11.0406 -8.1908e-17 0.176118 -7.8461e-17 -0.0299795)
(-0.665115 -11.2249 2.7454e-16 0.690028 2.30628e-16 -0.0249123)
(-1.13632 -11.4398 7.28997e-16 1.15283 1.20878e-15 -0.0165079)
(-1.57167 -11.4533 4.00369e-16 1.58004 1.99809e-15 -0.00836735)
(-1.95785 -11.2398 -1.41156e-15 1.95613 -1.93196e-15 0.0017219)
(-2.27364 -10.8339 -4.74853e-16 2.26315 -7.26328e-16 0.0104843)
(-2.49381 -10.221 -3.25722e-17 2.47887 -4.36901e-15 0.0149395)
(-2.60547 -9.41477 -2.58357e-15 2.5901 -7.30177e-15 0.0153706)
(-2.58972 -8.40693 1.00658e-15 2.57552 9.23474e-16 0.0142035)
(-2.43592 -7.22857 1.22297e-15 2.42491 1.1439e-15 0.011016)
(-2.07477 -5.67527 -1.22511e-16 2.06132 -5.25323e-16 0.0134456)
(-1.58734 -4.17345 -1.51931e-15 1.5856 -2.49448e-17 0.0017334)
(-0.472961 -0.927639 -1.8846e-16 0.473723 -1.90356e-15 -0.000761685)
(0.000968142 0.00371474 2.38695e-21 -0.00102006 5.56218e-20 5.19131e-05)
(0.000549602 0.00319863 -3.56722e-21 -0.000639685 4.29961e-23 9.00825e-05)
(0.000179047 0.00261231 -1.9522e-20 -0.000226148 -1.37224e-19 4.71002e-05)
(-6.74655e-05 0.00209067 4.92789e-21 3.33155e-05 9.36619e-20 3.415e-05)
(-0.000179712 0.00159764 3.93212e-21 0.000161402 -1.83001e-20 1.83095e-05)
(-0.000173078 0.00116774 -3.38106e-20 0.000173445 1.1073e-19 -3.67545e-07)
(-8.44521e-05 0.000835677 -2.02303e-19 0.000108529 1.62827e-19 -2.40767e-05)
(5.44126e-05 0.000637142 1.38545e-19 -1.67035e-05 -6.60783e-20 -3.77091e-05)
(0.00023096 0.000621203 2.26675e-19 -0.000204528 -1.14649e-19 -2.64321e-05)
(0.000470818 0.000742048 -1.54556e-19 -0.000467509 3.90997e-20 -3.30929e-06)
(0.000811725 0.00102642 -3.8831e-20 -0.000822364 1.83218e-19 1.06385e-05)
(0.00130556 0.00156576 2.49314e-19 -0.00132353 1.0378e-19 1.79725e-05)
(0.00202308 0.00252453 4.59453e-19 -0.00205323 -7.15231e-20 3.01489e-05)
(0.00305403 0.00413533 -8.06136e-21 -0.00310529 -2.58856e-19 5.12644e-05)
(0.00447098 0.00664193 -8.05848e-20 -0.00454589 -1.73488e-19 7.49045e-05)
(0.00629659 0.010334 2.67485e-20 -0.00640526 -5.81723e-20 0.000108666)
(0.00863592 0.0156297 -1.97022e-19 -0.00878159 6.7018e-19 0.000145679)
(0.011736 0.0234169 7.42301e-19 -0.0119341 2.7605e-19 0.000198097)
(0.0161427 0.0354388 3.27977e-19 -0.0164109 -1.21868e-18 0.000268264)
(0.0226807 0.0549811 -1.32051e-18 -0.0230711 -3.46626e-19 0.000390399)
(0.0329294 0.0885878 -4.43979e-18 -0.0335201 -2.03e-18 0.000590742)
(0.0490562 0.14848 -3.35483e-18 -0.0500353 -8.97581e-19 0.000979082)
(0.0756774 0.263663 6.22599e-18 -0.0774545 -5.78313e-19 0.0017771)
(0.116242 0.487609 -7.4624e-18 -0.119877 1.20759e-18 0.00363531)
(0.183175 0.979101 4.06819e-18 -0.191019 -7.2288e-18 0.0078434)
(0.27785 2.01697 -1.26376e-16 -0.294219 2.60652e-18 0.016369)
(0.409898 4.53108 -7.83018e-17 -0.448358 1.23102e-17 0.0384597)
(0.421055 9.3667 6.59089e-17 -0.501343 8.3194e-19 0.0802885)
(0.00811673 13.2899 8.69713e-18 -0.112247 -1.26755e-19 0.10413)
(-0.628687 14.9582 6.28635e-17 0.53036 4.63348e-19 0.0983265)
(-1.26773 15.3972 -4.37134e-16 1.18549 -4.91238e-18 0.0822385)
(-1.85306 15.4171 1.57303e-16 1.78573 2.09083e-17 0.0673348)
(-2.37719 15.255 -1.8888e-15 2.3214 -1.53078e-16 0.0557925)
(-2.83292 14.9549 -3.45822e-15 2.78602 -2.37494e-16 0.0468987)
(-3.21829 14.5328 1.0583e-15 3.17797 1.08256e-16 0.0403265)
(-3.53735 14.0098 1.00936e-15 3.50208 1.62791e-16 0.0352622)
(-3.77501 13.2868 1.4504e-15 3.74292 2.66746e-16 0.0320855)
(-3.91915 12.4694 -2.90371e-16 3.88915 -3.67148e-17 0.0299927)
(-3.63978 10.0654 -4.55418e-15 3.63317 -7.84076e-16 0.00661093)
(0.000579455 -0.000460618 1.22614e-22 -0.00052005 4.00474e-21 -5.94043e-05)
(0.000492615 -0.000547445 2.90391e-20 -0.000425481 7.03637e-20 -6.71346e-05)
(0.00037141 -0.00062303 -2.69286e-20 -0.000291074 -4.74731e-20 -8.03359e-05)
(0.000250504 -0.000652249 -1.81306e-20 -0.000158552 -5.16573e-20 -9.19515e-05)
(0.000133131 -0.000645164 1.22283e-19 -3.25155e-05 2.37344e-19 -0.000100616)
(2.31184e-05 -0.00061053 4.76205e-20 8.6223e-05 7.38778e-20 -0.000109341)
(-6.03121e-05 -0.000551433 2.25838e-19 0.00017724 2.07469e-19 -0.000116928)
(-0.000116655 -0.000479025 -1.16729e-19 0.00023851 -2.24598e-20 -0.000121855)
(-0.00014931 -0.000404793 1.6492e-19 0.000274608 1.14273e-19 -0.000125298)
(-0.000158007 -0.000336016 -5.86144e-21 0.000285275 2.49395e-22 -0.000127269)
(-0.000150102 -0.000278321 -2.23025e-19 0.000277013 -1.90543e-19 -0.000126911)
(-0.000132647 -0.000239988 2.87211e-19 0.000258892 3.57562e-19 -0.000126244)
(-0.000110865 -0.000226197 1.76652e-19 0.000240763 8.87674e-20 -0.000129898)
(-8.62168e-05 -0.000245935 -3.68599e-20 0.000231142 1.99964e-20 -0.000144925)
(-4.84328e-05 -0.000344964 -2.27068e-19 0.000241513 3.73804e-20 -0.00019308)
(6.28986e-05 -0.000659453 4.77836e-19 0.000258187 5.46842e-19 -0.000321086)
(0.000456613 -0.00155071 8.56361e-19 0.000141418 -9.36327e-19 -0.000598031)
(0.00150504 -0.00355317 -4.42172e-18 -0.000501524 -5.7321e-18 -0.00100352)
(0.00421505 -0.00869179 5.06143e-19 -0.00254532 7.47585e-18 -0.00166973)
(0.0105037 -0.0211854 7.37902e-18 -0.00791836 -2.07244e-18 -0.00258533)
(0.0296091 -0.0627791 1.55404e-17 -0.0251867 6.15729e-18 -0.00442244)
(0.0742133 -0.17498 -2.35879e-17 -0.0679952 -2.26011e-17 -0.00621808)
(0.195872 -0.547222 7.44347e-17 -0.188071 1.88029e-16 -0.00780171)
(0.506015 -1.7887 1.53932e-19 -0.503289 -1.55161e-16 -0.00272608)
(0.750679 -3.55415 -2.73816e-16 -0.77451 1.70101e-16 0.023831)
(0.79102 -5.40261 -9.72193e-17 -0.845538 -6.61346e-16 0.0545176)
(0.603876 -7.15461 1.1987e-18 -0.675903 7.57654e-17 0.0720274)
(0.204201 -8.39786 -2.94599e-16 -0.279887 -4.45089e-16 0.0756863)
(-0.295985 -8.63896 -4.93677e-16 0.229885 -2.83424e-15 0.0660998)
(-0.707617 -7.89953 -1.66957e-16 0.66634 -3.5482e-15 0.0412769)
(-0.931705 -6.69359 5.23073e-16 0.923299 4.89864e-15 0.00840597)
(-0.998715 -5.47958 -9.55553e-16 1.01688 -3.74831e-17 -0.0181663)
(-0.984805 -4.49959 -7.1907e-15 1.0146 1.34245e-15 -0.0297944)
(-0.93118 -3.75449 8.7745e-15 0.960819 1.59579e-14 -0.0296387)
(-0.864112 -3.18713 -1.48902e-15 0.888123 -8.64119e-16 -0.0240111)
(-0.781827 -2.74401 3.41103e-15 0.802312 -4.99303e-15 -0.0204846)
(-0.731079 -2.43264 -1.50388e-15 0.744455 1.52365e-15 -0.0133758)
(-0.56061 -2.13752 3.25066e-15 0.595904 4.04222e-16 -0.0352948)
(-0.787327 -2.25539 5.36398e-15 0.698419 7.29019e-15 0.0889074)
(0.000645694 -0.0003451 9.37007e-21 -0.000595446 2.31899e-20 -5.02483e-05)
(0.000684478 -0.000224702 -1.27038e-20 -0.000637507 -9.60227e-20 -4.69711e-05)
(0.00069177 -7.64709e-05 -1.86397e-20 -0.000654722 -1.1128e-19 -3.70479e-05)
(0.000654341 8.66157e-05 -7.12151e-21 -0.000627738 1.65306e-19 -2.66024e-05)
(0.000565182 0.000235252 1.91194e-21 -0.000551039 4.34931e-20 -1.41429e-05)
(0.000429386 0.000348885 3.78001e-20 -0.000425713 -1.45182e-19 -3.67235e-06)
(0.00027131 0.000405986 7.82146e-20 -0.000274717 -1.96023e-19 3.40647e-06)
(0.000131167 0.000406972 -3.17801e-19 -0.000140235 8.36392e-21 9.06777e-06)
(2.29287e-05 0.000374136 4.89263e-20 -3.34416e-05 2.16553e-19 1.05129e-05)
(-6.62612e-05 0.000316396 1.28507e-21 6.00257e-05 -1.29341e-19 6.23542e-06)
(-0.000121738 0.000243667 -8.33103e-20 0.000123146 -7.89818e-20 -1.40778e-06)
(-0.000141743 0.000176702 -6.00833e-20 0.000150056 -8.50221e-20 -8.31337e-06)
(-0.000139965 0.000124417 -1.12099e-20 0.000152764 1.86601e-20 -1.27996e-05)
(-0.000127571 8.66433e-05 3.75381e-20 0.000142832 1.01029e-19 -1.52613e-05)
(-0.000111046 6.09028e-05 6.47407e-20 0.000127498 2.50249e-20 -1.64525e-05)
(-9.41964e-05 4.4008e-05 -9.21212e-20 0.000110951 -4.71294e-21 -1.67547e-05)
(-7.8689e-05 3.3387e-05 8.26917e-20 9.51018e-05 8.55557e-21 -1.64128e-05)
(-6.5394e-05 2.6874e-05 -9.84195e-21 8.10452e-05 -2.88916e-20 -1.56512e-05)
(-5.43387e-05 2.27302e-05 -3.38024e-20 6.89945e-05 5.3805e-20 -1.46558e-05)
(-4.52879e-05 1.99626e-05 -2.57712e-20 5.89191e-05 2.80677e-20 -1.36312e-05)
(-3.80005e-05 1.79302e-05 -6.19864e-20 5.07314e-05 6.9774e-20 -1.27309e-05)
(-3.26753e-05 1.64645e-05 -8.73092e-20 4.49204e-05 4.53138e-20 -1.2245e-05)
(-2.91911e-05 1.55131e-05 -1.25793e-19 4.1689e-05 1.08331e-20 -1.24979e-05)
(-2.68707e-05 1.54905e-05 5.61007e-20 4.05148e-05 5.33715e-21 -1.3644e-05)
(-2.46039e-05 1.72561e-05 -3.99334e-21 3.96863e-05 5.4831e-21 -1.50824e-05)
(-0.000235133 0.000213285 5.26273e-19 0.000404289 1.37893e-19 -0.000169156)
(-0.00119661 0.00135559 2.69452e-18 0.00216605 -1.92547e-19 -0.000969448)
(-0.00866482 0.0119855 1.08323e-18 0.0162423 -4.52628e-19 -0.0075775)
(-0.0262202 0.0459118 -7.54137e-19 0.0499451 1.03685e-19 -0.0237249)
(-0.0449384 0.102681 4.96307e-17 0.0849856 2.00805e-18 -0.0400472)
(-0.057967 0.170633 4.02581e-16 0.105287 9.75233e-18 -0.0473196)
(-0.0659722 0.235203 2.39492e-16 0.111221 1.31062e-17 -0.0452491)
(-0.0730095 0.289319 1.76222e-15 0.11201 1.20981e-16 -0.0390005)
(-0.0819802 0.334901 2.54445e-15 0.114731 1.69713e-16 -0.0327506)
(-0.0941418 0.375322 -5.70478e-16 0.122111 -9.73539e-17 -0.0279696)
(-0.10844 0.415519 -4.94335e-16 0.133594 -8.66454e-17 -0.0251541)
(-0.128771 0.456148 -1.225e-15 0.151559 -5.15469e-16 -0.0227878)
(-0.147314 0.552314 -2.52505e-15 0.174157 -3.22844e-18 -0.0268422)
(-0.207642 0.775774 -2.03915e-15 0.19744 1.35905e-15 0.0102026)
(0.00033366 -0.000312882 1.7248e-21 -0.000360054 2.38463e-21 2.63942e-05)
(0.000258325 -0.000372354 -2.72933e-20 -0.000290211 -6.63341e-20 3.18868e-05)
(0.000160804 -0.000413628 -6.02271e-21 -0.000197945 -3.02815e-21 3.71404e-05)
(5.20026e-05 -0.00042642 2.27839e-20 -9.68906e-05 4.92303e-20 4.4888e-05)
(-5.45006e-05 -0.00041312 -7.2102e-20 3.60366e-06 -1.46672e-19 5.0897e-05)
(-0.00015486 -0.000372482 -8.2083e-20 9.79684e-05 -1.34535e-19 5.68915e-05)
(-0.000239031 -0.000308494 -1.6643e-19 0.000175505 -2.46013e-19 6.35267e-05)
(-0.000300079 -0.000230738 -1.34096e-20 0.000231196 -1.99082e-21 6.88831e-05)
(-0.000337847 -0.000145401 -7.30626e-20 0.000264366 -1.74038e-19 7.34803e-05)
(-0.00035304 -6.10757e-05 3.05817e-19 0.000275515 3.4802e-19 7.75252e-05)
(-0.000348719 1.66302e-05 -5.00894e-20 0.000268583 6.81218e-20 8.01363e-05)
(-0.000331441 8.39584e-05 3.41272e-20 0.000250396 2.10036e-20 8.10457e-05)
(-0.000307397 0.000139341 -2.33557e-19 0.000227575 -2.97274e-19 7.98223e-05)
(-0.000281435 0.000184906 1.50394e-19 0.000204209 -1.39649e-20 7.72258e-05)
(-0.000254043 0.000218743 4.36331e-20 0.000181588 1.35413e-19 7.24548e-05)
(-0.000224064 0.000237832 5.3448e-20 0.000159101 2.56538e-20 6.49631e-05)
(-0.000179264 0.000226916 -2.4048e-19 0.000127562 -1.40065e-19 5.17027e-05)
(-0.00015269 0.000223667 2.08603e-19 0.000110236 1.55498e-19 4.24543e-05)
(-0.000102374 0.000168999 5.07116e-20 7.59968e-05 6.64794e-22 2.63774e-05)
(-0.000915964 0.00165033 -2.1177e-18 0.000708666 -3.18644e-19 0.000207298)
(-0.00180775 0.0034618 5.25535e-18 0.0014724 -2.0638e-18 0.000335353)
(-6.68558e-05 0.000132034 7.36257e-21 5.81443e-05 1.26233e-19 8.71143e-06)
(-0.00133598 0.00150858 5.95568e-18 0.00142833 -8.79578e-18 -9.23577e-05)
(0.00126726 -0.00472054 -2.29392e-18 -0.00102194 -2.45132e-18 -0.000245315)
(0.0119503 -0.0528673 4.36387e-18 -0.0101606 1.5422e-17 -0.00178963)
(0.0317358 -0.190728 -2.81338e-17 -0.0276369 7.69487e-18 -0.0040989)
(0.0532132 -0.491128 1.47369e-17 -0.0471987 1.14511e-18 -0.00601446)
(0.0637904 -1.11319 -1.42957e-17 -0.0565721 7.6293e-17 -0.0072183)
(0.0252435 -2.20142 -4.40343e-16 -0.0184522 2.4627e-16 -0.00679126)
(-0.120068 -3.63369 2.17105e-16 0.123258 3.53333e-16 -0.00318927)
(-0.387619 -4.91728 1.56426e-15 0.382426 -5.87048e-16 0.00519378)
(-0.692324 -5.52673 -2.76581e-15 0.677901 2.16325e-15 0.0144232)
(-0.906109 -5.36938 5.14014e-16 0.890373 9.33124e-15 0.0157354)
(-0.983625 -4.78893 -4.87169e-17 0.975234 -6.37015e-15 0.00839079)
(-0.965336 -4.12963 3.05828e-15 0.963874 -2.3016e-15 0.00146193)
(-0.878932 -3.52479 -1.43369e-14 0.881915 5.15382e-16 -0.00298285)
(-0.798969 -3.05426 4.95951e-15 0.798051 -1.62633e-15 0.000917745)
(-0.531839 -2.55711 5.13737e-15 0.547926 -1.52373e-15 -0.0160874)
(-0.844132 -2.815 -1.00259e-14 0.826145 2.90353e-15 0.0179869)
(0.000395291 -0.00023688 -3.54054e-21 -0.00041939 -6.74001e-21 2.40985e-05)
(0.000435606 -0.000154426 -1.34274e-20 -0.000454989 -1.90194e-20 1.93824e-05)
(0.000460074 -5.33469e-05 5.56655e-20 -0.000475008 1.20078e-19 1.49347e-05)
(0.000454804 5.4326e-05 1.14489e-20 -0.000464256 -1.35201e-20 9.45141e-06)
(0.000415742 0.000160429 7.8987e-21 -0.000421212 -8.89641e-20 5.46996e-06)
(0.000342193 0.00024803 -2.46386e-20 -0.000344177 6.36814e-20 1.98442e-06)
(0.000244265 0.000303012 7.44729e-20 -0.000243959 2.31067e-19 -3.06219e-07)
(0.000141116 0.000319923 1.56308e-19 -0.000141862 1.67891e-19 7.4562e-07)
(4.81852e-05 0.000309294 5.31222e-20 -4.96476e-05 -1.33559e-19 1.46239e-06)
(-2.83067e-05 0.000273968 1.18509e-19 2.72514e-05 7.0207e-20 1.05529e-06)
(-7.85505e-05 0.000221441 -8.35382e-20 7.7223e-05 2.14649e-20 1.32748e-06)
(-0.000102654 0.000167001 -1.20677e-20 0.00010015 7.06521e-20 2.50367e-06)
(-0.000108695 0.000119398 5.23116e-21 0.000104635 -6.34603e-20 4.05968e-06)
(-0.000104077 8.10361e-05 1.13333e-19 9.83233e-05 -7.98026e-20 5.75339e-06)
(-9.40527e-05 5.20782e-05 8.5763e-21 8.68818e-05 -1.25451e-20 7.17097e-06)
(-8.20455e-05 3.10617e-05 -1.26662e-20 7.36868e-05 5.23733e-20 8.35863e-06)
(-7.02378e-05 1.64252e-05 8.11136e-20 6.10216e-05 -9.586e-20 9.21629e-06)
(-5.9749e-05 6.32901e-06 1.31961e-20 4.99105e-05 1.15921e-20 9.8385e-06)
(-5.10705e-05 -7.5365e-07 9.35493e-20 4.08827e-05 -6.53541e-21 1.01878e-05)
(-4.39453e-05 -6.07934e-06 1.00014e-19 3.35039e-05 2.24283e-20 1.04414e-05)
(-3.8083e-05 -1.03984e-05 2.55827e-19 2.75016e-05 -3.3788e-20 1.05814e-05)
(-3.29354e-05 -1.44488e-05 3.31025e-19 2.21646e-05 -5.0075e-20 1.07708e-05)
(-2.77655e-05 -1.86668e-05 1.96863e-19 1.66979e-05 1.70779e-20 1.10675e-05)
(-2.10944e-05 -2.2613e-05 4.53323e-20 9.24329e-06 -9.27519e-21 1.18511e-05)
(-1.29639e-05 -2.48016e-05 -4.86214e-20 -2.26827e-07 2.34991e-20 1.31907e-05)
(-4.81373e-06 -2.40794e-05 1.81513e-19 -9.43066e-06 -2.95176e-20 1.42444e-05)
(2.16579e-06 -2.25502e-05 -4.88504e-20 -1.80166e-05 -4.7648e-21 1.58508e-05)
(5.4727e-06 -1.38343e-05 -3.13949e-20 -1.76503e-05 6.47883e-22 1.21776e-05)
(5.61578e-05 -7.32929e-05 2.75824e-20 -0.000143493 -8.70593e-22 8.73354e-05)
(0.000480718 -0.000275553 -1.43939e-18 -0.00111195 -5.46454e-20 0.00063123)
(0.00144974 0.000424618 -8.64661e-18 -0.00321961 -8.16254e-20 0.00176987)
(0.00231324 0.00468631 -5.48188e-17 -0.00521393 -3.18017e-18 0.00290069)
(0.00185851 0.0154391 -1.34296e-16 -0.00506969 -4.45828e-18 0.00321118)
(-0.000686097 0.0342802 -3.34005e-16 -0.0019058 -2.29099e-17 0.0025919)
(-0.00552254 0.0608402 -8.54932e-16 0.00397667 -7.6421e-17 0.00154587)
(-0.0113198 0.0929453 2.15844e-16 0.0108169 -1.7482e-17 0.00050294)
(-0.01906 0.12757 -1.17286e-15 0.0190106 2.1127e-16 4.94223e-05)
(-0.00963424 0.154078 2.94694e-15 0.0104644 5.3291e-16 -0.000830192)
(-0.0374403 0.261152 4.63665e-15 0.0294564 9.50661e-16 0.00798385)
(0.000306287 -0.000258284 9.51675e-21 -0.000296878 1.62828e-20 -9.4091e-06)
(0.000259296 -0.000306139 -1.3257e-20 -0.000248904 -2.38989e-20 -1.03921e-05)
(0.000195904 -0.000347469 -6.02878e-21 -0.000182626 -3.31641e-21 -1.32775e-05)
(0.000125005 -0.000374261 7.16174e-20 -0.000109121 1.04815e-19 -1.5884e-05)
(5.17481e-05 -0.000382683 4.55088e-20 -3.28623e-05 8.24994e-20 -1.88858e-05)
(-2.13221e-05 -0.000372984 5.77181e-20 4.37055e-05 1.10865e-19 -2.23834e-05)
(-8.67073e-05 -0.000347115 8.81611e-20 0.000112631 1.02002e-19 -2.59239e-05)
(-0.00013957 -0.000308109 -5.05891e-20 0.000169036 -7.85676e-20 -2.94658e-05)
(-0.000178449 -0.000260574 -1.80931e-19 0.000211724 -1.79268e-19 -3.32751e-05)
(-0.000202032 -0.000209921 2.34954e-19 0.00023873 1.32316e-19 -3.66979e-05)
(-0.000211598 -0.000160044 1.97584e-19 0.000251517 1.67341e-19 -3.99192e-05)
(-0.00020931 -0.000114102 2.55725e-19 0.000251846 1.22502e-19 -4.25368e-05)
(-0.000197741 -7.42091e-05 -4.20901e-19 0.000241993 -1.34791e-19 -4.4252e-05)
(-0.000179868 -4.12311e-05 -3.58091e-19 0.000224694 -2.40556e-19 -4.48257e-05)
(-0.000157741 -1.50453e-05 4.73854e-19 0.000202215 1.49042e-19 -4.44747e-05)
(-0.000133124 7.48503e-06 9.57744e-20 0.000175295 5.89827e-20 -4.21705e-05)
(-0.000107487 2.66146e-05 -7.09185e-20 0.000145587 7.31915e-21 -3.81001e-05)
(-8.50584e-05 4.31887e-05 -2.30915e-19 0.000118214 -1.51289e-19 -3.31551e-05)
(-6.186e-05 5.45716e-05 5.16837e-20 8.6824e-05 -1.98295e-20 -2.4964e-05)
(-4.30463e-05 5.86253e-05 2.00299e-19 5.90413e-05 6.1799e-20 -1.5995e-05)
(-3.81239e-05 7.09712e-05 -2.68915e-19 4.90988e-05 -7.73508e-20 -1.09749e-05)
(-4.04131e-05 9.39642e-05 1.43982e-19 4.86216e-05 2.05688e-20 -8.20851e-06)
(-3.74559e-05 0.000112398 -4.38646e-20 4.35234e-05 -9.5112e-21 -6.06751e-06)
(-0.000242684 0.00110384 -8.57021e-19 0.000289559 4.2031e-19 -4.68749e-05)
(-0.000593776 0.00639323 3.55021e-18 0.000865547 -1.13324e-18 -0.000271771)
(0.000507371 0.012841 -7.46394e-18 8.30595e-05 9.90884e-18 -0.00059043)
(0.00339752 0.0176509 1.52713e-19 -0.00243482 -3.4874e-19 -0.000962701)
(0.000267555 0.000367464 4.94622e-19 -0.000224029 -1.75695e-19 -4.35261e-05)
(0.00395688 -0.00960596 5.86709e-18 -0.00348625 1.48511e-17 -0.000470632)
(0.00988391 -0.107369 2.65475e-17 -0.00864755 -1.20195e-16 -0.00123636)
(-0.000350792 -0.478026 -6.63837e-17 0.00255462 -3.95797e-16 -0.00220383)
(-0.0769126 -1.29973 2.07737e-15 0.0796252 5.51677e-16 -0.00271258)
(-0.263816 -2.42545 2.97153e-15 0.264692 6.72846e-16 -0.000875534)
(-0.514524 -3.34561 -1.64389e-15 0.511109 -2.2352e-15 0.00341471)
(-0.715898 -3.72383 -7.3351e-15 0.709944 1.42254e-15 0.00595391)
(-0.793222 -3.65137 4.849e-15 0.790693 4.88903e-15 0.0025291)
(-0.801611 -3.42138 -1.01701e-14 0.796931 -1.30632e-16 0.00468043)
(-0.574247 -3.02002 -1.30298e-14 0.584603 1.88179e-15 -0.0103566)
(-0.814997 -3.21283 9.21516e-15 0.786668 -3.43409e-15 0.0283292)
(0.000342245 -0.000198564 -1.46076e-20 -0.000335917 -2.97479e-20 -6.32841e-06)
(0.000364743 -0.000135388 -5.02056e-21 -0.000359253 2.02931e-20 -5.49038e-06)
(0.000373351 -5.72986e-05 4.83512e-20 -0.000370657 9.22156e-20 -2.69405e-06)
(0.000363974 2.51091e-05 -2.06845e-20 -0.000362652 -1.17323e-21 -1.32209e-06)
(0.00033246 0.00010551 1.80267e-20 -0.00033256 1.14239e-19 9.98463e-08)
(0.000278604 0.000174385 -6.26654e-21 -0.000278884 -1.11051e-19 2.80515e-07)
(0.000208927 0.000222869 5.97718e-20 -0.00020867 -1.54803e-21 -2.56838e-07)
(0.000134138 0.000246339 -1.47498e-19 -0.000134167 -8.91453e-20 2.86186e-08)
(6.21242e-05 0.000246797 -8.06135e-20 -6.2929e-05 6.96619e-21 8.04796e-07)
(-4.50529e-07 0.00022648 1.33606e-19 -6.94061e-07 6.03422e-20 1.14459e-06)
(-4.59915e-05 0.000192109 6.23823e-20 4.49994e-05 -5.1156e-21 9.92069e-07)
(-7.36316e-05 0.000153554 7.38478e-20 7.31168e-05 -4.55993e-20 5.14809e-07)
(-8.69167e-05 0.000117358 -1.14011e-19 8.71667e-05 -7.47872e-20 -2.50007e-07)
(-9.02465e-05 8.64127e-05 -1.41382e-19 9.13643e-05 2.668e-20 -1.11779e-06)
(-8.73176e-05 6.17742e-05 1.2895e-20 8.93356e-05 3.73862e-20 -2.01799e-06)
(-8.10791e-05 4.30175e-05 4.37272e-20 8.39006e-05 -1.30136e-20 -2.82152e-06)
(-7.35862e-05 2.93112e-05 -1.07367e-19 7.71379e-05 -8.51652e-21 -3.5517e-06)
(-6.61139e-05 1.94598e-05 -4.13127e-21 7.02679e-05 -1.71043e-20 -4.15407e-06)
(-5.9358e-05 1.23092e-05 -4.12369e-20 6.40056e-05 -8.07817e-21 -4.6476e-06)
(-5.34528e-05 6.79946e-06 8.66405e-20 5.8436e-05 -4.99302e-20 -4.98323e-06)
(-4.83459e-05 2.25205e-06 -9.4367e-20 5.35919e-05 -3.28162e-20 -5.24597e-06)
(-4.37611e-05 -1.90458e-06 -1.9626e-19 4.92018e-05 -2.31949e-20 -5.44068e-06)
(-3.92325e-05 -6.0187e-06 8.87859e-21 4.48483e-05 -2.97645e-20 -5.6158e-06)
(-3.40475e-05 -9.84448e-06 5.03049e-20 3.97779e-05 -2.86418e-20 -5.73049e-06)
(-2.84153e-05 -1.22467e-05 1.52473e-19 3.44233e-05 -1.06367e-20 -6.00796e-06)
(-2.34566e-05 -1.29982e-05 -1.42848e-19 3.00699e-05 -8.29235e-21 -6.61336e-06)
(-1.95439e-05 -1.28636e-05 -2.45775e-20 2.68425e-05 7.65335e-21 -7.29861e-06)
(-1.65193e-05 -1.23523e-05 1.47849e-20 2.44658e-05 1.29723e-21 -7.9465e-06)
(-1.36852e-05 -1.14381e-05 -6.83126e-21 2.188e-05 -2.75458e-22 -8.19476e-06)
(-1.08665e-05 -1.02009e-05 -9.94315e-21 1.87049e-05 4.89404e-22 -7.83844e-06)
(-7.4708e-06 -8.19819e-06 -1.60281e-20 1.38455e-05 -8.40119e-22 -6.37474e-06)
(-4.21949e-06 -5.76968e-06 4.61923e-20 8.63446e-06 1.33117e-21 -4.41497e-06)
(-3.0379e-05 -5.73896e-05 2.01417e-18 7.74716e-05 1.30768e-19 -4.70926e-05)
(-5.91957e-07 -4.61679e-05 1.88239e-17 0.000110401 1.75195e-18 -0.000109809)
(0.000235671 0.000598903 7.84702e-17 -0.000134557 1.0347e-17 -0.000101113)
(0.00088187 0.00333296 -1.73052e-16 -0.000938905 -2.64489e-17 5.70351e-05)
(0.00157076 0.0112091 7.42265e-16 -0.00204687 1.09804e-16 0.000476108)
(0.00672283 0.0279194 -4.86351e-16 -0.00721189 -1.68393e-16 0.000489056)
(-0.00282446 0.104496 -3.29547e-16 -0.00195533 -1.41081e-15 0.00477979)
(0.000222631 -0.000196173 -1.35346e-20 -0.000225652 -2.01652e-20 3.02118e-06)
(0.000184136 -0.000231668 2.65918e-21 -0.000188499 4.23896e-21 4.36272e-06)
(0.000134424 -0.00026129 1.61101e-20 -0.000139261 1.74956e-20 4.83724e-06)
(7.79699e-05 -0.000279225 -9.89686e-20 -8.41361e-05 -1.40695e-19 6.16616e-06)
(1.88957e-05 -0.000283349 -7.24501e-20 -2.64486e-05 -8.47363e-20 7.55288e-06)
(-4.04794e-05 -0.000273098 1.69316e-19 3.16451e-05 2.02698e-19 8.83423e-06)
(-9.48743e-05 -0.000249177 -1.7977e-19 8.43053e-05 -2.23248e-19 1.0569e-05)
(-0.000140387 -0.000213793 -8.12735e-20 0.000127967 -5.40621e-20 1.24203e-05)
(-0.000174777 -0.000169936 -1.93204e-19 0.000160509 -1.44582e-19 1.42671e-05)
(-0.000196716 -0.00012181 -3.59975e-20 0.000180352 -6.55131e-20 1.63642e-05)
(-0.000206309 -7.28538e-05 2.41772e-20 0.00018785 -8.7265e-21 1.84586e-05)
(-0.000204731 -2.62422e-05 -1.32281e-19 0.000184181 -1.7546e-19 2.05494e-05)
(-0.000193999 1.54654e-05 4.30678e-19 0.000171467 2.94977e-19 2.25318e-05)
(-0.000176487 5.07629e-05 -1.41768e-19 0.000152283 -2.47937e-20 2.42045e-05)
(-0.000154519 7.94553e-05 -3.47415e-19 0.000128947 -1.51921e-19 2.5572e-05)
(-0.000130531 0.000100472 2.30353e-19 0.00010459 4.60794e-21 2.5941e-05)
(-0.000106156 0.00011316 -1.67389e-19 8.13402e-05 -9.65484e-20 2.48154e-05)
(-8.17618e-05 0.000118024 2.28558e-21 5.90908e-05 1.22197e-19 2.2671e-05)
(-5.96427e-05 0.00011803 -4.02868e-20 3.95779e-05 -3.1651e-20 2.00647e-05)
(-3.92841e-05 0.000111021 -2.85282e-19 2.27039e-05 -1.97111e-19 1.65803e-05)
(-2.22513e-05 9.49741e-05 1.98737e-19 1.03721e-05 1.92934e-19 1.18792e-05)
(-1.15838e-05 7.5345e-05 3.94008e-21 4.42138e-06 -1.21493e-19 7.1624e-06)
(-6.78566e-06 6.9919e-05 3.84317e-20 2.1508e-06 1.17595e-20 4.63486e-06)
(-2.53769e-06 7.98965e-05 1.11663e-19 -1.20173e-06 -5.00137e-21 3.73942e-06)
(3.76553e-06 8.70513e-05 -3.76433e-20 -6.73981e-06 -1.19929e-20 2.97428e-06)
(9.47705e-06 8.92649e-05 1.26753e-19 -1.15691e-05 2.02584e-20 2.09208e-06)
(1.27769e-05 8.92098e-05 -6.93039e-21 -1.39976e-05 1.58543e-22 1.22071e-06)
(2.93577e-05 0.000179578 -2.85241e-20 -3.05403e-05 -1.76667e-20 1.18263e-06)
(0.00123985 0.00664003 2.18581e-20 -0.00125132 1.71152e-18 1.14715e-05)
(0.00066727 0.0029312 -8.54141e-18 -0.000661416 7.05212e-19 -5.85455e-06)
(0.0026289 0.00827659 -1.05004e-17 -0.002585 1.75588e-18 -4.3904e-05)
(0.0105854 0.0119955 2.77649e-17 -0.0103579 -1.62049e-16 -0.00022753)
(0.0187362 -0.0987232 5.7675e-16 -0.0179067 -7.07733e-16 -0.000829465)
(-0.0257171 -0.584837 -2.98478e-15 0.0277071 1.59085e-16 -0.00199)
(-0.182344 -1.4907 4.83657e-15 0.184155 1.81738e-15 -0.00181093)
(-0.400906 -2.39975 -9.60695e-16 0.401613 4.22835e-16 -0.000707573)
(-0.586188 -2.96416 -1.75018e-15 0.58223 3.98743e-15 0.0039578)
(-0.525733 -3.08605 6.73607e-16 0.536375 2.45189e-16 -0.0106417)
(-0.773618 -3.40225 -1.72641e-14 0.736141 4.3133e-15 0.0374764)
(0.000253117 -0.000152945 8.63674e-21 -0.000256277 3.53496e-21 3.16008e-06)
(0.000274195 -0.000106613 -3.12466e-20 -0.000275968 -4.49441e-20 1.7737e-06)
(0.000285747 -4.97055e-05 3.99512e-21 -0.000287367 2.03335e-20 1.62073e-06)
(0.000283494 1.17327e-05 1.70344e-20 -0.000284317 -5.68418e-20 8.23322e-07)
(0.000264511 7.30651e-05 -1.38552e-19 -0.000265087 -1.99288e-19 5.76372e-07)
(0.000228098 0.000127506 -1.23118e-19 -0.000228108 9.47954e-20 1.0537e-08)
(0.000178373 0.000168586 1.98745e-19 -0.000178046 1.03222e-19 -3.26209e-07)
(0.00012274 0.000192331 -6.42967e-20 -0.00012262 -1.86841e-19 -1.1994e-07)
(6.68082e-05 0.00019884 -8.78347e-20 -6.69874e-05 2.49327e-20 1.79194e-07)
(1.60218e-05 0.000188969 -5.98998e-20 -1.63619e-05 -1.04016e-19 3.40072e-07)
(-2.36224e-05 0.000167084 2.0986e-20 2.33174e-05 3.16674e-20 3.04907e-07)
(-5.04628e-05 0.00013943 -3.93009e-20 5.01827e-05 -5.14222e-20 2.8009e-07)
(-6.58466e-05 0.000111008 -8.1166e-20 6.55177e-05 1.09227e-19 3.28949e-07)
(-7.23405e-05 8.48075e-05 8.6085e-20 7.18742e-05 5.05431e-20 4.66321e-07)
(-7.25484e-05 6.24514e-05 7.31669e-20 7.1875e-05 -3.36539e-20 6.73441e-07)
(-6.88987e-05 4.43476e-05 -1.50334e-20 6.79454e-05 -3.01228e-20 9.53276e-07)
(-6.32459e-05 3.02773e-05 4.36822e-20 6.19829e-05 9.73649e-21 1.26297e-06)
(-5.69305e-05 1.95813e-05 -6.47055e-20 5.53502e-05 1.65339e-20 1.58031e-06)
(-5.07748e-05 1.14693e-05 4.58112e-20 4.88982e-05 -1.20139e-21 1.87652e-06)
(-4.5116e-05 5.14418e-06 -6.03043e-20 4.29648e-05 -2.81774e-20 2.15125e-06)
(-4.0026e-05 -1.73171e-08 5.81723e-20 3.76494e-05 4.87e-21 2.37662e-06)
(-3.5322e-05 -4.5169e-06 7.79892e-20 3.27543e-05 1.70733e-20 2.5677e-06)
(-3.06301e-05 -8.65036e-06 -5.43662e-21 2.79115e-05 7.15854e-21 2.71863e-06)
(-2.53551e-05 -1.22539e-05 -1.46125e-19 2.2436e-05 6.10754e-23 2.91904e-06)
(-1.95073e-05 -1.45441e-05 -5.43779e-20 1.63557e-05 -2.32394e-20 3.15156e-06)
(-1.39196e-05 -1.5272e-05 -1.60209e-20 1.05798e-05 2.47119e-20 3.33989e-06)
(-9.03385e-06 -1.50166e-05 5.92749e-20 5.38881e-06 7.39105e-22 3.64504e-06)
(-4.81817e-06 -1.41899e-05 2.1383e-21 7.49107e-07 -4.88062e-22 4.06906e-06)
(-1.23925e-06 -1.31316e-05 -3.35593e-21 -3.31965e-06 2.87584e-22 4.5589e-06)
(1.6343e-06 -1.12953e-05 3.75521e-20 -6.35035e-06 1.71295e-22 4.71605e-06)
(4.3657e-06 -1.17981e-05 3.32603e-20 -1.00204e-05 1.07474e-21 5.65472e-06)
(3.22963e-06 -5.83933e-06 -8.99672e-20 -6.13118e-06 -4.97463e-21 2.90156e-06)
(1.18634e-05 -1.72216e-05 -7.63067e-19 -1.98433e-05 -5.9198e-20 7.97986e-06)
(8.68559e-05 -0.000109102 -1.06733e-18 -0.000129153 -1.30946e-19 4.22967e-05)
(2.4479e-05 -2.66858e-05 2.06618e-19 -3.24007e-05 2.06878e-21 7.92173e-06)
(0.000109703 -8.92034e-05 -1.7021e-18 -0.000127402 7.03038e-19 1.76991e-05)
(0.000366537 -0.000131231 -1.79375e-17 -0.000396089 -1.49404e-17 2.95524e-05)
(0.000937468 0.000212967 5.60391e-17 -0.000915769 3.99891e-18 -2.16988e-05)
(0.0038395 0.0197223 -2.90703e-16 -0.00521363 5.23386e-17 0.00137413)
(0.000184135 -0.000161051 1.18691e-20 -0.000183023 1.37906e-20 -1.11207e-06)
(0.000155875 -0.000189761 -2.98494e-20 -0.000154868 -3.58855e-20 -1.0073e-06)
(0.000118615 -0.000214982 -2.41133e-21 -0.000117008 -4.98668e-21 -1.60686e-06)
(7.6074e-05 -0.000232422 -1.24439e-20 -7.41824e-05 -6.48415e-21 -1.89161e-06)
(3.10133e-05 -0.000240003 9.86438e-20 -2.87444e-05 1.13538e-19 -2.26885e-06)
(-1.54776e-05 -0.000237342 7.56437e-20 1.84549e-05 6.24107e-20 -2.9773e-06)
(-5.93681e-05 -0.00022453 9.57812e-22 6.29877e-05 3.05073e-20 -3.61962e-06)
(-9.77214e-05 -0.00020265 1.87645e-19 0.000102113 1.81829e-19 -4.39113e-06)
(-0.000128819 -0.000173568 -2.34376e-20 0.000134208 -3.13189e-21 -5.38867e-06)