# Force and moment coefficients
# dragDir     : (1.000000e+00 0.000000e+00 0.000000e+00)
# sideDir     : (0.000000e+00 0.000000e+00 -1.000000e+00)
# liftDir     : (0.000000e+00 1.000000e+00 0.000000e+00)
# rollAxis    : (1.000000e+00 0.000000e+00 0.000000e+00)
# pitchAxis   : (0.000000e+00 0.000000e+00 -1.000000e+00)
# yawAxis     : (0.000000e+00 1.000000e+00 0.000000e+00)
# magUInf     : 1.000000e+00
# lRef        : 1.000000e+00
# Aref        : 1.000000e+00
# CofR        : (0.000000e+00 0.000000e+00 0.000000e+00)
#
# Time        	Cd            	Cd(f)         	Cd(r)         	Cl            	Cl(f)         	Cl(r)         	CmPitch       	CmRoll        	CmYaw         	Cs            	Cs(f)         	Cs(r)         
0.0012        	1.239113e+03	6.195563e+02	6.195563e+02	-1.242873e+02	-6.217513e+01	-6.211215e+01	-3.149168e-02	9.181031e-18	1.250776e-17	-1.326699e-16	-5.382720e-17	-7.884272e-17
0.00264       	-1.851213e+01	-9.256065e+00	-9.256065e+00	8.775641e+00	4.355206e+00	4.420435e+00	-3.261449e-02	-5.626684e-19	-3.291633e-19	6.612750e-18	2.977211e-18	3.635538e-18
0.004368      	-1.109233e+02	-5.546164e+01	-5.546164e+01	4.463504e+01	2.228515e+01	2.234989e+01	-3.237232e-02	-2.726545e-18	-1.133048e-18	6.373457e-18	2.053681e-18	4.319776e-18
0.0064416     	-2.933080e+01	-1.466540e+01	-1.466540e+01	-8.595484e-01	-4.618414e-01	-3.977070e-01	-3.206717e-02	1.767626e-20	-2.152980e-19	4.450299e-18	2.009851e-18	2.440447e-18
0.00892992    	-4.577594e+00	-2.288797e+00	-2.288797e+00	-1.297199e+01	-6.517979e+00	-6.454007e+00	-3.198614e-02	7.860077e-19	1.894039e-20	3.765470e-18	1.901675e-18	1.863794e-18
0.0119159     	-4.551525e+00	-2.275762e+00	-2.275762e+00	2.855710e-01	1.109580e-01	1.746129e-01	-3.182744e-02	1.148888e-20	-1.214782e-20	1.940418e-18	9.580610e-19	9.823566e-19
0.0154991     	-2.587865e+00	-1.293932e+00	-1.293932e+00	2.251714e+00	1.094299e+00	1.157416e+00	-3.155838e-02	-1.037541e-19	5.536701e-21	1.163089e-18	5.870812e-19	5.760078e-19
0.0197989     	4.068776e-01	2.034388e-01	2.034388e-01	-4.607459e-01	-2.616389e-01	-1.991071e-01	-3.126591e-02	6.055579e-20	3.588278e-20	1.059912e-18	5.658390e-19	4.940734e-19
0.0249587     	1.428164e+00	7.140819e-01	7.140819e-01	-6.332172e-01	-3.476071e-01	-2.856101e-01	-3.099850e-02	7.720006e-20	3.577347e-20	8.476434e-19	4.595952e-19	3.880482e-19
0.0311504     	1.994022e+00	9.970112e-01	9.970112e-01	-5.258707e-01	-2.936767e-01	-2.321940e-01	-3.074135e-02	7.561707e-20	3.309480e-20	6.772971e-19	3.717434e-19	3.055538e-19
0.0385805     	2.389056e+00	1.194528e+00	1.194528e+00	-5.107117e-01	-2.858203e-01	-2.248913e-01	-3.046452e-02	8.126109e-20	2.895273e-20	5.723564e-19	3.151309e-19	2.572255e-19
0.0474966     	2.626399e+00	1.313199e+00	1.313199e+00	-4.885470e-01	-2.745707e-01	-2.139763e-01	-3.029722e-02	9.335770e-20	2.744293e-20	5.133991e-19	2.841425e-19	2.292566e-19
0.0581959     	2.748006e+00	1.374003e+00	1.374003e+00	-4.772126e-01	-2.687907e-01	-2.084218e-01	-3.018446e-02	1.112518e-19	2.915913e-20	4.937745e-19	2.760464e-19	2.177281e-19
0.0710351     	2.788387e+00	1.394194e+00	1.394194e+00	-4.584672e-01	-2.592356e-01	-1.992315e-01	-3.000204e-02	1.296440e-19	3.039020e-20	4.865735e-19	2.736770e-19	2.128966e-19
0.0864421     	2.768697e+00	1.384348e+00	1.384348e+00	-4.506569e-01	-2.551372e-01	-1.955197e-01	-2.980878e-02	1.515833e-19	3.361691e-20	4.875053e-19	2.773696e-19	2.101358e-19
0.104931      	2.712277e+00	1.356139e+00	1.356139e+00	-4.569430e-01	-2.573626e-01	-1.995804e-01	-2.889107e-02	1.862061e-19	4.529162e-20	5.178649e-19	3.042241e-19	2.136408e-19
0.127117      	2.635481e+00	1.317741e+00	1.317741e+00	-4.665777e-01	-2.610411e-01	-2.055366e-01	-2.775227e-02	2.132206e-19	6.730665e-20	5.562006e-19	3.454070e-19	2.107937e-19
0.15374       	2.546567e+00	1.273283e+00	1.273283e+00	-4.694952e-01	-2.612337e-01	-2.082615e-01	-2.648612e-02	1.857351e-19	8.045759e-20	5.496111e-19	3.552631e-19	1.943479e-19
0.185688      	2.445144e+00	1.222572e+00	1.222572e+00	-4.683529e-01	-2.593423e-01	-2.090106e-01	-2.516586e-02	1.285123e-19	7.366429e-20	4.903638e-19	3.188462e-19	1.715176e-19
0.223297      	2.337092e+00	1.168546e+00	1.168546e+00	-4.713087e-01	-2.598598e-01	-2.114489e-01	-2.420543e-02	5.764351e-20	4.253415e-20	3.903414e-19	2.377049e-19	1.526366e-19
0.266692      	2.224844e+00	1.112422e+00	1.112422e+00	-4.831975e-01	-2.634422e-01	-2.197553e-01	-2.184342e-02	-9.910383e-21	3.744623e-20	3.135578e-19	1.942251e-19	1.193327e-19
0.315941      	2.116167e+00	1.058083e+00	1.058083e+00	-4.950126e-01	-2.675568e-01	-2.274558e-01	-2.005048e-02	-3.983634e-20	5.278600e-20	2.952678e-19	2.004199e-19	9.484789e-20
0.371115      	2.016502e+00	1.008251e+00	1.008251e+00	-5.016098e-01	-2.692767e-01	-2.323331e-01	-1.847176e-02	-6.008178e-20	6.876962e-20	2.505765e-19	1.940579e-19	5.651864e-20
0.430443      	1.933351e+00	9.666754e-01	9.666754e-01	-4.998942e-01	-2.668422e-01	-2.330519e-01	-1.689515e-02	-5.805517e-20	7.042017e-20	1.733479e-19	1.570941e-19	1.625377e-20
0.489918      	1.875065e+00	9.375323e-01	9.375323e-01	-4.942951e-01	-2.628578e-01	-2.314373e-01	-1.571026e-02	-3.349139e-20	7.343198e-20	1.488292e-19	1.478466e-19	9.826404e-22
0.549648      	1.824323e+00	9.121615e-01	9.121615e-01	-4.922518e-01	-2.605723e-01	-2.316796e-01	-1.444636e-02	-8.397880e-21	7.777040e-20	1.392766e-19	1.474087e-19	-8.132098e-21
0.609365      	1.786991e+00	8.934955e-01	8.934955e-01	-4.878874e-01	-2.571907e-01	-2.306967e-01	-1.324697e-02	1.608704e-20	8.913015e-20	1.576748e-19	1.679676e-19	-1.029274e-20
0.668934      	1.765204e+00	8.826019e-01	8.826019e-01	-4.772645e-01	-2.507511e-01	-2.265134e-01	-1.211884e-02	4.348467e-20	9.754520e-20	1.730213e-19	1.840558e-19	-1.103457e-20
0.728433      	1.752184e+00	8.760920e-01	8.760920e-01	-4.685213e-01	-2.451300e-01	-2.233913e-01	-1.086937e-02	5.165239e-20	8.962251e-20	1.419635e-19	1.606043e-19	-1.864075e-20
0.787962      	1.744665e+00	8.723327e-01	8.723327e-01	-4.551374e-01	-2.374078e-01	-2.177296e-01	-9.839081e-03	5.726702e-20	8.636114e-20	1.255665e-19	1.491444e-19	-2.357790e-20
0.847633      	1.739463e+00	8.697313e-01	8.697313e-01	-4.430229e-01	-2.304179e-01	-2.126050e-01	-8.906467e-03	6.168146e-20	8.576791e-20	1.176416e-19	1.445887e-19	-2.694709e-20
0.907541      	1.737205e+00	8.686023e-01	8.686023e-01	-4.300099e-01	-2.228949e-01	-2.071150e-01	-7.889972e-03	6.748181e-20	8.343132e-20	1.023486e-19	1.346056e-19	-3.225701e-20
0.967757      	1.732916e+00	8.664580e-01	8.664580e-01	-4.151753e-01	-2.145617e-01	-2.006136e-01	-6.974003e-03	6.879377e-20	7.899700e-20	8.446819e-20	1.212311e-19	-3.676291e-20
1.02833       	1.731925e+00	8.659624e-01	8.659624e-01	-4.028073e-01	-2.074573e-01	-1.953500e-01	-6.053655e-03	6.937015e-20	7.771771e-20	7.556184e-20	1.154986e-19	-3.993679e-20
1.0893        	1.732065e+00	8.660325e-01	8.660325e-01	-3.872551e-01	-1.987638e-01	-1.884913e-01	-5.136230e-03	6.905816e-20	7.624214e-20	6.625043e-20	1.093674e-19	-4.311693e-20
1.15052       	1.730107e+00	8.650535e-01	8.650535e-01	-3.711586e-01	-1.898063e-01	-1.813522e-01	-4.227055e-03	6.794986e-20	7.438339e-20	5.571116e-20	1.022390e-19	-4.652781e-20
1.21198       	1.730033e+00	8.650166e-01	8.650166e-01	-3.539832e-01	-1.804541e-01	-1.735291e-01	-3.462479e-03	6.217958e-20	7.115024e-20	3.942550e-20	9.086299e-20	-5.143748e-20
1.2736        	1.729731e+00	8.648654e-01	8.648654e-01	-3.357143e-01	-1.705561e-01	-1.651582e-01	-2.698972e-03	6.187113e-20	7.168275e-20	3.735460e-20	9.036005e-20	-5.300545e-20
1.33528       	1.727906e+00	8.639528e-01	8.639528e-01	-3.182598e-01	-1.611139e-01	-1.571459e-01	-1.984007e-03	6.230301e-20	7.217403e-20	3.600607e-20	9.017707e-20	-5.417100e-20
1.39709       	1.727562e+00	8.637812e-01	8.637812e-01	-3.011713e-01	-1.519540e-01	-1.492173e-01	-1.368359e-03	6.269889e-20	7.212795e-20	3.344219e-20	8.884905e-20	-5.540686e-20
1.4591        	1.725654e+00	8.628268e-01	8.628268e-01	-2.834148e-01	-1.424549e-01	-1.409598e-01	-7.475553e-04	6.312759e-20	7.196959e-20	3.029520e-20	8.711719e-20	-5.682199e-20
1.52133       	1.723689e+00	8.618447e-01	8.618447e-01	-2.677718e-01	-1.340486e-01	-1.337232e-01	-1.627223e-04	6.301796e-20	7.152900e-20	2.578065e-20	8.441932e-20	-5.863867e-20
1.5838        	1.722253e+00	8.611263e-01	8.611263e-01	-2.482121e-01	-1.237284e-01	-1.244837e-01	3.776270e-04	6.262253e-20	7.163413e-20	2.295831e-20	8.311329e-20	-6.015498e-20
1.64581       	1.719093e+00	8.595464e-01	8.595464e-01	-2.308666e-01	-1.145574e-01	-1.163092e-01	8.759261e-04	6.135619e-20	7.151730e-20	1.887729e-20	8.095594e-20	-6.207865e-20
1.70744       	1.715963e+00	8.579815e-01	8.579815e-01	-2.124979e-01	-1.049231e-01	-1.075748e-01	1.325850e-03	6.001084e-20	7.126191e-20	1.462240e-20	7.857311e-20	-6.395071e-20
1.76872       	1.713407e+00	8.567035e-01	8.567035e-01	-1.924089e-01	-9.453291e-02	-9.787604e-02	1.671566e-03	5.834458e-20	7.107197e-20	1.026401e-20	7.620398e-20	-6.593997e-20
1.82973       	1.708043e+00	8.540217e-01	8.540217e-01	-1.714500e-01	-8.373866e-02	-8.771133e-02	1.986336e-03	5.670078e-20	7.092791e-20	5.384723e-21	7.362027e-20	-6.823555e-20
1.8905        	1.703848e+00	8.519240e-01	8.519240e-01	-1.533849e-01	-7.442120e-02	-7.896373e-02	2.271266e-03	5.538063e-20	7.078753e-20	1.308458e-21	7.144176e-20	-7.013330e-20
1.95109       	1.701794e+00	8.508971e-01	8.508971e-01	-1.341152e-01	-6.452342e-02	-6.959178e-02	2.534180e-03	5.397085e-20	7.047074e-20	-2.862866e-21	6.903931e-20	-7.190218e-20
2.01156       	1.698404e+00	8.492019e-01	8.492019e-01	-1.165962e-01	-5.552856e-02	-6.106766e-02	2.769547e-03	5.284011e-20	6.987640e-20	-7.413452e-21	6.616967e-20	-7.358313e-20
2.07193       	1.695690e+00	8.478450e-01	8.478450e-01	-1.005471e-01	-4.729453e-02	-5.325261e-02	2.979041e-03	5.205516e-20	6.918930e-20	-1.121375e-20	6.358242e-20	-7.479617e-20
2.13225       	1.688627e+00	8.443136e-01	8.443136e-01	-8.517622e-02	-3.942904e-02	-4.574717e-02	3.159063e-03	5.146141e-20	6.849825e-20	-1.531165e-20	6.084243e-20	-7.615408e-20
2.19256       	1.683303e+00	8.416513e-01	8.416513e-01	-6.775789e-02	-3.056419e-02	-3.719370e-02	3.314758e-03	5.084713e-20	6.793617e-20	-1.894325e-20	5.846455e-20	-7.740779e-20
2.25289       	1.679080e+00	8.395398e-01	8.395398e-01	-5.050872e-02	-2.180650e-02	-2.870222e-02	3.447862e-03	5.030183e-20	6.738277e-20	-2.201811e-20	5.637372e-20	-7.839183e-20
2.31328       	1.674408e+00	8.372042e-01	8.372042e-01	-3.524584e-02	-1.404722e-02	-2.119863e-02	3.575703e-03	4.983842e-20	6.685776e-20	-2.497084e-20	5.437234e-20	-7.934318e-20
2.37376       	1.670314e+00	8.351569e-01	8.351569e-01	-2.079963e-02	-6.693126e-03	-1.410650e-02	3.706689e-03	4.947598e-20	6.648995e-20	-2.739766e-20	5.279112e-20	-8.018878e-20
2.43417       	1.666037e+00	8.330184e-01	8.330184e-01	-6.854247e-03	4.073027e-04	-7.261550e-03	3.834426e-03	4.912391e-20	6.620366e-20	-2.957110e-20	5.141811e-20	-8.098920e-20
2.49448       	1.663572e+00	8.317859e-01	8.317859e-01	9.374515e-03	8.642334e-03	7.321806e-04	3.955077e-03	4.863005e-20	6.599068e-20	-3.141146e-20	5.028495e-20	-8.169641e-20
2.55472       	1.659266e+00	8.296331e-01	8.296331e-01	2.630071e-02	1.721458e-02	9.086129e-03	4.064226e-03	4.800403e-20	6.576166e-20	-3.365473e-20	4.893430e-20	-8.258903e-20
2.61489       	1.654826e+00	8.274131e-01	8.274131e-01	4.246831e-02	2.538253e-02	1.708577e-02	4.148380e-03	4.736689e-20	6.546736e-20	-3.588363e-20	4.752554e-20	-8.340918e-20
2.67502       	1.649841e+00	8.249206e-01	8.249206e-01	5.769288e-02	3.305092e-02	2.464196e-02	4.204476e-03	4.683954e-20	6.522499e-20	-3.779977e-20	4.632510e-20	-8.412487e-20
2.73513       	1.645295e+00	8.226473e-01	8.226473e-01	7.397250e-02	4.122142e-02	3.275108e-02	4.235168e-03	4.626565e-20	6.501175e-20	-3.956627e-20	4.522862e-20	-8.479489e-20
2.79522       	1.638237e+00	8.191186e-01	8.191186e-01	8.682619e-02	4.766482e-02	3.916137e-02	4.251721e-03	4.561636e-20	6.483941e-20	-4.178709e-20	4.394586e-20	-8.573296e-20
2.85533       	1.632895e+00	8.164474e-01	8.164474e-01	9.908993e-02	5.378774e-02	4.530219e-02	4.242777e-03	4.504365e-20	6.469998e-20	-4.368057e-20	4.285969e-20	-8.654026e-20
2.91546       	1.625900e+00	8.129502e-01	8.129502e-01	1.106916e-01	5.953387e-02	5.115775e-02	4.188063e-03	4.445691e-20	6.425331e-20	-4.610213e-20	4.120225e-20	-8.730438e-20
2.97562       	1.621739e+00	8.108694e-01	8.108694e-01	1.215103e-01	6.486671e-02	5.664355e-02	4.111576e-03	4.402412e-20	6.421028e-20	-4.753201e-20	4.044428e-20	-8.797629e-20
3.0358        	1.616280e+00	8.081398e-01	8.081398e-01	1.334618e-01	7.074329e-02	6.271848e-02	4.012404e-03	4.357188e-20	6.418293e-20	-4.917131e-20	3.959727e-20	-8.876858e-20
3.09603       	1.610629e+00	8.053145e-01	8.053145e-01	1.430090e-01	7.539912e-02	6.760984e-02	3.894639e-03	4.335493e-20	6.415345e-20	-5.040635e-20	3.895027e-20	-8.935662e-20
3.1563        	1.605240e+00	8.026199e-01	8.026199e-01	1.516187e-01	7.957086e-02	7.204779e-02	3.761537e-03	4.344195e-20	6.427081e-20	-5.099572e-20	3.877295e-20	-8.976867e-20
3.21664       	1.600602e+00	8.003008e-01	8.003008e-01	1.607666e-01	8.399897e-02	7.676760e-02	3.615686e-03	4.353149e-20	6.440113e-20	-5.136542e-20	3.871842e-20	-9.008384e-20
3.27703       	1.596143e+00	7.980713e-01	7.980713e-01	1.682885e-01	8.759372e-02	8.069478e-02	3.449471e-03	4.376721e-20	6.449519e-20	-5.163716e-20	3.867661e-20	-9.031378e-20
3.3375        	1.592429e+00	7.962144e-01	7.962144e-01	1.750042e-01	9.076486e-02	8.423932e-02	3.262767e-03	4.410845e-20	6.465899e-20	-5.169056e-20	3.881371e-20	-9.050427e-20
3.39804       	1.588596e+00	7.942981e-01	7.942981e-01	1.816718e-01	9.389319e-02	8.777857e-02	3.057312e-03	4.449919e-20	6.481493e-20	-5.178942e-20	3.892021e-20	-9.070964e-20
3.45866       	1.585693e+00	7.928464e-01	7.928464e-01	1.864882e-01	9.607934e-02	9.040891e-02	2.835220e-03	4.501780e-20	6.488529e-20	-5.170979e-20	3.903040e-20	-9.074019e-20
3.51938       	1.581126e+00	7.905628e-01	7.905628e-01	1.905885e-01	9.789153e-02	9.269693e-02	2.597301e-03	4.558413e-20	6.489171e-20	-5.207198e-20	3.885572e-20	-9.092770e-20
3.58021       	1.578107e+00	7.890536e-01	7.890536e-01	1.939498e-01	9.933921e-02	9.461060e-02	2.364307e-03	4.618759e-20	6.484756e-20	-5.205914e-20	3.881799e-20	-9.087713e-20
3.64114       	1.574376e+00	7.871878e-01	7.871878e-01	1.977342e-01	1.010009e-01	9.673330e-02	2.133822e-03	4.677688e-20	6.474505e-20	-5.247975e-20	3.850518e-20	-9.098493e-20
3.70218       	1.570977e+00	7.854886e-01	7.854886e-01	2.013001e-01	1.025506e-01	9.874944e-02	1.900590e-03	4.736508e-20	6.460829e-20	-5.270330e-20	3.825664e-20	-9.095994e-20
3.76333       	1.567459e+00	7.837296e-01	7.837296e-01	2.037009e-01	1.035207e-01	1.001802e-01	1.670232e-03	4.794683e-20	6.456797e-20	-5.274683e-20	3.819456e-20	-9.094138e-20
3.82458       	1.564047e+00	7.820235e-01	7.820235e-01	2.043339e-01	1.036094e-01	1.007245e-01	1.442459e-03	4.863132e-20	6.442892e-20	-5.295434e-20	3.795174e-20	-9.090609e-20
3.88591       	1.560072e+00	7.800361e-01	7.800361e-01	2.050008e-01	1.037119e-01	1.012889e-01	1.211523e-03	4.926671e-20	6.430314e-20	-5.338419e-20	3.761104e-20	-9.099524e-20
3.94735       	1.556518e+00	7.782588e-01	7.782588e-01	2.051812e-01	1.035680e-01	1.016132e-01	9.773627e-04	4.985620e-20	6.430151e-20	-5.333656e-20	3.763323e-20	-9.096979e-20
4.00887       	1.553072e+00	7.765362e-01	7.765362e-01	2.040432e-01	1.027620e-01	1.012811e-01	7.404407e-04	5.046639e-20	6.443572e-20	-5.319662e-20	3.783741e-20	-9.103403e-20
4.0705        	1.550052e+00	7.750258e-01	7.750258e-01	2.008935e-01	1.009478e-01	9.994562e-02	5.011023e-04	5.114119e-20	6.462503e-20	-5.317524e-20	3.803741e-20	-9.121265e-20
4.13222       	1.546935e+00	7.734674e-01	7.734674e-01	1.970826e-01	9.879979e-02	9.828285e-02	2.584683e-04	5.184365e-20	6.480741e-20	-5.310034e-20	3.825724e-20	-9.135758e-20
4.19403       	1.543880e+00	7.719399e-01	7.719399e-01	1.929194e-01	9.648746e-02	9.643193e-02	2.776106e-05	5.259606e-20	6.509277e-20	-5.276366e-20	3.871094e-20	-9.147460e-20
4.25595       	1.540434e+00	7.702169e-01	7.702169e-01	1.890709e-01	9.433243e-02	9.473842e-02	-2.029943e-04	5.332348e-20	6.538451e-20	-5.247111e-20	3.914896e-20	-9.162007e-20
4.31796       	1.536603e+00	7.683014e-01	7.683014e-01	1.837315e-01	9.143031e-02	9.230117e-02	-4.354276e-04	5.412565e-20	6.566268e-20	-5.198775e-20	3.966880e-20	-9.165655e-20
4.38007       	1.532454e+00	7.662270e-01	7.662270e-01	1.777224e-01	8.819147e-02	8.953097e-02	-6.697525e-04	5.492921e-20	6.596571e-20	-5.164795e-20	4.014173e-20	-9.178968e-20
4.44228       	1.528934e+00	7.644672e-01	7.644672e-01	1.708275e-01	8.451083e-02	8.631665e-02	-9.029092e-04	5.583170e-20	6.624803e-20	-5.155842e-20	4.046882e-20	-9.202724e-20
4.50458       	1.525602e+00	7.628011e-01	7.628011e-01	1.632955e-01	8.051245e-02	8.278310e-02	-1.135329e-03	5.677815e-20	6.654058e-20	-5.146850e-20	4.080633e-20	-9.227483e-20
4.56698       	1.522238e+00	7.611190e-01	7.611190e-01	1.553489e-01	7.630546e-02	7.904342e-02	-1.368976e-03	5.772264e-20	6.681328e-20	-5.130055e-20	4.116301e-20	-9.246356e-20
4.62947       	1.518204e+00	7.591019e-01	7.591019e-01	1.461021e-01	7.144285e-02	7.465923e-02	-1.608189e-03	5.874263e-20	6.698209e-20	-5.158092e-20	4.119163e-20	-9.277255e-20
4.69204       	1.515073e+00	7.575364e-01	7.575364e-01	1.382968e-01	6.730590e-02	7.099090e-02	-1.842501e-03	5.966064e-20	6.712738e-20	-5.184896e-20	4.120290e-20	-9.305186e-20
4.7547        	1.511580e+00	7.557901e-01	7.557901e-01	1.281039e-01	6.197872e-02	6.612516e-02	-2.073224e-03	6.067042e-20	6.726079e-20	-5.210822e-20	4.120668e-20	-9.331490e-20
4.81732       	1.507884e+00	7.539419e-01	7.539419e-01	1.185229e-01	5.696006e-02	6.156289e-02	-2.301411e-03	6.156040e-20	6.739159e-20	-5.235845e-20	4.121237e-20	-9.357081e-20
4.8799        	1.504512e+00	7.522561e-01	7.522561e-01	1.079677e-01	5.146253e-02	5.650517e-02	-2.521319e-03	6.248070e-20	6.744195e-20	-5.289370e-20	4.099510e-20	-9.388880e-20
4.94244       	1.501106e+00	7.505531e-01	7.505531e-01	9.734310e-02	4.594472e-02	5.139838e-02	-2.726831e-03	6.337420e-20	6.732729e-20	-5.378560e-20	4.043449e-20	-9.422009e-20
5.00495       	1.497710e+00	7.488550e-01	7.488550e-01	8.731365e-02	4.073996e-02	4.657369e-02	-2.916864e-03	6.421244e-20	6.715149e-20	-5.482189e-20	3.974055e-20	-9.456244e-20
5.06743       	1.493728e+00	7.468639e-01	7.468639e-01	7.633533e-02	3.507372e-02	4.126161e-02	-3.093946e-03	6.501162e-20	6.705070e-20	-5.562477e-20	3.923831e-20	-9.486308e-20
5.12988       	1.489789e+00	7.448943e-01	7.448943e-01	6.524243e-02	2.936384e-02	3.587858e-02	-3.257371e-03	6.576911e-20	6.688899e-20	-5.645870e-20	3.865964e-20	-9.511834e-20
5.19231       	1.486069e+00	7.430345e-01	7.430345e-01	5.503648e-02	2.411047e-02	3.092601e-02	-3.407771e-03	6.644941e-20	6.667875e-20	-5.757616e-20	3.789067e-20	-9.546683e-20
5.25473       	1.482751e+00	7.413755e-01	7.413755e-01	4.378101e-02	1.834517e-02	2.543584e-02	-3.545334e-03	6.717536e-20	6.644881e-20	-5.868041e-20	3.710861e-20	-9.578902e-20
5.31712       	1.479657e+00	7.398284e-01	7.398284e-01	3.230251e-02	1.247326e-02	1.982926e-02	-3.677999e-03	6.787509e-20	6.615176e-20	-5.989435e-20	3.620458e-20	-9.609894e-20
5.3795        	1.476723e+00	7.383615e-01	7.383615e-01	2.094535e-02	6.669695e-03	1.427565e-02	-3.802980e-03	6.857386e-20	6.590965e-20	-6.104477e-20	3.538726e-20	-9.643203e-20
5.44187       	1.473840e+00	7.369198e-01	7.369198e-01	9.317272e-03	7.472880e-04	8.569984e-03	-3.911348e-03	6.928576e-20	6.591021e-20	-6.185320e-20	3.498361e-20	-9.683681e-20
5.50423       	1.470928e+00	7.354639e-01	7.354639e-01	-2.105170e-03	-5.054364e-03	2.949194e-03	-4.001779e-03	6.996600e-20	6.597300e-20	-6.248056e-20	3.473272e-20	-9.721328e-20
5.5666        	1.468172e+00	7.340858e-01	7.340858e-01	-1.515849e-02	-1.165515e-02	-3.503331e-03	-4.075912e-03	7.068284e-20	6.605555e-20	-6.310953e-20	3.450079e-20	-9.761032e-20
5.62897       	1.465538e+00	7.327692e-01	7.327692e-01	-2.766474e-02	-1.796489e-02	-9.699846e-03	-4.132524e-03	7.132044e-20	6.614454e-20	-6.379832e-20	3.424538e-20	-9.804369e-20
5.69135       	1.463073e+00	7.315367e-01	7.315367e-01	-3.969023e-02	-2.401583e-02	-1.567440e-02	-4.170712e-03	7.188160e-20	6.625977e-20	-6.441904e-20	3.405025e-20	-9.846929e-20
5.75374       	1.460349e+00	7.301743e-01	7.301743e-01	-5.181559e-02	-3.010987e-02	-2.170572e-02	-4.202073e-03	7.241319e-20	6.633428e-20	-6.512162e-20	3.377347e-20	-9.889509e-20
5.81616       	1.457645e+00	7.288224e-01	7.288224e-01	-6.333693e-02	-3.589835e-02	-2.743858e-02	-4.229885e-03	7.287203e-20	6.640847e-20	-6.579662e-20	3.351016e-20	-9.930678e-20
5.8786        	1.455167e+00	7.275837e-01	7.275837e-01	-7.475236e-02	-4.162893e-02	-3.312343e-02	-4.252747e-03	7.329128e-20	6.651635e-20	-6.626346e-20	3.338462e-20	-9.964808e-20
5.94108       	1.452101e+00	7.260504e-01	7.260504e-01	-8.605733e-02	-4.728399e-02	-3.877334e-02	-4.255327e-03	7.367869e-20	6.682832e-20	-6.659422e-20	3.353121e-20	-1.001254e-19
6.00359       	1.449811e+00	7.249055e-01	7.249055e-01	-9.768958e-02	-5.308502e-02	-4.460457e-02	-4.240224e-03	7.404559e-20	6.722919e-20	-6.665057e-20	3.390390e-20	-1.005545e-19
6.06614       	1.447938e+00	7.239688e-01	7.239688e-01	-1.091800e-01	-5.880338e-02	-5.037661e-02	-4.213387e-03	7.437175e-20	6.760580e-20	-6.680194e-20	3.420483e-20	-1.010068e-19
6.12873       	1.446080e+00	7.230398e-01	7.230398e-01	-1.199152e-01	-6.411647e-02	-5.579870e-02	-4.158886e-03	7.458819e-20	6.791890e-20	-6.704522e-20	3.439630e-20	-1.014415e-19
6.19137       	1.443949e+00	7.219745e-01	7.219745e-01	-1.302649e-01	-6.921185e-02	-6.105309e-02	-4.079382e-03	7.471492e-20	6.834806e-20	-6.704707e-20	3.482452e-20	-1.018716e-19
6.25406       	1.442365e+00	7.211825e-01	7.211825e-01	-1.401804e-01	-7.407457e-02	-6.610586e-02	-3.984353e-03	7.486743e-20	6.880217e-20	-6.707660e-20	3.526387e-20	-1.023405e-19
6.31683       	1.440707e+00	7.203534e-01	7.203534e-01	-1.498727e-01	-7.881264e-02	-7.106003e-02	-3.876305e-03	7.509847e-20	6.928035e-20	-6.728831e-20	3.563619e-20	-1.029245e-19
6.37966       	1.439090e+00	7.195450e-01	7.195450e-01	-1.598714e-01	-8.369786e-02	-7.617357e-02	-3.762147e-03	7.534801e-20	6.983699e-20	-6.721745e-20	3.622826e-20	-1.034457e-19
6.44258       	1.438024e+00	7.190121e-01	7.190121e-01	-1.684689e-01	-8.787789e-02	-8.059104e-02	-3.643426e-03	7.552514e-20	7.026010e-20	-6.730683e-20	3.660668e-20	-1.039135e-19
6.50557       	1.436571e+00	7.182857e-01	7.182857e-01	-1.765931e-01	-9.181930e-02	-8.477381e-02	-3.522749e-03	7.562410e-20	7.056015e-20	-6.762584e-20	3.674723e-20	-1.043731e-19
6.56866       	1.434371e+00	7.171855e-01	7.171855e-01	-1.846374e-01	-9.570544e-02	-8.893195e-02	-3.386747e-03	7.570049e-20	7.090044e-20	-6.794517e-20	3.692786e-20	-1.048730e-19
6.63184       	1.432825e+00	7.164125e-01	7.164125e-01	-1.920371e-01	-9.925515e-02	-9.278193e-02	-3.236614e-03	7.574282e-20	7.127165e-20	-6.826588e-20	3.713871e-20	-1.054046e-19
6.69501       	1.431373e+00	7.156864e-01	7.156864e-01	-1.985292e-01	-1.023392e-01	-9.619002e-02	-3.074589e-03	7.570893e-20	7.163406e-20	-6.854485e-20	3.736164e-20	-1.059065e-19
6.75812       	1.430223e+00	7.151116e-01	7.151116e-01	-2.054739e-01	-1.056452e-01	-9.982868e-02	-2.908246e-03	7.567313e-20	7.184661e-20	-6.906267e-20	3.731527e-20	-1.063779e-19
6.82117       	1.429881e+00	7.149407e-01	7.149407e-01	-2.117947e-01	-1.086287e-01	-1.031660e-01	-2.731382e-03	7.561068e-20	7.197027e-20	-6.951509e-20	3.721273e-20	-1.067278e-19
6.88417       	1.428991e+00	7.144956e-01	7.144956e-01	-2.168236e-01	-1.109529e-01	-1.058706e-01	-2.541155e-03	7.554288e-20	7.187578e-20	-7.050025e-20	3.662566e-20	-1.071259e-19
6.94711       	1.428112e+00	7.140558e-01	7.140558e-01	-2.219096e-01	-1.132961e-01	-1.086135e-01	-2.341329e-03	7.544773e-20	7.187632e-20	-7.124022e-20	3.625622e-20	-1.074964e-19
7.00999       	1.426263e+00	7.131317e-01	7.131317e-01	-2.257915e-01	-1.150306e-01	-1.107610e-01	-2.134788e-03	7.527581e-20	7.192308e-20	-7.208594e-20	3.588011e-20	-1.079660e-19
7.07281       	1.425461e+00	7.127305e-01	7.127305e-01	-2.298066e-01	-1.168252e-01	-1.129814e-01	-1.921879e-03	7.510960e-20	7.194075e-20	-7.264205e-20	3.561973e-20	-1.082618e-19
7.13558       	1.424837e+00	7.124187e-01	7.124187e-01	-2.332350e-01	-1.183158e-01	-1.149192e-01	-1.698269e-03	7.483775e-20	7.220592e-20	-7.270165e-20	3.585510e-20	-1.085567e-19
7.19829       	1.424160e+00	7.120798e-01	7.120798e-01	-2.342209e-01	-1.185777e-01	-1.156432e-01	-1.467237e-03	7.448761e-20	7.262819e-20	-7.255406e-20	3.635116e-20	-1.089052e-19
7.26093       	1.424376e+00	7.121880e-01	7.121880e-01	-2.352638e-01	-1.188668e-01	-1.163970e-01	-1.234926e-03	7.418435e-20	7.305381e-20	-7.221633e-20	3.694564e-20	-1.091620e-19
7.32352       	1.424170e+00	7.120849e-01	7.120849e-01	-2.367232e-01	-1.193639e-01	-1.173593e-01	-1.002306e-03	7.394063e-20	7.353280e-20	-7.170443e-20	3.768058e-20	-1.093850e-19
7.38605       	1.424082e+00	7.120411e-01	7.120411e-01	-2.374767e-01	-1.195072e-01	-1.179695e-01	-7.688603e-04	7.364878e-20	7.400509e-20	-7.109469e-20	3.845775e-20	-1.095524e-19
7.44853       	1.424056e+00	7.120280e-01	7.120280e-01	-2.381110e-01	-1.195917e-01	-1.185194e-01	-5.361584e-04	7.334465e-20	7.447696e-20	-7.044913e-20	3.925240e-20	-1.097015e-19
7.51096       	1.423793e+00	7.118964e-01	7.118964e-01	-2.384394e-01	-1.195249e-01	-1.189144e-01	-3.052512e-04	7.303220e-20	7.491711e-20	-6.988730e-20	3.997346e-20	-1.098608e-19
7.57334       	1.423335e+00	7.116677e-01	7.116677e-01	-2.379906e-01	-1.190699e-01	-1.189206e-01	-7.463375e-05	7.262765e-20	7.544935e-20	-6.915381e-20	4.087244e-20	-1.100263e-19
7.63568       	1.422304e+00	7.111520e-01	7.111520e-01	-2.358237e-01	-1.177589e-01	-1.180648e-01	1.529768e-04	7.210850e-20	7.591983e-20	-6.851597e-20	4.166185e-20	-1.101778e-19
7.69797       	1.422298e+00	7.111489e-01	7.111489e-01	-2.337135e-01	-1.164790e-01	-1.172344e-01	3.776839e-04	7.158710e-20	7.644176e-20	-6.761745e-20	4.263304e-20	-1.102505e-19
7.76022       	1.421147e+00	7.105735e-01	7.105735e-01	-2.303602e-01	-1.145813e-01	-1.157789e-01	5.988251e-04	7.101860e-20	7.699875e-20	-6.686661e-20	4.356545e-20	-1.104321e-19
7.82243       	1.420884e+00	7.104421e-01	7.104421e-01	-2.269267e-01	-1.126479e-01	-1.142788e-01	8.154586e-04	7.048587e-20	7.753981e-20	-6.589339e-20	4.459312e-20	-1.104865e-19
7.8846        	1.420464e+00	7.102318e-01	7.102318e-01	-2.230795e-01	-1.105096e-01	-1.125699e-01	1.030150e-03	6.995288e-20	7.810049e-20	-6.481553e-20	4.569272e-20	-1.105082e-19
7.94673       	1.419279e+00	7.096395e-01	7.096395e-01	-2.183116e-01	-1.079112e-01	-1.104003e-01	1.244554e-03	6.939953e-20	7.866636e-20	-6.396492e-20	4.668391e-20	-1.106488e-19
8.00883       	1.419581e+00	7.097907e-01	7.097907e-01	-2.116288e-01	-1.043605e-01	-1.072683e-01	1.453903e-03	6.888228e-20	7.918020e-20	-6.276619e-20	4.779710e-20	-1.105633e-19
8.0709        	1.417793e+00	7.088966e-01	7.088966e-01	-2.067167e-01	-1.017030e-01	-1.050137e-01	1.655314e-03	6.855845e-20	7.950729e-20	-6.244422e-20	4.828518e-20	-1.107294e-19
8.13293       	1.417522e+00	7.087609e-01	7.087609e-01	-1.992034e-01	-9.775160e-02	-1.014518e-01	1.850113e-03	6.809286e-20	7.989251e-20	-6.161477e-20	4.908512e-20	-1.106999e-19
8.19494       	1.417016e+00	7.085080e-01	7.085080e-01	-1.920469e-01	-9.398695e-02	-9.805995e-02	2.036500e-03	6.770007e-20	8.028657e-20	-6.079848e-20	4.988733e-20	-1.106858e-19
8.25691       	1.416171e+00	7.080857e-01	7.080857e-01	-1.840746e-01	-8.982127e-02	-9.425330e-02	2.216014e-03	6.727402e-20	8.064360e-20	-5.998216e-20	5.065252e-20	-1.106347e-19
8.31886       	1.415828e+00	7.079140e-01	7.079140e-01	-1.759206e-01	-8.557154e-02	-9.034903e-02	2.388744e-03	6.688560e-20	8.087415e-20	-5.949164e-20	5.112833e-20	-1.106200e-19
8.38079       	1.415133e+00	7.075667e-01	7.075667e-01	-1.668578e-01	-8.087308e-02	-8.598476e-02	2.555845e-03	6.644454e-20	8.107136e-20	-5.901314e-20	5.156479e-20	-1.105779e-19
8.44269       	1.415327e+00	7.076636e-01	7.076636e-01	-1.573897e-01	-7.597991e-02	-8.140976e-02	2.714922e-03	6.599119e-20	8.125104e-20	-5.838698e-20	5.205755e-20	-1.104445e-19
8.50458       	1.414242e+00	7.071208e-01	7.071208e-01	-1.480689e-01	-7.116886e-02	-7.690003e-02	2.865588e-03	6.556722e-20	8.139318e-20	-5.786789e-20	5.245924e-20	-1.103271e-19
8.56646       	1.413761e+00	7.068803e-01	7.068803e-01	-1.377148e-01	-6.584488e-02	-7.186992e-02	3.012522e-03	6.508707e-20	8.151264e-20	-5.737649e-20	5.282439e-20	-1.102009e-19
8.62832       	1.413827e+00	7.069136e-01	7.069136e-01	-1.272827e-01	-6.048687e-02	-6.679587e-02	3.154496e-03	6.462751e-20	8.163807e-20	-5.687579e-20	5.320017e-20	-1.100760e-19
8.69017       	1.413457e+00	7.067287e-01	7.067287e-01	-1.158060e-01	-5.461543e-02	-6.119061e-02	3.287591e-03	6.412828e-20	8.171793e-20	-5.630221e-20	5.356683e-20	-1.098690e-19
8.75201       	1.412913e+00	7.064565e-01	7.064565e-01	-1.045363e-01	-4.885403e-02	-5.568226e-02	3.414115e-03	6.361262e-20	8.172410e-20	-5.595030e-20	5.374895e-20	-1.096993e-19
8.81385       	1.412533e+00	7.062664e-01	7.062664e-01	-9.314360e-02	-4.303880e-02	-5.010480e-02	3.533001e-03	6.308844e-20	8.169140e-20	-5.565325e-20	5.386478e-20	-1.095180e-19
8.87569       	1.411454e+00	7.057269e-01	7.057269e-01	-8.100160e-02	-3.685833e-02	-4.414327e-02	3.642467e-03	6.251577e-20	8.161195e-20	-5.531231e-20	5.395579e-20	-1.092681e-19
8.93754       	1.410782e+00	7.053909e-01	7.053909e-01	-6.857230e-02	-3.054555e-02	-3.802675e-02	3.740596e-03	6.190690e-20	8.171297e-20	-5.457343e-20	5.442626e-20	-1.089997e-19
8.9994        	1.410381e+00	7.051907e-01	7.051907e-01	-5.628960e-02	-2.431680e-02	-3.197280e-02	3.828001e-03	6.125411e-20	8.183546e-20	-5.415458e-20	5.475817e-20	-1.089127e-19
9.06128       	1.410148e+00	7.050739e-01	7.050739e-01	-4.394772e-02	-1.807164e-02	-2.587608e-02	3.902222e-03	6.063921e-20	8.194767e-20	-5.344200e-20	5.522667e-20	-1.086687e-19
9.12317       	1.410169e+00	7.050844e-01	7.050844e-01	-2.967244e-02	-1.087087e-02	-1.880158e-02	3.965355e-03	5.993077e-20	8.201722e-20	-5.260972e-20	5.571236e-20	-1.083221e-19
9.1851        	1.409488e+00	7.047440e-01	7.047440e-01	-1.647300e-02	-4.208071e-03	-1.226493e-02	4.028430e-03	5.930855e-20	8.206480e-20	-5.206371e-20	5.603295e-20	-1.080967e-19