/*--------------------------------*- C++ -*----------------------------------*\
| =========                 |                                                 |
| \\      /  F ield         | OpenFOAM: The Open Source CFD Toolbox           |
|  \\    /   O peration     | Version:  2506                                  |
|   \\  /    A nd           | Website:  www.openfoam.com                      |
|    \\/     M anipulation  |                                                 |
\*---------------------------------------------------------------------------*/
FoamFile
{
    version     2.0;
    format      ascii;
    arch        "LSB;label=32;scalar=64";
    class       volScalarField;
    location    "129.99968020949075";
    object      mag(vorticity);
}
// * * * * * * * * * * * * * * * * * * * * * * * * * * * * * * * * * * * * * //

dimensions      [0 0 -1 0 0 0 0];

internalField   nonuniform List<scalar> 
9700
(
1.90446e-05
4.61343e-05
2.21254e-05
5.66887e-05
7.22139e-05
8.27879e-06
4.46226e-05
0.000154562
2.35889e-05
1.37976e-05
1.96109e-05
0.000221832
1.08162e-05
3.13544e-05
4.172e-06
0.000143301
0.000244713
1.61336e-05
4.67938e-05
3.08064e-06
9.24208e-06
0.000289787
0.000283114
7.07334e-07
6.87302e-05
4.18841e-05
2.45487e-06
1.7703e-05
0.000211802
0.000274371
8.86627e-06
8.27926e-05
4.81992e-05
6.73326e-05
1.73137e-05
3.40439e-05
0.000196845
0.000215103
3.10682e-05
5.98116e-05
5.4902e-05
8.94843e-05
7.21561e-05
2.31333e-05
3.80547e-05
0.000200867
0.000130442
7.68392e-05
6.79607e-05
5.6573e-05
8.55981e-05
8.20174e-05
8.65927e-05
4.67038e-05
5.65798e-05
0.000164304
1.38544e-05
0.000134807
5.85146e-05
3.25555e-05
8.50906e-05
0.000121565
0.000116848
0.000130446
7.11149e-05
5.34796e-05
2.2032e-05
0.000306907
0.000203198
2.13182e-05
1.73253e-05
7.96062e-05
0.000123284
0.000169596
0.000175195
0.000150581
0.000102503
7.18244e-05
0.000866554
0.00154341
0.000543191
1.52463e-05
2.58767e-05
4.01858e-05
0.000121769
0.000181978
0.000215379
0.00021101
0.000211241
0.000124652
6.10626e-05
0.00115493
0.00345934
0.00207652
0.000378843
5.01881e-05
1.27228e-05
9.7044e-05
0.00016585
0.000221183
0.000262342
0.000248105
0.000237445
0.00014767
6.61695e-05
0.00317415
0.00403951
0.00377742
0.00233597
0.000565169
2.24324e-06
6.94909e-05
0.000166784
0.000253544
0.000310223
0.000313621
0.000314346
0.000277023
0.000161704
7.03894e-05
0.00926277
0.00438918
0.00198406
0.00386574
0.00290797
0.00054174
7.87679e-05
0.00016795
0.00026412
0.000367817
0.000400681
0.000378355
0.000350577
0.000289935
0.000185048
7.39893e-05
0.00566187
0.0182242
0.0184301
0.00495531
0.00429305
0.00305478
0.000429537
0.000146905
0.000248453
0.000363223
0.000444891
0.00047666
0.000453429
0.000402229
0.000315002
0.000193766
6.27062e-05
0.0587351
0.00686483
0.0258237
0.0280191
0.00768545
0.00447859
0.00298275
0.00026918
0.000247376
0.000348483
0.000466979
0.000530636
0.000538866
0.000503267
0.00043249
0.000304895
0.000216138
5.49101e-05
0.124571
0.0946259
0.0158901
0.0371465
0.0367183
0.00918821
0.00475089
0.0025427
3.95913e-05
0.000350369
0.000490643
0.000554275
0.000601936
0.000585827
0.000533409
0.000441077
0.000315293
0.000214477
3.84986e-05
0.208464
0.199563
0.122305
0.0130479
0.0501262
0.0433497
0.00855949
0.00484672
0.00188658
0.000197878
0.000448928
0.00059533
0.000663509
0.000664281
0.000616371
0.000544186
0.000417205
0.000315677
0.000178748
3.381e-05
0.281665
0.29325
0.249312
0.132124
0.00376941
0.0655236
0.0459831
0.00600956
0.00459856
0.00108768
0.00040444
0.000598462
0.000707412
0.0007338
0.000709906
0.000654487
0.000553895
0.000409696
0.000282134
0.000172885
1.47292e-05
0.311274
0.376037
0.373539
0.271359
0.148854
0.0268405
0.0800607
0.043757
0.00236848
0.00383075
0.000378197
0.00057755
0.000701473
0.000814833
0.000820063
0.000741294
0.000654457
0.000527302
0.000383368
0.000243518
0.000144781
1.83715e-05
0.317131
0.431482
0.490178
0.414821
0.266062
0.1013
0.0638422
0.0901116
0.0363621
0.00102932
0.00262423
0.000168472
0.000705664
0.000817643
0.000872271
0.000831859
0.000745753
0.000617486
0.000490967
0.000335111
0.000232201
0.000137139
2.59214e-06
0.289455
0.446418
0.580417
0.555716
0.430947
0.245705
0.0246294
0.0980287
0.0912602
0.0251253
0.00299117
0.00128155
0.000509147
0.000832502
0.000898095
0.000914397
0.00083802
0.000717451
0.000588582
0.000459765
0.000314544
0.000186671
9.71582e-05
1.30488e-05
0.233465
0.410036
0.635796
0.67099
0.594732
0.401363
0.201358
0.0327098
0.125007
0.0809812
0.0131998
0.00320904
0.000186448
0.000722268
0.00094332
0.000938675
0.000910082
0.000828805
0.000676961
0.000535407
0.000385845
0.000254533
0.00016142
6.38196e-05
5.0917e-06
0.170755
0.334876
0.642088
0.749661
0.733489
0.589164
0.370348
0.107132
0.0942679
0.138337
0.0607802
0.00394867
0.00214801
0.000478112
0.000833179
0.000989942
0.000972244
0.000875181
0.000758445
0.000596943
0.000461061
0.000318185
0.000203357
0.000111828
4.82468e-05
5.34645e-06
0.161857
0.243007
0.614172
0.781694
0.836124
0.742597
0.542038
0.279974
0.00651418
0.150624
0.130518
0.0365055
0.00084536
0.000845643
0.000793924
0.000923027
0.000991289
0.000923421
0.000821671
0.000684046
0.000514342
0.000373006
0.00023161
0.000154999
5.65609e-05
3.23184e-05
1.35474e-05
0.122634
0.152186
0.551387
0.789961
0.903368
0.864526
0.700005
0.449285
0.155353
0.094758
0.181675
0.10222
0.0156777
0.00182817
0.00012734
0.000882109
0.000936587
0.000954378
0.000866012
0.000731989
0.000569818
0.000426641
0.000298735
0.000185943
0.000115575
5.19859e-05
1.52333e-05
5.76357e-06
0.0635687
0.0760489
0.477858
0.74608
0.944766
0.961384
0.834986
0.606428
0.318499
0.0204523
0.177811
0.176927
0.0637751
0.0031854
0.00101172
0.000608583
0.000872768
0.000899472
0.000851496
0.000742166
0.000624965
0.000464323
0.000328462
0.000206177
0.000130322
7.62288e-05
2.56624e-05
1.01133e-05
1.08069e-06
0.0689102
0.00709528
0.395811
0.685034
0.908841
1.01711
0.947932
0.74131
0.468637
0.162401
0.111028
0.222969
0.139968
0.0290689
0.0012165
6.18368e-05
0.00071458
0.00078676
0.000818538
0.000725424
0.000619688
0.000472515
0.000345287
0.000246846
0.000135178
8.68166e-05
3.46563e-05
1.22704e-05
9.2928e-06
4.04181e-06
0.145648
0.0598075
0.283101
0.614219
0.856257
0.996391
0.991166
0.844727
0.592392
0.298792
0.003979
0.215184
0.218019
0.0875577
0.0071678
0.0011145
0.000389434
0.000670487
0.000674727
0.000660217
0.000579756
0.000464605
0.000371326
0.000244184
0.000155585
7.12422e-05
5.26329e-05
4.20066e-05
1.31695e-05
5.15675e-07
4.22229e-06
0.2184
0.124464
0.178129
0.539475
0.795719
0.961472
0.999124
0.894571
0.682076
0.41034
0.111548
0.158115
0.266054
0.169128
0.0406855
0.00162132
4.19069e-05
0.000451532
0.000517533
0.000529778
0.000484476
0.000420262
0.000309809
0.000212572
0.00012968
5.65174e-05
3.47525e-05
2.28437e-05
1.5838e-05
4.55792e-05
6.4925e-07
8.64843e-06
0.274071
0.18913
0.0838559
0.465276
0.728839
0.914994
0.992841
0.929634
0.738297
0.488551
0.209429
0.0760176
0.269897
0.2508
0.101622
0.0117377
0.00277345
0.000277105
0.000276353
0.000346712
0.000343728
0.000298671
0.000230951
0.000178789
9.88405e-05
5.23523e-05
1.82332e-05
8.51234e-06
1.69257e-05
5.07524e-05
5.11616e-05
3.73381e-05
2.95636e-05
0.331031
0.245672
0.00602989
0.396045
0.661269
0.854234
0.961102
0.933182
0.768035
0.51659
0.275993
0.00202953
0.238143
0.310562
0.183347
0.0445365
0.00023022
0.00208608
0.000423058
0.000222448
3.68325e-05
0.000155451
0.000128651
9.47863e-05
6.14199e-05
2.76405e-05
1.1527e-05
7.70763e-06
1.27636e-05
3.65701e-05
6.85941e-05
8.82578e-05
4.76643e-05
2.287e-05
0.375625
0.293385
0.051504
0.335051
0.598757
0.789485
0.90782
0.913184
0.768007
0.519345
0.307873
0.0573879
0.192511
0.340772
0.272983
0.102357
0.0115999
0.00342519
0.00267183
0.0019379
0.00114413
0.000415518
0.000110182
5.02552e-05
1.24416e-05
4.93875e-05
4.01176e-05
4.66389e-05
9.7469e-06
1.85862e-05
7.29229e-05
8.3878e-05
9.95862e-05
6.07475e-05
4.84418e-05
0.407315
0.332007
0.0832165
0.286823
0.545182
0.728145
0.846126
0.869338
0.75273
0.50822
0.307116
0.0843549
0.155133
0.344786
0.356043
0.186594
0.0396273
0.00210098
0.00519136
0.00492424
0.00385655
0.00246976
0.0011878
0.000511039
0.000186785
0.000104157
0.000107706
9.53089e-05
1.46206e-05
1.21767e-05
5.30632e-05
0.000114962
0.000138754
0.000150957
0.000111254
5.70828e-05
0.416541
0.339472
0.0824411
0.253993
0.502216
0.678704
0.784267
0.812005
0.718242
0.477276
0.289177
0.124691
0.147373
0.337706
0.416341
0.282846
0.0947071
0.00527012
0.00847507
0.00892641
0.00786068
0.00544922
0.00373548
0.00237619
0.00107982
0.000306818
0.00016944
0.00014787
6.85167e-05
1.51939e-06
7.54696e-05
0.000140952
0.0001818
0.000212636
0.000173708
0.000144445
6.37697e-05
0.391437
0.331803
0.032989
0.237252
0.470483
0.636106
0.735974
0.747194
0.667637
0.438262
0.237327
0.1339
0.157968
0.363906
0.45104
0.381639
0.167738
0.0275205
0.0122298
0.0184413
0.0156354
0.0103887
0.00550087
0.00422686
0.00365837
0.00182556
0.000422512
0.000178158
0.000171717
4.1249e-05
6.67662e-05
0.000133082
0.000223068
0.000257889
0.000249487
0.000226257
0.000158245
5.32739e-05
0.287255
0.161682
0.0364295
0.24211
0.450657
0.600894
0.690996
0.676797
0.6028
0.396542
0.160183
0.132252
0.182752
0.391857
0.518149
0.463451
0.264943
0.0660185
0.0152456
0.0356992
0.0394995
0.0266496
0.0119657
0.00288634
0.00320004
0.00471611
0.00254047
0.000492103
0.000175459
0.000133
6.37205e-06
0.000122847
0.000225912
0.000283097
0.000321615
0.000301658
0.000258227
0.000179531
5.89878e-05
0.135045
0.0462069
0.132674
0.2726
0.432716
0.569919
0.632636
0.647945
0.526329
0.343669
0.092246
0.0997072
0.22235
0.426943
0.572241
0.560169
0.374513
0.128
0.0077979
0.0586659
0.0804362
0.075912
0.0440658
0.0125709
0.00275608
0.000433386
0.0054773
0.00308251
0.000504723
0.000149416
6.67379e-05
0.000121594
0.000221684
0.000306224
0.00037779
0.000395448
0.000365153
0.000299233
0.000192965
5.25564e-05
0.113255
0.204754
0.232911
0.307261
0.417477
0.515434
0.56888
0.53529
0.465201
0.264873
0.0419489
0.0229374
0.279862
0.477161
0.609041
0.65971
0.477487
0.224209
0.0148785
0.0760925
0.128625
0.150746
0.127587
0.0681511
0.0118663
0.0109285
0.00301612
0.0060373
0.00326247
0.000419666
0.000101867
5.38818e-05
0.000209021
0.000344881
0.000435236
0.000474984
0.000451746
0.000402841
0.000316554
0.000210992
5.38169e-05
0.124716
0.304078
0.291103
0.344386
0.402318
0.44398
0.468946
0.435314
0.318243
0.168279
0.000159274
0.055804
0.348206
0.539958
0.658692
0.714238
0.61105
0.315643
0.0699571
0.0832287
0.170705
0.231272
0.239339
0.186566
0.0953265
0.00792033
0.0203839
0.0055633
0.00652619
0.00298695
0.000302281
2.87381e-06
0.000166523
0.000362665
0.000482993
0.000526712
0.000548137
0.00050624
0.000437765
0.00033176
0.000225708
5.19397e-05
0.167857
0.317942
0.291314
0.32188
0.35417
0.380948
0.361219
0.313642
0.221309
0.0765235
0.0799655
0.187038
0.420519
0.588196
0.718809
0.759069
0.705408
0.440715
0.135597
0.0673003
0.202648
0.302488
0.352064
0.326997
0.244134
0.107387
0.00265109
0.0297169
0.00587818
0.00686778
0.00230181
0.000151985
0.000118279
0.000320842
0.000499301
0.000590299
0.000652434
0.000621408
0.000569039
0.000456373
0.000348546
0.000231218
3.72858e-05
0.122554
0.250242
0.233471
0.258003
0.267188
0.26707
0.255328
0.199608
0.112571
0.00475944
0.154672
0.289745
0.488075
0.649958
0.761883
0.804318
0.764445
0.555701
0.226023
0.0327473
0.212935
0.362162
0.455412
0.464894
0.384541
0.295947
0.0820479
0.0211093
0.0370206
0.00360102
0.00661652
0.00146353
3.65739e-06
0.000269571
0.000478109
0.000642964
0.000722358
0.000731278
0.000672513
0.000594119
0.000453511
0.000327065
0.000198454
1.68511e-05
0.0614595
0.153689
0.146949
0.169834
0.172165
0.167444
0.139005
0.0946013
0.02261
0.0854177
0.220633
0.383595
0.55422
0.711706
0.826809
0.862776
0.820311
0.656139
0.327105
0.0252265
0.203372
0.392561
0.545598
0.599507
0.543476
0.385461
0.245985
0.0509985
0.0463475
0.0393354
0.000386615
0.00554474
0.000650536
0.000154635
0.000462262
0.000666735
0.000772451
0.000792814
0.000760816
0.00069865
0.000570668
0.00042922
0.000299487
0.000168456
2.72739e-05
0.0164818
0.0734618
0.0687972
0.0868141
0.0893054
0.0833543
0.0655705
0.0279757
0.0426535
0.142171
0.278232
0.441484
0.616911
0.775306
0.889962
0.938299
0.888798
0.730886
0.429866
0.0970416
0.165708
0.405894
0.598179
0.715611
0.704507
0.576334
0.380725
0.174906
0.00273024
0.0712585
0.0344534
0.00415815
0.00384661
8.84227e-05
0.000343419
0.000662175
0.000798239
0.000878395
0.000873532
0.00081066
0.000712406
0.000566174
0.00043241
0.000272974
0.000156918
2.25566e-05
0.00784702
0.0223021
0.0193839
0.0309318
0.0334895
0.0316574
0.0223438
0.00752512
0.0670602
0.17103
0.312018
0.484956
0.6739
0.832515
0.952104
0.998695
0.95454
0.80161
0.527505
0.178982
0.11444
0.38228
0.647642
0.797818
0.835847
0.748074
0.574751
0.337297
0.102532
0.0579887
0.0858634
0.0230896
0.00590246
0.00206142
0.000262288
0.000526816
0.00081897
0.000927247
0.000975631
0.000902313
0.00080503
0.000689365
0.000532411
0.000368482
0.000227108
0.000129258
1.74868e-05
0.0132936
0.00417814
1.08538e-05
0.00554461
0.00617252
0.0060567
0.00263067
0.0142162
0.0668112
0.16759
0.31898
0.500456
0.70831
0.88604
0.999128
1.05459
1.01448
0.867714
0.61132
0.262928
0.0555575
0.337973
0.6367
0.898397
0.9563
0.885673
0.721044
0.493085
0.227923
0.00490105
0.112293
0.0831761
0.00945099
0.00511523
0.000737336
0.000489043
0.000757956
0.000967102
0.00102299
0.000996769
0.000913102
0.000776168
0.000632027
0.000465758
0.000326382
0.000182238
0.00011719
4.44725e-06
0.00799016
0.00375101
0.00232673
0.000747495
0.000953009
0.00257558
0.00356195
0.0111426
0.0488106
0.142464
0.294093
0.490182
0.693254
0.924974
1.02737
1.09333
1.05925
0.925623
0.677047
0.337084
0.00799178
0.286915
0.589892
0.886992
1.08689
1.03667
0.860178
0.628817
0.361058
0.0985102
0.0944247
0.142436
0.0640525
0.00111379
0.00291332
4.13066e-05
0.000692152
0.00096224
0.00107496
0.00109675
0.00102246
0.00088645
0.000737788
0.000586875
0.000402017
0.000267625
0.000150629
5.2324e-05
3.48283e-06
0.00374697
0.00392713
0.000865506
0.000419355
0.000785321
0.00172096
0.00440378
0.0065884
0.027282
0.101988
0.246093
0.441284
0.661238
0.863745
1.0816
1.09275
1.07791
0.959809
0.724868
0.390743
0.0449956
0.222634
0.537586
0.836022
1.05869
1.12626
1.00526
0.756488
0.484567
0.205387
0.0386829
0.173336
0.138904
0.037266
0.00547742
0.000892017
0.000460535
0.000865263
0.00109935
0.00111884
0.00107719
0.000967823
0.000810431
0.000653094
0.000472373
0.000340114
0.000188425
0.000112077
4.91991e-05
7.30012e-06
0.00142295
0.00325999
0.000201109
0.000729619
0.00030717
0.00017904
0.00184236
0.00476941
0.0114607
0.0583443
0.179692
0.367031
0.585587
0.801008
0.987266
1.10191
1.07237
0.972437
0.748252
0.407276
0.0700502
0.118974
0.484268
0.790714
1.02618
1.11947
1.04102
0.864696
0.589226
0.305194
0.0352627
0.165163
0.21277
0.105824
0.0132717
0.00435232
0.000165458
0.000728975
0.00102188
0.00113914
0.00113492
0.00104057
0.000879131
0.000718184
0.000566837
0.000377916
0.000261057
0.000141306
6.05e-05
4.39525e-06
8.03407e-06
0.000446867
0.00244975
0.000659276
0.00103214
0.000820972
0.000588564
0.000253922
0.00264155
0.00555402
0.0233945
0.10832
0.272558
0.483288
0.701425
0.886895
1.03513
1.01482
0.965468
0.752622
0.421761
0.114624
0.0109363
0.433737
0.740443
1.00944
1.14824
1.10854
0.911488
0.670263
0.386554
0.107563
0.13262
0.255624
0.20266
0.0619713
0.00270616
0.00134831
0.000535717
0.000918352
0.0011286
0.00115044
0.0010844
0.000965164
0.000803626
0.000628189
0.000452085
0.000296743
0.00017215
6.89174e-05
2.79968e-05
2.25814e-05
1.83179e-05
0.00119143
0.00191702
0.000798341
0.00105808
0.000959856
0.000806542
0.000521692
0.00106879
0.00356174
0.00683583
0.045272
0.172456
0.362101
0.573445
0.769541
0.909676
0.989685
0.889042
0.740518
0.435627
0.183163
0.0584516
0.387091
0.689271
0.963773
1.15488
1.17324
1.01038
0.726589
0.444853
0.165488
0.0924532
0.273527
0.286541
0.151171
0.0288982
0.00778645
0.000142882
0.000649545
0.00102701
0.00110102
0.00108312
0.000989447
0.000837576
0.000654717
0.00050406
0.000318398
0.000215413
0.000105604
4.11338e-05
1.54118e-05
7.25283e-06
1.11201e-05
0.0012966
0.0015426
0.000840527
0.00102871
0.00100919
0.000855746
0.000661602
0.000134049
0.0021908
0.00340153
0.00905752
0.0771544
0.237725
0.429125
0.622152
0.778991
0.864734
0.845338
0.707131
0.432803
0.224147
0.0794689
0.34869
0.646495
0.909545
1.11202
1.17192
1.06428
0.785772
0.456744
0.201006
0.0598592
0.273507
0.357259
0.251243
0.084153
0.0103545
0.0048465
0.000526944
0.000702923
0.00103906
0.00103587
0.000974371
0.000850382
0.000704036
0.000518494
0.000357025
0.000227999
0.000135392
4.90327e-05
2.28239e-06
5.66591e-06
8.67549e-06
6.81274e-06
0.00117111
0.00125335
0.000813563
0.000987753
0.00097977
0.000915294
0.000742196
0.000478416
0.000452701
0.00301141
0.00124121
0.0131915
0.113711
0.286515
0.453974
0.623285
0.727921
0.747807
0.656219
0.435902
0.231935
0.0625629
0.302314
0.6087
0.858408
1.06022
1.1458
1.0667
0.821548
0.480166
0.215557
0.0419934
0.272149
0.405277
0.359704
0.171209
0.0310958
0.00128599
0.00120971
0.000548154
0.000692359
0.000924307
0.000900293
0.00084058
0.000690483
0.000517786
0.00039435
0.0002334
0.000126298
7.48534e-05
1.95687e-05
1.18829e-05
4.38421e-06
4.93596e-07
9.90564e-06
0.000936266
0.000993806
0.000758108
0.000902368
0.00096939
0.000939947
0.000841032
0.000593554
0.000259588
0.00132095
0.00276949
0.0032075
0.0194053
0.144133
0.303338
0.436802
0.57636
0.620734
0.575805
0.437672
0.229232
0.0213839
0.280893
0.575071
0.814498
1.00493
1.10027
1.05164
0.838836
0.504051
0.220747
0.0363903
0.275724
0.447473
0.454022
0.283563
0.0863452
0.0050761
0.000648878
0.000333211
0.000582515
0.000593761
0.000737587
0.00070843
0.000614421
0.000506837
0.000362112
0.00024787
0.000112913
5.66043e-05
3.03911e-06
1.44714e-06
1.05088e-05
1.48198e-05
2.78731e-05
8.56998e-06
0.000696158
0.000786809
0.000674154
0.000800464
0.000899738
0.000918069
0.00083489
0.000689074
0.000423536
0.000101854
0.0022497
0.000522533
0.00955383
0.0258526
0.174342
0.300945
0.416669
0.476506
0.467517
0.374661
0.205708
0.00842569
0.268583
0.548434
0.776936
0.949667
1.04128
1.00942
0.829408
0.505939
0.221712
0.0275076
0.296228
0.479994
0.548519
0.404292
0.169832
0.0287541
0.00129619
0.000505514
0.000710059
0.00069706
0.000508008
0.000495109
0.000494511
0.000432303
0.00032794
0.000204131
0.000115813
3.03364e-05
2.14551e-05
1.00964e-05
1.45486e-05
1.69034e-05
4.52847e-05
1.34733e-05
1.03939e-05
0.000453087
0.000575872
0.0005658
0.000686425
0.0007793
0.000824719
0.000801101
0.000736882
0.000538869
0.000220643
0.000635051
0.0028575
0.00425133
0.0174149
0.0270812
0.139983
0.251163
0.322998
0.337739
0.284009
0.158037
0.0262662
0.260888
0.528275
0.749933
0.897049
0.971504
0.944199
0.791028
0.493609
0.174784
0.0159819
0.299787
0.552511
0.61189
0.536905
0.281844
0.0725716
0.00451193
0.000720144
0.000663334
0.000356244
0.000647566
0.00044909
0.000356576
0.000283218
0.000216623
0.000138463
8.30463e-05
9.90207e-06
3.16742e-05
3.10799e-05
1.99324e-05
5.17495e-06
3.54307e-05
7.34973e-05
6.65135e-05
1.50404e-05
0.00025529
0.000410539
0.000438079
0.000594036
0.000683553
0.000730447
0.00076282
0.000715414
0.000563801
0.00036075
3.05417e-05
0.00139843
0.00265687
0.011441
0.0272168
0.00973021
0.0768161
0.162633
0.194994
0.173106
0.0851418
0.061893
0.253053
0.501238
0.731609
0.867558
0.889839
0.865836
0.724562
0.467455
0.120982
0.0229014
0.298611
0.57909
0.749628
0.640633
0.41381
0.1473
0.01881
0.00173451
0.00303779
0.00258037
0.00157656
3.65119e-05
0.000353781
0.000218879
0.000118932
1.19259e-05
8.70772e-06
5.02445e-05
4.87724e-05
5.41868e-05
2.30514e-05
1.64298e-05
6.72944e-05
0.000103
0.000108053
8.75289e-05
2.38829e-05
8.46937e-05
0.000216635
0.000339443
0.000460784
0.000580433
0.000642692
0.00070803
0.00064981
0.000583197
0.000442179
0.000210833
0.000271322
0.00232653
0.00132448
0.0200298
0.0397884
0.0205754
0.02324
0.058766
0.0529408
0.003604
0.113991
0.268612
0.449121
0.671013
0.833591
0.856132
0.768782
0.639453
0.416271
0.100174
0.0299319
0.296937
0.590348
0.818408
0.829907
0.551625
0.242579
0.0527375
0.00258075
0.00935227
0.0133909
0.0107663
0.00604971
0.00190994
8.35295e-05
0.000157074
4.83143e-05
0.000135445
0.000121479
0.000119746
0.000111901
5.39582e-05
5.73302e-06
6.0028e-05
0.000123753
0.000149696
0.0001422
0.000100619
5.93655e-05
9.54199e-05
0.000209893
0.000338105
0.000444659
0.000545095
0.00060285
0.000612091
0.000581821
0.000459032
0.000267002
7.56794e-05
0.00063225
0.00327076
0.0008552
0.028289
0.0549385
0.0572899
0.0461239
0.0541605
0.0925347
0.172906
0.290083
0.434329
0.568357
0.708793
0.802219
0.703008
0.536791
0.339113
0.0559534
0.000391413
0.317203
0.602512
0.831074
0.948844
0.732821
0.373454
0.100594
0.00339737
0.0208859
0.0304074
0.0329923
0.0238649
0.0129045
0.00507408
0.00113638
3.96426e-05
5.0343e-05
0.000253623
0.000224578
0.00016898
0.000113229
3.5865e-05
5.43284e-05
0.000139055
0.000190428
0.000212845
0.000199898
0.00016078
5.02048e-05
8.67862e-05
0.000208426
0.000348244
0.000426329
0.000484718
0.000553288
0.000528577
0.000461963
0.000332164
0.000158352
4.03526e-05
0.0011357
0.00410635
0.00303852
0.0344698
0.0705242
0.0959064
0.120063
0.158254
0.21909
0.306945
0.409393
0.517327
0.577275
0.599128
0.562206
0.411271
0.246275
0.061282
0.110702
0.355585
0.625961
0.848963
0.983714
0.888839
0.468349
0.18742
0.0138497
0.0347067
0.0597028
0.0687967
0.0595856
0.0387236
0.0198285
0.00889552
0.00290031
0.000247878
6.76437e-05
0.00032198
0.00023981
0.000164684
6.42423e-05
4.92836e-05
0.000127752
0.000211735
0.000277735
0.000295527
0.000263506
0.00018217
5.58598e-05
8.04786e-05
0.000225051
0.000319971
0.000381401
0.000436271
0.000458712
0.000431763
0.000352647
0.000208542
4.27587e-05
0.0001367
0.00166267
0.00475761
0.004119
0.0370004
0.0815705
0.12718
0.175253
0.231875
0.298367
0.373378
0.438062
0.484812
0.475825
0.387691
0.284186
0.153534
0.000832046
0.17847
0.393945
0.651204
0.877059
1.01512
0.993061
0.678606
0.249705
0.0479026
0.0512148
0.0983728
0.12783
0.122553
0.0878365
0.0497878
0.0232798
0.0119713
0.00495211
0.000578478
0.00015812
0.000357639
0.000246415
0.000108303
2.40377e-05
0.00012927
0.000266284
0.000309747
0.000366804
0.000341315
0.000301963
0.000196344
5.62281e-05
7.64647e-05
0.00022316
0.000300435
0.000352711
0.000389417
0.000375819
0.000329989
0.000227764
0.000106577
1.78656e-05
0.000221897
0.00210783
0.005245
0.00341629
0.0346054
0.0824834
0.138594
0.195161
0.255115
0.308438
0.352275
0.36886
0.353274
0.304339
0.191228
0.0774828
0.0545689
0.22534
0.434035
0.677799
0.907961
1.06535
1.05598
0.811799
0.371537
0.0821655
0.0571856
0.144167
0.202499
0.220672
0.185293
0.111819
0.0520537
0.0205874
0.0134839
0.00671262
0.000852039
0.000254687
0.00037607
0.000190373
2.18445e-05
0.000135496
0.000277132
0.000358071
0.000419368
0.000431916
0.000397533
0.000317099
0.000217542
5.56278e-05
7.11016e-05
0.000203922
0.000270414
0.000288867
0.000324724
0.000296238
0.000256074
0.000141387
2.39791e-05
5.16561e-05
0.000291303
0.00239608
0.00551798
0.00105979
0.0270384
0.0706549
0.124419
0.174725
0.2226
0.25102
0.258447
0.239698
0.191477
0.131131
0.02481
0.101723
0.267812
0.478318
0.713181
0.945392
1.11183
1.13571
0.944011
0.533819
0.14274
0.0553603
0.181585
0.286873
0.33791
0.323143
0.248396
0.126054
0.04379
0.0123685
0.0137976
0.00755342
0.000916743
0.000339368
0.000332398
0.000110201
0.0001015
0.000256773
0.000404992
0.000491499
0.000502587
0.00050974
0.000448242
0.000355469
0.000215126
5.68833e-05
4.93056e-05
0.000159601
0.00021091
0.000242955
0.00024976
0.000234572
0.000159604
8.79908e-05
3.0173e-05
6.26559e-05
0.000275854
0.00234315
0.00546838
0.0019636
0.0162877
0.0489105
0.0901627
0.125009
0.152462
0.157875
0.142411
0.113257
0.0623296
0.0067989
0.132528
0.306546
0.523811
0.753228
0.984733
1.15842
1.19946
1.04389
0.681226
0.239473
0.0252297
0.213903
0.359186
0.465115
0.478815
0.414796
0.299933
0.124382
0.0254865
0.00210096
0.0138996
0.00722069
0.000774149
0.000391699
0.000223065
3.63829e-05
0.000233386
0.000423137
0.000519749
0.000596866
0.000611226
0.000577005
0.000484361
0.000345494
0.000227172
3.43621e-05
3.14411e-05
0.00017749
0.000180172
0.000199192
0.000194341
0.00017047
0.000103269
2.54705e-05
4.09059e-05
3.14192e-05
0.000230324
0.00198326
0.00489752
0.0042247
0.00590423
0.024992
0.0496396
0.0693881
0.0794439
0.0724346
0.0539606
0.0277442
0.0281008
0.133445
0.321049
0.566081
0.797545
1.00918
1.20156
1.25022
1.12589
0.799585
0.355703
0.025952
0.201243
0.434154
0.580594
0.643723
0.581499
0.463507
0.262579
0.105203
0.000601612
0.005634
0.0142709
0.00578389
0.000625799
0.000325534
7.24507e-05
0.000211994
0.00042202
0.000568546
0.000692566
0.000700689
0.000693913
0.000593046
0.000499624
0.000336955
0.00021963
2.26392e-05
3.79167e-05
0.000136069
0.000166593
0.000164027
0.00015585
0.000109664
8.30208e-05
2.28213e-05
2.41132e-05
5.30594e-06
0.000118413
0.00138242
0.0037572
0.00482023
0.000793427
0.00701063
0.0169087
0.0278327
0.0285106
0.0211508
0.00619113
0.0283729
0.120643
0.292969
0.565118
0.847299
1.03085
1.20615
1.29177
1.18429
0.895149
0.468435
0.0903944
0.165128
0.440298
0.712247
0.809328
0.782843
0.650914
0.460261
0.243684
0.0649867
0.0292426
0.00739443
0.0141581
0.00381325
0.000533064
0.000185706
0.000156375
0.000424377
0.000635051
0.000749639
0.000790908
0.000801537
0.000732947
0.000615156
0.000485979
0.000329634
0.000203293
8.79636e-06
1.1304e-05
0.000126896
0.000110173
0.000113608
0.000116434
7.41181e-05
6.56199e-05
1.7266e-05
2.91651e-05
7.22573e-05
4.34601e-05
0.00073489
0.0022716
0.00383408
0.00291979
0.00143439
0.000920153
0.00718341
0.00485954
0.000861322
0.0227412
0.0936259
0.253481
0.497619
0.846047
1.06059
1.19205
1.30455
1.21297
0.964549
0.563944
0.152557
0.124513
0.403501
0.734727
0.992081
0.996582
0.855582
0.676967
0.413918
0.185943
0.00554692
0.0518704
0.00277086
0.0124393
0.0020414
0.000418852
1.7136e-05
0.000362144
0.000627822
0.000786578
0.000897959
0.000895227
0.000863219
0.000738495
0.000629317
0.000455404
0.000318793
0.000185711
9.5741e-06
4.52249e-06
7.55796e-05
8.82068e-05
8.40487e-05
5.98097e-05
4.82503e-05
5.35188e-05
5.62678e-05
8.87993e-05
0.000150432
0.000206452
0.000179898
0.000888151
0.00209848
0.00207538
0.00248245
0.00509801
0.000640288
0.00259839
0.0134015
0.0636547
0.195884
0.429274
0.721832
1.09245
1.15136
1.2477
1.23319
1.00025
0.628446
0.207358
0.0817841
0.362591
0.688267
1.00474
1.17231
1.08614
0.84007
0.582401
0.311957
0.0913663
0.0587552
0.0588794
0.00460429
0.00901659
0.000923966
0.000242823
0.000279959
0.000587039
0.000831844
0.000957348
0.000998018
0.000960278
0.00087878
0.000766468
0.000592517
0.000436939
0.000270241
0.000146874
6.68798e-06
8.54699e-06
7.05494e-05
5.27203e-05
7.26616e-05
3.82163e-05
7.06658e-05
6.59407e-05
0.000104582
0.00016966
0.00024817
0.000351563
0.000247213
9.47865e-05
0.000588814
0.000599099
0.00082329
0.00365858
0.000777125
0.00734816
0.0350724
0.135267
0.335275
0.618424
0.924269
1.19057
1.15872
1.18261
1.00109
0.653873
0.221113
0.0373339
0.312726
0.647599
0.957385
1.16336
1.18415
1.0301
0.726499
0.432836
0.179896
0.015089
0.109026
0.0466531
0.00994887
0.00475523
0.00042401
6.45328e-05
0.000546342
0.000821791
0.00100075
0.00107336
0.00107738
0.000995573
0.00086322
0.000723592
0.000546474
0.000356013
0.000214495
0.000109462
1.0453e-05
7.68949e-06
3.0655e-05
4.02968e-05
5.89704e-05
5.304e-05
7.26082e-05
0.000128316
0.000186413
0.000259571
0.000373917
0.000502837
0.000511992
0.0006385
0.000320464
0.000280242
0.000446911
0.00100982
0.00293901
0.0178141
0.0765486
0.238169
0.489147
0.778939
1.05735
1.11272
1.10023
0.962289
0.649546
0.224316
0.00323661
0.243315
0.611187
0.949041
1.17287
1.21583
1.08758
0.860939
0.544289
0.260246
0.0361649
0.1124
0.129407
0.0235491
0.0109116
0.00162068
0.000180974
0.000410715
0.000805533
0.00103306
0.00115701
0.00117763
0.001126
0.000985034
0.000845191
0.000644854
0.000472552
0.000315964
0.000175419
6.80768e-05
4.81755e-06
2.12292e-05
1.09508e-05
5.28064e-05
5.13468e-05
8.02432e-05
0.000122364
0.000194421
0.000273315
0.000411702
0.000506758
0.000662558
0.000697537
0.000884011
0.00074492
0.000564768
0.000810311
0.000360567
0.00842428
0.0375019
0.141149
0.355952
0.624482
0.875089
1.06987
0.974564
0.898682
0.623373
0.239267
0.0386981
0.171044
0.583031
0.924425
1.22779
1.3359
1.20666
0.934141
0.633329
0.329429
0.076852
0.102559
0.180822
0.113505
0.00553736
0.00779797
0.000480925
0.000136419
0.000735978
0.00104316
0.0012159
0.00125542
0.0012323
0.00110901
0.000947212
0.00076439
0.00057003
0.000407076
0.000242287
0.000140034
6.15118e-05
2.49136e-05
1.61124e-05
1.27339e-05
3.32172e-05
8.82506e-05
0.000123404
0.000175096
0.000282414
0.000409126
0.000536534
0.000654168
0.000810551
0.000854562
0.000982665
0.000896484
0.000582925
0.000656741
0.00252621
0.0176945
0.0682579
0.223317
0.460941
0.710063
0.889118
0.947378
0.804564
0.587865
0.245329
0.0495871
0.14802
0.570135
0.901773
1.2133
1.40843
1.37769
1.06932
0.694264
0.375399
0.105266
0.102584
0.216346
0.202004
0.0708877
0.00179907
0.0036071
6.24472e-05
0.000513235
0.00100271
0.0012146
0.00132092
0.0012925
0.00120097
0.00102427
0.000876731
0.000676109
0.000468707
0.000321033
0.000169244
5.94058e-05
3.27273e-05
1.59665e-05
8.23565e-06
6.95397e-06
5.52848e-05
0.000100345
0.000173283
0.000275688
0.000377958
0.000515271
0.000648884
0.000820299
0.000958486
0.000999178
0.00101438
0.000871242
0.000564531
3.58579e-05
0.00687183
0.029717
0.110454
0.306841
0.501727
0.738096
0.81335
0.748202
0.553412
0.282184
0.0335624
0.186071
0.554254
0.884177
1.20846
1.41367
1.41826
1.19371
0.771518
0.397987
0.115604
0.111943
0.258613
0.282407
0.170181
0.0265255
0.00291347
0.00106469
0.000274811
0.00086344
0.00120662
0.00134531
0.00135003
0.00127249
0.00112613
0.000933449
0.000756421
0.000532491
0.000380742
0.000214684
0.000131696
4.4851e-05
1.50158e-05
4.58538e-05
5.82598e-07
5.6357e-06
6.63419e-05
0.000151116
0.000240117
0.000336015
0.00047104
0.000638393
0.000799463
0.000937157
0.00106091
0.00108914
0.00101434
0.000801174
0.000506849
0.00141258
0.0123429
0.0431677
0.159469
0.374187
0.543374
0.67813
0.657419
0.515588
0.271188
0.0193182
0.241116
0.5451
0.871641
1.1809
1.42074
1.45145
1.23837
0.851121
0.387335
0.115182
0.130239
0.309827
0.36607
0.282053
0.104089
0.00154878