/*--------------------------------*- C++ -*----------------------------------*\
| =========                 |                                                 |
| \\      /  F ield         | OpenFOAM: The Open Source CFD Toolbox           |
|  \\    /   O peration     | Version:  2506                                  |
|   \\  /    A nd           | Website:  www.openfoam.com                      |
|    \\/     M anipulation  |                                                 |
\*---------------------------------------------------------------------------*/
FoamFile
{
    version     2.0;
    format      ascii;
    arch        "LSB;label=32;scalar=64";
    class       volScalarField;
    location    "129.99968020949075";
    object      p;
}
// * * * * * * * * * * * * * * * * * * * * * * * * * * * * * * * * * * * * * //

dimensions      [0 2 -2 0 0 0 0];

internalField   nonuniform List<scalar> 
9700
(
0.00117793
0.0011822
0.00268078
0.00117796
0.00269871
0.00485107
0.00118393
0.0027109
0.00487481
0.00681428
0.00117817
0.00274996
0.00489321
0.00684558
0.00881835
0.00117762
0.002785
0.00494512
0.00687524
0.00885668
0.0107725
0.00116424
0.00284381
0.00499207
0.0069454
0.00889693
0.0108184
0.012699
0.00114681
0.00290471
0.0050651
0.00701586
0.00898424
0.0108701
0.0127525
0.0145832
0.00111217
0.00298538
0.00513599
0.00711774
0.00907672
0.0109762
0.012816
0.0146443
0.0164241
0.00106288
0.0030743
0.00522089
0.00722224
0.00920538
0.0110935
0.0129413
0.0147197
0.0164924
0.0182156
0.000993581
0.00318391
0.00530032
0.0073436
0.00934085
0.0112534
0.0130847
0.0148645
0.0165793
0.0182905
0.0199534
0.000893567
0.00331796
0.00537715
0.0074605
0.00949531
0.011427
0.0132778
0.0150346
0.0167432
0.0183882
0.0200341
0.0216346
0.000749634
0.00347607
0.00542991
0.00757034
0.00964574
0.0116255
0.0134932
0.0152628
0.0169399
0.0185698
0.0201413
0.0217197
0.023257
0.000479817
0.00365046
0.00544402
0.0076461
0.00978446
0.0118264
0.0137422
0.0155235
0.0172032
0.0187916
0.0203384
0.0218349
0.0233452
0.0248187
0.000129143
0.00384936
0.00537947
0.00765862
0.00987847
0.01202
0.0140043
0.0158289
0.0175102
0.0190885
0.0205827
0.0220446
0.0234663
0.0249083
0.0263186
-0.000626187
0.00430421
0.00520815
0.0075472
0.00988809
0.0121724
0.01427
0.0161624
0.0178748
0.0194405
0.0209096
0.0223072
0.0236848
0.0250329
0.0264082
0.027758
-0.00203487
0.00435811
0.00492515
0.00723593
0.0097389
0.01224
0.0145086
0.0165169
0.0182852
0.0198634
0.0213024
0.0226589
0.0239609
0.0252561
0.0265337
0.0278459
0.0291379
-0.00355431
0.00322631
0.00387642
0.00654636
0.00933149
0.0121444
0.0146777
0.0168684
0.0187385
0.020351
0.0217788
0.0230858
0.0243305
0.02554
0.0267574
0.02797
0.0292229
0.0304603
-0.00549251
0.00105408
0.00119837
0.00492705
0.00845628
0.0117781
0.0147038
0.0171811
0.0192196
0.0209054
0.0223384
0.0236072
0.0247824
0.0259196
0.0270429
0.02819
0.0293432
0.0305412
0.0317289
-0.00767349
-0.00321398
-0.00361754
0.00141544
0.00652992
0.0109228
0.0144818
0.0173937
0.0197031
0.0215218
0.022988
0.024228
0.0253371
0.0263859
0.0274241
0.028471
0.0295555
0.0306559
0.0318049
0.0329467
-0.00882465
-0.00893769
-0.010757
-0.00557491
0.00240116
0.0090402
0.0138066
0.0174148
0.0201452
0.0221865
0.0237332
0.0249592
0.0260037
0.0269598
0.0278933
0.0288453
0.0298266
0.0308574
0.0319125
0.0330175
0.0341172
-0.00950475
-0.0147191
-0.0199235
-0.0156831
-0.00554478
0.00495236
0.0121798
0.0170694
0.0204765
0.0228755
0.024572
0.0258161
0.0267964
0.0276535
0.028471
0.0293058
0.0301862
0.0311136
0.0321008
0.033117
0.0341827
0.0352445
-0.00978549
-0.0203146
-0.0305084
-0.0274886
-0.0177375
-0.00259128
0.00847979
0.0159402
0.0205642
0.0235435
0.0254993
0.026806
0.0277386
0.0284829
0.0291711
0.0298718
0.030627
0.031452
0.0323387
0.0332908
0.0342741
0.0353051
0.0363322
-0.00937799
-0.0252514
-0.0403701
-0.0419455
-0.0323665
-0.0139179
0.00137606
0.013113
0.0201055
0.0240991
0.0264934
0.0279416
0.0288443
0.0294774
0.0300098
0.0305571
0.0311667
0.0318639
0.0326509
0.0335084
0.0344331
0.0353885
0.0363885
0.0373829
-0.00855052
-0.0280773
-0.048497
-0.0559861
-0.0498201
-0.0317439
-0.00973455
0.00718823
0.0184455
0.0243443
0.0274984
0.0292207
0.030141
0.0306545
0.0310198
0.0313768
0.031817
0.0323648
0.033027
0.0337916
0.0346299
0.0355337
0.0364651
0.037436
0.0383986
-0.00750459
-0.028533
-0.0530976
-0.0679023
-0.0672987
-0.0513171
-0.0267072
-0.00348475
0.0144507
0.0238503
0.028397
0.0306173
0.0316399
0.0320534
0.032219
0.032364
0.032591
0.0329628
0.0334795
0.0341277
0.0348835
0.0357109
0.0365982
0.037507
0.0384495
0.0393812
-0.00667933
-0.0261335
-0.0537972
-0.0751254
-0.0827073
-0.071267
-0.0464772
-0.0175648
0.00679298
0.0218086
0.0289352
0.0320685
0.0333411
0.0336913
0.0336545
0.0335346
0.0335187
0.0336675
0.0340116
0.0345261
0.0351787
0.0359366
0.0367585
0.0376308
0.0385167
0.0394311
0.040331
-0.00591518
-0.022858
-0.0501194
-0.0767087
-0.0924509
-0.0893126
-0.0672225
-0.035538
-0.00478215
0.0171232
0.0286288
0.0334301
0.035211
0.0355923
0.0353425
0.0349383
0.0346119
0.0345031
0.0346287
0.0349839
0.0355216
0.0361934
0.0369602
0.0377779
0.0386343
0.0394963
0.0403811
0.0412477
-0.005185
-0.0187591
-0.0451186
-0.0721971
-0.0958622
-0.10106
-0.0863228
-0.0552937
-0.0199631
0.00911454
0.0266681
0.0344575
0.0371619
0.0377322
0.0373274
0.036586
0.0359168
0.0354749
0.0353458
0.0355019
0.035903
0.0364839
0.0371839
0.0379611
0.0387727
0.039611
0.0404459
0.0412987
0.0421306
-0.00450992
-0.0143614
-0.0384123
-0.0654022
-0.091049
-0.107405
-0.0997908
-0.073933
-0.0373176
-0.00232031
0.022292
0.0346503
0.039068
0.0400537
0.0395797
0.0385324
0.037437
0.0366199
0.0361603
0.036083
0.036318
0.036793
0.0374295
0.0381599
0.0389443
0.0397456
0.0405608
0.0413646
0.0421832
0.042979
-0.00439354
-0.00985808
-0.0304366
-0.0558323
-0.0831347
-0.102968
-0.108103
-0.0882484
-0.054295
-0.0162552
0.0149076
0.0333475
0.0406542
0.0424628
0.0420692
0.040736
0.0392243
0.0379322
0.037094
0.0367155
0.036757
0.0371101
0.0376767
0.0383716
0.0391276
0.0399125
0.0406961
0.0414823
0.0422513
0.0430333
0.0437913
-0.00405998
-0.00577298
-0.0216349
-0.0443856
-0.071672
-0.0950309
-0.105309
-0.0979496
-0.0685124
-0.0308586
0.00482639
0.0296535
0.0414849
0.0447548
0.0446933
0.0431929
0.041225
0.0394469
0.0381284
0.0374008
0.0371972
0.0374126
0.0379095
0.0385727
0.0393191
0.0400907
0.0408652
0.0416222
0.0423736
0.0431042
0.0438473
0.0445663
-0.00311359
-0.00126796
-0.0124329
-0.0315812
-0.0577678
-0.0832437
-0.0989633
-0.0976758
-0.0791917
-0.0446836
-0.00706288
0.0233012
0.0405394
0.046717
0.0471888
0.0457625
0.043444
0.0411003
0.0392691
0.0381034
0.0376164
0.0376672
0.0380936
0.0387429
0.0394937
0.0402765
0.0410479
0.0417989
0.0425207
0.043232
0.043921
0.0446234
0.0453035
-0.00160638
0.00377481
-0.00297639
-0.0180197
-0.0421114
-0.068421
-0.0884412
-0.0940929
-0.0815579
-0.0560049
-0.0199866
0.0142779
0.0372135
0.0474098
0.0495234
0.0481161
0.0456843
0.0428739
0.040438
0.0387867
0.0379569
0.0378247
0.038186
0.0388389
0.0396286
0.0404455
0.0412417
0.0419942
0.0427091
0.0433877
0.0440542
0.0446996
0.0453612
0.0460025
0.000128725
0.00887694
0.0065796
-0.00420257
-0.0255063
-0.0514337
-0.0744426
-0.0861778
-0.0809396
-0.0612409
-0.0319372
0.00273108
0.0307459
0.0459032
0.0508144
0.0502345
0.0476313
0.0445326
0.0415633
0.0393464
0.0381276
0.0378035
0.0381086
0.0388068
0.0396775
0.0405747
0.0414249
0.0422075
0.0429226
0.0435897
0.0442185
0.0448371
0.0454389
0.0460598
0.0466635
0.00282535
0.0137362
0.0160707
0.00934344
-0.00874074
-0.033294
-0.0579379
-0.0747113
-0.0766301
-0.0636474
-0.0412877
-0.00844856
0.0201667
0.0412604
0.0497649
0.0512443
0.0490475
0.0457867
0.0423856
0.0396327
0.0379878
0.0374479
0.0377682
0.0385363
0.0395822
0.0406194
0.0415763
0.0424213
0.0431632
0.0438241
0.0444338
0.0450086
0.0455789
0.0461378
0.0467194
0.0472876
0.00535087
0.0195375
0.0251514
0.0222649
0.00739801
-0.0149888
-0.0400432
-0.0604813
-0.069208
-0.0631094
-0.0476836
-0.020659
0.00872177
0.0313647
0.0460395
0.0497695
0.0491911
0.0461656
0.042565
0.0393339
0.0372756
0.0365791
0.036922
0.0379887
0.0392347
0.0405204
0.0416573
0.0426181
0.0434188
0.0440958
0.0446888
0.0452351
0.045755
0.046278
0.0467964
0.0473413
0.0478765
0.00760228
0.0258087
0.0350561
0.0338866
0.0226148
0.00249166
-0.0218656
-0.0446891
-0.059021
-0.0599795
-0.0516551
-0.0301099
-0.00666105
0.0194329
0.0362316
0.0462414
0.0468651
0.0450546
0.0415286
0.0379793
0.0355488
0.034773
0.0353502
0.0367421
0.0385058
0.0401723
0.0416116
0.0427685
0.0436769
0.0443984
0.044991
0.0455076
0.045989
0.0464555
0.0469341
0.0474157
0.0479271
0.0484324
0.0104655
0.0304869
0.0427395
0.0462629
0.0359309
0.0188681
-0.00445879
-0.0286295
-0.0471794
-0.0547086
-0.0523981
-0.038546
-0.0187138
0.00163298
0.0235178
0.0353468
0.0420075
0.0415081
0.0387109
0.0349437
0.0321384
0.0313981
0.0324043
0.0345746
0.0370722
0.0394262
0.0413454
0.042824
0.0439193
0.0447245
0.0453394
0.0458357
0.0462735
0.0466919
0.0471091
0.0475482
0.0479976
0.0484792
0.0489575
0.0134641
0.0310412
0.0475171
0.0546601
0.0501401
0.0329342
0.011879
-0.0128303
-0.034648
-0.0479711
-0.0505202
-0.0452742
-0.0309473
-0.0125087
0.004429
0.0221063
0.0313718
0.0351379
0.0333955
0.0297592
0.0264079
0.025547
0.0273062
0.0305699
0.0345676
0.0380051
0.0407122
0.0427102
0.044108
0.0450682
0.0457314
0.0462232
0.0466198
0.0469815
0.0473424
0.0477169
0.0481226
0.0485446
0.0490002
0.0494551
0.0157925
0.0281058
0.047845
0.0598992
0.0595692
0.0479764
0.0255551
0.002572
-0.0212307
-0.0397473
-0.0478036
-0.0506891
-0.0423823
-0.0277881
-0.0109881
0.00275241
0.0170369
0.0240145
0.0252598
0.0220642
0.0181097
0.0164862
0.0187816
0.0236443
0.0300157
0.0355225
0.0394721
0.0422963
0.0441933
0.0454021
0.0461726
0.046671
0.0470352
0.047336
0.0476292
0.0479416
0.0482813
0.04866
0.0490597
0.0494935
0.0499279
0.0185878
0.0237536
0.0447549
0.0592039
0.0657641
0.0583911
0.0405966
0.0149651
-0.00860802
-0.0302166
-0.0450923
-0.0552043
-0.0532718
-0.0429901
-0.0283323
-0.012972
-0.00182939
0.00921842
0.0133888
0.0117214
0.00730714
0.00428494
0.00611518
0.0115398
0.0216836
0.030882
0.0372273
0.0413875
0.0440691
0.0457027
0.0466441
0.0471948
0.0475228
0.0477652
0.047981
0.0482174
0.0484921
0.0488058
0.0491642
0.0495467
0.0499622
0.0503786
0.0179303
0.0212908
0.0397842
0.0539585
0.0648682
0.0642645
0.0518312
0.029166
0.00167668
-0.0218527
-0.0420358
-0.0582538
-0.0627856
-0.0580875
-0.0463558
-0.0312991
-0.0167358
-0.0083087
-0.00158097
-0.00113287
-0.00584282
-0.0103649
-0.0104137
-0.00445219
0.0071111
0.0222912
0.0328302
0.0395998
0.0435947
0.0458881
0.0471474
0.0477807
0.0481063
0.0482732
0.0484088
0.0485558
0.0487497
0.0489984
0.049295
0.0496397
0.0500092
0.0504093
0.0508098
0.0149879
0.0177499
0.0342738
0.0476575
0.0587121
0.0639806
0.0578152
0.0408009
0.0140412
-0.0145018
-0.0384179
-0.0596085
-0.0707327
-0.0721
-0.0645207
-0.0504876
-0.0351705
-0.0215983
-0.0169662
-0.0161639
-0.0200369
-0.0269336
-0.029369
-0.0241968
-0.0117096
0.00879765
0.0244613
0.035841
0.0424362
0.0458702
0.047618
0.0484526
0.0487729
0.0488887
0.0489162
0.0489665
0.0490644
0.0492316
0.0494664
0.0497545
0.050091
0.0504506
0.0508377
0.0512238
0.0106431
0.0145891
0.0286743
0.0406912
0.0524386
0.0592942
0.0588872
0.0479939
0.0256546
-0.00490391
-0.0343424
-0.059613
-0.0770572
-0.0844948
-0.0817688
-0.0701491
-0.0539824
-0.0385419
-0.028215
-0.0289279
-0.0352865
-0.0429408
-0.0497582
-0.0469565
-0.0340993
-0.0106895
0.0113154
0.0283431
0.0397147
0.0453664
0.0480137
0.0491514
0.0495654
0.0495972
0.0495342
0.0494529
0.0494438
0.0495141
0.0496708
0.0499032
0.0501901
0.0505224
0.0508744
0.0512498
0.0516216
0.00704836
0.0115277
0.0234735
0.0342336
0.0454327
0.0537143
0.05667
0.0508723
0.0339594
0.00623855
-0.0278923
-0.0579022
-0.0815043
-0.0948822
-0.0973159
-0.0889991
-0.0733546
-0.0561027
-0.0423603
-0.0378577
-0.0452187
-0.0589181
-0.0680516
-0.0712331
-0.05945
-0.0371065
-0.00814782
0.0153946
0.0339393
0.0437404
0.0480877
0.0498777
0.0504173
0.0504566
0.0502458
0.0500445
0.0498906
0.0498504
0.049915
0.0500765
0.0503163
0.0506072
0.0509381
0.0512833
0.0516469
0.0520037
0.00509232
0.00924662
0.0192413
0.0286289
0.0388489
0.0473644
0.0523261
0.0506718
0.0389668
0.0155573
-0.0173211
-0.0542846
-0.0825512
-0.102708
-0.110273
-0.105993
-0.0920018
-0.0735946
-0.0575657
-0.0485089
-0.0518105
-0.0661411
-0.0852341
-0.0918758
-0.0875661
-0.0637511
-0.0341551
-0.00335901
0.0235702
0.0397688
0.0474159
0.0503984
0.051376
0.0513827
0.0511168
0.0507229
0.0504293
0.0502415
0.0501993
0.050279
0.0504585
0.0507129
0.0510112
0.0513415
0.0516789
0.0520296
0.05237
0.00388557
0.00765216
0.0160393
0.0239744
0.0330472
0.0411453
0.0471372
0.0482675
0.0412923
0.0230204
-0.00688258
-0.0439056
-0.0816298
-0.105664
-0.119903
-0.119787
-0.108499
-0.0901981
-0.0719419
-0.0596945
-0.0582394
-0.0709714
-0.0900865
-0.110419
-0.109509
-0.0957861
-0.0620688
-0.0255207
0.0078791
0.032054
0.0450592
0.0504409
0.0521811
0.0524801
0.0520462
0.0515522
0.0510419
0.0507051
0.050523
0.0505063
0.0506192
0.0508268
0.0511002
0.0514066
0.0517348
0.0520619
0.0523977
0.0527193
0.00314865
0.00634748
0.0133477
0.0202193
0.0280747
0.0355619
0.0417326
0.0446954
0.0414661
0.0284292
0.00344111
-0.032046
-0.0710878
-0.106338
-0.125045
-0.1295
-0.121347
-0.104408
-0.0848737
-0.0697062
-0.0637795
-0.073941
-0.0933806
-0.113964
-0.130393
-0.117083
-0.091675
-0.0520352
-0.0121123
0.0198022
0.0398239
0.0492945
0.0526698
0.0533976
0.0531839
0.052427
0.0517816
0.0512236
0.0508944
0.0507552
0.0507888
0.0509487
0.0511906
0.051484
0.0517962
0.0521188
0.0524321
0.05275
0.0530496
0.00262786
0.0053586
0.0113039
0.0172132
0.0240184
0.0306958
0.0367047
0.0405698
0.0401249
0.0318887
0.0124959
-0.0184635
-0.0574026
-0.0953104
-0.125971
-0.13578
-0.129636
-0.114693
-0.0951801
-0.0776232
-0.0678561
-0.0759826
-0.0924229
-0.116187
-0.134538
-0.1417
-0.114556
-0.0789844
-0.0359679
0.00306199
0.0308132
0.0460425
0.0522503
0.0541744
0.0540676
0.0534999
0.0525532
0.0518327
0.0512963
0.0510242
0.0509613
0.0510646
0.0512802
0.051558
0.0518682
0.0521812
0.0524933
0.0527881
0.0530841
0.0533585
0.00225606
0.00464875
0.00976109
0.0148434
0.0207335
0.026663
0.0322338
0.0364664
0.0378279
0.0334882
0.0199201
-0.00527924
-0.0403339
-0.0796493
-0.11207
-0.1366
-0.133319
-0.120362
-0.10152
-0.0830259
-0.0714537
-0.0764516
-0.0896048
-0.112144
-0.135962
-0.146906
-0.140633
-0.10211
-0.0600906
-0.0173265
0.0176087
0.0397631
0.0502759
0.0540889
0.0551254
0.054296
0.0534726
0.0524549
0.0517449
0.0512943
0.0511246
0.0511651
0.0513509
0.0516247
0.0519344
0.0522545
0.0525614
0.0528565
0.0531272
0.0533973
0.0536434
0.00198705
0.00415981
0.00859794
0.013007
0.0181273
0.0233683
0.0284646
0.032694
0.0350539
0.0336493
0.0251462
0.00668125
-0.0228954
-0.0590276
-0.0951729
-0.118246
-0.132979
-0.120345
-0.10364
-0.0855047
-0.0743604
-0.0738235
-0.0850152
-0.105532
-0.130001
-0.148051
-0.146339
-0.127786
-0.0827257
-0.0389205
0.000706059
0.0296684
0.0459231
0.0526902
0.055118
0.0554067
0.0541867
0.0531514
0.0521742
0.0515616
0.0512567
0.0512279
0.0513898
0.0516628
0.0519897
0.0523224
0.0526429
0.0529346
0.0532053
0.0534465
0.0536867
0.053901
0.00179274
0.003812
0.00772402
0.0115979
0.0160853
0.0207265
0.0253466
0.0294287
0.0322659
0.0326571
0.0283932
0.0160633
-0.00628875
-0.0378151
-0.0713782
-0.100873
-0.114458
-0.117919
-0.10108
-0.0844931
-0.0741926
-0.0689204
-0.0779564
-0.0965599
-0.121097
-0.14189
-0.148849
-0.13405
-0.106896
-0.061264
-0.0188063
0.015841
0.0381778
0.0494208
0.0537405
0.055343
0.0549382
0.0536658
0.0526
0.0517648
0.0513327
0.0512261
0.0513656
0.0516566
0.0520114
0.0523792
0.0527218
0.0530303
0.0532967
0.0535357
0.0537424
0.0539486
0.0541285
0.0016469
0.0035595
0.00706664
0.0105239
0.0144959
0.0186304
0.0228155
0.0266769
0.0297122
0.031135
0.0296021
0.0227238
0.00706894
-0.0175337
-0.0472237
-0.0755499
-0.0958354
-0.100596
-0.0961002
-0.0795813
-0.0693146
-0.0625595
-0.0685501
-0.0851129
-0.108798
-0.132197
-0.144592
-0.139272
-0.114879
-0.0828456
-0.0403748
-0.00186496
0.0266872
0.0430816
0.0508868
0.0539296
0.0547738
0.0540449
0.0528181
0.051878
0.0512899
0.0511137
0.0512456
0.0515674
0.0519814
0.0524024
0.0527932
0.0531289
0.0534115
0.0536428
0.0538434
0.0540109
0.05418
0.0543233
0.00154299
0.00336813
0.00657401
0.00970389
0.0132647
0.0169786
0.0207824
0.0244004
0.0274823
0.0294718
0.0295794
0.0263281
0.0170832
-0.00150924
-0.0241891
-0.0495609
-0.0709747
-0.0815707
-0.0792321
-0.0718764
-0.0605922
-0.0530824
-0.0574047
-0.0716572
-0.0938124
-0.1181
-0.13567
-0.137808
-0.121831
-0.0937618
-0.0601143
-0.0228724
0.0104786
0.032958
0.0451461
0.051039
0.0534299
0.0536428
0.0527905
0.0517267
0.0510606
0.0508219
0.0509636
0.0513567
0.0518565
0.0523729
0.0528363
0.0532267
0.0535365
0.0537799
0.0539672
0.0541235
0.0542483
0.054378
0.0544832
0.00145964
0.00323107
0.00619825
0.00907972
0.0123115
0.0156828
0.0191583
0.0225409
0.025578
0.0278875
0.0289242
0.0279159
0.0232396
0.0120898
-0.00528684
-0.0247859
-0.0448579
-0.0582284
-0.0606836
-0.055915
-0.0476397
-0.0418278
-0.0444613
-0.056885
-0.0768616
-0.101005
-0.121736
-0.130861
-0.123314
-0.102344
-0.0765912
-0.0408586
-0.0105525
0.0179469
0.0354331
0.0454055
0.0503293
0.0521487
0.0520018
0.0511901
0.05048
0.050239
0.05044
0.0509414
0.0515937
0.0522464
0.0528326
0.0533065
0.0536704
0.053936
0.054128
0.0542637
0.0543714
0.0544515
0.0545401
0.0546065
0.00140947
0.00311945
0.00592167
0.00859929
0.0115765
0.0146669
0.0178667
0.0210294
0.0239803
0.0264421
0.0280537
0.028308
0.0264594
0.0209602
0.0101972
-0.00274259
-0.0205687
-0.033774
-0.0396914
-0.037326
-0.032158
-0.0255321
-0.0311288
-0.0410169
-0.0592632
-0.081952
-0.104394
-0.118756
-0.119692
-0.106798
-0.088495
-0.0616461
-0.0278656
-0.00357545
0.0213387
0.0354796
0.044549
0.0487848
0.0500737
0.0498414
0.0493449
0.0491909
0.0495179
0.0502273
0.0510984
0.0519785
0.052741
0.0533517
0.0538001
0.054112
0.0543168
0.0544475
0.0545266
0.0545832
0.0546177
0.0546649
0.0546925
0.00136031
0.00305297
0.00570369
0.00824016
0.0110058
0.0138739
0.0168401
0.0198077
0.0226476
0.0251707
0.0271127
0.0281516
0.0278665
0.0256229
0.0204202
0.011629
0.000227819
-0.0117546
-0.018152
-0.0187573
-0.0146772
-0.0114594
-0.0106909
-0.025947
-0.0410759
-0.062421
-0.0851589
-0.10292
-0.110958
-0.106728
-0.0962595
-0.0747701
-0.0535529
-0.0216733
-0.000546372
0.0218267
0.0344534
0.0427468
0.046261
0.047219
0.0472508
0.0473796
0.0479969
0.0490152
0.0502623
0.0514696
0.0525174
0.0533283
0.0539129
0.0543001
0.0545373
0.0546681
0.054731
0.0547509
0.0547559
0.0547453
0.0547513
0.0547409
0.00134746
0.00298502
0.00556159
0.00795858
0.0105739
0.0132519
0.0160286
0.01882
0.0215463
0.0240638
0.0261994
0.027715
0.0283567
0.0278595
0.0258345
0.0216199
0.0146255
0.00597518
0.00084814
-0.000842881
0.00149305
0.00491798
0.003512
-0.00246726
-0.0248167
-0.0428615
-0.0654476
-0.0850921
-0.0982748
-0.101944
-0.0975081
-0.0857215
-0.0682626
-0.0515094
-0.0201955
-0.000407023
0.0204667
0.0325693
0.0397384
0.0426134
0.0436275
0.0443698
0.0454651
0.0470618
0.0488541
0.0506025
0.0520667
0.0531961
0.0539841
0.0544924
0.0547869
0.0549315
0.05498
0.0549721
0.0549328
0.0548874
0.0548332
0.0547987
0.0547519
0.00132436
0.00296967
0.00543632
0.0077686
0.0102354
0.0127756
0.0153843
0.0180276
0.0206362
0.0231188
0.025342
0.0271568
0.0283748
0.0288427
0.0284852
0.0270939
0.0240984
0.0197248
0.0158741
0.0143397
0.015655
0.0187026
0.0194863
0.0125913
-0.000122607
-0.0265785
-0.0461117
-0.0664003
-0.0830547
-0.0935261
-0.0942816
-0.0920981
-0.0822419
-0.067946
-0.0521499
-0.022686
-0.00136547
0.0182736
0.0292767
0.0351451
0.0377651
0.0394288
0.0414303
0.043831
0.0465825
0.0491321
0.0512712
0.0528723
0.0539808
0.0546748
0.0550626
0.0552399
0.0552811
0.055244
0.055166
0.0550699
0.0549766
0.0548811
0.0548077
0.0547245
0.0029341
0.0053911
0.00760885
0.0100017
0.0124009
0.0148853
0.0173893
0.0198921
0.0223134
0.0245707
0.0265473
0.0281317
0.0292043
0.029729
0.0297673
0.0292117
0.0278873
0.0264018
0.0257011
0.0268928
0.0293931
0.0312522
0.0284435
0.0164183
-0.00172409
-0.0303947
-0.0480193
-0.066155
-0.0821079
-0.0892955
-0.095535
-0.0933003
-0.0849201
-0.0703003
-0.0541768
-0.0258629
-0.0028427
0.0146282
0.0238588
0.0286775
0.031768
0.0349013
0.0387307
0.0427948
0.0467338
0.0498914
0.0522484
0.0538396
0.0548241
0.0553609
0.055595
0.0556408
0.055575
0.055454
0.0553099
0.0551612
0.0550237
0.0548895
0.0547803
0.0546609
0.00533286
0.00754273
0.00981058
0.0121378
0.01449
0.0168887
0.0192821
0.0216387
0.0238841
0.0259487
0.0277426
0.0291999
0.0302788
0.0310414
0.0316285
0.0320736
0.0324783
0.0331259
0.0346195
0.0370878
0.0392208
0.0386877
0.0323462
0.0159809
-0.00565709
-0.0330895
-0.049439
-0.0684164
-0.0830014
-0.0961169
-0.101753
-0.0994048
-0.0901192
-0.0731553
-0.056991
-0.027008
-0.00583318
0.008299
0.0157515
0.0202651
0.0250178
0.0304334
0.0367101
0.0426829
0.0475758
0.051105
0.0534686
0.0548998
0.0556693
0.0560025
0.056064
0.0559746
0.0558054
0.0556066
0.0554029
0.0552071
0.0550297
0.0548595
0.0547162
0.0545618
0.00747098
0.00972455
0.0119256
0.0142085
0.0164882
0.0187965
0.0210732
0.02329
0.0253815
0.0272971
0.0289794
0.030412
0.0316229
0.0327388
0.0339609
0.0353937
0.0371009
0.0391936
0.0417614
0.0442297
0.0450242
0.0416958
0.0324454
0.0133688
-0.0105104
-0.0363581
-0.0551322
-0.0748469
-0.0932479
-0.106592
-0.111622
-0.107925
-0.0953516
-0.0750158
-0.056302
-0.0295294
-0.0120037
-0.00161904
0.00468631
0.0104466
0.0181054
0.0267358
0.0360225
0.043623
0.0490872
0.0526852
0.0548316
0.0559698
0.056459
0.056564
0.0564498
0.0562312
0.0559679
0.055701
0.0554457
0.0552092
0.0549964
0.0547928
0.0546166
0.0544287
0.00964115
0.0118251
0.0139831
0.0161995
0.0184033
0.020615
0.0227779
0.0248693
0.026837
0.0286521
0.0302924
0.0317875
0.0332154
0.0347411
0.0365746
0.0387641
0.0413094
0.0441084
0.0467537
0.048441
0.0475307
0.0416023
0.0296973
0.00888329
-0.0173036
-0.0443001
-0.0658057
-0.0886294
-0.108023
-0.120563
-0.123977
-0.115755
-0.0978987
-0.0736617
-0.0542962
-0.0356891
-0.0226464
-0.0156146
-0.00887336
-0.000210072
0.011558
0.0250485
0.037027
0.0455905
0.0511732
0.0544871
0.0562142
0.0569668
0.0571439
0.0570187
0.0567392
0.0564054
0.056062
0.0557386
0.0554409
0.0551697
0.0549251
0.0546912
0.0544824
0.0542618
0.0117339
0.0138724
0.0159684
0.0181163
0.0202384
0.0223544
0.0244128
0.0263989
0.0282758
0.0300378
0.0316969
0.0333142
0.0350008
0.0369224
0.0392358
0.0419044
0.0448378
0.0476849
0.049844
0.0503584
0.0477379
0.0396263
0.0251601
0.00202772
-0.0279146
-0.0569243
-0.0829206
-0.107638
-0.12618
-0.136702
-0.134753
-0.119459
-0.0960512
-0.0706023
-0.0570149
-0.0469257
-0.0384703
-0.0333323
-0.0237592
-0.0119706
0.00753696
0.0258415
0.0395661
0.0484425
0.0536102
0.0563224
0.0574944
0.0578214
0.0576881
0.0573498
0.0569262
0.0564972
0.0560904
0.0557232
0.055392
0.0550925
0.0548189
0.0545559
0.0543148
0.0540613
0.0137764
0.0158522
0.0178859
0.01996
0.0220002
0.0240262
0.0259934
0.0278964
0.0297149
0.031466
0.0331861
0.034955
0.0368958
0.0391325
0.0417561
0.0446353
0.0475747
0.0500708
0.0515579
0.0507083
0.046329
0.036005
0.0183885
-0.00846404
-0.0434613
-0.0752093
-0.105445
-0.129523
-0.145421
-0.150184
-0.140369
-0.118151
-0.0912966
-0.0710643
-0.0651402
-0.0645623
-0.0592011
-0.053192
-0.0384815
-0.0185337
0.00785414
0.0287264
0.0434082
0.0518219
0.0560971
0.0580093
0.0585729
0.0584852
0.0580706
0.0575505
0.0570116
0.0565108
0.0560585
0.0556603
0.0553038
0.0549804
0.05468
0.0543882
0.0541146
0.053827
0.015754
0.0177678
0.0197353
0.0217349
0.0236965
0.0256415
0.0275322
0.0293739
0.0311636
0.0329331
0.0347357
0.0366553
0.0388017
0.04124
0.0439983
0.0468519
0.0495333
0.0515961
0.052094
0.0498373
0.0434514
0.0303482
0.00843436
-0.0234759
-0.0645894
-0.09827
-0.130431
-0.150995
-0.160922
-0.156731
-0.137957
-0.112045
-0.0883748
-0.0772065
-0.0799505
-0.0885227
-0.0829643
-0.0722544
-0.0482291
-0.0160786
0.0112639
0.0338038
0.0481061
0.0552547
0.0583542
0.0594082
0.0593868
0.0589325
0.0582848
0.0576233
0.0570021
0.0564542
0.0559741
0.0555562
0.055181
0.0548367
0.0545102
0.0541888
0.0538814
0.0535581
0.0176699
0.0196183
0.0215189
0.0234463
0.0253352
0.0272087
0.0290376
0.0308386
0.0326199
0.0344233
0.0363098
0.0383495
0.0406273
0.0431434
0.0458727
0.0485194
0.0507741
0.052211
0.0514716
0.047706
0.038855
0.0220359
-0.00542457
-0.0432149
-0.0902723
-0.123369
-0.153312
-0.168379
-0.168036
-0.153971
-0.129997
-0.106013
-0.0904379
-0.0910204
-0.101355
-0.116357
-0.105704
-0.0860139
-0.0501195
-0.0130183
0.0178739
0.0404845
0.0528873
0.0583244
0.0601699
0.0604387
0.0599091
0.059158
0.0583366
0.0575788
0.0569094
0.0563381
0.0558461
0.055418
0.0550285
0.0546644
0.0543109
0.0539578
0.0536145
0.053253
0.0195223
0.0214051
0.0232406
0.0250999
0.0269221
0.0287338
0.0305154
0.0322897
0.0340738
0.0359132
0.0378647
0.0399746
0.0422989
0.0447712
0.0473375
0.0496298
0.0513453
0.0517889
0.0498555
0.0441965
0.0321914
0.0105904
-0.0232743
-0.0666749
-0.116994
-0.146318
-0.169526
-0.175389
-0.164682
-0.143919
-0.121137
-0.103278
-0.10067
-0.112819
-0.127237
-0.143095
-0.121287
-0.0907874
-0.04626
-0.00617119
0.0272812
0.0473935
0.0570932
0.0607288
0.0614293
0.0610643
0.0601409
0.0591735
0.0582415
0.0574332
0.0567481
0.0561752
0.0556845
0.0552525
0.0548506
0.0544655
0.0540824
0.0536945
0.0533124
0.0529097
0.0213123
0.0231312
0.0249044
0.0266995
0.0284614
0.0302215
0.0319653
0.0337209
0.0355102
0.0373733
0.039357
0.0414779
0.0437629
0.0460835
0.048378
0.0501833
0.0512329
0.0505839
0.0472399
0.0391831
0.0231874
-0.0039633
-0.0440943
-0.0910365
-0.139707
-0.161476
-0.174741
-0.168905
-0.15217
-0.131802
-0.113667
-0.108995
-0.11959
-0.140012
-0.153807
-0.162904
-0.123573
-0.0841466
-0.035258
0.00728956
0.0370707
0.0534809
0.0602974
0.0623921
0.0621237
0.0612912
0.0601035
0.0590024
0.0580221
0.0572069
0.0565357
0.0559791
0.0554988
0.0550659
0.0546503
0.054241
0.0538243
0.0533975
0.052973
0.0525256
0.023042
0.0247996
0.0265129
0.0282482
0.0299568
0.0316719
0.0333834
0.0351225
0.0369094
0.0387741
0.0407501
0.0428199
0.0449872
0.0470668
0.0489889
0.0502153
0.0504655
0.0486873
0.0435654
0.032578
0.0120135
-0.0206851
-0.0654544
-0.111197
-0.153743
-0.164398
-0.166249
-0.153349
-0.136462
-0.120306
-0.114924
-0.124894
-0.143729
-0.168299
-0.175627
-0.173907
-0.118726
-0.068977
-0.019134
0.0206133
0.0457889
0.0580384
0.0624048
0.0633851
0.0623333
0.061162
0.0598315
0.0586771
0.0577061
0.0569232
0.0562906
0.0557633
0.0552978
0.054863
0.0544296
0.0539906
0.0535349
0.0530643
0.0525934
0.0520974
0.0247141
0.0264123
0.0280684
0.0297491
0.0314086
0.0330825
0.0347639
0.0364815
0.0382513
0.04009
0.0420151
0.0439757
0.0459575
0.0477264
0.0491917
0.0497875
0.0491375
0.0460748
0.0389125
0.024644
-0.000440672
-0.0376729
-0.0834496
-0.121826
-0.155948
-0.154728
-0.147939
-0.134964
-0.12309
-0.117778
-0.12794
-0.145053
-0.170307
-0.191245
-0.185377
-0.166901
-0.10282
-0.049007
-0.00208171
0.0324476
0.0523928
0.0608137
0.0635413
0.0635897
0.0621194
0.0607349
0.0593682
0.0582353
0.0573252
0.0566072
0.0560313
0.0555402
0.0550887
0.0546468
0.0541885
0.0537127
0.0532114
0.0526918
0.0521702
0.0516223
0.0263302
0.027971
0.0295735
0.0312024
0.0328154
0.0344499
0.0360981
0.0377843
0.0395185
0.041301
0.0431333
0.0449353
0.0466747
0.0480843
0.0490375
0.0489642
0.04734
0.0428856
0.0335347
0.016118
-0.0134759
-0.0517769
-0.0936268
-0.121303
-0.145622
-0.13581
-0.127332
-0.120815
-0.117844
-0.125851
-0.14415
-0.169527
-0.194324
-0.202284
-0.181101
-0.149116
-0.0819341
-0.0291865
0.0130692
0.0415455
0.056434
0.0620293
0.063717
0.0630736
0.0615298
0.0600729
0.0587623
0.0577181
0.0569123
0.0562841
0.055775
0.05532
0.0548761
0.0544178
0.053925
0.053404
0.0528501
0.0522764
0.0517001
0.0510975
0.0278916
0.029478
0.0310284
0.0326072
0.0341754
0.0357685
0.0373769
0.0390194
0.0406971
0.0423937
0.0440964
0.0457009
0.0471545
0.0481752
0.0485892
0.0478212
0.0452023
0.03937
0.0279283
0.00701725
-0.0250346
-0.0592428
-0.0932411
-0.110687
-0.125607
-0.114691
-0.11229
-0.112858
-0.118853
-0.138763
-0.16567
-0.193751
-0.209517
-0.199791
-0.163541
-0.123432
-0.0614708
-0.0125021
0.0245752
0.0472561
0.0581662
0.0621995
0.0630755
0.062156
0.0606378
0.0592402
0.0580667
0.0571682
0.0565008
0.0559777
0.0555363
0.0551098
0.0546613
0.0541741
0.0536356
0.05306
0.052447
0.0518136
0.0511795
0.0505199
0.0294004
0.0309336
0.0324328
0.033963
0.0354851
0.0370324
0.038593
0.0401775
0.0417778
0.0433626
0.0449056
0.0462857
0.0474267
0.0480479
0.047922
0.0464731
0.0429286
0.035844
0.0224916
-0.00148104
-0.0292666
-0.0591118
-0.0828327
-0.0926544
-0.101259
-0.0985226
-0.100379
-0.108358
-0.128478
-0.156595
-0.18696
-0.210398
-0.210089
-0.183525
-0.140658
-0.0980812
-0.0443034
-0.000218531
0.0317471
0.0498579
0.0582679
0.0616013
0.0619653
0.060953
0.0595337
0.0583003
0.0573357
0.0566297
0.0561231
0.0557088
0.0553258
0.0549126
0.0544422
0.0539107
0.0533144
0.0526751
0.0519967
0.0513005
0.0506039
0.0498869
0.030857
0.0323375
0.0337867
0.0352675
0.0367407
0.0382371
0.0397404
0.0412527
0.0427569
0.0442098
0.0455711
0.0467124
0.0475338
0.0477637
0.0471331
0.0450759
0.0407677
0.0326698
0.0180255
-0.00254739
-0.0277696
-0.0513155
-0.0652215
-0.0716166
-0.0783954
-0.0844977
-0.0932591
-0.114447
-0.142262
-0.174794
-0.201171
-0.211214
-0.195087
-0.159807
-0.119182
-0.075867
-0.0322487
0.00733334
0.0348813
0.0502696
0.057395
0.0604601
0.0604836
0.059491
0.0582945
0.0573193
0.0566261
0.056146
0.0558081
0.0554929
0.0551484
0.054726
0.0542129
0.0536208
0.0529543
0.0522438
0.0514939
0.0507325
0.0499716
0.0491964
0.0322612
0.0336901
0.0350886
0.0365182
0.0379397
0.0393791
0.0408154
0.0422428
0.0436364
0.0449435
0.0461123
0.0470126
0.0475275
0.0474001
0.046343
0.0438146
0.0390071
0.0306628
0.0167949
-0.000223962
-0.0218236
-0.036802
-0.0446217
-0.0518005
-0.0589993
-0.0769289
-0.0962566
-0.124402
-0.156466
-0.186818
-0.202901
-0.198117
-0.172245
-0.136857
-0.104702
-0.0607704
-0.0261832
0.0108869
0.0350955
0.0496005
0.0561699
0.0587466
0.0586655
0.0578567
0.0569972
0.0563676
0.0559959
0.0557584
0.055579
0.0553379
0.055002
0.0545425
0.0539645
0.0532955
0.0525477
0.051759
0.0509348
0.0501063
0.0492806
0.0484472
0.0336138
0.0349905
0.0363374
0.0377141
0.0390801
0.0404563
0.041817
0.0431503
0.0444234