/*--------------------------------*- C++ -*----------------------------------*\
| =========                 |                                                 |
| \\      /  F ield         | OpenFOAM: The Open Source CFD Toolbox           |
|  \\    /   O peration     | Version:  2506                                  |
|   \\  /    A nd           | Website:  www.openfoam.com                      |
|    \\/     M anipulation  |                                                 |
\*---------------------------------------------------------------------------*/
FoamFile
{
    version     2.0;
    format      ascii;
    arch        "LSB;label=32;scalar=64";
    class       volVectorField;
    location    "129.99968020949075";
    object      U;
}
// * * * * * * * * * * * * * * * * * * * * * * * * * * * * * * * * * * * * * //

dimensions      [0 1 -1 0 0 0 0];

internalField   nonuniform List<vector> 
9700
(
(1.08498 0.00103257 4.29033e-22)
(1.08496 0.00330224 -1.74169e-24)
(1.08184 0.00102118 3.44526e-28)
(1.08493 0.00535516 -5.60382e-22)
(1.08184 0.0032729 -2.3586e-24)
(1.08032 0.00102374 -4.26457e-22)
(1.08491 0.00752216 -1.77362e-24)
(1.08186 0.00531833 -4.28133e-35)
(1.08032 0.0032926 -4.25483e-22)
(1.0782 0.00102449 0)
(1.08488 0.00949314 4.36476e-22)
(1.08191 0.00749359 5.7978e-24)
(1.08035 0.00535931 -3.17553e-21)
(1.07821 0.00330934 -3.51581e-23)
(1.07627 0.00102452 4.11837e-22)
(1.08488 0.0114458 4.38677e-22)
(1.08201 0.00950192 -2.70272e-27)
(1.08041 0.00757326 -4.4459e-22)
(1.07825 0.00539617 9.7935e-35)
(1.07626 0.00332606 4.19997e-22)
(1.07426 0.00101984 8.82904e-28)
(1.08491 0.0131773 -2.48593e-23)
(1.08218 0.0115315 3.44583e-27)
(1.08053 0.00964477 -4.4712e-22)
(1.07831 0.00765139 8.10338e-23)
(1.07629 0.00543237 3.04824e-21)
(1.07424 0.00332875 -7.66074e-24)
(1.07228 0.00100811 -3.91993e-22)
(1.08502 0.0147203 6.40156e-22)
(1.08249 0.0133973 1.10171e-22)
(1.08073 0.011774 -4.30711e-22)
(1.07845 0.00979324 0)
(1.07633 0.00772897 3.99438e-22)
(1.07424 0.00544379 -1.43985e-35)
(1.07224 0.00330878 -3.85082e-22)
(1.07032 0.000987247 -3.23428e-21)
(1.08525 0.0159147 5.4175e-23)
(1.08297 0.015156 -9.29332e-22)
(1.08108 0.0137914 -3.57323e-22)
(1.07867 0.0120361 0)
(1.07644 0.00994083 4.04717e-22)
(1.07425 0.00776947 1.75138e-23)
(1.07221 0.0054155 -2.68917e-25)
(1.07026 0.00325829 -3.74915e-21)
(1.0684 0.000956038 -1.01268e-24)
(1.08566 0.0166617 -5.706e-22)
(1.08374 0.0166758 -1.6982e-22)
(1.08163 0.0157765 -4.95128e-21)
(1.07905 0.0142294 -1.96683e-37)
(1.07662 0.0122976 4.48714e-22)
(1.0743 0.0100363 -7.99937e-27)
(1.07215 0.00774912 -4.30609e-22)
(1.07018 0.00533395 -5.0749e-22)
(1.06831 0.00317227 4.82268e-22)
(1.06654 0.0009142 3.07007e-21)
(1.08624 0.0167688 4.14179e-22)
(1.0849 0.017899 1.9006e-23)
(1.0825 0.0176233 1.10501e-21)
(1.07966 0.0164796 4.83845e-23)
(1.07696 0.0146672 6.01932e-22)
(1.0744 0.0124881 9.61789e-27)
(1.07211 0.0100445 -4.34719e-22)
(1.07005 0.00764672 -3.80901e-21)
(1.06819 0.00519071 4.94855e-22)
(1.06643 0.00304888 3.20068e-21)
(1.06477 0.000862432 0)
(1.08712 0.0159357 -1.8213e-23)
(1.08666 0.0186699 2.27853e-23)
(1.08381 0.0193175 3.79104e-21)
(1.08062 0.0187143 1.47992e-22)
(1.07749 0.0171844 4.83019e-21)
(1.07462 0.0150096 2.90172e-22)
(1.07209 0.0125564 -3.83028e-22)
(1.0699 0.00993475 -3.46002e-21)
(1.06798 0.00744886 1.40905e-22)
(1.06626 0.00498286 -2.49079e-25)
(1.06463 0.00288969 -2.3143e-36)
(1.0631 0.000802351 3.47246e-22)
(1.08832 0.0138866 1.87406e-21)
(1.08914 0.0187669 1.57039e-22)
(1.08579 0.0207514 -4.48238e-22)
(1.08207 0.0209753 -3.75721e-23)
(1.07836 0.0198109 -1.31021e-21)
(1.075 0.017762 -3.12698e-23)
(1.07213 0.0151833 -1.57189e-22)
(1.06973 0.0124588 -3.52188e-21)
(1.06772 0.00968743 2.21564e-27)
(1.06597 0.00715077 3.18843e-21)
(1.06443 0.00471345 6.1567e-36)
(1.06295 0.00269955 3.64591e-22)
(1.06156 0.000736369 1.70121e-27)
(1.08977 0.0102841 2.57369e-23)
(1.09244 0.0180116 1.82869e-34)
(1.08857 0.021799 -4.35854e-22)
(1.08428 0.0232169 -5.71051e-23)
(1.0797 0.0226463 -3.8464e-21)
(1.07565 0.0207381 -3.38068e-22)
(1.07227 0.0181076 -4.80866e-21)
(1.06955 0.0151267 -4.02067e-21)
(1.06737 0.0121672 -2.74613e-27)
(1.06559 0.00929571 3.23091e-21)
(1.06407 0.00675693 -2.33208e-36)
(1.06271 0.00439113 2.32653e-25)
(1.06139 0.0024862 -1.64553e-23)
(1.06015 0.00066754 -3.13086e-22)
(1.09217 0.00382874 9.914e-22)
(1.097 0.0162168 -3.08841e-22)
(1.09222 0.0223849 -5.79623e-21)
(1.08736 0.0254273 5.74815e-23)
(1.08176 0.0257174 4.64781e-22)
(1.07669 0.0240928 2.7023e-23)
(1.07258 0.0213462 -4.13552e-21)
(1.06938 0.0181347 -3.57879e-21)
(1.06695 0.0148003 8.63973e-22)
(1.06507 0.0116717 3.3792e-21)
(1.06358 0.00876613 0)
(1.0623 0.00628059 2.99416e-22)
(1.06114 0.00402951 -1.56892e-35)
(1.05998 0.00225979 -2.96602e-22)
(1.05887 0.000599289 -3.96513e-22)
(1.09709 -0.00743678 8.09717e-22)
(1.10404 0.0119994 -4.72207e-23)
(1.09755 0.0224148 -3.13431e-22)
(1.09134 0.0276519 2.33882e-34)
(1.08462 0.0291328 4.6179e-22)
(1.07834 0.0279182 1.71484e-23)
(1.07315 0.0250987 3.88998e-21)
(1.06927 0.0215133 -4.40616e-21)
(1.06645 0.017788 2.93242e-21)
(1.06442 0.0141904 3.85053e-21)
(1.06291 0.0109814 0)
(1.06173 0.00811782 3.02142e-22)
(1.06069 0.0057426 3.889e-23)
(1.05972 0.00364627 -2.34724e-21)
(1.05871 0.00203197 -8.27956e-22)
(1.05773 0.000535082 -2.82938e-28)
(1.1036 -0.0257692 -1.84154e-21)
(1.11749 0.00282849 0)
(1.10816 0.0208085 6.38244e-22)
(1.09744 0.0299762 -5.74901e-22)
(1.08822 0.0330605 6.83259e-21)
(1.08062 0.0324359 -1.37133e-23)
(1.07415 0.0295081 -4.94375e-22)
(1.06925 0.0254932 -1.20665e-22)
(1.06587 0.0211628 3.75765e-21)
(1.06359 0.0170485 -7.32508e-23)
(1.06205 0.0133098 -1.59635e-35)
(1.06094 0.0101231 4.16374e-22)
(1.06007 0.00738084 -1.86906e-26)
(1.05926 0.00517014 -3.71226e-22)
(1.05846 0.00326154 -3.98098e-22)
(1.05759 0.00181478 3.15668e-22)
(1.05671 0.000478258 3.69141e-22)
(1.10278 -0.0519823 -3.71562e-21)
(1.1361 -0.0147114 -2.14632e-21)
(1.12694 0.0147487 -2.1546e-22)
(1.11032 0.0316687 0)
(1.09405 0.0377963 5.67937e-22)
(1.08336 0.0379013 1.13352e-34)
(1.07552 0.0348867 -4.95e-22)
(1.06941 0.0302438 -4.65061e-21)
(1.06519 0.0251694 -3.04194e-21)
(1.06254 0.0202691 4.69298e-22)
(1.06091 0.0159348 -7.04064e-22)
(1.05991 0.0121965 9.08549e-22)
(1.05921 0.00913899 2.37777e-26)
(1.05863 0.00659404 -3.7245e-22)
(1.05802 0.00459414 -4.07594e-22)
(1.05736 0.00289597 2.53037e-21)
(1.05659 0.00161999 3.84912e-22)
(1.0558 0.000431715 -3.49701e-22)
(1.08745 -0.0824024 1.12062e-20)
(1.14493 -0.0400593 6.75086e-21)
(1.14963 0.00188784 -4.67718e-21)
(1.13388 0.0306525 -9.25437e-35)
(1.10772 0.0431997 2.26967e-21)
(1.08802 0.0447799 5.77499e-22)
(1.07695 0.0415329 -3.82109e-21)
(1.06965 0.0361386 -5.01522e-21)
(1.06444 0.0299762 -6.53964e-22)
(1.06121 0.0240945 3.68315e-21)
(1.05945 0.0188597 7.93461e-22)
(1.05853 0.0144994 3.95724e-21)
(1.05806 0.0109089 7.88082e-22)
(1.05774 0.00808332 -2.54485e-22)
(1.05741 0.00580158 -3.95618e-22)
(1.05696 0.00404646 2.40966e-22)
(1.05641 0.00256972 -2.05665e-21)
(1.05571 0.001458 -7.31921e-22)
(1.05498 0.000397628 -2.44787e-28)
(1.05843 -0.115295 1.62376e-21)
(1.13395 -0.0709212 6.44385e-21)
(1.16326 -0.0174256 5.70976e-21)
(1.16274 0.0245148 4.56257e-36)
(1.13373 0.0481786 -1.01774e-21)
(1.10065 0.0536583 4.89159e-22)
(1.07963 0.0500081 -5.10239e-22)
(1.06954 0.0434801 -7.31789e-22)
(1.06344 0.0359859 1.12521e-21)
(1.05955 0.0286642 4.01716e-21)
(1.05754 0.0223098 9.47595e-22)
(1.05673 0.0170093 2.65296e-21)
(1.05653 0.0128231 -9.6031e-23)
(1.05655 0.00952175 2.77464e-22)
(1.05655 0.00701757 -3.9489e-22)
(1.05641 0.00504872 3.16453e-27)
(1.05607 0.00355813 3.10659e-22)
(1.05558 0.00230045 -3.48442e-22)
(1.05492 0.00133677 1.87858e-23)
(1.05421 0.000377308 3.22437e-22)
(1.00582 -0.149408 -4.67577e-20)
(1.10445 -0.106214 -2.20117e-20)
(1.15645 -0.042283 -1.59625e-20)
(1.18226 0.0133445 -1.70368e-35)
(1.16637 0.0510022 -7.40873e-21)
(1.12648 0.0647553 -2.1997e-25)
(1.08941 0.0615215 8.65708e-22)
(1.06973 0.052832 -5.96839e-21)
(1.06171 0.0434754 5.68652e-22)
(1.05734 0.0343786 4.46923e-21)
(1.05506 0.0263736 -1.039e-21)
(1.05436 0.0199215 -3.30634e-21)
(1.05451 0.01483 -1.25716e-21)
(1.05496 0.011008 -3.66834e-21)
(1.05539 0.00811932 -6.98914e-22)
(1.05563 0.0060048 -4.031e-27)
(1.05561 0.00437948 3.07035e-22)
(1.05533 0.00315646 -3.44591e-22)
(1.05484 0.00210166 6.96714e-35)
(1.05419 0.00126143 4.71132e-22)
(1.05347 0.000370987 3.45129e-24)
(0.943067 -0.181778 -5.9064e-22)
(1.05631 -0.144071 -1.39307e-21)
(1.13129 -0.0728871 8.74736e-21)
(1.18113 -0.00385945 0)
(1.18985 0.0503037 3.68576e-21)
(1.16074 0.0771084 -7.46414e-21)
(1.11236 0.0776566 5.03771e-22)
(1.0753 0.0657412 -6.01241e-21)
(1.05928 0.0529374 3.62082e-22)
(1.05408 0.0414634 1.65413e-22)
(1.05178 0.0314214 -4.28095e-36)
(1.05125 0.0232601 3.72639e-22)
(1.05184 0.0170852 1.36372e-22)
(1.05285 0.012462 1.31512e-22)
(1.05385 0.00916835 -1.9633e-21)
(1.05459 0.00678748 3.90399e-22)
(1.05497 0.00510633 4.15247e-22)
(1.05499 0.00383261 -3.39311e-22)
(1.05469 0.00286244 -4.35998e-23)
(1.05417 0.00198196 3.20364e-22)
(1.05348 0.0012336 1.60498e-23)
(1.05273 0.000377721 -2.82605e-21)
(0.872752 -0.20964 -1.13952e-21)
(0.991528 -0.183508 8.95305e-21)
(1.08488 -0.107208 3.40434e-20)
(1.16042 -0.0273041 -1.85411e-35)
(1.19457 0.0425083 -2.26713e-21)
(1.18959 0.0879838 1.9521e-20)
(1.14554 0.0981608 -7.75442e-21)
(1.09303 0.0850133 -1.04914e-21)
(1.05995 0.0658684 -1.7796e-27)
(1.04927 0.050314 5.28977e-21)
(1.04718 0.0376002 -2.0301e-35)
(1.04711 0.0273448 6.11086e-22)
(1.0483 0.0195441 1.61061e-22)
(1.05007 0.0139913 2.79386e-21)
(1.0518 0.0100596 1.01279e-21)
(1.05319 0.00742022 2.1879e-21)
(1.0541 0.00560952 9.12174e-22)
(1.05452 0.00437626 -3.32907e-22)
(1.05449 0.00343796 2.65806e-27)
(1.05412 0.00268954 7.8556e-22)
(1.05352 0.00194389 7.48516e-22)
(1.05278 0.00125113 -3.16009e-21)
(1.05197 0.000395489 -8.38194e-25)
(0.800291 -0.231542 -5.20014e-21)
(0.914816 -0.221252 6.06191e-22)
(1.02119 -0.144222 -8.00924e-21)
(1.11744 -0.0552674 -2.39217e-35)
(1.17977 0.0291221 1.87509e-20)
(1.19793 0.0914531 1.8568e-20)
(1.17709 0.119798 -5.55036e-21)
(1.12248 0.111462 -9.76616e-21)
(1.07059 0.0858778 -6.34438e-21)
(1.04519 0.0620163 5.67719e-21)
(1.04052 0.0452342 -2.63711e-35)
(1.04149 0.0322165 3.40149e-21)
(1.04361 0.0224624 1.14545e-21)
(1.04635 0.0154873 -3.9144e-22)
(1.04908 0.0108467 -7.67994e-22)
(1.05133 0.00777881 -7.15452e-22)
(1.05295 0.00587628 -9.50318e-23)
(1.05388 0.00465895 -5.74911e-22)
(1.05422 0.00385665 -3.32544e-27)
(1.05407 0.00321481 3.0954e-22)
(1.05358 0.00264198 -3.64046e-23)
(1.05287 0.00198349 -2.96924e-22)
(1.05204 0.00130827 1.28546e-22)
(1.05117 0.000421384 2.63717e-21)
(0.732059 -0.247295 -2.3318e-23)
(0.834277 -0.256329 3.35571e-22)
(0.944198 -0.18068 8.00855e-21)
(1.0554 -0.0877547 -9.57234e-35)
(1.14063 0.0115012 -1.17876e-20)
(1.1885 0.0898263 -7.08519e-20)
(1.19457 0.137326 1.30991e-20)
(1.15348 0.142168 -1.71388e-21)
(1.0934 0.115419 -2.54558e-21)
(1.04778 0.0802811 7.37435e-21)
(1.03259 0.0548168 0)
(1.03357 0.0381746 3.2361e-22)
(1.03731 0.0257561 1.1942e-34)
(1.04145 0.0171324 -1.47661e-22)
(1.04545 0.011368 -1.84466e-21)
(1.04887 0.00785847 -2.08249e-21)
(1.0514 0.00576963 -2.73412e-23)
(1.05305 0.00463642 -1.54341e-21)
(1.05386 0.00399323 8.4756e-23)
(1.05402 0.00357497 3.01606e-22)
(1.05368 0.00316939 -3.55988e-23)
(1.05302 0.00271397 -2.94801e-21)
(1.05217 0.00209058 2.48314e-21)
(1.05125 0.00139591 2.76238e-21)
(1.0503 0.000451919 2.69955e-22)
(0.682268 -0.256176 -2.97202e-20)
(0.756911 -0.286028 4.26516e-21)
(0.862569 -0.217218 -5.96011e-20)
(0.978468 -0.120478 -1.8384e-20)
(1.08157 -0.0119757 -2.31203e-20)
(1.15407 0.0847278 -6.97644e-21)
(1.18554 0.149632 2.23093e-20)
(1.17263 0.17324 -2.07351e-20)
(1.12093 0.152873 4.94863e-21)
(1.06143 0.1091 7.64979e-21)
(1.02761 0.0694313 2.31975e-35)
(1.02311 0.0451612 -1.26544e-21)
(1.02872 0.0297233 -1.52778e-21)
(1.03487 0.0187182 -5.27514e-21)
(1.04067 0.0117226 -2.21832e-21)
(1.04556 0.00745984 -2.20928e-22)
(1.04937 0.00522596 1.99441e-21)
(1.05193 0.00416528 8.58104e-22)
(1.0534 0.00377965 1.00731e-22)
(1.05395 0.00365039 5.15513e-22)
(1.05383 0.00354065 4.33742e-23)
(1.05325 0.00329373 -2.7801e-21)
(1.0524 0.00289007 -2.90181e-22)
(1.05141 0.00224929 1.50827e-21)
(1.0504 0.00150234 3.3551e-22)
(1.04937 0.000483349 1.60908e-28)
(0.649074 -0.261046 -1.92609e-20)
(0.699774 -0.305349 5.00418e-21)
(0.782009 -0.250231 -8.02685e-23)
(0.895948 -0.156379 1.60946e-25)
(1.00702 -0.036742 1.67057e-21)
(1.09901 0.0735126 3.22865e-20)
(1.15543 0.157302 -1.94149e-20)
(1.17001 0.199814 -2.67715e-20)
(1.14073 0.193722 1.59629e-20)
(1.08249 0.148925 9.48237e-22)
(1.03084 0.0936736 -4.27729e-35)
(1.01232 0.0552378 -6.99963e-22)
(1.01703 0.033929 -6.47418e-22)
(1.02612 0.020521 -6.66163e-22)
(1.03423 0.0116022 -3.92996e-22)
(1.04123 0.00658678 4.53413e-22)
(1.04662 0.0040232 2.42233e-22)
(1.05046 0.00312749 -5.90123e-22)
(1.05278 0.00307194 -4.34142e-36)
(1.05389 0.00335946 1.73655e-21)
(1.05406 0.00364435 3.68989e-22)
(1.05359 0.00374332 -2.71202e-21)
(1.05273 0.00356606 6.99536e-27)
(1.05168 0.00314586 2.50933e-21)
(1.05056 0.00243926 -3.79325e-21)
(1.04946 0.00161422 -1.13912e-22)
(1.04838 0.000511878 -2.52217e-22)
(0.622106 -0.265086 -1.47479e-22)
(0.662163 -0.317441 1.62461e-20)
(0.72142 -0.274688 -1.74237e-20)
(0.811655 -0.18791 3.04255e-21)
(0.924836 -0.0676287 3.4537e-20)
(1.02812 0.0593206 2.34084e-21)
(1.10491 0.159806 -2.71154e-20)
(1.1447 0.220402 -3.23837e-20)
(1.1425 0.232205 1.69018e-20)
(1.10068 0.195412 2.50954e-20)
(1.04249 0.130525 -2.32705e-38)
(1.00572 0.0723039 2.42159e-21)
(1.00285 0.0394989 1.43807e-25)
(1.01419 0.0219107 -3.08558e-21)
(1.02581 0.011205 1.43896e-21)
(1.03535 0.00487081 1.97416e-21)
(1.04302 0.00206135 4.52342e-22)
(1.04846 0.00129079 -1.43834e-21)
(1.05199 0.00170785 -1.36567e-22)
(1.05382 0.00256317 6.42157e-22)
(1.05439 0.00339713 -2.61598e-21)
(1.05408 0.00396219 -3.3687e-21)
(1.05322 0.00415311 -8.22212e-27)
(1.05209 0.00395166 2.63104e-21)
(1.05085 0.0034499 1.25264e-22)
(1.04962 0.00263753 1.31138e-34)
(1.04845 0.00171771 -1.88663e-22)
(1.04733 0.000533935 0)
(0.602401 -0.269533 3.97958e-21)
(0.633599 -0.32744 -3.03749e-20)
(0.680875 -0.292154 7.76383e-20)
(0.746899 -0.212802 2.26831e-20)
(0.838147 -0.0923241 -7.94784e-21)
(0.946449 0.0383051 1.87484e-21)
(1.03771 0.15784 3.75777e-21)
(1.09852 0.23634 -2.89445e-20)
(1.12205 0.265509 -3.06712e-20)
(1.10483 0.242741 4.12613e-20)
(1.05556 0.177522 0)
(1.00619 0.101358 7.5154e-21)
(0.988782 0.0486455 2.5472e-21)
(0.998905 0.0234438 9.4996e-22)
(1.01436 0.00983515 -3.99305e-22)
(1.02772 0.00236548 -6.44553e-23)
(1.03809 -0.00105077 -1.23889e-21)
(1.04585 -0.00154779 -1.5997e-21)
(1.05089 -0.000545634 -1.56806e-22)
(1.05376 0.00107084 2.86052e-24)
(1.05487 0.00267088 -8.68399e-22)
(1.05478 0.00387764 -1.45976e-21)
(1.05393 0.00456419 4.63953e-22)
(1.05268 0.00472167 2.59119e-21)
(1.05129 0.00440553 2.65919e-22)
(1.0499 0.00376648 2.46628e-22)
(1.04859 0.0028202 1.37247e-21)
(1.04738 0.00179971 1.49917e-22)
(1.04624 0.000546487 -2.20849e-21)
(0.590893 -0.276081 -6.98048e-21)
(0.61519 -0.335981 3.35968e-22)
(0.649401 -0.307034 2.94559e-20)
(0.703151 -0.23149 -3.12269e-20)
(0.770291 -0.115971 2.67991e-20)
(0.860516 0.0240243 -1.7277e-23)
(0.957712 0.150621 1.79986e-20)
(1.03489 0.247369 -4.67153e-20)
(1.08022 0.293727 -3.67947e-20)
(1.08883 0.286551 6.8119e-20)
(1.05979 0.229305 -2.67364e-36)
(1.01081 0.142575 -1.80165e-20)
(0.978508 0.0668945 -3.73626e-21)
(0.980727 0.0255086 2.62412e-21)
(0.999571 0.0077769 4.54229e-21)
(1.01733 -0.00160866 2.74864e-21)
(1.0317 -0.00545268 -7.98259e-23)
(1.04221 -0.00578159 -1.60275e-22)
(1.04946 -0.00398071 1.37743e-22)
(1.05365 -0.00134354 -6.08487e-22)
(1.05555 0.00126636 -1.23198e-21)
(1.05576 0.00337897 -6.89168e-22)
(1.05492 0.00474897 2.4125e-21)
(1.05353 0.00538476 2.49583e-21)
(1.05192 0.00538572 2.63657e-22)
(1.05032 0.0048764 -1.45717e-27)
(1.04882 0.00405844 -3.92225e-22)
(1.04747 0.0029648 -1.08436e-21)
(1.04626 0.00184917 -2.25608e-21)
(1.04513 0.000547303 -8.08431e-25)
(0.595512 -0.2846 -3.29669e-21)
(0.607536 -0.344039 -1.8504e-21)
(0.627933 -0.319861 -7.90375e-21)
(0.66879 -0.247412 7.47317e-20)
(0.724562 -0.134919 8.97423e-21)
(0.791152 0.00257137 -1.29821e-20)
(0.872724 0.146213 0)
(0.958799 0.253724 3.08562e-20)
(1.02078 0.316549 -3.59294e-20)
(1.05196 0.324893 1.83575e-20)
(1.0475 0.280001 7.09953e-34)
(1.01178 0.192563 2.9417e-22)
(0.972566 0.0965806 -1.59009e-21)
(0.962497 0.0325657 -4.54525e-21)
(0.980447 0.00425205 -7.60664e-22)
(1.00399 -0.00698948 -1.26946e-21)
(1.0229 -0.0117674 -2.37919e-21)
(1.03747 -0.0117525 1.47427e-21)
(1.04741 -0.00899021 9.16358e-36)
(1.05354 -0.00503522 -5.14943e-22)
(1.05646 -0.0010263 -2.04366e-23)
(1.05712 0.00228044 -2.1508e-22)
(1.05632 0.00462102 -2.08407e-21)
(1.05473 0.00592256 2.04488e-21)
(1.05283 0.00633697 6.22442e-22)
(1.05093 0.00607283 1.66775e-27)
(1.04918 0.00531072 -2.53656e-22)
(1.04764 0.00429076 2.74722e-22)
(1.0463 0.00305236 7.60452e-22)
(1.04511 0.00185796 -5.29391e-23)
(1.04404 0.000535198 2.02797e-21)
(0.606752 -0.295196 5.83851e-22)
(0.610389 -0.351323 -2.03019e-20)
(0.617013 -0.330668 1.64254e-21)
(0.644843 -0.261129 -2.71568e-20)
(0.687491 -0.150737 7.15729e-20)
(0.744074 -0.014939 2.26083e-21)
(0.807093 0.129508 -7.53669e-21)
(0.878718 0.257569 8.70088e-21)
(0.949734 0.334242 -6.71307e-20)
(0.997481 0.357053 2.33508e-20)
(1.01604 0.325782 1.26642e-34)
(1.00122 0.245154 3.18335e-20)
(0.966661 0.137533 -2.17193e-22)
(0.946414 0.0476445 8.61333e-21)
(0.958307 0.00184176 2.10973e-21)
(0.986114 -0.0148583 1.44972e-22)
(1.01163 -0.020242 6.66514e-23)
(1.03082 -0.0200479 -6.04964e-24)
(1.04468 -0.01609 -1.71224e-22)
(1.05326 -0.0103983 7.0904e-23)
(1.05771 -0.00459123 6.7829e-23)
(1.05899 0.000400816 -1.78849e-21)
(1.05826 0.00403057 1.7412e-21)
(1.05641 0.00627964 1.73099e-21)
(1.05411 0.0072791 2.50239e-22)
(1.0518 0.00732037 -3.72187e-23)
(1.0497 0.00670704 -2.5492e-22)
(1.0479 0.005658 0)
(1.04638 0.00443402 -2.31481e-21)
(1.0451 0.00306905 -9.56035e-22)
(1.04398 0.00182163 2.0374e-21)
(1.04297 0.000510142 -1.93237e-21)
(0.626343 -0.30815 1.9471e-21)
(0.623923 -0.357659 1.58211e-21)
(0.617266 -0.339626 7.45808e-21)
(0.631798 -0.272445 4.72171e-20)
(0.660481 -0.163917 -5.33747e-20)
(0.704158 -0.0295479 -6.17211e-20)
(0.759179 0.116231 -1.14496e-20)
(0.814555 0.251087 -5.2527e-21)
(0.874371 0.348103 1.37722e-20)
(0.931261 0.383505 2.10044e-20)
(0.967462 0.364901 -2.30915e-20)
(0.974732 0.295003 -6.55875e-21)
(0.954487 0.185226 -7.63928e-22)
(0.931272 0.0734166 -4.58508e-22)
(0.935191 0.00286769 4.6239e-22)
(0.963792 -0.0243711 1.12351e-21)
(0.996256 -0.0317574 2.90757e-21)
(1.02216 -0.031253 -1.18155e-21)
(1.04069 -0.025892 1.51932e-21)
(1.05286 -0.0180766 7.60285e-22)
(1.0593 -0.00981479 3.23842e-22)
(1.06154 -0.00263452 -1.39277e-21)
(1.06093 0.00283949 -2.72822e-22)
(1.05874 0.00636222 2.42562e-21)
(1.05591 0.00819304 2.19221e-21)
(1.05303 0.00867918 -3.62679e-23)
(1.05045 0.00822903 1.0617e-22)
(1.04827 0.00721673 0)
(1.0465 0.00587591 -2.33419e-21)
(1.04508 0.00446687 -4.5652e-22)
(1.04391 0.00300743 1.17513e-21)
(1.04288 0.00173976 -1.90665e-21)
(1.04197 0.000473214 -8.58904e-25)
(0.657006 -0.322005 4.07924e-21)
(0.647055 -0.363352 3.22746e-20)
(0.628153 -0.346544 -1.03498e-20)
(0.629559 -0.281328 2.69301e-20)
(0.644262 -0.174218 -9.00013e-20)
(0.673955 -0.0414253 -1.21664e-22)
(0.71716 0.104554 2.24837e-20)
(0.767196 0.243928 9.08049e-21)
(0.81185 0.352792 -1.67251e-20)
(0.85977 0.404752 1.35678e-20)
(0.907274 0.39727 4.39461e-25)
(0.932655 0.338751 8.59601e-21)
(0.931041 0.233963 8.3304e-21)
(0.913601 0.108538 -1.31728e-20)
(0.911255 0.0108611 -3.74965e-22)
(0.937984 -0.0344405 -2.52175e-21)
(0.976252 -0.0465519 5.75167e-22)
(1.01007 -0.046027 4.50821e-22)
(1.03525 -0.0392564 -8.22888e-26)
(1.05195 -0.0287486 -1.53797e-22)
(1.06139 -0.0174182 -4.0266e-23)
(1.06495 -0.00717795 1.50412e-23)
(1.0646 0.000724933 1.59208e-23)
(1.062 0.00608971 2.00416e-21)
(1.05842 0.00905529 -2.32885e-21)
(1.05478 0.010169 3.50912e-36)
(1.05151 0.00997477 1.91572e-22)
(1.04882 0.00896274 2.28207e-22)
(1.04669 0.00754199 -2.30819e-21)
(1.04506 0.00593391 6.9211e-27)
(1.04378 0.00437798 2.1975e-21)
(1.04276 0.00286708 6.64372e-22)
(1.04186 0.00161585 1.31156e-22)
(1.04106 0.000426491 1.73836e-21)
(0.6972 -0.335274 -2.77993e-21)
(0.678942 -0.368269 -4.58391e-21)
(0.648709 -0.351502 -6.80573e-21)
(0.637606 -0.28736 9.40194e-20)
(0.638682 -0.181401 2.6549e-21)
(0.654492 -0.050199 2.90516e-20)
(0.68435 0.0949435 5.50344e-21)
(0.725045 0.236914 -3.20365e-20)
(0.766977 0.352193 -3.88689e-21)
(0.80078 0.416628 6.30179e-21)
(0.841777 0.421962 2.21027e-20)
(0.879316 0.375468 -4.82409e-20)
(0.894865 0.278728 1.32338e-21)
(0.889813 0.148766 -5.37343e-21)
(0.885637 0.0276178 3.6231e-21)
(0.908643 -0.0424808 2.77177e-21)
(0.951442 -0.0645799 3.16827e-22)
(0.993764 -0.0651199 -2.07837e-21)
(1.02712 -0.0568274 1.2346e-34)
(1.05032 -0.0434569 3.65839e-21)
(1.06382 -0.0281216 -2.04071e-23)
(1.06953 -0.0139725 2.6615e-22)
(1.06962 -0.00259339 -5.43503e-22)
(1.06648 0.00523561 1.99492e-21)
(1.06195 0.00985579 2.85103e-22)
(1.05722 0.0118424 1.77354e-23)
(1.05302 0.012001 2.25187e-21)
(1.0496 0.0110256 -6.14349e-22)
(1.04697 0.00943786 -2.12752e-21)
(1.04503 0.00764003 -8.44206e-27)
(1.04361 0.00581623 2.11949e-21)
(1.04253 0.00416706 -2.16658e-21)
(1.04168 0.00265442 3.45722e-35)
(1.04092 0.00145707 1.85333e-21)
(1.04024 0.000372824 0)
(0.758174 -0.350614 -1.58541e-21)
(0.718173 -0.372305 -4.06748e-20)
(0.677925 -0.354096 -2.41702e-20)
(0.654691 -0.2901 1.64091e-21)
(0.642975 -0.185455 7.87649e-20)
(0.645612 -0.055547 -6.40947e-20)
(0.661923 0.0880581 -1.50407e-20)
(0.691152 0.230399 -4.52874e-20)
(0.726993 0.350852 -2.44854e-20)
(0.759774 0.422173 1.58956e-20)
(0.787547 0.436275 -2.50802e-21)
(0.820859 0.403441 -2.55014e-21)
(0.847781 0.31753 2.22499e-21)
(0.857637 0.188581 5.71223e-22)
(0.858016 0.051482 -8.33666e-22)
(0.87676 -0.045304 0)
(0.92123 -0.0844353 -9.12525e-22)
(0.972248 -0.0890565 -6.84544e-22)
(1.01545 -0.0796945 2.04563e-22)
(1.04693 -0.063041 -1.01986e-21)
(1.06648 -0.0430843 -2.45846e-21)
(1.07532 -0.0236696 7.65076e-22)
(1.07641 -0.00780752 1.29063e-21)
(1.07271 0.00362781 -3.3969e-23)
(1.06684 0.0105036 1.95925e-22)
(1.06066 0.0137672 -5.57485e-24)
(1.05514 0.0144331 2.17165e-22)
(1.05071 0.0134924 6.12707e-23)
(1.04738 0.0117148 -2.35707e-22)
(1.04501 0.00959518 3.16139e-22)
(1.04336 0.00748925 2.15117e-21)
(1.04221 0.0055231 -2.00979e-21)
(1.04137 0.0038444 -3.13248e-22)
(1.04071 0.00238208 -5.94402e-22)
(1.0401 0.00127348 -4.40014e-23)
(1.03954 0.000315573 -1.64164e-22)
(0.840263 -0.363038 8.44004e-22)
(0.7765 -0.37528 5.89516e-21)
(0.714008 -0.353617 -8.35649e-21)
(0.679552 -0.289031 -7.8363e-20)
(0.655379 -0.185624 1.35266e-19)
(0.646279 -0.0576151 -1.47222e-20)
(0.649891 0.0843392 -2.13099e-22)
(0.666779 0.225479 4.90987e-21)
(0.694266 0.348015 3.49152e-20)
(0.723429 0.426135 -4.80314e-21)
(0.750406 0.444255 1.89412e-20)
(0.772308 0.423511 -8.59325e-21)
(0.79592 0.346845 2.01688e-20)
(0.815858 0.225427 2.23384e-20)
(0.826408 0.0783066 -8.0949e-21)
(0.843237 -0.0425848 3.35365e-22)
(0.886433 -0.103997 8.17243e-21)
(0.944537 -0.117012 7.85692e-22)
(0.998638 -0.108626 4.71409e-22)
(1.04093 -0.0890741 4.2635e-21)
(1.06869 -0.0634855 -1.58712e-21)
(1.08251 -0.0375319 -4.00594e-21)
(1.08526 -0.0153398 -3.76972e-21)
(1.08113 0.000739649 -7.62286e-23)
(1.07369 0.0109533 -2.19455e-22)
(1.06547 0.0160058 3.4981e-22)
(1.05814 0.0174147 -3.23319e-22)
(1.05228 0.0165496 -2.69234e-21)
(1.04799 0.0144796 -4.01128e-21)
(1.045 0.0119606 -9.71726e-22)
(1.04303 0.00940582 2.24451e-21)
(1.04176 0.0070911 -2.03382e-21)
(1.04093 0.00507018 7.94199e-27)
(1.04034 0.00342999 1.59655e-21)
(1.03987 0.00206766 2.87987e-35)
(1.0394 0.00107703 -9.21734e-23)
(1.03896 0.000258377 -1.63262e-28)
(0.926207 -0.368871 6.00719e-20)
(0.850609 -0.374446 1.03721e-20)
(0.767266 -0.347867 1.52183e-20)
(0.70998 -0.283429 -4.30879e-24)
(0.674883 -0.181726 -3.39484e-20)
(0.653961 -0.0554813 5.22919e-20)
(0.647147 0.0839849 5.56149e-20)
(0.652252 0.222817 -5.9051e-20)
(0.669942 0.344872 7.16553e-20)
(0.694089 0.427522 7.21779e-21)
(0.717637 0.449439 -7.02362e-21)
(0.739542 0.436392 1.76239e-21)
(0.753467 0.370721 -3.99122e-20)
(0.770548 0.251513 -1.86951e-21)
(0.788236 0.107873 -2.57206e-21)
(0.807663 -0.0356516 6.54109e-21)
(0.848164 -0.120641 -5.93229e-21)
(0.910105 -0.148431 -2.17417e-20)
(0.975172 -0.143094 -3.38732e-21)
(1.03004 -0.122494 1.3904e-21)
(1.06962 -0.091643 3.99856e-22)
(1.09114 -0.0571474 1.01469e-20)
(1.09695 -0.0265645 1.52182e-21)
(1.09234 -0.00350889 -7.30648e-23)
(1.08289 0.0109967 3.63239e-22)
(1.07222 0.0186701 6.52801e-35)
(1.06235 0.0211574 -3.34691e-22)
(1.05452 0.0204028 -1.6217e-23)
(1.04884 0.0179615 -2.19626e-22)
(1.04502 0.0148491 2.19059e-21)
(1.0426 0.0117245 3.26263e-22)
(1.04115 0.0088736 -2.1336e-21)
(1.04031 0.00646889 -1.00403e-26)
(1.03982 0.00448691 1.77197e-21)
(1.03946 0.00295136 1.03499e-22)
(1.03917 0.00173194 5.26163e-22)
(1.03883 0.000880584 1.24193e-23)
(1.0385 0.00020493 1.46315e-22)
(1.00601 -0.362123 3.57486e-21)
(0.920655 -0.36142 -7.43803e-22)
(0.832241 -0.331874 2.92428e-20)
(0.754444 -0.27047 2.31495e-20)
(0.698913 -0.172624 -1.24329e-20)
(0.668607 -0.0494361 2.75649e-20)
(0.650316 0.0873111 4.10697e-20)
(0.647289 0.223083 4.10886e-20)
(0.654719 0.342339 1.17583e-20)
(0.672546 0.426603 6.9631e-21)
(0.691805 0.452194 -1.24182e-21)
(0.710591 0.445038 1.37033e-20)
(0.725866 0.387607 -2.01901e-20)
(0.735236 0.276439 2.16558e-21)
(0.748209 0.125402 5.69484e-20)
(0.770525 -0.0198679 2.88754e-20)
(0.807149 -0.135235 1.57736e-20)
(0.870484 -0.179559 3.23727e-21)
(0.943436 -0.182093 8.25406e-22)
(1.01146 -0.162601 -1.55491e-21)
(1.06574 -0.128367 -3.31148e-35)
(1.10007 -0.0857298 -9.72264e-21)
(1.11257 -0.0434736 -3.24322e-21)
(1.10814 -0.0105199 1.1878e-21)
(1.09539 0.0109029 2.43568e-21)
(1.08114 0.0219255 -1.68906e-21)
(1.06826 0.0259389 4.47149e-21)
(1.05768 0.0253909 2.21565e-22)
(1.05007 0.0224035 -3.00725e-21)
(1.04506 0.018511 -3.37073e-22)
(1.04202 0.0145502 -7.42404e-22)
(1.04031 0.0110146 -8.05318e-22)
(1.03946 0.00803308 6.24846e-22)
(1.03907 0.00566532 1.77111e-21)
(1.03889 0.00381343 0)
(1.03876 0.00244083 -3.28924e-22)
(1.03861 0.00139716 -1.32622e-21)
(1.03838 0.000696985 1.08235e-22)
(1.03813 0.00015867 1.38442e-22)
(1.0672 -0.337498 1.34122e-21)
(0.976227 -0.331356 1.99871e-21)
(0.891469 -0.302387 -3.59396e-20)
(0.8086 -0.247221 2.49545e-25)
(0.73488 -0.156252 2.14008e-20)
(0.686945 -0.0379153 4.48825e-21)
(0.660974 0.093706 -2.07743e-20)
(0.647986 0.225407 9.38668e-20)
(0.648791 0.340824 -3.62285e-20)
(0.659629 0.42373 7.31025e-21)
(0.673996 0.452817 3.0137e-22)
(0.68842 0.449831 1.66916e-21)
(0.702378 0.398607 1.39606e-20)
(0.713292 0.294788 -5.79129e-20)
(0.720182 0.149253 -9.25687e-21)
(0.732435 -0.0160722 -2.57657e-20)
(0.76793 -0.139533 -2.16953e-20)
(0.825924 -0.210999 -3.44274e-20)
(0.904554 -0.22282 1.67963e-21)
(0.982905 -0.206906 4.1946e-20)
(1.0522 -0.172273 -7.76133e-21)
(1.10364 -0.123127 -1.09359e-20)
(1.12976 -0.0699671 -8.4162e-21)
(1.13069 -0.0226279 4.02072e-21)
(1.11433 0.00949428 -9.86788e-23)
(1.09355 0.0263753 3.959e-22)
(1.07583 0.0322561 -2.38038e-22)
(1.06208 0.0319343 5.32666e-35)
(1.05183 0.0282354 -3.33462e-21)
(1.04515 0.0231948 -6.69071e-22)
(1.04123 0.0181313 1.76457e-21)
(1.03918 0.0135984 -2.34418e-21)
(1.03829 0.00988183 3.12205e-22)
(1.03804 0.00694546 1.70777e-21)
(1.03807 0.00473768 0)
(1.03818 0.00309638 -1.58775e-22)
(1.03823 0.00193283 -2.91061e-23)
(1.0382 0.00108547 7.83216e-22)
(1.03804 0.000537931 1.94391e-22)
(1.03785 0.000122459 1.23743e-28)
(1.10139 -0.293714 -7.55867e-21)
(1.01147 -0.285271 1.27699e-21)
(0.937439 -0.261526 -4.66534e-21)
(0.857224 -0.214374 -4.38585e-21)
(0.781138 -0.133059 -1.41477e-20)
(0.716758 -0.0218727 -1.47384e-20)
(0.676221 0.104325 -2.10705e-21)
(0.657245 0.228555 -1.48942e-20)
(0.649233 0.338335 4.01512e-21)
(0.656033 0.418329 -5.71112e-20)
(0.665436 0.450974 1.31071e-20)
(0.675237 0.450704 1.97667e-20)
(0.686144 0.40427 1.31051e-20)
(0.695822 0.305938 -2.96991e-21)
(0.703933 0.168593 4.36814e-20)
(0.708622 0.0016532 -3.02019e-21)
(0.728913 -0.151232 -5.05159e-20)
(0.78278 -0.235672 1.14221e-20)
(0.858978 -0.264538 9.48805e-21)
(0.945406 -0.253522 -6.13867e-21)
(1.02648 -0.219651 -1.11831e-24)
(1.0948 -0.167339 2.05026e-21)
(1.1401 -0.103875 2.03955e-20)
(1.15532 -0.0436349 6.62125e-21)
(1.14253 0.00436798 -8.33208e-21)
(1.11398 0.0313731 -6.7987e-26)
(1.08661 0.0409989 1.54654e-21)
(1.06738 0.0407608 1.21292e-21)
(1.05423 0.0359661 -4.04899e-22)
(1.04531 0.029376 7.13597e-22)
(1.04017 0.022689 2.70345e-21)
(1.03764 0.0168512 6.75645e-22)
(1.0367 0.0120701 1.59701e-35)
(1.03663 0.00841368 -2.47855e-21)
(1.03695 0.00569152 -6.32777e-22)
(1.03736 0.00375199 -1.55727e-22)
(1.03769 0.00238512 1.79063e-27)
(1.03787 0.00146146 2.27619e-22)
(1.0379 0.000816953 -7.37635e-22)
(1.03779 0.000412951 -9.08016e-23)
(1.03763 9.84135e-05 -1.25012e-22)
(1.09939 -0.238249 8.07504e-22)
(1.02672 -0.228145 1.55718e-22)
(0.967746 -0.212466 -3.4369e-21)
(0.895234 -0.171985 6.41561e-35)
(0.822743 -0.104911 0)
(0.75883 -0.0060693 1.64547e-20)
(0.704752 0.113436 2.73891e-22)
(0.673987 0.232416 3.62379e-21)
(0.66391 0.334037 4.77995e-20)
(0.662944 0.40948 -5.32338e-20)
(0.667616 0.445713 3.35025e-20)
(0.671996 0.4472 2.64381e-20)
(0.678839 0.404251 2.06493e-20)
(0.68603 0.311891 3.33083e-20)
(0.691434 0.179227 -1.34722e-19)
(0.697177 0.0209665 9.53309e-21)
(0.704195 -0.146918 9.1634e-20)
(0.741265 -0.261933 3.80242e-20)
(0.81261 -0.303182 2.30519e-20)
(0.899655 -0.300535 9.64005e-21)
(0.989984 -0.269325 -1.53477e-20)
(1.07154 -0.213969 2.83195e-20)
(1.13499 -0.143353 4.28762e-20)
(1.17109 -0.0691247 -1.68342e-20)
(1.17266 -0.00685925 -1.73086e-21)
(1.14517 0.0351048 -5.31989e-21)
(1.10626 0.0523214 1.4162e-24)
(1.07509 0.052941 0)
(1.05664 0.0464391 -4.61344e-21)
(1.04548 0.0375756 2.25466e-21)
(1.03871 0.0286981 3.7436e-21)