/*--------------------------------*- C++ -*----------------------------------*\
| =========                 |                                                 |
| \\      /  F ield         | OpenFOAM: The Open Source CFD Toolbox           |
|  \\    /   O peration     | Version:  2506                                  |
|   \\  /    A nd           | Website:  www.openfoam.com                      |
|    \\/     M anipulation  |                                                 |
\*---------------------------------------------------------------------------*/
FoamFile
{
    version     2.0;
    format      ascii;
    arch        "LSB;label=32;scalar=64";
    class       volScalarField;
    location    "49";
    object      p;
}
// * * * * * * * * * * * * * * * * * * * * * * * * * * * * * * * * * * * * * //

dimensions      [0 2 -2 0 0 0 0];

internalField   nonuniform List<scalar> 
400
(
-1.22412e-07
-0.000150975
-0.000533643
-0.001069
-0.00172751
-0.002486
-0.00317465
-0.0035858
-0.0035532
-0.00292294
-0.00154055
0.000622236
0.00324863
0.00551459
0.00654324
0.00594723
0.00403983
0.00219449
0.00115639
0.00108597
0.000115712
-5.82289e-05
-0.000375854
-0.000761897
-0.00124057
-0.00188235
-0.00269672
-0.00352976
-0.00406317
-0.00392139
-0.00283259
-0.000816213
0.00169399
0.00396669
0.00513891
0.00477103
0.00314526
0.00142167
0.00064046
0.000729215
0.000533792
0.000263777
-7.7035e-05
-0.000557803
-0.00134239
-0.00256983
-0.00419966
-0.00595449
-0.00736542
-0.00790395
-0.00722726
-0.00543065
-0.00286619
-0.000171747
0.00181811
0.00246284
0.00175412
0.000552019
-0.000345667
-0.000345103
0.00114515
0.000736253
0.00018987
-0.000771951
-0.0024392
-0.0049117
-0.00795119
-0.0110582
-0.0136262
-0.0150921
-0.0151224
-0.0137616
-0.0112251
-0.00797033
-0.00470005
-0.00215991
-0.000820357
-0.000655669
-0.00123737
-0.0018679
0.00156946
0.000963393
-2.66029e-05
-0.00191571
-0.00497877
-0.00912594
-0.0138299
-0.0183673
-0.0220804
-0.0245027
-0.0253745
-0.0245758
-0.0222313
-0.0186302
-0.0142103
-0.00957824
-0.00552831
-0.00289478
-0.00214382
-0.00396383
0.00127486
0.000431972
-0.00119838
-0.00428333
-0.00895149
-0.0147873
-0.0209377
-0.0265413
-0.0309856
-0.033952
-0.0353113
-0.0349628
-0.0329895
-0.0295383
-0.0247496
-0.0188422
-0.0124155
-0.00688225
-0.00434673
-0.00646367
-6.57348e-05
-0.00115741
-0.00349092
-0.00775551
-0.0138458
-0.0209754
-0.0280445
-0.0341673
-0.0388478
-0.0419235
-0.0434001
-0.0432976
-0.0416825
-0.0386232
-0.034097
-0.0279872
-0.0204118
-0.0126137
-0.00779069
-0.00769342
-0.00245943
-0.00374169
-0.00667373
-0.0118462
-0.0189162
-0.0267955
-0.0342552
-0.0404719
-0.0450941
-0.0480849
-0.0495312
-0.0495277
-0.0481528
-0.0454532
-0.04138
-0.0357003
-0.0281535
-0.0192495
-0.0117436
-0.00792915
-0.00553208
-0.00689898
-0.0102185
-0.0159272
-0.0234985
-0.0316588
-0.0391493
-0.0452437
-0.04971
-0.052587
-0.0539945
-0.054038
-0.0527921
-0.0503141
-0.0466132
-0.0415305
-0.0346501
-0.0257891
-0.0166041
-0.0099275
-0.00871189
-0.0100527
-0.0135325
-0.0194228
-0.0270963
-0.0352198
-0.0425669
-0.0484902
-0.0528248
-0.0556337
-0.0570319
-0.0571052
-0.0559167
-0.0535374
-0.0500474
-0.0454331
-0.0393786
-0.0313324
-0.0221846
-0.0142413
-0.0114688
-0.0127109
-0.0161388
-0.0219177
-0.029397
-0.0372978
-0.0444535
-0.0502476
-0.0545218
-0.0573207
-0.0587351
-0.0588279
-0.0576496
-0.0552767
-0.0518496
-0.0474974
-0.0421539
-0.0351714
-0.0270392
-0.0190531
-0.0135063
-0.0145639
-0.017768
-0.0231723
-0.030215
-0.0377655
-0.0447373
-0.050489
-0.0547978
-0.0576556
-0.0591146
-0.0592182
-0.0580082
-0.055562
-0.0520723
-0.0477808
-0.0429305
-0.0368464
-0.0298699
-0.0222807
-0.0147921
-0.0155126
-0.0182662
-0.0230732
-0.0294875
-0.0365945
-0.0433989
-0.0491955
-0.0536405
-0.0566338
-0.0581746
-0.0582836
-0.0569973
-0.0544158
-0.0507566
-0.0463237
-0.0417157
-0.036116
-0.0300826
-0.0227727
-0.0154241
-0.0156724
-0.017703
-0.0216278
-0.0272098
-0.0337793
-0.040421
-0.0463353
-0.0510203
-0.0542447
-0.0559317
-0.0560744
-0.0546872
-0.0519003
-0.0479745
-0.0432996
-0.0385331
-0.0330071
-0.0279933
-0.0201944
-0.0155344
-0.0152573
-0.0162816
-0.0189982
-0.0235132
-0.0294304
-0.0358965
-0.041989
-0.0470164
-0.0505796
-0.0524955
-0.0527029
-0.0512432
-0.048206
-0.043924
-0.038842
-0.0336549
-0.0280064
-0.0241829
-0.0143609
-0.0152426
-0.0145194
-0.0142253
-0.015372
-0.0185946
-0.0237512
-0.0300235
-0.0363392
-0.0418005
-0.0458167
-0.0480805
-0.0484612
-0.046982
-0.0437131
-0.039025
-0.0333873
-0.0275941
-0.0216413
-0.0180937
-0.00388206
-0.0146359
-0.0135979
-0.0116934
-0.0110658
-0.012917
-0.0173016
-0.0233977
-0.0299701
-0.0359327
-0.0405041
-0.0432461
-0.0439315
-0.0425528
-0.0391423
-0.0340357
-0.0276345
-0.020715
-0.0133743
-0.00692127
0.0159331
-0.0145694
-0.0126485
-0.00865636
-0.00625621
-0.00692353
-0.0107269
-0.0167473
-0.0236085
-0.0301078
-0.0353011
-0.038639
-0.0397717
-0.0386453
-0.0352736
-0.0298034
-0.0222803
-0.0129734
-0.000864058
0.0164843
0.0568885
-0.0117933
-0.0118358
-0.00575803
-0.00182871
-0.00181694
-0.00542999
-0.0115525
-0.0187329
-0.0257339
-0.0314972
-0.0354429
-0.0371389
-0.0364871
-0.0332119
-0.0271637
-0.0175793
-0.00328599
0.0202749
0.0604661
0.129628
-0.0295104
-0.0106435
-0.000654804
0.00301247
0.00237995
-0.00160018
-0.00799616
-0.0154914
-0.0228544
-0.029002
-0.0333287
-0.0353785
-0.035014
-0.0318197
-0.0251665
-0.0128898
0.00929537
0.0509733
0.122665
0.225903
)
;

boundaryField
{
    movingWall
    {
        type            zeroGradient;
    }
    fixedWalls
    {
        type            zeroGradient;
    }
    frontAndBack
    {
        type            empty;
    }
}


// ************************************************************************* //
