/*--------------------------------*- C++ -*----------------------------------*\
| =========                 |                                                 |
| \\      /  F ield         | OpenFOAM: The Open Source CFD Toolbox           |
|  \\    /   O peration     | Version:  2506                                  |
|   \\  /    A nd           | Website:  www.openfoam.com                      |
|    \\/     M anipulation  |                                                 |
\*---------------------------------------------------------------------------*/
FoamFile
{
    version     2.0;
    format      ascii;
    arch        "LSB;label=32;scalar=64";
    class       surfaceScalarField;
    location    "49";
    object      phi;
}
// * * * * * * * * * * * * * * * * * * * * * * * * * * * * * * * * * * * * * //

dimensions      [0 3 -1 0 0 0 0];

oriented        oriented;

internalField   nonuniform List<scalar> 
760
(
1.55154e-05
-1.55142e-05
2.91585e-05
-1.3643e-05
3.07446e-05
-1.58618e-06
1.81177e-05
1.26269e-05
-1.22165e-05
3.03342e-05
-6.66139e-05
5.43975e-05
-0.000148264
8.16505e-05
-0.000248495
0.000100231
-0.000347197
9.87013e-05
-0.000421121
7.39246e-05
-0.000453581
3.24598e-05
-0.000434846
-1.87354e-05
-0.000359268
-7.55773e-05
-0.000238231
-0.000121038
-9.4697e-05
-0.000143533
3.38962e-05
-0.000128593
0.000108245
-7.43489e-05
0.000102883
5.36218e-06
4.59552e-05
5.69276e-05
4.59552e-05
1.2341e-05
-2.78553e-05
7.16447e-06
-8.46651e-06
-2.99735e-05
3.55517e-05
-0.000107953
9.06064e-05
-0.000231248
0.000153629
-0.000391848
0.000214998
-0.000564813
0.000254616
-0.000718924
0.000254341
-0.000831751
0.000211528
-0.000892308
0.000134482
-0.000895885
3.60369e-05
-0.000840212
-7.44089e-05
-0.000728407
-0.000187382
-0.000563766
-0.000285679
-0.000360647
-0.000346652
-0.000149465
-0.000339776
1.72228e-05
-0.000241037
8.54114e-05
-6.28265e-05
5.23822e-05
8.99569e-05
9.83374e-05
-1.28838e-05
-1.49715e-05
-6.35015e-05
4.21512e-05
-0.000162349
0.000134399
-0.000313493
0.000241751
-0.00050443
0.000344566
-0.00070537
0.000415937
-0.000884882
0.000434128
-0.00102497
0.000394429
-0.00112045
0.000307008
-0.00117055
0.000184581
-0.00117012
3.56078e-05
-0.00112448
-0.000120047
-0.00103161
-0.000280255
-0.000886067
-0.000431221
-0.000685848
-0.00054687
-0.00043983
-0.000585794
-0.000187882
-0.000492985
-8.87412e-06
-0.000241834
2.9374e-05
5.17087e-05
0.000127711
-4.99965e-05
3.5025e-05
-0.000155694
0.000147849
-0.000311127
0.000289832
-0.000506613
0.000437236
-0.000716275
0.000554229
-0.000909462
0.000609124
-0.00106598
0.00059065
-0.00118156
0.000510008
-0.001259
0.000384441
-0.00130176
0.00022735
-0.00130838
4.22277e-05
-0.00128465
-0.00014378
-0.00122674
-0.000338167
-0.00112446
-0.000533506
-0.000964693
-0.000706633
-0.00073498
-0.000815507
-0.000439144
-0.000788821
-0.000137759
-0.000543219
1.19755e-05
-9.80255e-05
0.000139687
-8.59334e-05
0.000120958
-0.000235403
0.000297319
-0.000421821
0.000476249
-0.000625802
0.000641217
-0.000819365
0.000747793
-0.0009803
0.000770058
-0.00110091
0.000711259
-0.00118382
0.00059292
-0.00123523
0.000435847
-0.00126242
0.000254544
-0.00127448
5.4287e-05
-0.00127013
-0.000148131
-0.00124844
-0.000359857
-0.00120147
-0.00058047
-0.00111058
-0.00079753
-0.000946948
-0.000979135
-0.000680699
-0.00105507
-0.000321711
-0.000902208
-2.61852e-05
-0.000393551
0.000113502
-0.000108258
0.000229216
-0.000277354
0.000466416
-0.000465993
0.000664888
-0.000651089
0.000826313
-0.00081029
0.000906994
-0.000930489
0.000890257
-0.00101123
0.000792003
-0.00105901
0.0006407
-0.00108287
0.000459708
-0.00109284
0.00026451
-0.00110108
6.25233e-05
-0.00110634
-0.00014287
-0.00111017
-0.000356022
-0.00110963
-0.000581017
-0.00108927
-0.000817882
-0.00101636
-0.00105205
-0.000841488
-0.00122994
-0.000523204
-0.00122049
-0.000115673
-0.000801082
-2.17092e-06
-0.000110566
0.000339781
-0.000274674
0.000630525
-0.000443776
0.000833989
-0.000596747
0.000979285
-0.000717611
0.00102786
-0.000800092
0.000972737
-0.000847905
0.000839817
-0.000869736
0.000662531
-0.00087597
0.000465941
-0.000876373
0.000264913
-0.000879275
6.54252e-05
-0.000886576
-0.000135569
-0.000900249
-0.00034235
-0.000921399
-0.000559866
-0.000944284
-0.000794998
-0.000945667
-0.00105067
-0.000873603
-0.001302
-0.000652431
-0.00144166
-0.000241822
-0.00121169
-0.000243993
-9.31194e-05
0.000432901
-0.0002337
0.000771106
-0.000371888
0.000972177
-0.000489346
0.00109674
-0.000575973
0.00111448
-0.000630035
0.0010268
-0.000657198
0.000866979
-0.000666557
0.00067189
-0.000667771
0.000467155
-0.000668217
0.000265359
-0.000671552
6.87602e-05
-0.000679514
-0.000127607
-0.000694221
-0.000327643
-0.000718714
-0.000535373
-0.000754644
-0.000759068
-0.00079279
-0.00101252
-0.000792043
-0.00130275
-0.000670634
-0.00156307
-0.00035789
-0.00152443
-0.000601884
-6.2176e-05
0.000495077
-0.000168006
0.000876935
-0.000270944
0.00107512
-0.000354516
0.00118031
-0.000413149
0.00117312
-0.000447815
0.00106147
-0.000464369
0.000883534
-0.000470664
0.000678185
-0.000473978
0.000470469
-0.000478735
0.000270117
-0.000485984
7.60096e-05
-0.000496395
-0.000117196
-0.000510976
-0.000313062
-0.000532604
-0.000513745
-0.000566772
-0.0007249
-0.000614744
-0.00096455
-0.00065454
-0.00126295
-0.00061197
-0.00160564
-0.000391783
-0.00174462
-0.000993667
-2.30963e-05
0.000518173
-8.88986e-05
0.000942738
-0.000155815
0.00114203
-0.000208549
0.00123305
-0.000244305
0.00120887
-0.000265487
0.00108265
-0.000276907
0.000894953
-0.000283902
0.00068518
-0.000290978
0.000477545
-0.000300371
0.000279509
-0.000312368
8.80067e-05
-0.00032695
-0.000102614
-0.000344153
-0.00029586
-0.000365224
-0.000492674
-0.000395281
-0.000694843
-0.000442509
-0.000917322
-0.000501497
-0.00120397
-0.000511869
-0.00159527
-0.000355505
-0.00190099
-0.00134917
1.63493e-05
0.000501824
-6.89403e-06
0.000965981
-4.00588e-05
0.0011752
-6.50369e-05
0.00125803
-8.03997e-05
0.00122424
-8.92499e-05
0.0010915
-9.55371e-05
0.000901241
-0.000102463
0.000692106
-0.000111702
0.000486784
-0.000124032
0.000291839
-0.000139693
0.000103668
-0.000158903
-8.3403e-05
-0.000181542
-0.000273221
-0.000207427
-0.00046679
-0.000239357
-0.000662913
-0.000286599
-0.000870079
-0.000355498
-0.00113507
-0.000402297
-0.00154847
-0.000302421
-0.00200086
-0.00165159
4.99733e-05
0.000451851
6.97328e-05
0.000946222
7.40565e-05
0.00117087
7.76379e-05
0.00125445
8.21645e-05
0.00121971
8.50861e-05
0.00108858
8.44119e-05
0.000901915
7.93096e-05
0.000697209
6.9908e-05
0.000496186
5.63994e-05
0.000305347
3.83014e-05
0.000121766
1.49911e-05
-6.00927e-05
-1.37225e-05
-0.000244507
-4.85068e-05
-0.000432005
-8.98251e-05
-0.000621594
-0.000142191
-0.000817713
-0.00022033
-0.00105693
-0.000295476
-0.00147333
-0.000246141
-0.0020502
-0.00189773
7.54599e-05
0.000376391
0.000135129
0.000886553
0.00017436
0.00113164
0.000207287
0.00122152
0.000234597
0.0011924
0.000253242
0.00106993
0.000262374
0.000892783
0.000263065
0.000696517
0.000256753
0.000502498
0.000244167
0.000317933
0.000224611
0.000141322
0.000196685
-3.2167e-05
0.000160375
-0.000208197
0.000115178
-0.000386809
6.06134e-05
-0.00056703
-8.54968e-06
-0.00074855
-9.59507e-05
-0.000969528
-0.000192272
-0.001377
-0.000192692
-0.00204978
-0.00209043
8.68864e-05
0.000289504
0.000180675
0.000792764
0.00025476
0.00105756
0.000318803
0.00115748
0.000373533
0.00113767
0.000414597
0.00102887
0.000440379
0.000867
0.000452279
0.000684617
0.000452636
0.000502141
0.000443017
0.000327552
0.00042326
0.00016108
0.000390335
7.57619e-07
0.000345954
-0.000163816
0.000287717
-0.000328571
0.000215657
-0.00049497
0.000131553
-0.000664446
2.62547e-05
-0.00086423
-9.62718e-05
-0.00125448
-0.000142938
-0.00200311
-0.00223336
8.04757e-05
0.000209029
0.00019505
0.00067819
0.000299195
0.000953411
0.000396458
0.00106021
0.000484111
0.00105002
0.000555531
0.000957447
0.000606784
0.000815748
0.000638168
0.000653233
0.000651815
0.000488495
0.000649596
0.000329771
0.000631425
0.000179251
0.000596896
3.52866e-05
0.000542985
-0.000109906
0.00047023
-0.000255816
0.000377829
-0.000402569
0.000268628
-0.000555245
0.000138481
-0.000734083
-1.57678e-05
-0.00110023
-9.1553e-05
-0.00192733
-0.00232492
5.76406e-05
0.000151388
0.000175637
0.000560194
0.000309345
0.000819702
0.000444351
0.000925208
0.000570912
0.000923455
0.00067916
0.000849199
0.000762543
0.000732365
0.000819797
0.00059598
0.000852192
0.000456099
0.000861466
0.000320497
0.000848323
0.000192394
0.00081253
7.10798e-05
0.00074972
-4.7096e-05
0.000661573
-0.000167668
0.000546794
-0.000287791
0.00040947
-0.000417921
0.000256679
-0.000581292
9.53298e-05
-0.000938879
-1.46145e-05
-0.00181738
-0.00233953
1.51481e-05
0.00013624
0.000103766
0.000471576
0.000251359
0.000672109
0.00042345
0.000753116
0.000595564
0.000751341
0.000748953
0.00069581
0.000873349
0.000607969
0.000965782
0.000503547
0.00102578
0.000396099
0.00105455
0.000291724
0.00105272
0.000194229
0.00102087
0.000102931
0.000954577
1.91951e-05
0.00085577
-6.88617e-05
0.000723624
-0.000155644
0.000563242
-0.000257539
0.000390583
-0.000408633
0.000223718
-0.000772014
6.51775e-05
-0.00165884
-0.00227435
-5.16859e-05
0.000187926
2.00052e-05
0.000399885
0.000175447
0.000516667
0.00038169
0.000546873
0.000597143
0.000535889
0.000793197
0.000499755
0.000956201
0.000444965
0.00108203
0.00037772
0.00116894
0.000309185
0.00121862
0.000242049
0.00123146
0.000181387
0.00120948
0.00012491
0.00115496
7.37158e-05
0.00106515
2.09489e-05
0.00094047
-3.09645e-05
0.000788045
-0.000105115
0.000626449
-0.000247036
0.000445507
-0.000591072
0.000205492
-0.00141883
-0.00206886
-0.000417893
0.000605819
-0.000364197
0.00034619
-0.000124776
0.000277245
0.000154968
0.00026713
0.000428821
0.000262036
0.00068218
0.000246396
0.000903761
0.000223384
0.00108757
0.000193909
0.0012318
0.000164952
0.00133918
0.000134674
0.00141142
0.000109148
0.00145298
8.33453e-05
0.00146269
6.40092e-05
0.00144151
4.21265e-05
0.00138876
2.17894e-05
0.00130597
-2.23281e-05
0.00119207
-0.000133138
0.00101116
-0.000410156
0.000563753
-0.000971421
-0.00150511
0.000605819
0.000952008
0.00122925
0.00149638
0.00175842
0.00200482
0.0022282
0.00242211
0.00258706
0.00272173
0.00283088
0.00291423
0.00297824
0.00302036
0.00304215
0.00301982
0.00288669
0.00247653
0.00150511
)
;

boundaryField
{
    movingWall
    {
        type            calculated;
        value           uniform 0;
    }
    fixedWalls
    {
        type            calculated;
        value           uniform 0;
    }
    frontAndBack
    {
        type            empty;
    }
}


// ************************************************************************* //
