/*--------------------------------*- C++ -*----------------------------------*\
| =========                 |                                                 |
| \\      /  F ield         | OpenFOAM: The Open Source CFD Toolbox           |
|  \\    /   O peration     | Version:  2506                                  |
|   \\  /    A nd           | Website:  www.openfoam.com                      |
|    \\/     M anipulation  |                                                 |
\*---------------------------------------------------------------------------*/
FoamFile
{
    version     2.0;
    format      ascii;
    arch        "LSB;label=32;scalar=64";
    class       volScalarField;
    location    "200";
    object      div(phi);
}
// * * * * * * * * * * * * * * * * * * * * * * * * * * * * * * * * * * * * * //

dimensions      [0 0 -1 0 0 0 0];

internalField   nonuniform List<scalar> 
1340
(
3.02027e-07
-1.35859e-06
-5.48601e-08
-2.02342e-07
6.02814e-08
-9.91397e-08
-1.62408e-07
-4.69372e-08
1.09998e-07
1.8484e-07
-1.4885e-07
-5.04463e-07
-1.36841e-07
-3.04819e-08
-2.46953e-07
4.00073e-08
1.6859e-07
4.54201e-09
-1.47216e-07
-3.91294e-08
-9.55357e-08
-6.01562e-08
-5.49392e-08
2.46197e-08
1.48314e-07
-1.16933e-07
-1.15767e-08
-6.45546e-08
7.60185e-08
1.24738e-08
-5.9556e-08
4.17958e-08
1.16316e-07
-2.16746e-07
-4.23781e-07
3.45484e-07
1.12167e-07
-1.1335e-08
1.28777e-07
-3.11805e-08
-1.40884e-09
-1.94662e-10
5.96943e-08
-1.08455e-09
4.79329e-08
-4.66627e-08
5.05589e-09
-9.47956e-08
6.5412e-09
1.16026e-07
7.97266e-10
-1.96763e-07
-8.99402e-08
-8.85636e-08
-1.35727e-07
1.32302e-07
-2.71782e-07
-8.89643e-08
-1.06966e-07
-5.56466e-08
9.7606e-08
1.25598e-07
4.44117e-08
6.54624e-08
2.70003e-08
4.31914e-08
-3.16103e-08
1.78861e-08
4.2904e-08
9.46868e-08
-3.84781e-08
-1.28805e-08
-8.09816e-08
4.76884e-08
1.42662e-08
-6.46531e-08
-8.89938e-09
7.31944e-08
-2.39808e-07
-3.3931e-07
6.37934e-07
-4.99296e-07
1.81572e-07
-4.43883e-07
1.97648e-07
-3.85171e-07
1.81251e-07
-3.13741e-07
2.08014e-07
-2.59486e-07
2.17837e-07
-2.73232e-07
2.0145e-07
-2.45359e-07
1.45818e-07
-2.45867e-07
1.18443e-07
-8.90425e-08
1.24913e-07
4.29791e-08
6.40404e-08
4.45469e-08
1.04935e-07
1.8102e-09
-4.35787e-08
4.13051e-08
6.58059e-08
-2.75073e-09
3.64337e-08
-5.3095e-08
7.35749e-09
-7.68911e-08
-1.44069e-08
7.8197e-08
-5.1656e-09
-2.0743e-07
-1.1241e-07
-7.15892e-08
-8.18614e-05
-3.39886e-05
-2.79028e-05
-2.57648e-05
-1.8291e-05
-1.91309e-05
-1.09614e-05
-1.42678e-05
-6.38257e-06
-1.0874e-05
-3.31657e-06
-8.39376e-06
-1.47786e-06
-6.56945e-06
-3.76888e-07
-5.17072e-06
2.69991e-07
-4.09343e-06
5.51682e-07
-3.24329e-06
7.13887e-07
-2.56592e-06
7.0835e-07
-2.01229e-06
7.0125e-07
-1.56784e-06
6.32332e-07
-1.21162e-06
5.59681e-07
-9.27843e-07
4.82787e-07
-7.19665e-07
5.1464e-07
-5.87928e-07
5.09527e-07
-5.29146e-07
4.64015e-07
-5.74006e-07
3.80814e-07
-6.47874e-07
1.8366e-07
-6.62807e-07
6.29126e-08
-5.98869e-07
-1.51823e-08
-5.15419e-07
-1.55646e-09
-4.0682e-07
2.67143e-08
-2.96874e-07
4.57645e-08
-2.04939e-07
5.69941e-08
-1.33852e-07
3.52876e-08
-9.92643e-08
2.40881e-08
-7.56771e-08
-6.76621e-09
-4.28087e-08
3.1658e-08
3.70007e-08
5.0288e-08
3.14481e-08
1.06312e-07
5.96898e-08
-4.79423e-08
1.43461e-08
-5.25077e-08
4.43927e-08
7.55319e-08
-3.79359e-08
-1.33086e-08
-7.87113e-08
2.98597e-08
1.77491e-08
-5.88366e-08
-4.05984e-08
4.70188e-08
-2.22146e-07
-2.71876e-07
-5.72085e-06
-8.08516e-06
-9.58546e-06
-1.07453e-05
-1.00993e-05
-1.03503e-05
-7.74447e-06
-8.6902e-06
-5.43592e-06
-7.0003e-06
-3.33123e-06
-5.54429e-06
-1.98821e-06
-4.44351e-06
-1.03429e-06
-3.60045e-06
-5.37368e-07
-2.99474e-06
-2.05215e-07
-2.54911e-06
-7.07861e-08
-2.22807e-06
3.51596e-08
-1.97458e-06
9.7005e-08
-1.75329e-06
1.35333e-07
-1.5432e-06
2.03025e-07
-1.29235e-06
2.01529e-07
-9.63158e-07
3.35749e-07
-6.24987e-07
4.70927e-07
-4.55362e-07
4.60006e-07
-4.48094e-07
3.12215e-07
-5.26206e-07
1.63553e-07
-5.97504e-07
2.0039e-08
-5.67415e-07
-3.41482e-09
-4.8425e-07
1.33494e-08
-3.64452e-07
3.5817e-08
-2.6811e-07
4.16712e-08
-1.75969e-07
3.45988e-08
-1.17494e-07
1.96657e-08
-6.89738e-08
9.00668e-10
-4.14604e-08
-1.12103e-08
-1.23464e-08
-1.67174e-09
3.35566e-08
9.8448e-09
5.50334e-08
7.0244e-08
-1.8643e-08
2.96653e-08
-1.35342e-07
5.74586e-08
6.95835e-08
-1.02208e-08
3.7104e-08
-4.8696e-08
1.12857e-08
-5.68e-08
-1.66646e-08
5.51297e-08
-1.93946e-09
-2.23317e-07
-1.14354e-07
-6.38292e-08
-2.75049e-05
-1.23746e-05
-1.36369e-05
-1.26875e-05
-1.32428e-05
-1.12314e-05
-1.14252e-05
-9.33669e-06
-8.78819e-06
-7.61422e-06
-6.74969e-06
-6.33981e-06
-4.97696e-06
-5.36212e-06
-3.77555e-06
-4.61842e-06
-2.74098e-06
-3.98702e-06
-2.04238e-06
-3.4653e-06
-1.41452e-06
-3.00716e-06
-9.8516e-07
-2.62039e-06
-6.05739e-07
-2.27106e-06
-3.41053e-07
-1.95856e-06
-1.2036e-07
-1.66487e-06
2.76146e-08
-1.40987e-06
1.52375e-07
-1.18285e-06
2.43359e-07
-9.32663e-07
2.88453e-07
-7.29438e-07
3.52126e-07
-5.63388e-07
2.83076e-07
-4.61443e-07
2.45631e-07
-3.96122e-07
1.83239e-07
-3.49786e-07
1.32083e-07
-2.96328e-07
9.6067e-08
-2.35167e-07
6.84191e-08
-1.7401e-07
4.57576e-08
-1.17847e-07
2.43158e-08
-7.42587e-08
7.34463e-09
-4.11795e-08
-4.02605e-09
-1.57206e-08
-3.5973e-09
8.31178e-09
6.68038e-09
3.49372e-08
5.07058e-09
2.76029e-08
-9.2374e-08
-5.58087e-11
4.77285e-08
1.45765e-08
1.14831e-07
-2.89e-08
-2.92368e-08
-7.0254e-08
2.74489e-08
3.12408e-08
-4.93304e-08
-7.92477e-08
2.15067e-08
-2.03381e-07
-2.03359e-07
-1.43967e-05
-9.78962e-06
-6.46388e-06
-5.45918e-06
-3.14258e-06
-3.55875e-06
-2.09468e-06
-2.99481e-06
-1.81385e-06
-2.91278e-06
-1.73526e-06
-2.90181e-06
-1.45985e-06
-2.8062e-06
-1.22778e-06
-2.63934e-06
-8.68513e-07
-2.40898e-06
-6.56227e-07
-2.18921e-06
-4.04507e-07
-1.98947e-06
-2.97473e-07
-1.8412e-06
-1.76731e-07
-1.71711e-06
-1.07708e-07
-1.6069e-06
-4.7482e-08
-1.48181e-06
4.229e-08
-1.28315e-06
5.66778e-08
-9.99129e-07
3.34387e-07
-7.32143e-07
4.31538e-07
-5.45197e-07
4.7024e-07
-4.51323e-07
4.29852e-07
-4.12839e-07
2.92866e-07
-3.87633e-07
1.97407e-07
-3.30967e-07
1.45789e-07
-2.6583e-07
1.15843e-07
-2.05066e-07
8.5179e-08
-1.53154e-07
5.54421e-08
-1.1344e-07
2.69315e-08
-7.9295e-08
6.89112e-09
-4.84526e-08
-2.55976e-09
-2.10933e-08
-3.84459e-09
-5.99695e-10
4.83281e-10
7.59903e-09
1.11046e-08
-3.29501e-08
-2.57791e-08
1.52143e-08
1.41229e-08
1.4795e-07
-3.71336e-09
-4.61283e-08
-4.79194e-08
2.17957e-08
-1.03637e-08
-5.06792e-08
1.01682e-08
-1.13111e-08
-2.11586e-07
-1.18016e-07
-5.97701e-08
-3.0291e-05
-5.79982e-06
-3.55798e-06
-1.42137e-06
-7.19522e-07
-2.70532e-07
-4.86307e-07
-6.76966e-07
-1.11992e-06
-1.50555e-06
-1.68019e-06
-2.28016e-06
-2.07106e-06
-2.83982e-06
-2.13167e-06
-3.12689e-06
-2.04423e-06
-3.17874e-06
-1.74604e-06
-3.03495e-06
-1.44794e-06
-2.78337e-06
-1.07678e-06
-2.47883e-06
-7.85984e-07
-2.17629e-06
-5.07326e-07
-1.89671e-06
-2.85759e-07
-1.64442e-06
-1.33323e-07
-1.4174e-06
2.62372e-08
-1.17016e-06
8.50708e-08
-8.71548e-07
3.01743e-07
-5.74446e-07
4.27665e-07
-3.44125e-07
4.96397e-07
-2.17333e-07
4.63418e-07
-1.59576e-07
3.73965e-07
-1.46449e-07
2.80103e-07
-1.44272e-07
1.85138e-07
-1.38392e-07
1.17901e-07
-1.29052e-07
5.91387e-08
-1.09574e-07
2.13805e-08
-7.92005e-08
5.40128e-10
-4.31863e-08
-9.65088e-09
-8.81917e-09
-1.64173e-08
1.64752e-08
-2.31684e-08
2.57855e-08
-2.82855e-08
-1.42208e-09
-1.50067e-08
1.27378e-08
1.18396e-07
2.94353e-08
-3.35078e-08
-2.25396e-08
-5.42496e-09
-2.10796e-08
-3.37011e-08
1.30174e-08
-4.8449e-08
-1.24675e-07
-7.22644e-09
-1.55034e-07
-1.45064e-07
-1.09255e-05
-1.27709e-05
-1.23748e-05
-1.16025e-05
-1.05242e-05
-9.23399e-06
-7.42706e-06
-6.74982e-06
-5.01188e-06
-4.84118e-06
-3.03286e-06
-3.49616e-06
-1.82934e-06
-2.64058e-06
-8.79282e-07
-2.08613e-06
-3.52524e-07
-1.74769e-06
6.57894e-08
-1.5075e-06
2.60147e-07
-1.34422e-06
4.00537e-07
-1.20723e-06
4.16545e-07
-1.1092e-06
4.23988e-07
-1.03092e-06
3.73088e-07
-9.86818e-07
3.23419e-07
-9.44314e-07
2.71515e-07
-9.02867e-07
2.43818e-07
-8.37107e-07
2.37573e-07
-7.52548e-07
2.56251e-07
-6.48774e-07
2.79307e-07
-5.35851e-07
2.91863e-07
-4.36549e-07
3.23689e-07
-3.57495e-07
2.81682e-07
-3.05947e-07
2.6049e-07
-2.63616e-07
2.01437e-07
-2.29767e-07
1.52211e-07
-1.9224e-07
1.1609e-07
-1.54102e-07
9.04905e-08
-1.16177e-07
7.16696e-08
-8.04721e-08
5.43909e-08
-4.98939e-08
3.00309e-08
-2.21766e-08
-2.18673e-09
-1.71706e-08
-7.44221e-10
6.56535e-08
4.18398e-08
-2.03566e-08
1.8745e-09
-1.64578e-08
-8.3275e-09
-1.54606e-08
-8.8463e-09
-3.77434e-08
-4.8911e-08
1.19286e-08
-1.81871e-07
-1.02309e-07
-4.65459e-08
-2.4305e-05
-6.15665e-06
1.98707e-06
1.76335e-06
6.24894e-06
3.99042e-06
6.10085e-06
3.83595e-06
4.89754e-06
3.07292e-06
3.67977e-06
2.28504e-06
2.68982e-06
1.61715e-06
2.03563e-06
1.06753e-06
1.52425e-06
6.08708e-07
1.18934e-06
2.50464e-07
9.20696e-07
-1.57784e-08
7.6418e-07
-1.89015e-07
6.27227e-07
-3.02223e-07
5.42081e-07
-3.59139e-07
4.47535e-07
-3.9097e-07
4.0292e-07
-4.03056e-07
3.30775e-07
-4.18713e-07
2.98897e-07
-4.34027e-07
2.50894e-07
-4.5443e-07
2.15973e-07
-4.65456e-07
2.05109e-07
-4.45541e-07
1.69963e-07
-3.7319e-07
2.27309e-07
-2.60589e-07
2.67873e-07
-1.59512e-07
2.92434e-07
-9.72238e-08
2.63281e-07
-8.06352e-08
2.00507e-07
-9.14636e-08
1.31294e-07
-1.02154e-07
8.65212e-08
-9.90397e-08
6.46976e-08
-8.43067e-08
5.43871e-08
-6.76695e-08
3.99987e-08
-5.34389e-08
1.64275e-08
-4.57452e-08
3.0843e-08
1.42538e-08
-2.61739e-08
3.82194e-08
5.46018e-09
1.44661e-08
7.25605e-09
-2.15845e-08
-1.95915e-10
-2.20015e-08
1.75365e-08
-1.67556e-07
-2.29469e-08
-1.31166e-07
-9.6292e-08
6.45958e-05
2.75826e-05
2.83755e-05
2.16667e-05
1.97493e-05
1.60222e-05
1.38257e-05
1.19682e-05
9.69349e-06
9.07365e-06
6.92627e-06
6.97397e-06
4.95434e-06
5.38481e-06
3.53505e-06
4.14887e-06
2.53354e-06
3.16042e-06
1.77459e-06
2.36301e-06
1.26915e-06
1.72201e-06
8.7598e-07
1.20906e-06
6.14882e-07
8.21305e-07
4.02422e-07
5.36114e-07
2.9429e-07
3.29006e-07
1.8515e-07
1.64772e-07
1.36741e-07
3.55039e-08
7.28002e-08
-7.20657e-08
6.71511e-08
-1.57111e-07
5.20487e-08
-2.27368e-07
7.13831e-08
-2.73148e-07
8.44521e-08
-2.82667e-07
1.1176e-07
-2.57896e-07
1.56409e-07
-2.16133e-07
1.54876e-07
-1.76556e-07
1.58032e-07
-1.45912e-07
1.25915e-07
-1.28123e-07
9.80687e-08
-1.12277e-07
7.9729e-08
-9.66695e-08
6.81993e-08
-8.03067e-08
5.91781e-08
-6.36137e-08
4.57102e-08
-4.51152e-08
1.97781e-08
-3.25601e-08
2.63702e-08
-8.99073e-09
1.90557e-08
4.82709e-08
1.20131e-08
2.11802e-08
-1.17377e-08
4.2292e-08
-3.37409e-08
4.93618e-08
-1.33243e-07
2.62138e-08
-1.99947e-07
-9.42944e-08
-3.97007e-08
-3.58139e-05
8.27378e-06
-9.34643e-07
-1.95159e-06
1.04807e-06
-4.26078e-07
1.76419e-06
-7.22843e-08
1.79964e-06
-1.93548e-07
1.67159e-06
-2.90598e-07
1.55023e-06
-3.41654e-07
1.45336e-06
-3.61934e-07
1.3516e-06
-3.18741e-07
1.23361e-06
-3.0404e-07
1.08423e-06
-2.2672e-07
9.29723e-07
-1.97615e-07
7.70955e-07
-8.58742e-08
6.30124e-07
-4.94846e-08
4.89067e-07
3.65176e-08
3.6687e-07
3.81873e-08
2.4467e-07
9.10142e-08
1.34691e-07
6.79073e-08
2.23235e-08
9.13427e-08
-8.04217e-08
7.13061e-08
-1.75894e-07
7.34356e-08
-2.49338e-07
8.36756e-08
-2.78509e-07
7.47828e-08
-2.46301e-07
1.27544e-07
-1.63504e-07
1.65038e-07
-8.04207e-08
1.86773e-07
-3.08693e-08
1.67452e-07
-2.4525e-08
1.27899e-07
-4.57739e-08
8.56885e-08
-6.68567e-08
6.14492e-08
-7.20123e-08
5.14273e-08
-6.3523e-08
4.49182e-08
-5.01059e-08
2.99233e-08
-4.69201e-08
4.01405e-08
-4.76078e-08
3.62863e-08
-8.60919e-09
8.76052e-09
-1.66515e-09
6.72056e-08
-5.41483e-08
8.52585e-08
-1.17064e-07
6.33422e-08
-2.18733e-07
-4.1776e-09
-1.09335e-07
-7.67628e-08
9.91856e-05
4.53741e-05
2.31297e-05
1.45271e-05
1.362e-05
6.08652e-06
8.91542e-06
2.38617e-06
6.58204e-06
7.89934e-07
5.22982e-06
-8.88026e-09
4.27484e-06
-4.66661e-07
3.492e-06
-7.45725e-07
2.84529e-06
-9.55261e-07
2.2937e-06
-9.63597e-07
1.832e-06
-1.00579e-06
1.40924e-06
-8.79083e-07
1.04439e-06
-8.33808e-07
7.07579e-07
-6.67645e-07
4.36803e-07
-5.94693e-07
2.06818e-07
-4.33786e-07
3.54726e-08
-3.61305e-07
-1.10535e-07
-2.46759e-07
-2.13054e-07
-1.91634e-07
-2.9042e-07
-1.03851e-07
-3.33927e-07
-4.48212e-08
-3.59407e-07
1.93058e-08
-3.58307e-07
6.86503e-08
-3.22012e-07
1.04261e-07
-2.59054e-07
1.37424e-07
-1.90806e-07
1.18502e-07
-1.38131e-07
1.06739e-07
-1.06377e-07
7.56885e-08
-9.22704e-08
5.96717e-08
-8.06008e-08
5.70482e-08
-6.91331e-08
5.60132e-08
-5.68173e-08
5.07899e-08
-4.35364e-08
3.43647e-08
-3.73416e-08
3.08749e-08
-2.99833e-08
8.66989e-09
-4.09677e-09
-1.96434e-08
6.08631e-08
-7.53054e-08
8.16136e-08
-1.18816e-07
1.04756e-07
-2.01619e-07
1.0733e-07
-1.72133e-07
-7.67206e-08
-3.17178e-08
0.000164729
3.18471e-05
3.19304e-05
2.23403e-05
1.59309e-05
7.92091e-06
8.07131e-06
2.48416e-06
4.70389e-06
5.40999e-07
3.09477e-06
-4.03936e-08
2.18668e-06
-3.05152e-07
1.56826e-06
-2.56643e-07
1.12192e-06
-3.02987e-07
7.35678e-07
-2.22005e-07
4.19459e-07
-2.71667e-07
1.31571e-07
-1.81459e-07
-1.07303e-07
-2.01622e-07
-3.21457e-07
-8.93494e-08
-4.87585e-07
-6.79087e-08
-6.19677e-07
2.6183e-08
-6.96184e-07
5.45283e-08
-7.27552e-07
1.2931e-07
-7.17659e-07
1.54477e-07
-6.82898e-07
1.86886e-07
-6.35949e-07
2.03516e-07
-5.80276e-07
1.91688e-07
-5.20632e-07
2.13316e-07
-4.29524e-07
1.76147e-07
-3.02681e-07
2.0551e-07
-1.52202e-07
2.10081e-07
-3.60251e-08
2.03718e-07
2.25529e-08
1.69082e-07
2.48107e-08
1.25748e-07
-3.28427e-09
8.32282e-08
-2.89494e-08
5.86169e-08
-4.05652e-08
4.44482e-08
-4.11471e-08
3.04811e-08
-4.19545e-08
2.9381e-08
-5.34469e-08
1.94664e-08
-7.23926e-08
1.51584e-08
-8.17977e-08
4.29468e-08
-1.09324e-07
1.1763e-07
-1.88619e-07
1.91899e-07
-2.13233e-07
2.33992e-08
-8.81712e-08
-5.25343e-08
-0.000171303
-2.35386e-05
-3.70557e-05
-3.14501e-05
-2.17017e-05
-1.59725e-05
-1.29932e-05
-8.7397e-06
-8.81628e-06
-4.86935e-06
-6.63791e-06
-2.95126e-06
-5.3973e-06
-1.5333e-06
-4.56181e-06
-7.55387e-07
-4.00333e-06
-1.61029e-07
-3.53247e-06
1.38006e-07
-3.12458e-06
4.47631e-07
-2.73988e-06
5.60679e-07
-2.4256e-06
6.6918e-07
-2.16874e-06
6.61067e-07
-1.97965e-06
6.29584e-07
-1.81744e-06
5.69952e-07
-1.66368e-06
5.09859e-07
-1.50772e-06
4.66723e-07
-1.3491e-06
3.96154e-07
-1.18492e-06
3.68599e-07
-1.0093e-06
3.21909e-07
-8.37904e-07
3.20623e-07
-6.71845e-07
2.96262e-07
-5.22278e-07
2.95574e-07
-3.70422e-07
2.73962e-07
-2.42187e-07
2.37432e-07
-1.40237e-07
1.55397e-07
-7.86775e-08
9.84068e-08
-4.66127e-08
3.93898e-08
-3.45857e-08
1.94972e-08
-3.0209e-08
1.43387e-08
-3.05125e-08
1.28859e-08
-3.35995e-08
7.51516e-09
-3.54797e-08
1.26986e-09
-3.34821e-08
-1.69203e-08
-1.61435e-08
-3.46278e-08
1.55034e-08
-8.75287e-08
6.39746e-08
-1.97187e-07
2.21303e-07
-2.32835e-07
1.31598e-07
-1.62359e-07
-6.07617e-08
-5.56652e-08
-0.000136184
-3.22449e-05
-4.0368e-05
-2.67458e-05
-2.68105e-05
-1.38602e-05
-1.8588e-05
-7.28671e-06
-1.39944e-05
-3.43303e-06
-1.1136e-05
-1.34134e-06
-9.17745e-06
1.66359e-07
-7.61999e-06
1.06026e-06
-6.32163e-06
1.8317e-06
-5.20326e-06
2.21906e-06
-4.29601e-06
2.47289e-06
-3.56203e-06
2.47975e-06
-2.99875e-06
2.38496e-06
-2.56269e-06
2.18918e-06
-2.22359e-06
1.96233e-06
-1.96116e-06
1.74334e-06
-1.74576e-06
1.47053e-06
-1.54876e-06
1.28073e-06
-1.3364e-06
1.07677e-06
-1.11979e-06
9.56058e-07
-8.9927e-07
7.97956e-07
-7.02497e-07
7.1544e-07
-5.3058e-07
5.64654e-07
-3.92754e-07
5.0624e-07
-2.65122e-07
3.53001e-07
-1.29661e-07
2.76663e-07
-2.56854e-09
1.73393e-07
8.05388e-08
6.87582e-08
1.0528e-07
2.2284e-09
8.1963e-08
-4.89313e-08
3.68023e-08
-6.47087e-08
-6.79964e-09
-6.74274e-08
-3.85194e-08
-6.27984e-08
-5.00319e-08
-5.23709e-08
-4.71803e-08
-3.57743e-08
-7.29609e-08
-2.47162e-08
-1.07304e-07
-1.96274e-08
-1.93212e-07
1.87302e-07
-2.25781e-07
1.43384e-07
-2.33604e-07
-6.45494e-08
-1.32998e-07
-5.84968e-08
3.61049e-05
-2.47875e-06
-9.2469e-06
7.19336e-06
-1.12231e-05
4.1026e-06
-1.13451e-05
3.47005e-06
-1.03561e-05
3.43895e-06
-9.1059e-06
3.76383e-06
-7.86697e-06
3.83506e-06
-6.78556e-06
3.93423e-06
-5.89578e-06
3.80433e-06
-5.21152e-06
3.49778e-06
-4.6468e-06
3.17498e-06
-4.10986e-06
2.78733e-06
-3.60413e-06
2.49988e-06
-3.10002e-06
2.09405e-06
-2.63317e-06
1.84599e-06
-2.1586e-06
1.52155e-06
-1.72931e-06
1.34561e-06
-1.31139e-06
1.12383e-06
-9.6319e-07
9.95615e-07
-6.59855e-07
8.02725e-07
-4.36958e-07
6.69075e-07
-2.58948e-07
4.56581e-07
-1.47586e-07
3.05591e-07
-6.57616e-08
9.05411e-08
-2.24132e-08
-5.69132e-08
1.71195e-08
-2.32177e-07
2.67492e-08
-3.60198e-07
1.67328e-08
-4.00564e-07
-5.54379e-09
-4.03781e-07
-4.36168e-08
-3.5235e-07
-7.77834e-08
-3.0285e-07
-1.05023e-07
-2.5229e-07
-1.19997e-07
-1.92909e-07
-1.11022e-07
-1.40893e-07
-8.65393e-08
-1.63842e-07
-8.61064e-08
-1.39785e-07
-6.00219e-08
-1.44087e-07
8.49972e-08
-1.83405e-07
3.61925e-08
-2.38346e-07
-8.91301e-08
-1.4452e-07
-8.5463e-08
-2.02104e-08
3.90619e-05
3.34433e-05
2.27187e-05
2.10969e-05
1.8397e-05
1.58394e-05
1.5676e-05
1.18179e-05
1.35205e-05
9.01111e-06
1.16521e-05
6.32154e-06
9.90867e-06
4.35813e-06
8.37874e-06
2.63902e-06
7.00476e-06
1.43465e-06
5.80821e-06
4.59994e-07
4.76795e-06
-1.68993e-07
3.88881e-06
-6.53365e-07
3.19653e-06
-9.33711e-07
2.67638e-06
-1.08206e-06
2.28592e-06
-1.18615e-06
1.95678e-06
-1.29489e-06
1.65456e-06
-1.4227e-06
1.3557e-06
-1.58827e-06
1.04742e-06
-1.75039e-06
7.38397e-07
-1.90324e-06
4.31727e-07
-2.01667e-06
1.46347e-07
-2.04782e-06
-1.07921e-07
-2.03338e-06
-3.20675e-07
-1.91691e-06
-4.84559e-07
-1.77709e-06
-5.89389e-07
-1.56571e-06
-6.21812e-07
-1.44095e-06
-6.05426e-07
-1.29747e-06
-5.50068e-07
-1.14752e-06
-4.76431e-07
-9.51529e-07
-3.92612e-07
-7.17231e-07
-3.08134e-07
-4.96186e-07
-2.36275e-07
-3.21998e-07
-1.5765e-07
-2.09204e-07
-1.18691e-07
-2.30807e-07
-1.28144e-07
-1.11924e-07
-9.91322e-08
-4.95969e-08
-1.06267e-07
-5.71225e-08
-1.30322e-07
-6.82128e-08
-7.22625e-08
-4.29338e-08
-1.63471e-08
0
)
;

boundaryField
{
    inlet
    {
        type            extrapolatedCalculated;
        value           nonuniform List<scalar> 
23
(
-1.35859e-06
-9.91397e-08
-5.04463e-07
-9.55357e-08
-4.23781e-07
-8.85636e-08
-3.3931e-07
-7.15892e-08
-2.71876e-07
-6.38292e-08
-2.03359e-07
-5.97701e-08
-1.45064e-07
-4.65459e-08
-9.6292e-08
-3.97007e-08
-7.67628e-08
-3.17178e-08
-5.25343e-08
-5.56652e-08
-5.84968e-08
-2.02104e-08
0
)
;
    }
    outlet
    {
        type            extrapolatedCalculated;
        value           nonuniform List<scalar> 
82
(
3.90619e-05
2.27187e-05
3.34433e-05
2.10969e-05
1.8397e-05
1.58394e-05
1.5676e-05
1.18179e-05
1.35205e-05
9.01111e-06
1.16521e-05
6.32154e-06
9.90867e-06
4.35813e-06
8.37874e-06
2.63902e-06
7.00476e-06
1.43465e-06
5.80821e-06
4.59994e-07
4.76795e-06
-1.68993e-07
3.88881e-06
-6.53365e-07
3.19653e-06
-9.33711e-07
2.67638e-06
-1.08206e-06
2.28592e-06
-1.18615e-06
1.95678e-06
-1.29489e-06
1.65456e-06
-1.4227e-06
1.3557e-06
-1.58827e-06
1.04742e-06
-1.75039e-06
7.38397e-07
-1.90324e-06
4.31727e-07
-2.01667e-06
1.46347e-07
-2.04782e-06
-1.07921e-07
-2.03338e-06
-3.20675e-07
-1.91691e-06
-4.84559e-07
-1.77709e-06
-5.89389e-07
-1.56571e-06
-6.21812e-07
-1.44095e-06
-6.05426e-07
-1.29747e-06
-5.50068e-07
-1.14752e-06
-4.76431e-07
-9.51529e-07
-3.92612e-07
-7.17231e-07
-3.08134e-07
-4.96186e-07
-2.36275e-07
-3.21998e-07
-1.5765e-07
-2.09204e-07
-1.18691e-07
-2.30807e-07
-1.28144e-07
-1.11924e-07
-9.91322e-08
-4.95969e-08
-1.06267e-07
-5.71225e-08
-1.30322e-07
-6.82128e-08
-7.22625e-08
-4.29338e-08
-1.63471e-08
0
)
;
    }
    walls
    {
        type            extrapolatedCalculated;
        value           nonuniform List<scalar> 0();
    }
    frontAndBack
    {
        type            empty;
    }
    procBoundary3to2
    {
        type            processor;
        value           nonuniform List<scalar> 
88
(
1.04937e-07
1.16198e-07
2.93162e-07
4.34606e-07
4.34606e-07
1.30256e-07
2.80352e-07
2.80352e-07
5.63574e-08
-5.64849e-08
2.46466e-07
2.46466e-07
-1.59614e-08
3.03146e-08
1.81322e-08
-6.40498e-08
1.47167e-07
1.47167e-07
-1.26286e-07
2.74068e-08
8.27605e-08
-3.95943e-08
7.41847e-08
7.41847e-08
-1.30318e-08
-1.14788e-07
-8.50375e-08
-9.67692e-08
-2.14359e-07
2.0362e-07
-1.74823e-07
-1.74823e-07
2.12712e-07
-2.60167e-07
1.51156e-07
-2.20075e-07
7.33023e-08
-1.52411e-07
4.59073e-08
-7.45789e-08
7.54159e-09
8.08712e-11
4.20507e-09
-8.32689e-09
-8.32689e-09
2.0534e-05
1.10184e-05
6.52384e-06
7.01502e-06
3.01036e-06
4.25539e-06
1.05968e-06
2.53832e-06
5.48762e-08
1.47033e-06
-5.007e-07
7.66631e-07
-6.34699e-07
2.82347e-07
-7.11522e-07
-9.94718e-08
-5.55953e-07
-3.70682e-07
-4.49229e-07
-5.65241e-07
-1.9151e-07
-6.67186e-07
-9.36013e-09
-7.13654e-07
1.87323e-07
-7.15128e-07
3.48826e-07
-6.8146e-07
3.95071e-07
-5.39931e-07
5.53688e-07
-3.5696e-07
7.49143e-07
-2.59721e-07
7.54718e-07
-2.81193e-07
7.3732e-07
-3.80685e-07
5.17128e-07
-4.58202e-07
6.04875e-07
-9.7121e-07
-9.7121e-07
)
;
    }
    procBoundary3to6
    {
        type            processor;
        value           uniform 2.26636e-05;
    }
    procBoundary3to7
    {
        type            processor;
        value           nonuniform List<scalar> 
16
(
-5.97313e-05
6.77792e-06
-2.89703e-05
-1.07879e-05
-3.62066e-05
-5.23214e-06
-4.48787e-05
3.40609e-05
3.40609e-05
-3.07037e-05
0.000102078
0.000137134
-0.000132157
-0.00012397
2.44616e-05
2.90669e-05
)
;
    }
}


// ************************************************************************* //
