/*--------------------------------*- C++ -*----------------------------------*\
| =========                 |                                                 |
| \\      /  F ield         | OpenFOAM: The Open Source CFD Toolbox           |
|  \\    /   O peration     | Version:  2506                                  |
|   \\  /    A nd           | Website:  www.openfoam.com                      |
|    \\/     M anipulation  |                                                 |
\*---------------------------------------------------------------------------*/
FoamFile
{
    version     2.0;
    format      ascii;
    arch        "LSB;label=32;scalar=64";
    class       volScalarField;
    location    "200";
    object      turbulenceProperties:nuEff;
}
// * * * * * * * * * * * * * * * * * * * * * * * * * * * * * * * * * * * * * //

dimensions      [0 2 -1 0 0 0 0];

internalField   nonuniform List<scalar> 
1340
(
1.61471e-05
1.61198e-05
1.61224e-05
1.61235e-05
1.6149e-05
1.61201e-05
1.6129e-05
1.61305e-05
1.61229e-05
1.61253e-05
1.6151e-05
1.61202e-05
1.61088e-05
1.61135e-05
1.61216e-05
1.61303e-05
1.61311e-05
1.61234e-05
1.61274e-05
1.61531e-05
1.61203e-05
1.6099e-05
1.61027e-05
1.61048e-05
1.61062e-05
1.61074e-05
1.61096e-05
1.61146e-05
1.6123e-05
1.61316e-05
1.61318e-05
1.6124e-05
1.61297e-05
1.61553e-05
1.61203e-05
1.6078e-05
1.60816e-05
1.60859e-05
1.60906e-05
1.60953e-05
1.60999e-05
1.61035e-05
1.61055e-05
1.61068e-05
1.61081e-05
1.61105e-05
1.61158e-05
1.61246e-05
1.6133e-05
1.61325e-05
1.61247e-05
1.61322e-05
1.61575e-05
1.61201e-05
1.60776e-05
1.60752e-05
1.60732e-05
1.60721e-05
1.60724e-05
1.60736e-05
1.60756e-05
1.60785e-05
1.60823e-05
1.60868e-05
1.60915e-05
1.60962e-05
1.61008e-05
1.61043e-05
1.61063e-05
1.61075e-05
1.61088e-05
1.61114e-05
1.61171e-05
1.61262e-05
1.61344e-05
1.61332e-05
1.61254e-05
1.61349e-05
1.61598e-05
1.61198e-05
1.60928e-05
1.6092e-05
1.60912e-05
1.60904e-05
1.60897e-05
1.60889e-05
1.60881e-05
1.60871e-05
1.60858e-05
1.60842e-05
1.60822e-05
1.60798e-05
1.60773e-05
1.60748e-05
1.60729e-05
1.60721e-05
1.60725e-05
1.60739e-05
1.60761e-05
1.60791e-05
1.60831e-05
1.60876e-05
1.60924e-05
1.60972e-05
1.61018e-05
1.61052e-05
1.6107e-05
1.61082e-05
1.61096e-05
1.61124e-05
1.61186e-05
1.6128e-05
1.61358e-05
1.61339e-05
1.61262e-05
1.61379e-05
1.61622e-05
1.61192e-05
1.63867e-05
1.82153e-05
1.67869e-05
1.60387e-05
1.59685e-05
1.60827e-05
1.61254e-05
1.61229e-05
1.6118e-05
1.61126e-05
1.61102e-05
1.61083e-05
1.61063e-05
1.61047e-05
1.61032e-05
1.6102e-05
1.61008e-05
1.60998e-05
1.60989e-05
1.6098e-05
1.60973e-05
1.60966e-05
1.60961e-05
1.60956e-05
1.60953e-05
1.60952e-05
1.60952e-05
1.60955e-05
1.60959e-05
1.60962e-05
1.60965e-05
1.60968e-05
1.6097e-05
1.60971e-05
1.60971e-05
1.6097e-05
1.60968e-05
1.60965e-05
1.60961e-05
1.60955e-05
1.60949e-05
1.60942e-05
1.60935e-05
1.60927e-05
1.60919e-05
1.60912e-05
1.60904e-05
1.60897e-05
1.6089e-05
1.60881e-05
1.60871e-05
1.60857e-05
1.6084e-05
1.60819e-05
1.60795e-05
1.60769e-05
1.60745e-05
1.60727e-05
1.60721e-05
1.60728e-05
1.60742e-05
1.60766e-05
1.60798e-05
1.60839e-05
1.60885e-05
1.60934e-05
1.60982e-05
1.61028e-05
1.61061e-05
1.61078e-05
1.61089e-05
1.61104e-05
1.61135e-05
1.61201e-05
1.61299e-05
1.61373e-05
1.61345e-05
1.6127e-05
1.61412e-05
1.61645e-05
1.61185e-05
1.81322e-05
1.6452e-05
1.59909e-05
1.60031e-05
1.60881e-05
1.61263e-05
1.61219e-05
1.61151e-05
1.61112e-05
1.6109e-05
1.61076e-05
1.61061e-05
1.61047e-05
1.61034e-05
1.61023e-05
1.61012e-05
1.61002e-05
1.60993e-05
1.60984e-05
1.60976e-05
1.60969e-05
1.60962e-05
1.60957e-05
1.60952e-05
1.6095e-05
1.60948e-05
1.60949e-05
1.60952e-05
1.60957e-05
1.60961e-05
1.60964e-05
1.60967e-05
1.60969e-05
1.6097e-05
1.60971e-05
1.6097e-05
1.60967e-05
1.60964e-05
1.6096e-05
1.60954e-05
1.60948e-05
1.60941e-05
1.60934e-05
1.60927e-05
1.60919e-05
1.60912e-05
1.60905e-05
1.60898e-05
1.6089e-05
1.60881e-05
1.6087e-05
1.60856e-05
1.60838e-05
1.60816e-05
1.60791e-05
1.60764e-05
1.60741e-05
1.60725e-05
1.60722e-05
1.6073e-05
1.60746e-05
1.60771e-05
1.60806e-05
1.60848e-05
1.60895e-05
1.60944e-05
1.60993e-05
1.61038e-05
1.61071e-05
1.61086e-05
1.61097e-05
1.61113e-05
1.61147e-05
1.61219e-05
1.61319e-05
1.61388e-05
1.61351e-05
1.6128e-05
1.61448e-05
1.61669e-05
1.61176e-05
1.62372e-05
1.59681e-05
1.60435e-05
1.61066e-05
1.6126e-05
1.61216e-05
1.61143e-05
1.61111e-05
1.61093e-05
1.61081e-05
1.61068e-05
1.61055e-05
1.61043e-05
1.61031e-05
1.6102e-05
1.6101e-05
1.61e-05
1.6099e-05
1.60981e-05
1.60973e-05
1.60966e-05
1.60959e-05
1.60954e-05
1.60949e-05
1.60947e-05
1.60946e-05
1.60947e-05
1.6095e-05
1.60955e-05
1.60959e-05
1.60963e-05
1.60966e-05
1.60968e-05
1.6097e-05
1.6097e-05
1.60969e-05
1.60966e-05
1.60963e-05
1.60958e-05
1.60953e-05
1.60947e-05
1.6094e-05
1.60933e-05
1.60926e-05
1.60919e-05
1.60912e-05
1.60905e-05
1.60898e-05
1.6089e-05
1.60881e-05
1.60869e-05
1.60854e-05
1.60835e-05
1.60812e-05
1.60786e-05
1.6076e-05
1.60738e-05
1.60724e-05
1.60723e-05
1.60733e-05
1.60751e-05
1.60778e-05
1.60814e-05
1.60857e-05
1.60906e-05
1.60955e-05
1.61004e-05
1.61049e-05
1.6108e-05
1.61095e-05
1.61105e-05
1.61122e-05
1.61161e-05
1.61237e-05
1.61339e-05
1.61403e-05
1.61357e-05
1.61292e-05
1.61487e-05
1.61692e-05
1.61164e-05
1.597e-05
1.60819e-05
1.6124e-05
1.61278e-05
1.61212e-05
1.61156e-05
1.61127e-05
1.61112e-05
1.61099e-05
1.61085e-05
1.61071e-05
1.61058e-05
1.61045e-05
1.61033e-05
1.61021e-05
1.6101e-05
1.60999e-05
1.60989e-05
1.60979e-05
1.60971e-05
1.60963e-05
1.60956e-05
1.60951e-05
1.60946e-05
1.60944e-05
1.60943e-05
1.60945e-05
1.60948e-05
1.60953e-05
1.60958e-05
1.60962e-05
1.60966e-05
1.60968e-05
1.60969e-05
1.60969e-05
1.60968e-05
1.60965e-05
1.60962e-05
1.60957e-05
1.60952e-05
1.60946e-05
1.60939e-05
1.60932e-05
1.60925e-05
1.60918e-05
1.60912e-05
1.60905e-05
1.60898e-05
1.6089e-05
1.60881e-05
1.60868e-05
1.60852e-05
1.60832e-05
1.60808e-05
1.60781e-05
1.60755e-05
1.60734e-05
1.60723e-05
1.60725e-05
1.60737e-05
1.60756e-05
1.60785e-05
1.60823e-05
1.60868e-05
1.60917e-05
1.60967e-05
1.61016e-05
1.61061e-05
1.6109e-05
1.61104e-05
1.61114e-05
1.61132e-05
1.61176e-05
1.61258e-05
1.61362e-05
1.61418e-05
1.61363e-05
1.61304e-05
1.6153e-05
1.61715e-05
1.61149e-05
1.61098e-05
1.61368e-05
1.61305e-05
1.6123e-05
1.61186e-05
1.61163e-05
1.61145e-05
1.61129e-05
1.61113e-05
1.61097e-05
1.61081e-05
1.61066e-05
1.61051e-05
1.61037e-05
1.61024e-05
1.61012e-05
1.61e-05
1.60989e-05
1.60979e-05
1.60969e-05
1.60961e-05
1.60954e-05
1.60948e-05
1.60944e-05
1.60941e-05
1.60941e-05
1.60943e-05
1.60946e-05
1.60952e-05
1.60957e-05
1.60961e-05
1.60965e-05
1.60967e-05
1.60968e-05
1.60968e-05
1.60966e-05
1.60964e-05
1.6096e-05
1.60956e-05
1.60951e-05
1.60945e-05
1.60938e-05
1.60931e-05
1.60924e-05
1.60918e-05
1.60911e-05
1.60905e-05
1.60898e-05
1.6089e-05
1.6088e-05
1.60867e-05
1.60849e-05
1.60828e-05
1.60803e-05
1.60776e-05
1.6075e-05
1.60731e-05
1.60723e-05
1.60727e-05
1.60741e-05
1.60762e-05
1.60793e-05
1.60832e-05
1.60879e-05
1.60929e-05
1.6098e-05
1.61029e-05
1.61073e-05
1.61101e-05
1.61113e-05
1.61123e-05
1.61144e-05
1.61192e-05
1.6128e-05
1.61385e-05
1.61432e-05
1.61368e-05
1.61319e-05
1.61576e-05
1.61736e-05
1.6113e-05
1.61414e-05
1.61332e-05
1.61274e-05
1.61239e-05
1.61216e-05
1.61193e-05
1.61171e-05
1.6115e-05
1.6113e-05
1.6111e-05
1.61092e-05
1.61074e-05
1.61058e-05
1.61042e-05
1.61027e-05
1.61013e-05
1.61e-05
1.60988e-05
1.60977e-05
1.60967e-05
1.60958e-05
1.60951e-05
1.60945e-05
1.60941e-05
1.60939e-05
1.60939e-05
1.60941e-05
1.60945e-05
1.60951e-05
1.60956e-05
1.6096e-05
1.60964e-05
1.60966e-05
1.60966e-05
1.60966e-05
1.60964e-05
1.60962e-05
1.60958e-05
1.60954e-05
1.60948e-05
1.60943e-05
1.60936e-05
1.6093e-05
1.60924e-05
1.60918e-05
1.60912e-05
1.60905e-05
1.60898e-05
1.6089e-05
1.60879e-05
1.60864e-05
1.60845e-05
1.60822e-05
1.60796e-05
1.60769e-05
1.60744e-05
1.60728e-05
1.60724e-05
1.60731e-05
1.60747e-05
1.6077e-05
1.60804e-05
1.60845e-05
1.60894e-05
1.60945e-05
1.60996e-05
1.61045e-05
1.61088e-05
1.61113e-05
1.61124e-05
1.61135e-05
1.61159e-05
1.61213e-05
1.61308e-05
1.61412e-05
1.61449e-05
1.61374e-05
1.61338e-05
1.61629e-05
1.61757e-05
1.61109e-05
1.61388e-05
1.61342e-05
1.61308e-05
1.61279e-05
1.61249e-05
1.61221e-05
1.61194e-05
1.61168e-05
1.61145e-05
1.61122e-05
1.61101e-05
1.61081e-05
1.61062e-05
1.61044e-05
1.61028e-05
1.61012e-05
1.60998e-05
1.60985e-05
1.60973e-05
1.60962e-05
1.60953e-05
1.60946e-05
1.6094e-05
1.60937e-05
1.60936e-05
1.60937e-05
1.6094e-05
1.60944e-05
1.60949e-05
1.60955e-05
1.60959e-05
1.60962e-05
1.60964e-05
1.60964e-05
1.60963e-05
1.60961e-05
1.60959e-05
1.60955e-05
1.60951e-05
1.60946e-05
1.6094e-05
1.60934e-05
1.60929e-05
1.60923e-05
1.60917e-05
1.60912e-05
1.60906e-05
1.60898e-05
1.60888e-05
1.60876e-05
1.60859e-05
1.60839e-05
1.60814e-05
1.60787e-05
1.6076e-05
1.60738e-05
1.60725e-05
1.60726e-05
1.60736e-05
1.60755e-05
1.60782e-05
1.60818e-05
1.60862e-05
1.60912e-05
1.60964e-05
1.61015e-05
1.61064e-05
1.61105e-05
1.61128e-05
1.61137e-05
1.61149e-05
1.61177e-05
1.6124e-05
1.61342e-05
1.61444e-05
1.61466e-05
1.6138e-05
1.61367e-05
1.61692e-05
1.61777e-05
1.61081e-05
1.61417e-05
1.6138e-05
1.61341e-05
1.61305e-05
1.61271e-05
1.61238e-05
1.61208e-05
1.6118e-05
1.61153e-05
1.61128e-05
1.61105e-05
1.61083e-05
1.61062e-05
1.61043e-05
1.61025e-05
1.61008e-05
1.60993e-05
1.60979e-05
1.60966e-05
1.60956e-05
1.60947e-05
1.6094e-05
1.60936e-05
1.60933e-05
1.60933e-05
1.60934e-05
1.60937e-05
1.60942e-05
1.60948e-05
1.60953e-05
1.60957e-05
1.60959e-05
1.60961e-05
1.60961e-05
1.6096e-05
1.60958e-05
1.60956e-05
1.60952e-05
1.60948e-05
1.60943e-05
1.60938e-05
1.60933e-05
1.60927e-05
1.60922e-05
1.60917e-05
1.60912e-05
1.60905e-05
1.60897e-05
1.60886e-05
1.60872e-05
1.60853e-05
1.6083e-05
1.60804e-05
1.60776e-05
1.6075e-05
1.60732e-05
1.60725e-05
1.6073e-05
1.60743e-05
1.60765e-05
1.60795e-05
1.60834e-05
1.60881e-05
1.60932e-05
1.60985e-05
1.61037e-05
1.61084e-05
1.61123e-05
1.61143e-05
1.6115e-05
1.61164e-05
1.61199e-05
1.61271e-05
1.61379e-05
1.61476e-05
1.61481e-05
1.61386e-05
1.61405e-05
1.61758e-05
1.61791e-05
1.61049e-05
1.61447e-05
1.6148e-05
1.61401e-05
1.6136e-05
1.61321e-05
1.61284e-05
1.61249e-05
1.61216e-05
1.61186e-05
1.61157e-05
1.6113e-05
1.61104e-05
1.61081e-05
1.61058e-05
1.61038e-05
1.61018e-05
1.61001e-05
1.60985e-05
1.60971e-05
1.60959e-05
1.60949e-05
1.6094e-05
1.60934e-05
1.6093e-05
1.60928e-05
1.60929e-05
1.60931e-05
1.60935e-05
1.6094e-05
1.60946e-05
1.60951e-05
1.60954e-05
1.60956e-05
1.60957e-05
1.60957e-05
1.60957e-05
1.60955e-05
1.60952e-05
1.60948e-05
1.60944e-05
1.6094e-05
1.60935e-05
1.60931e-05
1.60927e-05
1.60922e-05
1.60917e-05
1.60912e-05
1.60905e-05
1.60895e-05
1.60882e-05
1.60866e-05
1.60845e-05
1.6082e-05
1.60792e-05
1.60765e-05
1.60742e-05
1.60728e-05
1.60727e-05
1.60736e-05
1.60752e-05
1.60777e-05
1.6081e-05
1.60852e-05
1.60901e-05
1.60954e-05
1.61007e-05
1.61059e-05
1.61106e-05
1.61141e-05
1.61157e-05
1.61165e-05
1.61182e-05
1.61224e-05
1.61306e-05
1.61419e-05
1.61508e-05
1.61494e-05
1.61394e-05
1.61454e-05
1.61828e-05
1.618e-05
1.61011e-05
1.61452e-05
1.61484e-05
1.61404e-05
1.61363e-05
1.61324e-05
1.61286e-05
1.6125e-05
1.61217e-05
1.61185e-05
1.61155e-05
1.61126e-05
1.611e-05
1.61075e-05
1.61052e-05
1.6103e-05
1.61011e-05
1.60993e-05
1.60977e-05
1.60963e-05
1.60951e-05
1.60941e-05
1.60933e-05
1.60928e-05
1.60925e-05
1.60924e-05
1.60925e-05
1.60927e-05
1.60931e-05
1.60936e-05
1.60942e-05
1.60947e-05
1.6095e-05
1.60952e-05
1.60953e-05
1.60953e-05
1.60952e-05
1.6095e-05
1.60948e-05
1.60944e-05
1.60941e-05
1.60937e-05
1.60933e-05
1.6093e-05
1.60926e-05
1.60922e-05
1.60917e-05
1.60911e-05
1.60903e-05
1.60891e-05
1.60877e-05
1.60858e-05
1.60834e-05
1.60808e-05
1.60779e-05
1.60753e-05
1.60734e-05
1.60727e-05
1.60731e-05
1.60743e-05
1.60763e-05
1.60791e-05
1.60828e-05
1.60873e-05
1.60924e-05
1.60978e-05
1.61032e-05
1.61083e-05
1.61128e-05
1.61159e-05
1.61173e-05
1.6118e-05
1.61202e-05
1.61252e-05
1.61345e-05
1.61462e-05
1.6154e-05
1.61505e-05
1.61404e-05
1.61514e-05
1.61899e-05
1.61801e-05
1.60969e-05
1.61435e-05
1.61467e-05
1.61389e-05
1.6135e-05
1.61311e-05
1.61274e-05
1.61239e-05
1.61206e-05
1.61174e-05
1.61145e-05
1.61116e-05
1.6109e-05
1.61065e-05
1.61042e-05
1.61021e-05
1.61001e-05
1.60984e-05
1.60968e-05
1.60954e-05
1.60943e-05
1.60933e-05
1.60926e-05
1.60921e-05
1.60919e-05
1.60919e-05
1.6092e-05
1.60923e-05
1.60927e-05
1.60932e-05
1.60938e-05
1.60942e-05
1.60945e-05
1.60947e-05
1.60948e-05
1.60948e-05
1.60947e-05
1.60945e-05
1.60943e-05
1.6094e-05
1.60938e-05
1.60935e-05
1.60932e-05
1.60929e-05
1.60925e-05
1.60921e-05
1.60916e-05
1.60909e-05
1.60899e-05
1.60886e-05
1.60868e-05
1.60847e-05
1.60821e-05
1.60793e-05
1.60766e-05
1.60743e-05
1.6073e-05
1.60729e-05
1.60737e-05
1.60753e-05
1.60776e-05
1.60807e-05
1.60848e-05
1.60896e-05
1.60949e-05
1.61003e-05
1.61057e-05
1.61108e-05
1.6115e-05
1.61178e-05
1.61189e-05
1.61198e-05
1.61225e-05
1.61286e-05
1.61388e-05
1.61507e-05
1.6157e-05
1.61513e-05
1.61419e-05
1.61587e-05
1.61972e-05
1.61792e-05
1.60919e-05
1.61414e-05
1.61446e-05
1.61367e-05
1.61327e-05
1.61288e-05
1.61252e-05
1.61218e-05
1.61186e-05
1.61155e-05
1.61126e-05
1.61099e-05
1.61074e-05
1.6105e-05
1.61028e-05
1.61008e-05
1.60989e-05
1.60972e-05
1.60958e-05
1.60945e-05
1.60934e-05
1.60925e-05
1.60919e-05
1.60915e-05
1.60913e-05
1.60913e-05
1.60915e-05
1.60918e-05
1.60922e-05
1.60927e-05
1.60932e-05
1.60936e-05
1.60939e-05
1.60941e-05
1.60942e-05
1.60942e-05
1.60941e-05
1.6094e-05
1.60938e-05
1.60937e-05
1.60935e-05
1.60933e-05
1.60931e-05
1.60928e-05
1.60925e-05
1.6092e-05
1.60914e-05
1.60905e-05
1.60893e-05
1.60877e-05
1.60857e-05
1.60833e-05
1.60806e-05
1.60778e-05
1.60753e-05
1.60735e-05
1.60729e-05
1.60733e-05
1.60745e-05
1.60764e-05
1.60791e-05
1.60827e-05
1.60871e-05
1.60921e-05
1.60976e-05
1.61031e-05
1.61085e-05
1.61134e-05
1.61173e-05
1.61196e-05
1.61205e-05
1.61217e-05
1.61252e-05
1.61324e-05
1.61437e-05
1.61553e-05
1.61597e-05
1.61519e-05
1.61438e-05
1.61672e-05
1.62043e-05
1.61772e-05
1.60873e-05
1.61406e-05
1.6144e-05
1.61354e-05
1.61311e-05
1.6127e-05
1.61232e-05
1.61197e-05
1.61164e-05
1.61133e-05
1.61105e-05
1.61078e-05
1.61054e-05
1.61031e-05
1.6101e-05
1.60991e-05
1.60973e-05
1.60958e-05
1.60944e-05
1.60932e-05
1.60922e-05
1.60914e-05
1.60909e-05
1.60905e-05
1.60904e-05
1.60905e-05
1.60907e-05
1.60911e-05
1.60916e-05
1.60921e-05
1.60925e-05
1.60929e-05
1.60932e-05
1.60934e-05
1.60935e-05
1.60936e-05
1.60936e-05
1.60935e-05
1.60935e-05
1.60934e-05
1.60933e-05
1.60931e-05
1.60929e-05
1.60927e-05
1.60923e-05
1.60917e-05
1.60909e-05
1.60898e-05
1.60884e-05
1.60865e-05
1.60842e-05
1.60816e-05
1.60788e-05
1.60762e-05
1.60742e-05
1.60732e-05
1.60733e-05
1.60741e-05
1.60757e-05
1.6078e-05
1.60811e-05
1.6085e-05
1.60898e-05
1.60951e-05
1.61006e-05
1.61062e-05
1.61115e-05
1.61162e-05
1.61197e-05
1.61215e-05
1.61223e-05
1.61241e-05
1.61286e-05
1.61372e-05
1.61492e-05
1.61601e-05
1.61621e-05
1.61523e-05
1.61468e-05
1.61774e-05
1.6211e-05
1.61743e-05
1.60845e-05
1.61425e-05
1.61462e-05
1.61369e-05
1.61321e-05
1.61276e-05
1.61234e-05
1.61195e-05
1.61158e-05
1.61125e-05
1.61094e-05
1.61066e-05
1.6104e-05
1.61017e-05
1.60995e-05
1.60976e-05
1.60959e-05
1.60943e-05
1.6093e-05
1.60919e-05
1.60909e-05
1.60903e-05
1.60898e-05
1.60896e-05
1.60895e-05
1.60897e-05
1.609e-05
1.60905e-05
1.6091e-05
1.60915e-05
1.60919e-05
1.60923e-05
1.60925e-05
1.60927e-05
1.60929e-05
1.6093e-05
1.60931e-05
1.60931e-05
1.60931e-05
1.60932e-05
1.60931e-05
1.6093e-05
1.60929e-05
1.60926e-05
1.60921e-05
1.60914e-05
1.60904e-05
1.60891e-05
1.60873e-05
1.60851e-05
1.60825e-05
1.60797e-05
1.6077e-05
1.60748e-05
1.60735e-05
1.60732e-05
1.60737e-05
1.60749e-05
1.60768e-05
1.60794e-05
1.60829e-05
1.60872e-05
1.60922e-05
1.60977e-05
1.61033e-05
1.61089e-05
1.61142e-05
1.61186e-05
1.61217e-05
1.61231e-05
1.61239e-05
1.61261e-05
1.61316e-05
1.61414e-05
1.61542e-05
1.61644e-05
1.6164e-05
1.61522e-05
1.61494e-05
1.61869e-05
1.62169e-05
1.617e-05
1.60814e-05
1.61427e-05
1.61461e-05
1.61375e-05
1.6133e-05
1.61286e-05
1.61244e-05
1.61204e-05
1.61167e-05
1.61132e-05
1.61099e-05
1.61069e-05
1.61041e-05
1.61015e-05
1.60991e-05
1.6097e-05
1.6095e-05
1.60933e-05
1.60918e-05
1.60905e-05
1.60895e-05
1.60887e-05
1.60882e-05
1.60879e-05
1.60879e-05
1.6088e-05
1.60884e-05
1.6089e-05
1.60897e-05
1.60904e-05
1.60909e-05
1.60913e-05
1.60917e-05
1.6092e-05
1.60923e-05
1.60925e-05
1.60927e-05
1.60929e-05
1.6093e-05
1.6093e-05
1.60929e-05
1.60927e-05
1.60924e-05
1.60918e-05
1.6091e-05
1.60899e-05
1.60884e-05
1.60866e-05
1.60844e-05
1.60819e-05
1.60794e-05
1.60769e-05
1.6075e-05
1.60738e-05
1.60736e-05
1.60742e-05
1.60754e-05
1.60772e-05
1.60798e-05
1.60831e-05
1.60873e-05
1.60922e-05
1.60976e-05
1.61032e-05
1.61089e-05
1.61144e-05
1.61192e-05
1.6123e-05
1.61252e-05
1.61263e-05
1.61278e-05
1.61318e-05
1.61397e-05
1.61514e-05
1.61641e-05
1.6171e-05
1.61655e-05
1.61534e-05
1.61617e-05
1.62065e-05
1.62234e-05
1.61645e-05
1.60838e-05
)
;

boundaryField
{
    inlet
    {
        type            calculated;
        value           uniform 2e-05;
    }
    outlet
    {
        type            calculated;
        value           nonuniform List<scalar> 
82
(
1.61427e-05
1.61375e-05
1.61461e-05
1.6133e-05
1.61286e-05
1.61244e-05
1.61204e-05
1.61167e-05
1.61132e-05
1.61099e-05
1.61069e-05
1.61041e-05
1.61015e-05
1.60991e-05
1.6097e-05
1.6095e-05
1.60933e-05
1.60918e-05
1.60905e-05
1.60895e-05
1.60887e-05
1.60882e-05
1.60879e-05
1.60879e-05
1.6088e-05
1.60884e-05
1.6089e-05
1.60897e-05
1.60904e-05
1.60909e-05
1.60913e-05
1.60917e-05
1.6092e-05
1.60923e-05
1.60925e-05
1.60927e-05
1.60929e-05
1.6093e-05
1.6093e-05
1.60929e-05
1.60927e-05
1.60924e-05
1.60918e-05
1.6091e-05
1.60899e-05
1.60884e-05
1.60866e-05
1.60844e-05
1.60819e-05
1.60794e-05
1.60769e-05
1.6075e-05
1.60738e-05
1.60736e-05
1.60742e-05
1.60754e-05
1.60772e-05
1.60798e-05
1.60831e-05
1.60873e-05
1.60922e-05
1.60976e-05
1.61032e-05
1.61089e-05
1.61144e-05
1.61192e-05
1.6123e-05
1.61252e-05
1.61263e-05
1.61278e-05
1.61318e-05
1.61397e-05
1.61514e-05
1.61641e-05
1.6171e-05
1.61655e-05
1.61534e-05
1.61617e-05
1.62065e-05
1.62234e-05
1.61645e-05
1.60838e-05
)
;
    }
    walls
    {
        type            calculated;
        value           nonuniform List<scalar> 0();
    }
    frontAndBack
    {
        type            empty;
    }
    procBoundary3to2
    {
        type            processor;
        value           nonuniform List<scalar> 
88
(
1.61453e-05
1.61195e-05
1.61219e-05
1.61218e-05
1.61218e-05
1.61277e-05
1.61298e-05
1.61298e-05
1.61081e-05
1.61124e-05
1.61202e-05
1.61202e-05
1.60982e-05
1.61019e-05
1.61041e-05
1.61056e-05
1.61068e-05
1.61068e-05
1.60774e-05
1.6081e-05
1.60852e-05
1.60898e-05
1.60945e-05
1.60945e-05
1.60779e-05
1.60755e-05
1.60734e-05
1.60722e-05
1.60722e-05
1.60733e-05
1.60752e-05
1.60752e-05
1.60928e-05
1.6092e-05
1.60912e-05
1.60904e-05
1.60897e-05
1.60889e-05
1.60881e-05
1.60871e-05
1.60859e-05
1.60844e-05
1.60824e-05
1.60801e-05
1.60801e-05
1.5517e-05
1.86618e-05
1.70547e-05
1.60501e-05
1.59695e-05
1.60898e-05
1.61199e-05
1.61278e-05
1.61211e-05
1.61153e-05
1.61126e-05
1.611e-05
1.61074e-05
1.61054e-05
1.61036e-05
1.61021e-05
1.61008e-05
1.60997e-05
1.60987e-05
1.60979e-05
1.60972e-05
1.60966e-05
1.60962e-05
1.60958e-05
1.60957e-05
1.60957e-05
1.60959e-05
1.60962e-05
1.60965e-05
1.60967e-05
1.60969e-05
1.60971e-05
1.60972e-05
1.60972e-05
1.60971e-05
1.60969e-05
1.60966e-05
1.60962e-05
1.60956e-05
1.6095e-05
1.60943e-05
1.60936e-05
1.60936e-05
)
;
    }
    procBoundary3to6
    {
        type            processor;
        value           uniform 1.00114e-05;
    }
    procBoundary3to7
    {
        type            processor;
        value           nonuniform List<scalar> 
16
(
1.0072e-05
1.68292e-05
1.7739e-05
1.61737e-05
1.60079e-05
1.61307e-05
1.61485e-05
1.61469e-05
1.61469e-05
1.61527e-05
1.61523e-05
1.61507e-05
1.61488e-05
1.61486e-05
1.61509e-05
1.61504e-05
)
;
    }
}


// ************************************************************************* //
