/*--------------------------------*- C++ -*----------------------------------*\
| =========                 |                                                 |
| \\      /  F ield         | OpenFOAM: The Open Source CFD Toolbox           |
|  \\    /   O peration     | Version:  2506                                  |
|   \\  /    A nd           | Website:  www.openfoam.com                      |
|    \\/     M anipulation  |                                                 |
\*---------------------------------------------------------------------------*/
FoamFile
{
    version     2.0;
    format      ascii;
    arch        "LSB;label=32;scalar=64";
    class       volVectorField;
    location    "500";
    object      momentError;
}
// * * * * * * * * * * * * * * * * * * * * * * * * * * * * * * * * * * * * * //

dimensions      [0 1 -2 0 0 0 0];

internalField   nonuniform List<vector> 
10720
(
(8.76771e-05 -0.000282822 -6.95743e-15)
(8.18548e-05 -0.00030888 2.41134e-14)
(5.99409e-05 -0.000307342 -4.72326e-14)
(1.37886e-05 -0.000275535 1.778e-14)
(-1.05708e-05 -0.000265787 1.10239e-13)
(-2.95593e-05 -0.000247437 -1.75099e-13)
(-4.93268e-05 -0.000255385 8.99985e-14)
(-7.24301e-05 -0.000249668 -1.11069e-13)
(-9.46969e-05 -0.00023447 -2.5463e-13)
(-0.00010517 -0.000195954 3.44118e-13)
(-9.99027e-05 -0.000150158 1.24149e-13)
(-8.45302e-05 -9.908e-05 -2.28811e-13)
(-6.55693e-05 -6.37545e-05 -3.34526e-13)
(-4.43125e-05 -3.69258e-05 -5.72036e-14)
(-1.25609e-05 -9.40485e-06 -1.39768e-13)
(2.70804e-05 1.71363e-05 -3.10395e-13)
(9.83937e-05 4.94012e-05 -1.46757e-13)
(0.00020516 7.31121e-05 8.32707e-13)
(2.43255e-05 1.39935e-05 4.23308e-13)
(0.000755337 0.000378298 -5.95091e-13)
(0.000812035 0.000274717 1.05315e-13)
(0.000627542 -0.000149664 1.53274e-13)
(-0.00886761 -0.00129937 -6.74716e-14)
(-0.0127165 -0.00268663 -1.51575e-13)
(0.00849157 -0.000249577 3.57105e-14)
(0.0217059 0.00375709 -2.34317e-15)
(0.012636 0.00487003 4.15485e-14)
(0.0015524 0.00331799 -1.64643e-14)
(-0.00596266 0.0010848 4.39569e-14)
(-0.00829431 -0.000118628 1.54493e-13)
(-0.00452165 -0.000340582 3.03114e-14)
(-0.000434034 -0.000330523 -1.28628e-13)
(0.00209563 -0.000348474 -7.923e-15)
(0.00150699 -0.000176215 -2.15711e-13)
(0.000532974 8.39112e-05 -2.82323e-13)
(-0.00017701 0.00130489 1.15496e-13)
(0.00116104 0.011518 -1.13959e-14)
(0.0524222 0.0722333 -4.53028e-16)
(1.09049 -0.12001 -6.74696e-14)
(9.44984e-05 -0.000265932 -1.0766e-14)
(9.8559e-05 -0.000192285 2.65582e-14)
(0.000108243 -0.000129983 1.73222e-15)
(9.79989e-05 -6.1362e-05 3.61656e-14)
(9.76835e-05 -2.57156e-05 -3.28851e-14)
(3.84371e-05 5.88826e-05 -9.40225e-14)
(8.49586e-06 8.40552e-05 -1.07345e-13)
(-8.13676e-05 0.000148274 2.99401e-14)
(-9.42719e-05 8.57883e-05 -7.52056e-14)
(-5.06094e-05 2.49688e-05 9.5795e-14)
(-1.21313e-05 -2.31882e-05 -6.00386e-14)
(3.44299e-05 -4.48056e-05 -1.46125e-13)
(5.09236e-05 -4.48661e-05 -1.64675e-13)
(5.88132e-05 -3.99767e-05 1.32091e-14)
(5.88829e-05 -3.31064e-05 1.33035e-13)
(5.53285e-05 -2.64313e-05 3.99406e-14)
(5.01827e-05 -2.08357e-05 -5.03069e-14)
(4.41942e-05 -1.59495e-05 -3.54749e-14)
(3.76982e-05 -1.23202e-05 -2.1818e-14)
(3.12658e-05 -9.00334e-06 3.90399e-14)
(2.45166e-05 -7.07278e-06 1.72961e-14)
(1.84014e-05 -5.26013e-06 2.50514e-14)
(1.24965e-05 -5.45902e-06 -3.38377e-14)
(1.11626e-05 -6.33142e-06 -2.46551e-14)
(1.47365e-05 -6.53491e-06 1.8184e-14)
(1.98979e-05 -6.29077e-06 1.24073e-14)
(2.65084e-05 -4.89523e-06 6.93012e-15)
(3.29483e-05 -4.69388e-06 -1.46246e-15)
(3.30034e-05 -1.8568e-06 -2.84507e-16)
(2.35213e-05 -5.84065e-06 2.30628e-16)
(2.35804e-05 -2.24506e-06 -4.51381e-16)
(3.43947e-05 -1.7314e-06 -1.86759e-15)
(4.08031e-05 -8.58218e-07 -1.26031e-15)
(3.69859e-05 -5.54559e-07 -3.83993e-15)
(4.87665e-05 1.7483e-06 -2.90651e-15)
(0.000165303 1.78946e-05 1.26149e-15)
(2.60205e-05 -2.00081e-05 -2.16462e-15)
(0.000339426 -0.000128713 -1.10573e-14)
(0.00219527 -0.0012686 -2.14937e-14)
(9.63328e-05 -0.000239611 -1.31424e-14)
(8.3379e-05 -0.000264057 5.88449e-15)
(6.12501e-05 -0.00026946 7.81389e-15)
(2.24761e-05 -0.000252226 -3.36621e-14)
(-9.58675e-06 -0.000238733 2.10325e-14)
(-2.03203e-05 -0.000236666 8.03964e-14)
(-5.07795e-05 -0.000242882 1.03894e-13)
(-6.98469e-05 -0.000238682 1.00638e-13)
(-9.21691e-05 -0.000221603 -3.98781e-15)
(-0.000101599 -0.000181851 1.90681e-13)
(-9.95428e-05 -0.000136823 -2.0886e-13)
(-9.05957e-05 -0.00010227 -1.19528e-13)
(-7.75841e-05 -6.5354e-05 4.48618e-13)
(-6.09663e-05 -3.60264e-05 1.28258e-13)
(-2.79761e-05 -2.34759e-05 -1.19187e-13)
(3.39428e-07 -1.2145e-05 -1.78005e-14)
(1.35425e-05 6.41229e-06 3.42058e-13)
(1.59455e-05 7.33475e-05 -1.53339e-13)
(-0.000716938 0.000333734 -4.91942e-13)
(-0.00363492 0.000402062 1.88444e-13)
(0.00212655 0.000403265 2.35433e-13)
(-0.00753162 0.00105069 4.67751e-14)
(0.00936818 -0.00186073 -1.30874e-13)
(0.0674307 0.00646301 1.92544e-13)
(0.065521 0.0129117 -4.19924e-14)
(-0.0113381 0.00701372 -7.04799e-14)
(-0.055444 0.00105049 -3.01917e-14)
(-0.0328462 0.000384452 5.59757e-15)
(-0.0130472 -0.000562615 -1.49967e-14)
(-0.0100682 -0.00197136 -1.58728e-14)
(-0.0027426 -0.00171649 -2.03998e-14)
(0.00121327 -0.000955138 3.52752e-14)
(0.00154934 -0.000405923 -1.88216e-13)
(0.00201195 -0.000174529 -2.24046e-13)
(0.00119676 1.77214e-05 1.62307e-13)
(4.08042e-05 0.000403273 -3.94954e-14)
(-0.000974623 0.0022298 3.30544e-14)
(-0.0317675 0.01426 -1.41193e-14)
(-0.893065 0.108622 -3.85093e-14)
(0.000105487 -0.000211417 -4.63885e-15)
(0.000126337 -0.00016511 1.24099e-13)
(0.000135374 -0.000113875 -7.98398e-15)
(0.000138722 -6.43866e-05 -1.29075e-13)
(0.000125889 -1.59424e-05 -2.56851e-14)
(9.23746e-05 3.36825e-05 1.27347e-13)
(5.63276e-05 6.27431e-05 1.11416e-13)
(-1.52165e-06 7.94298e-05 5.95855e-14)
(-2.69099e-05 3.71137e-05 -8.2588e-14)
(-1.72806e-05 -3.96605e-06 -1.06484e-14)
(3.46137e-06 -3.50765e-05 1.01897e-13)
(2.94911e-05 -4.65104e-05 -5.20993e-15)
(4.4336e-05 -4.69204e-05 1.22903e-14)
(5.2137e-05 -4.24778e-05 -2.47923e-14)
(5.3793e-05 -3.61644e-05 -3.2588e-14)
(5.15886e-05 -2.97315e-05 1.41526e-14)
(4.76289e-05 -2.379e-05 1.70869e-14)
(4.2393e-05 -1.86913e-05 -5.80437e-14)
(3.66227e-05 -1.44096e-05 2.69297e-14)
(3.04235e-05 -1.1124e-05 1.78451e-14)
(2.42899e-05 -8.38628e-06 1.46789e-14)
(1.83156e-05 -6.72345e-06 3.19092e-14)
(1.34533e-05 -5.62118e-06 4.17819e-14)
(1.22391e-05 -6.89569e-06 1.76494e-14)
(1.55277e-05 -7.07022e-06 -1.51653e-14)
(2.04046e-05 -7.05265e-06 8.16093e-16)
(2.6536e-05 -6.28398e-06 -5.68202e-15)
(3.34491e-05 -5.20368e-06 -2.08582e-15)
(3.30868e-05 -3.20333e-06 3.93328e-16)
(2.72435e-05 -1.70013e-07 -3.86226e-17)
(4.09176e-05 -4.92952e-06 2.82933e-16)
(4.66359e-05 -5.65533e-07 6.14088e-16)
(5.25648e-05 8.26292e-08 1.84957e-15)
(7.58715e-05 -8.04852e-07 2.35488e-15)
(9.50759e-05 -6.16242e-07 7.65908e-16)
(4.54787e-05 1.456e-05 -1.55113e-15)
(0.000220547 2.65853e-05 -6.65614e-17)
(0.000284469 1.77198e-05 3.77963e-15)
(0.00158185 0.000199846 9.20382e-15)
(7.75518e-05 -0.000208525 -5.07372e-15)
(7.17185e-05 -0.000222564 -8.20197e-16)
(5.2315e-05 -0.000220604 -5.83696e-15)
(2.14932e-05 -0.000215646 1.55514e-14)
(1.50939e-06 -0.000207863 3.91318e-15)
(-1.36463e-05 -0.000215176 -3.37372e-14)
(-3.30293e-05 -0.000219458 -1.07609e-13)
(-5.34624e-05 -0.000219122 -9.54175e-14)
(-7.20643e-05 -0.00019747 -1.11322e-13)
(-8.16339e-05 -0.000164794 1.10097e-14)
(-8.00026e-05 -0.000128053 2.64052e-13)
(-7.00113e-05 -9.62312e-05 7.06209e-14)
(-5.43551e-05 -7.19331e-05 -9.9311e-14)
(-3.28868e-05 -5.49479e-05 -2.41054e-13)
(-2.44488e-05 -3.31965e-05 1.10245e-13)
(-1.69557e-05 -1.51506e-05 1.45922e-13)
(2.28277e-05 -3.26838e-05 -9.42423e-14)
(0.000143879 -0.000238024 -1.89374e-13)
(0.000764725 -0.00125032 3.17158e-13)
(0.00417884 -0.00178638 -9.48902e-14)
(-0.000144931 0.000425325 -1.19561e-13)
(0.00194518 -0.00453795 1.78553e-13)
(0.00101945 -0.00404226 7.38971e-14)
(-0.0149652 -0.00922693 -3.35088e-15)
(-0.0436539 -0.0102375 -3.30802e-14)
(-0.0680628 -0.00988191 3.55819e-15)
(-0.0282471 0.000969322 -3.05932e-14)
(-0.00508373 0.00249303 2.10618e-14)
(0.00142324 -0.000432448 -3.3176e-14)
(0.0203813 -0.00226701 -7.20895e-14)
(0.0171763 -0.00163904 6.9605e-14)
(0.00644684 -0.00101441 3.08565e-14)
(0.00110449 -0.000376567 -1.21845e-13)
(0.000339477 0.000162584 7.82203e-14)
(-0.000271396 0.000328148 1.65126e-14)
(-0.000823114 0.000444992 -3.6166e-14)
(-0.00254073 0.00126097 -9.98071e-14)
(-0.0164276 0.00207423 2.77746e-14)
(-0.11345 0.00992973 9.91245e-15)
(9.69221e-05 -0.000179751 2.9218e-14)
(0.000108262 -0.000146983 -2.76869e-14)
(0.000118886 -0.000105935 -9.83432e-14)
(0.000120075 -7.00231e-05 4.48519e-14)
(0.000111164 -3.06031e-05 2.05983e-14)
(9.32347e-05 4.50225e-06 -6.4571e-14)
(6.53828e-05 2.78848e-05 1.35491e-14)
(3.08716e-05 3.33476e-05 -1.17648e-13)
(1.11969e-05 8.5476e-06 -7.91933e-14)
(9.32913e-06 -1.54913e-05 -8.81236e-14)
(2.02652e-05 -3.38107e-05 9.75413e-14)
(3.45959e-05 -4.20575e-05 1.4533e-14)
(4.49909e-05 -4.346e-05 -1.36542e-14)
(5.06358e-05 -4.07329e-05 -8.08997e-14)
(5.17895e-05 -3.59557e-05 -5.80885e-14)
(4.97686e-05 -3.0268e-05 3.78567e-14)
(4.61258e-05 -2.46855e-05 -2.13741e-14)
(4.13569e-05 -1.96564e-05 -4.39724e-14)
(3.59206e-05 -1.54941e-05 -4.00353e-15)
(3.00621e-05 -1.20576e-05 -4.02394e-14)
(2.4124e-05 -9.77332e-06 -4.30003e-14)
(1.83234e-05 -8.48464e-06 -8.43254e-14)
(1.35649e-05 -9.01609e-06 -6.39434e-14)
(1.22695e-05 -1.10074e-05 -1.79986e-14)
(1.51706e-05 -1.15191e-05 3.95036e-15)
(1.98649e-05 -1.07731e-05 -1.14748e-15)
(2.56159e-05 -9.12309e-06 -1.05285e-14)
(3.23808e-05 -7.30205e-06 4.47386e-15)
(3.25568e-05 -3.29191e-06 5.81755e-16)
(2.6836e-05 -5.9527e-06 -1.81328e-16)
(3.24496e-05 -3.40856e-06 -9.4487e-18)
(4.04786e-05 -6.86876e-07 -5.34171e-16)
(4.64954e-05 2.07125e-06 -9.83144e-16)
(6.03628e-05 5.00139e-06 -1.46475e-15)
(9.15143e-05 1.33125e-05 1.86769e-15)
(0.000171736 3.12655e-05 3.72824e-17)
(4.48589e-05 8.10478e-06 1.44751e-14)
(0.000232725 6.30232e-05 8.75125e-15)
(0.00124644 0.000217715 -1.0338e-13)
(6.10598e-05 -0.000171652 7.92675e-15)
(5.10246e-05 -0.000195337 -2.34387e-15)
(3.97154e-05 -0.000191525 6.6598e-17)
(1.60224e-05 -0.00019244 -7.13005e-15)
(3.44527e-06 -0.000191155 1.99582e-15)
(-1.36511e-05 -0.000199853 3.58143e-14)
(-3.09284e-05 -0.000207119 5.84657e-14)
(-4.9527e-05 -0.00019858 5.46315e-14)
(-6.51331e-05 -0.000179598 -1.33388e-13)
(-7.28608e-05 -0.000151767 -1.11642e-13)
(-7.09369e-05 -0.000120437 1.41518e-13)
(-6.3223e-05 -9.37567e-05 2.56581e-13)
(-5.01612e-05 -7.23174e-05 1.35702e-13)
(-3.58097e-05 -5.4095e-05 -4.72148e-13)
(-1.81943e-05 -3.9221e-05 -1.62162e-13)
(2.9471e-05 -4.46733e-05 3.8591e-13)
(6.74374e-05 -4.08148e-05 8.39269e-14)
(0.000123193 -2.62877e-05 -1.2427e-13)
(0.000278374 0.000228352 -2.28419e-13)
(-3.34286e-05 0.00126225 1.97915e-13)
(0.000859677 -1.47111e-05 4.35952e-14)
(0.00361772 0.00212705 -2.22444e-13)
(0.000835666 -0.000959256 1.65577e-13)
(-0.000447502 -0.000254732 -1.1416e-13)
(0.000518089 -0.00258091 -3.71919e-14)
(-0.0262758 0.0144431 3.55851e-14)
(-0.0328871 0.0122469 -4.55833e-14)
(-0.0519424 0.00570329 1.00957e-14)
(0.0224137 -0.00234152 1.36358e-14)
(0.0119928 0.00202955 2.10886e-14)
(0.0373416 -0.00391174 -9.04093e-15)
(0.0129797 7.33123e-05 2.55473e-14)
(0.00243878 6.7979e-05 2.07244e-13)
(-0.00253421 0.000832406 5.34791e-14)
(-0.00218917 0.000703255 -7.58606e-14)
(-0.0013274 0.000534102 -1.16597e-13)
(-0.00173177 0.000666005 1.66349e-14)
(-0.00692372 -0.00013894 -2.82971e-14)
(-0.0339953 0.00930238 4.56601e-14)
(7.94929e-05 -0.000153228 1.88165e-14)
(9.19344e-05 -0.000131261 -3.68743e-14)
(0.000102351 -0.000101793 -4.04089e-15)
(0.000102524 -7.3432e-05 -3.37243e-14)
(9.87951e-05 -4.1896e-05 -2.08221e-14)
(8.62096e-05 -1.4372e-05 7.34768e-14)
(6.5905e-05 6.93082e-06 -1.8417e-13)
(4.16998e-05 9.88789e-06 1.69127e-13)
(3.05646e-05 -5.90244e-06 2.01465e-15)
(2.69545e-05 -2.02103e-05 -1.20416e-13)
(3.23785e-05 -3.23281e-05 -7.02475e-14)
(4.00309e-05 -3.86912e-05 -1.98383e-14)
(4.66445e-05 -4.04344e-05 5.95862e-14)
(5.01938e-05 -3.86106e-05 1.29281e-13)
(5.05769e-05 -3.44416e-05 2.11142e-14)
(4.84551e-05 -2.92166e-05 -4.73379e-14)
(4.50043e-05 -2.39059e-05 2.21983e-14)
(4.05917e-05 -1.90263e-05 5.00096e-14)
(3.54723e-05 -1.50875e-05 -3.67786e-15)
(2.99253e-05 -1.17491e-05 -7.78287e-15)
(2.42495e-05 -9.59295e-06 -2.14375e-14)
(1.87642e-05 -8.29771e-06 5.2807e-14)
(1.43238e-05 -8.75465e-06 3.09354e-14)
(1.30408e-05 -1.05435e-05 -1.07667e-14)
(1.54985e-05 -1.12059e-05 -1.69122e-14)
(1.991e-05 -1.05647e-05 -6.96414e-15)
(2.55229e-05 -9.03074e-06 1.26255e-14)
(3.20368e-05 -7.3285e-06 -8.91379e-16)
(3.22996e-05 -3.37077e-06 -5.13488e-16)
(2.74853e-05 -3.1666e-06 2.0166e-16)
(3.19063e-05 -7.23167e-06 -3.98126e-17)
(3.86716e-05 -9.06589e-06 -3.67071e-17)
(3.14157e-05 -5.5025e-05 2.74278e-16)
(-1.05735e-05 -0.000235825 5.11487e-16)
(0.00015943 0.000286705 -3.23158e-15)
(-0.000276621 -0.0010583 7.59922e-15)
(0.000623686 0.00191824 -1.28761e-14)
(0.000255499 -0.000356556 -2.99211e-14)
(0.00110676 0.000241082 -1.06448e-16)
(5.33791e-05 -0.000148648 -4.04106e-15)
(4.0898e-05 -0.000165618 4.7798e-15)
(2.95203e-05 -0.000169588 5.65015e-17)
(1.47787e-05 -0.000173186 -4.17631e-15)
(2.27685e-06 -0.000176742 -2.88317e-14)
(-1.18988e-05 -0.000184706 3.46357e-14)
(-2.95677e-05 -0.000186872 1.2634e-14)
(-4.64259e-05 -0.000177724 -7.01524e-14)
(-5.88046e-05 -0.000160232 -5.8231e-14)
(-6.46823e-05 -0.000136732 -1.21381e-13)
(-6.27946e-05 -0.000111801 1.74614e-14)
(-5.53375e-05 -9.10878e-05 -1.32355e-13)
(-4.3351e-05 -7.47222e-05 8.04609e-15)
(-2.74493e-05 -6.27705e-05 3.54352e-13)
(-7.62991e-06 -5.45983e-05 -2.34206e-13)
(9.61181e-06 -4.3296e-05 -1.67665e-13)
(2.91691e-05 -3.75203e-05 1.0158e-13)
(6.36557e-05 -4.12523e-05 -1.31966e-13)
(0.000171888 -2.44504e-05 8.48919e-14)
(0.00019567 -9.87096e-05 -1.4397e-13)
(0.000448402 -2.51437e-06 -1.61817e-13)
(0.00032706 -0.000291927 1.83268e-13)
(-0.000165464 -0.000951461 -4.05354e-14)
(0.00110581 -0.000961576 8.96879e-14)
(0.00430613 0.00120723 5.67714e-14)
(0.0484602 -0.00240153 6.36684e-15)
(0.0296177 -0.00156944 1.08817e-13)
(0.0317118 -0.00643384 -2.11475e-14)
(-0.0131216 -0.00698069 2.25054e-14)
(-0.0119189 0.000426889 -5.57912e-14)
(0.010688 0.00458434 -1.55439e-13)
(0.000802431 -0.000890126 1.29089e-15)
(0.00358159 0.000860173 1.40173e-13)
(-0.0043727 0.000914944 -3.31376e-14)
(-0.00434513 0.000787489 -1.04862e-13)
(-0.00283486 0.000506561 1.18032e-13)
(-0.00117369 0.000360977 -3.96452e-14)
(-0.00420702 -0.00056034 -1.66195e-14)
(-0.0207246 0.00963519 -5.3173e-16)
(6.21043e-05 -0.000134331 2.02826e-14)
(7.54291e-05 -0.000119624 1.43635e-14)
(8.19169e-05 -9.82555e-05 -3.19923e-14)
(8.5858e-05 -7.43829e-05 7.88748e-14)
(8.42533e-05 -4.89867e-05 1.86885e-13)
(7.75377e-05 -2.62755e-05 -6.87531e-14)
(6.41765e-05 -8.77766e-06 -7.24484e-14)
(4.83327e-05 -6.56495e-06 1.5044e-13)
(4.05283e-05 -1.53318e-05 1.26936e-13)
(3.77568e-05 -2.35868e-05 3.5648e-14)
(4.0511e-05 -3.11214e-05 -5.19378e-14)
(4.48844e-05 -3.56045e-05 5.9181e-14)
(4.86679e-05 -3.70642e-05 4.54279e-14)
(5.04767e-05 -3.56507e-05 -3.98189e-15)
(4.98566e-05 -3.21858e-05 -9.3721e-14)
(4.73803e-05 -2.75834e-05 3.96394e-15)
(4.39453e-05 -2.29956e-05 3.73007e-15)
(3.97013e-05 -1.87097e-05 2.06857e-16)
(3.48651e-05 -1.51377e-05 1.51383e-14)
(2.95724e-05 -1.20862e-05 -5.43059e-15)
(2.4171e-05 -1.02276e-05 1.23011e-14)
(1.89632e-05 -9.2361e-06 -2.67244e-14)
(1.47413e-05 -1.02242e-05 -1.53651e-14)
(1.3347e-05 -1.22123e-05 1.55018e-14)
(1.53851e-05 -1.3349e-05 2.09531e-14)
(1.95163e-05 -1.27194e-05 1.25527e-15)
(2.50702e-05 -1.09729e-05 -1.23695e-15)
(3.14613e-05 -8.48111e-06 -3.25999e-15)
(3.20169e-05 -3.96155e-06 6.54289e-16)
(2.75488e-05 -5.3867e-06 -1.0459e-16)
(3.17489e-05 -6.11617e-06 -5.30581e-16)
(4.03e-05 7.57446e-06 -2.81002e-17)
(4.94601e-05 7.52489e-05 7.79735e-17)
(8.77754e-05 0.000308681 -6.95889e-17)
(2.04693e-05 -0.00046482 -9.29079e-16)
(0.00030309 0.00125223 -6.92493e-16)
(0.000152788 -0.00253873 1.03027e-14)
(0.000176622 0.000503884 -1.08707e-14)
(0.00107841 0.000133199 5.48108e-15)
(4.01334e-05 -0.000132312 1.93828e-15)
(3.14934e-05 -0.000143006 5.06789e-16)
(2.21895e-05 -0.000150169 3.1625e-15)
(1.06022e-05 -0.000160027 -2.45879e-15)
(-5.45288e-07 -0.000162802 -1.08436e-15)
(-1.44844e-05 -0.000168943 1.63382e-14)
(-3.07989e-05 -0.000169183 7.60516e-15)
(-4.47999e-05 -0.000158876 4.04773e-14)
(-5.5124e-05 -0.000144814 6.79654e-14)
(-5.93973e-05 -0.000125367 -3.20433e-14)
(-5.73826e-05 -0.00010536 -7.79475e-15)
(-5.0737e-05 -8.91096e-05 7.50088e-14)
(-4.01006e-05 -7.63627e-05 -1.45507e-13)
(-2.56993e-05 -6.67564e-05 -2.89385e-13)
(-8.65387e-06 -5.97263e-05 1.75229e-13)
(1.12029e-05 -5.48868e-05 2.68355e-13)
(4.33566e-05 -6.77337e-05 -3.55849e-13)
(7.89424e-05 -7.68325e-05 6.0668e-14)
(0.000151979 -5.517e-05 1.11899e-13)
(0.000286222 -0.000139107 -1.12965e-13)
(0.000361472 -0.000463953 8.56214e-14)
(0.000373722 -0.000919474 -8.73353e-14)
(-0.000163956 -0.0019739 -1.69252e-13)
(-0.00152851 -0.0021661 -5.03168e-14)
(-0.00196238 0.000288003 -1.16204e-13)
(-0.000276331 0.00314025 5.63228e-14)
(0.00721109 0.00176407 -1.62122e-14)
(0.00364282 -0.00141676 -1.09019e-14)
(-0.00470028 -0.00287388 2.13873e-14)
(0.0185149 -0.00542813 4.25639e-14)
(-0.0245713 0.0021834 3.28572e-14)
(0.00191808 0.000423521 -4.52636e-14)
(-6.0343e-05 0.00113526 -1.16438e-13)
(0.000117623 0.000549285 -1.48668e-13)
(-0.00222529 0.000265632 3.37777e-14)
(-0.00165506 -0.000323843 7.32823e-14)
(-0.000581837 0.00028391 8.46298e-14)
(-0.00367236 -0.000460501 3.84862e-14)
(-0.0176057 0.0101812 2.85637e-14)
(4.88454e-05 -0.000121299 8.59492e-15)
(5.82141e-05 -0.000111599 -2.0693e-14)
(6.47874e-05 -9.41869e-05 1.04909e-14)
(6.9025e-05 -7.39269e-05 -5.8338e-15)
(7.12522e-05 -5.3257e-05 4.68171e-15)
(6.96152e-05 -3.23808e-05 -7.8182e-14)
(6.15261e-05 -1.92819e-05 -2.9426e-14)
(5.15231e-05 -1.71398e-05 -3.50566e-14)
(4.62383e-05 -2.11553e-05 2.74177e-14)
(4.43542e-05 -2.57772e-05 1.35735e-13)
(4.59815e-05 -3.02089e-05 -3.03589e-14)
(4.86532e-05 -3.3199e-05 -5.88494e-14)
(5.06022e-05 -3.41429e-05 2.50169e-15)
(5.09873e-05 -3.28603e-05 -5.12986e-14)
(4.94365e-05 -2.98856e-05 1.70031e-14)
(4.65194e-05 -2.58671e-05 2.54112e-14)
(4.30006e-05 -2.1864e-05 3.93182e-14)
(3.88981e-05 -1.81177e-05 1.5049e-14)
(3.42678e-05 -1.48492e-05 -1.77031e-14)
(2.92197e-05 -1.20974e-05 2.27256e-14)
(2.41383e-05 -1.02978e-05 2.51827e-14)
(1.92434e-05 -9.56434e-06 1.82594e-14)
(1.53573e-05 -1.05286e-05 3.81566e-15)
(1.38758e-05 -1.24986e-05 -1.44098e-14)
(1.55381e-05 -1.37139e-05 1.18017e-14)
(1.92782e-05 -1.34465e-05 3.28035e-15)
(2.46771e-05 -1.1719e-05 -1.1371e-14)
(3.08671e-05 -9.27279e-06 1.22343e-15)
(3.17406e-05 -4.54682e-06 -1.18451e-16)
(2.78442e-05 -5.07666e-06 2.05603e-16)
(3.18548e-05 -6.60656e-06 6.67291e-16)
(4.11277e-05 -6.09384e-06 -1.60558e-16)
(5.42991e-05 -2.25098e-05 -2.51274e-16)
(8.76921e-05 -8.7575e-05 5.63598e-16)
(-1.78357e-06 0.000207609 1.39486e-15)
(0.000242152 -5.23639e-05 -1.19157e-14)
(-0.000214492 0.000802893 3.44892e-15)
(0.00037797 -0.000268915 4.42061e-14)
(0.00133722 -0.000439786 3.1052e-14)
(2.60238e-05 -0.000117899 3.09102e-15)
(2.1108e-05 -0.000129219 5.82453e-16)
(1.51952e-05 -0.00013596 -1.1264e-15)
(5.10244e-06 -0.000146679 4.16963e-15)
(-5.73463e-06 -0.000150319 -8.6902e-15)
(-1.81308e-05 -0.00015329 -1.09432e-15)
(-3.28566e-05 -0.000150594 2.35996e-14)
(-4.46223e-05 -0.000142653 -1.11468e-14)
(-5.28421e-05 -0.000130332 -3.96142e-14)
(-5.59204e-05 -0.000114519 2.65385e-14)
(-5.38995e-05 -9.8737e-05 -6.07786e-14)
(-4.82444e-05 -8.62609e-05 -1.50861e-13)
(-3.83129e-05 -7.69939e-05 1.06604e-13)
(-2.49523e-05 -6.99982e-05 3.77167e-13)
(-8.28089e-06 -6.60264e-05 -1.38922e-14)
(1.1725e-05 -6.57279e-05 -4.01369e-13)
(3.07356e-05 -6.76636e-05 3.32534e-13)
(5.82677e-05 -7.30414e-05 2.33369e-13)
(0.000114418 -7.72186e-05 1.24569e-13)
(0.000186134 -0.000145393 5.87363e-14)
(0.000237917 -0.000313511 -2.88419e-14)
(0.0002501 -0.000683542 1.61935e-13)
(-0.0003178 -0.00143913 1.11967e-13)
(-0.00166766 -0.00162453 -1.01885e-14)
(-0.0023631 8.92216e-05 2.14259e-13)
(-0.000767609 0.00224024 -6.57048e-14)
(0.00125866 0.00221318 -7.65304e-15)
(0.00262736 -0.000244067 5.67702e-15)
(0.000942787 -0.00209391 -2.01406e-14)
(-0.00368366 -0.00136299 -2.0816e-14)
(-0.00354901 -0.000186849 -1.52574e-14)
(-0.00119383 0.000372406 4.77779e-14)
(0.000923808 0.000760187 -2.27666e-14)
(0.00224785 0.000374657 -1.27988e-13)
(0.00250231 -0.000362927 -2.07578e-14)
(0.0228634 -0.00761083 -1.0184e-13)
(-0.00676651 0.00276592 -5.77975e-14)
(-0.00246903 -0.000581955 6.5076e-15)
(-0.0138976 0.00938013 -2.58436e-14)
(3.56397e-05 -0.000110989 -9.66503e-15)
(4.35336e-05 -0.000103883 1.2194e-14)
(5.13025e-05 -8.96164e-05 -2.61343e-14)
(5.72332e-05 -7.07789e-05 -3.94504e-15)
(6.14152e-05 -5.07527e-05 7.38141e-15)
(6.15823e-05 -3.51757e-05 1.10947e-14)
(5.67353e-05 -2.49314e-05 8.0639e-14)
(5.20198e-05 -2.34706e-05 -1.01462e-13)
(4.8876e-05 -2.49107e-05 -3.28009e-14)
(4.81906e-05 -2.71195e-05 -3.11479e-14)
(4.95414e-05 -2.95183e-05 1.17307e-13)
(5.13514e-05 -3.12808e-05 -4.64459e-14)
(5.22725e-05 -3.1526e-05 -4.56717e-15)
(5.15707e-05 -3.01353e-05 1.85391e-14)
(4.92819e-05 -2.72816e-05 1.77852e-14)
(4.59408e-05 -2.37705e-05 1.20879e-14)
(4.23014e-05 -2.03368e-05 -7.68256e-14)
(3.82271e-05 -1.71769e-05 -2.81418e-14)
(3.37388e-05 -1.42951e-05 3.58171e-14)
(2.89002e-05 -1.19507e-05 1.42872e-15)
(2.41057e-05 -1.03182e-05 3.63862e-14)
(1.954e-05 -9.90997e-06 -1.03902e-14)
(1.59031e-05 -1.09263e-05 1.50662e-15)
(1.43768e-05 -1.29961e-05 2.42355e-14)
(1.56214e-05 -1.44558e-05 -2.0363e-14)
(1.90328e-05 -1.45953e-05 -6.98987e-15)
(2.41511e-05 -1.31873e-05 6.58223e-15)
(3.02002e-05 -1.04882e-05 2.19797e-15)
(3.13171e-05 -5.66791e-06 -1.15953e-18)
(2.79789e-05 -5.74404e-06 -2.57136e-16)
(3.15353e-05 -6.37043e-06 6.37712e-16)
(3.95535e-05 -1.84481e-06 7.49886e-17)
(4.6273e-05 -1.82765e-07 -1.08077e-15)
(5.46264e-05 3.98796e-06 5.4267e-17)
(5.42031e-05 9.57908e-06 -3.16323e-15)
(-1.07857e-06 -0.000175666 7.24257e-15)
(0.000124223 -0.000117816 -1.53646e-15)
(0.000246344 8.85107e-05 -2.47753e-15)
(0.000712865 0.000405233 -4.22939e-14)
(1.86554e-05 -0.00010779 1.40114e-15)
(1.47433e-05 -0.000119662 1.51054e-15)
(8.72038e-06 -0.000126559 -9.49556e-16)
(-1.29476e-06 -0.000134905 -1.91882e-15)
(-1.09485e-05 -0.000138133 -3.8028e-15)
(-2.30849e-05 -0.000141477 1.65054e-14)
(-3.5052e-05 -0.000138164 1.38751e-14)
(-4.48501e-05 -0.000129417 -5.19116e-14)
(-5.1188e-05 -0.000118799 2.17311e-14)
(-5.33672e-05 -0.000105959 1.11285e-13)
(-5.18057e-05 -9.27881e-05 4.63177e-14)
(-4.68929e-05 -8.37343e-05 2.13134e-14)
(-3.83023e-05 -7.69171e-05 -1.87882e-13)
(-2.60624e-05 -7.20437e-05 -4.29856e-13)
(-1.05978e-05 -6.96135e-05 -3.04037e-13)
(7.08256e-06 -7.00097e-05 1.20067e-13)
(2.5555e-05 -7.52707e-05 -7.38523e-14)
(5.34421e-05 -9.16252e-05 -3.77115e-13)
(0.000100438 -0.00011649 -1.94585e-13)
(0.000154459 -0.000200729 1.60889e-13)
(0.000186379 -0.000355052 1.6097e-13)
(0.000145816 -0.000636302 -9.3345e-14)
(-0.000286919 -0.0011287 -3.83133e-14)
(-0.0012555 -0.00114313 2.39756e-15)
(-0.00172711 0.000220186 -6.09653e-14)
(-0.000564208 0.00190516 6.32925e-14)
(0.00153475 0.00181582 7.21967e-15)
(0.00264581 -3.57872e-05 4.32049e-15)
(0.00159019 -0.00153339 -4.41671e-15)
(-2.44422e-05 -0.00156655 5.21817e-14)
(-0.00175229 -0.00060544 3.49645e-14)
(-0.00144644 0.000247749 -3.44865e-15)
(-0.000301533 0.000675896 1.13116e-13)
(0.000988155 0.000686794 7.80729e-14)
(0.000620573 0.00225748 -4.04541e-14)
(-0.0143591 0.00214264 6.94181e-14)
(-0.00372644 -0.00112537 5.85358e-14)
(-0.00327895 0.00256189 -3.50511e-14)
(-0.0103923 0.00731164 -2.77301e-14)
(2.62546e-05 -0.000100868 7.39128e-15)
(3.50918e-05 -9.59711e-05 -1.20441e-14)
(4.36313e-05 -8.11868e-05 3.26934e-15)
(5.13319e-05 -6.44753e-05 6.10928e-14)
(5.44462e-05 -5.10639e-05 3.14461e-15)
(5.45728e-05 -3.64516e-05 1.01651e-13)
(5.21333e-05 -2.84889e-05 1.36656e-13)
(5.02381e-05 -2.75941e-05 -5.29997e-14)
(4.95765e-05 -2.71388e-05 -7.25299e-14)
(4.99871e-05 -2.78012e-05 -5.54113e-14)
(5.16174e-05 -2.89676e-05 -1.02164e-13)
(5.31599e-05 -2.96897e-05 -5.52871e-15)
(5.34719e-05 -2.92655e-05 -4.305e-14)
(5.21154e-05 -2.75138e-05 5.78123e-14)
(4.92374e-05 -2.47266e-05 1.93966e-14)
(4.55743e-05 -2.15763e-05 -3.07512e-14)
(4.18119e-05 -1.8706e-05 -3.26308e-15)
(3.77274e-05 -1.60363e-05 -2.54406e-14)
(3.3305e-05 -1.35879e-05 2.79092e-15)
(2.86493e-05 -1.15362e-05 -1.7768e-14)
(2.40956e-05 -1.02099e-05 -3.338e-14)
(1.98844e-05 -9.95301e-06 1.47958e-14)
(1.64871e-05 -1.10366e-05 -2.76256e-14)
(1.49603e-05 -1.3007e-05 -1.00665e-14)
(1.58291e-05 -1.46776e-05 6.28575e-15)
(1.88792e-05 -1.50917e-05 3.97121e-15)
(2.36411e-05 -1.41104e-05 1.56323e-15)
(2.9458e-05 -1.13611e-05 -1.03508e-15)
(3.0806e-05 -6.67263e-06 -4.35141e-16)
(2.80301e-05 -5.98854e-06 -7.72652e-17)
(3.12818e-05 -6.55786e-06 -1.03048e-15)
(3.91054e-05 -2.69471e-06 5.53524e-16)
(4.64217e-05 -1.39587e-06 3.06422e-15)
(5.5874e-05 -1.1691e-06 5.12418e-17)
(6.79829e-05 -4.44627e-06 2.49803e-15)
(9.40326e-05 -1.29017e-05 -3.42321e-15)
(0.000137298 2.43596e-05 -6.46791e-15)
(0.000227771 9.0415e-05 3.78678e-15)
(0.000319033 0.00060193 -2.25902e-14)
(1.56139e-05 -9.78218e-05 2.41731e-15)
(9.47464e-06 -0.000108301 4.02436e-15)
(4.92234e-06 -0.000118421 -1.76074e-16)
(-5.78254e-06 -0.000123514 2.2914e-19)
(-1.62313e-05 -0.000122806 -2.54026e-15)
(-2.60075e-05 -0.000129633 -6.73419e-15)
(-3.73435e-05 -0.00012672 -4.93855e-15)
(-4.59234e-05 -0.000121 -5.23682e-14)
(-5.07118e-05 -0.000111514 -1.00714e-15)
(-5.16036e-05 -9.89634e-05 1.92803e-14)
(-5.03588e-05 -8.77343e-05 -2.32914e-14)
(-4.73244e-05 -8.03798e-05 1.41246e-13)
(-3.94758e-05 -7.57811e-05 1.49071e-13)
(-2.84466e-05 -7.24782e-05 2.6949e-14)
(-1.42928e-05 -7.13133e-05 2.76872e-13)
(2.23972e-06 -7.34287e-05 -5.76107e-14)
(1.94773e-05 -8.08318e-05 -7.29813e-16)
(3.8443e-05 -9.3143e-05 2.14469e-13)
(7.13592e-05 -0.000121219 9.99261e-14)
(0.00010335 -0.00019257 -2.94233e-14)
(0.00010749 -0.000320284 -1.21911e-13)
(3.91538e-05 -0.00052768 -1.15865e-14)
(-0.000298961 -0.000840484 -9.36598e-14)
(-0.000990461 -0.000785381 -8.10378e-14)
(-0.00130131 0.000252431 4.88751e-14)
(-0.000399845 0.00152636 -3.10927e-14)
(0.00113675 0.00148739 -5.64889e-14)
(0.00171664 8.41323e-05 6.45158e-15)
(0.000856803 -0.00110712 -3.11512e-15)
(-0.000482353 -0.00111987 -3.83249e-15)
(-0.00130676 -0.00042349 8.20619e-14)
(-0.00138621 0.000287471 -2.93318e-14)
(-0.000830542 0.000657753 -3.90426e-14)
(3.89e-05 0.000636581 2.27062e-13)
(-0.000381186 0.000641956 3.7074e-14)
(-0.00941914 0.00551976 -8.23521e-14)
(0.0045229 -0.00186651 -1.57867e-14)
(-0.0120852 0.00584954 2.61655e-14)
(-0.00488423 0.00176134 -4.99959e-15)
(2.27989e-05 -9.23035e-05 -1.31444e-14)
(3.05415e-05 -8.62574e-05 -3.10177e-14)
(3.9648e-05 -7.43769e-05 5.06889e-14)
(4.24139e-05 -6.21876e-05 9.71645e-14)
(4.76993e-05 -4.82725e-05 6.43189e-14)
(4.91847e-05 -3.75027e-05 -1.65789e-13)
(4.86193e-05 -3.2452e-05 -1.14058e-13)
(4.77894e-05 -2.978e-05 -3.87775e-14)
(4.8587e-05 -2.79067e-05 7.08572e-14)
(5.05235e-05 -2.78542e-05 7.32029e-14)
(5.25383e-05 -2.82875e-05 2.72944e-14)
(5.41656e-05 -2.83132e-05 2.50398e-14)
(5.41914e-05 -2.72516e-05 -2.67405e-14)
(5.24729e-05 -2.50454e-05 -8.73373e-14)
(4.92465e-05 -2.22119e-05 1.34148e-14)
(4.54071e-05 -1.93894e-05 2.7094e-14)
(4.15164e-05 -1.69733e-05 1.84378e-14)
(3.73939e-05 -1.47264e-05 5.10859e-14)
(3.29958e-05 -1.2701e-05 -2.84807e-14)
(2.84862e-05 -1.09135e-05 -2.12613e-14)
(2.4173e-05 -9.89093e-06 -1.53181e-14)
(2.02507e-05 -9.78993e-06 -3.15587e-15)
(1.70995e-05 -1.08985e-05 2.46382e-14)
(1.55306e-05 -1.27978e-05 1.6455e-14)
(1.6124e-05 -1.45975e-05 1.90875e-14)
(1.87633e-05 -1.53871e-05 6.47006e-15)
(2.32009e-05 -1.4792e-05 2.82463e-17)
(2.86575e-05 -1.23516e-05 2.21314e-15)
(3.02421e-05 -7.54476e-06 -3.08461e-16)
(2.79604e-05 -6.43207e-06 3.02119e-16)
(3.10318e-05 -6.55787e-06 -3.79819e-16)
(3.86085e-05 -2.76362e-06 3.18489e-17)
(4.60621e-05 -7.26564e-07 -1.76e-15)
(5.46651e-05 1.7149e-06 4.24011e-16)
(6.54883e-05 3.94721e-06 4.63043e-15)
(8.67587e-05 -2.35763e-06 -1.09979e-15)
(0.000135961 4.65213e-06 8.89104e-16)
(0.00024581 5.0197e-05 -8.14319e-15)
(0.000667685 0.000191903 7.93268e-15)
(1.33205e-05 -8.93143e-05 -2.94633e-15)
(7.64894e-06 -9.81505e-05 1.78892e-16)
(2.52669e-06 -0.000108162 -1.65406e-15)
(-6.66203e-06 -0.000115778 -1.5231e-15)
(-1.77713e-05 -0.000113193 9.00197e-15)
(-2.87975e-05 -0.000111002 -2.93907e-15)
(-3.7828e-05 -0.000113999 2.92743e-14)
(-4.60859e-05 -0.000111435 2.04787e-14)
(-5.02309e-05 -0.000104454 5.16009e-15)
(-5.20149e-05 -9.46826e-05 -1.70687e-15)
(-5.0754e-05 -8.33072e-05 7.12003e-15)
(-4.80212e-05 -7.73372e-05 -3.14154e-14)
(-4.2428e-05 -7.39873e-05 -1.37085e-13)
(-3.20519e-05 -7.1395e-05 3.64127e-14)
(-1.93017e-05 -7.12719e-05 1.8814e-14)
(-4.24141e-06 -7.42398e-05 5.2527e-14)
(1.07692e-05 -8.16055e-05 -4.53488e-16)
(2.65105e-05 -9.69655e-05 -9.40642e-14)
(4.98845e-05 -0.000130539 -1.38998e-13)
(6.87814e-05 -0.000196021 -1.19687e-13)
(5.6284e-05 -0.000301678 -6.9697e-14)
(-2.33505e-05 -0.000455053 -5.64247e-14)
(-0.000296688 -0.000645687 1.91328e-14)
(-0.000797833 -0.000538321 6.72242e-14)
(-0.00100619 0.000273607 -3.61852e-14)
(-0.000312869 0.00124478 -1.37658e-14)
(0.000861288 0.00122059 4.44587e-14)
(0.00130312 0.000113143 2.10504e-15)
(0.000597798 -0.000861647 2.45309e-14)
(-0.000448913 -0.000900185 -3.05755e-14)
(-0.00104317 -0.000315679 -1.01146e-13)
(-0.00105676 0.000299516 -5.51578e-14)
(-0.000699748 0.000624125 3.49524e-14)
(-9.65395e-05 0.00060527 -1.50209e-14)
(0.000354881 0.000354045 2.03724e-14)
(0.000945 -0.000773783 3.04292e-14)
(-0.000443449 -0.00121519 5.39703e-15)
(0.0053966 -0.0057659 -1.69097e-14)
(0.00515642 0.00386017 4.25592e-14)
(1.91853e-05 -8.38057e-05 -2.40514e-14)
(2.67445e-05 -7.88789e-05 1.5062e-14)
(3.33376e-05 -7.02898e-05 4.42746e-14)
(3.77801e-05 -5.83013e-05 1.44969e-14)
(4.07054e-05 -4.5831e-05 1.02134e-13)
(4.41973e-05 -3.7719e-05 1.87091e-14)
(4.49712e-05 -3.40343e-05 -2.7925e-15)