/*--------------------------------*- C++ -*----------------------------------*\
| =========                 |                                                 |
| \\      /  F ield         | OpenFOAM: The Open Source CFD Toolbox           |
|  \\    /   O peration     | Version:  2506                                  |
|   \\  /    A nd           | Website:  www.openfoam.com                      |
|    \\/     M anipulation  |                                                 |
\*---------------------------------------------------------------------------*/
FoamFile
{
    version     2.0;
    format      ascii;
    arch        "LSB;label=32;scalar=64";
    class       volScalarField;
    location    "500";
    object      nuTilda;
}
// * * * * * * * * * * * * * * * * * * * * * * * * * * * * * * * * * * * * * //

dimensions      [0 2 -1 0 0 0 0];

internalField   nonuniform List<scalar> 
10720
(
6.29092e-05
6.61137e-05
7.02153e-05
7.53178e-05
8.16866e-05
8.97462e-05
0.000100161
0.000113483
0.000130973
0.000154081
0.00018512
0.000227459
0.000285633
0.000367523
0.000486575
0.000664671
0.000946283
0.00139545
0.00221745
0.00358935
0.00690158
0.0127123
0.0339144
0.0760475
0.0937333
0.0946591
0.0957039
0.0992413
0.102758
0.104491
0.104463
0.103211
0.100843
0.0974125
0.0927939
0.0869128
0.0784498
0.0683191
0.0332562
6.00005e-05
5.73604e-05
5.46052e-05
5.19066e-05
4.91579e-05
4.63757e-05
4.36718e-05
4.15912e-05
4.34422e-05
4.72961e-05
5.29035e-05
6.05937e-05
7.10608e-05
8.55651e-05
0.000105909
0.000135074
0.00017782
0.000242227
0.000342409
0.00050322
0.000773851
0.00124219
0.00211765
0.00376992
0.0073281
0.0147229
0.0324777
0.0663217
0.0934696
0.105025
0.108433
0.109375
0.109471
0.108975
0.107974
0.106577
0.104431
0.101996
0.0924618
3.8071e-05
3.78508e-05
3.76496e-05
3.74809e-05
3.72852e-05
3.71033e-05
3.69672e-05
3.68471e-05
3.67951e-05
3.68408e-05
3.69025e-05
3.75059e-05
3.96453e-05
4.42921e-05
5.39069e-05
7.20406e-05
0.000107832
0.000173851
0.000318539
0.000588863
0.00132127
0.00282979
0.00711222
0.0204722
0.0394353
0.0632005
0.09248
0.123672
0.148728
0.162685
0.16797
0.168786
0.167199
0.163849
0.159339
0.153838
0.148527
0.139507
0.139917
3.8244e-05
3.84755e-05
3.86703e-05
3.89311e-05
3.91945e-05
3.9457e-05
3.97066e-05
3.99145e-05
3.97971e-05
3.95291e-05
3.91564e-05
3.86932e-05
3.81511e-05
3.75296e-05
3.67953e-05
3.59241e-05
3.48274e-05
3.34377e-05
3.15607e-05
2.8973e-05
2.51729e-05
1.98026e-05
1.18098e-05
4.78896e-06
7.59947e-06
0.000115494
0.000541177
0.0041568
0.0141156
0.0287197
0.0437273
0.0550627
0.0618255
0.0656073
0.0680051
0.0699954
0.0717271
0.0752991
0.0784605
4.03655e-05
4.03971e-05
4.04297e-05
4.04648e-05
4.05077e-05
4.05556e-05
4.06102e-05
4.06739e-05
4.07487e-05
4.0836e-05
4.09392e-05
4.10655e-05
4.12033e-05
4.1452e-05
4.14749e-05
4.07256e-05
3.73454e-05
3.43788e-05
4.62379e-06
4.37601e-05
2.20014e-05
5.68805e-05
2.64292e-05
0.000558957
0.00298292
0.00754872
0.0156843
0.0310417
0.0573706
0.0937917
0.1328
0.164497
0.184905
0.196744
0.20344
0.206324
0.207572
0.20148
0.210275
4.03413e-05
4.03065e-05
4.02799e-05
4.02404e-05
4.02063e-05
4.01696e-05
4.01369e-05
4.0111e-05
4.01198e-05
4.01475e-05
4.01836e-05
4.02277e-05
4.02815e-05
4.03416e-05
4.0409e-05
4.04833e-05
4.05673e-05
4.06631e-05
4.0777e-05
4.09146e-05
4.10897e-05
4.13121e-05
4.16237e-05
4.19506e-05
4.23858e-05
4.19223e-05
4.20738e-05
3.13478e-05
0.00010768
0.000790928
0.00301751
0.00754202
0.0142528
0.0224359
0.0311566
0.0395993
0.0470022
0.0536733
0.0631655
4.00344e-05
4.00299e-05
4.00288e-05
4.00295e-05
4.00312e-05
4.00361e-05
4.00452e-05
4.00577e-05
4.00763e-05
4.01015e-05
4.01347e-05
4.01781e-05
4.02342e-05
4.03056e-05
4.03998e-05
4.04978e-05
4.0281e-05
3.96774e-05
3.5891e-05
2.96867e-05
1.31484e-05
1.60638e-05
5.32401e-06
0.000114743
0.000624533
2.88258e-05
0.000226741
0.000843274
0.00415736
0.0136719
0.0356798
0.0727803
0.118812
0.161313
0.193208
0.215349
0.231941
0.239141
0.255238
4.00356e-05
4.004e-05
4.00458e-05
4.00498e-05
4.00569e-05
4.00606e-05
4.00631e-05
4.00648e-05
4.00608e-05
4.00558e-05
4.00494e-05
4.00425e-05
4.0036e-05
4.00297e-05
4.00235e-05
4.0017e-05
4.00102e-05
4.00028e-05
3.99934e-05
3.99839e-05
3.99739e-05
3.99632e-05
3.99506e-05
3.99389e-05
3.99262e-05
3.99306e-05
3.9917e-05
4.00278e-05
3.98715e-05
3.97859e-05
3.83215e-05
3.60194e-05
0.000232765
0.00104536
0.00304154
0.00688482
0.0131282
0.0218469
0.0392296
4.00808e-05
4.00819e-05
4.00824e-05
4.0084e-05
4.00869e-05
4.00905e-05
4.00955e-05
4.01021e-05
4.01108e-05
4.01222e-05
4.01371e-05
4.01566e-05
4.01822e-05
4.02149e-05
4.02596e-05
4.03109e-05
4.039e-05
4.04129e-05
4.05332e-05
3.97894e-05
3.79081e-05
2.56136e-05
8.50959e-06
3.57461e-06
0
6.07288e-06
4.85415e-05
0.000183239
0.000934348
0.000549471
0.00167425
0.00804139
0.0295863
0.0706932
0.124102
0.175043
0.21717
0.248034
0.278262
4.00809e-05
4.00784e-05
4.00797e-05
4.00777e-05
4.00793e-05
4.00771e-05
4.00732e-05
4.00697e-05
4.00677e-05
4.00673e-05
4.00672e-05
4.00671e-05
4.00677e-05
4.00687e-05
4.00705e-05
4.00728e-05
4.00756e-05
4.00791e-05
4.00831e-05
4.00877e-05
4.00928e-05
4.00984e-05
4.01048e-05
4.01118e-05
4.01209e-05
4.01288e-05
4.01533e-05
4.01157e-05
4.03775e-05
3.92933e-05
4.4377e-05
2.15053e-05
6.27162e-05
0.00025091
0.000728964
0.000717086
0.00123991
0.00164125
0.0137123
4.00695e-05
4.00691e-05
4.00696e-05
4.00701e-05
4.00703e-05
4.0071e-05
4.00721e-05
4.00736e-05
4.00758e-05
4.0079e-05
4.00833e-05
4.00892e-05
4.00973e-05
4.01082e-05
4.01233e-05
4.01432e-05
4.01703e-05
4.01996e-05
4.02541e-05
4.04332e-05
4.12786e-05
4.01203e-05
3.6964e-05
1.84391e-05
7.60572e-06
5.16407e-06
2.36391e-06
0
0
0.00012179
0.000375674
0.0018357
0.000392116
0.00873893
0.0380627
0.0932775
0.160391
0.223976
0.27831
4.00686e-05
4.00673e-05
4.0069e-05
4.00686e-05
4.00718e-05
4.00713e-05
4.00687e-05
4.00665e-05
4.00647e-05
4.00636e-05
4.00628e-05
4.00619e-05
4.00614e-05
4.00611e-05
4.00611e-05
4.00611e-05
4.00614e-05
4.00617e-05
4.00622e-05
4.00627e-05
4.00631e-05
4.00633e-05
4.00635e-05
4.00628e-05
4.00627e-05
4.00633e-05
4.0064e-05
4.00673e-05
4.00665e-05
4.00833e-05
4.00515e-05
4.02424e-05
3.91153e-05
3.61226e-05
5.67255e-06
0.000171512
0.000293919
0.000431276
0.00237823
4.00699e-05
4.00703e-05
4.00706e-05
4.00707e-05
4.00709e-05
4.00711e-05
4.00714e-05
4.00721e-05
4.0073e-05
4.00743e-05
4.00762e-05
4.00789e-05
4.00827e-05
4.0088e-05
4.00953e-05
4.01057e-05
4.01193e-05
4.01348e-05
4.01507e-05
4.01442e-05
4.03068e-05
4.07915e-05
4.16535e-05
3.98414e-05
3.40322e-05
2.59824e-05
1.17043e-05
7.31017e-06
5.70462e-06
1.69731e-06
0
0
8.94222e-05
0.00205371
0.00167158
0.0217345
0.0782294
0.166186
0.252302
4.00691e-05
4.00671e-05
4.00678e-05
4.00672e-05
4.00703e-05
4.00702e-05
4.0068e-05
4.00658e-05
4.00642e-05
4.00632e-05
4.00626e-05
4.00622e-05
4.0062e-05
4.00621e-05
4.0062e-05
4.0062e-05
4.00623e-05
4.00628e-05
4.00634e-05
4.00642e-05
4.00651e-05
4.00662e-05
4.00674e-05
4.00689e-05
4.00707e-05
4.00731e-05
4.00762e-05
4.00801e-05
4.0085e-05
4.00912e-05
4.00988e-05
4.01078e-05
4.0152e-05
3.89592e-05
3.4111e-05
1.20435e-05
8.04776e-06
1.52068e-06
8.71784e-05
4.00691e-05
4.00694e-05
4.00699e-05
4.00699e-05
4.00696e-05
4.00693e-05
4.0069e-05
4.00687e-05
4.00686e-05
4.00687e-05
4.00688e-05
4.00692e-05
4.00699e-05
4.0071e-05
4.00727e-05
4.00752e-05
4.00789e-05
4.00834e-05
4.00895e-05
4.00883e-05
4.00744e-05
4.01589e-05
4.04765e-05
4.12437e-05
4.13709e-05
4.04609e-05
3.79292e-05
3.34539e-05
2.7646e-05
8.1163e-06
7.10059e-06
1.49014e-06
0
0
0.000386707
0.00542026
0.0161564
0.0903861
0.20005
4.0068e-05
4.00659e-05
4.00659e-05
4.00652e-05
4.00682e-05
4.00684e-05
4.00668e-05
4.00648e-05
4.00633e-05
4.00625e-05
4.00619e-05
4.00616e-05
4.00615e-05
4.00616e-05
4.00618e-05
4.0062e-05
4.00621e-05
4.00621e-05
4.00623e-05
4.00625e-05
4.00627e-05
4.0063e-05
4.00633e-05
4.00636e-05
4.00638e-05
4.00641e-05
4.00645e-05
4.0065e-05
4.00655e-05
4.00657e-05
4.00666e-05
4.00616e-05
4.00819e-05
4.00181e-05
4.0453e-05
3.99144e-05
3.48063e-05
9.00182e-06
2.07938e-05
4.0069e-05
4.00693e-05
4.00695e-05
4.00692e-05
4.00688e-05
4.00683e-05
4.00679e-05
4.00677e-05
4.00674e-05
4.00673e-05
4.00674e-05
4.00676e-05
4.0068e-05
4.00687e-05
4.00699e-05
4.00716e-05
4.00743e-05
4.00777e-05
4.00813e-05
4.00854e-05
4.00826e-05
4.00736e-05
4.00831e-05
4.02657e-05
4.06282e-05
4.10442e-05
4.15289e-05
4.1508e-05
4.12296e-05
3.75453e-05
3.23836e-05
7.00088e-06
5.76474e-06
0
0
0
0.00441091
0.0302864
0.133003
4.00679e-05
4.00656e-05
4.0065e-05
4.00639e-05
4.00667e-05
4.00672e-05
4.00659e-05
4.00641e-05
4.00629e-05
4.0062e-05
4.00616e-05
4.00613e-05
4.00612e-05
4.00614e-05
4.00615e-05
4.00618e-05
4.00621e-05
4.00623e-05
4.00625e-05
4.00625e-05
4.00626e-05
4.00628e-05
4.00631e-05
4.00635e-05
4.00639e-05
4.00645e-05
4.00655e-05
4.00667e-05
4.00683e-05
4.00702e-05
4.00728e-05
4.00756e-05
4.008e-05
4.0073e-05
4.01061e-05
4.02117e-05
4.1102e-05
3.69394e-05
5.5264e-06
4.00689e-05
4.00689e-05
4.00689e-05
4.00684e-05
4.00678e-05
4.00673e-05
4.00667e-05
4.00663e-05
4.00659e-05
4.00656e-05
4.00653e-05
4.00651e-05
4.00649e-05
4.00648e-05
4.00648e-05
4.00648e-05
4.00649e-05
4.00651e-05
4.00654e-05
4.00669e-05
4.0069e-05
4.0068e-05
4.00631e-05
4.00634e-05
4.01068e-05
4.02064e-05
4.04152e-05
4.0775e-05
4.13339e-05
4.1965e-05
4.24325e-05
3.81896e-05
2.59074e-05
7.9001e-06
0
0
6.57986e-05
0.00303876
0.0730349
4.00679e-05
4.00656e-05
4.00644e-05
4.00629e-05
4.00655e-05
4.00662e-05
4.00651e-05
4.00635e-05
4.00624e-05
4.00617e-05
4.00614e-05
4.00611e-05
4.0061e-05
4.0061e-05
4.00612e-05
4.00615e-05
4.00618e-05
4.00621e-05
4.00624e-05
4.00627e-05
4.00629e-05
4.0063e-05
4.0063e-05
4.00631e-05
4.00631e-05
4.00633e-05
4.00636e-05
4.00641e-05
4.00648e-05
4.00656e-05
4.00663e-05
4.00677e-05
4.00669e-05
4.00763e-05
4.00393e-05
4.0219e-05
3.95605e-05
4.44799e-05
2.13518e-05
4.00686e-05
4.00684e-05
4.00681e-05
4.00675e-05
4.00669e-05
4.00662e-05
4.00657e-05
4.00653e-05
4.0065e-05
4.00647e-05
4.00646e-05
4.00644e-05
4.00644e-05
4.00645e-05
4.00647e-05
4.0065e-05
4.00656e-05
4.00666e-05
4.00676e-05
4.00687e-05
4.00699e-05
4.00705e-05
4.00704e-05
4.00687e-05
4.0065e-05
4.00593e-05
4.00566e-05
4.00973e-05
4.02256e-05
4.06343e-05
4.13484e-05
4.26513e-05
4.19588e-05
3.30592e-05
8.6818e-06
0
0
0.00140762
0.0333362
4.0068e-05
4.00657e-05
4.00641e-05
4.00623e-05
4.00646e-05
4.00653e-05
4.00645e-05
4.0063e-05
4.0062e-05
4.00614e-05
4.00611e-05
4.00608e-05
4.00607e-05
4.00607e-05
4.00608e-05
4.0061e-05
4.00613e-05
4.00617e-05
4.0062e-05
4.00624e-05
4.00627e-05
4.00629e-05
4.00631e-05
4.00633e-05
4.00634e-05
4.00635e-05
4.00638e-05
4.00642e-05
4.00648e-05
4.00656e-05
4.00666e-05
4.00682e-05
4.00681e-05
4.00765e-05
4.00479e-05
4.01798e-05
3.96077e-05
4.1923e-05
3.64866e-05
4.00683e-05
4.00678e-05
4.00673e-05
4.00666e-05
4.00659e-05
4.00653e-05
4.00648e-05
4.00644e-05
4.00641e-05
4.00638e-05
4.00636e-05
4.00635e-05
4.00633e-05
4.00633e-05
4.00633e-05
4.00634e-05
4.00635e-05
4.00637e-05
4.00642e-05
4.00649e-05
4.00661e-05
4.00675e-05
4.00688e-05
4.00705e-05
4.00728e-05
4.00733e-05
4.00639e-05
4.00431e-05
4.0013e-05
4.00376e-05
4.01474e-05
4.0755e-05
4.19935e-05
4.29588e-05
3.56774e-05
7.84678e-06
0
0.000285753
0.013048
4.00679e-05
4.00658e-05
4.00639e-05
4.00619e-05
4.00639e-05
4.00646e-05
4.00639e-05
4.00625e-05
4.00617e-05
4.00611e-05
4.00608e-05
4.00606e-05
4.00604e-05
4.00603e-05
4.00603e-05
4.00605e-05
4.00608e-05
4.00612e-05
4.00615e-05
4.00619e-05
4.00623e-05
4.00627e-05
4.0063e-05
4.00633e-05
4.00636e-05
4.00637e-05
4.00638e-05
4.0064e-05
4.00643e-05
4.00647e-05
4.00653e-05
4.00661e-05
4.00665e-05
4.00694e-05
4.00629e-05
4.00953e-05
3.99856e-05
4.02546e-05
4.0174e-05
4.00679e-05
4.00671e-05
4.00665e-05
4.00658e-05
4.00651e-05
4.00645e-05
4.0064e-05
4.00637e-05
4.00634e-05
4.00632e-05
4.00631e-05
4.0063e-05
4.00629e-05
4.00629e-05
4.0063e-05
4.00631e-05
4.00633e-05
4.00636e-05
4.00641e-05
4.00646e-05
4.00654e-05
4.00664e-05
4.00675e-05
4.00687e-05
4.00709e-05
4.00748e-05
4.00782e-05
4.0076e-05
4.00602e-05
4.00305e-05
3.99858e-05
3.99888e-05
4.03222e-05
4.13087e-05
4.41109e-05
3.14841e-05
8.6267e-07
9.96869e-05
0.00434166
4.00678e-05
4.00659e-05
4.00638e-05
4.00616e-05
4.00634e-05
4.0064e-05
4.00633e-05
4.00621e-05
4.00613e-05
4.00608e-05
4.00605e-05
4.00603e-05
4.006e-05
4.00599e-05
4.00599e-05
4.00601e-05
4.00603e-05
4.00606e-05
4.0061e-05
4.00615e-05
4.00619e-05
4.00624e-05
4.00628e-05
4.00631e-05
4.00635e-05
4.00638e-05
4.00639e-05
4.00639e-05
4.00641e-05
4.00644e-05
4.00648e-05
4.00654e-05
4.00662e-05
4.00669e-05
4.00689e-05
4.00653e-05
4.00916e-05
3.99725e-05
4.03491e-05
4.00673e-05
4.00664e-05
4.00657e-05
4.0065e-05
4.00644e-05
4.00637e-05
4.00633e-05
4.0063e-05
4.00628e-05
4.00627e-05
4.00626e-05
4.00626e-05
4.00626e-05
4.00626e-05
4.00626e-05
4.00627e-05
4.00628e-05
4.0063e-05
4.00633e-05
4.00637e-05
4.00643e-05
4.00651e-05
4.00661e-05
4.00672e-05
4.00687e-05
4.00711e-05
4.0075e-05
4.00798e-05
4.00825e-05
4.00769e-05
4.0058e-05
4.00025e-05
3.99618e-05
4.00237e-05
4.11132e-05
4.68275e-05
8.0454e-06
2.66636e-05
0.00110794
4.00676e-05
4.00659e-05
4.00638e-05
4.00614e-05
4.00629e-05
4.00635e-05
4.00629e-05
4.00617e-05
4.0061e-05
4.00605e-05
4.00602e-05
4.006e-05
4.00597e-05
4.00595e-05
4.00595e-05
4.00596e-05
4.00598e-05
4.00602e-05
4.00605e-05
4.0061e-05
4.00614e-05
4.00619e-05
4.00624e-05
4.00628e-05
4.00633e-05
4.00636e-05
4.00638e-05
4.0064e-05
4.0064e-05
4.00641e-05
4.00644e-05
4.00647e-05
4.00653e-05
4.00657e-05
4.00677e-05
4.0064e-05
4.00834e-05
4.00255e-05
4.01459e-05
4.00667e-05
4.00657e-05
4.0065e-05
4.00643e-05
4.00637e-05
4.00631e-05
4.00627e-05
4.00625e-05
4.00624e-05
4.00624e-05
4.00624e-05
4.00624e-05
4.00625e-05
4.00625e-05
4.00626e-05
4.00627e-05
4.00628e-05
4.0063e-05
4.00632e-05
4.00635e-05
4.0064e-05
4.00646e-05
4.00653e-05
4.00663e-05
4.00675e-05
4.0069e-05
4.00714e-05
4.00749e-05
4.00797e-05
4.00843e-05
4.00863e-05
4.00799e-05
4.00199e-05
4.00729e-05
3.91921e-05
4.52397e-05
3.09162e-05
3.29264e-06
9.67454e-05
4.00672e-05
4.00658e-05
4.00638e-05
4.00613e-05
4.00625e-05
4.0063e-05
4.00624e-05
4.00614e-05
4.00607e-05
4.00602e-05
4.00599e-05
4.00596e-05
4.00593e-05
4.00592e-05
4.00591e-05
4.00592e-05
4.00594e-05
4.00597e-05
4.006e-05
4.00605e-05
4.00609e-05
4.00614e-05
4.00619e-05
4.00624e-05
4.00629e-05
4.00633e-05
4.00637e-05
4.00639e-05
4.0064e-05
4.0064e-05
4.00642e-05
4.00644e-05
4.00648e-05
4.00652e-05
4.00661e-05
4.00659e-05
4.00704e-05
4.0064e-05
4.00736e-05
4.00661e-05
4.00651e-05
4.00644e-05
4.00637e-05
4.00631e-05
4.00626e-05
4.00623e-05
4.00622e-05
4.00622e-05
4.00623e-05
4.00623e-05
4.00624e-05
4.00625e-05
4.00626e-05
4.00627e-05
4.00628e-05
4.00629e-05
4.0063e-05
4.00632e-05
4.00634e-05
4.00638e-05
4.00642e-05
4.00648e-05
4.00656e-05
4.00666e-05
4.00679e-05
4.00696e-05
4.00719e-05
4.0075e-05
4.00795e-05
4.00834e-05
4.00958e-05
4.0064e-05
4.01816e-05
3.95264e-05
4.06739e-05
4.57516e-05
2.04918e-06
2.22837e-05
4.00668e-05
4.00657e-05
4.00637e-05
4.00612e-05
4.00621e-05
4.00626e-05
4.0062e-05
4.00611e-05
4.00604e-05
4.00598e-05
4.00595e-05
4.00593e-05
4.0059e-05
4.00588e-05
4.00587e-05
4.00588e-05
4.0059e-05
4.00592e-05
4.00596e-05
4.006e-05
4.00605e-05
4.0061e-05
4.00615e-05
4.0062e-05
4.00626e-05
4.0063e-05
4.00634e-05
4.00637e-05
4.00639e-05
4.0064e-05
4.00641e-05
4.00642e-05
4.00644e-05
4.00648e-05
4.00652e-05
4.00659e-05
4.00663e-05
4.00707e-05
4.00651e-05
4.00655e-05
4.00645e-05
4.00637e-05
4.00631e-05
4.00626e-05
4.00622e-05
4.0062e-05
4.0062e-05
4.00621e-05
4.00622e-05
4.00624e-05
4.00625e-05
4.00626e-05
4.00627e-05
4.00628e-05
4.00629e-05
4.0063e-05
4.00631e-05
4.00633e-05
4.00635e-05
4.00638e-05
4.00642e-05
4.00646e-05
4.00653e-05
4.00661e-05
4.00672e-05
4.00687e-05
4.00705e-05
4.00727e-05
4.00758e-05
4.00785e-05
4.00872e-05
4.00834e-05
4.01057e-05
4.02291e-05
3.84483e-05
4.89876e-05
3.35783e-06
9.37206e-08
4.00663e-05
4.00655e-05
4.00636e-05
4.00611e-05
4.00618e-05
4.00622e-05
4.00617e-05
4.00608e-05
4.006e-05
4.00595e-05
4.00592e-05
4.00589e-05
4.00586e-05
4.00585e-05
4.00584e-05
4.00585e-05
4.00586e-05
4.00588e-05
4.00591e-05
4.00595e-05
4.006e-05
4.00605e-05
4.00611e-05
4.00616e-05
4.00622e-05
4.00627e-05
4.00631e-05
4.00635e-05
4.00638e-05
4.0064e-05
4.00641e-05
4.00641e-05
4.00642e-05
4.00644e-05
4.00648e-05
4.00654e-05
4.00656e-05
4.00692e-05
4.00667e-05
4.0065e-05
4.0064e-05
4.00632e-05
4.00626e-05
4.00622e-05
4.00619e-05
4.00618e-05
4.00619e-05
4.00621e-05
4.00623e-05
4.00624e-05
4.00626e-05
4.00627e-05
4.00629e-05
4.0063e-05
4.00631e-05
4.00632e-05
4.00633e-05
4.00635e-05
4.00636e-05
4.00639e-05
4.00642e-05
4.00646e-05
4.00651e-05
4.00658e-05
4.00667e-05
4.0068e-05
4.00695e-05
4.00714e-05
4.00738e-05
4.00766e-05
4.00785e-05
4.00945e-05
4.00292e-05
4.04483e-05
3.85276e-05
4.54777e-05
2.79758e-05
3.71386e-06
4.00658e-05
4.00652e-05
4.00635e-05
4.0061e-05
4.00615e-05
4.00618e-05
4.00613e-05
4.00604e-05
4.00597e-05
4.00592e-05
4.00589e-05
4.00586e-05
4.00583e-05
4.00582e-05
4.00581e-05
4.00581e-05
4.00582e-05
4.00585e-05
4.00588e-05
4.00591e-05
4.00596e-05
4.00601e-05
4.00606e-05
4.00612e-05
4.00618e-05
4.00623e-05
4.00628e-05
4.00632e-05
4.00636e-05
4.00638e-05
4.0064e-05
4.00641e-05
4.00641e-05
4.00642e-05
4.00645e-05
4.00649e-05
4.00653e-05
4.00676e-05
4.00672e-05
4.00644e-05
4.00635e-05
4.00627e-05
4.00622e-05
4.00618e-05
4.00617e-05
4.00617e-05
4.00619e-05
4.00621e-05
4.00623e-05
4.00625e-05
4.00627e-05
4.00629e-05
4.0063e-05
4.00632e-05
4.00633e-05
4.00634e-05
4.00635e-05
4.00636e-05
4.00638e-05
4.0064e-05
4.00642e-05
4.00646e-05
4.0065e-05
4.00656e-05
4.00664e-05
4.00674e-05
4.00688e-05
4.00705e-05
4.00724e-05
4.00755e-05
4.00747e-05
4.00946e-05
4.0025e-05
4.03257e-05
3.93856e-05
4.15329e-05
4.14009e-05
1.3405e-05
4.00653e-05
4.00649e-05
4.00633e-05
4.00609e-05
4.00613e-05
4.00614e-05
4.00609e-05
4.00601e-05
4.00594e-05
4.00589e-05
4.00586e-05
4.00583e-05
4.0058e-05
4.00579e-05
4.00578e-05
4.00578e-05
4.00579e-05
4.00581e-05
4.00584e-05
4.00588e-05
4.00592e-05
4.00597e-05
4.00602e-05
4.00608e-05
4.00614e-05
4.00619e-05
4.00624e-05
4.00629e-05
4.00633e-05
4.00636e-05
4.00639e-05
4.00641e-05
4.00641e-05
4.00642e-05
4.00643e-05
4.00646e-05
4.00649e-05
4.00667e-05
4.00667e-05
4.00639e-05
4.0063e-05
4.00622e-05
4.00618e-05
4.00616e-05
4.00616e-05
4.00617e-05
4.00619e-05
4.00622e-05
4.00624e-05
4.00626e-05
4.00628e-05
4.0063e-05
4.00632e-05
4.00633e-05
4.00635e-05
4.00636e-05
4.00637e-05
4.00638e-05
4.0064e-05
4.00641e-05
4.00644e-05
4.00646e-05
4.0065e-05
4.00655e-05
4.00661e-05
4.00671e-05
4.00682e-05
4.00698e-05
4.00714e-05
4.00742e-05
4.0074e-05
4.00872e-05
4.0055e-05
4.01566e-05
4.00164e-05
3.9639e-05
4.40603e-05
2.83324e-05
4.00648e-05
4.00646e-05
4.00631e-05
4.00609e-05
4.0061e-05
4.00611e-05
4.00606e-05
4.00598e-05
4.00591e-05
4.00586e-05
4.00583e-05
4.0058e-05
4.00577e-05
4.00576e-05
4.00575e-05
4.00576e-05
4.00577e-05
4.00579e-05
4.00581e-05
4.00584e-05
4.00588e-05
4.00593e-05
4.00598e-05
4.00604e-05
4.0061e-05
4.00615e-05
4.0062e-05
4.00625e-05
4.00629e-05
4.00633e-05
4.00636e-05
4.00639e-05
4.00641e-05
4.00641e-05
4.00642e-05
4.00644e-05
4.00646e-05
4.00662e-05
4.00662e-05
4.00635e-05
4.00626e-05
4.00618e-05
4.00615e-05
4.00615e-05
4.00615e-05
4.00617e-05
4.0062e-05
4.00622e-05
4.00625e-05
4.00628e-05
4.0063e-05
4.00632e-05
4.00634e-05
4.00635e-05
4.00637e-05
4.00638e-05
4.00639e-05
4.00641e-05
4.00642e-05
4.00644e-05
4.00646e-05
4.00648e-05
4.00651e-05
4.00655e-05
4.00661e-05
4.00669e-05
4.00679e-05
4.00692e-05
4.00706e-05
4.00728e-05
4.00741e-05
4.00794e-05
4.00786e-05
4.00674e-05
4.02349e-05
3.93654e-05
4.26201e-05
3.70384e-05
4.00643e-05
4.00643e-05
4.00629e-05
4.00607e-05
4.00607e-05
4.00608e-05
4.00603e-05
4.00595e-05
4.00588e-05
4.00583e-05
4.0058e-05
4.00577e-05
4.00574e-05
4.00573e-05
4.00573e-05
4.00573e-05
4.00574e-05
4.00576e-05
4.00578e-05
4.00581e-05
4.00585e-05
4.00589e-05
4.00594e-05
4.006e-05
4.00605e-05
4.00611e-05
4.00616e-05
4.00621e-05
4.00625e-05
4.0063e-05
4.00633e-05
4.00637e-05
4.00639e-05
4.00641e-05
4.00641e-05
4.00642e-05
4.00644e-05
4.00657e-05
4.00657e-05
4.00631e-05
4.00622e-05
4.00615e-05
4.00614e-05
4.00614e-05
4.00615e-05
4.00617e-05
4.0062e-05
4.00623e-05
4.00626e-05
4.00629e-05
4.00631e-05
4.00633e-05
4.00635e-05
4.00637e-05
4.00639e-05
4.0064e-05
4.00642e-05
4.00643e-05
4.00644e-05
4.00646e-05
4.00648e-05
4.0065e-05
4.00653e-05
4.00656e-05
4.00661e-05
4.00668e-05
4.00677e-05
4.00688e-05
4.00701e-05
4.00718e-05
4.00739e-05
4.00751e-05
4.00858e-05
4.00496e-05
4.02178e-05
3.967e-05
4.09956e-05
4.01586e-05
4.00638e-05
4.00639e-05
4.00627e-05
4.00606e-05
4.00605e-05
4.00604e-05
4.00599e-05
4.00592e-05
4.00585e-05
4.00581e-05
4.00577e-05
4.00574e-05
4.00572e-05
4.00571e-05
4.0057e-05
4.00571e-05
4.00572e-05
4.00573e-05
4.00575e-05
4.00578e-05
4.00581e-05
4.00585e-05
4.0059e-05
4.00595e-05
4.00601e-05
4.00606e-05
4.00611e-05
4.00617e-05
4.00621e-05
4.00626e-05
4.0063e-05
4.00634e-05
4.00637e-05
4.0064e-05
4.00641e-05
4.00641e-05
4.00642e-05
4.00654e-05
4.00654e-05
4.00627e-05
4.00619e-05
4.00612e-05
4.00612e-05
4.00613e-05
4.00615e-05
4.00617e-05
4.00621e-05
4.00624e-05
4.00627e-05
4.0063e-05
4.00632e-05
4.00635e-05
4.00637e-05
4.00639e-05
4.00641e-05
4.00642e-05
4.00644e-05
4.00646e-05
4.00647e-05
4.00649e-05
4.00651e-05
4.00653e-05
4.00655e-05
4.00658e-05
4.00662e-05
4.00668e-05
4.00676e-05
4.00686e-05
4.00698e-05
4.00712e-05
4.00734e-05
4.00737e-05
4.00835e-05
4.00606e-05
4.01453e-05
3.99565e-05
4.01931e-05
4.06386e-05
4.00634e-05
4.00635e-05
4.00624e-05
4.00605e-05
4.00602e-05
4.00601e-05
4.00596e-05
4.00589e-05
4.00582e-05
4.00578e-05
4.00574e-05
4.00571e-05
4.00569e-05
4.00568e-05
4.00568e-05
4.00568e-05
4.00569e-05
4.0057e-05
4.00572e-05
4.00575e-05
4.00578e-05
4.00582e-05
4.00586e-05
4.00591e-05
4.00597e-05
4.00602e-05
4.00607e-05
4.00612e-05
4.00617e-05
4.00622e-05
4.00627e-05
4.00631e-05
4.00635e-05
4.00638e-05
4.0064e-05
4.00641e-05
4.00641e-05
4.00651e-05
4.00651e-05
4.00623e-05
4.00616e-05
4.0061e-05
4.00611e-05
4.00612e-05
4.00614e-05
4.00618e-05
4.00621e-05
4.00624e-05
4.00628e-05
4.00631e-05
4.00634e-05
4.00636e-05
4.00639e-05
4.00641e-05
4.00643e-05
4.00645e-05
4.00646e-05
4.00648e-05
4.0065e-05
4.00651e-05
4.00653e-05
4.00655e-05
4.00657e-05
4.0066e-05
4.00664e-05
4.00669e-05
4.00676e-05
4.00684e-05
4.00695e-05
4.00708e-05
4.00727e-05
4.00736e-05
4.00793e-05
4.00728e-05
4.00961e-05
4.00857e-05
3.99897e-05
4.04014e-05
4.0063e-05
4.00631e-05
4.00621e-05
4.00603e-05
4.006e-05
4.00598e-05
4.00592e-05
4.00585e-05
4.00579e-05
4.00575e-05
4.00571e-05
4.00568e-05
4.00567e-05
4.00566e-05
4.00565e-05
4.00566e-05
4.00566e-05
4.00568e-05
4.00569e-05
4.00572e-05
4.00574e-05
4.00578e-05
4.00582e-05
4.00587e-05
4.00592e-05
4.00597e-05
4.00602e-05
4.00608e-05
4.00613e-05
4.00618e-05
4.00623e-05
4.00627e-05
4.00631e-05
4.00635e-05
4.00638e-05
4.0064e-05
4.0064e-05
4.00648e-05
4.00648e-05
4.0062e-05
4.00614e-05
4.00609e-05
4.0061e-05
4.00612e-05
4.00614e-05
4.00618e-05
4.00622e-05
4.00625e-05
4.00629e-05
4.00632e-05
4.00635e-05
4.00638e-05
4.0064e-05
4.00643e-05
4.00645e-05
4.00647e-05
4.00649e-05
4.00651e-05
4.00652e-05
4.00654e-05
4.00656e-05
4.00658e-05
4.0066e-05
4.00663e-05
4.00666e-05
4.00671e-05
4.00677e-05
4.00684e-05
4.00694e-05
4.00705e-05
4.00721e-05
4.00735e-05
4.00763e-05
4.00783e-05
4.00777e-05
4.01105e-05
4.0012e-05
4.01804e-05
4.00626e-05
4.00628e-05
4.00619e-05
4.00601e-05
4.00597e-05
4.00594e-05
4.00589e-05
4.00582e-05
4.00576e-05
4.00572e-05
4.00568e-05
4.00566e-05
4.00564e-05
4.00563e-05
4.00563e-05
4.00563e-05
4.00564e-05
4.00565e-05
4.00566e-05
4.00568e-05
4.00571e-05
4.00574e-05
4.00579e-05
4.00583e-05
4.00588e-05
4.00593e-05
4.00598e-05
4.00603e-05
4.00608e-05
4.00613e-05
4.00618e-05
4.00623e-05
4.00628e-05
4.00632e-05
4.00635e-05
4.00638e-05
4.00638e-05
4.00644e-05
4.00646e-05
4.00617e-05
4.00611e-05
4.00607e-05
4.00609e-05
4.00611e-05
4.00614e-05
4.00618e-05
4.00622e-05
4.00626e-05
4.0063e-05
4.00633e-05
4.00636e-05
4.00639e-05
4.00642e-05
4.00645e-05
4.00647e-05
4.00649e-05
4.00651e-05
4.00653e-05
4.00655e-05
4.00657e-05
4.00659e-05
4.00661e-05
4.00663e-05
4.00666e-05
4.00669e-05
4.00673e-05
4.00678e-05
4.00685e-05
4.00693e-05
4.00704e-05
4.00717e-05
4.00733e-05
4.0075e-05
4.00789e-05
4.00753e-05
4.01e-05
4.00611e-05
4.00931e-05
4.00622e-05
4.00624e-05
4.00615e-05
4.00599e-05
4.00594e-05
4.00591e-05
4.00585e-05
4.00578e-05
4.00572e-05
4.00568e-05
4.00565e-05
4.00562e-05
4.00561e-05
4.0056e-05
4.0056e-05
4.0056e-05
4.00561e-05
4.00562e-05
4.00563e-05
4.00565e-05
4.00568e-05
4.00571e-05
4.00575e-05
4.00579e-05
4.00584e-05
4.00588e-05
4.00593e-05
4.00598e-05
4.00603e-05
4.00609e-05
4.00614e-05
4.00619e-05
4.00624e-05
4.00629e-05
4.00633e-05
4.00636e-05
4.00636e-05
4.00641e-05
4.00643e-05
4.00614e-05
4.00609e-05
4.00606e-05
4.00608e-05
4.00611e-05
4.00614e-05
4.00618e-05
4.00622e-05
4.00627e-05
4.00631e-05
4.00634e-05
4.00638e-05
4.00641e-05
4.00644e-05
4.00647e-05
4.00649e-05
4.00651e-05
4.00654e-05
4.00656e-05
4.00658e-05
4.0066e-05
4.00662e-05
4.00664e-05
4.00667e-05
4.00669e-05
4.00672e-05
4.00676e-05
4.0068e-05
4.00686e-05
4.00694e-05
4.00703e-05
4.00715e-05
4.0073e-05
4.00744e-05
4.00778e-05
4.00771e-05
4.00881e-05
4.00846e-05
4.00803e-05
4.00618e-05
4.0062e-05
4.00612e-05
4.00596e-05
4.00591e-05
4.00587e-05
4.00581e-05
4.00574e-05
4.00569e-05
4.00565e-05
4.00562e-05
4.00559e-05
4.00558e-05
4.00557e-05
4.00557e-05
4.00557e-05
4.00558e-05
4.00559e-05
4.0056e-05
4.00562e-05
4.00564e-05
4.00567e-05
4.00571e-05
4.00575e-05
4.00579e-05
4.00584e-05
4.00588e-05
4.00593e-05
4.00599e-05
4.00604e-05
4.00609e-05
4.00615e-05
4.0062e-05
4.00625e-05
4.00629e-05
4.00633e-05
4.00635e-05
4.00638e-05
4.0064e-05
4.00611e-05
4.00607e-05
4.00605e-05
4.00608e-05
4.00611e-05
4.00614e-05
4.00619e-05
4.00623e-05
4.00627e-05
4.00632e-05
4.00635e-05
4.00639e-05
4.00642e-05
4.00646e-05
4.00648e-05
4.00651e-05
4.00654e-05
4.00656e-05
4.00658e-05
4.00661e-05
4.00663e-05
4.00665e-05
4.00667e-05
4.0067e-05
4.00672e-05
4.00675e-05
4.00678e-05
4.00683e-05
4.00688e-05
4.00695e-05
4.00704e-05
4.00714e-05
4.00728e-05
4.00742e-05
4.00767e-05
4.00782e-05
4.00825e-05
4.00885e-05
4.00867e-05
4.00614e-05
4.00616e-05
4.00609e-05
4.00594e-05
4.00588e-05
4.00584e-05
4.00578e-05
4.00571e-05
4.00565e-05
4.00561e-05
4.00558e-05
4.00556e-05
4.00555e-05
4.00554e-05
4.00554e-05
4.00554e-05
4.00554e-05
4.00555e-05
4.00557e-05
4.00558e-05
4.0056e-05
4.00563e-05
4.00567e-05
4.00571e-05
4.00575e-05
4.00579e-05
4.00584e-05
4.00588e-05
4.00593e-05
4.00599e-05
4.00604e-05
4.0061e-05
4.00615e-05
4.00621e-05
4.00625e-05
4.0063e-05
4.00632e-05
4.00634e-05
4.00638e-05
4.00608e-05
4.00605e-05
4.00603e-05
4.00607e-05
4.0061e-05
4.00614e-05
4.00619e-05
4.00623e-05
4.00628e-05
4.00632e-05
4.00636e-05
4.0064e-05
4.00644e-05
4.00647e-05
4.0065e-05
4.00653e-05
4.00656e-05
4.00658e-05
4.00661e-05
4.00663e-05
4.00666e-05
4.00668e-05
4.00671e-05
4.00673e-05
4.00675e-05
4.00678e-05
4.00681e-05
4.00685e-05
4.00691e-05
4.00697e-05
4.00705e-05
4.00714e-05
4.00726e-05
4.00741e-05
4.0076e-05
4.00782e-05
4.00809e-05
4.00859e-05
4.0091e-05
4.00611e-05
4.00613e-05
4.00606e-05
4.00591e-05
4.00585e-05
4.0058e-05
4.00574e-05
4.00567e-05
4.00561e-05
4.00557e-05
4.00554e-05
4.00552e-05
4.00551e-05
4.00551e-05
4.0055e-05
4.00551e-05
4.00551e-05
4.00552e-05
4.00553e-05
4.00555e-05
4.00557e-05
4.00559e-05
4.00563e-05
4.00566e-05
4.0057e-05
4.00574e-05
4.00579e-05
4.00583e-05
4.00588e-05
4.00594e-05
4.00599e-05
4.00605e-05
4.0061e-05
4.00616e-05
4.00621e-05
4.00626e-05
4.00629e-05
4.00631e-05
4.00635e-05
4.00606e-05
4.00603e-05
4.00602e-05
4.00606e-05
4.0061e-05
4.00614e-05
4.00619e-05
4.00624e-05
4.00629e-05
4.00633e-05
4.00637e-05
4.00641e-05
4.00645e-05
4.00649e-05
4.00652e-05
4.00655e-05
4.00658e-05
4.00661e-05
4.00663e-05
4.00666e-05
4.00669e-05
4.00671e-05
4.00674e-05
4.00676e-05
4.00679e-05
4.00682e-05
4.00685e-05
4.00689e-05
4.00693e-05
4.00699e-05
4.00706e-05
4.00715e-05
4.00726e-05
4.0074e-05
4.00757e-05
4.00778e-05
4.00806e-05
4.00832e-05
4.00912e-05
4.00608e-05
4.00609e-05
4.00602e-05
4.00588e-05
4.00581e-05
4.00576e-05
4.00569e-05
4.00563e-05
4.00557e-05
4.00553e-05
4.00551e-05
4.00549e-05
4.00547e-05
4.00547e-05
4.00547e-05
4.00547e-05
4.00548e-05
4.00548e-05
4.00549e-05
4.00551e-05
4.00553e-05
4.00555e-05
4.00558e-05
4.00562e-05
4.00565e-05
4.00569e-05
4.00573e-05
4.00578e-05
4.00583e-05
4.00588e-05
4.00594e-05
4.00599e-05
4.00605e-05
4.00611e-05
4.00616e-05
4.00621e-05
4.00626e-05
4.00627e-05
4.00633e-05
4.00603e-05
4.00601e-05
4.006e-05
4.00605e-05
4.00609e-05
4.00614e-05
4.00619e-05
4.00624e-05
4.00629e-05
4.00634e-05
4.00638e-05
4.00643e-05
4.00647e-05
4.0065e-05
4.00654e-05
4.00657e-05
4.0066e-05
4.00663e-05
4.00666e-05
4.00669e-05
4.00672e-05
4.00674e-05
4.00677e-05
4.0068e-05
4.00682e-05
4.00685e-05
4.00688e-05
4.00692e-05
4.00696e-05
4.00702e-05
4.00708e-05
4.00716e-05
4.00727e-05
4.00739e-05
4.00755e-05
4.00773e-05
4.00804e-05
4.00818e-05
4.00897e-05
4.00604e-05
4.00606e-05
4.00599e-05
4.00585e-05
4.00578e-05
4.00572e-05
4.00565e-05
4.00558e-05
4.00553e-05
4.00549e-05
4.00547e-05
4.00545e-05
4.00544e-05
4.00543e-05
4.00543e-05
4.00543e-05
4.00544e-05
4.00544e-05
4.00546e-05
4.00547e-05
4.00549e-05
4.00551e-05
4.00554e-05
4.00557e-05
4.0056e-05
4.00564e-05
4.00568e-05
4.00572e-05
4.00577e-05
4.00582e-05
4.00588e-05
4.00593e-05
4.00599e-05
4.00605e-05
4.00611e-05
4.00616e-05
4.00622e-05
4.00624e-05
4.0063e-05
4.006e-05
4.00599e-05
4.00599e-05
4.00604e-05
4.00608e-05
4.00613e-05
4.00619e-05
4.00624e-05
4.0063e-05
4.00635e-05
4.00639e-05
4.00644e-05
4.00648e-05
4.00652e-05
4.00655e-05
4.00659e-05
4.00662e-05
4.00665e-05
4.00668e-05
4.00671e-05
4.00674e-05
4.00677e-05
4.0068e-05
4.00683e-05
4.00686e-05
4.00689e-05
4.00692e-05
4.00695e-05
4.007e-05
4.00705e-05
4.00711e-05
4.00718e-05
4.00728e-05
4.00739e-05
4.00754e-05
4.00771e-05
4.008e-05
4.00811e-05
4.00883e-05
4.00601e-05
4.00602e-05
4.00595e-05
4.00582e-05
4.00574e-05
4.00568e-05
4.00561e-05
4.00554e-05
4.00549e-05
4.00545e-05
4.00542e-05
4.00541e-05
4.00539e-05
4.00539e-05
4.00539e-05
4.00539e-05
4.0054e-05
4.0054e-05
4.00541e-05
4.00543e-05
4.00544e-05
4.00546e-05
4.00549e-05
4.00552e-05
4.00555e-05
4.00559e-05
4.00562e-05
4.00567e-05