/*--------------------------------*- C++ -*----------------------------------*\
| =========                 |                                                 |
| \\      /  F ield         | OpenFOAM: The Open Source CFD Toolbox           |
|  \\    /   O peration     | Version:  2506                                  |
|   \\  /    A nd           | Website:  www.openfoam.com                      |
|    \\/     M anipulation  |                                                 |
\*---------------------------------------------------------------------------*/
FoamFile
{
    version     2.0;
    format      ascii;
    arch        "LSB;label=32;scalar=64";
    class       pointScalarField;
    location    "500";
    object      streamFunction;
}
// * * * * * * * * * * * * * * * * * * * * * * * * * * * * * * * * * * * * * //

dimensions      [0 3 -1 0 0 0 0];

internalField   nonuniform List<scalar> 
21812
(
0
0
0
0
0
0
0
0
0
0
0
0
0
0
0
0
0
0
0
0
0
0
0
0
0
0
0
0
0
0
0
0
0
0
0
0
0
0
0
0
0
0
0
0
0
0
0
0
0
0
0
0
0
0
0
0
0
0
0
0
0
0
0
0
0
0
0
0
0
0
0
0
0
0
0
0
0
0
0
0
0
0
0
0
0
0
0
0
0
0
0
0
0
0
0
0
0
0
0
0
0
0
0
0
0
0
0
0
0
0
0
0
0
0
0
0
0
0
0
0
0
0
0
0
0
0
0
0
0
0
0
0
0
0
0
0
0
0
0
0
0
0
0
0
0
0
0
0
0
0
0
0
0
0
0
0
4.67602
5.06796
5.50792
5.88666
6.22494
6.54444
6.799
6.99866
7.15846
7.25902
7.32028
7.34326
7.3169
7.24386
7.12054
6.93894
6.69684
6.37862
5.9706
5.44944
4.80014
4.01288
3.15452
2.38538
1.90204
1.8025
1.99316
2.2727
2.52226
2.70308
2.81524
2.87016
2.87082
2.81448
2.70326
2.53166
2.27926
1.90874
1.3432
1.32425
4.21434
3.73556
3.14778
2.50366
1.82543
1.12659
0.439002
-0.198388
-0.777604
-1.28917
-1.72824
-2.10208
-2.41652
-2.67842
-2.90212
-3.0941
-3.26388
-3.41606
-3.55684
-3.6886
-3.81472
-3.93486
-4.04752
-4.13968
-4.20772
-4.25814
-4.29208
-4.31412
-4.32702
-4.33066
-4.32074
-4.29554
-4.25502
-4.19998
-4.12874
-4.03462
-3.89834
-3.62194
-3.22434
4.67602
5.06796
5.50792
5.88666
6.22494
6.54444
6.799
6.99866
7.15846
7.25902
7.32028
7.34326
7.3169
7.24386
7.12054
6.93894
6.69684
6.37862
5.9706
5.44944
4.80014
4.01288
3.15452
2.38538
1.90204
1.8025
1.99316
2.2727
2.52226
2.70308
2.81524
2.87016
2.87082
2.81448
2.70326
2.53166
2.27926
1.90874
1.3432
1.32425
4.21434
3.73556
3.14778
2.50366
1.82543
1.12659
0.439002
-0.198388
-0.777604
-1.28917
-1.72824
-2.10208
-2.41652
-2.67842
-2.90212
-3.0941
-3.26388
-3.41606
-3.55684
-3.6886
-3.81472
-3.93486
-4.04752
-4.13968
-4.20772
-4.25814
-4.29208
-4.31412
-4.32702
-4.33066
-4.32074
-4.29554
-4.25502
-4.19998
-4.12874
-4.03462
-3.89834
-3.62194
-3.22434
8.9396
9.7617
10.6421
11.4814
12.2499
12.9902
13.6364
14.1906
14.6735
15.0582
15.3664
15.6037
15.7681
15.8691
15.904
15.8607
15.7282
15.4841
15.1077
14.5484
13.7677
12.7065
11.3994
10.0035
8.8156
8.06332
7.69074
7.4919
7.3505
7.23268
7.12588
7.00442
6.83946
6.60936
6.30114
5.89432
5.33808
4.57166
3.33131
2.75255
8.03872
7.08994
5.9519
4.72568
3.42914
2.08373
0.7513
-0.502546
-1.64484
-2.6574
-3.53202
-4.28354
-4.92688
-5.47336
-5.9463
-6.35826
-6.7246
-7.05608
-7.36404
-7.65308
-7.92984
-8.1954
-8.4469
-8.66214
-8.83208
-8.96698
-9.06606
-9.13206
-9.16678
-9.17222
-9.14858
-9.09784
-9.02034
-8.91682
-8.78404
-8.60944
-8.37404
-7.89074
-7.13214
8.9396
9.7617
10.6421
11.4814
12.2499
12.9902
13.6364
14.1906
14.6735
15.0582
15.3664
15.6037
15.7681
15.8691
15.904
15.8607
15.7282
15.4841
15.1077
14.5484
13.7677
12.7065
11.3994
10.0035
8.8156
8.06332
7.69074
7.4919
7.3505
7.23268
7.12588
7.00442
6.83946
6.60936
6.30114
5.89432
5.33808
4.57166
3.33131
2.75255
8.03872
7.08994
5.9519
4.72568
3.42914
2.08373
0.7513
-0.502546
-1.64484
-2.6574
-3.53202
-4.28354
-4.92688
-5.47336
-5.9463
-6.35826
-6.7246
-7.05608
-7.36404
-7.65308
-7.92984
-8.1954
-8.4469
-8.66214
-8.83208
-8.96698
-9.06606
-9.13206
-9.16678
-9.17222
-9.14858
-9.09784
-9.02034
-8.91682
-8.78404
-8.60944
-8.37404
-7.89074
-7.13214
13.0784
14.3345
15.6519
16.9629
18.1626
19.3128
20.351
21.2532
22.0479
22.6994
23.2346
23.6584
23.9714
24.18
24.2913
24.2931
24.195
23.9766
23.6358
23.1308
22.4367
21.4939
20.2968
18.9259
17.6193
16.6258
15.9395
15.3755
14.8069
14.1968
13.5583
12.9147
12.2781
11.6345
10.9463
10.1589
9.17874
7.91442
5.92311
4.49419
11.7408
10.3134
8.60292
6.78142
4.86281
2.87158
0.901211
-0.948264
-2.63637
-4.14304
-5.45356
-6.58628
-7.5638
-8.40296
-9.13326
-9.77398
-10.3458
-10.8649
-11.3466
-11.799
-12.2323
-12.6479
-13.041
-13.3835
-13.6603
-13.8842
-14.0556
-14.1781
-14.2547
-14.2874
-14.2774
-14.226
-14.1336
-13.9995
-13.8188
-13.5719
-13.2335
-12.5445
-11.4298
13.0784
14.3345
15.6519
16.9629
18.1626
19.3128
20.351
21.2532
22.0479
22.6994
23.2346
23.6584
23.9714
24.18
24.2913
24.2931
24.195
23.9766
23.6358
23.1308
22.4367
21.4939
20.2968
18.9259
17.6193
16.6258
15.9395
15.3755
14.8069
14.1968
13.5583
12.9147
12.2781
11.6345
10.9463
10.1589
9.17874
7.91442
5.92311
4.49419
11.7408
10.3134
8.60292
6.78142
4.86281
2.87158
0.901211
-0.948264
-2.63637
-4.14304
-5.45356
-6.58628
-7.5638
-8.40296
-9.13326
-9.77398
-10.3458
-10.8649
-11.3466
-11.799
-12.2323
-12.6479
-13.041
-13.3835
-13.6603
-13.8842
-14.0556
-14.1781
-14.2547
-14.2874
-14.2774
-14.226
-14.1336
-13.9995
-13.8188
-13.5719
-13.2335
-12.5445
-11.4298
17.0652
18.7749
20.5476
22.3593
24.0161
25.6096
27.0728
28.3654
29.5126
30.4827
31.2982
31.9663
32.4879
32.8706
33.1231
33.2391
33.2174
33.0397
32.6994
32.1656
31.4231
30.4376
29.229
27.867
26.5447
25.4726
24.6566
23.9386
23.1979
22.3766
21.4538
20.423
19.2933
18.0892
16.8271
15.4783
13.9229
12.0276
9.18129
6.74045
15.2797
13.3722
11.0793
8.65988
6.11794
3.47884
0.872275
-1.56534
-3.78984
-5.78315
-7.52354
-9.03418
-10.3463
-11.4818
-12.4767
-13.3546
-14.1422
-14.859
-15.5253
-16.1516
-16.7505
-17.3247
-17.8682
-18.3463
-18.7392
-19.0606
-19.3123
-19.4987
-19.6235
-19.6901
-19.7003
-19.6558
-19.5571
-19.403
-19.1861
-18.8795
-18.4465
-17.5629
-16.0808
17.0652
18.7749
20.5476
22.3593
24.0161
25.6096
27.0728
28.3654
29.5126
30.4827
31.2982
31.9663
32.4879
32.8706
33.1231
33.2391
33.2174
33.0397
32.6994
32.1656
31.4231
30.4376
29.229
27.867
26.5447
25.4726
24.6566
23.9386
23.1979
22.3766
21.4538
20.423
19.2933
18.0892
16.8271
15.4783
13.9229
12.0276
9.18129
6.74045
15.2797
13.3722
11.0793
8.65988
6.11794
3.47884
0.872275
-1.56534
-3.78984
-5.78315
-7.52354
-9.03418
-10.3463
-11.4818
-12.4767
-13.3546
-14.1422
-14.859
-15.5253
-16.1516
-16.7505
-17.3247
-17.8682
-18.3463
-18.7392
-19.0606
-19.3123
-19.4987
-19.6235
-19.6901
-19.7003
-19.6558
-19.5571
-19.403
-19.1861
-18.8795
-18.4465
-17.5629
-16.0808
20.9752
23.155
25.4005
27.7406
29.8694
31.9256
33.8346
35.534
37.0509
38.3595
39.4693
40.3949
41.1359
41.7056
42.1061
42.3341
42.3896
42.2598
41.9407
41.3988
40.6274
39.5942
38.3277
36.8989
35.4876
34.2909
33.3237
32.4516
31.5685
30.6173
29.5702
28.399
27.0709
25.5567
23.8388
21.9042
19.6702
17.0127
13.1936
9.62477
18.7208
16.3186
13.418
10.3837
7.20374
3.90377
0.652983
-2.37355
-5.1318
-7.60747
-9.77286
-11.658
-13.3042
-14.7377
-16.0008
-17.1225
-18.1329
-19.0553
-19.9138
-20.7217
-21.4934
-22.2325
-22.9321
-23.5521
-24.0674
-24.4924
-24.8295
-25.0844
-25.2612
-25.3637
-25.3949
-25.3578
-25.2528
-25.0787
-24.8275
-24.4656
-23.9457
-22.8911
-21.0531
20.9752
23.155
25.4005
27.7406
29.8694
31.9256
33.8346
35.534
37.0509
38.3595
39.4693
40.3949
41.1359
41.7056
42.1061
42.3341
42.3896
42.2598
41.9407
41.3988
40.6274
39.5942
38.3277
36.8989
35.4876
34.2909
33.3237
32.4516
31.5685
30.6173
29.5702
28.399
27.0709
25.5567
23.8388
21.9042
19.6702
17.0127
13.1936
9.62477
18.7208
16.3186
13.418
10.3837
7.20374
3.90377
0.652983
-2.37355
-5.1318
-7.60747
-9.77286
-11.658
-13.3042
-14.7377
-16.0008
-17.1225
-18.1329
-19.0553
-19.9138
-20.7217
-21.4934
-22.2325
-22.9321
-23.5521
-24.0674
-24.4924
-24.8295
-25.0844
-25.2612
-25.3637
-25.3949
-25.3578
-25.2528
-25.0787
-24.8275
-24.4656
-23.9457
-22.8911
-21.0531
24.8218
27.492
30.2366
33.1328
35.7576
38.297
40.6793
42.805
44.7175
46.385
47.8145
49.0253
50.0132
50.7961
51.3761
51.7473
51.9169
51.8643
51.5876
51.0574
50.2666
49.1876
47.8537
46.331
44.7896
43.4233
42.2593
41.184
40.1039
38.9655
37.7445
36.4176
34.9507
33.297
31.3854
29.1171
26.3384
22.9131
18.0422
13.2496
22.0791
19.166
15.6316
11.9595
8.12157
4.14218
0.232773
-3.38998
-6.68415
-9.64123
-12.2287
-14.4847
-16.4624
-18.1935
-19.7264
-21.0953
-22.3334
-23.4681
-24.5259
-25.5227
-26.4748
-27.3861
-28.2487
-29.0188
-29.6646
-30.2003
-30.6302
-30.9597
-31.194
-31.3376
-31.3941
-31.3673
-31.2577
-31.0646
-30.7772
-30.3572
-29.7439
-28.5221
-26.3364
24.8218
27.492
30.2366
33.1328
35.7576
38.297
40.6793
42.805
44.7175
46.385
47.8145
49.0253
50.0132
50.7961
51.3761
51.7473
51.9169
51.8643
51.5876
51.0574
50.2666
49.1876
47.8537
46.331
44.7896
43.4233
42.2593
41.184
40.1039
38.9655
37.7445
36.4176
34.9507
33.297
31.3854
29.1171
26.3384
22.9131
18.0422
13.2496
22.0791
19.166
15.6316
11.9595
8.12157
4.14218
0.232773
-3.38998
-6.68415
-9.64123
-12.2287
-14.4847
-16.4624
-18.1935
-19.7264
-21.0953
-22.3334
-23.4681
-24.5259
-25.5227
-26.4748
-27.3861
-28.2487
-29.0188
-29.6646
-30.2003
-30.6302
-30.9597
-31.194
-31.3376
-31.3941
-31.3673
-31.2577
-31.0646
-30.7772
-30.3572
-29.7439
-28.5221
-26.3364
28.6313
31.8185
35.0831
38.5667
41.7129
44.7605
47.6374
50.2126
52.5375
54.5844
56.3518
57.8637
59.1187
60.1321
60.9073
61.4401
61.7341
61.7726
61.5537
61.0505
60.2579
59.1524
57.7687
56.17
54.5118
52.9836
51.6222
50.333
49.0343
47.6751
46.2313
44.6836
43.0048
41.1582
39.0771
36.6357
33.5742
29.5959
23.7484
17.6914
25.3762
21.93
17.7326
13.3964
8.87637
4.19262
-0.395127
-4.62749
-8.46477
-11.9067
-14.9152
-17.5396
-19.8465
-21.8737
-23.6762
-25.2939
-26.7636
-28.1154
-29.3785
-30.5708
-31.7097
-32.7997
-33.8322
-34.7586
-35.5424
-36.1962
-36.7249
-37.135
-37.4314
-37.6201
-37.7048
-37.6904
-37.5778
-37.3654
-37.0417
-36.5618
-35.851
-34.4616
-31.9386
28.6313
31.8185
35.0831
38.5667
41.7129
44.7605
47.6374
50.2126
52.5375
54.5844
56.3518
57.8637
59.1187
60.1321
60.9073
61.4401
61.7341
61.7726
61.5537
61.0505
60.2579
59.1524
57.7687
56.17
54.5118
52.9836
51.6222
50.333
49.0343
47.6751
46.2313
44.6836
43.0048
41.1582
39.0771
36.6357
33.5742
29.5959
23.7484
17.6914
25.3762
21.93
17.7326
13.3964
8.87637
4.19262
-0.395127
-4.62749
-8.46477
-11.9067
-14.9152
-17.5396
-19.8465
-21.8737
-23.6762
-25.2939
-26.7636
-28.1154
-29.3785
-30.5708
-31.7097
-32.7997
-33.8322
-34.7586
-35.5424
-36.1962
-36.7249
-37.135
-37.4314
-37.6201
-37.7048
-37.6904
-37.5778
-37.3654
-37.0417
-36.5618
-35.851
-34.4616
-31.9386
32.4176
36.1484
39.9616
44.0663
47.758
51.3396
54.7361
57.7811
60.5425
62.9851
65.1092
66.9434
68.483
69.745
70.7354
71.4486
71.8883
72.0387
71.8977
71.4381
70.6571
69.536
68.1097
66.4401
64.6746
62.9955
61.4465
59.9495
58.4333
56.8484
55.1701
53.3775
51.4452
49.3394
47.0056
44.3363
41.0697
36.7805
30.2073
22.9699
28.6254
24.6229
19.7282
14.6975
9.46654
4.05108
-1.23942
-6.09919
-10.4906
-14.4235
-17.8551
-20.8467
-23.4808
-25.8018
-27.8727
-29.7401
-31.4431
-33.0155
-34.4884
-35.8816
-37.2132
-38.4884
-39.6974
-40.7873
-41.7166
-42.496
-43.1305
-43.6276
-43.9919
-44.2301
-44.3472
-44.348
-44.2343
-44.0036
-43.6426
-43.1008
-42.2888
-40.7293
-37.8791
32.4176
36.1484
39.9616
44.0663
47.758
51.3396
54.7361
57.7811
60.5425
62.9851
65.1092
66.9434
68.483
69.745
70.7354
71.4486
71.8883
72.0387
71.8977
71.4381
70.6571
69.536
68.1097
66.4401
64.6746
62.9955
61.4465
59.9495
58.4333
56.8484
55.1701
53.3775
51.4452
49.3394
47.0056
44.3363
41.0697
36.7805
30.2073
22.9699
28.6254
24.6229
19.7282
14.6975
9.46654
4.05108
-1.23942
-6.09919
-10.4906
-14.4235
-17.8551
-20.8467
-23.4808
-25.8018
-27.8727
-29.7401
-31.4431
-33.0155
-34.4884
-35.8816
-37.2132
-38.4884
-39.6974
-40.7873
-41.7166
-42.496
-43.1305
-43.6276
-43.9919
-44.2301
-44.3472
-44.348
-44.2343
-44.0036
-43.6426
-43.1008
-42.2888
-40.7293
-37.8791
36.1973
40.4992
44.89
49.6497
53.9146
58.0596
62.0029
65.542
68.7577
71.6183
74.1158
76.2864
78.127
79.6548
80.8764
81.7864
82.3893
82.6671
82.6182
82.2166
81.4608
80.3358
78.8772
77.1451
75.2808
73.4612
71.7343
70.0358
68.306
66.4983
64.5863
62.5476
60.355
57.9715
55.3415
52.3651
48.8101
44.2715
37.2289
29.0098
31.8383
27.2523
21.6247
15.8681
9.89316
3.7143
-2.30843
-7.81681
-12.7771
-17.2106
-21.0696
-24.4293
-27.3894
-30.0025
-32.3401
-34.4561
-36.3934
-38.1885
-39.8745
-41.4731
-43.0031
-44.4688
-45.8604
-47.121
-48.2034
-49.1153
-49.8628
-50.4527
-50.8908
-51.1835
-51.3365
-51.3556
-51.2423
-50.9942
-50.5959
-49.9906
-49.074
-47.3438
-44.178
36.1973
40.4992
44.89
49.6497
53.9146
58.0596
62.0029
65.542
68.7577
71.6183
74.1158
76.2864
78.127
79.6548
80.8764
81.7864
82.3893
82.6671
82.6182
82.2166
81.4608
80.3358
78.8772
77.1451
75.2808
73.4612
71.7343
70.0358
68.306
66.4983
64.5863
62.5476
60.355
57.9715
55.3415
52.3651
48.8101
44.2715
37.2289
29.0098
31.8383
27.2523
21.6247
15.8681
9.89316
3.7143
-2.30843
-7.81681
-12.7771
-17.2106
-21.0696
-24.4293
-27.3894
-30.0025
-32.3401
-34.4561
-36.3934
-38.1885
-39.8745
-41.4731
-43.0031
-44.4688
-45.8604
-47.121
-48.2034
-49.1153
-49.8628
-50.4527
-50.8908
-51.1835
-51.3365
-51.3556
-51.2423
-50.9942
-50.5959
-49.9906
-49.074
-47.3438
-44.178
39.979
44.8843
49.8836
55.3363
60.2036
64.9377
69.4573
73.5141
77.2069
80.5052
83.3937
85.918
88.0772
89.8852
91.3525
92.4769
93.2575
93.6789
93.7376
93.4102
92.6949
91.5761
90.0948
88.3075
86.3518
84.399
82.5002
80.6045
78.6632
76.6317
74.4851
72.1994
69.7454
67.0831
64.151
60.8423
56.9234
52.0619
44.6622
35.6561
35.0256
29.8268
23.4271
16.9073
10.1547
3.17557
-3.61023
-9.79218
-15.3393
-20.2864
-24.5795
-28.3098
-31.5961
-34.4998
-37.1023
-39.4657
-41.637
-43.6554
-45.5573
-47.3647
-49.0968
-50.7588
-52.3392
-53.777
-55.0195
-56.0716
-56.9386
-57.6283
-58.1457
-58.498
-58.6915
-58.7317
-58.6213
-58.357
-57.9209
-57.2504
-56.2266
-54.3256
-50.8553
39.979
44.8843
49.8836
55.3363
60.2036
64.9377
69.4573
73.5141
77.2069
80.5052
83.3937
85.918
88.0772
89.8852
91.3525
92.4769
93.2575
93.6789
93.7376
93.4102
92.6949
91.5761
90.0948
88.3075
86.3518
84.399
82.5002
80.6045
78.6632
76.6317
74.4851
72.1994
69.7454
67.0831
64.151
60.8423
56.9234
52.0619
44.6622
35.6561
35.0256
29.8268
23.4271
16.9073
10.1547
3.17557
-3.61023
-9.79218
-15.3393
-20.2864
-24.5795
-28.3098
-31.5961
-34.4998
-37.1023
-39.4657
-41.637
-43.6554
-45.5573
-47.3647
-49.0968
-50.7588
-52.3392
-53.777
-55.0195
-56.0716
-56.9386
-57.6283
-58.1457
-58.498
-58.6915
-58.7317
-58.6213
-58.357
-57.9209
-57.2504
-56.2266
-54.3256
-50.8553
43.7748
49.3149
54.9545
61.1387
66.6422
71.9978
77.1231
81.7206
85.9151
89.6719
92.9704
95.8642
98.3549
100.459
102.189
103.54
104.514
105.094
105.276
105.035
104.373
103.273
101.777
99.943
97.904
95.8267
93.7643
91.6758
89.5231
87.2671
84.8815
82.3439
79.624
76.6793
73.4435
69.8019
65.4999
60.2351
52.4659
42.7626
38.1936
32.3518
25.1384
17.8168
10.247
2.43014
-5.15416
-12.0377
-18.1932
-23.6684
-28.4052
-32.5103
-36.1245
-39.318
-42.1838
-44.7931
-47.1972
-49.4394
-51.5579
-53.5766
-55.5151
-57.3779
-59.1521
-60.7737
-62.1834
-63.3827
-64.3767
-65.1725
-65.7756
-66.1927
-66.4307
-66.4958
-66.3904
-66.1111
-65.6371
-64.9004
-63.7667
-61.695
-57.9329
43.7748
49.3149
54.9545
61.1387
66.6422
71.9978
77.1231
81.7206
85.9151
89.6719
92.9704
95.8642
98.3549
100.459
102.189
103.54
104.514
105.094
105.276
105.035
104.373
103.273
101.777
99.943
97.904
95.8267
93.7643
91.6758
89.5231
87.2671
84.8815
82.3439
79.624
76.6793
73.4435
69.8019
65.4999
60.2351
52.4659
42.7626
38.1936
32.3518
25.1384
17.8168
10.247
2.43014
-5.15416
-12.0377
-18.1932
-23.6684
-28.4052
-32.5103
-36.1245
-39.318
-42.1838
-44.7931
-47.1972
-49.4394
-51.5579
-53.5766
-55.5151
-57.3779
-59.1521
-60.7737
-62.1834
-63.3827
-64.3767
-65.1725
-65.7756
-66.1927
-66.4307
-66.4958
-66.3904
-66.1111
-65.6371
-64.9004
-63.7667
-61.695
-57.9329
47.5911
53.802
60.117
67.0736
73.2453
79.2547
85.0175
90.1859
94.9049
99.1418
102.868
106.15
108.989
111.403
113.408
115.001
116.182
116.933
117.251
117.111
116.514
115.445
113.946
112.073
109.959
107.765
105.547
103.27
100.909
98.4263
95.7986
93.003
90.0095
86.7746
83.2276
79.2494
74.5676
68.8632
60.6741
50.2827
41.3492
34.8298
26.7599
18.5945
10.1667
1.47098
-6.95083
-14.566
-21.3536
-27.3751
-32.5672
-37.0537
-40.9982
-44.4819
-47.6098
-50.4633
-53.0986
-55.5639
-57.8997
-60.1312
-62.2786
-64.3458
-66.3195
-68.131
-69.7147
-71.0683
-72.196
-73.1049
-73.7994
-74.2869
-74.574
-74.6675
-74.57
-74.2767
-73.7653
-72.961
-71.7153
-69.4745
-65.4332
47.5911
53.802
60.117
67.0736
73.2453
79.2547
85.0175
90.1859
94.9049
99.1418
102.868
106.15
108.989
111.403
113.408
115.001
116.182
116.933
117.251
117.111
116.514
115.445
113.946
112.073
109.959
107.765
105.547
103.27
100.909
98.4263
95.7986
93.003
90.0095
86.7746
83.2276
79.2494
74.5676
68.8632
60.6741
50.2827
41.3492
34.8298
26.7599
18.5945
10.1667
1.47098
-6.95083
-14.566
-21.3536
-27.3751
-32.5672
-37.0537
-40.9982
-44.4819
-47.6098
-50.4633
-53.0986
-55.5639
-57.8997
-60.1312
-62.2786
-64.3458
-66.3195
-68.131
-69.7147
-71.0683
-72.196
-73.1049
-73.7994
-74.2869
-74.574
-74.6675
-74.57
-74.2767
-73.7653
-72.961
-71.7153
-69.4745
-65.4332
51.4376
58.3536
65.3813
73.1534
80.0305
86.7289
93.1621
98.9297
104.2
108.938
113.113
116.799
120.002
122.741
125.036
126.883
128.284
129.22
129.688
129.661
129.14
128.113
126.619
124.716
122.535
120.235
117.868
115.411
112.842
110.133
107.26
104.202
100.927
97.3922
93.5231
89.1972
84.1337
77.9828
69.3378
58.2519
44.4966
37.2662
28.2925
19.2394
9.90858
0.288678
-9.01011
-17.3911
-24.8368
-31.425
-37.0859
-41.9621
-46.2415
-50.0168
-53.4062
-56.5024
-59.3674
-62.0544
-64.607
-67.0521
-69.4103
-71.6856
-73.8629
-75.8702
-77.6342
-79.1489
-80.4172
-81.4454
-82.2377
-82.8012
-83.1425
-83.2685
-83.1815
-82.8761
-82.3272
-81.4549
-80.0957
-77.6865
-73.3796
51.4376
58.3536
65.3813
73.1534
80.0305
86.7289
93.1621
98.9297
104.2
108.938
113.113
116.799
120.002
122.741
125.036
126.883
128.284
129.22
129.688
129.661
129.14
128.113
126.619
124.716
122.535
120.235
117.868
115.411
112.842
110.133
107.26
104.202
100.927
97.3922
93.5231
89.1972
84.1337
77.9828
69.3378
58.2519
44.4966
37.2662
28.2925
19.2394
9.90858
0.288678
-9.01011
-17.3911
-24.8368
-31.425
-37.0859
-41.9621
-46.2415
-50.0168
-53.4062
-56.5024
-59.3674
-62.0544
-64.607
-67.0521
-69.4103
-71.6856
-73.8629
-75.8702
-77.6342
-79.1489
-80.4172
-81.4454
-82.2377
-82.8012
-83.1425
-83.2685
-83.1815
-82.8761
-82.3272
-81.4549
-80.0957
-77.6865
-73.3796
55.319
62.979
70.7587
79.3926
87.0128
94.4359
101.575
107.973
113.821
119.085
123.728
127.838
131.421
134.5
137.098
139.211
140.845
141.978
142.607
142.706
142.274
141.298
139.82
137.896
135.657
133.258
130.752
128.119
125.348
122.412
119.292
115.966
112.404
108.559
104.357
99.6701
94.2136
87.6122
78.4963
66.7207
47.6432
39.6611
29.7358
19.7475
9.46726
-1.12364
-11.3448
-20.5275
-28.6608
-35.8379
-41.9835
-47.2589
-51.879
-55.9483
-59.5992
-62.9371
-66.0303
-68.9372
-71.7056
-74.3646
-76.9348
-79.4204
-81.8057
-84.0139
-85.9641
-87.6464
-89.062
-90.2163
-91.1128
-91.7579
-92.1582
-92.3205
-92.2472
-91.9316
-91.3459
-90.4051
-88.9314
-86.3563
-81.7969
55.319
62.979
70.7587
79.3926
87.0128
94.4359
101.575
107.973
113.821
119.085
123.728
127.838
131.421
134.5
137.098
139.211
140.845
141.978
142.607
142.706
142.274
141.298
139.82
137.896
135.657
133.258
130.752
128.119
125.348
122.412
119.292
115.966
112.404
108.559
104.357
99.6701
94.2136
87.6122
78.4963
66.7207
47.6432
39.6611
29.7358
19.7475
9.46726
-1.12364
-11.3448
-20.5275
-28.6608
-35.8379
-41.9835
-47.2589
-51.879
-55.9483
-59.5992
-62.9371
-66.0303
-68.9372
-71.7056
-74.3646
-76.9348
-79.4204
-81.8057
-84.0139
-85.9641
-87.6464
-89.062
-90.2163
-91.1128
-91.7579
-92.1582
-92.3205
-92.2472
-91.9316
-91.3459
-90.4051
-88.9314
-86.3563
-81.7969
59.2415
67.6878
76.26
85.8038
94.2065
102.393
110.277
117.336
123.791
129.609
134.742
139.294
143.273
146.704
149.62
152.013
153.892
155.234
156.036
156.27
155.937
155.023
153.569
151.633
149.344
146.857
144.22
141.418
138.448
135.288
131.919
128.321
124.465
120.303
115.758
110.697
104.833
97.7717
88.177
75.729
50.7908
42.0192
31.0892
20.1159
8.83635
-2.77698
-13.9664
-23.9905
-32.8422
-40.6334
-47.2811
-52.9679
-57.936
-62.3028
-66.2163
-69.7952
-73.1148
-76.2402
-79.2231
-82.0952
-84.878
-87.5761
-90.1727
-92.5864
-94.7289
-96.5848
-98.1541
-99.4407
-100.448
-101.18
-101.644
-101.848
-101.791
-101.467
-100.846
-99.8364
-98.2479
-95.5088
-90.7108
59.2415
67.6878
76.26
85.8038
94.2065
102.393
110.277
117.336
123.791
129.609
134.742
139.294
143.273
146.704
149.62
152.013
153.892
155.234
156.036
156.27
155.937
155.023
153.569
151.633
149.344
146.857
144.22
141.418
138.448
135.288
131.919
128.321
124.465
120.303
115.758
110.697
104.833
97.7717
88.177
75.729
50.7908
42.0192
31.0892
20.1159
8.83635
-2.77698
-13.9664
-23.9905
-32.8422
-40.6334
-47.2811
-52.9679
-57.936
-62.3028
-66.2163
-69.7952
-73.1148
-76.2402
-79.2231
-82.0952
-84.878
-87.5761
-90.1727
-92.5864
-94.7289
-96.5848
-98.1541
-99.4407
-100.448
-101.18
-101.644
-101.848
-101.791
-101.467
-100.846
-99.8364
-98.2479
-95.5088
-90.7108
63.2123
72.4881
81.8956
92.3997
101.626
110.619
119.286
127.041
134.134
140.531
146.176
151.19
155.585
159.386
162.632
165.317
167.452
169.015
170
170.381
170.157
169.314
167.894
165.953
163.623
161.055
158.296
155.334
152.169
148.786
145.168
141.295
137.139
132.653
127.754
122.308
116.021
108.488
98.4056
85.3057
53.9435
44.3395
32.3505
20.3395
8.00769
-4.68193
-16.8897
-27.7969
-37.4009
-45.833
-53.0026
-59.1139
-64.4384
-69.1077
-73.2856
-77.1054
-80.6502
-83.9922
-87.1881
-90.2723
-93.2676
-96.1794
-98.9902
-101.614
-103.954
-105.989
-107.718
-109.143
-110.267
-111.092
-111.626
-111.874
-111.838
-111.509
-110.853
-109.775
-108.072
-105.172
-100.149
63.2123
72.4881
81.8956
92.3997
101.626
110.619
119.286
127.041
134.134
140.531
146.176
151.19
155.585
159.386
162.632
165.317
167.452
169.015
170
170.381
170.157
169.314
167.894
165.953
163.623
161.055
158.296
155.334
152.169
148.786
145.168
141.295
137.139
132.653
127.754
122.308
116.021
108.488
98.4056
85.3057
53.9435
44.3395
32.3505
20.3395
8.00769
-4.68193
-16.8897
-27.7969
-37.4009
-45.833
-53.0026
-59.1139
-64.4384
-69.1077
-73.2856
-77.1054
-80.6502
-83.9922
-87.1881
-90.2723
-93.2676
-96.1794
-98.9902
-101.614
-103.954
-105.989
-107.718
-109.143
-110.267
-111.092
-111.626
-111.874
-111.838
-111.509
-110.853
-109.775
-108.072
-105.172
-100.149
67.2357
77.3854
87.6748
99.1929
109.288
119.13
128.622
137.109
144.872
151.877
158.059
163.558
168.384
172.571
176.161
179.152
181.554
183.349
184.529
185.066
184.961
184.197
182.818
180.882
178.519
175.879
173.006
169.89
166.537
162.933
159.065
154.915
150.455
145.636
140.376
134.533
127.812
119.791
109.211
95.4772
57.1042
46.6234
33.5181
20.4127
6.97301
-6.84915
-20.1295
-31.9635
-42.3567
-51.4586
-59.1712
-65.7219
-71.4131
-76.3907
-80.8358
-84.8975
-88.6667
-92.2239
-95.6309
-98.9258
-102.133
-105.259
-108.287
-111.124
-113.666
-115.886
-117.78
-119.35
-120.596
-121.521
-122.129
-122.427
-122.415
-122.082
-121.394
-120.248
-118.431
-115.373
-110.14
67.2357
77.3854
87.6748
99.1929
109.288
119.13
128.622
137.109
144.872
151.877
158.059
163.558
168.384
172.571
176.161
179.152
181.554
183.349
184.529
185.066
184.961
184.197
182.818
180.882
178.519
175.879
173.006
169.89
166.537
162.933
159.065
154.915
150.455
145.636
140.376
134.533
127.812
119.791
109.211
95.4772
57.1042
46.6234
33.5181
20.4127
6.97301
-6.84915
-20.1295
-31.9635
-42.3567
-51.4586
-59.1712
-65.7219
-71.4131
-76.3907
-80.8358
-84.8975
-88.6667
-92.2239
-95.6309
-98.9258
-102.133
-105.259
-108.287
-111.124
-113.666
-115.886
-117.78
-119.35
-120.596
-121.521
-122.129
-122.427
-122.415
-122.082
-121.394
-120.248
-118.431
-115.373
-110.14
71.3181
82.3898
93.6098
106.196
117.209
127.943
138.306
147.563
156.031
163.674
170.419
176.423
181.701
186.289
190.239
193.548
196.23
198.267
199.651
200.355
200.377
199.701
198.372
196.447
194.059
191.355
188.377
185.115
181.578
177.757
173.64
169.212
164.442
159.284
153.653
147.403
140.236
131.715
120.625
106.272
60.2769
48.8718
34.5884
20.3303
5.72286
-9.29219
-23.7001
-36.5095
-47.7301
-57.5337
-65.8127
-72.8193
-78.8886
-84.1816
-88.8978
-93.2024
-97.196
-100.967
-104.583
-108.087
-111.506
-114.847
-118.092
-121.147
-123.895
-126.304
-128.369
-130.09
-131.464
-132.493
-133.181
-133.534
-133.549
-133.217
-132.497
-131.284
-129.355
-126.144
-120.715
71.3181
82.3898
93.6098
106.196
117.209
127.943
138.306
147.563
156.031
163.674
170.419
176.423
181.701
186.289
190.239
193.548
196.23
198.267
199.651
200.355
200.377
199.701
198.372
196.447
194.059
191.355
188.377
185.115
181.578
177.757
173.64
169.212
164.442
159.284
153.653
147.403
140.236
131.715
120.625
106.272
60.2769
48.8718
34.5884
20.3303
5.72286
-9.29219
-23.7001
-36.5095
-47.7301
-57.5337
-65.8127
-72.8193
-78.8886
-84.1816
-88.8978
-93.2024
-97.196
-100.967
-104.583
-108.087
-111.506
-114.847
-118.092
-121.147
-123.895
-126.304
-128.369
-130.09
-131.464
-132.493
-133.181
-133.534
-133.549
-133.217
-132.497
-131.284
-129.355
-126.144
-120.715
75.464
87.5083
99.7086
113.424
125.401
137.079
148.357
158.426
167.633
175.946
183.282
189.816
195.566
200.574
204.897
208.538
211.511
213.801
215.399
216.278
216.436
215.857
214.584
212.677
210.271
207.512
204.437
201.037
197.322
193.287
188.923
184.214
179.132
173.629
167.618
160.951
153.326
144.295
132.682
117.724
63.4638
51.0842
35.5583
20.0861
4.24802
-12.0238
-27.6194
-41.4538
-53.5434
-64.0818
-72.9527
-80.4335
-86.8936
-92.5105
-97.5026
-102.052
-106.271
-110.254
-114.078
-117.79
-121.419
-124.974
-128.439
-131.714
-134.671
-137.275
-139.516
-141.392
-142.899
-144.039
-144.812
-145.224
-145.271
-144.941
-144.193
-142.915
-140.875
-137.516
-131.904
75.464
87.5083
99.7086
113.424
125.401
137.079
148.357
158.426
167.633
175.946
183.282
189.816
195.566
200.574
204.897
208.538
211.511
213.801
215.399
216.278
216.436
215.857
214.584
212.677
210.271
207.512
204.437
201.037
197.322
193.287
188.923
184.214
179.132
173.629
167.618
160.951
153.326
144.295
132.682
117.724
63.4638
51.0842
35.5583
20.0861
4.24802
-12.0238
-27.6194
-41.4538
-53.5434
-64.0818
-72.9527
-80.4335
-86.8936
-92.5105
-97.5026
-102.052
-106.271
-110.254
-114.078
-117.79
-121.419
-124.974
-128.439
-131.714
-134.671
-137.275
-139.516
-141.392
-142.899
-144.039
-144.812
-145.224
-145.271
-144.941
-144.193
-142.915
-140.875
-137.516
-131.904
79.6792
92.7485
105.983
120.888
133.884
146.554
158.799
169.719
179.706
188.723
196.679
203.766
210.011
215.456
220.169
224.156
227.433
229.985
231.806
232.87
233.171
232.695
231.486
229.604
227.188
224.38
221.216
217.684
213.798
209.554
204.944
199.954
194.557
188.703
182.306
175.213
167.12
157.567
145.419
129.867
66.667
53.2602
36.4239
19.6717
2.53761
-15.0582
-31.9045
-46.8176
-59.8202
-71.1298
-80.6198
-88.5938
-95.4593
-101.409
-106.683
-111.481
-115.925
-120.121
-124.151
-128.069
-131.907
-135.676
-139.362
-142.859
-146.029
-148.83
-151.251
-153.287
-154.934
-156.188
-157.053
-157.528
-157.611
-157.288
-156.513
-155.173
-153.026
-149.522
-143.742
79.6792
92.7485
105.983
120.888
133.884
146.554
158.799
169.719
179.706
188.723
196.679
203.766
210.011
215.456
220.169
224.156
227.433
229.985
231.806
232.87
233.171
232.695
231.486
229.604
227.188
224.38
221.216
217.684
213.798
209.554
204.944
199.954
194.557
188.703
182.306
175.213
167.12
157.567
145.419
129.867
66.667
53.2602
36.4239
19.6717
2.53761
-15.0582
-31.9045
-46.8176
-59.8202
-71.1298
-80.6198
-88.5938
-95.4593
-101.409
-106.683
-111.481
-115.925
-120.121
-124.151
-128.069
-131.907
-135.676
-139.362
-142.859
-146.029
-148.83
-151.251
-153.287
-154.934
-156.188
-157.053
-157.528
-157.611
-157.288
-156.513
-155.173
-153.026
-149.522
-143.742
83.9669
98.1184
112.443
128.605
142.674
156.39
169.651
181.47
192.275
202.032
210.636
218.305
225.066
230.968
236.09
240.435
244.028
246.855
248.909
250.165
250.617
250.251
249.111
247.262
244.839
241.991
238.746
235.088
231.038
226.589
221.736
216.465
210.75
204.542
197.751
190.222
181.652
171.568
158.875
142.738
69.8889
55.3994
37.1816
19.0797
0.579468
-18.4114
-36.5755
-52.6235
-66.5856
-78.7041
-88.8426
-97.3317
-104.618
-110.911
-116.473
-121.524
-126.194
-130.602
-134.838
-138.961
-143.006
-146.988
-150.896
-154.616
-158.002
-161.004
-163.609
-165.811
-167.601
-168.976
-169.936
-170.48
-170.603
-170.29
-169.492
-168.091
-165.84
-162.199
-156.262
83.9669
98.1184
112.443
128.605
142.674
156.39
169.651
181.47
192.275
202.032
210.636
218.305
225.066
230.968
236.09
240.435
244.028
246.855
248.909
250.165
250.617
250.251
249.111
247.262
244.839
241.991
238.746
235.088
231.038
226.589
221.736
216.465
210.75
204.542
197.751
190.222
181.652
171.568
158.875
142.738
69.8889
55.3994
37.1816
19.0797
0.579468
-18.4114
-36.5755
-52.6235
-66.5856
-78.7041
-88.8426
-97.3317
-104.618
-110.911
-116.473
-121.524
-126.194
-130.602
-134.838
-138.961
-143.006
-146.988
-150.896
-154.616
-158.002
-161.004
-163.609
-165.811
-167.601
-168.976
-169.936
-170.48
-170.603
-170.29
-169.492
-168.091
-165.84
-162.199
-156.262
88.3343
103.626
119.101
136.587
151.787
166.605
180.939
193.703
205.37
215.904
225.191
233.468
240.768
247.149
252.693
257.415
261.336
264.448
266.745
268.2
268.81
268.561
267.496
265.684
263.262
260.378
257.059
253.284
249.077
244.428
239.333
233.782
227.749
221.182
213.99
206.019
196.961
186.338
173.091
156.378
73.1317
57.5013
37.8265
18.3022
-1.63869
-22.0998
-41.6514
-58.8942
-73.8655
-86.8342
-97.6514
-106.679
-114.402
-121.051
-126.91
-132.217
-137.116
-141.737
-146.178
-150.504
-154.755
-158.95
-163.079
-167.026
-170.63
-173.835
-176.628
-178.998
-180.936
-182.437
-183.497
-184.114
-184.283
-183.983
-183.164
-181.707
-179.356
-175.582
-169.504
88.3343
103.626
119.101
136.587
151.787
166.605
180.939
193.703
205.37
215.904
225.191
233.468
240.768
247.149
252.693
257.415
261.336
264.448
266.745
268.2
268.81
268.561
267.496
265.684
263.262
260.378
257.059
253.284
249.077
244.428
239.333
233.782
227.749
221.182
213.99
206.019
196.961
186.338
173.091
156.378
73.1317
57.5013
37.8265
18.3022
-1.63869
-22.0998
-41.6514
-58.8942
-73.8655
-86.8342
-97.6514
-106.679
-114.402
-121.051
-126.91
-132.217
-137.116