/*--------------------------------*- C++ -*----------------------------------*\
| =========                 |                                                 |
| \\      /  F ield         | OpenFOAM: The Open Source CFD Toolbox           |
|  \\    /   O peration     | Version:  2506                                  |
|   \\  /    A nd           | Website:  www.openfoam.com                      |
|    \\/     M anipulation  |                                                 |
\*---------------------------------------------------------------------------*/
FoamFile
{
    version     2.0;
    format      ascii;
    arch        "LSB;label=32;scalar=64";
    class       volScalarField;
    location    "500";
    object      turbulenceProperties:nut;
}
// * * * * * * * * * * * * * * * * * * * * * * * * * * * * * * * * * * * * * //

dimensions      [0 2 -1 0 0 0 0];

internalField   nonuniform List<scalar> 
10720
(
2.5808e-05
2.95347e-05
3.45224e-05
4.09851e-05
4.93088e-05
6.00253e-05
7.38546e-05
9.11588e-05
0.000112975
0.000140349
0.000175234
0.000220745
0.000281313
0.000364892
0.000485068
0.000663862
0.000945884
0.00139527
0.00221738
0.00358933
0.00690158
0.0127123
0.0339144
0.0760475
0.0937333
0.0946591
0.0957039
0.0992413
0.102758
0.104491
0.104463
0.103211
0.100843
0.0974125
0.0927939
0.0869128
0.0784498
0.0683191
0.0332562
2.25824e-05
1.98038e-05
1.70736e-05
1.45837e-05
1.22497e-05
1.01071e-05
8.24452e-06
6.96117e-06
8.09648e-06
1.07909e-05
1.54813e-05
2.3227e-05
3.5576e-05
5.44541e-05
8.13874e-05
0.000117945
0.000167178
0.000236276
0.000339384
0.000501811
0.000773254
0.00124196
0.00211757
0.0037699
0.00732809
0.0147229
0.0324777
0.0663217
0.0934696
0.105025
0.108433
0.109375
0.109471
0.108975
0.107974
0.106577
0.104431
0.101996
0.0924618
5.08548e-06
4.98033e-06
4.88546e-06
4.80683e-06
4.71662e-06
4.6338e-06
4.57245e-06
4.51875e-06
4.49564e-06
4.51593e-06
4.54347e-06
4.81844e-06
5.87877e-06
8.65242e-06
1.64112e-05
3.68063e-05
8.38863e-05
0.000162764
0.00031505
0.000587833
0.00132107
0.00282975
0.00711221
0.0204722
0.0394353
0.0632005
0.09248
0.123672
0.148728
0.162685
0.16797
0.168786
0.167199
0.163849
0.159339
0.153838
0.148527
0.139507
0.139917
5.16908e-06
5.28233e-06
5.37884e-06
5.50984e-06
5.64412e-06
5.78001e-06
5.91115e-06
6.02175e-06
5.95913e-06
5.8177e-06
5.6246e-06
5.3903e-06
5.12406e-06
4.82943e-06
4.4957e-06
4.11974e-06
3.67667e-06
3.16244e-06
2.54828e-06
1.84351e-06
1.07404e-06
4.20529e-07
5.41004e-08
1.46912e-09
9.30733e-09
9.37209e-05
0.000539958
0.00415678
0.0141156
0.0287197
0.0437273
0.0550627
0.0618255
0.0656073
0.0680051
0.0699954
0.0717271
0.0752991
0.0784605
6.26616e-06
6.28349e-06
6.30147e-06
6.3208e-06
6.34449e-06
6.371e-06
6.40132e-06
6.43677e-06
6.47862e-06
6.52762e-06
6.58583e-06
6.65756e-06
6.73633e-06
6.87999e-06
6.89331e-06
6.4657e-06
4.74428e-06
3.50498e-06
1.27672e-09
8.30187e-06
6.3576e-07
1.93153e-05
1.29635e-06
0.000557814
0.00298288
0.00754871
0.0156843
0.0310417
0.0573706
0.0937917
0.1328
0.164497
0.184905
0.196744
0.20344
0.206324
0.207572
0.20148
0.210275
6.25289e-06
6.23387e-06
6.21932e-06
6.19774e-06
6.1792e-06
6.15928e-06
6.14154e-06
6.12751e-06
6.13229e-06
6.14725e-06
6.16688e-06
6.19086e-06
6.2202e-06
6.25305e-06
6.29008e-06
6.331e-06
6.37749e-06
6.43078e-06
6.49448e-06
6.57193e-06
6.67138e-06
6.79893e-06
6.98021e-06
7.17351e-06
7.43588e-06
7.15665e-06
7.24722e-06
2.48424e-06
8.36893e-05
0.000790356
0.00301747
0.00754201
0.0142528
0.0224359
0.0311566
0.0395993
0.0470022
0.0536733
0.0631655
6.08613e-06
6.08373e-06
6.08313e-06
6.0835e-06
6.08442e-06
6.08709e-06
6.09198e-06
6.09872e-06
6.10877e-06
6.12237e-06
6.14033e-06
6.16385e-06
6.19438e-06
6.23335e-06
6.28499e-06
6.33899e-06
6.21994e-06
5.89571e-06
4.10588e-06
2.02223e-06
8.29785e-08
1.83914e-07
2.24386e-09
9.27654e-05
0.000623617
1.80808e-06
0.000219987
0.000842771
0.00415734
0.0136719
0.0356798
0.0727803
0.118812
0.161313
0.193208
0.215349
0.231941
0.239141
0.255238
6.0868e-06
6.08915e-06
6.09227e-06
6.09446e-06
6.09826e-06
6.1003e-06
6.10162e-06
6.10255e-06
6.1004e-06
6.09771e-06
6.09422e-06
6.09049e-06
6.08702e-06
6.0836e-06
6.08027e-06
6.07679e-06
6.07312e-06
6.06912e-06
6.06406e-06
6.05898e-06
6.05362e-06
6.04789e-06
6.04108e-06
6.03481e-06
6.02803e-06
6.03037e-06
6.0231e-06
6.08258e-06
5.99879e-06
5.95318e-06
5.2068e-06
4.15981e-06
0.000226342
0.00104503
0.0030415
0.00688481
0.0131282
0.0218469
0.0392296
6.11119e-06
6.11175e-06
6.11202e-06
6.11291e-06
6.11446e-06
6.11643e-06
6.1191e-06
6.12268e-06
6.12738e-06
6.13356e-06
6.14164e-06
6.15222e-06
6.16611e-06
6.18387e-06
6.20823e-06
6.23626e-06
6.2796e-06
6.2922e-06
6.35862e-06
5.95507e-06
5.00756e-06
1.14863e-06
1.46256e-08
4.56126e-10
0
3.7978e-09
1.17557e-05
0.000173166
0.000933938
0.000548289
0.00167413
0.00804139
0.0295863
0.0706932
0.124102
0.175043
0.21717
0.248034
0.278262
6.11124e-06
6.10986e-06
6.11056e-06
6.10951e-06
6.11039e-06
6.10918e-06
6.10707e-06
6.10518e-06
6.10411e-06
6.10386e-06
6.10385e-06
6.10376e-06
6.10411e-06
6.10464e-06
6.10561e-06
6.10684e-06
6.10839e-06
6.11023e-06
6.11242e-06
6.1149e-06
6.11766e-06
6.1207e-06
6.12414e-06
6.12794e-06
6.13287e-06
6.13716e-06
6.15041e-06
6.13005e-06
6.27273e-06
5.69507e-06
8.70916e-06
5.81438e-07
2.55891e-05
0.000245351
0.000728291
0.00071639
0.00123967
0.00164112
0.0137123
6.10507e-06
6.10485e-06
6.10514e-06
6.1054e-06
6.1055e-06
6.1059e-06
6.1065e-06
6.10727e-06
6.10849e-06
6.11018e-06
6.1125e-06
6.11572e-06
6.12008e-06
6.12597e-06
6.13417e-06
6.14496e-06
6.15965e-06
6.17557e-06
6.20522e-06
6.30339e-06
6.77965e-06
6.13255e-06
4.571e-06
3.17427e-07
9.33798e-09
1.98622e-09
8.72433e-11
0
0
0.00010165
0.000373155
0.0018356
0.000389802
0.00873892
0.0380627
0.0932775
0.160391
0.223976
0.27831
6.1046e-06
6.10391e-06
6.10482e-06
6.1046e-06
6.1063e-06
6.10603e-06
6.10467e-06
6.10346e-06
6.10248e-06
6.10188e-06
6.10144e-06
6.10096e-06
6.10071e-06
6.10055e-06
6.10054e-06
6.10057e-06
6.10069e-06
6.10089e-06
6.10114e-06
6.10139e-06
6.10162e-06
6.10175e-06
6.10182e-06
6.10147e-06
6.1014e-06
6.10172e-06
6.10212e-06
6.10391e-06
6.10346e-06
6.11252e-06
6.09536e-06
6.19884e-06
5.60355e-06
4.20352e-06
2.89146e-09
0.00016015
0.000289833
0.00042936
0.00237817
6.10531e-06
6.10553e-06
6.10569e-06
6.10573e-06
6.10586e-06
6.10595e-06
6.10612e-06
6.10646e-06
6.10694e-06
6.10765e-06
6.10869e-06
6.11015e-06
6.11221e-06
6.11509e-06
6.11904e-06
6.12464e-06
6.132e-06
6.14038e-06
6.14898e-06
6.14546e-06
6.23402e-06
6.50261e-06
6.9977e-06
5.98274e-06
3.37608e-06
1.21385e-06
5.21994e-08
7.97005e-09
2.95737e-09
2.31879e-11
0
0
5.95934e-05
0.00205362
0.00167146
0.0217345
0.0782294
0.166186
0.252302
6.10484e-06
6.10378e-06
6.10417e-06
6.10385e-06
6.10551e-06
6.10544e-06
6.10425e-06
6.10309e-06
6.10219e-06
6.10169e-06
6.10132e-06
6.10113e-06
6.101e-06
6.10106e-06
6.10101e-06
6.10105e-06
6.10122e-06
6.10145e-06
6.10179e-06
6.1022e-06
6.10271e-06
6.10328e-06
6.10396e-06
6.10476e-06
6.10574e-06
6.10703e-06
6.1087e-06
6.11079e-06
6.11343e-06
6.11679e-06
6.12092e-06
6.12578e-06
6.14969e-06
5.52407e-06
3.40509e-06
5.8495e-08
1.17029e-08
1.49407e-11
5.66023e-05
6.10488e-06
6.10502e-06
6.10531e-06
6.10529e-06
6.1051e-06
6.10498e-06
6.10482e-06
6.10466e-06
6.10461e-06
6.10462e-06
6.10471e-06
6.10494e-06
6.10531e-06
6.1059e-06
6.10679e-06
6.10817e-06
6.11016e-06
6.11257e-06
6.11587e-06
6.11524e-06
6.10772e-06
6.15346e-06
6.32727e-06
6.75956e-06
6.83293e-06
6.31864e-06
5.01759e-06
3.16815e-06
1.54114e-06
1.21062e-08
7.09526e-09
1.37763e-11
0
0
0.000384328
0.00542025
0.0161564
0.0903861
0.20005
6.10429e-06
6.10315e-06
6.10315e-06
6.10273e-06
6.10435e-06
6.10449e-06
6.10359e-06
6.10255e-06
6.10175e-06
6.10128e-06
6.10097e-06
6.10081e-06
6.10074e-06
6.10083e-06
6.10091e-06
6.10103e-06
6.10109e-06
6.1011e-06
6.10119e-06
6.10128e-06
6.10141e-06
6.10155e-06
6.10172e-06
6.10187e-06
6.102e-06
6.10217e-06
6.1024e-06
6.10265e-06
6.10292e-06
6.10302e-06
6.10349e-06
6.10079e-06
6.11175e-06
6.07738e-06
6.31426e-06
6.02169e-06
3.6685e-06
1.83089e-08
5.09546e-07
6.10482e-06
6.10495e-06
6.10509e-06
6.1049e-06
6.10472e-06
6.10444e-06
6.10421e-06
6.10409e-06
6.10396e-06
6.10391e-06
6.10393e-06
6.10403e-06
6.10426e-06
6.10466e-06
6.10528e-06
6.10623e-06
6.10766e-06
6.10952e-06
6.11146e-06
6.11365e-06
6.11213e-06
6.1073e-06
6.11243e-06
6.21154e-06
6.41131e-06
6.64541e-06
6.92476e-06
6.91257e-06
6.75143e-06
4.83672e-06
2.80644e-06
6.70531e-09
3.08398e-09
0
0
0
0.00441089
0.0302864
0.133003
6.10424e-06
6.10298e-06
6.10263e-06
6.10205e-06
6.10358e-06
6.10384e-06
6.10314e-06
6.10218e-06
6.10149e-06
6.10105e-06
6.1008e-06
6.10067e-06
6.10061e-06
6.10069e-06
6.10078e-06
6.10093e-06
6.10106e-06
6.1012e-06
6.10129e-06
6.10129e-06
6.10137e-06
6.10148e-06
6.10164e-06
6.10183e-06
6.10205e-06
6.10239e-06
6.10289e-06
6.10356e-06
6.10441e-06
6.10548e-06
6.10684e-06
6.10836e-06
6.11075e-06
6.10697e-06
6.12486e-06
6.18213e-06
6.67837e-06
4.55998e-06
2.6049e-09
6.10473e-06
6.10474e-06
6.10475e-06
6.10447e-06
6.10417e-06
6.10388e-06
6.10358e-06
6.10335e-06
6.10314e-06
6.10296e-06
6.1028e-06
6.10269e-06
6.10261e-06
6.10255e-06
6.10253e-06
6.10252e-06
6.1026e-06
6.10268e-06
6.10285e-06
6.10369e-06
6.10479e-06
6.10429e-06
6.10164e-06
6.10177e-06
6.12522e-06
6.17924e-06
6.29348e-06
6.49337e-06
6.81156e-06
7.18208e-06
7.46436e-06
5.14271e-06
1.20038e-06
1.08682e-08
0
0
2.9161e-05
0.00303872
0.0730349
6.10423e-06
6.10295e-06
6.10231e-06
6.10153e-06
6.10293e-06
6.10328e-06
6.10272e-06
6.10185e-06
6.10125e-06
6.10086e-06
6.10071e-06
6.10054e-06
6.10046e-06
6.10051e-06
6.10058e-06
6.10074e-06
6.10091e-06
6.10109e-06
6.10124e-06
6.10139e-06
6.1015e-06
6.10158e-06
6.10157e-06
6.10159e-06
6.10163e-06
6.10173e-06
6.10192e-06
6.10219e-06
6.10252e-06
6.10295e-06
6.10337e-06
6.10409e-06
6.10368e-06
6.10872e-06
6.08877e-06
6.18609e-06
5.83419e-06
8.77822e-06
5.65336e-07
6.10461e-06
6.10447e-06
6.10434e-06
6.104e-06
6.10365e-06
6.10332e-06
6.10302e-06
6.10282e-06
6.10264e-06
6.1025e-06
6.1024e-06
6.10234e-06
6.10232e-06
6.10236e-06
6.10246e-06
6.10267e-06
6.10299e-06
6.1035e-06
6.10406e-06
6.10462e-06
6.10528e-06
6.10561e-06
6.10557e-06
6.10466e-06
6.10266e-06
6.09955e-06
6.09812e-06
6.12011e-06
6.18969e-06
6.41475e-06
6.81992e-06
7.59871e-06
7.17842e-06
3.03128e-06
1.58442e-08
0
0
0.00140744
0.0333362
6.10424e-06
6.103e-06
6.10214e-06
6.10119e-06
6.10245e-06
6.10283e-06
6.10236e-06
6.10156e-06
6.10105e-06
6.10072e-06
6.10056e-06
6.1004e-06
6.1003e-06
6.10031e-06
6.10037e-06
6.10051e-06
6.10067e-06
6.10087e-06
6.10105e-06
6.10123e-06
6.10138e-06
6.10153e-06
6.10164e-06
6.10173e-06
6.10178e-06
6.10185e-06
6.10199e-06
6.10223e-06
6.10255e-06
6.10299e-06
6.1035e-06
6.10436e-06
6.10434e-06
6.10884e-06
6.09344e-06
6.16479e-06
5.85896e-06
7.1571e-06
4.36002e-06
6.10443e-06
6.10414e-06
6.10391e-06
6.10353e-06
6.10315e-06
6.10282e-06
6.10253e-06
6.10233e-06
6.10214e-06
6.10201e-06
6.1019e-06
6.10182e-06
6.10175e-06
6.10173e-06
6.10172e-06
6.10176e-06
6.10184e-06
6.10197e-06
6.10219e-06
6.10258e-06
6.10323e-06
6.10402e-06
6.10468e-06
6.10561e-06
6.10684e-06
6.10712e-06
6.10205e-06
6.09086e-06
6.07461e-06
6.08787e-06
6.14722e-06
6.48215e-06
7.19911e-06
7.78999e-06
4.01714e-06
1.0578e-08
0
0.000281436
0.013048
6.10423e-06
6.10306e-06
6.10205e-06
6.10095e-06
6.10207e-06
6.10244e-06
6.10204e-06
6.10131e-06
6.10085e-06
6.10055e-06
6.10041e-06
6.10027e-06
6.10014e-06
6.10012e-06
6.10013e-06
6.10024e-06
6.10039e-06
6.10057e-06
6.10077e-06
6.10098e-06
6.10119e-06
6.1014e-06
6.10158e-06
6.10174e-06
6.10189e-06
6.10197e-06
6.10201e-06
6.10209e-06
6.10225e-06
6.10248e-06
6.10278e-06
6.10322e-06
6.10347e-06
6.10504e-06
6.10153e-06
6.11903e-06
6.05988e-06
6.20553e-06
6.16167e-06
6.10419e-06
6.10377e-06
6.10346e-06
6.10308e-06
6.1027e-06
6.10237e-06
6.1021e-06
6.10192e-06
6.10176e-06
6.10166e-06
6.1016e-06
6.10155e-06
6.10153e-06
6.10152e-06
6.10154e-06
6.10161e-06
6.10171e-06
6.10189e-06
6.10214e-06
6.10245e-06
6.10285e-06
6.10338e-06
6.10397e-06
6.10464e-06
6.10585e-06
6.10794e-06
6.10978e-06
6.1086e-06
6.10003e-06
6.08406e-06
6.05997e-06
6.06161e-06
6.24243e-06
6.79696e-06
8.53206e-06
2.52513e-06
1.5474e-12
7.32295e-05
0.00434164
6.10416e-06
6.10311e-06
6.10201e-06
6.1008e-06
6.10176e-06
6.10211e-06
6.10175e-06
6.10109e-06
6.10067e-06
6.10039e-06
6.10023e-06
6.10009e-06
6.09995e-06
6.0999e-06
6.0999e-06
6.09998e-06
6.1001e-06
6.10028e-06
6.10049e-06
6.10074e-06
6.10097e-06
6.10122e-06
6.10144e-06
6.10164e-06
6.10184e-06
6.10198e-06
6.10204e-06
6.10208e-06
6.10216e-06
6.10232e-06
6.10255e-06
6.10287e-06
6.1033e-06
6.10368e-06
6.10474e-06
6.10283e-06
6.11701e-06
6.05286e-06
6.25718e-06
6.10389e-06
6.10339e-06
6.10305e-06
6.10267e-06
6.1023e-06
6.10196e-06
6.10172e-06
6.10158e-06
6.10146e-06
6.10141e-06
6.10138e-06
6.10135e-06
6.10135e-06
6.10135e-06
6.10136e-06
6.1014e-06
6.10147e-06
6.10157e-06
6.10172e-06
6.10195e-06
6.10226e-06
6.1027e-06
6.10325e-06
6.10386e-06
6.10462e-06
6.10591e-06
6.10806e-06
6.11062e-06
6.11211e-06
6.10907e-06
6.09888e-06
6.06896e-06
6.04712e-06
6.08037e-06
6.68478e-06
1.04396e-05
1.16892e-08
1.34117e-06
0.00110765
6.10402e-06
6.10312e-06
6.10199e-06
6.10069e-06
6.1015e-06
6.10183e-06
6.1015e-06
6.10089e-06
6.10049e-06
6.10022e-06
6.10005e-06
6.09993e-06
6.09977e-06
6.09969e-06
6.09967e-06
6.09974e-06
6.09985e-06
6.10003e-06
6.10023e-06
6.10047e-06
6.10072e-06
6.10098e-06
6.10124e-06
6.10147e-06
6.1017e-06
6.10189e-06
6.10202e-06
6.10208e-06
6.1021e-06
6.10217e-06
6.10231e-06
6.1025e-06
6.10282e-06
6.10303e-06
6.1041e-06
6.10208e-06
6.11259e-06
6.08138e-06
6.14639e-06
6.10356e-06
6.10303e-06
6.10266e-06
6.10229e-06
6.10193e-06
6.10161e-06
6.10142e-06
6.10132e-06
6.10126e-06
6.10124e-06
6.10125e-06
6.10126e-06
6.10128e-06
6.10131e-06
6.10134e-06
6.10139e-06
6.10145e-06
6.10155e-06
6.10167e-06
6.10186e-06
6.10209e-06
6.10241e-06
6.10282e-06
6.10334e-06
6.10397e-06
6.1048e-06
6.10607e-06
6.10799e-06
6.11061e-06
6.11309e-06
6.11416e-06
6.11069e-06
6.07836e-06
6.10692e-06
5.64291e-06
9.29789e-06
2.35784e-06
3.28366e-10
6.93386e-05
6.10383e-06
6.10309e-06
6.10198e-06
6.10063e-06
6.10129e-06
6.10157e-06
6.10126e-06
6.1007e-06
6.10032e-06
6.10004e-06
6.09987e-06
6.09974e-06
6.09958e-06
6.0995e-06
6.09946e-06
6.09951e-06
6.09961e-06
6.09977e-06
6.09996e-06
6.10019e-06
6.10045e-06
6.10072e-06
6.101e-06
6.10126e-06
6.10152e-06
6.10174e-06
6.10192e-06
6.10204e-06
6.1021e-06
6.10212e-06
6.10219e-06
6.10232e-06
6.10253e-06
6.10275e-06
6.10326e-06
6.10311e-06
6.10556e-06
6.10209e-06
6.10729e-06
6.10324e-06
6.1027e-06
6.10231e-06
6.10194e-06
6.10161e-06
6.10134e-06
6.10119e-06
6.10114e-06
6.10113e-06
6.10117e-06
6.10121e-06
6.10126e-06
6.1013e-06
6.10135e-06
6.10139e-06
6.10144e-06
6.10149e-06
6.10156e-06
6.10166e-06
6.1018e-06
6.10199e-06
6.10224e-06
6.10256e-06
6.10298e-06
6.10353e-06
6.10423e-06
6.10514e-06
6.10638e-06
6.10806e-06
6.11049e-06
6.11259e-06
6.11928e-06
6.10209e-06
6.16575e-06
5.81628e-06
6.43677e-06
9.65774e-06
4.92649e-11
6.68269e-07
6.10361e-06
6.10301e-06
6.10194e-06
6.10058e-06
6.1011e-06
6.10133e-06
6.10104e-06
6.10053e-06
6.10015e-06
6.09986e-06
6.0997e-06
6.09957e-06
6.0994e-06
6.0993e-06
6.09926e-06
6.0993e-06
6.09939e-06
6.09953e-06
6.09972e-06
6.09995e-06
6.1002e-06
6.10048e-06
6.10076e-06
6.10104e-06
6.10133e-06
6.10158e-06
6.10179e-06
6.10196e-06
6.10208e-06
6.10213e-06
6.10215e-06
6.10221e-06
6.10234e-06
6.10251e-06
6.10278e-06
6.10315e-06
6.10337e-06
6.10574e-06
6.10269e-06
6.10292e-06
6.10239e-06
6.10197e-06
6.10162e-06
6.10134e-06
6.10112e-06
6.10104e-06
6.10104e-06
6.10108e-06
6.10115e-06
6.10123e-06
6.10129e-06
6.10135e-06
6.10141e-06
6.10146e-06
6.10151e-06
6.10157e-06
6.10164e-06
6.10172e-06
6.10184e-06
6.10199e-06
6.10219e-06
6.10245e-06
6.10278e-06
6.10324e-06
6.10384e-06
6.10462e-06
6.1056e-06
6.10679e-06
6.10848e-06
6.10993e-06
6.11462e-06
6.11256e-06
6.12465e-06
6.19163e-06
5.26897e-06
1.21121e-05
3.5515e-10
2.15558e-16
6.10336e-06
6.10291e-06
6.10189e-06
6.10054e-06
6.10093e-06
6.10111e-06
6.10084e-06
6.10035e-06
6.09997e-06
6.09969e-06
6.09952e-06
6.09938e-06
6.09921e-06
6.09912e-06
6.09908e-06
6.09911e-06
6.09919e-06
6.09932e-06
6.09949e-06
6.0997e-06
6.09995e-06
6.10023e-06
6.10053e-06
6.10083e-06
6.10112e-06
6.10139e-06
6.10163e-06
6.10183e-06
6.10199e-06
6.10209e-06
6.10214e-06
6.10216e-06
6.10223e-06
6.10234e-06
6.10252e-06
6.10284e-06
6.10296e-06
6.10489e-06
6.10358e-06
6.10263e-06
6.10209e-06
6.10166e-06
6.10135e-06
6.10111e-06
6.10095e-06
6.10094e-06
6.10099e-06
6.10107e-06
6.10117e-06
6.10126e-06
6.10135e-06
6.10143e-06
6.1015e-06
6.10156e-06
6.10162e-06
6.10167e-06
6.10174e-06
6.10181e-06
6.10191e-06
6.10203e-06
6.1022e-06
6.10241e-06
6.10269e-06
6.10306e-06
6.10358e-06
6.10425e-06
6.1051e-06
6.10612e-06
6.10738e-06
6.1089e-06
6.10994e-06
6.11857e-06
6.08337e-06
6.3117e-06
5.30804e-06
9.46423e-06
1.61275e-06
5.31452e-10
6.10309e-06
6.10277e-06
6.10183e-06
6.1005e-06
6.10078e-06
6.10091e-06
6.10064e-06
6.10019e-06
6.09981e-06
6.09952e-06
6.09934e-06
6.0992e-06
6.09905e-06
6.09895e-06
6.09891e-06
6.09893e-06
6.099e-06
6.09912e-06
6.09928e-06
6.09949e-06
6.09972e-06
6.1e-06
6.1003e-06
6.1006e-06
6.10091e-06
6.10119e-06
6.10145e-06
6.10168e-06
6.10187e-06
6.10201e-06
6.10212e-06
6.10216e-06
6.10218e-06
6.10224e-06
6.10236e-06
6.10257e-06
6.10278e-06
6.10404e-06
6.10381e-06
6.10234e-06
6.10182e-06
6.10138e-06
6.10112e-06
6.10094e-06
6.10085e-06
6.10089e-06
6.10098e-06
6.10109e-06
6.10121e-06
6.10132e-06
6.10142e-06
6.10151e-06
6.10159e-06
6.10165e-06
6.10171e-06
6.10177e-06
6.10183e-06
6.1019e-06
6.10198e-06
6.10209e-06
6.10223e-06
6.1024e-06
6.10263e-06
6.10295e-06
6.10338e-06
6.10397e-06
6.10471e-06
6.10562e-06
6.10664e-06
6.10831e-06
6.10787e-06
6.11866e-06
6.08109e-06
6.24433e-06
5.74286e-06
6.92711e-06
6.85032e-06
8.96153e-08
6.10282e-06
6.10261e-06
6.10174e-06
6.10046e-06
6.10063e-06
6.10072e-06
6.10046e-06
6.10002e-06
6.09964e-06
6.09936e-06
6.09918e-06
6.09902e-06
6.09888e-06
6.0988e-06
6.09876e-06
6.09878e-06
6.09884e-06
6.09895e-06
6.0991e-06
6.09929e-06
6.09952e-06
6.09979e-06
6.10008e-06
6.10038e-06
6.10069e-06
6.10098e-06
6.10125e-06
6.1015e-06
6.10172e-06
6.1019e-06
6.10204e-06
6.10214e-06
6.10218e-06
6.1022e-06
6.10227e-06
6.10241e-06
6.1026e-06
6.10358e-06
6.10356e-06
6.10207e-06
6.10157e-06
6.10113e-06
6.10093e-06
6.10081e-06
6.10079e-06
6.10088e-06
6.101e-06
6.10112e-06
6.10125e-06
6.10138e-06
6.10148e-06
6.10158e-06
6.10167e-06
6.10174e-06
6.10181e-06
6.10188e-06
6.10194e-06
6.10201e-06
6.10209e-06
6.10218e-06
6.1023e-06
6.10245e-06
6.10264e-06
6.1029e-06
6.10327e-06
6.10376e-06
6.1044e-06
6.10521e-06
6.10609e-06
6.1076e-06
6.10748e-06
6.11462e-06
6.09728e-06
6.1522e-06
6.07647e-06
5.87544e-06
8.49865e-06
1.6928e-06
6.10254e-06
6.10244e-06
6.10164e-06
6.10041e-06
6.10049e-06
6.10054e-06
6.10027e-06
6.09985e-06
6.09948e-06
6.0992e-06
6.09902e-06
6.09885e-06
6.09872e-06
6.09864e-06
6.09861e-06
6.09863e-06
6.09869e-06
6.09879e-06
6.09893e-06
6.09911e-06
6.09932e-06
6.09957e-06
6.09986e-06
6.10016e-06
6.10047e-06
6.10076e-06
6.10104e-06
6.10129e-06
6.10153e-06
6.10174e-06
6.10192e-06
6.10205e-06
6.10214e-06
6.10218e-06
6.10222e-06
6.1023e-06
6.10245e-06
6.1033e-06
6.10328e-06
6.10183e-06
6.10134e-06
6.10091e-06
6.10078e-06
6.10073e-06
6.10076e-06
6.10087e-06
6.10101e-06
6.10115e-06
6.1013e-06
6.10143e-06
6.10155e-06
6.10166e-06
6.10176e-06
6.10185e-06
6.10193e-06
6.102e-06
6.10207e-06
6.10214e-06
6.10222e-06
6.10231e-06
6.10242e-06
6.10255e-06
6.10271e-06
6.10293e-06
6.10324e-06
6.10366e-06
6.1042e-06
6.1049e-06
6.1057e-06
6.10688e-06
6.10755e-06
6.11044e-06
6.11e-06
6.10392e-06
6.19475e-06
5.73237e-06
7.57951e-06
4.6045e-06
6.10228e-06
6.10225e-06
6.10152e-06
6.10035e-06
6.10035e-06
6.10035e-06
6.10009e-06
6.09968e-06
6.09933e-06
6.09906e-06
6.09885e-06
6.09869e-06
6.09857e-06
6.0985e-06
6.09848e-06
6.0985e-06
6.09855e-06
6.09865e-06
6.09877e-06
6.09894e-06
6.09913e-06
6.09937e-06
6.09964e-06
6.09993e-06
6.10023e-06
6.10052e-06
6.1008e-06
6.10106e-06
6.10132e-06
6.10155e-06
6.10175e-06
6.10193e-06
6.10206e-06
6.10215e-06
6.10216e-06
6.1022e-06
6.10231e-06
6.10304e-06
6.10303e-06
6.1016e-06
6.10114e-06
6.10074e-06
6.10068e-06
6.10068e-06
6.10074e-06
6.10088e-06
6.10103e-06
6.10119e-06
6.10134e-06
6.10149e-06
6.10162e-06
6.10174e-06
6.10185e-06
6.10195e-06
6.10204e-06
6.10211e-06
6.10219e-06
6.10227e-06
6.10235e-06
6.10243e-06
6.10253e-06
6.10266e-06
6.1028e-06
6.10299e-06
6.10326e-06
6.10362e-06
6.10409e-06
6.1047e-06
6.10542e-06
6.10633e-06
6.10747e-06
6.10812e-06
6.1139e-06
6.09436e-06
6.18545e-06
5.89179e-06
6.61782e-06
6.15327e-06
6.10202e-06
6.10205e-06
6.10139e-06
6.10027e-06
6.10021e-06
6.10018e-06
6.09991e-06
6.09951e-06
6.09917e-06
6.09891e-06
6.0987e-06
6.09853e-06
6.09843e-06
6.09837e-06
6.09835e-06
6.09837e-06
6.09842e-06
6.0985e-06
6.09861e-06
6.09876e-06
6.09894e-06
6.09916e-06
6.09942e-06
6.0997e-06
6.1e-06
6.10028e-06
6.10056e-06
6.10084e-06
6.10111e-06
6.10136e-06
6.10159e-06
6.10179e-06
6.10196e-06
6.10209e-06
6.10215e-06
6.10218e-06
6.10224e-06
6.10285e-06
6.10284e-06
6.10139e-06
6.10096e-06
6.10061e-06
6.1006e-06
6.10065e-06
6.10073e-06
6.10089e-06
6.10106e-06
6.10122e-06
6.1014e-06
6.10155e-06
6.1017e-06
6.10183e-06
6.10195e-06
6.10205e-06
6.10215e-06
6.10224e-06
6.10232e-06
6.1024e-06
6.10249e-06
6.10258e-06
6.10267e-06
6.10279e-06
6.10292e-06
6.10309e-06
6.10332e-06
6.10363e-06
6.10404e-06
6.10457e-06
6.10523e-06
6.10598e-06
6.10716e-06
6.10737e-06
6.11265e-06
6.10028e-06
6.14609e-06
6.04424e-06
6.17201e-06
6.4171e-06
6.10178e-06
6.10185e-06
6.10125e-06
6.10019e-06
6.10007e-06
6.1e-06
6.09972e-06
6.09933e-06
6.099e-06
6.09875e-06
6.09854e-06
6.09839e-06
6.09829e-06
6.09824e-06
6.09822e-06
6.09824e-06
6.09828e-06
6.09835e-06
6.09845e-06
6.09859e-06
6.09875e-06
6.09896e-06
6.09921e-06
6.09948e-06
6.09976e-06
6.10004e-06
6.10032e-06
6.1006e-06
6.10088e-06
6.10114e-06
6.10139e-06
6.10162e-06
6.10182e-06
6.10198e-06
6.1021e-06
6.10214e-06
6.10217e-06
6.10268e-06
6.10269e-06
6.10119e-06
6.10081e-06
6.10051e-06
6.10055e-06
6.10062e-06
6.10072e-06
6.1009e-06
6.10108e-06
6.10126e-06
6.10145e-06
6.10161e-06
6.10177e-06
6.10191e-06
6.10204e-06
6.10215e-06
6.10226e-06
6.10236e-06
6.10245e-06
6.10254e-06
6.10263e-06
6.10272e-06
6.10282e-06
6.10293e-06
6.10305e-06
6.1032e-06
6.10341e-06
6.10368e-06
6.10404e-06
6.1045e-06
6.10509e-06
6.10576e-06
6.10678e-06
6.10727e-06
6.11034e-06
6.10684e-06
6.11944e-06
6.11383e-06
6.0621e-06
6.2859e-06
6.10155e-06
6.10164e-06
6.1011e-06
6.1001e-06
6.09992e-06
6.09982e-06
6.09953e-06
6.09915e-06
6.09883e-06
6.09858e-06
6.09838e-06
6.09824e-06
6.09815e-06
6.0981e-06
6.09808e-06
6.0981e-06
6.09813e-06
6.0982e-06
6.09829e-06
6.09841e-06
6.09857e-06
6.09876e-06
6.099e-06
6.09926e-06
6.09953e-06
6.0998e-06
6.10008e-06
6.10036e-06
6.10064e-06
6.10091e-06
6.10118e-06
6.10142e-06
6.10165e-06
6.10184e-06
6.10199e-06
6.10208e-06
6.10211e-06
6.10252e-06
6.10256e-06
6.10101e-06
6.10068e-06
6.10042e-06
6.1005e-06
6.10059e-06
6.10072e-06
6.10091e-06
6.10111e-06
6.1013e-06
6.1015e-06
6.10168e-06
6.10184e-06
6.10199e-06
6.10213e-06
6.10226e-06
6.10237e-06
6.10248e-06
6.10258e-06
6.10268e-06
6.10278e-06
6.10287e-06
6.10297e-06
6.10308e-06
6.1032e-06
6.10334e-06
6.10352e-06
6.10377e-06
6.10408e-06
6.10449e-06
6.10501e-06
6.10563e-06
6.10646e-06
6.10725e-06
6.10876e-06
6.10983e-06
6.10949e-06
6.12726e-06
6.07411e-06
6.16514e-06
6.10133e-06
6.10144e-06
6.10095e-06
6.09999e-06
6.09977e-06
6.09964e-06
6.09934e-06
6.09896e-06
6.09865e-06
6.09841e-06
6.09822e-06
6.09809e-06
6.098e-06
6.09795e-06
6.09794e-06
6.09795e-06
6.09798e-06
6.09804e-06
6.09812e-06
6.09824e-06
6.09838e-06
6.09857e-06
6.09879e-06
6.09904e-06
6.0993e-06
6.09956e-06
6.09983e-06
6.1001e-06
6.10038e-06
6.10067e-06
6.10094e-06
6.10121e-06
6.10146e-06
6.10168e-06
6.10186e-06
6.10199e-06
6.10201e-06
6.10233e-06
6.10242e-06
6.10085e-06
6.10055e-06
6.10034e-06
6.10045e-06
6.10056e-06
6.10071e-06
6.10093e-06
6.10113e-06
6.10134e-06
6.10155e-06
6.10174e-06
6.10191e-06
6.10207e-06
6.10222e-06
6.10236e-06
6.10249e-06
6.1026e-06
6.10271e-06
6.10282e-06
6.10293e-06
6.10303e-06
6.10313e-06
6.10325e-06
6.10336e-06
6.1035e-06
6.10366e-06
6.10388e-06
6.10416e-06
6.10452e-06
6.10498e-06
6.10555e-06
6.10625e-06
6.10713e-06
6.10802e-06
6.11017e-06
6.10823e-06
6.12153e-06
6.10054e-06
6.1178e-06
6.10112e-06
6.10124e-06
6.10078e-06
6.09988e-06
6.09962e-06
6.09945e-06
6.09915e-06
6.09877e-06
6.09846e-06
6.09823e-06
6.09805e-06
6.09792e-06
6.09784e-06
6.0978e-06
6.09778e-06
6.09779e-06
6.09783e-06
6.09788e-06
6.09796e-06
6.09807e-06
6.0982e-06
6.09837e-06
6.09858e-06
6.09882e-06
6.09906e-06
6.09932e-06
6.09958e-06
6.09985e-06
6.10013e-06
6.10042e-06
6.10071e-06
6.10099e-06
6.10125e-06
6.1015e-06
6.1017e-06
6.10188e-06
6.1019e-06
6.10213e-06
6.10226e-06
6.10069e-06
6.10043e-06
6.10026e-06
6.1004e-06
6.10054e-06
6.10071e-06
6.10094e-06
6.10116e-06
6.10138e-06
6.1016e-06
6.1018e-06
6.10198e-06
6.10216e-06
6.10231e-06
6.10246e-06
6.1026e-06
6.10272e-06
6.10285e-06
6.10296e-06
6.10308e-06
6.10319e-06
6.1033e-06
6.10342e-06
6.10354e-06
6.10367e-06
6.10383e-06
6.10403e-06
6.10428e-06
6.1046e-06
6.10501e-06
6.10552e-06
6.10614e-06
6.10697e-06
6.10774e-06
6.10956e-06
6.10918e-06
6.11512e-06
6.11324e-06
6.11089e-06
6.10092e-06
6.10103e-06
6.10061e-06
6.09975e-06
6.09946e-06
6.09926e-06
6.09894e-06
6.09857e-06
6.09827e-06
6.09805e-06
6.09787e-06
6.09775e-06
6.09767e-06
6.09763e-06
6.09762e-06
6.09763e-06
6.09766e-06
6.09772e-06
6.09779e-06
6.09789e-06
6.09801e-06
6.09817e-06
6.09837e-06
6.09859e-06
6.09883e-06
6.09907e-06
6.09932e-06
6.09959e-06
6.09987e-06
6.10016e-06
6.10045e-06
6.10074e-06
6.10102e-06
6.10129e-06
6.10152e-06
6.10173e-06
6.10181e-06
6.10197e-06
6.10213e-06
6.10054e-06
6.10032e-06
6.10019e-06
6.10036e-06
6.10052e-06
6.10071e-06
6.10095e-06
6.10119e-06
6.10142e-06
6.10165e-06
6.10186e-06
6.10205e-06
6.10224e-06
6.1024e-06
6.10256e-06
6.10271e-06
6.10284e-06
6.10298e-06
6.1031e-06
6.10322e-06
6.10334e-06
6.10346e-06
6.10359e-06
6.10371e-06
6.10384e-06
6.10399e-06
6.10418e-06
6.10441e-06
6.10471e-06
6.10508e-06
6.10554e-06
6.1061e-06
6.10684e-06
6.10762e-06
6.10896e-06
6.10978e-06
6.11207e-06
6.11532e-06
6.11434e-06
6.10072e-06
6.10083e-06
6.10044e-06
6.09961e-06
6.09929e-06
6.09906e-06
6.09873e-06
6.09837e-06
6.09807e-06
6.09785e-06
6.09768e-06
6.09757e-06
6.0975e-06
6.09746e-06
6.09745e-06
6.09746e-06
6.09749e-06
6.09754e-06
6.09761e-06
6.0977e-06
6.09782e-06
6.09797e-06
6.09815e-06
6.09836e-06
6.09859e-06
6.09882e-06
6.09906e-06
6.09932e-06
6.0996e-06
6.09988e-06
6.10018e-06
6.10048e-06
6.10077e-06
6.10105e-06
6.10131e-06
6.10154e-06
6.10169e-06
6.1018e-06
6.102e-06
6.10039e-06
6.10021e-06
6.10012e-06
6.10031e-06
6.10049e-06
6.1007e-06
6.10096e-06
6.10121e-06
6.10145e-06
6.1017e-06
6.10191e-06
6.10212e-06
6.10231e-06
6.10249e-06
6.10266e-06
6.10281e-06
6.10296e-06
6.1031e-06
6.10324e-06
6.10337e-06
6.1035e-06
6.10363e-06
6.10376e-06
6.10389e-06
6.10402e-06
6.10417e-06
6.10435e-06
6.10456e-06
6.10483e-06
6.10517e-06
6.10559e-06
6.10611e-06
6.10677e-06
6.10754e-06
6.10859e-06
6.10979e-06
6.11122e-06
6.1139e-06
6.11669e-06
6.10054e-06
6.10064e-06
6.10026e-06
6.09947e-06
6.09911e-06
6.09886e-06
6.09852e-06
6.09815e-06
6.09786e-06
6.09765e-06
6.09749e-06
6.09738e-06
6.09731e-06
6.09728e-06
6.09727e-06
6.09728e-06
6.09731e-06
6.09736e-06
6.09742e-06
6.09751e-06
6.09762e-06
6.09775e-06
6.09793e-06
6.09813e-06
6.09834e-06
6.09856e-06
6.09879e-06
6.09905e-06
6.09932e-06
6.0996e-06
6.0999e-06
6.1002e-06
6.1005e-06
6.1008e-06
6.10108e-06
6.10133e-06
6.10154e-06
6.10159e-06
6.10184e-06
6.10025e-06
6.1001e-06
6.10005e-06
6.10026e-06
6.10046e-06
6.10069e-06
6.10097e-06
6.10123e-06
6.10149e-06
6.10174e-06
6.10197e-06
6.10219e-06
6.10239e-06
6.10258e-06
6.10275e-06
6.10292e-06
6.10308e-06
6.10323e-06
6.10337e-06
6.10352e-06
6.10366e-06
6.10379e-06
6.10393e-06
6.10407e-06
6.1042e-06
6.10435e-06
6.10452e-06
6.10473e-06
6.10498e-06
6.10529e-06
6.10567e-06
6.10615e-06
6.10675e-06
6.10748e-06
6.1084e-06
6.10955e-06
6.11106e-06
6.11248e-06
6.11679e-06
6.10036e-06
6.10044e-06
6.10007e-06
6.09931e-06
6.09893e-06
6.09864e-06
6.0983e-06
6.09793e-06
6.09764e-06
6.09744e-06
6.09728e-06
6.09718e-06
6.09712e-06
6.09709e-06
6.09708e-06
6.09709e-06
6.09712e-06
6.09716e-06
6.09722e-06
6.0973e-06
6.0974e-06
6.09753e-06
6.09769e-06
6.09788e-06
6.09808e-06
6.09829e-06
6.09852e-06
6.09876e-06
6.09902e-06
6.0993e-06
6.0996e-06
6.0999e-06
6.10021e-06
6.10052e-06
6.10082e-06
6.10109e-06
6.10135e-06
6.10141e-06
6.10171e-06
6.1001e-06
6.09999e-06
6.09997e-06
6.10021e-06
6.10044e-06
6.10068e-06
6.10097e-06
6.10125e-06
6.10152e-06
6.10178e-06
6.10202e-06
6.10225e-06
6.10246e-06
6.10266e-06
6.10284e-06
6.10302e-06
6.10319e-06
6.10335e-06
6.10351e-06
6.10366e-06
6.10381e-06
6.10396e-06
6.10411e-06
6.10425e-06
6.10439e-06
6.10454e-06
6.10471e-06
6.10491e-06
6.10514e-06
6.10543e-06
6.10579e-06
6.10623e-06
6.10678e-06
6.10745e-06
6.10831e-06
6.10931e-06
6.11094e-06
6.11173e-06
6.116e-06
6.10018e-06
6.10024e-06
6.09988e-06
6.09914e-06
6.09873e-06
6.09842e-06
6.09807e-06
6.0977e-06
6.09742e-06
6.09722e-06
6.09706e-06
6.09696e-06
6.09691e-06
6.09688e-06
6.09687e-06
6.09688e-06
6.09691e-06
6.09695e-06
6.09701e-06
6.09708e-06
6.09718e-06
6.0973e-06
6.09745e-06
6.09762e-06
6.09781e-06
6.09801e-06
6.09823e-06
6.09846e-06
6.09871e-06
6.09899e-06
6.09928e-06
6.09959e-06
6.0999e-06
6.10022e-06
6.10054e-06
6.10083e-06
6.10111e-06
6.10123e-06
6.10159e-06
6.09996e-06
6.09988e-06
6.0999e-06
6.10016e-06
6.1004e-06
6.10067e-06
6.10097e-06
6.10126e-06
6.10155e-06
6.10182e-06
6.10207e-06
6.10231e-06
6.10253e-06
6.10274e-06
6.10293e-06
6.10312e-06
6.1033e-06
6.10347e-06
6.10364e-06
6.10381e-06
6.10396e-06
6.10412e-06
6.10428e-06
6.10443e-06
6.10458e-06
6.10474e-06
6.1049e-06
6.10509e-06
6.10532e-06
6.10559e-06
6.10593e-06
6.10633e-06
6.10684e-06
6.10746e-06
6.10827e-06
6.10915e-06
6.11075e-06
6.11136e-06
6.11521e-06
6.1e-06
6.10005e-06
6.09969e-06
6.09896e-06
6.09853e-06
6.0982e-06
6.09783e-06
6.09746e-06
6.09718e-06
6.09698e-06
6.09684e-06
6.09674e-06
6.09668e-06
6.09666e-06
6.09665e-06
6.09666e-06
6.09669e-06
6.09673e-06
6.09678e-06
6.09685e-06
6.09693e-06
6.09704e-06
6.09718e-06
6.09735e-06
6.09753e-06
6.09771e-06
6.09792e-06
6.09814e-06
6.09839e-06