/*--------------------------------*- C++ -*----------------------------------*\
| =========                 |                                                 |
| \\      /  F ield         | OpenFOAM: The Open Source CFD Toolbox           |
|  \\    /   O peration     | Version:  2506                                  |
|   \\  /    A nd           | Website:  www.openfoam.com                      |
|    \\/     M anipulation  |                                                 |
\*---------------------------------------------------------------------------*/
FoamFile
{
    version     2.0;
    format      ascii;
    arch        "LSB;label=32;scalar=64";
    class       volScalarField;
    location    "500";
    object      turbulenceProperties:L;
}
// * * * * * * * * * * * * * * * * * * * * * * * * * * * * * * * * * * * * * //

dimensions      [0 1 0 0 0 0 0];

internalField   nonuniform List<scalar> 
10720
(
0.00178916
0.00171338
0.00164699
0.00158336
0.00154547
0.00152527
0.00152699
0.0015552
0.00161195
0.0017001
0.00182524
0.0019934
0.00221098
0.00249244
0.00286019
0.00334528
0.00400926
0.00491163
0.00628111
0.00817045
0.0117151
0.016691
0.0291027
0.0467099
0.0546918
0.0564658
0.0575875
0.0591752
0.0606019
0.0614571
0.0618538
0.0620466
0.0621885
0.0623455
0.0625863
0.0629524
0.0638513
0.0646812
0.0652116
0.0018828
0.00198104
0.00214047
0.00233276
0.00260318
0.0029897
0.00351488
0.00403409
0.00396956
0.00348029
0.00297188
0.0026007
0.0023772
0.00228677
0.00231393
0.00244691
0.00268211
0.00302786
0.00350751
0.00416049
0.00506184
0.00630314
0.00810033
0.0106569
0.0146865
0.0206335
0.030445
0.0433102
0.0512757
0.0542885
0.0551794
0.0555188
0.0557283
0.0558724
0.0559808
0.0560832
0.0562072
0.0564334
0.0565268
0.00386726
0.00387792
0.00390032
0.00395796
0.00405248
0.00417003
0.00432273
0.00451615
0.00473545
0.00498438
0.00526242
0.0054844
0.00552549
0.00534581
0.00500188
0.00478961
0.00499055
0.00555565
0.00656891
0.00776504
0.0101223
0.0130482
0.0187078
0.0300881
0.0414482
0.0541518
0.0690641
0.085369
0.101204
0.115567
0.12925
0.143036
0.155778
0.166558
0.175303
0.182076
0.18633
0.187501
0.181469
0.00388513
0.00391214
0.00396876
0.00405742
0.00418865
0.00438255
0.00464795
0.00495707
0.00530273
0.00572802
0.00624554
0.00682954
0.00747726
0.00820251
0.0090198
0.00994353
0.0110084
0.0122572
0.0138297
0.0160363
0.0198629
0.0282128
0.0605264
0.233849
0.116421
0.0106148
0.0213819
0.0578538
0.107137
0.156023
0.194569
0.215836
0.222322
0.221014
0.217003
0.212395
0.207405
0.198331
0.175243
0.00473352
0.00475252
0.00480733
0.00489479
0.00499152
0.0051047
0.00522737
0.00534566
0.00545432
0.00554361
0.00561616
0.00566
0.00567346
0.00565265
0.00564408
0.00572326
0.006189
0.00675724
0.117498
0.0057261
0.0134268
0.00675497
0.0340589
0.0157268
0.0253887
0.0341313
0.0445086
0.0587969
0.0773343
0.098382
0.119613
0.139436
0.158523
0.178006
0.197612
0.216527
0.233685
0.249294
0.245443
0.00471495
0.00471753
0.00472362
0.00476588
0.00484411
0.00498484
0.0052009
0.00548586
0.00579791
0.00618199
0.00669462
0.00733612
0.00810001
0.00899242
0.0100035
0.0111268
0.0123242
0.0135442
0.0147008
0.0157429
0.0166076
0.017255
0.0176526
0.0178905
0.0179243
0.0179571
0.0174181
0.0228413
0.015718
0.0446903
0.101286
0.175196
0.221663
0.241582
0.252168
0.258859
0.261735
0.273186
0.246077
0.00514937
0.00514402
0.00515696
0.00517856
0.00522404
0.00529403
0.00538532
0.00550624
0.00565497
0.00583439
0.00604763
0.00630022
0.00660067
0.00695713
0.0073848
0.00793137
0.00861812
0.00936728
0.0107053
0.0129606
0.0367072
0.024773
0.118657
0.00643783
0.0154521
0.0126949
0.0131309
0.0405021
0.0746581
0.0822964
0.103117
0.127596
0.152185
0.175414
0.198493
0.222856
0.247514
0.272778
0.280548
0.00517719
0.0052203
0.00529016
0.00537809
0.00549484
0.00565983
0.00587259
0.00612761
0.00643189
0.00681958
0.00730438
0.00786758
0.00849129
0.00916737
0.00988479
0.0106367
0.011403
0.0121666
0.0129045
0.0136158
0.0142893
0.0149394
0.0156042
0.016409
0.0173811
0.0183362
0.0191711
0.0198507
0.0207701
0.0221757
0.0255555
0.0322311
0.0458506
0.156726
0.23973
0.234499
0.24597
0.257588
0.242441
0.00594552
0.00595079
0.00597421
0.00601653
0.00608395
0.00617908
0.00630014
0.00644966
0.00662765
0.00682786
0.00704718
0.00727875
0.00751148
0.00773431
0.00793578
0.00811804
0.00832441
0.00860864
0.00897059
0.00958426
0.0104675
0.0164979
0.0768404
0.263703
0
0.112477
0.00741874
0.00913617
0.0208126
0.0170005
0.0350938
0.127132
0.187044
0.184925
0.202609
0.224484
0.249912
0.280353
0.298112
0.00595324
0.00597433
0.00601721
0.00608777
0.00619155
0.00634816
0.00655209
0.00679453
0.00708528
0.00745177
0.00790071
0.00842913
0.00903614
0.00972657
0.0105027
0.0113641
0.0123029
0.0133033
0.0143392
0.0153903
0.0164312
0.0174562
0.0184898
0.0196691
0.021133
0.022822
0.0244982
0.0258933
0.0265992
0.0276252
0.025342
0.058454
0.0235835
0.0396166
0.0728686
0.0780529
0.113436
0.110061
0.192325
0.00656688
0.00655294
0.00655431
0.00656609
0.00659852
0.00665222
0.0067263
0.00682572
0.00695172
0.00710488
0.00728834
0.0075038
0.00775227
0.00803626
0.00835811
0.00873618
0.00921316
0.00979373
0.010456
0.0111563
0.0117201
0.012679
0.0140306
0.0332068
0.120546
0.215193
0.694726
0
0
0.0100301
0.0161142
0.0348021
0.0171152
0.10611
0.312508
0.250148
0.257435
0.28314
0.305236
0.0065969
0.00663899
0.00670166
0.00678714
0.00690187
0.00706186
0.00726051
0.00749343
0.00777415
0.00812435
0.00854725
0.00904139
0.00960457
0.0102366
0.0109348
0.0116915
0.0124947
0.0133284
0.0141727
0.0150138
0.015844
0.0166747
0.0175448
0.0185619
0.0198301
0.0213168
0.0229308
0.0246022
0.0263311
0.0280807
0.0298902
0.0318864
0.0355414
0.0424207
0.631859
0.0484926
0.0648285
0.0603095
0.0990144
0.0073014
0.00728552
0.00728291
0.00729214
0.0073214
0.00737282
0.00744661
0.00754703
0.00767633
0.00783503
0.00802511
0.00824728
0.00850049
0.00878317
0.00909289
0.00942281
0.00975531
0.0100987
0.0104902
0.0109563
0.0114599
0.0119359
0.0123386
0.013478
0.0166183
0.0244402
0.0810372
0.173586
0.259962
1.59023
0
0
0.0109847
0.0443924
0.0415591
0.222147
0.309861
0.294208
0.308938
0.00733153
0.00737298
0.00743458
0.00752191
0.00764002
0.00779992
0.00799223
0.00821903
0.00849252
0.0088263
0.00922332
0.00968455
0.0102112
0.0108063
0.0114711
0.0122037
0.0130002
0.0138515
0.014745
0.0156703
0.0166198
0.0175999
0.0186435
0.0198438
0.0213125
0.0230542
0.0250018
0.0270882
0.0292878
0.0315353
0.0335989
0.0351815
0.0362503
0.0380668
0.0441947
0.180743
0.328359
3.56215
0.0219698
0.00802
0.00799278
0.00797675
0.00797034
0.00798123
0.00801128
0.0080601
0.00813199
0.00822922
0.00835216
0.00850435
0.00868705
0.00890147
0.00915003
0.00943468
0.00975636
0.0101278
0.0105731
0.0110898
0.0116568
0.0122415
0.0127674
0.0131809
0.013511
0.0142108
0.0155476
0.0179462
0.0222393
0.030012
0.183504
0.234123
2.47613
0
0
0.0253016
0.0852346
0.187511
0.335742
0.316471
0.00806145
0.00811228
0.00818189
0.00827715
0.00840147
0.00856337
0.00875148
0.00897404
0.00924119
0.00956004
0.00993523
0.010368
0.010861
0.0114179
0.0120402
0.0127257
0.0134717
0.0142691
0.015106
0.0159734
0.016867
0.0177943
0.018787
0.0199209
0.0212841
0.0228857
0.0246781
0.0266352
0.0287713
0.0311263
0.0336988
0.0364788
0.0395089
0.0428111
0.0456238
0.0478505
0.0551322
0.289292
0.0635922
0.008781
0.00874669
0.00872189
0.0087065
0.00870706
0.00872568
0.00876258
0.00882235
0.00890704
0.00901802
0.00915854
0.0093305
0.00953527
0.00977515
0.0100513
0.0103659
0.0107186
0.0111018
0.011518
0.0119728
0.0124644
0.012971
0.0134627
0.0139329
0.0144957
0.0152972
0.0163414
0.0177104
0.0192237
0.0224352
0.0279477
0.255315
0.35446
0
0
0
0.0914161
0.305724
0.333399
0.00882886
0.00888524
0.00895955
0.00906129
0.00919029
0.00935359
0.00953963
0.00975933
0.0100208
0.0103267
0.0106823
0.0110895
0.0115516
0.0120733
0.0126578
0.0133056
0.0140159
0.0147844
0.0156053
0.0164724
0.0173841
0.0183501
0.0193999
0.0205976
0.0220198
0.0236919
0.025578
0.0276558
0.0299313
0.0324165
0.0350808
0.0377946
0.0403525
0.042474
0.0438761
0.0437079
0.042167
0.0408466
0.453784
0.0095637
0.00952025
0.00948435
0.00945681
0.00944414
0.00944741
0.00946709
0.00950824
0.00957202
0.00965986
0.00977557
0.0099206
0.010097
0.0103073
0.0105536
0.0108386
0.011163
0.0115362
0.0119659
0.0124443
0.0129509
0.0134622
0.0139631
0.0144848
0.0151148
0.0159466
0.0169696
0.0180607
0.0190724
0.0200383
0.0211064
0.0245213
0.0401017
0.229406
0
0
0.0204053
0.0871025
0.357074
0.0096203
0.00968358
0.00976468
0.00987431
0.0100086
0.0101727
0.0103589
0.0105772
0.0108331
0.0111279
0.0114664
0.0118504
0.0122846
0.0127747
0.0133236
0.0139339
0.0146065
0.0153387
0.0161279
0.0169703
0.0178657
0.0188237
0.0198709
0.0210589
0.0224549
0.0240817
0.0259181
0.0279403
0.0301711
0.0326327
0.0353289
0.0382319
0.041292
0.0442862
0.0469381
0.0475393
0.0478287
0.0374518
0.0653804
0.0103791
0.0103271
0.0102811
0.0102426
0.0102183
0.0102085
0.0102144
0.0102402
0.0102878
0.0103589
0.0104572
0.0105841
0.0107423
0.0109347
0.0111635
0.0114304
0.0117388
0.0120888
0.0124794
0.0129097
0.013371
0.0138527
0.0143478
0.0148823
0.015533
0.0163814
0.0174406
0.0186034
0.0197277
0.0206907
0.02151
0.0220969
0.0235343
0.0308961
0.204984
0
0
0.0717381
0.322039
0.010444
0.0105144
0.0106013
0.0107185
0.0108587
0.011024
0.0112114
0.0114296
0.0116804
0.0119651
0.0122883
0.0126525
0.0130617
0.0135217
0.0140377
0.0146132
0.0152507
0.015951
0.0167136
0.0175374
0.0184259
0.01939
0.0204546
0.0216629
0.0230718
0.0247098
0.026567
0.0286264
0.0309026
0.0334188
0.0361675
0.0390805
0.042043
0.0447658
0.0469698
0.0472662
0.0473333
0.0399331
0.035574
0.0112262
0.011165
0.0111085
0.0110586
0.0110217
0.0109979
0.0109887
0.0109983
0.0110288
0.0110814
0.0111591
0.0112649
0.0114009
0.0115694
0.0117733
0.0120152
0.0122975
0.0126211
0.0129908
0.0134071
0.0138584
0.0143323
0.0148235
0.0153562
0.0159957
0.0168161
0.0178372
0.0189868
0.0201552
0.0212674
0.0223214
0.0231125
0.0235758
0.0240895
0.0295271
0.240273
0
0.0366254
0.214836
0.0112998
0.0113779
0.0114711
0.0115962
0.0117425
0.0119099
0.0120994
0.0123182
0.0125648
0.012841
0.0131512
0.0134974
0.0138833
0.0143169
0.0148029
0.0153457
0.0159497
0.0166185
0.0173536
0.0181559
0.0190311
0.0199895
0.021056
0.0222695
0.0236734
0.0252977
0.0271391
0.0291911
0.0314638
0.0339839
0.0367475
0.0397183
0.0428128
0.0457936
0.0483441
0.049078
0.0487949
0.0430583
0.0340681
0.0121089
0.0120381
0.0119706
0.0119095
0.0118602
0.011823
0.0117994
0.0117936
0.0118078
0.0118428
0.0119026
0.0119894
0.0121051
0.0122532
0.0124358
0.0126563
0.0129169
0.0132177
0.0135613
0.0139479
0.0143717
0.0148243
0.0153047
0.0158342
0.0164647
0.0172585
0.0182346
0.0193379
0.0204771
0.0216059
0.0227316
0.0238172
0.0246814
0.0250819
0.0246789
0.0344845
6.63033
0.0226614
0.123804
0.0121909
0.0122773
0.0123773
0.01251
0.0126626
0.0128332
0.0130256
0.0132454
0.0134887
0.0137575
0.0140561
0.0143865
0.0147524
0.0151616
0.0156204
0.0161332
0.0167065
0.0173448
0.0180522
0.0188338
0.0196951
0.0206489
0.0217189
0.0229382
0.024346
0.0259694
0.0278136
0.0298741
0.0321691
0.0347145
0.0375229
0.0405403
0.0436733
0.0466686
0.0491988
0.0500321
0.049683
0.0448549
0.0355453
0.0130285
0.0129482
0.0128693
0.0127962
0.0127346
0.0126837
0.0126453
0.012624
0.0126217
0.0126397
0.0126813
0.0127484
0.0128436
0.0129699
0.0131304
0.013327
0.0135634
0.0138392
0.0141574
0.014521
0.0149254
0.0153617
0.0158315
0.0163527
0.0169699
0.0177351
0.0186699
0.0197264
0.0208256
0.0219257
0.0230311
0.0241437
0.0252114
0.0261021
0.026355
0.0244188
0.240664
0.0431086
0.0628288
0.0131199
0.0132141
0.0133219
0.0134625
0.0136214
0.0137965
0.013993
0.0142139
0.0144544
0.0147173
0.0150061
0.0153222
0.0156703
0.0160583
0.0164917
0.0169763
0.0175213
0.018131
0.0188121
0.0195711
0.0204174
0.0213636
0.0224332
0.0236541
0.0250594
0.0266778
0.0285181
0.030583
0.0328869
0.0354499
0.0382875
0.0413528
0.0445691
0.0477154
0.0504332
0.0514863
0.0512616
0.0466201
0.0374601
0.0139876
0.0138974
0.013807
0.013722
0.0136478
0.0135827
0.01353
0.0134933
0.0134748
0.0134757
0.0134991
0.0135473
0.0136227
0.0137284
0.0138672
0.0140419
0.0142546
0.0145075
0.0148007
0.015138
0.0155185
0.0159352
0.0163903
0.0169001
0.0175013
0.0182394
0.0191335
0.0201476
0.0212127
0.0222857
0.0233646
0.0244416
0.0255173
0.0264251
0.0278108
0.0253279
0.0367977
0.940352
0.0204866
0.0140891
0.0141917
0.0143075
0.0144566
0.0146215
0.0148022
0.0150036
0.0152262
0.0154651
0.0157233
0.0160035
0.0163076
0.0166403
0.0170085
0.0174196
0.0178791
0.0183971
0.0189798
0.0196362
0.0203741
0.0212035
0.0221393
0.0232046
0.024427
0.0258341
0.02745
0.0292894
0.0313615
0.03368
0.0362764
0.039151
0.0422743
0.0455778
0.0488308
0.0516836
0.0529068
0.052815
0.0484737
0.0394435
0.0149893
0.0148885
0.0147862
0.0146898
0.0146018
0.0145221
0.0144547
0.0144027
0.0143676
0.0143512
0.0143569
0.0143867
0.0144424
0.0145276
0.0146446
0.0147965
0.0149855
0.0152142
0.0154826
0.0157943
0.0161521
0.0165493
0.0169889
0.0174841
0.0180676
0.0187778
0.0196314
0.0206032
0.0216353
0.0226828
0.0237412
0.0247947
0.0258458
0.0267202
0.0279735
0.0278444
0.0259427
1.96234
0.0511074
0.0151008
0.0152129
0.0153368
0.0154947
0.0156665
0.0158534
0.0160602
0.0162856
0.0165238
0.0167784
0.0170514
0.0173449
0.0176637
0.0180151
0.0184055
0.0188432
0.0193363
0.0198947
0.0205271
0.0212432
0.0220565
0.0229812
0.0240411
0.0252614
0.0266669
0.02828
0.0301208
0.0321993
0.0345345
0.0371536
0.0400711
0.043258
0.0466593
0.050054
0.0531112
0.0545763
0.0546289
0.0505501
0.041544
0.0160362
0.0159247
0.0158101
0.0157008
0.0155992
0.0155049
0.0154224
0.0153549
0.0153033
0.0152699
0.015258
0.0152696
0.0153058
0.0153699
0.0154656
0.0155948
0.0157607
0.0159658
0.0162095
0.0164959
0.0168294
0.0172057
0.0176265
0.018105
0.018668
0.0193491
0.0201645
0.0210948
0.0220917
0.0231135
0.0241524
0.0251905
0.0262153
0.0271438
0.0279409
0.0296839
0.0252485
0.955287
1.14661
0.0161572
0.0162796
0.0164133
0.0165797
0.0167593
0.0169531
0.0171659
0.0173946
0.0176338
0.0178851
0.0181525
0.0184373
0.0187444
0.0190807
0.0194531
0.0198705
0.0203418
0.0208772
0.0214866
0.0221824
0.0229782
0.0238907
0.0249443
0.0261618
0.0275656
0.0291784
0.0310197
0.033108
0.0354656
0.0381133
0.0410796
0.0443434
0.0478459
0.0513968
0.0546614
0.0563883
0.0566114
0.0528066
0.0438195
0.017131
0.0170075
0.0168813
0.0167576
0.0166427
0.0165339
0.0164352
0.0163518
0.0162833
0.0162336
0.0162038
0.0161958
0.0162132
0.0162577
0.0163319
0.0164392
0.0165814
0.0167628
0.016982
0.0172435
0.0175519
0.017907
0.0183077
0.018767
0.019307
0.0199582
0.020735
0.0216241
0.0225848
0.02358
0.0245968
0.0256209
0.0266244
0.0276017
0.0282308
0.0301028
0.0268594
0.0445516
0.777959
0.0172628
0.0173948
0.0175385
0.0177149
0.0179023
0.0181046
0.0183249
0.0185564
0.0187974
0.0190475
0.0193108
0.0195881
0.0198847
0.0202081
0.0205657
0.0209651
0.0214168
0.0219315
0.0225192
0.023196
0.0239746
0.0248734
0.0259177
0.0271316
0.0285354
0.0301486
0.0319917
0.0340892
0.0364682
0.0391562
0.0421717
0.0455278
0.0491615
0.0528871
0.0564006
0.0584431
0.0588635
0.0552801
0.0463065
0.018276
0.0181412
0.0180014
0.0178644
0.0177353
0.0176112
0.0174962
0.0173965
0.0173112
0.0172436
0.0171964
0.0171703
0.0171684
0.0171929
0.017246
0.017331
0.0174508
0.0176074
0.0178027
0.0180391
0.0183224
0.0186549
0.0190349
0.0194712
0.0199878
0.020608
0.0213477
0.0221956
0.0231182
0.0240853
0.0250776
0.0260856
0.0270754
0.0280534
0.0287583
0.0300222
0.0292457
0.0301594
0.119077
0.0184198
0.0185625
0.0187164
0.018903
0.019099
0.019311
0.0195387
0.0197754
0.0200175
0.0202681
0.0205282
0.0208
0.0210883
0.0214017
0.0217459
0.0221291
0.0225641
0.0230591
0.0236281
0.0242859
0.0250478
0.0259348
0.0269707
0.0281798
0.0295821
0.0311945
0.0330428
0.0351519
0.0375528
0.0402811
0.0433615
0.0468142
0.0505859
0.054523
0.0583592
0.0607661
0.0613918
0.058005
0.0490234
0.0194754
0.0193292
0.0191748
0.0190238
0.0188796
0.0187389
0.0186083
0.0184913
0.0183896
0.0183044
0.0182391
0.0181944
0.0181731
0.0181772
0.0182089
0.0182719
0.0183688
0.0185019
0.0186736
0.0188847
0.0191424
0.0194507
0.0198086
0.0202222
0.0207124
0.0213023
0.0220038
0.0228109
0.0236949
0.0246314
0.0255993
0.026588
0.0275683
0.0285245
0.0293575
0.0301496
0.031006
0.0293608
0.043886
0.0196312
0.019785
0.0199504
0.0201467
0.0203534
0.0205751
0.0208111
0.0210542
0.0212997
0.0215508
0.0218096
0.0220775
0.0223593
0.0226639
0.0229968
0.0233672
0.0237868
0.0242646
0.0248172
0.025457
0.0262034
0.0270765
0.0281033
0.029309
0.0307085
0.0323236
0.0341799
0.0363047
0.0387321
0.0415046
0.0446629
0.0482108
0.0521462
0.0563441
0.0605192
0.0633519
0.0642548
0.0610027
0.0519846
0.0207321
0.0205729
0.0204042
0.0202386
0.020079
0.0199211
0.0197736
0.0196396
0.01952
0.0194172
0.0193337
0.0192705
0.0192297
0.0192135
0.0192251
0.0192655
0.0193399
0.0194495
0.019597
0.0197829
0.0200141
0.0202981
0.0206315
0.0210217
0.0214839
0.0220416
0.0227058
0.0234715
0.0243192
0.0252232
0.0261661
0.0271332
0.0281064
0.0290431
0.0299533
0.0305892
0.0318409
0.0307832
0.0338738
0.0209002
0.0210666
0.021243
0.0214507
0.0216679
0.0219004
0.0221463
0.0223958
0.0226468
0.0228996
0.0231587
0.0234243
0.0237019
0.0239995
0.0243222
0.024683
0.0250886
0.0255524
0.0260882
0.026713
0.0274448
0.0283055
0.029323
0.0305235
0.0319244
0.0335433
0.035407
0.0375495
0.04001
0.0428341
0.04607
0.0497498
0.053876
0.0583694
0.0629485
0.0663032
0.0675302
0.0643512
0.0552258
0.0220496
0.0218769
0.0216939
0.0215126
0.0213354
0.0211614
0.0209967
0.0208447
0.0207066
0.0205852
0.0204834
0.0204012
0.0203409
0.0203054
0.0202963
0.0203154
0.0203657
0.0204514
0.0205746
0.020736
0.0209418
0.0211998
0.0215081
0.0218724
0.0223072
0.0228312
0.0234587
0.0241836
0.0249938
0.0258648
0.0267804
0.0277265
0.0286887
0.0296154
0.0305514
0.0312267
0.0323205
0.032515
0.0326434
0.0222294
0.02241
0.0225989
0.0228186
0.0230473
0.0232914
0.0235478
0.0238047
0.0240616
0.0243197
0.0245785
0.024843
0.0251182
0.0254103
0.0257271
0.0260775
0.0264723
0.0269245
0.0274468
0.0280575
0.0287751
0.0296258
0.0306366
0.0318327
0.0332335
0.0348573
0.0367327
0.0388966
0.0413937
0.0442743
0.0476012
0.0514255
0.0557796
0.0606023
0.0656907
0.069672
0.0712764
0.0680909
0.0587698
0.0234318
0.0232446
0.0230461
0.0228486
0.0226547
0.0224618
0.0222789
0.0221092
0.0219532
0.0218133
0.0216914
0.0215904
0.0215104
0.0214549
0.0214239
0.0214218
0.0214499
0.0215115
0.0216107
0.0217463
0.0219267
0.0221577
0.0224409
0.0227773
0.0231831
0.0236749
0.0242638
0.0249515
0.0257209
0.0265579
0.027446
0.0283708
0.0293174
0.0302428
0.0311825
0.0319535
0.0328634
0.033887
0.0335178
0.0236247
0.0238175
0.0240204
0.024253
0.0244956
0.0247511
0.0250188
0.0252862
0.0255495
0.0258119
0.026075
0.0263403
0.0266145
0.026902
0.0272151
0.0275579
0.0279451
0.0283851
0.0288966
0.0294963
0.0302034
0.0310437
0.0320457
0.0332385
0.0346423
0.0362725
0.0381619
0.0403501
0.0428896
0.045838
0.0492657
0.0532504
0.0578566
0.0630795
0.0687455
0.0734961
0.0756125
0.0722999
0.0626472
0.0248811
0.0246803
0.0244652
0.0242498
0.0240387
0.0238283
0.0236259
0.0234367
0.0232616
0.023102
0.0229625
0.0228412
0.0227415
0.0226653
0.0226131
0.0225886
0.0225941
0.0226324
0.0227065
0.0228178
0.0229714
0.0231753
0.0234319
0.0237413
0.0241162
0.024575
0.0251277
0.025775
0.0265066
0.0273083
0.0281669
0.0290674
0.0300003
0.0309272
0.0318676
0.0327225
0.033574
0.0349248
0.0349323
0.0250888
0.025296
0.0255116
0.0257577
0.0260154
0.0262849
0.0265639
0.0268425
0.0271145
0.0273822
0.0276506
0.0279183
0.0281931
0.0284795
0.028789
0.029129
0.0295079
0.0299401
0.0304452
0.0310332
0.0317295
0.0325598
0.0335577
0.0347504
0.0361563
0.0377964
0.0397028
0.0419211
0.0445053
0.0475275
0.0510725
0.0552457
0.0601369
0.0658253
0.0722198
0.0779361
0.0806784
0.0770927
0.0669179
0.0264037
0.0261869
0.0259548
0.0257222
0.0254924
0.0252617
0.0250395
0.0248312
0.0246362
0.0244574
0.0242975
0.0241569
0.0240369
0.0239393
0.0238661
0.0238194
0.0238018
0.0238165
0.023866
0.0239526
0.0240799
0.0242561
0.0244856
0.0247672
0.0251114
0.0255359
0.0260515
0.0266576
0.0273522
0.0281186
0.0289475
0.0298257
0.0307435
0.0316698
0.0326152
0.0335296
0.0344198
0.0358604
0.0363935
0.0266251
0.0268472
0.0270784
0.0273377
0.0276099
0.0278961
0.0281881
0.0284765
0.0287587
0.0290368
0.0293098
0.0295824
0.0298584
0.0301475
0.0304546
0.0307908
0.0311659
0.0315953
0.0320903
0.0326712
0.0333604
0.0341844
0.0351784
0.0363697
0.0377816
0.0394337
0.0413599
0.0436134
0.0462523
0.0493571
0.053036
0.0574098
0.062638
0.0688632
0.0761561
0.0831036
0.0866684
0.0825683
0.0715775
0.0280024
0.0277694
0.0275191
0.027267
0.027018
0.0267681
0.0265254
0.0262967
0.0260814
0.0258824
0.0257021
0.0255407
0.0254
0.0252816
0.0251872
0.0251186
0.0250772
0.0250675
0.0250928
0.0251546
0.0252549
0.0254028
0.0256048
0.0258571
0.0261699
0.0265609
0.0270397
0.0276077
0.0282623
0.0289933
0.0297929
0.0306484
0.0315482
0.0324748
0.0334308
0.0343913
0.0353601
0.0368417
0.037809
0.0282394
0.0284756
0.028724
0.028999
0.0292863
0.029587
0.0298947
0.0301971
0.0304899
0.0307775
0.0310585
0.0313372
0.0316165
0.0319095
0.032219
0.0325534
0.0329274
0.0333526
0.0338425
0.034419
0.0350996
0.0359213
0.0369119
0.0381069
0.0395276
0.0411955
0.0431449
0.0454345
0.0481344
0.0513321
0.0551526
0.0597639
0.0653596
0.0722215
0.0805869
0.0891764
0.0938767
0.0888835
0.0766743
0.0296814
0.0294315
0.0291623
0.0288911
0.0286221
0.0283508
0.0280878
0.0278376
0.0276003
0.02738
0.0271796
0.0269975
0.0268348
0.0266958
0.0265787
0.0264876
0.0264243
0.0263903
0.0263896
0.0264264
0.0265006
0.0266198
0.0267933
0.0270163
0.0272988
0.0276558
0.0280973
0.0286285
0.0292445
0.0299393
0.0307077
0.0315376
0.0324224
0.0333478
0.0343181
0.0353188
0.0363722
0.0379149
0.0392173
0.0299343
0.0301873
0.0304508
0.0307432
0.031048
0.0313657
0.031689
0.0320062
0.0323124
0.0326093
0.0329008
0.0331866
0.0334735
0.0337707
0.0340844
0.03442
0.0347932
0.0352172
0.0357049
0.0362753
0.036956
0.0377732
0.0387658
0.0399661
0.041396
0.04308
0.0450577
0.0473937
0.0501577
0.0534568
0.0574355
0.0623022
0.0683194
0.0759235
0.0855773
0.0963462
0.1027
0.0962397
0.082243
0.0314468
0.0311786
0.0308889
0.0305982
0.0303078
0.0300145
0.0297294
0.0294567
0.0291987
0.028956
0.0287329
0.0285308
0.0283474
0.0281855
0.0280467
0.0279315
0.0278452
0.0277872
0.0277617
0.0277719
0.0278198
0.0279116
0.0280547
0.0282502
0.0285007
0.0288239
0.0292298
0.0297221
0.0302998
0.0309601
0.0316973
0.0325011
0.0333729
0.0342943
0.0352793
0.0363201
0.0374545
0.0390794
0.0406584
0.0317158
0.0319863
0.0322665
0.0325742
0.0328982
0.0332359
0.0335763
0.0339073
0.034229
0.0345403
0.0348403
0.0351373
0.0354341
0.0357381
0.0360529
0.0363917
0.0367714
0.0371947
0.0376792
0.0382538
0.0389316
0.0397484
0.0407458
0.0419489
0.0433953
0.0450997
0.0471117
0.0494937
0.0523281
0.055738
0.0598917
0.0650292
0.0715355
0.079983
0.0912475
0.104959
0.113786
0.104859
0.0883078
0.033302
0.0330139
0.0327054
0.0323928
0.0320804
0.0317641
0.0314555
0.0311608
0.03088
0.0306154
0.0303695
0.0301441
0.0299391
0.0297553
0.0295944
0.0294558
0.0293449
0.0292637
0.0292122
0.0291958
0.0292163
0.0292811
0.0293955
0.02956
0.0297795
0.0300702
0.0304402
0.0308946
0.0314332
0.0320606
0.0327652
0.0335459
0.0344015
0.035321
0.0363196
0.0374033
0.0386167
0.0403329
0.0421584
0.0335879
0.033875
0.0341765
0.0345006
0.0348439
0.0351994
0.0355608
0.0359101
0.0362464
0.0365717
0.0368854
0.0371946
0.0375022
0.0378117
0.0381336
0.038483
0.0388637
0.0392861
0.0397802
0.0403515
0.0410294
0.0418543
0.0428523
0.0440678
0.0455276
0.047258
0.0493077
0.0517362
0.0546532
0.0581867
0.0625185
0.0679525
0.0749643
0.0843539
0.097582
0.115388
0.128231
0.114999
0.0949113
0.0352522
0.0349454
0.0346155
0.0342796
0.0339459
0.033606
0.0332723
0.0329535
0.0326484
0.0323604
0.0320929
0.0318444
0.0316164
0.0314087
0.0312245
0.0310643
0.0309283
0.0308215
0.0307465
0.0307033
0.0306959
0.0307313
0.0308186
0.0309521
0.031142
0.0313974
0.0317328
0.0321507
0.0326547
0.0332453
0.0339183
0.0346767
0.0355152
0.0364335
0.0374469
0.0385734
0.0398624
0.0416707
0.043721
0.0355585
0.0358607
0.0361835
0.0365285
0.0368888
0.037264
0.037645
0.0380149
0.0383688
0.0387093
0.0390413
0.0393611
0.0396796
0.0400005
0.0403321
0.0406898
0.0410718
0.0415043
0.0420011
0.0425745
0.0432615
0.0440878
0.0450923
0.046321
0.0478003
0.0495615
0.0516476
0.0541345
0.0571325
0.0607894
0.0653177
0.0710675
0.0785928
0.0890042
0.104435
0.127961
0.148179
0.126924
0.101888
0.0373026
0.0369767
0.0366256
0.0362678
0.0359071
0.0355416
0.035183
0.0348401
0.0345115
0.0341996
0.0339065
0.0336334
0.0333833
0.0331533
0.0329449
0.0327605
0.0326009
0.0324672
0.032366
0.0322992
0.0322636
0.0322702
0.0323277
0.0324326
0.0325923
0.0328139
0.033116
0.033497
0.0339664
0.0345206
0.0351651
0.0358984
0.0367218
0.0376378
0.0386671
0.0398343
0.0411992
0.0431008
0.045352
0.0376304
0.0379521
0.0382916
0.0386607
0.0390424
0.0394379
0.0398393
0.0402289
0.0406024
0.0409629
0.0413105
0.041645
0.0419756
0.0423114
0.042655
0.0430182
0.0434125
0.0438551
0.0443516
0.0449368
0.0456252
0.0464559
0.0474742
0.0487218
0.0502211
0.0520116
0.0541369
0.0566829
0.0597682
0.0635494
0.068275
0.0743299
0.0824139
0.0938637
0.111811
0.143231
0.178186
0.140584
0.109123
0.0394622
0.0391165
0.0387412
0.0383561
0.0379702
0.0375799
0.0371978
0.0368284
0.0364714
0.0361339
0.0358188
0.0355223
0.035246
0.0349902
0.0347585
0.0345504
0.0343661
0.0342085
0.0340793
0.0339853
0.0339247
0.0339027
0.0339297
0.0340057
0.0341332
0.0343257
0.0345927
0.0349403
0.0353726
0.0358943
0.0365099
0.0372185
0.0380268
0.0389419
0.0399863
0.0411949
0.0426329
0.0446244
0.0470591
0.0398079
0.0401502
0.040509
0.040899
0.0413068
0.0417244
0.042147
0.0425557
0.0429517
0.0433332
0.0436951
0.0440497
0.0443962
0.0447459
0.0451023
0.0454754
0.0458848
0.0463338
0.0468416
0.0474306
0.0481263
0.0489704
0.0499985
0.051261
0.0527882
0.0546069
0.0567797
0.0593931
0.0625594
0.0664587
0.0713722
0.0777389
0.0863446
0.0988175
0.119255
0.160605
0.231145
0.15533
0.116446
0.0417357
0.0413669
0.0409646
0.0405558
0.0401454
0.0397283
0.0393168
0.0389201
0.038538
0.0381736
0.0378324
0.0375097
0.0372098
0.0369317
0.0366717
0.0364384
0.0362295
0.0360468
0.0358919
0.0357696
0.0356813
0.035633
0.0356301
0.0356777
0.0357757
0.0359383
0.0361696
0.0364842
0.0368826
0.0373728
0.0379574
0.0386429
0.0394366
0.0403514
0.0414121
0.0426595
0.0441712
0.0462526
0.0488469
0.0421015
0.0424663
0.0428456
0.0432564
0.0436844
0.0441283
0.0445725
0.045006
0.0454218
0.0458245
0.0462057
0.0465801
0.0469462
0.0473101
0.047681
0.0480691
0.0484896
0.0489461
0.0494665
0.0500603
0.0507729
0.051624
0.0526689
0.0539544
0.0555012
0.0573569
0.0595775
0.0622444
0.0654944
0.0695181
0.0746057
0.0812433
0.0902971
0.103638
0.126171
0.177016
0.371073
0.168779
0.123455
0.044129
0.0437328
0.0433096
0.0428747
0.0424348
0.0419876
0.0415498
0.0411248
0.0407148
0.0403241
0.039954
0.0396066
0.0392796
0.0389763
0.0386932
0.0384331
0.0381961
0.0379877
0.0378075
0.0376602
0.0375429
0.0374645
0.0374347
0.0374536
0.0375239
0.0376541
0.0378555
0.0381359
0.0385021
0.0389619
0.0395173
0.0401812
0.0409617
0.0418748
0.0429505
0.0442356
0.0458199
0.047988
0.0507273
0.0445131
0.0448975
0.0453031
0.0457368
0.0461864
0.0466568
0.0471259
0.0475831
0.048023
0.0484456
0.0488552
0.0492491
0.0496315
0.0500116
0.0503982
0.0508014
0.0512352
0.051704
0.0522321
0.0528413
0.0535671
0.0544284
0.0554921
0.0567904
0.05837
0.0602612
0.06252
0.0652465
0.0685686
0.0726982
0.0779464
0.0848095
0.0942153
0.108118
0.131835
0.186747
0.534075
0.177206
0.129662
0.0466481
0.04623
0.045779
0.0453148
0.0448473
0.0443714
0.0439032
0.0434475
0.0430074
0.0425873
0.0421913
0.0418178
0.0414648
0.0411331
0.0408247
0.0405383
0.040276
0.0400396
0.039832
0.0396558
0.0395164
0.0394089
0.0393484
0.0393393
0.0393816
0.0394828
0.0396545
0.0399038
0.0402395
0.0406675
0.0411992
0.0418397
0.0426088
0.0435191
0.0446091
0.045935
0.0475847
0.0498354
0.0527015
0.0470589
0.047461
0.0478882
0.048348
0.0488203
0.0493167
0.0498138
0.0502936
0.0507564
0.0512034
0.051637
0.0520476
0.0524507
0.0528545
0.0532586
0.0536795
0.0541239
0.0546111
0.0551505
0.0557764
0.0565068
0.0573861
0.0584644
0.05979
0.0613959
0.063311
0.0656154
0.068394
0.0717806
0.0759944
0.0813545
0.0883527
0.0979667
0.112089
0.135644
0.185479
0.284772
0.179132
0.13476
0.0492998
0.0488586
0.0483788
0.0478873
0.0473904
0.0468814
0.0463805
0.0458961
0.045427
0.0449763
0.0445497
0.044148
0.0437672
0.0434084
0.0430759
0.0427617
0.0424715
0.0422076
0.0419745
0.0417694
0.0416018
0.04147
0.0413816
0.0413448
0.0413576
0.041432
0.0415736
0.041794
0.0421011
0.0425003
0.0430036
0.0436249
0.0443818
0.0452918
0.046399
0.0477603
0.0494717
0.0518025
0.0547798
0.0497342
0.0501622
0.0506119
0.0510973
0.0515979
0.0521122
0.0526364
0.0531441
0.0536309
0.0541008
0.054557
0.0549935
0.0554151
0.055836
0.0562657
0.0567056
0.0571626
0.0576613
0.0582202
0.0588572
0.0596014
0.0604988
0.0615893
0.0629394
0.0645629
0.0665147
0.0688556
0.0716636
0.0751025
0.0793873
0.0848008
0.0918644
0.101494
0.115376
0.137511
0.177433
0.222802
0.175148
0.138578
0.0520982
0.051627
0.0511196
0.0505998
0.050068
0.0495291
0.0489964
0.0484767
0.0479782
0.0474966
0.0470376
0.0466063
0.0461983
0.0458103
0.0454473
0.0451097
0.0447939
0.0445012
0.0442403
0.0440086
0.0438111
0.0436516
0.0435384
0.0434734
0.0434599
0.0435073
0.0436229
0.0438145
0.0440936
0.0444641
0.044944
0.0455483
0.0462902
0.0472047
0.0483254
0.0497195
0.0514943
0.0538993
0.056969
0.0525542
0.0530044
0.0534793
0.0539853
0.0545143
0.0550555
0.0556013
0.056137
0.0566524
0.057144
0.0576226
0.0580904
0.0585407
0.0589747
0.0594218
0.0598822
0.0603569
0.0608733
0.0614467
0.0620898
0.0628512
0.0637545
0.0648698
0.0662327
0.0678802
0.0698572
0.0722192
0.0750703
0.0785503
0.0828395
0.0882634
0.0953077
0.104734
0.117991
0.137802
0.167992
0.192922
0.168904
0.141078
0.055043
0.054546
0.0540105
0.053457
0.0528941
0.0523202
0.0517519
0.0512003
0.0506674
0.0501528
0.0496644
0.0492025
0.0487616
0.0483468
0.0479567
0.0475876
0.0472446
0.0469272
0.0466365
0.0463789
0.0461537
0.0459645
0.0458244
0.0457348
0.0456943
0.0457193
0.0458071
0.0459741
0.046223
0.0465692
0.047031
0.0476154
0.0483492
0.049263
0.0503974
0.0518238
0.0536562
0.0561268
0.059284
0.0555257
0.0559988
0.0565019
0.0570322
0.0575814
0.0581541
0.0587266
0.0592845
0.0598236
0.0603495
0.0608535