/*--------------------------------*- C++ -*----------------------------------*\
| =========                 |                                                 |
| \\      /  F ield         | OpenFOAM: The Open Source CFD Toolbox           |
|  \\    /   O peration     | Version:  2506                                  |
|   \\  /    A nd           | Website:  www.openfoam.com                      |
|    \\/     M anipulation  |                                                 |
\*---------------------------------------------------------------------------*/
FoamFile
{
    version     2.0;
    format      ascii;
    arch        "LSB;label=32;scalar=64";
    class       volScalarField;
    location    "400";
    object      turbulenceProperties:epsilon;
}
// * * * * * * * * * * * * * * * * * * * * * * * * * * * * * * * * * * * * * //

dimensions      [0 2 -3 0 0 0 0];

internalField   nonuniform List<scalar> 
1340
(
0.000201519
0.000204582
0.000206969
0.000145535
0.000148158
0.00015039
0.00015183
0.000152426
0.000106523
0.000108714
0.000110684
0.000112174
0.000113149
0.000113528
0.000113126
7.88238e-05
8.06167e-05
8.22863e-05
8.36587e-05
8.4715e-05
8.53987e-05
8.55625e-05
8.51548e-05
5.88956e-05
6.03489e-05
6.17375e-05
6.29418e-05
6.39607e-05
6.47404e-05
6.51731e-05
6.52231e-05
6.48555e-05
4.43768e-05
4.55497e-05
4.66858e-05
4.77117e-05
4.86339e-05
4.9398e-05
4.99326e-05
5.02106e-05
5.01979e-05
3.36873e-05
3.46288e-05
3.55517e-05
3.64133e-05
3.72158e-05
3.79184e-05
3.84681e-05
3.88453e-05
3.90219e-05
3.89603e-05
2.57412e-05
2.64936e-05
2.7242e-05
2.79561e-05
2.86391e-05
2.92603e-05
2.97802e-05
3.01816e-05
3.0445e-05
3.05406e-05
3.04512e-05
1.97834e-05
2.0384e-05
2.09904e-05
2.1576e-05
2.21508e-05
2.26859e-05
2.31543e-05
2.35428e-05
2.38368e-05
2.40121e-05
2.40572e-05
1.5282e-05
1.57633e-05
1.62516e-05
1.67316e-05
1.72094e-05
1.76646e-05
1.80737e-05
1.84306e-05
1.87218e-05
1.89296e-05
1.90436e-05
1.90533e-05
1.1859e-05
1.22443e-05
1.2638e-05
1.30294e-05
1.34247e-05
1.38062e-05
1.41582e-05
1.44748e-05
1.47462e-05
1.49589e-05
1.51055e-05
1.51771e-05
9.24062e-06
9.54888e-06
9.86622e-06
1.01847e-05
1.051e-05
1.08273e-05
1.11259e-05
1.14011e-05
1.16449e-05
1.18479e-05
1.20039e-05
1.2106e-05
1.21458e-05
7.2264e-06
7.47375e-06
7.72902e-06
7.98817e-06
8.2547e-06
8.51741e-06
8.76828e-06
9.00365e-06
9.21772e-06
9.40276e-06
9.55478e-06
9.6684e-06
9.73676e-06
5.66983e-06
5.86812e-06
6.07374e-06
6.28434e-06
6.50207e-06
6.71884e-06
6.92785e-06
7.12723e-06
7.31182e-06
7.47635e-06
7.6175e-06
7.7314e-06
7.81254e-06
7.85747e-06
4.46157e-06
4.6206e-06
4.78654e-06
4.95716e-06
5.13488e-06
5.31297e-06
5.48647e-06
5.65361e-06
5.81102e-06
5.95418e-06
6.08119e-06
6.18847e-06
6.2726e-06
6.3305e-06
3.52001e-06
3.64762e-06
3.78165e-06
3.91983e-06
4.0647e-06
4.21064e-06
4.35392e-06
4.49344e-06
4.62625e-06
4.74929e-06
4.86095e-06
4.95865e-06
5.03988e-06
5.10194e-06
2.78375e-06
2.88625e-06
2.99436e-06
3.10635e-06
3.2242e-06
3.3436e-06
3.46146e-06
3.57739e-06
3.68869e-06
3.79333e-06
3.88991e-06
3.97681e-06
4.05173e-06
4.11302e-06
4.15847e-06
2.20613e-06
2.28859e-06
2.37576e-06
2.46646e-06
2.5623e-06
2.6597e-06
2.75656e-06
2.85239e-06
2.94524e-06
3.03342e-06
3.11606e-06
3.19188e-06
3.25919e-06
3.31683e-06
3.36292e-06
1.75166e-06
1.81809e-06
1.88835e-06
1.96181e-06
2.03971e-06
2.11905e-06
2.19852e-06
2.27742e-06
2.35454e-06
2.42839e-06
2.49845e-06
2.56361e-06
2.62291e-06
2.67524e-06
2.71924e-06
1.39324e-06
1.44668e-06
1.50338e-06
1.56283e-06
1.62605e-06
1.6907e-06
1.75567e-06
1.82052e-06
1.88427e-06
1.94582e-06
2.00473e-06
2.06031e-06
2.11174e-06
2.15821e-06
2.19877e-06
2.23227e-06
1.10986e-06
1.15285e-06
1.19862e-06
1.24675e-06
1.29798e-06
1.35062e-06
1.40367e-06
1.45687e-06
1.5094e-06
1.5605e-06
1.60978e-06
1.65677e-06
1.70079e-06
1.74139e-06
1.77769e-06
1.809e-06
8.85315e-07
9.19946e-07
9.56863e-07
9.95799e-07
1.03736e-06
1.08013e-06
1.1234e-06
1.16697e-06
1.21016e-06
1.25239e-06
1.29341e-06
1.33283e-06
1.37021e-06
1.40518e-06
1.43717e-06
1.46556e-06
6.82491e-07
7.07078e-07
7.34951e-07
7.64739e-07
7.96226e-07
8.29903e-07
8.6464e-07
8.9988e-07
9.35502e-07
9.70906e-07
1.00571e-06
1.03972e-06
1.07263e-06
1.10414e-06
1.13397e-06
1.1617e-06
1.18685e-06
1.20884e-06
5.45551e-07
5.65336e-07
5.87764e-07
6.11806e-07
6.37261e-07
6.64532e-07
6.92731e-07
7.21412e-07
7.50472e-07
7.79467e-07
8.0808e-07
8.36163e-07
8.63511e-07
8.89896e-07
9.15111e-07
9.38878e-07
9.60822e-07
9.80533e-07
4.36522e-07
4.52437e-07
4.70488e-07
4.89888e-07
5.10458e-07
5.32539e-07
5.55405e-07
5.78729e-07
6.02412e-07
6.26128e-07
6.4958e-07
6.72705e-07
6.95349e-07
7.17331e-07
7.38513e-07
7.58683e-07
7.77576e-07
7.94878e-07
3.49589e-07
3.62389e-07
3.76913e-07
3.92559e-07
4.09185e-07
4.27045e-07
4.4558e-07
4.6452e-07
4.83814e-07
5.03164e-07
5.2236e-07
5.4136e-07
5.60042e-07
5.78269e-07
5.95951e-07
6.12939e-07
6.29048e-07
6.4401e-07
6.57552e-07
2.80188e-07
2.90474e-07
3.0216e-07
3.14775e-07
3.28205e-07
3.42649e-07
3.57668e-07
3.73051e-07
3.88742e-07
4.04498e-07
4.20185e-07
4.35759e-07
4.51117e-07
4.66177e-07
4.80872e-07
4.95093e-07
5.08691e-07
5.21487e-07
5.3326e-07
2.24714e-07
2.32977e-07
2.42377e-07
2.52543e-07
2.63388e-07
2.75067e-07
2.87229e-07
2.99714e-07
3.12449e-07
3.25281e-07
3.38083e-07
3.50821e-07
3.63421e-07
3.75818e-07
3.8798e-07
3.99813e-07
4.1121e-07
4.22042e-07
4.32146e-07
1.80322e-07
1.86961e-07
1.94519e-07
2.02705e-07
2.11463e-07
2.20901e-07
2.30744e-07
2.40862e-07
2.51207e-07
2.61645e-07
2.72079e-07
2.82472e-07
2.92783e-07
3.02963e-07
3.12992e-07
3.22791e-07
3.3229e-07
3.41387e-07
3.49959e-07
1.44768e-07
1.50099e-07
1.56172e-07
1.62764e-07
1.69831e-07
1.77458e-07
1.85422e-07
1.9362e-07
2.02019e-07
2.10496e-07
2.18982e-07
2.27458e-07
2.35883e-07
2.44223e-07
2.52457e-07
2.60537e-07
2.68414e-07
2.76005e-07
2.8321e-07
1.1627e-07
1.20546e-07
1.25422e-07
1.30731e-07
1.36431e-07
1.42592e-07
1.49033e-07
1.55676e-07
1.62484e-07
1.69368e-07
1.76269e-07
1.83172e-07
1.90042e-07
1.96856e-07
2.03601e-07
2.10242e-07
2.16741e-07
2.23033e-07
2.29044e-07
2.34679e-07
9.34097e-08
9.68371e-08
1.00749e-07
1.05024e-07
1.0962e-07
1.14595e-07
1.19803e-07
1.25184e-07
1.30705e-07
1.36291e-07
1.41898e-07
1.47509e-07
1.53103e-07
1.58662e-07
1.64173e-07
1.69614e-07
1.74953e-07
1.80141e-07
1.85127e-07
1.89829e-07
7.50585e-08
7.78037e-08
8.09408e-08
8.43811e-08
8.8086e-08
9.21021e-08
9.63159e-08
1.00671e-07
1.05146e-07
1.09677e-07
1.14229e-07
1.18788e-07
1.23339e-07
1.27865e-07
1.3236e-07
1.36803e-07
1.41173e-07
1.45436e-07
1.49545e-07
1.53438e-07
6.03195e-08
6.25158e-08
6.50305e-08
6.77975e-08
7.07851e-08
7.40271e-08
7.74339e-08
8.0961e-08
8.45866e-08
8.82624e-08
9.19576e-08
9.56607e-08
9.93562e-08
1.03037e-07
1.06696e-07
1.10317e-07
1.13883e-07
1.1737e-07
1.20738e-07
1.23944e-07
4.84763e-08
5.02308e-08
5.22464e-08
5.44704e-08
5.68792e-08
5.94966e-08
6.22518e-08
6.51081e-08
6.80474e-08
7.10286e-08
7.40265e-08
7.70316e-08
8.00332e-08
8.30221e-08
8.59955e-08
8.89402e-08
9.1844e-08
9.4685e-08
9.74367e-08
1.0006e-07
3.89558e-08
4.0356e-08
4.197e-08
4.37578e-08
4.56991e-08
4.78126e-08
5.00422e-08
5.23559e-08
5.47393e-08
5.71568e-08
5.95896e-08
6.20293e-08
6.44654e-08
6.6891e-08
6.93041e-08
7.16946e-08
7.40527e-08
7.63619e-08
7.85999e-08
8.07359e-08
8.27317e-08
3.12999e-08
3.24163e-08
3.37076e-08
3.51449e-08
3.67094e-08
3.84169e-08
4.02212e-08
4.20969e-08
4.40305e-08
4.59927e-08
4.7967e-08
4.99472e-08
5.1923e-08
5.3891e-08
5.5848e-08
5.77863e-08
5.96976e-08
6.15688e-08
6.33826e-08
6.51147e-08
6.67345e-08
2.51419e-08
2.60311e-08
2.70638e-08
2.82187e-08
2.94802e-08
3.08602e-08
3.23215e-08
3.38436e-08
3.54132e-08
3.70062e-08
3.86096e-08
4.02169e-08
4.18202e-08
4.34164e-08
4.50024e-08
4.65723e-08
4.81194e-08
4.96338e-08
5.11002e-08
5.24997e-08
5.3808e-08
2.01882e-08
2.08955e-08
2.17208e-08
2.26487e-08
2.36662e-08
2.47824e-08
2.59672e-08
2.7203e-08
2.84782e-08
2.97734e-08
3.10764e-08
3.23824e-08
3.36839e-08
3.49786e-08
3.62634e-08
3.75341e-08
3.8785e-08
4.00074e-08
4.11902e-08
4.23176e-08
4.33698e-08
1.62028e-08
1.67647e-08
1.74238e-08
1.81694e-08
1.89908e-08
1.98942e-08
2.08561e-08
2.18606e-08
2.28983e-08
2.39525e-08
2.50127e-08
2.60743e-08
2.71316e-08
2.81816e-08
2.92227e-08
3.02509e-08
3.12613e-08
3.2247e-08
3.31993e-08
3.41053e-08
3.49485e-08
1.29965e-08
1.34422e-08
1.39684e-08
1.45678e-08
1.52309e-08
1.59633e-08
1.67451e-08
1.75633e-08
1.84091e-08
1.9268e-08
2.01317e-08
2.09956e-08
2.18552e-08
2.27079e-08
2.35519e-08
2.43836e-08
2.51995e-08
2.59939e-08
2.67594e-08
2.74858e-08
2.81601e-08
2.87693e-08
1.04172e-08
1.07703e-08
1.11901e-08
1.1672e-08
1.2208e-08
1.28025e-08
1.34393e-08
1.41068e-08
1.47974e-08
1.54985e-08
1.62031e-08
1.69073e-08
1.76071e-08
1.83001e-08
1.89847e-08
1.96579e-08
2.0317e-08
2.09568e-08
2.15714e-08
2.21527e-08
2.26906e-08
2.31742e-08
8.34272e-09
8.62195e-09
8.95679e-09
9.34436e-09
9.77832e-09
1.02618e-08
1.07814e-08
1.1327e-08
1.18919e-08
1.24655e-08
1.30416e-08
1.36167e-08
1.41872e-08
1.47511e-08
1.53068e-08
1.58522e-08
1.63847e-08
1.68999e-08
1.7393e-08
1.7858e-08
1.82861e-08
1.86688e-08
6.67467e-09
6.89517e-09
7.16203e-09
7.47406e-09
7.82596e-09
8.21988e-09
8.64488e-09
9.092e-09
9.55518e-09
1.00255e-08
1.04974e-08
1.0968e-08
1.1434e-08
1.18936e-08
1.23455e-08
1.27877e-08
1.3218e-08
1.3633e-08
1.40289e-08
1.44003e-08
1.47405e-08
1.5043e-08
5.33396e-09
5.50773e-09
5.72039e-09
5.9719e-09
6.25772e-09
6.57945e-09
6.92799e-09
7.29529e-09
7.67609e-09
8.06264e-09
8.45023e-09
8.83619e-09
9.21757e-09
9.59287e-09
9.9609e-09
1.032e-08
1.06681e-08
1.10029e-08
1.13208e-08
1.16173e-08
1.18874e-08
1.21261e-08
4.25688e-09
4.39353e-09
4.56298e-09
4.76595e-09
4.99861e-09
5.26219e-09
5.54873e-09
5.85134e-09
6.16528e-09
6.48395e-09
6.80313e-09
7.12039e-09
7.43324e-09
7.74037e-09
8.04077e-09
8.33288e-09
8.61503e-09
8.88518e-09
9.14044e-09
9.37736e-09
9.5919e-09
9.77987e-09
3.3921e-09
3.49935e-09
3.63433e-09
3.79842e-09
3.98837e-09
4.20486e-09
4.44115e-09
4.6912e-09
4.95083e-09
5.21425e-09
5.47782e-09
5.73933e-09
5.99668e-09
6.24869e-09
6.49435e-09
6.73243e-09
6.96154e-09
7.17995e-09
7.38525e-09
7.57479e-09
7.74513e-09
7.89306e-09
2.6983e-09
2.78228e-09
2.8898e-09
3.02277e-09
3.17831e-09
3.35662e-09
3.55209e-09
3.75938e-09
3.97472e-09
4.19312e-09
4.4114e-09
4.62766e-09
4.83999e-09
5.04726e-09
5.24869e-09
5.44329e-09
5.62991e-09
5.80689e-09
5.97241e-09
6.12423e-09
6.25961e-09
6.37605e-09
6.47099e-09
2.14218e-09
2.20776e-09
2.29343e-09
2.40149e-09
2.52919e-09
2.67652e-09
2.8388e-09
3.01114e-09
3.19034e-09
3.37198e-09
3.55336e-09
3.73278e-09
3.90847e-09
4.07947e-09
4.24521e-09
4.40481e-09
4.55723e-09
4.70114e-09
4.83494e-09
4.9568e-09
5.06459e-09
5.15633e-09
5.23015e-09
1.69688e-09
1.74794e-09
1.81626e-09
1.90436e-09
2.00951e-09
2.13165e-09
2.2668e-09
2.41052e-09
2.56013e-09
2.7117e-09
2.86293e-09
3.01231e-09
3.15813e-09
3.29969e-09
3.43653e-09
3.56792e-09
3.69287e-09
3.81021e-09
3.91862e-09
4.0166e-09
4.10247e-09
4.17476e-09
4.23209e-09
1.34077e-09
1.38037e-09
1.43494e-09
1.50702e-09
1.59384e-09
1.69547e-09
1.80836e-09
1.92854e-09
2.05386e-09
2.1807e-09
2.30725e-09
2.43211e-09
2.5536e-09
2.67112e-09
2.7845e-09
2.89301e-09
2.9956e-09
3.0913e-09
3.17906e-09
3.25771e-09
3.326e-09
3.38284e-09
3.42723e-09
1.05638e-09
1.087e-09
1.13065e-09
1.18984e-09
1.26173e-09
1.3466e-09
1.44115e-09
1.54188e-09
1.64722e-09
1.75357e-09
1.8599e-09
1.96477e-09
2.06628e-09
2.16407e-09
2.2581e-09
2.34762e-09
2.43162e-09
2.50932e-09
2.58001e-09
2.64285e-09
2.69689e-09
2.74134e-09
2.7756e-09
8.2964e-10
8.53233e-10
8.88239e-10
9.37027e-10
9.96706e-10
1.06787e-09
1.14715e-09
1.23184e-09
1.32066e-09
1.40993e-09
1.49983e-09
1.58834e-09
1.67306e-09
1.75413e-09
1.83182e-09
1.9053e-09
1.97366e-09
2.0364e-09
2.09311e-09
2.14315e-09
2.18578e-09
2.22044e-09
2.24674e-09
6.4925e-10
6.67393e-10
6.95535e-10
7.35867e-10
7.85511e-10
8.45402e-10
9.11841e-10
9.83327e-10
1.05833e-09
1.13323e-09
1.21018e-09
1.28519e-09
1.3551e-09
1.42149e-09
1.4853e-09
1.54543e-09
1.60096e-09
1.65167e-09
1.69733e-09
1.7374e-09
1.77122e-09
1.79834e-09
1.81852e-09
5.06129e-10
5.20069e-10
5.42751e-10
5.76161e-10
6.17524e-10
6.68065e-10
7.23476e-10
7.84204e-10
8.47345e-10
9.09933e-10
9.76804e-10
1.04032e-09
1.09696e-09
1.15079e-09
1.20341e-09
1.25308e-09
1.29868e-09
1.34022e-09
1.37752e-09
1.41e-09
1.43707e-09
1.45836e-09
1.47377e-09
3.9289e-10
4.03583e-10
4.21942e-10
4.49669e-10
4.84271e-10
5.26972e-10
5.72842e-10
6.2505e-10
6.77235e-10
7.29271e-10
7.88372e-10
8.41406e-10
8.8644e-10
9.30707e-10
9.75256e-10
1.01717e-09
1.05531e-09
1.08996e-09
1.12093e-09
1.14757e-09
1.1694e-09
1.18617e-09
1.19791e-09
1.20499e-09
3.03666e-10
3.11826e-10
3.2678e-10
3.49892e-10
3.78946e-10
4.14995e-10
4.52845e-10
4.98486e-10
5.38918e-10
5.83854e-10
6.38685e-10
6.80717e-10
7.14441e-10
7.52146e-10
7.91553e-10
8.27521e-10
8.59593e-10
8.88681e-10
9.14562e-10
9.36527e-10
9.54146e-10
9.67354e-10
9.76314e-10
9.81324e-10
2.34667e-10
2.40848e-10
2.53073e-10
2.72268e-10
2.96541e-10
3.26554e-10
3.57617e-10
3.97385e-10
4.2479e-10
4.66928e-10
5.20798e-10
5.51813e-10
5.73825e-10
6.07453e-10
6.44364e-10
6.75946e-10
7.03046e-10
7.27648e-10
7.49465e-10
7.67647e-10
7.81885e-10
7.92286e-10
7.99116e-10
8.02892e-10
1.857e-10
1.90371e-10
2.00248e-10
2.1567e-10
2.35308e-10
2.58842e-10
2.83125e-10
3.14817e-10
3.29754e-10
3.68819e-10
4.19574e-10
4.42274e-10
4.58314e-10
4.91638e-10
5.2877e-10
5.58958e-10
5.84035e-10
6.06772e-10
6.26925e-10
6.43571e-10
6.56475e-10
6.65695e-10
6.71618e-10
6.74748e-10
1.51022e-10
1.54549e-10
1.62282e-10
1.74219e-10
1.89416e-10
2.06551e-10
2.24505e-10
2.46329e-10
2.5394e-10
2.83497e-10
3.27138e-10
3.46045e-10
3.63247e-10
3.96857e-10
4.3378e-10
4.64109e-10
4.89321e-10
5.1202e-10
5.32146e-10
5.48781e-10
5.61619e-10
5.70709e-10
5.76494e-10
5.79254e-10
1.22402e-10
1.25066e-10
1.31026e-10
1.40159e-10
1.51666e-10
1.63763e-10
1.76818e-10
1.90587e-10
1.94369e-10
2.13498e-10
2.4857e-10
2.65487e-10
2.85378e-10
3.17413e-10
3.52121e-10
3.81866e-10
4.07057e-10
4.29511e-10
4.49319e-10
4.65683e-10
4.78209e-10
4.87006e-10
4.92542e-10
4.95265e-10
9.73497e-11
9.93516e-11
1.03882e-10
1.10766e-10
1.1927e-10
1.27572e-10
1.36942e-10
1.4483e-10
1.46545e-10
1.58357e-10
1.86123e-10
2.0067e-10
2.22229e-10
2.52042e-10
2.836e-10
3.11708e-10
3.36111e-10
3.57721e-10
3.7664e-10
3.92306e-10
4.04288e-10
4.12657e-10
4.17749e-10
4.19923e-10
7.61983e-11
7.7694e-11
8.10737e-11
8.61586e-11
9.22138e-11
9.77155e-11
1.04166e-10
1.07898e-10
1.08449e-10
1.15128e-10
1.36813e-10
1.48775e-10
1.70849e-10
1.98307e-10
2.26433e-10
2.52216e-10
2.75252e-10
2.95651e-10
3.13369e-10
3.28002e-10
3.39203e-10
3.47071e-10
3.51992e-10
3.5445e-10
5.86337e-11
5.97378e-11
6.21761e-11
6.57977e-11
6.98645e-11
7.33547e-11
7.74413e-11
7.84653e-11
7.83739e-11
8.15708e-11
9.82341e-11
1.07868e-10
1.29285e-10
1.5422e-10
1.79012e-10
2.02225e-10
2.23565e-10
2.42602e-10
2.59059e-10
2.72526e-10
2.82592e-10
2.89143e-10
2.92325e-10
2.92678e-10
4.44229e-11
4.52111e-11
4.68421e-11
4.92097e-11
5.16461e-11
5.36842e-11
5.58346e-11
5.54095e-11
5.49305e-11
5.59306e-11
6.83423e-11
7.61157e-11
9.59267e-11
1.1827e-10
1.40051e-10
1.60747e-10
1.80228e-10
1.97789e-10
2.13031e-10
2.25705e-10
2.35652e-10
2.42971e-10
2.48094e-10
2.51499e-10
3.32072e-11
3.37426e-11
3.46897e-11
3.59585e-11
3.70492e-11
3.79349e-11
3.84759e-11
3.76e-11
3.67549e-11
3.67169e-11
4.56684e-11
5.2076e-11
6.95899e-11
8.93356e-11
1.08473e-10
1.26917e-10
1.44662e-10
1.60658e-10
1.74025e-10
1.84288e-10
1.91126e-10
1.94312e-10
1.93939e-10
1.90944e-10
1.86901e-10
2.44954e-11
2.48475e-11
2.52598e-11
2.56321e-11
2.56699e-11
2.55654e-11
2.48289e-11
2.40646e-11
2.2615e-11
2.27576e-11
2.9165e-11
3.44806e-11
4.94008e-11
6.66638e-11
8.33502e-11
9.96868e-11
1.16196e-10
1.32069e-10
1.46412e-10
1.58834e-10
1.69385e-10
1.78619e-10
1.87414e-10
1.95738e-10
2.01903e-10
1.78916e-11
1.80749e-11
1.80014e-11
1.76283e-11
1.6912e-11
1.60875e-11
1.47338e-11
1.43416e-11
1.2293e-11
1.38947e-11
1.8095e-11
2.20944e-11
3.44619e-11
4.96181e-11
6.42031e-11
7.81325e-11
9.182e-11
1.04505e-10
1.15321e-10
1.23676e-10
1.28898e-10
1.3048e-10
1.28806e-10
1.26171e-10
1.25475e-10
1.33882e-11
1.33144e-11
1.25927e-11
1.13929e-11
1.00311e-11
8.81286e-12
7.68031e-12
7.86872e-12
6.17285e-12
9.9783e-12
1.16768e-11
1.39174e-11
2.34391e-11
3.64053e-11
5.04525e-11
6.62367e-11
8.41846e-11
1.0346e-10
1.23334e-10
1.43976e-10
1.66486e-10
1.92727e-10
2.23546e-10
2.54604e-10
2.78131e-10
1.10279e-11
1.06485e-11
9.20967e-12
7.13406e-12
5.08678e-12
3.53667e-12
2.81998e-12
3.41703e-12
3.22207e-12
8.21726e-12
8.56119e-12
1.00965e-11
1.66769e-11
2.59983e-11
3.74324e-11
5.3064e-11
7.40628e-11
1.00076e-10
1.30346e-10
1.63907e-10
1.99157e-10
2.34171e-10
2.67526e-10
2.97124e-10
3.22642e-10
1.0014e-11
9.45931e-12
7.63194e-12
5.09064e-12
2.64838e-12
9.11955e-13
3.84211e-13
1.08809e-12
2.34279e-12
5.60326e-12
4.03473e-12
1.00263e-11
2.53332e-11
4.99254e-11
8.44152e-11
1.29828e-10
1.87259e-10
2.57047e-10
3.3804e-10
4.27595e-10
5.20096e-10
6.06525e-10
6.74484e-10
7.15933e-10
7.44683e-10
)
;

boundaryField
{
    inlet
    {
        type            calculated;
        value           nonuniform List<scalar> 
25
(
9.15298e-12
8.61281e-12
6.90457e-12
4.5282e-12
2.22602e-12
6.16541e-13
2.52756e-13
1.26856e-12
3.35875e-12
2.94864e-12
1.41472e-11
5.10629e-11
1.4938e-10
3.37389e-10
6.44021e-10
1.09977e-09
1.73755e-09
2.58724e-09
3.6715e-09
4.99923e-09
6.55592e-09
8.28408e-09
1.0081e-08
1.18002e-08
1.33565e-08
)
;
    }
    outlet
    {
        type            calculated;
        value           nonuniform List<scalar> 0();
    }
    walls
    {
        type            calculated;
        value           nonuniform List<scalar> 0();
    }
    frontAndBack
    {
        type            empty;
    }
    procBoundary4to0
    {
        type            processor;
        value           nonuniform List<scalar> 
72
(
0.000197876
0.000142638
0.000104215
7.69963e-05
5.74539e-05
4.32426e-05
3.27917e-05
2.50317e-05
1.92212e-05
1.48371e-05
1.1506e-05
8.95968e-06
7.00266e-06
5.49123e-06
4.31893e-06
3.40597e-06
2.69234e-06
2.13281e-06
1.69288e-06
1.346e-06
1.07186e-06
8.54762e-07
8.54762e-07
6.59187e-07
5.26872e-07
4.21547e-07
3.37584e-07
2.70558e-07
2.16996e-07
1.74144e-07
1.39824e-07
1.12316e-07
9.02496e-08
7.25371e-08
5.83104e-08
4.68772e-08
3.7685e-08
3.0292e-08
2.43442e-08
1.95583e-08
1.57066e-08
1.26065e-08
1.01116e-08
8.10401e-09
6.48887e-09
5.1899e-09
4.14567e-09
3.30668e-09
2.63304e-09
2.09264e-09
1.65956e-09
1.31288e-09
1.03573e-09
8.14528e-10
6.38371e-10
4.98459e-10
3.87607e-10
3.00109e-10
2.32259e-10
1.83904e-10
1.49594e-10
1.21296e-10
9.65151e-11
7.5577e-11
5.81595e-11
4.40329e-11
3.28512e-11
2.41404e-11
1.74974e-11
1.29104e-11
1.04633e-11
9.42343e-12
)
;
    }
    procBoundary4to5
    {
        type            processor;
        value           nonuniform List<scalar> 
95
(
0.00028283
0.000286062
0.000288089
0.000208084
0.000208084
0.000207795
0.000152072
0.000152072
0.000150546
0.000111884
0.000111884
8.41487e-05
8.41487e-05
6.40112e-05
4.98489e-05
4.98489e-05
3.86405e-05
3.86405e-05
3.0164e-05
2.39564e-05
2.39564e-05
1.89448e-05
1.51632e-05
1.51632e-05
1.21174e-05
9.75571e-06
9.75571e-06
7.8613e-06
6.35806e-06
5.14212e-06
5.14212e-06
4.18552e-06
3.39551e-06
2.75356e-06
2.75356e-06
2.25748e-06
1.83431e-06
1.48956e-06
1.48956e-06
1.22712e-06
9.97528e-07
8.10195e-07
8.10195e-07
6.69314e-07
5.43728e-07
4.41292e-07
3.57832e-07
2.89906e-07
2.89906e-07
2.3982e-07
1.94157e-07
1.57044e-07
1.26925e-07
1.02506e-07
1.02506e-07
8.4549e-08
6.82108e-08
5.49998e-08
4.43267e-08
3.57136e-08
3.57136e-08
2.92949e-08
2.35892e-08
1.89956e-08
1.52995e-08
1.23267e-08
9.93642e-09
8.01504e-09
8.01504e-09
6.5429e-09
5.28515e-09
4.27394e-09
3.45901e-09
2.79966e-09
2.26478e-09
1.83196e-09
1.48364e-09
1.48364e-09
1.20811e-09
9.83018e-10
8.04033e-10
6.75453e-10
5.79515e-10
4.95757e-10
4.19854e-10
3.55067e-10
2.91064e-10
2.53286e-10
2.53286e-10
1.8292e-10
2.0519e-10
1.27067e-10
2.92412e-10
3.48559e-10
7.47588e-10
)
;
    }
}


// ************************************************************************* //
