/*--------------------------------*- C++ -*----------------------------------*\
| =========                 |                                                 |
| \\      /  F ield         | OpenFOAM: The Open Source CFD Toolbox           |
|  \\    /   O peration     | Version:  2506                                  |
|   \\  /    A nd           | Website:  www.openfoam.com                      |
|    \\/     M anipulation  |                                                 |
\*---------------------------------------------------------------------------*/
FoamFile
{
    version     2.0;
    format      ascii;
    arch        "LSB;label=32;scalar=64";
    class       volSymmTensorField;
    location    "400";
    object      turbulenceProperties:devReff;
}
// * * * * * * * * * * * * * * * * * * * * * * * * * * * * * * * * * * * * * //

dimensions      [0 2 -2 0 0 0 0];

internalField   nonuniform List<symmTensor> 
1340
(
(7.13499e-05 -9.16826e-05 3.42254e-21 -7.13981e-05 7.8091e-22 4.82265e-08)
(5.50561e-05 -0.000103325 5.46839e-20 -5.50189e-05 4.39724e-20 -3.7192e-08)
(3.63547e-05 -0.000111998 -2.21774e-20 -3.63582e-05 -1.6912e-20 3.41925e-09)
(5.99158e-05 -7.84663e-05 1.57864e-20 -5.99625e-05 1.16944e-20 4.6695e-08)
(4.62169e-05 -8.82606e-05 -1.18486e-20 -4.62056e-05 -9.26543e-21 -1.1356e-08)
(3.05103e-05 -9.56214e-05 -3.49253e-20 -3.05364e-05 -2.38011e-20 2.61461e-08)
(1.3792e-05 -9.99054e-05 2.34288e-19 -1.38217e-05 1.7076e-19 2.97148e-08)
(-4.05486e-06 -0.000100972 -5.43302e-20 4.04373e-06 -4.22346e-20 1.1132e-08)
(5.06025e-05 -6.7633e-05 6.68109e-21 -5.0631e-05 5.20132e-21 2.84174e-08)
(3.89807e-05 -7.59227e-05 -2.66077e-20 -3.89652e-05 -1.74507e-20 -1.54539e-08)
(2.56662e-05 -8.21953e-05 -1.17726e-19 -2.56811e-05 -7.83441e-20 1.48972e-08)
(1.15138e-05 -8.59216e-05 -1.09242e-20 -1.15239e-05 -1.14101e-20 1.00622e-08)
(-3.60962e-06 -8.69918e-05 -1.69808e-20 3.61506e-06 -5.95936e-21 -5.43748e-09)
(-1.8717e-05 -8.51814e-05 1.52964e-19 1.87107e-05 9.75393e-20 6.27746e-09)
(-3.30352e-05 -8.05504e-05 2.20256e-20 3.30214e-05 2.39055e-20 1.38126e-08)
(4.29187e-05 -5.86328e-05 -1.49596e-20 -4.29395e-05 -8.01178e-21 2.08586e-08)
(3.29719e-05 -6.56819e-05 -8.91136e-20 -3.2961e-05 -5.6259e-20 -1.09076e-08)
(2.15955e-05 -7.10365e-05 3.55614e-20 -2.16095e-05 2.45512e-20 1.4009e-08)
(9.52591e-06 -7.42567e-05 2.63694e-20 -9.53451e-06 1.61775e-20 8.60112e-09)
(-3.38556e-06 -7.52613e-05 1.07485e-19 3.38658e-06 6.66994e-20 -1.02134e-09)
(-1.63123e-05 -7.38626e-05 -1.55641e-19 1.6302e-05 -1.05687e-19 1.03361e-08)
(-2.86166e-05 -7.01011e-05 2.00207e-19 2.86011e-05 1.0151e-19 1.55824e-08)
(-3.99807e-05 -6.40877e-05 -5.18976e-19 3.99724e-05 -2.8804e-19 8.2641e-09)
(3.65441e-05 -5.10848e-05 2.55298e-20 -3.65599e-05 1.5252e-20 1.58576e-08)
(2.79688e-05 -5.71066e-05 2.30678e-20 -2.79587e-05 1.44555e-20 -1.01565e-08)
(1.81819e-05 -6.16882e-05 7.58644e-21 -1.81939e-05 6.03052e-21 1.19755e-08)
(7.81885e-06 -6.44657e-05 -1.28179e-20 -7.82279e-06 -8.18499e-21 3.93666e-09)
(-3.27051e-06 -6.53805e-05 9.67726e-20 3.27493e-06 5.14027e-20 -4.42309e-09)
(-1.43873e-05 -6.42705e-05 -8.30124e-20 1.4381e-05 -4.6444e-20 6.2376e-09)
(-2.50057e-05 -6.11682e-05 -2.5925e-19 2.49967e-05 -1.50085e-19 9.00885e-09)
(-3.48721e-05 -5.61605e-05 2.77051e-19 3.48702e-05 1.90848e-19 1.94485e-09)
(-4.3533e-05 -4.95048e-05 9.18516e-20 4.3522e-05 5.8048e-20 1.10414e-08)
(3.12164e-05 -4.47013e-05 -4.33695e-21 -3.12292e-05 -1.16874e-21 1.27354e-08)
(2.37803e-05 -4.98639e-05 -1.23819e-20 -2.37715e-05 -6.06618e-21 -8.71366e-09)
(1.53087e-05 -5.37897e-05 -4.98411e-20 -1.53204e-05 -2.69216e-20 1.16877e-08)
(6.35602e-06 -5.61804e-05 2.37035e-20 -6.35789e-06 1.04715e-20 1.87107e-09)
(-3.21725e-06 -5.69923e-05 -7.50816e-20 3.22095e-06 -4.4958e-20 -3.70555e-09)
(-1.28242e-05 -5.60833e-05 1.75307e-19 1.28175e-05 1.00628e-19 6.74139e-09)
(-2.20193e-05 -5.3487e-05 -9.97789e-21 2.20117e-05 1.73531e-20 7.56455e-09)
(-3.05969e-05 -4.92753e-05 9.67672e-20 3.05952e-05 1.91615e-20 1.65386e-09)
(-3.8187e-05 -4.3651e-05 7.59293e-20 3.81784e-05 1.93381e-20 8.59974e-09)
(2.67419e-05 -3.92632e-05 -5.32092e-20 -2.67502e-05 -2.9189e-20 8.30151e-09)
(2.02599e-05 -4.37007e-05 8.14322e-20 -2.02526e-05 4.31468e-20 -7.34942e-09)
(1.28857e-05 -4.70718e-05 -6.08402e-20 -1.28962e-05 -3.06311e-20 1.05674e-08)
(5.11561e-06 -4.91278e-05 3.4547e-20 -5.1147e-06 1.27438e-20 -9.1721e-10)
(-3.1879e-06 -4.98329e-05 -2.02124e-19 3.19092e-06 -9.95971e-20 -3.02365e-09)
(-1.15249e-05 -4.90694e-05 1.10937e-19 1.15211e-05 5.0064e-20 3.82467e-09)
(-1.95156e-05 -4.68685e-05 2.74291e-19 1.9511e-05 1.28504e-19 4.64621e-09)
(-2.69944e-05 -4.32899e-05 -3.89511e-19 2.69936e-05 -1.99842e-19 8.89675e-10)
(-3.36517e-05 -3.85001e-05 -1.9116e-19 3.36468e-05 -8.45518e-20 4.94561e-09)
(-3.92974e-05 -3.26538e-05 1.60871e-19 3.92932e-05 6.56881e-20 4.19937e-09)
(2.29635e-05 -3.46001e-05 2.71282e-20 -2.29686e-05 1.3072e-20 5.12269e-09)
(1.72862e-05 -3.84229e-05 1.41075e-20 -1.72816e-05 8.01375e-21 -4.68577e-09)
(1.08384e-05 -4.13238e-05 4.01734e-20 -1.08469e-05 2.01794e-20 8.46276e-09)
(4.06485e-06 -4.30879e-05 -1.16341e-19 -4.06431e-06 -5.74316e-20 -5.417e-10)
(-3.16934e-06 -4.369e-05 2.19144e-19 3.17233e-06 1.09935e-19 -2.98755e-09)
(-1.04323e-05 -4.30314e-05 -4.1431e-19 1.04286e-05 -1.98046e-19 3.73663e-09)
(-1.73949e-05 -4.11437e-05 -1.719e-19 1.73917e-05 -8.10944e-20 3.13088e-09)
(-2.39299e-05 -3.80735e-05 2.20006e-19 2.39294e-05 1.28508e-19 5.40626e-10)
(-2.97747e-05 -3.39628e-05 1.12784e-19 2.97699e-05 5.57807e-20 4.87166e-09)
(-3.47662e-05 -2.89434e-05 -1.04812e-19 3.4762e-05 -6.40742e-20 4.13384e-09)
(-3.87886e-05 -2.3148e-05 -2.93673e-20 3.87854e-05 -1.17986e-20 3.22111e-09)
(1.97622e-05 -3.05752e-05 -2.85202e-20 -1.97659e-05 -1.25287e-20 3.68016e-09)
(1.47671e-05 -3.3878e-05 -2.16819e-20 -1.4763e-05 -1.1296e-20 -4.08178e-09)
(9.10928e-06 -3.63776e-05 6.99472e-20 -9.11697e-06 3.30585e-20 7.68917e-09)
(3.17895e-06 -3.78883e-05 1.71689e-20 -3.17764e-06 8.78329e-21 -1.30569e-09)
(-3.1465e-06 -3.83958e-05 1.00917e-19 3.14901e-06 4.63577e-20 -2.51945e-09)
(-9.49383e-06 -3.7814e-05 5.86397e-19 9.49076e-06 2.85062e-19 3.07099e-09)
(-1.55807e-05 -3.61756e-05 1.01156e-19 1.55774e-05 4.62053e-20 3.21503e-09)
(-2.13012e-05 -3.35211e-05 9.82371e-20 2.13014e-05 2.90593e-20 -2.35767e-10)
(-2.64347e-05 -2.99731e-05 -7.9866e-20 2.64317e-05 -3.72766e-20 3.01803e-09)
(-3.085e-05 -2.56362e-05 -6.98655e-20 3.08469e-05 -2.53963e-20 3.0677e-09)
(-3.44479e-05 -2.0622e-05 -6.05397e-20 3.4446e-05 -2.37106e-20 1.90487e-09)
(1.70363e-05 -2.7085e-05 2.32691e-20 -1.70393e-05 9.41381e-21 2.96258e-09)
(1.2627e-05 -2.9946e-05 7.51255e-20 -1.26228e-05 3.37031e-20 -4.23676e-09)
(7.64443e-06 -3.20996e-05 7.86601e-20 -7.65215e-06 3.52309e-20 7.72497e-09)
(2.4346e-06 -3.33936e-05 -1.17182e-19 -2.43234e-06 -5.49563e-20 -2.25289e-09)
(-3.11365e-06 -3.38137e-05 -1.96099e-19 3.11581e-06 -9.25824e-20 -2.15609e-09)
(-8.6772e-06 -3.3291e-05 -1.29711e-19 8.67489e-06 -7.3747e-20 2.30593e-09)
(-1.40117e-05 -3.1854e-05 -1.34967e-19 1.40097e-05 -5.7273e-20 1.97003e-09)
(-1.90313e-05 -2.95412e-05 -7.79328e-20 1.90318e-05 -4.15032e-20 -4.31865e-10)
(-2.35467e-05 -2.64576e-05 1.28967e-19 2.3544e-05 6.01364e-20 2.727e-09)
(-2.74486e-05 -2.26922e-05 -5.89789e-21 2.74466e-05 -2.99688e-21 2.02507e-09)
(-3.06565e-05 -1.83353e-05 2.45722e-20 3.06543e-05 1.25114e-20 2.2066e-09)
(-3.30761e-05 -1.35148e-05 -6.71775e-20 3.30732e-05 -3.07098e-20 2.96502e-09)
(1.47076e-05 -2.40461e-05 -8.81838e-21 -1.47092e-05 -2.8803e-21 1.55077e-09)
(1.0804e-05 -2.65271e-05 -7.16642e-20 -1.08012e-05 -3.12686e-20 -2.80446e-09)
(6.40236e-06 -2.83856e-05 -8.16793e-20 -6.40897e-06 -3.65975e-20 6.60954e-09)
(1.81173e-06 -2.9491e-05 -1.60247e-20 -1.80961e-06 -4.09381e-21 -2.11352e-09)
(-3.06951e-06 -2.98339e-05 6.25934e-20 3.07157e-06 2.75289e-20 -2.06624e-09)
(-7.9594e-06 -2.9355e-05 -4.89655e-20 7.95693e-06 -1.955e-20 2.46848e-09)
(-1.26462e-05 -2.80841e-05 2.28627e-19 1.2645e-05 1.01215e-19 1.18654e-09)
(-1.70567e-05 -2.60557e-05 -1.76092e-19 1.70571e-05 -7.23028e-20 -4.49971e-10)
(-2.10311e-05 -2.33612e-05 -2.33687e-20 2.10291e-05 -1.62094e-20 2.02094e-09)
(-2.44789e-05 -2.00767e-05 -6.43673e-20 2.44778e-05 -1.13804e-20 1.07741e-09)
(-2.7334e-05 -1.6277e-05 6.71918e-20 2.73335e-05 4.6517e-21 5.62157e-10)
(-2.95169e-05 -1.20687e-05 -1.21634e-19 2.95158e-05 -2.69797e-20 1.04385e-09)
(1.27137e-05 -2.13889e-05 -4.42609e-20 -1.27144e-05 -1.8197e-20 6.84613e-10)
(9.24814e-06 -2.35434e-05 3.88169e-20 -9.24551e-06 1.54236e-20 -2.62497e-09)
(5.34886e-06 -2.51479e-05 -1.33182e-20 -5.35523e-06 -5.11719e-21 6.36517e-09)
(1.29257e-06 -2.60909e-05 -2.95302e-20 -1.29012e-06 -1.05859e-20 -2.44788e-09)
(-3.01252e-06 -2.63651e-05 -9.81432e-20 3.01392e-06 -4.1862e-20 -1.39336e-09)
(-7.32093e-06 -2.59206e-05 -7.79297e-20 7.3188e-06 -2.87355e-20 2.135e-09)
(-1.14465e-05 -2.4788e-05 1.00878e-19 1.14455e-05 3.98594e-20 9.77102e-10)
(-1.53295e-05 -2.29977e-05 5.06106e-20 1.53296e-05 2.60421e-20 -6.8992e-11)
(-1.88326e-05 -2.06301e-05 -8.17717e-20 1.88303e-05 -3.09433e-20 2.24154e-09)
(-2.18797e-05 -1.77518e-05 2.83405e-19 2.18783e-05 1.08832e-19 1.31819e-09)
(-2.44173e-05 -1.4425e-05 -3.58045e-19 2.44165e-05 -1.35277e-19 8.15035e-10)
(-2.6379e-05 -1.07377e-05 3.65671e-19 2.63773e-05 1.34152e-19 1.69015e-09)
(-2.77123e-05 -6.77022e-06 -3.16146e-19 2.77109e-05 -7.72912e-20 1.45833e-09)
(1.10007e-05 -1.90569e-05 -2.93134e-21 -1.10007e-05 -1.1843e-21 5.65162e-11)
(7.91694e-06 -2.09309e-05 -5.43628e-20 -7.91484e-06 -2.116e-20 -2.10581e-09)
(4.45504e-06 -2.23158e-05 1.01715e-20 -4.4608e-06 4.79357e-21 5.76314e-09)
(8.63036e-07 -2.3119e-05 4.28521e-20 -8.6022e-07 1.79169e-20 -2.8152e-09)
(-2.94322e-06 -2.33328e-05 3.75212e-20 2.94444e-06 1.65913e-20 -1.22403e-09)
(-6.74752e-06 -2.29166e-05 1.26824e-19 6.74576e-06 5.42723e-20 1.76418e-09)
(-1.03851e-05 -2.19009e-05 1.98065e-19 1.03845e-05 6.87975e-20 5.73926e-10)
(-1.38082e-05 -2.03121e-05 8.7916e-20 1.38089e-05 2.68178e-20 -7.01776e-10)
(-1.68985e-05 -1.82225e-05 -1.12075e-19 1.68971e-05 -3.17253e-20 1.39365e-09)
(-1.9592e-05 -1.56896e-05 -4.67907e-21 1.95911e-05 -1.61799e-20 9.142e-10)
(-2.18452e-05 -1.27662e-05 1.61475e-20 2.18445e-05 3.72834e-20 7.58621e-10)
(-2.36011e-05 -9.52854e-06 -8.92351e-20 2.36001e-05 -5.68122e-20 1.01148e-09)
(-2.48181e-05 -6.03805e-06 3.1664e-19 2.48166e-05 1.28424e-19 1.43477e-09)
(9.52662e-06 -1.70041e-05 1.19227e-20 -9.52609e-06 5.16598e-21 -5.2532e-10)
(6.77673e-06 -1.86352e-05 -9.21166e-20 -6.77513e-06 -3.39135e-20 -1.60187e-09)
(3.69514e-06 -1.98315e-05 9.27233e-20 -3.70042e-06 3.49414e-20 5.2855e-09)
(5.08373e-07 -2.05137e-05 -5.28577e-20 -5.05836e-07 -2.07085e-20 -2.5373e-09)
(-2.86371e-06 -2.06749e-05 -4.98119e-20 2.86466e-06 -1.95139e-20 -9.51302e-10)
(-6.22867e-06 -2.02828e-05 1.38083e-19 6.2272e-06 4.90667e-20 1.47089e-09)
(-9.44257e-06 -1.93655e-05 -1.82365e-19 9.44188e-06 -8.0841e-20 6.90978e-10)
(-1.24646e-05 -1.79488e-05 -5.38392e-20 1.24651e-05 -1.92208e-20 -4.62922e-10)
(-1.51925e-05 -1.60967e-05 2.86166e-19 1.51913e-05 9.74209e-20 1.16062e-09)
(-1.75734e-05 -1.386e-05 -1.09058e-19 1.75731e-05 -4.11316e-20 3.3129e-10)
(-1.95718e-05 -1.12834e-05 3.77246e-19 1.95718e-05 1.12809e-19 -2.30622e-11)
(-2.11407e-05 -8.43132e-06 -2.03476e-19 2.11399e-05 -6.10436e-20 7.63888e-10)
(-2.22433e-05 -5.35543e-06 3.1078e-20 2.22428e-05 -3.29563e-20 4.21939e-10)
(-2.28466e-05 -2.11791e-06 4.68021e-20 2.28462e-05 1.31761e-20 3.79854e-10)
(8.25503e-06 -1.5192e-05 3.81025e-20 -8.25451e-06 1.40697e-20 -5.23159e-10)
(5.79846e-06 -1.66127e-05 -5.20107e-20 -5.79721e-06 -1.78939e-20 -1.25476e-09)
(3.05112e-06 -1.76463e-05 -1.23289e-20 -3.0555e-06 -5.3222e-21 4.37967e-09)
(2.18279e-07 -1.82236e-05 -8.66018e-20 -2.16315e-07 -3.24411e-20 -1.96468e-09)
(-2.77484e-06 -1.83398e-05 -1.33419e-19 2.77584e-06 -4.47967e-20 -1.00239e-09)
(-5.75631e-06 -1.79682e-05 1.27145e-19 5.75466e-06 3.76268e-20 1.65122e-09)
(-8.59938e-06 -1.71364e-05 -2.2412e-19 8.59903e-06 -7.46893e-20 3.47362e-10)
(-1.12706e-05 -1.58673e-05 -1.05107e-19 1.12708e-05 -3.70561e-20 -2.00022e-10)
(-1.36816e-05 -1.42188e-05 -2.91366e-19 1.36804e-05 -1.04462e-19 1.21206e-09)
(-1.57868e-05 -1.2236e-05 -7.95604e-20 1.57861e-05 -3.1585e-20 7.51779e-10)
(-1.75579e-05 -9.95819e-06 -3.80091e-19 1.75575e-05 -1.46187e-19 4.38583e-10)
(-1.89546e-05 -7.44044e-06 9.83216e-20 1.89539e-05 5.03022e-20 7.4119e-10)
(-1.99483e-05 -4.72533e-06 -5.2657e-19 1.99481e-05 -1.46557e-19 2.24593e-10)
(-2.051e-05 -1.86359e-06 9.24509e-20 2.05101e-05 4.93314e-20 -1.22424e-10)
(7.15633e-06 -1.35884e-05 -2.75922e-20 -7.15561e-06 -9.33768e-21 -7.16079e-10)
(4.95804e-06 -1.48266e-05 5.64726e-20 -4.95696e-06 2.04907e-20 -1.07735e-09)
(2.5054e-06 -1.57193e-05 9.99507e-21 -2.50933e-06 2.89178e-21 3.93223e-09)
(-1.74023e-08 -1.62062e-05 -1.83128e-19 1.94857e-08 -6.1214e-20 -2.08336e-09)
(-2.67779e-06 -1.62842e-05 2.06296e-19 2.67874e-06 7.20245e-20 -9.47777e-10)
(-5.32331e-06 -1.59308e-05 -2.86756e-19 5.32207e-06 -1.0372e-19 1.24003e-09)
(-7.84231e-06 -1.5173e-05 2.48315e-19 7.84201e-06 9.06414e-20 3.01088e-10)
(-1.0206e-05 -1.4032e-05 -4.19512e-20 1.02065e-05 -1.03814e-20 -5.21897e-10)
(-1.23374e-05 -1.25603e-05 2.2132e-19 1.23364e-05 8.22219e-20 1.00114e-09)
(-1.41989e-05 -1.0798e-05 -1.68197e-19 1.41987e-05 -5.68508e-20 1.41815e-10)
(-1.57676e-05 -8.77864e-06 -1.41911e-19 1.57675e-05 -1.50773e-20 1.09893e-10)
(-1.70103e-05 -6.54877e-06 2.45507e-19 1.70096e-05 8.20706e-20 7.16069e-10)
(-1.79018e-05 -4.14711e-06 4.25597e-19 1.79014e-05 1.5224e-19 4.4775e-10)
(-1.84178e-05 -1.61367e-06 2.91011e-19 1.84179e-05 7.22249e-20 -2.43208e-11)
(6.20555e-06 -1.21663e-05 2.74798e-20 -6.20454e-06 9.09102e-21 -1.01247e-09)
(4.23542e-06 -1.32459e-05 -2.77349e-20 -4.23462e-06 -8.41553e-21 -8.06423e-10)
(2.04285e-06 -1.40161e-05 1.7847e-20 -2.04655e-06 6.03836e-21 3.701e-09)
(-2.07494e-07 -1.44254e-05 1.26174e-20 2.09448e-07 7.06215e-21 -1.95391e-09)
(-2.57547e-06 -1.44705e-05 -1.39422e-19 2.57614e-06 -4.94504e-20 -6.69089e-10)
(-4.92584e-06 -1.4134e-05 -1.59729e-19 4.92457e-06 -4.74241e-20 1.27143e-09)
(-7.16014e-06 -1.34409e-05 -1.16073e-19 7.15994e-06 -3.95775e-20 2.04012e-10)
(-9.25343e-06 -1.24121e-05 -3.51588e-20 9.25371e-06 -4.56498e-21 -2.77811e-10)
(-1.11396e-05 -1.10934e-05 1.07288e-20 1.11386e-05 3.97556e-21 9.95831e-10)
(-1.27861e-05 -9.52229e-06 -2.70854e-21 1.27857e-05 5.68829e-21 4.14538e-10)
(-1.41741e-05 -7.72781e-06 2.72871e-19 1.41739e-05 8.67218e-20 2.2727e-10)
(-1.52766e-05 -5.75051e-06 5.07482e-20 1.52765e-05 -4.97525e-21 3.03065e-11)
(-1.60732e-05 -3.62194e-06 -1.01328e-19 1.60728e-05 -4.44353e-20 4.19609e-10)
(-1.65428e-05 -1.37635e-06 -7.56313e-20 1.65431e-05 -3.78231e-20 -3.18502e-10)
(-1.66653e-05 9.38574e-07 -4.11083e-19 1.6665e-05 -1.02546e-19 3.01975e-10)
(5.38188e-06 -1.09023e-05 3.70244e-20 -5.38086e-06 1.18443e-20 -1.01864e-09)
(3.61421e-06 -1.18442e-05 8.65453e-20 -3.61339e-06 2.83543e-20 -8.17211e-10)
(1.65153e-06 -1.2508e-05 -1.32157e-19 -1.65502e-06 -4.12234e-20 3.48549e-09)
(-3.57901e-07 -1.28504e-05 1.91652e-19 3.59835e-07 6.33981e-20 -1.9343e-09)
(-2.46843e-06 -1.28681e-05 3.22418e-20 2.46903e-06 1.27941e-20 -6.06871e-10)
(-4.55897e-06 -1.2547e-05 2.46488e-19 4.55768e-06 8.36296e-20 1.28776e-09)
(-6.54267e-06 -1.19116e-05 1.8939e-19 6.54277e-06 5.78697e-20 -9.46002e-11)
(-8.3979e-06 -1.09812e-05 1.47976e-19 8.39812e-06 5.07624e-20 -2.18741e-10)
(-1.00677e-05 -9.79689e-06 2.25969e-19 1.00671e-05 6.16727e-20 5.61148e-10)
(-1.15239e-05 -8.39287e-06 -9.89244e-20 1.15237e-05 -3.3012e-20 2.43239e-10)
(-1.27521e-05 -6.79388e-06 -1.19909e-19 1.27521e-05 -5.10704e-20 1.00921e-11)
(-1.37294e-05 -5.03582e-06 -1.58625e-19 1.37291e-05 -4.62672e-20 3.54387e-10)
(-1.44382e-05 -3.14628e-06 1.9361e-19 1.44381e-05 5.08793e-20 5.2089e-11)
(-1.48623e-05 -1.15365e-06 7.18808e-20 1.48624e-05 1.54606e-20 -1.73581e-10)
(-1.49832e-05 9.02985e-07 1.49679e-19 1.49828e-05 6.97211e-20 3.91137e-10)
(4.66742e-06 -9.77692e-06 -7.04592e-20 -4.66644e-06 -2.15307e-20 -9.80492e-10)
(3.07986e-06 -1.05989e-05 -7.22276e-21 -3.07908e-06 -2.33966e-21 -7.79982e-10)
(1.32076e-06 -1.11704e-05 2.18355e-19 -1.32396e-06 6.87342e-20 3.20457e-09)
(-4.75508e-07 -1.14552e-05 -4.45757e-21 4.7734e-07 -2.9643e-21 -1.83191e-09)
(-2.35821e-06 -1.14501e-05 -9.68934e-20 2.35886e-06 -2.92992e-20 -6.48255e-10)
(-4.22009e-06 -1.11435e-05 -3.01543e-20 4.21893e-06 -1.61114e-20 1.15753e-09)
(-5.98282e-06 -1.05598e-05 -2.41767e-19 5.98288e-06 -7.80006e-20 -5.38597e-11)
(-7.62832e-06 -9.71578e-06 6.43537e-20 7.62845e-06 2.16736e-20 -1.30167e-10)
(-9.10732e-06 -8.64964e-06 -2.86767e-19 9.10679e-06 -8.7229e-20 5.2626e-10)
(-1.03956e-05 -7.39156e-06 6.38127e-20 1.03953e-05 1.61173e-20 2.93495e-10)
(-1.14813e-05 -5.96454e-06 -1.20891e-19 1.14811e-05 -2.86093e-20 1.83797e-10)
(-1.23454e-05 -4.39899e-06 -2.38864e-20 1.23453e-05 -3.6674e-22 9.74706e-11)
(-1.29746e-05 -2.71877e-06 -2.50551e-19 1.29744e-05 -8.69021e-20 1.67561e-10)
(-1.33542e-05 -9.48429e-07 -1.30728e-19 1.33542e-05 -2.64804e-20 -7.66164e-11)
(-1.34688e-05 8.79085e-07 1.55138e-19 1.34688e-05 2.49762e-20 -2.27349e-11)
(4.04719e-06 -8.7737e-06 1.3802e-20 -4.04603e-06 4.28028e-21 -1.16068e-09)
(2.62001e-06 -9.49057e-06 -8.84567e-20 -2.6195e-06 -2.66972e-20 -5.0851e-10)
(1.04187e-06 -9.9822e-06 -1.4e-19 -1.04469e-06 -4.36582e-20 2.82242e-09)
(-5.65593e-07 -1.02174e-05 -2.92457e-20 5.67233e-07 -7.28037e-21 -1.63967e-09)
(-2.24684e-06 -1.01932e-05 1.34327e-19 2.24716e-06 4.045e-20 -3.19215e-10)
(-3.90599e-06 -9.90088e-06 -1.55503e-19 3.90504e-06 -4.56642e-20 9.48407e-10)
(-5.4734e-06 -9.3635e-06 -1.5187e-20 5.4733e-06 5.0975e-21 9.33043e-11)
(-6.93409e-06 -8.59615e-06 2.79871e-19 6.93418e-06 7.57266e-20 -8.18571e-11)
(-8.24397e-06 -7.63468e-06 2.03111e-19 8.2433e-06 6.23336e-20 6.70332e-10)
(-9.38358e-06 -6.50525e-06 -2.5126e-19 9.38344e-06 -7.45681e-20 1.43022e-10)
(-1.03429e-05 -5.22889e-06 9.78188e-20 1.03426e-05 4.15856e-20 3.5247e-10)
(-1.11064e-05 -3.83219e-06 6.04248e-20 1.11063e-05 1.7941e-20 1.33285e-10)
(-1.16629e-05 -2.33661e-06 -1.90407e-19 1.16627e-05 -2.95489e-20 1.9358e-10)
(-1.20005e-05 -7.61261e-07 1.96469e-19 1.20007e-05 5.38101e-20 -1.71614e-10)
(-1.21064e-05 8.64731e-07 -1.69195e-19 1.21062e-05 -5.57898e-20 2.51552e-10)
(-1.19678e-05 2.51398e-06 1.5128e-19 1.19682e-05 4.60388e-20 -3.66788e-10)
(3.50846e-06 -7.87783e-06 6.66568e-21 -3.50735e-06 1.97954e-21 -1.10428e-09)
(2.22434e-06 -8.50295e-06 1.84914e-21 -2.22387e-06 8.90801e-22 -4.67361e-10)
(8.07391e-07 -8.92518e-06 -4.52378e-20 -8.0997e-07 -1.27228e-20 2.57921e-09)
(-6.31962e-07 -9.1179e-06 3.88987e-20 6.33559e-07 1.21088e-20 -1.59713e-09)
(-2.13452e-06 -9.07809e-06 -9.66515e-20 2.13487e-06 -2.68682e-20 -3.5049e-10)
(-3.61426e-06 -8.7997e-06 2.07439e-19 3.61341e-06 6.24809e-20 8.46884e-10)
(-5.00892e-06 -8.30411e-06 1.33798e-19 5.00897e-06 3.008e-20 -5.47472e-11)
(-6.30607e-06 -7.60551e-06 -4.67463e-19 6.30625e-06 -1.41127e-19 -1.80289e-10)
(-7.46677e-06 -6.73657e-06 4.84464e-20 7.46621e-06 1.90786e-20 5.61446e-10)
(-8.47485e-06 -5.72098e-06 1.81803e-20 8.47479e-06 1.05933e-20 5.8191e-11)
(-9.32212e-06 -4.57732e-06 2.40593e-19 9.32205e-06 5.91001e-20 7.17014e-11)
(-9.99564e-06 -3.3299e-06 1.57538e-19 9.99552e-06 2.717e-20 1.14848e-10)
(-1.04865e-05 -1.99574e-06 2.88929e-19 1.04864e-05 8.68188e-20 6.89258e-11)
(-1.07849e-05 -5.93251e-07 -8.78249e-20 1.07851e-05 -2.63942e-20 -1.91283e-10)
(-1.08798e-05 8.54094e-07 -9.94723e-20 1.08798e-05 -1.67541e-20 -1.57097e-11)
(-1.07609e-05 2.32274e-06 2.21932e-19 1.07613e-05 4.38991e-20 -3.62402e-10)
(3.04025e-06 -7.07677e-06 1.98103e-20 -3.03917e-06 5.49863e-21 -1.08091e-09)
(1.88396e-06 -7.62184e-06 1.2042e-19 -1.88352e-06 3.41603e-20 -4.33e-10)
(6.10853e-07 -7.9837e-06 8.06135e-21 -6.13199e-07 3.05829e-21 2.34587e-09)
(-6.79143e-07 -8.14002e-06 1.12352e-19 6.80585e-07 3.29412e-20 -1.44209e-09)
(-2.023e-06 -8.08782e-06 2.26253e-20 2.02335e-06 5.68583e-21 -3.4741e-10)
(-3.34338e-06 -7.82277e-06 -1.05289e-19 3.34255e-06 -3.43558e-20 8.24033e-10)
(-4.5851e-06 -7.36515e-06 -2.29009e-19 4.58519e-06 -6.64329e-20 -9.00527e-11)
(-5.73732e-06 -6.72827e-06 -2.26494e-20 5.73757e-06 8.11256e-21 -2.44507e-10)
(-6.76619e-06 -5.94154e-06 1.88739e-19 6.76573e-06 5.34768e-20 4.61605e-10)
(-7.65758e-06 -5.02697e-06 -1.04942e-19 7.65754e-06 -2.97886e-20 3.33867e-11)
(-8.40542e-06 -4.00071e-06 -1.72397e-19 8.40534e-06 -5.49813e-20 7.76705e-11)
(-8.99875e-06 -2.88456e-06 -3.8107e-19 8.99862e-06 -9.99253e-20 1.29522e-10)
(-9.43037e-06 -1.69382e-06 2.10691e-19 9.43029e-06 4.72385e-20 7.9434e-11)
(-9.69249e-06 -4.43492e-07 2.24815e-19 9.6926e-06 4.5415e-20 -1.02855e-10)
(-9.77594e-06 8.46019e-07 -5.90154e-20 9.77597e-06 -1.35023e-20 -2.71183e-11)
(-9.67177e-06 2.15434e-06 -3.93677e-20 9.67192e-06 -7.4345e-21 -1.52874e-10)
(3.48941e-06 -5.79247e-06 -3.19795e-21 -3.48992e-06 -1.12044e-21 5.09963e-10)
(2.63314e-06 -6.35983e-06 6.98226e-21 -2.63207e-06 1.98819e-21 -1.07399e-09)
(1.59128e-06 -6.83476e-06 -7.09953e-20 -1.59094e-06 -1.9764e-20 -3.37425e-10)
(4.46652e-07 -7.14426e-06 -5.27297e-20 -4.48778e-07 -1.3924e-20 2.12643e-09)
(-7.10101e-07 -7.26945e-06 1.35189e-19 7.1142e-07 3.59324e-20 -1.31878e-09)
(-1.91268e-06 -7.20744e-06 -2.08048e-19 1.91293e-06 -5.66886e-20 -2.52483e-10)
(-3.0917e-06 -6.95533e-06 6.31272e-21 3.09089e-06 4.43157e-21 8.06591e-10)
(-4.19781e-06 -6.53235e-06 -5.42172e-20 4.19779e-06 -7.0396e-21 1.94952e-11)
(-5.22164e-06 -5.95089e-06 1.41648e-19 5.22171e-06 3.73787e-20 -6.6051e-11)
(-6.13355e-06 -5.23769e-06 1.11978e-19 6.13298e-06 2.66118e-20 5.61779e-10)
(-6.92157e-06 -4.41298e-06 1.30018e-19 6.92146e-06 3.71399e-20 1.13928e-10)
(-7.58109e-06 -3.49097e-06 7.43339e-21 7.581e-06 6.67325e-22 9.89177e-11)
(-8.10289e-06 -2.4915e-06 1.15469e-20 8.10279e-06 1.53351e-20 1.00759e-10)
(-8.48154e-06 -1.42732e-06 -3.71671e-20 8.48158e-06 -1.84724e-20 -4.21126e-11)
(-8.71053e-06 -3.11607e-07 -2.58036e-19 8.71067e-06 -6.43006e-20 -1.4179e-10)
(-8.78217e-06 8.37744e-07 -1.04513e-20 8.78223e-06 9.40255e-21 -5.42823e-11)
(-8.68889e-06 2.00356e-06 2.50155e-19 8.68914e-06 4.85936e-20 -2.48195e-10)
(-8.42517e-06 3.16269e-06 2.61952e-20 8.42518e-06 -4.96479e-21 -8.34386e-12)
(3.05275e-06 -5.21864e-06 9.00403e-21 -3.05324e-06 2.39193e-21 4.89509e-10)
(2.27906e-06 -5.71741e-06 -4.69899e-20 -2.27808e-06 -1.23854e-20 -9.85108e-10)
(1.3398e-06 -6.13097e-06 -5.76955e-20 -1.3395e-06 -1.51648e-20 -3.02487e-10)
(3.1021e-07 -6.39508e-06 4.54932e-20 -3.12125e-07 1.25748e-20 1.91469e-09)
(-7.27639e-07 -6.49374e-06 -9.01141e-20 7.28837e-07 -2.3958e-20 -1.19793e-09)
(-1.80425e-06 -6.42417e-06 1.39543e-19 1.80451e-06 3.98307e-20 -2.53551e-10)
(-2.85731e-06 -6.18483e-06 8.31166e-20 2.85663e-06 2.34719e-20 6.79217e-10)
(-3.84287e-06 -5.79373e-06 2.43229e-19 3.84299e-06 6.38932e-20 -1.24114e-10)
(-4.75283e-06 -5.26235e-06 -2.07199e-19 4.75286e-06 -5.77593e-20 -2.86926e-11)
(-5.56122e-06 -4.61507e-06 -1.37249e-20 5.56084e-06 -4.4594e-21 3.79802e-10)
(-6.25786e-06 -3.87045e-06 1.00058e-19 6.25771e-06 1.60512e-20 1.4751e-10)
(-6.8392e-06 -3.04092e-06 -2.11829e-19 6.83913e-06 -4.91059e-20 7.00845e-11)
(-7.29767e-06 -2.14447e-06 2.88214e-20 7.29742e-06 9.09551e-21 2.53581e-10)
(-7.62883e-06 -1.19258e-06 9.65941e-21 7.62867e-06 6.34617e-21 1.53342e-10)
(-7.82745e-06 -1.96526e-07 1.59229e-19 7.82762e-06 4.26834e-20 -1.75443e-10)
(-7.88763e-06 8.28256e-07 1.36782e-19 7.88762e-06 1.73119e-20 6.81472e-12)
(-7.80253e-06 1.86781e-06 -2.41261e-19 7.8028e-06 -5.83877e-20 -2.66291e-10)
(-7.56786e-06 2.90123e-06 -1.34227e-19 7.56795e-06 -1.42821e-20 -9.21402e-11)
(2.67046e-06 -4.70285e-06 -2.28968e-21 -2.67098e-06 -1.12997e-21 5.18091e-10)
(1.97111e-06 -5.14126e-06 4.38078e-21 -1.97017e-06 1.12633e-21 -9.43541e-10)
(1.1239e-06 -5.50114e-06 2.04088e-20 -1.12361e-06 5.80205e-21 -2.91833e-10)
(1.97455e-07 -5.72586e-06 1.52844e-19 -1.99199e-07 3.99975e-20 1.74383e-09)
(-7.34232e-07 -5.80197e-06 4.17573e-20 7.35347e-07 1.05652e-20 -1.11586e-09)
(-1.69848e-06 -5.72683e-06 5.94629e-20 1.6987e-06 1.27963e-20 -2.18049e-10)
(-2.6395e-06 -5.49982e-06 -3.43537e-20 2.63887e-06 -1.02586e-20 6.25562e-10)
(-3.51786e-06 -5.13808e-06 4.02406e-20 3.51796e-06 1.36383e-20 -1.03309e-10)
(-4.3266e-06 -4.65208e-06 9.92498e-21 4.32671e-06 5.16134e-21 -1.08979e-10)
(-5.04327e-06 -4.06415e-06 -6.46868e-20 5.04294e-06 -1.99302e-20 3.33164e-10)
(-5.65882e-06 -3.39106e-06 -1.90308e-19 5.65873e-06 -4.74763e-20 8.87571e-11)
(-6.17065e-06 -2.64441e-06 1.8459e-19 6.17065e-06 5.38803e-20 -9.57362e-13)
(-6.57275e-06 -1.83995e-06 -2.38867e-20 6.57275e-06 -3.97232e-21 -7.50326e-12)
(-6.86173e-06 -9.87615e-07 9.80734e-20 6.86172e-06 1.54082e-20 1.47331e-11)
(-7.03329e-06 -9.7121e-08 -1.31181e-19 7.03339e-06 -3.59607e-20 -1.00722e-10)
(-7.0824e-06 8.17274e-07 -2.73666e-19 7.08237e-06 -7.0096e-20 3.25853e-11)
(-7.00354e-06 1.74416e-06 1.64778e-19 7.00379e-06 4.685e-20 -2.4254e-10)
(-6.79318e-06 2.66556e-06 3.21621e-19 6.79312e-06 6.54367e-20 5.61971e-11)
(2.33563e-06 -4.23891e-06 -4.57873e-21 -2.33613e-06 -8.46032e-22 5.03309e-10)
(1.70321e-06 -4.62416e-06 4.40535e-20 -1.70235e-06 1.11032e-20 -8.64072e-10)
(9.38762e-07 -4.93705e-06 3.60492e-20 -9.38487e-07 9.14305e-21 -2.75233e-10)
(1.04776e-07 -5.1276e-06 -7.22171e-20 -1.06399e-07 -1.85985e-20 1.62304e-09)
(-7.31899e-07 -5.18465e-06 -8.96723e-20 7.3294e-07 -2.39767e-20 -1.04104e-09)
(-1.59579e-06 -5.10555e-06 -1.9758e-19 1.59593e-06 -4.88306e-20 -1.38476e-10)
(-2.43693e-06 -4.89058e-06 -6.0348e-20 2.4363e-06 -1.04401e-20 6.24851e-10)
(-3.21988e-06 -4.55585e-06 4.86692e-19 3.21991e-06 1.19838e-19 -2.78076e-11)
(-3.93886e-06 -4.11107e-06 4.79509e-20 3.9389e-06 4.03353e-21 -3.10776e-11)
(-4.57397e-06 -3.57661e-06 -6.66986e-20 4.57361e-06 -1.72199e-20 3.58396e-10)
(-5.11765e-06 -2.96772e-06 -3.82824e-20 5.11758e-06 -1.57588e-21 6.61217e-11)
(-5.56818e-06 -2.29474e-06 1.10977e-19 5.56808e-06 1.80353e-20 9.9923e-11)
(-5.92038e-06 -1.57202e-06 9.56e-20 5.9202e-06 1.99824e-20 1.80423e-10)
(-6.17158e-06 -8.08539e-07 -1.81465e-19 6.17155e-06 -4.81037e-20 3.32907e-11)
(-6.31859e-06 -1.26962e-08 6.72248e-20 6.3188e-06 1.78998e-20 -2.09962e-10)
(-6.3575e-06 8.03725e-07 -1.89339e-19 6.35752e-06 -3.07316e-20 -2.17463e-11)
(-6.28354e-06 1.63037e-06 -5.23522e-20 6.28381e-06 -5.65782e-21 -2.78156e-10)
(-6.09372e-06 2.45172e-06 -1.71626e-19 6.09376e-06 -3.26137e-20 -3.98782e-11)
(-5.78519e-06 3.25294e-06 1.60351e-19 5.78544e-06 4.40557e-21 -2.44566e-10)
(2.04231e-06 -3.82133e-06 -1.20169e-20 -2.04277e-06 -2.94435e-21 4.6281e-10)
(1.47023e-06 -4.15973e-06 -2.64831e-20 -1.46943e-06 -6.45633e-21 -7.9691e-10)
(7.80269e-07 -4.43148e-06 4.97936e-20 -7.79995e-07 1.22415e-20 -2.74476e-10)
(2.9332e-08 -4.59246e-06 5.18091e-20 -3.0788e-08 1.32381e-20 1.45603e-09)
(-7.22236e-07 -4.63345e-06 9.20358e-20 7.23208e-07 2.28919e-20 -9.71603e-10)
(-1.4964e-06 -4.55183e-06 1.97093e-19 1.49655e-06 5.07803e-20 -1.50828e-10)
(-2.24823e-06 -4.34869e-06 3.82257e-20 2.24772e-06 3.00905e-21 5.13149e-10)
(-2.94638e-06 -4.03897e-06 -1.36562e-19 2.94654e-06 -4.00619e-20 -1.65078e-10)
(-3.58553e-06 -3.63177e-06 -1.9679e-19 3.58556e-06 -4.87233e-20 -2.61808e-11)
(-4.14838e-06 -3.14535e-06 -7.66189e-20 4.1481e-06 -8.88495e-21 2.81e-10)
(-4.62843e-06 -2.5942e-06 7.91796e-20 4.62833e-06 1.57597e-20 9.70881e-11)
(-5.02438e-06 -1.98761e-06 -2.46799e-19 5.02435e-06 -5.88199e-20 3.02681e-11)
(-5.33237e-06 -1.33783e-06 -3.09596e-22 5.33228e-06 -1.66191e-21 9.21473e-11)
(-5.55031e-06 -6.53153e-07 -1.55717e-19 5.55023e-06 -2.69915e-20 7.99852e-11)
(-5.6756e-06 5.89819e-08 -4.11973e-20 5.67566e-06 -1.53517e-20 -6.81461e-11)
(-5.7051e-06 7.87907e-07 3.52195e-20 5.70504e-06 1.24113e-20 6.02954e-11)
(-5.63486e-06 1.52525e-06 2.85568e-19 5.63508e-06 6.60022e-20 -2.18858e-10)
(-5.46258e-06 2.25748e-06 3.32948e-19 5.46262e-06 6.36703e-20 -3.29338e-11)
(-5.18597e-06 2.97142e-06 -2.17313e-19 5.18615e-06 -4.03962e-20 -1.82517e-10)
(1.78528e-06 -3.44519e-06 2.31369e-21 -1.78576e-06 3.27152e-22 4.83389e-10)
(1.26759e-06 -3.74236e-06 1.88744e-20 -1.26685e-06 4.54324e-21 -7.33598e-10)
(6.4472e-07 -3.97811e-06 -9.68046e-20 -6.4447e-07 -2.28158e-20 -2.49059e-10)
(-3.16283e-08 -4.11349e-06 6.4567e-20 3.02655e-08 1.43856e-20 1.36273e-09)
(-7.06916e-07 -4.14099e-06 -1.58632e-19 7.07803e-07 -3.74417e-20 -8.86801e-10)
(-1.40084e-06 -4.05807e-06 1.44419e-19 1.40095e-06 3.04844e-20 -1.0829e-10)
(-2.0731e-06 -3.8663e-06 -5.26437e-19 2.07261e-06 -1.25999e-19 4.86635e-10)
(-2.69561e-06 -3.57975e-06 3.13691e-20 2.69572e-06 1.18009e-20 -1.07013e-10)
(-3.2637e-06 -3.20667e-06 -5.97483e-20 3.26363e-06 -8.5654e-21 7.41789e-11)
(-3.76219e-06 -2.76414e-06 3.92611e-19 3.76193e-06 8.70717e-20 2.61159e-10)
(-4.18583e-06 -2.26495e-06 -1.17933e-19 4.1858e-06 -3.11595e-20 2.86571e-11)
(-4.53374e-06 -1.71752e-06 2.66009e-20 4.53362e-06 1.23521e-20 1.26696e-10)
(-4.80252e-06 -1.13311e-06 -2.09078e-21 4.80249e-06 2.94271e-21 3.36135e-11)
(-4.99089e-06 -5.19124e-07 1.09824e-19 4.99085e-06 3.01905e-20 3.98568e-11)
(-5.09687e-06 1.18247e-07 -2.21313e-19 5.09701e-06 -4.8968e-20 -1.48994e-10)
(-5.11796e-06 7.69463e-07 -9.9466e-20 5.1179e-06 -1.40703e-20 6.1067e-11)
(-5.05078e-06 1.42727e-06 1.26194e-19 5.05098e-06 1.62814e-20 -1.99164e-10)
(-4.8937e-06 2.07976e-06 -1.46888e-19 4.89374e-06 -4.2984e-20 -4.34105e-11)
(-4.64467e-06 2.71602e-06 2.21103e-19 4.64484e-06 4.25595e-20 -1.69421e-10)
(1.56003e-06 -3.10621e-06 -5.79718e-21 -1.56051e-06 -1.28767e-21 4.75986e-10)
(1.09153e-06 -3.36707e-06 -5.07398e-20 -1.09081e-06 -1.17021e-20 -7.16002e-10)
(5.29114e-07 -3.57132e-06 5.73899e-20 -5.28877e-07 1.34841e-20 -2.36441e-10)
(-8.02103e-08 -3.68457e-06 -1.09253e-19 7.89593e-08 -2.51081e-20 1.25102e-09)
(-6.87e-07 -3.70087e-06 2.01779e-19 6.87845e-07 4.71943e-20 -8.45489e-10)
(-1.30916e-06 -3.61761e-06 -2.4346e-20 1.30925e-06 -7.81858e-21 -8.41016e-11)
(-1.91027e-06 -3.43689e-06 4.18638e-20 1.90981e-06 1.49559e-20 4.64924e-10)
(-2.46517e-06 -3.17188e-06 3.39965e-20 2.46526e-06 8.86042e-21 -9.29676e-11)
(-2.97005e-06 -2.83012e-06 -6.59608e-20 2.9701e-06 -1.66275e-20 -4.60784e-11)
(-3.41166e-06 -2.42722e-06 -2.44471e-19 3.41142e-06 -5.5253e-20 2.38464e-10)