/*--------------------------------*- C++ -*----------------------------------*\
| =========                 |                                                 |
| \\      /  F ield         | OpenFOAM: The Open Source CFD Toolbox           |
|  \\    /   O peration     | Version:  2506                                  |
|   \\  /    A nd           | Website:  www.openfoam.com                      |
|    \\/     M anipulation  |                                                 |
\*---------------------------------------------------------------------------*/
FoamFile
{
    version     2.0;
    format      ascii;
    arch        "LSB;label=32;scalar=64";
    class       volScalarField;
    location    "400";
    object      turbulenceProperties:k;
}
// * * * * * * * * * * * * * * * * * * * * * * * * * * * * * * * * * * * * * //

dimensions      [0 2 -2 0 0 0 0];

internalField   nonuniform List<scalar> 
1340
(
0.000514658
0.000518555
0.000521571
0.000437366
0.000441289
0.000444601
0.000446723
0.000447599
0.000374181
0.00037801
0.000381418
0.000383978
0.000385643
0.000386287
0.000385603
0.000321876
0.000325516
0.000328869
0.0003316
0.000333687
0.000335031
0.000335352
0.000334552
0.000278228
0.00028164
0.000284862
0.000287626
0.000289945
0.000291707
0.00029268
0.000292792
0.000291966
0.000241511
0.000244682
0.000247715
0.000250421
0.00025283
0.000254808
0.000256183
0.000256895
0.000256863
0.000210423
0.000213343
0.000216167
0.000218771
0.000221168
0.000223246
0.000224858
0.000225958
0.000226471
0.000226292
0.000183939
0.000186608
0.000189225
0.000191689
0.000194016
0.000196109
0.000197844
0.000199172
0.00020004
0.000200354
0.00020006
0.000161254
0.000163683
0.0001661
0.000168401
0.000170629
0.000172678
0.000174451
0.000175909
0.000177004
0.000177653
0.00017782
0.000141726
0.00014394
0.000146152
0.000148295
0.000150397
0.000152374
0.000154128
0.000155642
0.000156867
0.000157736
0.00015821
0.00015825
0.000124848
0.00012686
0.000128883
0.000130864
0.000132834
0.000134709
0.000136415
0.000137932
0.000139219
0.000140219
0.000140905
0.000141238
0.000110207
0.00011203
0.000113876
0.0001157
0.000117533
0.000119294
0.000120928
0.000122414
0.000123716
0.00012479
0.000125609
0.000126142
0.000126349
9.74585e-05
9.91123e-05
0.000100791
0.000102466
0.000104162
0.000105806
0.000107353
0.000108785
0.00011007
0.00011117
0.000112065
0.000112729
0.000113127
8.63263e-05
8.78228e-05
8.93483e-05
9.08841e-05
9.24451e-05
9.39735e-05
9.5424e-05
9.67874e-05
9.80328e-05
9.91297e-05
0.000100061
0.000100806
0.000101334
0.000101625
7.65777e-05
7.79305e-05
7.93175e-05
8.07187e-05
8.2153e-05
8.35655e-05
8.4919e-05
8.62028e-05
8.73946e-05
8.84647e-05
8.94032e-05
9.01884e-05
9.07994e-05
9.12175e-05
6.8019e-05
6.92409e-05
7.05015e-05
7.17781e-05
7.30924e-05
7.4393e-05
7.56482e-05
7.68507e-05
7.79782e-05
7.90083e-05
7.99318e-05
8.07311e-05
8.13896e-05
8.18892e-05
6.04885e-05
6.15921e-05
6.2735e-05
6.38974e-05
6.50983e-05
6.62926e-05
6.7451e-05
6.85712e-05
6.96297e-05
7.06104e-05
7.15038e-05
7.2298e-05
7.29759e-05
7.35258e-05
7.39309e-05
5.38484e-05
5.48456e-05
5.58803e-05
5.69371e-05
5.80327e-05
5.91255e-05
6.01925e-05
6.12299e-05
6.22185e-05
6.3143e-05
6.39973e-05
6.47712e-05
6.54507e-05
6.60269e-05
6.6484e-05
4.79825e-05
4.88838e-05
4.98195e-05
5.07793e-05
5.17777e-05
5.27751e-05
5.37555e-05
5.47116e-05
5.56304e-05
5.6496e-05
5.73052e-05
5.80477e-05
5.87153e-05
5.92981e-05
5.97837e-05
4.27927e-05
4.36057e-05
4.44521e-05
4.53226e-05
4.62301e-05
4.71402e-05
4.80375e-05
4.89166e-05
4.97657e-05
5.0572e-05
5.13318e-05
5.20386e-05
5.2684e-05
5.32606e-05
5.37588e-05
5.41668e-05
3.81937e-05
3.89264e-05
3.96916e-05
4.04806e-05
4.1304e-05
4.21333e-05
4.29527e-05
4.37592e-05
4.45412e-05
4.52888e-05
4.59984e-05
4.66648e-05
4.72808e-05
4.78418e-05
4.83379e-05
4.87617e-05
3.4112e-05
3.47727e-05
3.54636e-05
3.61779e-05
3.69252e-05
3.76788e-05
3.8426e-05
3.91642e-05
3.98822e-05
4.05722e-05
4.12312e-05
4.1855e-05
4.24378e-05
4.29759e-05
4.34624e-05
4.38895e-05
2.99506e-05
3.04854e-05
3.10804e-05
3.1704e-05
3.23501e-05
3.30272e-05
3.37113e-05
3.43915e-05
3.50656e-05
3.5723e-05
3.63577e-05
3.69672e-05
3.75478e-05
3.80953e-05
3.86065e-05
3.90756e-05
3.94964e-05
3.98607e-05
2.67778e-05
2.7259e-05
2.77945e-05
2.83573e-05
2.89412e-05
2.9554e-05
3.01745e-05
3.07929e-05
3.1407e-05
3.20079e-05
3.25901e-05
3.31516e-05
3.36894e-05
3.42002e-05
3.46814e-05
3.51289e-05
3.55371e-05
3.58997e-05
2.3953e-05
2.43858e-05
2.48675e-05
2.5375e-05
2.59023e-05
2.64566e-05
2.70186e-05
2.75801e-05
2.81388e-05
2.86874e-05
2.92197e-05
2.97352e-05
3.02316e-05
3.07057e-05
3.11558e-05
3.15784e-05
3.19692e-05
3.23229e-05
2.14356e-05
2.18245e-05
2.22576e-05
2.27149e-05
2.31909e-05
2.36916e-05
2.42003e-05
2.47093e-05
2.52173e-05
2.57166e-05
2.62026e-05
2.66749e-05
2.71312e-05
2.75692e-05
2.79875e-05
2.83837e-05
2.87542e-05
2.90942e-05
2.93985e-05
1.91903e-05
1.95394e-05
1.99285e-05
2.03403e-05
2.07697e-05
2.12218e-05
2.16819e-05
2.21433e-05
2.26042e-05
2.30578e-05
2.35006e-05
2.39322e-05
2.43503e-05
2.47534e-05
2.51405e-05
2.55096e-05
2.58575e-05
2.61807e-05
2.64746e-05
1.71859e-05
1.7499e-05
1.78486e-05
1.8219e-05
1.86061e-05
1.90142e-05
1.943e-05
1.98478e-05
2.02651e-05
2.0677e-05
2.108e-05
2.14735e-05
2.18557e-05
2.22253e-05
2.25821e-05
2.29239e-05
2.32483e-05
2.35525e-05
2.38328e-05
1.53951e-05
1.56759e-05
1.59896e-05
1.63226e-05
1.66715e-05
1.70395e-05
1.7415e-05
1.77927e-05
1.81708e-05
1.85445e-05
1.89106e-05
1.92685e-05
1.9617e-05
1.99551e-05
2.02827e-05
2.05978e-05
2.08987e-05
2.11828e-05
2.14471e-05
1.37941e-05
1.40458e-05
1.43271e-05
1.46264e-05
1.49406e-05
1.52723e-05
1.56113e-05
1.59527e-05
1.6295e-05
1.66334e-05
1.69654e-05
1.72906e-05
1.76079e-05
1.79165e-05
1.8216e-05
1.85052e-05
1.87829e-05
1.90467e-05
1.92937e-05
1.23621e-05
1.25873e-05
1.28394e-05
1.31083e-05
1.3391e-05
1.36901e-05
1.39959e-05
1.43044e-05
1.46138e-05
1.49202e-05
1.52211e-05
1.55163e-05
1.58046e-05
1.60855e-05
1.63587e-05
1.66234e-05
1.68784e-05
1.71216e-05
1.73508e-05
1.7563e-05
1.10803e-05
1.12818e-05
1.15074e-05
1.1749e-05
1.20033e-05
1.22727e-05
1.25485e-05
1.28272e-05
1.3107e-05
1.33842e-05
1.36568e-05
1.39242e-05
1.41857e-05
1.4441e-05
1.46896e-05
1.49311e-05
1.51642e-05
1.53875e-05
1.55989e-05
1.57958e-05
9.93245e-06
1.01125e-05
1.03143e-05
1.05312e-05
1.076e-05
1.10025e-05
1.12514e-05
1.1503e-05
1.17559e-05
1.20065e-05
1.22531e-05
1.24953e-05
1.27324e-05
1.29639e-05
1.31898e-05
1.34094e-05
1.36218e-05
1.3826e-05
1.402e-05
1.42013e-05
8.904e-06
9.06466e-06
9.24518e-06
9.43982e-06
9.64558e-06
9.864e-06
1.00884e-05
1.03156e-05
1.05441e-05
1.07708e-05
1.09939e-05
1.12131e-05
1.14276e-05
1.16374e-05
1.18422e-05
1.20415e-05
1.22346e-05
1.24205e-05
1.25974e-05
1.27636e-05
7.98217e-06
8.12534e-06
8.28676e-06
8.46131e-06
8.64637e-06
8.84308e-06
9.04553e-06
9.25073e-06
9.45724e-06
9.66218e-06
9.86399e-06
1.00622e-05
1.02564e-05
1.04462e-05
1.06316e-05
1.08121e-05
1.09872e-05
1.11558e-05
1.13168e-05
1.14681e-05
7.15554e-06
7.28301e-06
7.42722e-06
7.58376e-06
7.75017e-06
7.92737e-06
8.11009e-06
8.29547e-06
8.48219e-06
8.66747e-06
8.85002e-06
9.02937e-06
9.20498e-06
9.37656e-06
9.5442e-06
9.70741e-06
9.86577e-06
1.00184e-05
1.01642e-05
1.03014e-05
1.04279e-05
6.41397e-06
6.52736e-06
6.65611e-06
6.79654e-06
6.94617e-06
7.10589e-06
7.27086e-06
7.43846e-06
7.60738e-06
7.77504e-06
7.94018e-06
8.10242e-06
8.26113e-06
8.41623e-06
8.56768e-06
8.7151e-06
8.85806e-06
8.99582e-06
9.12737e-06
9.25125e-06
9.36561e-06
5.74851e-06
5.84927e-06
5.96418e-06
6.09011e-06
6.22475e-06
6.36878e-06
6.51783e-06
6.66955e-06
6.82246e-06
6.97422e-06
7.12371e-06
7.27048e-06
7.414e-06
7.55416e-06
7.69091e-06
7.82391e-06
7.9528e-06
8.07698e-06
8.19543e-06
8.30691e-06
8.40977e-06
5.15115e-06
5.24061e-06
5.34311e-06
5.45605e-06
5.57727e-06
5.70727e-06
5.84211e-06
5.97952e-06
6.11807e-06
6.25565e-06
6.39107e-06
6.52399e-06
6.65381e-06
6.78049e-06
6.90389e-06
7.02381e-06
7.13989e-06
7.25154e-06
7.35796e-06
7.45798e-06
7.55013e-06
4.61477e-06
4.69411e-06
4.78551e-06
4.88683e-06
4.99606e-06
5.11352e-06
5.23569e-06
5.3603e-06
5.48605e-06
5.61091e-06
5.73375e-06
5.85416e-06
5.97168e-06
6.08614e-06
6.19754e-06
6.30563e-06
6.41008e-06
6.51035e-06
6.60579e-06
6.69533e-06
6.77758e-06
4.13303e-06
4.2033e-06
4.28478e-06
4.37575e-06
4.47424e-06
4.58055e-06
4.69139e-06
4.80463e-06
4.91897e-06
5.03242e-06
5.14397e-06
5.25319e-06
5.35965e-06
5.46321e-06
5.56381e-06
5.6612e-06
5.75514e-06
5.84515e-06
5.9306e-06
6.01055e-06
6.08384e-06
6.1493e-06
3.70025e-06
3.76243e-06
3.83507e-06
3.91677e-06
4.0057e-06
4.10208e-06
4.20286e-06
4.30597e-06
4.41012e-06
4.51338e-06
4.61485e-06
4.71407e-06
4.81064e-06
4.9044e-06
4.99529e-06
5.08309e-06
5.1676e-06
5.24834e-06
5.32474e-06
5.39602e-06
5.46114e-06
5.51903e-06
3.31138e-06
3.36634e-06
3.43109e-06
3.50454e-06
3.58499e-06
3.67255e-06
3.76439e-06
3.85847e-06
3.95351e-06
4.04774e-06
4.14022e-06
4.23052e-06
4.31824e-06
4.40322e-06
4.4854e-06
4.56462e-06
4.64065e-06
4.71305e-06
4.78131e-06
4.8448e-06
4.90253e-06
4.95358e-06
2.96189e-06
3.01042e-06
3.06813e-06
3.13425e-06
3.20719e-06
3.28692e-06
3.37082e-06
3.4569e-06
3.54386e-06
3.63003e-06
3.71449e-06
3.79684e-06
3.87666e-06
3.95381e-06
4.02821e-06
4.09972e-06
4.16813e-06
4.23307e-06
4.2941e-06
4.35057e-06
4.40166e-06
4.4466e-06
2.64776e-06
2.69055e-06
2.742e-06
2.80164e-06
2.8679e-06
2.9407e-06
3.01759e-06
3.09655e-06
3.17634e-06
3.25533e-06
3.33266e-06
3.40792e-06
3.48069e-06
3.55085e-06
3.61832e-06
3.68296e-06
3.74458e-06
3.80288e-06
3.85742e-06
3.90761e-06
3.95279e-06
3.99227e-06
2.36537e-06
2.40304e-06
2.44894e-06
2.50282e-06
2.56319e-06
2.6299e-06
2.70055e-06
2.77322e-06
2.84664e-06
2.91928e-06
2.99028e-06
3.05921e-06
3.12569e-06
3.18961e-06
3.25092e-06
3.30945e-06
3.36501e-06
3.41736e-06
3.46611e-06
3.51074e-06
3.55068e-06
3.5853e-06
2.11148e-06
2.14461e-06
2.18558e-06
2.23438e-06
2.28957e-06
2.35088e-06
2.41604e-06
2.48312e-06
2.55091e-06
2.6179e-06
2.68324e-06
2.74655e-06
2.80745e-06
2.86584e-06
2.92163e-06
2.9747e-06
3.02489e-06
3.07198e-06
3.11559e-06
3.15532e-06
3.19061e-06
3.22093e-06
1.88321e-06
1.91229e-06
1.94889e-06
1.99323e-06
2.04387e-06
2.10042e-06
2.16072e-06
2.22287e-06
2.28565e-06
2.3476e-06
2.40793e-06
2.46625e-06
2.5222e-06
2.57563e-06
2.62653e-06
2.67478e-06
2.72024e-06
2.76267e-06
2.80177e-06
2.83716e-06
2.86835e-06
2.89491e-06
2.91638e-06
1.67796e-06
1.70345e-06
1.73619e-06
1.77662e-06
1.82324e-06
1.8756e-06
1.93162e-06
1.98939e-06
2.04773e-06
2.10522e-06
2.1611e-06
2.21499e-06
2.26652e-06
2.31557e-06
2.36214e-06
2.40613e-06
2.44741e-06
2.48575e-06
2.52088e-06
2.55245e-06
2.58006e-06
2.60332e-06
2.62189e-06
1.49341e-06
1.51571e-06
1.54505e-06
1.58208e-06
1.62517e-06
1.67383e-06
1.72608e-06
1.77996e-06
1.83436e-06
1.88789e-06
1.93982e-06
1.98978e-06
2.03737e-06
2.08253e-06
2.12528e-06
2.16552e-06
2.20312e-06
2.23785e-06
2.26946e-06
2.29766e-06
2.32209e-06
2.34246e-06
2.35849e-06
1.32748e-06
1.34695e-06
1.37331e-06
1.40738e-06
1.44736e-06
1.49279e-06
1.54169e-06
1.59209e-06
1.64301e-06
1.69298e-06
1.74141e-06
1.78791e-06
1.83202e-06
1.87371e-06
1.91306e-06
1.94998e-06
1.98425e-06
2.0157e-06
2.04411e-06
2.06925e-06
2.09082e-06
2.10861e-06
2.1224e-06
1.17832e-06
1.19527e-06
1.21904e-06
1.25054e-06
1.28777e-06
1.33037e-06
1.37628e-06
1.42357e-06
1.47139e-06
1.51815e-06
1.5635e-06
1.60697e-06
1.64796e-06
1.68651e-06
1.72276e-06
1.75658e-06
1.78773e-06
1.81607e-06
1.84147e-06
1.86376e-06
1.88272e-06
1.89818e-06
1.91e-06
1.04423e-06
1.05897e-06
1.08048e-06
1.10976e-06
1.14455e-06
1.18471e-06
1.2279e-06
1.27242e-06
1.31749e-06
1.36129e-06
1.40402e-06
1.44486e-06
1.48289e-06
1.51839e-06
1.55165e-06
1.58247e-06
1.61061e-06
1.63601e-06
1.65863e-06
1.67834e-06
1.69495e-06
1.70834e-06
1.71843e-06
9.23755e-07
9.36574e-07
9.56117e-07
9.83448e-07
1.01608e-06
1.0541e-06
1.09474e-06
1.13684e-06
1.1794e-06
1.22043e-06
1.26118e-06
1.29968e-06
1.33456e-06
1.36686e-06
1.3972e-06
1.4252e-06
1.45058e-06
1.47337e-06
1.4936e-06
1.51113e-06
1.52577e-06
1.5374e-06
1.54601e-06
8.15607e-07
8.26763e-07
8.446e-07
8.70208e-07
9.00904e-07
9.37046e-07
9.75132e-07
1.01523e-06
1.05531e-06
1.09359e-06
1.13306e-06
1.16932e-06
1.20073e-06
1.22984e-06
1.25764e-06
1.28333e-06
1.30648e-06
1.3272e-06
1.34555e-06
1.36132e-06
1.37433e-06
1.38447e-06
1.39177e-06
7.18597e-07
7.28311e-07
7.44692e-07
7.68772e-07
7.97802e-07
8.32232e-07
8.67697e-07
9.06375e-07
9.43452e-07
9.79027e-07
1.01792e-06
1.0516e-06
1.07938e-06
1.106e-06
1.13216e-06
1.15623e-06
1.17771e-06
1.19689e-06
1.21378e-06
1.22811e-06
1.23974e-06
1.2486e-06
1.25476e-06
1.25847e-06
6.31753e-07
6.40186e-07
6.55356e-07
6.78136e-07
7.05731e-07
7.38536e-07
7.7148e-07
8.09424e-07
8.4161e-07
8.75994e-07
9.16204e-07
9.45871e-07
9.69017e-07
9.94258e-07
1.01997e-06
1.04289e-06
1.0629e-06
1.08074e-06
1.09636e-06
1.10945e-06
1.11984e-06
1.12756e-06
1.13277e-06
1.13568e-06
5.55361e-07
5.62627e-07
5.7673e-07
5.98202e-07
6.24298e-07
6.55129e-07
6.8558e-07
7.22694e-07
7.47198e-07
7.83381e-07
8.27337e-07
8.51615e-07
8.68434e-07
8.93517e-07
9.20263e-07
9.42545e-07
9.61254e-07
9.77927e-07
9.9248e-07
1.00445e-06
1.01372e-06
1.02044e-06
1.02483e-06
1.02725e-06
4.94031e-07
5.00206e-07
5.13018e-07
5.32406e-07
5.56118e-07
5.83265e-07
6.10011e-07
6.43245e-07
6.58328e-07
6.96231e-07
7.42592e-07
7.62415e-07
7.76117e-07
8.03837e-07
8.3364e-07
8.57106e-07
8.76121e-07
8.93012e-07
9.07721e-07
9.19693e-07
9.28867e-07
9.35368e-07
9.3952e-07
9.41707e-07
4.45521e-07
4.50694e-07
4.61831e-07
4.78515e-07
4.98949e-07
5.21028e-07
5.43201e-07
5.6899e-07
5.77713e-07
6.10407e-07
6.55708e-07
6.7439e-07
6.90948e-07
7.22206e-07
7.55055e-07
7.81004e-07
8.01937e-07
8.20327e-07
8.36293e-07
8.49264e-07
8.5914e-07
8.66065e-07
8.70444e-07
8.72526e-07
4.01089e-07
4.05431e-07
4.1498e-07
4.29199e-07
4.4647e-07
4.63932e-07
4.8207e-07
5.00486e-07
5.05426e-07
5.29713e-07
5.71568e-07
5.90696e-07
6.12424e-07
6.45884e-07
6.80281e-07
7.08431e-07
7.31424e-07
7.51327e-07
7.68456e-07
7.82324e-07
7.92776e-07
8.00035e-07
8.0457e-07
8.06791e-07
3.57696e-07
3.61355e-07
3.69502e-07
3.81549e-07
3.95924e-07
4.09472e-07
4.24242e-07
4.36289e-07
4.38863e-07
4.56206e-07
4.94585e-07
5.1355e-07
5.40432e-07
5.75542e-07
6.10511e-07
6.40051e-07
6.64633e-07
6.85666e-07
7.03564e-07
7.18047e-07
7.2893e-07
7.36436e-07
7.40966e-07
7.42892e-07
3.1646e-07
3.19551e-07
3.26427e-07
3.36508e-07
3.48132e-07
3.58366e-07
3.70005e-07
3.76573e-07
3.77533e-07
3.88983e-07
4.24037e-07
4.42186e-07
4.73855e-07
5.10515e-07
5.45518e-07
5.75739e-07
6.01457e-07
6.23345e-07
6.41752e-07
6.56565e-07
6.67681e-07
6.75381e-07
6.80152e-07
6.82522e-07
2.776e-07
2.80201e-07
2.85862e-07
2.9407e-07
3.03021e-07
3.10497e-07
3.19028e-07
3.2113e-07
3.20942e-07
3.27421e-07
3.59311e-07
3.76517e-07
4.12204e-07
4.50203e-07
4.85042e-07
5.15533e-07
5.42052e-07
5.64659e-07
5.83496e-07
5.98471e-07
6.09423e-07
6.16446e-07
6.19829e-07
6.20203e-07
2.41628e-07
2.43763e-07
2.48121e-07
2.54313e-07
2.60533e-07
2.65623e-07
2.7089e-07
2.69856e-07
2.68687e-07
2.71121e-07
2.99698e-07
3.16283e-07
3.55065e-07
3.94253e-07
4.29024e-07
4.59633e-07
4.86688e-07
5.09848e-07
5.29129e-07
5.44641e-07
5.56513e-07
5.65089e-07
5.71015e-07
5.74921e-07
2.0891e-07
2.10588e-07
2.13523e-07
2.17392e-07
2.20664e-07
2.23286e-07
2.24872e-07
2.22297e-07
2.19784e-07
2.1967e-07
2.44989e-07
2.61612e-07
3.02421e-07
3.42651e-07
3.77573e-07
4.08414e-07
4.36032e-07
4.59506e-07
4.78241e-07
4.92142e-07
5.01189e-07
5.05349e-07
5.04864e-07
5.0095e-07
4.95618e-07
1.79426e-07
1.80711e-07
1.82204e-07
1.83541e-07
1.83677e-07
1.83302e-07
1.80642e-07
1.77839e-07
1.724e-07
1.72943e-07
1.95781e-07
2.12876e-07
2.54805e-07
2.95996e-07
3.30974e-07
3.6196e-07
3.90784e-07
4.16622e-07
4.38662e-07
4.56892e-07
4.71825e-07
4.84514e-07
4.963e-07
5.07201e-07
5.15128e-07
1.53344e-07
1.54127e-07
1.53814e-07
1.52211e-07
1.49086e-07
1.45406e-07
1.39154e-07
1.37289e-07
1.27106e-07
1.35134e-07
1.54212e-07
1.70405e-07
2.12819e-07
2.55365e-07
2.90483e-07
3.20449e-07
3.47386e-07
3.70605e-07
3.89312e-07
4.03169e-07
4.11593e-07
4.14111e-07
4.11446e-07
4.07216e-07
4.06092e-07
1.32648e-07
1.32282e-07
1.28647e-07
1.22365e-07
1.14819e-07
1.07621e-07
1.00468e-07
1.01693e-07
9.00701e-08
1.14516e-07
1.2388e-07
1.35245e-07
1.75514e-07
2.18738e-07
2.57504e-07
2.95048e-07
3.32629e-07
3.68749e-07
4.02613e-07
4.35002e-07
4.67773e-07
5.03289e-07
5.42039e-07
5.78469e-07
6.04605e-07
1.20389e-07
1.18299e-07
1.10017e-07
9.68293e-08
8.17635e-08
6.81766e-08
6.0878e-08
6.70134e-08
6.50736e-08
1.03921e-07
1.06073e-07
1.15193e-07
1.48047e-07
1.84848e-07
2.21803e-07
2.64085e-07
3.11993e-07
3.62668e-07
4.13899e-07
4.64136e-07
5.11616e-07
5.54771e-07
5.92967e-07
6.24909e-07
6.51192e-07
1.1472e-07
1.11498e-07
1.00151e-07
8.17944e-08
5.89967e-08
3.46197e-08
2.2471e-08
3.78154e-08
5.54886e-08
8.58139e-08
7.28191e-08
1.14792e-07
1.82468e-07
2.56156e-07
3.33085e-07
4.13077e-07
4.961e-07
5.8124e-07
6.66553e-07
7.49666e-07
8.26789e-07
8.92849e-07
9.41544e-07
9.70045e-07
9.89332e-07
)
;

boundaryField
{
    inlet
    {
        type            calculated;
        value           nonuniform List<scalar> 
25
(
1.14263e-07
1.1084e-07
9.92412e-08
8.03687e-08
5.63493e-08
2.96555e-08
1.89878e-08
4.25382e-08
6.9217e-08
6.48537e-08
1.36356e-07
2.59055e-07
4.43086e-07
6.659e-07
9.20015e-07
1.20226e-06
1.51118e-06
1.84403e-06
2.19671e-06
2.56332e-06
2.93542e-06
3.29971e-06
3.64005e-06
3.93822e-06
4.18989e-06
)
;
    }
    outlet
    {
        type            calculated;
        value           nonuniform List<scalar> 0();
    }
    walls
    {
        type            calculated;
        value           nonuniform List<scalar> 0();
    }
    frontAndBack
    {
        type            empty;
    }
    procBoundary4to0
    {
        type            processor;
        value           nonuniform List<scalar> 
72
(
0.000509985
0.00043299
0.000370105
0.000318123
0.000274802
0.000238405
0.000207607
0.000181386
0.000158946
0.000139648
0.000122976
0.000108519
9.59379e-05
8.49559e-05
7.53436e-05
6.69081e-05
5.94871e-05
5.29461e-05
4.71705e-05
4.20611e-05
3.75341e-05
3.35182e-05
3.35182e-05
2.94349e-05
2.63154e-05
2.35386e-05
2.10643e-05
1.88576e-05
1.68882e-05
1.5129e-05
1.35565e-05
1.215e-05
1.08913e-05
9.76419e-06
8.75446e-06
7.8494e-06
7.03785e-06
6.30985e-06
5.65657e-06
5.07015e-06
4.54355e-06
4.07054e-06
3.64556e-06
3.26366e-06
2.92038e-06
2.61176e-06
2.33427e-06
2.08473e-06
1.8603e-06
1.65844e-06
1.47689e-06
1.3136e-06
1.16674e-06
1.03468e-06
9.15983e-07
8.09403e-07
7.13749e-07
6.28042e-07
5.52503e-07
4.91636e-07
4.43409e-07
3.99273e-07
3.56159e-07
3.15167e-07
2.76475e-07
2.40565e-07
2.07787e-07
1.78121e-07
1.51645e-07
1.3026e-07
1.17266e-07
1.11286e-07
)
;
    }
    procBoundary4to5
    {
        type            processor;
        value           nonuniform List<scalar> 
95
(
0.00060971
0.000613184
0.000615353
0.000522973
0.000522973
0.000522611
0.00044708
0.00044708
0.000444831
0.00038348
0.00038348
0.00033257
0.00033257
0.000290059
0.000255968
0.000255968
0.000225362
0.000225362
0.000199115
0.000177447
0.000177447
0.000157799
0.000141174
0.000141174
0.000126201
0.000113237
0.000113237
0.00010165
9.14158e-05
8.2211e-05
8.2211e-05
7.41709e-05
6.68054e-05
6.01599e-05
6.01599e-05
5.44717e-05
4.91016e-05
4.42475e-05
4.42475e-05
4.01608e-05
3.62095e-05
3.26328e-05
3.26328e-05
2.96603e-05
2.67332e-05
2.40837e-05
2.1687e-05
1.95204e-05
1.95204e-05
1.77543e-05
1.59749e-05
1.43672e-05
1.29162e-05
1.16074e-05
1.16074e-05
1.05418e-05
9.46864e-06
8.50241e-06
7.63298e-06
6.85138e-06
6.85138e-06
6.20522e-06
5.56824e-06
4.99674e-06
4.48434e-06
4.02516e-06
3.61389e-06
3.24573e-06
3.24573e-06
2.93254e-06
2.63564e-06
2.37013e-06
2.13222e-06
1.91826e-06
1.72531e-06
1.55171e-06
1.39642e-06
1.39642e-06
1.2601e-06
1.13666e-06
1.02798e-06
9.422e-07
8.72723e-07
8.07192e-07
7.42831e-07
6.83117e-07
6.1849e-07
5.7696e-07
5.7696e-07
4.90311e-07
5.19304e-07
4.08659e-07
6.19933e-07
6.76842e-07
9.91261e-07
)
;
    }
}


// ************************************************************************* //
