/*--------------------------------*- C++ -*----------------------------------*\
| =========                 |                                                 |
| \\      /  F ield         | OpenFOAM: The Open Source CFD Toolbox           |
|  \\    /   O peration     | Version:  2506                                  |
|   \\  /    A nd           | Website:  www.openfoam.com                      |
|    \\/     M anipulation  |                                                 |
\*---------------------------------------------------------------------------*/
FoamFile
{
    version     2.0;
    format      ascii;
    arch        "LSB;label=32;scalar=64";
    class       volScalarField;
    location    "19";
    object      p;
}
// * * * * * * * * * * * * * * * * * * * * * * * * * * * * * * * * * * * * * //

dimensions      [0 2 -2 0 0 0 0];

internalField   nonuniform List<scalar> 
400
(
3.09948e-08
-0.000122695
-0.000391605
-0.00077433
-0.00125576
-0.00179614
-0.00229673
-0.00259101
-0.00251043
-0.00191682
-0.000710048
0.00111359
0.00333584
0.00530637
0.00632438
0.00604182
0.00461504
0.00311659
0.00219237
0.00208093
0.000116871
-1.94342e-05
-0.00023261
-0.000520965
-0.000885316
-0.00134254
-0.00188715
-0.00242429
-0.00273691
-0.00254267
-0.00161577
6.47136e-05
0.00217169
0.00413775
0.00525899
0.00513187
0.00393512
0.00248645
0.00176778
0.00177908
0.000394939
0.000210886
-1.48674e-05
-0.000352175
-0.000890352
-0.00171561
-0.00282263
-0.0040475
-0.00506289
-0.00545874
-0.00491671
-0.00342963
-0.00128443
0.00100807
0.00275185
0.00337095
0.00282311
0.00176275
0.000911042
0.000842355
0.000725322
0.000446593
0.000119423
-0.000482079
-0.00155609
-0.00322012
-0.00538278
-0.00771422
-0.00974543
-0.0109864
-0.0110888
-0.010017
-0.00795117
-0.00525139
-0.00250657
-0.000374926
0.000684307
0.000683436
4.98505e-05
-0.000544807
0.000805167
0.000421452
-0.000138437
-0.00127729
-0.00326109
-0.0061449
-0.00966293
-0.0132878
-0.0164376
-0.0186292
-0.0195517
-0.0190695
-0.0172428
-0.0142848
-0.0105766
-0.00668427
-0.00334974
-0.00129526
-0.000856546
-0.00247669
0.000353831
-0.000167282
-0.00109203
-0.00298136
-0.00609226
-0.0103279
-0.0151714
-0.0199075
-0.0239091
-0.0267679
-0.0282759
-0.0283054
-0.0268514
-0.0240294
-0.019973
-0.014913
-0.0094373
-0.00481992
-0.0028191
-0.00482316
-0.000822826
-0.00149885
-0.00285659
-0.00555195
-0.00975159
-0.0151461
-0.0209678
-0.0263809
-0.0307871
-0.033888
-0.0355965
-0.0358918
-0.0347888
-0.0323449
-0.0285435
-0.0232839
-0.016698
-0.00995976
-0.00594412
-0.0062711
-0.00271551
-0.00352564
-0.00528791
-0.00866114
-0.0136911
-0.0198616
-0.0262185
-0.0318912
-0.0363682
-0.0394699
-0.0411949
-0.041591
-0.0407149
-0.038617
-0.035261
-0.030421
-0.0238354
-0.0160163
-0.00958829
-0.0065781
-0.00508899
-0.00597046
-0.00802963
-0.0118461
-0.0173643
-0.0239191
-0.0304576
-0.0361369
-0.0405446
-0.0435867
-0.0453018
-0.0457486
-0.0449897
-0.0430907
-0.0400861
-0.0358258
-0.0298714
-0.022044
-0.0139397
-0.00814652
-0.00757748
-0.00844784
-0.0106587
-0.0146624
-0.0203435
-0.0269748
-0.033484
-0.0390774
-0.0434124
-0.0464346
-0.0481799
-0.0486782
-0.0479674
-0.0461279
-0.0432849
-0.0394542
-0.0342916
-0.0272033
-0.018979
-0.0117531
-0.00982488
-0.010614
-0.0128212
-0.0167812
-0.0223563
-0.0288453
-0.035218
-0.0407212
-0.0450309
-0.0480843
-0.0498884
-0.0504364
-0.0497343
-0.0478633
-0.0450231
-0.0414033
-0.0369207
-0.0308333
-0.0234826
-0.0160252
-0.0115982
-0.0122347
-0.0142998
-0.0180046
-0.0232436
-0.0294145
-0.035586
-0.0410257
-0.0453675
-0.0484946
-0.0503708
-0.0509578
-0.050231
-0.0482723
-0.0453287
-0.0417355
-0.0377353
-0.0325217
-0.0262297
-0.0190306
-0.0128376
-0.0132297
-0.0149697
-0.018226
-0.0229373
-0.0286494
-0.0345673
-0.0399614
-0.0443801
-0.0476153
-0.0495704
-0.0501779
-0.0494024
-0.0473285
-0.044227
-0.0404995
-0.0367749
-0.0320769
-0.0266513
-0.0196722
-0.0135719
-0.0136517
-0.014865
-0.017432
-0.0214216
-0.026556
-0.032171
-0.0375245
-0.0420571
-0.0454426
-0.0475049
-0.0481391
-0.0473122
-0.0450973
-0.0418028
-0.0379081
-0.0341194
-0.0295671
-0.025044
-0.0176714
-0.0138761
-0.0136235
-0.0141221
-0.0157533
-0.0188344
-0.0232744
-0.0285299
-0.0338372
-0.0385179
-0.0421081
-0.0443336
-0.0450385
-0.0441764
-0.0418148
-0.0383048
-0.0341533
-0.0300824
-0.0255008
-0.022137
-0.0129035
-0.0138645
-0.0133196
-0.0128644
-0.013324
-0.0153511
-0.0190193
-0.023881
-0.0291417
-0.0340064
-0.0378655
-0.0403341
-0.0411891
-0.0403773
-0.0379181
-0.0341913
-0.0296936
-0.0251917
-0.0204104
-0.0177122
-0.00394774
-0.0136226
-0.0128685
-0.011226
-0.0104114
-0.011358
-0.0142786
-0.018776
-0.0240102
-0.0290928
-0.0332815
-0.0360823
-0.0371794
-0.0364926
-0.0340719
-0.0301509
-0.0251566
-0.0198008
-0.0139478
-0.00879413
0.0140399
-0.0140784
-0.0124532
-0.00910677
-0.00703783
-0.00709337
-0.00948611
-0.0137732
-0.0190584
-0.0244141
-0.0289967
-0.0322403
-0.0337314
-0.0333334
-0.0309825
-0.0268516
-0.0210211
-0.0136956
-0.00357024
0.0122724
0.0531287
-0.0118261
-0.0123495
-0.00739376
-0.004014
-0.003452
-0.00563927
-0.00992928
-0.0153641
-0.0210272
-0.0260038
-0.0297162
-0.031673
-0.0317076
-0.0295357
-0.0250089
-0.0172997
-0.00523406
0.0160826
0.0549917
0.124805
-0.0295463
-0.0117092
-0.00297404
0.000186965
0.00011197
-0.00243841
-0.0069722
-0.0126548
-0.0185906
-0.0238584
-0.0278684
-0.0301208
-0.0304096
-0.028282
-0.0230678
-0.0126394
0.00722026
0.0467841
0.117545
0.221264
)
;

boundaryField
{
    movingWall
    {
        type            zeroGradient;
    }
    fixedWalls
    {
        type            zeroGradient;
    }
    frontAndBack
    {
        type            empty;
    }
}


// ************************************************************************* //
