/*--------------------------------*- C++ -*----------------------------------*\
| =========                 |                                                 |
| \\      /  F ield         | OpenFOAM: The Open Source CFD Toolbox           |
|  \\    /   O peration     | Version:  2506                                  |
|   \\  /    A nd           | Website:  www.openfoam.com                      |
|    \\/     M anipulation  |                                                 |
\*---------------------------------------------------------------------------*/
FoamFile
{
    version     2.0;
    format      ascii;
    arch        "LSB;label=32;scalar=64";
    class       volVectorField;
    location    "19";
    object      U;
}
// * * * * * * * * * * * * * * * * * * * * * * * * * * * * * * * * * * * * * //

dimensions      [0 1 -1 0 0 0 0];

internalField   nonuniform List<vector> 
400
(
(0.000994298 -0.00107262 0)
(0.00260713 -0.00108344 0)
(0.00311778 -0.000713346 0)
(0.00195813 -0.000261859 0)
(-0.00150671 0.00037837 0)
(-0.00814442 0.0015615 0)
(-0.0187423 0.0035687 0)
(-0.0333246 0.00620506 0)
(-0.0501816 0.0083045 0)
(-0.0656879 0.00834096 0)
(-0.0758078 0.00587501 0)
(-0.0778158 0.00181929 0)
(-0.0705115 -0.00261361 0)
(-0.0541053 -0.00671962 0)
(-0.0318209 -0.00909317 0)
(-0.00752743 -0.00838577 0)
(0.0117777 -0.00450377 0)
(0.0191944 0.00185702 0)
(0.0132696 0.0051661 0)
(0.0037136 0.0038964 0)
(0.000619246 -0.00258464 0)
(0.00010785 -0.00133147 0)
(-0.00409886 0.0015948 0)
(-0.0130486 0.00556454 0)
(-0.0283667 0.0109635 0)
(-0.0508902 0.0179703 0)
(-0.0790842 0.0252199 0)
(-0.108444 0.0296411 0)
(-0.133577 0.0284892 0)
(-0.150628 0.0213965 0)
(-0.15756 0.00987058 0)
(-0.153769 -0.00395995 0)
(-0.139717 -0.0182162 0)
(-0.115793 -0.0307061 0)
(-0.0841746 -0.037993 0)
(-0.0475608 -0.0362933 0)
(-0.0114596 -0.0236621 0)
(0.0132867 -0.00260556 0)
(0.0149712 0.0129762 0)
(0.0049097 0.0124374 0)
(-0.000975546 -0.00146355 0)
(-0.00639739 0.0041583 0)
(-0.0183916 0.0128465 0)
(-0.0375524 0.0243142 0)
(-0.0649419 0.0378768 0)
(-0.098665 0.0506495 0)
(-0.133613 0.0582073 0)
(-0.164417 0.0573611 0)
(-0.187911 0.0478496 0)
(-0.202758 0.0313193 0)
(-0.208442 0.00987978 0)
(-0.205167 -0.0143859 0)
(-0.193196 -0.0393685 0)
(-0.172173 -0.0617503 0)
(-0.141933 -0.0768144 0)
(-0.102745 -0.078189 0)
(-0.0568642 -0.0598455 0)
(-0.0122926 -0.02216 0)
(0.00844597 0.0138335 0)
(0.00405154 0.0201717 0)
(-0.00307699 0.0045354 0)
(-0.0145747 0.0176157 0)
(-0.0350351 0.033635 0)
(-0.0630429 0.0529229 0)
(-0.0979271 0.0721971 0)
(-0.135441 0.0858631 0)
(-0.169865 0.0893097 0)
(-0.197695 0.0814854 0)
(-0.218077 0.0642622 0)
(-0.231035 0.0400368 0)
(-0.236905 0.0107664 0)
(-0.236286 -0.0220111 0)
(-0.229242 -0.0562499 0)
(-0.214847 -0.0889349 0)
(-0.191361 -0.115048 0)
(-0.156447 -0.126469 0)
(-0.108428 -0.112328 0)
(-0.0498977 -0.0644378 0)
(-0.000824154 0.000759113 0)
(0.00456103 0.0245406 0)
(-0.00514562 0.0157948 0)
(-0.0221014 0.0383895 0)
(-0.0490018 0.0614445 0)
(-0.0820025 0.0864632 0)
(-0.118898 0.107775 0)
(-0.15445 0.118815 0)
(-0.184032 0.116477 0)
(-0.206217 0.101968 0)
(-0.221485 0.0783811 0)
(-0.230878 0.0484134 0)
(-0.235762 0.0138539 0)
(-0.237136 -0.0242737 0)
(-0.235087 -0.0646995 0)
(-0.228816 -0.105699 0)
(-0.215963 -0.143538 0)
(-0.192231 -0.170249 0)
(-0.152414 -0.171749 0)
(-0.0928542 -0.129218 0)
(-0.0192048 -0.0361306 0)
(0.00660411 0.0238528 0)
(-0.00633949 0.0308149 0)
(-0.0265658 0.0637374 0)
(-0.0564253 0.0922731 0)
(-0.0899765 0.120249 0)
(-0.124228 0.140614 0)
(-0.154078 0.147109 0)
(-0.17646 0.138524 0)
(-0.191437 0.117875 0)
(-0.200333 0.0891194 0)
(-0.205061 0.0553257 0)
(-0.207665 0.0183465 0)
(-0.209401 -0.0211132 0)
(-0.210652 -0.0630396 0)
(-0.211299 -0.10756 0)
(-0.209444 -0.153428 0)
(-0.200134 -0.195283 0)
(-0.175771 -0.219434 0)
(-0.128501 -0.200188 0)
(-0.0550764 -0.106944 0)
(0.00506324 0.0127063 0)
(-0.0061704 0.0473245 0)
(-0.0267559 0.0902973 0)
(-0.0559462 0.122345 0)
(-0.0864943 0.150774 0)
(-0.11532 0.168214 0)
(-0.138062 0.169264 0)
(-0.153145 0.154485 0)
(-0.161623 0.128336 0)
(-0.165372 0.0955133 0)
(-0.166658 0.0593849 0)
(-0.167379 0.0217437 0)
(-0.168527 -0.0169619 0)
(-0.170719 -0.0573969 0)
(-0.174627 -0.100897 0)
(-0.179655 -0.148575 0)
(-0.182084 -0.199272 0)
(-0.173956 -0.243801 0)
(-0.145484 -0.256297 0)
(-0.090707 -0.189314 0)
(-0.00715954 -0.0135504 0)
(-0.00464676 0.0627874 0)
(-0.0228178 0.115094 0)
(-0.0484579 0.149081 0)
(-0.0738567 0.176242 0)
(-0.0962671 0.189768 0)
(-0.112329 0.18526 0)
(-0.121662 0.164817 0)
(-0.125896 0.134067 0)
(-0.127148 0.0982547 0)
(-0.127511 0.0607517 0)
(-0.128127 0.0229687 0)
(-0.129247 -0.0149869 0)
(-0.131278 -0.0537404 0)
(-0.135248 -0.094544 0)
(-0.141972 -0.139592 0)
(-0.150144 -0.191618 0)
(-0.153415 -0.248418 0)
(-0.141249 -0.289687 0)
(-0.106308 -0.259025 0)
(-0.0274123 -0.0672743 0)
(-0.00218647 0.0748777 0)
(-0.0158765 0.135673 0)
(-0.0360978 0.170675 0)
(-0.0553821 0.195652 0)
(-0.0714779 0.205193 0)
(-0.0820481 0.195894 0)
(-0.0875247 0.171012 0)
(-0.0897138 0.137 0)
(-0.0906024 0.0994189 0)
(-0.0917199 0.061379 0)
(-0.0933449 0.0236965 0)
(-0.0951263 -0.0139588 0)
(-0.0971264 -0.0519802 0)
(-0.100147 -0.0907624 0)
(-0.105774 -0.132114 0)
(-0.115094 -0.180868 0)
(-0.124631 -0.241963 0)
(-0.123559 -0.305305 0)
(-0.103893 -0.315339 0)
(-0.0353913 -0.148276 0)
(0.00066985 0.0819125 0)
(-0.00723676 0.150498 0)
(-0.0209488 0.186447 0)
(-0.0338386 0.209305 0)
(-0.0440852 0.215596 0)
(-0.0502958 0.202792 0)
(-0.0533036 0.174947 0)
(-0.054697 0.13907 0)
(-0.0560211 0.100833 0)
(-0.0581647 0.062923 0)
(-0.0608784 0.0254946 0)
(-0.063596 -0.0121742 0)
(-0.0661698 -0.0502783 0)
(-0.0689294 -0.0883056 0)
(-0.0733121 -0.126824 0)
(-0.0815853 -0.170579 0)
(-0.0938777 -0.229654 0)
(-0.0998191 -0.306405 0)
(-0.0936031 -0.353676 0)
(-0.0305417 -0.226304 0)
(0.00340916 0.0829971 0)
(0.00174986 0.158483 0)
(-0.00504121 0.195864 0)
(-0.0116024 0.217022 0)
(-0.0164502 0.221007 0)
(-0.0188945 0.206221 0)
(-0.0199168 0.177111 0)
(-0.0206812 0.14082 0)
(-0.0221598 0.102871 0)
(-0.0247361 0.0655359 0)
(-0.0279904 0.0285493 0)
(-0.0314728 -0.00900433 0)
(-0.0350628 -0.0472902 0)
(-0.0387556 -0.0852781 0)
(-0.0434064 -0.122365 0)
(-0.0509773 -0.161737 0)
(-0.0647531 -0.215838 0)
(-0.0748462 -0.299455 0)
(-0.0808378 -0.37803 0)
(-0.0230524 -0.290228 0)
(0.00558781 0.0785154 0)
(0.0101115 0.1595 0)
(0.0102236 0.199146 0)
(0.00982851 0.219636 0)
(0.0102306 0.222556 0)
(0.0115454 0.207205 0)
(0.012741 0.178164 0)
(0.0130781 0.142419 0)
(0.0121286 0.105233 0)
(0.00987891 0.0686623 0)
(0.00672157 0.0323729 0)
(0.00277914 -0.00456496 0)
(-0.00192265 -0.0423249 0)
(-0.00730714 -0.0799808 0)
(-0.0138518 -0.116193 0)
(-0.0221884 -0.152245 0)
(-0.0380398 -0.200241 0)
(-0.0508098 -0.28563 0)
(-0.0686473 -0.390649 0)
(-0.015011 -0.343502 0)
(0.00664229 0.069539 0)
(0.0166328 0.153698 0)
(0.0232789 0.195824 0)
(0.0287005 0.21617 0)
(0.0342272 0.218886 0)
(0.0397233 0.204265 0)
(0.0440248 0.176634 0)
(0.0465051 0.142454 0)
(0.0470339 0.106669 0)
(0.0458158 0.0713144 0)
(0.0432032 0.0362205 0)
(0.0391324 0.000511022 0)
(0.0334625 -0.0358404 0)
(0.0261092 -0.0722619 0)
(0.0165546 -0.107242 0)
(0.00567523 -0.140727 0)
(-0.0135524 -0.18327 0)
(-0.0275396 -0.266954 0)
(-0.0573761 -0.393534 0)
(-0.00690191 -0.3862 0)
(0.00621752 0.057826 0)
(0.0202232 0.141786 0)
(0.0329925 0.186657 0)
(0.0442291 0.207805 0)
(0.055082 0.211232 0)
(0.0653412 0.198351 0)
(0.0737135 0.173119 0)
(0.0794306 0.141253 0)
(0.0823848 0.10734 0)
(0.0828361 0.0735487 0)
(0.0810973 0.0401082 0)
(0.0770847 0.00639813 0)
(0.0704499 -0.0276332 0)
(0.0611416 -0.0617431 0)
(0.0483054 -0.0946421 0)
(0.0335343 -0.125595 0)
(0.00940577 -0.163099 0)
(-0.00446946 -0.24373 0)
(-0.0470983 -0.390198 0)
(0.00172212 -0.422132 0)
(0.00431761 0.0459129 0)
(0.0197379 0.125706 0)
(0.0370457 0.17119 0)
(0.0536002 0.192209 0)
(0.0700647 0.196233 0)
(0.0859286 0.185643 0)
(0.0996066 0.163842 0)
(0.109952 0.135545 0)
(0.116604 0.104779 0)
(0.119696 0.0737305 0)
(0.119431 0.0430522 0)
(0.115871 0.0124554 0)
(0.108277 -0.0180852 0)
(0.0970886 -0.0485441 0)
(0.0805779 -0.0780347 0)
(0.0614841 -0.106477 0)
(0.0319588 -0.140069 0)
(0.0184883 -0.217845 0)
(-0.0374212 -0.38369 0)
(0.0119857 -0.452647 0)
(0.00131733 0.0360739 0)
(0.0150444 0.108072 0)
(0.0355488 0.152874 0)
(0.0571506 0.173517 0)
(0.0794841 0.17774 0)
(0.101434 0.169161 0)
(0.121159 0.150967 0)
(0.137045 0.126853 0)
(0.148312 0.10013 0)
(0.15491 0.0728153 0)
(0.156672 0.0458199 0)
(0.154146 0.0192431 0)
(0.145817 -0.00701239 0)
(0.132992 -0.0326718 0)
(0.112739 -0.0574955 0)
(0.0896186 -0.0825751 0)
(0.0548394 -0.113565 0)
(0.0405891 -0.190264 0)
(-0.0267202 -0.375294 0)
(0.0263774 -0.47686 0)
(-0.00290613 0.0338943 0)
(0.00354421 0.0930685 0)
(0.0225394 0.127643 0)
(0.0486881 0.144455 0)
(0.0775891 0.148198 0)
(0.10673 0.141861 0)
(0.133599 0.127999 0)
(0.156215 0.109267 0)
(0.173242 0.088226 0)
(0.184509 0.0665167 0)
(0.189253 0.0451721 0)
(0.188484 0.024396 0)
(0.180193 0.00433659 0)
(0.166955 -0.0151801 0)
(0.143907 -0.0339964 0)
(0.118576 -0.0550121 0)
(0.0795925 -0.0854765 0)
(0.0623331 -0.164915 0)
(-0.00902383 -0.361884 0)
(0.0498063 -0.486316 0)
(-0.00995442 0.0242488 0)
(-0.00826304 0.0870704 0)
(0.0082665 0.112784 0)
(0.0372735 0.120368 0)
(0.0714901 0.119596 0)
(0.106667 0.113437 0)
(0.139719 0.103059 0)
(0.168046 0.0894414 0)
(0.190096 0.0744322 0)
(0.205939 0.0588562 0)
(0.213882 0.0439572 0)
(0.216449 0.0296046 0)
(0.209795 0.0166632 0)
(0.199637 0.00391434 0)
(0.177815 -0.00829437 0)
(0.156992 -0.0255124 0)
(0.117036 -0.0564637 0)
(0.0980332 -0.137627 0)
(0.0325672 -0.323867 0)
(0.0905373 -0.454106 0)
(-0.103487 0.0864763 0)
(-0.0768052 0.0707582 0)
(-0.0526486 0.0678145 0)
(-0.00760332 0.0685569 0)
(0.0382974 0.0678202 0)
(0.0844233 0.0646444 0)
(0.126911 0.0594756 0)
(0.166193 0.0524141 0)
(0.197397 0.0449219 0)
(0.225515 0.036962 0)
(0.242781 0.0297635 0)
(0.259501 0.0227654 0)
(0.262689 0.0170583 0)
(0.269124 0.0113745 0)
(0.257 0.00558755 0)
(0.252815 -0.00518905 0)
(0.217341 -0.030445 0)
(0.209414 -0.0922553 0)
(0.147203 -0.229141 0)
(0.170045 -0.341234 0)
(0.131663 0.105428 0)
(0.162015 0.0788362 0)
(0.21751 0.0568438 0)
(0.274791 0.0441563 0)
(0.324058 0.0372443 0)
(0.37191 0.0324587 0)
(0.412223 0.0290777 0)
(0.453932 0.0256711 0)
(0.484868 0.0231256 0)
(0.518944 0.0200673 0)
(0.538411 0.018109 0)
(0.564823 0.0152796 0)
(0.572343 0.0140317 0)
(0.592276 0.0112978 0)
(0.585983 0.0105082 0)
(0.59677 0.00605258 0)
(0.563703 0.00120152 0)
(0.54656 -0.0173608 0)
(0.437076 -0.0499056 0)
(0.337822 -0.101206 0)
)
;

boundaryField
{
    movingWall
    {
        type            fixedValue;
        value           uniform (1 0 0);
    }
    fixedWalls
    {
        type            noSlip;
    }
    frontAndBack
    {
        type            empty;
    }
}


// ************************************************************************* //
