/*--------------------------------*- C++ -*----------------------------------*\
| =========                 |                                                 |
| \\      /  F ield         | OpenFOAM: The Open Source CFD Toolbox           |
|  \\    /   O peration     | Version:  2506                                  |
|   \\  /    A nd           | Website:  www.openfoam.com                      |
|    \\/     M anipulation  |                                                 |
\*---------------------------------------------------------------------------*/
FoamFile
{
    version     2.0;
    format      ascii;
    arch        "LSB;label=32;scalar=64";
    class       volScalarField;
    location    "200";
    object      p;
}
// * * * * * * * * * * * * * * * * * * * * * * * * * * * * * * * * * * * * * //

dimensions      [0 2 -2 0 0 0 0];

internalField   nonuniform List<scalar> 
1340
(
-8.30546
-1.17951
-8.01663
-5.91798
-1.24079
-7.82903
-3.90455
-5.7969
-1.25577
-7.69007
-5.35706
-5.59994
-3.82452
-5.66465
-1.26828
-7.5344
-6.23288
-6.00393
-5.19679
-5.4434
-3.73946
-5.51899
-1.27949
-7.35881
-7.12701
-6.7739
-6.46893
-5.99942
-5.79546
-5.02856
-5.27822
-3.64681
-5.36642
-1.2798
-7.17885
-7.57297
-7.30771
-7.05077
-6.78858
-6.4679
-6.19395
-5.75761
-5.57828
-4.85223
-5.10523
-3.5452
-5.20878
-1.26706
-6.99908
-7.91432
-7.764
-7.58071
-7.36768
-7.12654
-6.89838
-6.67313
-6.44262
-6.15399
-5.91046
-5.50746
-5.35235
-4.66758
-4.92402
-3.43465
-5.04489
-1.24352
-6.817
-7.25882
-7.34459
-7.38995
-7.39554
-7.36242
-7.29204
-7.18626
-7.04706
-6.87734
-6.67813
-6.48526
-6.29045
-6.09049
-5.83319
-5.61927
-5.24949
-5.11801
-4.47482
-4.73451
-3.31546
-4.87397
-1.2106
-6.63038
-4.73195
-5.07018
-5.38294
-5.66757
-5.92165
-6.1431
-6.33017
-6.48155
-6.59633
-6.67405
-6.71472
-6.71873
-6.68692
-6.62059
-6.52109
-6.39098
-6.23067
-6.0709
-5.90498
-5.73411
-5.50711
-5.3217
-4.98472
-4.87605
-4.27442
-4.53706
-3.18794
-4.69604
-1.16871
-6.4392
0.48595
0.121328
-0.250843
-0.629277
-1.0124
-1.39847
-1.7855
-2.17135
-2.55361
-2.92978
-3.29717
-3.65302
-3.9945
-4.31881
-4.62315
-4.90486
-5.16145
-5.39063
-5.59037
-5.75902
-5.89521
-5.99801
-6.06687
-6.10166
-6.10262
-6.07054
-6.00617
-5.9117
-5.78692
-5.65779
-5.51892
-5.37542
-5.1774
-5.01913
-4.71417
-4.62728
-4.06692
-4.33208
-3.05238
-4.51127
-1.11876
-6.24356
6.22284
6.17056
6.11706
6.06093
6.00122
5.93801
5.87161
5.80204
5.72877
5.65127
5.57019
5.48679
5.40196
5.31581
5.22775
5.13646
5.04037
4.93773
4.8262
4.70307
4.56687
4.41794
4.25748
4.08655
3.90641
3.71776
3.52016
3.31281
3.0953
2.86747
2.62927
2.38056
2.12131
1.85156
1.57144
1.28117
0.981139
0.671819
0.353889
0.0281363
-0.304449
-0.642717
-0.985285
-1.33063
-1.677
-2.02247
-2.36493
-2.70214
-3.03167
-3.35106
-3.65773
-3.94911
-4.22266
-4.47592
-4.70656
-4.91242
-5.0916
-5.24248
-5.36373
-5.4544
-5.51392
-5.54202
-5.53903
-5.50516
-5.4422
-5.34938
-5.24819
-5.13432
-5.01622
-4.84557
-4.71285
-4.43889
-4.37255
-3.85287
-4.11986
-2.90916
-4.31946
-1.06172
-6.04232
5.59098
5.5456
5.49909
5.45031
5.39846
5.34354
5.28563
5.22468
5.16078
5.09369
5.02277
4.94801
4.8705
4.79137
4.71109
4.6293
4.54502
4.45688
4.3634
4.2625
4.15169
4.02928
3.89529
3.75065
3.59639
3.43373
3.26353
3.08551
2.89891
2.70328
2.49851
2.28449
2.06116
1.82847
1.58646
1.33522
1.07496
0.806006
0.528792
0.24387
-0.0480483
-0.346116
-0.649276
-0.956359
-1.26598
-1.57659
-1.88646
-2.19371
-2.49629
-2.79206
-3.07875
-3.35405
-3.61558
-3.86104
-4.08813
-4.2947
-4.47873
-4.63844
-4.77227
-4.87895
-4.95756
-5.00745
-5.02853
-5.02053
-4.9849
-4.92035
-4.84423
-4.75312
-4.65829
-4.51319
-4.40419
-4.15993
-4.11266
-3.63307
-3.90066
-2.75915
-4.12001
-0.999396
-5.83356
5.03464
4.99522
4.95478
4.91238
4.86732
4.81963
4.7693
4.71621
4.66023
4.60147
4.53996
4.47515
4.40657
4.33483
4.26117
4.18632
4.11023
4.03215
3.95093
3.86526
3.77342
3.67316
3.5628
3.44199
3.31149
3.17217
3.02525
2.87159
2.711
2.54269
2.36625
2.18155
1.98862
1.78738
1.57782
1.3599
1.13377
0.899597
0.657692
0.408419
0.152291
-0.11008
-0.377892
-0.650263
-0.926109
-1.2042
-1.48314
-1.76138
-2.03722
-2.30883
-2.57425
-2.83143
-3.07825
-3.31257
-3.53223
-3.73514
-3.91931
-4.08286
-4.22411
-4.3416
-4.43415
-4.5008
-4.54116
-4.55455
-4.54204
-4.50199
-4.44796
-4.37724
-4.30335
-4.18181
-4.09449
-3.87847
-3.84845
-3.40844
-3.67446
-2.60366
-3.91181
-0.933752
-5.61382
4.54174
4.50747
4.47228
4.43537
4.39617
4.35467
4.31091
4.26472
4.21596
4.16452
4.11045
4.05388
3.99451
3.93166
3.86535
3.79667
3.72671
3.65573
3.58321
3.50813
3.42935
3.34533
3.25401
3.15365
3.04402
2.92592
2.80011
2.66746
2.52887
2.38419
2.23255
2.07338
1.90666
1.73246
1.55082
1.36167
1.16504
0.961013
0.749814
0.531692
0.307021
0.076242
-0.16004
-0.401155
-0.646256
-0.894387
-1.14442
-1.39509
-1.64503
-1.89268
-2.13636
-2.37433
-2.60467
-2.82549
-3.03484
-3.23072
-3.4112
-3.57444
-3.71872
-3.84248
-3.94435
-4.0232
-4.07835
-4.10885
-4.11542
-4.09609
-4.06113
-4.00838
-3.95301
-3.85289
-3.78489
-3.59591
-3.58024
-3.18063
-3.44044
-2.44556
-3.69104
-0.869435
-5.37722
4.1139
4.08427
4.05381
4.02185
3.98792
3.95202
3.91416
3.8742
3.83201
3.78749
3.74067
3.69167
3.64056
3.58676
3.52837
3.46313
3.39056
3.31239
3.2311
3.14873
3.06697
2.98764
2.91228
2.84021
2.76774
2.68941
2.59951
2.49376
2.37228
2.24029
2.10354
1.96365
1.81911
1.66808
1.50991
1.34473
1.1729
0.994592
0.809889
0.618876
0.421776
0.218898
0.0107033
-0.20233
-0.419533
-0.64018
-0.863381
-1.08811
-1.31326
-1.53754
-1.75953
-1.97773
-2.19054
-2.39625
-2.59309
-2.77927
-2.95299
-3.11244
-3.25599
-3.38201
-3.4891
-3.57595
-3.64169
-3.68517
-3.70687
-3.70456
-3.68555
-3.64836
-3.6088
-3.5282
-3.47638
-3.31401
-3.30794
-2.9521
-3.19642
-2.28885
-3.45385
-0.813493
-5.11758
3.59672
3.57196
3.54642
3.51964
3.49123
3.46116
3.42943
3.39596
3.36063
3.3233
3.28384
3.24211
3.198
3.15163
3.10345
3.05376
3.00198
2.94717
2.88942
2.82984
2.76939
2.70777
2.64392
2.57671
2.505
2.42718
2.34219
2.25076
2.1538
2.05061
1.94051
1.82415
1.7026
1.57598
1.44399
1.30627
1.16271
1.01328
0.8581
0.697232
0.530821
0.359023
0.182134
0.000447996
-0.185552
-0.375366
-0.568351
-0.763757
-0.960728
-1.15829
-1.3553
-1.55059
-1.74281
-1.93053
-2.11221
-2.28629
-2.45112
-2.60507
-2.7465
-2.87382
-2.98557
-3.08033
-3.15704
-3.21435
-3.25231
-3.26885
-3.26717
-3.24802
-3.22509
-3.16852
-3.13173
-3.00508
-3.0016
-2.70817
-2.91779
-2.13253
-3.18021
-0.775644
-4.82718
3.06148
3.04208
3.02202
3.00096
2.97861
2.95498
2.93007
2.9038
2.87608
2.8468
2.81579
2.78301
2.7485
2.71252
2.67571
2.6389
2.60282
2.56726
2.5307
2.49094
2.44655
2.39708
2.34243
2.28222
2.21649
2.14619
2.07261
1.99661
1.91851
1.83774
1.75255
1.6612
1.56373
1.46139
1.35494
1.24414
1.12855
1.00789
0.882159
0.751374
0.615654
0.47504
0.329688
0.179765
0.0255345
-0.132665
-0.294426
-0.459248
-0.626509
-0.795524
-0.965496
-1.13548
-1.30445
-1.4713
-1.63474
-1.79347
-1.94608
-2.09109
-2.22703
-2.35238
-2.46569
-2.56551
-2.65065
-2.71962
-2.77217
-2.80611
-2.82151
-2.81934
-2.81439
-2.77959
-2.76309
-2.66478
-2.67967
-2.42641
-2.64216
-1.92273
-2.94318
-0.662853
-4.64235
2.61351
2.59811
2.58217
2.56543
2.54766
2.52884
2.50897
2.48803
2.46592
2.44258
2.41791
2.39186
2.36434
2.33528
2.30464
2.27234
2.23839
2.20291
2.16603
2.12754
2.08663
2.04251
1.99546
1.94665
1.89725
1.84738
1.79632
1.74288
1.68549
1.62298
1.5553
1.48288
1.40571
1.32367
1.23727
1.14714
1.05337
0.955594
0.853532
0.747081
0.636307
0.521239
0.40198
0.278605
0.151257
0.0201395
-0.114487
-0.252277
-0.392815
-0.535606
-0.680079
-0.825539
-0.971201
-1.11621
-1.25957
-1.40021
-1.53697
-1.66864
-1.7939
-1.91141
-2.01987
-2.1179
-2.20431
-2.27762
-2.33744
-2.38154
-2.40798
-2.41755
-2.4255
-2.40713
-2.40656
-2.33095
-2.36222
-2.14158
-2.36765
-1.70051
-2.71219
-0.52802
-4.46869
2.18928
2.17656
2.16322
2.14904
2.134
2.11811
2.10134
2.08362
2.06492
2.04519
2.02437
2.00237
1.97912
1.95457
1.92865
1.90129
1.87248
1.84222
1.81065
1.77792
1.7438
1.70751
1.66831
1.62653
1.58339
1.53986
1.49598
1.45082
1.40308
1.35146
1.29538
1.23506
1.17068
1.10199
1.02917
0.952886
0.873553
0.791009
0.704926
0.615128
0.521605
0.424426
0.32367
0.219404
0.111759
0.000875545
-0.113
-0.229609
-0.348568
-0.469502
-0.591884
-0.715134
-0.838609
-0.961531
-1.08306
-1.20229
-1.31822
-1.42976
-1.53576
-1.6351
-1.72656
-1.80905
-1.88119
-1.94256
-1.99097
-2.02337
-2.04023
-2.05655
-2.05006
-2.06089
-2.0038
-2.04704
-1.8563
-2.08771
-1.47374
-2.46858
-0.389527
-4.25953
1.81028
1.80024
1.78979
1.77873
1.76699
1.75454
1.74136
1.72743
1.71274
1.69725
1.68093
1.66369
1.64546
1.62619
1.60582
1.58431
1.5616
1.53766
1.51246
1.48606
1.45857
1.43005
1.40017
1.36815
1.33341
1.29648
1.2586
1.22064
1.18236
1.14276
1.1006
1.05495
1.00558
0.952639
0.896044
0.835761
0.772273
0.706176
0.637575
0.566195
0.491768
0.414208
0.333554
0.249871
0.163244
0.0737483
-0.0184678
-0.113227
-0.210278
-0.30934
-0.410049
-0.511976
-0.614635
-0.71745
-0.819765
-0.920875
-1.01997
-1.1162
-1.2086
-1.29624
-1.37806
-1.45316
-1.52027
-1.57902
-1.62736
-1.66177
-1.68239
-1.7034
-1.70487
-1.7233
-1.68072
-1.73227
-1.56758
-1.80083
-1.23734
-2.21007
-0.239513
-4.01606
1.46093
1.45325
1.44532
1.43698
1.42815
1.41875
1.40874
1.39806
1.38675
1.37484
1.3623
1.34909
1.33514
1.32039
1.30477
1.28823
1.27073
1.25226
1.23277
1.21223
1.19066
1.1681
1.14463
1.12029
1.09466
1.0669
1.03668
1.00471
0.972222
0.939793
0.906978
0.872801
0.836218
0.796613
0.753926
0.708132
0.659145
0.607242
0.553065
0.496945
0.438741
0.378169
0.315096
0.249526
0.181554
0.111233
0.0386428
-0.0361223
-0.11292
-0.191546
-0.271767
-0.353277
-0.435728
-0.518712
-0.601732
-0.684257
-0.765675
-0.845322
-0.922448
-0.996294
-1.06601
-1.13084
-1.18972
-1.24237
-1.28693
-1.31997
-1.34121
-1.36363
-1.36952
-1.39204
-1.36006
-1.41649
-1.27354
-1.50573
-0.987122
-1.93435
-0.0691183
-3.73446
1.09248
1.08711
1.08144
1.07536
1.06885
1.06194
1.05464
1.04691
1.03873
1.03008
1.02096
1.01132
1.00113
0.990343
0.97892
0.966829
0.954045
0.94054
0.926271
0.91121
0.895339
0.878642
0.86115
0.842918
0.824041
0.80445
0.783603
0.760739
0.735822
0.709819
0.683849
0.65822
0.632397
0.605484
0.576769
0.5459
0.512756
0.477124
0.43905
0.398973
0.357305
0.313935
0.268516
0.220809
0.170849
0.118771
0.0647377
0.00883744
-0.0488209
-0.108109
-0.168837
-0.230782
-0.293673
-0.357204
-0.421011
-0.484693
-0.547803
-0.609853
-0.670284
-0.728524
-0.783928
-0.835948
-0.883712
-0.927063
-0.964418
-0.99294
-1.01187
-1.03265
-1.03959
-1.06281
-1.03761
-1.09543
-0.96977
-1.19731
-0.718514
-1.6319
0.12429
-3.37372
0.80636
0.802988
0.799353
0.795343
0.791002
0.786436
0.781668
0.776628
0.77127
0.765534
0.7594
0.752875
0.745959
0.738608
0.730805
0.722535
0.713778
0.704505
0.694704
0.684335
0.673356
0.661724
0.649445
0.636521
0.62301
0.609
0.594545
0.579387
0.562824
0.544284
0.524162
0.503573
0.483274
0.462988
0.441813
0.418782
0.393469
0.365975
0.336606
0.305567
0.273391
0.240557
0.207212
0.173125
0.138003
0.101641
0.0640377
0.0252451
-0.0146504
-0.0555983
-0.0975114
-0.140284
-0.18376
-0.227767
-0.272078
-0.316434
-0.360543
-0.404087
-0.446681
-0.487941
-0.527418
-0.564757
-0.599297
-0.631022
-0.658638
-0.680344
-0.694704
-0.711386
-0.716589
-0.737722
-0.71584
-0.772211
-0.659151
-0.878697
-0.434418
-1.29906
0.333541
-2.88547
0.317054
0.3147
0.312132
0.309326
0.306337
0.303181
0.299833
0.296248
0.292408
0.288281
0.283843
0.27908
0.273998
0.268559
0.262748
0.25655
0.249955
0.242919
0.235417
0.227382
0.218762
0.209478
0.199497
0.188758
0.177237
0.164844
0.151408
0.136653
0.12037
0.102339
0.0830203
0.0646975
0.0520971
0.0506105
0.0635431
0.0902354
0.126071
0.163274
0.193055
0.208501
0.207296
0.192333
0.169749
0.144911
0.120268
0.0959682
0.0714462
0.0463392
0.0206863
-0.00531067
-0.031469
-0.0576762
-0.0838441
-0.109888
-0.135708
-0.16119
-0.186212
-0.210647
-0.234337
-0.257121
-0.278799
-0.299249
-0.318077
-0.335451
-0.350383
-0.362465
-0.36983
-0.379929
-0.380737
-0.396954
-0.375811
-0.426212
-0.326466
-0.522112
-0.138357
-0.86939
0.479071
-2.01978
0.316099
0.316761
0.317416
0.318048
0.318662
0.319278
0.319901
0.320544
0.3212
0.321862
0.322517
0.323176
0.32386
0.324592
0.325385
0.326263
0.327231
0.328311
0.329508
0.330853
0.33238
0.334138
0.336139
0.33836
0.340694
0.343175
0.34622
0.351166
0.360455
0.37707
0.402499
0.433994
0.462832
0.476123
0.461355
0.411479
0.328275
0.223521
0.116643
0.0284603
-0.0275405
-0.0508255
-0.051953
-0.0443032
-0.0368002
-0.0321945
-0.0297571
-0.0282542
-0.0272501
-0.0268974
-0.0274452
-0.0289701
-0.0314309
-0.0347316
-0.0387841
-0.043471
-0.0486736
-0.0542555
-0.0600837
-0.0660309
-0.0719568
-0.077809
-0.0833491
-0.0888252
-0.0936284
-0.0985177
-0.100471
-0.10489
-0.102872
-0.113072
-0.0967951
-0.132342
-0.0649359
-0.192789
0.0444771
-0.373773
0.386759
-0.872883
)
;

boundaryField
{
    inlet
    {
        type            freestreamPressure;
        freestreamValue uniform 0;
        value           nonuniform List<scalar> 
27
(
-3.66242
-3.53518
-3.45266
-3.39165
-3.32326
-3.24609
-3.16699
-3.08798
-3.00793
-2.92588
-2.84179
-2.75571
-2.66712
-2.57519
-2.47837
-2.37406
-2.25955
-2.13136
-2.04977
-1.97307
-1.88063
-1.77298
-1.64843
-1.48889
-1.27303
-0.890776
-0.384748
)
;
    }
    outlet
    {
        type            freestreamPressure;
        freestreamValue uniform 0;
        value           nonuniform List<scalar> 
78
(
0.000947044
0.000948858
0.000950641
0.000952352
0.000954002
0.000955653
0.000957312
0.00095902
0.000960752
0.000962489
0.00096419
0.000965895
0.000967657
0.000969548
0.000971604
0.000973894
0.000976428
0.000979271
0.000982436
0.00098601
0.000990094
0.000994853
0.00100035
0.00100654
0.00101311
0.00102002
0.00102824
0.00104132
0.00106617
0.00111166
0.00118283
0.00127299
0.00135827
0.00140181
0.00136562
0.00122532
0.000982348
0.000670444
0.000349618
8.50399e-05
-8.19173e-05
-0.000150563
-0.000153453
-0.00013066
-0.000108485
-9.49193e-05
-8.7757e-05
-8.33463e-05
-8.04041e-05
-7.93857e-05
-8.10307e-05
-8.55706e-05
-9.28889e-05
-0.00010271
-0.000114784
-0.000128774
-0.000144346
-0.000161109
-0.000178689
-0.000196724
-0.000214818
-0.00023283
-0.000250076
-0.000267296
-0.000282723
-0.000298409
-0.000305341
-0.000319703
-0.000315172
-0.000347177
-0.000300092
-0.000409015
-0.00020541
-0.000595182
0.000146622
-0.00111823
0.00140824
-0.0022789
)
;
    }
    walls
    {
        type            zeroGradient;
    }
    frontAndBack
    {
        type            empty;
    }
    procBoundary7to3
    {
        type            processor;
        value           nonuniform List<scalar> 
16
(
6.27151
5.63323
5.07136
4.57365
4.14151
3.6197
3.07948
2.6278
2.20156
2.20156
1.81992
1.46831
1.0976
0.809495
0.319218
0.315425
)
;
    }
    procBoundary7to6
    {
        type            processor;
        value           nonuniform List<scalar> 
91
(
-8.48979
-1.0324
-1.0324
-6.05948
-6.05948
-3.97739
-3.97739
-5.50858
-5.74507
-5.74507
-6.45738
-6.20304
-6.20304
-7.45741
-7.07165
-6.73523
-6.73523
-8.0152
-7.71133
-7.42175
-7.42175
-8.54948
-8.34978
-8.11835
-7.85867
-7.85867
-8.08905
-8.13743
-8.14258
-8.10589
-8.02909
-8.02909
-5.57343
-5.92011
-6.23503
-6.51566
-6.75987
-6.9659
-7.13249
-7.13249
0.236414
-0.181672
-0.606602
-1.03662
-1.46968
-1.9035
-2.33561
-2.76332
-3.18376
-3.59395
-3.99077
-4.37114
-4.37114
6.95903
6.89837
6.83639
6.77139
6.70227
6.62941
6.55297
6.47229
6.38724
6.29894
6.20868
6.11703
6.02387
5.92829
5.82868
5.72324
5.6099
5.48588
5.34833
5.19603
5.02975
4.85081
4.66038
4.45978
4.24953
4.029
3.79736
3.55428
3.29956
3.03311
2.75484
2.46471
2.16274
1.84912
1.52412
1.18819
0.841864
0.841864
)
;
    }
}


// ************************************************************************* //
