/*--------------------------------*- C++ -*----------------------------------*\
| =========                 |                                                 |
| \\      /  F ield         | OpenFOAM: The Open Source CFD Toolbox           |
|  \\    /   O peration     | Version:  2506                                  |
|   \\  /    A nd           | Website:  www.openfoam.com                      |
|    \\/     M anipulation  |                                                 |
\*---------------------------------------------------------------------------*/
FoamFile
{
    version     2.0;
    format      ascii;
    arch        "LSB;label=32;scalar=64";
    class       volScalarField;
    location    "200";
    object      turbulenceProperties:L;
}
// * * * * * * * * * * * * * * * * * * * * * * * * * * * * * * * * * * * * * //

dimensions      [0 1 0 0 0 0 0];

internalField   nonuniform List<scalar> 
1340
(
0.223271
0.256457
0.221663
0.260396
0.260571
0.221704
0.403441
0.262075
0.263413
0.221253
0.426049
0.314703
0.405371
0.263437
0.265908
0.22051
0.357024
0.329622
0.432586
0.31762
0.407397
0.264684
0.267981
0.219764
0.300561
0.320787
0.320941
0.36436
0.334289
0.439783
0.32055
0.409393
0.26577
0.269506
0.219073
0.279444
0.288538
0.30074
0.307297
0.32818
0.327047
0.37229
0.339212
0.447601
0.323421
0.41137
0.266662
0.270486
0.218449
0.247723
0.256708
0.266281
0.27643
0.287518
0.296342
0.30871
0.314612
0.336184
0.333615
0.380835
0.344386
0.456058
0.326253
0.413318
0.267404
0.271036
0.217798
0.219571
0.226324
0.233458
0.240987
0.248927
0.257294
0.266101
0.275495
0.285401
0.296371
0.304879
0.317421
0.322586
0.344885
0.340705
0.390079
0.349854
0.465209
0.329099
0.415197
0.268046
0.271241
0.217227
0.193468
0.197887
0.202587
0.207588
0.212901
0.21854
0.224508
0.230812
0.237461
0.244476
0.251872
0.259663
0.267866
0.276471
0.285658
0.295277
0.306095
0.31423
0.326952
0.331284
0.354354
0.34836
0.400077
0.355639
0.475079
0.331984
0.417016
0.268612
0.270999
0.216668
0.16944
0.171744
0.174118
0.176588
0.179162
0.181853
0.184692
0.187715
0.190945
0.194381
0.198035
0.201932
0.20609
0.210516
0.215213
0.220195
0.225478
0.231072
0.23698
0.243204
0.249751
0.256641
0.263893
0.271517
0.279535
0.287907
0.296855
0.306136
0.316759
0.324454
0.33736
0.340755
0.364634
0.356609
0.410866
0.361751
0.485654
0.3349
0.418813
0.26911
0.27052
0.216123
0.843601
6.75499
0
0
0.345021
0.344997
0.808211
0.634102
0.649288
0.681079
0.72301
0.780589
0.868352
1.02462
1.39348
4.2712
1.51376
1.10017
0.941487
0.855017
0.789612
0.715289
0.60221
0.40314
0.443829
0
0
0
1.6743
0.240742
0.154675
0.155753
0.165766
0.171197
0.173588
0.176014
0.178715
0.181365
0.18396
0.186586
0.189279
0.192046
0.1949
0.197875
0.201015
0.204353
0.207889
0.211628
0.215594
0.219811
0.224285
0.229014
0.234011
0.23929
0.244861
0.250725
0.256878
0.263324
0.270083
0.277177
0.284613
0.292418
0.300519
0.309187
0.318069
0.328445
0.335618
0.348708
0.351046
0.375781
0.365485
0.422467
0.368221
0.496934
0.337908
0.420529
0.269571
0.269772
0.215588
0.17916
0.660711
5.4164
0
0
0
0.204594
0.705668
0.675092
0.668134
0.69744
0.73815
0.792891
0.873341
1.00917
1.29782
2.50462
1.85932
1.2183
1.01018
0.903591
0.82847
0.751675
0.658268
0.319375
0.466384
0
0
0
2.20721
0.312717
0.169072
0.166162
0.177433
0.184525
0.187545
0.190373
0.19353
0.196574
0.199504
0.202482
0.205548
0.208674
0.211872
0.2152
0.218711
0.222412
0.2263
0.230397
0.234727
0.2393
0.24411
0.249164
0.254472
0.260049
0.265889
0.271984
0.278332
0.284951
0.291867
0.299085
0.306645
0.314427
0.322766
0.331172
0.341236
0.347792
0.361061
0.362209
0.387833
0.375005
0.434921
0.375059
0.508978
0.340979
0.422324
0.270019
0.269014
0.215025
0.176805
0.191329
0.433938
3.54179
0
0
0
0.107399
0.222752
0.81201
0.690727
0.712629
0.751739
0.804161
0.878667
0.998616
1.23354
1.95395
2.5132
1.36828
1.08923
0.957168
0.87064
0.7924
0.686175
0.376583
0.68354
0
0
0
3.35083
0.480652
0.187509
0.176998
0.189744
0.198945
0.202221
0.205156
0.208978
0.212803
0.216305
0.219705
0.223166
0.226706
0.230342
0.234122
0.238076
0.242199
0.246507
0.251024
0.255766
0.26072
0.265885
0.27127
0.276888
0.28273
0.288782
0.29503
0.301497
0.308207
0.315166
0.322433
0.329828
0.337769
0.345613
0.355269
0.361094
0.374522
0.374335
0.400863
0.385251
0.448257
0.382273
0.521768
0.344268
0.424253
0.270349
0.268228
0.214436
0.19077
0.1902
0.203848
0.308228
2.37839
8.97191e-06
0
0
0.676068
0.25584
1.16578
0.729661
0.728368
0.764065
0.814307
0.884036
0.991635
1.18886
1.69317
4.45372
1.55888
1.17681
1.01332
0.914215
0.830944
0.721444
0.466943
0.867141
0
0
0
6.39812
1.02285
0.212529
0.187759
0.200958
0.215553
0.220235
0.221945
0.225237
0.229656
0.23407
0.238175
0.242153
0.246183
0.250356
0.254691
0.259172
0.263805
0.268612
0.273617
0.278805
0.284163
0.289694
0.295404
0.301287
0.307317
0.313476
0.319773
0.326241
0.332894
0.339805
0.346739
0.354194
0.361366
0.370525
0.375468
0.38905
0.387343
0.414876
0.396087
0.462616
0.38976
0.536366
0.347427
0.426966
0.27069
0.267322
0.213632
0.196266
0.203066
0.206173
0.211505
0.249269
8.33688
0.364707
0
0
0
0.081685
0.13818
0.820333
0.747905
0.776777
0.824462
0.889718
0.986138
1.15128
1.51681
3.48038
1.87848
1.29347
1.07941
0.959653
0.864317
0.745966
0.476621
2.24914
0.432551
0
0
0.296448
1.72074
0.271239
0.199325
0.204282
0.222721
0.237157
0.242505
0.245284
0.24923
0.254159
0.259165
0.263931
0.268636
0.273454
0.27842
0.283511
0.288719
0.294089
0.299598
0.305221
0.310954
0.316791
0.322732
0.328732
0.33478
0.340853
0.347001
0.353253
0.359682
0.366027
0.372868
0.379175
0.387691
0.391557
0.405185
0.401798
0.430167
0.408111
0.477638
0.398173
0.549963
0.351226
0.428978
0.27125
0.266505
0.213136
0.201023
0.209425
0.219468
0.221959
0.219301
0.245852
0.474123
3.76632
0.000791691
0
0
5.76681
0.294708
1.35173
0.802778
0.791859
0.830144
0.887784
0.969164
1.09542
1.32748
1.93546
4.0612
1.6653
1.26402
1.08273
0.965937
0.857267
0.737021
0.302364
0.817615
0
0
0
2.81415
2.18975
0.367949
0.238754
0.231789
0.246907
0.263061
0.271394
0.275716
0.280429
0.286076
0.291936
0.297671
0.303378
0.309134
0.31495
0.320876
0.326867
0.332884
0.338895
0.344906
0.350903
0.356824
0.362648
0.36833
0.373944
0.37951
0.385153
0.390548
0.396401
0.401457
0.408823
0.411333
0.424516
0.419425
0.447612
0.423032
0.492743
0.409878
0.560806
0.359653
0.439424
0.277533
0.273432
0.221126
0.209171
0.217114
0.228741
0.233532
0.235182
0.229812
0.235087
0.271704
0.919799
6.85992
2.50692e-05
0
0
0.114911
0.273085
0.971516
0.822308
0.819808
0.865728
0.93225
1.02599
1.17323
1.45023
2.23686
3.39047
1.6843
1.30693
1.12263
0.997079
0.878951
0.72098
0.779323
0.47125
0
0
0
0.866319
2.62137
0.412462
0.266401
0.262067
0.280994
0.298973
0.307969
0.313596
0.320022
0.327304
0.334644
0.341766
0.348765
0.355733
0.36264
0.369458
0.376069
0.382459
0.388598
0.394409
0.399856
0.404846
0.409511
0.413863
0.418127
0.421919
0.426105
0.42921
0.434794
0.435245
0.447683
0.440098
0.46828
0.439545
0.511102
0.420906
0.573368
0.364449
0.438847
0.278121
0.27034
0.220222
0.218406
0.226347
0.23878
0.243468
0.246712
0.247372
0.245152
0.240732
0.255421
0.327176
5.10899
1.75324
0
0
0
0.13324
0.23027
0.772819
0.830506
0.840611
0.897265
0.976067
1.08767
1.26648
1.61796
2.80819
2.77488
1.65773
1.32219
1.14203
1.00568
0.871436
0.657905
0.858041
0.2795
0
0
0
8.35545
1.89388
0.364965
0.29302
0.303345
0.327659
0.344405
0.353049
0.360844
0.369972
0.379569
0.388892
0.397813
0.40641
0.414688
0.422427
0.429553
0.435985
0.441624
0.44639
0.4502
0.453232
0.455551
0.457561
0.458858
0.460551
0.460882
0.464071
0.461773
0.47315
0.462415
0.490661
0.456734
0.531106
0.431523
0.589234
0.368327
0.440338
0.27789
0.268139
0.219442
0.240982
0.243455
0.253464
0.257573
0.26025
0.26193
0.261171
0.257422
0.254693
0.281942
0.488005
3.84691
7.37313e-05
0
0
0
0.183174
0.229426
0.853574
0.835068
0.863252
0.933747
1.02935
1.16614
1.39054
1.86445
4.29795
2.38387
1.6138
1.31928
1.14188
0.992261
0.838379
0.5077
1.52685
0
0
0
0.0279026
3.72937
0.581619
0.339504
0.331026
0.357343
0.384036
0.399205
0.409949
0.421648
0.434265
0.446602
0.458212
0.469005
0.478641
0.486948
0.493765
0.498948
0.502416
0.504134
0.504435
0.503507
0.502072
0.499753
0.498029
0.494793
0.495025
0.489509
0.499444
0.485261
0.513286
0.47395
0.550869
0.441689
0.604624
0.371575
0.44244
0.277306
0.266986
0.21874
0.25855
0.259792
0.269363
0.272786
0.274852
0.276644
0.278416
0.278711
0.276464
0.269033
0.273439
0.317842
3.15458
3.93313
0
0
0
0
0.175227
0.264105
1.23089
0.84561
0.894302
0.981431
1.09802
1.26769
1.55799
2.25309
6.79769
2.11546
1.55747
1.2971
1.1194
0.952281
0.730661
0.848268
0.329162
0
0
0
7.89121
1.64718
0.432056
0.370239
0.392516
0.429012
0.454927
0.471878
0.48806
0.504972
0.521397
0.536425
0.549332
0.559548
0.566634
0.570406
0.571001
0.568617
0.564024
0.557762
0.551012
0.543514
0.537192
0.529547
0.52627
0.517248
0.525265
0.507593
0.53484
0.490453
0.568704
0.451082
0.616837
0.374299
0.444594
0.276436
0.266829
0.217935
0.278588
0.280158
0.290284
0.293095
0.294292
0.295198
0.296207
0.297209
0.298142
0.296114
0.290847
0.282448
0.304878
0.550155
4.22706
0.000559649
0
0
0
0
0.122578
0.336724
1.21754
0.868057
0.938016
1.04413
1.18668
1.4008
1.79491
3.00717
3.38465
1.91384
1.49179
1.25747
1.07029
0.873793
0.461934
1.87135
0
0
0
0.0360241
3.916
0.636566
0.429364
0.437966
0.482243
0.52336
0.55245
0.578101
0.603333
0.626294
0.644886
0.657678
0.663806
0.663246
0.656861
0.645967
0.632394
0.617477
0.60289
0.588431
0.576381
0.563743
0.556702
0.544302
0.550203
0.529222
0.555313
0.506366
0.585278
0.460011
0.627744
0.376691
0.447374
0.275507
0.268015
0.216926
0.299178
0.300423
0.310942
0.314029
0.315073
0.315468
0.315849
0.316298
0.316972
0.317763
0.317446
0.313985
0.30329
0.307351
0.361036
1.18946
7.35087
4.17044e-05
0
0
0
0
0.0880672
0.468394
1.01108
0.908907
0.999096
1.12653
1.3021
1.58054
2.16571
5.89565
2.54977
1.75334
1.41973
1.20121
0.998545
0.719085
0.897715
0.305866
0
0
0
6.76834
1.31434
0.547049
0.520882
0.569918
0.630802
0.678164
0.719028
0.756916
0.785927
0.799665
0.796542
0.779936
0.75518
0.726803
0.698334
0.671313
0.647202
0.625143
0.607295
0.590209
0.579805
0.564956
0.568514
0.545457
0.569051
0.518079
0.593978
0.466313
0.629775
0.378003
0.45076
0.274361
0.271791
0.214844
0.311209
0.3119
0.323259
0.327305
0.329067
0.329809
0.330483
0.33141
0.332419
0.333631
0.334901
0.336211
0.334077
0.327494
0.318955
0.339008
0.443843
4.14887
1.97016
2.96011e-08
0
0
0
0
0.0890312
0.710747
0.910885
0.96099
1.07764
1.23263
1.45539
1.84364
2.90731
4.20054
2.10777
1.60209
1.33
1.11773
0.928469
0.725986
0.647521
0
0
0
2.17148
6.7419
0.702318
0.597974
0.667391
0.772733
0.870401
0.944446
0.986516
0.983296
0.943719
0.889152
0.834644
0.785673
0.743905
0.708298
0.67853
0.652554
0.631915
0.61306
0.601607
0.586486
0.589596
0.565291
0.588582
0.534389
0.613531
0.476539
0.650701
0.381564
0.459894
0.27456
0.27918
0.21154
0.316074
0.317951
0.333946
0.340656
0.344426
0.347347
0.350076
0.352803
0.355458
0.358052
0.360677
0.36334
0.36594
0.367242
0.363641
0.355521
0.350533
0.394134
0.642614
0.0816871
0.00736828
0
0
0
0
0
0.242992
1.3078
0.935178
1.0313
1.17238
1.35999
1.64566
2.21547
4.91423
2.75888
1.82522
1.42944
1.1487
0.814449
0.751916
0.664569
0.329091
0.262872
4.1107
0.000729255
5.81184
3.05347
0.949408
1.06428
1.29668
1.37077
1.22709
1.06479
0.947026
0.863525
0.801228
0.752486
0.713515
0.681573
0.655129
0.632229
0.613701
0.597191
0.586888
0.574124
0.575569
0.555062
0.572902
0.526569
0.592802
0.471357
0.631271
0.377951
0.472578
0.272016
0.29305
0.201081
0.331264
0.336114
0.36092
0.372026
0.378793
0.384148
0.388867
0.393155
0.397228
0.401078
0.404656
0.40783
0.410652
0.413516
0.416068
0.415812
0.410163
0.398409
0.396879
0.444639
0.774102
5.97129
0
0
0
0
0
0.179982
0.302145
1.00494
0.975353
1.09796
1.25927
1.47484
1.80928
2.50224
6.91102
2.94396
2.02023
1.62524
1.38888
1.24588
1.18396
1.23716
1.41772
0.934125
0
0.110958
1.43263
1.69932
1.46764
1.30769
1.10741
0.97675
0.886554
0.822715
0.776281
0.740987
0.713238
0.690914
0.672766
0.657061
0.644397
0.632719
0.627397
0.620253
0.627874
0.60776
0.634496
0.577276
0.675915
0.50997
0.777309
0.400085
0.520709
0.285173
0.293416
0.202435
)
;

boundaryField
{
    inlet
    {
        type            calculated;
        value           nonuniform List<scalar> 
27
(
0.0876719
0.087618
0.0875161
0.08738
0.0872355
0.0870865
0.0869286
0.0867633
0.0865914
0.0864196
0.0862486
0.0860816
0.085922
0.0857735
0.0856401
0.0855258
0.085429
0.0856367
0.0856136
0.0856288
0.0857036
0.0858455
0.0860742
0.0864015
0.0868768
0.0873569
0.088355
)
;
    }
    outlet
    {
        type            calculated;
        value           nonuniform List<scalar> 
78
(
0.332084
0.33702
0.362389
0.373788
0.380737
0.386232
0.391075
0.395457
0.399599
0.403491
0.407079
0.410218
0.412966
0.415714
0.418095
0.41758
0.411551
0.399304
0.397328
0.444963
0.776003
6.00628
0
0
0
0
0
0.179587
0.301663
1.16603
0.982279
1.10065
1.26049
1.47481
1.80718
2.49349
6.80161
2.96738
2.02747
1.62862
1.39031
1.24563
1.1808
1.22303
1.30733
0.822401
0
0.128015
1.70723
1.54425
1.358
1.47893
1.29565
1.11622
0.994786
0.913184
0.856544
0.815241
0.784052
0.759857
0.740998
0.724818
0.71256
0.700396
0.69765
0.689153
0.706023
0.672128
0.724954
0.624774
0.822204
0.532252
1.55753
0.407856
0.550185
0.290126
0.293146
0.208066
)
;
    }
    walls
    {
        type            calculated;
        value           nonuniform List<scalar> 0();
    }
    frontAndBack
    {
        type            empty;
    }
    procBoundary7to3
    {
        type            processor;
        value           nonuniform List<scalar> 
16
(
0.165704
0.162208
0.178679
0.186128
0.190485
0.1977
0.207344
0.217727
0.234465
0.234465
0.250089
0.269232
0.290381
0.303026
0.304347
0.31306
)
;
    }
    procBoundary7to6
    {
        type            processor;
        value           nonuniform List<scalar> 
91
(
0.223567
0.252301
0.252301
0.257856
0.257856
0.401806
0.401806
0.420197
0.311861
0.311861
0.350351
0.325269
0.325269
0.294372
0.313978
0.315281
0.315281
0.272044
0.28137
0.293414
0.293414
0.239039
0.248181
0.257909
0.268266
0.268266
0.20938
0.216235
0.223483
0.231135
0.23921
0.23921
0.181857
0.186301
0.191033
0.196076
0.201441
0.20714
0.213181
0.213181
0.157829
0.159947
0.162165
0.164496
0.166951
0.169544
0.172307
0.175269
0.178444
0.181833
0.185453
0.189327
0.189327
9.24338
0
0
0.12433
0.312965
0.620608
0.605532
0.629695
0.662817
0.706114
0.767104
0.86362
1.04595
1.54164
2.86832
1.2915
1.00367
0.880502
0.810036
0.752968
0.678242
0.548984
0.198364
0.207138
0
0
0.05475
1.29652
0.19096
0.140647
0.145189
0.154215
0.158313
0.160244
0.162426
0.164826
0.16716
0.16716
)
;
    }
}


// ************************************************************************* //
