/*--------------------------------*- C++ -*----------------------------------*\
| =========                 |                                                 |
| \\      /  F ield         | OpenFOAM: The Open Source CFD Toolbox           |
|  \\    /   O peration     | Version:  2506                                  |
|   \\  /    A nd           | Website:  www.openfoam.com                      |
|    \\/     M anipulation  |                                                 |
\*---------------------------------------------------------------------------*/
FoamFile
{
    version     2.0;
    format      ascii;
    arch        "LSB;label=32;scalar=64";
    class       volSymmTensorField;
    location    "200";
    object      turbulenceProperties:devReff;
}
// * * * * * * * * * * * * * * * * * * * * * * * * * * * * * * * * * * * * * //

dimensions      [0 2 -2 0 0 0 0];

internalField   nonuniform List<symmTensor> 
1340
(
(1.51087e-07 3.88544e-08 -6.5245e-20 -2.15897e-07 -6.70533e-21 6.48093e-08)
(-1.06337e-07 -3.08152e-08 -6.43245e-20 1.61258e-07 -8.10477e-21 -5.49211e-08)
(1.55081e-07 4.28974e-08 3.39303e-20 -2.18835e-07 3.38085e-21 6.37541e-08)
(1.01682e-07 6.43725e-08 3.45355e-19 -1.46733e-07 3.83646e-20 4.50507e-08)
(-9.19636e-08 -3.32396e-08 8.58766e-23 1.51903e-07 -2.98081e-22 -5.99392e-08)
(1.42783e-07 5.10722e-08 -7.55425e-22 -2.14121e-07 1.78404e-22 7.13375e-08)
(-1.5931e-08 2.84086e-08 -1.75606e-19 4.82618e-08 -2.08305e-20 -3.23308e-08)
(9.91001e-08 6.01729e-08 5.64675e-21 -1.4581e-07 1.17789e-21 4.67099e-08)
(-8.338e-08 -3.44031e-08 7.68557e-20 1.45682e-07 9.5085e-21 -6.23016e-08)
(1.37511e-07 5.51429e-08 -1.54159e-19 -2.12418e-07 -1.58834e-20 7.49076e-08)
(2.99991e-08 4.87483e-08 -4.19235e-19 -1.54459e-08 -4.85924e-20 -1.45532e-08)
(7.10352e-08 5.88908e-08 -2.2947e-19 -9.32049e-08 -2.54536e-20 2.21698e-08)
(-1.3984e-08 2.80865e-08 7.75092e-20 4.66559e-08 9.13579e-21 -3.26719e-08)
(9.90897e-08 5.5193e-08 -1.14374e-19 -1.46083e-07 -1.27336e-20 4.69937e-08)
(-7.88268e-08 -3.42408e-08 -3.23834e-19 1.41589e-07 -4.00832e-20 -6.27626e-08)
(1.37563e-07 5.69283e-08 1.47985e-19 -2.13263e-07 1.491e-20 7.57006e-08)
(5.94892e-08 5.96542e-08 6.19662e-20 -5.35186e-08 7.1389e-21 -5.97058e-09)
(6.90197e-08 6.13545e-08 -1.65695e-20 -7.84732e-08 -1.96999e-21 9.45347e-09)
(3.05996e-08 4.62611e-08 1.61262e-21 -1.5823e-08 -2.96077e-22 -1.47766e-08)
(7.17414e-08 5.39854e-08 7.66889e-22 -9.40596e-08 -1.15827e-22 2.23182e-08)
(-1.22533e-08 2.77238e-08 5.45317e-20 4.51584e-08 6.56292e-21 -3.29051e-08)
(9.90005e-08 5.0344e-08 -5.78077e-21 -1.463e-07 -8.98518e-22 4.72995e-08)
(-7.45971e-08 -3.40653e-08 1.96491e-22 1.37994e-07 -1.74402e-23 -6.33968e-08)
(1.37361e-07 5.8525e-08 -5.59001e-22 -2.14076e-07 1.32836e-22 7.67141e-08)
(9.50957e-08 6.65126e-08 -1.3944e-19 -9.64009e-08 -1.62148e-20 1.30522e-09)
(8.18967e-08 6.2789e-08 -1.77809e-19 -7.96587e-08 -2.02396e-20 -2.23801e-09)
(7.92162e-08 6.21185e-08 -2.22716e-19 -8.29054e-08 -2.4869e-20 3.68925e-09)
(5.92157e-08 5.53042e-08 -9.05286e-20 -5.31424e-08 -9.84457e-21 -6.07338e-09)
(6.928e-08 5.64882e-08 1.00606e-20 -7.89097e-08 1.48007e-21 9.6297e-09)
(3.10429e-08 4.37006e-08 1.70515e-19 -1.61027e-08 1.9651e-20 -1.49401e-08)
(7.20619e-08 4.92359e-08 3.53603e-20 -9.46175e-08 3.72097e-21 2.25556e-08)
(-1.04373e-08 2.7115e-08 -1.22259e-19 4.3663e-08 -1.43111e-20 -3.32257e-08)
(9.84005e-08 4.59519e-08 1.09721e-19 -1.46302e-07 1.21063e-20 4.79018e-08)
(-7.0198e-08 -3.42336e-08 1.82685e-22 1.34676e-07 -1.13331e-22 -6.44778e-08)
(1.36047e-07 6e-08 2.76599e-22 -2.14454e-07 -6.1591e-23 7.84064e-08)
(1.21144e-07 5.9424e-08 -3.29504e-20 -1.20993e-07 -3.15735e-21 -1.50817e-10)
(1.10704e-07 6.07515e-08 1.63728e-19 -1.11217e-07 1.80569e-20 5.13136e-10)
(1.00049e-07 6.02979e-08 1.90346e-20 -9.91871e-08 1.89033e-21 -8.61542e-10)
(9.33838e-08 5.98878e-08 1.09694e-19 -9.47732e-08 1.20954e-20 1.38947e-09)
(8.05574e-08 5.69816e-08 4.45453e-22 -7.82784e-08 -3.37144e-22 -2.27901e-09)
(7.85262e-08 5.65605e-08 9.64641e-22 -8.23311e-08 -6.33806e-23 3.80493e-09)
(5.87252e-08 5.09531e-08 7.5861e-20 -5.25602e-08 8.52344e-21 -6.16494e-09)
(6.9272e-08 5.16644e-08 -9.58431e-21 -7.90539e-08 -1.18558e-21 9.7819e-09)
(3.13941e-08 4.10411e-08 -7.92699e-22 -1.63006e-08 2.03972e-22 -1.50935e-08)
(7.21841e-08 4.46308e-08 -1.61751e-22 -9.49738e-08 5.42274e-23 2.27897e-08)
(-8.68563e-09 2.62783e-08 3.5119e-22 4.22583e-08 -6.87473e-23 -3.35727e-08)
(9.77283e-08 4.18736e-08 -5.94562e-22 -1.46298e-07 1.58406e-22 4.85693e-08)
(-6.62953e-08 -3.45871e-08 2.79605e-19 1.31939e-07 3.49196e-20 -6.56433e-08)
(1.34643e-07 6.08988e-08 7.50772e-20 -2.14806e-07 7.65001e-21 8.01627e-08)
(1.68604e-07 3.18546e-08 -9.06124e-20 -1.68595e-07 -9.35891e-21 -9.64928e-12)
(1.54909e-07 3.91802e-08 6.70668e-20 -1.54908e-07 7.46914e-21 -1.40032e-12)
(1.41661e-07 4.46227e-08 3.38623e-20 -1.41638e-07 3.36868e-21 -2.27852e-11)
(1.29039e-07 4.8334e-08 -1.25758e-20 -1.29081e-07 -1.49161e-21 4.15036e-11)
(1.16768e-07 5.11379e-08 1.82343e-22 -1.16597e-07 -2.1529e-23 -1.71081e-10)
(1.07271e-07 5.30919e-08 -6.19509e-22 -1.07797e-07 1.16531e-22 5.25885e-10)
(9.72418e-08 5.33217e-08 -6.97944e-23 -9.63432e-08 -2.83439e-22 -8.98652e-10)
(9.12858e-08 5.34362e-08 -1.1955e-19 -9.27143e-08 -1.3246e-20 1.42842e-09)
(7.89095e-08 5.12936e-08 -5.71131e-20 -7.6567e-08 -5.9753e-21 -2.34254e-09)
(7.753e-08 5.10833e-08 7.15419e-20 -8.14071e-08 8.06443e-21 3.87707e-09)
(5.80388e-08 4.6618e-08 -7.22099e-20 -5.1778e-08 -8.27766e-21 -6.26085e-09)
(6.90325e-08 4.68951e-08 2.8984e-23 -7.89223e-08 -7.41872e-23 9.88979e-09)
(3.16295e-08 3.83064e-08 -1.5421e-19 -1.63959e-08 -1.78082e-20 -1.52336e-08)
(7.21702e-08 4.01459e-08 -3.19492e-20 -9.51465e-08 -3.3806e-21 2.29762e-08)
(-7.12426e-09 2.52754e-08 6.32615e-20 4.10172e-08 7.41618e-21 -3.38929e-08)
(9.71522e-08 3.79699e-08 -9.94932e-20 -1.46335e-07 -1.10036e-20 4.91831e-08)
(-6.30782e-08 -3.49981e-08 -2.35989e-19 1.29814e-07 -2.9351e-20 -6.6736e-08)
(1.33699e-07 6.11345e-08 -9.59477e-20 -2.15501e-07 -9.56066e-21 8.18023e-08)
(2.14402e-07 -4.1568e-08 -8.44353e-20 -2.14378e-07 -8.56722e-21 -2.39052e-11)
(2.03949e-07 -2.56851e-08 -1.2734e-20 -2.03924e-07 -9.68094e-22 -2.42517e-11)
(1.92856e-07 -1.13831e-08 -1.3208e-20 -1.9283e-07 -1.33596e-21 -2.62399e-11)
(1.81307e-07 1.35075e-09 -2.05054e-20 -1.81282e-07 -1.98883e-21 -2.46359e-11)
(1.69471e-07 1.25083e-08 -4.02107e-21 -1.69448e-07 -1.45956e-22 -2.36184e-11)
(1.57537e-07 2.20026e-08 5.73195e-20 -1.57511e-07 6.14631e-21 -2.58513e-11)
(1.45702e-07 2.97561e-08 6.59756e-20 -1.45689e-07 6.90061e-21 -1.31051e-11)
(1.34083e-07 3.57288e-08 -1.37021e-22 -1.34041e-07 -8.9853e-23 -4.18087e-11)
(1.22914e-07 4.00283e-08 2.85168e-20 -1.2295e-07 3.1431e-21 3.59286e-11)
(1.11866e-07 4.33977e-08 1.83596e-20 -1.1167e-07 1.91571e-21 -1.95758e-10)
(1.03344e-07 4.58529e-08 -4.25929e-23 -1.03875e-07 -6.53926e-23 5.30787e-10)
(9.39881e-08 4.66789e-08 -4.58967e-24 -9.30535e-08 2.24653e-23 -9.34621e-10)
(8.87631e-08 4.72405e-08 7.05126e-22 -9.02179e-08 -5.94807e-24 1.45486e-09)
(7.69116e-08 4.57946e-08 5.48383e-20 -7.45121e-08 5.89486e-21 -2.39946e-09)
(7.61884e-08 4.57497e-08 -6.81604e-20 -8.01179e-08 -7.63264e-21 3.92946e-09)
(5.71111e-08 4.23498e-08 6.87345e-20 -5.07708e-08 7.84867e-21 -6.34032e-09)
(6.85262e-08 4.22213e-08 2.29047e-24 -7.84936e-08 8.14234e-23 9.96745e-09)
(3.17059e-08 3.55347e-08 1.47338e-19 -1.63619e-08 1.6865e-20 -1.5344e-08)
(7.19842e-08 3.57903e-08 3.07969e-20 -9.51063e-08 3.15385e-21 2.31221e-08)
(-5.78872e-09 2.41415e-08 -6.01906e-20 3.99667e-08 -7.14524e-21 -3.4178e-08)
(9.66048e-08 3.42156e-08 2.45976e-22 -1.4636e-07 6.74468e-23 4.97553e-08)
(-6.042e-08 -3.54694e-08 4.01443e-19 1.28189e-07 4.97794e-20 -6.77691e-08)
(1.32994e-07 6.07455e-08 4.11028e-22 -2.16283e-07 -1.71498e-22 8.32898e-08)
(2.16359e-07 -1.79742e-07 -1.8553e-20 -2.16385e-07 -1.82458e-21 2.6258e-11)
(2.16845e-07 -1.58945e-07 -4.2363e-20 -2.16862e-07 -3.90377e-21 1.6919e-11)
(2.15901e-07 -1.38541e-07 1.96163e-20 -2.15911e-07 1.90533e-21 9.25391e-12)
(2.13558e-07 -1.18683e-07 -3.69727e-20 -2.13559e-07 -3.73705e-21 1.04645e-12)
(2.09878e-07 -9.9523e-08 -1.23583e-20 -2.09874e-07 -8.9675e-22 -4.12323e-12)
(2.04942e-07 -8.12175e-08 4.53717e-20 -2.04933e-07 4.56916e-21 -9.16048e-12)
(1.98866e-07 -6.39219e-08 4.72624e-21 -1.98852e-07 3.23074e-22 -1.35671e-11)
(1.91775e-07 -4.7773e-08 4.56277e-22 -1.91758e-07 -1.81857e-22 -1.6312e-11)
(1.83811e-07 -3.28634e-08 -1.3986e-20 -1.83792e-07 -1.49091e-21 -1.82981e-11)
(1.75113e-07 -1.92413e-08 -1.02718e-20 -1.75093e-07 -1.01368e-21 -2.0097e-11)
(1.65831e-07 -6.93094e-09 1.17931e-22 -1.6581e-07 1.15856e-23 -2.08541e-11)
(1.56116e-07 4.04213e-09 1.44159e-23 -1.56096e-07 -1.58951e-23 -1.9991e-11)
(1.46128e-07 1.35579e-08 -3.34988e-22 -1.46103e-07 2.98256e-23 -2.49482e-11)
(1.3607e-07 2.15089e-08 -1.06011e-20 -1.36061e-07 -1.0077e-21 -9.02352e-12)
(1.26034e-07 2.78056e-08 9.17544e-23 -1.25988e-07 -5.38128e-23 -4.5944e-11)
(1.16299e-07 3.25093e-08 -2.73459e-20 -1.16343e-07 -2.93611e-21 4.36881e-11)
(1.06484e-07 3.62854e-08 -1.75495e-20 -1.06278e-07 -1.83946e-21 -2.06547e-10)
(9.89539e-08 3.91153e-08 -4.05985e-23 -9.94975e-08 4.01181e-23 5.43655e-10)
(9.03079e-08 4.04433e-08 -4.39472e-24 -8.93532e-08 2.9e-22 -9.54655e-10)
(8.58253e-08 4.13727e-08 1.07919e-19 -8.73073e-08 1.2036e-20 1.48204e-09)
(7.45633e-08 4.05476e-08 2.82612e-20 -7.21268e-08 3.24125e-21 -2.43655e-09)
(7.44968e-08 4.06191e-08 1.11228e-19 -7.84694e-08 1.22557e-20 3.97261e-09)
(5.59316e-08 3.8197e-08 -6.55325e-20 -4.95402e-08 -7.54308e-21 -6.39139e-09)
(6.77426e-08 3.76839e-08 3.8326e-23 -7.77656e-08 -2.3054e-23 1.0023e-08)
(3.16063e-08 3.27587e-08 -1.00434e-19 -1.61868e-08 -1.13065e-20 -1.54196e-08)
(7.16097e-08 3.15819e-08 8.46855e-20 -9.48457e-08 9.67737e-21 2.3236e-08)
(-4.66901e-09 2.28965e-08 1.46356e-19 3.90959e-08 1.70485e-20 -3.44269e-08)
(9.60357e-08 3.06054e-08 -8.74282e-24 -1.46345e-07 -1.09929e-22 5.03094e-08)
(-5.83173e-08 -3.60334e-08 -2.6248e-22 1.27149e-07 5.97173e-23 -6.88313e-08)
(1.32468e-07 5.98386e-08 2.1581e-20 -2.17217e-07 2.20101e-21 8.47492e-08)
(9.19166e-08 -3.55061e-07 1.56984e-20 -9.19872e-08 1.42098e-21 7.06207e-11)
(1.02136e-07 -3.42072e-07 5.94374e-22 -1.0222e-07 5.81127e-23 8.33912e-11)
(1.12244e-07 -3.28687e-07 9.7481e-22 -1.1233e-07 1.2371e-22 8.66957e-11)
(1.2213e-07 -3.14814e-07 4.6661e-20 -1.22216e-07 4.30763e-21 8.57365e-11)
(1.31686e-07 -3.0044e-07 2.09817e-20 -1.3177e-07 1.95844e-21 8.40438e-11)
(1.40799e-07 -2.85563e-07 3.30488e-20 -1.40877e-07 3.04098e-21 7.7884e-11)
(1.49341e-07 -2.70137e-07 1.03351e-20 -1.4941e-07 9.48417e-22 6.93692e-11)
(1.57188e-07 -2.54111e-07 1.88409e-20 -1.57256e-07 1.7062e-21 6.7827e-11)
(1.6421e-07 -2.3754e-07 -1.0865e-20 -1.64266e-07 -1.26334e-21 5.67165e-11)
(1.70334e-07 -2.20526e-07 -6.51879e-20 -1.70386e-07 -6.06595e-21 5.20455e-11)
(1.75465e-07 -2.03176e-07 1.25115e-20 -1.7551e-07 1.26302e-21 4.48077e-11)
(1.79521e-07 -1.85568e-07 -1.71774e-20 -1.79556e-07 -1.70245e-21 3.54086e-11)
(1.8244e-07 -1.67808e-07 8.41538e-23 -1.82468e-07 3.10146e-23 2.88705e-11)
(1.84182e-07 -1.50045e-07 1.17314e-22 -1.84203e-07 -6.22913e-23 2.16052e-11)
(1.84735e-07 -1.32445e-07 -2.40654e-23 -1.84752e-07 9.71281e-24 1.68325e-11)
(1.84095e-07 -1.15144e-07 1.17624e-22 -1.84104e-07 -2.73875e-23 9.40377e-12)
(1.82282e-07 -9.82679e-08 4.11921e-23 -1.82288e-07 -3.30709e-23 5.14652e-12)
(1.79339e-07 -8.19565e-08 -1.5476e-22 -1.7934e-07 -4.92206e-23 7.96371e-13)
(1.75332e-07 -6.63632e-08 -2.36816e-20 -1.75328e-07 -2.20048e-21 -4.0652e-12)
(1.70352e-07 -5.16198e-08 4.78967e-20 -1.70346e-07 4.96804e-21 -6.08825e-12)
(1.64497e-07 -3.78416e-08 -3.97607e-21 -1.64488e-07 -5.77209e-22 -8.95504e-12)
(1.57874e-07 -2.50863e-08 9.89721e-21 -1.57863e-07 1.03284e-21 -1.10159e-11)
(1.50599e-07 -1.34007e-08 4.14568e-23 -1.50586e-07 -4.79504e-23 -1.29569e-11)
(1.42795e-07 -2.82509e-09 -6.33517e-22 -1.42784e-07 -2.13606e-22 -1.17609e-11)
(1.34598e-07 6.5018e-09 -5.15273e-20 -1.34579e-07 -5.60653e-21 -1.95347e-11)
(1.26203e-07 1.4448e-08 -5.03037e-20 -1.26202e-07 -5.1258e-21 -4.17096e-13)
(1.17674e-07 2.0883e-08 3.6454e-20 -1.17628e-07 3.98927e-21 -4.58e-11)
(1.09326e-07 2.58197e-08 -2.89071e-20 -1.09381e-07 -3.19998e-21 5.49091e-11)
(1.00727e-07 2.98528e-08 1.6694e-20 -1.00515e-07 1.85846e-21 -2.1115e-10)
(9.41844e-08 3.29332e-08 -1.2754e-22 -9.47412e-08 -3.20309e-23 5.56739e-10)
(8.62697e-08 3.46676e-08 -6.18621e-23 -8.53044e-08 -7.44644e-23 -9.65324e-10)
(8.2527e-08 3.58837e-08 -3.89197e-20 -8.40308e-08 -4.36751e-21 1.50378e-09)
(7.19055e-08 3.56009e-08 -7.65806e-20 -6.94469e-08 -8.63285e-21 -2.45853e-09)
(7.24856e-08 3.57384e-08 -1.06106e-19 -7.64878e-08 -1.15556e-20 4.00221e-09)
(5.4515e-08 3.41979e-08 2.84784e-20 -4.80961e-08 3.35399e-21 -6.4189e-09)
(6.66987e-08 3.33166e-08 1.55558e-20 -7.67517e-08 1.84696e-21 1.0053e-08)
(3.13369e-08 3.00091e-08 7.67425e-20 -1.5881e-08 8.73352e-21 -1.54559e-08)
(7.10676e-08 2.75287e-08 5.28027e-20 -9.43858e-08 5.89782e-21 2.33182e-08)
(-3.76007e-09 2.15599e-08 -1.90778e-22 3.83899e-08 -2.4041e-23 -3.46298e-08)
(9.54672e-08 2.71073e-08 -8.53373e-24 -1.463e-07 -5.37313e-24 5.08324e-08)
(-5.66805e-08 -3.66494e-08 -1.04007e-22 1.26507e-07 -2.70847e-23 -6.98269e-08)
(1.32169e-07 5.84276e-08 -2.06107e-20 -2.18311e-07 -2.06482e-21 8.61419e-08)
(-9.96245e-08 -1.51358e-07 -1.18073e-21 9.18296e-08 -5.02523e-23 7.79492e-09)
(-1.03461e-07 -9.24385e-08 1.80939e-22 9.64573e-08 -3.64009e-23 7.00331e-09)
(-1.05975e-07 -1.17453e-07 6.33926e-22 1.0705e-07 7.87124e-23 -1.0752e-09)
(-7.88848e-08 -3.83669e-07 -7.12045e-22 8.07785e-08 -2.64172e-23 -1.89374e-09)
(-3.86519e-08 -8.25421e-07 -7.98493e-22 3.89584e-08 -1.38182e-22 -3.06408e-10)
(-1.47572e-05 -0.000206246 4.9274e-19 1.46578e-05 3.36965e-20 9.94026e-08)
(-0.000256024 0.000528649 1.16321e-18 0.000255357 1.73876e-19 6.67318e-07)
(-0.0027978 0.0147781 -4.73034e-18 0.00279857 -3.59352e-19 -7.76491e-07)
(-0.012245 0.0734313 3.038e-18 0.0122539 -2.05556e-19 -8.88574e-06)
(-0.0310182 0.186725 2.62132e-17 0.0310211 2.38231e-18 -2.80867e-06)
(-0.0553135 0.320967 6.30106e-18 0.055301 9.38204e-19 1.24713e-05)
(-0.0771117 0.423273 2.24818e-17 0.0770981 2.6239e-18 1.35733e-05)
(-0.0880828 0.449761 -3.60905e-17 0.0880722 -1.42865e-18 1.06558e-05)
(-0.0824802 0.379461 -1.15359e-16 0.082472 -1.17037e-17 8.1686e-06)
(-0.0592081 0.220747 3.69006e-17 0.0592081 -1.79015e-18 4.76704e-08)
(-0.0227285 0.0105227 2.36167e-16 0.0227318 2.17119e-17 -3.27507e-06)
(0.0180806 -0.197364 3.21878e-17 -0.0180868 6.79606e-18 6.21903e-06)
(0.0516081 -0.342623 -4.65077e-17 -0.0516083 -4.13711e-18 1.54081e-07)
(0.0654875 -0.374099 6.88497e-18 -0.0654692 -9.35856e-19 -1.82898e-05)
(0.0547908 -0.287138 6.40405e-17 -0.0547709 6.3504e-18 -1.99308e-05)
(0.0293959 -0.145273 -2.30898e-17 -0.0293896 -2.529e-18 -6.3577e-06)
(0.00849557 -0.0405861 3.88447e-17 -0.00849547 4.07007e-18 -1.02505e-07)
(0.000880411 -0.00438038 -1.61635e-17 -0.000880374 -1.53362e-18 -3.73228e-08)
(3.55747e-06 -6.74409e-05 1.43863e-18 -3.59304e-06 1.06918e-19 3.55641e-08)
(-3.35256e-06 -1.14402e-06 2.2754e-19 3.33473e-06 2.40076e-20 1.78341e-08)
(-3.64235e-08 -1.92627e-07 1.02451e-21 3.63288e-08 1.34544e-22 9.47425e-11)
(1.09476e-08 -3.36781e-07 1.59563e-21 -1.08416e-08 6.32884e-23 -1.0597e-10)
(2.40523e-08 -3.49268e-07 1.21347e-20 -2.39869e-08 1.12999e-21 -6.54064e-11)
(1.97054e-08 -3.08727e-07 -7.86245e-22 -1.97145e-08 -2.01219e-24 9.06729e-12)
(1.7888e-08 -3.1113e-07 4.26753e-21 -1.79141e-08 4.35739e-22 2.61556e-11)
(2.79024e-08 -4.34682e-07 -1.42456e-20 -2.79327e-08 -1.17223e-21 3.02901e-11)
(3.38904e-08 -4.27153e-07 -2.12153e-20 -3.3913e-08 -2.03339e-21 2.26136e-11)
(3.72166e-08 -3.80275e-07 1.85023e-21 -3.72461e-08 1.09387e-22 2.9502e-11)
(4.25745e-08 -3.57654e-07 -8.41236e-21 -4.26079e-08 -8.14092e-22 3.3413e-11)
(4.96139e-08 -3.46168e-07 1.78735e-20 -4.96546e-08 1.63504e-21 4.07197e-11)
(5.71732e-08 -3.3495e-07 -5.5641e-21 -5.72211e-08 -4.39514e-22 4.78442e-11)
(6.49358e-08 -3.23162e-07 -1.55483e-20 -6.49865e-08 -1.4397e-21 5.07129e-11)
(7.2944e-08 -3.11675e-07 -1.39268e-20 -7.29985e-08 -1.32938e-21 5.45004e-11)
(8.11367e-08 -3.00376e-07 1.28594e-20 -8.11966e-08 1.19088e-21 5.99047e-11)
(8.9377e-08 -2.88949e-07 4.93769e-25 -8.94344e-08 -6.10947e-24 5.74257e-11)
(9.75703e-08 -2.7725e-07 -2.72657e-23 -9.76265e-08 3.40897e-23 5.62131e-11)
(1.05625e-07 -2.65248e-07 -1.66282e-23 -1.05678e-07 2.41616e-23 5.32776e-11)
(1.13457e-07 -2.52912e-07 -2.27835e-23 -1.1351e-07 1.67001e-23 5.30445e-11)
(1.20949e-07 -2.40181e-07 -1.21926e-23 -1.20998e-07 6.72352e-24 4.83827e-11)
(1.27996e-07 -2.26967e-07 -6.40695e-22 -1.28046e-07 -7.40754e-23 4.96938e-11)
(1.34479e-07 -2.13266e-07 -1.75782e-20 -1.34525e-07 -1.68007e-21 4.57995e-11)
(1.40323e-07 -1.99143e-07 1.14722e-22 -1.40366e-07 1.12074e-22 4.24737e-11)
(1.45447e-07 -1.84681e-07 4.95871e-20 -1.45486e-07 4.78594e-21 3.92334e-11)
(1.49767e-07 -1.69926e-07 6.3018e-23 -1.498e-07 -1.03447e-22 3.3587e-11)
(1.53208e-07 -1.54937e-07 1.25716e-20 -1.53237e-07 1.20687e-21 2.92559e-11)
(1.5572e-07 -1.3983e-07 -3.20537e-21 -1.55743e-07 -3.20591e-22 2.34528e-11)
(1.5727e-07 -1.24737e-07 2.14608e-20 -1.57289e-07 2.15481e-21 1.97693e-11)
(1.57832e-07 -1.0977e-07 1.58591e-23 -1.57846e-07 -7.13317e-23 1.42314e-11)
(1.57398e-07 -9.50338e-08 5.35103e-24 -1.57408e-07 -2.28319e-23 1.04871e-11)
(1.55978e-07 -8.06435e-08 1.74621e-23 -1.55985e-07 8.73441e-23 6.9797e-12)
(1.53604e-07 -6.67378e-08 2.26503e-20 -1.53606e-07 2.10477e-21 2.41639e-12)
(1.50332e-07 -5.34454e-08 -5.02345e-20 -1.50332e-07 -5.12872e-21 -6.9677e-13)
(1.46229e-07 -4.08806e-08 1.26967e-20 -1.46227e-07 1.47004e-21 -2.42235e-12)
(1.41367e-07 -2.91146e-08 -7.16835e-23 -1.41362e-07 -1.35306e-23 -4.99174e-12)
(1.35831e-07 -1.81981e-08 1.85674e-22 -1.35823e-07 -1.30964e-22 -7.86508e-12)
(1.29721e-07 -8.1833e-09 -2.83837e-20 -1.29715e-07 -3.0031e-21 -5.65655e-12)
(1.23138e-07 7.84687e-10 3.06527e-22 -1.23121e-07 4.22152e-23 -1.61546e-11)
(1.16268e-07 8.55707e-09 9.49461e-21 -1.16275e-07 8.91113e-22 6.23139e-12)
(1.09147e-07 1.49664e-08 -2.37989e-22 -1.09101e-07 3.17049e-23 -4.63587e-11)
(1.02117e-07 1.99842e-08 2.48339e-22 -1.02181e-07 -7.6564e-23 6.46084e-11)
(9.46956e-08 2.41348e-08 -1.59689e-20 -9.44804e-08 -1.81381e-21 -2.15233e-10)
(8.91196e-08 2.73495e-08 -3.66488e-20 -8.96846e-08 -4.01268e-21 5.65016e-10)
(8.19448e-08 2.93929e-08 -2.39167e-20 -8.09734e-08 -2.49986e-21 -9.71384e-10)
(7.89261e-08 3.08188e-08 1.19424e-20 -8.0443e-08 1.48075e-21 1.51691e-09)
(6.89801e-08 3.09945e-08 5.69063e-20 -6.65098e-08 6.30354e-21 -2.4703e-09)
(7.01893e-08 3.11488e-08 5.1098e-20 -7.42025e-08 5.45458e-21 4.01326e-09)
(5.28849e-08 3.03908e-08 -7.22017e-23 -4.64625e-08 -1.83103e-22 -6.42245e-09)
(6.54097e-08 2.9148e-08 -6.78578e-20 -7.54613e-08 -7.59949e-21 1.00516e-08)
(3.08865e-08 2.73202e-08 -1.46281e-22 -1.54287e-08 6.89707e-23 -1.54578e-08)
(7.03636e-08 2.36313e-08 -5.10027e-20 -9.37102e-08 -5.53347e-21 2.33466e-08)
(-3.09143e-09 2.0168e-08 3.89129e-20 3.7876e-08 4.61926e-21 -3.47845e-08)
(9.49216e-08 2.36677e-08 -2.07845e-22 -1.46217e-07 -2.1534e-23 5.12951e-08)
(-5.55519e-08 -3.72752e-08 -1.60218e-19 1.26334e-07 -1.98484e-20 -7.07825e-08)
(1.32189e-07 5.65244e-08 1.96333e-20 -2.19595e-07 2.00696e-21 8.74057e-08)
(-1.31174e-07 -2.99346e-07 -2.63055e-24 1.199e-07 -8.34433e-23 1.12742e-08)
(-8.23027e-08 -1.42651e-07 1.85955e-21 7.62195e-08 1.57362e-22 6.08322e-09)
(-9.13547e-08 -8.17977e-08 6.87033e-22 9.20593e-08 1.13949e-22 -7.04541e-10)
(-9.0404e-08 -7.80852e-08 -5.64897e-22 9.18596e-08 -2.55681e-23 -1.45561e-09)
(-6.9049e-08 -2.54315e-07 -5.77367e-22 6.91476e-08 -6.43344e-23 -9.85984e-11)
(-2.99313e-08 -6.42847e-07 2.79498e-24 2.983e-08 -8.62679e-24 1.01305e-10)
(-1.56417e-06 -8.63053e-05 8.97229e-23 1.57277e-06 -2.55544e-21 -8.60869e-09)
(-4.54388e-05 -9.38252e-05 4.57992e-19 4.53027e-05 4.84141e-20 1.3605e-07)
(-0.00106857 0.00469808 -2.13346e-18 0.00106771 -2.24649e-19 8.57949e-07)
(-0.00660105 0.037573 1.43396e-17 0.00660532 1.31153e-18 -4.26945e-06)
(-0.0205442 0.121339 -8.227e-18 0.0205523 -3.5492e-19 -8.09197e-06)
(-0.0418895 0.241818 2.04521e-19 0.0418849 -6.93893e-19 4.51657e-06)
(-0.0640279 0.352612 4.96048e-17 0.0640147 4.58931e-18 1.31161e-05)
(-0.0784386 0.405544 -1.91545e-18 0.0784278 1.21765e-18 1.08742e-05)
(-0.0783262 0.37125 -5.72488e-17 0.0783194 -5.16843e-18 6.8473e-06)
(-0.0611149 0.24839 -8.2095e-19 0.0611148 1.64364e-19 8.75811e-09)
(-0.0297891 0.0652694 -6.51591e-17 0.029793 -7.33673e-18 -3.89014e-06)
(0.00796836 -0.129883 7.21658e-17 -0.00797179 5.26422e-18 3.43264e-06)
(0.0414824 -0.280622 4.73585e-17 -0.0414834 4.96618e-18 9.86726e-07)
(0.058678 -0.334302 3.12724e-17 -0.0586633 2.32284e-18 -1.46222e-05)
(0.052856 -0.274856 8.51584e-17 -0.0528372 1.00109e-17 -1.87518e-05)
(0.0307679 -0.150334 -1.12649e-16 -0.0307608 -1.10742e-17 -7.11242e-06)
(0.0100315 -0.0470019 5.5461e-17 -0.0100308 5.23601e-18 -7.53064e-07)
(0.0013648 -0.0064255 -2.05076e-17 -0.00136451 -1.74423e-18 -2.94707e-07)
(9.06091e-06 -6.90641e-05 9.29619e-22 -9.07784e-06 -9.57737e-21 1.69254e-08)
(-2.52567e-06 -6.83293e-08 6.44834e-23 2.51214e-06 8.98118e-22 1.35252e-08)
(-3.86912e-08 -1.22143e-07 -2.90839e-21 3.85773e-08 -2.34675e-22 1.13947e-10)
(9.75938e-09 -2.80062e-07 -4.85739e-21 -9.65981e-09 -4.79401e-22 -9.95787e-11)
(2.64702e-08 -3.11174e-07 6.06186e-22 -2.64015e-08 3.09959e-23 -6.8719e-11)
(2.29097e-08 -2.76429e-07 -1.21953e-21 -2.29135e-08 -1.1504e-22 3.78584e-12)
(1.94547e-08 -2.59605e-07 5.53337e-22 -1.94814e-08 5.28165e-24 2.66535e-11)
(2.93626e-08 -3.65414e-07 1.06319e-20 -2.93994e-08 1.00417e-21 3.68483e-11)
(3.57288e-08 -3.74653e-07 2.8485e-24 -3.57652e-08 -1.22177e-24 3.63832e-11)
(3.74653e-08 -3.30626e-07 1.45026e-20 -3.75086e-08 1.41191e-21 4.32803e-11)
(4.09444e-08 -3.07188e-07 -1.30539e-20 -4.09957e-08 -1.1915e-21 5.1291e-11)
(4.63008e-08 -2.96014e-07 3.44786e-21 -4.63629e-08 2.88993e-22 6.21323e-11)
(5.22827e-08 -2.85752e-07 -2.78148e-24 -5.23493e-08 -2.71551e-23 6.65789e-11)
(5.84733e-08 -2.74996e-07 1.71489e-20 -5.85382e-08 1.63066e-21 6.49425e-11)
(6.49224e-08 -2.64682e-07 -4.70216e-21 -6.49904e-08 -4.17633e-22 6.7988e-11)
(7.15574e-08 -2.54696e-07 6.08089e-21 -7.16177e-08 5.71268e-22 6.02603e-11)
(7.8257e-08 -2.44607e-07 3.18895e-21 -7.83128e-08 3.38501e-22 5.57828e-11)
(8.49292e-08 -2.34305e-07 -4.92308e-24 -8.49786e-08 3.10348e-23 4.93616e-11)
(9.15233e-08 -2.23825e-07 1.73309e-20 -9.15674e-08 1.68998e-21 4.41093e-11)
(9.7965e-08 -2.13127e-07 -3.56136e-24 -9.8005e-08 -5.07145e-24 4.00242e-11)
(1.0415e-07 -2.02098e-07 5.80714e-22 -1.04187e-07 1.00667e-22 3.73487e-11)
(1.09974e-07 -1.90668e-07 1.26146e-20 -1.10008e-07 1.21769e-21 3.39943e-11)
(1.15359e-07 -1.78867e-07 2.11482e-23 -1.1539e-07 -8.13385e-23 3.06026e-11)
(1.20239e-07 -1.66758e-07 -8.40876e-23 -1.20265e-07 1.01811e-22 2.62556e-11)
(1.24537e-07 -1.54364e-07 2.64526e-20 -1.24559e-07 2.60034e-21 2.21042e-11)
(1.28177e-07 -1.41718e-07 -1.19379e-20 -1.28195e-07 -1.2521e-21 1.77415e-11)
(1.31101e-07 -1.28891e-07 2.604e-23 -1.31115e-07 -7.14186e-23 1.38571e-11)
(1.33266e-07 -1.15991e-07 -2.05205e-20 -1.33277e-07 -2.0175e-21 1.08699e-11)
(1.34634e-07 -1.03107e-07 1.35006e-23 -1.3464e-07 5.9447e-23 6.32992e-12)
(1.35179e-07 -9.03221e-08 4.58478e-24 -1.35183e-07 4.37035e-23 3.6205e-12)
(1.34888e-07 -7.77269e-08 2.09756e-20 -1.34889e-07 2.16335e-21 5.5252e-13)
(1.3377e-07 -6.54372e-08 2.74496e-21 -1.33767e-07 2.77376e-22 -2.28569e-12)
(1.3185e-07 -5.35773e-08 4.39214e-21 -1.31844e-07 3.58593e-22 -5.44527e-12)
(1.29169e-07 -4.22505e-08 -8.38969e-21 -1.29162e-07 -9.65413e-22 -6.76413e-12)
(1.25772e-07 -3.15356e-08 -2.26921e-20 -1.25764e-07 -2.13443e-21 -8.38831e-12)
(1.21715e-07 -2.14789e-08 6.75796e-20 -1.21704e-07 7.2778e-21 -1.09614e-11)
(1.17074e-07 -1.2143e-08 2.76507e-20 -1.17067e-07 2.83747e-21 -7.40364e-12)
(1.1192e-07 -3.66157e-09 4.67602e-20 -1.119e-07 4.99427e-21 -1.98696e-11)
(1.06427e-07 3.7998e-09 5.41437e-20 -1.06434e-07 5.59623e-21 6.97725e-12)
(1.00596e-07 1.00447e-08 -4.19467e-20 -1.00544e-07 -4.50843e-21 -5.18421e-11)
(9.47951e-08 1.5014e-08 5.80429e-20 -9.48636e-08 6.35757e-21 6.8513e-11)
(8.84933e-08 1.91582e-08 -1.50359e-20 -8.82726e-08 -1.80098e-21 -2.20655e-10)
(8.3846e-08 2.23981e-08 -3.11287e-23 -8.44118e-08 7.45711e-23 5.65773e-10)
(7.74046e-08 2.46538e-08 1.25776e-20 -7.64305e-08 1.3277e-21 -9.74115e-10)
(7.50841e-08 2.62192e-08 -1.05294e-20 -7.66008e-08 -1.09439e-21 1.51668e-09)
(6.58348e-08 2.67713e-08 4.46974e-20 -6.33654e-08 5.08906e-21 -2.4694e-09)
(6.76522e-08 2.68859e-08 3.40172e-20 -7.16568e-08 3.75907e-21 4.00459e-09)
(5.10574e-08 2.68155e-08 -5.70652e-24 -4.46581e-08 5.19291e-24 -6.39922e-09)
(6.39121e-08 2.5199e-08 4.36504e-20 -7.39179e-08 4.85997e-21 1.00058e-08)
(3.02438e-08 2.47418e-08 9.81849e-24 -1.4844e-08 -2.28422e-22 -1.53998e-08)
(6.95563e-08 1.98734e-08 -1.47613e-19 -9.28637e-08 -1.66289e-20 2.33073e-08)
(-2.71658e-09 1.87772e-08 -3.71845e-20 3.75545e-08 -4.2799e-21 -3.48379e-08)
(9.44971e-08 2.02392e-08 -9.52385e-20 -1.46115e-07 -1.03527e-20 5.16184e-08)
(-5.48953e-08 -3.78015e-08 1.61406e-19 1.26447e-07 2.00165e-20 -7.15518e-08)
(1.32732e-07 5.41636e-08 -1.87389e-20 -2.21198e-07 -1.88984e-21 8.84659e-08)
(-1.12032e-07 -3.14312e-07 -7.27397e-25 1.0247e-07 2.60895e-23 9.56212e-09)
(-1.06382e-07 -2.66486e-07 3.6275e-24 9.82395e-08 2.36706e-23 8.14232e-09)
(-7.57044e-08 -1.36196e-07 -6.94337e-22 7.63865e-08 -9.12218e-23 -6.82047e-10)
(-7.56673e-08 -8.47181e-08 9.54728e-22 7.69543e-08 7.42208e-23 -1.28697e-09)
(-7.54115e-08 -5.93904e-08 1.76192e-22 7.54862e-08 5.00199e-23 -7.47447e-11)
(-6.26002e-08 -1.57549e-07 -7.85578e-22 6.24278e-08 -7.75807e-23 1.72437e-10)
(-2.93368e-08 -4.65692e-07 5.03448e-22 2.94617e-08 3.45503e-23 -1.2481e-10)
(6.70942e-08 -1.98405e-05 8.63496e-23 -6.0308e-08 1.69284e-22 -6.78615e-09)
(-3.34315e-06 -5.79062e-05 -8.1092e-23 3.3334e-06 2.34866e-22 9.75447e-09)
(-0.00032367 0.000916989 9.45551e-21 0.000323022 4.04457e-21 6.48227e-07)
(-0.00308646 0.0162177 -2.05028e-20 0.00308742 -8.5369e-20 -9.51468e-07)
(-0.0124657 0.0716797 1.13214e-17 0.0124738 1.10994e-18 -8.08155e-06)
(-0.0300188 0.171887 1.89429e-19 0.0300219 2.08552e-19 -3.09632e-06)
(-0.0513451 0.283155 -1.20812e-18 0.0513356 -5.61686e-19 9.43493e-06)
(-0.0682692 0.356376 3.63752e-17 0.0682589 3.66452e-18 1.02229e-05)
(-0.0730687 0.354323 2.92067e-18 0.0730627 6.10238e-19 5.98336e-06)
(-0.0616953 0.265934 2.78522e-17 0.0616947 1.95374e-18 6.70097e-07)
(-0.0355176 0.110219 5.24771e-17 0.0355199 5.41083e-18 -2.35395e-06)
(-0.00102545 -0.0704417 3.64821e-20 0.00102152 1.04942e-18 3.93501e-06)
(0.0319178 -0.223038 -3.41399e-17 -0.0319235 -2.67298e-18 5.718e-06)
(0.0516989 -0.294784 -3.85131e-17 -0.051694 -5.7631e-18 -4.82941e-06)
(0.0502811 -0.260362 1.47966e-16 -0.0502708 1.51809e-17 -1.02485e-05)
(0.0316119 -0.15356 -1.08253e-16 -0.0316073 -9.3997e-18 -4.59731e-06)
(0.0115252 -0.0535577 3.33595e-19 -0.0115253 -3.5855e-19 1.40286e-07)
(0.00179944 -0.0082916 -5.54155e-18 -0.00179934 -5.13929e-19 -9.76379e-08)
(2.54316e-05 -0.0001517 -4.43188e-22 -2.54513e-05 -2.00939e-21 1.96639e-08)
(-3.57525e-06 -4.94939e-07 -4.72886e-20 3.55943e-06 -4.57404e-21 1.58183e-08)
(-3.82413e-08 -7.17254e-08 -4.42305e-24 3.82327e-08 1.57827e-23 8.57953e-12)
(1.1475e-08 -2.31554e-07 -2.74595e-21 -1.12699e-08 -2.62623e-22 -2.0512e-10)
(3.09816e-08 -2.75659e-07 -1.93035e-24 -3.08212e-08 -1.72221e-23 -1.6045e-10)
(2.65803e-08 -2.45627e-07 1.46514e-24 -2.65309e-08 -5.02603e-24 -4.93755e-11)
(1.98833e-08 -2.16875e-07 -1.35259e-22 -1.98805e-08 -8.40846e-24 -2.84896e-12)
(2.76013e-08 -3.01286e-07 -2.02229e-21 -2.75942e-08 -1.31672e-22 -7.04036e-12)
(3.52779e-08 -3.29858e-07 -2.06933e-20 -3.52655e-08 -2.03991e-21 -1.23772e-11)
(3.64683e-08 -2.88259e-07 1.28698e-20 -3.64724e-08 1.18957e-21 4.11936e-12)
(3.87223e-08 -2.64007e-07 -3.25972e-21 -3.87525e-08 -2.79568e-22 3.01822e-11)
(4.28828e-08 -2.5407e-07 2.01416e-24 -4.29346e-08 -1.45233e-23 5.17946e-11)
(4.76476e-08 -2.45294e-07 -3.72793e-21 -4.77136e-08 -3.43127e-22 6.59942e-11)
(5.24993e-08 -2.35169e-07 -7.18988e-21 -5.25717e-08 -7.00972e-22 7.23654e-11)
(5.75737e-08 -2.25305e-07 -9.46098e-25 -5.76484e-08 -8.12165e-24 7.46536e-11)
(6.2911e-08 -2.16128e-07 -9.12875e-24 -6.29845e-08 3.05622e-23 7.35272e-11)
(6.83829e-08 -2.07155e-07 1.06759e-20 -6.84575e-08 1.05322e-21 7.45495e-11)
(7.38625e-08 -1.98096e-07 -1.356e-20 -7.39328e-08 -1.30023e-21 7.03166e-11)
(7.92935e-08 -1.88894e-07 -3.315e-21 -7.93618e-08 -3.1143e-22 6.83428e-11)
(8.46084e-08 -1.79502e-07 -4.9406e-24 -8.46757e-08 1.73485e-23 6.73005e-11)
(8.97196e-08 -1.69839e-07 -8.9419e-24 -8.97829e-08 1.01594e-23 6.32573e-11)
(9.45544e-08 -1.5988e-07 1.73294e-23 -9.46146e-08 -4.87008e-23 6.02084e-11)
(9.90497e-08 -1.49664e-07 -1.96767e-23 -9.91046e-08 -3.93221e-23 5.48641e-11)
(1.03142e-07 -1.39202e-07 -2.52356e-20 -1.03193e-07 -2.40051e-21 5.09559e-11)
(1.06758e-07 -1.28508e-07 3.105e-20 -1.06803e-07 3.16412e-21 4.46602e-11)
(1.09839e-07 -1.17616e-07 2.93742e-21 -1.0988e-07 1.962e-22 4.03757e-11)
(1.12337e-07 -1.06604e-07 1.83381e-23 -1.12375e-07 -7.26397e-24 3.71193e-11)
(1.14209e-07 -9.55517e-08 1.82176e-23 -1.14241e-07 -7.40387e-24 3.15361e-11)
(1.15421e-07 -8.4514e-08 3.90427e-24 -1.15449e-07 -8.21999e-23 2.81184e-11)
(1.15942e-07 -7.35605e-08 -2.0131e-20 -1.15966e-07 -2.016e-21 2.36715e-11)
(1.15763e-07 -6.27867e-08 -2.65057e-21 -1.15782e-07 -1.92593e-22 1.91693e-11)
(1.14891e-07 -5.22967e-08 1.27636e-21 -1.14906e-07 1.96444e-22 1.50702e-11)
(1.13345e-07 -4.21947e-08 2.29511e-20 -1.13357e-07 2.41553e-21 1.23916e-11)
(1.11146e-07 -3.25471e-08 8.58893e-21 -1.11155e-07 5.39577e-22 8.66206e-12)
(1.0833e-07 -2.34031e-08 -9.17966e-20 -1.08335e-07 -9.67521e-21 4.78561e-12)
(1.04947e-07 -1.48231e-08 -1.61871e-20 -1.04955e-07 -1.43369e-21 8.03853e-12)
(1.01039e-07 -6.92074e-09 1.8414e-20 -1.01029e-07 1.79786e-21 -9.47614e-12)
(9.67725e-08 1.17201e-10 -8.8756e-20 -9.67934e-08 -9.41541e-21 2.08748e-11)
(9.211e-08 6.0929e-09 3.15285e-20 -9.20659e-08 3.54641e-21 -4.40421e-11)
(8.74373e-08 1.08935e-08 -1.60589e-20 -8.75171e-08 -1.71375e-21 7.97925e-11)