/*--------------------------------*- C++ -*----------------------------------*\
| =========                 |                                                 |
| \\      /  F ield         | OpenFOAM: The Open Source CFD Toolbox           |
|  \\    /   O peration     | Version:  2506                                  |
|   \\  /    A nd           | Website:  www.openfoam.com                      |
|    \\/     M anipulation  |                                                 |
\*---------------------------------------------------------------------------*/
FoamFile
{
    version     2.0;
    format      ascii;
    arch        "LSB;label=32;scalar=64";
    class       volScalarField;
    location    "200";
    object      turbulenceProperties:nut;
}
// * * * * * * * * * * * * * * * * * * * * * * * * * * * * * * * * * * * * * //

dimensions      [0 2 -1 0 0 0 0];

internalField   nonuniform List<scalar> 
1340
(
6.10146e-06
6.10214e-06
6.10179e-06
6.08293e-06
6.10274e-06
6.10222e-06
6.08091e-06
6.08283e-06
6.10339e-06
6.10273e-06
6.07225e-06
6.07429e-06
6.08078e-06
6.08271e-06
6.10406e-06
6.10333e-06
6.07748e-06
6.07318e-06
6.07223e-06
6.07422e-06
6.08065e-06
6.08256e-06
6.10477e-06
6.10403e-06
6.09003e-06
6.08628e-06
6.08216e-06
6.07789e-06
6.07343e-06
6.07222e-06
6.07414e-06
6.08052e-06
6.08238e-06
6.1055e-06
6.10482e-06
6.09907e-06
6.09631e-06
6.09377e-06
6.09062e-06
6.08684e-06
6.08265e-06
6.07832e-06
6.07371e-06
6.07222e-06
6.07405e-06
6.08039e-06
6.08218e-06
6.10626e-06
6.1057e-06
6.11087e-06
6.10894e-06
6.10636e-06
6.10314e-06
6.09979e-06
6.09698e-06
6.09442e-06
6.09125e-06
6.08744e-06
6.08317e-06
6.07878e-06
6.07402e-06
6.07224e-06
6.07395e-06
6.08025e-06
6.08194e-06
6.10704e-06
6.10669e-06
6.11602e-06
6.11554e-06
6.11488e-06
6.11405e-06
6.11302e-06
6.11167e-06
6.10977e-06
6.10721e-06
6.10397e-06
6.10056e-06
6.09769e-06
6.09511e-06
6.09193e-06
6.08808e-06
6.08373e-06
6.07927e-06
6.07437e-06
6.07229e-06
6.07384e-06
6.08011e-06
6.08168e-06
6.10783e-06
6.10777e-06
6.11537e-06
6.1159e-06
6.11631e-06
6.11665e-06
6.11691e-06
6.11704e-06
6.117e-06
6.11675e-06
6.1163e-06
6.11566e-06
6.11484e-06
6.11383e-06
6.1125e-06
6.11064e-06
6.1081e-06
6.10484e-06
6.10137e-06
6.09844e-06
6.09583e-06
6.09264e-06
6.08875e-06
6.08433e-06
6.0798e-06
6.07476e-06
6.07236e-06
6.07373e-06
6.07996e-06
6.08139e-06
6.10863e-06
6.10895e-06
6.10774e-06
6.107e-06
6.10649e-06
6.10669e-06
6.10763e-06
6.10888e-06
6.11014e-06
6.11131e-06
6.11239e-06
6.11338e-06
6.11426e-06
6.11505e-06
6.11576e-06
6.11636e-06
6.11684e-06
6.11723e-06
6.11753e-06
6.11771e-06
6.11772e-06
6.11751e-06
6.11709e-06
6.11647e-06
6.11567e-06
6.11468e-06
6.11338e-06
6.11155e-06
6.10903e-06
6.10577e-06
6.10224e-06
6.09924e-06
6.0966e-06
6.09339e-06
6.08948e-06
6.08497e-06
6.08036e-06
6.07519e-06
6.07245e-06
6.07361e-06
6.07981e-06
6.08106e-06
6.10942e-06
6.11022e-06
7.19587e-08
3.21386e-10
0
0
1.02994e-07
0.0024754
0.00978769
0.0388783
0.0885735
0.148153
0.206305
0.255999
0.293924
0.319244
0.333083
0.337985
0.336948
0.323793
0.290099
0.231133
0.151991
0.0728226
0.0201217
0.00165142
0.000410799
0
0
0
5.4482e-09
1.32796e-06
6.98e-06
7.51253e-06
6.28951e-06
5.97113e-06
6.06662e-06
6.12293e-06
6.1192e-06
6.11221e-06
6.11e-06
6.10772e-06
6.10614e-06
6.10662e-06
6.10822e-06
6.10982e-06
6.11116e-06
6.11235e-06
6.11345e-06
6.11445e-06
6.11534e-06
6.11613e-06
6.11681e-06
6.11737e-06
6.11781e-06
6.11816e-06
6.1184e-06
6.11845e-06
6.1183e-06
6.11792e-06
6.11732e-06
6.11654e-06
6.11556e-06
6.11429e-06
6.1125e-06
6.11002e-06
6.10675e-06
6.10316e-06
6.10009e-06
6.09742e-06
6.09419e-06
6.09024e-06
6.08566e-06
6.08096e-06
6.07565e-06
6.07258e-06
6.07349e-06
6.07965e-06
6.08073e-06
6.1102e-06
6.11159e-06
6.82918e-06
1.60829e-07
7.37595e-10
0
0
0
0.000945169
0.003597
0.0234246
0.0652441
0.122329
0.182834
0.237325
0.280642
0.310805
0.328191
0.335434
0.335353
0.324434
0.294256
0.239016
0.162261
0.0823887
0.0266707
0.00132764
0.000363416
0
0
0
3.00459e-09
7.37078e-07
6.42642e-06
7.7766e-06
6.45279e-06
5.9916e-06
6.0621e-06
6.11759e-06
6.10713e-06
6.10139e-06
6.10691e-06
6.10927e-06
6.10785e-06
6.10742e-06
6.1088e-06
6.11067e-06
6.11224e-06
6.1135e-06
6.11459e-06
6.11558e-06
6.11647e-06
6.11725e-06
6.11789e-06
6.1184e-06
6.11881e-06
6.1191e-06
6.11921e-06
6.11911e-06
6.11878e-06
6.11821e-06
6.11745e-06
6.11649e-06
6.11525e-06
6.1135e-06
6.11106e-06
6.10779e-06
6.10414e-06
6.10099e-06
6.09828e-06
6.09504e-06
6.09106e-06
6.0864e-06
6.08161e-06
6.07617e-06
6.07276e-06
6.07337e-06
6.07948e-06
6.08038e-06
6.11097e-06
6.11305e-06
7.73896e-06
6.58399e-06
5.87748e-07
2.72199e-09
0
0
0
0.000229992
0.000842908
0.0126551
0.0443697
0.096105
0.157003
0.215688
0.264638
0.300319
0.32225
0.332454
0.333524
0.324735
0.297936
0.246441
0.172362
0.0927292
0.0315974
0.00233022
0.000643046
0
0
0
1.13752e-09
2.63891e-07
5.62176e-06
8.04967e-06
6.56844e-06
5.94817e-06
6.07107e-06
6.1793e-06
6.14488e-06
6.10105e-06
6.09552e-06
6.10419e-06
6.1089e-06
6.10963e-06
6.11025e-06
6.11168e-06
6.11329e-06
6.11466e-06
6.1158e-06
6.11679e-06
6.11766e-06
6.11839e-06
6.11899e-06
6.11946e-06
6.11981e-06
6.11999e-06
6.11995e-06
6.11966e-06
6.11914e-06
6.1184e-06
6.11746e-06
6.11625e-06
6.11455e-06
6.11215e-06
6.10889e-06
6.10518e-06
6.10195e-06
6.09919e-06
6.09594e-06
6.09193e-06
6.0872e-06
6.0823e-06
6.07673e-06
6.07297e-06
6.07325e-06
6.07931e-06
6.08003e-06
6.11171e-06
6.1146e-06
6.17369e-06
7.34802e-06
6.50855e-06
1.78911e-06
8.48766e-09
3.76441e-19
0
0
2.17831e-08
0.00134707
0.00516361
0.0273717
0.0712426
0.130006
0.191701
0.24627
0.288014
0.315121
0.32869
0.331017
0.324124
0.300536
0.252803
0.181785
0.102095
0.0370446
0.00413674
0.00109193
0
0
0
1.98104e-10
3.92678e-08
4.58577e-06
8.63436e-06
6.94888e-06
5.70965e-06
5.75644e-06
6.08125e-06
6.18758e-06
6.14568e-06
6.10398e-06
6.09738e-06
6.10482e-06
6.11031e-06
6.11226e-06
6.1133e-06
6.11453e-06
6.11585e-06
6.11704e-06
6.11805e-06
6.1189e-06
6.11957e-06
6.12012e-06
6.12054e-06
6.12079e-06
6.12082e-06
6.12059e-06
6.1201e-06
6.11939e-06
6.11848e-06
6.1173e-06
6.11564e-06
6.11329e-06
6.11005e-06
6.10629e-06
6.10298e-06
6.10016e-06
6.09689e-06
6.09286e-06
6.08805e-06
6.08304e-06
6.07734e-06
6.07324e-06
6.07315e-06
6.07911e-06
6.07967e-06
6.1124e-06
6.11621e-06
6.00787e-06
6.1784e-06
6.97084e-06
6.75964e-06
4.03553e-06
5.48856e-11
5.94709e-13
0
0
0
0.000101232
0.000255914
0.0137556
0.0477984
0.100923
0.163335
0.223379
0.272544
0.306663
0.325201
0.330431
0.325048
0.304149
0.260211
0.192452
0.11267
0.0437954
0.00546921
0.00179494
1.06335e-06
0
0
5.70554e-14
1.03358e-08
2.36106e-06
9.2969e-06
9.24801e-06
6.83804e-06
5.79353e-06
5.81243e-06
6.0548e-06
6.15259e-06
6.13647e-06
6.10895e-06
6.10325e-06
6.10846e-06
6.11303e-06
6.11503e-06
6.1161e-06
6.11718e-06
6.11831e-06
6.11932e-06
6.12014e-06
6.12077e-06
6.12126e-06
6.12159e-06
6.1217e-06
6.12153e-06
6.1211e-06
6.12043e-06
6.11954e-06
6.11839e-06
6.11679e-06
6.11449e-06
6.11128e-06
6.10747e-06
6.10407e-06
6.1012e-06
6.09791e-06
6.09385e-06
6.08896e-06
6.08385e-06
6.07801e-06
6.07356e-06
6.07305e-06
6.07891e-06
6.0793e-06
6.11309e-06
6.11795e-06
6.13068e-06
6.07894e-06
6.17851e-06
6.43141e-06
7.16567e-06
4.85006e-06
7.01537e-07
3.30178e-09
2.03556e-16
0
0
9.71323e-11
0.00127458
0.00483814
0.0228166
0.0592423
0.111631
0.171474
0.228587
0.274987
0.306426
0.322363
0.323079
0.309446
0.275921
0.219532
0.146846
0.0749067
0.0257038
0.00112073
0.000602172
0
0
0
2.0999e-12
7.31315e-09
1.25807e-06
6.66354e-06
8.62683e-06
7.14337e-06
6.02329e-06
5.84643e-06
6.01806e-06
6.12759e-06
6.13204e-06
6.11274e-06
6.10776e-06
6.11198e-06
6.11595e-06
6.11783e-06
6.11887e-06
6.11982e-06
6.12073e-06
6.12153e-06
6.12217e-06
6.1226e-06
6.1228e-06
6.12273e-06
6.12236e-06
6.12173e-06
6.12087e-06
6.11976e-06
6.11821e-06
6.11598e-06
6.11281e-06
6.10895e-06
6.10543e-06
6.10246e-06
6.09914e-06
6.09505e-06
6.09007e-06
6.08481e-06
6.07883e-06
6.07397e-06
6.07294e-06
6.0787e-06
6.07893e-06
6.11369e-06
6.11979e-06
6.14848e-06
6.14487e-06
6.1202e-06
6.11479e-06
6.26755e-06
7.16236e-06
6.6828e-06
4.14227e-06
1.37295e-07
6.69302e-10
3.02941e-18
0
0
5.55449e-06
0.00107481
0.00374627
0.0200603
0.0538826
0.103692
0.162182
0.219445
0.266945
0.299512
0.315526
0.314379
0.295622
0.255064
0.193332
0.12197
0.0585618
0.0174577
0.00491956
0.000178306
0
0
0
6.35172e-13
6.13341e-09
1.27634e-06
6.97593e-06
8.55177e-06
6.94163e-06
5.96537e-06
5.89544e-06
6.06815e-06
6.14142e-06
6.12971e-06
6.11293e-06
6.11169e-06
6.11607e-06
6.11926e-06
6.12085e-06
6.12177e-06
6.12249e-06
6.12316e-06
6.12373e-06
6.12409e-06
6.12415e-06
6.12387e-06
6.12329e-06
6.12247e-06
6.12139e-06
6.1199e-06
6.11775e-06
6.11463e-06
6.11072e-06
6.10706e-06
6.10397e-06
6.10058e-06
6.09646e-06
6.09138e-06
6.08595e-06
6.0798e-06
6.07451e-06
6.07286e-06
6.07847e-06
6.07859e-06
6.11429e-06
6.12174e-06
6.14692e-06
6.15319e-06
6.15203e-06
6.14771e-06
6.10134e-06
6.26555e-06
6.67883e-06
7.33721e-06
5.93955e-06
2.78956e-06
1.65387e-09
1.05862e-11
0
0
0
2.65627e-06
0.000811274
0.00269134
0.018306
0.0513614
0.100579
0.158919
0.216457
0.264243
0.296403
0.310053
0.304418
0.278032
0.229155
0.163701
0.0950026
0.0408479
0.00919855
0.00267428
2.58839e-05
0
0
0
1.6053e-10
2.11097e-08
2.88123e-06
8.05129e-06
7.81618e-06
6.31067e-06
5.8348e-06
5.96682e-06
6.11708e-06
6.14236e-06
6.12338e-06
6.11426e-06
6.11588e-06
6.11944e-06
6.12203e-06
6.1236e-06
6.12448e-06
6.12501e-06
6.12538e-06
6.12555e-06
6.1254e-06
6.12491e-06
6.12413e-06
6.12309e-06
6.12165e-06
6.11959e-06
6.11655e-06
6.11261e-06
6.10882e-06
6.10558e-06
6.10212e-06
6.09796e-06
6.09279e-06
6.08718e-06
6.08084e-06
6.07515e-06
6.07283e-06
6.07822e-06
6.07824e-06
6.11479e-06
6.12372e-06
6.15268e-06
6.15656e-06
6.16172e-06
6.15548e-06
6.13521e-06
6.16701e-06
6.40337e-06
6.90228e-06
7.31192e-06
5.13897e-06
1.02227e-06
4.81949e-09
1.72455e-17
0
0
0
9.23038e-07
0.000789371
0.00263164
0.0184336
0.0518885
0.101665
0.16058
0.218312
0.265144
0.294611
0.302947
0.2901
0.254936
0.198851
0.131613
0.0682909
0.0249175
0.00292184
0.000921396
0
0
0
1.27213e-14
3.67285e-09
8.26551e-07
6.39897e-06
8.57752e-06
6.98031e-06
5.95481e-06
5.88355e-06
6.06148e-06
6.14012e-06
6.13682e-06
6.12435e-06
6.1208e-06
6.1213e-06
6.12286e-06
6.12468e-06
6.12608e-06
6.12681e-06
6.12706e-06
6.12698e-06
6.12657e-06
6.12585e-06
6.12485e-06
6.12348e-06
6.12151e-06
6.11856e-06
6.11462e-06
6.11071e-06
6.10732e-06
6.10375e-06
6.09956e-06
6.09431e-06
6.08853e-06
6.08199e-06
6.0759e-06
6.07285e-06
6.07794e-06
6.07787e-06
6.11518e-06
6.12568e-06
6.15234e-06
6.15589e-06
6.15951e-06
6.16487e-06
6.16283e-06
6.15062e-06
6.13434e-06
6.23592e-06
6.52297e-06
7.31874e-06
6.88032e-06
4.18387e-06
7.51461e-09
4.1569e-11
0
0
0
0
1.04521e-06
0.00097384
0.00337863
0.02034
0.0554768
0.107
0.166942
0.224132
0.268078
0.292174
0.292737
0.270922
0.2264
0.164378
0.098149
0.0435046
0.011004
0.00306919
1.05018e-05
0
0
0
2.96715e-10
5.21656e-08
3.48053e-06
8.35957e-06
7.71167e-06
6.24793e-06
5.86499e-06
5.99116e-06
6.10429e-06
6.12644e-06
6.12495e-06
6.12611e-06
6.12689e-06
6.12644e-06
6.12666e-06
6.12761e-06
6.12839e-06
6.1286e-06
6.1283e-06
6.12764e-06
6.12669e-06
6.12537e-06
6.1235e-06
6.12067e-06
6.11675e-06
6.11275e-06
6.10919e-06
6.1055e-06
6.10126e-06
6.09594e-06
6.08998e-06
6.08324e-06
6.07676e-06
6.07295e-06
6.07765e-06
6.07747e-06
6.11543e-06
6.12761e-06
6.15069e-06
6.15417e-06
6.15738e-06
6.16123e-06
6.16544e-06
6.16869e-06
6.15945e-06
6.14882e-06
6.13637e-06
6.34286e-06
6.7854e-06
7.58349e-06
5.6053e-06
9.08127e-07
4.28108e-09
3.87305e-16
0
0
0
0
3.32522e-06
0.00139383
0.00505559
0.0243614
0.0625699
0.116773
0.177585
0.232774
0.271417
0.287336
0.278684
0.246246
0.192451
0.127114
0.0654029
0.0227852
0.00205523
0.000663006
0
0
0
3.97108e-14
5.70288e-09
1.30684e-06
7.11386e-06
8.26896e-06
6.67736e-06
5.96781e-06
6.00299e-06
6.11661e-06
6.12959e-06
6.11664e-06
6.11902e-06
6.12638e-06
6.12935e-06
6.12957e-06
6.12972e-06
6.13004e-06
6.13001e-06
6.1295e-06
6.1286e-06
6.12735e-06
6.12558e-06
6.12288e-06
6.11903e-06
6.11496e-06
6.11122e-06
6.10738e-06
6.10309e-06
6.0977e-06
6.09158e-06
6.08461e-06
6.07778e-06
6.07314e-06
6.07734e-06
6.07705e-06
6.1155e-06
6.12951e-06
6.14882e-06
6.15243e-06
6.15589e-06
6.15939e-06
6.16314e-06
6.16772e-06
6.17174e-06
6.17211e-06
6.15861e-06
6.13907e-06
6.19291e-06
6.45537e-06
7.34749e-06
6.80632e-06
3.81229e-06
1.32793e-07
6.54452e-10
1.99254e-17
0
0
0
0
1.61292e-05
0.00213946
0.00802723
0.0313371
0.0739561
0.131221
0.19187
0.242646
0.273353
0.278396
0.258395
0.214738
0.153599
0.0892709
0.0375283
0.00809437
0.00228459
2.4264e-05
0
0
0
1.06719e-09
2.21782e-07
5.14915e-06
8.57556e-06
7.03151e-06
5.9062e-06
5.87924e-06
6.10182e-06
6.17149e-06
6.1453e-06
6.12515e-06
6.12531e-06
6.12968e-06
6.13152e-06
6.13181e-06
6.13172e-06
6.13132e-06
6.13054e-06
6.12936e-06
6.12768e-06
6.12512e-06
6.12138e-06
6.11727e-06
6.11337e-06
6.10935e-06
6.10498e-06
6.09954e-06
6.09326e-06
6.08607e-06
6.07887e-06
6.07343e-06
6.07707e-06
6.07662e-06
6.11554e-06
6.13133e-06
6.14856e-06
6.15237e-06
6.15603e-06
6.1597e-06
6.16345e-06
6.16736e-06
6.17189e-06
6.17658e-06
6.18098e-06
6.17355e-06
6.16154e-06
6.13015e-06
6.32366e-06
6.81524e-06
7.4459e-06
5.69792e-06
2.36211e-06
5.51352e-09
3.29604e-11
1.95771e-21
0
0
0
0
6.0369e-05
0.00308735
0.0117109
0.0413542
0.0897104
0.149734
0.2082
0.251295
0.270246
0.262035
0.22857
0.1741
0.110281
0.0531057
0.0174473
0.00254083
0.00058658
0
0
0
1.56671e-11
1.41077e-09
2.51992e-06
9.28112e-06
8.60965e-06
6.39995e-06
5.75758e-06
5.91479e-06
6.10259e-06
6.14803e-06
6.13771e-06
6.13078e-06
6.13155e-06
6.13318e-06
6.13366e-06
6.13338e-06
6.13268e-06
6.1316e-06
6.13004e-06
6.12764e-06
6.12404e-06
6.11995e-06
6.11591e-06
6.11168e-06
6.1072e-06
6.10169e-06
6.09529e-06
6.08783e-06
6.08032e-06
6.07397e-06
6.07669e-06
6.0761e-06
6.11495e-06
6.13321e-06
6.15093e-06
6.15483e-06
6.1585e-06
6.16216e-06
6.1659e-06
6.1697e-06
6.17368e-06
6.17786e-06
6.18301e-06
6.18745e-06
6.18998e-06
6.17654e-06
6.15098e-06
6.20145e-06
6.53134e-06
7.1087e-06
7.35504e-06
4.63749e-06
1.0816e-06
4.32699e-13
4.45381e-14
0
0
0
0
0
0.000688242
0.00237168
0.0190964
0.0559446
0.11111
0.17414
0.229672
0.263912
0.268941
0.245005
0.195722
0.130543
0.0667621
0.019351
0.00598985
0.000740789
0.000298851
6.85031e-05
2.13759e-07
1.39067e-15
4.66096e-10
5.88089e-08
4.77108e-06
9.00096e-06
7.69054e-06
6.35651e-06
6.01919e-06
6.0659e-06
6.1233e-06
6.1358e-06
6.13452e-06
6.13422e-06
6.13483e-06
6.13491e-06
6.13434e-06
6.13331e-06
6.13182e-06
6.12957e-06
6.12611e-06
6.12206e-06
6.11789e-06
6.11347e-06
6.10887e-06
6.10335e-06
6.09679e-06
6.08921e-06
6.08127e-06
6.07439e-06
6.07665e-06
6.07578e-06
6.1155e-06
6.13457e-06
6.15036e-06
6.15389e-06
6.15721e-06
6.16052e-06
6.16391e-06
6.16742e-06
6.17106e-06
6.17483e-06
6.17881e-06
6.18334e-06
6.18833e-06
6.1942e-06
6.19045e-06
6.17181e-06
6.15633e-06
6.28034e-06
6.66107e-06
7.36432e-06
7.2133e-06
4.66422e-06
9.27913e-07
3.65117e-09
0
0
0
0
0
1.67875e-06
0.000843964
0.00261418
0.0188693
0.0526577
0.101545
0.156357
0.204094
0.233501
0.236993
0.21422
0.169772
0.113972
0.0641359
0.030277
0.0117493
0.00354644
0.000584329
0.000115123
0
2.85551e-12
1.85489e-10
1.11366e-06
4.99398e-06
6.54405e-06
6.39978e-06
6.17169e-06
6.11795e-06
6.12629e-06
6.13448e-06
6.13684e-06
6.13765e-06
6.13807e-06
6.1379e-06
6.13714e-06
6.13585e-06
6.13385e-06
6.13071e-06
6.12686e-06
6.12262e-06
6.11785e-06
6.11295e-06
6.10723e-06
6.10059e-06
6.09247e-06
6.08429e-06
6.07581e-06
6.07672e-06
6.07511e-06
6.11277e-06
6.13798e-06
)
;

boundaryField
{
    inlet
    {
        type            freestream;
        freestreamValue uniform 1e-05;
        value           nonuniform List<scalar> 
27
(
6.10146e-06
6.10179e-06
6.10222e-06
6.10273e-06
6.10333e-06
6.10403e-06
6.10482e-06
6.1057e-06
6.10669e-06
6.10777e-06
6.10895e-06
6.11022e-06
6.11159e-06
6.11305e-06
6.1146e-06
6.11621e-06
6.11795e-06
6.11979e-06
6.12174e-06
6.12372e-06
6.12568e-06
6.12761e-06
6.12951e-06
6.13133e-06
6.13321e-06
6.13457e-06
6.13798e-06
)
;
    }
    outlet
    {
        type            freestream;
        freestreamValue uniform 1e-05;
        value           nonuniform List<scalar> 
78
(
6.15036e-06
6.15389e-06
6.15721e-06
6.16052e-06
6.16391e-06
6.16742e-06
6.17106e-06
6.17483e-06
6.17881e-06
6.18334e-06
6.18833e-06
6.1942e-06
6.19045e-06
6.17181e-06
6.15633e-06
6.28034e-06
6.66107e-06
7.36432e-06
7.2133e-06
4.66422e-06
9.27913e-07
3.65117e-09
0
0
0
0
0
1.67875e-06
0.000843964
0.00261418
0.0188693
0.0526577
0.101545
0.156357
0.204094
0.233501
0.236993
0.21422
0.169772
0.113972
0.0641359
0.030277
0.0117493
0.00354644
0.000584329
0.000115123
0
2.85551e-12
1.85489e-10
1.11366e-06
4.99398e-06
6.54405e-06
6.39978e-06
6.17169e-06
6.11795e-06
6.12629e-06
6.13448e-06
6.13684e-06
6.13765e-06
6.13807e-06
6.1379e-06
6.13714e-06
6.13585e-06
6.13385e-06
6.13071e-06
6.12686e-06
6.12262e-06
6.11785e-06
6.11295e-06
6.10723e-06
6.10059e-06
6.09247e-06
6.08429e-06
6.07581e-06
6.07672e-06
6.07511e-06
6.11277e-06
6.13798e-06
)
;
    }
    walls
    {
        type            nutUSpaldingWallFunction;
        value           nonuniform List<scalar> 0();
    }
    frontAndBack
    {
        type            empty;
    }
    procBoundary7to3
    {
        type            processor;
        value           nonuniform List<scalar> 
16
(
6.38668e-06
8.13217e-06
6.23716e-06
5.97005e-06
6.1098e-06
6.14135e-06
6.13882e-06
6.14171e-06
6.14799e-06
6.14799e-06
6.14836e-06
6.14672e-06
6.14465e-06
6.14403e-06
6.14615e-06
6.14605e-06
)
;
    }
    procBoundary7to6
    {
        type            processor;
        value           nonuniform List<scalar> 
91
(
6.10124e-06
6.10156e-06
6.10156e-06
6.08302e-06
6.08302e-06
6.08104e-06
6.08104e-06
6.07228e-06
6.07435e-06
6.07435e-06
6.0771e-06
6.07295e-06
6.07295e-06
6.08946e-06
6.08575e-06
6.0817e-06
6.0817e-06
6.09839e-06
6.09567e-06
6.09316e-06
6.09316e-06
6.11011e-06
6.10815e-06
6.10556e-06
6.10237e-06
6.10237e-06
6.11532e-06
6.11481e-06
6.11413e-06
6.11329e-06
6.11225e-06
6.11225e-06
6.11497e-06
6.11542e-06
6.11579e-06
6.11608e-06
6.1163e-06
6.11639e-06
6.1163e-06
6.1163e-06
6.10814e-06
6.10718e-06
6.10662e-06
6.10701e-06
6.10806e-06
6.10928e-06
6.1104e-06
6.11141e-06
6.11237e-06
6.11325e-06
6.11403e-06
6.11474e-06
6.11474e-06
5.32948e-11
0
0
0.000364379
0.00132858
0.0178554
0.056885
0.112402
0.172175
0.22692
0.271811
0.304851
0.326031
0.337199
0.341023
0.338861
0.323107
0.285625
0.222872
0.141615
0.0632434
0.0148248
0.000312622
9.50152e-05
0
0
1.92203e-15
9.25969e-09
2.21586e-06
7.65119e-06
7.32215e-06
6.16897e-06
5.97731e-06
6.08909e-06
6.12994e-06
6.11869e-06
6.10974e-06
6.10974e-06
)
;
    }
}


// ************************************************************************* //
