/*--------------------------------*- C++ -*----------------------------------*\
| =========                 |                                                 |
| \\      /  F ield         | OpenFOAM: The Open Source CFD Toolbox           |
|  \\    /   O peration     | Version:  2506                                  |
|   \\  /    A nd           | Website:  www.openfoam.com                      |
|    \\/     M anipulation  |                                                 |
\*---------------------------------------------------------------------------*/
FoamFile
{
    version     2.0;
    format      ascii;
    arch        "LSB;label=32;scalar=64";
    class       volScalarField;
    location    "0.1";
    object      Ux;
}
// * * * * * * * * * * * * * * * * * * * * * * * * * * * * * * * * * * * * * //

dimensions      [0 1 -1 0 0 0 0];

internalField   nonuniform List<scalar> 
400
(
0.000249136
0.000137297
-0.00116243
-0.00343171
-0.00628217
-0.00932353
-0.012208
-0.0146482
-0.0164225
-0.0173758
-0.0174205
-0.0165407
-0.0147979
-0.0123365
-0.00938798
-0.00626732
-0.00335775
-0.00107609
0.000190716
0.000263339
-7.60137e-05
-0.00158574
-0.00560185
-0.01153
-0.0185846
-0.0259664
-0.032914
-0.0387696
-0.0430136
-0.0452802
-0.0453662
-0.0432419
-0.0390616
-0.0331707
-0.0261054
-0.0185734
-0.0114007
-0.00543817
-0.00147488
-4.30717e-05
-0.000519324
-0.00364987
-0.0104162
-0.0196663
-0.0302624
-0.0411359
-0.0512608
-0.0597405
-0.0658633
-0.069126
-0.0692505
-0.0661974
-0.0601793
-0.0516689
-0.0413951
-0.0303157
-0.0195419
-0.0102178
-0.00350029
-0.000471
-0.000913011
-0.00560162
-0.015064
-0.0274846
-0.0413345
-0.0553053
-0.0681716
-0.0788736
-0.0865753
-0.090687
-0.09088
-0.0871019
-0.0795917
-0.0688922
-0.055851
-0.041599
-0.0274719
-0.0148894
-0.00543166
-0.000850487
-0.00126011
-0.00742881
-0.0195273
-0.035039
-0.0520065
-0.0688792
-0.0842612
-0.0969745
-0.106105
-0.11101
-0.111328
-0.106984
-0.098216
-0.0855879
-0.0700134
-0.0527501
-0.0353381
-0.0194928
-0.00728075
-0.00118919
-0.00158757
-0.00920578
-0.0239218
-0.0424933
-0.0625054
-0.0821595
-0.0999097
-0.114496
-0.124964
-0.13065
-0.131169
-0.126418
-0.116601
-0.10226
-0.0843217
-0.0641308
-0.0434178
-0.0242208
-0.00915772
-0.00152183
-0.0019214
-0.0110167
-0.0283838
-0.0500091
-0.0729924
-0.0952904
-0.115237
-0.131533
-0.143231
-0.149681
-0.150492
-0.145524
-0.134913
-0.119126
-0.0990417
-0.0760333
-0.0519932
-0.0292972
-0.0111897
-0.00188446
-0.00228492
-0.0129402
-0.0330346
-0.0576975
-0.0835115
-0.10821
-0.130057
-0.147786
-0.160517
-0.167665
-0.168857
-0.163914
-0.152868
-0.136045
-0.114185
-0.0886027
-0.0612836
-0.034932
-0.0135032
-0.00231246
-0.002702
-0.0150533
-0.0379738
-0.065597
-0.0939531
-0.120601
-0.143828
-0.162498
-0.175897
-0.183572
-0.185213
-0.180603
-0.169635
-0.152411
-0.129414
-0.101759
-0.0713966
-0.0413009
-0.0162237
-0.00284368
-0.00320494
-0.017449
-0.0432936
-0.0736668
-0.104019
-0.131834
-0.155571
-0.174371
-0.187817
-0.195685
-0.197787
-0.193884
-0.183699
-0.167016
-0.143914
-0.115098
-0.0822745
-0.0485355
-0.0194882
-0.00352627
-0.00384888
-0.0202701
-0.0491011
-0.0817723
-0.113165
-0.140876
-0.16376
-0.181447
-0.193976
-0.201475
-0.20395
-0.201176
-0.192687
-0.177868
-0.156211
-0.127752
-0.093613
-0.0567081
-0.0234671
-0.00443259
-0.00473771
-0.0237585
-0.0555362
-0.0896326
-0.12048
-0.146125
-0.166154
-0.180949
-0.191189
-0.197474
-0.20009
-0.198875
-0.193187
-0.181957
-0.163934
-0.138164
-0.104713
-0.0657893
-0.0283948
-0.00568385
-0.00607004
-0.0283229
-0.0627449
-0.0966576
-0.124425
-0.145123
-0.159532
-0.169074
-0.175236
-0.179179
-0.181525
-0.182242
-0.180566
-0.175004
-0.163471
-0.14373
-0.114199
-0.0755286
-0.0346032
-0.00749291
-0.00821429
-0.0346013
-0.0707037
-0.101523
-0.122291
-0.134034
-0.139276
-0.140726
-0.140734
-0.14101
-0.142513
-0.145387
-0.148872
-0.151198
-0.149542
-0.140246
-0.119485
-0.0851434
-0.0425149
-0.0102274
-0.0117902
-0.0433838
-0.0786071
-0.101167
-0.109136
-0.106758
-0.0987792
-0.0892057
-0.0810688
-0.076423
-0.0764405
-0.081457
-0.0908909
-0.103021
-0.114683
-0.121045
-0.11575
-0.0925298
-0.0524124
-0.0144458
-0.0175686
-0.0548762
-0.0830737
-0.0885925
-0.0758703
-0.0536082
-0.0287161
-0.00597744
0.0114834
0.0217383
0.0236848
0.0168578
0.00146598
-0.0213134
-0.0487593
-0.07579
-0.0940833
-0.0923581
-0.0633907
-0.020652
-0.0254621
-0.0658574
-0.073561
-0.0485021
-0.00623416
0.0403175
0.083515
0.119192
0.1452
0.160452
0.164326
0.156373
0.136293
0.104183
0.0612316
0.011027
-0.0383537
-0.0719699
-0.0701659
-0.0279312
-0.0296523
-0.060885
-0.022087
0.0502452
0.127085
0.196309
0.253428
0.297157
0.327588
0.345145
0.350032
0.342002
0.32027
0.283596
0.230714
0.161531
0.0794622
-0.00343385
-0.054762
-0.028475
0.00808789
0.0197772
0.139007
0.264305
0.36408
0.439923
0.496149
0.536143
0.562612
0.577409
0.581469
0.574817
0.556504
0.524437
0.47521
0.404112
0.304893
0.173262
0.0411171
0.0184228
0.299611
0.396286
0.557422
0.674454
0.743801
0.787
0.815267
0.83368
0.845069
0.851032
0.852325
0.849058
0.840708
0.825894
0.801884
0.763481
0.699021
0.583912
0.415819
0.308822
)
;

boundaryField
{
    movingWall
    {
        type            calculated;
        value           uniform 1;
    }
    fixedWalls
    {
        type            calculated;
        value           uniform 0;
    }
    frontAndBack
    {
        type            empty;
    }
}


// ************************************************************************* //
