/*--------------------------------*- C++ -*----------------------------------*\
| =========                 |                                                 |
| \\      /  F ield         | OpenFOAM: The Open Source CFD Toolbox           |
|  \\    /   O peration     | Version:  2506                                  |
|   \\  /    A nd           | Website:  www.openfoam.com                      |
|    \\/     M anipulation  |                                                 |
\*---------------------------------------------------------------------------*/
FoamFile
{
    version     2.0;
    format      ascii;
    arch        "LSB;label=32;scalar=64";
    class       volScalarField;
    location    "500";
    object      div(phi);
}
// * * * * * * * * * * * * * * * * * * * * * * * * * * * * * * * * * * * * * //

dimensions      [0 0 -1 0 0 0 0];

internalField   nonuniform List<scalar> 
1340
(
1.55884e-07
-1.44362e-05
-1.00167e-05
-1.15088e-05
1.01561e-06
-1.40658e-05
-1.23549e-05
-2.03022e-05
-5.0617e-07
-1.11535e-05
-6.69365e-06
-5.67462e-06
1.55584e-07
-1.40699e-05
-1.30358e-05
-2.1646e-05
-1.31328e-06
-9.2295e-06
-4.09092e-06
-2.72981e-06
-8.43431e-07
-1.21486e-05
-1.24856e-05
-2.03957e-05
-1.49527e-06
-5.6876e-06
-2.00455e-06
6.60846e-07
-1.60411e-06
-1.00659e-05
-1.13047e-05
-1.70414e-05
-1.66479e-06
-3.46541e-06
1.87596e-08
2.87151e-06
-2.26212e-06
-8.43289e-06
-1.00664e-05
-1.36642e-05
-1.45352e-06
-1.41304e-06
1.19156e-06
3.55583e-06
-2.64764e-06
-7.07077e-06
-8.67504e-06
-1.07247e-05
-1.22584e-06
-2.20154e-07
2.04593e-06
3.91652e-06
-2.92267e-06
-5.87477e-06
-7.29727e-06
-8.22041e-06
-9.11763e-07
7.5371e-07
2.56882e-06
3.3713e-06
-2.92185e-06
-4.8279e-06
-5.87771e-06
-6.28566e-06
-5.01373e-07
1.32182e-06
2.56874e-06
3.03624e-06
-2.75588e-06
-3.86028e-06
-4.6427e-06
-4.64333e-06
-2.60623e-07
1.55757e-06
2.54481e-06
2.28192e-06
-2.35078e-06
-3.03772e-06
-3.39721e-06
-3.34221e-06
2.84012e-07
1.94806e-06
2.15614e-06
2.01188e-06
-1.8944e-06
-2.23902e-06
-2.36497e-06
-2.26902e-06
3.68137e-07
1.79765e-06
2.16123e-06
1.50196e-06
-1.46395e-06
-1.62888e-06
-1.56568e-06
-1.57269e-06
4.86639e-07
1.73621e-06
1.74608e-06
1.23077e-06
-1.10511e-06
-1.15416e-06
-1.09281e-06
-1.1473e-06
3.97367e-07
1.30863e-06
1.45983e-06
8.81224e-07
-8.4504e-07
-8.87089e-07
-8.53503e-07
-9.59446e-07
2.1481e-07
9.01694e-07
1.02196e-06
5.76167e-07
-6.62642e-07
-7.04132e-07
-7.62415e-07
-8.47292e-07
1.10757e-07
5.52874e-07
6.37385e-07
3.66595e-07
-4.81486e-07
-6.02406e-07
-6.81502e-07
-7.30252e-07
-1.02559e-08
3.00288e-07
3.75399e-07
2.39498e-07
-3.66663e-07
-4.79366e-07
-5.77477e-07
-5.94726e-07
-3.92388e-08
1.63651e-07
2.17396e-07
1.78223e-07
-2.1275e-07
-3.67282e-07
-4.50927e-07
-4.69387e-07
-7.75781e-08
9.91433e-08
1.35831e-07
1.34724e-07
-2.35388e-07
-2.62487e-07
-3.36167e-07
-3.53187e-07
-1.48477e-07
-8.3382e-09
5.4354e-08
9.00518e-08
9.65665e-08
-1.33151e-07
-1.38342e-07
-1.73074e-07
-2.38516e-07
-2.62435e-07
-1.24442e-07
-7.81578e-09
2.50673e-08
5.06278e-08
7.10901e-08
-4.88739e-08
-8.18959e-08
-1.12005e-07
-1.63726e-07
-1.9112e-07
-1.07968e-07
-2.0855e-08
-3.26463e-09
2.42637e-08
4.74007e-08
-3.15213e-08
-4.21502e-08
-6.6571e-08
-1.06132e-07
-1.32948e-07
-6.48212e-08
-2.96953e-08
-1.79424e-08
7.98912e-09
3.51236e-08
-2.21153e-08
-2.67438e-08
-3.47849e-08
-6.13439e-08
-8.69809e-08
-6.00638e-08
-2.75961e-08
-2.06966e-08
1.77522e-09
3.05864e-08
-1.21586e-08
-5.04395e-09
-8.5734e-09
-2.66177e-08
-5.23511e-08
-1.04565e-08
-1.2184e-08
-1.45557e-08
8.00293e-10
2.83703e-08
4.28418e-09
5.26148e-09
8.27097e-09
-4.94632e-09
-3.0165e-08
4.96331e-09
-3.15927e-09
-1.13611e-08
-1.39533e-09
2.58911e-08
1.64595e-08
1.79481e-09
9.84777e-09
5.83653e-09
-2.25235e-08
8.47316e-08
1.23706e-08
1.41635e-08
-4.7722e-09
-1.0036e-08
3.23449e-08
-7.26917e-08
2.86504e-08
1.52818e-09
1.10864e-08
2.25862e-08
-7.57568e-09
8.63988e-08
2.44809e-09
1.79412e-08
4.91537e-09
-1.60761e-08
2.13057e-08
-7.00416e-08
1.58097e-08
6.73674e-09
1.79833e-08
2.12244e-08
-1.73163e-08
6.60215e-08
1.92342e-08
4.10597e-08
1.35623e-08
-8.78881e-09
9.72641e-09
-2.84475e-08
2.91189e-08
9.64095e-09
2.98248e-08
1.18568e-08
-1.85892e-08
4.45227e-08
7.74968e-09
3.88722e-08
-1.23937e-08
-1.87733e-09
5.76023e-09
-9.40596e-09
2.06261e-08
-3.54416e-08
1.70906e-08
-3.78719e-09
-4.11684e-09
2.82879e-08
-3.59133e-08
2.07206e-08
-2.48544e-08
1.4511e-08
3.28163e-09
6.17047e-08
-1.13623e-08
1.80912e-08
-1.92527e-08
2.2913e-08
5.45402e-09
1.73295e-08
-1.00182e-08
1.09575e-08
-2.57792e-09
1.68977e-08
8.46359e-09
1.21575e-08
-2.76894e-09
3.1695e-08
4.45641e-09
6.68812e-09
5.3912e-09
5.05752e-09
9.20462e-10
5.61522e-10
-5.28634e-09
3.88866e-09
3.05817e-09
2.13768e-09
6.95331e-10
-2.91769e-09
-3.032e-09
3.28386e-08
5.95056e-09
4.31325e-09
-2.40654e-09
-4.57274e-09
-9.32185e-09
-4.01968e-09
6.42661e-10
6.37059e-09
-5.8272e-09
-5.48371e-09
-1.08477e-08
-7.3875e-09
-8.37566e-09
3.16763e-08
-6.85728e-10
3.49474e-09
-4.53193e-09
-7.64154e-10
-7.32239e-09
5.58055e-10
2.53274e-09
6.23416e-09
1.84083e-09
4.60423e-09
3.77847e-09
8.32128e-09
-8.4822e-10
1.87311e-08
1.76954e-09
3.66656e-09
3.57904e-09
4.16586e-09
1.98582e-09
1.61484e-09
1.9535e-09
7.74263e-10
-1.98674e-09
-1.24551e-09
-7.15844e-10
-3.03825e-09
7.20222e-10
-1.40839e-08
-1.94796e-09
-4.05795e-09
-3.97891e-09
-4.22158e-09
-4.14138e-09
-3.89774e-09
-5.50446e-09
3.54682e-09
-3.80852e-09
-3.70713e-09
-4.48205e-09
-3.91673e-09
-4.69381e-09
-4.1143e-09
-5.44492e-09
-6.52856e-09
-6.20131e-10
-1.77066e-09
-1.77765e-09
-2.35313e-09
-2.62266e-09
-1.74603e-09
-3.28733e-09
1.13459e-08
1.85222e-09
1.41705e-09
2.46718e-10
6.19056e-10
-1.27238e-10
2.41674e-10
-8.86639e-10
6.45702e-10
4.70389e-09
3.18327e-09
3.41096e-09
2.34461e-09
1.83018e-09
2.06923e-09
2.86379e-10
1.75136e-08
6.00443e-09
5.82365e-09
4.12243e-09
4.67014e-09
3.21474e-09
3.42326e-09
1.36151e-09
3.82211e-09
7.16753e-09
6.15407e-09
6.51995e-09
6.17796e-09
5.59995e-09
5.71372e-09
4.27187e-09
2.30322e-08
9.18132e-09
8.48025e-09
7.93237e-09
7.83636e-09
6.27113e-09
6.61389e-09
3.43464e-09
1.34345e-08
6.52737e-09
6.32147e-09
5.78413e-09
4.95785e-09
4.58876e-09
3.34581e-09
5.3081e-09
-0.000139005
3.7619e-05
-1.29552e-05
9.82942e-06
-1.27468e-05
-2.10834e-06
-8.72216e-06
-5.93982e-06
-5.33541e-06
-6.48828e-06
-2.75892e-06
-5.76262e-06
-1.03069e-06
-4.88754e-06
-9.35066e-08
-4.00095e-06
6.07825e-07
-3.16475e-06
7.3903e-07
-2.26013e-06
1.06084e-06
-1.44e-06
1.08121e-06
-8.61694e-07
1.01853e-06
-5.53343e-07
8.23226e-07
-4.74453e-07
5.45369e-07
-4.70207e-07
3.18441e-07
-4.43108e-07
1.7627e-07
-3.83636e-07
8.27602e-08
-2.93977e-07
3.1846e-08
-2.18838e-07
1.95188e-09
-1.5369e-07
-2.43181e-08
-1.01273e-07
-3.03101e-08
-6.24672e-08
-2.67026e-08
-3.25804e-08
-1.62362e-08
-1.30126e-08
-4.67848e-09
-2.96684e-09
3.2275e-09
3.29763e-09
3.40154e-08
8.43589e-09
3.08552e-08
1.12368e-09
-1.34111e-10
-1.01324e-08
-1.69881e-08
8.17013e-09
2.24027e-09
-9.09968e-09
1.16143e-08
-5.72595e-09
-6.77285e-09
-6.72357e-09
-1.09812e-08
-6.2027e-09
4.2888e-09
-7.3173e-10
-6.37076e-09
-3.92598e-09
-6.19321e-09
-3.07335e-09
1.14612e-09
8.66086e-10
2.78894e-09
9.00576e-09
1.42204e-08
7.15429e-09
-8.89488e-05
1.4615e-05
-1.19265e-05
3.32358e-06
-9.77412e-06
-1.80816e-06
-6.12475e-06
-3.99676e-06
-3.66767e-06
-4.63837e-06
-1.86009e-06
-4.37086e-06
-7.059e-07
-3.84227e-06
-1.66858e-07
-3.21694e-06
1.79911e-07
-2.61723e-06
2.21881e-07
-2.01855e-06
3.73357e-07
-1.48867e-06
3.3764e-07
-1.09066e-06
3.58819e-07
-8.30887e-07
2.7478e-07
-6.92909e-07
1.84634e-07
-5.93052e-07
1.22438e-07
-4.95803e-07
7.62369e-08
-3.90877e-07
5.57155e-08
-3.10469e-07
2.37329e-08
-2.3166e-07
-1.2297e-08
-1.68969e-07
-2.81071e-08
-1.1492e-07
-3.76085e-08
-6.72123e-08
-3.27944e-08
-3.19087e-08
-2.18743e-08
-9.0104e-09
-1.18703e-08
1.01305e-09
-8.05667e-10
1.6135e-08
1.09635e-08
3.66356e-08
1.24417e-08
3.0486e-08
-1.01993e-09
1.65006e-09
1.24943e-09
-1.88028e-08
-3.62085e-09
1.46224e-08
-1.32655e-08
-1.61798e-09
-3.8993e-09
-2.73015e-09
1.2719e-09
-3.6945e-09
-6.79252e-09
-4.44066e-10
1.82517e-09
-8.36361e-09
-8.5163e-09
-5.12685e-09
-4.75332e-09
-1.95813e-10
-4.95354e-10
4.95011e-09
-6.48422e-09
2.22081e-08
-4.9248e-05
3.93883e-06
-8.3373e-06
2.33273e-06
-6.56128e-06
1.17553e-06
-4.59685e-06
-8.8078e-08
-3.72056e-06
-1.2171e-06
-2.52125e-06
-1.94978e-06
-1.74028e-06
-2.37216e-06
-9.87771e-07
-2.47771e-06
-3.968e-07
-2.28863e-06
-1.00509e-07
-1.83416e-06
2.83495e-07
-1.2585e-06
4.43444e-07
-7.82961e-07
5.46211e-07
-4.96258e-07
4.84691e-07
-3.93754e-07
3.66726e-07
-3.83671e-07
2.33036e-07
-3.81888e-07
1.46359e-07
-3.62918e-07
6.84291e-08
-3.04774e-07
2.10303e-08
-2.48915e-07
-6.28227e-09
-1.86993e-07
-3.28835e-08
-1.28075e-07
-3.63483e-08
-7.8845e-08
-3.17706e-08
-3.90133e-08
-2.17025e-08
-1.35716e-08
-1.15641e-08
1.42371e-09
-5.70757e-09
6.59078e-09
1.88865e-08
1.02927e-08
4.01533e-08
1.02467e-08
2.95987e-08
8.17686e-10
-9.02267e-09
6.73786e-09
-8.38647e-10
-1.896e-08
9.35909e-09
-8.5102e-09
-6.54122e-09
-4.60999e-09
-1.0125e-08
-4.71766e-09
2.75194e-09
-2.97268e-09
-8.48325e-09
-4.17744e-09
-4.49021e-09
-2.08952e-09
2.11572e-09
-6.20418e-10
1.78299e-09
4.14598e-09
2.79772e-09
1.2313e-08
-7.9455e-05
-8.5257e-06
-2.34395e-05
-1.10654e-05
-1.78821e-05
-8.91499e-06
-1.24912e-05
-7.01915e-06
-7.87034e-06
-5.55131e-06
-4.95014e-06
-4.48174e-06
-2.71816e-06
-3.62168e-06
-1.33595e-06
-2.93172e-06
-4.22819e-07
-2.34287e-06
1.06945e-07
-1.7963e-06
3.82236e-07
-1.32963e-06
5.89648e-07
-9.64088e-07
5.54565e-07
-7.28251e-07
5.29099e-07
-5.89031e-07
3.88512e-07
-5.1289e-07
2.67473e-07
-4.42884e-07
1.64931e-07
-3.66373e-07
1.09952e-07
-3.15202e-07
5.23985e-08
-2.56534e-07
-1.16493e-09
-2.02692e-07
-2.17256e-08
-1.47657e-07
-3.41947e-08
-9.21209e-08
-2.97813e-08
-4.70002e-08
-2.0558e-08
-1.54253e-08
-1.30108e-08
-2.58771e-09
-4.28953e-09
3.83911e-09
1.70936e-09
1.85457e-08
1.11672e-08
3.19624e-08
8.02883e-09
1.95182e-08
1.48725e-08
-1.53811e-08
-1.06475e-08
1.36095e-08
-1.83484e-08
-3.258e-09
-4.55677e-09
-3.25806e-09
3.73761e-09
-2.53217e-09
-8.10976e-09
-2.71723e-09
9.13311e-10
-8.31389e-09
-6.6968e-09
-3.20037e-09
-1.10474e-08
1.00435e-08
-1.58348e-09
1.41958e-09
-1.10254e-08
2.37984e-08
-8.84094e-06
1.54554e-05
4.90903e-06
1.03146e-05
1.15877e-06
6.49748e-06
-9.07429e-07
3.91544e-06
-1.56852e-06
2.13571e-06
-1.95195e-06
8.23588e-07
-1.68312e-06
-7.38254e-08
-1.45887e-06
-7.00494e-07
-1.02779e-06
-1.04996e-06
-6.47934e-07
-1.16223e-06
-3.45788e-07
-1.0183e-06
2.72591e-08
-7.26201e-07
3.1397e-07
-4.59855e-07
4.80331e-07
-3.03014e-07
4.89098e-07
-2.62923e-07
3.93508e-07
-2.94154e-07
2.6601e-07
-3.3555e-07
1.27208e-07
-3.21292e-07
4.08432e-08
-2.86226e-07
-4.99153e-10
-2.27118e-07
-3.18355e-08
-1.61595e-07
-3.21987e-08
-1.0312e-07
-2.62884e-08
-5.53594e-08
-1.75912e-08
-2.45123e-08
-1.00655e-08
-3.73668e-09
-8.4869e-09
2.25937e-09
-2.46009e-09
2.47364e-09
1.34297e-08
4.54068e-09
2.79946e-08
1.50497e-08
-2.00002e-09
6.43502e-09
2.37783e-09
-2.3445e-08
7.8098e-09
-8.89464e-09
-3.26735e-09
-3.90515e-09
-1.14938e-08
-4.79757e-09
1.11818e-09
-3.20881e-09
-1.06551e-08
-3.81668e-09
-2.70492e-09
-3.59097e-09
-2.04231e-09
6.82583e-10
3.84594e-09
2.88812e-09
2.30478e-09
4.74791e-09
-2.28656e-05
6.53425e-06
-5.47085e-06
3.82454e-06
-5.5882e-06
2.28062e-06
-5.06861e-06
1.15955e-06
-4.66277e-06
3.21858e-07
-3.86504e-06
-2.23071e-07
-3.26542e-06
-5.94082e-07
-2.45666e-06
-7.99348e-07
-1.89039e-06
-9.18044e-07
-1.27565e-06
-9.4112e-07
-8.85612e-07
-8.92695e-07
-4.88782e-07
-8.12021e-07
-2.07522e-07
-7.3543e-07
-8.64118e-08
-6.71117e-07
1.40226e-08
-6.17089e-07
-1.24202e-09
-5.53899e-07
-2.73931e-08
-4.54368e-07
-5.89954e-09
-3.78021e-07
-8.01785e-09
-3.01437e-07
-2.82324e-08
-2.3627e-07
-2.6596e-08
-1.7448e-07
-3.02087e-08
-1.14e-07
-2.33392e-08
-6.38169e-08
-1.56066e-08
-2.60458e-08
-1.04146e-08
-9.42205e-09
-5.4508e-09
-2.11629e-09
-7.38488e-09
-4.98858e-10
-4.06724e-09
9.6319e-09
7.58387e-09
2.24314e-08
1.71769e-08
-1.40598e-09
-9.83316e-09
1.43925e-08
-1.89389e-08
-6.09741e-10
-6.75058e-09
-1.20291e-08
1.45042e-09
-5.80574e-09
-2.7722e-09
-3.57787e-09
7.61925e-10
-8.19773e-09
-6.30747e-09
-6.24416e-09
-8.89422e-09
1.31891e-08
-4.90642e-09
-2.53894e-09
-1.49321e-05
5.72398e-06
-2.52983e-06
4.49136e-06
-2.24753e-06
3.77093e-06
-1.91209e-06
3.07673e-06
-1.82074e-06
2.39078e-06
-1.58701e-06
1.76931e-06
-1.52174e-06
1.18352e-06
-1.29191e-06
6.81918e-07
-1.17967e-06
2.44266e-07
-9.57908e-07
-8.48443e-08
-7.78243e-07
-3.02453e-07
-5.82056e-07
-3.61137e-07
-3.31015e-07
-3.08988e-07
-5.75814e-08
-2.40337e-07
1.06579e-07
-2.06723e-07
1.74002e-07
-2.22387e-07
1.73406e-07
-2.82085e-07
7.6342e-08
-2.99925e-07
7.4037e-09
-2.85221e-07
-1.63308e-08
-2.34918e-07
-3.57638e-08
-1.71334e-07
-2.63175e-08
-1.12707e-07
-1.72725e-08
-6.52727e-08
-9.9094e-09
-3.52384e-08
-6.4485e-09
-1.23666e-08
-8.57533e-09
-4.14852e-09
-8.04468e-09
-5.52597e-09
-5.65402e-09
-3.25962e-09
2.58406e-08
1.33094e-08
1.42718e-08
1.55058e-08
1.53055e-08
-1.10442e-08
1.21114e-08
-1.01127e-08
-2.20053e-09
4.49592e-09
-1.71586e-08
-2.153e-09
-4.318e-10
6.7298e-10
-1.07853e-08
-1.62896e-09
-1.1928e-09
-1.92759e-10
-2.37812e-09
-5.61931e-09
-1.24703e-05
6.17189e-06
-1.78715e-06
3.53937e-06
-2.63297e-06
2.37094e-06
-2.75328e-06
1.643e-06
-2.56608e-06
1.13227e-06
-2.37776e-06
7.35184e-07
-2.05113e-06
4.47262e-07
-1.81207e-06
2.15594e-07
-1.45498e-06
4.56046e-08
-1.22387e-06
-1.0722e-07
-9.19353e-07
-2.20601e-07
-7.50062e-07
-3.10898e-07
-5.08179e-07
-3.78463e-07
-3.46369e-07
-4.35902e-07
-2.51379e-07
-4.707e-07
-1.57757e-07
-4.69306e-07
-1.58619e-07
-4.08976e-07
-9.3805e-08
-3.38954e-07
-4.69136e-08
-2.63942e-07
-3.37772e-08
-2.04765e-07
-1.26224e-08
-1.55002e-07
-1.24267e-08
-1.08458e-07
-8.92885e-09
-6.8262e-08
-6.97071e-09
-3.39856e-08
-5.73142e-09
-1.74609e-08
-4.53288e-09
-7.98732e-09
-9.86568e-09
-4.19633e-09
-9.67798e-09
7.20712e-09
3.15716e-09
2.21671e-08
2.50533e-08
8.6037e-09
2.0359e-08
1.97576e-08
-8.63209e-10
8.01788e-09
5.34323e-09
-1.33625e-08
4.18276e-09
-6.007e-09
-1.79672e-09
-5.58362e-09
3.40046e-09
-1.32957e-08
-7.63735e-09
-1.0967e-08
-4.03344e-06
6.27996e-06
1.5505e-06
4.15627e-06
5.27449e-07
3.08564e-06
9.15584e-08
2.41548e-06
-1.0465e-07
1.931e-06
-2.43241e-07
1.54186e-06
-2.93893e-07
1.21058e-06
-3.7244e-07
9.09688e-07
-3.78065e-07
6.38492e-07
-4.16545e-07
3.88318e-07
-4.05952e-07
1.78158e-07
-3.90353e-07
1.60593e-08
-3.47392e-07
-6.59483e-08
-2.41326e-07
-8.21076e-08
-7.59506e-08
-7.36917e-08
2.66108e-08
-7.94082e-08
1.20745e-07
-1.23438e-07
9.3884e-08
-1.60823e-07
4.26737e-08
-1.80372e-07
1.96049e-08
-1.64614e-07
-6.94864e-09
-1.29161e-07
-3.40415e-09
-9.05371e-08
7.78169e-11
-5.75772e-08
2.55063e-09
-3.72228e-08
4.9639e-10
-1.79774e-08
-4.17317e-09
-8.58859e-09
-5.71351e-09
-4.99527e-09
-8.25803e-09
-2.62654e-09
9.73837e-09
7.37671e-09
-5.71569e-09
3.83304e-08
7.75696e-09
2.97111e-08
1.02183e-08
4.81612e-09
-2.1551e-09
1.52342e-08
-2.44184e-08
-6.75924e-09
-9.18992e-10
8.27411e-10
-1.88262e-08
-6.76775e-06
2.4144e-06
-1.49531e-06
1.64413e-06
-1.48896e-06
1.23951e-06
-1.41356e-06
9.33997e-07
-1.33642e-06
6.99871e-07
-1.19722e-06
5.28517e-07
-1.07592e-06
3.89671e-07
-9.2471e-07
2.85078e-07
-8.13928e-07
1.96885e-07
-6.60056e-07
1.28652e-07
-5.65511e-07
5.99105e-08
-4.28345e-07
3.03033e-10
-3.66229e-07
-6.24107e-08
-2.50444e-07
-1.23782e-07
-1.83471e-07
-1.87422e-07
-1.36775e-07
-2.24014e-07
-1.12663e-07
-2.07905e-07
-6.28436e-08
-1.76989e-07
-1.25482e-08
-1.3275e-07
7.31128e-09
-1.03285e-07
3.00098e-08
-8.39222e-08
2.36823e-08
-6.74513e-08
1.70981e-08
-4.95745e-08
9.65755e-09
-2.81551e-08
7.35591e-09
-1.48471e-08
6.47755e-09
-4.33134e-09
-2.34558e-10
-1.5963e-09
-3.89467e-09
2.22551e-09
-1.04115e-08
-1.54124e-08
2.1546e-08
-1.4734e-08
4.92978e-08
-1.67825e-08
1.34605e-08
3.83723e-09
1.93989e-08
-2.20336e-08
-2.83644e-06
2.89257e-06
1.62898e-07
2.28919e-06
1.35129e-07
1.94477e-06
1.46495e-07
1.6616e-06
1.24747e-07
1.4176e-06
1.25722e-07
1.202e-06
9.42466e-08
9.99451e-07
5.95297e-08
8.14298e-07
6.67413e-09
6.46766e-07
-2.29518e-08
4.99786e-07
-5.90077e-08
3.69657e-07
-7.39799e-08
2.59879e-07
-7.84596e-08
1.70614e-07
-7.91412e-08
1.20348e-07
-3.89291e-08
1.13652e-07
5.43504e-08
1.12027e-07
1.42208e-07
7.3494e-08
1.4891e-07
2.72415e-08
1.16572e-07
-2.2983e-08
8.39233e-08
-4.61751e-08
4.34508e-08
-4.69287e-08
3.5606e-08
-3.37933e-08
3.19722e-08
-2.01337e-08
3.01775e-08
-1.14736e-08
2.46217e-08
-3.50862e-10
1.78526e-08
2.14972e-09
1.17339e-08
4.54937e-09
4.37222e-09
-6.88447e-09
-5.26939e-09
-4.93211e-09
-2.23381e-08
3.3778e-08
-2.95664e-08
-6.26782e-06
1.51528e-06
-1.4928e-06
7.89131e-07
-1.55054e-06
5.02017e-07
-1.43559e-06
3.21438e-07
-1.29447e-06
2.01447e-07
-1.14348e-06
1.31172e-07
-9.72409e-07
1.05596e-07
-8.05608e-07
1.07982e-07
-6.254e-07
1.30617e-07
-4.77342e-07
1.56072e-07
-3.19704e-07
1.81214e-07
-2.18905e-07
1.90228e-07
-1.02259e-07
1.85175e-07
-5.81702e-08
1.52799e-07
8.31059e-09
9.45876e-08
2.08681e-08
2.85948e-08
-1.61741e-08
1.02951e-09
1.72563e-08
7.86424e-10
4.19615e-08
1.8857e-08
6.56023e-08
2.42028e-08
9.25125e-08
2.92839e-08
8.62604e-08
2.31601e-08
6.91855e-08
1.01137e-08
4.74233e-08
7.93519e-09
3.54271e-08
6.82093e-09
2.31648e-08
9.50427e-09
1.3534e-08
6.31722e-09
-1.24027e-06
2.22216e-06
8.45934e-07
1.44558e-06
5.15805e-07
1.11017e-06
4.06992e-07
9.33611e-07
3.46553e-07
8.24976e-07
3.16955e-07
7.55001e-07
2.85988e-07
6.98503e-07
2.60094e-07
6.48189e-07
2.20511e-07
5.96354e-07
1.8197e-07
5.46329e-07
1.5277e-07
4.92818e-07
1.19577e-07
4.37206e-07
9.73282e-08
3.77163e-07
7.88413e-08
3.14207e-07
5.27868e-08
2.65832e-07
5.19249e-08
2.32333e-07
1.06966e-07
1.96832e-07
1.11346e-07
1.48603e-07
1.16899e-07
9.65649e-08
8.20906e-08
7.24845e-08
6.58613e-08
4.81677e-08
)
;

boundaryField
{
    inlet
    {
        type            extrapolatedCalculated;
        value           nonuniform List<scalar> 
13
(
1.34345e-08
6.52737e-09
6.32147e-09
5.78413e-09
4.95785e-09
4.58876e-09
3.34581e-09
5.3081e-09
7.15429e-09
2.22081e-08
1.2313e-08
2.37984e-08
4.74791e-09
)
;
    }
    outlet
    {
        type            extrapolatedCalculated;
        value           nonuniform List<scalar> 0();
    }
    walls
    {
        type            extrapolatedCalculated;
        value           nonuniform List<scalar> 4(1.55884e-07 -1.44362e-05 -1.00167e-05 -1.15088e-05);
    }
    frontAndBack
    {
        type            empty;
    }
    procBoundary2to1
    {
        type            processor;
        value           nonuniform List<scalar> 
84
(
-2.61063e-06
-2.31323e-06
-2.16613e-06
-2.32234e-06
-1.84791e-06
-2.07484e-06
-1.30098e-06
-1.86142e-06
-1.03776e-06
-1.76615e-06
-6.8068e-07
-1.7254e-06
-5.65752e-07
-1.75094e-06
-3.31961e-07
-1.8639e-06
-8.29586e-08
-2.01002e-06
-1.22263e-07
-2.06985e-06
1.92361e-08
-1.89245e-06
1.39531e-07
-1.65762e-06
1.36587e-07
-1.30321e-06
2.1206e-07
-1.01715e-06
1.86737e-07
-7.64108e-07
1.43225e-07
-5.87657e-07
7.36397e-08
-4.04331e-07
4.71274e-08
-3.4179e-07
1.21099e-07
-5.02015e-07
-5.02015e-07
-1.25182e-07
-1.65792e-07
-7.35231e-08
-9.55167e-08
-4.121e-08
-5.32488e-08
-4.1004e-08
-3.65269e-08
-1.88293e-08
-1.97409e-08
-7.98368e-09
5.84979e-09
2.52547e-08
-3.47253e-08
-3.47253e-08
-6.96099e-08
6.11147e-08
-7.09296e-08
7.41535e-08
-6.4693e-08
6.12939e-08
-3.65439e-08
4.46991e-08
-1.67705e-08
-1.67705e-08
-3.35544e-08
4.50549e-08
-2.10344e-08
3.74868e-08
-1.16604e-08
3.59091e-08
-1.10568e-08
2.44865e-08
-4.97664e-10
1.84692e-08
1.84692e-08
1.88989e-08
-1.37903e-08
1.23754e-08
-2.42825e-09
1.05063e-08
2.35215e-09
1.09933e-08
7.82035e-09
8.34476e-09
)
;
    }
    procBoundary2to3
    {
        type            processor;
        value           nonuniform List<scalar> 
88
(
-9.78418e-09
3.24331e-08
5.05511e-09
-9.78418e-09
6.74035e-09
-1.00303e-08
5.05511e-09
1.56901e-08
-6.67157e-09
-6.08519e-09
-1.00303e-08
1.40569e-09
3.68757e-09
-7.2336e-09
-4.80391e-09
-1.02115e-08
-6.67157e-09
7.82617e-10
6.66422e-08
8.48206e-09
2.26618e-08
-3.19596e-09
3.68757e-09
2.19828e-08
6.30407e-09
1.95496e-08
-2.05088e-08
-8.71075e-09
-4.02077e-10
-1.31897e-08
6.66422e-08
3.11207e-08
1.403e-07
3.08375e-08
4.35668e-08
7.68962e-09
3.23452e-08
-4.79825e-09
2.53467e-08
-7.59152e-09
2.2471e-08
-1.10684e-08
2.48782e-08
6.30407e-09
-1.68906e-08
4.41147e-07
-2.39337e-06
3.29522e-07
-2.26963e-06
3.1884e-07
-2.11036e-06
2.83206e-07
-1.94034e-06
2.33129e-07
-1.77049e-06
1.77664e-07
-1.60037e-06
1.29001e-07
-1.4213e-06
9.11323e-08
-1.24941e-06
6.79188e-08
-1.06502e-06
5.85326e-08
-9.0202e-07
5.99263e-08
-7.23802e-07
6.82198e-08
-5.88412e-07
7.62191e-08
-4.34593e-07
7.94471e-08
-3.42729e-07
6.85914e-08
-2.31709e-07
3.63873e-08
-1.86415e-07
-6.94785e-09
-1.64847e-07
-3.22517e-08
-1.20648e-07
-5.15458e-08
-9.56971e-08
-5.87768e-08
-8.06719e-08
-5.71585e-08
1.403e-07
-4.83856e-08
)
;
    }
    procBoundary2to6
    {
        type            processor;
        value           nonuniform List<scalar> 
13
(
0.000149051
6.70913e-05
1.84118e-05
-1.41615e-05
2.42286e-05
2.06079e-05
1.50817e-05
1.16367e-05
1.26889e-05
7.63644e-06
7.71415e-06
2.5117e-06
5.31965e-06
)
;
    }
}


// ************************************************************************* //
