/*--------------------------------*- C++ -*----------------------------------*\
| =========                 |                                                 |
| \\      /  F ield         | OpenFOAM: The Open Source CFD Toolbox           |
|  \\    /   O peration     | Version:  2506                                  |
|   \\  /    A nd           | Website:  www.openfoam.com                      |
|    \\/     M anipulation  |                                                 |
\*---------------------------------------------------------------------------*/
FoamFile
{
    version     2.0;
    format      ascii;
    arch        "LSB;label=32;scalar=64";
    class       volScalarField;
    location    "500";
    object      p;
}
// * * * * * * * * * * * * * * * * * * * * * * * * * * * * * * * * * * * * * //

dimensions      [0 2 -2 0 0 0 0];

internalField   nonuniform List<scalar> 
1340
(
6.96862
15.2147
29.1384
52.8285
7.87087
15.9842
29.8293
52.5884
8.57893
16.604
30.3147
52.1922
9.25522
17.1815
30.7191
51.7477
9.99178
17.826
31.1543
51.2947
10.836
18.5152
31.5745
50.802
11.5581
19.1117
31.8973
50.2348
12.4185
19.8019
32.2463
49.6658
13.2192
20.4283
32.5134
49.037
14.074
21.083
32.7614
48.3779
14.9215
21.716
32.9613
47.6834
15.7882
22.347
33.1256
46.9582
16.6579
22.9639
33.2501
46.2051
17.5344
23.5691
33.3385
45.4278
18.4119
24.1584
33.3911
44.6303
19.2885
24.7307
33.4106
43.8164
20.1605
25.2838
33.3988
42.9901
21.0246
25.8162
33.3583
42.1565
21.8773
26.3261
33.2917
41.3198
22.7148
26.8122
33.2016
40.4846
23.5333
27.2731
33.0908
39.6554
24.3289
27.7075
32.962
38.8368
25.0977
28.1145
32.8178
38.0329
25.8356
28.4928
32.6604
37.2476
26.5387
28.8416
32.4922
36.4843
27.203
29.1597
32.3148
35.7462
27.8244
29.4462
32.1297
35.0355
28.3993
29.7
31.9382
34.3542
28.9239
29.92
31.7407
33.7032
29.3946
30.105
31.5375
33.0828
29.8083
30.2537
31.3284
32.4927
30.162
30.3648
31.1127
31.9319
30.4531
30.4368
30.8894
31.3985
30.6794
30.4684
30.6571
30.8902
30.8392
30.4581
30.4139
30.4041
30.9313
30.4048
30.158
29.9369
30.9551
30.3073
29.8871
29.4849
30.9105
30.1645
29.5992
29.0442
31.8182
30.7982
29.976
29.292
28.611
31.647
30.6192
29.7412
28.9634
28.1812
31.398
30.3753
29.4604
28.6116
27.751
31.0752
30.0691
29.134
28.235
27.3168
30.6833
29.7033
28.7628
27.8323
26.8754
30.2274
29.2814
28.3483
27.4027
26.4239
29.713
28.8072
27.8922
26.9458
25.9598
29.1458
28.2847
27.3967
26.4617
25.4812
28.5315
27.7185
26.8645
25.9509
24.9867
27.8761
27.1131
26.2984
25.4142
24.4754
27.1853
26.4732
25.7016
24.8533
23.947
26.4648
25.8036
25.0775
24.2697
23.4015
25.7201
25.1088
24.4295
23.6655
22.8397
24.9562
24.3935
23.7613
23.0431
22.2625
24.6357
24.1781
23.662
23.0764
22.4048
21.6712
23.8048
23.3903
22.9186
22.3784
21.7535
21.0675
22.9716
22.5971
22.1671
21.6707
21.0918
20.4534
22.1399
21.8021
21.4113
20.9566
20.4223
19.8308
21.3131
21.009
20.6546
20.2393
19.748
19.2018
20.4942
20.2208
19.9
19.5218
19.0712
18.5687
19.6859
19.4404
19.1506
18.8068
18.3947
17.9337
18.8904
18.6702
18.4087
18.0969
17.7208
17.299
18.1097
17.9124
17.6768
17.3944
17.0519
16.6667
17.4922
17.3455
17.1688
16.9567
16.7014
16.3899
16.039
16.7297
16.5992
16.4411
16.2505
16.0198
15.7371
15.4179
15.988
15.872
15.7307
15.5595
15.3514
15.095
14.8052
15.2681
15.1651
15.039
14.8854
14.6979
14.4656
14.203
14.5704
14.4792
14.3667
14.2292
14.0605
13.8503
13.6124
13.8964
13.8159
13.7158
13.5927
13.4411
13.2511
13.0361
13.3492
13.2758
13.184
13.0705
12.9303
12.7539
12.5544
12.8931
12.8244
12.7381
12.631
12.4984
12.3308
12.1414
12.425
12.3611
12.2803
12.1797
12.0546
11.896
11.7169
11.9467
11.8879
11.8129
11.719
11.6017
11.4522
11.2834
11.5001
11.4606
11.4069
11.3378
11.2507
11.1414
11.0014
10.8432
11.0066
10.9726
10.9246
10.8617
10.7815
10.6799
10.5484
10.3984
10.5031
10.4759
10.4358
10.3817
10.3114
10.2212
10.1038
9.97386
10.016
9.99053
9.95212
9.90033
9.83329
9.74668
9.62884
9.4836
9.54585
9.54476
9.53043
9.50168
9.4572
9.39744
9.32541
9.27393
8.87985
8.85428
8.82134
8.78098
8.72909
8.65193
8.51478
8.27548
9.22414
9.26824
9.29017
9.29186
9.28105
9.28233
9.35027
9.59351
6.20897
6.1988
6.19661
6.19764
6.18389
6.10217
5.8445
5.23504
12.536
12.6141
12.6605
12.6913
12.7389
12.8858
13.2568
14.0558
106.566
103.442
99.9022
96.1835
92.3766
88.5665
84.8162
81.174
77.6228
74.1904
70.877
67.693
64.6449
61.7383
58.9771
56.3638
53.8994
51.5837
49.4147
47.3891
45.5027
43.7502
42.1255
40.622
39.2325
37.9498
36.7667
35.6757
34.6698
33.742
32.8857
32.0944
31.3617
30.6815
30.0479
29.4549
28.897
28.3684
27.8638
27.378
26.9059
26.4429
25.9846
25.527
25.0665
24.6002
24.1255
23.6404
23.1434
22.6336
22.1105
21.5742
21.0251
20.4641
19.8924
19.3115
18.723
18.1288
17.5309
16.9312
16.3319
15.7347
15.1417
14.5548
13.9761
13.4069
12.8504
12.3824
11.9787
11.5639
11.1398
10.7098
10.2714
9.86597
9.35466
9.23399
8.06583
9.76606
4.82033
14.3924
47.3223
47.5273
47.9117
48.2554
48.5281
48.703
48.7696
48.7217
48.5566
48.2831
47.9016
47.4194
46.843
46.1803
45.4404
44.6333
43.7693
42.8593
41.9147
40.9468
39.9665
38.9837
38.0079
37.0477
36.1103
35.2016
34.3263
33.4879
32.6885
31.9291
31.2099
30.53
29.8879
29.2814
28.7079
28.1645
27.6478
27.1545
26.6809
26.2234
25.7784
25.3421
24.9112
24.4824
24.0525
23.6189
23.179
22.731
22.273
21.8039
21.3229
20.8297
20.3242
19.807
19.2788
18.7406
18.1938
17.64
17.0808
16.5179
15.9534
15.389
14.8268
14.2686
13.7166
13.1719
12.6383
12.1884
11.7997
11.3998
10.99
10.5743
10.1488
9.75836
9.2572
9.15085
8.00437
9.65435
4.90768
14.0531
29.422
29.5113
29.5972
29.6735
29.7689
29.8847
30.0233
30.1798
30.3517
30.5336
30.7185
30.9008
31.0735
31.2301
31.3644
31.4703
31.5428
31.577
31.5696
31.5181
31.4212
31.2788
31.092
30.8631
30.5954
30.2928
29.96
29.6021
29.224
28.8309
28.4275
28.0181
27.6063
27.1952
26.787
26.3834
25.9852
25.5927
25.2057
24.8234
24.4445
24.0677
23.6913
23.3134
22.9321
22.5457
22.1524
21.7505
21.3388
20.9162
20.4818
20.0353
19.5764
19.1054
18.6228
18.1294
17.6262
17.1146
16.5959
16.0717
15.5439
15.0143
14.4847
13.9571
13.4335
12.9153
12.4061
11.9759
11.6038
11.2203
10.8263
10.4263
10.0157
9.63973
9.15534
9.04858
7.96029
9.49153
5.0463
13.663
27.9799
28.0717
28.1376
28.1811
28.2078
28.2176
28.2124
28.1924
28.1601
28.1163
28.0632
28.0026
27.9359
27.8649
27.7907
27.7141
27.6357
27.5553
27.4724
27.3861
27.2951
27.1978
27.0923
26.9768
26.8494
26.7086
26.5531
26.3821
26.1952
25.9925
25.7747
25.5427
25.2978
25.0415
24.7754
24.501
24.2196
23.9322
23.6398
23.3428
23.0413
22.7351
22.4238
22.1065
21.7825
21.4507
21.1101
20.7595
20.398
20.0248
19.6393
19.2409
18.8295
18.4053
17.9684
17.5196
17.0598
16.5899
16.1114
15.6257
15.1343
14.6392
14.142
13.6446
13.1492
12.6571
12.1722
11.7611
11.4049
11.037
10.6583
10.2735
9.87733
9.5153
9.04585
8.94338
7.89467
9.36244
5.08717
13.4132
23.7488
23.862
23.9761
24.086
24.1928
24.2959
24.3941
24.4856
24.5693
24.6434
24.7067
24.7582
24.7967
24.8216
24.8324
24.8288
24.8111
24.7796
24.7349
24.6779
24.6095
24.5307
24.4427
24.3462
24.2421
24.1309
24.0131
23.8887
23.7577
23.6199
23.475
23.3227
23.1627
22.9946
22.8183
22.6337
22.4407
22.2393
22.0297
21.8116
21.5852
21.3502
21.1063
20.8532
20.5903
20.3171
20.0328
19.7368
19.4284
19.107
18.7721
18.4233
18.0605
17.6839
17.2935
16.8899
16.4739
16.0464
15.6085
15.1617
14.7075
14.2474
13.7832
13.3168
12.8503
12.3851
11.9251
11.5337
11.1936
10.8417
10.4788
10.1094
9.72811
9.3802
8.92567
8.83018
7.81186
9.24223
5.07634
13.2086
19.0756
19.1685
19.2663
19.364
19.465
19.5692
19.6764
19.7864
19.8988
20.0131
20.1287
20.2448
20.3605
20.4748
20.5865
20.6944
20.7972
20.8935
20.982
21.0615
21.131
21.1893
21.236
21.2702
21.2919
21.3008
21.297
21.2809
21.2528
21.213
21.1621
21.1003
21.028
20.9454
20.8527
20.75
20.6372
20.5142
20.3808
20.237
20.0825
19.9169
19.74
19.5514
19.3506
19.1374
18.9111
18.6712
18.4174
18.1492
17.8662
17.5681
17.255
16.9267
16.5836
16.226
15.8547
15.4704
15.0742
14.6674
14.2512
13.8274
13.3976
12.9635
12.5273
12.0903
11.6566
11.286
10.9633
10.6286
10.2824
9.92967
9.56439
9.23123
8.79358
8.70373
7.72046
9.10422
15.9268
16.0132
16.1043
16.196
16.291
16.3883
16.4881
16.5902
16.6946
16.8012
16.9099
17.0206
17.1331
17.2472
17.3627
17.4792
17.5964
17.7136
17.8304
17.9461
18.0597
18.1704
18.277
18.3787
18.4742
18.5625
18.6425
18.7133
18.774
18.8238
18.8622
18.8887
18.9031
18.9052
18.8947
18.8717
18.8361
18.7879
18.7271
18.6534
18.5669
18.4673
18.3544
18.2279
18.0874
17.9327
17.7633
17.579
17.3793
17.1638
16.9325
16.685
16.4213
16.1414
15.8455
15.534
15.2075
14.8667
14.5126
14.1462
13.7688
13.382
12.9873
12.5865
12.1816
11.774
11.3677
11.0191
10.7145
10.3979
10.0696
9.7343
9.38614
9.06826
8.64938
8.56324
13.7105
13.7912
13.8772
13.9648
14.0559
14.1496
14.2462
14.3454
14.4472
14.5514
14.6578
14.7664
14.8767
14.9888
15.1022
15.2168
15.3322
15.4483
15.5646
15.6809
15.7969
15.9121
16.0261
16.1384
16.2484
16.3556
16.4592
16.5585
16.6527
16.7408
16.8221
16.8955
16.9603
17.0157
17.0608
17.095
17.1177
17.1283
17.1263
17.1114
17.0831
17.0411
16.985
16.9144
16.8291
16.7285
16.6124
16.4804
16.3321
16.1673
15.9857
15.7871
15.5714
15.3387
15.0891
14.8229
14.5405
14.2427
13.9303
13.6042
13.2656
12.916
12.5567
12.1896
11.8165
11.4389
11.0608
10.7347
10.449
10.1511
9.84126
9.52398
9.19371
8.89139
11.8834
11.9552
12.0322
12.1112
12.1937
12.2792
12.3679
12.4597
12.5547
12.6527
12.7538
12.8579
12.9648
13.0744
13.1866
13.301
13.4174
13.5356
13.6553
13.776
13.8973
14.019
14.1406
14.2615
14.3814
14.4997
14.616
14.7296
14.8401
14.9467
15.0489
15.146
15.2373
15.3219
15.3992
15.4683
15.5285
15.5788
15.6186
15.647
15.6635
15.6672
15.6576
15.6341
15.596
15.5429
15.4742
15.3895
15.2883
15.1704
15.0353
14.8827
14.7127
14.525
14.3198
14.0973
13.8578
13.6019
13.3303
13.0439
12.7437
12.431
12.1071
11.7738
11.4329
11.0856
10.7361
10.433
10.1665
9.88777
9.59693
10.3569
10.4203
10.4882
10.5582
10.6315
10.7076
10.7869
10.8694
10.955
11.0437
11.1358
11.231
11.3294
11.431
11.5357
11.6435
11.7541
11.8676
11.9835
12.1019
12.2224
12.3446
12.4683
12.5931
12.7184
12.8439
12.969
13.0931
13.2157
13.3362
13.4538
13.568
13.6781
13.7833
13.883
13.9763
14.0626
14.141
14.2107
14.271
14.3209
14.3597
14.3867
14.401
14.4018
14.3886
14.3605
14.317
14.2576
14.1816
14.0887
13.9785
13.8507
13.7051
13.5418
13.3607
13.1622
12.9467
12.7146
12.4668
12.2041
11.9278
11.639
11.3393
11.0305
10.7138
9.10551
9.16172
9.22173
9.28381
9.34887
9.41666
9.48738
9.56104
9.63773
9.71748
9.80035
9.88637
9.97557
10.0679
10.1635
10.2622
10.364
10.4689
10.5767
10.6874
10.8008
10.9168
11.0351
11.1555
11.2776
11.4013
11.526
11.6513
11.7768
11.902
12.0262
12.1487
12.2691
12.3865
12.5002
12.6094
12.7134
12.8113
12.9024
12.9857
13.0605
13.1258
13.1809
13.2248
13.2568
13.276
13.2816
13.2729
13.2491
13.2097
13.1541
13.0816
12.9921
12.885
12.7603
12.6179
12.4579
12.2805
12.0861
11.8753
11.649
8.06597
8.11565
8.16856
8.22348
8.28108
8.34122
8.40406
8.46965
8.53807
8.60939
8.68366
8.76095
8.8413
8.92475
9.01131
9.10102
9.19386
9.28981
9.38885
9.49091
9.59592
9.70376
9.81431
9.9274
10.0429
10.1604
10.2798
10.4008
10.523
10.646
10.7693
10.8924
11.0149
11.1361
11.2553
11.3719
11.485
11.5941
11.6981
11.7963
11.8878
11.9717
12.0471
12.1132
12.1689
12.2135
12.246
12.2656
12.2715
12.2629
12.2392
12.1997
12.1438
12.0711
7.18444
7.22818
7.2747
7.32309
7.37389
7.42702
7.4826
7.54071
7.60142
7.66482
7.73098
7.79996
7.87182
7.94664
8.02445
8.10529
8.18919
8.27618
8.36625
8.45939
8.55558
8.65475
8.75682
8.86172
8.96929
9.07938
9.19179
9.30631
9.42267
9.54057
9.65964
9.7795
9.89972
10.0198
10.1392
10.2573
10.3736
10.4872
10.5976
10.7038
10.8051
10.9006
)
;

boundaryField
{
    inlet
    {
        type            freestreamPressure;
        freestreamValue uniform 0;
        value           nonuniform List<scalar> 
13
(
7.07495
7.11767
7.14254
7.15858
7.18414
7.26568
7.47354
7.92328
8.11287
7.92182
7.70213
7.5615
7.44625
)
;
    }
    outlet
    {
        type            freestreamPressure;
        freestreamValue nonuniform List<scalar> 0();
        value           nonuniform List<scalar> 0();
    }
    walls
    {
        type            zeroGradient;
    }
    frontAndBack
    {
        type            empty;
    }
    procBoundary2to1
    {
        type            processor;
        value           nonuniform List<scalar> 
84
(
1.15679
2.23595
3.05751
3.86964
4.69306
5.70569
6.5536
7.57543
8.53684
9.56858
10.6008
11.6647
12.7414
13.8356
14.9405
16.0536
17.1702
18.2859
19.3956
20.494
21.5757
22.6347
23.6651
24.6605
25.6149
26.5218
27.3753
28.1696
28.899
29.5583
30.1431
30.6494
31.0737
31.4136
31.6673
31.8341
31.914
31.9081
31.9081
33.0368
32.8251
32.5287
32.1532
31.7046
31.1893
30.614
29.9854
29.3103
28.5953
27.8468
27.071
26.2736
25.4602
25.4602
25.0418
24.169
23.2978
22.4317
21.5739
20.727
19.8935
19.0755
18.2746
18.2746
17.6125
16.8358
16.0815
15.3504
14.6426
13.9595
13.4062
12.946
12.4736
11.9908
11.9908
11.526
11.0272
10.5179
10.0283
9.53467
8.8965
9.15896
6.22611
12.4193
)
;
    }
    procBoundary2to3
    {
        type            processor;
        value           nonuniform List<scalar> 
88
(
5.06223
12.9758
7.62098
5.06223
8.947
8.49266
7.62098
8.40894
9.2982
8.98649
8.49266
8.69998
10.3931
10.1134
9.86646
9.60728
9.2982
9.33589
11.408
11.1536
10.8871
10.61
10.3931
10.3238
11.9813
11.8742
11.7496
11.6077
11.4487
11.273
11.408
11.0812
10.9895
11.0707
11.1435
11.2068
11.2599
11.3016
11.3312
11.3478
11.3506
11.3389
11.3119
11.9813
11.2692
6.42788
6.46633
6.5072
6.54978
6.59451
6.64133
6.69038
6.74172
6.79543
6.85159
6.91027
6.97155
7.03551
7.10221
7.17171
7.24406
7.31932
7.39754
7.47874
7.56293
7.65012
7.7403
7.83345
7.92951
8.02841
8.13006
8.23432
8.34103
8.45003
8.56106
8.67387
8.78814
8.90353
9.01965
9.13604
9.25222
9.36764
9.48171
9.59378
9.70319
9.80917
10.9895
9.91094
)
;
    }
    procBoundary2to6
    {
        type            processor;
        value           nonuniform List<scalar> 
13
(
106.925
47.0008
29.2666
27.8502
23.601
18.9529
15.8212
13.6172
11.8026
10.287
9.04463
8.01286
7.13811
)
;
    }
}


// ************************************************************************* //
