/*--------------------------------*- C++ -*----------------------------------*\
| =========                 |                                                 |
| \\      /  F ield         | OpenFOAM: The Open Source CFD Toolbox           |
|  \\    /   O peration     | Version:  2506                                  |
|   \\  /    A nd           | Website:  www.openfoam.com                      |
|    \\/     M anipulation  |                                                 |
\*---------------------------------------------------------------------------*/
FoamFile
{
    version     2.0;
    format      ascii;
    arch        "LSB;label=32;scalar=64";
    class       volScalarField;
    location    "500";
    object      turbulenceProperties:k;
}
// * * * * * * * * * * * * * * * * * * * * * * * * * * * * * * * * * * * * * //

dimensions      [0 2 -2 0 0 0 0];

internalField   nonuniform List<scalar> 
1340
(
48.1504
46.0271
43.5545
35.6743
1.44803
1.59466
1.9219
2.67275
0.312027
0.429996
0.514693
0.878568
0.0114934
0.0379791
0.0959206
0.349105
0.00112523
0.00159304
0.00296496
0.0677758
0.000166901
0.000274083
0.000681844
0.00769119
3.07714e-06
1.38085e-06
6.16535e-08
0.000219889
2.03696e-05
1.54011e-05
1.59336e-06
1.52661e-05
2.44303e-05
2.63429e-05
2.78728e-05
1.04982e-06
2.06445e-05
2.0358e-05
3.41544e-05
1.41474e-05
2.08836e-05
2.07915e-05
2.94949e-05
3.67772e-05
1.93713e-05
1.95858e-05
2.51744e-05
4.02082e-05
1.86334e-05
1.8898e-05
2.31769e-05
3.69541e-05
1.75961e-05
1.77527e-05
2.14578e-05
3.32421e-05
1.66631e-05
1.6722e-05
1.9852e-05
2.99833e-05
1.56626e-05
1.56313e-05
1.82548e-05
2.70296e-05
1.4666e-05
1.45525e-05
1.67269e-05
2.42927e-05
1.36526e-05
1.34629e-05
1.52636e-05
2.17548e-05
1.26364e-05
1.23768e-05
1.38645e-05
1.94089e-05
1.16203e-05
1.12968e-05
1.25327e-05
1.72595e-05
1.06105e-05
1.02294e-05
1.1264e-05
1.52928e-05
9.61252e-06
9.18153e-06
1.00605e-05
1.35027e-05
8.6327e-06
8.15793e-06
8.92244e-06
1.18825e-05
7.67774e-06
7.16558e-06
7.84848e-06
1.04191e-05
6.7536e-06
6.20902e-06
6.84202e-06
9.10667e-06
5.86708e-06
5.29353e-06
5.90365e-06
7.93408e-06
5.02505e-06
4.42381e-06
5.03614e-06
6.89415e-06
4.23488e-06
3.60344e-06
4.24209e-06
5.9784e-06
3.50485e-06
2.83593e-06
3.52637e-06
5.18032e-06
2.84582e-06
2.12411e-06
2.89559e-06
4.49452e-06
2.27275e-06
1.46909e-06
2.36011e-06
3.91583e-06
1.80885e-06
8.72996e-07
1.93462e-06
3.43994e-06
1.48739e-06
3.3831e-07
1.63771e-06
3.06176e-06
1.33899e-06
1.61398e-07
1.48192e-06
2.77441e-06
1.35583e-06
5.74686e-07
1.45577e-06
2.56793e-06
1.48146e-06
9.40712e-07
1.52125e-06
2.42941e-06
1.65311e-06
1.25406e-06
1.63394e-06
2.34363e-06
1.82958e-06
1.51692e-06
1.76031e-06
2.29506e-06
2.51627e-06
1.98943e-06
1.73208e-06
1.88032e-06
2.26974e-06
2.55419e-06
2.12275e-06
1.90281e-06
1.98339e-06
2.25624e-06
2.58261e-06
2.22575e-06
2.03276e-06
2.06473e-06
2.2462e-06
2.59608e-06
2.29799e-06
2.12558e-06
2.12269e-06
2.23374e-06
2.59198e-06
2.34085e-06
2.18516e-06
2.15767e-06
2.21529e-06
2.56975e-06
2.35666e-06
2.21525e-06
2.17098e-06
2.18881e-06
2.53022e-06
2.34837e-06
2.21967e-06
2.16449e-06
2.15334e-06
2.47498e-06
2.31916e-06
2.20212e-06
2.14064e-06
2.10899e-06
2.4061e-06
2.27219e-06
2.166e-06
2.10166e-06
2.05623e-06
2.32592e-06
2.21064e-06
2.11459e-06
2.04996e-06
1.99585e-06
2.23665e-06
2.13734e-06
2.05086e-06
1.98783e-06
1.92902e-06
2.14042e-06
2.05483e-06
1.9773e-06
1.91721e-06
1.85668e-06
2.03903e-06
1.96534e-06
1.89618e-06
1.83991e-06
1.77986e-06
1.93395e-06
1.87058e-06
1.80922e-06
1.75733e-06
1.69941e-06
1.88164e-06
1.82637e-06
1.77199e-06
1.71788e-06
1.67067e-06
1.61599e-06
1.76383e-06
1.71726e-06
1.67074e-06
1.62331e-06
1.58093e-06
1.53024e-06
1.64684e-06
1.60768e-06
1.56801e-06
1.52672e-06
1.48915e-06
1.44282e-06
1.53169e-06
1.49885e-06
1.46518e-06
1.42945e-06
1.39653e-06
1.35471e-06
1.41976e-06
1.39229e-06
1.36384e-06
1.33311e-06
1.30457e-06
1.26717e-06
1.31253e-06
1.28961e-06
1.26565e-06
1.23934e-06
1.21481e-06
1.18158e-06
1.21109e-06
1.19199e-06
1.17186e-06
1.14942e-06
1.12849e-06
1.09917e-06
1.11566e-06
1.09975e-06
1.08286e-06
1.06379e-06
1.04606e-06
1.02038e-06
1.02544e-06
1.01219e-06
9.98071e-07
9.81956e-07
9.67047e-07
9.4482e-07
9.49348e-07
9.39043e-07
9.28018e-07
9.16258e-07
9.02759e-07
8.90406e-07
8.71428e-07
8.64016e-07
8.55431e-07
8.46292e-07
8.36589e-07
8.25428e-07
8.15412e-07
7.99456e-07
7.81576e-07
7.74421e-07
7.66885e-07
7.58965e-07
7.49863e-07
7.41979e-07
7.28751e-07
7.02955e-07
6.97005e-07
6.90836e-07
6.84444e-07
6.77125e-07
6.71159e-07
6.603e-07
6.29261e-07
6.2431e-07
6.19275e-07
6.14168e-07
6.08346e-07
6.03986e-07
5.95056e-07
5.62526e-07
5.58362e-07
5.54237e-07
5.50217e-07
5.45713e-07
5.4276e-07
5.35692e-07
5.07105e-07
5.03377e-07
4.99787e-07
4.96425e-07
4.92748e-07
4.90732e-07
4.85238e-07
4.62515e-07
4.5897e-07
4.55626e-07
4.5255e-07
4.49243e-07
4.47655e-07
4.43015e-07
4.22408e-07
4.18937e-07
4.15689e-07
4.12745e-07
4.09655e-07
4.08286e-07
4.04289e-07
3.83724e-07
3.80351e-07
3.77194e-07
3.74392e-07
3.71506e-07
3.70293e-07
3.66827e-07
3.49082e-07
3.45156e-07
3.41596e-07
3.3838e-07
3.35652e-07
3.33078e-07
3.32414e-07
3.30864e-07
3.10361e-07
3.0566e-07
3.0125e-07
2.97183e-07
2.93586e-07
2.90203e-07
2.8796e-07
2.84315e-07
2.61576e-07
2.56599e-07
2.52302e-07
2.48735e-07
2.46129e-07
2.44537e-07
2.46667e-07
2.51642e-07
1.93795e-07
1.84154e-07
1.75349e-07
1.67589e-07
1.60939e-07
1.5536e-07
1.50857e-07
1.44147e-07
1.55056e-07
1.5225e-07
1.51456e-07
1.52865e-07
1.57451e-07
1.65695e-07
1.85335e-07
2.14247e-07
1.73002e-07
1.72105e-07
1.70992e-07
1.69424e-07
1.68198e-07
1.73173e-07
2.03884e-07
2.37035e-07
4.66191e-07
4.83558e-07
4.98673e-07
5.12631e-07
5.28764e-07
5.52593e-07
6.11321e-07
6.60162e-07
8.7563e-07
8.7836e-07
8.8032e-07
8.81648e-07
8.82565e-07
8.85546e-07
9.03434e-07
8.60921e-07
1.6728e-06
1.67337e-06
1.67246e-06
1.67071e-06
1.66696e-06
1.66505e-06
1.65149e-06
1.53216e-06
10.4369
2.82142
0.748086
0.23154
0.0404916
0.00269137
0.000231998
1.81091e-05
1.391e-06
2.38662e-05
4.2368e-05
4.25154e-05
3.85992e-05
3.48813e-05
3.16374e-05
2.86764e-05
2.59143e-05
2.33464e-05
2.09751e-05
1.87904e-05
1.67889e-05
1.4963e-05
1.33048e-05
1.18067e-05
1.04585e-05
9.25257e-06
8.17977e-06
7.23119e-06
6.39843e-06
5.67331e-06
5.04789e-06
4.51434e-06
4.0645e-06
3.69047e-06
3.3838e-06
3.13552e-06
2.93655e-06
2.77773e-06
2.65025e-06
2.54618e-06
2.4586e-06
2.38173e-06
2.3112e-06
2.2436e-06
2.17654e-06
2.10852e-06
2.03866e-06
1.96648e-06
1.89203e-06
1.81532e-06
1.73664e-06
1.65619e-06
1.57414e-06
1.49075e-06
1.40637e-06
1.3217e-06
1.23777e-06
1.15579e-06
1.0768e-06
1.00118e-06
9.28502e-07
8.57766e-07
7.88282e-07
7.19927e-07
6.53677e-07
5.90316e-07
5.32718e-07
4.83567e-07
4.42309e-07
4.04285e-07
3.67207e-07
3.32343e-07
2.84638e-07
2.57314e-07
1.41458e-07
2.33645e-07
2.1567e-07
6.48314e-07
7.60608e-07
1.36048e-06
6.28094
2.03375
0.385748
0.060333
0.00591324
0.00116545
6.00011e-08
1.1338e-07
2.0923e-06
2.00307e-05
2.48215e-05
2.4141e-05
2.26859e-05
2.13875e-05
2.01958e-05
1.90222e-05
1.78501e-05
1.66805e-05
1.5531e-05
1.4405e-05
1.33121e-05
1.22578e-05
1.12478e-05
1.02918e-05
9.3917e-06
8.5508e-06
7.77255e-06
7.05837e-06
6.40765e-06
5.82004e-06
5.29377e-06
4.82643e-06
4.41479e-06
4.0551e-06
3.74343e-06
3.47472e-06
3.24437e-06
3.0472e-06
2.87801e-06
2.73201e-06
2.60459e-06
2.4915e-06
2.38936e-06
2.295e-06
2.20606e-06
2.1207e-06
2.03752e-06
1.95557e-06
1.87425e-06
1.79307e-06
1.71181e-06
1.63027e-06
1.54824e-06
1.4657e-06
1.38279e-06
1.30004e-06
1.21829e-06
1.13863e-06
1.06192e-06
9.88411e-07
9.1763e-07
8.48596e-07
7.80672e-07
7.13819e-07
6.49032e-07
5.8699e-07
5.30457e-07
4.81913e-07
4.41226e-07
4.0381e-07
3.67067e-07
3.32576e-07
2.84801e-07
2.58799e-07
1.40142e-07
2.4508e-07
1.88814e-07
6.50723e-07
7.53689e-07
1.39167e-06
3.96551
1.28328
0.17339
0.0111703
0.000370496
7.61009e-05
2.31939e-09
4.33506e-08
6.58773e-06
1.51152e-05
1.49406e-05
1.4177e-05
1.33987e-05
1.27562e-05
1.2167e-05
1.15953e-05
1.10417e-05
1.05023e-05
9.97494e-06
9.46685e-06
8.97215e-06
8.49187e-06
8.02301e-06
7.56961e-06
7.13021e-06
6.70352e-06
6.29189e-06
5.89695e-06
5.51884e-06
5.15969e-06
4.82069e-06
4.50304e-06
4.20776e-06
3.93531e-06
3.68589e-06
3.45879e-06
3.25336e-06
3.06812e-06
2.90138e-06
2.75111e-06
2.61532e-06
2.49172e-06
2.37838e-06
2.27329e-06
2.17475e-06
2.08139e-06
1.99192e-06
1.90548e-06
1.82128e-06
1.73873e-06
1.65739e-06
1.5768e-06
1.49661e-06
1.41656e-06
1.3367e-06
1.25737e-06
1.17928e-06
1.10338e-06
1.03034e-06
9.60286e-07
8.92689e-07
8.26594e-07
7.61417e-07
6.97181e-07
6.34903e-07
5.75185e-07
5.20602e-07
4.73537e-07
4.34242e-07
3.98284e-07
3.62647e-07
3.29167e-07
2.82392e-07
2.57244e-07
1.41956e-07
2.49854e-07
1.76274e-07
6.45404e-07
7.38574e-07
1.39512e-06
2.38904
0.642991
0.0465268
0.000446316
0.000100117
0
9.75317e-08
1.69845e-06
8.57253e-06
1.05779e-05
9.84067e-06
9.47676e-06
9.11419e-06
8.807e-06
8.49745e-06
8.18288e-06
7.87252e-06
7.56477e-06
7.26114e-06
6.96747e-06
6.67955e-06
6.40148e-06
6.13122e-06
5.86855e-06
5.61433e-06
5.3673e-06
5.12671e-06
4.89291e-06
4.66536e-06
4.44428e-06
4.22976e-06
4.02206e-06
3.82205e-06
3.62999e-06
3.44655e-06
3.27239e-06
3.10769e-06
2.95269e-06
2.80738e-06
2.67134e-06
2.54421e-06
2.42533e-06
2.31378e-06
2.20882e-06
2.1096e-06
2.01528e-06
1.92507e-06
1.83837e-06
1.75456e-06
1.67308e-06
1.59349e-06
1.51525e-06
1.43796e-06
1.36128e-06
1.28512e-06
1.20978e-06
1.13584e-06
1.06408e-06
9.95052e-07
9.28797e-07
8.64712e-07
8.01882e-07
7.39787e-07
6.78479e-07
6.18999e-07
5.61884e-07
5.09563e-07
4.64379e-07
4.26768e-07
3.92423e-07
3.58078e-07
3.25824e-07
2.80358e-07
2.56154e-07
1.46178e-07
2.53308e-07
1.70644e-07
6.38924e-07
7.19758e-07
1.3849e-06
1.1817
0.204211
0.00281826
0.000294219
0
2.12157e-08
4.00391e-07
4.56988e-06
7.89349e-06
7.70609e-06
7.29074e-06
7.16951e-06
7.03354e-06
6.91442e-06
6.77911e-06
6.63419e-06
6.48002e-06
6.3144e-06
6.14136e-06
5.96093e-06
5.77305e-06
5.58053e-06
5.38602e-06
5.18835e-06
4.99061e-06
4.79539e-06
4.60164e-06
4.41169e-06
4.22631e-06
4.0458e-06
3.8707e-06
3.70103e-06
3.53751e-06
3.37969e-06
3.22777e-06
3.08218e-06
2.94244e-06
2.80889e-06
2.68135e-06
2.55967e-06
2.44394e-06
2.33377e-06
2.22874e-06
2.12875e-06
2.03331e-06
1.942e-06
1.8544e-06
1.77016e-06
1.68883e-06
1.61e-06
1.53327e-06
1.45812e-06
1.38417e-06
1.31108e-06
1.23869e-06
1.16725e-06
1.09727e-06
1.02942e-06
9.64145e-07
9.01387e-07
8.4053e-07
7.80706e-07
7.21462e-07
6.6288e-07
6.06018e-07
5.51335e-07
5.01121e-07
4.57682e-07
4.21603e-07
3.88643e-07
3.5542e-07
3.24243e-07
2.79979e-07
2.56817e-07
1.51958e-07
2.58809e-07
1.66563e-07
6.39209e-07
7.09898e-07
1.3836e-06
0.39757
0.028364
9.18456e-05
2.25764e-05
0
1.67392e-07
2.82617e-06
6.06891e-06
6.51334e-06
6.04291e-06
5.89377e-06
5.84185e-06
5.76962e-06
5.69759e-06
5.61261e-06
5.52224e-06
5.42261e-06
5.31497e-06
5.20242e-06
5.08324e-06
4.95867e-06
4.82897e-06
4.69605e-06
4.55863e-06
4.41842e-06
4.27677e-06
4.13253e-06
3.98802e-06
3.84352e-06
3.69965e-06
3.55739e-06
3.4171e-06
3.27992e-06
3.14589e-06
3.01552e-06
2.88944e-06
2.76737e-06
2.64982e-06
2.53656e-06
2.4276e-06
2.32309e-06
2.22261e-06
2.12604e-06
2.03339e-06
1.94426e-06
1.85853e-06
1.77591e-06
1.6962e-06
1.61914e-06
1.54438e-06
1.47164e-06
1.40044e-06
1.33047e-06
1.26138e-06
1.19305e-06
1.1257e-06
1.05979e-06
9.95878e-07
9.34324e-07
8.75016e-07
8.17338e-07
7.60483e-07
7.04057e-07
6.48197e-07
5.93952e-07
5.41693e-07
4.93547e-07
4.51814e-07
4.17247e-07
3.85621e-07
3.53504e-07
3.23375e-07
2.80331e-07
2.58347e-07
1.58535e-07
2.65488e-07
1.61742e-07
6.42062e-07
0.0573019
0.000166003
2.16807e-05
1.07382e-06
8.24634e-08
1.4206e-06
4.443e-06
5.08366e-06
4.78632e-06
4.59008e-06
4.58713e-06
4.57743e-06
4.55503e-06
4.5278e-06
4.49073e-06
4.44872e-06
4.398e-06
4.33969e-06
4.276e-06
4.20574e-06
4.13013e-06
4.04915e-06
3.96306e-06
3.87312e-06
3.78012e-06
3.68356e-06
3.58412e-06
3.48333e-06
3.38061e-06
3.27678e-06
3.17237e-06
3.0675e-06
2.96298e-06
2.85903e-06
2.75601e-06
2.65443e-06
2.55443e-06
2.45659e-06
2.36082e-06
2.26746e-06
2.17674e-06
2.08842e-06
2.00279e-06
1.91976e-06
1.83917e-06
1.76115e-06
1.68547e-06
1.61207e-06
1.54082e-06
1.47147e-06
1.40384e-06
1.33755e-06
1.27232e-06
1.20787e-06
1.14412e-06
1.08126e-06
1.01973e-06
9.60036e-07
9.02422e-07
8.46756e-07
7.92437e-07
7.38731e-07
6.85303e-07
6.32345e-07
5.80895e-07
5.31213e-07
4.85267e-07
4.45383e-07
4.12467e-07
3.82274e-07
3.51389e-07
3.22419e-07
2.80754e-07
2.60146e-07
1.65654e-07
2.72258e-07
0.000594694
0.000236233
2.30022e-09
4.08485e-08
7.69133e-07
3.3407e-06
3.98867e-06
3.77917e-06
3.60684e-06
3.59381e-06
3.62212e-06
3.62845e-06
3.62909e-06
3.62401e-06
3.61199e-06
3.59482e-06
3.57103e-06
3.54138e-06
3.50676e-06
3.4667e-06
3.42193e-06
3.37271e-06
3.31876e-06
3.26128e-06
3.2008e-06
3.13662e-06
3.06971e-06
3.00079e-06
2.92945e-06
2.85644e-06
2.78201e-06
2.70616e-06
2.62952e-06
2.55221e-06
2.47437e-06
2.39642e-06
2.31847e-06
2.2409e-06
2.16378e-06
2.08738e-06
2.01196e-06
1.93753e-06
1.86438e-06
1.79254e-06
1.72206e-06
1.65316e-06
1.58572e-06
1.51986e-06
1.4555e-06
1.39254e-06
1.33087e-06
1.2702e-06
1.21033e-06
1.15103e-06
1.09228e-06
1.03428e-06
9.77418e-07
9.22148e-07
8.68666e-07
8.16811e-07
7.6601e-07
7.15614e-07
6.65359e-07
6.15465e-07
5.66972e-07
5.20008e-07
4.76404e-07
4.3853e-07
4.07384e-07
3.78709e-07
3.49173e-07
3.21456e-07
2.81353e-07
2.6228e-07
0.000262412
0
4.19941e-09
7.54416e-08
2.65552e-06
3.22084e-06
3.05559e-06
2.91011e-06
2.89961e-06
2.93882e-06
2.96595e-06
2.98171e-06
2.99364e-06
2.99971e-06
3.00036e-06
2.99562e-06
2.98536e-06
2.97037e-06
2.95062e-06
2.92617e-06
2.89737e-06
2.8648e-06
2.82876e-06
2.78899e-06
2.74654e-06
2.70143e-06
2.6537e-06
2.60383e-06
2.55198e-06
2.49848e-06
2.4433e-06
2.38666e-06
2.32911e-06
2.27028e-06
2.21059e-06
2.15034e-06
2.08941e-06
2.02813e-06
1.96659e-06
1.9049e-06
1.84325e-06
1.78179e-06
1.72059e-06
1.65984e-06
1.59962e-06
1.54014e-06
1.48136e-06
1.42349e-06
1.36651e-06
1.31042e-06
1.25515e-06
1.2005e-06
1.14635e-06
1.09253e-06
1.03904e-06
9.86098e-07
9.34068e-07
8.83339e-07
8.34081e-07
7.86121e-07
7.38926e-07
6.91933e-07
6.44954e-07
5.9823e-07
5.52788e-07
5.08629e-07
4.67458e-07
4.31702e-07
4.02382e-07
3.75257e-07
3.47142e-07
0
0
1.10812e-07
1.87263e-06
2.72629e-06
2.45197e-06
2.36018e-06
2.35446e-06
2.39727e-06
2.43524e-06
2.46089e-06
2.48224e-06
2.49968e-06
2.51195e-06
2.5197e-06
2.52325e-06
2.52195e-06
2.51628e-06
2.50656e-06
2.49279e-06
2.47525e-06
2.45423e-06
2.43013e-06
2.40283e-06
2.37301e-06
2.34086e-06
2.30624e-06
2.26972e-06
2.23141e-06
2.19156e-06
2.14997e-06
2.10708e-06
2.06321e-06
2.0179e-06
1.9717e-06
1.92466e-06
1.87672e-06
1.82816e-06
1.77895e-06
1.72923e-06
1.67913e-06
1.6287e-06
1.57808e-06
1.52734e-06
1.47659e-06
1.42603e-06
1.37564e-06
1.32562e-06
1.27602e-06
1.22684e-06
1.17809e-06
1.12961e-06
1.08133e-06
1.03311e-06
9.85017e-07
9.3723e-07
8.90102e-07
8.43976e-07
7.98983e-07
7.5496e-07
7.11428e-07
6.6791e-07
6.2428e-07
5.8081e-07
5.38494e-07
4.97203e-07
0
6.0734e-08
1.2524e-06
2.22191e-06
2.00793e-06
1.90026e-06
1.92259e-06
1.96153e-06
2.00284e-06
2.03298e-06
2.05829e-06
2.08075e-06
2.09924e-06
2.11391e-06
2.12456e-06
2.13176e-06
2.13511e-06
2.13455e-06
2.13079e-06
2.1237e-06
2.11358e-06
2.1005e-06
2.08479e-06
2.06658e-06
2.04624e-06
2.02381e-06
1.99932e-06
1.97323e-06
1.94553e-06
1.91637e-06
1.88573e-06
1.85384e-06
1.82087e-06
1.78662e-06
1.7514e-06
1.71521e-06
1.67804e-06
1.64009e-06
1.60128e-06
1.56173e-06
1.52155e-06
1.48072e-06
1.43939e-06
1.39759e-06
1.35543e-06
1.31306e-06
1.27049e-06
1.22791e-06
1.18538e-06
1.14292e-06
1.10055e-06
1.05818e-06
1.01574e-06
9.73138e-07
9.30439e-07
8.87821e-07
8.456e-07
8.04079e-07
7.63361e-07
7.23297e-07
6.83469e-07
5.51711e-08
9.06386e-07
1.84261e-06
1.64932e-06
1.55012e-06
1.57824e-06
1.62191e-06
1.65922e-06
1.69088e-06
1.717e-06
1.74087e-06
1.76192e-06
1.77962e-06
1.79433e-06
1.80546e-06
1.81374e-06
1.81891e-06
1.8208e-06
1.82012e-06
1.81667e-06
1.81075e-06
1.80239e-06
1.79201e-06
1.77958e-06
1.7654e-06
1.74959e-06
1.73214e-06
1.71341e-06
1.69337e-06
1.67211e-06
1.64966e-06
1.62617e-06
1.60168e-06
1.57609e-06
1.54962e-06
1.5222e-06
1.49383e-06
1.46466e-06
1.43455e-06
1.40362e-06
1.37194e-06
1.33945e-06
1.30623e-06
1.27236e-06
1.23788e-06
1.20291e-06
1.16751e-06
1.13181e-06
1.09588e-06
1.05977e-06
1.02352e-06
9.8703e-07
9.50263e-07
9.13152e-07
9.36994e-07
1.33379e-06
1.39801e-06
1.27178e-06
1.31237e-06
1.35338e-06
1.38776e-06
1.41666e-06
1.44235e-06
1.46533e-06
1.48679e-06
1.50539e-06
1.52122e-06
1.53468e-06
1.54528e-06
1.55347e-06
1.55904e-06
1.56208e-06
1.56294e-06
1.56159e-06
1.55823e-06
1.553e-06
1.54596e-06
1.5374e-06
1.52747e-06
1.5161e-06
1.50356e-06
1.48995e-06
1.47531e-06
1.45969e-06
1.44312e-06
1.42577e-06
1.40751e-06
1.38841e-06
1.36859e-06
1.34788e-06
1.32641e-06
1.30414e-06
1.28101e-06
1.25712e-06
1.23241e-06
1.20687e-06
)
;

boundaryField
{
    inlet
    {
        type            calculated;
        value           nonuniform List<scalar> 
13
(
5.6278e-06
5.7031e-06
5.76931e-06
5.82895e-06
5.88674e-06
5.94648e-06
6.02399e-06
6.0466e-06
5.98984e-06
5.95609e-06
5.91191e-06
5.87377e-06
5.84262e-06
)
;
    }
    outlet
    {
        type            calculated;
        value           nonuniform List<scalar> 0();
    }
    walls
    {
        type            calculated;
        value           uniform 0;
    }
    frontAndBack
    {
        type            empty;
    }
    procBoundary2to1
    {
        type            processor;
        value           nonuniform List<scalar> 
84
(
49.6017
1.30944
0.203558
0.00214635
0.00133436
5.27639e-07
2.40644e-05
2.24387e-05
2.42298e-05
2.11634e-05
2.11486e-05
1.99635e-05
1.92663e-05
1.83359e-05
1.74633e-05
1.65394e-05
1.56088e-05
1.46592e-05
1.37e-05
1.27356e-05
1.17712e-05
1.08126e-05
9.86697e-06
8.94182e-06
8.0445e-06
7.18304e-06
6.36602e-06
5.60253e-06
4.90179e-06
4.27419e-06
3.73013e-06
3.27944e-06
2.93e-06
2.68397e-06
2.53483e-06
2.46605e-06
2.45503e-06
2.47838e-06
2.47838e-06
3.15551e-06
3.0885e-06
3.02818e-06
2.96759e-06
2.90211e-06
2.82912e-06
2.74756e-06
2.65743e-06
2.55957e-06
2.45517e-06
2.34563e-06
2.23237e-06
2.11665e-06
1.99947e-06
1.99947e-06
1.9368e-06
1.8098e-06
1.68509e-06
1.56348e-06
1.44612e-06
1.33433e-06
1.22912e-06
1.13058e-06
1.03782e-06
1.03782e-06
9.59122e-07
8.72217e-07
7.88493e-07
7.0881e-07
6.3425e-07
5.66815e-07
5.11007e-07
4.66286e-07
4.26126e-07
3.87364e-07
3.87364e-07
3.53309e-07
3.15278e-07
2.67191e-07
2.04029e-07
1.59751e-07
1.74231e-07
4.46433e-07
8.71637e-07
1.67006e-06
)
;
    }
    procBoundary2to3
    {
        type            processor;
        value           nonuniform List<scalar> 
88
(
7.04821e-07
1.38621e-06
1.57324e-07
7.04821e-07
6.44776e-07
1.73419e-07
1.57324e-07
2.78868e-07
3.20721e-07
2.82342e-07
1.73419e-07
2.64894e-07
4.58541e-07
4.24978e-07
3.97519e-07
3.71961e-07
3.20721e-07
3.45324e-07
6.43485e-07
6.03277e-07
5.63135e-07
5.2401e-07
4.58541e-07
4.85644e-07
8.75747e-07
8.3821e-07
8.00827e-07
7.6385e-07
7.27366e-07
6.91248e-07
6.43485e-07
6.55137e-07
1.18055e-06
1.15348e-06
1.12568e-06
1.09722e-06
1.06822e-06
1.03872e-06
1.00882e-06
9.78584e-07
9.48027e-07
9.17086e-07
8.85709e-07
8.75747e-07
8.5384e-07
1.20308e-06
1.0637e-06
1.09335e-06
1.09407e-06
1.14346e-06
1.16999e-06
1.19623e-06
1.21911e-06
1.24071e-06
1.26056e-06
1.27858e-06
1.29429e-06
1.30779e-06
1.31954e-06
1.32889e-06
1.33617e-06
1.34145e-06
1.34481e-06
1.34637e-06
1.34618e-06
1.34435e-06
1.34108e-06
1.33646e-06
1.33059e-06
1.32357e-06
1.31553e-06
1.30659e-06
1.29672e-06
1.28609e-06
1.27468e-06
1.26256e-06
1.24977e-06
1.23627e-06
1.22214e-06
1.20735e-06
1.19187e-06
1.17576e-06
1.1589e-06
1.14132e-06
1.12305e-06
1.10399e-06
1.18055e-06
1.08416e-06
)
;
    }
    procBoundary2to6
    {
        type            processor;
        value           nonuniform List<scalar> 
13
(
15.1054
10.9533
7.14307
4.68509
2.84444
1.41848
0.469521
0.0623339
0.000536657
0.000132718
0
0
6.69233e-08
)
;
    }
}


// ************************************************************************* //
