/*--------------------------------*- C++ -*----------------------------------*\
| =========                 |                                                 |
| \\      /  F ield         | OpenFOAM: The Open Source CFD Toolbox           |
|  \\    /   O peration     | Version:  2506                                  |
|   \\  /    A nd           | Website:  www.openfoam.com                      |
|    \\/     M anipulation  |                                                 |
\*---------------------------------------------------------------------------*/
FoamFile
{
    version     2.0;
    format      ascii;
    arch        "LSB;label=32;scalar=64";
    class       volScalarField;
    location    "150";
    object      magR;
}
// * * * * * * * * * * * * * * * * * * * * * * * * * * * * * * * * * * * * * //

dimensions      [0 2 -2 0 0 0 0];

internalField   nonuniform List<scalar> 
1340
(
34.2316
27.5817
20.7355
7.35257
10.4578
9.37102
8.4461
9.2719
12.2791
10.7552
9.0878
10.3953
11.1679
11.1066
10.1285
11.1526
5.11723
7.87317
9.35029
11.1199
0.440078
2.52259
5.97922
9.63766
0.0561212
0.147732
1.94452
6.44499
0.0102044
0.00626648
0.221895
2.89532
0
0.00121764
0.0199046
0.801596
0
0
0.00679919
0.187019
1.45625e-06
0
0.000917961
0.0590184
2.31537e-05
4.14563e-08
0.000267994
0.0189682
8.68077e-05
1.06501e-07
2.22839e-05
0.00464723
8.99554e-05
4.94185e-05
2.44299e-07
0.000186266
7.31303e-05
9.27033e-05
7.60773e-07
1.03927e-05
6.44372e-05
9.45775e-05
7.09105e-06
6.29822e-09
6.3163e-05
7.83481e-05
4.69625e-05
1.22547e-06
6.35271e-05
6.56633e-05
7.11289e-05
1.56208e-05
6.27812e-05
5.98314e-05
7.06006e-05
4.26114e-05
6.0841e-05
5.75296e-05
6.29185e-05
5.73581e-05
5.83756e-05
5.59627e-05
5.65099e-05
5.90529e-05
5.58374e-05
5.40557e-05
5.23338e-05
5.54062e-05
5.33539e-05
5.17461e-05
4.93704e-05
5.09079e-05
5.09086e-05
4.92357e-05
4.67896e-05
4.68798e-05
4.84756e-05
4.66831e-05
4.426e-05
4.33678e-05
4.60388e-05
4.41535e-05
4.173e-05
4.0208e-05
4.36047e-05
4.16695e-05
3.92346e-05
3.72972e-05
4.11854e-05
3.92321e-05
3.68046e-05
3.45957e-05
3.87882e-05
3.68423e-05
3.44477e-05
3.20766e-05
3.6429e-05
3.45127e-05
3.21763e-05
2.97293e-05
3.4119e-05
3.22504e-05
2.99894e-05
2.75393e-05
3.18642e-05
3.00643e-05
2.78974e-05
2.54935e-05
2.96768e-05
2.79564e-05
2.58996e-05
2.35847e-05
2.9009e-05
2.75637e-05
2.59357e-05
2.39967e-05
2.18005e-05
2.6868e-05
2.55314e-05
2.40058e-05
2.21934e-05
2.01331e-05
2.4815e-05
2.35887e-05
2.21691e-05
2.04887e-05
1.85758e-05
2.28565e-05
2.1738e-05
2.04279e-05
1.8882e-05
1.71215e-05
2.09976e-05
1.99835e-05
1.87835e-05
1.73713e-05
1.5764e-05
1.92406e-05
1.83274e-05
1.72365e-05
1.59556e-05
1.44977e-05
1.75883e-05
1.67711e-05
1.57861e-05
1.46325e-05
1.33182e-05
1.60424e-05
1.53148e-05
1.44316e-05
1.33996e-05
1.22215e-05
1.46022e-05
1.39575e-05
1.31703e-05
1.22533e-05
1.12027e-05
1.32654e-05
1.26967e-05
1.19988e-05
1.11886e-05
1.02567e-05
1.20289e-05
1.15301e-05
1.09144e-05
1.02023e-05
9.37845e-06
1.08897e-05
1.04542e-05
9.91387e-06
9.29108e-06
8.5653e-06
1.01524e-05
9.84426e-06
9.46501e-06
8.99314e-06
8.45099e-06
7.81406e-06
9.15495e-06
8.88788e-06
8.55881e-06
8.14807e-06
7.67813e-06
7.12092e-06
8.24614e-06
8.01546e-06
7.73073e-06
7.37423e-06
6.9683e-06
6.48199e-06
7.42e-06
7.22125e-06
6.9756e-06
6.66712e-06
6.31745e-06
5.89399e-06
6.67102e-06
6.5e-06
6.28859e-06
6.02251e-06
5.72198e-06
5.35412e-06
5.99433e-06
5.84703e-06
5.66513e-06
5.43598e-06
5.1783e-06
4.85941e-06
5.38401e-06
5.25714e-06
5.10075e-06
4.90356e-06
4.6828e-06
4.40668e-06
4.83428e-06
4.72508e-06
4.59064e-06
4.42101e-06
4.23194e-06
3.99305e-06
4.33974e-06
4.24567e-06
4.13028e-06
3.98445e-06
3.82245e-06
3.61586e-06
3.95932e-06
3.89534e-06
3.81419e-06
3.71513e-06
3.58987e-06
3.45107e-06
3.27259e-06
3.55163e-06
3.496e-06
3.42616e-06
3.34106e-06
3.23352e-06
3.11464e-06
2.96061e-06
3.18622e-06
3.13796e-06
3.0776e-06
3.00435e-06
2.91198e-06
2.8101e-06
2.67729e-06
2.85959e-06
2.81741e-06
2.76506e-06
2.70183e-06
2.62229e-06
2.5348e-06
2.42029e-06
2.56773e-06
2.53074e-06
2.48518e-06
2.43045e-06
2.36177e-06
2.28635e-06
2.18746e-06
2.30662e-06
2.2742e-06
2.23456e-06
2.18707e-06
2.12762e-06
2.06242e-06
1.97693e-06
2.07278e-06
2.04421e-06
2.00978e-06
1.96863e-06
1.91718e-06
1.8607e-06
1.78679e-06
1.88266e-06
1.86235e-06
1.8373e-06
1.80749e-06
1.7719e-06
1.72749e-06
1.67863e-06
1.61488e-06
1.69052e-06
1.67249e-06
1.65084e-06
1.62494e-06
1.59416e-06
1.55597e-06
1.51384e-06
1.45906e-06
1.51787e-06
1.50189e-06
1.4828e-06
1.46018e-06
1.43353e-06
1.40067e-06
1.36429e-06
1.31727e-06
1.36384e-06
1.34939e-06
1.33233e-06
1.31238e-06
1.2891e-06
1.26062e-06
1.22911e-06
1.18874e-06
1.2262e-06
1.21275e-06
1.19715e-06
1.17921e-06
1.15847e-06
1.13341e-06
1.10574e-06
1.0706e-06
1.10912e-06
1.0968e-06
1.08267e-06
1.06645e-06
1.04781e-06
1.0254e-06
1.00063e-06
9.69161e-07
1.01576e-06
1.00439e-06
9.91746e-07
9.77244e-07
9.6052e-07
9.40342e-07
9.17929e-07
8.90627e-07
9.43271e-07
9.34283e-07
9.22911e-07
9.10689e-07
8.97116e-07
8.81682e-07
8.63341e-07
8.42623e-07
8.18321e-07
8.7103e-07
8.61696e-07
8.50419e-07
8.38114e-07
8.24721e-07
8.09795e-07
7.92519e-07
7.73405e-07
7.52596e-07
7.97027e-07
7.87398e-07
7.75935e-07
7.63485e-07
7.50142e-07
7.35455e-07
7.18529e-07
6.99064e-07
6.76429e-07
7.36085e-07
7.2732e-07
7.16722e-07
7.04981e-07
6.92215e-07
6.78197e-07
6.62541e-07
6.46236e-07
6.30727e-07
6.53549e-07
6.43933e-07
6.3302e-07
6.21378e-07
6.09087e-07
5.95567e-07
5.79623e-07
5.59535e-07
5.34287e-07
6.23504e-07
6.15484e-07
6.05781e-07
5.94899e-07
5.83185e-07
5.70872e-07
5.58711e-07
5.49268e-07
5.44722e-07
5.09612e-07
5.00502e-07
4.90515e-07
4.79861e-07
4.68459e-07
4.55282e-07
4.37937e-07
4.13743e-07
3.8161e-07
5.74979e-07
5.69262e-07
5.61919e-07
5.52999e-07
5.43532e-07
5.34832e-07
5.30905e-07
5.37605e-07
5.51211e-07
4.48624e-07
4.47365e-07
4.4386e-07
4.37837e-07
4.29632e-07
4.18547e-07
4.02993e-07
3.91473e-07
3.72433e-07
7.64026e-07
7.46704e-07
7.46839e-07
7.4672e-07
7.45582e-07
7.44354e-07
7.45427e-07
7.5923e-07
7.93233e-07
8.06987e-07
8.11103e-07
8.07772e-07
8.12398e-07
8.1748e-07
8.21563e-07
8.25037e-07
8.30088e-07
8.48494e-07
8.80978e-07
8.78225e-07
1.39464e-06
1.18163e-06
1.19795e-06
1.21211e-06
1.22102e-06
1.23124e-06
1.24454e-06
1.26972e-06
1.29205e-06
1.10292e-06
15.5589
6.29492
3.86542
9.71593
12.002
11.626
9.13457
5.24827
1.80818
0.317076
0.0538656
0.0167293
0.00407067
4.7358e-05
2.29845e-06
0
3.94415e-07
8.01525e-06
3.36433e-05
4.95736e-05
5.23821e-05
4.92848e-05
4.50811e-05
4.13085e-05
3.80738e-05
3.52207e-05
3.26179e-05
3.02162e-05
2.79895e-05
2.59276e-05
2.40177e-05
2.2247e-05
2.06062e-05
1.90821e-05
1.76638e-05
1.6344e-05
1.51137e-05
1.3966e-05
1.28945e-05
1.18944e-05
1.09622e-05
1.00936e-05
9.28427e-06
8.52828e-06
7.82427e-06
7.17041e-06
6.56376e-06
6.00113e-06
5.47992e-06
4.99829e-06
4.55441e-06
4.14577e-06
3.77018e-06
3.42557e-06
3.11017e-06
2.82207e-06
2.55923e-06
2.31966e-06
2.10161e-06
1.9035e-06
1.72385e-06
1.5609e-06
1.41287e-06
1.27769e-06
1.15499e-06
1.04145e-06
9.4305e-07
8.679e-07
7.96486e-07
7.36095e-07
6.54709e-07
6.21775e-07
5.05907e-07
5.50466e-07
3.38383e-07
5.73873e-07
3.30687e-07
8.03268e-07
8.16423e-07
1.03903e-06
11.6374
10.696
4.51063
3.19517
7.37279
9.09114
8.38019
5.81264
2.58678
0.52053
0.0391223
0.00683409
0.00233735
6.40631e-05
3.50929e-06
0
1.54371e-07
3.19573e-06
1.89e-05
3.13989e-05
3.48165e-05
3.37159e-05
3.15354e-05
2.9457e-05
2.7643e-05
2.60029e-05
2.44599e-05
2.29894e-05
2.15881e-05
2.02583e-05
1.89989e-05
1.78074e-05
1.6682e-05
1.56177e-05
1.46099e-05
1.36564e-05
1.27528e-05
1.18971e-05
1.10857e-05
1.03169e-05
9.59004e-06
8.90397e-06
8.25619e-06
7.64259e-06
7.06341e-06
6.51882e-06
6.00754e-06
5.52785e-06
5.07833e-06
4.65826e-06
4.26721e-06
3.90379e-06
3.56662e-06
3.25451e-06
2.96645e-06
2.70132e-06
2.45777e-06
2.23438e-06
2.02981e-06
1.84285e-06
1.6724e-06
1.51704e-06
1.37539e-06
1.24558e-06
1.1274e-06
1.01778e-06
9.21975e-07
8.48261e-07
7.77359e-07
7.19864e-07
6.38068e-07
6.09008e-07
4.9038e-07
5.4047e-07
3.23977e-07
5.62534e-07
3.19196e-07
7.82604e-07
7.94256e-07
7.52206
9.31171
7.27512
2.78844
2.68465
6.03246
7.34741
6.48595
4.05526
1.44241
0.18396
0.00679528
0.000263556
7.03287e-05
0
0
4.88115e-08
9.86079e-07
9.14045e-06
1.83976e-05
2.21508e-05
2.21489e-05
2.10897e-05
2.00509e-05
1.91859e-05
1.84205e-05
1.76923e-05
1.69735e-05
1.62556e-05
1.55406e-05
1.48297e-05
1.41249e-05
1.34295e-05
1.27445e-05
1.20711e-05
1.14116e-05
1.0767e-05
1.01398e-05
9.52997e-06
8.93918e-06
8.3699e-06
7.82399e-06
7.30094e-06
6.79841e-06
6.31798e-06
5.86124e-06
5.42835e-06
5.01864e-06
4.6313e-06
4.26639e-06
3.92425e-06
3.60421e-06
3.30547e-06
3.02716e-06
2.76878e-06
2.52971e-06
2.30902e-06
2.10569e-06
1.91864e-06
1.74689e-06
1.58965e-06
1.44574e-06
1.31413e-06
1.19306e-06
1.08246e-06
9.79549e-07
8.88913e-07
8.19094e-07
7.50745e-07
6.97757e-07
6.1763e-07
5.92575e-07
4.75196e-07
5.27335e-07
3.16326e-07
5.4884e-07
3.17219e-07
7.66051e-07
4.72258
6.88875
7.28723
5.31758
1.86719
2.15403
4.8749
5.95953
5.18312
3.07436
0.991334
0.111832
0.00206754
0.000636738
0
0
4.39163e-11
8.38989e-10
5.93054e-06
1.48549e-05
1.88697e-05
1.92026e-05
1.82387e-05
1.71264e-05
1.62092e-05
1.54603e-05
1.47961e-05
1.41732e-05
1.35762e-05
1.2999e-05
1.24367e-05
1.18868e-05
1.13482e-05
1.08187e-05
1.0297e-05
9.78264e-06
9.27626e-06
8.77931e-06
8.2914e-06
7.81402e-06
7.3499e-06
6.90148e-06
6.46844e-06
6.04912e-06
5.64491e-06
5.25774e-06
4.88861e-06
4.5373e-06
4.203e-06
3.88611e-06
3.5874e-06
3.3066e-06
3.04324e-06
2.79657e-06
2.56641e-06
2.35248e-06
2.15415e-06
1.97069e-06
1.80123e-06
1.64496e-06
1.50129e-06
1.36931e-06
1.24822e-06
1.13645e-06
1.03393e-06
9.38196e-07
8.53224e-07
7.882e-07
7.23225e-07
6.74976e-07
5.96893e-07
5.75774e-07
4.60358e-07
5.14307e-07
3.09626e-07
5.36528e-07
3.14103e-07
2.63136
4.57366
5.91611
5.86213
4.20105
1.50702
1.61524
3.84751
4.80297
4.19467
2.45556
0.784355
0.0905008
0.00104384
0.000273112
0
0
3.13965e-09
5.93945e-08
8.74937e-06
1.63714e-05
1.71392e-05
1.61423e-05
1.52015e-05
1.43812e-05
1.36618e-05
1.30258e-05
1.24354e-05
1.18721e-05
1.13331e-05
1.08163e-05
1.0319e-05
9.83926e-06
9.37574e-06
8.92622e-06
8.48869e-06
8.06236e-06
7.64709e-06
7.24133e-06
6.84502e-06
6.46e-06
6.08797e-06
5.7282e-06
5.3787e-06
5.03988e-06
4.71348e-06
4.40084e-06
4.10181e-06
3.81544e-06
3.54212e-06
3.28291e-06
3.03792e-06
2.8068e-06
2.58898e-06
2.38453e-06
2.1934e-06
2.01531e-06
1.84979e-06
1.69617e-06
1.5538e-06
1.42229e-06
1.30094e-06
1.18922e-06
1.08571e-06
9.90377e-07
9.01063e-07
8.21105e-07
7.60322e-07
6.98311e-07
6.54166e-07
5.77852e-07
5.60243e-07
4.46328e-07
5.02538e-07
3.02372e-07
5.26735e-07
1.12269
2.60296
4.13287
5.0601
4.9017
3.55107
1.3911
1.13036
3.01804
3.90731
3.4801
2.07554
0.694239
0.0898514
0.000489282
0.000110746
0
0
4.21124e-11
5.02124e-07
7.98919e-06
1.47851e-05
1.40677e-05
1.25731e-05
1.1806e-05
1.13018e-05
1.08347e-05
1.03922e-05
9.96798e-06
9.55385e-06
9.15085e-06
8.76087e-06
8.3825e-06
8.01419e-06
7.65451e-06
7.30258e-06
6.95847e-06
6.62237e-06
6.29308e-06
5.97031e-06
5.65577e-06
5.35106e-06
5.05572e-06
4.76765e-06
4.48653e-06
4.21396e-06
3.95154e-06
3.69922e-06
3.45597e-06
3.22206e-06
2.99871e-06
2.78635e-06
2.58478e-06
2.39353e-06
2.21281e-06
2.04281e-06
1.88353e-06
1.73471e-06
1.59591e-06
1.46661e-06
1.34653e-06
1.23519e-06
1.13228e-06
1.03659e-06
9.48105e-07
8.64943e-07
7.89772e-07
7.32927e-07
6.73667e-07
6.33367e-07
5.58866e-07
5.44698e-07
4.32191e-07
4.90921e-07
0.277666
1.11877
2.426
3.7005
4.43969
4.29681
3.19447
1.39827
0.725895
2.38073
3.24127
2.98267
1.85529
0.670559
0.102539
0.00127318
0.000274131
0
0
0
3.97725e-07
6.09206e-06
1.27466e-05
1.21845e-05
1.04503e-05
9.6322e-06
9.19554e-06
8.79819e-06
8.42579e-06
8.08419e-06
7.75683e-06
7.43826e-06
7.1316e-06
6.83751e-06
6.55255e-06
6.27345e-06
5.99938e-06
5.73048e-06
5.46581e-06
5.20487e-06
4.94894e-06
4.69984e-06
4.45764e-06
4.22033e-06
3.98703e-06
3.75934e-06
3.539e-06
3.32614e-06
3.11978e-06
2.92e-06
2.72802e-06
2.54451e-06
2.36944e-06
2.20233e-06
2.04342e-06
1.89306e-06
1.75145e-06
1.61852e-06
1.49398e-06
1.37737e-06
1.26853e-06
1.16713e-06
1.07303e-06
9.8523e-07
9.03709e-07
8.26862e-07
7.56665e-07
7.03914e-07
6.47567e-07
6.11232e-07
5.38827e-07
5.28265e-07
0.0169347
0.246266
0.976391
2.10233
3.211
3.88669
3.83753
2.97382
1.47362
0.375338
1.85999
2.72861
2.6343
1.73487
0.696579
0.133265
0.00658581
0.000984514
0
0
0
2.27335e-07
3.28989e-06
1.02556e-05
1.06737e-05
9.11313e-06
8.29948e-06
7.8967e-06
7.51727e-06
7.14749e-06
6.82433e-06
6.53303e-06
6.25408e-06
5.98551e-06
5.72988e-06
5.48548e-06
5.24916e-06
5.01937e-06
4.79467e-06
4.57405e-06
4.35801e-06
4.14809e-06
3.94445e-06
3.74498e-06
3.54832e-06
3.3556e-06
3.16854e-06
2.98749e-06
2.8114e-06
2.6401e-06
2.47467e-06
2.31592e-06
2.16394e-06
2.01819e-06
1.87885e-06
1.74634e-06
1.62098e-06
1.50285e-06
1.39174e-06
1.28724e-06
1.18925e-06
1.09753e-06
1.01209e-06
9.32141e-07
8.57605e-07
7.87151e-07
7.22067e-07
6.73577e-07
6.203e-07
0.00124856
0.00861791
0.141401
0.605324
1.42498
2.34796
3.02014
3.15822
2.63177
1.51861
0.189717
1.29794
2.18349
2.27317
1.61353
0.722104
0.168688
0.0165779
0.00186807
5.32974e-06
0
0
1.16772e-07
1.64544e-06
7.94237e-06
9.02118e-06
7.79141e-06
7.1242e-06
6.84727e-06
6.53931e-06
6.18406e-06
5.86576e-06
5.59602e-06
5.34946e-06
5.11221e-06
4.88406e-06
4.66633e-06
4.45815e-06
4.25706e-06
4.06128e-06
3.8708e-06
3.68695e-06
3.50993e-06
3.33766e-06
3.16825e-06
3.00214e-06
2.8409e-06
2.68503e-06
2.53341e-06
2.38554e-06
2.24227e-06
2.10445e-06
1.97225e-06
1.84507e-06
1.72295e-06
1.60631e-06
1.49556e-06
1.39087e-06
1.29209e-06
1.19885e-06
1.11104e-06
1.02849e-06
9.51325e-07
8.78936e-07
8.11185e-07
7.47018e-07
0
0.000127882
3.4443e-05
0.0383343
0.325026
0.975456
1.78323
2.44571
2.7068
2.4231
1.6151
0.494127
0.717635
1.56961
1.81944
1.40676
0.691483
0.185548
0.0207442
0.000565622
0.000100423
0
0
9.57356e-08
1.42271e-06
7.39271e-06
8.48447e-06
6.93826e-06
6.06602e-06
5.86297e-06
5.69798e-06
5.40491e-06
5.09153e-06
4.82801e-06
4.60393e-06
4.39434e-06
4.19129e-06
3.99685e-06
3.81163e-06
3.63367e-06
3.46182e-06
3.2969e-06
3.13936e-06
2.98744e-06
2.83883e-06
2.69334e-06
2.55234e-06
2.41644e-06
2.28454e-06
2.15588e-06
2.03097e-06
1.91068e-06
1.79524e-06
1.68401e-06
1.57686e-06
1.47417e-06
1.37639e-06
1.28372e-06
1.19611e-06
1.11317e-06
1.03481e-06
9.60826e-07
0.000469999
0.00320753
0.00889542
0.0777024
0.419867
1.06886
1.90253
2.71651
3.29977
3.46952
3.1103
2.23318
1.02796
0.292989
1.15295
1.50329
1.24375
0.651056
0.179117
0.0131598
0.00105054
0
0
0
7.35311e-08
1.05709e-06
6.26654e-06
8.26543e-06
6.86206e-06
5.506e-06
5.04433e-06
4.92975e-06
4.74742e-06
4.47546e-06
4.21343e-06
3.9953e-06
3.80296e-06
3.6202e-06
3.4447e-06
3.27752e-06
3.1183e-06
2.96695e-06
2.82361e-06
2.68678e-06
2.55401e-06
2.42451e-06
2.29929e-06
2.17906e-06
2.06288e-06
1.94974e-06
1.83987e-06
1.73407e-06
1.63262e-06
1.5349e-06
1.4406e-06
1.35002e-06
1.26359e-06
0.00319779
0.00639578
0.0456835
0.234334
0.622246
1.20655
1.92577
2.68421
3.3684
3.85095
3.99626
3.68438
2.8679
1.64701
0.355559
0.868619
1.40373
1.28372
0.729427
0.206991
0.00627433
0.00072161
0
0
0
1.048e-09
2.73113e-07
3.67066e-06
7.34226e-06
6.88575e-06
5.31923e-06
4.48664e-06
4.27241e-06
4.16139e-06
3.95707e-06
3.71359e-06
3.49807e-06
3.31546e-06
3.1484e-06
2.98856e-06
2.83613e-06
2.69275e-06
2.55862e-06
2.43211e-06
2.31064e-06
2.19291e-06
2.0795e-06
1.97115e-06
1.86711e-06
1.76622e-06
0.00224835
0.00343527
0.0614144
0.244811
0.565957
1.0115
1.55
2.13749
2.72084
3.23704
3.61009
3.74812
3.55244
2.94827
1.94654
0.721392
0.544323
1.27037
1.371
0.913442
0.325422
0.0273759
0.00381182
0
0
0
0
4.41222e-08
4.09186e-07
4.33452e-06
6.55076e-06
5.50518e-06
4.23675e-06
3.73688e-06
3.6218e-06
3.49668e-06
3.29439e-06
3.087e-06
)
;

boundaryField
{
    inlet
    {
        type            calculated;
        value           nonuniform List<scalar> 
11
(
6.0845e-06
5.76589e-06
5.90222e-06
6.02838e-06
6.14003e-06
6.23908e-06
6.33172e-06
6.42471e-06
6.53566e-06
6.28009e-06
6.6107e-06
)
;
    }
    outlet
    {
        type            calculated;
        value           nonuniform List<scalar> 0();
    }
    walls
    {
        type            calculated;
        value           nonuniform List<scalar> 4(0.448864 0.352934 0.253725 0.0620443);
    }
    frontAndBack
    {
        type            empty;
    }
    procBoundary6to2
    {
        type            processor;
        value           nonuniform List<scalar> 
13
(
11.6211
6.62751
3.94642
2.18692
0.933003
0.232579
0.0175251
0.00140152
0
0
1.94838e-08
7.07032e-05
0.00051968
)
;
    }
    procBoundary6to3
    {
        type            processor;
        value           uniform 5.32807e-05;
    }
    procBoundary6to5
    {
        type            processor;
        value           nonuniform List<scalar> 
86
(
39.3843
12.0348
14.1366
10.2315
2.26019
0.108582
0.045044
0
0
1.26219e-06
2.21635e-05
8.15781e-05
8.44542e-05
7.41034e-05
7.11374e-05
7.08936e-05
6.95806e-05
6.72206e-05
6.46924e-05
6.23353e-05
6.00794e-05
5.78078e-05
5.54716e-05
5.30704e-05
5.06249e-05
4.81544e-05
4.56717e-05
4.31909e-05
4.07243e-05
3.82823e-05
3.58775e-05
3.35235e-05
3.12308e-05
3.12308e-05
3.03384e-05
2.80735e-05
2.59032e-05
2.38349e-05
2.18723e-05
2.00187e-05
1.82776e-05
1.66507e-05
1.51372e-05
1.37339e-05
1.24375e-05
1.12448e-05
1.12448e-05
1.03957e-05
9.3648e-06
8.42695e-06
7.5755e-06
6.80494e-06
6.1098e-06
5.48377e-06
4.92032e-06
4.41378e-06
4.41378e-06
4.00934e-06
3.59508e-06
3.2243e-06
2.89317e-06
2.59747e-06
2.33297e-06
2.09587e-06
2.09587e-06
1.89918e-06
1.70517e-06
1.5311e-06
1.37601e-06
1.23765e-06
1.11942e-06
1.02463e-06
1.02463e-06
9.51359e-07
8.79332e-07
8.05883e-07
7.44402e-07
6.62742e-07
6.32441e-07
5.1706e-07
5.86315e-07
4.42351e-07
4.42351e-07
7.06751e-07
8.10245e-07
1.0615e-06
)
;
    }
    procBoundary6to7
    {
        type            processor;
        value           nonuniform List<scalar> 
91
(
1.04434e-06
1.04434e-06
7.68076e-07
7.68076e-07
7.51397e-07
7.51397e-07
3.11039e-07
2.94487e-07
3.11039e-07
5.17775e-07
4.17353e-07
2.94487e-07
4.78866e-07
5.88029e-07
5.17959e-07
4.17353e-07
5.11119e-07
6.87032e-07
6.42795e-07
5.88029e-07
5.92622e-07
8.91466e-07
8.2625e-07
7.65008e-07
6.87032e-07
7.06938e-07
1.18161e-06
1.104e-06
1.03042e-06
9.6071e-07
8.91466e-07
8.94696e-07
1.66839e-06
1.57431e-06
1.48431e-06
1.39781e-06
1.31437e-06
1.23414e-06
1.18161e-06
1.15752e-06
2.91005e-06
2.75447e-06
2.60794e-06
2.46884e-06
2.33939e-06
2.21916e-06
2.1053e-06
1.99581e-06
1.89079e-06
1.791e-06
1.69593e-06
1.66839e-06
1.60436e-06
0.00371504
0.00759497
0.0908059
0.293024
0.616839
1.03937
1.52605
2.03575
2.5232
2.93985
3.23289
3.34255
3.20252
2.75223
1.9703
0.933755
0.27995
1.07804
1.40463
1.12963
0.539933
0.126634
0.0174177
0.000220892
0
0
0
4.62223e-10
1.2346e-07
1.50118e-06
4.6886e-06
5.30264e-06
4.20426e-06
3.42203e-06
3.18256e-06
3.09005e-06
2.91005e-06
2.93636e-06
)
;
    }
}


// ************************************************************************* //
