/*--------------------------------*- C++ -*----------------------------------*\
| =========                 |                                                 |
| \\      /  F ield         | OpenFOAM: The Open Source CFD Toolbox           |
|  \\    /   O peration     | Version:  2506                                  |
|   \\  /    A nd           | Website:  www.openfoam.com                      |
|    \\/     M anipulation  |                                                 |
\*---------------------------------------------------------------------------*/
FoamFile
{
    version     2.0;
    format      ascii;
    arch        "LSB;label=32;scalar=64";
    class       surfaceScalarField;
    location    "150";
    object      phi;
}
// * * * * * * * * * * * * * * * * * * * * * * * * * * * * * * * * * * * * * //

dimensions      [0 3 -1 0 0 0 0];

oriented        oriented;

internalField   nonuniform List<scalar> 
2577
(
0.12387
0.0129536
0.105246
0.0186273
0.0760977
0.029143
0.073563
0.00254314
0.163493
0.0282491
0.143906
0.0382155
0.110657
0.0623936
0.0798688
0.033349
0.202378
0.0493822
0.177883
0.062712
0.141378
0.0988937
0.0969974
0.0777307
0.247091
0.0775626
0.216249
0.0935553
0.174922
0.140222
0.123597
0.129069
0.294166
0.107078
0.258726
0.128997
0.21242
0.186523
0.156209
0.18528
0.330802
0.126891
0.299643
0.160157
0.252521
0.233646
0.193085
0.244728
0.349297
0.138485
0.329429
0.180027
0.290222
0.272846
0.232073
0.302877
0.36033
0.151225
0.346779
0.193581
0.319664
0.299962
0.269004
0.353548
0.375593
0.167965
0.360382
0.208794
0.340601
0.319734
0.299335
0.394815
0.396374
0.186647
0.377149
0.228022
0.357959
0.338925
0.322062
0.43072
0.41959
0.205541
0.397949
0.249665
0.376457
0.360408
0.341406
0.465773
0.443445
0.224504
0.421075
0.272039
0.397515
0.383969
0.362079
0.501215
0.467864
0.243921
0.445315
0.29459
0.420733
0.408542
0.385331
0.536619
0.493377
0.26405
0.470404
0.317566
0.44544
0.433507
0.410691
0.571372
0.520275
0.284903
0.49669
0.341153
0.471358
0.45883
0.437573
0.605159
0.548716
0.306412
0.524397
0.365475
0.498596
0.484632
0.465732
0.638025
0.578677
0.328569
0.553705
0.390448
0.527361
0.510968
0.495239
0.670149
0.610264
0.35129
0.584674
0.416042
0.557739
0.537904
0.526273
0.701618
0.643507
0.374579
0.617362
0.442188
0.589896
0.565362
0.558993
0.732521
0.678515
0.398409
0.651853
0.468853
0.623895
0.59332
0.593492
0.762927
0.71537
0.422718
0.688244
0.495979
0.659815
0.621742
0.629883
0.792859
0.754144
0.447491
0.726598
0.523526
0.697753
0.650587
0.66822
0.822395
0.794972
0.472627
0.767063
0.551435
0.737796
0.679848
0.708623
0.851568
0.837864
0.498228
0.809684
0.579615
0.780081
0.709451
0.751192
0.88046
0.88316
0.523973
0.854613
0.608162
0.824668
0.73939
0.796057
0.909072
0.930628
0.550114
0.901875
0.636915
0.871743
0.769521
0.843309
0.937509
0.980543
0.576298
0.951782
0.665675
0.921237
0.800061
0.893087
0.96566
1.03317
0.602598
1.00405
0.694795
0.973505
0.830608
0.945528
0.993639
1.08833
0.629083
1.05946
0.72366
1.02856
0.861501
1.00057
1.02163
1.1464
0.655547
1.11731
0.752753
1.08652
0.892291
1.05876
1.04939
1.2075
0.681773
1.17851
0.781742
1.14748
0.923322
1.11983
1.07704
1.27145
0.708126
1.24276
0.810428
1.21181
0.954278
1.18401
1.10484
1.33904
0.733976
1.31016
0.839305
1.2792
0.985234
1.25181
1.13224
1.43553
0.675277
1.40968
0.759831
1.38122
0.867768
1.3503
1.01615
1.32293
1.15961
1.50969
0.697854
1.48402
0.785491
1.45589
0.895901
1.42493
1.04711
1.39775
1.18679
1.58746
0.720359
1.56217
0.810778
1.53414
0.923937
1.50345
1.0778
1.47649
1.21374
1.66922
0.742488
1.64435
0.835649
1.61673
0.951558
1.58608
1.10844
1.55925
1.24058
1.75524
0.764211
1.73054
0.860348
1.70309
0.979009
1.67265
1.13888
1.64626
1.26697
1.84545
0.785663
1.82122
0.884578
1.79425
1.00598
1.76392
1.16921
1.7376
1.2933
1.9404
0.806831
1.91651
0.908465
1.88977
1.03272
1.85971
1.19926
1.83363
1.31937
2.04005
0.827864
2.01666
0.931858
1.99028
1.0591
1.96024
1.22931
1.93456
1.34505
2.1452
0.848342
2.12202
0.955038
2.09588
1.08524
2.06615
1.25904
2.04079
1.37041
2.25554
0.8687
2.23256
0.978021
2.20696
1.11084
2.17711
1.28888
2.15222
1.39531
2.37171
0.888825
2.34908
1.00066
2.32369
1.13623
2.29418
1.3184
2.26936
1.42013
2.49385
0.908748
2.47165
1.02285
2.44622
1.16166
2.41688
1.34774
2.39257
1.44443
2.64248
0.830065
2.6226
0.928628
2.60027
1.04519
2.57544
1.18648
2.54599
1.37719
2.52207
1.46835
2.77781
0.848171
2.75807
0.948364
2.73599
1.06727
2.71106
1.2114
2.68162
1.40663
2.65808
1.49189
2.92054
0.866303
2.90063
0.96827
2.87874
1.08916
2.85397
1.23618
2.82451
1.43609
2.80121
1.51518
3.07064
0.88464
3.05093
0.987981
3.02895
1.11113
3.00412
1.26102
2.97477
1.46544
2.95157
1.53838
3.22918
0.903224
3.20906
1.0081
3.18708
1.13312
3.16246
1.28563
3.13263
1.49527
3.10992
1.56109
3.39601
0.922091
3.37586
1.02825
3.3538
1.15518
3.32879
1.31065
3.29896
1.5251
3.27633
1.58373
3.57185
0.941306
3.5515
1.04859
3.52919
1.1775
3.50416
1.33568
3.47376
1.55549
3.45144
1.60605
3.7574
0.960889
3.73666
1.06933
3.71392
1.20024
3.68864
1.36095
3.65807
1.58607
3.63575
1.62837
3.95299
0.981019
3.93165
1.09068
3.90884
1.22305
3.88305
1.38674
3.85193
1.61719
3.82959
1.65071
4.17959
0.90445
4.15898
1.00163
4.13731
1.11235
4.11396
1.2464
4.08783
1.41286
4.05601
1.649
4.03387
1.67285
4.39767
0.925135
4.37629
1.023
4.35418
1.13446
4.33013
1.27045
4.30349
1.43951
4.27104
1.68145
4.24867
1.69522
4.62747
0.946611
4.6054
1.04507
4.58258
1.15728
4.558
1.29503
4.53082
1.46669
4.49755
1.71472
4.47502
1.71775
4.86987
0.968911
4.84707
1.06788
4.82348
1.18087
4.79823
1.32028
4.77026
1.49466
4.73611
1.74888
4.71338
1.74047
5.12547
0.992084
5.10188
1.09146
5.07735
1.2054
5.05149
1.34614
5.02261
1.52354
4.98751
1.78397
4.96441
1.76357
5.39502
1.01644
5.37036
1.11612
5.34509
1.23067
5.3182
1.37303
5.28856
1.55317
5.25235
1.82018
5.22882
1.78711
5.67941
1.04161
5.65376
1.14177
5.62758
1.25685
5.59969
1.40092
5.56903
1.58384
5.53138
1.85783
5.50752
1.81097
6.00555
0.974804
5.97911
1.06805
5.95242
1.16847
5.92502
1.28425
5.89625
1.42968
5.86435
1.61574
5.82555
1.89663
5.80104
1.83548
6.32304
1.00205
6.29542
1.09567
6.26749
1.1964
6.23909
1.31265
6.20897
1.4598
6.17604
1.64867
6.13555
1.93712
6.11033
1.8607
6.65781
1.03074
6.62884
1.12465
6.59978
1.22546
6.57004
1.34239
6.53867
1.49117
6.50439
1.68296
6.46238
1.97913
6.43651
1.88657
7.01143
1.06066
6.98117
1.1549
6.95001
1.25662
6.91876
1.37364
6.88634
1.52358
6.85037
1.71893
6.80691
2.02258
6.78011
1.91336
7.38315
1.09342
7.35145
1.18661
7.32062
1.28746
7.2877
1.40656
7.25338
1.5579
7.21568
1.75663
7.17017
2.06809
7.14212
1.94142
7.7774
1.12567
7.7437
1.22031
7.70964
1.32151
7.67619
1.44001
7.64007
1.59402
7.60189
1.79481
7.55326
2.11673
7.52493
1.96974
5.71878
1.11687
5.73075
1.20834
5.74706
1.3052
5.7687
1.41838
5.79506
1.56766
5.8255
1.76437
5.86472
2.0775
5.89536
1.93911
6.27452
1.02478
6.28325
1.10814
6.29656
1.19503
6.31553
1.28622
6.33853
1.39538
6.36625
1.53995
6.40183
1.72879
6.44332
2.03601
6.47688
1.90554
6.89462
1.02097
6.9032
1.09956
6.91899
1.17923
6.93922
1.266
6.96478
1.36982
6.99633
1.5084
7.03302
1.6921
7.08054
1.98849
7.11691
1.86918
7.57515
1.01626
7.58601
1.08871
7.60157
1.16367
7.62422
1.24334
7.65226
1.34179
7.68617
1.47448
7.72906
1.64921
7.77847
1.93907
7.82141
1.82625
8.32263
1.01209
8.33433
1.07701
8.35344
1.14456
8.37707
1.21972
8.40738
1.31148
8.44619
1.43566
8.49251
1.60289
8.54899
1.8826
8.59336
1.78188
9.14534
1.00741
9.15768
1.06467
9.17751
1.12474
9.20454
1.19269
9.23832
1.2777
9.28053
1.39345
9.33007
1.55335
9.39307
1.8196
9.44214
1.7328
10.0486
1.00096
10.0628
1.0505
10.0845
1.10299
10.1149
1.16238
10.1532
1.23934
10.1987
1.34801
10.254
1.49804
10.3227
1.75084
10.3775
1.67798
11.0397
0.994529
11.0554
1.03487
11.0787
1.07966
11.1108
1.13032
11.1522
1.1979
11.2032
1.29698
11.265
1.43625
11.3388
1.67706
11.3993
1.61746
12.1367
0.987766
12.1527
1.01888
12.1803
1.05202
12.2167
1.09398
12.2624
1.15213
12.3178
1.24161
12.3856
1.36848
12.4707
1.5919
12.539
1.54914
13.3243
0.979447
13.3435
0.999677
13.3721
1.02346
13.4122
1.05387
13.4618
1.10254
13.5232
1.18015
13.5958
1.29594
13.6837
1.50399
13.7546
1.4782
14.6593
0.590491
14.6686
0.970121
14.69
0.97833
14.7245
0.988971
14.7678
1.01052
14.8233
1.04704
14.8926
1.11089
14.9788
1.20973
15.0861
1.39671
15.1739
1.39041
16.0605
0.539367
16.0685
0.962172
16.0906
0.956175
16.1239
0.955759
16.1715
0.962885
16.2326
0.985966
16.3049
1.03865
16.39
1.1246
16.4888
1.29793
16.5692
1.30997
17.7654
17.7825
17.8137
17.8596
17.9185
17.9912
18.0812
18.1927
18.3393
18.4566
0.0937577
0.140215
0.0503806
0.123244
0.0238556
0.12353
0.00860037
0.138855
0.000408073
0.164407
-0.00317318
0.196669
-0.0042564
0.233161
-0.00609661
0.270845
-0.0117244
0.304968
-0.0208882
0.331226
-0.0302583
0.35078
-0.0377305
0.36955
-0.0430309
0.390636
-0.0463727
0.414031
-0.0479256
0.439129
-0.0478382
0.465644
-0.0462257
0.493629
-0.0432072
0.523253
-0.0388857
0.554675
-0.0333887
0.587994
-0.0268241
0.623321
-0.0192953
0.660691
-0.0109052
0.700235
-0.00174408
0.74203
0.00813959
0.786174
0.0187053
0.832743
0.0298698
0.881923
0.0415573
0.933841
0.0536994
0.988427
0.0662415
1.04622
0.0791264
1.10694
0.0923055
1.17083
0.105731
1.23838
0.119357
1.30931
0.133132
1.38398
0.14701
1.46262
0.160937
1.54532
0.174863
1.63233
0.188732
1.72373
0.202492
1.81987
0.216084
1.92097
0.229479
2.02739
0.242605
2.13909
0.255423
2.25654
0.267889
2.38011
0.279966
2.51
0.291618
2.64642
0.302817
2.79002
0.313538
2.94085
0.323764
3.09969
0.333468
3.26662
0.342679
3.44223
0.351358
3.62707
0.359518
3.82143
0.367162
4.02623
0.374302
4.24153
0.380949
4.46837
0.387118
4.70722
0.392826
4.9587
0.398076
5.22357
0.40293
5.50266
0.407364
5.79661
0.411416
6.10628
0.415107
6.43282
0.41846
6.77676
0.421493
7.13909
0.424231
7.52219
0.426081
5.89351
0.427874
6.47509
0.429566
7.11521
0.431218
7.81976
0.432687
8.59189
0.434109
9.44072
0.435303
10.3763
0.436352
11.3983
0.437403
12.538
0.437486
13.7545
0.439379
15.172
0.436331
16.5723
0.144088
0.17094
0.107819
0.159503
0.0779302
0.153423
0.0589492
0.157828
0.0500922
0.17327
0.0490909
0.197664
0.0538707
0.228387
0.0619758
0.262734
0.0698944
0.297056
0.0742618
0.326852
0.0751427
0.349906
0.0748679
0.369819
0.0744783
0.391032
0.0738766
0.414627
0.0730659
0.439946
0.0721788
0.466526
0.0714209
0.494393
0.0709419
0.523729
0.0709031
0.554718
0.0714046
0.58749
0.0725511
0.622178
0.0744143
0.658826
0.0770508
0.697601
0.0805047
0.738576
0.0847735
0.781907
0.0898448
0.827672
0.095715
0.876054
0.102372
0.927184
0.109774
0.981026
0.117894
1.0381
0.126676
1.09816
0.136067
1.16144
0.146009
1.22844
0.156444
1.29887
0.167307
1.37311
0.178544
1.45138
0.190072
1.53379
0.201844
1.62056
0.213791
1.71178
0.225855
1.80781
0.23796
1.90887
0.250044
2.01531
0.262061
2.12707
0.273948
2.24465
0.285647
2.36841
0.29711
2.49853
0.308289
2.63524
0.319143
2.77916
0.329635
2.93036
0.339733
3.0896
0.349422
3.25693
0.358648
3.43301
0.36743
3.61828
0.375747
3.81312
0.383592
4.01838
0.390966
4.23416
0.397873
4.46146
0.40432
4.70077
0.410316
4.9527
0.415888
5.218
0.421021
5.49753
0.425732
5.7919
0.430066
6.10195
0.43403
6.42886
0.437644
6.77314
0.440926
7.13581
0.443897
7.51922
0.445913
5.89149
0.44787
6.47313
0.449756
7.11333
0.451543
7.81797
0.453198
8.59023
0.454747
9.43917
0.456081
10.375
0.45729
11.3971
0.45845
12.5368
0.458669
13.7543
0.460656
15.17
0.191163
0.189322
0.165708
0.184949
0.138978
0.180156
0.117298
0.1795
0.104038
0.186533
0.0992269
0.202466
0.101236
0.226381
0.107712
0.25625
0.115558
0.289213
0.120941
0.32146
0.121958
0.348893
0.120742
0.371025
0.120014
0.391764
0.120244
0.414388
0.120965
0.43923
0.121853
0.46563
0.122936
0.493314
0.124236
0.522423
0.125778
0.55318
0.127565
0.585699
0.129628
0.62012
0.131964
0.656487
0.134635
0.694933
0.137652
0.735557
0.141079
0.778482
0.14493
0.823819
0.149268
0.871717
0.154102
0.922348
0.159481
0.975647
0.165404
1.03218
0.171895
1.09167
0.178945
1.15439
0.18655
1.22083
0.194676
1.29075
0.203299
1.36449
0.212375
1.4423
0.221871
1.5243
0.231733
1.6107
0.241905
1.70161
0.252333
1.79738
0.262956
1.89824
0.273724
2.00454
0.284561
2.11624
0.295404
2.23381
0.306213
2.3576
0.316934
2.48781
0.327494
2.62468
0.337852
2.7688
0.347964
2.92025
0.357775
3.07978
0.367274
3.24743
0.376418
3.42386
0.385181
3.60952
0.393556
3.80474
0.401503
4.01043
0.409023
4.22664
0.416113
4.45437
0.422757
4.69412
0.428986
4.94648
0.43479
5.2122
0.440179
5.49214
0.445176
5.7869
0.449755
6.09737
0.453974
6.42464
0.457836
6.76928
0.461372
7.13227
0.464557
7.51604
0.466736
5.88931
0.468858
6.47101
0.470896
7.11129
0.472856
7.81601
0.474668
8.58842
0.476369
9.43747
0.477907
10.3735
0.479165
11.3958
0.480583
12.5354
0.480813
13.7541
0.233926
0.200727
0.217678
0.20118
0.198168
0.199662
0.179071
0.198584
0.164596
0.201008
0.157356
0.209696
0.157701
0.226039
0.164169
0.249774
0.174149
0.279237
0.183849
0.311752
0.18924
0.343508
0.189229
0.371029
0.1867
0.394299
0.184455
0.416626
0.183077
0.440614
0.18213
0.466571
0.181423
0.494027
0.181005
0.522836
0.180999
0.553191
0.181403
0.58529
0.182255
0.619272
0.183529
0.65521
0.185237
0.693228
0.187367
0.733426
0.189929
0.775923
0.192921
0.820826
0.196338
0.868302
0.200196
0.918491
0.204499
0.971346
0.209257
1.02742
0.214459
1.08647
0.220127
1.14872
0.22626
1.2147
0.232852
1.28415
0.239896
1.35744
0.247379
1.43482
0.25528
1.5164
0.263574
1.60241
0.272227
1.69296
0.281201
1.78841
0.290453
1.88899
0.299935
1.99506
0.309597
2.10657
0.319386
2.22402
0.329247
2.34774
0.339126
2.47793
0.348968
2.61484
0.358724
2.75905
0.368341
2.91063
0.377785
3.07034
0.386979
3.23824
0.395919
3.41492
0.404572
3.60087
0.412871
3.79644
0.42083
4.00247
0.428417
4.21905
0.435619
4.44717
0.44244
4.6873
0.448835
4.94008
0.454843
5.20619
0.460451
5.48653
0.465666
5.78169
0.47051
6.09252
0.474952
6.4202
0.479051
6.76518
0.482804
7.12852
0.48623
7.51261
0.488573
5.88697
0.49086
6.46872
0.493068
7.10908
0.495194
7.81389
0.497179
8.58644
0.499047
9.4356
0.500737
10.3718
0.502131
11.3944
0.503747
12.5338
0.27647
0.20878
0.264778
0.212871
0.249714
0.214731
0.232869
0.215427
0.217109
0.216772
0.205659
0.221143
0.200829
0.230871
0.20314
0.24746
0.211421
0.270958
0.223052
0.300117
0.234126
0.332437
0.240846
0.364304
0.242417
0.392729
0.241379
0.417659
0.240264
0.441733
0.239678
0.467152
0.239296
0.494412
0.238875
0.523253
0.238523
0.553546
0.238336
0.585474
0.238388
0.619223
0.238695
0.6549
0.239301
0.692626
0.240225
0.732499
0.241511
0.774639
0.243175
0.81916
0.245247
0.866232
0.24774
0.915997
0.250672
0.968414
0.25405
1.02404
0.257882
1.08264
0.26217
1.14443
0.266915
1.20996
0.272113
1.27896
0.277758
1.3518
0.283841
1.42874
0.290348
1.50989
0.297263
1.59549
0.304571
1.68565
0.31222
1.78076
0.320203
1.88101
0.328479
1.98678
0.337005
2.09805
0.345739
2.21529
0.354633
2.33884
0.363639
2.46893
0.372705
2.60578
0.381783
2.74997
0.390822
2.90159
0.399774
3.06139
0.408591
3.22942
0.417231
3.40628
0.425655
3.59244
0.433825
3.78827
0.441712
3.99459
0.449288
4.21147
0.456531
4.43993
0.463426
4.68041
0.469959
4.93355
0.476122
5.20003
0.481911
5.48075
0.487323
5.77627
0.492362
6.08748
0.497036
6.41552
0.501356
6.76086
0.505331
7.12454
0.508989
7.50895
0.511477
5.88448
0.513945
6.46626
0.516307
7.10672
0.518602
7.81159
0.520763
8.58428
0.522781
9.43358
0.52466
10.3699
0.526213
0.318612
0.214216
0.310083
0.221397
0.298389
0.226427
0.284106
0.229707
0.268737
0.232143
0.254613
0.235264
0.244487
0.240999
0.240451
0.251493
0.243212
0.268199
0.25179
0.291536
0.263708
0.320521
0.275141
0.352868
0.282609
0.385264
0.285265
0.414998
0.285244
0.441756
0.284873
0.467519
0.284926
0.494361
0.285192
0.522984
0.285457
0.553283
0.285741
0.585186
0.28612
0.618847
0.286644
0.654373
0.287326
0.691946
0.288183
0.73164
0.289225
0.773599
0.290498
0.817886
0.292031
0.864701
0.293848
0.91418
0.295982
0.966282
0.298456
1.02157
0.301305
1.07979
0.304529
1.14121
0.308146
1.20634
0.312183
1.27492
0.316638
1.34734
0.321514
1.42386
0.326815
1.50459
0.332517
1.58979
0.338606
1.67956
0.345083
1.77428
0.351915
1.87418
0.359079
1.97962
0.366541
2.09058
0.374278
2.20755
0.38223
2.33089
0.390354
2.4608
0.398627
2.5975
0.406993
2.7416
0.415404
2.89318
0.423813
3.05298
0.432184
3.22105
0.440449
3.39802
0.448565
3.58433
0.456517
3.78032
0.464254
3.98685
0.471745
4.20398
0.47896
4.43271
0.485878
4.67349
0.492492
4.92693
0.498759
5.19376
0.504669
5.47484
0.510241
5.7707
0.515458
6.08227
0.520338
6.41064
0.524858
6.75634
0.529023
7.12038
0.532874
7.5051
0.535545
5.88181
0.538144
6.46366
0.540688
7.10418
0.543167
7.80911
0.545504
8.58194
0.547677
0.359895
0.217217
0.354296
0.226991
0.345713
0.235011
0.33426
0.241157
0.320643
0.245762
0.30624
0.249663
0.293152
0.25409
0.283785
0.260856
0.280152
0.271833
0.283038
0.288646
0.291676
0.311886
0.303669
0.340872
0.315428
0.373507
0.323588
0.406836
0.327143
0.438204
0.327742
0.466917
0.327625
0.49448
0.327795
0.52281
0.32822
0.552861
0.328681
0.584723
0.329176
0.618355
0.32977
0.653777
0.330511
0.691207
0.331395
0.730755
0.332435
0.772561
0.333642
0.816678
0.335042
0.863303
0.336651
0.91257
0.338494
0.96444
0.34059
1.01947
0.342961
1.07742
0.345626
1.13854
0.348607
1.20336
0.35192
1.27161
0.355581
1.34368
0.359602
1.41984
0.363992
1.5002
0.368755
1.58503
0.373888
1.67443
0.379387
1.76878
0.385241
1.86832
0.391436
1.97343
0.39795
2.08407
0.40476
2.20074
0.411834
2.32382
0.419139
2.4535
0.426638
2.59
0.434291
2.73395
0.442057
2.88542
0.449891
3.04515
0.457749
3.21319
0.465586
3.39018
0.47336
3.57655
0.481028
3.77265
0.48855
3.97933
0.495889
4.19664
0.503013
4.42559
0.509893
4.66661
0.516504
4.92032
0.522823
5.18744
0.528835
5.46882
0.534525
5.76501
0.539886
6.07691
0.544913
6.40561
0.549609
6.75165
0.553975
7.11601
0.558017
7.50106
0.560821
5.87901
0.563588
6.46089
0.566309
0.568925
0.400639
0.21837
0.397716
0.229886
0.392135
0.240577
0.383515
0.249761
0.37205
0.25722
0.358569
0.263132
0.344461
0.268196
0.331693
0.273616
0.322559
0.280968
0.319025
0.292174
0.321981
0.308931
0.330738
0.33211
0.343012
0.361235
0.355337
0.394508
0.364435
0.429108
0.368965
0.462384
0.37021
0.493237
0.370336
0.522682
0.370591
0.552607
0.371137
0.584175
0.37177
0.617724
0.372395
0.653151
0.373084
0.69052
0.373875
0.729962
0.374816
0.771622
0.375872
0.815622
0.377099
0.862078
0.378486
0.911183
0.380067
0.96286
0.381849
1.01769
0.383871
1.0754
0.386138
1.13628
0.388679
1.20082
0.391489
1.2688
0.394594
1.34058
0.398006
1.41643
0.401726
1.49648
0.405784
1.58097
0.410173
1.67004
0.414908
1.76405
0.419964
1.86326
0.425348
1.96804
0.431048
2.07837
0.43704
2.19475
0.443324
2.31753
0.449875
2.44695
0.456644
2.58323
0.463611
2.72698
0.470739
2.87829
0.477978
3.03791
0.485311
3.20586
0.492686
3.38281
0.500062
3.56918
0.507409
3.7653
0.514662
3.97207
0.521794
4.18951
0.528769
4.41861
0.535541
4.65984
0.542107
4.91376
0.548429
5.18112
0.554496
5.46276
0.560263
5.75925
0.565715
6.07145
0.570872
6.40046
0.575717
6.7468
0.58026
7.11147
0.584463
0.587402
0.441744
0.218671
0.440832
0.230826
0.438197
0.243232
0.432857
0.255121
0.424466
0.265621
0.413231
0.27438
0.399849
0.281582
0.385599
0.287876
0.372335
0.294234
0.362365
0.302151
0.357807
0.31349
0.359917
0.330004
0.368269
0.352884
0.380748
0.382032
0.393856
0.415999
0.404145
0.452097
0.409868
0.487515
0.41181
0.520741
0.412165
0.552252
0.412488
0.583852
0.413191
0.617021
0.414057
0.652285
0.414921
0.689655
0.415794
0.729089
0.416738
0.770678
0.417793
0.814566
0.41894
0.860931
0.420217
0.909905
0.421635
0.961443
0.423223
1.0161
0.424972
1.07365
0.426941
1.13431
0.429106
1.19865
0.431515
1.26639
0.434173
1.33792
0.437096
1.41351
0.440295
1.49328
0.443794
1.57747
0.447579
1.66625
0.451657
1.75997
0.45605
1.85887
0.46075
1.96334
0.465752
2.07337
0.47105
2.18945
0.476631
2.31195
0.48248
2.4411
0.488574
2.57714
0.494892
2.72067
0.501405
2.87178
0.508093
3.03122
0.514885
3.19907
0.521793
3.3759
0.528744
3.56223
0.535697
3.75835
0.542638
3.96513
0.549515
4.18264
0.556291
4.41184
0.562944
4.65318
0.569416
4.90728
0.575677
5.17485
0.581726
5.45671
0.587527
5.75344
0.593074
0.598313
0.603276
0.481914
0.218815
0.481716
0.231036
0.480985
0.24396
0.478973
0.257144
0.474885
0.269704
0.468155
0.281121
0.458565
0.291168
0.446381
0.300068
0.432467
0.308144
0.418443
0.316182
0.406623
0.325307
0.3995
0.337132
0.398977
0.353405
0.405391
0.37562
0.417121
0.404268
0.430807
0.438413
0.442545
0.475775
0.449865
0.513423
0.452858
0.549258
0.453554
0.583158
0.453896
0.616678
0.454694
0.651488
0.455779
0.688569
0.456933
0.727936
0.458036
0.769574
0.459172
0.813431
0.460378
0.859723
0.461677
0.908607
0.463073
0.960046
0.464581
1.01459
0.466229
1.072
0.468007
1.13253
0.469962
1.1967
0.472102
1.26425
0.474442
1.33558
0.477001
1.41095
0.479804
1.49047
0.482832
1.57444
0.486128
1.66296
0.489694
1.75641
0.493534
1.85503
0.497656
1.95922
0.502061
2.06896
0.506758
2.18476
0.51172
2.30699
0.516937
2.43588
0.522417
2.57166
0.528133
2.71495
0.534065
2.86585
0.540187
3.0251
0.546483
3.19277
0.552885
3.3695
0.559396
3.55572
0.56597
3.75178
0.572568
3.95854
0.579153
4.17605
0.585689
4.4053
0.59214
0.598472
0.604668
0.610654
0.521016
0.219095
0.520809
0.231243
0.52071
0.244058
0.520562
0.257294
0.519747
0.270517
0.517499
0.283372
0.513031
0.295634
0.505848
0.307253
0.495804
0.318186
0.483353
0.328635
0.469646
0.339013
0.456666
0.350113
0.446967
0.363102
0.443002
0.379585
0.446074
0.401196
0.455549
0.428939
0.468682
0.462641
0.481475
0.50063
0.490533
0.540198
0.494903
0.578788
0.496145
0.615434
0.49647
0.651163
0.497172
0.687866
0.498319
0.726789
0.499644
0.768248
0.500929
0.812145
0.502189
0.858462
0.50349
0.907305
0.504869
0.958666
0.506337
1.01312
0.507889
1.07044
0.509566
1.13085
0.511382
1.19488
0.513337
1.26229
0.515453
1.33346
0.517749
1.40865
0.520226
1.488
0.522923
1.57175
0.525841
1.66004
0.529003
1.75324
0.532397
1.85164
0.536042
1.95558
0.539944
2.06506
0.544097
2.1806
0.548521
2.30257
0.553214
2.43119
0.558144
2.56673
0.563314
2.70978
0.568707
2.86045
0.574307
3.0195
0.580078
0.586018
0.592102
0.598272
0.604509
0.610776
0.561752
0.219368
0.561492
0.231491
0.561384
0.244161
0.561416
0.257254
0.561349
0.270583
0.560675
0.284041
0.558886
0.297424
0.555417
0.310718
0.549835
0.323769
0.54185
0.336617
0.53157
0.349296
0.519616
0.362065
0.507347
0.375373
0.496823
0.390108
0.490505
0.407515
0.49036
0.429084
0.496852
0.456151
0.508305
0.489176
0.521212
0.527293
0.531715
0.568285
0.537702
0.60945
0.539843
0.649022
0.54032
0.687391
0.540864
0.726245
0.541935
0.767178
0.543322
0.810759
0.544725
0.85706
0.546073
0.905958
0.547425
0.957315
0.54884
1.01171
0.550352
1.06893
0.551942
1.12926
0.553622
1.1932
0.555431
1.26048
0.557374
1.33152
0.559465
1.40656
0.561731
1.48573
0.564162
1.56932
0.566781
0.569592
0.572626
0.575883
0.579371
0.583108
0.587074
0.59127
0.595716
0.600395
0.605299
0.605705
0.60551
0.605253
0.604916
0.604333
0.603379
0.601786
0.599299
0.595618
0.590492
0.583698
0.575198
0.565274
0.554722
0.544983
0.538006
0.535851
0.539715
0.549037
0.561277
0.572689
0.580315
0.583763
0.584729
0.585243
0.586217
0.587658
0.589194
0.590667
0.592093
0.59357
0.595124
0.596775
0.598504
0.600336
0.602289
0.604363
)
;

boundaryField
{
    inlet
    {
        type            calculated;
        value           nonuniform List<scalar> 
11
(
0.480846
0.945123
0.924934
0.909876
0.903976
0.913283
0.948697
1.01309
1.15142
1.1926
0.440811
)
;
    }
    outlet
    {
        type            calculated;
        value           nonuniform List<scalar> 0();
    }
    walls
    {
        type            calculated;
        value           uniform 0;
    }
    frontAndBack
    {
        type            empty;
    }
    procBoundary6to2
    {
        type            processor;
        value           nonuniform List<scalar> 
13
(
-0.160364
-0.1748
-0.209533
-0.245341
-0.284503
-0.32404
-0.362895
-0.401848
-0.441974
-0.482052
-0.521296
-0.562053
-0.605859
)
;
    }
    procBoundary6to3
    {
        type            processor;
        value           uniform 0.21955;
    }
    procBoundary6to5
    {
        type            processor;
        value           nonuniform List<scalar> 
86
(
-0.13682
-0.178784
-0.223509
-0.275267
-0.323681
-0.350611
-0.360891
-0.373065
-0.392334
-0.415052
-0.438486
-0.462405
-0.487284
-0.513502
-0.541131
-0.570223
-0.600837
-0.632983
-0.666799
-0.702345
-0.739682
-0.778916
-0.82011
-0.863465
-0.908908
-0.956768
-1.00673
-1.05947
-1.11481
-1.17286
-1.23373
-1.2978
-1.36489
-0.652252
-1.45856
-1.53226
-1.60996
-1.69135
-1.77696
-1.8669
-1.96157
-2.06108
-2.16568
-2.2759
-2.39184
-2.51377
-0.812083
-2.66046
-2.79591
-2.93867
-3.08898
-3.24777
-3.41487
-3.59106
-3.77698
-3.97312
-0.884379
-4.19966
-4.41836
-4.64894
-4.89217
-5.14864
-5.41938
-5.70458
-0.948703
-6.03165
-6.35028
-6.68651
-7.04135
-7.41591
-7.80965
-5.70998
-1.02884
-6.27046
-6.89081
-7.57044
-8.31847
-9.14066
-10.0422
-11.0333
-12.1299
-13.316
-0.639383
-14.6104
-16.0094
-17.7069
)
;
    }
    procBoundary6to7
    {
        type            processor;
        value           nonuniform List<scalar> 
91
(
18.4522
0.457971
16.575
0.483101
15.1677
0.504068
13.7537
11.3929
0.527987
12.532
9.43141
0.549734
10.3678
7.10146
7.8065
0.571438
8.57943
7.49685
5.87607
0.590315
6.45798
6.06591
6.39522
6.74184
0.607944
7.1068
4.64673
4.90095
5.16866
5.45072
0.616447
5.74765
3.187
3.36356
3.54963
3.74561
3.9523
4.16978
0.617041
4.39904
1.65742
1.75043
1.8486
1.95232
2.06157
2.17687
2.2986
2.42699
2.56228
2.7051
2.85555
0.610415
3.01438
0.231696
0.244424
0.257597
0.271168
0.284998
0.299018
0.313207
0.32745
0.341744
0.356089
0.370565
0.385295
0.40066
0.417253
0.43606
0.458305
0.485312
0.51797
0.556044
0.598037
0.641394
0.683942
0.725279
0.766664
0.809785
0.855619
0.904422
0.955842
1.01028
1.06746
1.12771
1.19155
1.25876
1.32969
1.40461
1.48365
0.606598
1.56708
)
;
    }
}


// ************************************************************************* //
