/*--------------------------------*- C++ -*----------------------------------*\
| =========                 |                                                 |
| \\      /  F ield         | OpenFOAM: The Open Source CFD Toolbox           |
|  \\    /   O peration     | Version:  2506                                  |
|   \\  /    A nd           | Website:  www.openfoam.com                      |
|    \\/     M anipulation  |                                                 |
\*---------------------------------------------------------------------------*/
FoamFile
{
    version     2.0;
    format      ascii;
    arch        "LSB;label=32;scalar=64";
    class       volScalarField;
    location    "28";
    object      p;
}
// * * * * * * * * * * * * * * * * * * * * * * * * * * * * * * * * * * * * * //

dimensions      [0 2 -2 0 0 0 0];

internalField   nonuniform List<scalar> 
400
(
2.66381e-08
-0.000144507
-0.000504096
-0.00100969
-0.00163292
-0.00234641
-0.00299828
-0.00338805
-0.00334741
-0.00272705
-0.00138576
0.000700882
0.00324523
0.00546766
0.00652949
0.00604381
0.00426881
0.00250804
0.00149053
0.00140739
0.000117301
-4.7983e-05
-0.000345069
-0.000713216
-0.00117098
-0.00177509
-0.00253213
-0.00330218
-0.0037895
-0.00363984
-0.00259105
-0.000650411
0.00177746
0.00400381
0.00520053
0.00492639
0.00342832
0.00176705
0.000996042
0.00106222
0.000505526
0.000257318
-6.07576e-05
-0.000514424
-0.00124839
-0.00238876
-0.00390228
-0.00553627
-0.00685555
-0.00736221
-0.00672017
-0.00499578
-0.00252252
9.66489e-05
0.00206064
0.00273653
0.00209481
0.000933002
4.29834e-05
2.02523e-05
0.00105884
0.000677908
0.000178457
-0.00070674
-0.00224381
-0.00453402
-0.00736866
-0.0102853
-0.0127134
-0.0141145
-0.0141576
-0.0128663
-0.0104425
-0.00731419
-0.00415305
-0.00168725
-0.000391705
-0.000252697
-0.000840999
-0.00147191
0.00139883
0.000844348
-4.82798e-05
-0.00176899
-0.00458586
-0.00843634
-0.0128461
-0.0171354
-0.020673
-0.0230026
-0.023865
-0.023141
-0.0209332
-0.0175042
-0.0132697
-0.00882108
-0.00493977
-0.00243847
-0.00175812
-0.00352896
0.00106299
0.00029531
-0.0011713
-0.00397985
-0.00828037
-0.0137215
-0.0195172
-0.0248428
-0.0290983
-0.0319654
-0.0333142
-0.0330468
-0.0312227
-0.0279699
-0.0234128
-0.0177603
-0.0115998
-0.00630743
-0.0039068
-0.0059835
-0.000244214
-0.00123792
-0.00334067
-0.00723188
-0.0128588
-0.0195317
-0.0262171
-0.0320505
-0.0365363
-0.0395083
-0.0409723
-0.0409487
-0.0394906
-0.0366519
-0.0323942
-0.0265866
-0.0193356
-0.0118572
-0.00726328
-0.00727092
-0.00252284
-0.00369152
-0.00634196
-0.0110719
-0.0176206
-0.0250135
-0.032078
-0.0379976
-0.0424148
-0.0452898
-0.0467134
-0.0467819
-0.045569
-0.0431101
-0.0393388
-0.0339992
-0.026812
-0.0182784
-0.0111125
-0.00753054
-0.00542812
-0.00667523
-0.00968493
-0.014913
-0.0219356
-0.0295993
-0.0366905
-0.0424799
-0.0467286
-0.0494759
-0.0508491
-0.0509584
-0.0498768
-0.0476521
-0.044277
-0.0395652
-0.0330683
-0.0245976
-0.0157912
-0.00940116
-0.00843808
-0.00965928
-0.0128196
-0.0182162
-0.0253349
-0.032962
-0.0399083
-0.0455205
-0.0496288
-0.0523003
-0.0536592
-0.0537957
-0.0527708
-0.0506481
-0.0474935
-0.043268
-0.0376136
-0.0299575
-0.0211657
-0.0134817
-0.0110674
-0.0121911
-0.0153039
-0.0205953
-0.0275275
-0.034936
-0.0416904
-0.04717
-0.0512149
-0.0538751
-0.0552509
-0.0554079
-0.0543925
-0.0522748
-0.0491836
-0.0452253
-0.0402917
-0.0336921
-0.02588
-0.018101
-0.0130391
-0.0139825
-0.0168868
-0.0218275
-0.0283428
-0.0354075
-0.0419759
-0.0474103
-0.0514889
-0.0542098
-0.0556332
-0.055804
-0.0547577
-0.0525674
-0.0494115
-0.0455158
-0.0410805
-0.0353739
-0.0286822
-0.0212514
-0.0143144
-0.0149413
-0.0174239
-0.0218052
-0.0277215
-0.0343513
-0.040748
-0.046221
-0.0504321
-0.0532884
-0.0547957
-0.0549761
-0.0538599
-0.051538
-0.0482163
-0.0441858
-0.0400016
-0.0347807
-0.028992
-0.0218121
-0.014972
-0.0151664
-0.016976
-0.0205306
-0.0256557
-0.0317611
-0.0379885
-0.0435665
-0.0480073
-0.051089
-0.0527408
-0.0529534
-0.0517491
-0.0492354
-0.0456625
-0.0414053
-0.0370871
-0.0319439
-0.0271114
-0.0194631
-0.015127
-0.0148469
-0.0157272
-0.0181541
-0.0222709
-0.0277437
-0.0337853
-0.0395193
-0.0442814
-0.0476881
-0.0495658
-0.0498538
-0.0485785
-0.0458352
-0.0419361
-0.0373035
-0.0325912
-0.0273389
-0.0236541
-0.0140208
-0.014899
-0.014215
-0.0138745
-0.0148423
-0.0177484
-0.0224899
-0.0283257
-0.0342526
-0.0394166
-0.0432519
-0.0454627
-0.0459205
-0.0446442
-0.0416982
-0.0374327
-0.0322881
-0.0270007
-0.0214571
-0.018159
-0.00405426
-0.0143775
-0.0134058
-0.0115664
-0.0108959
-0.0125245
-0.016529
-0.0221768
-0.0283248
-0.0339488
-0.0383035
-0.0409675
-0.0417188
-0.0405474
-0.0374942
-0.0328546
-0.0270032
-0.0206512
-0.0137985
-0.00770529
0.0152015
-0.0144374
-0.0125843
-0.00875691
-0.00645072
-0.00698398
-0.0104433
-0.0160102
-0.0224168
-0.0285373
-0.0334752
-0.0367067
-0.0378945
-0.03698
-0.0339586
-0.028979
-0.0220658
-0.0134279
-0.00192509
0.015039
0.055645
-0.0117919
-0.0119388
-0.00613701
-0.00236373
-0.00224669
-0.00553327
-0.0111972
-0.0178989
-0.0244874
-0.0299635
-0.0337737
-0.0354956
-0.0350309
-0.0321109
-0.0265854
-0.017648
-0.0040792
0.0188256
0.0587137
0.128143
-0.0294957
-0.0108706
-0.00119445
0.00232048
0.00178554
-0.00187357
-0.00781086
-0.0148181
-0.0217526
-0.0275923
-0.0317616
-0.033819
-0.0336288
-0.0307737
-0.0246068
-0.0129467
0.00851455
0.0495888
0.121072
0.224525
)
;

boundaryField
{
    movingWall
    {
        type            zeroGradient;
    }
    fixedWalls
    {
        type            zeroGradient;
    }
    frontAndBack
    {
        type            empty;
    }
}


// ************************************************************************* //
