/*--------------------------------*- C++ -*----------------------------------*\
| =========                 |                                                 |
| \\      /  F ield         | OpenFOAM: The Open Source CFD Toolbox           |
|  \\    /   O peration     | Version:  2506                                  |
|   \\  /    A nd           | Website:  www.openfoam.com                      |
|    \\/     M anipulation  |                                                 |
\*---------------------------------------------------------------------------*/
FoamFile
{
    version     2.0;
    format      ascii;
    arch        "LSB;label=32;scalar=64";
    class       surfaceScalarField;
    location    "28";
    object      phi;
}
// * * * * * * * * * * * * * * * * * * * * * * * * * * * * * * * * * * * * * //

dimensions      [0 3 -1 0 0 0 0];

oriented        oriented;

internalField   nonuniform List<scalar> 
760
(
1.40765e-05
-1.40767e-05
2.61394e-05
-1.20629e-05
2.70828e-05
-9.43383e-07
1.46809e-05
1.24019e-05
-1.45178e-05
2.91987e-05
-6.63728e-05
5.1855e-05
-0.000143916
7.75433e-05
-0.000239497
9.55805e-05
-0.00033453
9.50332e-05
-0.000406837
7.23073e-05
-0.000439764
3.29267e-05
-0.000423735
-1.60282e-05
-0.0003524
-7.13354e-05
-0.000236421
-0.000115979
-9.78129e-05
-0.000138608
2.7243e-05
-0.000125056
0.000101078
-7.38348e-05
9.80849e-05
2.99287e-06
4.4164e-05
5.3921e-05
4.4164e-05
1.00822e-05
-2.41589e-05
3.31852e-06
-5.29912e-06
-3.28925e-05
3.52677e-05
-0.000107289
8.67986e-05
-0.000224423
0.000146332
-0.000377481
0.000204914
-0.000543786
0.000243848
-0.00069375
0.000245545
-0.000804982
0.000206265
-0.00086595
0.000133275
-0.00087164
3.86171e-05
-0.000819348
-6.83205e-05
-0.00071211
-0.000178573
-0.000552924
-0.000275165
-0.000355634
-0.000335898
-0.000149754
-0.000330936
1.30519e-05
-0.000236641
8.11386e-05
-6.50937e-05
5.04661e-05
8.45935e-05
9.46301e-05
-1.41262e-05
-1.00327e-05
-6.37177e-05
4.42924e-05
-0.000158231
0.000129781
-0.000301971
0.000230539
-0.000484384
0.000328745
-0.000678269
0.000398799
-0.000853437
0.000419016
-0.000991455
0.000383563
-0.00108634
0.000301152
-0.00113696
0.000183889
-0.00113872
4.03834e-05
-0.00109553
-0.000111516
-0.00100604
-0.000268064
-0.000864913
-0.000416289
-0.00067006
-0.000530751
-0.000430292
-0.000570704
-0.000184439
-0.000482495
-9.59635e-06
-0.000239936
2.87245e-05
4.62726e-05
0.000123355
-4.84089e-05
3.83762e-05
-0.000149793
0.000145677
-0.000297928
0.000277916
-0.000484919
0.00041753
-0.000687324
0.00053115
-0.000875947
0.000587421
-0.00103039
0.000573456
-0.00114527
0.00049845
-0.00122286
0.000378734
-0.0012664
0.000227433
-0.00127473
4.87164e-05
-0.00125275
-0.000133503
-0.00119723
-0.000323577
-0.00109808
-0.000515439
-0.000942336
-0.000686497
-0.000717775
-0.000795265
-0.000428599
-0.000771671
-0.000134876
-0.000533659
1.1565e-05
-0.000100169
0.00013492
-8.17364e-05
0.000120113
-0.000224131
0.000288071
-0.000402312
0.000456097
-0.000598962
0.00061418
-0.000787756
0.000719944
-0.000946551
0.000746216
-0.00106667
0.000693575
-0.0011499
0.00058168
-0.00120205
0.000430887
-0.00123024
0.000255621
-0.00124302
6.1496e-05
-0.00124006
-0.000136467
-0.0012201
-0.000343529
-0.00117511
-0.00056043
-0.00108656
-0.000775047
-0.000926065
-0.000955763
-0.000664847
-0.00103289
-0.000313725
-0.00088478
-2.58598e-05
-0.000388034
0.00010906
-0.000102249
0.000222362
-0.000263408
0.00044923
-0.000444564
0.000637253
-0.000624281
0.000793897
-0.00078078
0.000876443
-0.000900315
0.000865751
-0.000981328
0.000774588
-0.00102964
0.000629997
-0.00105401
0.000455253
-0.00106441
0.00026602
-0.00107281
6.9894e-05
-0.00107923
-0.000130041
-0.00108459
-0.000338174
-0.0010858
-0.000559216
-0.00106723
-0.000793619
-0.000996057
-0.00102694
-0.000823666
-0.00120528
-0.000510409
-0.00119804
-0.000112726
-0.000785717
-3.66637e-06
-0.000104162
0.000326523
-0.000260848
0.000605916
-0.000424016
0.000800421
-0.00057322
0.000943101
-0.000692564
0.000995788
-0.000774868
0.000948054
-0.000822823
0.000822544
-0.000844573
0.000651747
-0.000850356
0.000461036
-0.000850167
0.00026583
-0.000852737
7.24646e-05
-0.000860662
-0.000122116
-0.000875792
-0.000323045
-0.000899176
-0.000535831
-0.000924603
-0.000768193
-0.000928129
-0.00102341
-0.000857585
-0.00127582
-0.000638954
-0.00141667
-0.000235431
-0.00118924
-0.000239097
-8.76668e-05
0.00041419
-0.000222132
0.000740381
-0.000355872
0.000934161
-0.000470738
0.00105797
-0.00055634
0.00108139
-0.000610105
0.00100182
-0.000636897
0.000849336
-0.000645442
0.000660292
-0.000645476
0.00046107
-0.000644752
0.000265106
-0.000647393
7.51058e-05
-0.000655364
-0.000114145
-0.000671012
-0.000307397
-0.000697591
-0.000509252
-0.00073661
-0.000729174
-0.000778028
-0.000981991
-0.000779586
-0.00127427
-0.0006596
-0.00153665
-0.000348957
-0.00149988
-0.000588054
-5.84707e-05
0.000472661
-0.000159832
0.000841742
-0.000259661
0.00103399
-0.000341438
0.00113974
-0.000399238
0.00113919
-0.000433413
0.00103599
-0.000449306
0.000865229
-0.000454605
0.00066559
-0.000456754
0.000463219
-0.000460494
0.000268846
-0.000467035
8.16469e-05
-0.000477032
-0.000104149
-0.000491734
-0.000292695
-0.000514414
-0.000486572
-0.00055102
-0.000692568
-0.000602542
-0.000930469
-0.000645371
-0.00123144
-0.000604114
-0.00157791
-0.0003855
-0.0017185
-0.000973554
-2.17083e-05
0.000494369
-8.4775e-05
0.000904809
-0.000149776
0.00109899
-0.00020137
0.00119134
-0.000236457
0.00117428
-0.000257092
0.00105663
-0.000267885
0.000876023
-0.000274164
0.000671869
-0.000280555
0.00046961
-0.0002894
0.000277691
-0.000300893
9.31402e-05
-0.000314849
-9.01929e-05
-0.0003314
-0.000276144
-0.000352209
-0.000465763
-0.000383287
-0.000661491
-0.000433273
-0.000880483
-0.000495514
-0.0011692
-0.000507538
-0.00156589
-0.000352261
-0.00187377
-0.00132582
1.53088e-05
0.00047906
-6.90844e-06
0.000927026
-3.91425e-05
0.00113123
-6.36027e-05
0.0012158
-7.8607e-05
0.00118928
-8.71052e-05
0.00106513
-9.30566e-05
0.000881974
-9.97458e-05
0.000678558
-0.000108863
0.000478728
-0.000121086
0.000289914
-0.000136426
0.00010848
-0.000154916
-7.17027e-05
-0.0001764
-0.00025466
-0.000201055
-0.000441109
-0.0002324
-0.000630146
-0.000280928
-0.000831954
-0.000352433
-0.00109769
-0.000400719
-0.0015176
-0.000301188
-0.0019733
-0.001627
4.65982e-05
0.000432462
6.51921e-05
0.000908432
6.91314e-05
0.00112729
7.26233e-05
0.00121231
7.73335e-05
0.00118457
8.05292e-05
0.00106193
7.99801e-05
0.000882524
7.47771e-05
0.000683761
6.51618e-05
0.000488343
5.15773e-05
0.000303498
3.37987e-05
0.000126259
1.13321e-05
-4.92361e-05
-1.61677e-05
-0.00022716
-4.92268e-05
-0.000408049
-8.89359e-05
-0.000590437
-0.000141011
-0.00077988
-0.000220572
-0.00101813
-0.000296673
-0.0014415
-0.000246812
-0.00202316
-0.00187382
6.99669e-05
0.000362495
0.000126401
0.000851998
0.000163967
0.00108972
0.000196104
0.00118017
0.000223341
0.00115733
0.000242134
0.00104314
0.000251215
0.000873443
0.000251582
0.000683394
0.000244876
0.000495049
0.00023216
0.000316215
0.000213037
0.000145381
0.000186096
-2.22952e-05
0.00015123
-0.000192294
0.000107898
-0.000364718
5.54932e-05
-0.000538032
-1.19942e-05
-0.000712392
-9.97304e-05
-0.000930395
-0.000196352
-0.00134488
-0.000194658
-0.00202486
-0.00206847
8.01731e-05
0.000282322
0.000168585
0.000763587
0.00023944
0.00101886
0.000301697
0.00111791
0.000355664
0.00110337
0.000396493
0.00100231
0.000422075
0.000847862
0.000433647
0.000671822
0.000433709
0.000494987
0.000424052
0.000325871
0.000404617
0.000164817
0.000373354
8.96751e-06
0.000330337
-0.000149277
0.000274116
-0.000308497
0.000204537
-0.000468453
0.000122882
-0.000630737
1.92284e-05
-0.000826741
-0.000102478
-0.00122317
-0.00014592
-0.00198142
-0.00221439
7.38744e-05
0.000208448
0.000181095
0.000656367
0.000280319
0.00091964
0.000374502
0.00102373
0.000460371
0.0010175
0.000530883
0.000931796
0.00058161
0.000797135
0.000612576
0.000640856
0.000625976
0.000481587
0.000623901
0.000327946
0.000606549
0.000182169
0.000572851
4.26653e-05
0.00052078
-9.72055e-05
0.000450289
-0.000238006
0.000360751
-0.000378914
0.000255154
-0.00052514
0.000128447
-0.000700035
-2.15848e-05
-0.00107314
-9.58951e-05
-0.00190711
-0.00231029
5.25375e-05
0.00015591
0.000161997
0.000546907
0.000288776
0.000792861
0.000418453
0.000894054
0.00054141
0.000894541
0.000647487
0.000825718
0.000729639
0.000714984
0.000786197
0.000584298
0.000818325
0.000449459
0.000827852
0.000318419
0.000815491
0.00019453
0.000781072
7.70837e-05
0.000720306
-3.64392e-05
0.000634863
-0.000152563
0.000523579
-0.000267631
0.000391043
-0.000392604
0.000242938
-0.00055193
8.46076e-05
-0.00091481
-1.97068e-05
-0.00180279
-0.00232999
1.21539e-05
0.000143756
9.24612e-05
0.0004666
0.000231828
0.000653494
0.000396519
0.000729363
0.000562925
0.000728134
0.000712454
0.000676189
0.00083437
0.000593068
0.000925292
0.000493376
0.000984476
0.000390275
0.00101317
0.000289722
0.00101183
0.00019587
0.000981095
0.000107821
0.000917702
2.69548e-05
0.00082177
-5.66308e-05
0.000694104
-0.000139965
0.000539712
-0.000238212
0.000374228
-0.000386446
0.000213641
-0.000754222
6.12129e-05
-0.00165037
-0.00226878
-4.96291e-05
0.000193385
1.50231e-05
0.000401947
0.00015995
0.000508568
0.00035563
0.000533683
0.00056229
0.000521474
0.000751948
0.000486531
0.000910526
0.00043449
0.00103357
0.000370332
0.0011189
0.000304948
0.00116819
0.000240428
0.0011818
0.000182259
0.00116181
0.000127814
0.00110965
7.9118e-05
0.00102407
2.89485e-05
0.000905724
-2.16214e-05
0.000760791
-9.32792e-05
0.000608299
-0.000233954
0.000435464
-0.000581388
0.000201271
-0.00141617
-0.00206751
-0.000415838
0.000609223
-0.000364156
0.000350266
-0.000132218
0.000276629
0.000137985
0.00026348
0.000402696
0.000256762
0.000648373
0.000240854
0.000864274
0.00021859
0.00104437
0.000190234
0.0011867
0.00016262
0.00129363
0.0001335
0.0013667
0.00010919
0.00141014
8.43699e-05
0.0014231
6.61582e-05
0.00140712
4.4926e-05
0.00136015
2.53475e-05
0.00128372
-1.68442e-05
0.00117836
-0.000128595
0.00100519
-0.00040822
0.00056129
-0.00097227
-0.00150622
0.000609223
0.000959489
0.00123612
0.0014996
0.00175636
0.00199721
0.0022158
0.00240604
0.00256866
0.00270216
0.00281135
0.00289572
0.00296188
0.0030068
0.00303215
0.00301531
0.00288671
0.00247849
0.00150622
)
;

boundaryField
{
    movingWall
    {
        type            calculated;
        value           uniform 0;
    }
    fixedWalls
    {
        type            calculated;
        value           uniform 0;
    }
    frontAndBack
    {
        type            empty;
    }
}


// ************************************************************************* //
