/*--------------------------------*- C++ -*----------------------------------*\
| =========                 |                                                 |
| \\      /  F ield         | OpenFOAM: The Open Source CFD Toolbox           |
|  \\    /   O peration     | Version:  2506                                  |
|   \\  /    A nd           | Website:  www.openfoam.com                      |
|    \\/     M anipulation  |                                                 |
\*---------------------------------------------------------------------------*/
FoamFile
{
    version     2.0;
    format      ascii;
    arch        "LSB;label=32;scalar=64";
    class       volScalarField;
    location    "250";
    object      div(phi);
}
// * * * * * * * * * * * * * * * * * * * * * * * * * * * * * * * * * * * * * //

dimensions      [0 0 -1 0 0 0 0];

internalField   nonuniform List<scalar> 
1340
(
-4.35455e-05
5.55994e-05
0.000222178
-1.21077e-05
-2.85038e-05
6.75233e-05
0.000275639
0.000404008
-2.51928e-05
6.1725e-06
1.41482e-05
-0.000115044
-2.09598e-05
4.08709e-05
0.000149245
0.000273036
-2.05287e-05
-1.03524e-06
-8.36584e-06
-0.000125725
-1.54196e-05
3.46062e-05
0.000105832
0.000180621
-1.98928e-05
-1.72289e-05
-1.22469e-05
-0.000104725
-8.15367e-06
3.33585e-05
9.12278e-05
0.000110123
-1.50618e-05
-3.03693e-05
-6.00623e-06
-9.37142e-05
2.45632e-07
3.13833e-05
8.02964e-05
5.93447e-05
-1.25714e-05
-4.43647e-05
-4.6054e-06
-7.2723e-05
5.75021e-06
2.74012e-05
6.31015e-05
2.81952e-05
-1.08149e-05
-5.12891e-05
4.7096e-06
-5.55039e-05
9.7698e-06
2.28306e-05
4.78044e-05
1.12632e-05
-1.09979e-05
-5.36479e-05
9.80386e-06
-4.02257e-05
1.13332e-05
1.7377e-05
3.42763e-05
3.52878e-06
-1.19398e-05
-5.3081e-05
1.78844e-05
-3.10065e-05
1.14131e-05
1.23572e-05
2.4752e-05
1.51889e-07
-1.24549e-05
-4.66144e-05
2.13927e-05
-2.47327e-05
9.76976e-06
8.16516e-06
1.70754e-05
-1.34997e-06
-1.36036e-05
-4.35086e-05
2.31132e-05
-2.09408e-05
7.08301e-06
4.83748e-06
1.16723e-05
-2.07562e-06
-1.22594e-05
-3.3737e-05
2.0849e-05
-1.6664e-05
4.72871e-06
3.27434e-06
7.81562e-06
-2.20112e-06
-1.02694e-05
-2.41967e-05
1.65006e-05
-1.35441e-05
2.74007e-06
2.4587e-06
5.10316e-06
-1.96974e-06
-6.70935e-06
-1.46269e-05
1.2511e-05
-1.01413e-05
1.53106e-06
2.3306e-06
3.58913e-06
-1.44842e-06
-3.44556e-06
-6.41098e-06
8.60592e-06
-7.31941e-06
2.24175e-06
2.28445e-06
2.58281e-06
-9.19423e-07
-2.33933e-06
-1.9451e-06
5.6093e-06
-4.88314e-06
2.0816e-06
1.95896e-06
1.89039e-06
-4.24428e-07
-1.03659e-06
-3.18489e-08
3.45897e-06
-2.92347e-06
-4.6125e-06
1.23507e-06
1.54081e-06
1.36411e-06
-6.87314e-08
2.05559e-06
-2.01056e-07
5.31125e-07
1.97989e-06
-1.54282e-06
-1.47955e-06
8.40015e-07
1.1415e-06
9.63606e-07
1.47131e-07
1.28364e-06
7.75632e-09
5.36474e-07
1.04195e-06
-6.73617e-07
-1.14521e-06
5.7508e-07
7.88046e-07
6.7574e-07
2.43427e-07
9.88971e-07
6.06697e-08
3.77526e-07
5.55702e-07
-2.28552e-07
-8.73605e-07
3.7208e-07
5.24477e-07
4.75535e-07
2.35463e-07
8.00901e-07
6.45393e-08
2.44289e-07
3.01513e-07
-5.70125e-08
-3.54132e-07
2.60912e-07
3.40359e-07
3.21946e-07
1.8945e-07
2.66204e-07
1.72933e-08
1.54732e-07
1.62821e-07
-2.0596e-09
-2.14454e-07
1.56958e-07
2.07181e-07
2.12614e-07
1.371e-07
1.47862e-07
3.2273e-08
1.08089e-07
9.42649e-08
1.0707e-08
-3.84108e-07
-1.67318e-07
1.12875e-07
1.31422e-07
1.34667e-07
1.02984e-07
7.02443e-08
1.99897e-07
4.4915e-08
8.41735e-08
6.4834e-08
9.16823e-09
-7.04507e-08
-1.005e-07
8.76022e-08
8.473e-08
8.62159e-08
7.41994e-08
5.95626e-08
1.59773e-07
4.66626e-08
6.91685e-08
4.52065e-08
1.26197e-08
-4.458e-09
-5.70099e-08
6.63693e-08
5.07285e-08
5.58495e-08
5.17109e-08
-7.91987e-09
1.05016e-07
3.08298e-08
5.4404e-08
3.76687e-08
1.04637e-08
-3.04338e-08
-4.2786e-08
4.39164e-08
3.30031e-08
3.5793e-08
4.16896e-08
-1.19491e-08
4.99587e-08
1.74535e-08
3.93369e-08
3.78986e-08
6.5529e-09
-2.67344e-09
-2.7642e-08
-4.8645e-09
1.46404e-08
1.57719e-08
3.34501e-08
-5.96206e-08
-4.4564e-08
-4.42133e-08
-3.99117e-09
5.66608e-09
3.92132e-08
1.8435e-08
-1.81717e-08
-4.33273e-08
-1.38681e-08
-2.88508e-08
6.51235e-09
9.76405e-09
4.28925e-08
2.22211e-08
-1.22543e-09
-3.62829e-08
-2.55547e-09
-3.11285e-09
3.19356e-08
2.24788e-08
-6.41115e-09
-1.22195e-08
8.32898e-09
-1.79759e-08
1.52793e-09
-8.12847e-09
3.54661e-08
1.59959e-08
1.40903e-08
-2.08716e-08
-1.75951e-09
-2.93664e-08
1.80929e-08
-1.44482e-09
1.34307e-08
-1.09689e-08
1.48941e-08
-2.95135e-08
1.05176e-08
-2.05779e-08
2.89693e-08
-1.01487e-08
2.23034e-08
-7.41444e-09
1.55452e-08
-1.29437e-08
1.94636e-08
7.70383e-09
1.78537e-09
1.38037e-08
1.05737e-08
1.79544e-08
-4.22605e-09
1.94798e-08
4.84497e-09
1.8582e-08
1.28767e-08
1.10404e-08
1.27057e-08
3.64025e-09
1.55358e-08
-1.64994e-09
1.93282e-08
-3.27168e-09
8.66841e-10
8.02842e-09
8.95276e-09
8.68928e-09
5.17391e-09
9.64188e-09
6.78366e-09
1.06415e-08
8.16631e-09
4.80725e-09
6.24358e-09
6.73489e-09
6.56961e-09
8.98372e-09
4.83023e-09
8.9512e-09
-1.21907e-08
3.25546e-09
2.63777e-09
4.76731e-09
5.16841e-09
7.02663e-09
7.32722e-09
5.55403e-09
4.5501e-09
-2.08005e-09
5.63016e-09
-5.00193e-10
7.27131e-09
7.84847e-09
4.85797e-09
1.42655e-08
-1.83263e-08
8.02693e-09
-5.36417e-09
8.77039e-09
-5.32241e-09
1.6439e-08
2.39045e-09
1.10756e-08
-1.29879e-08
8.56119e-10
-1.01913e-09
2.64146e-09
-7.22622e-09
9.97564e-09
-5.42592e-09
1.63724e-08
-6.84223e-09
-3.98183e-09
-1.19528e-09
4.63506e-10
-3.90302e-09
3.13619e-09
-5.7189e-09
8.58202e-09
-3.57158e-09
1.05509e-08
-4.21862e-09
-5.24332e-10
-8.18047e-10
-4.50404e-10
-1.54136e-09
1.41375e-09
-3.30484e-11
1.62084e-09
-1.90934e-09
-5.54701e-09
-1.32144e-09
-1.89025e-09
-8.89415e-10
-8.20164e-10
-2.97106e-10
-1.33765e-09
1.23231e-09
-2.92008e-09
-6.45561e-09
-1.44462e-09
-3.00737e-09
-1.52299e-09
-1.88484e-09
-1.02619e-09
-2.05465e-09
6.69986e-10
-2.91119e-09
-9.12265e-09
-1.48145e-09
-3.57972e-09
-1.75258e-09
-2.36457e-09
-1.19484e-09
-2.64512e-09
8.29546e-10
-3.49742e-09
-8.41686e-09
-1.73635e-09
-4.10163e-09
-1.21515e-09
-2.97664e-09
-7.36053e-10
-2.43952e-09
7.12974e-10
-3.35381e-09
-7.77923e-09
-2.19745e-09
-2.89164e-09
-1.67134e-09
-1.62909e-09
-8.93586e-10
-1.373e-09
8.68801e-10
-2.52627e-09
-1.08168e-08
1.04193e-09
-4.64747e-09
1.37406e-09
-3.88869e-09
2.23753e-09
-3.11313e-09
2.48478e-09
6.14552e-10
-6.22556e-09
-6.39051e-10
-2.39537e-09
-6.05208e-10
-1.86167e-09
3.66106e-10
-5.61816e-10
5.07501e-10
1.18206e-09
4.41005e-10
-5.53178e-09
-3.02434e-10
-2.7109e-09
-5.13616e-11
-2.15034e-09
6.16435e-10
-2.70254e-09
1.81406e-10
-2.18442e-09
1.30796e-09
-2.89234e-09
-1.62101e-09
-1.48167e-09
-1.60545e-09
-1.55231e-09
-2.25609e-09
-3.05015e-09
-1.52651e-09
-2.94459e-09
1.12571e-09
0.00052493
-0.000223854
0.000132931
-7.33731e-05
0.000106229
-3.61061e-06
6.84873e-05
1.7912e-05
4.61666e-05
2.4273e-05
2.38171e-05
2.27538e-05
5.77885e-06
1.84817e-05
-2.82222e-06
1.3483e-05
-6.84282e-06
8.69004e-06
-6.04356e-06
4.35241e-06
-6.68768e-06
1.38769e-06
-7.01457e-06
-1.21626e-07
-7.18006e-06
-3.98741e-07
-6.94488e-06
-2.18587e-08
-5.78384e-06
4.07857e-07
-4.23614e-06
5.26788e-07
-2.80456e-06
4.91782e-07
-1.64502e-06
3.80362e-07
-8.05344e-07
2.5323e-07
-3.58365e-07
1.60378e-07
-1.2538e-07
9.35919e-08
-2.47388e-08
5.78681e-08
1.12395e-08
3.09573e-08
2.71406e-08
2.39311e-08
1.91773e-08
2.44907e-08
1.21825e-08
2.07382e-08
-1.92412e-08
2.06052e-08
-5.54858e-09
3.7163e-08
3.1311e-08
3.62713e-08
4.38131e-08
-8.58277e-09
2.43545e-08
8.84991e-09
3.09773e-08
5.46384e-09
6.08813e-09
5.70982e-09
-7.67962e-09
3.17636e-09
1.93245e-08
-1.08418e-08
2.67513e-09
2.1458e-09
1.01304e-09
1.73348e-09
8.05358e-10
5.31075e-09
-1.85569e-09
7.06368e-09
-4.76304e-09
-8.04244e-09
0.000136581
-0.000143685
4.76165e-05
-0.000103649
5.33058e-05
-6.71528e-05
4.54214e-05
-4.01319e-05
4.27545e-05
-2.27351e-05
3.68693e-05
-1.22665e-05
3.03532e-05
-5.14237e-06
1.96902e-05
-7.51428e-07
1.25819e-05
1.90328e-06
6.24298e-06
3.14603e-06
2.76325e-06
3.5572e-06
1.13906e-06
3.41519e-06
-1.71281e-07
3.00131e-06
-5.30211e-07
2.44538e-06
-8.71935e-07
1.77257e-06
-1.15241e-06
1.30926e-06
-1.04536e-06
9.31529e-07
-7.24659e-07
6.59873e-07
-4.67836e-07
4.43142e-07
-2.26916e-07
2.56643e-07
-9.65349e-08
1.25501e-07
-2.81295e-08
4.47301e-08
6.26809e-09
2.04056e-08
1.33587e-08
9.34832e-09
2.1292e-08
4.28947e-09
1.43091e-08
-6.74298e-09
5.70144e-09
-2.51134e-08
1.30339e-08
-9.25019e-09
2.27393e-08
1.524e-08
3.43133e-09
4.44593e-08
7.74335e-09
1.98281e-08
-8.55673e-09
1.38395e-08
1.01896e-08
7.35065e-09
1.65768e-08
5.94218e-09
-1.21906e-08
1.47696e-08
-5.07325e-09
-6.3092e-09
-5.37547e-09
-6.69099e-09
-6.31308e-09
-5.74274e-09
4.98834e-09
-4.66276e-09
8.4734e-09
2.20324e-05
-0.000101265
1.19746e-05
-8.73441e-05
1.86876e-05
-7.28083e-05
1.83024e-05
-5.90908e-05
1.88579e-05
-5.00346e-05
1.7317e-05
-4.18408e-05
1.84448e-05
-2.92846e-05
1.5759e-05
-1.81207e-05
1.33661e-05
-1.00166e-05
9.843e-06
-5.25446e-06
6.72555e-06
-2.80145e-06
2.85863e-06
-1.70935e-06
5.29244e-07
-1.05288e-06
-1.19183e-06
-4.79568e-07
-1.7915e-06
2.30828e-07
-1.37121e-06
6.54751e-07
-8.50472e-07
8.20686e-07
-4.89948e-07
7.34446e-07
-1.97891e-07
5.30587e-07
-1.08041e-07
3.2911e-07
-5.57401e-08
1.76856e-07
-2.3125e-08
8.96052e-08
-7.80438e-10
3.03053e-08
1.7595e-08
9.7357e-09
1.45529e-08
5.11997e-09
1.4981e-08
4.16917e-09
-1.07216e-08
4.43203e-09
-2.79332e-08
2.60205e-09
-2.01176e-08
1.09791e-08
2.74234e-08
-7.92436e-09
2.22818e-08
4.82518e-09
2.62586e-08
2.08621e-09
3.27557e-09
3.31316e-09
-8.91574e-09
-1.87813e-09
1.53761e-08
-5.15407e-09
2.25709e-09
2.04013e-09
-6.93041e-09
-2.09179e-09
-9.31774e-10
5.01185e-09
-9.13878e-09
9.20478e-09
-7.36108e-05
-9.11796e-05
-2.68863e-05
-6.35345e-05
-6.9484e-06
-4.75852e-05
3.26937e-06
-3.63888e-05
8.0907e-06
-2.98444e-05
1.18756e-05
-2.57193e-05
1.35293e-05
-2.04089e-05
1.47738e-05
-1.40005e-05
1.28242e-05
-8.84914e-06
1.14567e-05
-4.81407e-06
8.68735e-06
-1.97422e-06
7.04896e-06
1.84702e-08
5.30992e-06
1.09489e-06
3.7569e-06
1.55453e-06
2.71323e-06
1.44278e-06
1.48614e-06
1.1841e-06
6.61389e-07
9.0013e-07
2.82594e-07
6.93501e-07
4.38261e-08
5.2326e-07
7.67628e-09
3.6217e-07
-2.66229e-12
2.21865e-07
4.78903e-09
1.07506e-07
9.74912e-09
5.34217e-08
8.57721e-09
2.04238e-08
1.74231e-08
7.14731e-09
1.35725e-08
4.08304e-09
1.0635e-08
-9.89345e-09
-2.74102e-09
-2.62101e-08
1.48069e-09
-1.43314e-08
-1.22298e-08
3.39202e-08
8.36164e-09
1.8092e-08
-1.15361e-08
8.46031e-09
3.15648e-09
5.28133e-09
1.3113e-08
3.82114e-09
-5.3544e-09
3.72481e-09
-2.19477e-09
-8.8093e-09
-2.46411e-09
-1.51746e-09
-6.29968e-09
-8.83641e-09
9.26101e-09
8.93096e-05
-1.12684e-05
2.00633e-05
-1.19642e-05
1.41668e-05
-1.29047e-05
1.01023e-05
-1.27193e-05
7.48581e-06
-1.22037e-05
6.33162e-06
-1.23349e-05
6.06056e-06
-1.20254e-05
6.50688e-06
-1.01482e-05
6.24076e-06
-7.75548e-06
6.00887e-06
-5.45374e-06
5.19205e-06
-3.63001e-06
4.58786e-06
-2.33807e-06
3.1543e-06
-1.5196e-06
2.23756e-06
-8.92708e-07
1.089e-06
-3.15559e-07
6.10334e-07
1.34436e-07
4.10153e-07
4.29027e-07
2.37446e-07
4.99398e-07
1.97564e-07
4.29071e-07
9.50909e-08
3.10253e-07
3.56756e-08
1.98791e-07
7.72704e-09
1.27408e-07
6.21674e-09
6.23296e-08
1.57781e-08
2.90579e-08
1.11323e-08
1.16592e-08
1.49332e-08
7.38455e-09
8.97305e-09
4.46434e-09
-7.09368e-09
-2.99769e-10
-2.8117e-08
-2.51995e-09
1.9409e-08
-8.51251e-09
1.41771e-08
-5.19716e-09
2.11857e-08
-3.90183e-09
4.37482e-09
1.44732e-08
-4.70391e-09
-1.3821e-09
-2.69879e-09
-1.74194e-09
-3.59144e-09
2.4463e-09
-7.97517e-09
-3.81907e-09
3.21058e-09
1.06925e-08
3.45645e-05
-1.14112e-05
9.91041e-06
-8.96274e-06
8.70646e-06
-7.77847e-06
7.65448e-06
-6.80608e-06
6.58383e-06
-6.15413e-06
5.63904e-06
-6.04132e-06
5.28852e-06
-6.08109e-06
4.89536e-06
-5.71291e-06
4.68296e-06
-4.75564e-06
4.04212e-06
-3.71237e-06
3.83051e-06
-2.57659e-06
3.16457e-06
-1.49245e-06
3.01426e-06
-4.77979e-07
2.65366e-06
1.96495e-07
2.34785e-06
4.68051e-07
1.74034e-06
5.0328e-07
1.06761e-06
3.95524e-07
5.98843e-07
3.15458e-07
2.28682e-07
2.68473e-07
9.24084e-08
2.27486e-07
3.6036e-08
1.77325e-07
2.14024e-08
1.08294e-07
1.30497e-08
6.88558e-08
5.49206e-09
3.47227e-08
1.2163e-08
1.61637e-08
9.42362e-09
6.39659e-09
1.37663e-08
5.64629e-09
7.8601e-09
-9.39398e-09
7.04038e-09
-9.70182e-09
-2.15796e-08
1.22886e-08
-5.73619e-09
1.44328e-08
-1.66196e-08
9.45756e-10
4.92957e-09
-6.26636e-09
1.17884e-08
-3.4391e-09
1.00297e-09
-8.41147e-09
-3.74365e-09
-1.13743e-08
4.66646e-09
4.81046e-09
1.8751e-05
-9.34309e-06
5.40196e-06
-7.59106e-06
4.7696e-06
-6.90985e-06
4.37402e-06
-6.26955e-06
3.94307e-06
-5.66824e-06
3.59966e-06
-5.30298e-06
3.43957e-06
-5.27531e-06
3.34749e-06
-5.04366e-06
3.35624e-06
-4.23753e-06
3.07671e-06
-3.27905e-06
2.83842e-06
-2.379e-06
2.48033e-06
-1.65941e-06
2.3249e-06
-1.16145e-06
1.78447e-06
-8.27357e-07
1.30356e-06
-4.75957e-07
9.28316e-07
-2.17621e-07
6.4839e-07
1.08941e-08
3.99793e-07
1.29434e-07
2.93006e-07
1.57197e-07
1.55392e-07
1.3628e-07
6.76341e-08
1.02443e-07
1.57508e-08
8.75194e-08
3.83014e-09
5.57373e-08
9.21585e-09
3.45551e-08
4.40487e-09
1.65376e-08
8.96058e-09
1.05079e-08
8.51823e-09
9.50824e-09
5.67228e-09
8.73796e-09
-1.91693e-08
-1.85839e-08
-5.6442e-09
-2.68257e-08
-9.8091e-09
-2.64421e-08
1.9009e-09
-5.76899e-09
-9.52677e-09
1.5208e-08
-9.86636e-09
2.42075e-09
-1.04319e-08
3.26682e-09
-1.81924e-09
1.09723e-08
7.55755e-06
-8.36185e-06
1.59395e-06
-5.28069e-06
2.70579e-06
-4.24243e-06
2.84447e-06
-3.71747e-06
2.98197e-06
-3.27203e-06
2.8733e-06
-2.99668e-06
2.85746e-06
-2.9859e-06
2.93869e-06
-3.02373e-06
2.91276e-06
-2.83588e-06
2.84625e-06
-2.39494e-06
2.44891e-06
-1.93584e-06
2.24203e-06
-1.42648e-06
1.7979e-06
-8.82745e-07
1.70441e-06
-3.74063e-07
1.6523e-06
-1.3089e-07
1.31508e-06
-3.22513e-08
9.32595e-07
-5.86842e-08
5.7346e-07
-8.12087e-08
2.3322e-07
-5.5398e-08
8.85904e-08
-2.40086e-09
2.85987e-08
4.11898e-08
1.81742e-08
4.20477e-08
9.10988e-09
4.22354e-08
-3.63172e-10
2.87836e-08
4.56808e-09
1.89517e-08
3.88282e-09
9.83e-09
9.61879e-09
3.49698e-09
7.50359e-09
-1.02413e-08
-7.66286e-09
-2.24041e-08
-3.7716e-08
-2.7083e-08
-3.39504e-08
-9.72427e-10
-1.6457e-08
-6.5086e-09
8.80237e-09
-1.94084e-08
2.32274e-08
-4.78763e-09
9.95881e-09
2.17868e-05
-1.11165e-06
4.97411e-06
-1.46092e-06
3.55712e-06
-1.93889e-06
2.58624e-06
-2.25131e-06
2.11748e-06
-2.38436e-06
1.71701e-06
-2.45763e-06
1.60399e-06
-2.50985e-06
1.50412e-06
-2.63479e-06
1.57336e-06
-2.65721e-06
1.62978e-06
-2.42945e-06
1.57751e-06
-2.07006e-06
1.49019e-06
-1.66239e-06
1.3217e-06
-1.30947e-06
1.29748e-06
-1.03035e-06
8.71817e-07
-7.63563e-07
7.76867e-07
-5.36397e-07
5.7901e-07
-3.52097e-07
3.6741e-07
-2.10567e-07
2.79367e-07
-1.17824e-07
1.6543e-07
-6.44027e-08
8.631e-08
-3.24582e-08
2.72881e-08
5.34399e-09
6.37278e-09
1.55295e-08
5.7402e-09
1.94031e-08
-9.41455e-10
1.43362e-08
2.7138e-09
1.06779e-08
2.17245e-09
5.76209e-09
-4.37141e-09
8.11928e-10
-1.80091e-08
-2.00926e-08
-2.39299e-08
-3.05872e-08
3.4477e-09
-2.26716e-08
1.25177e-08
3.50281e-11
-1.71456e-08
2.74879e-08
2.79377e-06
-3.08504e-06
1.19113e-06
-2.45353e-06
1.24953e-06
-2.1475e-06
1.36038e-06
-2.00171e-06
1.29155e-06
-1.96326e-06
1.35128e-06
-1.92274e-06
1.23275e-06
-1.92635e-06
1.20946e-06
-2.02411e-06
1.1874e-06
-2.19007e-06
1.17939e-06
-2.22347e-06
1.20621e-06
-2.04323e-06
1.07001e-06
-1.77313e-06
1.02912e-06
-1.39436e-06
8.44812e-07
-9.87466e-07
1.00682e-06
-6.74664e-07
8.79736e-07
-5.0412e-07
6.75737e-07
-4.21009e-07
4.83401e-07
-3.69386e-07
2.23589e-07
-2.99181e-07
9.31067e-08
-1.95872e-07
3.6172e-08
-9.29697e-08
2.88762e-08
-3.88849e-08
1.8502e-08
-3.98844e-09
2.88066e-09
5.08895e-09
4.62724e-09
1.02306e-08
2.29966e-09
1.04999e-08
2.45838e-09
-4.20374e-09
4.78025e-09
-8.4994e-09
3.3607e-09
-1.38338e-08
-1.39618e-08
2.00192e-08
-2.51954e-08
2.12229e-08
2.47911e-06
-2.18742e-06
1.1587e-06
-2.01768e-06
1.09259e-06
-1.82298e-06
1.07882e-06
-1.69938e-06
8.91837e-07
-1.72337e-06
8.44859e-07
-1.75314e-06
6.71457e-07
-1.79263e-06
6.77102e-07
-1.85674e-06
6.17605e-07
-2.02644e-06
6.65503e-07
-2.14991e-06
7.12401e-07
-2.0583e-06
7.2445e-07
-1.81518e-06
7.21528e-07
-1.51588e-06
6.70694e-07
-1.22531e-06
6.39238e-07
-9.34848e-07
5.32287e-07
-6.97117e-07
5.29061e-07
-5.03054e-07
3.87101e-07
-3.67886e-07
2.99557e-07
-2.55487e-07
2.11398e-07
-1.67293e-07
1.46628e-07
-1.11145e-07
7.77579e-08
-5.6172e-08
3.59049e-08
-2.94643e-08
1.82582e-08
-3.62333e-09
5.24599e-09
1.16153e-08
-1.52412e-09
-3.21132e-09
-2.53544e-09
2.70435e-09
-4.34786e-09
7.42563e-09
-3.96609e-09
-4.38774e-06
-2.45551e-06
-2.24687e-06
-1.82843e-06
-1.38082e-06
-1.37217e-06
-8.53212e-07
-1.19581e-06
-3.67763e-07
-1.20152e-06
-2.06547e-07
-1.28332e-06
6.45691e-08
-1.31427e-06
1.61285e-07
-1.33619e-06
3.61767e-07
-1.42233e-06
4.85539e-07
-1.56524e-06
6.02637e-07
-1.58343e-06
6.86022e-07
-1.42908e-06
6.81561e-07
-1.22178e-06
6.60315e-07
-9.97943e-07
5.8432e-07
-8.13439e-07
5.76503e-07
-6.74596e-07
4.19398e-07
-5.79495e-07
3.1302e-07
-4.83213e-07
1.972e-07
-3.52009e-07
1.07838e-07
-2.72309e-07
7.99224e-08
-1.52393e-07
6.47861e-08
-8.70985e-08
3.55017e-08
-4.3572e-08
1.27201e-08
-1.74126e-08
1.92608e-08
-3.6932e-08
3.45264e-06
-2.33121e-08
1.48067e-06
-1.49751e-07
1.28984e-06
-2.53883e-07
1.01901e-06
-3.71141e-07
8.60337e-07
-4.67848e-07
6.65469e-07
-5.89988e-07
6.3339e-07
-6.76229e-07
5.28011e-07
-7.5508e-07
5.5664e-07
-8.51285e-07
5.52136e-07
-1.02263e-06
6.08899e-07
-1.15349e-06
6.52186e-07
-1.15825e-06
6.5985e-07
-1.04834e-06
6.52588e-07
-9.1474e-07
6.08083e-07
-7.78182e-07
5.65122e-07
-6.58509e-07
4.72246e-07
-5.31803e-07
4.07417e-07
-4.57394e-07
5.32045e-07
-8.50029e-07
)
;

boundaryField
{
    inlet
    {
        type            extrapolatedCalculated;
        value           nonuniform List<scalar> 
11
(
-2.89234e-09
-1.62101e-09
-1.48167e-09
-1.60545e-09
-1.55231e-09
-2.25609e-09
-3.05015e-09
-1.52651e-09
-2.94459e-09
1.12571e-09
-8.04244e-09
)
;
    }
    outlet
    {
        type            extrapolatedCalculated;
        value           nonuniform List<scalar> 0();
    }
    walls
    {
        type            extrapolatedCalculated;
        value           nonuniform List<scalar> 4(-4.35455e-05 5.55994e-05 0.000222178 -1.21077e-05);
    }
    frontAndBack
    {
        type            empty;
    }
    procBoundary6to2
    {
        type            processor;
        value           nonuniform List<scalar> 
13
(
-0.000466773
-0.000267249
-0.000174057
-0.000216305
1.18401e-05
-2.61881e-05
-2.07816e-05
-1.82342e-05
2.51071e-06
-6.12482e-06
-3.27628e-06
-6.15545e-06
1.58755e-06
)
;
    }
    procBoundary6to3
    {
        type            processor;
        value           uniform -1.21985e-05;
    }
    procBoundary6to5
    {
        type            processor;
        value           nonuniform List<scalar> 
86
(
2.09914e-05
-8.68371e-06
1.70131e-05
-5.743e-06
1.8065e-05
-2.02227e-06
1.83858e-05
7.7751e-07
1.72503e-05
3.26047e-06
1.36852e-05
5.11739e-06
1.15217e-05
7.05954e-06
8.42916e-06
8.46041e-06
5.71895e-06
9.5687e-06
4.31652e-06
9.70779e-06
1.91874e-06
8.56377e-06
-9.01733e-08
6.91104e-06
-8.28521e-07
5.11878e-06
-1.54354e-06
3.91175e-06
1.75102e-06
-3.95059e-07
3.33195e-06
-4.1529e-06
5.03031e-06
5.03031e-06
2.02788e-06
-1.32042e-06
1.17398e-06
-1.14401e-06
8.25172e-07
-9.1314e-07
7.12572e-07
-4.18328e-07
3.12456e-07
-7.98834e-08
-2.01111e-07
1.71038e-07
1.71038e-07
2.48924e-07
-2.14503e-07
1.50316e-07
-1.28846e-07
9.51092e-08
-9.04933e-08
1.5864e-08
-6.29043e-08
8.70043e-08
8.70043e-08
9.66366e-08
3.69523e-09
-2.44503e-08
3.73215e-08
-1.0857e-08
-5.4764e-09
2.53247e-08
2.53247e-08
1.66619e-08
4.26222e-09
1.73227e-08
-5.98236e-09
8.88903e-09
-9.44738e-09
1.14566e-08
1.14566e-08
4.61557e-10
-2.72025e-10
-1.27319e-09
-3.1572e-10
-1.43255e-09
1.42821e-09
-2.25142e-09
-3.67602e-09
3.00815e-09
3.00815e-09
4.43892e-10
7.68389e-10
-1.64213e-09
)
;
    }
    procBoundary6to7
    {
        type            processor;
        value           nonuniform List<scalar> 
91
(
-1.89292e-09
-1.89292e-09
-4.09611e-09
-4.09611e-09
-4.75547e-09
-4.75547e-09
-1.10073e-08
-6.99926e-09
-1.10073e-08
-8.95839e-09
-9.03377e-09
-6.99926e-09
-4.87668e-09
-1.0716e-08
-1.46987e-09
-9.03377e-09
-1.13751e-08
-1.62212e-08
8.87346e-09
-1.0716e-08
-9.82794e-09
-2.55456e-08
-6.08288e-09
1.32217e-08
-1.62212e-08
-2.07497e-08
9.56253e-10
2.32377e-08
-3.05688e-08
2.1715e-08
-2.55456e-08
-2.268e-08
-7.78872e-09
1.68254e-08
-1.45837e-08
1.6391e-08
-6.11398e-09
1.42651e-08
9.56253e-10
-9.5189e-09
4.89417e-07
-3.07054e-07
1.90148e-07
-2.01823e-07
1.42819e-07
-1.54712e-07
7.93692e-08
-1.17836e-07
6.88732e-08
-7.46017e-08
6.34061e-08
-7.78872e-09
-5.90785e-08
-1.27025e-05
-3.58129e-06
-4.70868e-06
-2.67048e-06
-3.4934e-06
-1.94755e-06
-2.56821e-06
-1.39327e-06
-1.68703e-06
-1.08835e-06
-1.23774e-06
-1.02343e-06
-8.72664e-07
-1.00183e-06
-6.95572e-07
-9.8967e-07
-4.48399e-07
-1.00056e-06
-2.95511e-07
-1.0782e-06
-1.42644e-07
-1.12201e-06
-2.09422e-08
-1.05935e-06
8.13328e-08
-9.21169e-07
1.61634e-07
-7.75755e-07
1.92862e-07
-6.25894e-07
2.75942e-07
-4.89735e-07
3.12066e-07
-3.94068e-07
3.12901e-07
-3.06426e-07
4.89417e-07
2.36193e-07
)
;
    }
}


// ************************************************************************* //
