/*--------------------------------*- C++ -*----------------------------------*\
| =========                 |                                                 |
| \\      /  F ield         | OpenFOAM: The Open Source CFD Toolbox           |
|  \\    /   O peration     | Version:  2506                                  |
|   \\  /    A nd           | Website:  www.openfoam.com                      |
|    \\/     M anipulation  |                                                 |
\*---------------------------------------------------------------------------*/
FoamFile
{
    version     2.0;
    format      ascii;
    arch        "LSB;label=32;scalar=64";
    class       volScalarField;
    location    "250";
    object      nuTilda;
}
// * * * * * * * * * * * * * * * * * * * * * * * * * * * * * * * * * * * * * //

dimensions      [0 2 -1 0 0 0 0];

internalField   nonuniform List<scalar> 
1340
(
0.0870647
0.0786293
0.0685096
0.0333574
0.153456
0.148162
0.139222
0.139382
0.205392
0.206644
0.200637
0.209186
0.213869
0.230467
0.237752
0.253622
0.172967
0.215111
0.246075
0.276135
0.0910958
0.157815
0.221404
0.275655
0.0205844
0.0758657
0.163168
0.249104
0.00512637
0.014972
0.0877092
0.1965
0
0.00410269
0.0287989
0.129351
0
0
0.00816056
0.0697358
6.61318e-08
0
0.000665515
0.0318672
8.09901e-06
0
0.000274273
0.0125238
3.25385e-05
1.76103e-06
9.4714e-05
0.00412507
4.66613e-05
3.98886e-06
2.50639e-05
0.0010371
4.52987e-05
3.2962e-05
2.90384e-06
7.90873e-05
4.05971e-05
4.57784e-05
2.4528e-06
1.82165e-05
3.84171e-05
4.87708e-05
5.21731e-06
1.45621e-07
3.85718e-05
4.51672e-05
2.90612e-05
3.92284e-06
3.94321e-05
4.13481e-05
4.16443e-05
1.42254e-05
4.00346e-05
3.95954e-05
4.39442e-05
2.89665e-05
4.02313e-05
3.93829e-05
4.2471e-05
3.72684e-05
4.02076e-05
3.96915e-05
4.09146e-05
4.01845e-05
4.01369e-05
3.9965e-05
4.01676e-05
4.06069e-05
4.00909e-05
4.00845e-05
3.99868e-05
4.03735e-05
4.00745e-05
4.0106e-05
4.00125e-05
4.01663e-05
4.00728e-05
4.00955e-05
4.00596e-05
4.00867e-05
4.00747e-05
4.00846e-05
4.00815e-05
4.00763e-05
4.00759e-05
4.00796e-05
4.0085e-05
4.00829e-05
4.0076e-05
4.00783e-05
4.00827e-05
4.00872e-05
4.00758e-05
4.00782e-05
4.00804e-05
4.00876e-05
4.00755e-05
4.00782e-05
4.00793e-05
4.00864e-05
4.00754e-05
4.0078e-05
4.00788e-05
4.00853e-05
4.00753e-05
4.00779e-05
4.00786e-05
4.00845e-05
4.00742e-05
4.00754e-05
4.00778e-05
4.00784e-05
4.00839e-05
4.00744e-05
4.00756e-05
4.00778e-05
4.00784e-05
4.00835e-05
4.00747e-05
4.00758e-05
4.00778e-05
4.00784e-05
4.00831e-05
4.0075e-05
4.0076e-05
4.0078e-05
4.00784e-05
4.00829e-05
4.00754e-05
4.00763e-05
4.00781e-05
4.00786e-05
4.00828e-05
4.00758e-05
4.00767e-05
4.00784e-05
4.00788e-05
4.00827e-05
4.00762e-05
4.0077e-05
4.00787e-05
4.0079e-05
4.00827e-05
4.00766e-05
4.00774e-05
4.0079e-05
4.00793e-05
4.00828e-05
4.0077e-05
4.00778e-05
4.00793e-05
4.00797e-05
4.0083e-05
4.00775e-05
4.00783e-05
4.00797e-05
4.00801e-05
4.00832e-05
4.00779e-05
4.00787e-05
4.00801e-05
4.00805e-05
4.00834e-05
4.00782e-05
4.00791e-05
4.00804e-05
4.00809e-05
4.00837e-05
4.00777e-05
4.00786e-05
4.00794e-05
4.00807e-05
4.00812e-05
4.00839e-05
4.0078e-05
4.00788e-05
4.00797e-05
4.0081e-05
4.00816e-05
4.00842e-05
4.00781e-05
4.00791e-05
4.00799e-05
4.00813e-05
4.00819e-05
4.00844e-05
4.00782e-05
4.00792e-05
4.00801e-05
4.00814e-05
4.00821e-05
4.00846e-05
4.00782e-05
4.00792e-05
4.00802e-05
4.00815e-05
4.00823e-05
4.00847e-05
4.00781e-05
4.00791e-05
4.00801e-05
4.00815e-05
4.00824e-05
4.00847e-05
4.00778e-05
4.00789e-05
4.00799e-05
4.00813e-05
4.00823e-05
4.00846e-05
4.00774e-05
4.00785e-05
4.00796e-05
4.00811e-05
4.00821e-05
4.00844e-05
4.00768e-05
4.00779e-05
4.00791e-05
4.00806e-05
4.00817e-05
4.0084e-05
4.00749e-05
4.0076e-05
4.00772e-05
4.00784e-05
4.00799e-05
4.00812e-05
4.00834e-05
4.00738e-05
4.00749e-05
4.00762e-05
4.00775e-05
4.00791e-05
4.00804e-05
4.00827e-05
4.00725e-05
4.00737e-05
4.0075e-05
4.00764e-05
4.0078e-05
4.00794e-05
4.00817e-05
4.0071e-05
4.00723e-05
4.00736e-05
4.0075e-05
4.00766e-05
4.00782e-05
4.00804e-05
4.00693e-05
4.00706e-05
4.0072e-05
4.00734e-05
4.00751e-05
4.00767e-05
4.0079e-05
4.00673e-05
4.00687e-05
4.00701e-05
4.00716e-05
4.00733e-05
4.0075e-05
4.00773e-05
4.00648e-05
4.00663e-05
4.00678e-05
4.00694e-05
4.00712e-05
4.0073e-05
4.00753e-05
4.00602e-05
4.00616e-05
4.00632e-05
4.00648e-05
4.00665e-05
4.00684e-05
4.00704e-05
4.00729e-05
4.00561e-05
4.00576e-05
4.00592e-05
4.0061e-05
4.00628e-05
4.00649e-05
4.00671e-05
4.00697e-05
4.00514e-05
4.00529e-05
4.00546e-05
4.00563e-05
4.00582e-05
4.00604e-05
4.00627e-05
4.00655e-05
4.00465e-05
4.0048e-05
4.00495e-05
4.00513e-05
4.00531e-05
4.00553e-05
4.00577e-05
4.00605e-05
4.00416e-05
4.00429e-05
4.00444e-05
4.0046e-05
4.00478e-05
4.00498e-05
4.00521e-05
4.00549e-05
4.00367e-05
4.0038e-05
4.00395e-05
4.0041e-05
4.00427e-05
4.00446e-05
4.00468e-05
4.00493e-05
4.00321e-05
4.00334e-05
4.00349e-05
4.00365e-05
4.00382e-05
4.00401e-05
4.00422e-05
4.00447e-05
4.0026e-05
4.00273e-05
4.00287e-05
4.00301e-05
4.00317e-05
4.00335e-05
4.00354e-05
4.00376e-05
4.00401e-05
4.00211e-05
4.00222e-05
4.00234e-05
4.00248e-05
4.00263e-05
4.00279e-05
4.00298e-05
4.00319e-05
4.00344e-05
4.0016e-05
4.0017e-05
4.0018e-05
4.00192e-05
4.00205e-05
4.00219e-05
4.00236e-05
4.00255e-05
4.00278e-05
4.0011e-05
4.00118e-05
4.00127e-05
4.00136e-05
4.00147e-05
4.0016e-05
4.00174e-05
4.00191e-05
4.00211e-05
4.00066e-05
4.0007e-05
4.00075e-05
4.00081e-05
4.00088e-05
4.00097e-05
4.00108e-05
4.0012e-05
4.00137e-05
4.0007e-05
4.00068e-05
4.00066e-05
4.00065e-05
4.00064e-05
4.00065e-05
4.00068e-05
4.00072e-05
4.0008e-05
4.00123e-05
4.0012e-05
4.00116e-05
4.00113e-05
4.00109e-05
4.00105e-05
4.00101e-05
4.00097e-05
4.00094e-05
4.00185e-05
4.00181e-05
4.00178e-05
4.00173e-05
4.00168e-05
4.00161e-05
4.00154e-05
4.00146e-05
4.00136e-05
4.00261e-05
4.00263e-05
4.00265e-05
4.00266e-05
4.00267e-05
4.00268e-05
4.00267e-05
4.00268e-05
4.00265e-05
4.00321e-05
4.00322e-05
4.00321e-05
4.00318e-05
4.00315e-05
4.00311e-05
4.00306e-05
4.00302e-05
4.00299e-05
4.00297e-05
4.00426e-05
4.00442e-05
4.00461e-05
4.0048e-05
4.005e-05
4.00521e-05
4.00542e-05
4.00563e-05
4.0059e-05
4.00615e-05
4.00603e-05
4.00606e-05
4.00608e-05
4.00609e-05
4.00609e-05
4.00608e-05
4.0061e-05
4.00615e-05
4.00624e-05
4.00631e-05
0.171305
0.213326
0.253555
0.297691
0.323498
0.325932
0.303327
0.254357
0.181911
0.101663
0.0418834
0.014825
0.00457234
0.00104506
5.48772e-05
1.23894e-05
0
1.85808e-06
8.80097e-06
2.63411e-05
3.63933e-05
4.01086e-05
4.07306e-05
4.04721e-05
4.02103e-05
4.01008e-05
4.00814e-05
4.00879e-05
4.00934e-05
4.00941e-05
4.00926e-05
4.00909e-05
4.00896e-05
4.00886e-05
4.00878e-05
4.00871e-05
4.00865e-05
4.0086e-05
4.00856e-05
4.00854e-05
4.00852e-05
4.0085e-05
4.0085e-05
4.0085e-05
4.0085e-05
4.00851e-05
4.00852e-05
4.00852e-05
4.00853e-05
4.00853e-05
4.00853e-05
4.00852e-05
4.00851e-05
4.00848e-05
4.00843e-05
4.00836e-05
4.00827e-05
4.00815e-05
4.00801e-05
4.00784e-05
4.00765e-05
4.00741e-05
4.00711e-05
4.0067e-05
4.0062e-05
4.00563e-05
4.00507e-05
4.00459e-05
4.00413e-05
4.00356e-05
4.00289e-05
4.00221e-05
4.00145e-05
4.00084e-05
4.00092e-05
4.00133e-05
4.00263e-05
4.00295e-05
4.00631e-05
4.00634e-05
0.212159
0.256359
0.285939
0.314247
0.342555
0.353914
0.340924
0.300865
0.234037
0.147703
0.065432
0.0197269
0.0053841
0.00130883
6.74381e-05
1.5313e-05
0
1.38935e-06
6.53933e-06
2.45856e-05
3.5779e-05
3.99964e-05
4.07771e-05
4.05283e-05
4.02387e-05
4.01097e-05
4.00835e-05
4.00893e-05
4.00953e-05
4.00962e-05
4.00944e-05
4.00924e-05
4.00907e-05
4.00895e-05
4.00886e-05
4.00879e-05
4.00873e-05
4.00868e-05
4.00864e-05
4.00861e-05
4.00859e-05
4.00857e-05
4.00857e-05
4.00856e-05
4.00857e-05
4.00857e-05
4.00858e-05
4.00859e-05
4.00859e-05
4.00859e-05
4.00859e-05
4.00859e-05
4.00858e-05
4.00856e-05
4.00851e-05
4.00845e-05
4.00836e-05
4.00824e-05
4.0081e-05
4.00794e-05
4.00774e-05
4.00751e-05
4.00721e-05
4.0068e-05
4.0063e-05
4.00573e-05
4.00516e-05
4.00468e-05
4.00421e-05
4.00364e-05
4.00297e-05
4.00227e-05
4.0015e-05
4.00086e-05
4.00091e-05
4.00132e-05
4.00261e-05
4.00294e-05
4.00641e-05
0.216133
0.266789
0.300835
0.323431
0.344432
0.362473
0.363999
0.34107
0.290332
0.212905
0.119323
0.0409199
0.00661129
0.000799196
2.24618e-05
5.12864e-06
0
6.3661e-07
2.97824e-06
2.08824e-05
3.42602e-05
3.97619e-05
4.08589e-05
4.06085e-05
4.02783e-05
4.01222e-05
4.00846e-05
4.00883e-05
4.00951e-05
4.00967e-05
4.00953e-05
4.00932e-05
4.00916e-05
4.00903e-05
4.00894e-05
4.00887e-05
4.00881e-05
4.00876e-05
4.00872e-05
4.00869e-05
4.00867e-05
4.00866e-05
4.00865e-05
4.00865e-05
4.00865e-05
4.00866e-05
4.00866e-05
4.00867e-05
4.00868e-05
4.00868e-05
4.00868e-05
4.00868e-05
4.00867e-05
4.00865e-05
4.00861e-05
4.00854e-05
4.00846e-05
4.00834e-05
4.0082e-05
4.00804e-05
4.00785e-05
4.00761e-05
4.00731e-05
4.00691e-05
4.00641e-05
4.00583e-05
4.00525e-05
4.00476e-05
4.0043e-05
4.00372e-05
4.00304e-05
4.00233e-05
4.00156e-05
4.00088e-05
4.0009e-05
4.00132e-05
4.00259e-05
4.00293e-05
0.200846
0.256051
0.297315
0.32461
0.342551
0.358609
0.370312
0.36626
0.338476
0.282972
0.200727
0.104919
0.0297782
0.000314381
9.58272e-05
0
0
0
3.70425e-06
1.69039e-05
3.15679e-05
3.88125e-05
4.08323e-05
4.07789e-05
4.03657e-05
4.01406e-05
4.00837e-05
4.00857e-05
4.00941e-05
4.00971e-05
4.00962e-05
4.00942e-05
4.00925e-05
4.00913e-05
4.00903e-05
4.00897e-05
4.00891e-05
4.00886e-05
4.00882e-05
4.00879e-05
4.00877e-05
4.00875e-05
4.00875e-05
4.00874e-05
4.00875e-05
4.00875e-05
4.00876e-05
4.00877e-05
4.00878e-05
4.00878e-05
4.00878e-05
4.00878e-05
4.00878e-05
4.00876e-05
4.00871e-05
4.00865e-05
4.00857e-05
4.00845e-05
4.00831e-05
4.00815e-05
4.00796e-05
4.00773e-05
4.00742e-05
4.00702e-05
4.00652e-05
4.00593e-05
4.00535e-05
4.00485e-05
4.00438e-05
4.0038e-05
4.00312e-05
4.0024e-05
4.00162e-05
4.00091e-05
4.00089e-05
4.00131e-05
4.00257e-05
0.170809
0.230168
0.27852
0.314006
0.337323
0.352399
0.365224
0.373302
0.366536
0.336947
0.279912
0.196141
0.100226
0.0249586
0.000922277
0.000257948
0
0
1.12835e-09
5.25118e-09
2.61441e-05
3.78987e-05
4.07831e-05
4.08641e-05
4.04933e-05
4.02037e-05
4.0089e-05
4.00789e-05
4.00914e-05
4.00972e-05
4.00971e-05
4.00954e-05
4.00937e-05
4.00924e-05
4.00914e-05
4.00907e-05
4.00902e-05
4.00897e-05
4.00893e-05
4.0089e-05
4.00887e-05
4.00886e-05
4.00885e-05
4.00885e-05
4.00885e-05
4.00886e-05
4.00887e-05
4.00888e-05
4.00888e-05
4.00889e-05
4.00889e-05
4.00889e-05
4.00889e-05
4.00887e-05
4.00883e-05
4.00877e-05
4.00868e-05
4.00857e-05
4.00843e-05
4.00827e-05
4.00807e-05
4.00784e-05
4.00754e-05
4.00714e-05
4.00664e-05
4.00605e-05
4.00545e-05
4.00495e-05
4.00448e-05
4.00389e-05
4.0032e-05
4.00246e-05
4.00168e-05
4.00094e-05
4.00088e-05
4.0013e-05
0.128215
0.191106
0.246167
0.290447
0.322828
0.344087
0.357567
0.368261
0.374332
0.366531
0.336811
0.279984
0.196584
0.100226
0.027315
0.00182915
0.000442536
0
0
1.57817e-10
7.16297e-06
2.97093e-05
4.14361e-05
4.16325e-05
4.06321e-05
4.02429e-05
4.01206e-05
4.00803e-05
4.00853e-05
4.00965e-05
4.00987e-05
4.00967e-05
4.00948e-05
4.00936e-05
4.00926e-05
4.00919e-05
4.00913e-05
4.00908e-05
4.00904e-05
4.00901e-05
4.00898e-05
4.00897e-05
4.00896e-05
4.00896e-05
4.00896e-05
4.00897e-05
4.00898e-05
4.00899e-05
4.009e-05
4.009e-05
4.009e-05
4.00901e-05
4.009e-05
4.00898e-05
4.00895e-05
4.00889e-05
4.0088e-05
4.00869e-05
4.00855e-05
4.00839e-05
4.0082e-05
4.00797e-05
4.00767e-05
4.00727e-05
4.00676e-05
4.00616e-05
4.00556e-05
4.00505e-05
4.00458e-05
4.00399e-05
4.00329e-05
4.00254e-05
4.00175e-05
4.00097e-05
0.0770895
0.140054
0.200758
0.253418
0.295754
0.326859
0.347379
0.360132
0.369383
0.374418
0.366623
0.337836
0.282406
0.200101
0.104658
0.0317819
0.000836914
0.000235601
0
0
0
7.57231e-06
3.11012e-05
4.26165e-05
4.20775e-05
4.03803e-05
4.00445e-05
4.00816e-05
4.00875e-05
4.00888e-05
4.00968e-05
4.0099e-05
4.00968e-05
4.00948e-05
4.00937e-05
4.00931e-05
4.00925e-05
4.0092e-05
4.00916e-05
4.00913e-05
4.0091e-05
4.00909e-05
4.00908e-05
4.00907e-05
4.00908e-05
4.00909e-05
4.0091e-05
4.00911e-05
4.00911e-05
4.00912e-05
4.00912e-05
4.00913e-05
4.00912e-05
4.00911e-05
4.00907e-05
4.00901e-05
4.00893e-05
4.00882e-05
4.00868e-05
4.00852e-05
4.00832e-05
4.00809e-05
4.0078e-05
4.0074e-05
4.0069e-05
4.00629e-05
4.00568e-05
4.00516e-05
4.00468e-05
4.00409e-05
4.00338e-05
4.00262e-05
0.0288021
0.0805946
0.142755
0.202444
0.254367
0.296373
0.327543
0.348312
0.360999
0.369294
0.373922
0.366826
0.339706
0.286432
0.206134
0.112225
0.0374631
0.00171462
0.000475558
0
0
0
7.38561e-06
3.00175e-05
4.32638e-05
4.24596e-05
4.02401e-05
3.98891e-05
4.0076e-05
4.01199e-05
4.00986e-05
4.00943e-05
4.00972e-05
4.00969e-05
4.00952e-05
4.00943e-05
4.00937e-05
4.00932e-05
4.00928e-05
4.00925e-05
4.00922e-05
4.00921e-05
4.0092e-05
4.00919e-05
4.0092e-05
4.00921e-05
4.00922e-05
4.00923e-05
4.00924e-05
4.00924e-05
4.00925e-05
4.00925e-05
4.00925e-05
4.00924e-05
4.0092e-05
4.00915e-05
4.00907e-05
4.00896e-05
4.00882e-05
4.00865e-05
4.00846e-05
4.00823e-05
4.00794e-05
4.00754e-05
4.00704e-05
4.00643e-05
4.0058e-05
4.00528e-05
4.00479e-05
0.00285988
0.0268981
0.0767849
0.138061
0.197838
0.250359
0.293279
0.325562
0.347375
0.360545
0.368264
0.372901
0.366975
0.342061
0.291511
0.214082
0.12238
0.0435624
0.00322043
0.000901583
0
0
0
6.33675e-06
2.52543e-05
4.27577e-05
4.31329e-05
4.02838e-05
3.96706e-05
3.9997e-05
4.014e-05
4.01176e-05
4.00962e-05
4.00955e-05
4.00967e-05
4.00959e-05
4.0095e-05
4.00945e-05
4.00941e-05
4.00938e-05
4.00935e-05
4.00933e-05
4.00932e-05
4.00932e-05
4.00932e-05
4.00933e-05
4.00934e-05
4.00935e-05
4.00937e-05
4.00937e-05
4.00938e-05
4.00938e-05
4.00938e-05
4.00937e-05
4.00934e-05
4.00929e-05
4.00921e-05
4.0091e-05
4.00896e-05
4.0088e-05
4.0086e-05
4.00837e-05
4.00808e-05
4.00769e-05
4.00719e-05
4.00657e-05
0.000339323
0.00133071
0.0214488
0.0671857
0.127168
0.187778
0.241977
0.286862
0.321155
0.344726
0.35894
0.366668
0.371444
0.366909
0.344536
0.297208
0.223216
0.132883
0.0512269
0.0063711
0.0017389
0
0
0
4.35134e-06
1.66405e-05
4.06118e-05
4.41973e-05
4.09699e-05
3.96659e-05
3.98868e-05
4.01183e-05
4.01287e-05
4.01011e-05
4.00954e-05
4.00968e-05
4.00967e-05
4.00959e-05
4.00954e-05
4.00951e-05
4.00948e-05
4.00946e-05
4.00945e-05
4.00945e-05
4.00945e-05
4.00946e-05
4.00947e-05
4.00949e-05
4.0095e-05
4.00951e-05
4.00951e-05
4.00952e-05
4.00952e-05
4.00951e-05
4.00948e-05
4.00943e-05
4.00935e-05
4.00925e-05
4.00911e-05
4.00895e-05
4.00875e-05
4.00852e-05
0
1.3024e-05
0.00364441
0.0146599
0.0543148
0.111582
0.172966
0.229519
0.277224
0.314342
0.340416
0.356438
0.365262
0.370085
0.366833
0.347086
0.303318
0.232956
0.144031
0.060189
0.0108053
0.00290106
7.87341e-06
0
0
1.62076e-06
5.10228e-06
3.50516e-05
4.3894e-05
4.16846e-05
3.98681e-05
3.98341e-05
4.00841e-05
4.013e-05
4.01053e-05
4.00964e-05
4.00974e-05
4.00976e-05
4.00969e-05
4.00964e-05
4.00962e-05
4.0096e-05
4.00959e-05
4.00958e-05
4.00959e-05
4.0096e-05
4.00961e-05
4.00962e-05
4.00964e-05
4.00965e-05
4.00966e-05
4.00966e-05
4.00967e-05
4.00966e-05
4.00963e-05
4.00958e-05
4.00951e-05
1.89496e-08
0
0
0.00226433
0.00904846
0.0400921
0.0927774
0.15413
0.213231
0.264385
0.30508
0.334448
0.353123
0.36352
0.368563
0.366614
0.349559
0.309485
0.242725
0.155578
0.0700726
0.0164006
0.000296164
6.77006e-05
0
0
1.64805e-07
7.76459e-06
3.1152e-05
4.3027e-05
4.21594e-05
4.01111e-05
3.98204e-05
4.0054e-05
4.01273e-05
4.01076e-05
4.00969e-05
4.00981e-05
4.00989e-05
4.00983e-05
4.00978e-05
4.00975e-05
4.00973e-05
4.00972e-05
4.00973e-05
4.00974e-05
4.00975e-05
4.00977e-05
4.00978e-05
4.0098e-05
2.24353e-06
6.33889e-07
0
0
0.00100981
0.00392289
0.0264142
0.0722532
0.13204
0.193354
0.248358
0.293298
0.326678
0.348661
0.361112
0.366645
0.366076
0.351791
0.315465
0.252409
0.167339
0.0810238
0.022784
0.00598201
2.91534e-05
0
0
0
6.76123e-06
2.70253e-05
4.18921e-05
4.25239e-05
4.03404e-05
3.98126e-05
4.003e-05
4.01305e-05
4.01123e-05
4.0097e-05
)
;

boundaryField
{
    inlet
    {
        type            freestream;
        freestreamValue uniform 4e-05;
        value           nonuniform List<scalar> 
11
(
4.00603e-05
4.00606e-05
4.00608e-05
4.00609e-05
4.00609e-05
4.00608e-05
4.0061e-05
4.00615e-05
4.00624e-05
4.00631e-05
4.00634e-05
)
;
    }
    outlet
    {
        type            freestream;
        freestreamValue nonuniform List<scalar> 0();
        value           nonuniform List<scalar> 0();
    }
    walls
    {
        type            fixedValue;
        value           uniform 0;
    }
    frontAndBack
    {
        type            empty;
    }
    procBoundary6to2
    {
        type            processor;
        value           nonuniform List<scalar> 
13
(
0.126263
0.149207
0.150347
0.134096
0.10326
0.0638845
0.0250885
0.00276074
0.000717724
0
0
8.14364e-06
3.48928e-05
)
;
    }
    procBoundary6to3
    {
        type            processor;
        value           uniform 3.98811e-05;
    }
    procBoundary6to5
    {
        type            processor;
        value           nonuniform List<scalar> 
86
(
0.0929337
0.15894
0.202508
0.191699
0.122122
0.0367208
0.00133977
0.000309945
0
5.28685e-07
2.43395e-06
3.65014e-05
4.42339e-05
4.09418e-05
3.90588e-05
3.95074e-05
4.02308e-05
4.04373e-05
4.03085e-05
4.01442e-05
4.00615e-05
4.00472e-05
4.00588e-05
4.00706e-05
4.00758e-05
4.00764e-05
4.00755e-05
4.00746e-05
4.00741e-05
4.00739e-05
4.00739e-05
4.00739e-05
4.00741e-05
4.00741e-05
4.00731e-05
4.00734e-05
4.00737e-05
4.00741e-05
4.00745e-05
4.00749e-05
4.00753e-05
4.00758e-05
4.00762e-05
4.00766e-05
4.0077e-05
4.00774e-05
4.00774e-05
4.0077e-05
4.00772e-05
4.00773e-05
4.00774e-05
4.00773e-05
4.00772e-05
4.00768e-05
4.00764e-05
4.00757e-05
4.00757e-05
4.00738e-05
4.00727e-05
4.00714e-05
4.00698e-05
4.00681e-05
4.00661e-05
4.00635e-05
4.00635e-05
4.00588e-05
4.00547e-05
4.005e-05
4.00452e-05
4.00403e-05
4.00354e-05
4.00307e-05
4.00307e-05
4.00249e-05
4.002e-05
4.00151e-05
4.00103e-05
4.00063e-05
4.00072e-05
4.00125e-05
4.00187e-05
4.00259e-05
4.00259e-05
4.00316e-05
4.00412e-05
4.00596e-05
)
;
    }
    procBoundary6to7
    {
        type            processor;
        value           nonuniform List<scalar> 
91
(
4.00639e-05
4.00639e-05
4.00653e-05
4.00653e-05
4.00292e-05
4.00292e-05
4.00255e-05
4.00087e-05
4.00255e-05
4.00129e-05
4.00182e-05
4.00087e-05
4.00101e-05
4.00419e-05
4.00348e-05
4.00182e-05
4.0027e-05
4.00593e-05
4.0054e-05
4.00419e-05
4.00491e-05
4.00824e-05
4.00785e-05
4.00734e-05
4.00593e-05
4.00672e-05
4.00941e-05
4.00927e-05
4.00911e-05
4.00891e-05
4.00824e-05
4.00868e-05
4.00981e-05
4.00981e-05
4.00982e-05
4.00981e-05
4.00979e-05
4.00974e-05
4.00941e-05
4.00967e-05
4.00974e-05
4.00989e-05
4.0099e-05
4.0099e-05
4.00989e-05
4.00988e-05
4.00987e-05
4.00988e-05
4.0099e-05
4.00992e-05
4.00993e-05
4.00981e-05
4.00995e-05
9.19557e-06
2.37848e-06
0
0
0.000165848
0.000535011
0.0151897
0.0519569
0.107637
0.170078
0.228936
0.278619
0.316657
0.342574
0.357598
0.36405
0.364853
0.353318
0.320793
0.261611
0.179119
0.0919669
0.0292031
0.00108737
0.00031692
0
0
0
5.62825e-06
2.23146e-05
4.0775e-05
4.3014e-05
4.06075e-05
3.97685e-05
3.99785e-05
4.01314e-05
4.00974e-05
4.01236e-05
)
;
    }
}


// ************************************************************************* //
