/*--------------------------------*- C++ -*----------------------------------*\
| =========                 |                                                 |
| \\      /  F ield         | OpenFOAM: The Open Source CFD Toolbox           |
|  \\    /   O peration     | Version:  2506                                  |
|   \\  /    A nd           | Website:  www.openfoam.com                      |
|    \\/     M anipulation  |                                                 |
\*---------------------------------------------------------------------------*/
FoamFile
{
    version     2.0;
    format      ascii;
    arch        "LSB;label=32;scalar=64";
    class       surfaceScalarField;
    location    "250";
    object      phi;
}
// * * * * * * * * * * * * * * * * * * * * * * * * * * * * * * * * * * * * * //

dimensions      [0 3 -1 0 0 0 0];

oriented        oriented;

internalField   nonuniform List<scalar> 
2577
(
0.114471
0.0125945
0.0959738
0.018499
0.0676869
0.0282929
0.0665203
0.00116629
0.153497
0.0277506
0.133748
0.03825
0.100038
0.0620105
0.0718184
0.0293989
0.19264
0.048909
0.167789
0.0631004
0.130295
0.0995058
0.0876624
0.0720272
0.237867
0.0776396
0.206368
0.0945999
0.163682
0.142197
0.113056
0.122663
0.28802
0.111426
0.250001
0.132619
0.20145
0.190748
0.145082
0.179026
0.333791
0.138338
0.295677
0.170734
0.243284
0.243144
0.182192
0.240125
0.361714
0.152275
0.334464
0.197983
0.286044
0.291564
0.223051
0.303114
0.374485
0.162606
0.359145
0.213324
0.32336
0.327352
0.264756
0.361723
0.386829
0.17715
0.374282
0.22587
0.351132
0.350502
0.302511
0.410339
0.405605
0.19539
0.389289
0.242186
0.371459
0.368336
0.332419
0.449382
0.428802
0.214531
0.408528
0.262459
0.389933
0.386931
0.355131
0.48418
0.453343
0.233507
0.431329
0.284473
0.410198
0.408065
0.375755
0.518625
0.47824
0.252602
0.455913
0.306799
0.433018
0.43096
0.398248
0.553392
0.503928
0.272274
0.481386
0.329342
0.457774
0.454574
0.423271
0.587896
0.530883
0.29269
0.507891
0.352331
0.483891
0.478574
0.45026
0.621525
0.559392
0.313795
0.535704
0.37602
0.511284
0.502996
0.478683
0.654127
0.589451
0.335565
0.565088
0.40038
0.540127
0.527958
0.508415
0.685836
0.62115
0.35789
0.596142
0.425388
0.57054
0.553562
0.539597
0.716779
0.654501
0.380781
0.628925
0.450961
0.602722
0.579766
0.572414
0.747086
0.689611
0.404209
0.663513
0.47706
0.636747
0.606534
0.606987
0.776846
0.72656
0.428119
0.699994
0.503622
0.672692
0.633838
0.643442
0.806094
0.765423
0.452494
0.738432
0.530614
0.710651
0.66162
0.681833
0.834912
0.806336
0.477239
0.778972
0.557975
0.750707
0.689887
0.722276
0.863341
0.849306
0.502456
0.82166
0.585621
0.793002
0.718546
0.764872
0.891471
0.894676
0.527825
0.86665
0.613644
0.837591
0.747607
0.809739
0.919321
0.942211
0.553597
0.913966
0.641889
0.884665
0.776908
0.856983
0.947003
0.992185
0.579421
0.96392
0.670153
0.934151
0.806679
0.906753
0.9744
1.04487
0.605369
1.01622
0.698794
0.986407
0.836497
0.959173
1.00163
1.10007
0.631514
1.07167
0.727194
1.04145
0.866714
1.01418
1.0289
1.15818
0.657647
1.12953
0.755841
1.09938
0.896864
1.07233
1.05595
1.21931
0.683554
1.19074
0.784401
1.16031
0.9273
1.13335
1.08291
1.28327
0.709597
1.255
0.812672
1.22461
0.957692
1.19747
1.11005
1.35087
0.735147
1.32239
0.841155
1.29196
0.988121
1.2652
1.13681
1.44708
0.675839
1.42151
0.760711
1.39343
0.869237
1.36302
1.01854
1.33626
1.16357
1.52123
0.698195
1.49585
0.786092
1.46808
0.897007
1.43759
1.04902
1.41099
1.19016
1.59899
0.720486
1.57398
0.811106
1.54629
0.924694
1.51605
1.07926
1.48965
1.21656
1.68074
0.7424
1.65613
0.835713
1.62884
0.951983
1.59862
1.10949
1.57232
1.24286
1.76672
0.763914
1.74228
0.860158
1.71515
0.979114
1.68512
1.13952
1.65923
1.26875
1.8569
0.785156
1.83292
0.884141
1.80626
1.00578
1.77631
1.16946
1.75047
1.29459
1.95181
0.806118
1.92816
0.907785
1.90171
1.03223
1.87202
1.19915
1.8464
1.32022
2.05139
0.826942
2.02824
0.930938
2.00215
1.05832
1.97246
1.22885
1.94722
1.34546
2.15647
0.847215
2.13353
0.953883
2.10766
1.08418
2.07828
1.25823
2.05333
1.3704
2.26673
0.86737
2.24397
0.976638
2.21864
1.10951
2.18913
1.28774
2.16464
1.39489
2.38281
0.887295
2.3604
0.99905
2.33528
1.13463
2.30608
1.31694
2.28165
1.41933
2.50484
0.907016
2.48287
1.02102
2.4577
1.15981
2.42867
1.34597
2.40473
1.44326
2.65316
0.828265
2.63348
0.926696
2.61137
1.04314
2.5868
1.18438
2.55765
1.37511
2.53409
1.46683
2.78836
0.846183
2.76882
0.946233
2.74696
1.065
2.72228
1.20905
2.69314
1.40426
2.66994
1.49003
2.93096
0.86413
2.91125
0.965945
2.88958
1.08667
2.86504
1.23358
2.83588
1.43342
2.81292
1.51299
3.08092
0.882281
3.06141
0.985459
3.03964
1.10844
3.01505
1.25818
2.98599
1.46248
2.96311
1.53586
3.23931
0.90068
3.21939
1.00538
3.19761
1.13022
3.17322
1.28256
3.14368
1.49203
3.12128
1.55827
3.40596
0.919362
3.38601
1.02534
3.36416
1.15207
3.33938
1.30734
3.30984
1.52157
3.2875
1.58061
3.58163
0.938395
3.56147
1.04549
3.53937
1.17418
3.51457
1.33214
3.48445
1.55169
3.46242
1.60264
3.76699
0.957798
3.74644
1.06604
3.7239
1.19672
3.69886
1.35718
3.66856
1.58199
3.64652
1.62468
3.96239
0.977751
3.94123
1.0872
3.91863
1.21932
3.89306
1.38274
3.86221
1.61284
3.84014
1.64674
4.18861
0.901182
4.16818
0.99818
4.14669
1.10869
4.12354
1.24248
4.09763
1.40865
4.06608
1.64439
4.0442
1.66862
4.40648
0.921695
4.38528
1.01938
4.36335
1.13062
4.3395
1.26633
4.31307
1.43508
4.28089
1.67657
4.25877
1.69075
4.63605
0.943
4.61416
1.04128
4.59152
1.15326
4.56714
1.29072
4.54018
1.46203
4.50716
1.70959
4.48487
1.71303
4.87822
0.965131
4.85559
1.06391
4.83218
1.17667
4.80713
1.31577
4.77937
1.48979
4.74548
1.74349
4.72299
1.73552
5.13358
0.988135
5.11016
1.08732
5.08581
1.20102
5.06014
1.34145
5.03147
1.51845
4.99663
1.77832
4.97375
1.75839
5.40288
1.01233
5.3784
1.11181
5.3533
1.22612
5.32659
1.36815
5.29716
1.54788
5.26121
1.81428
5.2379
1.78171
5.68702
1.03734
5.66153
1.1373
5.63552
1.25212
5.60782
1.39585
5.57737
1.57834
5.53996
1.85169
5.51631
1.80535
6.01274
0.970515
5.98647
1.06361
5.95994
1.16383
5.9327
1.27936
5.90412
1.42444
5.87241
1.61005
5.83386
1.89024
5.80956
1.82966
6.32996
0.997591
6.30251
1.09106
6.27474
1.1916
6.24651
1.30759
6.21657
1.45437
6.18384
1.64277
6.14359
1.93049
6.11857
1.85468
6.66447
1.02612
6.63566
1.11988
6.60677
1.22049
6.5772
1.33716
6.546
1.48557
6.51192
1.67686
6.47015
1.97226
6.44447
1.88037
7.01782
1.05587
6.98773
1.14996
6.95673
1.25149
6.92564
1.36824
6.8934
1.5178
6.85762
1.71264
6.8144
2.01548
6.78778
1.90698
7.38927
1.08846
7.35774
1.1815
7.32707
1.28216
7.29432
1.401
7.26018
1.55195
7.22267
1.75015
7.1774
2.06075
7.14952
1.93486
7.78326
1.12054
7.74972
1.21504
7.71583
1.31604
7.68255
1.43428
7.6466
1.58789
7.60862
1.78813
7.56021
2.10916
7.53205
1.96302
5.72277
1.1116
5.73489
1.20292
5.75135
1.29958
5.77314
1.41249
5.79968
1.56136
5.83031
1.7575
5.86978
2.06968
5.9006
1.93221
6.27847
1.01947
6.28736
1.10271
6.30083
1.18945
6.31996
1.28045
6.34313
1.38932
6.37103
1.53347
6.40681
1.72171
6.44856
2.02794
6.4823
1.89846
6.89866
1.01549
6.9074
1.09396
6.92337
1.17348
6.94377
1.26005
6.96951
1.36358
7.00126
1.50172
7.03817
1.6848
7.08596
1.98015
7.12252
1.8619
7.57926
1.01061
7.59029
1.08293
7.60603
1.15774
7.62886
1.23721
7.65708
1.33537
7.6912
1.4676
7.73431
1.64169
7.78401
1.93045
7.82713
1.81878
8.32686
1.00625
8.33874
1.07105
8.35804
1.13845
8.38185
1.2134
8.41235
1.30486
8.45138
1.42857
8.49793
1.59514
8.55471
1.87368
8.5993
1.77419
9.14963
1.00137
9.16217
1.05851
9.18219
1.11843
9.20941
1.18618
9.24339
1.27088
9.28581
1.38615
9.33559
1.54536
9.39885
1.81042
9.44807
1.72497
10.0532
0.994684
10.0676
1.04411
10.0896
1.09646
10.1201
1.15565
10.1587
1.2323
10.2044
1.34048
10.26
1.48978
10.3291
1.74128
10.3842
1.66985
11.0443
0.988012
11.0601
1.02825
11.0837
1.07289
11.116
1.12335
11.1577
1.19062
11.2089
1.2892
11.271
1.42775
11.345
1.66728
11.4055
1.60928
12.1422
0.980914
12.1586
1.01193
12.1865
1.04494
12.2232
1.08671
12.2692
1.14455
12.3249
1.2335
12.3931
1.35958
12.4789
1.58148
12.5477
1.54045
13.3289
0.972309
13.3484
0.992434
13.3772
1.01609
13.4176
1.0463
13.4675
1.09465
13.5293
1.17175
13.6021
1.2868
13.69
1.49355
13.7608
1.46965
14.6667
0.582706
14.6766
0.962427
14.6985
0.970556
14.7335
0.981075
14.7774
1.00244
14.8334
1.03863
14.9033
1.10189
14.9903
1.19979
15.0989
1.38492
15.1877
1.38081
16.0639
0.531304
16.0721
0.954188
16.0946
0.948081
16.1281
0.947541
16.1761
0.954473
16.2375
0.977231
16.31
1.02937
16.3953
1.11455
16.4936
1.28659
16.5736
1.30082
17.7799
17.7982
17.8307
17.8778
17.938
18.012
18.1035
18.217
18.3665
18.4863
0.0920465
0.136094
0.0450675
0.118791
0.0147856
0.117948
-0.00369596
0.131535
-0.0140857
0.155475
-0.0187486
0.186855
-0.0194138
0.223718
-0.0185484
0.263892
-0.019684
0.303648
-0.0251916
0.337928
-0.033578
0.363519
-0.0414671
0.383645
-0.0473459
0.404127
-0.051148
0.427074
-0.0530483
0.45216
-0.0532048
0.47884
-0.0517619
0.506972
-0.0488383
0.536674
-0.0445546
0.56813
-0.039039
0.601471
-0.0324192
0.636822
-0.0248018
0.674215
-0.0163051
0.713779
-0.00702027
0.755587
0.00296545
0.799753
0.0136146
0.846334
0.0248614
0.895505
0.036626
0.947408
0.0488365
1.00197
0.0614362
1.05973
0.0743682
1.12041
0.087583
1.18425
0.101035
1.25175
0.114678
1.32261
0.128463
1.39721
0.142342
1.47577
0.156267
1.55839
0.170186
1.64531
0.184045
1.73661
0.197793
1.83265
0.211371
1.93364
0.22475
2.03995
0.237859
2.15153
0.250659
2.26885
0.263108
2.39228
0.275166
2.52203
0.2868
2.65831
0.297981
2.80174
0.308684
2.9524
0.318893
3.11107
0.328581
3.27781
0.337776
3.45323
0.346441
3.63785
0.354586
3.832
0.36222
4.03656
0.36935
4.25164
0.375989
4.47824
0.382152
4.71683
0.387856
4.96805
0.393104
5.23265
0.397959
5.51146
0.402398
5.80512
0.406457
6.11451
0.410158
6.44077
0.413522
6.78442
0.41657
7.14647
0.419323
7.5293
0.421184
5.89874
0.42299
6.48049
0.424693
7.12081
0.42636
7.82546
0.427837
8.59783
0.429286
9.44662
0.430486
10.383
0.431561
11.4045
0.43261
12.5467
0.432662
13.7607
0.434571
15.1858
0.43132
16.5768
0.146918
0.16712
0.109242
0.156464
0.0763318
0.150859
0.0531645
0.154699
0.0398214
0.16882
0.0347984
0.191876
0.0365907
0.221927
0.0434898
0.256991
0.0527652
0.294375
0.0605836
0.330108
0.0643266
0.359777
0.0651839
0.382787
0.0653947
0.403918
0.0654791
0.426989
0.0653339
0.452306
0.0650211
0.479152
0.0647232
0.507271
0.0646257
0.536771
0.0648921
0.567864
0.065651
0.600713
0.0670057
0.635467
0.0690456
0.672176
0.0718244
0.711
0.0753965
0.752015
0.0797738
0.795376
0.0849467
0.841161
0.0908976
0.889554
0.0976197
0.940686
0.105073
0.994517
0.113231
1.05158
0.122041
1.1116
0.13145
1.17485
0.1414
1.2418
0.151835
1.31218
0.16269
1.38635
0.173913
1.46455
0.185421
1.54688
0.197169
1.63357
0.209087
1.72469
0.221121
1.82062
0.233194
1.92157
0.245244
2.0279
0.257227
2.13955
0.269079
2.257
0.280744
2.38062
0.292173
2.5106
0.30332
2.64716
0.314142
2.79092
0.324603
2.94194
0.334671
3.101
0.344333
3.26815
0.353533
3.44403
0.362291
3.62909
0.370585
3.8237
0.378411
4.02874
0.385768
4.24428
0.39266
4.47134
0.399095
4.7104
0.405081
4.96206
0.410645
5.22708
0.415774
5.50633
0.420485
5.80041
0.424822
6.11017
0.428792
6.4368
0.432414
6.7808
0.435707
7.14318
0.438691
7.52631
0.440715
5.89671
0.442685
6.47852
0.444578
7.11892
0.446378
7.82366
0.448038
8.59617
0.449611
9.44505
0.450951
10.3817
0.45218
11.4032
0.453345
12.5455
0.453522
13.7606
0.455536
15.1838
0.190906
0.185197
0.165952
0.181415
0.139134
0.177678
0.116083
0.177748
0.100235
0.184668
0.0923433
0.199765
0.0915757
0.222696
0.0963996
0.252165
0.104602
0.286173
0.112841
0.321867
0.117443
0.355176
0.117679
0.382548
0.116541
0.405057
0.116243
0.427285
0.116809
0.451741
0.117722
0.478238
0.11883
0.506164
0.120155
0.535446
0.12172
0.566299
0.123545
0.598887
0.12564
0.633373
0.128013
0.669803
0.130706
0.708307
0.133742
0.748979
0.137174
0.791943
0.141025
0.83731
0.14535
0.88523
0.150163
0.935873
0.15551
0.98917
0.161393
1.04569
0.167836
1.10516
0.174833
1.16785
0.182379
1.23425
0.190444
1.30411
0.199001
1.3778
0.20801
1.45554
0.217437
1.53746
0.22723
1.62377
0.237334
1.71459
0.247693
1.81026
0.258249
1.91101
0.268951
2.0172
0.279723
2.12877
0.290503
2.24622
0.301253
2.36987
0.311916
2.49994
0.322421
2.63665
0.332727
2.78061
0.342789
2.93188
0.352554
3.09123
0.36201
3.25869
0.371113
3.43492
0.379838
3.62037
0.388178
3.81536
0.396094
4.02082
0.403587
4.23679
0.410653
4.46428
0.417276
4.70377
0.423486
4.95585
0.429275
5.22129
0.434653
5.50095
0.439644
5.79542
0.44422
6.10559
0.448438
6.43258
0.452303
6.77693
0.455845
7.13964
0.459039
7.52312
0.461224
5.89453
0.463354
6.47639
0.465397
7.11688
0.467366
7.82169
0.46918
8.59435
0.470898
9.44333
0.472445
10.3801
0.473712
11.402
0.475147
12.5441
0.475313
13.7604
0.230446
0.196432
0.214823
0.197035
0.196129
0.196371
0.177409
0.196465
0.162257
0.199821
0.153246
0.208774
0.151245
0.224697
0.155671
0.247738
0.164908
0.276937
0.176236
0.310538
0.185718
0.345695
0.189749
0.378516
0.18862
0.406187
0.185841
0.430063
0.18372
0.453863
0.182379
0.479579
0.181397
0.507147
0.180687
0.536155
0.180357
0.56663
0.180459
0.598785
0.181024
0.632808
0.18204
0.668787
0.183504
0.706844
0.185409
0.747074
0.187758
0.789595
0.190552
0.834516
0.19378
0.882003
0.197459
0.932194
0.201589
0.98504
0.206183
1.0411
0.211226
1.10012
0.216741
1.16233
0.222723
1.22827
0.22917
1.29767
0.236073
1.37089
0.24342
1.44819
0.251189
1.52969
0.259356
1.61561
0.267887
1.70606
0.276744
1.8014
0.285883
1.90188
0.295258
2.00783
0.304818
2.11921
0.314508
2.23653
0.324277
2.3601
0.334069
2.49014
0.34383
2.62689
0.353507
2.77093
0.363051
2.92234
0.372427
3.08186
0.381558
3.24956
0.390439
3.42604
0.399037
3.61177
0.407287
3.80711
0.415201
4.01291
0.422747
4.22924
0.429913
4.45711
0.436701
4.69698
0.443068
4.94949
0.449052
5.21531
0.45464
5.49536
0.45984
5.79022
0.464673
6.10076
0.469109
6.42814
0.473204
6.77284
0.476957
7.13589
0.480386
7.51969
0.482731
5.89218
0.485022
6.4741
0.48723
7.11467
0.489359
7.81956
0.491345
8.59237
0.493222
9.44145
0.494921
10.3784
0.496316
11.4006
0.497949
12.5425
0.271769
0.204544
0.260431
0.208372
0.24618
0.210623
0.230357
0.212288
0.215291
0.214888
0.203688
0.220376
0.197683
0.230703
0.198163
0.247257
0.204739
0.270361
0.215874
0.299403
0.228748
0.332821
0.239408
0.367854
0.244643
0.400953
0.244925
0.42978
0.243357
0.455431
0.24207
0.480865
0.241269
0.507949
0.24056
0.536863
0.239882
0.567309
0.239339
0.599327
0.239033
0.633114
0.239002
0.668818
0.239274
0.706573
0.239877
0.746471
0.240845
0.788627
0.242205
0.833156
0.24398
0.880228
0.246189
0.929985
0.248845
0.982383
0.25196
1.03798
0.255537
1.09654
0.259581
1.15829
0.264093
1.22376
0.269067
1.29269
0.274497
1.36546
0.280374
1.44232
0.286685
1.52338
0.293412
1.60888
0.300541
1.69893
0.30802
1.79392
0.315842
1.89405
0.323965
1.9997
0.332346
2.11083
0.340942
2.22793
0.349706
2.35133
0.35859
2.48126
0.367543
2.61794
0.376513
2.76196
0.385452
2.9134
0.394309
3.073
0.403039
3.24083
0.411599
3.41748
0.419947
3.60342
0.428049
3.79901
0.435873
4.00508
0.443393
4.22172
0.450585
4.44992
0.457434
4.69013
0.463926
4.943
0.470053
5.20918
0.475811
5.4896
0.481198
5.78483
0.486217
6.09574
0.490876
6.42348
0.495184
6.76853
0.499151
7.13192
0.502806
7.51604
0.505291
5.8897
0.507757
6.47164
0.510116
7.11231
0.512408
7.81727
0.514563
8.59021
0.516584
9.43943
0.518468
10.3765
0.520018
0.313322
0.210301
0.3048
0.216894
0.293586
0.221838
0.280255
0.225618
0.266084
0.229059
0.25299
0.233469
0.243247
0.240447
0.238707
0.251796
0.240267
0.268802
0.247623
0.292046
0.25934
0.321105
0.272609
0.354585
0.283669
0.389893
0.289626
0.423822
0.290838
0.45422
0.290016
0.481687
0.289239
0.508726
0.288916
0.537185
0.288744
0.567482
0.288594
0.599477
0.288509
0.633199
0.288585
0.668742
0.288838
0.70632
0.289288
0.746021
0.289932
0.787983
0.290822
0.832266
0.291981
0.879069
0.293438
0.928528
0.295222
0.9806
0.297358
1.03585
0.299879
1.09402
0.302787
1.15538
0.3061
1.22045
0.309843
1.28895
0.314017
1.36129
0.318622
1.43771
0.323664
1.51833
0.329118
1.60343
0.334971
1.69308
0.341222
1.78767
0.347841
1.88743
0.354802
1.99274
0.362072
2.10356
0.369627
2.22038
0.377407
2.34355
0.38537
2.4733
0.393492
2.60982
0.401716
2.75374
0.409994
2.90512
0.418279
3.06471
0.426535
3.23258
0.434693
3.40933
0.442711
3.5954
0.45057
3.79115
0.458224
3.99743
0.465638
4.21431
0.472785
4.44277
0.479641
4.68328
0.486198
4.93644
0.492415
5.20297
0.498281
5.48374
0.503815
5.7793
0.509001
6.09056
0.513854
6.41863
0.518353
6.76403
0.522502
7.12777
0.52634
7.5122
0.529003
5.88703
0.531594
6.46904
0.534127
7.10978
0.536596
7.8148
0.538921
8.58789
0.54109
0.354688
0.213789
0.34876
0.222821
0.340255
0.230343
0.329403
0.23647
0.316861
0.241601
0.303811
0.246519
0.291974
0.252283
0.283339
0.260432
0.279631
0.27251
0.281755
0.289921
0.289527
0.313333
0.301557
0.342555
0.315139
0.376311
0.326678
0.412284
0.333407
0.447491
0.335349
0.479744
0.334863
0.509212
0.334116
0.537932
0.333778
0.56782
0.333668
0.599586
0.333624
0.633244
0.333665
0.6687
0.333852
0.706133
0.334208
0.745665
0.33474
0.787452
0.33546
0.831545
0.336387
0.878142
0.337542
0.927373
0.338945
0.979197
0.340617
1.03418
0.342578
1.09206
0.344848
1.15311
0.347447
1.21785
0.350393
1.286
0.353701
1.35798
0.357383
1.43403
0.361448
1.51427
0.365898
1.59897
0.370734
1.68824
0.375949
1.78246
0.381534
1.88185
0.387472
1.98681
0.393743
2.09729
0.400321
2.2138
0.407178
2.3367
0.414278
2.4662
0.421584
2.60251
0.429057
2.74626
0.436653
2.89753
0.444329
3.05704
0.452039
3.22487
0.459739
3.40163
0.467385
3.58776
0.474935
3.7836
0.482349
3.99002
0.489589
4.20707
0.496623
4.43574
0.503421
4.67648
0.509956
4.9299
0.516209
5.19671
0.522161
5.47779
0.527798
5.77366
0.533113
6.08524
0.538102
6.41364
0.542764
6.75937
0.547101
7.12344
0.551121
7.50818
0.553908
5.88425
0.55666
6.46629
0.559363
0.56196
0.395697
0.215369
0.392242
0.226276
0.386379
0.236206
0.378064
0.244785
0.367551
0.252114
0.355546
0.258523
0.343146
0.264684
0.331937
0.27164
0.323763
0.280684
0.320309
0.293376
0.322536
0.311106
0.33037
0.33472
0.342525
0.364156
0.356427
0.398382
0.368658
0.43526
0.376385
0.472017
0.37925
0.506347
0.379231
0.537951
0.378541
0.56851
0.378179
0.599948
0.378115
0.633308
0.378139
0.668676
0.378227
0.706045
0.378414
0.745477
0.378763
0.787104
0.379247
0.831061
0.37992
0.877469
0.380771
0.926522
0.38183
0.978138
0.383106
1.0329
0.384636
1.09053
0.386428
1.15132
0.38851
1.21577
0.390876
1.28364
0.393553
1.3553
0.396554
1.43103
0.399879
1.51094
0.403557
1.5953
0.407584
1.68421
0.411972
1.77807
0.416699
1.87712
0.421769
1.98174
0.427171
2.09189
0.43288
2.20809
0.438896
2.33068
0.445194
2.4599
0.451726
2.59598
0.458468
2.73952
0.465386
2.89061
0.472428
3.05
0.479578
3.21772
0.486782
3.39442
0.493998
3.58054
0.501196
3.7764
0.508312
3.9829
0.515318
4.20006
0.522178
4.42888
0.528846
4.66981
0.535316
4.92343
0.54155
5.19048
0.547538
5.4718
0.553235
5.76796
0.558625
6.07985
0.563728
6.40854
0.568524
6.75457
0.573026
7.11893
0.577193
0.580107
0.43611
0.215888
0.434665
0.227721
0.431414
0.239457
0.425782
0.250417
0.417718
0.260179
0.40751
0.268731
0.395819
0.276375
0.383713
0.283747
0.372685
0.291711
0.364518
0.301543
0.360855
0.314769
0.362795
0.33278
0.370367
0.356584
0.38245
0.386299
0.396593
0.421116
0.409531
0.45908
0.418356
0.497522
0.422219
0.534088
0.422741
0.567988
0.42217
0.600518
0.421816
0.633662
0.421817
0.668676
0.421966
0.705896
0.422167
0.745276
0.422441
0.78683
0.422833
0.830669
0.423332
0.87697
0.423983
0.925872
0.424793
0.977328
0.425791
1.0319
0.426967
1.08935
0.428379
1.14991
0.430006
1.21414
0.431894
1.28175
0.43405
1.35315
0.436488
1.42859
0.439221
1.50821
0.442272
1.59225
0.445628
1.68086
0.449295
1.7744
0.453297
1.87312
0.457624
1.97741
0.462271
2.08724
0.467231
2.20313
0.472492
2.32542
0.478037
2.45435
0.483845
2.59017
0.489893
2.73347
0.496151
2.88435
0.5026
3.04355
0.509168
3.21115
0.515867
3.38772
0.522622
3.57379
0.529393
3.76963
0.536165
3.97613
0.542886
4.19334
0.549519
4.42225
0.55604
4.66329
0.562392
4.91708
0.568542
5.18433
0.57449
5.46585
0.5802
5.76225
0.585666
0.590832
0.595731
0.47653
0.216095
0.476138
0.228112
0.474922
0.240673
0.471997
0.253342
0.466763
0.265413
0.45904
0.276454
0.449128
0.286287
0.437649
0.295226
0.425639
0.303721
0.414502
0.312679
0.40601
0.323261
0.401832
0.336957
0.403192
0.355225
0.410277
0.379213
0.422123
0.409271
0.436473
0.444729
0.450106
0.483889
0.460014
0.52418
0.464925
0.563077
0.466021
0.599422
0.465569
0.634114
0.465189
0.669056
0.465202
0.705883
0.465457
0.745021
0.465752
0.786535
0.466105
0.830316
0.466544
0.876532
0.467092
0.925323
0.467765
0.976655
0.468576
1.03109
0.469553
1.08838
0.470682
1.14878
0.472011
1.21281
0.473547
1.28021
0.475306
1.35139
0.477305
1.42659
0.47957
1.50595
0.482081
1.58973
0.484882
1.67806
0.487973
1.77131
0.49136
1.86973
0.495049
1.97372
0.49904
2.08325
0.503343
2.19883
0.507929
2.32083
0.51279
2.44949
0.517933
2.58503
0.523331
2.72808
0.528961
2.87872
0.534798
3.03771
0.540827
3.20512
0.546978
3.38157
0.553254
3.56751
0.559607
3.76328
0.566001
3.96974
0.572397
4.18694
0.578757
4.41589
0.585047
0.59123
0.597287
0.603148
0.517816
0.216333
0.517671
0.228256
0.517423
0.240921
0.516491
0.254274
0.514
0.267904
0.509274
0.28118
0.502019
0.293543
0.492439
0.304805
0.481121
0.31504
0.469067
0.324733
0.457658
0.33467
0.448611
0.346004
0.443692
0.360144
0.444242
0.378663
0.45066
0.402852
0.462143
0.433246
0.476615
0.469418
0.490961
0.509834
0.50198
0.552058
0.50797
0.593432
0.509705
0.63238
0.509399
0.669362
0.508956
0.706325
0.50894
0.745037
0.509245
0.78623
0.509622
0.829939
0.510029
0.876125
0.5105
0.924852
0.511069
0.976087
0.511751
1.03041
0.512549
1.08758
0.513498
1.14783
0.514614
1.2117
0.515891
1.27894
0.517356
1.34992
0.519022
1.42493
0.520894
1.50407
0.523008
1.58762
0.525366
1.6757
0.52799
1.76869
0.530868
1.86685
0.53402
1.97057
0.537451
2.07982
0.541151
2.19513
0.545144
2.31684
0.549426
2.44521
0.553965
2.58049
0.558763
2.72328
0.563805
2.87368
0.569072
3.03244
0.574528
0.580173
0.585978
0.591888
0.59788
0.60392
0.560442
0.216551
0.56025
0.228448
0.56014
0.241031
0.560011
0.254403
0.559388
0.268527
0.557406
0.283163
0.553287
0.297661
0.546601
0.311491
0.53744
0.324201
0.526309
0.335864
0.514162
0.346818
0.502354
0.357812
0.492603
0.369895
0.486734
0.384532
0.486265
0.403322
0.491834
0.427677
0.502838
0.458415
0.517349
0.495323
0.532346
0.537061
0.544495
0.581283
0.551634
0.625241
0.554085
0.666911
0.553995
0.706415
0.553491
0.745541
0.553415
0.786306
0.553731
0.829623
0.554164
0.875691
0.554614
0.924402
0.555107
0.975594
0.555683
1.02983
0.556377
1.08689
0.557174
1.14703
0.55809
1.21078
0.559159
1.27787
0.560386
1.3487
0.561784
1.42353
0.56338
1.50248
0.565164
1.58584
0.56716
0.569369
0.571825
0.574526
0.577481
0.580705
0.58418
0.587906
0.591904
0.596157
0.600655
0.604493
0.604305
0.604126
0.604054
0.604004
0.603657
0.602213
0.598794
0.592786
0.584125
0.573231
0.560987
0.548723
0.53816
0.531223
0.529557
0.53408
0.544455
0.558911
0.574509
0.587767
0.596116
0.599384
0.599561
0.59901
0.59885
0.599174
0.599651
0.600141
0.600641
0.601222
0.601899
0.602697
0.603601
0.604637
0.605817
0.607145
)
;

boundaryField
{
    inlet
    {
        type            calculated;
        value           nonuniform List<scalar> 
11
(
0.471828
0.935839
0.915593
0.900404
0.894289
0.903214
0.937898
1.00111
1.13702
1.18102
0.435671
)
;
    }
    outlet
    {
        type            calculated;
        value           nonuniform List<scalar> 0();
    }
    walls
    {
        type            calculated;
        value           uniform 0;
    }
    frontAndBack
    {
        type            empty;
    }
    procBoundary6to2
    {
        type            processor;
        value           nonuniform List<scalar> 
13
(
-0.161608
-0.17794
-0.208982
-0.241683
-0.279878
-0.319078
-0.358175
-0.397277
-0.436628
-0.476737
-0.518053
-0.56066
-0.604657
)
;
    }
    procBoundary6to3
    {
        type            processor;
        value           uniform 0.216715;
    }
    procBoundary6to5
    {
        type            processor;
        value           nonuniform List<scalar> 
86
(
-0.127067
-0.168654
-0.213799
-0.266598
-0.321806
-0.360703
-0.375652
-0.384816
-0.401374
-0.423844
-0.447945
-0.472318
-0.497336
-0.523599
-0.5513
-0.580495
-0.611222
-0.643475
-0.677393
-0.713038
-0.750471
-0.789798
-0.831081
-0.874522
-0.920046
-0.967983
-1.01801
-1.07081
-1.12621
-1.18431
-1.24521
-1.30931
-1.37642
-0.65303
-1.46989
-1.54359
-1.62128
-1.70265
-1.78824
-1.87814
-1.97277
-2.07222
-2.17674
-2.28688
-2.40274
-2.52456
-0.810471
-2.67096
-2.80628
-2.9489
-3.09907
-3.25771
-3.42465
-3.60066
-3.78639
-3.98235
-0.881284
-4.20851
-4.427
-4.65736
-4.90035
-5.15659
-5.42707
-5.71203
-0.94458
-6.03867
-6.35704
-6.693
-7.04757
-7.42187
-7.81534
-5.71383
-1.02368
-6.27426
-6.89468
-7.57438
-8.3225
-9.14475
-10.0465
-11.0376
-12.1351
-13.3203
-0.632225
-14.6172
-16.0125
-17.7204
)
;
    }
    procBoundary6to7
    {
        type            processor;
        value           nonuniform List<scalar> 
91
(
18.482
0.452643
16.5797
0.477651
15.1815
0.498202
13.7602
11.399
0.521804
12.5407
9.43726
0.543146
10.3745
7.10707
7.81221
0.564453
8.58539
7.50401
5.88133
0.582996
6.4634
6.07438
6.40337
6.74967
0.600341
7.11432
4.657
4.9109
5.17827
5.45999
0.608826
5.75658
3.19966
3.37593
3.5617
3.75737
3.96374
4.1809
0.609973
4.40983
1.6737
1.76648
1.8644
1.96787
2.07687
2.1919
2.31336
2.44148
2.57649
2.71903
2.86918
0.605385
3.02771
0.228636
0.24121
0.254475
0.268576
0.28351
0.299105
0.31491
0.330209
0.344524
0.357713
0.370056
0.382159
0.395094
0.410259
0.429343
0.453891
0.484948
0.522605
0.565685
0.611983
0.658562
0.703146
0.745364
0.786858
0.829783
0.875367
0.923924
0.975104
1.02933
1.0863
1.14635
1.20998
1.27696
1.34766
1.42235
1.50115
0.608656
1.58433
)
;
    }
}


// ************************************************************************* //
