/*--------------------------------*- C++ -*----------------------------------*\
| =========                 |                                                 |
| \\      /  F ield         | OpenFOAM: The Open Source CFD Toolbox           |
|  \\    /   O peration     | Version:  2506                                  |
|   \\  /    A nd           | Website:  www.openfoam.com                      |
|    \\/     M anipulation  |                                                 |
\*---------------------------------------------------------------------------*/
FoamFile
{
    version     2.0;
    format      ascii;
    arch        "LSB;label=32;scalar=64";
    class       volScalarField;
    location    "250";
    object      turbulenceProperties:L;
}
// * * * * * * * * * * * * * * * * * * * * * * * * * * * * * * * * * * * * * //

dimensions      [0 1 0 0 0 0 0];

internalField   nonuniform List<scalar> 
1340
(
0.0628936
0.0637798
0.0646011
0.0648789
0.181805
0.186043
0.187156
0.18104
0.215973
0.233099
0.248658
0.244648
0.222161
0.246724
0.271894
0.279515
0.223912
0.249104
0.279331
0.296891
0.250581
0.256977
0.282193
0.303918
0.212013
0.311809
0.293714
0.307687
0.0831793
0.178115
0.336872
0.315473
0
0.0886675
0.295843
0.332403
0
0
0.142761
0.353969
0.457128
0
0.0496789
0.316483
0.229185
0
0.0358251
0.210257
0.0332315
2.28923
0.0222715
0.120402
0.0244682
0.687578
0.0466085
0.0606842
0.0252972
0.0342257
1.13405
0.0196119
0.027879
0.0259148
1.49684
0.0675868
0.0296959
0.0252942
0.492833
4.14941
0.0300617
0.0269676
0.04248
0.71609
0.0299805
0.0293341
0.02998
0.10906
0.0301271
0.0310181
0.0293841
0.0426833
0.030581
0.0318108
0.030834
0.0336424
0.0312228
0.0322877
0.0325363
0.0325946
0.0319483
0.03284
0.0338741
0.0335098
0.032715
0.0335573
0.0348959
0.0349217
0.0335208
0.0344063
0.0358299
0.0363734
0.0343815
0.0353467
0.0368151
0.0377832
0.0353087
0.0363579
0.0378907
0.0391895
0.0363101
0.0374402
0.0390562
0.0406308
0.0373937
0.0386018
0.0403097
0.0421299
0.0385631
0.0398479
0.0416484
0.0436925
0.0398235
0.041185
0.0430798
0.0453251
0.0411836
0.0426183
0.0446045
0.0470337
0.0426486
0.0441574
0.0462317
0.0488222
0.0429423
0.0442258
0.0458053
0.047968
0.0507006
0.0446015
0.0459235
0.0475696
0.0498161
0.0526756
0.0463903
0.047748
0.0494588
0.0517838
0.0547541
0.0483165
0.0497086
0.0514803
0.0538785
0.0569455
0.0503881
0.051813
0.0536416
0.0561073
0.0592581
0.0526147
0.05407
0.0559507
0.0584767
0.0617006
0.0550053
0.0564889
0.0584179
0.060996
0.0642823
0.0575688
0.0590784
0.061051
0.0636743
0.0670136
0.060315
0.0618484
0.0638597
0.0665203
0.0699047
0.0632537
0.0648088
0.0668542
0.0695448
0.0729661
0.066395
0.0679689
0.0700448
0.0727572
0.0762107
0.0697494
0.0713396
0.0734413
0.0761691
0.0796488
0.0720953
0.0733267
0.0749322
0.0770554
0.0797926
0.083293
0.0758967
0.0771376
0.0787559
0.0808976
0.0836388
0.0871563
0.0799428
0.0811935
0.0828228
0.0849796
0.0877194
0.0912513
0.0842447
0.0855046
0.0871438
0.0893134
0.0920482
0.0955917
0.0888129
0.0900827
0.0917307
0.09391
0.0966375
0.10019
0.0936583
0.0949378
0.0965944
0.0987828
0.1015
0.10506
0.0987927
0.100082
0.101747
0.103943
0.10665
0.110216
0.104226
0.105527
0.1072
0.109403
0.112099
0.115671
0.10997
0.111284
0.112965
0.115176
0.117862
0.121438
0.115011
0.116037
0.117364
0.119055
0.121274
0.123952
0.127532
0.121394
0.122438
0.12378
0.125482
0.127709
0.130382
0.133966
0.128119
0.129183
0.130542
0.132258
0.134496
0.137166
0.140754
0.135195
0.136281
0.137661
0.139394
0.141646
0.144317
0.147909
0.142631
0.143744
0.145147
0.1469
0.149168
0.151847
0.155444
0.150444
0.151584
0.153013
0.154788
0.157077
0.159769
0.163372
0.158665
0.159832
0.161286
0.163083
0.165392
0.168101
0.171706
0.166387
0.167346
0.168537
0.170012
0.171828
0.174154
0.176877
0.180476
0.175547
0.176534
0.17775
0.179246
0.181078
0.183416
0.18615
0.189729
0.18522
0.186247
0.187497
0.189023
0.190879
0.193233
0.195982
0.199536
0.195365
0.19645
0.197754
0.199328
0.201224
0.203611
0.206385
0.209914
0.206009
0.207177
0.208564
0.210215
0.212184
0.214641
0.217482
0.22103
0.216681
0.217917
0.219377
0.221103
0.223147
0.225695
0.228631
0.232257
0.226492
0.227789
0.229306
0.231084
0.233187
0.235817
0.238841
0.242358
0.234918
0.236092
0.23756
0.23923
0.241136
0.243362
0.246108
0.249309
0.252867
0.244414
0.245719
0.247353
0.249207
0.251303
0.253729
0.256666
0.260007
0.263363
0.255716
0.257255
0.259133
0.261243
0.263603
0.266312
0.269601
0.273531
0.277845
0.266072
0.26765
0.269601
0.271837
0.27437
0.277264
0.280655
0.284264
0.287129
0.282968
0.285092
0.287553
0.290264
0.293247
0.296677
0.300969
0.306632
0.313384
0.289086
0.290961
0.293278
0.295973
0.299003
0.302312
0.305738
0.308373
0.308544
0.321424
0.324398
0.327741
0.331459
0.335656
0.340773
0.348015
0.358706
0.373029
0.300031
0.301495
0.303416
0.305825
0.308489
0.311023
0.312205
0.310097
0.304936
0.33998
0.34024
0.341466
0.343703
0.346883
0.351347
0.357743
0.361588
0.368962
0.25867
0.261684
0.261624
0.261598
0.261751
0.26194
0.261736
0.259288
0.253596
0.250827
0.249736
0.250486
0.249747
0.248848
0.248089
0.247414
0.246469
0.243398
0.23848
0.238746
0.191987
0.208879
0.207406
0.206176
0.205459
0.204642
0.203561
0.201475
0.199702
0.215952
0.161673
0.298258
0.521013
0.36214
0.341623
0.336624
0.332677
0.329944
0.33229
0.342613
0.347094
0.268611
0.142967
0.0653627
0.0215589
0.125426
0
2.36195
0.239187
0.0517852
0.0371353
0.0352363
0.036105
0.037677
0.0393184
0.0408878
0.0424311
0.0439986
0.0456212
0.0473048
0.0490517
0.0508649
0.0527459
0.054704
0.0567466
0.0588787
0.0611116
0.0634536
0.0659137
0.0685027
0.0712324
0.0741141
0.0771565
0.0803773
0.0837854
0.0873938
0.0912174
0.095269
0.0995627
0.104112
0.108931
0.114035
0.119437
0.125152
0.131194
0.137578
0.144316
0.151424
0.158914
0.1668
0.175094
0.183823
0.193028
0.202785
0.213104
0.224188
0.235461
0.245424
0.256224
0.266032
0.282225
0.288434
0.321674
0.305547
0.395862
0.29756
0.390071
0.250957
0.247687
0.222972
0.234922
0.292433
0.474412
0.683749
0.475093
0.424002
0.403985
0.393264
0.39075
0.404724
0.456008
0.502752
0.265678
0.108712
0.0286425
0.124952
0
4.81244
0.484214
0.0721906
0.0473635
0.0436527
0.0440022
0.0453754
0.0468706
0.0482854
0.0496678
0.0510812
0.0525572
0.0540997
0.055709
0.057386
0.0591313
0.0609538
0.0628607
0.064856
0.0669517
0.0691547
0.0714747
0.0739222
0.0765092
0.0792472
0.0821444
0.0852205
0.0884838
0.0919472
0.0956273
0.0995373
0.103691
0.108105
0.112791
0.117767
0.123046
0.128644
0.134577
0.140858
0.147502
0.154525
0.161942
0.169765
0.178009
0.1867
0.195877
0.205616
0.215926
0.227005
0.238353
0.248421
0.259532
0.269137
0.286026
0.291443
0.326713
0.308198
0.404363
0.300359
0.39714
0.25414
0.251355
0.296288
0.333401
0.42112
0.689556
0.819173
0.552396
0.480655
0.450476
0.435853
0.434985
0.457484
0.53819
0.404008
0.120381
0.0892201
0.792783
0
14.4684
2.05538
0.116793
0.0636654
0.0557919
0.0552233
0.0562801
0.0574874
0.0585472
0.0595221
0.060509
0.0615657
0.0627086
0.0639443
0.0652761
0.0667047
0.0682393
0.0698861
0.0716488
0.0735372
0.0755547
0.0777116
0.080015
0.0824753
0.0851006
0.0878986
0.0908872
0.0940723
0.0974659
0.101083
0.104937
0.109039
0.113405
0.118046
0.122981
0.12822
0.13378
0.139675
0.145919
0.152527
0.159513
0.166892
0.174677
0.182882
0.191534
0.200666
0.210358
0.220622
0.231647
0.242999
0.25303
0.264346
0.273595
0.291002
0.295658
0.332138
0.312173
0.409251
0.30415
0.398258
0.256891
0.340082
0.371513
0.425523
0.541443
0.924589
0.930358
0.622019
0.533778
0.495148
0.477116
0.47625
0.495943
0.528645
0.0931834
0.0446422
0
0
0
1.59413
0.170661
0.0759433
0.0625147
0.0609194
0.0621115
0.0637656
0.0651768
0.0663565
0.0674603
0.0685764
0.0697349
0.0709524
0.0722403
0.0736065
0.0750667
0.0766324
0.0783132
0.0801203
0.0820603
0.0841451
0.0863827
0.0887831
0.0913542
0.0941054
0.0970518
0.100199
0.10356
0.107149
0.110975
0.115053
0.119395
0.124014
0.128926
0.134141
0.139677
0.145546
0.151761
0.158338
0.165289
0.172629
0.180373
0.188532
0.197132
0.206203
0.215827
0.226024
0.236968
0.248296
0.258181
0.269612
0.27844
0.296344
0.300187
0.337783
0.316304
0.413818
0.307735
0.399948
0.371557
0.400951
0.44082
0.507411
0.646534
1.12027
1.05182
0.696944
0.591312
0.544336
0.523083
0.521058
0.534578
0.514998
0.181295
0.0805515
0
0
1.53875e-07
1.42124e-05
0.105781
0.070256
0.0667227
0.0676757
0.0693312
0.0709337
0.0723195
0.0735817
0.0748408
0.0761435
0.0774983
0.0789071
0.0803751
0.0819135
0.0835347
0.0852506
0.0870727
0.0890106
0.0910786
0.0932874
0.0956481
0.0981719
0.10087
0.103757
0.106842
0.11014
0.113662
0.11742
0.121431
0.125705
0.130255
0.135099
0.140246
0.145713
0.151513
0.157659
0.164167
0.171049
0.178319
0.185992
0.19408
0.202608
0.211603
0.221143
0.23126
0.242109
0.253411
0.263154
0.274705
0.28314
0.301566
0.304599
0.343437
0.320201
0.418998
0.310714
0.395921
0.423336
0.456363
0.502266
0.577736
0.732319
1.25213
1.2061
0.777484
0.650969
0.594691
0.569042
0.56301
0.563084
0.532882
0.275149
0.127994
0
0
2.52541e-10
0.801605
0.1064
0.0762169
0.0766834
0.0791691
0.0807744
0.0819553
0.0830377
0.0840906
0.0851861
0.0863614
0.0876179
0.0889535
0.0903734
0.0918875
0.0935051
0.0952332
0.0970791
0.0990554
0.101171
0.103437
0.105864
0.108463
0.111248
0.114231
0.117426
0.120845
0.124499
0.128407
0.13258
0.137029
0.141773
0.146822
0.152194
0.157899
0.163952
0.170367
0.177158
0.184339
0.191924
0.199926
0.208367
0.217273
0.226719
0.236745
0.247484
0.25876
0.268373
0.280071
0.288109
0.307086
0.309249
0.349462
0.324224
0.416264
0.441979
0.470487
0.505926
0.555577
0.636141
0.796999
1.3089
1.42499
0.868305
0.714286
0.646601
0.614664
0.60152
0.589533
0.550178
0.184108
0.111774
0
0
0
0.833996
0.114558
0.0848989
0.0867932
0.0909751
0.0927566
0.0937419
0.0947642
0.0957937
0.0968265
0.097912
0.0990675
0.100298
0.101619
0.103049
0.104596
0.106271
0.108086
0.110049
0.11217
0.114461
0.11693
0.119591
0.122455
0.125535
0.128842
0.132388
0.13619
0.14026
0.144608
0.149253
0.154205
0.15948
0.16509
0.171048
0.177369
0.184065
0.191151
0.198642
0.206548
0.214893
0.2237
0.233035
0.242955
0.253565
0.264803
0.274259
0.286111
0.293693
0.313256
0.314412
0.433649
0.459013
0.484161
0.51306
0.549775
0.601247
0.683386
0.842155
1.3038
1.77565
0.976415
0.783938
0.701422
0.661038
0.639767
0.618975
0.57199
0.251048
0.190594
0
0
0
0.953634
0.132265
0.0932204
0.09582
0.101551
0.103674
0.104502
0.10559
0.106796
0.107959
0.109125
0.110337
0.111614
0.112975
0.114438
0.116014
0.117723
0.119576
0.121585
0.123766
0.126125
0.128679
0.131439
0.134417
0.137625
0.141075
0.144783
0.148759
0.153017
0.157571
0.162432
0.167617
0.173135
0.179002
0.185229
0.191829
0.198816
0.206205
0.214009
0.222246
0.23094
0.240147
0.249944
0.2604
0.271584
0.28084
0.292846
0.485564
0.477903
0.497975
0.52245
0.551464
0.588613
0.640399
0.721497
0.872401
1.26884
2.43898
1.11062
0.861954
0.759786
0.708688
0.679207
0.652941
0.593746
0.321551
0.317038
0
0
0
1.31743
0.181434
0.104431
0.105085
0.11255
0.115509
0.116008
0.116888
0.118149
0.119407
0.120636
0.121904
0.123248
0.124684
0.126221
0.12788
0.129674
0.131619
0.133727
0.136011
0.138484
0.141161
0.144055
0.147179
0.150542
0.154164
0.158054
0.162224
0.166692
0.171463
0.176558
0.181985
0.187757
0.193886
0.200385
0.207266
0.214545
0.222234
0.230351
0.238918
0.247979
0.257633
0.267906
0.119441
0.35635
0.5196
0.53234
0.556729
0.585917
0.623073
0.674248
0.752577
0.892605
1.22655
3.32931
1.28642
0.951049
0.822401
0.758181
0.720128
0.686654
0.623087
0.418233
0.513602
0
0
0
2.52008
0.355534
0.120637
0.114478
0.123037
0.128058
0.128848
0.129482
0.130673
0.131959
0.133205
0.134485
0.135852
0.13732
0.138906
0.140625
0.142494
0.144526
0.146732
0.149126
0.151723
0.154537
0.15758
0.160861
0.164399
0.168206
0.172291
0.176672
0.181355
0.186359
0.191692
0.197366
0.203393
0.209783
0.216549
0.223708
0.231269
0.239252
0
0.374128
0.464783
0.572045
0.565202
0.587828
0.616859
0.65374
0.703732
0.778384
0.906601
1.1873
2.51282
1.53671
1.05615
0.890985
0.810532
0.76285
0.722056
0.657307
0.503971
0.723752
1.71235
0
0
10.0004
2.23711
0.152398
0.12685
0.133754
0.140586
0.142257
0.142874
0.144022
0.145355
0.146653
0.147975
0.149382
0.150897
0.152539
0.154326
0.156275
0.1584
0.160712
0.163228
0.165963
0.168927
0.17213
0.17559
0.179318
0.183324
0.187623
0.192222
0.197138
0.202379
0.207955
0.213877
3.92868e-05
0
0
0.329092
0.719351
0.598599
0.616411
0.644876
0.681213
0.729733
0.800375
0.917222
1.15478
1.97232
1.94015
1.18434
0.967634
0.86659
0.807487
0.759421
0.694216
0.578364
0.226714
0.170197
0
0
0.0508294
1.29556
0.189669
0.141326
0.145473
0.153459
0.156162
0.156891
0.158026
0.159429
0.160815
0.162217
0.163705
0.165308
0.167048
0.168943
0.171008
0.173259
0.175712
0.178382
0.181283
0.184423
0.187818
0.191481
8.90077
0.602536
0
0
0.216044
0.83982
0.638778
0.642826
0.670229
0.705984
0.753002
0.819789
0.92628
1.12934
1.69737
2.77027
1.34725
1.05498
0.927341
0.854752
0.798986
0.734748
0.640376
0.898527
0.292252
0
0
0
1.71869
0.245554
0.158107
0.158272
0.167171
0.170958
0.171806
0.172915
0.174404
0.175899
)
;

boundaryField
{
    inlet
    {
        type            calculated;
        value           nonuniform List<scalar> 
11
(
0.0912661
0.0937419
0.092637
0.091646
0.0907937
0.0900558
0.0893804
0.0887161
0.0879484
0.0897091
0.0873999
)
;
    }
    outlet
    {
        type            calculated;
        value           nonuniform List<scalar> 0();
    }
    walls
    {
        type            calculated;
        value           uniform 0;
    }
    frontAndBack
    {
        type            empty;
    }
    procBoundary6to2
    {
        type            processor;
        value           nonuniform List<scalar> 
13
(
0.142926
0.217778
0.276349
0.31787
0.3487
0.37356
0.390622
0.441669
0.169803
0
0
1.58093
0.217573
)
;
    }
    procBoundary6to3
    {
        type            processor;
        value           uniform 0.192963;
    }
    procBoundary6to5
    {
        type            processor;
        value           nonuniform List<scalar> 
86
(
0.0625324
0.175047
0.197106
0.197931
0.202275
0.317366
0.0371613
0.0228634
0
12.6354
1.37651
0.0288583
0.0246258
0.0264427
0.0278919
0.0279819
0.0279355
0.0282328
0.0287639
0.0293593
0.029951
0.0305472
0.0311771
0.0318619
0.0326103
0.033426
0.0343124
0.0352732
0.0363137
0.0374407
0.0386603
0.039979
0.0414039
0.0414039
0.0418687
0.0435129
0.0452863
0.0471973
0.0492545
0.0514669
0.0538436
0.056394
0.0591277
0.0620546
0.0651847
0.0685282
0.0685282
0.0711593
0.0749548
0.0789942
0.0832883
0.0878479
0.092684
0.0978072
0.103228
0.108959
0.108959
0.114225
0.120589
0.127293
0.134345
0.141754
0.149538
0.157731
0.157731
0.165626
0.174756
0.184387
0.194474
0.205039
0.215669
0.22546
0.22546
0.233908
0.243277
0.254332
0.264609
0.281002
0.287048
0.319133
0.297129
0.342641
0.342641
0.269177
0.250305
0.220272
)
;
    }
    procBoundary6to7
    {
        type            processor;
        value           nonuniform List<scalar> 
91
(
0.222701
0.222701
0.255481
0.255481
0.259425
0.259425
0.401551
0.424847
0.401551
0.313564
0.35615
0.424847
0.328587
0.299897
0.320087
0.35615
0.320085
0.279017
0.288034
0.299897
0.300198
0.247675
0.256569
0.266059
0.279017
0.276116
0.220154
0.226798
0.233825
0.241246
0.247675
0.249078
0.19542
0.199649
0.204175
0.209011
0.214166
0.219648
0.220154
0.225466
0.177396
0.178984
0.1807
0.182566
0.184598
0.186813
0.189228
0.191858
0.194719
0.197818
0.20117
0.19542
0.204786
1.65093
8.61553
0
0
0.0930358
0.191394
0.718834
0.669105
0.692675
0.72798
0.773754
0.837073
0.934509
1.10997
1.53471
4.85278
1.56579
1.15609
0.993497
0.904805
0.840841
0.774508
0.687426
0.328732
0.279845
0
0
0
2.42454
0.342952
0.17683
0.171698
0.181787
0.187054
0.187973
0.188942
0.177396
0.190496
)
;
    }
}


// ************************************************************************* //
