/*--------------------------------*- C++ -*----------------------------------*\
| =========                 |                                                 |
| \\      /  F ield         | OpenFOAM: The Open Source CFD Toolbox           |
|  \\    /   O peration     | Version:  2506                                  |
|   \\  /    A nd           | Website:  www.openfoam.com                      |
|    \\/     M anipulation  |                                                 |
\*---------------------------------------------------------------------------*/
FoamFile
{
    version     2.0;
    format      ascii;
    arch        "LSB;label=32;scalar=64";
    class       volScalarField;
    location    "250";
    object      turbulenceProperties:k;
}
// * * * * * * * * * * * * * * * * * * * * * * * * * * * * * * * * * * * * * //

dimensions      [0 2 -2 0 0 0 0];

internalField   nonuniform List<scalar> 
1340
(
25.5511
20.2648
14.9955
3.52464
9.49942
8.4564
7.37806
7.90325
12.0588
10.4786
8.68075
9.74809
12.3566
11.6341
10.1951
10.9775
7.95634
9.94267
10.3475
11.5342
1.76213
5.02858
8.2076
10.9688
0.125687
0.789319
4.11491
8.73944
0.0506441
0.0942102
0.903854
5.17298
0
0.0285462
0.126347
2.01904
0
0
0.043567
0.517513
1.98005e-10
0
0.00239282
0.135185
2.81697e-06
0
0.00078156
0.0473057
4.30692e-05
1.29202e-07
0.000248667
0.0156506
8.17541e-05
6.32973e-07
2.48441e-05
0.00389433
7.54231e-05
4.04549e-05
3.19503e-07
0.00023329
6.01279e-05
7.22097e-05
2.17079e-07
1.50677e-05
5.27148e-05
7.84452e-05
9.42587e-07
8.86429e-10
5.14475e-05
6.62865e-05
2.75298e-05
5.93375e-07
5.18033e-05
5.44925e-05
5.22491e-05
7.22174e-06
5.13858e-05
4.84148e-05
5.52377e-05
2.73101e-05
4.99043e-05
4.60083e-05
4.96337e-05
4.10725e-05
4.78701e-05
4.46935e-05
4.42047e-05
4.3922e-05
4.57097e-05
4.32372e-05
4.06642e-05
4.16201e-05
4.35857e-05
4.14243e-05
3.82952e-05
3.82888e-05
4.15131e-05
3.94079e-05
3.63277e-05
3.52678e-05
3.94604e-05
3.73377e-05
3.44146e-05
3.26764e-05
3.74155e-05
3.52884e-05
3.24907e-05
3.03723e-05
3.53804e-05
3.3277e-05
3.05808e-05
2.82564e-05
3.33596e-05
3.13044e-05
2.87082e-05
2.62816e-05
3.1367e-05
2.93771e-05
2.68922e-05
2.44353e-05
2.94129e-05
2.75006e-05
2.51347e-05
2.27067e-05
2.75021e-05
2.56819e-05
2.34457e-05
2.10868e-05
2.56452e-05
2.39228e-05
2.18243e-05
1.95702e-05
2.52956e-05
2.38487e-05
2.22325e-05
2.02729e-05
1.81469e-05
2.34485e-05
2.2118e-05
2.06139e-05
1.87966e-05
1.68116e-05
2.16751e-05
2.046e-05
1.90692e-05
1.73953e-05
1.55594e-05
1.99814e-05
1.88779e-05
1.7601e-05
1.6069e-05
1.43849e-05
1.83722e-05
1.73756e-05
1.62112e-05
1.48177e-05
1.32841e-05
1.68501e-05
1.59553e-05
1.49008e-05
1.36413e-05
1.22531e-05
1.54173e-05
1.46181e-05
1.36687e-05
1.25377e-05
1.12887e-05
1.40748e-05
1.33648e-05
1.25151e-05
1.15052e-05
1.03872e-05
1.28224e-05
1.21945e-05
1.14385e-05
1.05418e-05
9.54582e-06
1.16586e-05
1.11059e-05
1.04367e-05
9.64479e-06
8.76163e-06
1.05815e-05
1.00972e-05
9.5076e-06
8.81193e-06
8.03147e-06
9.58824e-06
9.16557e-06
8.64853e-06
8.04017e-06
7.35307e-06
8.97439e-06
8.67552e-06
8.30778e-06
7.85628e-06
7.32653e-06
6.72374e-06
8.09793e-06
7.8395e-06
7.52065e-06
7.12774e-06
6.66821e-06
6.14088e-06
7.29895e-06
7.07584e-06
6.8002e-06
6.45943e-06
6.06224e-06
5.60209e-06
6.57256e-06
6.38031e-06
6.14256e-06
5.84778e-06
5.50547e-06
5.10491e-06
5.91381e-06
5.74829e-06
5.54362e-06
5.28933e-06
4.99499e-06
4.64709e-06
5.31774e-06
5.17539e-06
4.9994e-06
4.78037e-06
4.52783e-06
4.22625e-06
4.77936e-06
4.65701e-06
4.5059e-06
4.31754e-06
4.10115e-06
3.84008e-06
4.29403e-06
4.18885e-06
4.05913e-06
3.89731e-06
3.71211e-06
3.48644e-06
3.85714e-06
3.76667e-06
3.65537e-06
3.51643e-06
3.35798e-06
3.16314e-06
3.52644e-06
3.46434e-06
3.38651e-06
3.29095e-06
3.17168e-06
3.03612e-06
2.86807e-06
3.16534e-06
3.11159e-06
3.04452e-06
2.96246e-06
2.86006e-06
2.74403e-06
2.59919e-06
2.84176e-06
2.79515e-06
2.73727e-06
2.66668e-06
2.5787e-06
2.4793e-06
2.35452e-06
2.55205e-06
2.51153e-06
2.46146e-06
2.40065e-06
2.32494e-06
2.23966e-06
2.13223e-06
2.29286e-06
2.25751e-06
2.21409e-06
2.16158e-06
2.09635e-06
2.02303e-06
1.9305e-06
2.06089e-06
2.03001e-06
1.99229e-06
1.94686e-06
1.89054e-06
1.82737e-06
1.74769e-06
1.85285e-06
1.82589e-06
1.79314e-06
1.75384e-06
1.70521e-06
1.65072e-06
1.58214e-06
1.68483e-06
1.66557e-06
1.64213e-06
1.61377e-06
1.57985e-06
1.53794e-06
1.49096e-06
1.4321e-06
1.51356e-06
1.49669e-06
1.4763e-06
1.45177e-06
1.42254e-06
1.38652e-06
1.34609e-06
1.2958e-06
1.35958e-06
1.34464e-06
1.32677e-06
1.30545e-06
1.2802e-06
1.24919e-06
1.21441e-06
1.17155e-06
1.22202e-06
1.20858e-06
1.19269e-06
1.17394e-06
1.15193e-06
1.12509e-06
1.09505e-06
1.05855e-06
1.09899e-06
1.08664e-06
1.07224e-06
1.05547e-06
1.03598e-06
1.0124e-06
9.8613e-07
9.54735e-07
9.93387e-07
9.82153e-07
9.69127e-07
9.54065e-07
9.3667e-07
9.15644e-07
8.92289e-07
8.64652e-07
9.09176e-07
8.98854e-07
8.8701e-07
8.73415e-07
8.57734e-07
8.38715e-07
8.17619e-07
7.94066e-07
8.45109e-07
8.36729e-07
8.26424e-07
8.14926e-07
8.02101e-07
7.87501e-07
7.70026e-07
7.50386e-07
7.29427e-07
7.80703e-07
7.72437e-07
7.62267e-07
7.50968e-07
7.38498e-07
7.2445e-07
7.07965e-07
6.89896e-07
6.72431e-07
7.13209e-07
7.04698e-07
6.94528e-07
6.83352e-07
6.71176e-07
6.57593e-07
6.41648e-07
6.23346e-07
6.04144e-07
6.58757e-07
6.51014e-07
6.41629e-07
6.31119e-07
6.19518e-07
6.06655e-07
5.9209e-07
5.77152e-07
5.65697e-07
5.82426e-07
5.73782e-07
5.64004e-07
5.53519e-07
5.42314e-07
5.29849e-07
5.14848e-07
4.96009e-07
4.74867e-07
5.58036e-07
5.50867e-07
5.42196e-07
5.32366e-07
5.21634e-07
5.10275e-07
4.98903e-07
4.90415e-07
4.89872e-07
4.51405e-07
4.43166e-07
4.3417e-07
4.24483e-07
4.13935e-07
4.01596e-07
3.85054e-07
3.62442e-07
3.35142e-07
5.18084e-07
5.13064e-07
5.06588e-07
4.98638e-07
4.9006e-07
4.82108e-07
4.78464e-07
4.84987e-07
5.01542e-07
4.03491e-07
4.02875e-07
3.99988e-07
3.94797e-07
3.87593e-07
3.77805e-07
3.64416e-07
3.56707e-07
3.4259e-07
6.97047e-07
6.81079e-07
6.81396e-07
6.81529e-07
6.80729e-07
6.79749e-07
6.80805e-07
6.93724e-07
7.25211e-07
7.4131e-07
7.47836e-07
7.43367e-07
7.47778e-07
7.53196e-07
7.57814e-07
7.6196e-07
7.67821e-07
7.87324e-07
8.20138e-07
8.18319e-07
1.26546e-06
1.06907e-06
1.0843e-06
1.09729e-06
1.10495e-06
1.11379e-06
1.12566e-06
1.14908e-06
1.16958e-06
1.00019e-06
14.9694
6.8209
3.15781
9.00984
11.9561
12.4998
11.0845
7.92404
3.99596
1.17397
0.194147
0.0406141
0.0136379
0.00340845
0.00011839
6.21887e-06
0
1.15015e-07
2.383e-06
1.95184e-05
3.3756e-05
3.75735e-05
3.587e-05
3.29055e-05
3.01869e-05
2.79039e-05
2.59093e-05
2.40966e-05
2.24134e-05
2.08464e-05
1.9388e-05
1.80302e-05
1.67671e-05
1.55882e-05
1.44862e-05
1.3456e-05
1.24906e-05
1.15856e-05
1.07369e-05
9.94065e-06
9.19336e-06
8.49234e-06
7.83582e-06
7.22041e-06
6.64496e-06
6.10756e-06
5.60628e-06
5.13957e-06
4.70583e-06
4.30354e-06
3.9312e-06
3.58716e-06
3.27001e-06
2.97818e-06
2.71018e-06
2.46452e-06
2.23973e-06
2.0344e-06
1.84713e-06
1.67659e-06
1.5215e-06
1.38042e-06
1.25189e-06
1.13431e-06
1.0271e-06
9.28035e-07
8.4128e-07
7.74351e-07
7.10436e-07
6.59005e-07
5.85541e-07
5.60588e-07
4.50706e-07
4.9953e-07
2.97593e-07
5.26716e-07
3.06513e-07
7.40543e-07
7.60309e-07
9.38206e-07
10.8746
10.2466
4.84367
2.81635
6.93174
9.28963
9.49564
7.80392
4.78309
1.77581
0.27452
0.020528
0.00547587
0.00193264
8.55268e-05
5.14077e-06
0
3.67712e-08
7.79937e-07
1.04866e-05
2.07864e-05
2.44728e-05
2.41546e-05
2.26921e-05
2.12448e-05
2.00093e-05
1.89094e-05
1.78777e-05
1.68881e-05
1.59388e-05
1.50312e-05
1.41654e-05
1.33415e-05
1.25555e-05
1.18053e-05
1.109e-05
1.04066e-05
9.75414e-06
9.13119e-06
8.53652e-06
7.96898e-06
7.42784e-06
6.91312e-06
6.42306e-06
5.95803e-06
5.51764e-06
5.10113e-06
4.70824e-06
4.33855e-06
3.99153e-06
3.66675e-06
3.36344e-06
3.08101e-06
2.8187e-06
2.57567e-06
2.35108e-06
2.14403e-06
1.95356e-06
1.77872e-06
1.61855e-06
1.4721e-06
1.33822e-06
1.21575e-06
1.10329e-06
1.00043e-06
9.05142e-07
8.20992e-07
7.55783e-07
6.92443e-07
6.43892e-07
5.70084e-07
5.49076e-07
4.36911e-07
4.90973e-07
2.85212e-07
5.16945e-07
2.95696e-07
7.2211e-07
7.38283e-07
7.09501
8.53768
6.80427
2.93334
2.35718
5.74101
7.64666
7.64332
5.91629
3.1942
0.907052
0.0770793
0.00357052
0.000587668
7.31272e-06
3.70523e-07
0
4.53802e-09
9.47618e-08
4.51067e-06
1.15846e-05
1.49714e-05
1.5341e-05
1.47551e-05
1.41243e-05
1.36104e-05
1.31666e-05
1.27407e-05
1.23074e-05
1.18629e-05
1.14088e-05
1.09479e-05
1.0484e-05
1.00177e-05
9.5511e-06
9.08693e-06
8.6262e-06
8.17165e-06
7.72433e-06
7.286e-06
6.85779e-06
6.44119e-06
6.03765e-06
5.64711e-06
5.27118e-06
4.9105e-06
4.56532e-06
4.23622e-06
3.92345e-06
3.62718e-06
3.34754e-06
3.0843e-06
2.83739e-06
2.60644e-06
2.39107e-06
2.19082e-06
2.00509e-06
1.83331e-06
1.67477e-06
1.5288e-06
1.39468e-06
1.27152e-06
1.15842e-06
1.05411e-06
9.58296e-07
8.69237e-07
7.89902e-07
7.28501e-07
6.67457e-07
6.23077e-07
5.50754e-07
5.3353e-07
4.22756e-07
4.78551e-07
2.78438e-07
5.04137e-07
2.94039e-07
7.06727e-07
4.65047
6.33352
6.5092
4.79243
1.83017
1.98098
4.72572
6.27762
6.23052
4.69007
2.36855
0.596738
0.0423066
0.000151771
6.32426e-05
0
0
0
1.26737e-07
2.5218e-06
8.32723e-06
1.19004e-05
1.26049e-05
1.21229e-05
1.14835e-05
1.0983e-05
1.0594e-05
1.02502e-05
9.91957e-06
9.59282e-06
9.26639e-06
8.93889e-06
8.61008e-06
8.27836e-06
7.94351e-06
7.60616e-06
7.26691e-06
6.92736e-06
6.58834e-06
6.25144e-06
5.91797e-06
5.58953e-06
5.26749e-06
4.95251e-06
4.64627e-06
4.34957e-06
4.0631e-06
3.78779e-06
3.52402e-06
3.27234e-06
3.03314e-06
2.80641e-06
2.59243e-06
2.39102e-06
2.20207e-06
2.0254e-06
1.86064e-06
1.70743e-06
1.5653e-06
1.43378e-06
1.31236e-06
1.20034e-06
1.09704e-06
1.00137e-06
9.1304e-07
8.30641e-07
7.56559e-07
6.99722e-07
6.41641e-07
6.01584e-07
5.31077e-07
5.17556e-07
4.08745e-07
4.66133e-07
2.72326e-07
4.9246e-07
2.91559e-07
2.81778
4.39387
5.32266
5.10616
3.6295
1.31935
1.60758
3.82528
5.12316
5.10891
3.81805
1.88931
0.468685
0.0313162
0.000345056
0.000136742
0
0
9.57173e-15
1.9558e-13
4.69866e-06
9.41566e-06
1.05054e-05
1.02151e-05
9.71847e-06
9.27461e-06
8.91916e-06
8.61551e-06
8.3284e-06
8.04601e-06
7.76716e-06
7.49224e-06
7.22102e-06
6.9523e-06
6.68505e-06
6.41863e-06
6.15279e-06
5.88779e-06
5.62345e-06
5.3603e-06
5.09896e-06
4.84017e-06
4.58469e-06
4.33308e-06
4.08646e-06
3.84544e-06
3.61077e-06
3.38336e-06
3.16358e-06
2.95208e-06
2.74943e-06
2.55584e-06
2.37168e-06
2.19703e-06
2.03204e-06
1.87669e-06
1.73086e-06
1.59438e-06
1.46702e-06
1.34846e-06
1.2384e-06
1.13633e-06
1.04177e-06
9.53809e-07
8.72166e-07
7.95743e-07
7.2633e-07
6.73532e-07
6.1807e-07
5.81781e-07
5.12846e-07
5.02672e-07
3.95397e-07
4.54854e-07
2.65634e-07
4.83062e-07
1.39831
2.71717
3.87951
4.45866
4.16315
2.94357
1.08731
1.24303
3.09079
4.22707
4.27689
3.22788
1.62556
0.422426
0.0350332
0.000589252
0.000159391
0
0
1.33178e-16
2.59982e-07
4.34454e-06
8.07549e-06
7.98566e-06
7.45726e-06
7.1534e-06
6.94585e-06
6.76506e-06
6.59682e-06
6.42848e-06
6.25474e-06
6.0766e-06
5.89545e-06
5.71163e-06
5.52494e-06
5.33541e-06
5.14353e-06
4.94978e-06
4.75424e-06
4.55744e-06
4.36002e-06
4.16239e-06
3.96528e-06
3.76919e-06
3.57492e-06
3.38304e-06
3.19432e-06
3.00956e-06
2.82918e-06
2.65389e-06
2.48433e-06
2.32087e-06
2.16398e-06
2.01392e-06
1.87102e-06
1.73541e-06
1.60717e-06
1.48631e-06
1.37277e-06
1.2664e-06
1.16704e-06
1.07439e-06
9.88105e-07
9.07477e-07
8.32227e-07
7.61552e-07
6.96613e-07
6.47592e-07
5.94614e-07
5.61886e-07
4.94573e-07
4.87668e-07
3.81881e-07
4.43637e-07
0.457291
1.33883
2.42768
3.34535
3.77844
3.52009
2.53297
1.00936
0.895919
2.47917
3.51263
3.63979
2.81455
1.47549
0.42021
0.044493
0.000275521
5.92508e-05
0
0
0
2.27319e-07
3.67909e-06
6.55299e-06
6.24916e-06
5.64193e-06
5.42105e-06
5.30832e-06
5.1945e-06
5.08348e-06
4.97574e-06
4.86606e-06
4.75317e-06
4.63724e-06
4.5174e-06
4.39294e-06
4.26389e-06
4.13055e-06
3.99303e-06
3.85184e-06
3.70755e-06
3.56062e-06
3.41182e-06
3.26169e-06
3.11089e-06
2.96013e-06
2.81012e-06
2.66159e-06
2.51506e-06
2.37122e-06
2.23075e-06
2.09407e-06
1.96174e-06
1.83411e-06
1.71158e-06
1.5944e-06
1.48279e-06
1.37686e-06
1.27666e-06
1.18219e-06
1.09341e-06
1.01013e-06
9.32155e-07
8.58957e-07
7.90231e-07
7.25467e-07
6.65181e-07
6.20093e-07
5.69773e-07
5.40726e-07
4.75283e-07
4.71785e-07
0.0588179
0.411056
1.15915
2.07593
2.85425
3.23972
3.06298
2.28083
1.02219
0.576723
1.95539
2.91941
3.12742
2.50339
1.38418
0.438299
0.0571966
0.000621959
8.30094e-05
0
0
0
1.78197e-07
2.79904e-06
5.45965e-06
5.13916e-06
4.52571e-06
4.33732e-06
4.27135e-06
4.18442e-06
4.09016e-06
4.00241e-06
3.91741e-06
3.83181e-06
3.74458e-06
3.6549e-06
3.56208e-06
3.4659e-06
3.36604e-06
3.26253e-06
3.15556e-06
3.04536e-06
2.93247e-06
2.81723e-06
2.70015e-06
2.58185e-06
2.46287e-06
2.3439e-06
2.22539e-06
2.10801e-06
1.99233e-06
1.87883e-06
1.76807e-06
1.66037e-06
1.55621e-06
1.45587e-06
1.35963e-06
1.26767e-06
1.18013e-06
1.09706e-06
1.01851e-06
9.44398e-07
8.74628e-07
8.08833e-07
7.46657e-07
6.87886e-07
6.32383e-07
5.91374e-07
5.43868e-07
0.000462531
0.0422381
0.317012
0.931085
1.71602
2.41216
2.7964
2.7148
2.11399
1.07657
0.303978
1.50313
2.41682
2.70248
2.256
1.32463
0.468394
0.0717728
0.00133742
0.000107827
0
0
0
1.08658e-07
1.63162e-06
4.33501e-06
4.29234e-06
3.68491e-06
3.49194e-06
3.4652e-06
3.41482e-06
3.34208e-06
3.27176e-06
3.20548e-06
3.13913e-06
3.07103e-06
3.00072e-06
2.92804e-06
2.85257e-06
2.77417e-06
2.6928e-06
2.60856e-06
2.52171e-06
2.43243e-06
2.34105e-06
2.24794e-06
2.15352e-06
2.05837e-06
1.9628e-06
1.86737e-06
1.77259e-06
1.67886e-06
1.58672e-06
1.49646e-06
1.40854e-06
1.32327e-06
1.24092e-06
1.16174e-06
1.08588e-06
1.01344e-06
9.44515e-07
8.79112e-07
8.17195e-07
7.58555e-07
7.02756e-07
6.49882e-07
0.000107613
0.000185931
0.0227199
0.21238
0.695672
1.36948
2.01099
2.4135
2.42811
1.9887
1.14186
0.161725
1.11163
1.98449
2.34013
2.04887
1.28106
0.499346
0.0901233
0.00309408
0.000152839
0
0
0
4.30538e-08
5.89178e-07
3.21142e-06
3.64688e-06
3.09201e-06
2.84103e-06
2.80805e-06
2.78263e-06
2.73225e-06
2.67899e-06
2.62906e-06
2.57928e-06
2.52765e-06
2.47388e-06
2.41771e-06
2.35894e-06
2.29748e-06
2.23333e-06
2.16667e-06
2.09766e-06
2.02646e-06
1.95334e-06
1.87863e-06
1.80277e-06
1.72601e-06
1.64877e-06
1.57151e-06
1.49455e-06
1.41835e-06
1.34321e-06
1.26951e-06
1.19756e-06
1.12764e-06
1.05998e-06
9.94773e-07
9.32122e-07
8.72161e-07
8.14923e-07
0
6.66576e-07
0.000819771
0.00875672
0.123131
0.480425
1.0483
1.64348
2.06911
2.17448
1.87987
1.20168
0.281725
0.773319
1.60852
2.02336
1.86721
1.24339
0.530531
0.111799
0.00612915
0.000214226
5.17977e-08
0
0
5.11551e-09
4.66469e-08
2.01343e-06
2.96281e-06
2.62555e-06
2.35859e-06
2.30328e-06
2.28518e-06
2.24924e-06
2.208e-06
2.16901e-06
2.13044e-06
2.0905e-06
2.04872e-06
2.00486e-06
1.95869e-06
1.91013e-06
1.85924e-06
1.80612e-06
1.75086e-06
1.69365e-06
1.63473e-06
1.57445e-06
1.51302e-06
1.45077e-06
1.38806e-06
1.32517e-06
1.26252e-06
1.20034e-06
1.13897e-06
1.07871e-06
1.01979e-06
3.85221e-13
0
0
0.000631222
0.00210963
0.0598114
0.302052
0.761664
1.30639
1.75018
1.93723
1.77275
1.24679
0.452939
0.481164
1.27762
1.74003
1.70055
1.20475
0.559587
0.135846
0.0107216
2.27545e-05
2.43556e-06
0
0
4.57431e-11
9.1849e-08
1.34134e-06
2.37141e-06
2.22556e-06
1.98098e-06
1.91127e-06
1.89491e-06
1.86824e-06
1.83539e-06
1.80381e-06
1.77278e-06
1.74071e-06
1.70709e-06
1.67172e-06
1.63443e-06
1.59519e-06
1.55401e-06
1.51094e-06
1.46603e-06
1.41948e-06
1.37156e-06
1.32242e-06
1.27232e-06
4.55676e-09
2.38876e-10
0
0
0.000291293
0.000290924
0.0227989
0.168448
0.517494
1.00013
1.45045
1.70668
1.65842
1.27086
0.603487
0.233553
0.984428
1.48258
1.54298
1.16271
0.584864
0.162139
0.0168783
0.000590977
5.80778e-07
0
0
0
5.98049e-08
8.55367e-07
1.88117e-06
1.88441e-06
1.67066e-06
1.59473e-06
1.58007e-06
1.56038e-06
1.53376e-06
1.50772e-06
)
;

boundaryField
{
    inlet
    {
        type            calculated;
        value           nonuniform List<scalar> 
11
(
5.59984e-06
5.30796e-06
5.43534e-06
5.55353e-06
5.65828e-06
5.75137e-06
5.83863e-06
5.92641e-06
6.03034e-06
5.79596e-06
6.10628e-06
)
;
    }
    outlet
    {
        type            calculated;
        value           nonuniform List<scalar> 0();
    }
    walls
    {
        type            calculated;
        value           uniform 0;
    }
    frontAndBack
    {
        type            empty;
    }
    procBoundary6to2
    {
        type            processor;
        value           nonuniform List<scalar> 
13
(
10.4057
6.25876
3.94648
2.37284
1.16922
0.389951
0.0550013
0.00052095
0.000238211
0
0
5.88015e-08
9.88573e-07
)
;
    }
    procBoundary6to3
    {
        type            processor;
        value           uniform 1.252e-06;
    }
    procBoundary6to5
    {
        type            processor;
        value           nonuniform List<scalar> 
86
(
29.4493
10.9925
14.0743
12.5069
4.86012
0.178501
0.0173309
0.00245044
0
1.26474e-08
2.58691e-07
5.58829e-05
7.88343e-05
6.69335e-05
5.98056e-05
5.94782e-05
5.98038e-05
5.85945e-05
5.64242e-05
5.41281e-05
5.19963e-05
4.99842e-05
4.79867e-05
4.59478e-05
4.38638e-05
4.17493e-05
3.96199e-05
3.74907e-05
3.53732e-05
3.32756e-05
3.12092e-05
2.91844e-05
2.72102e-05
2.72102e-05
2.66093e-05
2.46363e-05
2.27447e-05
2.09402e-05
1.92275e-05
1.761e-05
1.60897e-05
1.46673e-05
1.33424e-05
1.21135e-05
1.09781e-05
9.93298e-06
9.93298e-06
9.212e-06
8.3027e-06
7.47529e-06
6.72435e-06
6.04444e-06
5.43012e-06
4.87614e-06
4.37742e-06
3.92904e-06
3.92904e-06
3.57513e-06
3.2077e-06
2.87873e-06
2.58444e-06
2.32132e-06
2.08593e-06
1.87484e-06
1.87484e-06
1.70033e-06
1.52729e-06
1.37188e-06
1.23324e-06
1.10941e-06
1.00273e-06
9.17516e-07
9.17516e-07
8.52419e-07
7.88018e-07
7.2099e-07
6.66062e-07
5.90606e-07
5.6599e-07
4.57909e-07
5.28254e-07
3.97248e-07
3.97248e-07
6.43687e-07
7.44436e-07
9.6133e-07
)
;
    }
    procBoundary6to7
    {
        type            processor;
        value           nonuniform List<scalar> 
91
(
9.40488e-07
9.40488e-07
7.14633e-07
7.14633e-07
6.92985e-07
6.92985e-07
2.89235e-07
2.5837e-07
2.89235e-07
4.74319e-07
3.67673e-07
2.5837e-07
4.31935e-07
5.18584e-07
4.55215e-07
3.67673e-07
4.5521e-07
5.99142e-07
5.62206e-07
5.18584e-07
5.17557e-07
7.60429e-07
7.08613e-07
6.58951e-07
5.99142e-07
6.11812e-07
9.62468e-07
9.069e-07
8.53205e-07
8.01515e-07
7.60429e-07
7.51901e-07
1.22154e-06
1.17034e-06
1.11904e-06
1.06784e-06
1.01706e-06
9.66918e-07
9.62468e-07
9.17661e-07
1.48237e-06
1.4562e-06
1.42867e-06
1.39962e-06
1.36897e-06
1.33669e-06
1.3028e-06
1.26733e-06
1.23036e-06
1.19211e-06
1.15272e-06
1.22154e-06
1.11237e-06
4.78195e-08
2.76821e-09
0
0
4.24307e-05
0.000104186
0.00595362
0.0803964
0.321959
0.727771
1.16724
1.47719
1.53091
1.27006
0.723895
0.0750378
0.723943
1.24534
1.39013
1.11466
0.605051
0.187997
0.0240627
0.000145885
1.71008e-05
0
0
0
3.59574e-08
4.97321e-07
1.49566e-06
1.6065e-06
1.41423e-06
1.33192e-06
1.31975e-06
1.30689e-06
1.48237e-06
1.28561e-06
)
;
    }
}


// ************************************************************************* //
