/*--------------------------------*- C++ -*----------------------------------*\
| =========                 |                                                 |
| \\      /  F ield         | OpenFOAM: The Open Source CFD Toolbox           |
|  \\    /   O peration     | Version:  2506                                  |
|   \\  /    A nd           | Website:  www.openfoam.com                      |
|    \\/     M anipulation  |                                                 |
\*---------------------------------------------------------------------------*/
FoamFile
{
    version     2.0;
    format      ascii;
    arch        "LSB;label=32;scalar=64";
    class       volScalarField;
    location    "250";
    object      turbulenceProperties:I;
}
// * * * * * * * * * * * * * * * * * * * * * * * * * * * * * * * * * * * * * //

dimensions      [0 0 0 0 0 0 0];

internalField   nonuniform List<scalar> 
1340
(
0.298823
0.306997
0.317542
0.397054
0.144626
0.153786
0.166239
0.316593
0.136697
0.144104
0.15198
0.254985
0.117921
0.130064
0.141763
0.214778
0.0824623
0.104667
0.124486
0.182299
0.0357358
0.066766
0.0981847
0.151262
0.00949169
0.0250997
0.063433
0.11782
0.00621092
0.008718
0.0283977
0.0817196
0
0.00492109
0.010583
0.0479036
0
0
0.00631295
0.0235998
3.93963e-07
0
0.0014978
0.0119921
4.69572e-05
0
0.000858465
0.00709551
0.000183836
1.05138e-05
0.000483188
0.00407515
0.00025368
2.32695e-05
0.000152334
0.00202453
0.000243984
0.000186124
1.72487e-05
0.00049301
0.000218096
0.000248742
1.42055e-05
0.000124685
0.00020444
0.000259271
2.95782e-05
9.52135e-07
0.000202203
0.000238314
0.000159694
2.45342e-05
0.000203144
0.000216057
0.000219745
8.52561e-05
0.000202571
0.000203637
0.00022565
0.000165158
0.000199878
0.000198499
0.000213608
0.000201783
0.000196011
0.000195633
0.000201307
0.000207907
0.000191786
0.000192412
0.000192806
0.000201674
0.000187528
0.000188333
0.000186842
0.000192782
0.000183267
0.000183696
0.000181726
0.000184423
0.000178933
0.000178817
0.000176635
0.00017697
0.000174492
0.000173861
0.000171402
0.000170117
0.000169938
0.000168863
0.000166082
0.00016363
0.000165274
0.000163821
0.00016073
0.000157397
0.000160525
0.000158749
0.000155398
0.000151399
0.000155709
0.000153657
0.000150091
0.000145616
0.000150832
0.000148562
0.00014484
0.000140034
0.000145918
0.000143468
0.000139645
0.000134649
0.000143023
0.00014098
0.000138401
0.000134515
0.00012944
0.000138121
0.000136035
0.000133373
0.00012947
0.000124398
0.000133202
0.000131101
0.000128393
0.000124518
0.000119519
0.000128287
0.000126193
0.000123474
0.000119663
0.000114791
0.000123394
0.000121326
0.000118629
0.000114914
0.000110209
0.000118539
0.000116516
0.00011387
0.000110279
0.000105768
0.000113739
0.000111776
0.000109202
0.000105759
0.000101465
0.00010901
0.00010712
0.000104638
0.000101359
9.72944e-05
0.000104367
0.000102559
0.000100183
9.70825e-05
9.32533e-05
9.98213e-05
9.81021e-05
9.58442e-05
9.29295e-05
8.93397e-05
9.53854e-05
9.37608e-05
9.1627e-05
8.89035e-05
8.55489e-05
9.10683e-05
8.95417e-05
8.75368e-05
8.50043e-05
8.18809e-05
8.79789e-05
8.68793e-05
8.54504e-05
8.35763e-05
8.12319e-05
7.83335e-05
8.38507e-05
8.28249e-05
8.14935e-05
7.9749e-05
7.75875e-05
7.49046e-05
7.98643e-05
7.89097e-05
7.76739e-05
7.60566e-05
7.40712e-05
7.15933e-05
7.60239e-05
7.51382e-05
7.39946e-05
7.24999e-05
7.06816e-05
6.83981e-05
7.23325e-05
7.15122e-05
7.04569e-05
6.90801e-05
6.74186e-05
6.53185e-05
6.8792e-05
6.80338e-05
6.70617e-05
6.57959e-05
6.42811e-05
6.23529e-05
6.5402e-05
6.47023e-05
6.38088e-05
6.26475e-05
6.12682e-05
5.95e-05
6.21625e-05
6.15171e-05
6.06966e-05
5.96326e-05
5.83782e-05
5.67589e-05
5.90713e-05
5.84762e-05
5.77236e-05
5.67498e-05
5.56094e-05
5.41281e-05
5.65522e-05
5.61256e-05
5.55774e-05
5.48869e-05
5.39963e-05
5.29597e-05
5.1606e-05
5.37184e-05
5.33223e-05
5.28168e-05
5.21837e-05
5.13693e-05
5.04267e-05
4.91906e-05
5.1026e-05
5.0658e-05
5.01915e-05
4.96106e-05
4.88657e-05
4.80078e-05
4.68798e-05
4.84714e-05
4.81288e-05
4.76978e-05
4.7164e-05
4.64819e-05
4.57003e-05
4.46716e-05
4.60499e-05
4.57305e-05
4.53314e-05
4.48403e-05
4.42153e-05
4.35017e-05
4.25634e-05
4.3755e-05
4.34569e-05
4.30872e-05
4.26347e-05
4.20612e-05
4.14086e-05
4.05531e-05
4.15759e-05
4.12984e-05
4.09564e-05
4.05399e-05
4.00139e-05
3.94165e-05
3.86373e-05
3.97081e-05
3.94992e-05
3.9242e-05
3.89268e-05
3.85447e-05
3.80635e-05
3.75172e-05
3.68097e-05
3.77114e-05
3.75162e-05
3.7278e-05
3.69881e-05
3.66383e-05
3.61993e-05
3.5701e-05
3.50616e-05
3.581e-05
3.56259e-05
3.54037e-05
3.51356e-05
3.48145e-05
3.44138e-05
3.39592e-05
3.33828e-05
3.4012e-05
3.38354e-05
3.36251e-05
3.33745e-05
3.30771e-05
3.2709e-05
3.22928e-05
3.17737e-05
3.23105e-05
3.21376e-05
3.19346e-05
3.16962e-05
3.14164e-05
3.10731e-05
3.06868e-05
3.02142e-05
3.07698e-05
3.0603e-05
3.04082e-05
3.01812e-05
2.99166e-05
2.95925e-05
2.9229e-05
2.87892e-05
2.94765e-05
2.93154e-05
2.91294e-05
2.89141e-05
2.86636e-05
2.83557e-05
2.80109e-05
2.76186e-05
2.84451e-05
2.83089e-05
2.814e-05
2.79505e-05
2.77376e-05
2.74932e-05
2.71968e-05
2.68603e-05
2.64951e-05
2.73705e-05
2.72299e-05
2.70554e-05
2.68603e-05
2.66434e-05
2.63969e-05
2.61041e-05
2.57801e-05
2.54628e-05
2.61905e-05
2.60379e-05
2.5854e-05
2.56506e-05
2.54272e-05
2.51757e-05
2.48767e-05
2.45292e-05
2.41582e-05
2.51994e-05
2.50546e-05
2.48775e-05
2.46777e-05
2.44553e-05
2.42064e-05
2.39212e-05
2.36261e-05
2.3399e-05
2.37219e-05
2.35484e-05
2.33503e-05
2.31363e-05
2.29055e-05
2.2646e-05
2.23291e-05
2.19241e-05
2.14593e-05
2.32447e-05
2.30977e-05
2.29184e-05
2.27134e-05
2.24876e-05
2.22462e-05
2.20024e-05
2.18208e-05
2.18146e-05
2.09313e-05
2.07415e-05
2.05321e-05
2.03044e-05
2.00535e-05
1.97558e-05
1.93487e-05
1.87775e-05
1.80624e-05
2.24422e-05
2.23354e-05
2.21966e-05
2.20248e-05
2.18381e-05
2.16642e-05
2.15864e-05
2.1737e-05
2.21077e-05
1.98343e-05
1.98201e-05
1.97499e-05
1.96225e-05
1.9444e-05
1.91989e-05
1.88584e-05
1.86632e-05
1.82973e-05
2.607e-05
2.57711e-05
2.57795e-05
2.57848e-05
2.57729e-05
2.57581e-05
2.57819e-05
2.60287e-05
2.66122e-05
2.69015e-05
2.70697e-05
2.69884e-05
2.70677e-05
2.71646e-05
2.72468e-05
2.73206e-05
2.74258e-05
2.77742e-05
2.83577e-05
2.83427e-05
3.5108e-05
3.22724e-05
3.25027e-05
3.26952e-05
3.28083e-05
3.29398e-05
3.31148e-05
3.34544e-05
3.37364e-05
3.11738e-05
0.248356
0.220071
0.153442
0.225762
0.217553
0.187388
0.151592
0.112994
0.0731872
0.0376722
0.0150612
0.00686976
0.00396715
0.00197049
0.00036443
8.29094e-05
0
1.11318e-05
5.03771e-05
0.000143377
0.000187547
0.000196859
0.00019141
0.000182485
0.00017402
0.000166619
0.000159927
0.000153664
0.000147689
0.000141973
0.000136504
0.000131269
0.000126261
0.000121452
0.000116828
0.000112378
0.000108083
0.000103935
9.99227e-05
9.60382e-05
9.22723e-05
8.86196e-05
8.50788e-05
8.16397e-05
7.83039e-05
7.50687e-05
7.19312e-05
6.88908e-05
6.59466e-05
6.30982e-05
6.03456e-05
5.76875e-05
5.51243e-05
5.26553e-05
5.02797e-05
4.7997e-05
4.5806e-05
4.37055e-05
4.16941e-05
3.97704e-05
3.79324e-05
3.61754e-05
3.44927e-05
3.28733e-05
3.13195e-05
2.98064e-05
2.84123e-05
2.72863e-05
2.61591e-05
2.5217e-05
2.37917e-05
2.33002e-05
2.09123e-05
2.20334e-05
1.70249e-05
2.26583e-05
1.73114e-05
2.68868e-05
2.73263e-05
3.01823e-05
0.145866
0.165116
0.125316
0.0962564
0.14141
0.14809
0.134344
0.109999
0.0791341
0.0455407
0.0174753
0.00476824
0.00246487
0.00146057
0.000305898
7.46565e-05
0
6.26404e-06
2.87413e-05
0.000104993
0.00014726
0.000159182
0.000157553
0.000152148
0.000146687
0.000141859
0.000137436
0.000133195
0.000129047
0.000124989
0.000121029
0.000117171
0.00011342
0.000109764
0.000106196
0.000102716
9.93126e-05
9.59841e-05
9.27259e-05
8.95342e-05
8.6405e-05
8.33364e-05
8.0331e-05
7.73811e-05
7.44914e-05
7.16625e-05
6.88935e-05
6.61862e-05
6.35427e-05
6.09642e-05
5.84536e-05
5.60115e-05
5.36403e-05
5.13415e-05
4.91164e-05
4.6966e-05
4.48912e-05
4.28924e-05
4.09695e-05
3.91227e-05
3.73513e-05
3.5652e-05
3.40198e-05
3.24451e-05
3.09306e-05
2.94538e-05
2.80821e-05
2.69696e-05
2.58365e-05
2.49355e-05
2.34834e-05
2.30664e-05
2.0595e-05
2.18488e-05
1.66699e-05
2.24513e-05
1.70042e-05
2.65559e-05
2.69233e-05
0.102703
0.123217
0.119767
0.0827639
0.074209
0.110679
0.118808
0.109431
0.0890199
0.061373
0.0314489
0.00905571
0.00195126
0.000791802
8.80881e-05
1.97646e-05
0
2.17634e-06
9.92316e-06
6.83092e-05
0.000109218
0.000123866
0.000125085
0.000122374
0.000119438
0.000116957
0.000114752
0.000112605
0.000110406
0.000108136
0.000105798
0.000103403
0.000100965
9.84845e-05
9.59687e-05
9.34277e-05
9.08641e-05
8.8289e-05
8.57054e-05
8.31207e-05
8.05389e-05
7.79668e-05
7.54116e-05
7.2872e-05
7.03575e-05
6.78724e-05
6.54188e-05
6.30021e-05
6.0626e-05
5.82942e-05
5.60111e-05
5.37787e-05
5.16013e-05
4.9481e-05
4.74202e-05
4.54213e-05
4.34857e-05
4.16149e-05
3.98092e-05
3.80697e-05
3.63964e-05
3.47868e-05
3.32375e-05
3.17388e-05
3.02936e-05
2.88817e-05
2.75605e-05
2.64915e-05
2.53774e-05
2.4539e-05
2.30902e-05
2.27448e-05
2.02642e-05
2.15761e-05
1.64736e-05
2.21765e-05
1.6957e-05
2.62793e-05
0.0777141
0.0962473
0.104152
0.0946058
0.0603945
0.0626869
0.0934472
0.101662
0.0946964
0.076981
0.051917
0.025275
0.00667057
0.000399782
0.000257931
0
0
0
1.14391e-05
5.09331e-05
9.23801e-05
0.000110223
0.000113219
0.000110817
0.000107645
0.000105067
0.000102987
0.000101103
9.9264e-05
9.74248e-05
9.55673e-05
9.36834e-05
9.17709e-05
8.98196e-05
8.78263e-05
8.57922e-05
8.37176e-05
8.16091e-05
7.94684e-05
7.73023e-05
7.51159e-05
7.29165e-05
7.07108e-05
6.8501e-05
6.62968e-05
6.41027e-05
6.19231e-05
5.97647e-05
5.76308e-05
5.55269e-05
5.34579e-05
5.14262e-05
4.94372e-05
4.74928e-05
4.55965e-05
4.37512e-05
4.19585e-05
4.02205e-05
3.85382e-05
3.69126e-05
3.53446e-05
3.38324e-05
3.23736e-05
3.0959e-05
2.95904e-05
2.82508e-05
2.69874e-05
2.59759e-05
2.4893e-05
2.41218e-05
2.26821e-05
2.2409e-05
1.99311e-05
2.12998e-05
1.62948e-05
2.19231e-05
1.68861e-05
0.0576604
0.075051
0.0867621
0.0893741
0.0786057
0.0485233
0.0534309
0.0801192
0.0884413
0.0834705
0.0682568
0.0459144
0.0222786
0.00571165
0.000599464
0.000377178
0
0
3.13746e-09
1.41617e-08
6.93093e-05
9.796e-05
0.000103307
0.000101704
9.90379e-05
9.65896e-05
9.45628e-05
9.27835e-05
9.10712e-05
8.93634e-05
8.76539e-05
8.5945e-05
8.42355e-05
8.25183e-05
8.07871e-05
7.90369e-05
7.72653e-05
7.54724e-05
7.36553e-05
7.18157e-05
6.99557e-05
6.80782e-05
6.61866e-05
6.42828e-05
6.23733e-05
6.04609e-05
5.85502e-05
5.66474e-05
5.4755e-05
5.28783e-05
5.10228e-05
4.91913e-05
4.73888e-05
4.56182e-05
4.38835e-05
4.21878e-05
4.05335e-05
3.89231e-05
3.73584e-05
3.58408e-05
3.43719e-05
3.29505e-05
3.15756e-05
3.02389e-05
2.89411e-05
2.76686e-05
2.64577e-05
2.54981e-05
2.44428e-05
2.37314e-05
2.22977e-05
2.20918e-05
1.96086e-05
2.10461e-05
1.60965e-05
2.17179e-05
0.0392163
0.0562266
0.0696741
0.0778459
0.0783883
0.0682048
0.0422611
0.0451257
0.0695599
0.0782044
0.0749439
0.0620164
0.0422961
0.0210482
0.00600903
0.000778635
0.000404836
0
0
3.68474e-10
1.62621e-05
6.64004e-05
9.04167e-05
8.97986e-05
8.66654e-05
8.47707e-05
8.34214e-05
8.22179e-05
8.10785e-05
7.9927e-05
7.87298e-05
7.7492e-05
7.62211e-05
7.49184e-05
7.35813e-05
7.22089e-05
7.08028e-05
6.93649e-05
6.78941e-05
6.63923e-05
6.48622e-05
6.3305e-05
6.17239e-05
6.01207e-05
5.84999e-05
5.6864e-05
5.52174e-05
5.35655e-05
5.19106e-05
5.02579e-05
4.86128e-05
4.69786e-05
4.53602e-05
4.3761e-05
4.21858e-05
4.06376e-05
3.91198e-05
3.76353e-05
3.61866e-05
3.47754e-05
3.3404e-05
3.2072e-05
3.07795e-05
2.95195e-05
2.82914e-05
2.70854e-05
2.59261e-05
2.50155e-05
2.39861e-05
2.33323e-05
2.19055e-05
2.17673e-05
1.92764e-05
2.07908e-05
0.0219212
0.0381442
0.0526813
0.0638501
0.0703267
0.0703261
0.0614449
0.0394708
0.0372008
0.0607794
0.0699822
0.0682904
0.057499
0.0401425
0.0209291
0.006745
0.000529895
0.000245694
0
0
0
1.51552e-05
6.09112e-05
8.12098e-05
7.92232e-05
7.51975e-05
7.36333e-05
7.27859e-05
7.19232e-05
7.10718e-05
7.02357e-05
6.93781e-05
6.84896e-05
6.75705e-05
6.66138e-05
6.56129e-05
6.45668e-05
6.34762e-05
6.23401e-05
6.11606e-05
5.99402e-05
5.86804e-05
5.73854e-05
5.60573e-05
5.46997e-05
5.33165e-05
5.19116e-05
5.04901e-05
4.90547e-05
4.76105e-05
4.61629e-05
4.47152e-05
4.32728e-05
4.18389e-05
4.04187e-05
3.90154e-05
3.7633e-05
3.62745e-05
3.49428e-05
3.36401e-05
3.23688e-05
3.11296e-05
2.99229e-05
2.87434e-05
2.75891e-05
2.64539e-05
2.53498e-05
2.44921e-05
2.34915e-05
2.28993e-05
2.14829e-05
2.14178e-05
0.00776786
0.020683
0.0352573
0.0482542
0.0582036
0.064002
0.0642246
0.0569283
0.0387594
0.0291836
0.052998
0.0629657
0.0627919
0.0540102
0.038813
0.0213416
0.00762729
0.000793384
0.000289829
0
0
0
1.3386e-05
5.30083e-05
7.39691e-05
7.17027e-05
6.72283e-05
6.5756e-05
6.51956e-05
6.447e-05
6.36807e-05
6.29346e-05
6.22032e-05
6.14601e-05
6.06968e-05
5.99062e-05
5.90819e-05
5.82211e-05
5.73197e-05
5.63768e-05
5.53921e-05
5.43661e-05
5.33014e-05
5.21993e-05
5.10621e-05
4.98937e-05
4.86972e-05
4.7477e-05
4.6236e-05
4.49789e-05
4.37104e-05
4.24341e-05
4.11552e-05
3.98768e-05
3.86038e-05
3.734e-05
3.6089e-05
3.48543e-05
3.36388e-05
3.24446e-05
3.12747e-05
3.013e-05
2.90115e-05
2.79155e-05
2.68381e-05
2.57773e-05
2.47323e-05
2.39317e-05
2.29631e-05
0.000685649
0.00655856
0.0180751
0.0313788
0.0434459
0.0528202
0.0585119
0.0593348
0.0536941
0.0389734
0.0208036
0.0457979
0.0567215
0.0580421
0.0511541
0.0379457
0.0220467
0.00852833
0.00116026
0.000329424
0
0
0
1.04331e-05
4.03998e-05
6.58033e-05
6.54301e-05
6.05787e-05
5.8927e-05
5.86562e-05
5.81832e-05
5.75149e-05
5.68609e-05
5.6236e-05
5.56048e-05
5.49521e-05
5.42732e-05
5.35661e-05
5.28262e-05
5.20509e-05
5.12388e-05
5.03894e-05
4.95036e-05
4.85817e-05
4.7625e-05
4.66356e-05
4.56159e-05
4.45699e-05
4.34992e-05
4.24082e-05
4.1301e-05
4.01804e-05
3.90519e-05
3.79178e-05
3.6783e-05
3.56511e-05
3.45256e-05
3.34101e-05
3.23073e-05
3.12195e-05
3.01495e-05
2.90987e-05
2.80683e-05
2.70566e-05
2.6057e-05
2.50725e-05
0.000330066
0.000433556
0.00479476
0.0147258
0.0269373
0.0384437
0.0476379
0.0535523
0.0551668
0.0511447
0.0394353
0.0149406
0.0389143
0.0509926
0.0537901
0.0486886
0.0373213
0.0227618
0.00954497
0.00176098
0.000391304
0
0
0
6.55711e-06
2.4241e-05
5.65591e-05
6.02338e-05
5.54273e-05
5.30962e-05
5.27529e-05
5.2479e-05
5.19667e-05
5.14225e-05
5.09054e-05
5.03852e-05
4.98423e-05
4.92733e-05
4.86748e-05
4.80441e-05
4.73792e-05
4.66791e-05
4.59442e-05
4.5175e-05
4.43717e-05
4.35356e-05
4.26688e-05
4.17746e-05
4.08541e-05
3.99107e-05
3.89481e-05
3.79688e-05
3.69774e-05
3.59765e-05
3.49701e-05
3.3962e-05
3.29552e-05
3.19533e-05
3.09589e-05
2.99742e-05
2.90019e-05
2.80434e-05
0
2.59211e-05
0.00090839
0.00296875
0.0111663
0.0222431
0.0333352
0.0425722
0.0489042
0.0514016
0.0489226
0.0398251
0.0194524
0.0321226
0.0456078
0.0498633
0.0464561
0.0367937
0.0234726
0.0106242
0.00247445
0.000462389
7.19311e-06
0
0
2.25733e-06
6.81253e-06
4.47329e-05
5.42344e-05
5.10265e-05
4.83362e-05
4.77395e-05
4.75247e-05
4.71224e-05
4.66609e-05
4.62192e-05
4.57784e-05
4.5319e-05
4.48355e-05
4.43248e-05
4.37835e-05
4.32098e-05
4.26033e-05
4.19642e-05
4.12922e-05
4.05881e-05
3.98535e-05
3.9091e-05
3.83019e-05
3.74885e-05
3.66544e-05
3.58017e-05
3.49344e-05
3.4055e-05
3.31669e-05
3.22737e-05
3.13783e-05
1.96737e-08
0
0
0.000795714
0.00145404
0.00775562
0.017538
0.0281839
0.0375549
0.0444075
0.0478284
0.046806
0.0399899
0.0243623
0.025104
0.040414
0.0461269
0.044332
0.0362564
0.0241282
0.0117093
0.00326884
0.00015046
4.92534e-05
0
0
2.13237e-07
9.54995e-06
3.64774e-05
4.84789e-05
4.69423e-05
4.42668e-05
4.34601e-05
4.32525e-05
4.29256e-05
4.2525e-05
4.21356e-05
4.17494e-05
4.13478e-05
4.09243e-05
4.04757e-05
3.99996e-05
3.94946e-05
3.89602e-05
3.83957e-05
3.7801e-05
3.71772e-05
3.65265e-05
3.58498e-05
3.5149e-05
2.13623e-06
4.89127e-07
0
0
0.000539775
0.000539065
0.00477525
0.0130353
0.0230646
0.0325441
0.0399553
0.0443037
0.0446509
0.0398417
0.0277997
0.0173395
0.0352881
0.0424872
0.0422364
0.0356654
0.0246969
0.0127955
0.00409807
0.000765783
2.40213e-05
0
0
0
7.69971e-06
2.91068e-05
4.31475e-05
4.3167e-05
4.06282e-05
3.96777e-05
3.94783e-05
3.92145e-05
3.88614e-05
3.85127e-05
)
;

boundaryField
{
    inlet
    {
        type            calculated;
        value           nonuniform List<scalar> 
11
(
7.40728e-05
7.21081e-05
7.29702e-05
7.37579e-05
7.44499e-05
7.50611e-05
7.56288e-05
7.61917e-05
7.68384e-05
7.52887e-05
7.72739e-05
)
;
    }
    outlet
    {
        type            calculated;
        value           nonuniform List<scalar> 0();
    }
    walls
    {
        type            calculated;
        value           uniform 0;
    }
    frontAndBack
    {
        type            empty;
    }
    procBoundary6to2
    {
        type            processor;
        value           nonuniform List<scalar> 
13
(
0.141473
0.0969888
0.0712962
0.0529457
0.0360032
0.0203334
0.0075417
0.000730026
0.000492367
0
0
7.68606e-06
3.14646e-05
)
;
    }
    procBoundary6to3
    {
        type            processor;
        value           uniform 3.53611e-05;
    }
    procBoundary6to5
    {
        type            processor;
        value           nonuniform List<scalar> 
86
(
0.296567
0.144239
0.134912
0.10695
0.0583883
0.0107258
0.0034394
0.00133045
0
3.03345e-06
1.37054e-05
0.000201683
0.000240019
0.000221594
0.000209854
0.000209672
0.000210652
0.000208929
0.000205447
0.000201653
0.000198078
0.000194648
0.000191166
0.000187512
0.000183665
0.00017964
0.000175457
0.000171136
0.000166689
0.000162126
0.000157461
0.000152711
0.000147893
0.000147893
0.000144761
0.000139849
0.000134911
0.000129965
0.00012503
0.000120125
0.000115268
0.000110475
0.000105763
0.000101145
9.66343e-05
9.22426e-05
9.22426e-05
8.88093e-05
8.46253e-05
8.05854e-05
7.66944e-05
7.29553e-05
6.93695e-05
6.59377e-05
6.2659e-05
5.95314e-05
5.95314e-05
5.68791e-05
5.40241e-05
5.13125e-05
4.87405e-05
4.63034e-05
4.39935e-05
4.17997e-05
4.17997e-05
3.98747e-05
3.78687e-05
3.59605e-05
3.41584e-05
3.24554e-05
3.09076e-05
2.96057e-05
2.96057e-05
2.85634e-05
2.74945e-05
2.63294e-05
2.53356e-05
2.38852e-05
2.34074e-05
2.10797e-05
2.26596e-05
1.96793e-05
1.96793e-05
2.50531e-05
2.70084e-05
3.06078e-05
)
;
    }
    procBoundary6to7
    {
        type            processor;
        value           nonuniform List<scalar> 
91
(
3.02267e-05
3.02267e-05
2.64827e-05
2.64827e-05
2.60294e-05
2.60294e-05
1.682e-05
1.58782e-05
1.682e-05
2.15256e-05
1.89204e-05
1.58782e-05
2.05209e-05
2.24361e-05
2.10334e-05
1.89204e-05
2.10464e-05
2.40886e-05
2.33474e-05
2.24361e-05
2.24126e-05
2.71003e-05
2.61724e-05
2.52511e-05
2.40886e-05
2.4344e-05
3.04839e-05
2.95932e-05
2.87079e-05
2.78305e-05
2.71003e-05
2.69627e-05
3.44271e-05
3.36862e-05
3.29295e-05
3.21594e-05
3.13791e-05
3.05914e-05
3.04839e-05
2.97995e-05
3.81701e-05
3.7814e-05
3.7437e-05
3.70367e-05
3.66113e-05
3.61599e-05
3.56816e-05
3.5176e-05
3.46435e-05
3.40858e-05
3.35039e-05
3.44271e-05
3.28993e-05
6.91073e-06
1.66277e-06
0
0
0.000205766
0.000322186
0.00243527
0.00897161
0.0180813
0.0275242
0.0354615
0.0407173
0.0423512
0.0393349
0.0301168
0.00974752
0.0301083
0.0388612
0.0401011
0.0349715
0.0251557
0.0137859
0.00489078
0.000380067
0.000130203
0
0
0
5.96623e-06
2.21796e-05
3.84502e-05
3.98354e-05
3.73623e-05
3.62456e-05
3.60663e-05
3.58767e-05
3.81701e-05
3.55698e-05
)
;
    }
}


// ************************************************************************* //
