/*--------------------------------*- C++ -*----------------------------------*\
| =========                 |                                                 |
| \\      /  F ield         | OpenFOAM: The Open Source CFD Toolbox           |
|  \\    /   O peration     | Version:  2506                                  |
|   \\  /    A nd           | Website:  www.openfoam.com                      |
|    \\/     M anipulation  |                                                 |
\*---------------------------------------------------------------------------*/
FoamFile
{
    version     2.0;
    format      ascii;
    arch        "LSB;label=32;scalar=64";
    class       volScalarField;
    location    "250";
    object      turbulenceProperties:nuEff;
}
// * * * * * * * * * * * * * * * * * * * * * * * * * * * * * * * * * * * * * //

dimensions      [0 2 -1 0 0 0 0];

internalField   nonuniform List<scalar> 
1340
(
0.0870747
0.0786393
0.0685196
0.0333674
0.153466
0.148172
0.139232
0.139392
0.205402
0.206654
0.200647
0.209196
0.213879
0.230477
0.237762
0.253632
0.172977
0.215121
0.246085
0.276145
0.0911058
0.157825
0.221414
0.275665
0.0205944
0.0758757
0.163178
0.249114
0.00513636
0.014982
0.0877192
0.19651
1e-05
0.00411267
0.0288089
0.129361
1e-05
1e-05
0.00817056
0.0697458
1e-05
1e-05
0.000674708
0.0318772
1.0012e-05
1e-05
0.000279597
0.0125338
1.2857e-05
1e-05
7.66416e-05
0.00413505
2.03166e-05
1.00007e-05
1.10561e-05
0.00104677
1.9339e-05
1.29982e-05
1.00002e-05
5.5887e-05
1.6394e-05
1.96768e-05
1.00001e-05
1.03026e-05
1.52536e-05
2.19382e-05
1.00021e-05
1e-05
1.53299e-05
1.92476e-05
1.1865e-05
1.00007e-05
1.57671e-05
1.68198e-05
1.69923e-05
1.01135e-05
1.60862e-05
1.58525e-05
1.84222e-05
1.18419e-05
1.61928e-05
1.57415e-05
1.74879e-05
1.4709e-05
1.61799e-05
1.59032e-05
1.6572e-05
1.61673e-05
1.61415e-05
1.60488e-05
1.61582e-05
1.63995e-05
1.61167e-05
1.61132e-05
1.60605e-05
1.62706e-05
1.61078e-05
1.61248e-05
1.60744e-05
1.61575e-05
1.61069e-05
1.61191e-05
1.60997e-05
1.61144e-05
1.61079e-05
1.61132e-05
1.61115e-05
1.61087e-05
1.61085e-05
1.61105e-05
1.61134e-05
1.61123e-05
1.61086e-05
1.61098e-05
1.61122e-05
1.61146e-05
1.61085e-05
1.61098e-05
1.6111e-05
1.61148e-05
1.61083e-05
1.61098e-05
1.61104e-05
1.61142e-05
1.61082e-05
1.61097e-05
1.61101e-05
1.61136e-05
1.61082e-05
1.61096e-05
1.611e-05
1.61132e-05
1.61076e-05
1.61083e-05
1.61095e-05
1.61099e-05
1.61128e-05
1.61077e-05
1.61084e-05
1.61095e-05
1.61099e-05
1.61126e-05
1.61079e-05
1.61085e-05
1.61096e-05
1.61099e-05
1.61124e-05
1.61081e-05
1.61086e-05
1.61096e-05
1.61099e-05
1.61123e-05
1.61083e-05
1.61088e-05
1.61097e-05
1.611e-05
1.61122e-05
1.61085e-05
1.61089e-05
1.61099e-05
1.61101e-05
1.61122e-05
1.61087e-05
1.61091e-05
1.611e-05
1.61102e-05
1.61122e-05
1.61089e-05
1.61094e-05
1.61102e-05
1.61104e-05
1.61123e-05
1.61091e-05
1.61096e-05
1.61104e-05
1.61106e-05
1.61123e-05
1.61094e-05
1.61098e-05
1.61106e-05
1.61108e-05
1.61124e-05
1.61096e-05
1.611e-05
1.61108e-05
1.6111e-05
1.61126e-05
1.61098e-05
1.61102e-05
1.6111e-05
1.61112e-05
1.61127e-05
1.61095e-05
1.611e-05
1.61104e-05
1.61111e-05
1.61114e-05
1.61129e-05
1.61096e-05
1.61101e-05
1.61106e-05
1.61113e-05
1.61116e-05
1.6113e-05
1.61097e-05
1.61102e-05
1.61107e-05
1.61114e-05
1.61118e-05
1.61131e-05
1.61098e-05
1.61103e-05
1.61108e-05
1.61115e-05
1.61119e-05
1.61132e-05
1.61098e-05
1.61103e-05
1.61108e-05
1.61116e-05
1.6112e-05
1.61133e-05
1.61097e-05
1.61103e-05
1.61108e-05
1.61116e-05
1.6112e-05
1.61133e-05
1.61096e-05
1.61101e-05
1.61107e-05
1.61115e-05
1.6112e-05
1.61132e-05
1.61093e-05
1.61099e-05
1.61105e-05
1.61113e-05
1.61119e-05
1.61131e-05
1.6109e-05
1.61096e-05
1.61103e-05
1.61111e-05
1.61117e-05
1.61129e-05
1.6108e-05
1.61086e-05
1.61092e-05
1.61099e-05
1.61107e-05
1.61114e-05
1.61126e-05
1.61074e-05
1.6108e-05
1.61087e-05
1.61094e-05
1.61102e-05
1.6111e-05
1.61122e-05
1.61067e-05
1.61073e-05
1.6108e-05
1.61088e-05
1.61096e-05
1.61104e-05
1.61117e-05
1.61059e-05
1.61066e-05
1.61073e-05
1.6108e-05
1.61089e-05
1.61098e-05
1.6111e-05
1.6105e-05
1.61057e-05
1.61064e-05
1.61072e-05
1.61081e-05
1.6109e-05
1.61102e-05
1.61039e-05
1.61046e-05
1.61054e-05
1.61062e-05
1.61071e-05
1.6108e-05
1.61093e-05
1.61026e-05
1.61033e-05
1.61041e-05
1.6105e-05
1.6106e-05
1.61069e-05
1.61082e-05
1.61001e-05
1.61008e-05
1.61017e-05
1.61025e-05
1.61035e-05
1.61045e-05
1.61056e-05
1.61069e-05
1.60978e-05
1.60987e-05
1.60995e-05
1.61005e-05
1.61015e-05
1.61026e-05
1.61038e-05
1.61052e-05
1.60953e-05
1.60961e-05
1.6097e-05
1.6098e-05
1.6099e-05
1.61002e-05
1.61014e-05
1.61029e-05
1.60927e-05
1.60935e-05
1.60943e-05
1.60952e-05
1.60962e-05
1.60974e-05
1.60987e-05
1.61002e-05
1.609e-05
1.60908e-05
1.60915e-05
1.60924e-05
1.60934e-05
1.60945e-05
1.60957e-05
1.60972e-05
1.60874e-05
1.60881e-05
1.60889e-05
1.60897e-05
1.60906e-05
1.60917e-05
1.60928e-05
1.60942e-05
1.60849e-05
1.60856e-05
1.60864e-05
1.60873e-05
1.60882e-05
1.60892e-05
1.60904e-05
1.60917e-05
1.60816e-05
1.60823e-05
1.60831e-05
1.60839e-05
1.60847e-05
1.60856e-05
1.60867e-05
1.60879e-05
1.60892e-05
1.6079e-05
1.60796e-05
1.60802e-05
1.6081e-05
1.60818e-05
1.60826e-05
1.60837e-05
1.60848e-05
1.60861e-05
1.60762e-05
1.60768e-05
1.60773e-05
1.6078e-05
1.60787e-05
1.60794e-05
1.60803e-05
1.60813e-05
1.60826e-05
1.60735e-05
1.6074e-05
1.60744e-05
1.6075e-05
1.60756e-05
1.60762e-05
1.6077e-05
1.60779e-05
1.6079e-05
1.60712e-05
1.60714e-05
1.60717e-05
1.6072e-05
1.60724e-05
1.60728e-05
1.60734e-05
1.60741e-05
1.6075e-05
1.60714e-05
1.60713e-05
1.60712e-05
1.60711e-05
1.60711e-05
1.60711e-05
1.60713e-05
1.60715e-05
1.6072e-05
1.60742e-05
1.60741e-05
1.60739e-05
1.60737e-05
1.60735e-05
1.60733e-05
1.6073e-05
1.60729e-05
1.60727e-05
1.60776e-05
1.60774e-05
1.60772e-05
1.60769e-05
1.60766e-05
1.60763e-05
1.60759e-05
1.60755e-05
1.6075e-05
1.60817e-05
1.60818e-05
1.60819e-05
1.6082e-05
1.6082e-05
1.6082e-05
1.6082e-05
1.6082e-05
1.60819e-05
1.60849e-05
1.6085e-05
1.60849e-05
1.60848e-05
1.60846e-05
1.60843e-05
1.60841e-05
1.60839e-05
1.60837e-05
1.60836e-05
1.60905e-05
1.60914e-05
1.60924e-05
1.60935e-05
1.60946e-05
1.60957e-05
1.60968e-05
1.6098e-05
1.60994e-05
1.61007e-05
1.61001e-05
1.61003e-05
1.61004e-05
1.61004e-05
1.61004e-05
1.61004e-05
1.61005e-05
1.61007e-05
1.61012e-05
1.61016e-05
0.171315
0.213336
0.253565
0.297701
0.323508
0.325942
0.303337
0.254367
0.181921
0.101673
0.0418934
0.014835
0.00458233
0.00105473
2.73349e-05
1.00655e-05
1e-05
1e-05
1.00167e-05
1.12798e-05
1.43195e-05
1.61262e-05
1.64685e-05
1.63248e-05
1.61814e-05
1.6122e-05
1.61115e-05
1.6115e-05
1.6118e-05
1.61184e-05
1.61176e-05
1.61166e-05
1.61159e-05
1.61154e-05
1.6115e-05
1.61146e-05
1.61143e-05
1.6114e-05
1.61138e-05
1.61136e-05
1.61135e-05
1.61135e-05
1.61134e-05
1.61134e-05
1.61135e-05
1.61135e-05
1.61135e-05
1.61136e-05
1.61136e-05
1.61136e-05
1.61136e-05
1.61136e-05
1.61135e-05
1.61133e-05
1.61131e-05
1.61127e-05
1.61122e-05
1.61116e-05
1.61108e-05
1.61099e-05
1.61088e-05
1.61076e-05
1.61059e-05
1.61037e-05
1.6101e-05
1.6098e-05
1.60949e-05
1.60924e-05
1.60899e-05
1.60868e-05
1.60832e-05
1.60795e-05
1.60754e-05
1.60721e-05
1.60726e-05
1.60748e-05
1.60818e-05
1.60835e-05
1.61016e-05
1.61018e-05
0.212169
0.256369
0.285949
0.314257
0.342565
0.353924
0.340934
0.300875
0.234047
0.147713
0.065442
0.0197369
0.00539409
0.00131862
4.11209e-05
1.01521e-05
1e-05
1e-05
1.00051e-05
1.09801e-05
1.40592e-05
1.60657e-05
1.64945e-05
1.63559e-05
1.61968e-05
1.61268e-05
1.61126e-05
1.61157e-05
1.6119e-05
1.61195e-05
1.61185e-05
1.61174e-05
1.61166e-05
1.61159e-05
1.61154e-05
1.6115e-05
1.61147e-05
1.61144e-05
1.61142e-05
1.6114e-05
1.61139e-05
1.61138e-05
1.61138e-05
1.61138e-05
1.61138e-05
1.61138e-05
1.61139e-05
1.61139e-05
1.61139e-05
1.61139e-05
1.61139e-05
1.61139e-05
1.61139e-05
1.61137e-05
1.61135e-05
1.61132e-05
1.61127e-05
1.6112e-05
1.61113e-05
1.61104e-05
1.61094e-05
1.61081e-05
1.61065e-05
1.61043e-05
1.61016e-05
1.60985e-05
1.60954e-05
1.60928e-05
1.60903e-05
1.60872e-05
1.60836e-05
1.60798e-05
1.60757e-05
1.60722e-05
1.60725e-05
1.60747e-05
1.60817e-05
1.60835e-05
1.61022e-05
0.216143
0.266799
0.300845
0.323441
0.344442
0.362483
0.364009
0.34108
0.290342
0.212915
0.119333
0.0409299
0.00662129
0.000808636
1.06894e-05
1.00019e-05
1e-05
1e-05
1.00002e-05
1.05181e-05
1.34605e-05
1.59405e-05
1.65405e-05
1.64004e-05
1.62185e-05
1.61335e-05
1.61132e-05
1.61152e-05
1.61189e-05
1.61198e-05
1.6119e-05
1.61179e-05
1.6117e-05
1.61163e-05
1.61158e-05
1.61154e-05
1.61151e-05
1.61149e-05
1.61146e-05
1.61145e-05
1.61144e-05
1.61143e-05
1.61142e-05
1.61142e-05
1.61143e-05
1.61143e-05
1.61143e-05
1.61144e-05
1.61144e-05
1.61144e-05
1.61144e-05
1.61144e-05
1.61144e-05
1.61143e-05
1.6114e-05
1.61137e-05
1.61132e-05
1.61126e-05
1.61118e-05
1.6111e-05
1.61099e-05
1.61087e-05
1.6107e-05
1.61049e-05
1.61021e-05
1.6099e-05
1.60959e-05
1.60933e-05
1.60908e-05
1.60877e-05
1.6084e-05
1.60802e-05
1.6076e-05
1.60724e-05
1.60725e-05
1.60747e-05
1.60816e-05
1.60834e-05
0.200856
0.256061
0.297325
0.32462
0.342561
0.358619
0.370322
0.36627
0.338486
0.282982
0.200737
0.104929
0.0297882
0.000320801
7.81205e-05
1e-05
1e-05
1e-05
1.00005e-05
1.02251e-05
1.25505e-05
1.545e-05
1.65255e-05
1.64955e-05
1.62663e-05
1.61435e-05
1.61127e-05
1.61138e-05
1.61183e-05
1.612e-05
1.61195e-05
1.61184e-05
1.61175e-05
1.61168e-05
1.61163e-05
1.6116e-05
1.61157e-05
1.61154e-05
1.61152e-05
1.6115e-05
1.61149e-05
1.61148e-05
1.61148e-05
1.61148e-05
1.61148e-05
1.61148e-05
1.61149e-05
1.61149e-05
1.61149e-05
1.61149e-05
1.6115e-05
1.6115e-05
1.61149e-05
1.61148e-05
1.61146e-05
1.61143e-05
1.61138e-05
1.61132e-05
1.61124e-05
1.61115e-05
1.61105e-05
1.61093e-05
1.61076e-05
1.61055e-05
1.61028e-05
1.60996e-05
1.60964e-05
1.60938e-05
1.60912e-05
1.60881e-05
1.60844e-05
1.60805e-05
1.60763e-05
1.60725e-05
1.60724e-05
1.60747e-05
1.60815e-05
0.170819
0.230178
0.27853
0.314016
0.337333
0.352409
0.365234
0.373312
0.366546
0.336957
0.279922
0.196151
0.100236
0.0249686
0.000931856
0.000262678
1e-05
1e-05
1e-05
1e-05
1.12432e-05
1.50031e-05
1.64979e-05
1.65435e-05
1.63365e-05
1.61778e-05
1.61156e-05
1.61101e-05
1.61169e-05
1.612e-05
1.612e-05
1.61191e-05
1.61182e-05
1.61174e-05
1.61169e-05
1.61165e-05
1.61162e-05
1.6116e-05
1.61158e-05
1.61156e-05
1.61155e-05
1.61154e-05
1.61153e-05
1.61153e-05
1.61154e-05
1.61154e-05
1.61154e-05
1.61155e-05
1.61155e-05
1.61155e-05
1.61155e-05
1.61156e-05
1.61155e-05
1.61154e-05
1.61152e-05
1.61149e-05
1.61144e-05
1.61138e-05
1.61131e-05
1.61122e-05
1.61111e-05
1.61099e-05
1.61083e-05
1.61061e-05
1.61034e-05
1.61002e-05
1.6097e-05
1.60943e-05
1.60917e-05
1.60886e-05
1.60849e-05
1.60809e-05
1.60767e-05
1.60727e-05
1.60724e-05
1.60746e-05
0.128225
0.191116
0.246177
0.290457
0.322838
0.344097
0.357577
0.368271
0.374342
0.366541
0.336821
0.279994
0.196594
0.100236
0.027325
0.00183904
0.000450716
1e-05
1e-05
1e-05
1.00073e-05
1.20281e-05
1.68707e-05
1.69854e-05
1.64135e-05
1.61991e-05
1.61327e-05
1.61109e-05
1.61136e-05
1.61197e-05
1.61209e-05
1.61198e-05
1.61188e-05
1.61181e-05
1.61176e-05
1.61172e-05
1.61168e-05
1.61166e-05
1.61164e-05
1.61162e-05
1.61161e-05
1.6116e-05
1.61159e-05
1.61159e-05
1.61159e-05
1.6116e-05
1.6116e-05
1.61161e-05
1.61161e-05
1.61161e-05
1.61162e-05
1.61162e-05
1.61162e-05
1.61161e-05
1.61159e-05
1.61155e-05
1.61151e-05
1.61145e-05
1.61137e-05
1.61128e-05
1.61118e-05
1.61106e-05
1.6109e-05
1.61068e-05
1.61041e-05
1.61008e-05
1.60976e-05
1.60948e-05
1.60923e-05
1.60891e-05
1.60853e-05
1.60813e-05
1.6077e-05
1.60729e-05
0.0770995
0.140064
0.200768
0.253428
0.295764
0.326869
0.347389
0.360142
0.369393
0.374428
0.366633
0.337846
0.282416
0.200111
0.104668
0.0317919
0.000846403
0.000239325
1e-05
1e-05
1e-05
1.00092e-05
1.24115e-05
1.75772e-05
1.72494e-05
1.62743e-05
1.60916e-05
1.61116e-05
1.61148e-05
1.61155e-05
1.61198e-05
1.6121e-05
1.61198e-05
1.61187e-05
1.61182e-05
1.61178e-05
1.61175e-05
1.61172e-05
1.6117e-05
1.61168e-05
1.61167e-05
1.61166e-05
1.61166e-05
1.61165e-05
1.61166e-05
1.61166e-05
1.61167e-05
1.61167e-05
1.61168e-05
1.61168e-05
1.61168e-05
1.61168e-05
1.61168e-05
1.61167e-05
1.61165e-05
1.61162e-05
1.61158e-05
1.61152e-05
1.61144e-05
1.61135e-05
1.61125e-05
1.61113e-05
1.61097e-05
1.61075e-05
1.61048e-05
1.61015e-05
1.60982e-05
1.60954e-05
1.60928e-05
1.60896e-05
1.60858e-05
1.60817e-05
0.0288121
0.0806046
0.142765
0.202454
0.254377
0.296383
0.327553
0.348322
0.361009
0.369304
0.373932
0.366836
0.339716
0.286442
0.206144
0.112235
0.0374731
0.0017245
0.00048398
1e-05
1e-05
1e-05
1.00083e-05
1.2109e-05
1.79826e-05
1.74809e-05
1.61976e-05
1.60082e-05
1.61086e-05
1.61323e-05
1.61208e-05
1.61185e-05
1.61201e-05
1.61199e-05
1.6119e-05
1.61184e-05
1.61182e-05
1.61179e-05
1.61177e-05
1.61175e-05
1.61173e-05
1.61173e-05
1.61172e-05
1.61172e-05
1.61172e-05
1.61173e-05
1.61173e-05
1.61174e-05
1.61174e-05
1.61175e-05
1.61175e-05
1.61175e-05
1.61175e-05
1.61174e-05
1.61172e-05
1.61169e-05
1.61165e-05
1.61159e-05
1.61152e-05
1.61143e-05
1.61132e-05
1.6112e-05
1.61104e-05
1.61083e-05
1.61055e-05
1.61022e-05
1.60989e-05
1.6096e-05
1.60934e-05
0.00286984
0.0269081
0.0767949
0.138071
0.197848
0.250369
0.293289
0.325572
0.347385
0.360555
0.368274
0.372911
0.366985
0.342071
0.291521
0.214092
0.12239
0.0435724
0.0032304
0.000911142
1e-05
1e-05
1e-05
1.00045e-05
1.10876e-05
1.76646e-05
1.78996e-05
1.62214e-05
1.58921e-05
1.6066e-05
1.61432e-05
1.61311e-05
1.61195e-05
1.61191e-05
1.61198e-05
1.61193e-05
1.61189e-05
1.61186e-05
1.61184e-05
1.61182e-05
1.6118e-05
1.61179e-05
1.61179e-05
1.61179e-05
1.61179e-05
1.61179e-05
1.6118e-05
1.61181e-05
1.61181e-05
1.61182e-05
1.61182e-05
1.61182e-05
1.61182e-05
1.61182e-05
1.6118e-05
1.61177e-05
1.61173e-05
1.61167e-05
1.61159e-05
1.6115e-05
1.6114e-05
1.61128e-05
1.61112e-05
1.61091e-05
1.61063e-05
1.6103e-05
0.000346243
0.00134051
0.0214588
0.0671957
0.127178
0.187788
0.241987
0.286872
0.321165
0.344736
0.35895
0.366678
0.371454
0.366919
0.344546
0.297218
0.223226
0.132893
0.0512369
0.00638109
0.00174878
1e-05
1e-05
1e-05
1.0001e-05
1.02115e-05
1.64022e-05
1.85893e-05
1.66032e-05
1.58897e-05
1.6007e-05
1.61314e-05
1.61371e-05
1.61221e-05
1.61191e-05
1.61198e-05
1.61197e-05
1.61194e-05
1.61191e-05
1.61189e-05
1.61188e-05
1.61186e-05
1.61186e-05
1.61186e-05
1.61186e-05
1.61186e-05
1.61187e-05
1.61188e-05
1.61188e-05
1.61189e-05
1.61189e-05
1.6119e-05
1.6119e-05
1.61189e-05
1.61188e-05
1.61185e-05
1.61181e-05
1.61175e-05
1.61168e-05
1.61159e-05
1.61148e-05
1.61136e-05
1e-05
1.00799e-05
0.00365438
0.0146699
0.0543248
0.111592
0.172976
0.229529
0.277234
0.314352
0.340426
0.356448
0.365272
0.370095
0.366843
0.347096
0.303328
0.232966
0.144041
0.060199
0.0108153
0.00291102
1.00107e-05
1e-05
1e-05
1e-05
1.00019e-05
1.37646e-05
1.83893e-05
1.7016e-05
1.5997e-05
1.59789e-05
1.6113e-05
1.61378e-05
1.61244e-05
1.61196e-05
1.61201e-05
1.61202e-05
1.61199e-05
1.61196e-05
1.61195e-05
1.61194e-05
1.61193e-05
1.61193e-05
1.61193e-05
1.61194e-05
1.61194e-05
1.61195e-05
1.61196e-05
1.61197e-05
1.61197e-05
1.61197e-05
1.61197e-05
1.61197e-05
1.61196e-05
1.61193e-05
1.61189e-05
1e-05
1e-05
1e-05
0.00227426
0.00905845
0.0401021
0.0927874
0.15414
0.213241
0.264395
0.30509
0.334458
0.353133
0.36353
0.368573
0.366624
0.349569
0.309495
0.242735
0.155588
0.0700826
0.0164106
0.000302139
4.14383e-05
1e-05
1e-05
1e-05
1.00101e-05
1.24264e-05
1.78329e-05
1.72987e-05
1.61276e-05
1.59715e-05
1.60967e-05
1.61363e-05
1.61256e-05
1.61199e-05
1.61205e-05
1.61209e-05
1.61206e-05
1.61204e-05
1.61202e-05
1.61201e-05
1.61201e-05
1.61201e-05
1.61201e-05
1.61202e-05
1.61203e-05
1.61204e-05
1.61205e-05
1.00001e-05
1e-05
1e-05
1e-05
0.00101946
0.00393287
0.0264242
0.0722632
0.13205
0.193364
0.248368
0.293308
0.326688
0.348671
0.361122
0.366655
0.366086
0.351801
0.315475
0.252419
0.167349
0.0810338
0.022794
0.005992
1.18876e-05
1e-05
1e-05
1e-05
1.00058e-05
1.14125e-05
1.71387e-05
1.75203e-05
1.62524e-05
1.59674e-05
1.60838e-05
1.61381e-05
1.61282e-05
1.61199e-05
)
;

boundaryField
{
    inlet
    {
        type            calculated;
        value           nonuniform List<scalar> 
11
(
1.61001e-05
1.61003e-05
1.61004e-05
1.61004e-05
1.61004e-05
1.61004e-05
1.61005e-05
1.61007e-05
1.61012e-05
1.61016e-05
1.61018e-05
)
;
    }
    outlet
    {
        type            calculated;
        value           nonuniform List<scalar> 0();
    }
    walls
    {
        type            calculated;
        value           nonuniform List<scalar> 4(0.00178014 0.0015814 0.00135794 0.000625777);
    }
    frontAndBack
    {
        type            empty;
    }
    procBoundary6to2
    {
        type            processor;
        value           nonuniform List<scalar> 
13
(
0.126273
0.149217
0.150357
0.134106
0.10327
0.0638945
0.0250985
0.00277069
0.00072703
1e-05
1e-05
1.00123e-05
1.37022e-05
)
;
    }
    procBoundary6to3
    {
        type            processor;
        value           uniform 1.60039e-05;
    }
    procBoundary6to5
    {
        type            processor;
        value           nonuniform List<scalar> 
86
(
0.0929437
0.15895
0.202518
0.191709
0.122132
0.0367308
0.00134957
0.000316264
1e-05
1e-05
1.00001e-05
1.43665e-05
1.86137e-05
1.65873e-05
1.55747e-05
1.58063e-05
1.61925e-05
1.63056e-05
1.6235e-05
1.61455e-05
1.61008e-05
1.6093e-05
1.60993e-05
1.61057e-05
1.61085e-05
1.61088e-05
1.61083e-05
1.61078e-05
1.61076e-05
1.61075e-05
1.61074e-05
1.61075e-05
1.61075e-05
1.61075e-05
1.6107e-05
1.61072e-05
1.61073e-05
1.61075e-05
1.61078e-05
1.6108e-05
1.61082e-05
1.61085e-05
1.61087e-05
1.61089e-05
1.61091e-05
1.61093e-05
1.61093e-05
1.61091e-05
1.61092e-05
1.61093e-05
1.61093e-05
1.61093e-05
1.61092e-05
1.6109e-05
1.61088e-05
1.61084e-05
1.61084e-05
1.61074e-05
1.61068e-05
1.61061e-05
1.61053e-05
1.61043e-05
1.61032e-05
1.61018e-05
1.61018e-05
1.60993e-05
1.60971e-05
1.60946e-05
1.6092e-05
1.60893e-05
1.60867e-05
1.60842e-05
1.60842e-05
1.6081e-05
1.60784e-05
1.60758e-05
1.60731e-05
1.6071e-05
1.60715e-05
1.60744e-05
1.60777e-05
1.60816e-05
1.60816e-05
1.60846e-05
1.60898e-05
1.60998e-05
)
;
    }
    procBoundary6to7
    {
        type            processor;
        value           nonuniform List<scalar> 
91
(
1.6102e-05
1.6102e-05
1.61028e-05
1.61028e-05
1.60834e-05
1.60834e-05
1.60814e-05
1.60723e-05
1.60814e-05
1.60746e-05
1.60774e-05
1.60723e-05
1.60731e-05
1.60902e-05
1.60864e-05
1.60774e-05
1.60822e-05
1.60996e-05
1.60967e-05
1.60902e-05
1.60941e-05
1.6112e-05
1.61099e-05
1.61072e-05
1.60996e-05
1.61038e-05
1.61183e-05
1.61176e-05
1.61167e-05
1.61157e-05
1.6112e-05
1.61144e-05
1.61205e-05
1.61205e-05
1.61206e-05
1.61205e-05
1.61204e-05
1.61202e-05
1.61183e-05
1.61198e-05
1.61202e-05
1.6121e-05
1.6121e-05
1.6121e-05
1.6121e-05
1.61209e-05
1.61209e-05
1.61209e-05
1.6121e-05
1.61211e-05
1.61212e-05
1.61205e-05
1.61213e-05
1.00199e-05
1.00001e-05
1e-05
1e-05
0.000163783
0.000543763
0.0151997
0.0519669
0.107647
0.170088
0.228946
0.278629
0.316667
0.342584
0.357608
0.36406
0.364863
0.353328
0.320803
0.261621
0.179129
0.0919769
0.0292131
0.00109707
0.000323397
1e-05
1e-05
1e-05
1.00028e-05
1.06719e-05
1.64934e-05
1.78247e-05
1.63998e-05
1.59439e-05
1.60561e-05
1.61386e-05
1.61202e-05
1.61343e-05
)
;
    }
}


// ************************************************************************* //
