/*--------------------------------*- C++ -*----------------------------------*\
| =========                 |                                                 |
| \\      /  F ield         | OpenFOAM: The Open Source CFD Toolbox           |
|  \\    /   O peration     | Version:  2506                                  |
|   \\  /    A nd           | Website:  www.openfoam.com                      |
|    \\/     M anipulation  |                                                 |
\*---------------------------------------------------------------------------*/
FoamFile
{
    version     2.0;
    format      ascii;
    arch        "LSB;label=32;scalar=64";
    class       volSymmTensorField;
    location    "250";
    object      turbulenceProperties:devReff;
}
// * * * * * * * * * * * * * * * * * * * * * * * * * * * * * * * * * * * * * //

dimensions      [0 2 -2 0 0 0 0];

internalField   nonuniform List<symmTensor> 
1340
(
(-2.44919 -7.2663 1.22663e-15 2.4381 1.14742e-15 0.0110836)
(-2.08899 -5.7125 -1.23141e-16 2.07553 -5.27254e-16 0.0134622)
(-1.60053 -4.20537 -1.53103e-15 1.59865 -2.60903e-17 0.00187808)
(-0.479493 -0.942596 -1.8772e-16 0.480221 -1.91685e-15 -0.000728337)
(-0.780727 -2.73787 3.42342e-15 0.801289 -4.99662e-15 -0.0205616)
(-0.730168 -2.42764 -1.50531e-15 0.743615 1.52443e-15 -0.0134477)
(-0.561177 -2.13592 3.26051e-15 0.596398 4.10262e-16 -0.0352203)
(-0.783655 -2.24898 5.37851e-15 0.695447 7.2937e-15 0.0882085)
(-0.875826 -3.50984 -1.43415e-14 0.878745 5.24809e-16 -0.00291951)
(-0.796276 -3.04133 4.95291e-15 0.79538 -1.6281e-15 0.000896157)
(-0.53101 -2.54786 5.13383e-15 0.546926 -1.53056e-15 -0.0159168)
(-0.839761 -2.80396 -1.00544e-14 0.821773 2.90666e-15 0.0179884)
(-0.787081 -3.6229 4.7747e-15 0.784494 4.87675e-15 0.00258738)
(-0.796837 -3.39876 -1.0134e-14 0.792179 -1.31192e-16 0.0046575)
(-0.572428 -3.00358 -1.30005e-14 0.582662 1.87751e-15 -0.0102337)
(-0.810604 -3.19535 9.21363e-15 0.782318 -3.43571e-15 0.0282862)
(-0.392183 -2.35454 -9.83668e-16 0.392952 4.26e-16 -0.000768104)
(-0.578333 -2.92672 -1.73012e-15 0.574445 3.97094e-15 0.00388827)
(-0.521916 -3.05925 6.75116e-16 0.532429 2.48552e-16 -0.0105123)
(-0.76872 -3.37765 -1.72184e-14 0.731419 4.30771e-15 0.0373002)
(-0.0138616 -0.528489 2.74352e-15 0.0154372 -1.62135e-15 -0.00157557)
(-0.195237 -1.49603 1.00717e-14 0.194504 -1.60675e-15 0.000733296)
(-0.325796 -2.44001 5.19755e-16 0.335996 -9.0965e-17 -0.0101997)
(-0.668152 -3.22544 3.60871e-15 0.632123 -3.40672e-15 0.0360284)
(0.0281715 0.0251097 -1.1999e-15 -0.0281357 3.0639e-16 -3.5778e-05)
(0.0333498 -0.234414 -1.27725e-15 -0.0340595 -7.85814e-16 0.00070978)
(-0.0650615 -1.23258 1.15432e-15 0.072556 -2.6476e-16 -0.00749451)
(-0.466043 -2.58246 3.08084e-15 0.435958 -8.94758e-16 0.0300852)
(0.00795745 0.0129811 3.14698e-16 -0.00794525 8.09657e-18 -1.22017e-05)
(0.02038 0.0194637 -3.63063e-16 -0.0206501 1.23515e-16 0.000270093)
(0.0624724 -0.264209 -1.81303e-15 -0.0594339 3.36021e-16 -0.00303858)
(-0.208731 -1.539 9.68522e-15 0.185762 -5.59618e-16 0.0229687)
(1.14197e-05 7.63884e-06 -2.2279e-19 -1.13734e-05 -9.58079e-20 -4.62544e-08)
(0.00528777 0.00673405 8.05114e-17 -0.00535896 -6.84444e-18 7.11919e-05)
(0.038006 0.00501106 1.77867e-15 -0.0371161 -2.16364e-16 -0.000889905)
(-0.024432 -0.605079 -4.46169e-15 0.00882716 1.46191e-15 0.0156049)
(9.16278e-06 -3.29916e-06 1.0468e-19 -9.11095e-06 5.21203e-20 -5.18316e-08)
(9.12553e-06 2.65459e-06 -1.76617e-19 -9.28741e-06 2.60732e-20 1.61878e-07)
(0.0107183 0.00769478 -1.64625e-16 -0.010434 6.93342e-18 -0.000284287)
(0.0323379 -0.150346 -3.3666e-15 -0.0409113 1.42838e-16 0.00857338)
(8.92989e-06 -3.70397e-06 7.08128e-20 -8.87699e-06 -1.038e-20 -5.2899e-08)
(7.50477e-06 -5.33539e-06 2.38805e-19 -7.63684e-06 1.674e-20 1.32071e-07)
(0.000700081 0.000233044 -4.81316e-18 -0.000677803 9.56624e-19 -2.22785e-05)
(0.0245623 -0.0303147 5.50918e-16 -0.0282245 -2.48816e-16 0.00366218)
(9.06229e-06 -1.49029e-06 8.25994e-20 -9.01902e-06 -8.47638e-20 -4.32678e-08)
(7.66893e-06 -5.59356e-06 1.49009e-19 -7.77897e-06 -4.65672e-20 1.10034e-07)
(0.000231265 -7.73759e-05 1.26368e-18 -0.000223309 -2.24161e-19 -7.95618e-06)
(0.0100884 -0.00910377 5.8338e-16 -0.0113722 -1.70443e-17 0.00128383)
(1.14978e-05 -5.2389e-07 -4.42381e-19 -1.14511e-05 1.23377e-19 -4.66849e-08)
(8.05267e-06 -3.6074e-06 -1.0054e-20 -8.15943e-06 -4.40935e-20 1.06763e-07)
(5.73376e-05 -3.76576e-05 -1.48979e-18 -5.545e-05 1.15944e-19 -1.88762e-06)
(0.00298991 -0.0034278 -2.10803e-16 -0.00336276 2.08369e-17 0.000372849)
(1.76801e-05 -6.9896e-07 9.61117e-19 -1.76122e-05 -7.87173e-20 -6.79014e-08)
(8.07334e-06 -2.40492e-06 -2.50155e-19 -8.17628e-06 3.97967e-20 1.02937e-07)
(8.09094e-06 -5.05673e-06 -8.56525e-20 -7.85522e-06 2.45166e-20 -2.35718e-07)
(0.000668728 -0.000934521 6.0366e-17 -0.000749436 -5.70763e-18 8.07077e-05)
(1.6353e-05 -9.633e-07 -7.16367e-19 -1.62936e-05 -7.47343e-20 -5.93593e-08)
(1.02066e-05 -2.79184e-06 1.64988e-19 -1.03282e-05 1.57262e-20 1.21634e-07)
(7.19422e-06 -3.82208e-06 3.38255e-19 -7.01265e-06 -3.92044e-20 -1.81572e-07)
(3.26236e-05 -4.79628e-05 -3.52485e-18 -3.62526e-05 3.91965e-19 3.62894e-06)
(1.34805e-05 -8.98444e-07 7.13545e-20 -1.34361e-05 9.8004e-20 -4.44179e-08)
(1.49293e-05 -4.35379e-06 -3.00377e-20 -1.50916e-05 -2.69344e-20 1.62378e-07)
(6.95047e-06 -3.43044e-06 -3.50357e-19 -6.79713e-06 1.95778e-20 -1.5334e-07)
(5.64421e-06 -8.03697e-06 1.74455e-19 -6.20497e-06 -3.57887e-20 5.60762e-07)
(1.21812e-05 -7.72627e-07 1.0977e-19 -1.21451e-05 -8.40012e-21 -3.60753e-08)
(1.6114e-05 -4.90812e-06 -9.63634e-20 -1.6273e-05 3.27062e-21 1.58981e-07)
(6.64166e-06 -3.3367e-06 2.04914e-20 -6.51418e-06 1.61873e-20 -1.27485e-07)
(5.18017e-06 -7.04083e-06 -1.22299e-19 -5.63468e-06 9.24625e-21 4.54516e-07)
(1.18613e-05 -6.75953e-07 3.53719e-20 -1.18302e-05 -5.04728e-20 -3.10647e-08)
(1.36985e-05 -4.16836e-06 -7.20476e-20 -1.382e-05 2.83603e-20 1.21487e-07)
(7.50709e-06 -3.93446e-06 3.20737e-19 -7.38149e-06 -1.64108e-20 -1.25602e-07)
(4.88886e-06 -6.43206e-06 1.58927e-19 -5.26603e-06 -1.87633e-20 3.77164e-07)
(1.17928e-05 -5.95948e-07 -2.90178e-19 -1.17658e-05 1.75442e-20 -2.69578e-08)
(1.15811e-05 -3.4405e-06 1.61434e-19 -1.16726e-05 -8.81363e-21 9.15812e-08)
(1.0256e-05 -5.53854e-06 2.83114e-19 -1.01088e-05 -3.26367e-20 -1.47171e-07)
(4.65508e-06 -6.00285e-06 4.15664e-19 -4.96969e-06 -1.84431e-20 3.14611e-07)
(1.16059e-05 -5.1125e-07 3.08507e-20 -1.15833e-05 3.06863e-20 -2.26887e-08)
(1.05331e-05 -3.03618e-06 -3.69385e-20 -1.06073e-05 -1.86266e-20 7.41447e-08)
(1.06181e-05 -5.80958e-06 -9.58795e-20 -1.04906e-05 -1.8602e-20 -1.27508e-07)
(5.13148e-06 -6.50495e-06 -3.69112e-20 -5.43269e-06 1.19221e-20 3.01202e-07)
(1.12454e-05 -4.13766e-07 -9.70932e-21 -1.12267e-05 -1.91414e-20 -1.87494e-08)
(1.0067e-05 -2.81042e-06 -1.3336e-19 -1.01292e-05 2.0719e-20 6.21255e-08)
(9.62544e-06 -5.27288e-06 -4.54993e-19 -9.53002e-06 3.19536e-20 -9.54264e-08)
(6.0117e-06 -7.46482e-06 -2.61102e-19 -6.31572e-06 1.15721e-20 3.04019e-07)
(1.07915e-05 -3.07349e-07 -1.48539e-19 -1.07767e-05 3.59946e-20 -1.47891e-08)
(9.76574e-06 -2.6319e-06 1.39943e-19 -9.81786e-06 -7.51198e-21 5.21259e-08)
(8.70466e-06 -4.74005e-06 1.1637e-19 -8.63435e-06 4.06966e-21 -7.0307e-08)
(6.24519e-06 -7.56173e-06 -1.55134e-19 -6.51394e-06 4.2771e-21 2.68752e-07)
(1.03144e-05 -1.9645e-07 2.94655e-19 -1.03031e-05 -2.10798e-21 -1.134e-08)
(9.44192e-06 -2.4431e-06 -1.41962e-19 -9.48542e-06 2.90649e-21 4.3502e-08)
(8.09407e-06 -4.35518e-06 -9.64767e-20 -8.04261e-06 4.44625e-21 -5.14612e-08)
(6.0018e-06 -7.04992e-06 3.39682e-19 -6.2201e-06 -1.23329e-20 2.18295e-07)
(9.84118e-06 -8.35303e-08 -4.20767e-20 -9.8325e-06 -2.98709e-20 -8.6792e-09)
(9.06086e-06 -2.23618e-06 7.48127e-20 -9.09639e-06 -6.58937e-21 3.55285e-08)
(7.66537e-06 -4.05279e-06 1.33465e-19 -7.62816e-06 -9.94972e-21 -3.72149e-08)
(5.65213e-06 -6.41643e-06 -2.19082e-19 -5.82422e-06 9.17796e-21 1.72084e-07)
(9.37431e-06 2.97816e-08 -4.6947e-20 -9.36828e-06 -1.63629e-21 -6.02902e-09)
(8.64617e-06 -2.01842e-06 -1.92371e-19 -8.67462e-06 8.09008e-21 2.84508e-08)
(7.303e-06 -3.77e-06 -2.2172e-19 -7.27698e-06 1.39476e-20 -2.60204e-08)
(5.3368e-06 -5.83061e-06 2.46803e-19 -5.47132e-06 -6.65387e-21 1.34524e-07)
(8.90904e-06 1.42168e-07 -8.93889e-20 -8.90501e-06 1.28076e-20 -4.03157e-09)
(8.22112e-06 -1.79901e-06 1.00552e-19 -8.24328e-06 2.33115e-20 2.21592e-08)
(6.95474e-06 -3.483e-06 3.35736e-19 -6.93722e-06 -1.64724e-22 -1.75114e-08)
(5.06698e-06 -5.30752e-06 -2.41214e-19 -5.17065e-06 5.36049e-21 1.03667e-07)
(8.44378e-06 2.53366e-07 9.37256e-20 -8.44126e-06 9.18487e-21 -2.52122e-09)
(7.79791e-06 -1.58149e-06 2.83541e-19 -7.81514e-06 -1.98595e-20 1.72335e-08)
(6.60998e-06 -3.18847e-06 2.07709e-20 -6.59915e-06 -8.23593e-21 -1.08345e-08)
(4.82736e-06 -4.82785e-06 1.30208e-19 -4.90623e-06 -3.0345e-21 7.88659e-08)
(7.97911e-06 3.60233e-07 7.71762e-20 -7.97821e-06 -1.59476e-20 -8.95785e-10)
(7.37903e-06 -1.36955e-06 -1.64188e-19 -7.39235e-06 -1.73362e-20 1.3324e-08)
(6.26989e-06 -2.89274e-06 4.00791e-20 -6.2644e-06 -7.75045e-21 -5.4853e-09)
(4.60586e-06 -4.3797e-06 -2.4655e-19 -4.66554e-06 2.88179e-21 5.96879e-08)
(7.5164e-06 4.63113e-07 -1.3787e-19 -7.51627e-06 6.28166e-21 -1.29729e-10)
(6.96527e-06 -1.16249e-06 -1.10187e-19 -6.97504e-06 1.53076e-20 9.76555e-09)
(5.93678e-06 -2.59949e-06 -2.14189e-19 -5.93483e-06 4.39417e-21 -1.94789e-09)
(4.396e-06 -3.95762e-06 1.59603e-19 -4.44055e-06 -3.97821e-21 4.45524e-08)
(7.0584e-06 5.60048e-07 1.53916e-19 -7.05885e-06 -2.73982e-21 4.48566e-10)
(6.55743e-06 -9.63815e-07 1.22125e-19 -6.56453e-06 -3.79833e-21 7.10113e-09)
(5.61182e-06 -2.31335e-06 1.04041e-19 -5.61263e-06 -1.95654e-21 8.07001e-10)
(4.1957e-06 -3.55966e-06 -3.56934e-19 -4.22906e-06 5.98514e-21 3.33562e-08)
(6.60727e-06 6.49466e-07 -1.82937e-19 -6.60848e-06 -4.67274e-21 1.20629e-09)
(6.15696e-06 -7.73318e-07 -1.84243e-19 -6.16196e-06 -6.99026e-22 4.99662e-09)
(5.29459e-06 -2.03622e-06 -2.69702e-19 -5.29681e-06 3.6501e-22 2.21155e-09)
(4.00242e-06 -3.18558e-06 5.6834e-19 -4.027e-06 4.91152e-21 2.45799e-08)
(6.16451e-06 7.30691e-07 9.07346e-20 -6.16597e-06 1.346e-20 1.46433e-09)
(5.76498e-06 -5.93661e-07 1.24939e-19 -5.76863e-06 1.5177e-21 3.65293e-09)
(4.98578e-06 -1.77053e-06 1.57904e-19 -4.98924e-06 1.18765e-20 3.45512e-09)
(3.81507e-06 -2.83376e-06 -2.28013e-19 -3.83285e-06 -8.8057e-21 1.77829e-08)
(5.73241e-06 8.03018e-07 4.77001e-20 -5.73407e-06 -7.39044e-21 1.65605e-09)
(5.38232e-06 -4.25236e-07 -1.69474e-19 -5.38459e-06 -5.43352e-21 2.26719e-09)
(4.68455e-06 -1.51858e-06 6.24112e-20 -4.6886e-06 -1.23046e-20 4.04874e-09)
(3.6322e-06 -2.50452e-06 9.54797e-20 -3.64504e-06 4.26399e-21 1.28423e-08)
(5.3534e-06 1.98528e-06 -1.85799e-19 -5.35488e-06 9.39575e-21 1.47818e-09)
(5.3127e-06 8.6546e-07 -7.58372e-20 -5.31453e-06 -8.6633e-21 1.82665e-09)
(5.01074e-06 -2.69002e-07 5.43701e-20 -5.01213e-06 1.57337e-20 1.38326e-09)
(4.39124e-06 -1.28114e-06 -2.58317e-19 -4.39532e-06 -1.19236e-21 4.07942e-09)
(3.45247e-06 -2.19717e-06 -6.55424e-20 -3.46131e-06 4.97602e-22 8.83442e-09)
(4.92179e-06 1.9465e-06 2.08253e-19 -4.92321e-06 1.39458e-20 1.42943e-09)
(4.90701e-06 9.1779e-07 -8.38553e-20 -4.90873e-06 5.19931e-21 1.72181e-09)
(4.65114e-06 -1.26196e-07 2.18019e-19 -4.65201e-06 6.07649e-22 8.76335e-10)
(4.10648e-06 -1.0598e-06 1.73098e-19 -4.11059e-06 1.15572e-20 4.10826e-09)
(3.27539e-06 -1.91117e-06 1.97768e-19 -3.28115e-06 5.87446e-21 5.76185e-09)
(4.50858e-06 1.89959e-06 -5.1868e-20 -4.50987e-06 -1.06751e-20 1.28525e-09)
(4.51702e-06 9.59548e-07 9.76543e-20 -4.51875e-06 6.06803e-21 1.72849e-09)
(4.30436e-06 2.93347e-09 -5.8829e-20 -4.30481e-06 -1.37063e-20 4.51827e-10)
(3.83037e-06 -8.55449e-07 -4.82242e-21 -3.83439e-06 -7.49366e-21 4.01101e-09)
(3.10051e-06 -1.64647e-06 -7.95019e-20 -3.10393e-06 -9.79184e-21 3.41818e-09)
(4.11539e-06 1.84523e-06 3.02349e-20 -4.11652e-06 -4.34678e-22 1.13407e-09)
(4.14388e-06 9.90804e-07 -1.35846e-20 -4.14557e-06 -3.20079e-21 1.68601e-09)
(3.97134e-06 1.18018e-07 -1.44677e-19 -3.97146e-06 1.94152e-21 1.21449e-10)
(3.56328e-06 -6.68505e-07 -9.22478e-20 -3.56707e-06 -6.44367e-21 3.78486e-09)
(2.92759e-06 -1.40274e-06 -2.10181e-19 -2.92909e-06 -4.77295e-21 1.49966e-09)
(3.74338e-06 1.7843e-06 -9.68188e-20 -3.74446e-06 -7.67369e-22 1.08348e-09)
(3.78877e-06 1.01196e-06 1.96887e-20 -3.79034e-06 -8.26365e-22 1.56777e-09)
(3.65291e-06 2.19016e-07 1.43675e-19 -3.65282e-06 6.2894e-21 -8.80405e-11)
(3.30563e-06 -4.99181e-07 -1.20749e-19 -3.30914e-06 -3.20962e-21 3.50319e-09)
(2.75676e-06 -1.1795e-06 7.3676e-20 -2.75676e-06 5.9133e-21 -2.14023e-12)
(3.39332e-06 1.71769e-06 1.43795e-19 -3.39433e-06 1.37667e-20 1.00547e-09)
(3.4526e-06 1.02312e-06 -3.62116e-20 -3.45408e-06 1.6736e-21 1.47883e-09)
(3.34974e-06 3.05953e-07 -1.41419e-19 -3.34957e-06 -7.73009e-21 -1.69866e-10)
(3.05797e-06 -3.47432e-07 -2.82096e-20 -3.06125e-06 7.26137e-21 3.27408e-09)
(2.5883e-06 -9.76476e-07 -1.87816e-20 -2.58706e-06 -8.27403e-22 -1.24133e-09)
(3.06576e-06 1.64647e-06 7.11175e-20 -3.06665e-06 -3.22399e-21 8.88603e-10)
(3.13593e-06 1.02504e-06 9.74604e-20 -3.1373e-06 6.56522e-21 1.36432e-09)
(3.06222e-06 3.79206e-07 1.12836e-19 -3.06195e-06 7.86873e-21 -2.69124e-10)
(2.82059e-06 -2.13038e-07 2.65084e-19 -2.82365e-06 1.06852e-20 3.06041e-09)
(2.42268e-06 -7.92925e-07 9.02638e-20 -2.42047e-06 6.41872e-21 -2.21218e-09)
(2.76094e-06 1.57157e-06 -5.73615e-20 -2.76173e-06 -7.83839e-21 7.91597e-10)
(2.83918e-06 1.0184e-06 5.59882e-21 -2.84047e-06 -6.30654e-21 1.28275e-09)
(2.79084e-06 4.39439e-07 -5.73635e-20 -2.79051e-06 -6.189e-21 -3.35818e-10)
(2.59389e-06 -9.54408e-08 -1.08044e-19 -2.59672e-06 -1.38671e-20 2.83255e-09)
(2.26031e-06 -6.28528e-07 6.2975e-20 -2.25729e-06 1.61313e-21 -3.02009e-09)
(2.47873e-06 1.49404e-06 -7.69563e-20 -2.47945e-06 -2.33078e-21 7.13582e-10)
(2.56249e-06 1.00402e-06 -1.43837e-19 -2.56368e-06 -7.31438e-21 1.18849e-09)
(2.5358e-06 4.87203e-07 -2.14842e-20 -2.53546e-06 2.1326e-21 -3.4253e-10)
(2.37825e-06 6.07265e-09 -8.85055e-20 -2.38091e-06 -2.89342e-21 2.66199e-09)
(2.10189e-06 -4.82049e-07 -2.67295e-21 -2.09824e-06 -4.14946e-21 -3.64672e-09)
(2.21875e-06 1.41488e-06 8.87361e-21 -2.2194e-06 5.68324e-21 6.41649e-10)
(2.30577e-06 9.82778e-07 7.09527e-20 -2.30684e-06 7.02049e-21 1.07745e-09)
(2.29716e-06 5.23535e-07 9.18422e-20 -2.29679e-06 4.80031e-21 -3.66671e-10)
(2.17391e-06 9.23723e-08 -1.1139e-20 -2.17638e-06 3.17464e-21 2.47015e-09)
(1.94794e-06 -3.53095e-07 -1.54179e-19 -1.94383e-06 -6.67221e-21 -4.11323e-09)
(1.98045e-06 1.335e-06 1.25102e-19 -1.98101e-06 9.50834e-21 5.63994e-10)
(2.06874e-06 9.55695e-07 -5.36654e-20 -2.0697e-06 -6.94568e-21 9.66989e-10)
(2.07484e-06 5.49279e-07 -7.48009e-20 -2.07447e-06 -7.76881e-21 -3.71067e-10)
(1.98112e-06 1.64419e-07 7.47603e-20 -1.98345e-06 3.0587e-21 2.33783e-09)
(1.79909e-06 -2.40371e-07 1.55467e-19 -1.79458e-06 1.24916e-20 -4.51477e-09)
(1.763e-06 1.25521e-06 -2.33887e-21 -1.76349e-06 -2.6574e-21 4.90024e-10)
(1.85089e-06 9.23627e-07 -9.0486e-20 -1.8518e-06 -4.91661e-21 9.10612e-10)
(1.8687e-06 5.65508e-07 -2.0674e-20 -1.86832e-06 -2.01563e-21 -3.7846e-10)
(1.79997e-06 2.23359e-07 -6.55986e-20 -1.80219e-06 -4.51666e-21 2.21936e-09)
(1.65593e-06 -1.4298e-07 -7.18202e-21 -1.65114e-06 -5.48784e-21 -4.78624e-09)
(1.4286e-06 1.43609e-06 -5.67266e-22 -1.42913e-06 -6.16647e-22 5.28488e-10)
(1.56548e-06 1.17634e-06 1.84784e-20 -1.56589e-06 1.07313e-21 4.18605e-10)
(1.65154e-06 8.87638e-07 2.70443e-20 -1.65235e-06 3.83181e-21 8.12383e-10)
(1.67835e-06 5.73286e-07 -1.04824e-19 -1.67796e-06 -5.08506e-21 -3.87833e-10)
(1.63049e-06 2.70317e-07 9.04228e-20 -1.63258e-06 7.39404e-21 2.08754e-09)
(1.51895e-06 -5.98277e-08 -1.51167e-19 -1.51399e-06 -8.46607e-21 -4.95989e-09)
(1.26098e-06 1.3232e-06 -1.78905e-20 -1.26145e-06 -1.45879e-21 4.60607e-10)
(1.3868e-06 1.09903e-06 -2.56189e-20 -1.38716e-06 -3.37111e-21 3.60909e-10)
(1.46995e-06 8.48621e-07 -2.84282e-20 -1.47067e-06 -3.46288e-21 7.21681e-10)
(1.50332e-06 5.73764e-07 1.35409e-19 -1.50294e-06 1.32935e-20 -3.83738e-10)
(1.47266e-06 3.06486e-07 -1.03133e-20 -1.47462e-06 -3.86042e-21 1.96908e-09)
(1.38857e-06 1.02219e-08 1.30311e-19 -1.38351e-06 1.11461e-20 -5.05728e-09)
(1.11078e-06 1.21671e-06 1.78598e-20 -1.11117e-06 3.16629e-21 3.90149e-10)
(1.22579e-06 1.02384e-06 -4.62287e-20 -1.22609e-06 -3.05896e-21 2.99505e-10)
(1.30518e-06 8.07382e-07 1.36553e-21 -1.30585e-06 1.44231e-21 6.72722e-10)
(1.34309e-06 5.67945e-07 5.9771e-20 -1.3427e-06 1.41507e-21 -3.84074e-10)
(1.3263e-06 3.33075e-07 -9.48264e-20 -1.32817e-06 -5.03612e-21 1.87176e-09)
(1.26515e-06 6.83673e-08 -5.59689e-20 -1.26007e-06 -5.52402e-21 -5.08897e-09)
(9.76644e-07 1.11672e-06 6.33991e-20 -9.76983e-07 4.27938e-21 3.38205e-10)
(1.08124e-06 9.51274e-07 3.29309e-20 -1.08149e-06 3.45993e-21 2.4661e-10)
(1.15624e-06 7.64807e-07 7.20884e-20 -1.15684e-06 5.27668e-21 5.97852e-10)
(1.19696e-06 5.56896e-07 -7.96795e-20 -1.19657e-06 -6.15345e-21 -3.93054e-10)
(1.19114e-06 3.51257e-07 1.37011e-19 -1.19292e-06 1.21483e-20 1.77562e-09)
(1.14894e-06 1.15741e-07 6.06806e-20 -1.14387e-06 5.51201e-21 -5.07494e-09)
(8.5722e-07 1.02323e-06 -7.36229e-20 -8.57508e-07 -7.58949e-21 2.87787e-10)
(9.51908e-07 8.81677e-07 -1.23485e-20 -9.52116e-07 -2.10173e-21 2.07776e-10)
(1.02214e-06 7.21493e-07 -8.50438e-20 -1.02269e-06 -9.22742e-21 5.44287e-10)
(1.06422e-06 5.4159e-07 9.75294e-20 -1.06383e-06 9.34394e-21 -3.86844e-10)
(1.06688e-06 3.62196e-07 9.02813e-21 -1.06855e-06 -1.35466e-21 1.66894e-09)
(1.0401e-06 1.53495e-07 -3.41253e-20 -1.03511e-06 -4.80143e-21 -4.9941e-09)
(7.51207e-07 9.36191e-07 2.9682e-20 -7.51449e-07 3.99506e-21 2.41784e-10)
(8.36558e-07 8.15378e-07 -3.07512e-20 -8.36716e-07 -2.40925e-21 1.57722e-10)
(9.01778e-07 6.78153e-07 -1.58297e-20 -9.02259e-07 2.45606e-22 4.81131e-10)
(9.44071e-07 5.22915e-07 -1.04911e-20 -9.43682e-07 -2.31434e-21 -3.89393e-10)
(9.53107e-07 3.66914e-07 -3.63032e-20 -9.54685e-07 -2.69779e-21 1.57797e-09)
(9.38669e-07 1.82736e-07 -1.07882e-19 -9.338e-07 -7.98929e-21 -4.86934e-09)
(6.57328e-07 8.55419e-07 -6.93617e-21 -6.57536e-07 8.56694e-22 2.08239e-10)
(7.33978e-07 7.52512e-07 8.24244e-21 -7.34114e-07 1.17169e-21 1.35483e-10)
(7.94118e-07 6.3525e-07 2.88049e-20 -7.94559e-07 2.92778e-21 4.40776e-10)
(8.35728e-07 5.0168e-07 -8.08358e-21 -8.35342e-07 -1.18076e-21 -3.85818e-10)
(8.49345e-07 3.66473e-07 2.41122e-20 -8.50834e-07 1.31036e-21 1.48812e-09)
(8.44614e-07 2.04562e-07 8.7043e-20 -8.3989e-07 8.87104e-21 -4.7234e-09)
(5.74386e-07 7.80743e-07 1.40962e-19 -5.74559e-07 1.38615e-20 1.73427e-10)
(6.42974e-07 6.93258e-07 8.23916e-21 -6.43073e-07 1.25671e-21 9.86448e-11)
(6.98082e-07 5.93261e-07 5.53017e-21 -6.98466e-07 1.19942e-23 3.83384e-10)
(7.38324e-07 4.78613e-07 -5.15791e-20 -7.37946e-07 -3.39371e-21 -3.78559e-10)
(7.55083e-07 3.61775e-07 -8.71784e-20 -7.56479e-07 -7.74477e-21 1.39535e-09)
(7.57822e-07 2.19969e-07 -1.54158e-20 -7.53275e-07 -1.87826e-21 -4.54652e-09)
(5.0127e-07 7.11884e-07 -4.43806e-20 -5.01415e-07 -5.83014e-21 1.44795e-10)
(5.62463e-07 6.37612e-07 1.89355e-20 -5.62539e-07 1.56104e-21 7.6667e-11)
(6.12666e-07 5.52508e-07 -2.12442e-20 -6.13019e-07 -2.81445e-21 3.53193e-10)
(6.51044e-07 4.54345e-07 1.01674e-19 -6.5067e-07 9.53007e-21 -3.74329e-10)
(6.69754e-07 3.53657e-07 7.1511e-20 -6.71066e-07 7.60397e-21 1.31148e-09)
(6.78097e-07 2.29883e-07 7.64926e-20 -6.7375e-07 6.26589e-21 -4.34746e-09)
(3.76174e-07 7.01562e-07 3.50508e-20 -3.76258e-07 3.32743e-21 8.41397e-11)
(4.3693e-07 6.48558e-07 5.43577e-20 -4.37055e-07 6.66671e-21 1.25203e-10)
(4.91377e-07 5.85596e-07 -1.7187e-20 -4.91426e-07 -2.1982e-21 4.9814e-11)
(5.36861e-07 5.13301e-07 -3.94806e-20 -5.37174e-07 -3.64517e-21 3.13057e-10)
(5.73057e-07 4.29403e-07 -6.75622e-20 -5.72689e-07 -7.42631e-21 -3.6753e-10)
(5.92784e-07 3.42859e-07 -2.11464e-20 -5.94013e-07 -2.24217e-21 1.22837e-09)
(6.0518e-07 2.35193e-07 -1.30357e-19 -6.01044e-07 -1.34112e-20 -4.1368e-09)
(3.27027e-07 6.35323e-07 -5.20382e-20 -3.27093e-07 -5.75584e-21 6.58851e-11)
(3.80404e-07 5.90465e-07 3.91881e-20 -3.80507e-07 2.92104e-21 1.02565e-10)
(4.28721e-07 5.37142e-07 -4.65442e-20 -4.28759e-07 -4.6742e-21 3.82485e-11)
(4.69769e-07 4.75804e-07 -1.05118e-20 -4.7005e-07 -1.93305e-23 2.81454e-10)
(5.03557e-07 4.04246e-07 2.27068e-20 -5.03204e-07 1.93723e-21 -3.52474e-10)
(5.23585e-07 3.30023e-07 4.71443e-20 -5.24733e-07 5.28685e-21 1.14778e-09)
(5.38765e-07 2.36664e-07 -1.78973e-20 -5.34852e-07 5.43226e-23 -3.9137e-09)
(2.83982e-07 5.75234e-07 3.84376e-20 -2.84037e-07 5.3521e-21 5.52663e-11)
(3.30828e-07 5.37288e-07 -7.39654e-20 -3.30915e-07 -8.17857e-21 8.66681e-11)
(3.73595e-07 4.92178e-07 -6.34685e-21 -3.73623e-07 -5.59522e-22 2.7208e-11)
(4.10494e-07 4.4019e-07 9.74394e-20 -4.10739e-07 9.57297e-21 2.45457e-10)
(4.41767e-07 3.79255e-07 -9.67391e-20 -4.41427e-07 -9.88651e-21 -3.40722e-10)
(4.61551e-07 3.15733e-07 4.61242e-20 -4.62616e-07 4.57722e-21 1.06514e-09)
(4.78504e-07 2.35007e-07 5.72349e-20 -4.74815e-07 4.77672e-21 -3.68931e-09)
(2.46318e-07 5.20818e-07 6.23634e-20 -2.46361e-07 6.78239e-21 4.34765e-11)
(2.87381e-07 4.8873e-07 5.72383e-22 -2.87452e-07 6.9176e-22 7.06508e-11)
(3.25171e-07 4.50583e-07 7.47815e-21 -3.25187e-07 1.06062e-21 1.61764e-11)
(3.58215e-07 4.06562e-07 -1.14544e-19 -3.58431e-07 -1.25534e-20 2.16287e-10)
(3.8696e-07 3.54729e-07 -3.42712e-21 -3.86633e-07 -3.85499e-22 -3.26423e-10)
(4.06104e-07 3.00451e-07 8.05979e-20 -4.071e-07 8.65801e-21 9.95849e-10)
(4.2403e-07 2.30839e-07 -1.5953e-19 -4.20571e-07 -1.66912e-20 -3.45885e-09)
(2.13385e-07 4.71597e-07 1.55403e-20 -2.1342e-07 1.37715e-21 3.49381e-11)
(2.49342e-07 4.44468e-07 -2.10358e-20 -2.49404e-07 -1.954e-21 6.25983e-11)
(2.82686e-07 4.12216e-07 -1.17938e-20 -2.82693e-07 -1.50919e-21 7.48941e-12)
(3.12176e-07 3.74968e-07 3.17798e-20 -3.12374e-07 4.55576e-21 1.98514e-10)
(3.38444e-07 3.30926e-07 -5.70856e-20 -3.38133e-07 -6.10801e-21 -3.11324e-10)
(3.56663e-07 2.84627e-07 6.29358e-20 -3.57586e-07 6.30349e-21 9.23313e-10)
(3.74943e-07 2.24734e-07 -2.78228e-20 -3.71708e-07 -2.06355e-21 -3.23446e-09)
(1.84608e-07 4.2708e-07 8.47511e-21 -1.84633e-07 5.13385e-22 2.54993e-11)
(2.16061e-07 4.04157e-07 4.54373e-20 -2.16113e-07 5.23623e-21 5.19028e-11)
(2.45437e-07 3.76905e-07 -4.13299e-21 -2.45434e-07 -2.55122e-22 -2.93944e-12)
(2.71677e-07 3.45415e-07 2.68464e-20 -2.71852e-07 1.92056e-21 1.74842e-10)
(2.95557e-07 3.08027e-07 -7.73999e-21 -2.95257e-07 -9.95373e-22 -2.99956e-10)
(3.12674e-07 2.6858e-07 6.27377e-20 -3.13531e-07 6.58745e-21 8.57698e-10)
(3.30844e-07 2.17165e-07 -6.83846e-20 -3.27831e-07 -6.87169e-21 -3.01338e-09)
(1.59498e-07 3.86716e-07 -2.97058e-20 -1.59519e-07 -3.75993e-21 2.14047e-11)
(1.86991e-07 3.67366e-07 1.68986e-20 -1.87036e-07 1.62874e-21 4.46487e-11)
(2.1282e-07 3.44371e-07 2.15693e-20 -2.12816e-07 2.40389e-21 -3.65843e-12)
(2.36116e-07 3.17779e-07 -1.07562e-19 -2.36274e-07 -1.16992e-20 1.57549e-10)
(2.57711e-07 2.86094e-07 -7.55419e-20 -2.57432e-07 -8.4338e-21 -2.79415e-10)
(2.73621e-07 2.52546e-07 5.07861e-20 -2.74414e-07 4.92211e-21 7.9365e-10)
(2.91333e-07 2.08522e-07 -6.42391e-21 -2.88536e-07 -5.5474e-22 -2.7967e-09)
(1.12366e-07 3.63432e-07 3.16445e-21 -1.12385e-07 6.54904e-22 1.91279e-11)
(1.37629e-07 3.49962e-07 -3.57493e-20 -1.37644e-07 -3.63782e-21 1.44742e-11)
(1.6164e-07 3.33655e-07 2.47768e-20 -1.61674e-07 2.39339e-21 3.38692e-11)
(1.84316e-07 3.14286e-07 -3.81536e-20 -1.84305e-07 -4.65378e-21 -1.06812e-11)
(2.04937e-07 2.91877e-07 2.67511e-21 -2.05074e-07 7.64634e-22 1.37582e-10)
(2.24381e-07 2.65078e-07 -1.46844e-20 -2.24113e-07 -8.43733e-22 -2.67727e-10)
(2.39026e-07 2.36613e-07 9.63148e-21 -2.39757e-07 5.38706e-22 7.31823e-10)
(2.56029e-07 1.99036e-07 -3.22671e-20 -2.53441e-07 -2.96165e-21 -2.58746e-09)
(9.66552e-08 3.27802e-07 2.18013e-20 -9.66775e-08 2.54511e-21 2.23341e-11)
(1.18652e-07 3.16424e-07 5.87659e-20 -1.1867e-07 6.95969e-21 1.75906e-11)
(1.39603e-07 3.0268e-07 -5.06061e-20 -1.39639e-07 -5.71928e-21 3.57094e-11)
(1.59486e-07 2.86371e-07 -5.45611e-20 -1.59478e-07 -5.6234e-21 -7.26504e-12)
(1.7769e-07 2.67506e-07 -1.93055e-20 -1.77818e-07 -2.53917e-21 1.28641e-10)
(1.95122e-07 2.44881e-07 5.75212e-20 -1.94877e-07 6.46923e-21 -2.45499e-10)
(2.08487e-07 2.20787e-07 -4.38672e-20 -2.09165e-07 -5.02232e-21 6.77105e-10)
(2.24588e-07 1.88837e-07 7.8056e-20 -2.22208e-07 8.57144e-21 -2.37965e-09)
(8.29702e-08 2.95582e-07 1.93663e-20 -8.29775e-08 2.38701e-21 7.28319e-12)
(1.02132e-07 2.85935e-07 -2.69758e-20 -1.02135e-07 -3.47154e-21 2.7105e-12)
(1.20415e-07 2.74318e-07 -3.21145e-21 -1.20434e-07 -2.46179e-22 1.91117e-11)
(1.37838e-07 2.60557e-07 6.6726e-20 -1.37818e-07 8.08714e-21 -1.99603e-11)
(1.53891e-07 2.44652e-07 -3.95481e-20 -1.53996e-07 -4.89676e-21 1.04266e-10)
(1.69468e-07 2.25548e-07 -1.3572e-20 -1.69233e-07 -1.28506e-21 -2.35103e-10)
(1.81602e-07 2.05153e-07 -4.19518e-20 -1.82212e-07 -4.19086e-21 6.09309e-10)
(1.96665e-07 1.78048e-07 8.68203e-21 -1.94481e-07 5.67154e-22 -2.18443e-09)
(7.1042e-08 2.66658e-07 3.63487e-20 -7.107e-08 3.97555e-21 2.80095e-11)
(8.77407e-08 2.58429e-07 -1.84098e-20 -8.77621e-08 -1.96949e-21 2.13978e-11)
(1.03708e-07 2.48554e-07 9.90739e-21 -1.0374e-07 9.69109e-22 3.20055e-11)
(1.18973e-07 2.36891e-07 4.74377e-20 -1.18971e-07 5.51526e-21 -1.41449e-12)
(1.33119e-07 2.23434e-07 -1.5301e-19 -1.33228e-07 -1.71038e-20 1.08521e-10)
(1.47013e-07 2.07256e-07 1.08793e-19 -1.46809e-07 1.18176e-20 -2.03833e-10)
(1.57986e-07 1.89959e-07 4.35822e-20 -1.58553e-07 5.05318e-21 5.67136e-10)
(1.71949e-07 1.66987e-07 1.0079e-20 -1.69982e-07 8.69083e-22 -1.96659e-09)
(6.04774e-08 2.40715e-07 -4.09931e-20 -6.04559e-08 -5.09642e-21 -2.14396e-11)
(7.50147e-08 2.33656e-07 3.26148e-21 -7.50012e-08 4.53665e-22 -1.34985e-11)
(8.89603e-08 2.25211e-07 -1.79832e-20 -8.89585e-08 -1.94353e-21 -1.7541e-12)
(1.02352e-07 2.15266e-07 4.14925e-20 -1.02316e-07 4.48989e-21 -3.60547e-11)
(1.14806e-07 2.03817e-07 2.77704e-20 -1.14878e-07 3.73329e-21 7.2003e-11)
(1.27188e-07 1.90041e-07 -1.8136e-20 -1.26972e-07 -2.02985e-21 -2.15325e-10)
(1.3709e-07 1.75284e-07 -1.99832e-20 -1.3757e-07 -2.49189e-21 4.79791e-10)
(1.49944e-07 1.55741e-07 -3.26815e-20 -1.4813e-07 -3.474e-21 -1.81357e-09)
(5.13324e-08 2.18406e-07 -2.56427e-20 -5.13493e-08 -2.93136e-21 1.69328e-11)
(6.40144e-08 2.12377e-07 2.95565e-21 -6.40311e-08 4.58902e-22 1.67428e-11)
(7.6208e-08 2.05172e-07 6.2372e-20 -7.62303e-08 6.96521e-21 2.22597e-11)
(8.79813e-08 1.9669e-07 -3.34231e-22 -8.79578e-08 3.17216e-23 -2.34761e-11)
(9.89835e-08 1.86929e-07 -4.77448e-20 -9.90451e-08 -5.5947e-21 6.15389e-11)
(1.1e-07 1.75155e-07 9.78862e-20 -1.09804e-07 1.11562e-20 -1.96288e-10)
(1.1895e-07 1.62494e-07 -1.85832e-20 -1.19358e-07 -2.26517e-21 4.07795e-10)
(1.30733e-07 1.45742e-07 6.12575e-20 -1.29087e-07 7.05739e-21 -1.64644e-09)
(4.48336e-08 2.00387e-07 -4.94787e-20 -4.49263e-08 -5.66489e-21 9.27199e-11)
(5.60544e-08 1.95107e-07 5.32396e-20 -5.61731e-08 6.20778e-21 1.18698e-10)
(6.68636e-08 1.88825e-07 -8.76475e-20 -6.7006e-08 -1.04801e-20 1.42394e-10)
(7.73003e-08 1.8146e-07 2.25606e-20 -7.74272e-08 2.6325e-21 1.2687e-10)
(8.70832e-08 1.72983e-07 2.8457e-20 -8.73082e-08 3.34473e-21 2.25012e-10)
(9.69478e-08 1.62722e-07 2.50577e-20 -9.69634e-08 2.1802e-21 1.55823e-11)
(1.04984e-07 1.5168e-07 -7.89234e-20 -1.05608e-07 -8.36181e-21 6.23734e-10)
(1.1595e-07 1.37289e-07 4.14104e-20 -1.14748e-07 4.04466e-21 -1.20173e-09)
(2.90438e-08 1.88692e-07 1.01176e-20 -2.8788e-08 1.25069e-21 -2.55841e-10)
(3.92782e-08 1.84887e-07 2.79664e-20 -3.9145e-08 3.52703e-21 -1.33205e-10)
(4.93119e-08 1.80054e-07 -1.10512e-20 -4.91887e-08 -1.25837e-21 -1.23215e-10)
(5.901e-08 1.74377e-07 -1.7257e-20 -5.88633e-08 -1.84329e-21 -1.46697e-10)
(6.83679e-08 1.67814e-07 4.62846e-20 -6.81598e-08 5.22004e-21 -2.08167e-10)
(7.71134e-08 1.60318e-07 -2.82498e-20 -7.69589e-08 -3.24838e-21 -1.54482e-10)
(8.59742e-08 1.51287e-07 -9.3491e-20 -8.55858e-08 -1.06902e-20 -3.88391e-10)
(9.3185e-08 1.41521e-07 1.08637e-19 -9.32917e-08 1.25931e-20 1.06723e-10)
(1.03259e-07 1.29001e-07 -5.95556e-20 -1.01584e-07 -6.96095e-21 -1.67449e-09)
(2.53032e-08 1.74535e-07 2.84439e-21 -2.52793e-08 2.98584e-22 -2.39399e-11)
(3.4447e-08 1.7103e-07 -8.46943e-21 -3.46879e-08 -1.3782e-21 2.40903e-10)
(4.34915e-08 1.66558e-07 6.16752e-20 -4.3849e-08 7.19815e-21 3.57513e-10)
(5.23428e-08 1.61294e-07 -3.40371e-20 -5.27159e-08 -3.78598e-21 3.73103e-10)
(6.08778e-08 1.55239e-07 -2.39318e-20 -6.12278e-08 -3.02876e-21 3.49987e-10)
(6.88166e-08 1.48359e-07 -1.117e-20 -6.92573e-08 -1.18276e-21 4.40747e-10)
(7.68015e-08 1.40176e-07 7.94037e-20 -7.70997e-08 9.30813e-21 2.98229e-10)
(8.32393e-08 1.31444e-07 -2.72377e-20 -8.41137e-08 -2.68996e-21 8.74332e-10)
(9.23319e-08 1.2078e-07 -5.31349e-20 -9.18131e-08 -6.44213e-21 -5.18752e-10)
(2.07507e-08 1.59832e-07 -7.58134e-22 -1.98567e-08 -7.85656e-23 -8.94002e-10)
(2.85469e-08 1.56675e-07 -5.61214e-20 -2.78656e-08 -6.78215e-21 -6.81289e-10)
(3.63446e-08 1.52702e-07 -4.8169e-20 -3.57146e-08 -5.65247e-21 -6.29966e-10)
(4.41018e-08 1.48039e-07 1.7112e-20 -4.33886e-08 2.13463e-21 -7.1323e-10)
(5.162e-08 1.42702e-07 -1.31332e-20 -5.08038e-08 -1.65791e-21 -8.16187e-10)
(5.86505e-08 1.36642e-07 3.22368e-20 -5.78574e-08 4.07443e-21 -7.93092e-10)
(6.5855e-08 1.29366e-07 -6.44776e-20 -6.48399e-08 -8.36763e-21 -1.0151e-09)
(7.18584e-08 1.213e-07 2.00512e-19 -7.11227e-08 2.35988e-20 -7.35669e-10)
(8.0209e-08 1.11186e-07 -9.9894e-20 -7.78731e-08 -1.15134e-20 -2.33598e-09)
(1.88036e-08 1.47581e-07 -1.13541e-21 -1.96093e-08 -2.57212e-23 8.05758e-10)
(2.58854e-08 1.44656e-07 -5.22704e-20 -2.71571e-08 -6.07813e-21 1.27171e-09)
(3.30266e-08 1.40947e-07 1.10167e-19 -3.4544e-08 1.30245e-20 1.51733e-09)
(4.01858e-08 1.36549e-07 6.71135e-21 -4.17465e-08 8.13878e-22 1.56073e-09)
(4.70611e-08 1.31506e-07 -6.31753e-20 -4.86244e-08 -7.05224e-21 1.5633e-09)
(5.33878e-08 1.25839e-07 7.35979e-20 -5.50735e-08 8.30944e-21 1.68566e-09)
(5.96059e-08 1.19281e-07 -1.40691e-19 -6.13305e-08 -1.63959e-20 1.72469e-09)
(6.4557e-08 1.12501e-07 1.29209e-19 -6.7029e-08 1.43769e-20 2.47196e-09)
(7.18076e-08 1.05059e-07 -1.52423e-19 -7.35961e-08 -1.69599e-20 1.78855e-09)