/*--------------------------------*- C++ -*----------------------------------*\
| =========                 |                                                 |
| \\      /  F ield         | OpenFOAM: The Open Source CFD Toolbox           |
|  \\    /   O peration     | Version:  2506                                  |
|   \\  /    A nd           | Website:  www.openfoam.com                      |
|    \\/     M anipulation  |                                                 |
\*---------------------------------------------------------------------------*/
FoamFile
{
    version     2.0;
    format      ascii;
    arch        "LSB;label=32;scalar=64";
    class       volVectorField;
    location    "200";
    object      momentError;
}
// * * * * * * * * * * * * * * * * * * * * * * * * * * * * * * * * * * * * * //

dimensions      [0 1 -2 0 0 0 0];

internalField   nonuniform List<vector> 
1340
(
(0.300494 -1.14699 -6.9556e-15)
(0.20911 -1.12588 2.35535e-14)
(0.0182553 -0.943129 -4.63922e-14)
(-0.0609898 -0.896781 1.79054e-14)
(-0.11728 -0.806371 1.08335e-13)
(-0.156507 -0.712433 -1.72445e-13)
(-0.187329 -0.621491 8.91339e-14)
(-0.198605 -0.52022 -1.10164e-13)
(-0.194952 -0.43058 -2.52217e-13)
(-0.182187 -0.344591 3.41257e-13)
(-0.163456 -0.287842 1.23273e-13)
(-0.103785 -0.176569 -2.27335e-13)
(-0.0590422 -0.106598 -3.32687e-13)
(-0.0208353 -0.048525 -5.69041e-14)
(0.0236158 0.00434655 -1.39144e-13)
(0.0701576 0.0514982 -3.09255e-13)
(0.124079 0.0914141 -1.46357e-13)
(0.187014 0.124182 8.30757e-13)
(0.261168 0.150835 4.2315e-13)
(0.345264 0.166373 -5.95643e-13)
(0.412965 0.169994 1.05956e-13)
(0.440631 0.142767 1.53501e-13)
(0.322334 0.0931578 -6.7115e-14)
(0.161722 0.0591584 -1.53777e-13)
(0.113294 0.0307623 3.65744e-14)
(0.0859762 0.00319465 -2.28522e-15)
(0.076816 -0.00807335 4.15064e-14)
(0.071746 -0.0115361 -1.64742e-14)
(0.0717053 -0.0107104 4.40717e-14)
(0.0745793 -0.00907948 1.55248e-13)
(0.0734251 -0.00743169 3.07707e-14)
(0.0608968 -0.00548978 -1.29293e-13)
(0.0507386 -0.00464634 -6.61461e-15)
(0.0407614 -0.00425885 -2.16924e-13)
(0.0338372 -0.00413294 -2.85123e-13)
(0.341525 -1.07353 -1.09471e-14)
(0.363075 -0.869565 2.70663e-14)
(0.356917 -0.649873 1.58431e-15)
(0.302705 -0.47295 3.64169e-14)
(0.248517 -0.331278 -3.2764e-14)
(0.186039 -0.18183 -9.57432e-14)
(0.0744037 -0.0443577 -1.00753e-13)
(-0.0748108 -0.822403 -1.33161e-14)
(-0.164082 -0.816644 5.65942e-15)
(-0.229623 -0.687487 7.42837e-15)
(-0.315902 -0.662474 -3.27205e-14)
(-0.369829 -0.611389 2.06678e-14)
(-0.4049 -0.552605 7.88863e-14)
(-0.44023 -0.488797 1.02775e-13)
(-0.455339 -0.421895 9.94913e-14)
(-0.452486 -0.35794 -3.9755e-15)
(-0.445467 -0.30183 1.89091e-13)
(-0.420381 -0.239329 -2.07434e-13)
(-0.416848 -0.262855 -1.18491e-13)
(-0.406971 -0.258843 4.4592e-13)
(-0.400159 -0.235242 1.277e-13)
(-0.364531 -0.227349 -1.18535e-13)
(-0.333674 -0.217818 -1.7645e-14)
(-0.297336 -0.214591 3.40635e-13)
(-0.251004 -0.212744 -1.5438e-13)
(-0.18462 -0.212371 -4.89494e-13)
(-0.0893321 -0.206037 1.87928e-13)
(0.0815518 -0.186481 2.34758e-13)
(0.25876 -0.126459 4.61231e-14)
(0.484276 -0.0315165 -1.27411e-13)
(0.627639 0.0436063 1.92031e-13)
(0.56156 0.0512826 -4.17001e-14)
(0.431415 0.0345252 -7.06813e-14)
(0.332946 0.0188743 -3.02024e-14)
(0.254648 0.00384431 5.52643e-15)
(0.178493 -0.00366028 -1.53627e-14)
(0.112168 -0.00863504 -1.68565e-14)
(0.0728243 -0.0118149 -2.04319e-14)
(0.0712512 -0.0129618 3.68583e-14)
(0.0717662 -0.0119216 -1.89123e-13)
(0.0641664 -0.00994672 -2.23709e-13)
(0.056474 -0.00906649 1.63786e-13)
(-0.0157361 -0.775876 -4.53541e-15)
(0.0563981 -0.651963 1.25496e-13)
(0.11238 -0.50948 -8.28505e-15)
(0.133807 -0.394861 -1.30063e-13)
(0.141788 -0.286104 -2.5566e-14)
(0.131411 -0.17642 1.27988e-13)
(0.0645539 -0.666253 -5.2192e-15)
(0.0163327 -0.658484 -5.62745e-16)
(-0.0437251 -0.560149 -5.42926e-15)
(-0.0954348 -0.560358 1.50174e-14)
(-0.129627 -0.534019 3.8352e-15)
(-0.159265 -0.492596 -3.28752e-14)
(-0.18752 -0.452844 -1.06217e-13)
(-0.204141 -0.408152 -9.4265e-14)
(-0.210601 -0.359758 -1.10496e-13)
(-0.211603 -0.314333 1.10609e-14)
(-0.205112 -0.271651 2.61901e-13)
(-0.193294 -0.226856 7.03127e-14)
(-0.180725 -0.182483 -9.88997e-14)
(-0.16297 -0.14814 -2.39786e-13)
(-0.164273 -0.112325 1.09829e-13)
(-0.1755 -0.0823394 1.45264e-13)
(-0.185665 -0.0659491 -9.39274e-14)
(-0.202739 -0.0586397 -1.88197e-13)
(-0.236299 -0.0635463 3.16072e-13)
(-0.289934 -0.0811104 -9.47897e-14)
(-0.373981 -0.108359 -1.20385e-13)
(-0.426643 -0.150192 1.79535e-13)
(-0.401602 -0.125777 7.15612e-14)
(-0.275429 -0.0643335 -3.05826e-15)
(-0.135057 -0.00786334 -3.29212e-14)
(-0.0287277 0.0231516 3.84395e-15)
(0.0611939 0.0237336 -3.0551e-14)
(0.143203 0.0106499 2.11389e-14)
(0.192747 0.00447005 -3.30666e-14)
(0.211175 -0.000139732 -7.26187e-14)
(0.194515 -0.00565197 7.00069e-14)
(0.150714 -0.00917579 3.05373e-14)
(0.0947334 -0.0100397 -1.222e-13)
(0.0624859 -0.0102405 7.74738e-14)
(0.0566083 -0.0113192 1.83456e-14)
(0.100163 -0.633136 2.95588e-14)
(0.12323 -0.537899 -2.80147e-14)
(0.137531 -0.420338 -9.91768e-14)
(0.142342 -0.334938 4.50326e-14)
(0.134862 -0.251926 1.99109e-14)
(0.116943 -0.169186 -6.49062e-14)
(-0.0103781 -0.531268 7.99683e-15)
(-0.056105 -0.523672 -2.41123e-15)
(-0.0970251 -0.450778 2.44123e-16)
(-0.145984 -0.45198 -7.19071e-15)
(-0.178332 -0.427221 1.49171e-15)
(-0.207142 -0.393085 3.51438e-14)
(-0.23568 -0.360451 5.77404e-14)
(-0.252621 -0.322237 5.41011e-14)
(-0.261356 -0.281541 -1.3217e-13)
(-0.26475 -0.242655 -1.10742e-13)
(-0.260183 -0.204517 1.40315e-13)
(-0.250207 -0.168891 2.54839e-13)
(-0.234466 -0.140511 1.35108e-13)
(-0.215839 -0.119611 -4.69555e-13)
(-0.202074 -0.0985998 -1.61511e-13)
(-0.169151 -0.0979198 3.84034e-13)
(-0.146806 -0.0915787 8.39895e-14)
(-0.125106 -0.0888706 -1.24071e-13)
(-0.107288 -0.0904122 -2.28123e-13)
(-0.0999 -0.0969278 1.97872e-13)
(-0.121805 -0.116797 4.36437e-14)
(-0.178641 -0.122142 -2.22747e-13)
(-0.27223 -0.11523 1.65554e-13)
(-0.326112 -0.0773308 -1.1347e-13)
(-0.304287 -0.0298144 -3.73802e-14)
(-0.23662 -0.00092622 3.56261e-14)
(-0.19194 0.00543014 -4.5454e-14)
(-0.196708 0.00636421 1.00328e-14)
(-0.163025 0.00723542 1.37525e-14)
(-0.107979 0.0103998 2.12248e-14)
(0.0183163 -0.00117971 -9.61196e-15)
(0.0705978 -0.00300663 2.54725e-14)
(0.103771 -0.00805859 2.08468e-13)
(0.105834 -0.0101842 5.67677e-14)
(0.0897539 -0.0127701 -7.87415e-14)
(0.0283508 -0.505225 1.8945e-14)
(0.061076 -0.439558 -3.70653e-14)
(0.0869265 -0.352285 -4.22804e-15)
(0.10296 -0.289689 -3.35307e-14)
(0.107439 -0.224686 -2.00154e-14)
(0.00983572 -0.444186 -4.06123e-15)
(-0.022743 -0.437933 4.91021e-15)
(-0.0535901 -0.381852 -1.09853e-16)
(-0.0903959 -0.388721 -3.89782e-15)
(-0.114641 -0.37256 -2.79296e-14)
(-0.136822 -0.348155 3.40642e-14)
(-0.159827 -0.32796 1.21034e-14)
(-0.173807 -0.301809 -6.90578e-14)
(-0.182338 -0.272323 -5.7705e-14)
(-0.18673 -0.243762 -1.20361e-13)
(-0.184697 -0.214678 1.7433e-14)
(-0.178308 -0.186715 -1.31615e-13)
(-0.168076 -0.161488 8.00848e-15)
(-0.156381 -0.138524 3.52203e-13)
(-0.142977 -0.118837 -2.32795e-13)
(-0.13356 -0.0951668 -1.66985e-13)
(-0.128541 -0.0742603 1.01067e-13)
(-0.122695 -0.0608441 -1.31338e-13)
(-0.116003 -0.0529162 8.47922e-14)
(-0.110105 -0.0495816 -1.44066e-13)
(-0.107491 -0.049905 -1.61059e-13)
(-0.114689 -0.0499546 1.82641e-13)
(-0.137035 -0.0415936 -4.04303e-14)
(-0.16163 -0.0218572 8.94154e-14)
(-0.167769 -0.000942605 5.65792e-14)
(-0.161237 0.0132424 6.2171e-15)
(-0.140277 0.0155814 1.08388e-13)
(-0.109757 0.00697294 -2.10683e-14)
(-0.117786 -0.000349109 2.2464e-14)
(-0.130781 0.00673611 -5.5605e-14)
(-0.124081 0.0118573 -1.55191e-13)
(-0.10414 0.00548747 5.03048e-16)
(0.00895169 -0.00718863 1.39883e-13)
(-0.000929461 0.00324338 -3.24548e-14)
(0.0695055 -0.00853127 -1.06761e-13)
(0.0375886 -0.422171 2.03874e-14)
(0.0589055 -0.370975 1.44934e-14)
(0.076097 -0.300342 -3.2012e-14)
(0.0882078 -0.251558 7.89676e-14)
(0.0927912 -0.199949 1.86815e-13)
(-0.0022334 -0.371891 1.92615e-15)
(-0.0309892 -0.366547 5.46855e-16)
(-0.0561834 -0.322712 3.20207e-15)
(-0.0890089 -0.329184 -2.40492e-15)
(-0.110682 -0.315858 -1.10421e-15)
(-0.131012 -0.295845 1.58093e-14)
(-0.152644 -0.279312 7.50022e-15)
(-0.166281 -0.256992 4.00237e-14)
(-0.175813 -0.232046 6.71235e-14)
(-0.181983 -0.207128 -3.17382e-14)
(-0.182166 -0.181031 -7.80314e-15)
(-0.178495 -0.155373 7.45757e-14)
(-0.171539 -0.131608 -1.44439e-13)
(-0.161609 -0.110336 -2.87451e-13)
(-0.150277 -0.0916428 1.74177e-13)
(-0.139199 -0.0742306 2.6704e-13)
(-0.12355 -0.0695673 -3.54109e-13)
(-0.113436 -0.0667379 6.03363e-14)
(-0.104632 -0.0672357 1.1171e-13)
(-0.098623 -0.0698546 -1.12291e-13)
(-0.0978459 -0.0730692 8.50714e-14)
(-0.102544 -0.0716228 -8.67101e-14)
(-0.109271 -0.0579145 -1.692e-13)
(-0.111053 -0.0324677 -5.01122e-14)
(-0.102913 -0.0077838 -1.15871e-13)
(-0.088863 0.00653993 5.60429e-14)
(-0.07204 0.00919135 -1.61454e-14)
(-0.0602863 0.00564866 -1.0871e-14)
(-0.0606175 0.00339058 2.12987e-14)
(-0.0468483 0.000626217 4.24543e-14)
(-0.0953444 0.0072451 3.28624e-14)
(-0.0854088 0.0122086 -4.50874e-14)
(-0.113637 0.00628931 -1.16134e-13)
(-0.112136 0.00414188 -1.48477e-13)
(-0.0609414 0.00671646 3.28048e-14)
(0.0229241 -0.354055 8.65631e-15)
(0.0433025 -0.314575 -2.08353e-14)
(0.0601948 -0.258439 1.05501e-14)
(0.0726579 -0.219829 -6.30929e-15)
(-0.000654798 -0.317122 3.11005e-15)
(-0.0239257 -0.313469 6.00061e-16)
(-0.0445211 -0.279202 -1.22632e-15)
(-0.0717588 -0.286498 3.99274e-15)
(-0.0892325 -0.276687 -8.308e-15)
(-0.106536 -0.261758 -8.38749e-16)
(-0.125267 -0.250622 2.32304e-14)
(-0.1373 -0.233436 -1.0983e-14)
(-0.145836 -0.213492 -3.905e-14)
(-0.151761 -0.193774 2.64248e-14)
(-0.152611 -0.172709 -6.04413e-14)
(-0.150235 -0.151736 -1.49824e-13)
(-0.145045 -0.132158 1.05737e-13)
(-0.137012 -0.114133 3.74814e-13)
(-0.127786 -0.0980032 -1.41309e-14)
(-0.117287 -0.0846406 -3.9922e-13)
(-0.107611 -0.0715154 3.30738e-13)
(-0.102633 -0.0620112 2.32342e-13)
(-0.09907 -0.0566128 1.2436e-13)
(-0.0972004 -0.054189 5.8645e-14)
(-0.0990623 -0.0540353 -2.89001e-14)
(-0.105202 -0.0526949 1.61832e-13)
(-0.112503 -0.0441507 1.12056e-13)
(-0.11235 -0.0261177 -1.02462e-14)
(-0.0994211 -0.00632674 2.13652e-13)
(-0.0791347 0.00595891 -6.5456e-14)
(-0.0612618 0.00868615 -7.61864e-15)
(-0.0500053 0.00625807 5.66223e-15)
(-0.0439517 0.00460174 -2.00754e-14)
(-0.0417979 0.00447699 -2.07368e-14)
(-0.0406166 0.00435136 -1.5251e-14)
(-0.047918 0.00487744 4.7779e-14)
(-0.0963468 0.0163094 -2.25765e-14)
(-0.0390385 -0.000770157 -1.27733e-13)
(-0.0778637 0.00604177 -2.06358e-14)
(0.0198161 -0.30189 -9.70051e-15)
(0.0366244 -0.270308 1.22129e-14)
(0.0508367 -0.224535 -2.60916e-14)
(0.0618825 -0.193247 -3.97091e-15)
(-0.0027608 -0.272217 1.41776e-15)
(-0.0230301 -0.270422 1.56132e-15)
(-0.0404176 -0.243057 -9.07554e-16)
(-0.0641965 -0.249669 -1.97262e-15)
(-0.0815042 -0.24194 -3.65401e-15)
(-0.0947111 -0.229707 1.60888e-14)
(-0.110703 -0.220887 1.35121e-14)
(-0.122322 -0.206709 -5.13091e-14)
(-0.13115 -0.190055 2.15668e-14)
(-0.137773 -0.173081 1.10231e-13)
(-0.139563 -0.15443 4.60302e-14)
(-0.138563 -0.135767 2.1433e-14)
(-0.135057 -0.118049 -1.86802e-13)
(-0.128912 -0.101376 -4.27323e-13)
(-0.121307 -0.0863186 -3.02273e-13)
(-0.112621 -0.0730524 1.19365e-13)
(-0.10364 -0.0612412 -7.34032e-14)
(-0.0964616 -0.0561968 -3.7559e-13)
(-0.0925276 -0.0543502 -1.94404e-13)
(-0.0903456 -0.0542439 1.60357e-13)
(-0.0915073 -0.0544158 1.60709e-13)
(-0.096528 -0.0522388 -9.37199e-14)
(-0.103658 -0.0437843 -3.81205e-14)
(-0.106116 -0.027701 2.02111e-15)
(-0.0976201 -0.00979513 -6.08053e-14)
(-0.081074 0.00220647 6.30816e-14)
(-0.0645721 0.00587728 7.19122e-15)
(-0.0528669 0.00476059 4.30562e-15)
(-0.0454422 0.00385689 -4.40344e-15)
(-0.0392814 0.00374082 5.2028e-14)
(-0.0342606 0.00352482 3.48563e-14)
(-0.0304979 0.0032578 -3.50757e-15)
(-0.0251553 0.0017827 1.13048e-13)
(-0.0262463 0.00108649 7.80952e-14)
(-0.0368246 0.00200058 -4.05739e-14)
(0.0151264 -0.259385 7.41881e-15)
(0.0299016 -0.233806 -1.20652e-14)
(0.0426112 -0.196438 3.1663e-15)
(0.052846 -0.170737 6.13937e-14)
(-0.00323926 -0.23558 2.43516e-15)
(-0.0204474 -0.242571 4.086e-15)
(-0.0353781 -0.213688 -1.67971e-16)
(-0.0557861 -0.219271 -2.04885e-16)
(-0.072817 -0.217339 -2.658e-15)
(-0.0846373 -0.203456 -6.48108e-15)
(-0.0997458 -0.196781 -4.76762e-15)
(-0.106689 -0.185357 -5.17007e-14)
(-0.113684 -0.17152 -9.54993e-16)
(-0.120402 -0.157987 1.89665e-14)
(-0.123006 -0.142444 -2.30845e-14)
(-0.122855 -0.126623 1.40263e-13)
(-0.120426 -0.111512 1.48033e-13)
(-0.11553 -0.0970817 2.69941e-14)
(-0.109224 -0.0839344 2.75409e-13)
(-0.101899 -0.0722924 -5.7337e-14)
(-0.0938792 -0.0626552 -6.81597e-16)
(-0.0876333 -0.0546457 2.1373e-13)
(-0.0855706 -0.0507833 9.97525e-14)
(-0.0847862 -0.0486304 -2.95496e-14)
(-0.0863699 -0.0469554 -1.21584e-13)
(-0.0903633 -0.0440194 -1.13051e-14)
(-0.0955385 -0.0368699 -9.3403e-14)
(-0.0974314 -0.0240878 -8.06339e-14)
(-0.0911562 -0.00946883 4.86648e-14)
(-0.0781441 0.000949728 -3.09546e-14)
(-0.0644062 0.00474894 -5.62874e-14)
(-0.0543194 0.00434837 6.42213e-15)
(-0.0479691 0.00371903 -3.10781e-15)
(-0.0429302 0.00374683 -3.85468e-15)
(-0.0377225 0.00365966 8.18894e-14)
(-0.0328449 0.00325703 -2.93373e-14)
(-0.0293972 0.00294477 -3.91642e-14)
(-0.0248765 0.00207187 2.27009e-13)
(-0.0215813 0.00107842 3.71904e-14)
(0.0121364 -0.224662 -1.3206e-14)
(0.0249854 -0.203735 -3.11975e-14)
(0.0361693 -0.172783 5.08801e-14)
(-0.0616517 -0.186708 8.72287e-15)
(-0.0777837 -0.185541 -2.96453e-15)
(-0.0910032 -0.176876 2.88153e-14)
(-0.0982841 -0.165346 2.00868e-14)
(-0.105396 -0.153762 5.18274e-15)
(-0.107688 -0.142648 -1.67666e-15)
(-0.110226 -0.129501 7.17886e-15)
(-0.11108 -0.115783 -3.13045e-14)
(-0.109741 -0.102424 -1.36137e-13)
(-0.106041 -0.0894711 3.62104e-14)
(-0.101045 -0.0775288 1.86821e-14)
(-0.0949243 -0.0668144 5.22297e-14)
(-0.0882228 -0.0574224 -4.81858e-16)
(-0.0816932 -0.0498381 -9.36205e-14)
(-0.079861 -0.0462532 -1.38536e-13)
(-0.0793763 -0.0446023 -1.19185e-13)
(-0.080763 -0.0429988 -6.95151e-14)
(-0.0839445 -0.0399988 -5.62312e-14)
(-0.0878301 -0.0334689 1.91786e-14)
(-0.089113 -0.0224603 6.69805e-14)
(-0.083934 -0.00980912 -3.60347e-14)
(-0.0731925 -0.000331534 -1.36968e-14)
(-0.0615192 0.00371091 4.43103e-14)
(-0.0526028 0.00395916 2.09562e-15)
(-0.0469163 0.00361923 2.44641e-14)
(-0.0426967 0.0037139 -3.04655e-14)
(-0.0386398 0.00373317 -1.00911e-13)
(-0.0348338 0.00344563 -5.49601e-14)
(-0.0315883 0.00307759 3.47932e-14)
(-0.0282912 0.00242898 -1.52091e-14)
(-0.024536 0.00145577 2.05257e-14)
(-0.0765599 -0.154074 -3.41369e-15)
(-0.0928858 -0.152622 -2.48412e-14)
(-0.0962607 -0.139425 -4.99675e-14)
(-0.102246 -0.129601 2.83619e-14)
(-0.0999969 -0.118428 2.50949e-14)
(-0.100335 -0.106651 1.48595e-14)
(-0.0995046 -0.0950631 6.1849e-14)
(-0.0966158 -0.0836803 4.07432e-15)
(-0.0925359 -0.073099 3.32176e-14)
(-0.0874185 -0.0634612 -5.06983e-14)
(-0.0816839 -0.0549764 -5.4687e-14)
(-0.0758539 -0.047769 6.39494e-14)
(-0.0737759 -0.0432587 1.26461e-13)
(-0.073892 -0.0409022 6.40903e-14)
(-0.0753603 -0.0387169 4.55124e-14)
(-0.0780698 -0.0354602 3.33196e-14)
(-0.0810636 -0.0296292 6.28782e-14)
(-0.0819292 -0.0204342 -3.59006e-14)
(-0.0775856 -0.00976103 -5.66023e-14)
(-0.0685559 -0.0013376 3.53037e-15)
(-0.0584223 0.00274257 -1.9758e-14)
(-0.0502614 0.00348038 -6.73501e-15)
(-0.0447799 0.00338714 -4.1754e-14)
(-0.0407598 0.0035306 2.23463e-14)
(-0.0371513 0.00357717 5.67923e-14)
(-0.0340033 0.00332171 1.25031e-13)
(-0.0315281 0.00300669 1.23988e-14)
(-0.0296295 0.00255227 -1.15849e-13)
(-0.0277916 0.00172055 2.14418e-15)
(-0.0817335 -0.122849 -6.92128e-14)
(-0.103156 -0.122617 -7.20955e-14)
(-0.0945778 -0.107711 -1.29971e-14)
(-0.0917151 -0.097834 -3.19344e-14)
(-0.0908112 -0.0876341 7.1889e-14)
(-0.0885534 -0.0775077 -2.91059e-14)
(-0.0852358 -0.0680035 -1.44088e-13)
(-0.0809738 -0.0592398 1.00526e-13)
(-0.0760928 -0.0513583 9.94884e-14)
(-0.0711091 -0.0444741 -5.27794e-15)
(-0.0682484 -0.0395883 -1.56891e-13)
(-0.0687423 -0.0370508 -1.28379e-13)
(-0.070173 -0.0348711 6.81317e-14)
(-0.0724653 -0.0316874 1.0725e-13)
(-0.0748097 -0.0265007 -3.9064e-14)
(-0.0754141 -0.0187517 -1.49912e-14)
(-0.0718198 -0.0097117 -1.08427e-14)
(-0.064285 -0.00223383 7.51344e-16)
(-0.0555606 0.00182126 -1.02192e-14)
(-0.0481464 0.00296003 4.3645e-15)
(-0.0428449 0.00310508 6.87506e-15)
(-0.0388514 0.003296 -2.7849e-14)
(-0.0353329 0.0033631 -1.53106e-14)
(-0.0323512 0.00312607 -2.90242e-14)
(-0.0300627 0.00282142 -1.75573e-13)
(-0.0285413 0.00241129 -1.05813e-14)
(-0.027489 0.00172762 6.22645e-14)
(-0.0783833 -0.103937 -1.2796e-13)
(-0.0984537 -0.102632 3.29737e-14)
(-0.0852007 -0.0895725 1.1306e-13)
(-0.0833392 -0.0807311 -7.81035e-14)
(-0.0813803 -0.0717883 -6.50258e-14)
(-0.0786046 -0.0633138 8.20212e-14)
(-0.0749402 -0.0554153 -1.47944e-13)
(-0.0707323 -0.0481835 1.24637e-14)
(-0.0663864 -0.0418401 2.10928e-13)
(-0.062803 -0.0365191 8.31416e-14)
(-0.0636236 -0.0337564 1.46745e-13)
(-0.0650908 -0.0314824 -3.25509e-14)
(-0.0671081 -0.0283205 -9.94546e-14)
(-0.0690157 -0.023665 2.21891e-14)
(-0.0694547 -0.0171136 5.112e-14)
(-0.0664719 -0.00949377 4.01927e-14)
(-0.060197 -0.00292041 2.72112e-15)
(-0.0527467 0.00101672 2.26216e-14)
(-0.0461128 0.0024586 -4.35208e-15)
(-0.0411056 0.00283009 1.46175e-14)
(-0.0372211 0.00307026 1.44538e-14)
(-0.0337914 0.00316097 6.64206e-16)
(-0.0308667 0.00294339 -7.25539e-14)
(-0.0285788 0.00264982 6.68721e-15)
(-0.027035 0.00225393 1.43056e-13)
(-0.0259555 0.00168998 9.93577e-14)
(-0.0775273 -0.0884382 6.05697e-15)
(-0.0912603 -0.0850692 -1.80064e-15)
(-0.0759148 -0.0739036 4.79619e-14)
(-0.0740827 -0.0661405 -2.59072e-14)
(-0.0720712 -0.0586019 5.74839e-14)
(-0.0691718 -0.0514836 2.31787e-13)
(-0.0656532 -0.0448758 -6.84227e-14)
(-0.0619244 -0.0389684 -5.84611e-14)
(-0.0582484 -0.0336554 2.67285e-14)
(-0.0587797 -0.0306328 -3.61349e-14)
(-0.0602213 -0.0283317 1.63353e-14)
(-0.0620188 -0.0253262 1.46684e-14)
(-0.0636289 -0.0211668 -2.73295e-14)
(-0.063985 -0.0155925 -1.43038e-14)
(-0.0615009 -0.00916341 -2.80175e-14)
(-0.0562576 -0.00341216 3.24446e-15)
(-0.0499118 0.000339861 3.2126e-15)
(-0.0440327 0.00200263 1.71004e-15)
(-0.0393803 0.00257974 -1.78175e-15)
(-0.0356769 0.00288432 -1.74978e-14)
(-0.0324039 0.00299612 5.04727e-15)
(-0.0295923 0.0028013 7.21378e-14)
(-0.0273656 0.00252417 8.30916e-14)
(-0.0257832 0.00215266 -1.66801e-13)
(-0.0246423 0.00168562 -2.47424e-13)
(-0.066555 -0.078805 4.12873e-14)
(-0.0824388 -0.0773214 2.31775e-14)
(-0.0726032 -0.0676057 -1.68703e-14)
(-0.0685536 -0.0609834 1.91304e-14)
(-0.0664439 -0.0542165 9.62195e-15)
(-0.0639844 -0.0477535 -3.74365e-14)
(-0.0609592 -0.0417271 5.73103e-14)
(-0.0576974 -0.0362511 -1.57072e-13)
(-0.0543906 -0.0312213 -2.19162e-13)
(-0.0541529 -0.0278821 -9.00329e-14)
(-0.055587 -0.0255288 1.67992e-14)
(-0.0572102 -0.0227292 9.74169e-15)
(-0.0586199 -0.0189957 2.62593e-14)
(-0.0589534 -0.0142054 4.51438e-14)
(-0.0568905 -0.00875937 -2.26513e-14)
(-0.0524868 -0.00375012 -1.98241e-14)
(-0.047084 -0.000233263 6.94307e-16)
(-0.0419029 0.00157095 -6.95596e-15)
(-0.0376225 0.00233124 4.94183e-15)
(-0.0341307 0.00271813 5.38803e-14)
(-0.0310399 0.00285849 4.55585e-14)
(-0.0283743 0.00269241 -1.854e-14)
(-0.0262596 0.00242864 -1.74005e-14)
(-0.0247204 0.00209095 1.06689e-13)
(-0.0236337 0.00169762 2.07032e-13)
(-0.0618943 -0.0659848 1.05269e-14)
(-0.077353 -0.0646303 -1.30887e-14)
(-0.0645381 -0.0560455 3.41414e-14)
(-0.0617526 -0.049999 -3.7589e-15)
(-0.0594359 -0.0441371 -1.57301e-13)
(-0.0567569 -0.03865 -5.07173e-14)
(-0.0538185 -0.0335891 1.91303e-13)
(-0.0508282 -0.0288947 3.44611e-15)
(-0.0498283 -0.025338 5.65975e-14)
(-0.0512508 -0.0229786 1.19324e-14)
(-0.0527359 -0.0204313 8.08234e-14)
(-0.0540046 -0.0170963 1.59161e-14)
(-0.0543585 -0.0129568 -1.12939e-14)
(-0.0526581 -0.00831746 5.89898e-16)
(-0.0489425 -0.00396305 2.33345e-14)
(-0.0443296 -0.000714149 -7.97113e-15)
(-0.0397755 0.00115181 6.31497e-15)
(-0.0358639 0.0020647 -1.83539e-15)
(-0.032591 0.0025417 -1.53134e-14)
(-0.0296805 0.00272787 -4.34847e-14)
(-0.0271596 0.00259463 -4.21301e-14)
(-0.0251578 0.00234322 -6.36386e-15)
(-0.0237029 0.00203537 1.83283e-14)
(-0.0226975 0.0017015 -7.56399e-14)
(-0.0602739 -0.0559493 9.81378e-16)
(-0.070582 -0.0534198 2.02261e-14)
(-0.0568363 -0.0459095 -2.72028e-14)
(-0.0546543 -0.0406915 1.40822e-15)
(-0.05247 -0.0356952 -3.52777e-14)
(-0.0499717 -0.0310355 -1.11256e-13)
(-0.0473356 -0.0266957 8.67437e-14)
(-0.0457002 -0.0230056 -3.18187e-14)
(-0.0471241 -0.0206827 -5.94134e-14)
(-0.0485249 -0.0183777 -9.36358e-14)
(-0.0496934 -0.0154095 -3.15217e-14)
(-0.0501077 -0.0118215 -3.529e-14)
(-0.0487373 -0.00784672 3.98807e-14)
(-0.0456044 -0.00405773 1.04013e-14)
(-0.0416652 -0.00109207 -1.98371e-14)
(-0.0376773 0.000768516 6.06679e-15)
(-0.0341296 0.00178983 2.26959e-14)
(-0.0310848 0.00235411 -3.11401e-14)
(-0.0283547 0.00259593 -3.97156e-14)
(-0.0259732 0.00250373 2.36869e-14)
(-0.0240687 0.00226215 2.2154e-14)
(-0.0226921 0.00197672 -1.16046e-14)
(-0.0217408 0.00169228 -4.77882e-14)
(-0.0522027 -0.0501732 -2.23462e-14)
(-0.0649153 -0.0486697 -3.14254e-14)
(-0.0536245 -0.0420989 5.27001e-14)
(-0.0508976 -0.0374391 3.57056e-14)
(-0.0487962 -0.0328738 2.05097e-14)
(-0.0465348 -0.0285874 9.60176e-14)
(-0.0441154 -0.0245864 -5.54889e-14)
(-0.0419892 -0.0208946 8.70451e-14)
(-0.0432657 -0.0186259 6.96388e-15)
(-0.0445965 -0.0165298 1.26366e-14)
(-0.0456844 -0.0139063 1.08566e-13)
(-0.0461633 -0.0107956 2.3515e-14)
(-0.0450858 -0.00736851 -4.359e-14)
(-0.0424462 -0.00405864 -2.98322e-14)
(-0.0390823 -0.00136952 3.61044e-15)
(-0.0356016 0.000437996 -3.7239e-15)
(-0.0324064 0.0015218 -6.54329e-15)
(-0.0296 0.00216046 1.43803e-14)
(-0.0270588 0.00246334 3.9687e-14)
(-0.0248224 0.00241957 1.82591e-14)
(-0.0230095 0.00219495 3.29833e-14)
(-0.0216966 0.00192367 3.91014e-15)
(-0.0207857 0.00167963 5.74479e-15)
(-0.0502598 -0.0421403 -3.76715e-14)
(-0.0591456 -0.040068 -3.01385e-14)
(-0.0470079 -0.034301 4.43318e-15)
(-0.044967 -0.030197 -6.31999e-14)
(-0.0430671 -0.0262674 -9.29454e-14)
(-0.0409632 -0.0225775 1.97092e-14)
(-0.0388394 -0.0190833 -2.002e-14)
(-0.039691 -0.0168054 5.88147e-14)
(-0.0409575 -0.0148616 -5.66608e-14)
(-0.0419853 -0.0125625 -9.06865e-14)
(-0.0425229 -0.00986644 -1.67469e-14)
(-0.041697 -0.00689512 2.58878e-14)
(-0.0394748 -0.00398847 1.71054e-14)
(-0.0366003 -0.00155473 1.33384e-14)
(-0.0335653 0.000169074 -2.41531e-16)
(-0.0307001 0.00127688 -1.27622e-15)
(-0.0281308 0.00196913 -2.17949e-15)
(-0.0257848 0.00233307 -1.27062e-14)
(-0.0237003 0.00234368 -1.5166e-14)
(-0.0219844 0.00214921 -1.78551e-15)
(-0.0207288 0.00188702 5.80599e-15)
(-0.0198553 0.00167475 3.47476e-14)
(-0.043703 -0.0378021 -9.80773e-14)
(-0.0543096 -0.0364391 -5.00867e-14)
(-0.0444477 -0.0313657 1.59889e-14)
(-0.0419403 -0.027693 -1.92863e-14)
(-0.0400634 -0.0240764 5.10563e-14)
(-0.0381179 -0.0206699 8.28291e-14)
(-0.0361317 -0.0174649 -1.50356e-14)
(-0.0363672 -0.0151819 -4.79859e-14)
(-0.0375834 -0.0133595 5.02553e-14)
(-0.0385708 -0.0113523 -3.94347e-14)
(-0.0391612 -0.00901874 4.3821e-14)
(-0.0385494 -0.00643779 -2.08816e-15)
(-0.0366854 -0.00387511 2.45527e-15)
(-0.0342325 -0.0016727 -4.13286e-15)
(-0.0315883 -4.59475e-05 -1.08104e-15)
(-0.0290261 0.00105483 2.72514e-15)
(-0.0266831 0.00178122 2.23122e-15)
(-0.0245288 0.00219753 4.98912e-15)
(-0.0225972 0.0022708 1.43066e-14)
(-0.0209823 0.00211792 -3.66059e-14)
(-0.019782 0.00187228 -3.90987e-14)
(-0.0189491 0.00168265 3.02726e-14)
(-0.0418094 -0.0315197 -7.30136e-14)
(-0.0493679 -0.0297747 5.62052e-14)
(-0.0388038 -0.0252691 4.79343e-14)
(-0.0369407 -0.0220042 -1.8502e-14)
(-0.0352668 -0.0188808 -5.0838e-15)
(-0.0335156 -0.0159532 -9.58735e-15)
(-0.0332835 -0.0136999 -7.41728e-14)
(-0.034461 -0.0120061 1.18481e-14)
(-0.0354237 -0.0102538 9.99899e-14)
(-0.0360605 -0.00823538 -3.37613e-14)
(-0.035628 -0.00599305 -1.16148e-14)
(-0.0340689 -0.00372899 -3.10463e-14)
(-0.0319819 -0.00173476 6.30717e-15)
(-0.0296826 -0.000209337 -2.7933e-15)
(-0.0273996 0.000863254 -1.21754e-14)
(-0.0252707 0.00160309 -1.80329e-14)
(-0.0233009 0.00205798 -6.47197e-15)
(-0.0215194 0.00219479 1.3888e-14)
(-0.0200072 0.00209271 5.11871e-14)
(-0.0188605 0.00187332 3.31044e-14)
(-0.0180624 0.00169935 -3.85428e-14)
(-0.0365136 -0.0282776 9.8311e-14)
(-0.0450885 -0.0269932 3.99654e-14)
(-0.0367007 -0.0230529 -5.08022e-14)
(-0.0344781 -0.020117 -3.55675e-15)
(-0.0327895 -0.0172291 3.81336e-14)
(-0.0311421 -0.0145475 -2.74683e-14)
(-0.0304614 -0.0123419 7.6588e-14)
(-0.0315662 -0.0107848 7.49649e-14)
(-0.0325163 -0.00925732 -2.50982e-14)
(-0.0331882 -0.00750974 1.13789e-14)
(-0.0329076 -0.00556141 1.75584e-14)
(-0.0316067 -0.00356118 2.71432e-14)
(-0.0298356 -0.00175489 3.80299e-16)
(-0.027844 -0.000330985 -5.88629e-15)
(-0.0258186 0.000701947 7.76086e-15)
(-0.0238942 0.00143661 1.64476e-14)
(-0.0220997 0.00191594 -1.28748e-14)
(-0.0204652 0.00210904 -2.40998e-14)
(-0.0190568 0.00206457 -5.46339e-14)
(-0.0179648 0.00188069 -5.96248e-14)
(-0.0171966 0.00172326 1.09893e-14)
(-0.0349635 -0.0233539 2.81957e-14)
(-0.0404384 -0.0218488 5.6334e-14)
(-0.0318316 -0.0182731 1.32516e-14)
(-0.0302511 -0.0156687 7.97003e-15)
(-0.0288229 -0.0132376 -2.99611e-14)
(-0.0278537 -0.0111085 -5.3122e-14)
(-0.0289092 -0.00969127 -3.08798e-14)
(-0.0298528 -0.0083591 -2.80941e-14)
(-0.0305488 -0.0068381 -3.33752e-14)
(-0.0303927 -0.00514232 -2.48401e-14)
(-0.0293076 -0.00337378 -1.79948e-14)
(-0.0278035 -0.00173791 -4.89185e-16)
(-0.0260866 -0.000412151 1.02798e-14)
(-0.0242937 0.000574575 -2.95576e-15)
(-0.0225598 0.0012913 -3.37609e-15)
(-0.0209279 0.00178005 1.59463e-14)
(-0.0194377 0.00201819 -8.71276e-15)
(-0.0181337 0.00203102 -6.46823e-14)
(-0.0170982 0.00188805 -4.29144e-14)
(-0.0163551 0.00174968 -3.04242e-15)
(-0.0317705 -0.0210993 9.6518e-15)
(-0.0376912 -0.0197102 -1.78275e-14)
(-0.0293558 -0.0165346 4.15086e-15)
(-0.0278214 -0.0142288 -1.47136e-14)
(-0.0265741 -0.0120283 4.84085e-14)
(-0.0254312 -0.00999568 2.84592e-14)
(-0.0264379 -0.00870871 -3.59913e-14)
(-0.0273683 -0.00754207 6.017e-15)
(-0.0280923 -0.00621572 2.40819e-14)
(-0.0280474 -0.0047389 -2.09182e-15)
(-0.0271493 -0.00317567 9.8737e-15)
(-0.025876 -0.00169749 2.91626e-15)
(-0.0244053 -0.000466662 -4.63703e-15)
(-0.0228277 0.000471063 -1.67268e-15)
(-0.0212692 0.00116406 -3.16118e-15)
(-0.0197933 0.00165153 -1.23916e-14)
(-0.0184364 0.00192392 -5.38167e-15)
(-0.0172352 0.00198911 4.2383e-14)
(-0.016258 0.00189358 6.70286e-14)
(-0.01554 0.00177724 6.91221e-15)
(-0.0277912 -0.0188277 1.08082e-14)
(-0.0342552 -0.017755 -1.47163e-14)
(-0.0276915 -0.0149799 -1.27077e-14)
(-0.0259125 -0.0129196 -2.9993e-14)
(-0.0246319 -0.0109188 9.08305e-15)
(-0.0234251 -0.00904268 -2.87857e-14)
(-0.0241829 -0.00783661 3.31875e-14)
(-0.0250773 -0.00679426 2.40016e-14)
(-0.0258154 -0.00563705 -1.06277e-14)
(-0.0258595 -0.00434579 3.89529e-15)
(-0.0251127 -0.0029616 -3.79655e-15)
(-0.0240359 -0.00162789 -3.89987e-15)
(-0.0227816 -0.000490901 7.32308e-16)
(-0.0214037 0.000395087 4.19973e-15)
(-0.0200137 0.00105975 8.46217e-15)
(-0.0186851 0.00153679 1.76493e-14)
(-0.0174568 0.00183109 3.31588e-15)
(-0.0163601 0.00194126 2.45634e-14)
(-0.0154429 0.0018941 1.34554e-15)
(-0.0147535 0.00180348 -3.67772e-14)
(-0.0262941 -0.015231 -1.01556e-13)
(-0.0306678 -0.0141004 -3.23677e-14)
(-0.0239034 -0.0116695 -1.59676e-14)
(-0.0226869 -0.00988417 2.38379e-15)
(-0.0216331 -0.00820547 3.17207e-14)
(-0.0221231 -0.0070628 -1.48449e-14)
(-0.0229896 -0.0061171 -3.64509e-14)
(-0.0237383 -0.00510826 -3.37055e-15)
(-0.0238518 -0.00397506 1.69633e-14)
(-0.0232325 -0.00274712 6.75866e-15)
(-0.0223148 -0.00154473 9.43249e-17)
(-0.0212433 -0.000497508 -3.71029e-15)
(-0.0200396 0.000337802 -2.71062e-16)
(-0.018804 0.000973164 -8.61464e-15)
(-0.0176068 0.00143633 -6.79298e-15)
(-0.016495 0.0017414 4.42382e-14)
(-0.0154969 0.00188807 1.64911e-14)
(-0.0146451 0.00188776 -1.05748e-14)
(-0.0139889 0.00182583 3.39456e-14)
(-0.0238868 -0.0136825 4.02182e-14)
(-0.0285078 -0.0126526 2.65195e-14)
(-0.0220211 -0.0105055 -1.95279e-14)
(-0.0208398 -0.0089375 -2.0195e-14)
(-0.0199163 -0.00742862 1.94108e-14)
(-0.020204 -0.00634104 -1.51453e-15)
(-0.0210444 -0.00548512 1.87567e-14)
(-0.0218064 -0.0046074 6.87259e-15)
(-0.021986 -0.00361542 -8.31198e-15)
(-0.0214774 -0.00252773 -7.85629e-15)
(-0.0207026 -0.00144743 2.1169e-15)
(-0.0197895 -0.000487872 2.92113e-15)
(-0.0187463 0.000295988 2.98107e-16)
(-0.0176512 0.000901709 -1.24558e-15)
(-0.0165738 0.00134891 -5.06191e-15)
(-0.0155663 0.00165797 -3.60299e-14)
(-0.0146557 0.00183151 -2.51476e-14)
(-0.0138674 0.00187316 2.17223e-14)
(-0.0132447 0.00184127 1.6075e-14)
(-0.0209424 -0.0121738 2.93609e-14)
(-0.0257681 -0.0113468 4.65826e-14)
(-0.0207191 -0.00948233 6.32866e-14)
(-0.0193577 -0.00808774 1.23752e-14)
(-0.0184069 -0.00670761 -1.40378e-15)
(-0.0184581 -0.00567121 -5.466e-14)
(-0.0192479 -0.00489929 -2.13887e-14)
(-0.02001 -0.00413585 2.04618e-14)
(-0.0202407 -0.00326788 -2.19424e-15)
(-0.0198267 -0.00230525 -1.08242e-15)
(-0.0191735 -0.00133765 7.46695e-15)
(-0.0184004 -0.000462986 -4.44563e-15)
(-0.0175032 0.000267402 -2.68812e-15)
(-0.0165415 0.00084203 1.12521e-14)
(-0.0155805 0.00127162 -8.37838e-15)
(-0.0146706 0.00157826 6.29779e-15)
(-0.0138424 0.00177054 4.04775e-14)
(-0.0131133 0.00184842 1.13381e-14)
(-0.0125246 0.00184706 -3.11125e-14)
(-0.0195578 -0.00971038 3.27614e-14)
(-0.0230642 -0.00890583 -1.5103e-14)
(-0.0178242 -0.00726264 -3.63797e-14)
(-0.0169171 -0.00603148 1.08271e-14)
(-0.0168481 -0.00506157 4.9561e-14)
(-0.0176141 -0.00436787 -6.21226e-15)
(-0.0183721 -0.00370398 -1.86669e-14)
(-0.0186398 -0.00294295 1.06461e-14)
(-0.0183058 -0.00208943 2.21201e-15)
(-0.0177474 -0.00122143 -1.95247e-15)
(-0.0170907 -0.000425525 -3.1768e-16)
(-0.0163177 0.000252554 4.04012e-15)
(-0.0154759 0.000795761 -3.39468e-16)
(-0.0146208 0.00120692 4.18191e-15)
(-0.0138014 0.00150615 9.05532e-15)
(-0.013051 0.00170881 3.83389e-15)
(-0.0123823 0.00181429 1.12344e-15)
(-0.0118282 0.00184202 -3.30524e-16)
(-0.0177661 -0.00870031 2.9398e-14)