/*--------------------------------*- C++ -*----------------------------------*\
| =========                 |                                                 |
| \\      /  F ield         | OpenFOAM: The Open Source CFD Toolbox           |
|  \\    /   O peration     | Version:  2506                                  |
|   \\  /    A nd           | Website:  www.openfoam.com                      |
|    \\/     M anipulation  |                                                 |
\*---------------------------------------------------------------------------*/
FoamFile
{
    version     2.0;
    format      ascii;
    arch        "LSB;label=32;scalar=64";
    class       volScalarField;
    location    "200";
    object      turbulenceProperties:epsilon;
}
// * * * * * * * * * * * * * * * * * * * * * * * * * * * * * * * * * * * * * //

dimensions      [0 2 -3 0 0 0 0];

internalField   nonuniform List<scalar> 
1340
(
0.253781
0.333052
0.44405
0.611868
0.825266
1.11582
1.50664
2.00473
2.64628
3.46724
4.51777
5.88899
7.706
10.1667
13.6039
18.5413
25.9034
36.9922
55.186
82.8069
136.661
214.448
423.636
756.645
783.654
718.33
684.481
680.597
683.123
675.78
654.958
621.307
572.804
510.627
434.968
0.189806
0.143665
0.0979276
0.0649497
0.0394243
0.0215042
0.0108331
0.00731682
0.00723784
0.00707389
0.0066728
0.00607494
0.00542132
0.00469737
0.00394495
0.00326461
0.00265918
0.00214127
0.00180381
0.00173946
0.00204474
0.00317038
0.00639044
0.0156113
0.0415991
0.127957
0.417721
1.56887
5.73797
20.7548
74.952
151.502
216.338
258.219
267.653
239.611
187.395
133.115
90.3853
62.4231
44.8942
33.6462
0.00718328
0.00698702
0.00659866
0.0060439
0.00532449
0.00444571
0.00328161
0.00322824
0.00308274
0.00286749
0.00265058
0.00242195
0.00220111
0.00201134
0.00185478
0.00173727
0.00164913
0.0015973
0.00158196
0.00160472
0.0016203
0.00152685
0.00113233
0.00103456
1.14826e-05
1.35407e-11
0.0265025
0.000650469
2.69631e-07
0.0112075
0.33836
1.83584
5.99064
15.8205
34.5766
59.9683
81.0657
86.4901
75.6049
58.2256
42.6633
0.00333409
0.00332692
0.00330977
0.00319382
0.0029914
0.00266441
0.00233604
0.00234572
0.0023222
0.00228351
0.00220508
0.00209088
0.00195277
0.00178704
0.00160663
0.00141827
0.00122911
0.00104454
0.000868209
0.000704528
0.000556348
0.000419182
0.000301102
0.000218209
0.000120707
4.36657e-05
5.67296e-12
5.47746e-06
4.8349e-09
0.00439134
0.0296741
0.0511148
2.3608e-06
0.000614981
0.00490555
0.241671
2.14705
8.70033
20.3393
30.8224
33.9107
0.00228635
0.00221218
0.0020983
0.00196505
0.00180371
0.00131662
0.00131185
0.00129129
0.00125514
0.00120037
0.00112808
0.00104367
0.000950074
0.000851894
0.000756101
0.000666076
0.000585048
0.000515574
0.000458439
0.000413309
0.000377658
0.000341876
0.00030032
0.000261827
0.000206941
0.000135481
3.72077e-05
2.56474e-15
1.45396e-08
0
0
4.89517e-09
0.000142041
0.0229688
0.00568922
0.0151131
0.0213126
0.069149
1.53587
6.86249
0.00130976
0.00129129
0.00125496
0.00119781
0.00111929
0.000883973
0.000891469
0.000890716
0.000884276
0.000866961
0.000839279
0.000802911
0.000757112
0.000703693
0.000645003
0.000582487
0.000518491
0.000455236
0.00039433
0.000337147
0.000282836
0.000229066
0.000179629
0.000138796
0.000106573
8.60462e-05
6.48149e-05
4.29315e-05
5.25109e-06
5.88916e-08
1.09115e-08
2.83698e-09
1.42084e-12
0
0.000126383
0.00289943
0.0232367
0.083202
0.0396931
0.0194604
0.000868038
0.000846323
0.000815254
0.000775026
0.000578662
0.00058372
0.00058452
0.000581512
0.000572284
0.000556485
0.00053476
0.00050687
0.000473575
0.000436377
0.000396499
0.00035548
0.000314985
0.000276368
0.00024058
0.00020858
0.00018154
0.00015812
0.000135987
0.00011461
9.55353e-05
8.09406e-05
7.08592e-05
5.15181e-05
2.52339e-05
7.53385e-06
1.48805e-06
5.27584e-10
4.95613e-09
1.45984e-10
0
0
0
0.0115845
0.00537371
0.00056918
0.000556512
0.000538361
0.000513789
0.000397434
0.000402847
0.000406085
0.000407374
0.000405159
0.000399118
0.000389566
0.000375956
0.000358509
0.000337876
0.000314355
0.000288759
0.000261936
0.000234639
0.000207615
0.000181604
0.000156505
0.000131879
0.000109034
8.93214e-05
7.33716e-05
6.1681e-05
5.39527e-05
4.84502e-05
4.04171e-05
2.89382e-05
1.7934e-05
8.67949e-06
3.11136e-06
8.58717e-08
5.34113e-09
7.03695e-11
0
0
0.000377451
0.000389336
0.000379702
0.000366987
0.000350374
0.000276558
0.000280916
0.00028413
0.000286132
0.000286065
0.000283633
0.000278904
0.000271427
0.000261255
0.000248644
0.000233751
0.000217019
0.000198985
0.000180174
0.0001612
0.000142536
0.000124695
0.00010836
9.35333e-05
8.00999e-05
6.8154e-05
5.79876e-05
4.9756e-05
4.30499e-05
3.65933e-05
2.96269e-05
2.29197e-05
1.7319e-05
1.25338e-05
7.1915e-06
3.53293e-06
6.36689e-08
1.97579e-09
0
0
0.000270623
0.000263839
0.000255207
0.000206668
0.000206389
0.000204679
0.000201179
0.000195883
0.000188859
0.000180092
0.000169802
0.00015826
0.000145753
0.000132638
0.000119253
0.000106
9.29725e-05
8.03414e-05
6.86649e-05
5.84662e-05
4.99656e-05
4.30246e-05
3.70017e-05
3.10734e-05
2.50498e-05
1.95387e-05
1.52839e-05
1.2383e-05
1.01888e-05
8.39127e-06
5.29219e-06
1.31575e-06
5.52381e-09
1.0734e-14
0.000151048
0.000149536
0.000146783
0.000142804
0.000137531
0.000131056
0.000123515
0.000115062
0.000105936
9.63873e-05
8.66636e-05
7.70664e-05
6.78582e-05
5.92305e-05
5.1421e-05
4.45538e-05
3.86131e-05
3.32604e-05
2.79596e-05
2.25693e-05
1.75692e-05
1.357e-05
1.07402e-05
8.86221e-06
7.53514e-06
6.88718e-06
5.43738e-06
2.72759e-06
9.69327e-12
0.000111131
0.000109044
0.000106037
0.000102121
9.73514e-05
9.18085e-05
8.56196e-05
7.89377e-05
7.19426e-05
6.48524e-05
5.77748e-05
5.09064e-05
4.45505e-05
3.88826e-05
3.38969e-05
2.93585e-05
2.48905e-05
2.03587e-05
1.60856e-05
1.25364e-05
9.87488e-06
7.96856e-06
6.54395e-06
5.65969e-06
5.15158e-06
5.17301e-06
2.44207e-06
8.3579e-05
8.19108e-05
7.95832e-05
7.65869e-05
7.29552e-05
6.8764e-05
6.41057e-05
5.90918e-05
5.38893e-05
4.86251e-05
4.34351e-05
3.85015e-05
3.39636e-05
2.98343e-05
2.59864e-05
2.21938e-05
1.83703e-05
1.47411e-05
1.16597e-05
9.27702e-06
7.4922e-06
6.11992e-06
5.07136e-06
4.35676e-06
4.06349e-06
4.68472e-06
6.35714e-05
6.22441e-05
6.04245e-05
5.81053e-05
5.53242e-05
5.21315e-05
4.85936e-05
4.48276e-05
4.09228e-05
3.69652e-05
3.30935e-05
2.94519e-05
2.60638e-05
2.28544e-05
1.96796e-05
1.64826e-05
1.34236e-05
1.07733e-05
8.67393e-06
7.06378e-06
5.812e-06
4.81887e-06
4.05524e-06
3.49727e-06
3.36951e-06
4.95024e-05
4.88009e-05
4.77354e-05
4.62836e-05
4.44588e-05
4.22915e-05
3.98218e-05
3.7115e-05
3.42521e-05
3.12911e-05
2.83114e-05
2.54362e-05
2.26944e-05
2.00459e-05
1.74076e-05
1.47461e-05
1.21766e-05
9.90566e-06
8.0622e-06
6.62017e-06
5.48586e-06
4.58816e-06
3.87213e-06
3.36409e-06
2.75057e-06
3.83667e-05
3.77766e-05
3.69023e-05
3.57377e-05
3.42947e-05
3.25953e-05
3.06745e-05
2.85979e-05
2.63961e-05
2.41188e-05
2.18635e-05
1.96653e-05
1.75063e-05
1.53357e-05
1.31368e-05
1.09937e-05
9.06303e-06
7.45625e-06
6.17248e-06
5.14748e-06
4.33284e-06
3.67857e-06
3.22023e-06
2.72067e-06
2.99453e-05
2.94461e-05
2.87273e-05
2.77851e-05
2.66322e-05
2.52872e-05
2.37951e-05
2.21767e-05
2.04597e-05
1.87118e-05
1.69698e-05
1.52297e-05
1.34618e-05
1.1658e-05
9.88219e-06
8.25249e-06
6.86325e-06
5.72896e-06
4.80908e-06
4.06824e-06
3.47538e-06
3.02566e-06
2.71864e-06
2.37807e-05
2.35195e-05
2.3097e-05
2.24991e-05
2.17334e-05
2.08066e-05
1.97477e-05
1.85712e-05
1.72914e-05
1.59495e-05
1.45837e-05
1.31969e-05
1.17707e-05
1.03032e-05
8.84209e-06
7.47695e-06
6.28608e-06
5.29229e-06
4.47362e-06
3.80375e-06
3.26741e-06
2.83517e-06
2.59075e-06
1.88021e-05
1.8572e-05
1.82104e-05
1.77146e-05
1.70891e-05
1.63478e-05
1.55033e-05
1.45605e-05
1.35419e-05
1.24835e-05
1.13909e-05
1.02522e-05
9.0678e-06
7.87443e-06
6.73975e-06
5.72769e-06
4.8646e-06
4.14182e-06
3.54177e-06
3.05584e-06
2.6599e-06
2.40204e-06
1.50486e-05
1.49407e-05
1.47371e-05
1.44275e-05
1.40148e-05
1.35034e-05
1.29055e-05
1.22203e-05
1.14572e-05
1.06459e-05
9.79422e-06
8.89414e-06
7.94687e-06
6.97994e-06
6.0444e-06
5.19171e-06
4.44874e-06
3.81557e-06
3.28279e-06
2.84356e-06
2.48902e-06
2.21692e-06
1.20232e-05
1.1921e-05
1.17393e-05
1.14753e-05
1.11311e-05
1.0716e-05
1.02251e-05
9.6609e-06
9.04638e-06
8.38997e-06
7.68598e-06
6.93508e-06
6.158e-06
5.39298e-06
4.68094e-06
4.04718e-06
3.49714e-06
3.0278e-06
2.63353e-06
2.31597e-06
2.05072e-06
9.67991e-06
9.64159e-06
9.54577e-06
9.3854e-06
9.16046e-06
8.87732e-06
8.53089e-06
8.12003e-06
7.6605e-06
7.16019e-06
6.6157e-06
6.02637e-06
5.40722e-06
4.78701e-06
4.19779e-06
3.66208e-06
3.18849e-06
2.77813e-06
2.42762e-06
2.14186e-06
1.89706e-06
7.79837e-06
7.75713e-06
7.66741e-06
7.52617e-06
7.33771e-06
7.0981e-06
6.80412e-06
6.46518e-06
6.08863e-06
5.67222e-06
5.2143e-06
4.72543e-06
4.22712e-06
3.74402e-06
3.29549e-06
2.89133e-06
2.53529e-06
2.2264e-06
1.96954e-06
1.74871e-06
6.30686e-06
6.30022e-06
6.25732e-06
6.17427e-06
6.0533e-06
5.89158e-06
5.68554e-06
5.43919e-06
5.15957e-06
4.84462e-06
4.49237e-06
4.11e-06
3.71332e-06
3.32088e-06
2.94897e-06
2.60724e-06
2.30096e-06
2.03088e-06
1.80139e-06
1.60303e-06
5.10045e-06
5.11453e-06
5.10242e-06
5.05902e-06
4.98518e-06
4.87987e-06
4.73854e-06
4.56231e-06
4.35738e-06
4.12235e-06
3.85446e-06
3.55835e-06
3.24543e-06
2.92963e-06
2.62401e-06
2.33772e-06
2.07645e-06
1.8421e-06
1.63881e-06
1.46072e-06
4.15073e-06
4.15702e-06
4.14008e-06
4.09874e-06
4.03317e-06
3.9393e-06
3.81587e-06
3.66829e-06
3.49518e-06
3.29371e-06
3.06664e-06
2.82212e-06
2.57047e-06
2.32175e-06
2.08404e-06
1.86301e-06
1.66131e-06
1.48242e-06
1.3232e-06
3.36737e-06
3.38425e-06
3.38403e-06
3.36471e-06
3.32672e-06
3.26672e-06
3.1826e-06
3.07819e-06
2.95258e-06
2.80296e-06
2.63078e-06
2.44165e-06
2.24303e-06
2.04263e-06
1.84711e-06
1.6617e-06
1.48943e-06
1.33337e-06
1.19162e-06
2.73074e-06
2.75297e-06
2.76324e-06
2.75844e-06
2.73939e-06
2.70322e-06
2.64775e-06
2.57538e-06
2.48568e-06
2.37609e-06
2.24693e-06
2.10211e-06
1.94682e-06
1.78681e-06
1.6275e-06
1.47338e-06
1.32724e-06
1.19224e-06
1.06693e-06
2.23838e-06
2.25399e-06
2.25851e-06
2.25192e-06
2.23223e-06
2.19724e-06
2.14861e-06
2.08578e-06
2.00655e-06
1.91082e-06
1.80108e-06
1.68086e-06
1.55429e-06
1.42558e-06
1.29854e-06
1.17566e-06
1.05955e-06
9.49734e-07
1.8189e-06
1.83687e-06
1.84673e-06
1.84806e-06
1.83939e-06
1.81884e-06
1.7873e-06
1.74434e-06
1.68806e-06
1.61806e-06
1.53579e-06
1.44364e-06
1.34447e-06
1.24144e-06
1.13754e-06
1.03501e-06
9.35986e-07
8.4035e-07
1.47707e-06
1.49546e-06
1.50828e-06
1.51439e-06
1.51291e-06
1.50231e-06
1.48291e-06
1.45431e-06
1.41506e-06
1.36456e-06
1.30355e-06
1.23357e-06
1.15658e-06
1.07479e-06
9.9055e-07
9.05606e-07
8.21783e-07
7.39124e-07
1.21667e-06
1.23042e-06
1.23922e-06
1.24221e-06
1.23818e-06
1.22719e-06
1.2089e-06
1.18214e-06
1.14623e-06
1.10153e-06
1.04891e-06
9.8962e-07
9.2522e-07
8.57406e-07
7.8759e-07
7.17119e-07
6.46239e-07
9.89154e-07
1.00264e-06
1.01255e-06
1.01807e-06
1.01825e-06
1.01293e-06
1.00187e-06
9.84107e-07
9.59035e-07
9.26688e-07
8.87521e-07
8.42285e-07
7.9199e-07
7.3782e-07
6.8082e-07
6.22031e-07
5.61688e-07
8.03422e-07
8.16051e-07
8.2624e-07
8.3302e-07
8.35725e-07
8.34104e-07
8.28004e-07
8.16652e-07
7.99455e-07
7.76317e-07
7.47431e-07
7.13192e-07
6.74193e-07
6.31231e-07
5.85024e-07
5.36328e-07
6.63665e-07
6.73335e-07
6.80566e-07
6.84654e-07
6.85348e-07
6.82544e-07
6.75627e-07
6.64084e-07
6.47747e-07
6.26632e-07
6.009e-07
5.70859e-07
5.36991e-07
4.99781e-07
4.5972e-07
5.39226e-07
5.48056e-07
5.55146e-07
5.59841e-07
5.61862e-07
5.61161e-07
5.57264e-07
5.49742e-07
5.38381e-07
5.2309e-07
5.03881e-07
4.80876e-07
4.54335e-07
4.24542e-07
3.91809e-07
4.37633e-07
4.45553e-07
4.52182e-07
4.56956e-07
4.59658e-07
4.60241e-07
4.58336e-07
4.53598e-07
4.45813e-07
4.34836e-07
4.20583e-07
4.03063e-07
3.82378e-07
3.58659e-07
3.32083e-07
3.54866e-07
3.61824e-07
3.67799e-07
3.72342e-07
3.75283e-07
3.76574e-07
3.75941e-07
3.73099e-07
3.67849e-07
3.60028e-07
3.49511e-07
3.36231e-07
3.20181e-07
3.014e-07
2.79959e-07
2.87521e-07
2.93476e-07
2.98768e-07
3.02919e-07
3.05829e-07
3.07456e-07
3.07591e-07
3.06002e-07
3.02521e-07
2.96984e-07
2.89251e-07
2.79215e-07
2.66809e-07
2.52005e-07
2.34809e-07
2.3784e-07
2.42393e-07
2.46097e-07
2.4882e-07
2.50532e-07
2.51084e-07
2.50302e-07
2.4804e-07
2.44141e-07
2.38467e-07
2.30895e-07
2.21333e-07
2.09709e-07
1.95989e-07
1.92589e-07
1.96432e-07
1.99649e-07
2.02091e-07
2.03743e-07
2.04499e-07
2.0422e-07
2.02782e-07
2.00052e-07
1.95896e-07
1.90192e-07
1.82836e-07
1.73741e-07
1.62848e-07
1.55773e-07
1.59007e-07
1.61756e-07
1.63888e-07
1.65398e-07
1.66215e-07
1.66227e-07
1.65334e-07
1.63427e-07
1.60384e-07
1.5609e-07
1.50442e-07
1.43349e-07
1.34741e-07
1.25899e-07
1.28587e-07
1.30894e-07
1.32712e-07
1.34042e-07
1.34834e-07
1.35004e-07
1.34467e-07
1.33134e-07
1.30903e-07
1.27669e-07
1.23338e-07
1.17822e-07
1.11048e-07
1.01681e-07
1.03879e-07
1.05807e-07
1.07333e-07
1.08471e-07
1.09194e-07
1.09433e-07
1.09121e-07
1.08186e-07
1.06543e-07
1.04103e-07
1.00782e-07
9.65018e-08
9.1192e-08
8.38673e-08
8.54461e-08
8.67142e-08
8.76712e-08
8.83006e-08
8.85548e-08
8.83808e-08
8.77201e-08
8.65034e-08
8.46561e-08
8.21089e-08
7.87921e-08
7.4643e-08
6.7672e-08
6.89469e-08
6.99867e-08
7.07773e-08
7.13098e-08
7.15507e-08
7.14593e-08
7.09879e-08
7.00806e-08
6.86779e-08
6.67226e-08
6.4155e-08
5.45643e-08
5.55942e-08
5.64367e-08
5.70809e-08
5.75212e-08
5.77342e-08
5.76893e-08
5.73482e-08
5.66667e-08
5.55985e-08
5.40954e-08
5.21094e-08
4.39756e-08
4.48021e-08
4.54782e-08
4.59953e-08
4.63523e-08
4.65329e-08
4.65127e-08
4.62612e-08
4.57449e-08
4.49279e-08
4.37711e-08
4.22358e-08
3.54312e-08
3.60859e-08
3.66285e-08
3.70385e-08
3.73229e-08
3.74703e-08
3.74611e-08
3.72721e-08
3.68775e-08
3.62494e-08
3.53576e-08
3.41709e-08
2.9062e-08
2.949e-08
2.9814e-08
3.00375e-08
3.01538e-08
3.01481e-08
3.00028e-08
2.96981e-08
2.92124e-08
2.85229e-08
2.76055e-08
2.34051e-08
2.37385e-08
2.39923e-08
2.41664e-08
2.42559e-08
2.42502e-08
2.41361e-08
2.38986e-08
2.35212e-08
2.29864e-08
2.22762e-08
1.88468e-08
1.91075e-08
1.93049e-08
1.94388e-08
1.9506e-08
1.9499e-08
1.94078e-08
1.92212e-08
1.89266e-08
1.85112e-08
1.79606e-08
1.51796e-08
1.53822e-08
1.55341e-08
1.56358e-08
1.5685e-08
1.56762e-08
1.56021e-08
1.54543e-08
1.52235e-08
1.48998e-08
1.44726e-08
1.223e-08
1.23867e-08
1.25029e-08
1.25793e-08
1.26143e-08
1.2604e-08
1.2543e-08
1.24249e-08
1.2243e-08
1.199e-08
1.16578e-08
9.85849e-09
9.97943e-09
1.00678e-08
1.01243e-08
1.01481e-08
1.01368e-08
1.00859e-08
9.99093e-09
9.84696e-09
9.64851e-09
7.95222e-09
8.04445e-09
8.11175e-09
8.15289e-09
8.16834e-09
8.15626e-09
8.1135e-09
8.03667e-09
7.92211e-09
7.76598e-09
6.49089e-09
6.5412e-09
6.57087e-09
6.58016e-09
6.56772e-09
6.53139e-09
6.46871e-09
6.37707e-09
6.25368e-09
5.24369e-09
5.28061e-09
5.30162e-09
5.30645e-09
5.29408e-09
5.26301e-09
5.21153e-09
5.13777e-09
5.03974e-09
4.24036e-09
4.26763e-09
4.28225e-09
4.28396e-09
4.27207e-09
4.24551e-09
4.20312e-09
4.14352e-09
4.06532e-09
3.43184e-09
3.45184e-09
3.46173e-09
3.46135e-09
3.45025e-09
3.42769e-09
3.39281e-09
3.34466e-09
3.28223e-09
2.77767e-09
2.79219e-09
2.79871e-09
2.79713e-09
2.78713e-09
2.76817e-09
2.73964e-09
2.7009e-09
2.65117e-09
2.24698e-09
2.25737e-09
2.26145e-09
2.25917e-09
2.25029e-09
2.23445e-09
2.21123e-09
2.18017e-09
1.81756e-09
1.82483e-09
1.82704e-09
1.82421e-09
1.81622e-09
1.80284e-09
1.78379e-09
1.75876e-09
1.47197e-09
1.47674e-09
1.47758e-09
1.47427e-09
1.46689e-09
1.45532e-09
1.43937e-09
1.41887e-09
1.19844e-09
1.19813e-09
1.19447e-09
1.18754e-09
1.17729e-09
1.1636e-09
1.14645e-09
9.75234e-10
9.74009e-10
9.70109e-10
9.63562e-10
9.54311e-10
9.423e-10
9.27667e-10
7.97731e-10
7.96481e-10
7.93047e-10
7.87708e-10
7.79901e-10
7.69725e-10
7.57918e-10
6.70086e-10
6.68595e-10
6.65157e-10
6.6057e-10
6.53545e-10
6.44292e-10
6.34577e-10
5.74888e-10
5.72961e-10
5.69067e-10
5.64239e-10
5.57071e-10
5.4762e-10
4.91904e-10
4.90416e-10
4.87076e-10
4.8283e-10
4.76514e-10
4.67952e-10
4.16682e-10
4.14741e-10
4.11034e-10
4.06474e-10
4.00318e-10
3.91824e-10
3.52418e-10
3.51448e-10
3.48941e-10
3.4547e-10
3.40775e-10
3.34394e-10
2.88987e-10
2.86085e-10
2.81775e-10
2.76928e-10
2.71388e-10
2.6306e-10
2.51415e-10
2.51594e-10
2.50439e-10
2.47635e-10
2.44408e-10
2.41444e-10
1.81708e-10
1.76862e-10
1.72854e-10
1.68164e-10
1.58229e-10
2.03527e-10
2.05757e-10
2.03295e-10
2.0256e-10
2.10103e-10
1.26087e-10
1.26582e-10
1.30348e-10
1.28751e-10
1.18769e-10
2.89682e-10
3.06049e-10
3.04449e-10
3.11585e-10
3.45085e-10
3.62828e-10
3.84411e-10
4.16287e-10
7.41711e-10
8.3073e-10
7.72242e-10
6.96048e-10
)
;

boundaryField
{
    inlet
    {
        type            calculated;
        value           nonuniform List<scalar> 4(1.44387e-08 1.63462e-08 1.67659e-08 1.71577e-08);
    }
    outlet
    {
        type            calculated;
        value           nonuniform List<scalar> 0();
    }
    walls
    {
        type            calculated;
        value           uniform 0;
    }
    frontAndBack
    {
        type            empty;
    }
    procBoundary5to0
    {
        type            processor;
        value           nonuniform List<scalar> 4(0.000196537 0.00019195 0.000186971 0.000180865);
    }
    procBoundary5to1
    {
        type            processor;
        value           nonuniform List<scalar> 
13
(
0.00617124
0.0035207
0.0035207
0.00224649
0.00160226
0.00160226
0.00101268
0.000724703
0.000724703
0.000482674
0.000330063
0.000243913
0.000243913
)
;
    }
    procBoundary5to4
    {
        type            processor;
        value           nonuniform List<scalar> 
95
(
0.000200142
0.000203191
0.000205561
0.000205561
0.000150805
0.000151403
0.000151403
0.000112763
0.000112366
0.000112366
8.45815e-05
8.45815e-05
6.44138e-05
6.44138e-05
4.98489e-05
3.86861e-05
3.86861e-05
3.02339e-05
3.02339e-05
2.38815e-05
1.89125e-05
1.89125e-05
1.5063e-05
1.20538e-05
1.20538e-05
9.66173e-06
7.79632e-06
7.79632e-06
6.28047e-06
5.06113e-06
4.12492e-06
4.12492e-06
3.33552e-06
2.69694e-06
2.21394e-06
2.21394e-06
1.79405e-06
1.45338e-06
1.19883e-06
1.19883e-06
9.72382e-07
7.88259e-07
6.52135e-07
6.52135e-07
5.28863e-07
4.28587e-07
3.4708e-07
2.80878e-07
2.32777e-07
2.32777e-07
1.8829e-07
1.52197e-07
1.22942e-07
9.92497e-08
8.20745e-08
8.20745e-08
6.62042e-08
5.33807e-08
4.30255e-08
3.46701e-08
2.85438e-08
2.85438e-08
2.29924e-08
1.85225e-08
1.49252e-08
1.20312e-08
9.70339e-09
7.83116e-09
6.42052e-09
6.42052e-09
5.1894e-09
4.19918e-09
3.40065e-09
2.75412e-09
2.22939e-09
1.80449e-09
1.46241e-09
1.19557e-09
1.19557e-09
9.73709e-10
7.9672e-10
6.69497e-10
5.74744e-10
4.91529e-10
4.16839e-10
3.51887e-10
2.90641e-10
2.49705e-10
1.85673e-10
1.85673e-10
2.00304e-10
1.24549e-10
2.75566e-10
3.19477e-10
7.38831e-10
)
;
    }
    procBoundary5to6
    {
        type            processor;
        value           nonuniform List<scalar> 
86
(
350.065
26.0628
30.9482
30.4214
14.2323
1.01869
0.0360581
0.0158674
0
0
9.28116e-19
3.91762e-09
1.6112e-06
5.04219e-06
3.98157e-06
2.63263e-06
2.13788e-06
2.07791e-06
2.08826e-06
2.02638e-06
1.89633e-06
1.74151e-06
1.58885e-06
1.44589e-06
1.31216e-06
1.1856e-06
1.06571e-06
9.52718e-07
8.46798e-07
7.48483e-07
6.57968e-07
5.75109e-07
4.9994e-07
4.85357e-07
4.85357e-07
4.17009e-07
3.56266e-07
3.0272e-07
2.55885e-07
2.15205e-07
1.80128e-07
1.50096e-07
1.24549e-07
1.02948e-07
8.47882e-08
6.96025e-08
6.09216e-08
6.09216e-08
4.95962e-08
4.02862e-08
3.26609e-08
2.64368e-08
2.13724e-08
1.72611e-08
1.39312e-08
1.12388e-08
9.38974e-09
9.38974e-09
7.56397e-09
6.09535e-09
4.91514e-09
3.96689e-09
3.20434e-09
2.58971e-09
2.14074e-09
2.14074e-09
1.72741e-09
1.3936e-09
1.12572e-09
9.10327e-10
7.43849e-10
6.23145e-10
5.3826e-10
5.3826e-10
4.59277e-10
3.83381e-10
3.27072e-10
2.55805e-10
2.34691e-10
1.53741e-10
2.02079e-10
1.2249e-10
3.6527e-10
3.6527e-10
4.19862e-10
1.20581e-09
)
;
    }
}


// ************************************************************************* //
