/*--------------------------------*- C++ -*----------------------------------*\
| =========                 |                                                 |
| \\      /  F ield         | OpenFOAM: The Open Source CFD Toolbox           |
|  \\    /   O peration     | Version:  2506                                  |
|   \\  /    A nd           | Website:  www.openfoam.com                      |
|    \\/     M anipulation  |                                                 |
\*---------------------------------------------------------------------------*/
FoamFile
{
    version     2.0;
    format      ascii;
    arch        "LSB;label=32;scalar=64";
    class       volScalarField;
    location    "200";
    object      turbulenceProperties:L;
}
// * * * * * * * * * * * * * * * * * * * * * * * * * * * * * * * * * * * * * //

dimensions      [0 1 0 0 0 0 0];

internalField   nonuniform List<scalar> 
1340
(
0.00179522
0.00171844
0.001651
0.00158637
0.00154754
0.00152642
0.00152725
0.00155462
0.00161053
0.00169786
0.001822
0.00198924
0.00220572
0.00248586
0.00285131
0.00333418
0.00399105
0.00489221
0.00622974
0.00813694
0.0115125
0.0165768
0.0280939
0.0458294
0.0543319
0.0562676
0.0572692
0.0587313
0.060143
0.0610506
0.0614891
0.0616978
0.0618469
0.0620084
0.0622451
0.00188998
0.00198947
0.00215064
0.00234519
0.00261883
0.00301021
0.00354038
0.00387305
0.00388351
0.00390585
0.00396337
0.00405768
0.00417509
0.00432769
0.00452103
0.00474028
0.0049896
0.00526706
0.00549665
0.00555064
0.00537867
0.0050332
0.00480189
0.00497888
0.00554869
0.00652712
0.00778619
0.00997595
0.0130569
0.0183118
0.0294569
0.0407495
0.0532541
0.0678899
0.0840125
0.0998682
0.114288
0.127859
0.141437
0.154106
0.164891
0.173608
0.00389105
0.00391837
0.00397511
0.00406393
0.00419551
0.00438999
0.00474084
0.00476052
0.00481594
0.00490412
0.00500181
0.00511624
0.00524041
0.00536038
0.00547069
0.0055617
0.00563549
0.00568183
0.00569691
0.00567904
0.00566603
0.00574351
0.00617506
0.00631766
0.0253096
2.35514
0.00819362
0.0072264
0.0631343
0.015074
0.0247265
0.0333839
0.0436308
0.0575834
0.0756507
0.096346
0.117419
0.137177
0.156041
0.175152
0.194458
0.00472193
0.00472426
0.0047302
0.00477232
0.00485087
0.00499308
0.00515916
0.0051538
0.0051668
0.00518855
0.0052341
0.00530418
0.00539563
0.00551669
0.00566555
0.00584514
0.00605835
0.00631022
0.00660922
0.00696421
0.00738865
0.00793156
0.00861329
0.00933076
0.010822
0.0144535
2.77972
0.0293128
0.310891
0.00592211
0.0140423
0.0255841
0.0356532
0.0146629
0.0787043
0.0829168
0.102228
0.125744
0.149849
0.172659
0.195038
0.00518698
0.00522995
0.00529954
0.00538721
0.00550389
0.00595468
0.00596009
0.00598368
0.00602632
0.00609393
0.00618933
0.00631088
0.00646093
0.0066396
0.00684068
0.00706108
0.00729398
0.00752841
0.00775305
0.00795698
0.00813903
0.00834488
0.00862024
0.00892616
0.00946128
0.0104992
0.0149978
25.2618
0.200975
0
0
0.294691
0.0104469
0.0173416
0.0102527
0.0247795
0.0952358
0.202046
0.18529
0.200435
0.00596246
0.00598364
0.0060265
0.00609713
0.00620136
0.00657822
0.00656434
0.00656574
0.00657767
0.00661027
0.00666412
0.00673834
0.00683803
0.00696428
0.00711759
0.00730137
0.00751699
0.00776559
0.0080496
0.00837129
0.00874731
0.00922109
0.00979927
0.010453
0.0111683
0.0117929
0.0126462
0.0139948
0.0257865
0.112367
0.196554
0.307287
3.88808
0
0.0107911
0.0122088
0.0306446
0.0653357
0.0862524
0.333813
0.00660819
0.00665017
0.00671266
0.00679812
0.00731328
0.00729739
0.0072949
0.00730431
0.00733359
0.00738509
0.00745899
0.00755955
0.00768906
0.00784794
0.00803825
0.00826075
0.00851437
0.00879743
0.00910786
0.00943883
0.00977238
0.0101159
0.0105047
0.0109638
0.011476
0.0119689
0.0123911
0.0133917
0.0160099
0.0223108
0.0361873
0.489309
0.229006
0.740349
0
0
0
0.0393624
0.0273784
0.00734354
0.00738497
0.00744645
0.00753392
0.00803346
0.00800633
0.00799033
0.00798401
0.0079949
0.00802498
0.00807373
0.00814583
0.00824317
0.00836624
0.00851853
0.00870135
0.00891604
0.00916476
0.00944947
0.00977107
0.0101413
0.0105849
0.0111005
0.0116679
0.0122559
0.0128003
0.0132408
0.0136151
0.0142555
0.0154817
0.0174169
0.0209004
0.0275444
0.0842755
0.208252
0.873586
0
0
0.017749
0.0080749
0.00812562
0.00819511
0.00829056
0.00879574
0.00876143
0.00873655
0.00872123
0.00872173
0.00874037
0.00877719
0.00883702
0.0089218
0.00903284
0.0091734
0.00934533
0.00955023
0.00979031
0.0100665
0.010381
0.0107339
0.0111175
0.0115341
0.01199
0.012484
0.0129984
0.0135055
0.0140055
0.0145924
0.0153934
0.016428
0.0176351
0.0191104
0.0218773
0.0262227
0.0899493
0.280706
0
0
0.00884356
0.00889985
0.00897416
0.00946021
0.0094634
0.00948311
0.00952409
0.00958782
0.00967575
0.00979141
0.00993649
0.0101129
0.0103232
0.0105694
0.0108543
0.0111788
0.0115513
0.0119808
0.0124605
0.0129716
0.0134913
0.0140052
0.0145432
0.0151924
0.016035
0.0170668
0.018157
0.0191567
0.0201363
0.021162
0.0236416
0.0342165
0.19718
14.3752
0.0102315
0.0102573
0.010305
0.0103761
0.0104741
0.0106012
0.0107594
0.0109518
0.0111804
0.0114476
0.011756
0.012106
0.0124974
0.0129295
0.0133947
0.0138835
0.0143892
0.0149361
0.0155984
0.0164562
0.0175193
0.0186886
0.0198171
0.0208027
0.021683
0.0222366
0.0235643
0.0278878
1.61686
0.0110474
0.0110999
0.0111777
0.0112834
0.0114191
0.0115877
0.0117917
0.0120336
0.0123161
0.0126397
0.0130102
0.0134284
0.0138837
0.0143641
0.0148655
0.0154094
0.0160587
0.0168861
0.0179103
0.0190616
0.0202328
0.021348
0.0224271
0.0232712
0.0238622
0.0239443
0.028664
0.011863
0.0119229
0.0120092
0.0121249
0.0122731
0.012456
0.0126763
0.0129371
0.0132386
0.0135832
0.013972
0.0143995
0.0148581
0.0153476
0.0158866
0.0165258
0.0173257
0.0183058
0.0194109
0.0205522
0.0216794
0.0228031
0.0238994
0.02483
0.0252968
0.0246122
0.0127029
0.0127701
0.0128651
0.0129916
0.0131519
0.0133488
0.0135854
0.0138622
0.0141816
0.0145469
0.0149548
0.0153971
0.0158748
0.016405
0.01703
0.0178017
0.0187392
0.0197986
0.020901
0.0220019
0.0231011
0.0242076
0.025273
0.0262239
0.0265041
0.0135226
0.0135709
0.0136461
0.0137518
0.0138908
0.0140655
0.0142786
0.0145322
0.0148267
0.0151657
0.0155499
0.0159718
0.0164338
0.0169516
0.0175604
0.0183041
0.0192016
0.0202185
0.0212867
0.0223617
0.0234376
0.0245082
0.0255687
0.0264842
0.0278284
0.0144121
0.0144681
0.014553
0.0146702
0.0148221
0.0150116
0.0152413
0.0155108
0.0158246
0.0161856
0.0165877
0.017033
0.0175355
0.0181256
0.0188406
0.0196984
0.0206728
0.0217065
0.0227565
0.0238135
0.0248619
0.0258997
0.0267786
0.0279155
0.0153333
0.0153978
0.0154933
0.015623
0.0157894
0.0159953
0.0162403
0.0165289
0.0168652
0.017246
0.0176725
0.018157
0.0187259
0.0194116
0.0202304
0.0211627
0.0221608
0.0231846
0.0242217
0.0252564
0.0262707
0.0271968
0.02794
0.0162428
0.0162877
0.0163617
0.0164693
0.0166125
0.0167945
0.0170152
0.0172785
0.0175897
0.0179486
0.0183548
0.0188191
0.019365
0.0200205
0.0208007
0.0216914
0.0226529
0.0236487
0.0246635
0.0256842
0.0266793
0.0276407
0.0282834
0.0172252
0.0172783
0.0173635
0.0174837
0.0176416
0.0178382
0.0180764
0.0183621
0.0186981
0.0190824
0.0195244
0.0200453
0.0206701
0.0214123
0.0222616
0.0231859
0.0241522
0.0251432
0.0261465
0.0271296
0.0280854
0.0288182
0.0182114
0.0182442
0.0183069
0.0184043
0.0185383
0.0187114
0.0189245
0.0191843
0.0194961
0.0198574
0.0202757
0.0207702
0.0213633
0.0220676
0.022876
0.0237624
0.0246978
0.0256643
0.0266476
0.0276221
0.0285564
0.0293967
0.0192625
0.0193036
0.0193779
0.0194884
0.0196374
0.0198248
0.0200586
0.0203453
0.0206823
0.0210755
0.0215423
0.0221032
0.0227697
0.0235375
0.0243857
0.0252889
0.0262295
0.0271917
0.0281569
0.0290762
0.029973
0.0203352
0.0203554
0.0204063
0.0204929
0.0206176
0.0207801
0.0209879
0.0212485
0.0215602
0.0219274
0.0223652
0.022893
0.023522
0.0242494
0.0250589
0.025929
0.0268424
0.0277831
0.0287358
0.02965
0.0305622
0.0214643
0.0214928
0.0215554
0.0216558
0.0217935
0.0219752
0.0222088
0.0224943
0.0228343
0.0232423
0.0237366
0.0243281
0.0250154
0.025786
0.0266218
0.027507
0.0284257
0.0293641
0.0302782
0.0311912
0.0226342
0.0226401
0.0226788
0.0227547
0.0228676
0.0230229
0.0232287
0.0234874
0.0237993
0.024177
0.0246376
0.0251917
0.0258391
0.0265708
0.0273716
0.0282275
0.0291233
0.0300467
0.0309612
0.0318773
0.023868
0.0238515
0.0238657
0.0239167
0.0240048
0.0241333
0.0243112
0.0245427
0.0248263
0.0251728
0.0255992
0.0261159
0.0267239
0.0274167
0.0281823
0.0290082
0.0298805
0.0307886
0.031702
0.032627
0.0251297
0.0251202
0.0251458
0.025209
0.0253108
0.0254603
0.0256637
0.025918
0.0262332
0.0266254
0.0271052
0.0276741
0.0283279
0.0290579
0.0298533
0.0307018
0.0315941
0.0325069
0.0334436
0.0264787
0.0264456
0.026446
0.0264839
0.0265592
0.0266803
0.0268549
0.0270797
0.0273633
0.0277213
0.0281642
0.0286944
0.0293096
0.0300034
0.0307677
0.0315922
0.0324686
0.0333796
0.0343309
0.0279029
0.0278464
0.0278205
0.0278325
0.0278808
0.0279736
0.028119
0.0283145
0.0285665
0.0288904
0.0292968
0.0297889
0.0303659
0.0310241
0.0317569
0.0325567
0.0334181
0.0343264
0.0352927
0.0293248
0.0292739
0.0292593
0.0292807
0.029345
0.0294612
0.0296264
0.0298471
0.0301374
0.030508
0.0309625
0.0315018
0.0321245
0.0328262
0.0336012
0.0344467
0.035354
0.0363345
0.0308864
0.0308106
0.0307694
0.0307638
0.0308
0.0308866
0.031022
0.0312113
0.0314682
0.0318032
0.0322208
0.0327231
0.0333105
0.0339811
0.0347318
0.0355618
0.0364672
0.0374632
0.0325364
0.0324359
0.0323668
0.0323341
0.032342
0.0323989
0.0325043
0.0326629
0.0328871
0.0331872
0.0335689
0.0340352
0.034588
0.035228
0.0359542
0.0367692
0.037673
0.0386848
0.0341528
0.034057
0.0339964
0.0339759
0.0340035
0.0340794
0.0342076
0.0343996
0.0346658
0.0350123
0.0354434
0.0359627
0.0365728
0.0372754
0.0380754
0.0389782
0.0400057
0.035967
0.0358454
0.0357574
0.0357089
0.0357073
0.0357541
0.0358523
0.036013
0.0362461
0.0365584
0.0369552
0.0374417
0.0380225
0.0387019
0.0394877
0.0403894
0.041433
0.0378865
0.0377391
0.0376222
0.0375454
0.037515
0.0375332
0.0376021
0.0377321
0.0379334
0.038213
0.0385769
0.0390318
0.0395844
0.0402414
0.0410135
0.0419144
0.0397405
0.0395971
0.0394915
0.0394324
0.0394224
0.0394628
0.0395634
0.0397343
0.0399825
0.0403151
0.0407399
0.0412656
0.0419015
0.0426605
0.043561
0.041858
0.0416883
0.0415546
0.0414672
0.0414299
0.0414428
0.0415151
0.0416564
0.0418744
0.0421771
0.0425735
0.0430738
0.0436895
0.0444366
0.045337
0.0441005
0.0439032
0.0437414
0.0436267
0.0435625
0.0435487
0.0435939
0.0437073
0.0438969
0.0441713
0.0445409
0.0450172
0.0456141
0.0463502
0.0472509
0.0464735
0.0462484
0.0460595
0.0459183
0.0458281
0.0457888
0.0458081
0.0458951
0.046058
0.0463061
0.0466506
0.0471045
0.0476841
0.0484102
0.0493116
0.048984
0.0487336
0.0485164
0.0483493
0.0482339
0.04817
0.0481647
0.0482271
0.0483653
0.0485891
0.0489107
0.0493444
0.0499083
0.0506256
0.0515281
0.051363
0.0511201
0.0509267
0.0507868
0.0506998
0.050672
0.0507115
0.0508268
0.0510285
0.0513294
0.0517451
0.0522952
0.0530052
0.0539095
0.0541457
0.0538789
0.0536606
0.0534978
0.053389
0.0533397
0.0533579
0.0534522
0.0536337
0.0539159
0.0543157
0.054854
0.0555582
0.0564648
0.0570951
0.0568026
0.0565597
0.056375
0.0562458
0.0561766
0.0561756
0.0562513
0.0564147
0.0566804
0.0570663
0.0575946
0.0582942
0.0592037
0.0602167
0.0598995
0.0596338
0.0594285
0.0592807
0.0591934
0.0591748
0.0592338
0.0593815
0.0596329
0.0600072
0.0605272
0.0612234
0.0621365
0.0635202
0.0631816
0.0628918
0.0626671
0.0625021
0.0623984
0.0623643
0.0624089
0.0625434
0.0627832
0.0631479
0.0636618
0.0643563
0.0652733
0.0666537
0.0663437
0.0660999
0.0659188
0.065801
0.0657538
0.0657862
0.0659097
0.0661403
0.0664982
0.0670081
0.0677024
0.0686243
0.0703267
0.0699994
0.069738
0.0695425
0.0694123
0.0693538
0.069376
0.069491
0.0697148
0.0700681
0.070576
0.0712718
0.0742157
0.0738696
0.0735924
0.0733839
0.0732431
0.0731755
0.0731898
0.0732984
0.0735178
0.0738685
0.0743764
0.0750752
0.0783285
0.0779648
0.0776734
0.0774543
0.0773047
0.0772296
0.0772381
0.0773429
0.0775602
0.0779105
0.0784203
0.0791235
0.0826754
0.0822978
0.0819914
0.0817636
0.0816075
0.0815272
0.0815322
0.0816354
0.081853
0.0822054
0.0827189
0.083428
0.0868743
0.0865575
0.0863214
0.0861604
0.0860773
0.0860814
0.0861855
0.0864058
0.0867628
0.0872825
0.0879988
0.0917054
0.0913818
0.0911392
0.0909747
0.0908907
0.0908961
0.0910034
0.0912288
0.0915926
0.0921208
0.0928466
0.0968084
0.0964766
0.0962291
0.096063
0.0959802
0.0959889
0.0961016
0.096334
0.0967067
0.0972449
0.0979819
0.10219
0.101851
0.101602
0.101436
0.101357
0.101371
0.101491
0.101733
0.102117
0.102667
0.103416
0.107861
0.107518
0.107268
0.107105
0.10703
0.107052
0.107182
0.107436
0.107833
0.108398
0.109162
0.113833
0.113487
0.113237
0.113079
0.113012
0.113044
0.113186
0.113455
0.113867
0.114448
0.120115
0.11977
0.11952
0.11937
0.119313
0.119357
0.119514
0.119799
0.12023
0.12083
0.12637
0.126126
0.125984
0.125939
0.125999
0.126174
0.126479
0.126931
0.127553
0.133294
0.13306
0.132928
0.132898
0.132976
0.133172
0.1335
0.133976
0.134623
0.140562
0.140337
0.140217
0.140203
0.140301
0.14052
0.140873
0.141377
0.142052
0.148195
0.14798
0.147875
0.147879
0.147998
0.148241
0.148621
0.149153
0.149858
0.156241
0.156038
0.155947
0.155969
0.156109
0.156376
0.156782
0.157341
0.158074
0.164745
0.164556
0.164482
0.164523
0.164686
0.164977
0.165409
0.165995
0.173716
0.173543
0.17349
0.173558
0.173748
0.17407
0.174533
0.175151
0.183119
0.182971
0.182946
0.183048
0.183278
0.183642
0.184149
0.184811
0.192776
0.192789
0.192936
0.193217
0.193637
0.194204
0.194927
0.202968
0.203032
0.203236
0.20358
0.204072
0.20472
0.205522
0.213421
0.213505
0.213736
0.214098
0.214632
0.215338
0.216172
0.222929
0.223053
0.223341
0.223728
0.224327
0.225129
0.225986
0.231633
0.231828
0.232224
0.232719
0.233465
0.234466
0.240838
0.24102
0.241433
0.241962
0.24276
0.243863
0.251039
0.251332
0.251897
0.252601
0.253567
0.25493
0.261773
0.261954
0.262423
0.26308
0.263982
0.265233
0.275086
0.275781
0.27683
0.278033
0.279442
0.281627
0.284834
0.284783
0.285111
0.285915
0.286854
0.28773
0.308921
0.311016
0.312804
0.314962
0.319793
0.300289
0.299472
0.300374
0.300647
0.297911
0.338477
0.338145
0.335676
0.336713
0.343575
0.274929
0.271178
0.271533
0.269965
0.263162
0.259884
0.256157
0.251107
0.217349
0.211277
0.215168
0.22083
)
;

boundaryField
{
    inlet
    {
        type            calculated;
        value           nonuniform List<scalar> 4(0.103475 0.100314 0.0996807 0.0991067);
    }
    outlet
    {
        type            calculated;
        value           nonuniform List<scalar> 0();
    }
    walls
    {
        type            calculated;
        value           uniform 0;
    }
    frontAndBack
    {
        type            empty;
    }
    procBoundary5to0
    {
        type            processor;
        value           nonuniform List<scalar> 4(0.00957984 0.00963654 0.00970005 0.00978088);
    }
    procBoundary5to1
    {
        type            processor;
        value           nonuniform List<scalar> 
13
(
0.00405506
0.00465476
0.00465476
0.00521044
0.00566931
0.00566931
0.00635848
0.0069132
0.0069132
0.00765254
0.00841529
0.00907627
0.00907627
)
;
    }
    procBoundary5to4
    {
        type            processor;
        value           nonuniform List<scalar> 
95
(
0.0095364
0.00950043
0.00947292
0.00947292
0.0102356
0.0102255
0.0102255
0.0110072
0.0110169
0.0110169
0.0118277
0.0118277
0.0126611
0.0126611
0.0134991
0.0143823
0.0143823
0.0152965
0.0152965
0.0162256
0.0172
0.0172
0.018207
0.0192503
0.0192503
0.0203448
0.0214657
0.0214657
0.0226579
0.0239142
0.0251689
0.0251689
0.0265416
0.0279899
0.0294054
0.0294054
0.0309928
0.0326682
0.0342792
0.0342792
0.0361211
0.0380674
0.039915
0.039915
0.0420615
0.0443314
0.0467319
0.0492711
0.05164
0.05164
0.0544521
0.0574276
0.0605755
0.0639057
0.0670147
0.0670147
0.0707133
0.0746236
0.0787573
0.0831253
0.0872659
0.0872659
0.0921141
0.0972293
0.102622
0.108304
0.114285
0.120577
0.126715
0.126715
0.133641
0.140905
0.148534
0.156574
0.165069
0.174029
0.183418
0.192891
0.192891
0.203047
0.213489
0.222978
0.231648
0.240884
0.251015
0.261872
0.274694
0.28532
0.307259
0.307259
0.30149
0.339517
0.278384
0.268283
0.21756
)
;
    }
    procBoundary5to6
    {
        type            processor;
        value           nonuniform List<scalar> 
86
(
0.0625952
0.180282
0.213093
0.218534
0.22086
0.253244
0.173452
0.0750735
0
0
0.329482
0.218421
0.0319571
0.0243931
0.0256403
0.02816
0.0296266
0.0298431
0.0298242
0.0300647
0.0305718
0.031228
0.0319499
0.0327106
0.0335135
0.0343742
0.0353028
0.036306
0.0373917
0.0385633
0.0398262
0.0411891
0.042657
0.0429739
0.0429739
0.0446359
0.0464278
0.0483573
0.0504326
0.0526635
0.055059
0.0576278
0.0603795
0.0633243
0.0664724
0.0698344
0.0721992
0.0721992
0.0760088
0.080064
0.084376
0.0889558
0.093813
0.0989599
0.104407
0.110166
0.115229
0.115229
0.121629
0.128373
0.135469
0.142926
0.15076
0.159004
0.166754
0.166754
0.175941
0.185643
0.195818
0.206495
0.217187
0.227016
0.235479
0.235479
0.245007
0.256323
0.266705
0.283604
0.289778
0.322102
0.300825
0.340935
0.259447
0.259447
0.250571
0.192485
)
;
    }
}


// ************************************************************************* //
