/*--------------------------------*- C++ -*----------------------------------*\
| =========                 |                                                 |
| \\      /  F ield         | OpenFOAM: The Open Source CFD Toolbox           |
|  \\    /   O peration     | Version:  2506                                  |
|   \\  /    A nd           | Website:  www.openfoam.com                      |
|    \\/     M anipulation  |                                                 |
\*---------------------------------------------------------------------------*/
FoamFile
{
    version     2.0;
    format      ascii;
    arch        "LSB;label=32;scalar=64";
    class       volScalarField;
    location    "300";
    object      magR;
}
// * * * * * * * * * * * * * * * * * * * * * * * * * * * * * * * * * * * * * //

dimensions      [0 2 -2 0 0 0 0];

internalField   nonuniform List<scalar> 
1340
(
31.2685
24.7658
18.3057
4.26917
11.7112
10.4236
9.0819
9.75059
14.897
12.9446
10.7166
12.0404
15.3203
14.4066
12.6092
13.578
9.97631
12.3882
12.8404
14.2916
2.28153
6.36715
10.2635
13.6354
0.157136
1.04494
5.23151
10.9368
0.0663799
0.121919
1.18821
6.54944
0
0.0382539
0.162497
2.60342
0
4.91209e-06
0.00292548
0.678508
0
0
0.0035803
0.17512
3.04531e-06
0
0.00100016
0.0606499
4.66636e-05
7.43022e-08
0.000317363
0.0201114
9.3465e-05
1.40587e-07
3.23548e-05
0.00509206
8.74748e-05
4.43244e-05
4.80583e-07
0.000366655
6.99356e-05
8.30042e-05
1.72554e-07
2.57779e-05
6.1178e-05
9.19783e-05
4.44818e-07
4.18766e-10
5.95431e-05
7.79004e-05
2.95668e-05
6.14435e-07
5.9972e-05
6.3684e-05
5.98716e-05
7.41064e-06
5.95785e-05
5.62365e-05
6.4361e-05
3.03727e-05
5.79187e-05
5.3303e-05
5.78994e-05
4.70343e-05
5.55726e-05
5.17815e-05
5.14113e-05
5.08518e-05
5.30594e-05
5.01305e-05
4.71798e-05
4.8314e-05
5.05865e-05
4.80526e-05
4.43916e-05
4.44372e-05
4.8177e-05
4.57222e-05
4.21102e-05
4.09056e-05
4.5794e-05
4.33215e-05
3.99009e-05
3.78879e-05
4.34211e-05
4.09435e-05
3.76769e-05
3.52148e-05
4.10598e-05
3.86099e-05
3.54659e-05
3.27636e-05
3.87149e-05
3.63218e-05
3.32965e-05
3.0476e-05
3.64028e-05
3.40865e-05
3.11921e-05
2.83368e-05
3.41353e-05
3.191e-05
2.91553e-05
2.63337e-05
3.19181e-05
2.98004e-05
2.71977e-05
2.44563e-05
2.97633e-05
2.776e-05
2.53182e-05
2.26986e-05
2.93616e-05
2.76786e-05
2.57991e-05
2.35195e-05
2.10489e-05
2.72178e-05
2.56703e-05
2.39214e-05
2.18078e-05
1.95011e-05
2.51593e-05
2.37463e-05
2.21294e-05
2.01828e-05
1.80495e-05
2.31934e-05
2.19104e-05
2.0426e-05
1.86447e-05
1.66879e-05
2.13255e-05
2.01669e-05
1.88136e-05
1.71935e-05
1.54115e-05
1.95588e-05
1.85186e-05
1.72931e-05
1.58289e-05
1.42161e-05
1.78958e-05
1.69669e-05
1.58635e-05
1.45488e-05
1.30976e-05
1.63376e-05
1.55123e-05
1.45249e-05
1.3351e-05
1.20522e-05
1.48838e-05
1.41541e-05
1.32756e-05
1.22334e-05
1.10763e-05
1.3533e-05
1.28906e-05
1.21131e-05
1.11927e-05
1.01667e-05
1.22828e-05
1.17199e-05
1.10349e-05
1.02264e-05
9.3197e-06
1.11298e-05
1.06387e-05
1.00379e-05
9.33094e-06
8.53273e-06
1.04176e-05
1.00704e-05
9.64307e-06
9.11852e-06
8.50288e-06
7.80263e-06
9.4002e-06
9.09994e-06
8.72947e-06
8.27301e-06
7.73899e-06
7.12641e-06
8.47271e-06
8.2135e-06
7.89325e-06
7.49738e-06
7.03582e-06
6.50129e-06
7.62949e-06
7.40614e-06
7.12992e-06
6.78749e-06
6.38972e-06
5.92443e-06
6.86479e-06
6.6725e-06
6.43473e-06
6.13933e-06
5.79731e-06
5.39322e-06
6.17285e-06
6.00749e-06
5.80304e-06
5.54862e-06
5.25518e-06
4.90488e-06
5.54787e-06
5.40575e-06
5.23021e-06
5.01143e-06
4.76e-06
4.45677e-06
4.98448e-06
4.8623e-06
4.71163e-06
4.52367e-06
4.3085e-06
4.04639e-06
4.47731e-06
4.37224e-06
4.24295e-06
4.08158e-06
3.89749e-06
3.67121e-06
4.09346e-06
4.02134e-06
3.93094e-06
3.81995e-06
3.68143e-06
3.52394e-06
3.32877e-06
3.67428e-06
3.61185e-06
3.53396e-06
3.43865e-06
3.31972e-06
3.18493e-06
3.01673e-06
3.29864e-06
3.24451e-06
3.17729e-06
3.09532e-06
2.99314e-06
2.87767e-06
2.73278e-06
2.96233e-06
2.91527e-06
2.85713e-06
2.78651e-06
2.69859e-06
2.59953e-06
2.47478e-06
2.66144e-06
2.6204e-06
2.56998e-06
2.509e-06
2.43325e-06
2.34809e-06
2.24066e-06
2.39216e-06
2.3563e-06
2.3125e-06
2.25975e-06
2.19436e-06
2.12099e-06
2.02848e-06
2.15065e-06
2.11936e-06
2.08132e-06
2.03569e-06
1.97923e-06
1.91595e-06
1.83633e-06
1.9556e-06
1.93325e-06
1.90603e-06
1.8731e-06
1.83372e-06
1.78507e-06
1.73051e-06
1.66218e-06
1.75679e-06
1.7372e-06
1.71353e-06
1.68505e-06
1.65112e-06
1.60929e-06
1.56235e-06
1.50397e-06
1.57804e-06
1.5607e-06
1.53996e-06
1.5152e-06
1.48588e-06
1.44989e-06
1.4095e-06
1.35975e-06
1.41836e-06
1.40275e-06
1.38431e-06
1.36254e-06
1.33699e-06
1.30583e-06
1.27095e-06
1.22858e-06
1.27553e-06
1.2612e-06
1.24449e-06
1.22502e-06
1.20239e-06
1.17502e-06
1.14452e-06
1.10808e-06
1.15294e-06
1.1399e-06
1.12479e-06
1.1073e-06
1.08711e-06
1.0627e-06
1.03559e-06
1.00352e-06
1.05518e-06
1.0432e-06
1.02946e-06
1.01368e-06
9.95472e-07
9.73393e-07
9.48903e-07
9.21574e-07
9.80817e-07
9.7109e-07
9.59131e-07
9.45783e-07
9.30894e-07
9.13946e-07
8.93659e-07
8.70857e-07
8.46537e-07
9.06055e-07
8.96464e-07
8.84661e-07
8.71545e-07
8.57071e-07
8.40763e-07
8.21625e-07
8.00647e-07
7.80384e-07
8.27703e-07
8.17828e-07
8.06025e-07
7.93055e-07
7.78923e-07
7.63156e-07
7.44646e-07
7.23399e-07
7.0112e-07
7.64493e-07
7.55508e-07
7.44617e-07
7.32419e-07
7.18955e-07
7.04025e-07
6.87117e-07
6.69774e-07
6.56493e-07
6.75885e-07
6.65854e-07
6.54504e-07
6.42335e-07
6.29328e-07
6.14859e-07
5.97444e-07
5.75574e-07
5.51043e-07
6.4757e-07
6.39248e-07
6.29182e-07
6.17772e-07
6.05314e-07
5.92127e-07
5.78921e-07
5.69054e-07
5.68432e-07
5.23765e-07
5.142e-07
5.03755e-07
4.92506e-07
4.80255e-07
4.65925e-07
4.46705e-07
4.20426e-07
3.88705e-07
6.01089e-07
5.9525e-07
5.87725e-07
5.78492e-07
5.68526e-07
5.5928e-07
5.55006e-07
5.62491e-07
5.81684e-07
4.67726e-07
4.67005e-07
4.63642e-07
4.57595e-07
4.49201e-07
4.37784e-07
4.2209e-07
4.12878e-07
3.96339e-07
8.08064e-07
7.89596e-07
7.89954e-07
7.90086e-07
7.89139e-07
7.87971e-07
7.8913e-07
8.03938e-07
8.40189e-07
8.58877e-07
8.66138e-07
8.6102e-07
8.6616e-07
8.72449e-07
8.7779e-07
8.8255e-07
8.89245e-07
9.11555e-07
9.4921e-07
9.47176e-07
1.46588e-06
1.23865e-06
1.25616e-06
1.27113e-06
1.28003e-06
1.29026e-06
1.3039e-06
1.33071e-06
1.35391e-06
1.15758e-06
18.5749
8.56317
3.81374
11.0708
14.7796
15.5179
13.8349
9.9815
5.11961
1.54493
0.258711
0.0520734
0.0173844
0.00442425
0.000200762
1.12614e-05
0
1.02304e-07
2.1194e-06
2.13001e-05
3.84453e-05
4.34281e-05
4.16216e-05
3.81835e-05
3.50048e-05
3.23447e-05
3.00305e-05
2.79313e-05
2.59824e-05
2.41677e-05
2.24783e-05
2.09054e-05
1.94421e-05
1.80762e-05
1.67994e-05
1.56056e-05
1.44869e-05
1.3438e-05
1.24543e-05
1.15313e-05
1.0665e-05
9.85218e-06
9.09092e-06
8.37729e-06
7.70993e-06
7.08666e-06
6.50523e-06
5.96387e-06
5.46072e-06
4.99403e-06
4.56207e-06
4.1629e-06
3.79493e-06
3.45631e-06
3.14533e-06
2.86027e-06
2.59942e-06
2.36113e-06
2.1438e-06
1.94589e-06
1.76589e-06
1.60216e-06
1.45298e-06
1.3165e-06
1.19207e-06
1.07708e-06
9.76385e-07
8.98691e-07
8.24499e-07
7.64806e-07
6.7954e-07
6.50569e-07
5.23027e-07
5.79639e-07
3.45169e-07
6.1094e-07
3.54687e-07
8.58396e-07
8.80713e-07
1.08665e-06
13.4698
12.7591
6.11231
3.41655
8.50721
11.49
11.8191
9.79358
6.08887
2.32576
0.37666
0.0272209
0.00686571
0.00248232
0.000154242
1.05293e-05
0
2.91123e-08
6.17324e-07
1.1252e-05
2.35494e-05
2.82396e-05
2.80088e-05
2.63189e-05
2.46237e-05
2.31827e-05
2.19073e-05
2.07143e-05
1.95699e-05
1.84718e-05
1.74216e-05
1.64195e-05
1.54659e-05
1.45561e-05
1.36875e-05
1.28592e-05
1.20676e-05
1.13118e-05
1.05901e-05
9.90107e-06
9.24337e-06
8.61617e-06
8.01951e-06
7.45139e-06
6.91224e-06
6.4016e-06
5.9186e-06
5.46295e-06
5.03418e-06
4.63167e-06
4.25494e-06
3.90308e-06
3.57542e-06
3.27109e-06
2.98912e-06
2.72853e-06
2.48827e-06
2.26725e-06
2.06435e-06
1.87848e-06
1.70852e-06
1.55314e-06
1.41101e-06
1.28049e-06
1.1611e-06
1.05051e-06
9.52834e-07
8.77141e-07
8.03615e-07
7.47269e-07
6.61598e-07
6.37219e-07
5.07009e-07
5.69738e-07
3.30805e-07
5.99716e-07
3.42438e-07
8.37407e-07
8.55835e-07
8.78452
10.598
8.49838
3.73245
2.83711
7.04129
9.46451
9.53632
7.46247
4.11053
1.21401
0.110797
0.00474017
0.000698492
3.99345e-07
2.02438e-08
0
1.75084e-09
3.6519e-08
4.74324e-06
1.30541e-05
1.72116e-05
1.77581e-05
1.70996e-05
1.63584e-05
1.57559e-05
1.52417e-05
1.47513e-05
1.42525e-05
1.37403e-05
1.32162e-05
1.2684e-05
1.21481e-05
1.16093e-05
1.10699e-05
1.0533e-05
9.99995e-06
9.47391e-06
8.95612e-06
8.44863e-06
7.95274e-06
7.47017e-06
7.00264e-06
6.55009e-06
6.11444e-06
5.69639e-06
5.29624e-06
4.91468e-06
4.55203e-06
4.20848e-06
3.88418e-06
3.57886e-06
3.29247e-06
3.02457e-06
2.77472e-06
2.54239e-06
2.32692e-06
2.1276e-06
1.94364e-06
1.77426e-06
1.61863e-06
1.4757e-06
1.34444e-06
1.22338e-06
1.11218e-06
1.00882e-06
9.16735e-07
8.45466e-07
7.74607e-07
7.23102e-07
6.39157e-07
6.1917e-07
4.90578e-07
5.55317e-07
3.22948e-07
5.84858e-07
3.40562e-07
8.19576e-07
5.76185
7.85186
8.09179
5.99978
2.35029
2.37537
5.79444
7.77291
7.78489
5.93702
3.06973
0.807772
0.0617282
0.000395955
0.000163119
0
0
0
1.24687e-07
2.52964e-06
9.2159e-06
1.36639e-05
1.4597e-05
1.40393e-05
1.32887e-05
1.27042e-05
1.22534e-05
1.18579e-05
1.14782e-05
1.11027e-05
1.0727e-05
1.03498e-05
9.97085e-06
9.58838e-06
9.20204e-06
8.81255e-06
8.42066e-06
8.02825e-06
7.63631e-06
7.24669e-06
6.86089e-06
6.48076e-06
6.10792e-06
5.74318e-06
5.38849e-06
5.04478e-06
4.71284e-06
4.39378e-06
4.08806e-06
3.79632e-06
3.519e-06
3.2561e-06
3.00796e-06
2.77437e-06
2.55522e-06
2.35029e-06
2.15915e-06
1.98141e-06
1.81652e-06
1.66392e-06
1.52303e-06
1.39305e-06
1.27317e-06
1.16215e-06
1.05963e-06
9.64005e-07
8.78023e-07
8.12053e-07
7.44634e-07
6.98148e-07
6.16313e-07
6.00621e-07
4.74313e-07
5.40894e-07
3.15846e-07
5.71277e-07
3.37623e-07
3.49811
5.44862
6.60377
6.35321
4.54962
1.70251
1.92517
4.68913
6.34456
6.38976
4.84495
2.45821
0.637395
0.0462263
0.000657584
0.000245231
0
0
0
2.68594e-07
4.78639e-06
1.05939e-05
1.20902e-05
1.18234e-05
1.12408e-05
1.07155e-05
1.03031e-05
9.95543e-06
9.62709e-06
9.30355e-06
8.98357e-06
8.66778e-06
8.35603e-06
8.04698e-06
7.73937e-06
7.43245e-06
7.12598e-06
6.82027e-06
6.51517e-06
6.21129e-06
5.90934e-06
5.61016e-06
5.31468e-06
5.02357e-06
4.73816e-06
4.45914e-06
4.18741e-06
3.924e-06
3.66937e-06
3.42431e-06
3.18945e-06
2.96505e-06
2.75155e-06
2.54906e-06
2.35774e-06
2.17758e-06
2.00843e-06
1.85012e-06
1.70238e-06
1.56483e-06
1.43714e-06
1.31872e-06
1.20899e-06
1.10692e-06
1.01217e-06
9.23484e-07
8.42925e-07
7.81644e-07
7.17267e-07
6.75153e-07
5.95145e-07
5.83339e-07
4.58815e-07
5.27795e-07
3.08063e-07
5.60349e-07
1.74423
3.37675
4.81366
5.53446
5.1818
3.69062
1.40358
1.48455
3.78674
5.2346
5.35224
4.10119
2.1177
0.574328
0.0514127
0.000965106
0.000241591
0
0
0
2.93108e-07
4.97416e-06
9.17333e-06
9.21349e-06
8.60552e-06
8.25122e-06
8.00988e-06
7.80369e-06
7.61371e-06
7.42326e-06
7.22565e-06
7.0224e-06
6.81539e-06
6.60507e-06
6.39116e-06
6.17367e-06
5.95318e-06
5.73032e-06
5.50519e-06
5.27844e-06
5.05079e-06
4.82271e-06
4.59506e-06
4.36845e-06
4.14387e-06
3.92196e-06
3.70361e-06
3.48975e-06
3.28091e-06
3.07791e-06
2.8815e-06
2.69211e-06
2.51029e-06
2.33636e-06
2.17071e-06
2.01348e-06
1.86477e-06
1.72461e-06
1.59291e-06
1.46953e-06
1.35428e-06
1.24678e-06
1.14667e-06
1.05312e-06
9.65795e-07
8.83781e-07
8.08417e-07
7.51523e-07
6.90032e-07
6.52053e-07
5.73928e-07
5.65918e-07
4.43121e-07
5.14769e-07
0.577077
1.67384
3.02009
4.15315
4.69127
4.3811
3.17372
1.29799
1.06377
3.03444
4.34853
4.55543
3.57676
1.92111
0.56906
0.0656146
0.000285407
5.44987e-05
0
0
0
2.49191e-07
4.02466e-06
7.61643e-06
7.20654e-06
6.49589e-06
6.23649e-06
6.11087e-06
5.98357e-06
5.85922e-06
5.73866e-06
5.61534e-06
5.48778e-06
5.35636e-06
5.22017e-06
5.07834e-06
4.93092e-06
4.77828e-06
4.6206e-06
4.45849e-06
4.29261e-06
4.12346e-06
3.95196e-06
3.77877e-06
3.60471e-06
3.43059e-06
3.25722e-06
3.08547e-06
2.91596e-06
2.74951e-06
2.5869e-06
2.42863e-06
2.27536e-06
2.12748e-06
1.9855e-06
1.84969e-06
1.7203e-06
1.59748e-06
1.4813e-06
1.37173e-06
1.26876e-06
1.17215e-06
1.08169e-06
9.9677e-07
9.17027e-07
8.41878e-07
7.71919e-07
7.19593e-07
6.61188e-07
6.27483e-07
5.5153e-07
5.47475e-07
0.0765122
0.521875
1.45326
2.58608
3.54567
4.02291
3.81081
2.85416
1.30594
0.677174
2.38966
3.61202
3.9129
3.17985
1.79877
0.594041
0.0797081
0.000591115
7.76798e-05
0
0
0
1.94688e-07
3.06849e-06
6.27863e-06
5.93832e-06
5.19631e-06
4.97454e-06
4.90793e-06
4.81372e-06
4.70816e-06
4.61007e-06
4.51527e-06
4.41943e-06
4.32133e-06
4.22007e-06
4.11488e-06
4.00554e-06
3.89169e-06
3.77344e-06
3.65098e-06
3.52458e-06
3.39485e-06
3.26224e-06
3.12738e-06
2.991e-06
2.85371e-06
2.71632e-06
2.57939e-06
2.44368e-06
2.3099e-06
2.17857e-06
2.05035e-06
1.92565e-06
1.80501e-06
1.68877e-06
1.57724e-06
1.47066e-06
1.36917e-06
1.27285e-06
1.18176e-06
1.09581e-06
1.01489e-06
9.38561e-07
8.66425e-07
7.98236e-07
7.33832e-07
6.86245e-07
6.31107e-07
0.000655601
0.0559164
0.405518
1.17175
2.14172
2.9989
3.47279
3.37586
2.6412
1.36615
0.351554
1.83268
2.98746
3.37907
2.86237
1.71914
0.628414
0.100201
0.00203271
0.000147452
0
0
0
1.10172e-07
1.63658e-06
4.92996e-06
4.96188e-06
4.22191e-06
3.98807e-06
3.96858e-06
3.92041e-06
3.84116e-06
3.76322e-06
3.68996e-06
3.61644e-06
3.54052e-06
3.46168e-06
3.3798e-06
3.29445e-06
3.20548e-06
3.11287e-06
3.01672e-06
2.91731e-06
2.81492e-06
2.70996e-06
2.60289e-06
2.49418e-06
2.38449e-06
2.27423e-06
2.16405e-06
2.05457e-06
1.94622e-06
1.83965e-06
1.73522e-06
1.63345e-06
1.53472e-06
1.43934e-06
1.3476e-06
1.25969e-06
1.17573e-06
1.09583e-06
1.01999e-06
9.48186e-07
8.80172e-07
8.15443e-07
7.54104e-07
0.000161075
0.000252434
0.0307292
0.274597
0.880624
1.71422
2.50337
2.99815
3.01785
2.48073
1.44072
0.210273
1.35101
2.45056
2.9234
2.5965
1.65876
0.666293
0.125671
0.00484707
0.000216954
0
0
0
3.55926e-08
4.65798e-07
3.58452e-06
4.25028e-06
3.56988e-06
3.24512e-06
3.20731e-06
3.18669e-06
3.13421e-06
3.07642e-06
3.02209e-06
2.96771e-06
2.91084e-06
2.85113e-06
2.78836e-06
2.72234e-06
2.65297e-06
2.58027e-06
2.50442e-06
2.42565e-06
2.34419e-06
2.26039e-06
2.17462e-06
2.0874e-06
1.99901e-06
1.91e-06
1.82089e-06
1.73204e-06
1.64401e-06
1.55715e-06
1.47191e-06
1.38868e-06
1.30774e-06
1.2294e-06
1.15387e-06
1.08128e-06
1.01179e-06
9.45438e-07
0
2.68588e-05
8.26831e-05
0.0127604
0.16153
0.612747
1.31764
2.04994
2.57202
2.70181
2.34173
1.50945
0.373368
0.934907
1.98361
2.52485
2.3628
1.6048
0.70468
0.155214
0.00942245
0.000308548
3.49153e-07
0
0
8.60359e-10
1.42561e-09
2.04095e-06
3.35098e-06
3.01519e-06
2.69203e-06
2.62516e-06
2.61064e-06
2.57473e-06
2.53101e-06
2.48937e-06
2.44791e-06
2.4045e-06
2.35863e-06
2.31008e-06
2.25862e-06
2.20415e-06
2.14674e-06
2.08652e-06
2.02365e-06
1.95839e-06
1.89103e-06
1.82195e-06
1.75141e-06
1.67984e-06
1.60766e-06
1.5352e-06
1.46292e-06
1.39113e-06
1.32024e-06
1.25058e-06
1.18245e-06
0
0
3.86122e-08
0.000796507
0.00313774
0.0802594
0.389221
0.962679
1.63405
2.17801
2.40695
2.20575
1.56056
0.582484
0.576017
1.57275
2.16853
2.14823
1.55069
0.740316
0.187599
0.0161389
7.37521e-05
1.49698e-05
0
0
1.39227e-12
9.12605e-08
1.33759e-06
2.6436e-06
2.53273e-06
2.25125e-06
2.17134e-06
2.1587e-06
2.13344e-06
2.09949e-06
2.06649e-06
2.0338e-06
1.9995e-06
1.96305e-06
1.9243e-06
1.88308e-06
1.83934e-06
1.79311e-06
1.74448e-06
1.69359e-06
1.64066e-06
1.58599e-06
1.52979e-06
1.47236e-06
7.70638e-08
7.08487e-13
0
0
0.000404771
0.000363183
0.0317217
0.220814
0.659881
1.25671
1.80874
2.12149
2.0618
1.58631
0.764952
0.273119
1.2089
1.84486
1.94559
1.49259
0.770737
0.222299
0.0247907
0.000359946
4.6915e-05
0
0
0
5.93613e-08
8.51316e-07
2.10595e-06
2.14704e-06
1.89538e-06
1.80631e-06
1.7954e-06
1.77815e-06
1.75099e-06
1.72401e-06
)
;

boundaryField
{
    inlet
    {
        type            calculated;
        value           nonuniform List<scalar> 
11
(
6.48596e-06
6.14828e-06
6.29565e-06
6.43248e-06
6.55386e-06
6.66169e-06
6.76265e-06
6.86397e-06
6.98384e-06
6.71246e-06
7.07293e-06
)
;
    }
    outlet
    {
        type            calculated;
        value           nonuniform List<scalar> 0();
    }
    walls
    {
        type            calculated;
        value           nonuniform List<scalar> 4(0.388723 0.298639 0.212748 0.0373332);
    }
    frontAndBack
    {
        type            empty;
    }
    procBoundary6to2
    {
        type            processor;
        value           nonuniform List<scalar> 
13
(
12.8387
7.7281
4.87936
2.93964
1.45405
0.489152
0.0704822
0.000731673
0.000321902
0
0
6.374e-08
1.08487e-06
)
;
    }
    procBoundary6to3
    {
        type            processor;
        value           uniform 1.2632e-06;
    }
    procBoundary6to5
    {
        type            processor;
        value           nonuniform List<scalar> 
86
(
36.0595
13.5537
17.389
15.5464
6.15818
0.243712
0.0267022
0.00385432
0
0
3.78759e-06
6.18891e-05
9.11993e-05
7.81888e-05
6.9778e-05
6.90835e-05
6.94125e-05
6.80557e-05
6.55477e-05
6.28628e-05
6.03676e-05
5.8022e-05
5.57014e-05
5.33352e-05
5.09165e-05
4.8462e-05
4.59898e-05
4.35178e-05
4.10595e-05
3.86246e-05
3.62259e-05
3.38755e-05
3.1584e-05
3.1584e-05
3.08895e-05
2.8599e-05
2.6403e-05
2.43081e-05
2.23199e-05
2.04422e-05
1.86773e-05
1.70262e-05
1.54882e-05
1.40616e-05
1.27436e-05
1.15304e-05
1.15304e-05
1.06937e-05
9.63813e-06
8.67759e-06
7.80584e-06
7.01655e-06
6.3034e-06
5.6603e-06
5.08134e-06
4.56082e-06
4.56082e-06
4.15001e-06
3.72347e-06
3.34157e-06
2.99994e-06
2.69449e-06
2.42123e-06
2.17618e-06
2.17618e-06
1.9736e-06
1.77272e-06
1.59232e-06
1.43138e-06
1.28763e-06
1.16379e-06
1.06486e-06
1.06486e-06
9.893e-07
9.14543e-07
8.36732e-07
7.72969e-07
6.8538e-07
6.56796e-07
5.31328e-07
6.12878e-07
4.60518e-07
4.60518e-07
7.46282e-07
8.62334e-07
1.11343e-06
)
;
    }
    procBoundary6to7
    {
        type            processor;
        value           nonuniform List<scalar> 
91
(
1.09028e-06
1.09028e-06
8.28402e-07
8.28402e-07
8.03539e-07
8.03539e-07
3.34882e-07
2.99618e-07
3.34882e-07
5.50192e-07
4.26622e-07
2.99618e-07
5.0118e-07
6.01772e-07
5.28227e-07
4.26622e-07
5.28228e-07
6.95231e-07
6.52374e-07
6.01772e-07
6.00555e-07
8.82257e-07
8.2217e-07
7.64569e-07
6.95231e-07
7.09892e-07
1.11611e-06
1.05178e-06
9.89603e-07
9.29725e-07
8.82257e-07
8.72237e-07
1.41408e-06
1.35522e-06
1.29615e-06
1.23715e-06
1.17857e-06
1.12068e-06
1.11611e-06
1.06378e-06
1.69775e-06
1.67023e-06
1.64081e-06
1.60935e-06
1.57576e-06
1.54001e-06
1.50216e-06
1.4623e-06
1.42058e-06
1.37722e-06
1.3324e-06
1.41408e-06
1.28634e-06
9.00518e-09
5.79339e-10
0
0
4.28679e-05
8.76366e-05
0.0083415
0.106822
0.414837
0.920133
1.46027
1.83851
1.90286
1.58229
0.910441
0.095932
0.886479
1.54764
1.75022
1.42768
0.79442
0.25748
0.0358183
0.000326205
3.77104e-05
0
0
0
3.42172e-08
4.69603e-07
1.65015e-06
1.82956e-06
1.60015e-06
1.4994e-06
1.4915e-06
1.48412e-06
1.69775e-06
1.46414e-06
)
;
    }
}


// ************************************************************************* //
