/*--------------------------------*- C++ -*----------------------------------*\
| =========                 |                                                 |
| \\      /  F ield         | OpenFOAM: The Open Source CFD Toolbox           |
|  \\    /   O peration     | Version:  2506                                  |
|   \\  /    A nd           | Website:  www.openfoam.com                      |
|    \\/     M anipulation  |                                                 |
\*---------------------------------------------------------------------------*/
FoamFile
{
    version     2.0;
    format      ascii;
    arch        "LSB;label=32;scalar=64";
    class       surfaceScalarField;
    location    "300";
    object      phi;
}
// * * * * * * * * * * * * * * * * * * * * * * * * * * * * * * * * * * * * * //

dimensions      [0 3 -1 0 0 0 0];

oriented        oriented;

internalField   nonuniform List<scalar> 
2577
(
0.113974
0.0126149
0.0954549
0.0185215
0.067182
0.0282724
0.066216
0.000967669
0.152953
0.0278018
0.133166
0.0383104
0.0994317
0.0620081
0.0714294
0.0289728
0.192049
0.0489894
0.167161
0.0631992
0.129622
0.0995464
0.0871129
0.0714819
0.237227
0.0777485
0.205688
0.0947391
0.162947
0.142289
0.112358
0.122073
0.287394
0.111671
0.249289
0.132845
0.20066
0.190917
0.144273
0.178459
0.333438
0.138904
0.295057
0.171228
0.24248
0.243494
0.181309
0.239633
0.361817
0.153041
0.334176
0.19887
0.285361
0.292307
0.222159
0.302835
0.374798
0.163301
0.359259
0.21441
0.322986
0.328581
0.263992
0.36183
0.387049
0.177719
0.374577
0.226883
0.351123
0.352033
0.302049
0.410904
0.405695
0.195916
0.389541
0.243039
0.371683
0.369891
0.332353
0.450235
0.428856
0.215072
0.408683
0.263212
0.390208
0.388364
0.355348
0.485096
0.453416
0.234058
0.431434
0.285195
0.410433
0.409365
0.376028
0.519502
0.478335
0.253146
0.456015
0.307515
0.433212
0.432166
0.398482
0.554232
0.504028
0.272799
0.4815
0.330044
0.457952
0.455715
0.423466
0.588719
0.53098
0.293196
0.508012
0.353012
0.484068
0.479656
0.450441
0.622346
0.559483
0.314282
0.535824
0.376671
0.511462
0.504018
0.478867
0.654942
0.58954
0.336037
0.565205
0.401006
0.540303
0.528918
0.508605
0.686641
0.621236
0.358345
0.596257
0.425986
0.570713
0.554462
0.539789
0.717565
0.654586
0.38122
0.629037
0.451536
0.602889
0.580607
0.572604
0.747851
0.689694
0.40463
0.663622
0.477609
0.636908
0.607321
0.607174
0.777585
0.726641
0.428523
0.700101
0.504149
0.672847
0.634574
0.643625
0.806808
0.765502
0.452881
0.738536
0.531115
0.7108
0.662309
0.682011
0.835597
0.806412
0.477609
0.779073
0.558454
0.750851
0.690529
0.72245
0.863999
0.849379
0.502809
0.821759
0.586074
0.79314
0.719147
0.76504
0.892099
0.894747
0.528162
0.866745
0.614076
0.837723
0.748168
0.809903
0.919919
0.942279
0.553917
0.914058
0.642298
0.884792
0.777434
0.857141
0.94757
0.992251
0.579725
0.964008
0.670541
0.934272
0.807169
0.906904
0.974939
1.04493
0.605657
1.01631
0.69916
0.986522
0.836956
0.959317
1.00214
1.10013
0.631788
1.07175
0.72754
1.04156
0.867143
1.01432
1.02938
1.15823
0.657906
1.12961
0.756166
1.09948
0.897266
1.07246
1.0564
1.21936
0.683799
1.19082
0.784707
1.16041
0.927675
1.13347
1.08334
1.28332
0.709828
1.25507
0.81296
1.2247
0.958045
1.19758
1.11045
1.35092
0.735365
1.32245
0.841425
1.29205
0.988451
1.26531
1.13718
1.4471
0.676003
1.42155
0.760916
1.39349
0.869491
1.36309
1.01885
1.33636
1.16392
1.52126
0.69835
1.49589
0.786286
1.46813
0.897245
1.43766
1.04931
1.41109
1.1905
1.59901
0.720634
1.57401
0.811288
1.54634
0.924917
1.51612
1.07954
1.48974
1.21687
1.68076
0.742539
1.65616
0.835884
1.62889
0.952192
1.59868
1.10974
1.5724
1.24316
1.76674
0.764046
1.7423
0.860318
1.71519
0.97931
1.68517
1.13976
1.6593
1.26903
1.85691
0.78528
1.83294
0.884292
1.80629
1.00596
1.77636
1.16969
1.75053
1.29485
1.95181
0.806236
1.92818
0.907927
1.90174
1.0324
1.87206
1.19936
1.84646
1.32046
2.0514
0.827052
2.02825
0.931072
2.00218
1.05848
1.9725
1.22904
1.94727
1.34568
2.15647
0.84732
2.13353
0.954009
2.10768
1.08433
2.07831
1.25842
2.05338
1.37061
2.26672
0.867469
2.24398
0.976757
2.21866
1.10965
2.18916
1.28792
2.16467
1.39509
2.38281
0.887388
2.3604
0.999162
2.33528
1.13477
2.3061
1.3171
2.28168
1.41951
2.50483
0.907104
2.48287
1.02113
2.4577
1.15993
2.42868
1.34612
2.40475
1.44344
2.65314
0.828335
2.63346
0.92678
2.61136
1.04324
2.58679
1.18449
2.55766
1.37526
2.5341
1.46699
2.78834
0.846251
2.7688
0.946313
2.74694
1.0651
2.72227
1.20916
2.69314
1.40439
2.66995
1.49018
2.93093
0.864194
2.91122
0.96602
2.88956
1.08676
2.86503
1.23369
2.83587
1.43355
2.81292
1.51313
3.08089
0.882343
3.06138
0.985531
3.03962
1.10852
3.01503
1.25828
2.98597
1.46261
2.96311
1.536
3.23928
0.900739
3.21935
1.00545
3.19758
1.1303
3.1732
1.28266
3.14366
1.49215
3.12127
1.55839
3.40592
0.919419
3.38598
1.0254
3.36413
1.15215
3.33935
1.30743
3.30982
1.52168
3.28748
1.58073
3.58159
0.93845
3.56144
1.04555
3.53933
1.17426
3.51453
1.33222
3.48442
1.55179
3.4624
1.60275
3.76695
0.957852
3.74639
1.0661
3.72386
1.19679
3.69882
1.35726
3.66853
1.58209
3.64649
1.62478
3.96234
0.977803
3.94118
1.08726
3.91858
1.21939
3.89302
1.38282
3.86217
1.61294
3.84011
1.64685
4.18855
0.901228
4.16813
0.998232
4.14664
1.10875
4.12349
1.24254
4.09759
1.40872
4.06604
1.64449
4.04416
1.66872
4.40643
0.921741
4.38522
1.01943
4.3633
1.13068
4.33945
1.26639
4.31302
1.43515
4.28084
1.67666
4.25873
1.69084
4.636
0.943045
4.6141
1.04133
4.59147
1.15331
4.56708
1.29078
4.54012
1.46211
4.50711
1.70968
4.48483
1.71312
4.87816
0.965176
4.85553
1.06396
4.83212
1.17672
4.80707
1.31583
4.77932
1.48986
4.74542
1.74357
4.72294
1.7356
5.13352
0.988181
5.1101
1.08737
5.08575
1.20107
5.06007
1.34151
5.03141
1.51852
4.99657
1.77841
4.9737
1.75848
5.40282
1.01237
5.37833
1.11186
5.35323
1.22617
5.32653
1.36821
5.2971
1.54795
5.26114
1.81436
5.23783
1.78179
5.68695
1.03738
5.66146
1.13735
5.63545
1.25218
5.60775
1.39591
5.5773
1.57841
5.53989
1.85177
5.51624
1.80543
6.01267
0.97056
5.98639
1.06365
5.95986
1.16388
5.93263
1.27941
5.90404
1.4245
5.87234
1.61011
5.83379
1.89032
5.80949
1.82974
6.32989
0.997637
6.30243
1.09111
6.27466
1.19165
6.24643
1.30764
6.2165
1.45443
6.18377
1.64284
6.14352
1.93057
6.11849
1.85476
6.6644
1.02617
6.63558
1.11993
6.60669
1.22054
6.57712
1.33721
6.54593
1.48563
6.51184
1.67693
6.47007
1.97234
6.44439
1.88044
7.01774
1.05592
6.98765
1.15002
6.95665
1.25155
6.92556
1.3683
6.89332
1.51787
6.85754
1.71271
6.81432
2.01556
6.7877
1.90706
7.3892
1.08852
7.35766
1.18156
7.32699
1.28221
7.29424
1.40106
7.26009
1.55201
7.22259
1.75022
7.17731
2.06083
7.14944
1.93494
7.78318
1.1206
7.74964
1.21509
7.71575
1.3161
7.68246
1.43434
7.64651
1.58796
7.60853
1.7882
7.56012
2.10924
7.53196
1.9631
5.72272
1.11165
5.73483
1.20298
5.75129
1.29964
5.77308
1.41255
5.79961
1.56143
5.83024
1.75757
5.86971
2.06977
5.90053
1.93228
6.27841
1.01953
6.2873
1.10277
6.30076
1.18951
6.3199
1.28051
6.34307
1.38939
6.37096
1.53354
6.40674
1.72179
6.44848
2.02803
6.48222
1.89854
6.8986
1.01555
6.90734
1.09402
6.92331
1.17355
6.9437
1.26011
6.96944
1.36365
7.00118
1.50179
7.03809
1.68488
7.08588
1.98024
7.12244
1.86199
7.57919
1.01067
7.59022
1.08299
7.60596
1.15781
7.62879
1.23728
7.657
1.33544
7.69112
1.46767
7.73423
1.64177
7.78392
1.93055
7.82704
1.81887
8.32679
1.00631
8.33867
1.07111
8.35796
1.13852
8.38177
1.21347
8.41227
1.30494
8.4513
1.42865
8.49785
1.59522
8.55462
1.87378
8.59921
1.77427
9.14956
1.00144
9.16209
1.05858
9.18211
1.1185
9.20933
1.18625
9.24331
1.27096
9.28573
1.38623
9.3355
1.54545
9.39875
1.81052
9.44797
1.72506
10.0531
0.994755
10.0675
1.04418
10.0895
1.09653
10.12
1.15572
10.1586
1.23238
10.2043
1.34056
10.2599
1.48988
10.329
1.74139
10.3841
1.66995
11.0442
0.988087
11.06
1.02832
11.0836
1.07297
11.1159
1.12343
11.1576
1.1907
11.2088
1.28929
11.2709
1.42785
11.3449
1.6674
11.4054
1.60938
12.1422
0.980994
12.1585
1.01201
12.1864
1.04502
12.2231
1.08679
12.2691
1.14464
12.3248
1.23359
12.393
1.35968
12.4788
1.5816
12.5476
1.54055
13.3288
0.972393
13.3483
0.992519
13.3772
1.01617
13.4176
1.04639
13.4674
1.09475
13.5292
1.17185
13.602
1.28691
13.6899
1.49367
13.7607
1.46975
14.6667
0.582796
14.6765
0.962516
14.6984
0.970646
14.7334
0.981166
14.7773
1.00253
14.8333
1.03873
14.9031
1.102
14.9901
1.1999
15.0988
1.38505
15.1876
1.38093
16.0638
0.531398
16.0721
0.954281
16.0945
0.948175
16.1281
0.947636
16.176
0.95457
16.2374
0.977332
16.3099
1.02948
16.3952
1.11467
16.4935
1.28673
16.5735
1.30093
17.7798
17.7981
17.8306
17.8777
17.9379
18.0119
18.1034
18.2168
18.3663
18.4861
0.0926758
0.136065
0.0454449
0.118658
0.0149366
0.117622
-0.00370244
0.130996
-0.0141837
0.154755
-0.0188791
0.186004
-0.0195168
0.222797
-0.0185258
0.263002
-0.0194315
0.302955
-0.0247068
0.337629
-0.0330137
0.363655
-0.0409423
0.383957
-0.0468757
0.404415
-0.050722
0.427313
-0.0526563
0.452376
-0.0528402
0.479051
-0.0514189
0.507184
-0.0485133
0.536884
-0.0442435
0.568335
-0.038739
0.60167
-0.0321277
0.637014
-0.0245173
0.674401
-0.0160264
0.713959
-0.00674721
0.755761
0.0032348
0.799921
0.0138803
0.846496
0.0251232
0.895661
0.0368825
0.947558
0.0490877
1.00211
0.0616806
1.05987
0.0746059
1.12054
0.0878131
1.18438
0.101257
1.25187
0.114892
1.32272
0.128669
1.39731
0.14254
1.47587
0.156457
1.55848
0.170367
1.64539
0.184218
1.73668
0.197958
1.83272
0.211528
1.9337
0.2249
2.04001
0.238001
2.15157
0.250794
2.26889
0.263236
2.39231
0.275288
2.52205
0.286916
2.65832
0.298091
2.80175
0.308789
2.95241
0.318992
3.11106
0.328676
3.2778
0.337867
3.45321
0.346527
3.63783
0.354669
3.83197
0.362299
4.03653
0.369426
4.2516
0.376062
4.47819
0.382223
4.71678
0.387924
4.968
0.393171
5.23259
0.398023
5.51139
0.402461
5.80505
0.406518
6.11443
0.410218
6.44069
0.413581
6.78434
0.416628
7.14639
0.419381
7.52921
0.421242
5.89867
0.423047
6.48042
0.42475
7.12073
0.426417
7.82538
0.427894
8.59773
0.429343
9.44652
0.430542
10.3829
0.431617
11.4044
0.432667
12.5466
0.432719
13.7606
0.434626
15.1857
0.431378
16.5767
0.147788
0.167127
0.109984
0.156461
0.0768353
0.150771
0.053386
0.154444
0.039777
0.168365
0.0345419
0.191238
0.0361831
0.221157
0.043018
0.256166
0.0523523
0.293622
0.0603723
0.329609
0.064337
0.359691
0.0652916
0.383003
0.0655282
0.404179
0.0656407
0.4272
0.0655255
0.452491
0.0652387
0.479338
0.0649594
0.507463
0.0648758
0.536967
0.0651513
0.568059
0.0659163
0.600905
0.0672744
0.635656
0.0693158
0.67236
0.0720947
0.71118
0.0756656
0.752191
0.0800403
0.795546
0.0852092
0.841327
0.091156
0.889714
0.0978734
0.940841
0.105322
0.994666
0.113475
1.05172
0.122279
1.11174
0.131681
1.17498
0.141626
1.24192
0.152053
1.31229
0.162901
1.38646
0.174116
1.46465
0.185617
1.54698
0.197357
1.63365
0.209268
1.72477
0.221294
1.82069
0.23336
1.92164
0.245403
2.02796
0.257378
2.1396
0.269223
2.25704
0.280881
2.38065
0.292304
2.51063
0.303444
2.64718
0.31426
2.79093
0.324716
2.94195
0.334779
3.101
0.344435
3.26814
0.353631
3.44402
0.362384
3.62908
0.370674
3.82368
0.378497
4.02871
0.385851
4.24424
0.39274
4.4713
0.399171
4.71035
0.405154
4.96201
0.410716
5.22703
0.415844
5.50626
0.420553
5.80034
0.424888
6.1101
0.428857
6.43672
0.432478
6.78071
0.43577
7.1431
0.438753
7.52623
0.440776
5.89664
0.442746
6.47845
0.444639
7.11884
0.446438
7.82358
0.448098
8.59607
0.449671
9.44495
0.451011
10.3816
0.45224
11.4031
0.453405
12.5454
0.453582
13.7605
0.455596
15.1837
0.191624
0.185181
0.166669
0.181415
0.139773
0.177667
0.116555
0.177662
0.100483
0.184437
0.0923691
0.199351
0.0914204
0.222106
0.0961383
0.251447
0.104343
0.285417
0.112736
0.321215
0.117602
0.354825
0.118014
0.38259
0.116882
0.405312
0.116544
0.427538
0.117091
0.451944
0.118005
0.478424
0.119113
0.506355
0.120439
0.535641
0.122004
0.566494
0.12383
0.599079
0.125924
0.633561
0.128297
0.669987
0.13099
0.708488
0.134024
0.749156
0.137454
0.792116
0.141301
0.837479
0.145622
0.885394
0.150431
0.936032
0.155772
0.989324
0.16165
1.04584
0.168087
1.1053
0.175076
1.16799
0.182616
1.23438
0.190673
1.30424
0.199223
1.37791
0.208224
1.45565
0.217644
1.53756
0.227429
1.62387
0.237525
1.71468
0.247876
1.81034
0.258425
1.91109
0.269119
2.01727
0.279884
2.12883
0.290657
2.24627
0.3014
2.36991
0.312057
2.49997
0.322555
2.63668
0.332855
2.78063
0.342911
2.9319
0.352671
3.09124
0.36212
3.25869
0.371218
3.43492
0.379939
3.62036
0.388275
3.81534
0.396187
4.0208
0.403676
4.23676
0.410738
4.46424
0.417358
4.70373
0.423566
4.9558
0.429353
5.22124
0.434728
5.50089
0.439717
5.79535
0.444291
6.10552
0.448508
6.4325
0.452372
6.77685
0.455912
7.13956
0.459105
7.52303
0.46129
5.89446
0.46342
6.47632
0.465461
7.1168
0.46743
7.82161
0.469244
8.59426
0.470962
9.44323
0.472509
10.38
0.473775
11.4019
0.47521
12.544
0.475377
13.7603
0.231004
0.196392
0.215406
0.197012
0.196707
0.196366
0.177918
0.196449
0.162614
0.199741
0.153397
0.208567
0.151182
0.224321
0.155436
0.247192
0.164591
0.276262
0.175981
0.309825
0.185708
0.345098
0.190072
0.378225
0.189133
0.406252
0.186357
0.430313
0.184185
0.454116
0.182816
0.479793
0.181823
0.507348
0.181102
0.536362
0.180757
0.56684
0.180844
0.598992
0.181395
0.63301
0.182399
0.668984
0.18385
0.707037
0.185744
0.747262
0.188082
0.789779
0.190867
0.834695
0.194085
0.882176
0.197755
0.932362
0.201876
0.985203
0.206461
1.04126
0.211496
1.10027
0.217002
1.16248
0.222976
1.22841
0.229414
1.2978
0.236309
1.37102
0.243647
1.44831
0.251409
1.5298
0.259567
1.61571
0.26809
1.70615
0.276939
1.80149
0.28607
1.90196
0.295437
2.0079
0.304989
2.11928
0.314673
2.23659
0.324434
2.36015
0.334219
2.49019
0.343973
2.62693
0.353644
2.77096
0.363182
2.92236
0.372552
3.08187
0.381678
3.24957
0.390553
3.42604
0.399146
3.61176
0.407391
3.8071
0.415301
4.01289
0.422843
4.22921
0.430005
4.45708
0.436791
4.69694
0.443154
4.94944
0.449135
5.21526
0.454721
5.4953
0.459918
5.79015
0.464749
6.10069
0.469184
6.42807
0.473277
6.77276
0.477029
7.13581
0.480457
7.5196
0.482801
5.89211
0.485092
6.47403
0.4873
7.11459
0.489428
7.81948
0.491413
8.59227
0.49329
9.44136
0.494989
10.3783
0.496384
11.4005
0.498016
12.5423
0.272239
0.204481
0.260932
0.208318
0.246707
0.210591
0.230879
0.212276
0.215748
0.214872
0.204007
0.220308
0.197805
0.230524
0.198074
0.246923
0.204474
0.269862
0.215526
0.298773
0.228473
0.332151
0.239396
0.367301
0.24496
0.400688
0.245431
0.429842
0.243874
0.455673
0.242542
0.481124
0.241715
0.508176
0.241
0.537077
0.240314
0.567526
0.23976
0.599546
0.23944
0.633329
0.239397
0.669028
0.239656
0.706778
0.240247
0.746671
0.241203
0.788823
0.242551
0.833346
0.244315
0.880413
0.246512
0.930165
0.249158
0.982557
0.252261
1.03815
0.255828
1.0967
0.259862
1.15845
0.264364
1.22391
0.269328
1.29284
0.274749
1.3656
0.280617
1.44244
0.286919
1.5235
0.293637
1.60899
0.300757
1.69903
0.308227
1.79402
0.316042
1.89414
0.324156
1.99979
0.332529
2.11091
0.341117
2.228
0.349874
2.35139
0.358751
2.48131
0.367697
2.61799
0.37666
2.762
0.385592
2.91343
0.394444
3.07302
0.403168
3.24084
0.411722
3.41749
0.420065
3.60342
0.428162
3.799
0.435982
4.00507
0.443497
4.2217
0.450685
4.44989
0.45753
4.6901
0.464019
4.94295
0.470143
5.20913
0.475898
5.48955
0.481283
5.78477
0.4863
6.09567
0.490957
6.42341
0.495263
6.76845
0.499228
7.13184
0.502882
7.51595
0.505367
5.88963
0.507832
6.47156
0.510189
7.11223
0.512481
7.81719
0.514635
8.59012
0.516657
9.43933
0.51854
10.3764
0.520089
0.31372
0.210223
0.305227
0.216811
0.294049
0.221769
0.280751
0.225575
0.266582
0.22904
0.253436
0.233453
0.24357
0.240391
0.238848
0.251645
0.240203
0.268507
0.247386
0.291591
0.25902
0.320517
0.272369
0.353952
0.28369
0.389367
0.289968
0.423564
0.29137
0.454271
0.29057
0.481924
0.289746
0.509
0.28939
0.537433
0.289204
0.567713
0.289043
0.599707
0.288944
0.633428
0.289005
0.668967
0.289244
0.706539
0.289681
0.746234
0.290312
0.788191
0.29119
0.832468
0.292337
0.879266
0.293782
0.928719
0.295555
0.980785
0.29768
1.03603
0.300189
1.09419
0.303087
1.15555
0.306388
1.22061
0.310122
1.2891
0.314285
1.36143
0.31888
1.43785
0.323913
1.51846
0.329357
1.60355
0.335201
1.69319
0.341443
1.78778
0.348053
1.88753
0.355005
1.99283
0.362267
2.10365
0.369814
2.22045
0.377587
2.34362
0.385543
2.47336
0.393657
2.60987
0.401874
2.75378
0.410145
2.90516
0.418423
3.06474
0.426673
3.23259
0.434826
3.40934
0.442838
3.59541
0.450692
3.79115
0.458341
3.99742
0.465751
4.21429
0.472893
4.44275
0.479745
4.68325
0.486298
4.9364
0.492512
5.20292
0.498375
5.48369
0.503906
5.77924
0.50909
6.09049
0.513941
6.41856
0.518438
6.76395
0.522585
7.12769
0.526421
7.51211
0.529083
5.88697
0.531673
6.46897
0.534206
7.1097
0.536674
7.81472
0.538998
8.5878
0.541166
0.355022
0.213709
0.34911
0.222723
0.340638
0.230241
0.329829
0.236383
0.317326
0.241543
0.304289
0.24649
0.292413
0.252267
0.283669
0.260388
0.279792
0.272384
0.281718
0.289664
0.289316
0.31292
0.301262
0.342006
0.314922
0.375707
0.326716
0.41177
0.333763
0.447223
0.335915
0.479772
0.335471
0.509444
0.33468
0.538224
0.3343
0.568093
0.334169
0.599837
0.33411
0.633488
0.334134
0.668942
0.334303
0.70637
0.334642
0.745895
0.335157
0.787676
0.335862
0.831763
0.336775
0.878354
0.337915
0.927579
0.339304
0.979396
0.340963
1.03437
0.342911
1.09224
0.345169
1.15329
0.347757
1.21802
0.350691
1.28617
0.353988
1.35814
0.35766
1.43418
0.361714
1.51441
0.366154
1.59911
0.37098
1.68836
0.376185
1.78257
0.381761
1.88196
0.38769
1.98691
0.393952
2.09738
0.400522
2.21388
0.40737
2.33677
0.414462
2.46626
0.421761
2.60257
0.429226
2.74631
0.436815
2.89757
0.444484
3.05707
0.452188
3.22489
0.459882
3.40164
0.467522
3.58777
0.475066
3.7836
0.482475
3.99001
0.48971
4.20705
0.496739
4.43572
0.503533
4.67645
0.510065
4.92987
0.516314
5.19667
0.522262
5.47774
0.527897
5.7736
0.533209
6.08518
0.538195
6.41357
0.542855
6.75929
0.54719
7.12336
0.551208
7.5081
0.553995
5.88418
0.556745
6.46622
0.559447
0.562044
0.395995
0.215298
0.392535
0.226183
0.386686
0.236091
0.378406
0.244664
0.367942
0.252007
0.355985
0.258447
0.343609
0.264643
0.332376
0.271621
0.32411
0.28065
0.320498
0.293276
0.322531
0.310887
0.330187
0.33435
0.34225
0.363645
0.356216
0.397804
0.368687
0.434752
0.376732
0.471727
0.379829
0.506347
0.379877
0.538176
0.37915
0.56882
0.37874
0.600247
0.378648
0.63358
0.378654
0.668936
0.378724
0.706301
0.378892
0.745727
0.379221
0.787347
0.379687
0.831297
0.380343
0.877698
0.381178
0.926744
0.382221
0.978353
0.383482
1.03311
0.384998
1.09073
0.386776
1.15151
0.388844
1.21595
0.391198
1.28381
0.393862
1.35547
0.396851
1.43119
0.400164
1.5111
0.403831
1.59544
0.407847
1.68435
0.412225
1.77819
0.416942
1.87724
0.422002
1.98184
0.427395
2.09199
0.433095
2.20818
0.439102
2.33076
0.445392
2.45997
0.451915
2.59605
0.45865
2.73958
0.46556
2.89066
0.472595
3.05004
0.479738
3.21775
0.486935
3.39445
0.494145
3.58056
0.501338
3.77641
0.508448
3.9829
0.515449
4.20005
0.522304
4.42886
0.528967
4.66979
0.535433
4.9234
0.541663
5.19044
0.547647
5.47175
0.553341
5.76791
0.558728
6.07979
0.563828
6.40847
0.568622
6.7545
0.573121
7.11886
0.577286
0.5802
0.436394
0.215823
0.434935
0.227643
0.431673
0.239353
0.42605
0.250286
0.41802
0.260037
0.407866
0.268601
0.396233
0.276276
0.384165
0.283689
0.373131
0.291685
0.36489
0.301517
0.361084
0.314693
0.362835
0.332598
0.370224
0.356256
0.382201
0.385827
0.396389
0.420565
0.409543
0.458573
0.418684
0.497206
0.422803
0.534057
0.42342
0.568203
0.422823
0.600844
0.422414
0.633989
0.422378
0.668973
0.422506
0.706173
0.422688
0.745545
0.422941
0.787094
0.423312
0.830926
0.423792
0.877218
0.424425
0.926112
0.425217
0.97756
0.426198
1.03213
0.427358
1.08957
0.428755
1.15011
0.430366
1.21434
0.43224
1.28194
0.434382
1.35333
0.436807
1.42876
0.439528
1.50838
0.442567
1.5924
0.445911
1.681
0.449566
1.77454
0.453557
1.87325
0.457874
1.97753
0.462511
2.08735
0.467461
2.20323
0.472712
2.32551
0.478249
2.45444
0.484049
2.59025
0.490088
2.73354
0.496338
2.88441
0.502779
3.0436
0.50934
3.21119
0.516032
3.38775
0.522781
3.57381
0.529545
3.76965
0.536311
3.97613
0.543027
4.19334
0.549654
4.42223
0.556171
4.66327
0.562518
4.91705
0.568663
5.1843
0.574608
5.46581
0.580314
5.76221
0.585776
0.59094
0.595836
0.476806
0.216031
0.476407
0.228042
0.475172
0.240588
0.472229
0.253229
0.466996
0.26527
0.459305
0.276292
0.44945
0.286131
0.438039
0.2951
0.426083
0.30364
0.414959
0.31264
0.406414
0.323238
0.40211
0.336902
0.403288
0.355079
0.410185
0.37893
0.42191
0.40884
0.436279
0.444203
0.450104
0.48338
0.460323
0.523838
0.465513
0.563012
0.466735
0.599622
0.466269
0.634455
0.46583
0.669412
0.465797
0.706206
0.466025
0.745317
0.466299
0.78682
0.46663
0.830595
0.467045
0.876802
0.467572
0.925585
0.468225
0.976908
0.469018
1.03133
0.469976
1.08861
0.471088
1.149
0.4724
1.21303
0.47392
1.28042
0.475665
1.35159
0.477649
1.42678
0.4799
1.50612
0.482397
1.5899
0.485186
1.67822
0.488264
1.77146
0.491639
1.86987
0.495317
1.97385
0.499297
2.08337
0.50359
2.19894
0.508166
2.32094
0.513017
2.44959
0.518151
2.58511
0.52354
2.72815
0.529161
2.87879
0.534991
3.03777
0.541011
3.20517
0.547155
3.38161
0.553425
3.56754
0.559771
3.7633
0.566158
3.96975
0.572548
4.18695
0.578903
4.41588
0.585187
0.591366
0.597418
0.603275
0.518082
0.216267
0.517938
0.228186
0.517682
0.240845
0.516727
0.254183
0.514211
0.267786
0.509477
0.281026
0.502246
0.293362
0.492725
0.304622
0.481482
0.314883
0.469498
0.324624
0.458124
0.334612
0.449049
0.345977
0.444024
0.360104
0.444403
0.378551
0.45063
0.402614
0.461973
0.43286
0.476434
0.468919
0.490947
0.509325
0.502269
0.55169
0.508559
0.593333
0.510451
0.632562
0.51015
0.669713
0.509645
0.706711
0.509572
0.74539
0.509844
0.786549
0.510197
0.830241
0.510581
0.876419
0.511027
0.925138
0.511572
0.976362
0.512233
1.03067
0.51301
1.08783
0.513939
1.14807
0.515036
1.21193
0.516296
1.27916
0.517743
1.35014
0.519393
1.42513
0.52125
1.50427
0.523349
1.5878
0.525692
1.67587
0.528303
1.76885
0.531169
1.86701
0.534308
1.97071
0.537727
2.07995
0.541416
2.19525
0.545398
2.31695
0.549669
2.44531
0.554199
2.58059
0.558988
2.72336
0.564021
2.87375
0.569278
3.03251
0.574727
0.580364
0.586162
0.592064
0.598049
0.604083
0.560698
0.216483
0.560509
0.228374
0.5604
0.240953
0.560264
0.25432
0.559619
0.268431
0.557604
0.283041
0.553466
0.2975
0.546794
0.311294
0.537686
0.323991
0.526637
0.335673
0.514575
0.346674
0.502825
0.357727
0.493073
0.369856
0.487123
0.384501
0.486497
0.40324
0.491874
0.427482
0.502721
0.458073
0.517191
0.494855
0.532324
0.536557
0.544764
0.580893
0.552219
0.625107
0.55486
0.667072
0.554797
0.706775
0.55423
0.745956
0.554088
0.786691
0.554362
0.829967
0.554769
0.876013
0.555193
0.924713
0.55566
0.975896
0.556211
1.03012
0.55688
1.08716
0.557655
1.1473
0.558549
1.21104
0.559598
1.27811
0.560805
1.34893
0.562186
1.42375
0.563765
1.50269
0.565532
1.58604
0.567513
0.569707
0.572149
0.574836
0.577777
0.58099
0.584453
0.588168
0.592156
0.596398
0.600886
0.604741
0.604554
0.604378
0.604309
0.604255
0.603888
0.602408
0.598957
0.592948
0.584331
0.573519
0.561374
0.549192
0.538658
0.531669
0.529866
0.534201
0.544402
0.558787
0.574488
0.58802
0.596696
0.600187
0.600414
0.599803
0.599567
0.59984
0.600287
0.600749
0.60122
0.601773
0.602425
0.603198
0.604079
0.605093
0.606253
0.607561
)
;

boundaryField
{
    inlet
    {
        type            calculated;
        value           nonuniform List<scalar> 
11
(
0.471928
0.935941
0.915696
0.900507
0.894394
0.903322
0.938014
1.00123
1.13718
1.18114
0.435725
)
;
    }
    outlet
    {
        type            calculated;
        value           nonuniform List<scalar> 0();
    }
    walls
    {
        type            calculated;
        value           uniform 0;
    }
    frontAndBack
    {
        type            empty;
    }
    procBoundary6to2
    {
        type            processor;
        value           nonuniform List<scalar> 
13
(
-0.162521
-0.178849
-0.209677
-0.242215
-0.280327
-0.319461
-0.358508
-0.397584
-0.436919
-0.477014
-0.518318
-0.560914
-0.604903
)
;
    }
    procBoundary6to3
    {
        type            processor;
        value           uniform 0.216645;
    }
    procBoundary6to5
    {
        type            processor;
        value           nonuniform List<scalar> 
86
(
-0.126589
-0.168139
-0.213237
-0.265986
-0.321316
-0.360671
-0.375954
-0.385057
-0.401467
-0.423892
-0.448011
-0.472402
-0.497422
-0.52368
-0.551376
-0.580569
-0.611294
-0.643545
-0.677461
-0.713104
-0.750534
-0.789859
-0.83114
-0.874578
-0.9201
-0.968035
-1.01806
-1.07086
-1.12626
-1.18435
-1.24525
-1.30935
-1.37645
-0.653203
-1.46991
-1.5436
-1.6213
-1.70266
-1.78825
-1.87815
-1.97277
-2.07221
-2.17674
-2.28687
-2.40273
-2.52455
-0.810545
-2.67093
-2.80625
-2.94887
-3.09904
-3.25767
-3.4246
-3.60062
-3.78635
-3.9823
-0.881331
-4.20845
-4.42694
-4.6573
-4.90029
-5.15652
-5.42701
-5.71196
-0.944624
-6.0386
-6.35697
-6.69293
-7.04749
-7.42179
-7.81526
-5.71378
-1.02374
-6.2742
-6.89462
-7.57431
-8.32244
-9.14468
-10.0465
-11.0375
-12.1351
-13.3202
-0.63231
-14.6171
-16.0124
-17.7203
)
;
    }
    procBoundary6to7
    {
        type            processor;
        value           nonuniform List<scalar> 
91
(
18.4818
0.452704
16.5796
0.477713
15.1813
0.49827
13.76
11.3989
0.521875
12.5406
9.43717
0.543222
10.3744
7.107
7.81212
0.564536
8.5853
7.50393
5.88127
0.583087
6.46333
6.07433
6.40331
6.7496
0.600443
7.11425
4.65699
4.91088
5.17824
5.45995
0.608949
5.75653
3.19972
3.37597
3.56174
3.7574
3.96376
4.18091
0.61013
4.40983
1.67389
1.76666
1.86457
1.96802
2.07701
2.19204
2.31349
2.4416
2.5766
2.71912
2.86926
0.605607
3.02779
0.228561
0.241129
0.254389
0.268485
0.283408
0.298979
0.314745
0.330001
0.34429
0.357486
0.369872
0.382038
0.395035
0.410229
0.429285
0.453738
0.484653
0.522172
0.565192
0.611576
0.658396
0.703283
0.745729
0.787303
0.830202
0.87574
0.924267
0.975434
1.02965
1.08661
1.14665
1.21026
1.27723
1.34792
1.42259
1.50138
0.609054
1.58454
)
;
    }
}


// ************************************************************************* //
