/*--------------------------------*- C++ -*----------------------------------*\
| =========                 |                                                 |
| \\      /  F ield         | OpenFOAM: The Open Source CFD Toolbox           |
|  \\    /   O peration     | Version:  2506                                  |
|   \\  /    A nd           | Website:  www.openfoam.com                      |
|    \\/     M anipulation  |                                                 |
\*---------------------------------------------------------------------------*/
FoamFile
{
    version     2.0;
    format      ascii;
    arch        "LSB;label=32;scalar=64";
    class       volScalarField;
    location    "300";
    object      turbulenceProperties:L;
}
// * * * * * * * * * * * * * * * * * * * * * * * * * * * * * * * * * * * * * //

dimensions      [0 1 0 0 0 0 0];

internalField   nonuniform List<scalar> 
1340
(
0.062953
0.063851
0.06468
0.0652002
0.182084
0.186337
0.187502
0.18146
0.216534
0.233687
0.24929
0.245421
0.222867
0.247518
0.272773
0.28052
0.224499
0.24992
0.28035
0.298083
0.250179
0.257457
0.283145
0.305211
0.222197
0.309957
0.294245
0.308919
0.0852572
0.187528
0.335959
0.316464
0
0.091503
0.306897
0.333273
0
0.171134
0.033359
0.355647
0
0
0.0540698
0.321764
0.24075
0
0.0366816
0.215144
0.0345378
3.85662
0.0226397
0.123619
0.0246345
2.36542
0.0430912
0.062777
0.0253347
0.0353268
0.929618
0.0204718
0.0278603
0.0260432
1.97914
0.0512763
0.0296915
0.0252597
0.963156
1.12803
0.0300984
0.0268758
0.0444832
0.776729
0.0300177
0.0292596
0.0301666
0.118894
0.0301467
0.0310095
0.0293719
0.0437311
0.0305881
0.0318391
0.0307928
0.0338567
0.031226
0.0323179
0.0325204
0.0326396
0.0319525
0.0328614
0.033888
0.0335189
0.0327212
0.0335722
0.034923
0.0349326
0.0335283
0.0344187
0.035858
0.0363934
0.0343894
0.0353588
0.0368406
0.0378088
0.0353167
0.0363703
0.037914
0.0392167
0.0363181
0.0374529
0.0390782
0.0406577
0.0374018
0.0386145
0.040331
0.0421564
0.0385713
0.0398605
0.041669
0.0437187
0.0398317
0.0411974
0.0430998
0.0453509
0.041192
0.0426307
0.044624
0.0470592
0.042657
0.0441696
0.0462506
0.0488472
0.0429477
0.0442343
0.0458174
0.0479865
0.0507252
0.0446071
0.045932
0.0475816
0.0498342
0.0526997
0.046396
0.0477565
0.0494707
0.0518015
0.0547778
0.0483224
0.0497171
0.0514921
0.0538958
0.0569688
0.0503942
0.0518217
0.0536534
0.0561244
0.0592809
0.052621
0.0540788
0.0559625
0.0584935
0.061723
0.0550117
0.0564977
0.0584296
0.0610126
0.0643044
0.0575754
0.0590873
0.0610627
0.0636908
0.0670353
0.0603218
0.0618574
0.0638714
0.0665366
0.0699262
0.0632609
0.064818
0.066866
0.0695611
0.0729873
0.0664024
0.0679783
0.0700567
0.0727734
0.0762317
0.0697571
0.0713493
0.0734533
0.0761854
0.0796697
0.072102
0.0733347
0.074942
0.0770676
0.079809
0.0833137
0.0759038
0.077146
0.0787661
0.0809101
0.0836552
0.0871769
0.0799504
0.0812023
0.0828334
0.0849924
0.087736
0.091272
0.0842528
0.0855139
0.0871548
0.0893264
0.092065
0.0956123
0.0888215
0.0900924
0.0917421
0.0939235
0.0966545
0.100211
0.0936675
0.0949481
0.0966063
0.0987967
0.101518
0.105081
0.0988026
0.100093
0.101759
0.103957
0.106667
0.110237
0.104237
0.105539
0.107213
0.109418
0.112117
0.115692
0.109982
0.111296
0.112979
0.115191
0.117881
0.12146
0.115023
0.11605
0.117377
0.11907
0.12129
0.123971
0.127554
0.121407
0.122451
0.123794
0.125498
0.127727
0.130402
0.133988
0.128133
0.129197
0.130557
0.132275
0.134514
0.137187
0.140777
0.13521
0.136297
0.137677
0.139412
0.141665
0.144339
0.147933
0.142648
0.143761
0.145165
0.146919
0.149189
0.15187
0.155469
0.150462
0.151603
0.153033
0.154809
0.157099
0.159794
0.163398
0.158685
0.159853
0.161307
0.163106
0.165416
0.168126
0.171733
0.166409
0.167369
0.16856
0.170036
0.171852
0.174179
0.176904
0.180505
0.175571
0.176559
0.177775
0.179271
0.181105
0.183444
0.18618
0.18976
0.185247
0.186274
0.187524
0.189051
0.190908
0.193263
0.196013
0.199568
0.195395
0.196479
0.197784
0.199358
0.201255
0.203643
0.20642
0.20995
0.206042
0.20721
0.208598
0.210249
0.212219
0.214677
0.21752
0.221068
0.216718
0.217954
0.219414
0.221141
0.223186
0.225735
0.228672
0.232298
0.226532
0.22783
0.229347
0.231126
0.23323
0.235861
0.238886
0.242403
0.234961
0.236135
0.237603
0.239275
0.241181
0.243408
0.246156
0.249359
0.252916
0.24446
0.245765
0.247399
0.249255
0.251351
0.253778
0.256717
0.26006
0.263415
0.255767
0.257307
0.259184
0.261296
0.263656
0.266366
0.269657
0.273589
0.277903
0.266128
0.267706
0.269657
0.271894
0.274428
0.277323
0.280715
0.284327
0.28719
0.283032
0.285156
0.287618
0.29033
0.293315
0.296747
0.301041
0.306707
0.313458
0.289153
0.291028
0.293347
0.296043
0.299074
0.302385
0.305814
0.308451
0.308619
0.321507
0.324483
0.327829
0.33155
0.33575
0.340871
0.348119
0.358816
0.37314
0.300107
0.301572
0.303493
0.305904
0.30857
0.311106
0.31229
0.310186
0.30502
0.340087
0.340349
0.341577
0.343818
0.347001
0.351469
0.357869
0.361713
0.369087
0.258745
0.261761
0.2617
0.261675
0.261829
0.262018
0.261815
0.259367
0.253675
0.250904
0.249817
0.250568
0.249829
0.248929
0.24817
0.247494
0.246548
0.243474
0.238553
0.238818
0.192052
0.20895
0.207477
0.206246
0.20553
0.204713
0.203632
0.201546
0.199773
0.216028
0.161939
0.297439
0.52939
0.365075
0.34375
0.338539
0.334485
0.33159
0.333715
0.343795
0.348485
0.273907
0.14735
0.0676999
0.0206259
0.0901237
0
2.87022
0.290498
0.0537539
0.0374762
0.0353121
0.036123
0.0376927
0.0393447
0.0409215
0.0424672
0.0440347
0.0456569
0.0473401
0.0490867
0.0508996
0.0527802
0.0547378
0.0567799
0.0589115
0.0611437
0.0634851
0.0659446
0.0685329
0.0712621
0.0741433
0.0771852
0.0804056
0.0838132
0.0874213
0.0912445
0.0952958
0.0995893
0.104139
0.108957
0.114062
0.119464
0.125179
0.131221
0.137604
0.144343
0.151451
0.158943
0.166829
0.175125
0.183855
0.193061
0.20282
0.213141
0.224227
0.235504
0.24547
0.256274
0.266084
0.282282
0.288493
0.321747
0.305617
0.395975
0.297637
0.390207
0.251031
0.247762
0.223053
0.235669
0.292996
0.472472
0.694254
0.479928
0.42724
0.406654
0.395581
0.392599
0.405645
0.453621
0.508003
0.274562
0.113162
0.029601
0.0828101
0
6.34613
0.641834
0.0758332
0.0479328
0.0437813
0.0440402
0.0454068
0.0469141
0.0483372
0.0497216
0.0511339
0.0526083
0.0541495
0.0557576
0.0574335
0.0591775
0.0609987
0.0629043
0.0648985
0.0669931
0.069195
0.0715138
0.0739602
0.0765462
0.0792833
0.0821798
0.085255
0.0885175
0.0919802
0.0956597
0.0995691
0.103723
0.108136
0.112821
0.117797
0.123076
0.128674
0.134606
0.140888
0.147532
0.154556
0.161973
0.169796
0.178041
0.186734
0.195912
0.205653
0.215965
0.227047
0.238397
0.248468
0.259584
0.26919
0.286084
0.291501
0.326786
0.308267
0.404479
0.300435
0.397286
0.254213
0.251433
0.297522
0.33469
0.421828
0.684659
0.83614
0.558916
0.48487
0.4538
0.4386
0.436957
0.457749
0.53194
0.420908
0.122601
0.840133
7.64893
0
8.01799
4.65359
0.124631
0.064626
0.0560515
0.0553165
0.0563422
0.0575627
0.0586338
0.0596101
0.0605935
0.0616454
0.0627844
0.0640168
0.0653457
0.0667714
0.0683032
0.0699475
0.0717078
0.073594
0.0756095
0.0777643
0.0800658
0.0825242
0.085148
0.0879445
0.0909318
0.0941155
0.0975078
0.101124
0.104976
0.109078
0.113443
0.118084
0.123017
0.128256
0.133816
0.13971
0.145954
0.152562
0.159548
0.166927
0.174713
0.182919
0.191571
0.200705
0.210398
0.220664
0.231691
0.243046
0.25308
0.2644
0.273651
0.291063
0.29572
0.332214
0.312244
0.409372
0.304227
0.398405
0.256965
0.341804
0.373456
0.427431
0.542331
0.914779
0.952502
0.630177
0.539029
0.499209
0.48035
0.47848
0.496624
0.528297
0.13584
0.05998
0
0
0
1.79501
0.188755
0.077942
0.0628394
0.0610152
0.0622066
0.0638785
0.0653007
0.0664831
0.0675829
0.0686926
0.0698451
0.0710575
0.0723406
0.0737021
0.0751575
0.0767188
0.0783957
0.0801991
0.0821356
0.084217
0.0864513
0.0888486
0.0914171
0.0941659
0.09711
0.100255
0.103614
0.107201
0.111025
0.115102
0.119442
0.12406
0.128971
0.134185
0.13972
0.145588
0.151802
0.158378
0.165329
0.172669
0.180413
0.188572
0.197173
0.206246
0.215871
0.22607
0.237015
0.248346
0.258235
0.269669
0.278499
0.296409
0.300251
0.337863
0.316378
0.413944
0.307814
0.400094
0.373798
0.403491
0.443553
0.510061
0.647874
1.10685
1.07871
0.706921
0.59771
0.549191
0.526845
0.523705
0.536178
0.519817
0.226071
0.100706
0
0
0
0.945067
0.114829
0.0713313
0.0670198
0.0678032
0.0694757
0.0711114
0.0725036
0.0737573
0.0750064
0.0763003
0.0776473
0.0790488
0.0805096
0.0820408
0.0836551
0.0853647
0.0871809
0.0891132
0.0911758
0.0933795
0.0957353
0.0982548
0.100949
0.103833
0.106914
0.110209
0.113728
0.117483
0.121491
0.125763
0.130311
0.135153
0.140298
0.145764
0.151563
0.157708
0.164214
0.171095
0.178365
0.186038
0.194126
0.202654
0.21165
0.221191
0.23131
0.24216
0.253465
0.26321
0.274766
0.283203
0.301635
0.304666
0.343521
0.320278
0.419129
0.310796
0.398747
0.426466
0.459769
0.50587
0.581271
0.73448
1.2381
1.23985
0.789587
0.658642
0.600419
0.573454
0.566334
0.566049
0.54043
0.312745
0.148502
0
0
0
0.813807
0.106944
0.0770207
0.0769626
0.0794282
0.0810455
0.0822354
0.0833078
0.0843417
0.0854188
0.0865793
0.0878229
0.0891463
0.0905542
0.0920569
0.0936643
0.0953828
0.0972198
0.0991876
0.101296
0.103553
0.105973
0.108567
0.111347
0.114324
0.117514
0.120929
0.124579
0.128483
0.132652
0.137098
0.141839
0.146886
0.152255
0.157958
0.164009
0.170422
0.177212
0.184392
0.191976
0.199977
0.208419
0.217326
0.226772
0.236799
0.24754
0.258818
0.268434
0.280136
0.288176
0.30716
0.30932
0.349551
0.324304
0.419802
0.445765
0.474542
0.510252
0.560132
0.640693
0.800344
1.29786
1.47051
0.883044
0.72343
0.653342
0.619894
0.605741
0.593808
0.564015
0.162324
0.102513
0
0
0
0.864103
0.118319
0.0849917
0.0871501
0.0913697
0.0931837
0.0941429
0.0951399
0.0961443
0.0971506
0.0982121
0.0993465
0.100557
0.10186
0.103273
0.104805
0.106466
0.108267
0.110217
0.112327
0.114607
0.117068
0.11972
0.122577
0.125649
0.128949
0.13249
0.136286
0.140351
0.144695
0.149335
0.154283
0.159555
0.165161
0.171117
0.177435
0.184129
0.191213
0.198702
0.206608
0.214952
0.223758
0.233094
0.243015
0.253626
0.264867
0.274325
0.286182
0.293764
0.313335
0.314488
0.437951
0.463607
0.488941
0.518081
0.555077
0.606819
0.689055
0.846947
1.29808
1.84422
0.994587
0.794821
0.709351
0.667231
0.644999
0.626214
0.573233
0.208049
0.174847
0
0
0
0.989923
0.136438
0.0937749
0.0961632
0.102127
0.104304
0.105047
0.10608
0.107258
0.108391
0.109524
0.110705
0.111954
0.113289
0.114728
0.116283
0.117971
0.119805
0.121798
0.123963
0.126309
0.128851
0.131599
0.134566
0.137765
0.141206
0.144906
0.148875
0.153125
0.157673
0.162528
0.167708
0.173222
0.179084
0.185308
0.191904
0.198889
0.206276
0.214078
0.222314
0.231006
0.240214
0.250011
0.260468
0.271654
0.280912
0.292923
0.506083
0.483173
0.503616
0.528216
0.557464
0.594911
0.647018
0.728332
0.878748
1.26851
2.55443
1.13344
0.874894
0.769048
0.716002
0.685925
0.659575
0.598604
0.333488
0.348366
0
0
0
1.44516
0.198801
0.105555
0.105497
0.113313
0.116443
0.116798
0.11755
0.118752
0.11997
0.121154
0.12238
0.123685
0.125085
0.126591
0.12822
0.129987
0.131906
0.133992
0.136256
0.138711
0.141372
0.144251
0.14736
0.150712
0.154322
0.158202
0.162362
0.16682
0.171584
0.176672
0.182092
0.187858
0.193982
0.200475
0.207352
0.214628
0.222314
0.230429
0.238994
0.248054
0.257709
0.267982
0.133941
0.423228
0.524569
0.539059
0.563658
0.593004
0.630432
0.681949
0.760595
0.900505
1.23071
3.29222
1.31622
0.966559
0.8333
0.766925
0.728105
0.694011
0.630696
0.439227
0.565117
0
0
0
3.2136
0.466229
0.122954
0.114658
0.123492
0.129097
0.129896
0.130375
0.131467
0.132688
0.133874
0.135095
0.136409
0.137829
0.139372
0.141051
0.142883
0.144882
0.147059
0.149428
0.152002
0.154794
0.157817
0.161081
0.164603
0.168395
0.172466
0.176835
0.181507
0.1865
0.191824
0.19749
0.203509
0.209892
0.216653
0.223806
0.231363
0.239343
0
0.0723858
0.144317
0.586226
0.572859
0.595712
0.625037
0.662201
0.712559
0.787618
0.916052
1.19503
2.46333
1.57781
1.07491
0.90385
0.820822
0.771829
0.730418
0.666728
0.525158
0.777237
0.463599
0
0
3.13471
5.88967
0.163855
0.128592
0.134629
0.141798
0.143568
0.144033
0.145049
0.146289
0.147505
0.148749
0.150086
0.151538
0.153122
0.154856
0.156757
0.158839
0.161115
0.163599
0.166302
0.169238
0.172417
0.175854
0.179562
0.183548
0.18783
0.192414
0.197316
0.202544
0.208108
0.21402
0
0
3.33487
0.348465
0.699567
0.607558
0.625268
0.654055
0.690724
0.739662
0.810812
0.92815
1.16528
1.96424
2.0034
1.20731
0.982818
0.878512
0.817721
0.768999
0.705155
0.598528
0.346187
0.251242
0
0
0.000217551
1.43882
0.206873
0.144166
0.14706
0.155122
0.157855
0.158385
0.159344
0.160621
0.161895
0.163191
0.164586
0.166106
0.16777
0.169596
0.171601
0.173799
0.176204
0.178832
0.181694
0.184798
0.188162
0.191797
1.43497
7.89725e-05
0
0
0.236189
0.976597
0.648787
0.653551
0.680819
0.716753
0.764131
0.831447
0.938591
1.14198
1.70373
2.89615
1.37584
1.07278
0.941004
0.866345
0.809793
0.746505
0.657737
0.579118
0.395003
0
0
0
1.90826
0.269269
0.161044
0.159997
0.169152
0.173072
0.173666
0.174543
0.175884
0.177248
)
;

boundaryField
{
    inlet
    {
        type            calculated;
        value           nonuniform List<scalar> 
11
(
0.0912958
0.0937724
0.092667
0.0916756
0.0908229
0.0900848
0.0894091
0.0887446
0.0879766
0.089738
0.0874278
)
;
    }
    outlet
    {
        type            calculated;
        value           nonuniform List<scalar> 0();
    }
    walls
    {
        type            calculated;
        value           uniform 0;
    }
    frontAndBack
    {
        type            empty;
    }
    procBoundary6to2
    {
        type            processor;
        value           nonuniform List<scalar> 
13
(
0.14307
0.218323
0.277281
0.319239
0.35057
0.37605
0.393658
0.445953
0.181137
0
0
1.64146
0.223523
)
;
    }
    procBoundary6to3
    {
        type            processor;
        value           uniform 0.206576;
    }
    procBoundary6to5
    {
        type            processor;
        value           nonuniform List<scalar> 
86
(
0.0625875
0.175312
0.197627
0.198511
0.20263
0.312539
0.041684
0.025376
0
0
0.205371
0.0295566
0.0246816
0.0263758
0.0278209
0.0279735
0.0279406
0.0282304
0.0287581
0.0293561
0.0299517
0.0305501
0.0311806
0.0318655
0.0326139
0.0334297
0.0343163
0.0352774
0.0363181
0.0374454
0.0386652
0.039984
0.0414091
0.0414091
0.041872
0.0435164
0.04529
0.0472013
0.0492588
0.0514714
0.0538484
0.056399
0.059133
0.0620603
0.0651907
0.0685345
0.0685345
0.071165
0.0749609
0.0790008
0.0832955
0.0878556
0.0926923
0.0978163
0.103238
0.10897
0.10897
0.114236
0.120602
0.127307
0.13436
0.14177
0.149556
0.157751
0.157751
0.165648
0.17478
0.184414
0.194504
0.205072
0.215705
0.2255
0.2255
0.233951
0.243323
0.254383
0.264664
0.281065
0.287114
0.319216
0.297204
0.342748
0.342748
0.269255
0.250387
0.220346
)
;
    }
    procBoundary6to7
    {
        type            processor;
        value           nonuniform List<scalar> 
91
(
0.222784
0.222784
0.255559
0.255559
0.259501
0.259501
0.401695
0.424984
0.401695
0.313649
0.356245
0.424984
0.32867
0.299975
0.320172
0.356245
0.320166
0.279094
0.288113
0.299975
0.300282
0.247763
0.256655
0.266145
0.279094
0.276201
0.220288
0.226924
0.233944
0.241358
0.247763
0.249184
0.195709
0.199914
0.204419
0.209236
0.214373
0.21984
0.220288
0.225642
0.178614
0.180079
0.181687
0.183454
0.185399
0.187538
0.189886
0.192456
0.195261
0.198311
0.20162
0.195709
0.205197
5.97238
1.77825
0
0
0.0874137
0.173613
0.705033
0.678247
0.704118
0.7399
0.786133
0.850039
0.948248
1.12453
1.54776
4.85714
1.60279
1.17718
1.00925
0.917978
0.853075
0.789432
0.713798
0.403524
0.330245
0
0
0
2.77318
0.391409
0.181323
0.173721
0.18422
0.189932
0.190507
0.191048
0.178614
0.192348
)
;
    }
}


// ************************************************************************* //
