/*--------------------------------*- C++ -*----------------------------------*\
| =========                 |                                                 |
| \\      /  F ield         | OpenFOAM: The Open Source CFD Toolbox           |
|  \\    /   O peration     | Version:  2506                                  |
|   \\  /    A nd           | Website:  www.openfoam.com                      |
|    \\/     M anipulation  |                                                 |
\*---------------------------------------------------------------------------*/
FoamFile
{
    version     2.0;
    format      ascii;
    arch        "LSB;label=32;scalar=64";
    class       surfaceScalarField;
    location    "50";
    object      phi;
}
// * * * * * * * * * * * * * * * * * * * * * * * * * * * * * * * * * * * * * //

dimensions      [0 3 -1 0 0 0 0];

oriented        oriented;

internalField   nonuniform List<scalar> 
21254
(
-0.149042
0.169688
-0.020646
0.192366
-0.0226779
0.213372
-0.021006
0.232892
-0.0195201
0.251711
-0.0188187
0.267943
-0.0162322
0.281749
-0.0138073
0.293649
-0.0119007
0.302809
-0.0091605
0.309983
-0.00717407
0.315313
-0.00532953
0.318638
-0.00332412
0.320328
-0.00168934
0.320016
0.000312048
0.316846
0.00316878
0.310515
0.0063308
0.300187
0.0103266
0.284977
0.0152094
0.263213
0.0217625
0.232788
0.0304238
0.190804
0.041984
0.137791
0.0530124
0.0822228
0.0555763
0.0380911
0.0441367
0.0128275
0.0252642
0.00214566
0.010669
-0.00132215
0.00347186
-0.000509124
-0.000806539
0.00153316
-0.00200685
0.00166509
1.27337e-05
-0.00087774
0.00250151
-0.0032489
0.00197766
-0.00483537
0.00206822
-0.0192092
0.0147951
-0.0379306
0.0198159
-0.0469566
0.00772644
-0.0479171
-0.000802037
-0.0354863
-0.00960922
0.0148059
-0.0510386
-0.126156
-0.0228862
-0.102025
-0.024131
-0.0737337
-0.0282919
-0.0436822
-0.030052
-0.0128566
-0.0308279
0.0180433
-0.0308986
0.0485427
-0.0305022
0.0765763
-0.0280337
0.1015
-0.0249241
0.122667
-0.0211676
0.140007
-0.0173404
0.154133
-0.0141266
0.165605
-0.0114728
0.174869
-0.00926427
0.182692
-0.00782393
0.189309
-0.00661834
0.19519
-0.00588177
0.200511
-0.00532329
0.205557
-0.00504754
0.210397
-0.00484343
0.215177
-0.00478112
0.219835
-0.0046617
0.224266
-0.00442817
0.227725
-0.00345329
0.230042
-0.00230946
0.231602
-0.00155298
0.232509
-0.000901537
0.233049
-0.000532553
0.233287
-0.000248837
0.23316
0.000138813
0.23242
0.000746585
0.230982
0.00144825
0.22882
0.0021659
0.225963
0.00286748
0.222275
0.00366447
0.217433
0.00490471
0.210046
0.00750412
0.194968
0.0151332
0.171922
0.023402
-0.136311
0.157211
-0.0415462
0.178796
-0.0442638
0.201666
-0.0438755
0.223274
-0.0411278
0.24455
-0.040095
0.26466
-0.0363424
0.283097
-0.0322449
0.30007
-0.0288754
0.315227
-0.0243173
0.32858
-0.0205273
0.340162
-0.016911
0.350009
-0.0131706
0.358235
-0.00991531
0.365339
-0.0067924
0.371876
-0.00336827
0.377641
0.000564947
0.382428
0.0055381
0.385921
0.0117156
0.386863
0.0208201
0.383651
0.0336354
0.372087
0.0535509
0.345994
0.0791096
0.29947
0.102112
0.236345
0.107277
0.170624
0.0910016
0.116842
0.0644666
0.0826591
0.0376664
0.0638848
0.0179751
0.0514617
0.0104275
0.0414975
0.010021
0.0348941
0.00911928
0.0306221
0.00616578
0.0179092
0.0148634
-0.005101
0.0379156
-0.0209371
0.0360658
-0.0218547
0.00836871
-0.0136355
-0.00936365
-0.00688116
-0.0152794
0.0229994
-0.0811294
-0.115151
-0.0440463
-0.0924444
-0.0468376
-0.0658717
-0.0548647
-0.0378598
-0.058065
-0.00815944
-0.0605285
0.0226538
-0.0617141
0.0521386
-0.0599861
0.0791278
-0.0550237
0.10335
-0.0491467
0.124717
-0.0425352
0.143068
-0.0356922
0.158756
-0.0298156
0.172169
-0.0248859
0.183532
-0.0206283
0.193364
-0.0176572
0.201957
-0.0152133
0.2096
-0.0135267
0.216605
-0.0123309
0.22322
-0.0116651
0.229526
-0.0111527
0.235677
-0.0109355
0.241725
-0.0107137
0.247581
-0.0102833
0.252727
-0.00859483
0.256847
-0.00642265
0.260112
-0.00481219
0.262361
-0.0031427
0.263501
-0.0016665
0.263537
-0.000292119
0.262678
0.00101046
0.261161
0.0022714
0.259172
0.00344931
0.256739
0.0046092
0.253856
0.00576747
0.250409
0.00711154
0.246108
0.00925271
0.240844
0.0129005
0.230647
0.0254596
0.211373
0.0431388
-0.132629
0.154174
-0.0630923
0.176124
-0.0662138
0.199964
-0.0677155
0.221995
-0.0631584
0.243272
-0.0613728
0.26384
-0.056911
0.282462
-0.0508683
0.299472
-0.0458855
0.314454
-0.0392993
0.327542
-0.0336151
0.338733
-0.0281016
0.348123
-0.02256
0.355518
-0.0173097
0.361169
-0.0124437
0.364758
-0.00695819
0.366909
-0.00158633
0.367736
0.00470983
0.368124
0.0113256
0.368726
0.0202169
0.37093
0.0314298
0.376072
0.0484073
0.382432
0.0727477
0.381648
0.102895
0.362903
0.126018
0.322514
0.131383
0.265356
0.121616
0.203517
0.0994969
0.15159
0.0699009
0.115489
0.0465378
0.0909649
0.0345839
0.0739456
0.0261158
0.0605304
0.0194636
0.0415065
0.0340445
0.0172145
0.0623553
0.00230983
0.0513815
0.0029653
0.00707578
0.0137366
-0.0210074
0.0221476
-0.0225198
0.0451809
-0.104453
-0.111078
-0.0655975
-0.087858
-0.0700575
-0.060288
-0.0824358
-0.031874
-0.0864794
-0.00233072
-0.0900732
0.0280818
-0.0921261
0.057464
-0.0893701
0.0844961
-0.0820562
0.108896
-0.0735468
0.130562
-0.0642019
0.149321
-0.0544519
0.165401
-0.045896
0.179195
-0.0386807
0.191021
-0.0324549
0.201223
-0.0278599
0.210186
-0.0241776
0.218181
-0.0215232
0.225486
-0.0196374
0.232302
-0.0184828
0.238784
-0.0176372
0.245116
-0.0172693
0.251284
-0.0168837
0.257157
-0.016155
0.262398
-0.0138313
0.26669
-0.0107068
0.270163
-0.00827899
0.272887
-0.00585859
0.274893
-0.00366577
0.276244
-0.00165278
0.276982
0.000282076
0.277141
0.00211733
0.276667
0.00393409
0.275552
0.00572478
0.273709
0.0076176
0.271018
0.00976235
0.267122
0.0132245
0.26156
0.0185715
0.250822
0.0362024
0.232425
0.0617672
-0.128605
0.150849
-0.085337
0.173369
-0.0887339
0.19825
-0.0925963
0.22106
-0.0859688
0.243372
-0.0836844
0.264959
-0.0784992
0.284904
-0.0708142
0.303144
-0.0641259
0.319791
-0.0559469
0.33461
-0.048433
0.347701
-0.041192
0.359034
-0.0338928
0.368603
-0.0268792
0.376395
-0.0202361
0.382663
-0.0132275
0.387172
-0.00609667
0.389865
0.00201511
0.390397
0.010793
0.388999
0.021614
0.386004
0.034425
0.383157
0.0512556
0.383916
0.0719938
0.38977
0.0970496
0.395712
0.120088
0.392124
0.134985
0.370675
0.143079
0.327583
0.142599
0.268534
0.128958
0.208721
0.106358
0.160701
0.0826266
0.125809
0.061024
0.0981838
0.0470616
0.0704383
0.0618127
0.0438208
0.089014
0.0289551
0.0664421
0.0300681
0.00590912
0.0415946
-0.0326018
0.0520764
-0.0324438
0.0731629
-0.125634
-0.106592
-0.0876109
-0.083176
-0.0934743
-0.0548537
-0.110758
-0.0259709
-0.115364
0.00390213
-0.119946
0.0346162
-0.122843
0.0643259
-0.119079
0.0914469
-0.109178
0.115816
-0.0979162
0.137527
-0.0859139
0.156388
-0.0733125
0.172711
-0.06222
0.186913
-0.0528842
0.199269
-0.0448115
0.210141
-0.0387343
0.219752
-0.0337903
0.22845
-0.0302236
0.236407
-0.0275961
0.243865
-0.0259446
0.250956
-0.0247313
0.257785
-0.0241028
0.264408
-0.0235106
0.270747
-0.0224947
0.276441
-0.0195219
0.281221
-0.0154819
0.28516
-0.0122107
0.288312
-0.00900312
0.290726
-0.00607131
0.292421
-0.00335209
0.293496
-0.000781659
0.293967
0.00165436
0.293851
0.00406388
0.293129
0.00645876
0.29178
0.00898679
0.289626
0.0119169
0.286309
0.0166014
0.281148
0.0238868
0.270407
0.0470943
0.250769
0.0819008
-0.126604
0.149722
-0.108456
0.173143
-0.112155
0.199362
-0.118815
0.222915
-0.109522
0.246119
-0.106889
0.268641
-0.101022
0.289312
-0.0914862
0.308318
-0.0831322
0.325845
-0.0734743
0.341319
-0.0639066
0.355062
-0.0549341
0.366986
-0.0458168
0.377285
-0.0371784
0.385646
-0.0285973
0.392179
-0.0197611
0.396852
-0.0107709
0.399762
-0.000895887
0.40101
0.00954351
0.400475
0.0221473
0.398534
0.0363637
0.395419
0.0543691
0.39241
0.0750006
0.391949
0.097508
0.395636
0.116397
0.401793
0.12882
0.4048
0.140061
0.395802
0.151587
0.36599
0.158761
0.314085
0.158268
0.2523
0.144444
0.195814
0.117487
0.148739
0.0940383
0.108572
0.102108
0.0771522
0.120571
0.0607352
0.0831974
0.0608828
0.00521703
0.0717356
-0.0442249
0.0828306
-0.0424555
0.101551
-0.144627
-0.103609
-0.110606
-0.079498
-0.117585
-0.0499813
-0.140276
-0.020223
-0.145122
0.0104003
-0.150572
0.041843
-0.154286
0.0722104
-0.149448
0.0997128
-0.136681
0.124308
-0.122511
0.146226
-0.107832
0.165224
-0.0923108
0.181735
-0.0787326
0.196226
-0.0673753
0.208918
-0.0575055
0.220173
-0.049991
0.230275
-0.0438934
0.239414
-0.0393643
0.247794
-0.0359784
0.255633
-0.0337855
0.263076
-0.0321762
0.270209
-0.0312386
0.277072
-0.0303756
0.283615
-0.0290367
0.289532
-0.0254361
0.294544
-0.0204871
0.298695
-0.0163547
0.302028
-0.0123263
0.304589
-0.00862501
0.306385
-0.00515441
0.307479
-0.00187127
0.307921
0.00121711
0.30778
0.00421498
0.30705
0.00718793
0.305706
0.0103307
0.303676
0.0138934
0.300653
0.0197148
0.296036
0.0286122
0.286539
0.0565485
0.267203
0.101411
-0.125219
0.149331
-0.132567
0.173921
-0.136744
0.201426
-0.14632
0.226015
-0.134113
0.2501
-0.130974
0.273738
-0.124662
0.295174
-0.112923
0.315157
-0.103115
0.333421
-0.0917389
0.34981
-0.0802949
0.364545
-0.0696692
0.37745
-0.0587216
0.38868
-0.0484088
0.398196
-0.0381147
0.405853
-0.0274193
0.411897
-0.0168165
0.416016
-0.00501633
0.418266
0.00729192
0.418775
0.0216372
0.417537
0.0376024
0.414902
0.0570056
0.411468
0.0784386
0.407811
0.101173
0.40499
0.11923
0.404573
0.129252
0.40743
0.13722
0.411079
0.147953
0.408473
0.161377
0.388465
0.178285
0.343512
0.189415
0.280579
0.180437
0.214948
0.159654
0.158774
0.158292
0.11912
0.160257
0.0988714
0.103607
0.0963634
0.00772634
0.105049
-0.0529066
0.115037
-0.0519778
0.130059
-0.159721
-0.10126
-0.134567
-0.0762987
-0.142547
-0.0454387
-0.171136
-0.0145168
-0.176046
0.0171753
-0.182264
0.0496644
-0.186776
0.0809449
-0.180728
0.10905
-0.164786
0.134023
-0.147485
0.156183
-0.129993
0.175346
-0.111475
0.191958
-0.0953448
0.206596
-0.0820146
0.219539
-0.0704498
0.231098
-0.0615528
0.241551
-0.0543476
0.251075
-0.0488905
0.259904
-0.0448107
0.268172
-0.042057
0.276029
-0.0400369
0.283574
-0.0387873
0.290823
-0.0376281
0.297712
-0.0359279
0.304044
-0.031767
0.309464
-0.0259037
0.313973
-0.0208562
0.317671
-0.0160169
0.320549
-0.0114933
0.322636
-0.00724344
0.323993
-0.00321853
0.324655
0.00056487
0.324653
0.00423106
0.323978
0.00787733
0.322653
0.0116762
0.320481
0.0160676
0.317261
0.0230025
0.312238
0.0337873
0.302767
0.0661773
0.283384
0.121274
-0.124615
0.149992
-0.157945
0.175639
-0.162391
0.204635
-0.175316
0.230399
-0.159876
0.255615
-0.156191
0.280239
-0.149287
0.302669
-0.135353
0.323372
-0.123819
0.342481
-0.110848
0.359611
-0.0974249
0.374993
-0.0850508
0.388719
-0.0724474
0.400664
-0.0603542
0.410868
-0.0483192
0.419349
-0.0359011
0.425946
-0.0234151
0.430767
-0.00983875
0.43374
0.00431825
0.434962
0.0204127
0.434564
0.0379995
0.432911
0.0586566
0.430458
0.0808905
0.427506
0.104123
0.423581
0.123152
0.418958
0.133867
0.415187
0.140981
0.414038
0.149085
0.415688
0.159715
0.415873
0.178098
0.40176
0.203558
0.359386
0.222786
0.291943
0.227003
0.222419
0.227937
0.17167
0.21115
0.14477
0.130864
0.137495
0.0144112
0.142274
-0.0585117
0.149435
-0.0580313
0.159311
-0.169916
-0.0994815
-0.1597
-0.0734383
-0.16859
-0.0411046
-0.203471
-0.00884491
-0.208305
0.0241259
-0.215236
0.0579369
-0.220587
0.090335
-0.213128
0.11927
-0.193721
0.144801
-0.173017
0.167341
-0.152533
0.186727
-0.130861
0.203475
-0.112094
0.218248
-0.0967889
0.231355
-0.0835588
0.243127
-0.0733266
0.253841
-0.0650641
0.263715
-0.058766
0.272895
-0.0539934
0.28154
-0.0507043
0.289757
-0.0482564
0.297636
-0.0466687
0.30519
-0.0451829
0.312394
-0.0431339
0.318987
-0.0383567
0.324742
-0.0316556
0.329581
-0.0256861
0.333536
-0.0199637
0.33666
-0.0146063
0.338935
-0.00952586
0.340452
-0.00473179
0.341206
-0.000185969
0.341276
0.00417072
0.340655
0.00849431
0.339296
0.0130313
0.337106
0.0181932
0.333794
0.0264084
0.328593
0.0390795
0.319154
0.0755359
0.300051
0.140475
-0.124487
0.15117
-0.184628
0.178173
-0.189395
0.208777
-0.205921
0.235696
-0.186796
0.262108
-0.182604
0.287874
-0.175054
0.311212
-0.158692
0.332934
-0.145541
0.352731
-0.130645
0.370609
-0.115304
0.386821
-0.101263
0.401224
-0.0868508
0.413867
-0.0729983
0.424844
-0.0592976
0.43408
-0.0451379
0.441523
-0.03086
0.447193
-0.0155104
0.451043
0.000466971
0.453056
0.018398
0.453377
0.0376784
0.452361
0.0596749
0.450406
0.0828491
0.447928
0.106609
0.444664
0.126428
0.439883
0.138662
0.433622
0.14726
0.427024
0.1557
0.422171
0.164581
0.421522
0.17876
0.422619
0.202482
0.40948
0.235945
0.363758
0.272716
0.295538
0.296163
0.235726
0.270995
0.199837
0.166921
0.185291
0.0289577
0.184098
-0.0573159
0.186591
-0.0600624
0.189725
-0.173136
-0.0981236
-0.186064
-0.0709077
-0.195806
-0.0368782
-0.2375
-0.00308809
-0.242095
0.0313643
-0.249689
0.0666464
-0.25587
0.100377
-0.246858
0.130299
-0.223644
0.156543
-0.199262
0.179596
-0.175587
0.199269
-0.150533
0.216178
-0.129004
0.231071
-0.111683
0.244295
-0.0967846
0.256195
-0.085229
0.267145
-0.0760161
0.277255
-0.0688788
0.286735
-0.0634759
0.295695
-0.0596674
0.304253
-0.056818
0.312451
-0.0548711
0.320351
-0.0530866
0.327883
-0.0506681
0.334841
-0.0453152
0.340958
-0.03777
0.346155
-0.030878
0.350456
-0.0242567
0.353894
-0.0180346
0.356442
-0.0120744
0.358172
-0.00645186
0.359126
-0.00112887
0.359323
0.00398971
0.358776
0.00905749
0.357447
0.0143809
0.355179
0.0204647
0.351738
0.0299207
0.346316
0.0446441
0.336714
0.0852908
0.317908
0.159698
-0.124899
0.152947
-0.212676
0.18136
-0.217809
0.213627
-0.238188
0.241877
-0.215047
0.26966
-0.210388
0.296692
-0.202086
0.321136
-0.183137
0.343671
-0.168077
0.364418
-0.151393
0.383
-0.133886
0.399795
-0.118058
0.414858
-0.101915
0.428196
-0.0863366
0.439827
-0.0709291
0.449735
-0.0550473
0.457932
-0.0390583
0.464305
-0.0218842
0.468821
-0.00405057
0.471536
0.015682
0.47255
0.0366637
0.472168
0.0600562
0.470746
0.0842713
0.468648
0.108706
0.465879
0.129195
0.461863
0.142673
0.456059
0.153055
0.448341
0.163403
0.439474
0.173429
0.431949
0.186277
0.429746
0.204708
0.43047
0.235192
0.414103
0.288983
0.3668
0.343585
0.308408
0.329564
0.26445
0.21129
0.240479
0.0522538
0.231072
-0.0488288
0.227042
-0.0547536
0.221527
-0.168007
-0.0970963
-0.213867
-0.06854
-0.224364
-0.0327213
-0.273319
0.00268615
-0.277506
0.0388098
-0.285812
0.0757448
-0.292806
0.111003
-0.282118
0.142101
-0.254742
0.169195
-0.226358
0.192868
-0.19926
0.212934
-0.170599
0.230066
-0.146137
0.245092
-0.126711
0.258416
-0.11011
0.270439
-0.0972537
0.281507
-0.0870861
0.291841
-0.0792148
0.301549
-0.0731865
0.310776
-0.0688963
0.319631
-0.0656757
0.328169
-0.0634114
0.336357
-0.0612767
0.344198
-0.0585098
0.351494
-0.0526115
0.357983
-0.0442557
0.36351
-0.0363992
0.36814
-0.0288776
0.371846
-0.0217317
0.374664
-0.014898
0.376613
-0.00839915
0.377718
-0.00222858
0.378037
0.00367769
0.377542
0.00954778
0.376231
0.0156807
0.373943
0.0226815
0.370424
0.0335349
0.364824
0.0503228
0.355212
0.0947899
0.33691
0.178031
-0.125603
0.155218
-0.242292
0.185149
-0.247741
0.21925
-0.272291
0.248928
-0.244724
0.277979
-0.23944
0.306393
-0.230501
0.331929
-0.208673
0.355494
-0.191642
0.377119
-0.173019
0.396458
-0.153225
0.413972
-0.135572
0.429754
-0.117697
0.443668
-0.100252
0.455888
-0.0831495
0.466514
-0.0656749
0.475313
-0.0478591
0.482367
-0.0289398
0.487574
-0.00925872
0.491042
0.0122126
0.492804
0.0349019
0.492978
0.0598836
0.492059
0.0851937
0.490274
0.110499
0.48773
0.131748
0.484082
0.146335
0.478893
0.15826
0.471884
0.170429
0.462885
0.182444
0.45239
0.196788
0.443126
0.213993
0.440752
0.237588
0.440867
0.28886
0.422543
0.361914
0.380707
0.371445
0.335636
0.256576
0.302471
0.0854051
0.28302
-0.0293946
0.270635
-0.0418163
0.254405
-0.151905
-0.096401
-0.243071
-0.0663861
-0.254379
-0.0286133
-0.311095
0.00864446
-0.314763
0.0465175
-0.323691
0.0853221
-0.33161
0.12221
-0.319007
0.154624
-0.287157
0.182732
-0.254467
0.207161
-0.223689
0.227702
-0.19114
0.245114
-0.16355
0.260316
-0.141915
0.273729
-0.123525
0.285838
-0.109365
0.29703
-0.0982804
0.307483
-0.0896694
0.317377
-0.083083
0.326853
-0.0783762
0.335966
-0.0747919
0.344744
-0.0721927
0.353254
-0.0697899
0.361418
-0.0666769
0.369048
-0.0602426
0.375884
-0.0510909
0.38179
-0.0423016
0.38674
-0.0338217
0.390779
-0.0257615
0.393866
-0.0179849
0.396053
-0.0105754
0.397371
-0.00353388
0.397817
0.00325027
0.397427
0.00995601
0.396155
0.0169741
0.393828
0.0250129
0.390205
0.0372331
0.384468
0.0561914
0.37484
0.104561
0.357074
0.196147
-0.126722
0.157911
-0.273484
0.189415
-0.279247
0.225416
-0.308291
0.2567
-0.27601
0.287302
-0.270043
0.317136
-0.260335
0.343779
-0.235317
0.368468
-0.216335
0.391035
-0.195584
0.411207
-0.173397
0.429408
-0.153774
0.445732
-0.134023
0.460311
-0.114833
0.47323
-0.0960694
0.484351
-0.0767961
0.493811
-0.05732
0.501494
-0.0366242
0.507407
-0.0151722
0.511484
0.00813514
0.513862
0.0325238
0.514677
0.0590693
0.5142
0.0856717
0.512762
0.111938
0.510448
0.134062
0.507
0.149781
0.502144
0.163109
0.495669
0.176893
0.487425
0.190668
0.4774
0.206803
0.465501
0.225901
0.455906
0.247151
0.456021
0.288619
0.457186
0.360869
0.439892
0.388959
0.404802
0.29218
0.367266
0.122093
0.338017
-0.00141017
0.316447
-0.0185068
0.287503
-0.123534
-0.0958837
-0.27391
-0.0643451
-0.285921
-0.0244979
-0.350944
0.0147107
-0.353976
0.054559
-0.363537
0.0952988
-0.372355
0.13401
-0.357716
0.167893
-0.321041
0.197143
-0.283717
0.222424
-0.24897
0.24355
-0.212265
0.261305
-0.181307
0.276726
-0.157337
0.290267
-0.137068
0.30246
-0.121559
0.313714
-0.109537
0.324278
-0.100235
0.33432
-0.0931273
0.343955
-0.0880134
0.353285
-0.0841247
0.362354
-0.0812632
0.371138
-0.0785764
0.379581
-0.075121
0.387555
-0.0682173
0.394744
-0.058279
0.401
-0.0485533
0.40631
-0.0391267
0.410656
-0.030099
0.414045
-0.0213805
0.416475
-0.0130038
0.417972
-0.00502666
0.418592
0.00264045
0.418289
0.010252
0.417063
0.0181835
0.414709
0.0272902
0.411035
0.0410014
0.405156
0.0621405
0.395562
0.114016
0.378471
0.213236
-0.128061
0.161013
-0.306439
0.19425
-0.312485
0.232257
-0.346301
0.265134
-0.308888
0.297306
-0.302215
0.328666
-0.291697
0.356721
-0.263375
0.382503
-0.242114
0.406064
-0.219151
0.427056
-0.194388
0.446047
-0.172766
0.463117
-0.151095
0.478226
-0.129943
0.491672
-0.109517
0.503445
-0.08857
0.513492
-0.0673689
0.52175
-0.0448829
0.528228
-0.0216516
0.532924
0.00343825
0.535928
0.02952
0.53733
0.057668
0.537372
0.0856339
0.536297
0.113018
0.534226
0.136143
0.530955
0.153062
0.526256
0.167824
0.519987
0.18318
0.512176
0.198495
0.502987
0.216009
0.49184
0.23707
0.479015
0.259996
0.472614
0.295014
0.477438
0.356048
0.47799
0.388468
0.459317
0.311158
0.425645
0.155702
0.390895
0.033161
0.361708
0.0116373
0.319217
-0.0813116
-0.0955764
-0.306397
-0.0623321
-0.319167
-0.0203288
-0.39295
0.0209799
-0.395284
0.0629074
-0.405468
0.105751
-0.415195
0.146445
-0.398415
0.181907
-0.356502
0.21242
-0.314231
0.238686
-0.275236
0.26048
-0.23406
0.278668
-0.199495
0.294346
-0.173016
0.308027
-0.15075
0.320301
-0.133834
0.331635
-0.120874
0.342257
-0.11086
0.352404
-0.103277
0.3622
-0.0978116
0.371706
-0.0936342
0.380983
-0.0905425
0.390009
-0.0876061
0.398771
-0.0838862
0.407067
-0.0765154
0.414609
-0.0658213
0.421225
-0.0551672
0.426873
-0.0447704
0.431562
-0.0347826
0.435226
-0.0250417
0.437929
-0.0156983
0.439652
-0.00673358
0.440424
0.00188821
0.440255
0.0104433
0.439066
0.0193937
0.436717
0.0296458
0.432978
0.0448169
0.426984
0.0682555
0.417504
0.123626
0.401149
0.229878
-0.129748
0.164436
-0.341129
0.199506
-0.347558
0.239642
-0.386435
0.274323
-0.343571
0.308203
-0.336097
0.341165
-0.324659
0.37059
-0.292801
0.397631
-0.269159
0.422213
-0.243728
0.444118
-0.216296
0.463871
-0.19252
0.481598
-0.168823
0.497413
-0.145759
0.511467
-0.123571
0.52377
-0.100874
0.534331
-0.0779302
0.543172
-0.0537239
0.550261
-0.0287404
0.555543
-0.00184322
0.559052
0.0260115
0.560988
0.0557337
0.561466
0.0851584
0.560743
0.113744
0.558978
0.137911
0.556002
0.156039
0.551485
0.172339
0.54538
0.189277
0.537687
0.206175
0.52878
0.224902
0.518702
0.247151
0.506333
0.272326
0.495645
0.305585
0.495437
0.356355
0.500065
0.384111
0.49215
0.319682
0.465896
0.18088
0.432235
0.0649613
0.400761
0.0459157
0.347328
-0.0288281
-0.0953931
-0.340754
-0.0604484
-0.354113
-0.0160904
-0.437308
0.0274377
-0.438815
0.0716206
-0.449649
0.116755
-0.460333
0.159493
-0.44115
0.196702
-0.393716
0.228592
-0.34612
0.255943
-0.302587
0.278512
-0.256628
0.297206
-0.21819
0.313203
-0.189014
0.327083
-0.164631
0.339443
-0.146195
0.350833
-0.132265
0.361518
-0.121546
0.371743
-0.113504
0.381635
-0.107706
0.391294
-0.103296
0.40075
-0.1
0.410018
-0.0968768
0.419044
-0.0929135
0.427668
-0.0851413
0.435546
-0.0736999
0.442515
-0.062135
0.448514
-0.0507668
0.45351
-0.0397744
0.457496
-0.0290331
0.46047
-0.0186728
0.46243
-0.00868808
0.463396
0.000929573
0.463346
0.0104877
0.462237
0.0204783
0.45988
0.0319231
0.456127
0.048661
0.450054
0.0743914
0.44067
0.132855
0.425163
0.245355
-0.131616
0.168235
-0.377749
0.205247
-0.38457
0.247649
-0.428839
0.284191
-0.380112
0.319828
-0.371734
0.354508
-0.359341
0.385427
-0.323723
0.413746
-0.297477
0.439492
-0.269476
0.462341
-0.239144
0.482982
-0.213163
0.50142
-0.187262
0.51787
-0.16221
0.53252
-0.138222
0.545301
-0.113656
0.556452
-0.089082
0.565833
-0.0631059
0.573442
-0.0363496
0.579293
-0.00769524
0.583383
0.0219218
0.585803
0.0533157
0.586746
0.0842173
0.586395
0.1141
0.584904
0.139409
0.582156
0.158798
0.577849
0.176659
0.571948
0.195193
0.564408
0.21373
0.555516
0.233812
0.545782
0.256905
0.534628
0.283499
0.523283
0.316927
0.518256
0.361383
0.518977
0.383459
0.511917
0.327103
0.488007
0.204699
0.45537
0.0972963
0.424895
0.0778453
0.369159
0.0264084
-0.0954479
-0.376923
-0.0585112
-0.39105
-0.0117437
-0.484077
0.0341618
-0.484719
0.080708
-0.496198
0.128226
-0.507849
0.173248
-0.486176
0.212312
-0.432778
0.245718
-0.379527
0.274261
-0.331129
0.297684
-0.280051
0.31694
-0.237446
0.333326
-0.2054
0.347416
-0.178722
0.359901
-0.158681
0.371372
-0.143739
0.38211
-0.132285
0.392361
-0.123757
0.40233
-0.117678
0.412114
-0.113082
0.421728
-0.109617
0.431194
-0.106345
0.440484
-0.102207
0.449406
-0.0940649
0.457613
-0.0819092
0.464927
-0.0694479
0.471273
-0.0571114
0.476619
-0.0451164
0.480921
-0.033333
0.484177
-0.0219201
0.486376
-0.0108715
0.487526
-0.000198553
0.487628
0.0104102
0.486602
0.0215275
0.484271
0.0342608
0.480496
0.0525134
0.474381
0.0806151
0.465201
0.142147
0.450578
0.260207
-0.133719
0.172414
-0.416446
0.211444
-0.423602
0.256229
-0.473622
0.294712
-0.418597
0.332252
-0.409276
0.368826
-0.395916
0.401253
-0.356148
0.430963
-0.32719
0.458001
-0.296512
0.481897
-0.263039
0.503376
-0.234646
0.522603
-0.206489
0.539641
-0.17925
0.554894
-0.153476
0.568333
-0.127095
0.579979
-0.100728
0.589883
-0.0730091
0.597987
-0.0444521
0.604261
-0.0139685
0.608837
0.0173481
0.611761
0.0503942
0.613084
0.0828974
0.613095
0.114094
0.611899
0.140609
0.609426
0.161275
0.605409
0.180678
0.599691
0.200911
0.592346
0.221066
0.583552
0.242601
0.573778
0.266676
0.563238
0.294008
0.552621
0.327441
0.545706
0.36838
0.542135
0.387347
0.531937
0.337915
0.506998
0.228508
0.473525
0.128781
0.442402
0.112086
0.389257
0.0782925
-0.0955518
-0.41509
-0.0566936
-0.429909
-0.00728233
-0.533488
0.0411318
-0.533135
0.0901912
-0.545255
0.140301
-0.557961
0.18768
-0.533554
0.228757
-0.473857
0.263763
-0.414532
0.293622
-0.360989
0.317989
-0.304417
0.337921
-0.257378
0.35474
-0.222219
0.369111
-0.193095
0.381743
-0.171313
0.393285
-0.155282
0.404055
-0.143057
0.414359
-0.134063
0.424379
-0.1277
0.434236
-0.122941
0.443984
-0.119367
0.453647
-0.11601
0.463176
-0.111739
0.472375
-0.103266
0.480922
-0.090458
0.488569
-0.0770964
0.495258
-0.0638003
0.500927
-0.0507853
0.50555
-0.0379604
0.509084
-0.0254565
0.511546
-0.0133299
0.512924
-0.0015711
0.513164
0.010163
0.512253
0.0224069
0.509968
0.0364659
0.506197
0.0563707
0.500077
0.0867939
0.491084
0.150971
0.47745
0.273805
-0.136098
0.176944
-0.457292
0.218098
-0.464755
0.265381
-0.520907
0.305916
-0.459131
0.345528
-0.448888
0.384028
-0.434418
0.418119
-0.390241
0.449345
-0.358414
0.477641
-0.324809
0.502591
-0.287991
0.525022
-0.257074
0.545072
-0.226542
0.562899
-0.197076
0.578723
-0.169301
0.592684
-0.141055
0.604844
-0.112887
0.615229
-0.0833942
0.623815
-0.0530383
0.63065
-0.020803
0.635661
0.0123375
0.638975
0.047082
0.640736
0.0811387
0.641061
0.113772
0.640155
0.141522
0.637923
0.163514
0.634154
0.184458
0.628697
0.20638
0.621571
0.228207
0.612924
0.251264
0.603125
0.276495
0.59267
0.304479
0.582571
0.337541
0.575258
0.375691
0.56943
0.39325
0.556725
0.350973
0.53062
0.254534
0.495997
0.163164
0.462726
0.146665
0.412313
0.128152
-0.0957843
-0.455405
-0.0547864
-0.470907
-0.00264977
-0.585625
0.048411
-0.584193
0.100143
-0.596989
0.152978
-0.610794
0.202898
-0.583476
0.246107
-0.517064
0.282858
-0.451283
0.314098
-0.392228
0.33952
-0.329839
0.360169
-0.278027
0.377501
-0.239552
0.392179
-0.207773
0.405009
-0.184143
0.416639
-0.166914
0.427461
-0.15388
0.437786
-0.14439
0.447845
-0.137761
0.457773
-0.132872
0.467617
-0.129212
0.477426
-0.125823
0.487178
-0.121493
0.496683
-0.112774
0.505522
-0.0992989
0.513489
-0.0850647
0.520511
-0.0708218
0.526513
-0.0567864
0.531459
-0.0429033
0.535306
-0.0292951
0.53803
-0.0160397
0.539609
-0.00312825
0.540047
0.00975172
0.539242
0.0232367
0.537026
0.0386889
0.533284
0.0601879
0.527182
0.0929933
0.518463
0.159782
0.505888
0.286559
-0.138654
0.181728
-0.500366
0.225189
-0.508217
0.275124
-0.570841
0.317872
-0.501881
0.359614
-0.490631
0.400131
-0.474935
0.436033
-0.426142
0.468825
-0.391209
0.498474
-0.354456
0.52461
-0.314126
0.548108
-0.280574
0.568975
-0.247407
0.587524
-0.215628
0.604012
-0.185789
0.618513
-0.155556
0.63121
-0.125582
0.642073
-0.0942559
0.65115
-0.0621131
0.65838
-0.0280308
0.663856
0.0068635
0.667562
0.0433798
0.669651
0.0790533
0.670324
0.113105
0.669688
0.142164
0.667748
0.16546
0.66421
0.188001
0.658984
0.211612
0.652078
0.235112
0.643613
0.259731
0.63392
0.286189
0.623414
0.31497
0.613307
0.347575
0.60568
0.383402
0.598719
0.400528
0.58472
0.365576
0.557934
0.280216
0.522245
0.196976
0.486416
0.185418
0.438023
0.175322
-0.096115
-0.497942
-0.0528932
-0.514129
0.00212502
-0.640642
0.0560254
-0.638095
0.110569
-0.65153
0.166256
-0.666483
0.218911
-0.636128
0.264371
-0.562525
0.302999
-0.48991
0.335741
-0.424969
0.362273
-0.35637
0.383733
-0.299486
0.401632
-0.25745
0.416691
-0.222833
0.429723
-0.197176
0.4415
-0.178691
0.452372
-0.164754
0.462735
-0.154754
0.472816
-0.147844
0.482781
-0.14284
0.492725
-0.139158
0.502664
-0.135765
0.512614
-0.131446
0.522353
-0.122515
0.531484
-0.108434
0.53978
-0.0933628
0.547124
-0.0781681
0.553467
-0.0631317
0.558722
-0.0481636
0.562873
-0.0334475
0.565869
-0.0190372
0.567704
-0.00495949
0.568314
0.00913048
0.567635
0.0238823
0.565515
0.0407233
0.561821
0.0639601
0.555814
0.0990541
0.547377
0.168051
0.535875
0.298021
-0.141468
0.186936
-0.545834
0.232819
-0.554099
0.285453
-0.623477
0.330618
-0.547044
0.374536
-0.534549
0.417272
-0.517673
0.455002
-0.463873
0.489475
-0.425679
0.520617
-0.385598
0.548014
-0.341523
0.572479
-0.305038
0.594323
-0.269251
0.613595
-0.2349
0.630755
-0.202948
0.645926
-0.170726
0.65911
-0.138765
0.670481
-0.105626
0.679991
-0.0716233
0.687691
-0.0357305
0.693531
0.00102455
0.697599
0.0393138
0.700067
0.0765874
0.700987
0.112189
0.700615
0.14254
0.698899
0.167183
0.695606
0.191303
0.690631
0.216598
0.68395
0.241805
0.675713
0.267983
0.666143
0.295777
0.655646
0.325481
0.645307
0.357917
0.636997
0.39171
0.628974
0.408621
0.614045
0.380839
0.586981
0.307205
0.550378
0.233417
0.512079
0.224844
0.465175
0.22172
-0.0965845
-0.542826
-0.0509792
-0.559733
0.00712448
-0.698745
0.0639624
-0.69493
0.121513
-0.709082
0.180254
-0.72522
0.235714
-0.691589
0.283625
-0.610434
0.324225
-0.530508
0.358607
-0.459351
0.386354
-0.384115
0.408692
-0.321825
0.427224
-0.275981
0.442692
-0.238301
0.456
-0.210484
0.467904
-0.190597
0.478872
-0.175722
0.489255
-0.165138
0.49936
-0.157951
0.509354
-0.152836
0.519357
-0.149163
0.529414
-0.145824
0.53955
-0.141585
0.549533
-0.132501
0.558944
-0.117847
0.567524
-0.101945
0.575176
-0.08582
0.581825
-0.0697804
0.587414
-0.0537498
0.591857
-0.0378846
0.595148
-0.0223147
0.597211
-0.00700136
0.59804
0.00832825
0.597536
0.0244115
0.595497
0.0427699
0.591924
0.067604
0.586011
0.10505
0.577961
0.176173
0.567575
0.308543
-0.144483
0.192474
-0.593826
0.240837
-0.602462
0.296492
-0.679129
0.343989
-0.594542
0.390376
-0.580937
0.435365
-0.562662
0.47515
-0.503657
0.511336
-0.461868
0.544024
-0.418283
0.572723
-0.370219
0.598408
-0.330723
0.621152
-0.291995
0.641309
-0.255057
0.659185
-0.220825
0.674934
-0.186473
0.688671
-0.152501
0.700503
-0.117455
0.710434
-0.0815525
0.718499
-0.043793
0.724726
-0.00519947
0.729175
0.034868
0.731884
0.0738834
0.733084
0.110993
0.732979
0.142652
0.731497
0.168673
0.728476
0.194333
0.723734
0.221347
0.717262
0.248285
0.709186
0.276065
0.699775
0.305203
0.689331
0.335923
0.678752
0.368473
0.669577
0.400959
0.660239
0.418268
0.644388
0.397279
0.616959
0.333611
0.579371
0.269318
0.538877
0.268033
0.49338
0.266091
-0.0971251
-0.590182
-0.0490124
-0.607845
0.0123186
-0.760075
0.0722586
-0.754871
0.132977
-0.769797
0.194943
-0.787187
0.253446
-0.750089
0.303894
-0.660882
0.346616
-0.573229
0.38271
-0.495444
0.41177
-0.413173
0.435075
-0.345128
0.4543
-0.295206
0.470251
-0.254252
0.483855
-0.224088
0.495951
-0.202693
0.507002
-0.186774
0.517432
-0.17557
0.527553
-0.168073
0.537597
-0.162882
0.547628
-0.159196
0.55779
-0.155988
0.568075
-0.151872
0.578289
-0.142718
0.58796
-0.12752
0.596806
-0.110794
0.604776
-0.093792
0.611734
-0.0767429
0.617612
-0.0596309
0.62239
-0.042668
0.625955
-0.0258808
0.628284
-0.00933396
0.629305
0.00729683
0.628971
0.0247057
0.627097
0.0445601
0.623626
0.071145
0.617904
0.110823
0.61023
0.18368
0.601006
0.317733
-0.147743
0.198362
-0.644443
0.249393
-0.653491
0.308096
-0.737832
0.358275
-0.64472
0.407104
-0.629765
0.454577
-0.610137
0.496373
-0.545454
0.534468
-0.49996
0.568818
-0.452634
0.598955
-0.400356
0.62579
-0.357556
0.649633
-0.315837
0.670638
-0.276062
0.689257
-0.239442
0.705615
-0.20283
0.719942
-0.166826
0.73223
-0.129744
0.742581
-0.091903
0.751069
-0.0522799
0.757617
-0.0117456
0.762343
0.0301442
0.765344