/*--------------------------------*- C++ -*----------------------------------*\
| =========                 |                                                 |
| \\      /  F ield         | OpenFOAM: The Open Source CFD Toolbox           |
|  \\    /   O peration     | Version:  2506                                  |
|   \\  /    A nd           | Website:  www.openfoam.com                      |
|    \\/     M anipulation  |                                                 |
\*---------------------------------------------------------------------------*/
FoamFile
{
    version     2.0;
    format      ascii;
    arch        "LSB;label=32;scalar=64";
    class       volScalarField;
    location    "50";
    object      static(p)_coeff;
}
// * * * * * * * * * * * * * * * * * * * * * * * * * * * * * * * * * * * * * //

dimensions      [0 0 0 0 0 0 0];

internalField   nonuniform List<scalar> 
10720
(
0.502888
0.35832
0.182553
-0.00361624
-0.190719
-0.388247
-0.575228
-0.744739
-0.900384
-1.03335
-1.14552
-1.23815
-1.3113
-1.36544
-1.4021
-1.42087
-1.42313
-1.4048
-1.36708
-1.30745
-1.233
-1.15805
-1.10894
-1.08245
-1.04812
-0.991776
-0.918051
-0.831765
-0.740249
-0.65727
-0.583096
-0.5123
-0.460641
-0.449916
-0.448233
-0.382624
-0.246089
-0.101535
-0.00257306
0.635532
0.751513
0.860752
0.946441
0.994275
1.00743
0.992231
0.941265
0.863402
0.77346
0.682556
0.597835
0.521274
0.453926
0.395979
0.343891
0.296802
0.252633
0.210157
0.167237
0.123659
0.0783969
0.0321098
-0.0133706
-0.0512779
-0.0784824
-0.0993885
-0.11526
-0.125985
-0.131786
-0.132583
-0.128453
-0.119119
-0.104206
-0.083706
-0.0560728
-0.0189506
0.0402001
0.139976
0.593333
0.484783
0.357193
0.214704
0.0617729
-0.100623
-0.264772
-0.425043
-0.578526
-0.720242
-0.84801
-0.960292
-1.05593
-1.1347
-1.19614
-1.2389
-1.26226
-1.26527
-1.24911
-1.21341
-1.16423
-1.11439
-1.08534
-1.07273
-1.04505
-0.989481
-0.916383
-0.830742
-0.739575
-0.65687
-0.58298
-0.51211
-0.459892
-0.448913
-0.447863
-0.382971
-0.246702
-0.101874
-0.0042102
0.68683
0.771594
0.849979
0.915079
0.956193
0.97131
0.959195
0.919394
0.858998
0.786395
0.708866
0.632054
0.559084
0.491855
0.431172
0.375759
0.324887
0.277272
0.231756
0.186727
0.141652
0.0957985
0.049667
0.00505875
-0.0327472
-0.0608897
-0.0826379
-0.0999901
-0.113079
-0.12132
-0.124111
-0.121538
-0.113467
-0.0996245
-0.0800116
-0.0530795
-0.0165443
0.0423854
0.137807
0.586042
0.489758
0.376005
0.24604
0.105361
-0.0450262
-0.200862
-0.356098
-0.50652
-0.648494
-0.778175
-0.893552
-0.993134
-1.07572
-1.13969
-1.18479
-1.21149
-1.21926
-1.20856
-1.18008
-1.1384
-1.09326
-1.06127
-1.04516
-1.02176
-0.974248
-0.907365
-0.825699
-0.737099
-0.655536
-0.582259
-0.511542
-0.458786
-0.447662
-0.447608
-0.383663
-0.247726
-0.102599
-0.00481846
0.668791
0.743731
0.812243
0.86872
0.905404
0.921417
0.914786
0.884947
0.836285
0.774176
0.704583
0.632932
0.562917
0.496863
0.436025
0.380196
0.328712
0.280601
0.234781
0.189923
0.145291
0.100316
0.0553322
0.0118835
-0.0258893
-0.0551547
-0.077871
-0.0957308
-0.108862
-0.116879
-0.119498
-0.116993
-0.10929
-0.0960402
-0.0770869
-0.0507742
-0.01475
0.0435869
0.134665
0.575704
0.494337
0.39765
0.287412
0.16751
0.0375351
-0.0986969
-0.236934
-0.373899
-0.506144
-0.630356
-0.744171
-0.845555
-0.932858
-1.00445
-1.05956
-1.09828
-1.11951
-1.12313
-1.10994
-1.08358
-1.0516
-1.02561
-1.00913
-0.987514
-0.947186
-0.888645
-0.814263
-0.730988
-0.652262
-0.580224
-0.510078
-0.457562
-0.44697
-0.447845
-0.384612
-0.249017
-0.103663
-0.00561684
0.645669
0.708958
0.767651
0.816979
0.8505
0.867289
0.865082
0.843256
0.804872
0.753799
0.694675
0.631953
0.568815
0.507499
0.449428
0.394944
0.343776
0.295379
0.248994
0.203665
0.158732
0.113778
0.0690596
0.0259377
-0.0122007
-0.0426412
-0.0664916
-0.0853337
-0.0994636
-0.108629
-0.112507
-0.111224
-0.10465
-0.0924171
-0.0743299
-0.0487128
-0.0132558
0.0442772
0.131232
0.551183
0.479305
0.393554
0.295478
0.188732
0.071971
-0.0516615
-0.178558
-0.306291
-0.431689
-0.551671
-0.663807
-0.76577
-0.855561
-0.931368
-0.991974
-1.03613
-1.06334
-1.07311
-1.06656
-1.04686
-1.02045
-0.99668
-0.979075
-0.957
-0.919072
-0.865275
-0.797528
-0.720665
-0.646163
-0.576443
-0.50765
-0.456231
-0.446869
-0.448508
-0.385727
-0.250526
-0.105265
-0.00694713
0.613088
0.668838
0.720946
0.765228
0.79641
0.813758
0.815009
0.79953
0.769428
0.727462
0.677176
0.62219
0.565177
0.508247
0.452941
0.399984
0.349505
0.301313
0.254944
0.209731
0.165103
0.120719
0.0767734
0.0344365
-0.00354173
-0.034658
-0.0593504
-0.0789299
-0.0936958
-0.103411
-0.107736
-0.106834
-0.100667
-0.0889289
-0.0713907
-0.04633
-0.0114585
0.045072
0.127715
0.5238
0.460046
0.383822
0.296758
0.202254
0.0983657
-0.0121079
-0.126259
-0.24236
-0.357669
-0.469606
-0.575979
-0.674484
-0.763028
-0.83976
-0.9031
-0.951741
-0.985295
-1.00342
-1.0068
-0.99781
-0.98127
-0.964002
-0.948925
-0.928241
-0.892567
-0.841934
-0.779047
-0.707855
-0.63768
-0.570898
-0.504375
-0.45479
-0.446946
-0.449105
-0.386662
-0.252053
-0.107262
-0.00850275
0.578857
0.628389
0.675188
0.715522
0.744855
0.76254
0.766385
0.755787
0.732293
0.697943
0.655528
0.607983
0.557484
0.505851
0.454559
0.40445
0.355886
0.308921
0.263331
0.218693
0.174592
0.130794
0.0874997
0.0457591
0.00788131
-0.0238507
-0.0493733
-0.0696991
-0.0851387
-0.0955276
-0.100588
-0.100494
-0.0952289
-0.0844567
-0.0678596
-0.0436469
-0.00959376
0.0457171
0.123979
0.494552
0.437141
0.368415
0.28997
0.205118
0.111533
0.0116638
-0.0919871
-0.198279
-0.304845
-0.409541
-0.510475
-0.605445
-0.692415
-0.769514
-0.835007
-0.887488
-0.92591
-0.949733
-0.959337
-0.956796
-0.946121
-0.932651
-0.919013
-0.89968
-0.866804
-0.819715
-0.761064
-0.69461
-0.628209
-0.564352
-0.500663
-0.453305
-0.446718
-0.448987
-0.386913
-0.253295
-0.109462
-0.0100113
0.544262
0.588946
0.631566
0.668743
0.696535
0.714359
0.720154
0.713336
0.695089
0.666992
0.631252
0.590274
0.545785
0.499291
0.452122
0.405116
0.358763
0.313316
0.268756
0.224883
0.181461
0.13838
0.0958663
0.0548548
0.0172852
-0.0147921
-0.0409644
-0.0619542
-0.0780523
-0.0891354
-0.0949366
-0.0955814
-0.0910521
-0.081009
-0.0650922
-0.0414939
-0.0080956
0.0459833
0.120012
0.465432
0.413288
0.350863
0.279731
0.203116
0.118476
0.0280461
-0.065989
-0.1629
-0.260704
-0.357595
-0.452027
-0.542047
-0.625754
-0.701324
-0.767021
-0.821253
-0.862944
-0.891605
-0.907374
-0.911719
-0.90759
-0.898861
-0.887689
-0.870392
-0.840784
-0.797768
-0.743565
-0.68161
-0.618693
-0.557561
-0.496851
-0.451711
-0.445556
-0.447348
-0.385905
-0.253968
-0.111569
-0.0111929
0.510699
0.551405
0.590567
0.625136
0.65157
0.669379
0.67662
0.672727
0.658654
0.63566
0.605555
0.57033
0.531354
0.489858
0.446972
0.403451
0.359822
0.316448
0.273453
0.230803
0.188418
0.146302
0.104714
0.0645033
0.0273402
-0.00492899
-0.0316593
-0.053286
-0.0700434
-0.0818203
-0.0883498
-0.0897264
-0.0859501
-0.076684
-0.0615262
-0.0386615
-0.006079
0.0464885
0.116302
0.43707
0.38933
0.332175
0.267171
0.197479
0.120433
0.0380696
-0.0476453
-0.136291
-0.226162
-0.315783
-0.403933
-0.488894
-0.568972
-0.642475
-0.707683
-0.762998
-0.807185
-0.839556
-0.859924
-0.869324
-0.870066
-0.865109
-0.856235
-0.840991
-0.81453
-0.775563
-0.725907
-0.668498
-0.609148
-0.550796
-0.492875
-0.449584
-0.442687
-0.443186
-0.382894
-0.253706
-0.113392
-0.0117756
0.478636
0.516032
0.552296
0.584634
0.609861
0.62752
0.635834
0.634222
0.623479
0.604655
0.579265
0.548989
0.514932
0.478071
0.439347
0.399381
0.358684
0.317655
0.276502
0.235323
0.194172
0.153157
0.112573
0.0732106
0.0365351
0.00421434
-0.022958
-0.0451563
-0.062536
-0.0749806
-0.0822235
-0.0843162
-0.081261
-0.072722
-0.0582679
-0.0360973
-0.00433189
0.0466406
0.112509
0.409914
0.365936
0.313295
0.253542
0.18978
0.119313
0.0440081
-0.0343625
-0.115581
-0.198171
-0.280902
-0.362822
-0.442459
-0.518375
-0.589029
-0.652786
-0.708094
-0.753633
-0.788663
-0.81285
-0.826757
-0.83204
-0.830842
-0.824563
-0.811593
-0.788214
-0.753125
-0.707831
-0.654862
-0.599095
-0.54373
-0.488521
-0.446422
-0.437516
-0.435653
-0.376999
-0.252048
-0.114538
-0.0114804
0.448318
0.482899
0.516662
0.547105
0.571205
0.588615
0.59771
0.597873
0.589798
0.574394
0.552943
0.526902
0.497173
0.464542
0.42977
0.39335
0.355723
0.317274
0.278248
0.23883
0.199169
0.159451
0.120013
0.0815988
0.0455293
0.0133226
-0.0141351
-0.0368022
-0.0547312
-0.067793
-0.0757109
-0.0784951
-0.0761475
-0.0683405
-0.0546164
-0.033209
-0.00237752
0.0467695
0.10878
0.384136
0.343397
0.294672
0.239457
0.180799
0.116034
0.0468997
-0.0249944
-0.0995858
-0.175606
-0.252037
-0.328088
-0.402522
-0.474131
-0.541585
-0.603389
-0.658056
-0.704276
-0.74114
-0.768216
-0.785661
-0.794635
-0.796709
-0.792946
-0.782289
-0.761895
-0.7305
-0.689297
-0.640525
-0.588239
-0.535835
-0.483505
-0.442133
-0.430116
-0.424738
-0.367767
-0.248411
-0.114706
-0.0101695
0.419811
0.451954
0.483552
0.512305
0.535383
0.552467
0.56211
0.563645
0.557714
0.545123
0.52697
0.504535
0.478586
0.44975
0.418648
0.385647
0.351097
0.315336
0.278615
0.241155
0.203169
0.164905
0.126723
0.0893386
0.0539731
0.0220213
-0.00558445
-0.0286248
-0.0470458
-0.0606897
-0.0692675
-0.0727436
-0.0711082
-0.064036
-0.0510534
-0.0304446
-0.000609524
0.0465915
0.10488
0.359802
0.321906
0.276606
0.22537
0.171168
0.11138
0.0476498
-0.0185047
-0.0871495
-0.157169
-0.227814
-0.298397
-0.367806
-0.435076
-0.499075
-0.558478
-0.611905
-0.658086
-0.696012
-0.725214
-0.745511
-0.757635
-0.762661
-0.761353
-0.753015
-0.735481
-0.707583
-0.670213
-0.625384
-0.576503
-0.526885
-0.477427
-0.436907
-0.421218
-0.411466
-0.355797
-0.242666
-0.113556
-0.00799261
0.393092
0.423106
0.452788
0.480029
0.502139
0.518863
0.528861
0.531469
0.527249
0.51697
0.501589
0.482233
0.459558
0.434094
0.406349
0.376579
0.345042
0.312009
0.277708
0.242366
0.206226
0.169571
0.132772
0.0965238
0.0619732
0.0304224
0.00281638
-0.020483
-0.0393178
-0.0534895
-0.062694
-0.0668459
-0.0659186
-0.0595882
-0.0473694
-0.0276103
0.00114436
0.0462537
0.100864
0.336923
0.301529
0.259263
0.211542
0.161263
0.105871
0.046926
-0.0141525
-0.0775125
-0.142114
-0.207375
-0.272903
-0.337591
-0.400623
-0.461084
-0.517825
-0.569602
-0.615215
-0.653593
-0.684228
-0.706695
-0.721366
-0.728932
-0.729909
-0.723801
-0.708961
-0.68434
-0.650588
-0.609477
-0.563935
-0.516994
-0.470209
-0.430849
-0.41173
-0.397233
-0.342433
-0.235321
-0.111289
-0.00550213
0.368093
0.396231
0.424194
0.450052
0.471253
0.487581
0.497806
0.501231
0.498392
0.490006
0.47695
0.460224
0.440394
0.417906
0.39319
0.366418
0.337766
0.307436
0.275607
0.242482
0.208311
0.173386
0.138082
0.103069
0.0694382
0.0384174
0.0109499
-0.0124969
-0.0316661
-0.0463108
-0.056108
-0.0609231
-0.0607013
-0.0551172
-0.0436771
-0.0248083
0.00280751
0.045734
0.096745
0.315452
0.282293
0.242731
0.198144
0.151352
0.0998674
0.045177
-0.01137
-0.0699798
-0.12975
-0.19008
-0.250835
-0.311121
-0.370107
-0.427045
-0.48097
-0.530783
-0.575382
-0.613689
-0.645145
-0.669199
-0.685908
-0.695645
-0.698706
-0.694716
-0.682408
-0.660861
-0.630525
-0.592939
-0.55063
-0.506357
-0.462058
-0.423975
-0.40209
-0.383127
-0.328827
-0.227181
-0.108254
-0.00337201
0.344723
0.371175
0.397594
0.422183
0.442518
0.458422
0.468757
0.472824
0.471097
0.464267
0.453151
0.438673
0.42131
0.401442
0.379439
0.355418
0.329484
0.301778
0.272416
0.241563
0.209446
0.176352
0.142644
0.108964
0.0763572
0.045994
0.0188032
-0.00467086
-0.0240828
-0.0391324
-0.0494765
-0.0549302
-0.0554041
-0.0505698
-0.0399259
-0.0219905
0.00442086
0.0450767
0.0925834
0.295328
0.264178
0.22705
0.18528
0.141609
0.0936198
0.0427427
-0.00974836
-0.0640936
-0.119466
-0.175365
-0.231662
-0.287788
-0.342974
-0.396494
-0.447543
-0.495188
-0.538435
-0.576257
-0.60803
-0.633145
-0.651416
-0.662958
-0.667885
-0.665877
-0.655945
-0.637281
-0.610187
-0.575958
-0.536776
-0.495185
-0.453279
-0.416394
-0.392282
-0.369536
-0.315611
-0.218758
-0.104888
-0.00194274
0.322885
0.347814
0.372819
0.396234
0.415746
0.43121
0.441566
0.446109
0.445287
0.439746
0.430258
0.41769
0.402472
0.384914
0.36533
0.343809
0.320403
0.295196
0.268247
0.23967
0.209656
0.178467
0.146441
0.114182
0.0826953
0.0531082
0.026324
0.00294263
-0.0166173
-0.0319998
-0.0428406
-0.0489042
-0.0500634
-0.0459813
-0.0361508
-0.0191934
0.00595554
0.044274
0.0883746
0.276477
0.247153
0.21223
0.173011
0.132151
0.0873116
0.0398677
-0.00896971
-0.0594655
-0.110857
-0.162737
-0.21497
-0.267116
-0.318708
-0.368971
-0.417172
-0.462531
-0.504183
-0.54118
-0.572841
-0.598568
-0.617972
-0.630974
-0.637535
-0.637349
-0.629626
-0.613665
-0.589638
-0.558617
-0.522475
-0.483567
-0.443991
-0.408231
-0.382272
-0.356409
-0.302804
-0.210179
-0.101203
-0.00119396
0.302479
0.326017
0.349724
0.372044
0.39077
0.405781
0.416087
0.420985
0.420893
0.416427
0.408302
0.397355
0.383997
0.368474
0.351049
0.331779
0.310701
0.287846
0.263221
0.236888
0.208989
0.179748
0.149465
0.118705
0.0884308
0.0597282
0.033474
0.0103028
-0.00930528
-0.0249434
-0.0362218
-0.0428598
-0.0446866
-0.0413575
-0.0323565
-0.0164173
0.00741
0.0433328
0.0841138
0.258827
0.231169
0.198258
0.161365
0.123051
0.0810679
0.03673
-0.00880147
-0.0558099
-0.103595
-0.151789
-0.200343
-0.248786
-0.296897
-0.344072
-0.389513
-0.43255
-0.472445
-0.508351
-0.539556
-0.565505
-0.58566
-0.599793
-0.607743
-0.609199
-0.603511
-0.590064
-0.568928
-0.540964
-0.507783
-0.471526
-0.434206
-0.399552
-0.372109
-0.343628
-0.290234
-0.201298
-0.097189
-0.000919036
0.283403
0.30567
0.328173
0.34947
0.367442
0.381989
0.392187
0.397343
0.397837
0.394267
0.387295
0.377723
0.365972
0.352241
0.336742
0.319504
0.300547
0.279879
0.257466
0.23331
0.207505
0.180225
0.151729
0.122527
0.0935455
0.0658261
0.0402185
0.0173721
-0.00218229
-0.017994
-0.029645
-0.0368143
-0.0392847
-0.0367045
-0.0285487
-0.0136667
0.00878739
0.0422765
0.0798108
0.242305
0.216175
0.185115
0.150348
0.114359
0.0749753
0.0334654
-0.00906415
-0.0529011
-0.0973978
-0.142231
-0.187389
-0.232471
-0.277269
-0.321465
-0.36425
-0.404983
-0.443027
-0.477642
-0.508123
-0.53396
-0.554529
-0.569487
-0.578579
-0.581487
-0.57765
-0.566514
-0.548072
-0.52301
-0.492683
-0.458993
-0.423848
-0.390339
-0.361766
-0.331045
-0.277678
-0.192098
-0.0928046
-0.000861645
0.265565
0.286653
0.308045
0.32838
0.345625
0.359704
0.369752
0.375079
0.376046
0.373221
0.367232
0.35884
0.348467
0.33631
0.322524
0.307114
0.290085
0.271436
0.251098
0.22903
0.205269
0.179941
0.15325
0.125652
0.0980267
0.0713776
0.0465202
0.0241084
0.00470697
-0.011193
-0.0231491
-0.0307992
-0.0338866
-0.0320468
-0.0247492
-0.0109544
0.0100766
0.0411055
0.0754701
0.226836
0.202119
0.172764
0.139959
0.106098
0.0690965
0.0301707
-0.00961632
-0.0505633
-0.0920572
-0.133815
-0.175852
-0.217847
-0.25956
-0.300852
-0.341096
-0.379581
-0.415738
-0.448928
-0.478485
-0.503929
-0.524619
-0.540124
-0.550125
-0.55428
-0.552097
-0.543076
-0.527133
-0.504793
-0.477178
-0.445955
-0.412892
-0.380536
-0.351097
-0.318418
-0.265012
-0.182671
-0.0883359
-0.000653129
0.248876
0.268874
0.289231
0.308652
0.325195
0.338813
0.348668
0.354102
0.355445
0.353244
0.348095
0.340709
0.331528
0.320746
0.308486
0.294718
0.279439
0.26264
0.244234
0.224144
0.202356
0.178943
0.154052
0.128088
0.101873
0.0763693
0.0523557
0.0304821
0.0113323
-0.00456911
-0.0167567
-0.0248322
-0.0285008
-0.0273876
-0.0209573
-0.00827979
0.0112867
0.0398479
0.0711174
0.212354
0.188949
0.161173
0.13018
0.0982817
0.0634695
0.0269177
-0.0103592
-0.0486575
-0.0874033
-0.126338
-0.165509
-0.204629
-0.243523
-0.282026
-0.319803
-0.356116
-0.390395
-0.422079
-0.45056
-0.475392
-0.495949
-0.511752
-0.522427
-0.52763
-0.526911
-0.519798
-0.506153
-0.48635
-0.461291
-0.432417
-0.40133
-0.370074
-0.33994
-0.305593
-0.25227
-0.173342
-0.0839154
-5.93939e-05
0.233259
0.252241
0.271627
0.290182
0.306049
0.319199
0.328845
0.334329
0.335967
0.33429
0.329856
0.323352
0.315191
0.305608
0.294699
0.282411
0.268718
0.253605
0.236983
0.218746
0.198841
0.177288
0.154179
0.129856
0.105086
0.0807863
0.0576991
0.0364561
0.0176527
0.00183456
-0.0105099
-0.0189534
-0.0231637
-0.0227602
-0.0172008
-0.00565993
0.0124045
0.0385003
0.0667554
0.198796
0.176611
0.150305
0.120995
0.0909104
0.0581209
0.0237567
-0.0112101
-0.0470762
-0.0832957
-0.119639
-0.156169
-0.192635
-0.228921
-0.26482
-0.300163
-0.334382
-0.366821
-0.396958
-0.424268
-0.448312
-0.468529
-0.484413
-0.495552
-0.501604
-0.502151
-0.496744
-0.485194
-0.467734
-0.445074
-0.418426
-0.389194
-0.358938
-0.328233
-0.292585
-0.239683
-0.164408
-0.0796963
0.00116101
0.218641
0.236672
0.255144
0.272875
0.288091
0.300781
0.31019
0.315685
0.317552
0.316309
0.312494
0.306747
0.299479
0.290929
0.281217
0.270263
0.25801
0.244431
0.229442
0.212926
0.194802
0.175038
0.153673
0.130982
0.107678
0.0846279
0.0625363
0.0420095
0.0236423
0.00799235
-0.00443216
-0.0131808
-0.0178874
-0.0181684
-0.0134793
-0.00309329
0.0134431
0.0370962
0.0624195
0.186102
0.16506
0.140125
0.112383
0.0839822
0.0530668
0.0207266
-0.0121101
-0.0457292
-0.0796244
-0.11358
-0.147676
-0.181689
-0.215532
-0.249053
-0.28204
-0.314201
-0.344847
-0.373437
-0.399508
-0.422644
-0.442355
-0.458127
-0.469532
-0.476243
-0.477867
-0.473963
-0.4643
-0.44899
-0.428566
-0.404019
-0.376502
-0.347157
-0.31607
-0.279607
-0.227532
-0.155993
-0.0754269
0.00310843
0.204954
0.222092
0.239697
0.256643
0.271232
0.283466
0.292625
0.298092
0.300136
0.29926
0.295971
0.290895
0.284401
0.276749
0.268088
0.258332
0.247384
0.235198
0.221698
0.206773
0.190317
0.172257
0.152579
0.131497
0.109662
0.0878943
0.0668524
0.0471147
0.0292643
0.0138635
0.00143286
-0.00755739
-0.0127143
-0.0136505
-0.00982624
-0.000599952
0.01439
0.0356335
0.0581158
0.174219
0.154248
0.130598
0.104324
0.0774862
0.0483141
0.0178522
-0.0130098
-0.0445568
-0.076301
-0.108052
-0.139897
-0.171638
-0.20321
-0.234515
-0.2653
-0.295426
-0.324328
-0.351395
-0.376194
-0.398337
-0.417409
-0.432908
-0.444411
-0.451599
-0.454107
-0.451507
-0.44353
-0.430181
-0.411824
-0.389235
-0.36331
-0.33484
-0.303623
-0.266858
-0.215935
-0.14793
-0.0707302
0.00573873
0.192135
0.208433
0.225216
0.241411
0.255395
0.26718
0.276077
0.281486
0.283662
0.283092
0.280261
0.275762
0.269959
0.263095
0.255351
0.246657
0.23689
0.225975
0.213833
0.200369
0.185463
0.169012
0.150952
0.131439
0.111064
0.0905942
0.0706447
0.0517573
0.0344983
0.0194247
0.00706258
-0.00210334
-0.00765838
-0.00921373
-0.00624174
0.0018221
0.0152603
0.0341478
0.0538879
0.163095
0.144132
0.121691
0.0967912
0.0714152
0.0438682
0.0151524
-0.0138784
-0.0434993
-0.0732571
-0.102968
-0.132728
-0.162361
-0.191822
-0.221036
-0.249792
-0.277953
-0.305135
-0.330702
-0.35422
-0.375319
-0.393654
-0.408748
-0.420195
-0.42769
-0.430911
-0.429429
-0.422937
-0.411357
-0.394894
-0.374115
-0.349674
-0.322119
-0.29108
-0.254465
-0.204807
-0.13996
-0.0652256
0.00885249
0.180126
0.19563
0.211633
0.227111
0.240511
0.251852
0.260479
0.265807
0.268079
0.267764
0.265326
0.261331
0.256142
0.249974
0.243032
0.235277
0.226575
0.216818
0.205919
0.193789
0.180314
0.165368
0.148847
0.13085
0.11191
0.0927381
0.0739072
0.0559202
0.0393154
0.0246383
0.0124157
0.00313801
-0.00276424
-0.00490042
-0.00276206
0.00415187
0.01604
0.032634
0.0497448
0.152679
0.134669
0.113367
0.089761
0.0657533
0.0397236
0.0126393
-0.0146848
-0.0425209
-0.0704311
-0.09825
-0.126076
-0.153752
-0.18125
-0.208514
-0.235361
-0.261647
-0.287153
-0.311255
-0.333506
-0.353537
-0.371065
-0.385639
-0.396893
-0.404551
-0.408316
-0.407775
-0.402581
-0.392578
-0.377836
-0.358725
-0.335698
-0.309122
-0.278528
-0.242357
-0.19394
-0.131832
-0.0590567
0.0121903
0.168875
0.183626
0.198886
0.213677
0.226511
0.237416
0.245769
0.250999
0.253335
0.253232
0.251134
0.247583
0.242932
0.237389
0.231153
0.224224
0.216473
0.207772
0.198009
0.187099
0.174937
0.161387
0.146317
0.129775
0.112231
0.0943483
0.0766497
0.0595998
0.043704
0.0294888
0.017473
0.00814861
0.00195512
-0.000718113
0.000613115
0.00639049
0.0167464
0.031129
0.0457328
0.142925
0.125815
0.10559
0.0832028
0.0604821
0.0358772
0.0103174
-0.0154163
-0.041585
-0.0677785
-0.0938404
-0.119867
-0.145723
-0.171393
-0.196828
-0.221903
-0.246418
-0.270266
-0.292948
-0.313958
-0.332918
-0.349585
-0.363561
-0.374511
-0.382199
-0.386357
-0.386585
-0.382509
-0.373896
-0.360701
-0.343134
-0.321465
-0.295933
-0.265981
-0.23043
-0.18316
-0.123498
-0.0524007
0.0154147
0.158331
0.172368
0.186917
0.201048
0.213338
0.223817
0.23189
0.237009
0.239384
0.239457
0.237652
0.234492
0.230318
0.225334
0.219722
0.213515
0.206615
0.198874
0.190154
0.180358
0.169394
0.157131
0.143417
0.128258
0.112065
0.095446
0.0788799
0.0627892
0.0476447
0.0339464
0.0221988
0.0128888
0.00645852
0.00329271
0.00384751
0.00851657
0.017367
0.0296291
0.0418574
0.133791
0.117532
0.0983266
0.0770934
0.0555842
0.0323169
0.00818848
-0.0160549
-0.0406713
-0.065262
-0.0896855
-0.114041
-0.138202
-0.162164
-0.185897
-0.209284
-0.232161
-0.254411
-0.275698
-0.295492
-0.313387
-0.329167
-0.342478
-0.353037
-0.360645
-0.365067
-0.365913
-0.36278
-0.355377
-0.343569
-0.327425
-0.307066
-0.282614
-0.253418
-0.218575
-0.172421
-0.115077
-0.0458109
0.018425
0.148446
0.161804
0.175677
0.189175
0.200937
0.211
0.218794
0.223787
0.226182
0.2264
0.224852
0.222035
0.218283
0.2138
0.208741
0.203173
0.197026
0.19016
0.182389
0.17361
0.163738
0.152657
0.140204
0.12635
0.111451
0.0960621
0.0806162
0.0654971
0.0511359
0.0380019
0.0265799
0.0173449
0.0107346
0.00712596
0.0069432
0.010535
0.0179223
0.028169
0.0381651
0.125233
0.109784
0.0915469
0.0714052
0.0510392
0.0290351
0.00625142
-0.016599
-0.0397573
-0.0628531
-0.0857507
-0.108546
-0.131126
-0.153497
-0.175631
-0.197441
-0.218774
-0.239504
-0.259431
-0.278034
-0.294883
-0.309761
-0.32237
-0.332468
-0.339904
-0.344471
-0.34579
-0.343439
-0.337079
-0.326505
-0.311663
-0.292553
-0.269194
-0.240832
-0.206788
-0.161812
-0.106803
-0.0395926
0.0212246
0.139176
0.151891
0.165117
0.178007
0.18926
0.198917
0.20643
0.211291
0.213686
0.214025
0.212699
0.210187
0.206816
0.202771
0.198226
0.193209
0.187734
0.18164
0.174743
0.166892
0.158017
0.148017
0.136728
0.124097
0.110429
0.0962259
0.0818774
0.0677271
0.0541683
0.0416359
0.0305886
0.0214822
0.0147456
0.0107444
0.00986685
0.0124276
0.0183998
0.0267416
0.0346586
0.117217
0.102543
0.0852222
0.0661174
0.0468304
0.0260147
0.00450001
-0.0170375
-0.0388348
-0.06053
-0.0819969
-0.103338
-0.124443
-0.145323
-0.165971
-0.186291
-0.206193
-0.225485
-0.244063
-0.261507
-0.277337
-0.291318
-0.303206
-0.312801
-0.319989
-0.324597
-0.326257
-0.324538
-0.319069
-0.30958
-0.29593
-0.278005
-0.255732
-0.228275
-0.19515
-0.151527
-0.0989229
-0.0342229
0.023873
0.130483
0.142585
0.155192
0.167499
0.178261
0.18752
0.194757
0.199476
0.201858
0.202297
0.201166
0.198925
0.195888
0.192249
0.188143
0.18364
0.178734
0.173334
0.167226
0.160236
0.152277
0.143258
0.133036
0.121544
0.10904
0.0959716
0.0826888
0.0694965
0.0567496
0.0448475
0.0342179
0.0252932
0.0184846
0.0141447
0.0126239
0.0142013
0.0188231
0.0253824
0.0313807
0.109715
0.0957731
0.0793278
0.0612026
0.0429382
0.0232493
0.00292915
-0.0173761
-0.0378883
-0.0582714
-0.078404
-0.0983807
-0.118108
-0.137597
-0.156844
-0.175781
-0.19431
-0.212277
-0.229555
-0.245856
-0.260692
-0.273795
-0.284957
-0.294016
-0.300893
-0.305448
-0.307335
-0.306114
-0.301393
-0.292857
-0.280287
-0.263483
-0.242291
-0.215819
-0.183782
-0.141733
-0.0916191
-0.0297841
0.0261707
0.122329
0.133846
0.145863
0.157609
0.167898
0.176771
0.183732
0.188306
0.190662
0.191181
0.19022
0.188221
0.185488
0.182204
0.178521
0.174461
0.170055
0.165255
0.159856
0.153662
0.14654
0.138416
0.129172
0.118736
0.107324
0.0953336
0.0830759
0.0708195
0.0588831
0.0476285
0.0374499
0.0287509
0.0219207
0.0172945
0.0151848
0.0158409
0.0191816
0.0240837
0.0283295
0.102689
0.0894436
0.07383
0.0566422
0.0393453
0.0207195
0.00152965
-0.01761
-0.0369196
-0.0560693
-0.074946
-0.0936488
-0.112085
-0.13027
-0.148213
-0.16584
-0.183088
-0.199801
-0.21584
-0.231029
-0.244898
-0.257149
-0.267595
-0.276096
-0.28261
-0.287034
-0.289043
-0.288203
-0.284106
-0.276402
-0.264816
-0.249074
-0.228967
-0.203567
-0.172773
-0.132556
-0.0850056
-0.0264441
0.0278672
0.114685
0.125643
0.137093
0.148301
0.158131
0.166627
0.173318
0.177742
0.180064
0.180648
0.179837
0.178052
0.175589
0.172627
0.169314
0.165666
0.161715
0.157424
0.15265
0.14717
0.14082
0.133522
0.125176
0.115713
0.10532
0.0943477
0.0830697
0.0717216
0.0605859
0.0499882
0.0402871
0.031854
0.0250521
0.0201949
0.0175576
0.0173565
0.019501
0.0228804
0.0255429
0.0961153
0.0835282
0.0687094
0.0524092
0.0360325
0.0184178
0.000294494
-0.0177507
-0.0359204
-0.0539112
-0.0716143
-0.0891179
-0.106345
-0.123311
-0.140023
-0.156435
-0.172464
-0.188011
-0.20288
-0.216966
-0.229897
-0.241333
-0.251082
-0.259018
-0.26513
-0.269354
-0.271397
-0.270835
-0.267251
-0.260274
-0.249582
-0.234849
-0.21583
-0.191589
-0.162189
-0.123984
-0.0790024
-0.0239592
0.0286349
0.107519
0.117942
0.128849
0.139538
0.148926
0.157057
0.163479
0.167754
0.170031
0.170666
0.169984
0.168392
0.166174
0.163499
0.160515
0.157258
0.1537
0.14986
0.14562
0.140778
0.135142
0.128608
0.121082
0.112512
0.103063
0.0930457
0.0826982
0.0722239
0.0618711
0.0519295
0.042722
0.0345867
0.0278557
0.0228192
0.0197168
0.0187345
0.019771
0.0217621
0.0230093
0.0899603
0.0780065
0.0639392
0.0484877
0.0329842
0.0163251
-0.00078635
-0.0177918
-0.0348946
-0.0517925
-0.0683873
-0.0847702
-0.100862
-0.116685
-0.132252
-0.147508
-0.162407
-0.17683
-0.190622
-0.203646
-0.21566
-0.226307
-0.235377
-0.242748
-0.248433
-0.252406
-0.25441
-0.254041
-0.250878
-0.244534
-0.23466
-0.22089
-0.202963
-0.179956
-0.151998
-0.115979
-0.0735147
-0.0221822
0.0284304
0.1008
0.110713
0.121099
0.131288
0.140249
0.148024
0.154185
0.158304
0.160533
0.161206
0.160639
0.159218
0.157214
0.154801
0.152114
0.149191
0.146014
0.142566
0.138794
0.134512
0.129527
0.12369
0.116918
0.109165
0.100584
0.0914582
0.0819904
0.0723526
0.0627602
0.0534682
0.044765
0.0369536
0.0303345
0.0251719
0.0216715
0.0199841
0.0200143
0.0207567
0.020754
0.0841999
0.0728501
0.0595034
0.0448549
0.0301825
0.014434
-0.00172055
-0.0177496
-0.0338357
-0.0497061
-0.0652635
-0.080589
-0.0956169
-0.110368
-0.124853
-0.13904
-0.15286
-0.166239
-0.179005
-0.191034
-0.202157
-0.212031
-0.22044
-0.227254
-0.232501
-0.236189
-0.238099
-0.23785
-0.235027
-0.229236
-0.220107
-0.207254
-0.190409
-0.168684
-0.142239
-0.108424
-0.0683618
-0.0207288
0.0273997
0.0945009
0.103925
0.113812
0.123522
0.13207
0.139501
0.145402
0.14937
0.151541
0.152243
0.151773
0.150504
0.148696
0.146515
0.144094
0.141478
0.138628
0.13555
0.132176
0.12839
0.123983
0.118796
0.112715
0.105702
0.0979172
0.0896175
0.0809753
0.0721322
0.0632717
0.0546152
0.0464172
0.0389478
0.0324745
0.027233
0.0234003
0.0210924
0.0202158
0.019846
0.0187547
0.078811
0.0680382
0.0553754
0.0414966
0.0276131
0.0127257
-0.0025203
-0.0176186
-0.0327546
-0.0476539
-0.062229
-0.0765651
-0.0905936
-0.104337
-0.117816
-0.130983
-0.143808
-0.156187
-0.168011
-0.179101
-0.189346
-0.198466
-0.206238
-0.212514
-0.217322
-0.220704
-0.22248
-0.222294
-0.219743
-0.214431
-0.205984
-0.194006
-0.178224
-0.157821
-0.132864
-0.101277
-0.0635565
-0.0194947
0.0257931
0.088595
0.0975517
0.106961
0.116209
0.12436
0.131455
0.137106
0.140919
0.14303
0.14375
0.143367
0.142231
0.140597
0.138623
0.136447
0.134094
0.131561
0.128791
0.125776
0.122415
0.118538
0.113944
0.108491
0.102153
0.0950919
0.0875526
0.0796809
0.0715888
0.0634278
0.0553884
0.0476933
0.0405796
0.0342827
0.0290106
0.0249103
0.0220661
0.0203927
0.0190499
0.0170251
0.0737679
0.0635467
0.0515402
0.0383902
0.0252587
0.0111938
-0.00319196
-0.0174162
-0.0316454
-0.0456302
-0.0592863
-0.0726874
-0.085777
-0.098578
-0.111102
-0.12333
-0.135201
-0.146658
-0.157574
-0.167801
-0.177211
-0.185598
-0.192749
-0.198501
-0.202879
-0.205949
-0.207564
-0.207396
-0.205058
-0.200163
-0.192339
-0.181191
-0.166445
-0.147363
-0.123935
-0.0945039
-0.0591324
-0.0184051
0.0236761
0.0830597
0.0915685
0.100519
0.109325
0.117092
0.123864
0.129266
0.132929
0.134974
0.135705
0.135393
0.134378
0.132899
0.131116
0.12915
0.127043
0.124772
0.122305
0.119601
0.116617
0.113198
0.109137
0.104265
0.0985419
0.0921388
0.0852946
0.0781375
0.0707497
0.0632518
0.0558052
0.0486025
0.0418503
0.0357536
0.0304916
0.0261846
0.022893
0.0205279
0.0183446
0.0155329
0.0690513
0.0593569
0.0479737
0.0355235
0.0231065
0.00981888
-0.00374851
-0.0171384
-0.0305188
-0.0436398
-0.0564233
-0.0689498
-0.0811572
-0.0930699
-0.104711
-0.116039
-0.127035
-0.13761
-0.147678
-0.157084
-0.165718
-0.173407
-0.179956
-0.185197
-0.189157
-0.191917
-0.193356
-0.193172
-0.190999
-0.186468
-0.179216
-0.168861
-0.155119
-0.137361
-0.115432
-0.0881593
-0.0552455
-0.0177026
0.02094
0.0778704
0.0859516
0.0944625
0.102842
0.110241
0.116698
0.121863
0.125372
0.127351
0.128084
0.127837
0.126925
0.125586
0.123969
0.122197
0.120302
0.118276
0.116065
0.113657
0.110989
0.107966
0.104387
0.100048
0.094892
0.0890845
0.082873
0.0763737
0.0696411
0.0627676
0.0558862
0.0491627
0.0427752
0.0368995
0.0316857
0.0272355
0.0235794
0.0206379
0.0177468
0.0142853
0.0646385
0.0554478
0.0446626
0.032875
0.0211396
0.00859557
-0.00419725
-0.0168034
-0.0293713
-0.0416782
-0.0536468
-0.0653454
-0.0767248
-0.0878079
-0.0986073
-0.109111
-0.119266
-0.129031
-0.138293
-0.146938
-0.154842
-0.161861
-0.167829
-0.172581
-0.176143
-0.178603
-0.179857
-0.179632
-0.177588
-0.173378
-0.166655
-0.157054
-0.144292
-0.127822
-0.107445
-0.0822788
-0.0519372
-0.0175387
0.0174707
0.0730068
0.0806789
0.0887674
0.0967391
0.103781
0.109938
0.114866
0.11823
0.120137
0.120868
0.120671
0.119855
0.11864
0.117172
0.115571
0.11387
0.11205
0.110091
0.107924
0.10554
0.102857
0.0997041
0.0958607
0.0912192
0.0859527
0.0803169
0.0744183
0.0682905
0.0619992
0.0556528
0.0493908
0.043365
0.0377238
0.032592
0.0280478
0.0241164
0.0207021
0.0172344
0.0132515
0.0605129
0.0518026
0.041585
0.0304345
0.0193458
0.0075051
-0.00455039
-0.0164064
-0.0282161
-0.0397526
-0.0509469
-0.0618717
-0.0724729
-0.0827742
-0.0927984
-0.10251
-0.111899
-0.120886
-0.129409
-0.137331
-0.144543
-0.150934
-0.156346
-0.160638
-0.16383
-0.166002
-0.167067
-0.166783
-0.16484
-0.160917
-0.154688
-0.145812
-0.134001
-0.118811
-0.0999579
-0.0769068
-0.0492302
-0.0180342