/*--------------------------------*- C++ -*----------------------------------*\
| =========                 |                                                 |
| \\      /  F ield         | OpenFOAM: The Open Source CFD Toolbox           |
|  \\    /   O peration     | Version:  2506                                  |
|   \\  /    A nd           | Website:  www.openfoam.com                      |
|    \\/     M anipulation  |                                                 |
\*---------------------------------------------------------------------------*/
FoamFile
{
    version     2.0;
    format      ascii;
    arch        "LSB;label=32;scalar=64";
    class       volScalarField;
    location    "50";
    object      turbulenceProperties:I;
}
// * * * * * * * * * * * * * * * * * * * * * * * * * * * * * * * * * * * * * //

dimensions      [0 0 0 0 0 0 0];

internalField   nonuniform List<scalar> 
10720
(
0.00472119
0.00453396
0.00443017
0.00445703
0.00453517
0.00469021
0.00493559
0.00525638
0.00566589
0.00617572
0.00679546
0.00755682
0.00850419
0.0097031
0.0112575
0.0133189
0.0161658
0.0201651
0.0263878
0.0356147
0.0546775
0.0871532
0.197273
0.538822
1
1
1
1
1
1
1
1
0.806697
0.364737
0.283036
0.26712
0.265124
0.23862
0.276067
0.00499001
0.00550635
0.00634441
0.00817446
0.0119735
0.0156547
0.0110155
0.00770936
0.00650379
0.0061807
0.00630031
0.0066925
0.00729056
0.00807719
0.00905474
0.0102682
0.0117951
0.0137527
0.0163286
0.0197365
0.0243821
0.0307868
0.0402512
0.0529891
0.0744374
0.105103
0.156442
0.2052
0.229679
0.237753
0.240102
0.241235
0.242092
0.242812
0.243522
0.24443
0.24574
0.249698
0.256301
0.00246902
0.0021976
0.00196071
0.00175267
0.00157222
0.00141579
0.00127812
0.001156
0.00104945
0.00095511
0.000872061
0.000801234
0.000741792
0.000692109
0.000686851
0.000747898
0.000954269
0.00135914
0.00215561
0.00353551
0.00677091
0.0129991
0.0269093
0.0705823
0.14183
0.256437
0.426663
0.563838
0.653091
0.742567
0.83209
0.719406
0.606269
1
0.960559
0.879137
1
1
1
0.00279001
0.00321568
0.00384763
0.00478192
0.00593191
0.00647939
0.00549735
0.00403718
0.00298952
0.00231321
0.00185815
0.00153422
0.00129135
0.00110207
0.000950846
0.000828321
0.000726072
0.000639492
0.000561644
0.000487079
0.000407348
0.000313606
0.000225008
0.000158556
0.000784184
0.00196597
0.00500758
0.0112337
0.0178065
0.0232721
0.0275354
0.0307114
0.033154
0.0352677
0.0373092
0.0395462
0.04215
0.0480761
0.0613743
0.00208735
0.00187336
0.00167378
0.00149329
0.00133944
0.00120419
0.00108703
0.000989401
0.00090883
0.000844722
0.000795359
0.000758549
0.000732465
0.000714714
0.000706495
0.000711562
0.00069536
0.000663321
0.00054589
0.00126289
0.000894243
0.00144605
0.000783716
0.0086643
0.0303764
0.0714507
0.147873
0.255891
0.3591
0.439883
0.504921
0.50763
0.514868
1
1
1
1
1
1
0.00233267
0.00262859
0.00301451
0.0034687
0.00387599
0.00402078
0.00372591
0.00312652
0.00251547
0.00201327
0.0016235
0.00132435
0.00109288
0.000912035
0.000773491
0.000668776
0.000591331
0.000534802
0.000494293
0.00046555
0.000445248
0.000432142
0.000424792
0.000422841
0.000421496
0.000418584
0.000404075
0.000397121
0.00135898
0.00271438
0.00407885
0.00566495
0.00841352
0.0119176
0.0155675
0.0190345
0.0222691
0.0248305
0.0315965
0.00182901
0.0016802
0.00153758
0.0014079
0.00129201
0.00118653
0.00109247
0.00100822
0.000932718
0.000864881
0.00080364
0.000748201
0.000697972
0.000651648
0.000608148
0.000565928
0.000520012
0.000475537
0.000419981
0.000350581
0.000106989
0.000570313
0.000322716
0.0022546
8.6323e-05
0.0102078
0.0377342
0.0964051
0.185054
0.277555
0.350402
0.388979
0.436882
0.702287
1
1
1
0.649769
0.697828
0.00198721
0.00216788
0.00238196
0.00260892
0.00278917
0.00285042
0.00272346
0.00243424
0.0020909
0.00177141
0.00150322
0.0012874
0.00111475
0.000975923
0.000864305
0.000773477
0.00069933
0.000638446
0.000588757
0.000547408
0.000512599
0.000481967
0.000453315
0.000423392
0.00039333
0.000368605
0.000349713
0.000337896
0.000310929
0.000298208
7.24399e-05
0.000212316
0.000677846
0.000754275
0.0017643
0.00378191
0.00662431
0.010902
0.0196018
0.00156574
0.00145539
0.00134525
0.00124025
0.00114393
0.00105372
0.000970831
0.000895211
0.000826221
0.000763982
0.000708245
0.000658837
0.000615719
0.000578838
0.000547882
0.000523546
0.000505226
0.000488644
0.000468152
0.000447477
0.000374844
0.000251967
8.13674e-05
0
4.05534e-05
0.00282258
0.00494609
0.0177205
0.0664072
0.145492
0.229551
0.293519
0.361197
0.522877
0.777049
0.839944
0.638363
0.448152
0.409288
0.00167818
0.00179878
0.00193168
0.00205972
0.00215363
0.00218379
0.00211969
0.00196387
0.00175845
0.00154392
0.00134388
0.00116771
0.00101579
0.000885653
0.000774909
0.000681015
0.000602027
0.000536333
0.000482792
0.000439777
0.000405789
0.000378906
0.000357207
0.000337542
0.000317913
0.000299588
0.000285748
0.000276997
0.000273583
0.00026864
0.000274432
0.000122558
0.000499971
0.000186601
0.00142155
0.00050803
0.00142912
0.00227137
0.00874208
0.00136252
0.00128377
0.00120254
0.00112365
0.00105013
0.000980086
0.000914827
0.000854467
0.000798607
0.000747237
0.000699939
0.000656363
0.000616207
0.000579037
0.000544448
0.000512328
0.000480875
0.000447325
0.000412661
0.000377338
0.00034656
0.000313232
0.00022615
6.66558e-05
0
0
0
0.00393547
0.00774529
0.0500801
0.122386
0.200709
0.283746
0.404025
0.540343
0.567473
0.464003
0.345011
0.292841
0.00143974
0.00151946
0.00160396
0.00168137
0.00173664
0.00175413
0.00171703
0.00162429
0.00149476
0.00134994
0.00120632
0.00107359
0.000955189
0.000851519
0.000762018
0.000685524
0.000620662
0.000566013
0.000520214
0.000481774
0.00044916
0.000420648
0.000394516
0.000368538
0.000341729
0.00031624
0.000294222
0.000276138
0.000261226
0.000248384
0.000235116
0.000217559
0.000185203
0.000145809
3.49943e-05
0.000135943
0.000570025
0.00106573
0.00315625
0.00119085
0.00113246
0.00107062
0.00100897
0.00095042
0.000893265
0.000838831
0.000787504
0.000739009
0.000693598
0.000651115
0.000611386
0.000574425
0.00054006
0.000508253
0.000478835
0.000452197
0.000428822
0.000407044
0.000384088
0.000359411
0.000335102
0.000320072
0.000216249
6.26396e-05
0
0
0
0.00345313
0.00273599
0.041978
0.112276
0.202993
0.309959
0.404182
0.423396
0.361552
0.279794
0.229311
0.00124629
0.00130172
0.00135875
0.00140882
0.00144426
0.00145528
0.00143189
0.00137292
0.00128752
0.00118718
0.00108238
0.00098057
0.000885378
0.000798336
0.000719984
0.000650254
0.000588733
0.000534936
0.000488338
0.000448255
0.000413939
0.000384406
0.000358322
0.000333711
0.000309067
0.000285107
0.000263516
0.000245058
0.000229783
0.000217987
0.000210556
0.00020793
0.000205751
0.000197236
0.000186722
7.87767e-05
3.7344e-05
0
0.0014705
0.00105046
0.00100704
0.000960149
0.000912343
0.000866532
0.000821037
0.000777122
0.000735306
0.000695361
0.000657595
0.000621861
0.000588064
0.000556181
0.000526044
0.000497521
0.000470471
0.000444804
0.000419231
0.00039315
0.000367006
0.000342184
0.000318876
0.000309074
0.000299071
0.000226142
6.14321e-05
3.86072e-06
0
0
0.00214835
0.000188802
0.0418176
0.12399
0.225698
0.306904
0.328154
0.290401
0.232632
0.187897
0.00109072
0.00113007
0.00116992
0.00120387
0.00122802
0.00123545
0.00121981
0.00118021
0.0011216
0.00105044
0.000973325
0.000895674
0.000820695
0.000750129
0.000684993
0.000625849
0.00057282
0.000525842
0.00048468
0.000448872
0.000417726
0.000390315
0.00036539
0.000341304
0.000316985
0.000293103
0.000270881
0.000250816
0.000232638
0.000215949
0.000200727
0.000186617
0.000173518
0.000161677
0.00015282
0.000133093
0.000113649
4.04315e-05
0
0.000933157
0.000900232
0.000864134
0.000826451
0.000790012
0.000753302
0.000717289
0.000682549
0.000648912
0.000616623
0.00058568
0.000556
0.0005276
0.000500421
0.000474431
0.000449551
0.00042573
0.000402979
0.00038129
0.000360068
0.000339156
0.000319166
0.000302322
0.000298573
0.000294334
0.000240069
1.61346e-05
2.84068e-06
0
0
8.19391e-05
0.00751481
0.0566831
0.147208
0.225296
0.254058
0.234147
0.194305
0.156553
0.00096316
0.000991863
0.00102076
0.00104476
0.00106189
0.00106708
0.0010562
0.00102861
0.000987052
0.000935456
0.000877983
0.000818436
0.000759241
0.000701877
0.000647419
0.000596569
0.000549729
0.000507103
0.000468723
0.000434445
0.000403948
0.000376587
0.000351492
0.000327447
0.000303596
0.000280293
0.000258604
0.000239145
0.000221911
0.000206732
0.000193711
0.00018332
0.000175285
0.000169409
0.000165189
0.00016479
0.000168239
0.000173139
3.49612e-05
0.000834777
0.000809464
0.000781398
0.000751707
0.000722548
0.000692888
0.000663573
0.00063498
0.000607018
0.000579956
0.000553732
0.00052832
0.000503799
0.0004801
0.000457189
0.000434997
0.000413551
0.000392669
0.000371787
0.000351059
0.000331011
0.000312994
0.000297715
0.000287364
0.000286952
0.000286696
0.000239283
9.43633e-06
2.201e-06
0
0
0.0026556
0.0124593
0.0784694
0.150459
0.18771
0.183733
0.159378
0.129288
0.000857368
0.000878727
0.000900231
0.000917803
0.000930267
0.000934055
0.00092625
0.000906441
0.000876244
0.000838035
0.00079464
0.000748762
0.000702053
0.000655733
0.000610736
0.000567779
0.00052735
0.00048985
0.000455453
0.000424183
0.000395878
0.00037012
0.000346203
0.000323285
0.000300695
0.000278632
0.000257937
0.000239126
0.000222045
0.000206527
0.000192322
0.000179527
0.000167947
0.000158022
0.00014927
0.000146724
0.000142911
0.00018969
0.00012931
0.000751197
0.000731534
0.000709492
0.000685768
0.000662398
0.000638351
0.000614152
0.000590488
0.000567187
0.00054436
0.000521994
0.000500098
0.000478736
0.000457871
0.000437489
0.000417563
0.000398054
0.000379022
0.000360332
0.000342026
0.00032432
0.000307952
0.000294221
0.000283112
0.00027541
0.000274255
0.00027966
0.000229689
8.48595e-06
1.95968e-06
0
0
0.0065038
0.0270415
0.082402
0.123057
0.133372
0.124141
0.102729
0.000768471
0.000784628
0.000801023
0.000814271
0.000823518
0.000826326
0.00082065
0.000806043
0.000783636
0.000754935
0.000721762
0.000686112
0.000649204
0.000611869
0.000574818
0.000538665
0.000503885
0.000470901
0.000439983
0.000411262
0.000384705
0.0003601
0.000336989
0.000314782
0.000293019
0.000271863
0.000251874
0.000233561
0.000216896
0.000201736
0.000188046
0.000176057
0.000165785
0.000157617
0.000151406
0.000150809
0.000150517
0.000181184
0.000205238
0.00067957
0.000664142
0.000646695
0.00062763
0.000608794
0.00058921
0.000569401
0.000549828
0.000530288
0.000511069
0.000492207
0.000473481
0.000455027
0.000436872
0.000418985
0.000401346
0.000383939
0.000366877
0.000349913
0.00033309
0.000316824
0.000301756
0.000288988
0.000278851
0.000270078
0.000262559
0.000261474
0.0002674
0.000209282
7.63955e-06
3.08519e-07
0
0.00171133
0.0065767
0.0282208
0.0612241
0.0795484
0.0845947
0.0732469
0.000692973
0.000705315
0.000718042
0.000728262
0.000735324
0.00073735
0.000733119
0.000722229
0.000705293
0.00068341
0.000657791
0.000629882
0.000600629
0.000570522
0.000540146
0.000509945
0.000480309
0.000451607
0.000424156
0.000398176
0.000373744
0.000350758
0.000328896
0.000307781
0.000287147
0.00026709
0.00024805
0.000230411
0.000214253
0.000199394
0.000185809
0.000173534
0.000162568
0.000153378
0.000145794
0.00014367
0.000143705
0.000164956
0.000219437
0.000617624
0.000605419
0.000591514
0.000576095
0.000560817
0.000544812
0.000528517
0.000512271
0.000496024
0.000479854
0.00046381
0.000447856
0.000431918
0.000416127
0.000400413
0.000384813
0.000369295
0.000353994
0.000338795
0.000323734
0.00030913
0.000295501
0.000283581
0.000273908
0.000265684
0.000257458
0.000249533
0.000248104
0.000253138
0.000191914
3.73525e-05
0
0
0.00487426
0.0105743
0.0174238
0.029157
0.0389756
0.0382983
0.000628141
0.000637691
0.000647723
0.000655734
0.000661192
0.000662768
0.000659477
0.000651156
0.000638263
0.000621391
0.000601402
0.000579395
0.000556066
0.000531813
0.000506964
0.000481814
0.000456669
0.000431859
0.000407665
0.000384323
0.00036195
0.000340536
0.000319909
0.000299844
0.000280218
0.000261138
0.000242922
0.000225919
0.000210211
0.000195765
0.000182472
0.000170468
0.000159806
0.000150984
0.000143597
0.000141173
0.000140821
0.000156561
0.000210695
0.000563629
0.000553871
0.000542733
0.000530206
0.000517784
0.000504663
0.000491222
0.000477772
0.000464153
0.000450647
0.000437068
0.000423448
0.000409825
0.00039614
0.000382412
0.000368717
0.000355009
0.000341418
0.000327898
0.000314397
0.000301223
0.000288856
0.000277856
0.000268622
0.000260772
0.000253139
0.000245118
0.000236496
0.000234049
0.000244852
0.00014478
5.36247e-06
0
0.000356522
0.00284165
0.00912897
0.0118681
0.0147127
0.0125
0.000571949
0.000579403
0.000587402
0.000593791
0.000598048
0.000599272
0.00059674
0.000590217
0.000580244
0.000567171
0.000551453
0.000534
0.000515318
0.000495736
0.000475409
0.00045455
0.000433333
0.00041202
0.00039087
0.00037009
0.000349799
0.000330053
0.000310792
0.000291918
0.000273413
0.000255359
0.000238049
0.000221759
0.000206631
0.000192588
0.000179568
0.000167674
0.000156974
0.000147788
0.000139858
0.000136368
0.000134891
0.000148357
0.000198493
0.000516199
0.000508351
0.00049939
0.000489168
0.000479042
0.000468278
0.000457145
0.000445979
0.000434619
0.000423229
0.000411821
0.000400288
0.000388696
0.000376852
0.000364898
0.0003529
0.00034089
0.000328861
0.000316897
0.000304918
0.000293142
0.000281981
0.000271898
0.000263178
0.000255613
0.000248397
0.000241132
0.000233249
0.00022131
0.000230366
0.000224694
4.00308e-05
0
0
0.00117045
0.00425683
0.00322432
0.0051143
0.00609867
0.000522826
0.000528711
0.00053512
0.000540282
0.000543641
0.000544594
0.000542612
0.000537527
0.000529623
0.000519376
0.000507065
0.000493083
0.000478069
0.000462177
0.00044556
0.000428308
0.000410487
0.000392278
0.00037389
0.000355505
0.000337248
0.000319208
0.000301361
0.000283669
0.000266243
0.000249197
0.00023277
0.00021718
0.000202598
0.000188954
0.000176275
0.00016459
0.000154016
0.000144849
0.00013681
0.000132779
0.000130643
0.000141645
0.000187467
0.000474262
0.000467917
0.000460703
0.000452331
0.000444045
0.00043519
0.000425982
0.000416692
0.000407243
0.000397644
0.000388082
0.000378355
0.000368438
0.000358316
0.000347954
0.000337498
0.000326974
0.000316394
0.000305842
0.000295244
0.000284752
0.000274734
0.000265541
0.000257429
0.000250243
0.00024342
0.000236451
0.00022987
0.000219716
0.000210517
0.000231433
0.000156254
8.0426e-06
0
0
0
0.0013973
0.0022582
0.00216776
0.000479571
0.000484234
0.000489433
0.000493615
0.00049629
0.000497049
0.000495474
0.000491455
0.000485146
0.000477032
0.000467269
0.000456135
0.000444007
0.000431065
0.000417465
0.000403187
0.000388256
0.000372778
0.000356908
0.000340764
0.000324461
0.000308088
0.000291658
0.000275217
0.000258916
0.000242905
0.000227381
0.000212539
0.000198526
0.000185364
0.000173043
0.000161557
0.000151051
0.000141787
0.000133402
0.000128601
0.000125498
0.000134432
0.000177058
0.000436924
0.000431824
0.000425983
0.000419108
0.000412323
0.00040504
0.000397405
0.000389704
0.000381807
0.000373821
0.000365695
0.000357534
0.000349152
0.000340485
0.000331577
0.000322504
0.0003133
0.000304019
0.000294766
0.000285437
0.000276149
0.000267205
0.000258885
0.000251389
0.000244641
0.000238248
0.000231663
0.000225183
0.000218618
0.000204971
0.000209969
0.000220319
1.02935e-05
4.69927e-07
0
0
0
0
0.0021605
0.000441233
0.00044495
0.000449194
0.000452589
0.000454706
0.000455317
0.000454074
0.000450865
0.000445836
0.000439293
0.000431532
0.00042268
0.000412781
0.000402231
0.000391063
0.000379276
0.000366803
0.000353718
0.000340076
0.000325991
0.000311536
0.000296778
0.000281745
0.000266551
0.00025138
0.000236412
0.000221781
0.000207716
0.000194308
0.000181646
0.000169664
0.000158464
0.000148082
0.00013877
0.000130168
0.000124591
0.000120477
0.000127255
0.000166776
0.000403534
0.000399415
0.000394687
0.000389049
0.000383487
0.000377498
0.000371161
0.000364777
0.000358208
0.00035154
0.00034473
0.00033779
0.000330735
0.000323417
0.000315859
0.000307987
0.000299984
0.00029188
0.000283821
0.00027567
0.000267491
0.000259539
0.000252043
0.000245181
0.000238888
0.000232912
0.000226853
0.000220463
0.000214907
0.000205506
0.000196167
0.000214217
0.000154812
3.47716e-05
0
0
0
0
0.00220342
0.00040701
0.00041
0.000413484
0.000416239
0.000417934
0.000418425
0.000417426
0.000414846
0.000410841
0.000405532
0.000399304
0.000392196
0.000384186
0.000375526
0.00036634
0.0003566
0.00034621
0.000335179
0.000323512
0.000311271
0.000298526
0.000285304
0.000271659
0.000257714
0.000243667
0.000229719
0.000216018
0.000202734
0.00018999
0.000177827
0.000166226
0.000155306
0.000145062
0.000135689
0.00012682
0.000120409
0.000115224
0.000119989
0.00015649
0.000373513
0.000370186
0.000366387
0.000361737
0.000357197
0.000352259
0.00034703
0.000341742
0.000336276
0.000330703
0.000325038
0.000319134
0.000313228
0.000307085
0.000300642
0.000293928
0.000287027
0.000279981
0.00027296
0.000265892
0.000258742
0.000251726
0.000245021
0.000238795
0.000233017
0.000227455
0.000221924
0.000216017
0.000210352
0.000204475
0.000193763
0.000195621
0.000205663
0.000134362
3.76554e-05
9.37464e-06
0
0
0.00228334
0.00037632
0.000378738
0.000381604
0.000383832
0.000385215
0.000385588
0.000384787
0.000382718
0.000379469
0.000375186
0.000370108
0.000364383
0.000357932
0.000350766
0.000343208
0.000335166
0.000326528
0.000317239
0.000307291
0.000296706
0.000285514
0.000273742
0.00026143
0.000248691
0.000235775
0.000222851
0.00021007
0.000197536
0.000185436
0.000173795
0.000162632
0.000151941
0.000141896
0.000132474
0.000123361
0.000116173
0.000109872
0.000112725
0.000146279
0.000346407
0.000343725
0.000340666
0.000336853
0.000333136
0.000329087
0.000324763
0.000320395
0.00031586
0.000311234
0.000306513
0.00030161
0.00029658
0.000291426
0.000286041
0.000280405
0.000274433
0.000268328
0.000262231
0.000256139
0.000249953
0.000243815
0.000237871
0.000232274
0.000227018
0.000221919
0.00021687
0.000211621
0.000206123
0.000201341
0.000194297
0.000187783
0.000201417
0.000209812
0.000149181
4.45873e-05
3.89649e-05
0
0.00239558
0.000348659
0.00035062
0.000353003
0.000354802
0.000355901
0.000356186
0.000355541
0.000353866
0.000351219
0.000347758
0.000343608
0.000338949
0.000333705
0.00032786
0.000321635
0.000314955
0.00030776
0.000299961
0.000291486
0.000282366
0.000272607
0.000262193
0.000251151
0.000239601
0.000227754
0.000215815
0.000203915
0.000192177
0.000180697
0.000169562
0.000158813
0.000148471
0.000138548
0.000129099
0.000119724
0.000111788
0.00010432
0.000105383
0.000136186
0.000321822
0.000319671
0.000317236
0.000314096
0.000311066
0.000307747
0.000304187
0.000300597
0.000296858
0.000293031
0.000289104
0.000285048
0.000280784
0.000276516
0.000272029
0.000267244
0.000262186
0.000256948
0.000251688
0.000246448
0.000241123
0.000235786
0.000230572
0.000225609
0.000220878
0.000216294
0.000211704
0.00020707
0.000202168
0.000197699
0.000193377
0.000187382
0.000192519
0.000218034
0.000225587
0.000201232
0.00017735
7.30442e-06
0.00248685
0.000323621
0.000325197
0.000327181
0.000328657
0.00032951
0.000329743
0.000329199
0.000327826
0.000325681
0.000322863
0.00031945
0.000315655
0.000311376
0.000306641
0.000301466
0.000295907
0.000289905
0.000283361
0.000276191
0.000268379
0.000259883
0.000250722
0.00024089
0.000230472
0.000219657
0.000208667
0.000197624
0.000186646
0.000175837
0.000165236
0.000154894
0.000144854
0.000135113
0.000125622
0.000116038
0.000107314
9.86542e-05
9.79503e-05
0.000126296
0.000299433
0.000297737
0.000295813
0.000293221
0.000290768
0.000288063
0.000285161
0.000282215
0.000279144
0.000275993
0.000272756
0.000269384
0.000265875
0.000262238
0.000258528
0.000254605
0.000250392
0.000245887
0.000241357
0.000236884
0.000232332
0.000227724
0.00022319
0.000218824
0.000214634
0.000210548
0.00020646
0.000202368
0.000198185
0.000194212
0.000191127
0.00018786
0.000190403
0.000210933
0.000232645
0.000260159
0.000313569
1.36942e-05
0.00244625
0.000300871
0.000302136
0.000303786
0.000304979
0.000305647
0.000305839
0.000305382
0.000304252
0.000302493
0.000300191
0.000297406
0.000294239
0.000290765
0.000286962
0.000282622
0.000277979
0.000272982
0.000267503
0.000261441
0.000254753
0.000247423
0.000239413
0.000230683
0.000221316
0.000211514
0.000201445
0.000191249
0.000181022
0.000170858
0.000160822
0.000150936
0.000141184
0.000131625
0.00012215
0.000112332
0.000102868
9.28966e-05
9.03412e-05
0.000116572
0.000278982
0.000277672
0.000276154
0.000274031
0.000272065
0.000269886
0.000267514
0.000265114
0.000262615
0.000260028
0.000257377
0.000254612
0.000251741
0.000248673
0.000245638
0.000242419
0.000238883
0.000235107
0.000231255
0.000227449
0.000223563
0.000219605
0.000215694
0.000211898
0.000208247
0.000204656
0.000201091
0.000197542
0.000194024
0.000190769
0.000188467
0.000187113
0.000191018
0.000206347
0.000222609
0.00026194
0.00035857
1.61735e-05
0.00222877
0.000280133
0.000281129
0.00028253
0.000283474
0.000283995
0.000284127
0.000283752
0.000282819
0.000281367
0.000279476
0.000277202
0.000274547
0.000271745
0.000268573
0.000265027
0.000261155
0.000256965
0.000252348
0.000247257
0.000241578
0.000235267
0.000228288
0.000220576
0.000212187
0.000203331
0.000194164
0.00018478
0.000175301
0.000165778
0.000156301
0.000146854
0.000137462
0.000128065
0.000118641
0.000108642
9.84624e-05
8.70484e-05
8.25115e-05
0.000107034
0.000260262
0.000259262
0.000258075
0.000256367
0.000254794
0.000253042
0.000251114
0.000249188
0.000247163
0.000245068
0.000242924
0.000240661
0.000238305
0.000235816
0.000233264
0.00023059
0.000227722
0.000224645
0.000221369
0.000218116
0.00021481
0.000211444
0.000208109
0.000204858
0.000201727
0.000198642
0.000195582
0.000192583
0.000189685
0.000187194
0.000185683
0.000185413
0.000190939
0.000204108
0.000214504
0.000262765
0.000344896
1.57108e-05
0.00182691
0.000261142
0.000261949
0.00026311
0.00026387
0.000264265
0.000264351
0.000264025
0.000263253
0.000262045
0.000260492
0.000258613
0.000256449
0.000254089
0.000251488
0.000248623
0.000245308
0.000241767
0.000237945
0.000233688
0.000228869
0.00022345
0.000217378
0.000210591
0.000203131
0.000195158
0.000186829
0.000178237
0.000169476
0.000160585
0.000151641
0.000142643
0.000133596
0.000124421
0.000115056
0.000104939
9.4049e-05
8.1146e-05
7.43297e-05
9.77303e-05
0.000243071
0.000242329
0.00024144
0.00024005
0.000238798
0.000237415
0.00023587
0.000234345
0.000232733
0.000231042
0.000229309
0.00022749
0.000225582
0.000223567
0.000221446
0.000219282
0.000216969
0.000214481
0.000211754
0.000209053
0.000206309
0.000203499
0.000200688
0.000197932
0.000195259
0.000192624
0.000190035
0.000187541
0.000185224
0.000183427
0.000182685
0.000183193
0.00018959
0.000201858
0.000209282
0.000264702
0.000315195
1.45749e-05
0.00108316
0.000243728
0.000244369
0.000245335
0.000245937
0.000246225
0.000246267
0.000245992
0.000245342
0.000244345
0.00024306
0.000241498
0.000239719
0.000237734
0.000235609
0.000233189
0.00023043
0.000227498
0.000224298
0.000220723
0.000216627
0.00021198
0.000206726
0.000200779
0.000194168
0.000187041
0.000179508
0.000171663
0.000163571
0.000155305
0.000146883
0.000138356
0.000129658
0.000120751
0.00011146
0.000101251
8.97212e-05
7.5302e-05
6.57486e-05
8.88136e-05
0.000227241
0.00022673
0.000226059
0.000224937
0.000223977
0.000222896
0.000221686
0.000220475
0.000219202
0.000217877
0.000216509
0.000215049
0.000213519
0.000211921
0.000210162
0.000208466
0.000206656
0.00020462
0.000202394
0.000200183
0.000197932
0.000195598
0.000193257
0.000190976
0.000188727
0.000186531
0.000184393
0.000182379
0.000180633
0.00017947
0.000179399
0.000180568
0.000187325
0.000198802
0.000204716
0.000261909
0.000300763
1.44073e-05
0
0.000227717
0.000228224
0.000229019
0.000229492
0.0002297
0.000229706
0.000229458
0.000228894
0.000228069
0.000226979
0.0002257
0.000224225
0.000222547
0.000220791
0.000218784
0.000216552
0.000214047
0.00021134
0.00020831
0.000204857
0.000200919
0.000196377
0.0001912
0.000185372
0.000178996
0.000172202
0.000165063
0.000157638
0.000149973
0.000142097
0.000134033
0.000125729
0.000117119
0.000107969
9.77337e-05
8.56987e-05
6.97465e-05
5.65238e-05
8.03845e-05
0.000212642
0.000212302
0.000211826
0.000210931
0.000210204
0.000209384
0.000208441
0.000207514
0.000206542
0.00020551
0.000204437
0.000203293
0.000202088
0.000200822
0.000199452
0.000198059
0.000196612
0.000195035
0.000193294
0.000191459
0.000189611
0.000187674
0.000185761
0.000183873
0.000182057
0.000180291
0.000178594
0.000177072
0.00017584
0.000175284
0.000175763
0.000177523
0.000184424
0.000195167
0.000200098
0.00025714
0.000294147
1.48143e-05
0
0.000212948
0.000213349
0.000214013
0.000214365
0.000214484
0.000214478
0.000214235
0.00021377
0.000213068
0.000212156
0.000211087
0.000209864
0.000208458
0.000206965
0.000205325
0.000203527
0.000201338
0.000199003
0.000196464
0.000193624
0.000190288
0.000186399
0.00018189
0.000176745
0.000171069
0.000164958
0.000158476
0.000151689
0.000144623
0.000137297
0.000129698
0.000121803
0.000113502
0.000104597
9.43891e-05
8.20326e-05
6.47335e-05
4.63075e-05
7.25645e-05
0.000199143
0.000198952
0.000198614
0.000197907
0.000197385
0.000196785
0.000196083
0.000195401
0.000194664
0.000193874
0.000193057
0.000192188
0.000191249
0.00019027
0.000189217
0.000188089
0.000186978
0.000185781
0.000184445
0.000182991
0.000181521
0.000179993
0.000178451
0.000176918
0.000175461
0.000174055
0.000172754
0.000171662
0.000170896
0.000170851
0.000171807
0.000174048
0.000181032
0.00019123
0.000195406
0.000251802
0.000286948
1.52992e-05
0
0.000199328
0.000199605
0.000200168
0.000200412
0.000200464
0.000200431
0.000200211
0.000199803
0.000199203
0.000198461
0.000197552
0.000196506
0.000195351
0.000194086
0.000192754
0.000191198
0.000189332
0.000187364
0.000185294
0.00018291
0.000180086
0.00017677
0.000172821
0.000168283
0.000163244
0.000157779
0.000151935
0.000145735
0.000139241
0.000132435
0.000125316
0.000117837
0.000109861
0.000101193
9.11585e-05
7.86825e-05
6.05044e-05
3.44111e-05
6.58565e-05
0.000186633
0.000186559
0.000186328
0.000185797
0.000185441
0.000185047
0.000184529
0.000184034
0.000183512
0.000182929
0.000182326
0.000181677
0.000180976
0.000180238
0.000179464
0.000178565
0.000177755
0.000176914
0.000175882
0.000174783
0.00017365
0.000172448
0.00017121
0.000170006
0.000168862
0.0001678
0.000166853
0.000166143
0.000165804
0.000166179
0.000167548
0.000170162
0.000177196
0.000187016
0.000190606
0.000246002
0.000279161
1.58252e-05
0
0.000186718
0.000186923
0.000187361
0.000187519
0.000187533
0.000187453
0.00018725
0.000186883
0.000186382
0.000185743
0.000184983
0.000184108
0.00018315
0.000182044
0.000180935
0.000179585
0.000178091
0.000176457
0.00017469
0.000172674
0.000170312
0.000167451
0.000164017
0.000160039
0.000155568
0.000150688
0.000145432
0.000139812
0.000133843
0.000127554
0.000120889
0.000113835
0.000106217
9.78169e-05
8.80731e-05
7.57022e-05
5.73698e-05
1.78775e-05
6.09262e-05
0.000175033
0.000175033
0.000174908
0.000174522
0.000174321
0.000174061
0.000173707
0.000173389
0.000173028
0.000172617
0.000172197
0.000171745
0.000171249
0.000170708
0.000170133
0.000169495
0.000168876
0.000168255
0.000167543
0.000166765
0.000165896
0.000164921
0.000163912
0.000162961
0.000162129
0.000161407
0.000160806
0.000160471
0.000160498
0.000161239
0.000162968
0.000165873
0.000172862
0.000182443
0.000185666
0.000239559
0.000271224
1.6357e-05
0
0.000175017
0.000175162
0.000175505
0.000175598
0.000175547
0.000175453
0.000175254
0.000174931
0.000174496
0.00017394
0.00017332
0.000172572
0.000171746
0.00017082
0.00016984
0.000168723
0.000167554
0.000166114
0.000164587
0.000162914
0.000160943
0.000158505
0.000155524
0.000152024
0.000148088
0.000143753
0.000139026
0.000133939
0.000128485
0.000122682
0.000116485
0.000109841
0.000102602
9.45593e-05
8.51614e-05
7.3182e-05
5.56466e-05
2.16942e-05
5.82508e-05
0.000164246
0.000164305
0.000164262
0.000164005
0.000163927
0.000163793
0.000163576
0.000163387
0.000163167
0.000162909
0.000162652
0.000162339
0.000162005
0.00016165
0.000161256
0.000160823
0.000160344
0.00015992
0.000159464
0.000158954
0.000158334
0.000157581
0.000156791
0.000156061
0.000155472
0.000155022
0.000154738
0.000154695
0.000155031
0.000156064
0.000158093
0.000161181
0.000168048
0.000177414
0.000180496
0.000232106
0.000262399
1.68178e-05
0
0.000164161
0.000164237
0.000164511
0.000164531
0.000164447
0.00016433
0.000164142
0.000163846
0.000163458
0.000162998
0.000162443
0.00016181
0.0001611
0.00016035
0.00015946
0.000158564
0.000157473
0.000156324
0.00015506
0.000153664
0.000152008
0.000149936
0.000147356
0.000144301
0.000140831
0.000136989
0.00013277
0.000128171
0.000123205
0.000117873
0.000112141
0.000105934
9.91368e-05
9.15077e-05
8.25977e-05
7.12915e-05
5.5339e-05
3.4164e-05
5.76553e-05
0.000154198
0.000154325
0.000154353
0.0001542
0.000154203
0.000154174
0.000154066
0.000153994
0.000153895
0.000153758
0.000153616
0.000153442
0.000153248
0.00015303
0.000152779
0.000152532
0.000152191
0.000151941
0.000151713
0.000151393
0.000151017
0.000150483
0.000149867
0.000149315
0.000148924
0.000148705
0.000148655
0.000148845
0.000149428
0.00015068
0.000152922
0.000156126
0.000162723
0.000172038
0.000174853
0.00022319
0.000252188
1.71384e-05
0
0.000154066
0.000154077
0.000154288
0.000154253
0.000154142
0.000154012
0.000153808
0.000153541
0.000153195
0.000152792
0.000152309
0.00015178
0.000151168
0.000150508
0.000149775
0.000148956
0.000148049
0.000147174
0.000146039
0.000144824
0.000143445
0.00014173
0.000139546
0.000136891
0.000133827
0.000130419
0.000126646
0.000122507
0.000118011
0.000113147
0.000107885
0.000102122
9.57663e-05
8.86343e-05
8.03161e-05
6.9905e-05
5.61115e-05
4.22568e-05
5.85253e-05
0.000144835
0.000145013
0.000145099
0.000145008
0.000145097
0.000145162
0.000145144
0.000145171
0.000145163
0.000145128
0.000145097
0.000145018
0.000144924
0.000144836
0.000144713
0.000144578
0.000144415
0.000144271
0.000144162
0.000144025
0.000143851
0.000143485
0.000142987
0.000142557
0.000142319
0.000142296
0.000142442
0.000142853
0.000143634
0.000145044
0.000147437
0.000150749
0.00015686
0.000166445
0.000168401
0.000212962
0.000241048
1.73243e-05
0
0.000144655
0.000144629
0.000144763
0.000144698
0.000144556
0.000144405
0.000144199
0.000143945
0.000143631
0.000143283
0.000142882
0.000142413
0.000141889
0.000141321
0.000140695
0.000139967
0.000139254
0.000138439
0.00013744
0.000136437