/*--------------------------------*- C++ -*----------------------------------*\
| =========                 |                                                 |
| \\      /  F ield         | OpenFOAM: The Open Source CFD Toolbox           |
|  \\    /   O peration     | Version:  2506                                  |
|   \\  /    A nd           | Website:  www.openfoam.com                      |
|    \\/     M anipulation  |                                                 |
\*---------------------------------------------------------------------------*/
FoamFile
{
    version     2.0;
    format      ascii;
    arch        "LSB;label=32;scalar=64";
    class       volScalarField;
    location    "50";
    object      turbulenceProperties:L;
}
// * * * * * * * * * * * * * * * * * * * * * * * * * * * * * * * * * * * * * //

dimensions      [0 1 0 0 0 0 0];

internalField   nonuniform List<scalar> 
10720
(
0.00221656
0.0020819
0.00195579
0.00183543
0.00174538
0.00167659
0.00163353
0.00162147
0.00164151
0.00169605
0.00178854
0.00192407
0.00210837
0.00235608
0.00267961
0.00310251
0.00367064
0.00443613
0.00556538
0.00708641
0.00997575
0.0138396
0.0246146
0.0452834
0.0562858
0.0638019
0.0778719
0.0848706
0.0996146
0.11381
0.128282
0.112991
0.100085
0.183938
0.0872957
0.0833016
0.0912502
0.0991896
0.0965464
0.00237826
0.00255074
0.00280813
0.00312693
0.00351822
0.00380221
0.00359184
0.00319063
0.00279039
0.00246751
0.00224332
0.00212016
0.0020914
0.00215148
0.00229512
0.00252324
0.00284534
0.00328083
0.00386809
0.00465247
0.00572785
0.00721325
0.00941028
0.0123605
0.0173045
0.0243391
0.0361096
0.0472761
0.0528828
0.0547641
0.0553383
0.0556133
0.0557916
0.055905
0.0559875
0.0560684
0.0561785
0.056424
0.0563112
0.00420914
0.00420804
0.00422697
0.00427877
0.00436301
0.00447403
0.0046219
0.00481109
0.00503218
0.00529163
0.00558556
0.00589516
0.00620784
0.0065195
0.00645515
0.00596505
0.00535623
0.00552283
0.00655423
0.00769645
0.00997359
0.0126171
0.0172285
0.0312745
0.0463156
0.0665214
0.0925779
0.122766
0.152887
0.177932
0.197013
0.215284
0.234835
0.238548
0.239143
0.234106
0.225104
0.201277
0.176569
0.00423393
0.00427397
0.00433967
0.00445272
0.00460666
0.00477425
0.00498441
0.00526709
0.00560645
0.00599633
0.00645121
0.00698097
0.00759536
0.00830287
0.00910351
0.00998751
0.0109779
0.0120911
0.0134522
0.0153115
0.0184422
0.0252651
0.039144
0.0635726
0.00919082
0.0139208
0.0335428
0.0745906
0.122864
0.16802
0.201191
0.218308
0.222925
0.221248
0.217516
0.213221
0.208637
0.197429
0.171392
0.00502945
0.00507371
0.00515262
0.0052705
0.00540883
0.00557847
0.00577612
0.00598243
0.00618857
0.00637493
0.0065291
0.00664492
0.00671971
0.00676282
0.00675475
0.00665993
0.0067691
0.00707198
0.00877344
0.00540581
0.00583232
0.0103806
0.0105845
0.0197742
0.0339654
0.0508138
0.0769316
0.111851
0.150657
0.190645
0.227887
0.267004
0.316432
0.336224
0.341997
0.341946
0.324366
0.290555
0.22975
0.00500007
0.00499241
0.00500767
0.00508402
0.00521317
0.00538342
0.00557709
0.00584908
0.00623011
0.00673369
0.00737717
0.00816692
0.00910773
0.0101996
0.0113776
0.012565
0.0136636
0.0146005
0.0153221
0.0158184
0.0161108
0.0161919
0.0160904
0.0158277
0.0155936
0.0154589
0.0157758
0.015915
0.0221629
0.057298
0.121311
0.194115
0.229108
0.242436
0.24977
0.255146
0.258129
0.269784
0.254674
0.0056378
0.00563929
0.0056581
0.00569098
0.00574572
0.00582522
0.00592666
0.00605681
0.00621529
0.00640428
0.00662655
0.00688299
0.00717416
0.00751004
0.0079036
0.00837958
0.00903801
0.00984557
0.0111366
0.013552
0.0742449
0.00846542
0.0165297
0.0157977
0.0735435
0.0313931
0.0537831
0.0867705
0.127526
0.172435
0.219824
0.270736
0.33441
0.383573
0.407311
0.409051
0.389389
0.351637
0.27297
0.00565698
0.00568621
0.00573844
0.0058316
0.00595466
0.00610795
0.00631113
0.00658727
0.00693637
0.00735205
0.00783142
0.00836691
0.00895454
0.00958929
0.0102525
0.0109353
0.0116172
0.012282
0.012901
0.0134755
0.0140022
0.0145119
0.0150572
0.0157655
0.01665
0.0174982
0.0182213
0.0186953
0.0201319
0.0209453
0.131478
0.0292834
0.0636811
0.22325
0.249961
0.244436
0.252774
0.256422
0.249416
0.00642073
0.00643569
0.00646805
0.00652426
0.00660526
0.00671561
0.00685683
0.00703313
0.00724572
0.00749216
0.00777007
0.00807349
0.00839337
0.00871824
0.00903813
0.0093252
0.00957186
0.00984586
0.0102659
0.0107818
0.0129214
0.0209399
0.115186
0
0.358119
0.0240609
0.0881997
0.0534757
0.0984306
0.147159
0.197591
0.252919
0.324084
0.395695
0.440054
0.451093
0.435226
0.400186
0.313442
0.0064266
0.00644516
0.00649028
0.00658332
0.00670527
0.0068575
0.00705458
0.00731664
0.00764605
0.00804834
0.00853483
0.00911351
0.00979374
0.0105849
0.0114867
0.0124927
0.0135813
0.0147162
0.0158359
0.0168843
0.017807
0.0185881
0.0192487
0.0199268
0.0207596
0.0216927
0.0224681
0.0229565
0.0230864
0.0233869
0.0229482
0.0607811
0.0221423
0.0339723
0.0734848
0.0310935
0.100506
0.119751
0.194443
0.00716363
0.00716116
0.00717218
0.00719959
0.00724547
0.00731254
0.00740277
0.00752068
0.0076676
0.00784438
0.00805419
0.00829875
0.00858044
0.00890417
0.00927589
0.00969854
0.0102103
0.010893
0.0117704
0.0128843
0.0141083
0.0157131
0.0225203
0.140109
0
0
0
0.0555673
0.0584215
0.11845
0.172585
0.227987
0.301435
0.387834
0.45158
0.475682
0.46753
0.439762
0.351565
0.00718547
0.00721671
0.00727112
0.00736981
0.00749009
0.00763969
0.00783458
0.00808862
0.00840202
0.00877829
0.00922379
0.00973968
0.0103252
0.0109787
0.0116913
0.0124476
0.0132275
0.0140081
0.0147655
0.015484
0.016161
0.016819
0.0175064
0.018331
0.0193915
0.0206231
0.0218844
0.0230827
0.0242129
0.0253271
0.0266726
0.0287821
0.0337832
0.0434285
0.306089
0.0467915
0.0597219
0.0654653
0.0968193
0.00796132
0.0079557
0.0079614
0.00798436
0.00802542
0.00808862
0.00817702
0.00829529
0.00844618
0.00863085
0.00885262
0.00911392
0.00941575
0.00976139
0.0101517
0.0105905
0.011068
0.0115668
0.0121257
0.0128351
0.0137466
0.0148204
0.0156807
0.0238598
0.145226
0
0
0
0.0309637
0.0661613
0.146394
0.203018
0.275851
0.368242
0.446879
0.485388
0.488075
0.470823
0.386716
0.00798745
0.00802237
0.00807993
0.00818229
0.00830098
0.0084497
0.00864253
0.00888748
0.00918473
0.00953902
0.00995729
0.0104437
0.0110023
0.0116371
0.0123486
0.0131322
0.0139788
0.0148733
0.0157933
0.0167158
0.0176188
0.0184965
0.0193759
0.0203545
0.0215579
0.0229954
0.024556
0.0261323
0.0276483
0.0289809
0.0299013
0.030249
0.0305834
0.03193
0.0339088
0.106248
0.325245
0
0.0496478
0.00877929
0.00876421
0.00875688
0.00876644
0.0087899
0.00883278
0.00889796
0.00898892
0.00910853
0.00925758
0.00944038
0.00965919
0.00991679
0.0102182
0.0105686
0.0109748
0.0114431
0.0120152
0.0127288
0.0135966
0.0145894
0.0156958
0.0162973
0.016977
0.0227024
0.14338
9.63748
0
0
0.0190874
0.0285266
0.175981
0.252697
0.345062
0.430922
0.482139
0.497534
0.493074
0.417384
0.00881418
0.00885625
0.00891858
0.00902534
0.00914296
0.00929097
0.0094818
0.00971943
0.0100031
0.0103373
0.0107285
0.0111802
0.0116947
0.0122749
0.0129209
0.0136253
0.0143779
0.0151633
0.0159616
0.0167542
0.0175305
0.0182967
0.0190896
0.0199972
0.0211194
0.0224686
0.0239865
0.0256266
0.0273984
0.0293374
0.0314421
0.0337628
0.0363282
0.0390858
0.0415952
0.048033
0.0580558
0.276037
0
0.00963407
0.00961179
0.00959386
0.00959484
0.00960753
0.00963768
0.0096904
0.00976848
0.00987479
0.0100118
0.010183
0.0103915
0.0106412
0.0109367
0.0112828
0.0116868
0.0121556
0.0126951
0.0133127
0.0140367
0.0148852
0.0158382
0.0167679
0.0170925
0.017521
0.0215501
1.04549
13.8796
0
0
0.127358
0.261919
0.231739
0.325551
0.411045
0.469439
0.497237
0.506927
0.442839
0.00967515
0.0097235
0.00978909
0.00989941
0.0100171
0.0101654
0.0103538
0.0105837
0.0108552
0.011171
0.0115377
0.0119586
0.0124367
0.0129772
0.013582
0.0142482
0.0149701
0.0157386
0.0165407
0.0173628
0.0181944
0.0190418
0.0199336
0.0209425
0.0221571
0.0236058
0.0252366
0.0269882
0.0288325
0.030753
0.0326859
0.0344716
0.0360585
0.037395
0.0385442
0.0389272
0.0387185
0.0381562
0.420213
0.0105213
0.0104914
0.0104628
0.0104515
0.0104531
0.0104697
0.0105055
0.0105657
0.0106522
0.0107669
0.0109147
0.0110983
0.0113203
0.0115863
0.0119017
0.0122744
0.0127103
0.0132222
0.0138407
0.0145763
0.0154201
0.0163093
0.0171784
0.0178615
0.0180341
0.0183048
0.0220041
2.3292
17.5922
0
0
0.0349564
0.228146
0.317285
0.396363
0.454201
0.490922
0.51441
0.463675
0.0105707
0.0106256
0.0106945
0.0108076
0.0109271
0.0110754
0.0112614
0.0114839
0.0117433
0.0120431
0.0123877
0.0127792
0.0132228
0.0137228
0.0142824
0.0148998
0.0155716
0.0162894
0.0170436
0.0178236
0.0186227
0.0194461
0.0203221
0.0213067
0.0224732
0.023853
0.0254096
0.0270972
0.0289197
0.0308849
0.0330189
0.0352919
0.0377205
0.0401707
0.0427208
0.043789
0.0455007
0.0354922
0.0600506
0.0114468
0.0114087
0.0113696
0.0113488
0.0113382
0.0113412
0.011366
0.0114119
0.0114813
0.0115793
0.0117102
0.0118763
0.0120809
0.0123293
0.0126272
0.0129818
0.0134022
0.0138944
0.0144726
0.0151461
0.015914
0.0167413
0.0175408
0.0182787
0.0188874
0.0191597
0.0191607
0.0233891
2.7259
18.3853
0
0
0.144125
0.356808
0.400149
0.448188
0.486605
0.520487
0.481204
0.011504
0.0115656
0.0116373
0.0117526
0.0118749
0.0120238
0.0122066
0.0124226
0.0126706
0.0129542
0.0132785
0.0136442
0.0140553
0.0145177
0.0150365
0.0156115
0.0162419
0.016923
0.0176485
0.0184124
0.0192118
0.0200522
0.0209574
0.0219742
0.0231635
0.0245545
0.0261317
0.0278542
0.0297166
0.0317267
0.033875
0.0360891
0.0383091
0.0403643
0.0422021
0.0426675
0.0432674
0.0367713
0.0334077
0.0124122
0.0123658
0.0123162
0.0122853
0.0122627
0.0122527
0.0122622
0.0122925
0.0123478
0.0124293
0.0125388
0.012685
0.0128692
0.013095
0.0133688
0.0136978
0.0140902
0.0145503
0.0150969
0.0157404
0.0164709
0.0172562
0.0180205
0.0187152
0.0194057
0.0201065
0.0204466
0.0204593
0.0262581
3.17631
0.255888
0
0.0324278
0.251929
0.48244
0.4756
0.500976
0.534702
0.490993
0.0124768
0.0125461
0.0126207
0.0127378
0.012862
0.0130134
0.0131934
0.0134015
0.0136389
0.0139076
0.0142127
0.0145548
0.0149357
0.015364
0.0158436
0.0163768
0.0169647
0.0176061
0.0182973
0.0190336
0.0198135
0.0206437
0.021547
0.0225619
0.0237359
0.0250995
0.0266449
0.0283468
0.0301948
0.0322091
0.0343894
0.0367165
0.0391648
0.0415713
0.0439105
0.044856
0.0453927
0.0402105
0.0311894
0.0134207
0.0133658
0.0133055
0.0132647
0.0132308
0.0132078
0.0132031
0.0132194
0.0132576
0.0133222
0.0134162
0.0135422
0.0137081
0.0139141
0.0141676
0.0144742
0.0148426
0.0152759
0.0157876
0.0163867
0.0170659
0.0177988
0.0185328
0.019214
0.0198817
0.0206469
0.0215047
0.0219598
0.0220805
0.0293226
0.289953
0
0
0.0995089
0.327684
0.591433
0.571363
0.575701
0.465825
0.0134923
0.0135691
0.0136468
0.0137659
0.0138926
0.0140444
0.0142238
0.014426
0.0146512
0.0149051
0.0151925
0.015513
0.0158677
0.0162631
0.016706
0.0172007
0.0177501
0.0183543
0.0190125
0.0197227
0.0204868
0.0213125
0.0222199
0.0232425
0.0244189
0.0257767
0.0273181
0.0290241
0.0308898
0.0329196
0.0351292
0.0374838
0.0399438
0.0423262
0.0446694
0.0457238
0.046377
0.0423491
0.032415
0.0144748
0.0144122
0.0143409
0.0142898
0.0142439
0.0142082
0.0141897
0.0141905
0.0142146
0.0142606
0.0143371
0.0144458
0.0145897
0.0147756
0.0150077
0.0152898
0.015631
0.0160339
0.0165083
0.0170672
0.017703
0.0183908
0.0190897
0.0197592
0.0204152
0.0211498
0.0220292
0.0230966
0.0237451
0.0234296
0.041297
5.04606
0
0.0182602
0.0590818
0.188434
0.279166
0.34441
0.246253
0.0145537
0.0146381
0.0147191
0.0148397
0.0149695
0.0151223
0.0152992
0.0154979
0.0157129
0.0159507
0.0162211
0.0165209
0.0168515
0.017217
0.0176265
0.0180846
0.0185967
0.019165
0.0197894
0.0204711
0.0212149
0.0220294
0.0229324
0.0239516
0.0251189
0.0264631
0.0279875
0.0296828
0.0315409
0.0335783
0.0358109
0.0382186
0.0407694
0.0433406
0.0459534
0.0474121
0.0484641
0.0446987
0.034299
0.0155782
0.0155077
0.0154252
0.0153637
0.0153054
0.0152561
0.0152247
0.0152109
0.0152191
0.0152506
0.015308
0.0153966
0.015518
0.0156846
0.0158958
0.0161552
0.0164675
0.0168408
0.0172786
0.0177943
0.0183842
0.0190271
0.0196894
0.0203418
0.0209925
0.0217086
0.022538
0.0235493
0.0251351
0.0247564
0.025925
0.25269
0
0
0.0322411
0.0937089
0.0727103
0.109398
0.140363
0.0156644
0.0157557
0.0158412
0.0159632
0.016096
0.0162501
0.016425
0.0166174
0.016826
0.01705
0.0172992
0.0175816
0.0178896
0.0182294
0.0186079
0.0190312
0.0195077
0.0200412
0.0206336
0.0212876
0.0220094
0.0228082
0.0237028
0.02472
0.0258832
0.0272176
0.0287312
0.0304231
0.0322863
0.0343422
0.0365966
0.0390481
0.0416614
0.0443222
0.04707
0.0487724
0.0500874
0.0468224
0.0362115
0.0167338
0.0166553
0.0165608
0.0164886
0.0164183
0.0163557
0.0163102
0.0162824
0.0162738
0.0162908
0.0163289
0.0163968
0.0165001
0.0166433
0.0168333
0.0170689
0.0173551
0.0176984
0.0181012
0.0185762
0.0191229
0.019722
0.0203481
0.0209767
0.0216153
0.0223145
0.0231322
0.0240337
0.025443
0.0269487
0.0254834
0.0378585
2.74079
0
0
0
0.0381409
0.0570413
0.0604462
0.0168274
0.016926
0.0170155
0.0171399
0.0172758
0.0174306
0.017604
0.0177911
0.0179929
0.0182046
0.0184366
0.0186974
0.0189845
0.0193014
0.0196514
0.020044
0.0204874
0.0209875
0.021547
0.0221719
0.0228699
0.0236514
0.0245353
0.0255441
0.0266982
0.0280193
0.0295194
0.0312018
0.0330668
0.0351271
0.0373995
0.039898
0.0425913
0.0453851
0.0483682
0.0504376
0.0521886
0.049335
0.0382373
0.0179465
0.0178579
0.017752
0.017669
0.0175861
0.0175096
0.0174506
0.0174073
0.0173837
0.0173817
0.0174063
0.0174534
0.0175344
0.0176572
0.0178236
0.0180354
0.0182968
0.0186113
0.0189793
0.0194148
0.0199186
0.0204749
0.021064
0.0216674
0.0222894
0.0229682
0.0237664
0.0246712
0.0257132
0.0277619
0.0276889
0.0274342
1.96993
0.773432
0
0
0
0
0.0679613
0.018046
0.0181516
0.0182455
0.0183732
0.0185132
0.0186688
0.0188399
0.0190222
0.0192155
0.0194185
0.0196335
0.0198711
0.020142
0.0204367
0.020762
0.0211249
0.0215369
0.0220035
0.022532
0.0231275
0.0237999
0.0245621
0.0254334
0.026432
0.0275753
0.0288815
0.0303695
0.0320397
0.0339037
0.0359681
0.0382666
0.0407965
0.0435612
0.0464814
0.0496692
0.0521447
0.0544118
0.0521151
0.0404904
0.0192186
0.0191202
0.0190023
0.0189074
0.0188119
0.0187211
0.0186485
0.0185899
0.0185499
0.0185309
0.0185374
0.0185693
0.0186287
0.0187265
0.0188649
0.0190547
0.0192905
0.0195765
0.0199093
0.0203045
0.0207661
0.0212812
0.0218339
0.0224089
0.0230118
0.0236706
0.0244347
0.0253454
0.0262888
0.0278261
0.0295708
0.0280726
0.0389862
0.344096
0
0
0
0
0.0755868
0.0193257
0.0194376
0.0195359
0.0196679
0.0198115
0.019968
0.0201374
0.0203151
0.0204987
0.0206933
0.0208937
0.0211123
0.0213623
0.0216384
0.0219411
0.0222771
0.0226589
0.0230941
0.0235918
0.0241596
0.0248064
0.0255483
0.0264031
0.0273879
0.0285185
0.029811
0.0312815
0.0329394
0.0347935
0.036864
0.0391824
0.0417497
0.0445873
0.0476501
0.0510829
0.0540414
0.0569408
0.0552656
0.043045
0.0205545
0.020446
0.0203145
0.0202085
0.020099
0.0199946
0.0199067
0.0198325
0.0197766
0.0197414
0.0197282
0.0197457
0.019783
0.0198551
0.0199706
0.0201325
0.0203409
0.0205986
0.0208996
0.0212543
0.0216738
0.0221471
0.0226626
0.0232068
0.0237838
0.0244215
0.025149
0.0260236
0.0269904
0.0281068
0.0300366
0.030325
0.0295352
0.0485295
0.338278
2.9571
0
0
0.0826412
0.0206694
0.0207873
0.0208907
0.021028
0.021174
0.0213327
0.0215001
0.0216723
0.0218491
0.0220329
0.0222226
0.0224236
0.0226507
0.022912
0.0231931
0.0235037
0.0238568
0.0242633
0.0247322
0.0252722
0.0258948
0.0266151
0.0274518
0.0284227
0.029537
0.0308126
0.0322659
0.0339167
0.0357674
0.0378439
0.0401754
0.0428004
0.0457056
0.0489236
0.0526219
0.0561009
0.0597643
0.0588193
0.0459415
0.021958
0.0218391
0.0216944
0.0215757
0.0214528
0.0213334
0.0212309
0.0211409
0.0210686
0.0210157
0.0209843
0.02098
0.0210019
0.021051
0.0211376
0.0212667
0.0214514
0.0216818
0.0219523
0.0222677
0.0226437
0.0230746
0.0235515
0.0240626
0.0246109
0.0252207
0.0259137
0.0267295
0.0276885
0.0286737
0.0300893
0.0315786
0.0301118
0.0291859
0.0453113
0.284831
0.38397
0
0.086907
0.0220819
0.0222058
0.0223132
0.0224564
0.0226069
0.0227675
0.022933
0.0231004
0.0232705
0.0234433
0.0236224
0.023809
0.0240176
0.0242576
0.0245183
0.0248083
0.0251362
0.025515
0.0259578
0.0264715
0.0270676
0.0277645
0.0285812
0.0295336
0.0306337
0.0318944
0.0333344
0.0349707
0.0368235
0.0389135
0.0412699
0.0439298
0.0469365
0.0503231
0.0543298
0.0583932
0.0629961
0.0629068
0.0492363
0.0234343
0.0233042
0.0231446
0.023014
0.0228773
0.0227429
0.022625
0.022518
0.0224283
0.0223574
0.0223081
0.0222822
0.0222882
0.0223117
0.02237
0.0224748
0.0226287
0.0228299
0.0230696
0.0233486
0.023683
0.0240727
0.0245093
0.0249833
0.0254999
0.0260738
0.0267323
0.0274899
0.0283862
0.0293349
0.0303666
0.0317545
0.0314154
0.02835
0.0278193
0.0329409
0.0419046
5.42943
0.0873234
0.0235677
0.0236987
0.0238106
0.0239582
0.0241145
0.024276
0.0244411
0.0246048
0.0247669
0.0249299
0.0250995
0.025272
0.0254638
0.0256803
0.0259253
0.0261966
0.0265023
0.0268558
0.0272707
0.0277566
0.028329
0.0290014
0.0297948
0.0307269
0.0318113
0.0330577
0.0344851
0.036112
0.0379579
0.0400571
0.0424436
0.0451579
0.048259
0.0518397
0.0561687
0.0609217
0.0666664
0.0676679
0.0529811
0.0249889
0.0248456
0.0246706
0.0245287
0.0243769
0.0242269
0.0240914
0.0239679
0.0238605
0.0237712
0.0237027
0.0236581
0.0236398
0.0236485
0.0236796
0.0237493
0.0238681
0.0240431
0.0242542
0.0244969
0.0247908
0.0251401
0.0255361
0.0259729
0.0264525
0.0269894
0.027605
0.0283091
0.0291222
0.0300067
0.0308545
0.0318045
0.0318458
0.029314
0.0271744
0.0252022
0.0221124
2.11855
0.0845641
0.0251314
0.0252697
0.0253867
0.0255402
0.0257016
0.0258635
0.0260282
0.0261882
0.026344
0.0264977
0.0266553
0.0268203
0.0269945
0.027185
0.0274183
0.0276737
0.0279578
0.0282868
0.0286761
0.0291372
0.0296818
0.0303276
0.0310988
0.0320122
0.0330764
0.0343065
0.0357187
0.0373348
0.0391785
0.0412803
0.0436868
0.0464643
0.0496698
0.05344
0.058138
0.063652
0.0708528
0.0733534
0.057289
0.0266267
0.0264684
0.0262787
0.026124
0.0259559
0.0257885
0.0256368
0.0254961
0.0253695
0.0252624
0.0251742
0.0251084
0.0250664
0.0250578
0.0250613
0.0250991
0.0251899
0.0253314
0.0255112
0.0257201
0.0259771
0.026288
0.0266441
0.0270419
0.0274806
0.0279769
0.0285431
0.0291893
0.0299203
0.0307046
0.0314272
0.032063
0.031875
0.0300441
0.0284748
0.0251899
0.0202922
1.63011
0.0776203
0.0267776
0.0269249
0.0270443
0.0272058
0.0273723
0.0275373
0.0277001
0.0278566
0.0280067
0.028152
0.0282977
0.0284559
0.028611
0.0287904
0.0290015
0.0292408
0.029508
0.0298184
0.0301805
0.0306138
0.031132
0.0317519
0.0324998
0.0333943
0.0344395
0.0356495
0.0370475
0.03865
0.0404907
0.0425974
0.0450316
0.0478566
0.0511847
0.0551504
0.0602322
0.0666011
0.0756709
0.0802996
0.0622835
0.0283509
0.0281777
0.0279736
0.0278031
0.0276193
0.0274351
0.0272672
0.0271069
0.0269617
0.0268349
0.0267254
0.0266397
0.0265769
0.0265416
0.0265271
0.0265413
0.0265959
0.0266965
0.0268477
0.0270278
0.0272505
0.0275228
0.0278387
0.0281952
0.0285909
0.0290406
0.0295554
0.0301372
0.0307867
0.031457
0.0320467
0.0324918
0.032028
0.0304976
0.0296616
0.0252744
0.0209434
1.67224
0.0630873
0.0285146
0.0286676
0.0287931
0.0289606
0.0291328
0.0293007
0.029464
0.0296168
0.0297622
0.0298989
0.0300354
0.0301793
0.0303276
0.0304913
0.030677
0.0309112
0.0311664
0.0314506
0.0317856
0.0321933
0.0326861
0.0332824
0.0340073
0.0348785
0.035905
0.0370982
0.0384794
0.0400706
0.0419084
0.0440276
0.0464912
0.0493767
0.0528201
0.0570012
0.0624803
0.0698305
0.0812366
0.0891241
0.068103
0.0301683
0.0299793
0.029757
0.0295735
0.0293746
0.0291715
0.0289856
0.028805
0.028639
0.0284932
0.0283644
0.0282563
0.0281714
0.0281115
0.0280778
0.0280632
0.0280836
0.0281456
0.0282634
0.028407
0.0285893
0.0288199
0.0290947
0.0294098
0.0297648
0.0301706
0.0306328
0.0311513
0.0317181
0.0322773
0.0327306
0.0330289
0.0323956
0.0309717
0.0305288
0.0252987
0.022465
1.83885
0.0360884
0.0303452
0.0305054
0.0306366
0.0308111
0.0309897
0.0311616
0.0313239
0.0314744
0.0316138
0.0317431
0.0318717
0.0320034
0.0321446
0.0322914
0.0324689
0.0326869
0.0329216
0.0331868
0.0334993
0.0338848
0.0343542
0.0349253
0.0356263
0.0364751
0.0374779
0.0386524
0.0400185
0.0416035
0.0434376
0.0455724
0.0480609
0.0510121
0.0545627
0.0589751
0.064882
0.0733067
0.0876074
0.100743
0.0748334
0.032085
0.0318767
0.0316397
0.0314427
0.0312248
0.0310032
0.0307968
0.0305982
0.0304123
0.0302436
0.0300926
0.0299643
0.0298573
0.029771
0.0297189
0.0296715
0.0296535
0.0296856
0.0297676
0.0298747
0.0300177
0.0302098
0.0304439
0.030714
0.0310275
0.0313848
0.0317919
0.0322445
0.0327224
0.0331717
0.0334967
0.0336617
0.0329296
0.0315811
0.0313375
0.0257076
0.0234838
1.84472
0
0.0322754
0.0324425
0.0325806
0.0327621
0.0329464
0.0331225
0.0332861
0.0334367
0.0335702
0.0336962
0.0338138
0.0339357
0.0340705
0.034205
0.0343683
0.0345599
0.0347876
0.03504
0.0353368
0.0356974
0.0361374
0.0366854
0.0373597
0.0381831
0.0391682
0.040325
0.0416765
0.0432497
0.0450816
0.0472225
0.0497379
0.0527408
0.0563928
0.061018
0.0673453
0.0768582
0.0946572
0.117174
0.0825767
0.0341058
0.0338806
0.0336256
0.0334144
0.0331783
0.0329363
0.0327109
0.0324909
0.0322816
0.0320921
0.0319204
0.0317696
0.0316395
0.03153
0.0314475
0.0313813
0.0313365
0.0313288
0.0313671
0.0314456
0.0315545
0.0317127
0.0319056
0.032137
0.0324012
0.0327054
0.0330524
0.0334293
0.0338202
0.0341551
0.0343643
0.0343992
0.0335946
0.032302
0.032187
0.0262845
0.0240995
1.75117
0
0.0343135
0.0344872
0.0346305
0.0348215
0.0350156
0.0351933
0.0353612
0.0355077
0.0356385
0.0357588
0.0358694
0.0359816
0.036108
0.0362369
0.0363831
0.0365487
0.0367781
0.0370269
0.0373042
0.0376286
0.0380415
0.038561
0.0392115
0.0400154
0.0409799
0.0421205
0.0434589
0.0450196
0.0468437
0.0489854
0.0515256
0.054575
0.0583291
0.0631235
0.0698629
0.0804082
0.102067
0.143021
0.0913789
0.0362383
0.0359937
0.0357244
0.035499
0.0352422
0.0349787
0.0347307
0.0344871
0.034257
0.0340467
0.0338527
0.0336776
0.0335256
0.0333915
0.0332809
0.0331953
0.0331191
0.0330731
0.0330697
0.0331104
0.033181
0.0332949
0.0334481
0.0336398
0.0338601
0.0341163
0.0344037
0.0347081
0.0350119
0.03524
0.0353378
0.0352528
0.0343755
0.0331009
0.0330841
0.0269262
0.0247641
1.65664
0
0.0364609
0.0366479
0.0367947
0.0369971
0.0372005
0.0373832
0.0375526
0.0376992
0.037828
0.0379384
0.0380449
0.0381537
0.0382672
0.0383899
0.0385176
0.0386819
0.0389033
0.0391388
0.0393856
0.0396875
0.0400754
0.040566
0.0412006
0.0419875
0.0429328
0.0440537
0.0453732
0.0469263
0.0487438
0.0508913
0.0534498
0.0565451
0.0604005
0.0653867
0.0724718
0.08395
0.109287
0.192474
0.1006
0.0384907
0.0382267
0.0379441
0.0377001
0.0374227
0.0371325
0.0368644
0.0366
0.0363451
0.0361126
0.035896
0.0356981
0.0355218
0.0353631
0.0352216
0.0351157
0.0350055
0.0349141
0.0348777
0.0348764
0.0349075
0.0349834
0.0351019
0.0352517
0.0354293
0.0356327
0.0358603
0.036093
0.0363075
0.0364368
0.0364256
0.0362304
0.0352747
0.0339813
0.0340378
0.0276343
0.0254759
1.56698
0
0.0387288
0.0389235
0.0390821
0.0392959
0.0395055
0.0396989
0.0398701
0.0400192
0.0401429
0.0402514
0.0403511
0.0404521
0.0405548
0.0406789
0.0407959
0.0409596
0.0411505
0.0413671
0.041605
0.0418902
0.0422483
0.0427211
0.0433365
0.0441023
0.0450318
0.0461351
0.0474376
0.048975
0.0507927
0.052942
0.0555259
0.0586638
0.062611
0.0677833
0.0751458
0.0873768
0.115352
0.37052
0.108669
0.0408673
0.0405883
0.0402879
0.0400252
0.0397223
0.0394122
0.0391215
0.0388308
0.0385541
0.0382995
0.0380587
0.0378352
0.0376324
0.03745
0.0372853
0.0371452
0.0370136
0.0368951
0.0368133
0.0367661
0.0367635
0.0368139
0.0369061
0.0370227
0.0371505
0.0372935
0.0374545
0.0376068
0.037735
0.037766
0.0376459
0.037345
0.0363166
0.034967
0.035058
0.0284411
0.0262133
1.48399
0
0.0411264
0.0413291
0.0414976
0.0417219
0.0419463
0.042145
0.0423215
0.0424706
0.0425935
0.0427015
0.0427905
0.0428876
0.0429881
0.0431029
0.0432236
0.0433732
0.0435289
0.0437491
0.0439839
0.0442458
0.0445757
0.0450238
0.04562
0.046372
0.0472788
0.0483611
0.0496507
0.0511758
0.0529878
0.055142
0.0577401
0.0609247
0.0649526
0.0702574
0.0778501
0.0905086
0.119023
0.305394
0.113607
0.0433795
0.0430853
0.0427673
0.042483
0.0421548
0.0418209
0.0415059
0.0411929
0.040892
0.0406122
0.0403444
0.0401004
0.0398733
0.0396618
0.0394703
0.0392989
0.039151
0.0390031
0.0388786
0.038786
0.0387441
0.0387635
0.0388253
0.0389086
0.0389937
0.0390826
0.0391731
0.0392545
0.0392988
0.0392373
0.0390088
0.0386145
0.0375159
0.03609
0.0361687
0.0294051
0.0270539
1.41299
0
0.0436569
0.0438731
0.0440495
0.0442899
0.0445246
0.0447323
0.0449121
0.0450647
0.0451895
0.0452899
0.0453822
0.0454739
0.0455714
0.0456697
0.0458009
0.0459282
0.0461053
0.0462941
0.0465084
0.0467508
0.0470587
0.047483
0.0480594
0.0487908
0.0496797
0.0507417
0.0520102
0.0535246
0.0553283
0.057483
0.0600864
0.0632954
0.0673567
0.0727381
0.0804014
0.093033
0.119786
0.193982
0.114749
0.0460366
0.0457207
0.0453834
0.0450775
0.0447288
0.0443693
0.044031
0.0436917
0.043365
0.0430604
0.0427702
0.0424995
0.0422459
0.04201
0.0417931
0.0415865
0.041417
0.0412369
0.0410651
0.0409374
0.0408478
0.040829
0.0408653
0.0409192
0.0409649
0.0410003
0.0410312
0.041046
0.0410112
0.0408637
0.0405353
0.0400504
0.0389024
0.0373487
0.037432
0.0306058
0.0280772
1.35711
0
0.0463309
0.046564
0.0467495
0.0470058
0.0472512
0.047467
0.0476586
0.0478131
0.0479392
0.0480396
0.0481313
0.048215
0.0483097
0.0484099
0.048527
0.0486666
0.0488301
0.0489757
0.0492004
0.0494424
0.0497267
0.050113
0.0506539
0.0513619
0.0522371
0.0532824
0.0545366
0.0560372
0.0578258
0.0599688
0.0625606
0.0657779
0.069858
0.0752319
0.0828197
0.0950029
0.118241
0.15689
0.113034
0.0488455
0.0485077
0.0481502
0.0478299
0.0474534
0.0470651
0.0467025
0.0463349
0.045984
0.0456538
0.0453357
0.0450431
0.0447676
0.0445013
0.0442564
0.0440264
0.0438165
0.0436151
0.0434179
0.0432479
0.0431116
0.04306
0.0430801
0.0431144
0.0431258
0.0431082
0.0430803
0.0430212
0.0429092
0.0426812
0.0422543
0.0416681
0.0405133
0.0387354
0.0389502
0.0320754
0.0292907
1.31146
0
0.0491613
0.0494063
0.0496099
0.0498772
0.0501376
0.0503658
0.0505663
0.0507275
0.0508572
0.0509553
0.0510388
0.0511245
0.0512154
0.051312
0.0514241
0.0515687
0.0517032
0.051868
0.0520963
0.0523169
0.0525544
0.0529037
0.0534215
0.0541095
0.0549702
0.0560067
0.0572407
0.0587181
0.060482
0.0626161
0.0651958
0.0683845
0.0724639
0.077763
0.0851384
0.0965383
0.115775
0.137898
0.110045
0.0518224
0.0514621
0.051082
0.0507395
0.0503315
0.0499198
0.0495275
0.0491348
0.0487586
0.0484014
0.0480603
0.0477399
0.0474354
0.0471467
0.0468743
0.0466183
0.0463773
0.0461561
0.0459349
0.0457273
0.0455505
0.0454597
0.0454599
0.0454739
0.0454552
0.0453957
0.0453097
0.0451913
0.0450046
0.0447001
0.0441825
0.0434966
0.0423498
0.0403421
0.0406934
0.0337466
0.0307539
1.27903
0
0.0521556
0.0524137
0.0526283
0.0529191
0.0531937
0.0534369
0.0536456
0.0538123
0.0539408
0.0540393
0.0541311
0.0542151
0.0543025
0.0544002
0.0545102
0.054658
0.0547846
0.0549676
0.055145
0.0553376
0.0555735
0.0559055
0.0563823
0.0570506
0.0578959
0.0589096
0.0601199
0.0615692
0.0633118
0.0654151
0.0679848
0.0711413
0.0751583
0.0803318
0.0873908
0.0977429
0.113193
0.126716
0.107132
0.0549695
0.0545802
0.0541843
0.0538157
0.0533816
0.0529382
0.0525199
0.0521014
0.0516963
0.0513146
0.0509503
0.0506039
0.0502718
0.0499553
0.0496573
0.0493761
0.0491005
0.0488639
0.0486112
0.0483545
0.0481433
0.0480126
0.0479862
0.0479904
0.04795
0.0478574
0.0477312
0.0475561
0.0473061
0.0469338
0.0463458
0.0455621
0.0444132
0.0422532
0.0425295
0.0356354
0.032464
0.761636
0
0.0553231
0.0556033
0.0558264
0.0561348
0.0564336
0.0566863
0.0569016
0.0570808
0.0572111
0.0573182
0.057409
0.0574947
0.0575907
0.0576889
0.0578029
0.0579409
0.0580758
0.058243
0.0583695
0.0585886
0.0588256
0.0591229
0.0595629
0.0601919
0.0610025
0.0619971
0.0631886
0.0646116
0.0663255
0.0683864
0.0709031
0.0740055
0.0779184
0.0828897
0.0895182
0.0986445
0.110783
0.119354
0.104704
0.0582976
0.0578921
0.0574697
0.0570687
0.0566101
0.056133
0.0556918
0.0552458
0.0548122
0.0544033
0.0540107
0.0536377
0.0532848
0.0529482
0.0526182
0.052307
0.052011
0.0517387
0.0514632
0.0511911
0.0509316
0.0507588
0.0507165
0.0507164
0.0506691
0.0505556
0.0503989
0.0501743
0.0498659
0.0494292
0.0487759
0.0478899
0.0467355
0.0444715
0.0445017
0.037742
0.0346412
0.419235
17.6155
0.0586783
0.0589846
0.0592181
0.0595395
0.0598574
0.0601255
0.060354
0.0605385
0.0606844
0.0607984
0.0608876
0.060986
0.0610818
0.0611795
0.0613022
0.0614349
0.0615822
0.0617043
0.0618569
0.0620742
0.0622993
0.0625549
0.0629311
0.063522
0.0643146
0.0652974
0.0664701
0.0678702
0.0695459
0.0715565
0.0740104
0.0770272
0.0807984
0.0855248
0.0916594
0.0995984
0.109065
0.114619
0.10296
0.0618345
0.0613977
0.0609399
0.0605193
0.0600272
0.0595234
0.0590543
0.0585722
0.0581105
0.0576786
0.0572612
0.0568636
0.0564853
0.0561226
0.0557704
0.055432
0.0551141
0.0548155
0.0545147
0.0542338
0.0539567
0.053745
0.0536842
0.0536847
0.0536376
0.0535125
0.0533321
0.0530791
0.0527176
0.0522263
0.0515134
0.0505239
0.0493601
0.047007
0.0466156
0.0408278
0.0360113
0.079214
4.13601
0.0622317
0.062554
0.0628142
0.0631468
0.0634767
0.063768
0.0640191
0.0642153
0.0643627
0.064483
0.0645919
0.0646919
0.0647775
0.0648912
0.0650333
0.065161
0.0653096
0.0654197
0.0656025
0.0657733
0.0659563
0.0661814
0.066546
0.0671051
0.0678781
0.0688359
0.0699762
0.0713422
0.0729685
0.0749299
0.0773146
0.0802248
0.0838374
0.0882906
0.0939072
0.100711
0.108137
0.111721
0.101969
0.0655663
0.0651031
0.0646212
0.0641756
0.0636518
0.0631161
0.0626111
0.0621017
0.0616109
0.0611504
0.0607114
0.0602882
0.0598882
0.0594986
0.0591266
0.0587671
0.0584206
0.0581031
0.0577887
0.057493
0.0571996
0.056956
0.0568934
0.05691
0.056889
0.0567657
0.0565634
0.0562873
0.0558917
0.0553531
0.0545985
0.0535192
0.0523282
0.0499082
0.0491113
0.0442483
0.0375943
0.0585681
2.72853
0.0660017
0.0663358
0.0666164
0.0669824
0.0673209
0.067631
0.0678988
0.0681158
0.0682694
0.068397
0.0685209
0.0686138
0.0687232
0.0688587
0.0689966
0.0691452
0.06928
0.0693995
0.0695749
0.0696679
0.0698793
0.0701362
0.0704602
0.0709444
0.0716632
0.0725964
0.0737066
0.0750283
0.07662
0.0785118
0.0808123
0.0835953
0.0869817
0.0911425
0.0961394
0.101861
0.107767
0.110092
0.101616
0.0695184
0.0690328
0.0685244
0.0680511
0.0674858
0.066919
0.0663851
0.0658413
0.0653272
0.0648388
0.0643698
0.0639253