/*--------------------------------*- C++ -*----------------------------------*\
| =========                 |                                                 |
| \\      /  F ield         | OpenFOAM: The Open Source CFD Toolbox           |
|  \\    /   O peration     | Version:  2506                                  |
|   \\  /    A nd           | Website:  www.openfoam.com                      |
|    \\/     M anipulation  |                                                 |
\*---------------------------------------------------------------------------*/
FoamFile
{
    version     2.0;
    format      ascii;
    arch        "LSB;label=32;scalar=64";
    class       volSymmTensorField;
    location    "50";
    object      turbulenceProperties:R;
}
// * * * * * * * * * * * * * * * * * * * * * * * * * * * * * * * * * * * * * //

dimensions      [0 2 -2 0 0 0 0];

internalField   nonuniform List<symmTensor> 
10720
(
(0.0080707 0.00126549 -2.50319e-21 0.00653281 -9.26727e-21 0.00735313)
(0.00971535 0.00154272 1.66358e-20 0.00759875 6.03391e-20 0.00869255)
(0.0119684 0.00183406 -4.20572e-20 0.00881925 -1.6177e-19 0.010484)
(0.0150544 0.00222321 7.6387e-20 0.0104373 3.2005e-19 0.012869)
(0.0189425 0.00262206 -8.43446e-20 0.012234 -2.93882e-19 0.0157342)
(0.0241141 0.002945 -1.05228e-19 0.014309 -2.33499e-19 0.0194471)
(0.030963 0.00317145 2.41011e-19 0.0168134 5.84447e-19 0.0242045)
(0.0397436 0.00309485 -5.16507e-19 0.019742 -1.08769e-18 0.0301513)
(0.051064 0.00245192 -1.09537e-19 0.0233343 1.83677e-19 0.0377629)
(0.0654843 0.00101067 4.38368e-19 0.0279852 7.14771e-19 0.0474568)
(0.083658 -0.00162995 9.60527e-19 0.0342227 4.92847e-19 0.0598645)
(0.106972 -0.00590625 -2.18276e-18 0.0430152 -1.95916e-18 0.0761705)
(0.137413 -0.0124522 3.79379e-19 0.0557176 4.67467e-19 0.0980567)
(0.178542 -0.0223041 1.7607e-18 0.0745244 8.92353e-19 0.128423)
(0.234828 -0.0370393 -2.84141e-18 0.102441 -3.80062e-18 0.171046)
(0.314087 -0.0593635 -3.25328e-18 0.144664 -1.69466e-18 0.232488)
(0.430373 -0.0942572 1.1266e-17 0.210736 9.77244e-18 0.324796)
(0.603131 -0.149103 1.4641e-17 0.315006 1.85669e-17 0.464933)
(0.888638 -0.243239 -2.11662e-17 0.495772 -2.77792e-17 0.700875)
(1.30251 -0.387653 -4.0518e-18 0.774489 6.22588e-18 1.05092)
(2.20402 -0.702231 -1.62312e-17 1.39043 2.25817e-17 1.81759)
(3.28314 -1.10425 1.86791e-18 2.18301 1.85599e-17 2.76034)
(6.76501 -2.39405 -6.03941e-17 4.74864 -2.84538e-16 5.80746)
(12.0991 -4.54048 1.15653e-16 9.10014 3.37988e-16 10.6835)
(8.43353 -3.38849 2.13889e-16 6.9488 -5.13467e-16 7.74633)
(4.83176 -2.04829 8.45911e-17 4.32901 1.09845e-15 4.59743)
(2.80876 -1.23269 -1.20065e-16 2.68171 -9.64646e-17 2.73847)
(1.72579 -0.788708 2.44412e-16 1.78433 3.5016e-16 1.7516)
(1.55397 -0.725252 3.56216e-16 1.68235 1.58357e-15 1.6176)
(1.26033 -0.593416 -2.98432e-16 1.38866 2.43379e-15 1.33037)
(0.912345 -0.439634 -6.31233e-16 1.05968 -2.28426e-15 1.00154)
(0.942485 -0.464446 7.97332e-17 1.19574 -8.28513e-16 1.07114)
(0.922437 -0.444787 -8.854e-16 1.11678 -2.08473e-15 0.999058)
(0.402202 0.0596995 -9.33966e-16 0.172381 -7.16847e-15 0.288759)
(2.12447 0.732384 9.66345e-16 1.44703 9.809e-16 1.81049)
(2.80971 1.01832 -7.04802e-17 2.02512 1.28255e-15 2.44216)
(2.02457 0.737725 -2.33312e-16 1.47225 -5.81952e-16 1.75482)
(1.51644 0.525727 -8.33933e-17 1.05126 -1.30847e-15 1.26657)
(4.46229 1.67565 -1.81888e-16 3.3323 2.15503e-16 4.025)
(0.00664665 0.00104154 7.34267e-21 0.00560414 1.67467e-20 0.00613923)
(0.0055466 0.000837684 -6.09827e-21 0.00477672 -1.54538e-20 0.00518869)
(0.00441564 0.000637495 -4.68434e-20 0.00388414 -2.26827e-20 0.00415894)
(0.00346887 0.00046752 4.97938e-20 0.00308534 -2.42793e-21 0.00327264)
(0.00270823 0.000327349 -1.51652e-20 0.00239702 2.80174e-20 0.00253014)
(0.00232855 0.000241566 -7.1529e-21 0.00201026 8.44544e-20 0.00214299)
(0.00270891 0.000260827 -1.21117e-20 0.00221297 -1.37141e-20 0.00244255)
(0.00362865 0.000334807 6.05606e-20 0.00280038 -7.06107e-20 0.00321022)
(0.00515178 0.000495372 8.39612e-20 0.00376795 -2.44243e-20 0.00446565)
(0.00744595 0.000827053 -4.88139e-20 0.0051745 -2.95223e-21 0.00632984)
(0.0107721 0.00146303 -3.77521e-20 0.00712262 1.11465e-19 0.00899003)
(0.0154648 0.00259062 2.96263e-19 0.00976668 -1.51884e-20 0.0126892)
(0.0219138 0.00444945 4.68833e-19 0.0133751 -1.00489e-19 0.0177631)
(0.0306162 0.00729316 -1.59452e-19 0.0183964 -1.36873e-19 0.0246842)
(0.0422908 0.0113628 1.79237e-19 0.0255075 -1.84986e-19 0.0341343)
(0.0583012 0.0171194 3.26345e-19 0.0358933 -1.12402e-19 0.0474133)
(0.0811551 0.0253992 -4.46095e-19 0.0514476 5.37654e-19 0.0667061)
(0.115194 0.0378211 8.81626e-19 0.0754742 7.81162e-20 0.0958683)
(0.168621 0.0574776 4.22929e-19 0.114167 -8.35616e-19 0.142109)
(0.254858 0.089715 -1.99921e-18 0.178276 3.96609e-20 0.217605)
(0.401571 0.145505 -6.48172e-18 0.290067 -3.99953e-19 0.347388)
(0.659507 0.245755 -3.59231e-18 0.492468 -1.54445e-19 0.578575)
(1.15747 0.443714 9.30695e-18 0.895642 -1.73516e-18 1.03123)
(2.04373 0.80774 -1.69058e-17 1.647 2.25955e-18 1.85456)
(4.05871 1.65439 6.6887e-18 3.41798 4.11784e-18 3.75826)
(8.05788 3.37866 -2.05472e-16 7.08631 2.45551e-17 7.61351)
(17.6618 7.59837 -1.17883e-16 16.2021 -1.37487e-17 17.0293)
(29.9587 13.1938 9.295e-17 28.6469 -1.22878e-17 29.4687)
(36.9162 16.6061 1.08521e-17 36.7697 1.6833e-18 37.0293)
(38.8331 17.7978 5.63391e-17 40.2198 -4.26894e-17 39.6941)
(38.7393 18.0439 -5.27699e-16 41.6203 2.43287e-17 40.3195)
(38.0696 17.9795 1.69673e-16 42.3228 5.50434e-17 40.3091)
(37.1163 17.7385 -2.30312e-15 42.5997 -3.44682e-16 39.9462)
(35.9424 17.3517 -4.07766e-15 42.4956 5.33047e-16 39.285)
(34.5689 16.8328 1.33922e-15 42.0233 3.00744e-16 38.3448)
(33.0602 16.2173 1.21566e-15 41.2598 4.92949e-17 37.197)
(31.1113 15.3608 1.70514e-15 39.835 2.03393e-16 35.5077)
(28.8159 14.3051 -3.41392e-16 37.8105 -6.13191e-17 33.343)
(23.2909 11.637 -5.28686e-15 31.4742 -8.19944e-16 27.4726)
(0.00193932 -0.00010785 2.28035e-22 0.00157164 2.27007e-22 0.00173992)
(0.00191589 -0.000138975 6.17367e-21 0.00159838 1.89108e-20 0.00173785)
(0.00186523 -0.000166497 -3.67038e-21 0.00162048 -8.25963e-21 0.00171826)
(0.00178629 -0.000180634 -1.03624e-20 0.00161858 -1.80834e-20 0.00167303)
(0.00168406 -0.000183194 3.39998e-20 0.00159354 5.822e-20 0.0016055)
(0.00156847 -0.000176218 1.28215e-20 0.00155202 2.07008e-20 0.00152305)
(0.00144261 -0.000160827 5.75819e-20 0.00148527 5.75492e-20 0.0014234)
(0.00131055 -0.000140273 -2.44287e-20 0.0013955 -7.03549e-21 0.00131021)
(0.00118263 -0.000118253 3.86554e-20 0.00129484 3.11523e-20 0.00119426)
(0.00106001 -9.71323e-05 2.38369e-21 0.00118441 8.71061e-22 0.00107677)
(0.000946182 -7.84583e-05 -5.88434e-20 0.00107198 -5.02119e-20 0.000963344)
(0.000847298 -6.3397e-05 7.44734e-20 0.000967876 8.43048e-20 0.000861754)
(0.000764239 -5.23188e-05 4.31015e-20 0.000875739 2.34513e-20 0.000773868)
(0.000694939 -4.49366e-05 -6.21692e-21 0.000794442 3.233e-21 0.000699081)
(0.000710457 -5.21539e-05 -3.93471e-20 0.000815757 3.5675e-21 0.000707899)
(0.000871569 -9.10827e-05 9.07867e-20 0.00101333 9.23773e-20 0.000850778)
(0.00148084 -0.0002793 1.92903e-19 0.00173003 -1.96772e-19 0.00136629)
(0.0032565 -0.00098094 -1.84242e-18 0.00349176 -1.95921e-18 0.00273266)
(0.00894178 -0.00317548 4.43987e-19 0.00810089 3.12474e-18 0.00708482)
(0.025043 -0.00892986 3.93294e-18 0.0197857 -8.1304e-19 0.0198402)
(0.0904988 -0.0317456 9.55189e-18 0.0661024 3.81424e-18 0.0729647)
(0.305332 -0.106292 -1.59363e-17 0.215473 -1.25988e-17 0.251053)
(1.05401 -0.371837 4.7839e-17 0.745504 1.08797e-16 0.885843)
(4.83029 -1.75969 2.39502e-18 3.52237 -1.44568e-16 4.16287)
(10.6523 -4.04861 -2.58878e-16 8.15655 3.08607e-16 9.43561)
(16.1171 -6.44194 4.75581e-17 13.2039 -2.34478e-15 14.7107)
(19.7017 -8.33151 1.90657e-17 17.5943 2.65755e-16 18.6905)
(18.7713 -8.30041 -2.61011e-16 18.1302 -1.93683e-15 18.4761)
(15.6403 -7.11785 -4.38943e-16 16.0241 -9.07294e-15 15.8054)
(12.5605 -5.83467 -3.86756e-16 13.4804 -1.20515e-14 12.9786)
(9.83687 -4.67028 1.02472e-15 11.0955 1.3263e-14 10.4845)
(6.87005 -3.31166 -1.04331e-15 8.01416 2.58606e-15 7.52778)
(4.38374 -2.06392 -6.62946e-16 4.84797 1.36579e-15 4.61449)
(4.16924 -1.92689 6.67696e-15 4.50542 4.09135e-14 4.23729)
(5.01016 -2.428 -9.19887e-16 6.10044 -4.45618e-15 5.48556)
(5.65174 -2.82626 -1.40809e-15 7.75514 -8.42842e-15 6.69712)
(5.7459 -2.89294 4.528e-16 8.33892 3.11448e-15 7.04979)
(6.71511 -3.36778 1.31837e-15 9.6056 9.74485e-15 8.11321)
(6.88539 -3.4586 1.80471e-16 11.1996 -7.6896e-16 9.09133)
(0.00193525 -6.8302e-05 3.31992e-21 0.00153282 -3.77066e-22 0.00172295)
(0.00191022 -2.66961e-05 -4.46535e-21 0.00149234 -4.36184e-20 0.0016937)
(0.00185385 2.30649e-05 -9.42237e-21 0.00144427 3.38988e-21 0.00164696)
(0.00174933 7.36587e-05 -8.58589e-21 0.00138255 7.64604e-20 0.00156776)
(0.00161017 0.00011384 1.72256e-20 0.00131551 -8.47639e-21 0.00146743)
(0.00146778 0.000138819 -1.3098e-21 0.00125585 -8.68833e-20 0.00136864)
(0.00130708 0.000148085 -5.61753e-21 0.00119054 -4.19201e-20 0.00125512)
(0.00112813 0.000140566 -8.754e-20 0.00110914 4.1412e-20 0.00112098)
(0.000959695 0.00011906 2.65152e-20 0.00101669 2.75488e-20 0.000985268)
(0.000814159 9.18278e-05 -1.49737e-20 0.0009156 -1.57329e-20 0.00085744)
(0.000689289 6.59949e-05 -1.24357e-20 0.000807141 -1.51717e-20 0.000737598)
(0.000582105 4.52742e-05 -1.61995e-20 0.000697774 -1.02625e-20 0.000627438)
(0.000489694 3.02643e-05 -1.17991e-21 0.000593412 5.28694e-21 0.00052824)
(0.000410245 2.03776e-05 8.28982e-21 0.000498038 1.53977e-20 0.000440864)
(0.000342965 1.43474e-05 1.71669e-20 0.000414501 1.4348e-21 0.000366171)
(0.000287163 1.0745e-05 -2.88249e-20 0.000344199 4.1422e-21 0.000304272)
(0.000240365 8.54829e-06 2.75153e-20 0.000284739 -2.6565e-21 0.0002526)
(0.000201266 7.08549e-06 -4.86886e-21 0.000234965 -2.39698e-21 0.000209787)
(0.000166603 5.77168e-06 -9.87835e-21 0.000191004 6.55773e-21 0.000172279)
(0.000134016 4.35112e-06 -5.78601e-21 0.000150304 2.71291e-21 0.000137516)
(0.000100119 2.72088e-06 -8.93939e-21 0.00010927 3.93315e-21 0.000101934)
(6.33401e-05 1.1596e-06 -5.03994e-21 6.69441e-05 1.27834e-21 6.39921e-05)
(3.46169e-05 3.51966e-07 -2.01104e-21 3.56609e-05 2.70491e-22 3.47819e-05)
(1.80892e-05 9.54957e-08 2.61452e-22 1.83587e-05 -2.86651e-23 1.81225e-05)
(0.000412636 5.46923e-05 -1.20048e-20 0.000549129 -5.46542e-21 0.000423672)
(0.00242787 0.00075588 1.37389e-18 0.00403409 -4.23356e-19 0.00249687)
(0.0163558 0.00548511 8.33245e-18 0.0264468 -2.55186e-20 0.016536)
(0.0848586 0.0305941 1.47511e-18 0.132459 2.79175e-18 0.0850951)
(0.218719 0.0863355 -6.62602e-19 0.325406 -8.99388e-19 0.219084)
(0.380708 0.162854 7.49094e-17 0.534931 1.68127e-17 0.38358)
(0.53748 0.242543 5.25618e-16 0.716696 -4.39634e-17 0.548148)
(0.665721 0.309403 3.11219e-16 0.85726 3.08764e-17 0.689276)
(0.763271 0.36065 2.15085e-15 0.968338 5.83146e-17 0.802919)
(0.842383 0.402314 3.0372e-15 1.06744 -5.04596e-16 0.899556)
(0.912153 0.439307 -7.37132e-16 1.16392 1.67844e-16 0.988416)
(0.988634 0.47906 -5.944e-16 1.26924 1.00008e-17 1.08367)
(1.06602 0.519894 -1.50072e-15 1.38039 -9.2357e-17 1.18395)
(1.32672 0.64742 -2.87386e-15 1.69708 -2.47891e-16 1.47293)
(1.87756 0.921307 -2.24155e-15 2.30169 1.07354e-15 2.12882)
(0.00136831 -7.56869e-05 1.41042e-21 0.00108812 3.20432e-21 0.00123427)
(0.00132685 -9.98701e-05 -1.26427e-20 0.00108567 -1.67293e-20 0.00121444)
(0.00126182 -0.000120065 -1.23385e-21 0.0010759 -4.95585e-21 0.00117934)
(0.0011765 -0.000131852 1.25482e-20 0.00105568 1.5396e-20 0.00112967)
(0.00108505 -0.00013502 -2.53023e-20 0.00103237 -3.68274e-20 0.00107509)
(0.000986504 -0.000128796 -2.51446e-20 0.00100172 -3.83329e-20 0.0010135)
(0.000888174 -0.000113715 -5.68675e-20 0.000963507 -7.38733e-20 0.000948589)
(0.000800365 -9.24606e-05 -3.26405e-21 0.000923111 -2.35318e-21 0.000887473)
(0.000725981 -6.7044e-05 -3.41093e-20 0.000881948 -5.25708e-20 0.000832504)
(0.000669373 -4.03324e-05 1.01052e-19 0.000843456 1.0382e-19 0.000787587)
(0.000630756 -1.45159e-05 -9.03794e-21 0.000809499 1.91835e-20 0.000753466)
(0.000608328 9.03796e-06 1.57527e-20 0.000780651 8.4104e-21 0.000729699)
(0.000599775 2.94674e-05 -8.18872e-20 0.0007575 -9.06322e-20 0.000715398)
(0.000601133 4.64906e-05 4.42e-20 0.000738605 -1.16448e-21 0.000707746)
(0.000613594 6.01768e-05 1.67948e-20 0.000730187 3.96842e-20 0.000709689)
(0.000642544 7.27275e-05 2.20129e-20 0.000743061 9.73076e-21 0.000730452)
(0.000630167 7.22517e-05 -8.71938e-20 0.000706702 -4.8199e-20 0.00070002)
(0.000584721 6.26793e-05 6.28768e-20 0.000638744 4.53928e-20 0.000635045)
(0.000405747 3.01512e-05 1.02765e-20 0.000428336 5.93373e-22 0.000426571)
(0.00195914 0.000677322 -8.79181e-19 0.00244439 -1.53716e-19 0.00238463)
(0.00104654 0.000241541 3.47914e-19 0.00122915 -1.07593e-19 0.00119558)
(0.00252106 0.00122917 1.30668e-19 0.00354828 1.08963e-18 0.0033531)
(0.0010667 -0.000333791 3.01023e-19 0.000800292 -3.3196e-19 0.000986292)
(0.129352 -0.0469693 -8.04421e-18 0.0939587 -7.31272e-18 0.11132)
(1.32545 -0.496778 6.32033e-18 1.00071 5.14471e-17 1.15825)
(5.21917 -2.02881 -1.06583e-16 4.12562 7.2331e-17 4.66333)
(13.3806 -5.41894 5.90785e-17 11.1938 2.01604e-17 12.28)
(21.3578 -9.023 -1.35116e-16 19.0654 4.76229e-16 20.2135)
(22.8022 -10.0241 -7.82945e-16 21.8037 1.17055e-15 22.3043)
(19.9887 -9.07219 7.51485e-16 20.3529 1.18223e-15 20.152)
(16.2726 -7.58168 7.25024e-16 17.5281 -1.22846e-15 16.917)
(11.8695 -5.61002 -1.58898e-15 13.1767 2.92609e-15 12.6115)
(8.49919 -3.93836 1.855e-15 9.02306 1.93002e-14 8.79229)
(8.9964 -4.17962 -1.13067e-15 9.72863 -1.4763e-14 9.25499)
(10.3197 -5.01628 -1.32517e-15 12.6222 -1.94465e-15 11.3752)
(9.74202 -4.87333 -6.56784e-16 13.4249 -7.32077e-15 11.5642)
(8.46701 -4.26421 1.31135e-15 12.4763 -1.33851e-15 10.4694)
(7.39581 -3.70468 3.11159e-16 10.8549 -6.37501e-15 9.01587)
(7.01363 -3.51565 -3.22864e-16 11.433 5.2709e-16 9.23618)
(0.0013969 -4.67912e-05 -3.03172e-21 0.00108895 -5.38515e-21 0.00124796)
(0.00140747 -1.70854e-05 -5.00611e-21 0.00108684 6.82402e-21 0.00125054)
(0.00139885 1.8001e-05 3.91653e-20 0.0010807 4.15109e-20 0.00124221)
(0.00134926 5.27049e-05 -5.86439e-23 0.00105741 -3.54595e-20 0.00120384)
(0.00126663 8.29295e-05 -2.95347e-21 0.00102268 -3.16686e-20 0.0011444)
(0.00116366 0.00010448 -1.41982e-20 0.000982664 4.13934e-20 0.0010735)
(0.00105463 0.000116668 5.3883e-20 0.000945096 5.09763e-20 0.00100051)
(0.000928087 0.000115778 4.85506e-20 0.000890167 2.41481e-20 0.000909691)
(0.000790788 0.000103036 3.10573e-20 0.000811605 -3.46518e-20 0.000802346)
(0.00065511 8.34282e-05 1.27737e-20 0.000715743 2.36152e-20 0.000687915)
(0.000529871 6.1877e-05 -3.2511e-20 0.000611058 1.15282e-20 0.000574587)
(0.000421532 4.20818e-05 1.32003e-21 0.000508019 1.54859e-20 0.000470458)
(0.000332064 2.57761e-05 1.83087e-20 0.000413845 -2.23939e-20 0.000380023)
(0.000260847 1.34515e-05 5.46088e-20 0.000332288 -2.83026e-20 0.000304837)
(0.000207845 4.91522e-06 -4.08898e-21 0.000267314 -7.55641e-22 0.000246667)
(0.000170104 -7.64292e-07 -3.44036e-21 0.000218124 1.13252e-20 0.00020378)
(0.000144512 -4.33693e-06 4.4404e-20 0.000182697 -2.75562e-20 0.000173589)
(0.000127759 -6.51862e-06 4.05531e-21 0.00015799 2.15397e-21 0.000153003)
(0.000117368 -7.87634e-06 4.57574e-20 0.000141623 -7.23166e-21 0.000139591)
(0.000111512 -8.89201e-06 4.75892e-20 0.000131256 -1.01809e-21 0.000131408)
(0.000108861 -9.82128e-06 1.22021e-19 0.000125191 -1.91853e-20 0.000126927)
(0.000109283 -1.09219e-05 1.50496e-19 0.00012264 -2.32412e-20 0.000125806)
(0.000112603 -1.22811e-05 8.3652e-20 0.000122617 -6.80717e-21 0.000127484)
(0.000119352 -1.37062e-05 1.79569e-20 0.000124085 -1.24907e-21 0.000132071)
(0.000126615 -1.40802e-05 -2.15694e-20 0.00012408 1.10301e-21 0.000136406)
(0.000131877 -1.29139e-05 8.22764e-20 0.000122427 -4.50146e-22 0.000138616)
(0.000127874 -9.79452e-06 -2.01193e-20 0.000114763 3.45673e-21 0.000131756)
(0.00012719 -7.90696e-06 -1.57356e-20 0.000111022 -1.09154e-22 0.00012965)
(0.00169086 -0.000249922 9.45389e-20 0.000914555 1.01514e-20 0.00175682)
(0.00694911 -0.000501818 -2.96897e-18 0.00347328 3.51722e-19 0.00712242)
(0.015821 0.00112537 -1.51894e-17 0.00783316 6.12133e-18 0.0161122)
(0.0288252 0.008409 -8.28658e-17 0.0183776 -3.37854e-18 0.0294495)
(0.0576752 0.0244404 -1.90495e-16 0.0509298 4.00829e-17 0.0595382)
(0.108281 0.0499521 -4.48368e-16 0.112462 3.98934e-17 0.113035)
(0.176175 0.0832951 -1.04283e-15 0.197376 -2.7103e-16 0.18624)
(0.254545 0.121119 2.51041e-16 0.29252 1.00824e-16 0.270503)
(0.332457 0.158855 -1.29502e-15 0.387299 -2.87511e-16 0.355363)
(0.409321 0.189897 3.51526e-15 0.43714 5.76472e-16 0.422909)
(0.569563 0.266684 5.21202e-15 0.60989 9.67386e-16 0.607404)
(0.00108894 -6.07047e-05 2.87561e-21 0.000868888 3.35208e-21 0.000977374)
(0.00107588 -7.93223e-05 -3.01321e-21 0.00088118 -5.37464e-21 0.000976567)
(0.00105133 -9.65248e-05 -1.82661e-21 0.00089339 -5.08094e-21 0.00096941)
(0.00101853 -0.000109245 1.97082e-20 0.000904485 2.74531e-20 0.000957516)
(0.00097682 -0.000116197 1.60479e-20 0.000910533 2.34351e-20 0.000938526)
(0.000926792 -0.000117186 2.48352e-20 0.000910406 2.92131e-20 0.000912064)
(0.000872683 -0.000112341 3.03765e-20 0.000903321 3.2451e-20 0.000879963)
(0.00081538 -0.000102438 -1.4178e-20 0.00088642 -1.87669e-20 0.000841271)
(0.000757169 -8.88446e-05 -6.05921e-20 0.000860496 -5.58096e-20 0.000797432)
(0.000699726 -7.32744e-05 6.70381e-20 0.000825506 4.04292e-20 0.000749521)
(0.000643828 -5.71522e-05 6.3135e-20 0.000782584 5.14832e-20 0.000698424)
(0.00059031 -4.17042e-05 8.4044e-20 0.000733681 4.3985e-20 0.000645634)
(0.000539768 -2.78261e-05 -1.25511e-19 0.000680927 -4.66193e-20 0.000592513)
(0.000491226 -1.59547e-05 -1.22253e-19 0.000624789 -7.80568e-20 0.000538895)
(0.000443859 -6.34222e-06 1.48591e-19 0.000565848 5.04402e-20 0.000484795)
(0.000396456 7.88738e-07 3.46226e-20 0.000504014 1.93224e-20 0.00042951)
(0.000342978 6.57463e-06 -2.1043e-20 0.000432751 1.9809e-21 0.000367706)
(0.000291809 1.12112e-05 -8.00476e-20 0.000363396 -4.91973e-20 0.000308684)
(0.000231541 1.31951e-05 1.41751e-20 0.000277781 -5.8537e-21 0.000240491)
(0.000164097 9.94194e-06 4.68897e-20 0.000184341 1.47968e-20 0.000167585)
(1.56855e-05 9.48214e-08 -4.62859e-22 1.58137e-05 -1.35783e-22 1.57154e-05)
(0.000413482 5.62882e-05 9.88669e-20 0.000478848 1.67032e-20 0.000436624)
(0.000142039 5.32394e-06 -2.13323e-21 0.000147824 -5.00038e-22 0.000144494)
(0.00595182 0.00294403 -3.61768e-18 0.00896727 1.06614e-18 0.00723739)
(1.10817e-05 -1.74362e-07 4.56449e-22 1.10334e-05 -8.40032e-23 1.10136e-05)
(0.164909 -0.0630196 -1.74942e-17 0.128062 1.52701e-17 0.144878)
(1.84709 -0.729856 2.76999e-19 1.49425 -3.92739e-18 1.66465)
(8.41005 -3.44674 1.27663e-16 7.16321 -4.20767e-17 7.7779)
(18.5823 -7.90549 -1.39221e-17 16.7822 7.48714e-16 17.6792)
(23.6216 -10.4186 5.95646e-16 22.7234 -1.5892e-15 23.1768)
(21.9909 -10.0058 -1.63432e-17 22.4769 -3.26816e-15 22.2576)
(17.1656 -7.94209 3.69334e-15 18.1669 3.13028e-15 17.7212)
(13.1889 -6.05896 2.07007e-15 13.762 1.83527e-15 13.4874)
(13.2142 -6.1524 -1.56074e-15 14.297 -4.51496e-15 13.6675)
(14.039 -6.82827 -2.25638e-15 17.1274 -7.23268e-16 15.5076)
(12.8311 -6.41897 3.34197e-15 17.6524 1.98258e-14 15.228)
(10.5075 -5.29329 -5.08704e-15 15.5248 -4.5147e-15 13.0188)
(8.25109 -4.13675 -5.36574e-15 12.2365 -8.41348e-16 10.1326)
(6.65775 -3.34617 3.27544e-15 10.8249 -1.22005e-15 8.79913)
(0.00109051 -3.88734e-05 -5.5262e-21 0.000853339 -8.19563e-21 0.000971434)
(0.00108422 -1.66132e-05 -4.19418e-21 0.000839477 1.63103e-20 0.000961666)
(0.00106506 9.48721e-06 1.67031e-20 0.000823261 1.72084e-20 0.000944781)
(0.00102635 3.54867e-05 -1.5813e-20 0.000802474 7.10012e-21 0.000914481)
(0.000973233 5.88114e-05 9.01979e-21 0.000780988 3.18977e-20 0.000876967)
(0.000908301 7.68001e-05 -1.26444e-21 0.00075889 -3.95227e-20 0.00083365)
(0.000829568 8.76087e-05 1.59866e-20 0.000731705 1.28894e-21 0.000781134)
(0.000738728 8.93703e-05 -3.93151e-20 0.000694306 -2.15967e-20 0.000717064)
(0.000644982 8.30193e-05 -1.56147e-20 0.000647481 1.27769e-21 0.000646618)
(0.000556029 7.13265e-05 6.17031e-20 0.000594587 2.61206e-22 0.000575357)
(0.000476166 5.72151e-05 1.7304e-20 0.000538276 -2.96888e-21 0.000506678)
(0.000407509 4.32509e-05 2.77756e-20 0.000481785 -1.48141e-20 0.000443327)
(0.000349646 3.10033e-05 -5.98145e-20 0.000427412 -5.64104e-21 0.000386386)
(0.000301386 2.11882e-05 -5.53686e-20 0.000376914 1.50402e-20 0.000336213)
(0.000261953 1.39659e-05 1.0421e-20 0.000332178 6.70645e-21 0.000293374)
(0.000229595 8.88694e-06 1.44283e-20 0.000293364 -4.09284e-21 0.000257184)
(0.000203329 5.47591e-06 -4.80443e-20 0.000260676 5.08805e-21 0.000227239)
(0.000182075 3.22571e-06 2.16217e-21 0.000233621 -3.91331e-21 0.000202757)
(0.000165282 1.69587e-06 -1.55787e-20 0.000211955 4.45175e-22 0.000183298)
(0.000151752 4.92784e-07 3.87644e-20 0.00019438 -1.26489e-20 0.00016764)
(0.000140812 -6.10032e-07 -4.42486e-20 0.000180067 2.2198e-22 0.000154981)
(0.000131377 -1.78615e-06 -8.00706e-20 0.000167585 5.55337e-21 0.000144064)
(0.000122434 -3.1078e-06 9.06123e-21 0.000155477 -3.34256e-21 0.000133622)
(0.000112284 -4.39482e-06 2.40764e-20 0.000141449 -3.40668e-21 0.000121664)
(0.00010146 -5.12264e-06 6.25054e-20 0.000126384 -5.01146e-21 0.000108736)
(9.26723e-05 -5.20526e-06 -6.17958e-20 0.000114123 6.88939e-21 9.7983e-05)
(8.61705e-05 -4.95804e-06 -8.98232e-21 0.000104977 -2.09136e-21 8.98884e-05)
(8.24589e-05 -4.81174e-06 6.50931e-21 9.98668e-05 -1.66495e-21 8.50477e-05)
(7.15878e-05 -3.92576e-06 -2.81493e-21 8.50908e-05 2.93428e-22 7.29809e-05)
(6.65863e-05 -4.08269e-06 -4.45124e-21 7.94125e-05 -3.39294e-21 6.73589e-05)
(4.201e-06 -2.15598e-08 -4.30771e-23 4.25862e-06 -2.75015e-23 4.20168e-06)
(3.4668e-05 -2.50964e-06 2.31659e-20 3.99655e-05 1.67821e-21 3.42993e-05)
(0.000336163 -9.49372e-05 3.79434e-18 0.000478975 9.28754e-19 0.000292278)
(0.00053613 -3.55473e-05 3.1336e-17 0.000505413 3.6702e-19 0.000320223)
(0.00297779 0.000979086 1.15039e-16 0.00196519 -3.02441e-18 0.00241501)
(0.0126022 0.00467762 -2.32505e-16 0.00927141 -2.10256e-17 0.0113335)
(0.03553 0.0144383 9.39866e-16 0.0295115 1.27818e-16 0.0334975)
(0.0942977 0.036746 -6.26049e-16 0.073916 -1.42388e-16 0.0865103)
(0.242211 0.10793 -4.33863e-16 0.234376 -1.18385e-15 0.244679)
(0.000839459 -4.63391e-05 -5.25162e-21 0.000669042 -4.79864e-21 0.000754692)
(0.000826017 -6.03148e-05 5.29758e-22 0.000675243 -4.55682e-22 0.000751428)
(0.000804597 -7.31554e-05 6.63484e-21 0.000681566 8.37375e-21 0.000744046)
(0.000774988 -8.25756e-05 -3.62458e-20 0.000685424 -3.49866e-20 0.000731534)
(0.000738632 -8.7759e-05 -2.68184e-20 0.000685843 -3.12931e-20 0.000714045)
(0.000695827 -8.83701e-05 5.78805e-20 0.000681866 5.84854e-20 0.000691127)
(0.000648885 -8.42122e-05 -5.84373e-20 0.000672171 -5.93992e-20 0.000663431)
(0.000599483 -7.57448e-05 -2.28919e-20 0.000655618 -1.96293e-20 0.000631153)
(0.000549571 -6.38244e-05 -6.0669e-20 0.000632359 -4.52199e-20 0.000595279)
(0.00050152 -4.9693e-05 -1.56441e-20 0.000603212 -1.96827e-20 0.000557521)
(0.000456889 -3.45377e-05 8.35489e-21 0.000569432 -1.07229e-21 0.000519191)
(0.000417015 -1.94613e-05 -5.01255e-20 0.000532741 -5.26896e-20 0.000481829)
(0.000382822 -5.36864e-06 1.39169e-19 0.00049498 9.17519e-20 0.000446809)
(0.000354776 7.12548e-06 -3.9378e-20 0.000457832 -6.85188e-21 0.000415204)
(0.000332711 1.75574e-05 -1.13909e-19 0.000422408 -5.15847e-20 0.000387418)
(0.000317384 2.58337e-05 7.17587e-20 0.000391003 5.50668e-21 0.000365018)
(0.000307466 3.16134e-05 -5.47452e-20 0.000364281 -2.99051e-20 0.000347193)
(0.000297049 3.46263e-05 1.65291e-21 0.000337672 3.51243e-20 0.000328426)
(0.000279314 3.47192e-05 -1.15631e-20 0.000304584 -8.91795e-21 0.000302047)
(0.000258971 3.38294e-05 -1.00868e-19 0.000271613 -6.36353e-20 0.000274265)
(0.000183322 1.95921e-05 4.93583e-20 0.000185515 4.29532e-20 0.000188886)
(8.21319e-05 4.35589e-06 1.96551e-22 8.2605e-05 -7.37481e-21 8.30443e-05)
(8.50397e-06 3.69915e-08 2.14265e-23 8.5195e-06 6.44481e-24 8.51427e-06)
(0 0 0 0 0 0)
(2.20233e-06 1.50139e-09 -6.01565e-25 2.20317e-06 -1.73417e-25 2.20277e-06)
(0.0100893 0.00486795 9.62102e-18 0.0119943 1.76223e-18 0.0109989)
(0.0408742 -0.0134636 -1.60641e-18 0.0269799 2.58784e-19 0.0332492)
(0.436883 -0.172591 -1.36166e-17 0.35327 -8.25178e-18 0.393759)
(4.70345 -1.9448 -3.60733e-17 4.06102 8.26681e-17 4.37659)
(14.7109 -6.3077 -2.81183e-15 13.4614 4.62332e-17 14.0848)
(21.7013 -9.60646 -1.12439e-15 21.0028 1.9963e-16 21.3817)
(20.9316 -9.45811 8.27315e-16 21.0775 -5.38465e-15 21.0475)
(17.8914 -8.13921 2.75877e-15 18.3071 -6.62203e-15 18.0808)
(17.4586 -8.13457 -6.27602e-15 18.9015 -4.14427e-16 18.0868)
(17.5047 -8.51005 6.11153e-15 21.2745 1.08478e-14 19.3307)
(15.4289 -7.71223 -1.84116e-15 21.0682 4.33196e-16 18.2463)
(12.1044 -6.09805 -5.74747e-16 17.7889 1.3302e-14 14.9594)
(8.86673 -4.44884 3.9427e-16 13.1721 4.2989e-15 10.9169)
(6.15742 -3.09956 -8.53152e-15 9.99674 2.73813e-15 8.15755)
(0.000844778 -3.02393e-05 3.85989e-21 0.000660874 -1.61029e-21 0.000753375)
(0.000843788 -1.36878e-05 -1.32756e-20 0.000653341 -9.99568e-21 0.000748837)
(0.00083282 5.68325e-06 -2.62023e-21 0.000643449 6.72394e-21 0.000738564)
(0.000806245 2.52698e-05 1.12747e-20 0.000628974 -3.29223e-20 0.000717407)
(0.000769376 4.33342e-05 -7.23825e-20 0.000614199 -5.958e-20 0.000691502)
(0.000723484 5.7995e-05 -5.55727e-20 0.000599251 4.85268e-20 0.000661255)
(0.000667955 6.77648e-05 8.63192e-20 0.000581781 1.399e-20 0.000624956)
(0.000603782 7.10632e-05 -4.12115e-20 0.000558026 -3.98294e-20 0.000581003)
(0.000536322 6.82201e-05 -2.45009e-20 0.000527533 7.43729e-21 0.000532021)
(0.000469445 6.07814e-05 -1.4828e-20 0.000490666 -2.7155e-20 0.00048022)
(0.000405699 5.06303e-05 1.34452e-21 0.000447994 1.13827e-20 0.000427124)
(0.000347076 3.96854e-05 -1.83724e-20 0.000401516 -9.90591e-21 0.000374735)
(0.000294437 2.93543e-05 -3.93104e-20 0.000353588 3.31202e-20 0.000324685)
(0.00024803 2.04498e-05 4.50618e-20 0.000306483 4.06305e-21 0.000278225)
(0.000208102 1.33497e-05 2.91845e-20 0.000262459 -1.11765e-20 0.00023657)
(0.000174433 7.96927e-06 -5.99146e-21 0.000223046 -6.39104e-21 0.000200368)
(0.000146744 4.05167e-06 1.70899e-20 0.00018919 -9.91113e-23 0.000169928)
(0.000124563 1.25476e-06 -2.94048e-20 0.000161173 7.0025e-21 0.000145125)
(0.000107443 -7.50134e-07 2.0805e-20 0.000138963 -2.53241e-21 0.000125692)
(9.46085e-05 -2.28055e-06 -2.4671e-20 0.000121833 -2.87154e-21 0.000110895)
(8.53591e-05 -3.56138e-06 2.7271e-20 0.00010897 -2.10808e-21 9.99782e-05)
(7.88761e-05 -4.75936e-06 3.10926e-20 9.92396e-05 -5.6055e-22 9.19912e-05)
(7.44134e-05 -5.94549e-06 -5.73467e-21 9.14984e-05 1.66766e-21 8.59898e-05)
(7.07001e-05 -6.99565e-06 -6.2541e-20 8.39013e-05 4.90164e-21 8.04654e-05)
(6.67084e-05 -7.55356e-06 -2.05229e-20 7.54952e-05 1.80486e-21 7.44005e-05)
(6.26758e-05 -7.52096e-06 -6.56244e-21 6.73377e-05 -2.52844e-21 6.83771e-05)
(5.99262e-05 -7.17876e-06 2.52889e-20 6.10577e-05 -1.40301e-21 6.39797e-05)
(5.87719e-05 -6.67956e-06 3.53361e-22 5.69185e-05 4.53668e-22 6.14842e-05)
(5.93599e-05 -6.25416e-06 -1.13272e-21 5.49753e-05 -4.14016e-22 6.10052e-05)
(5.87133e-05 -5.57758e-06 1.64633e-20 5.25963e-05 1.61078e-21 5.94178e-05)
(6.25134e-05 -6.02083e-06 1.28895e-20 5.41425e-05 7.58892e-22 6.24768e-05)
(1.20774e-05 -2.68954e-07 -3.49689e-21 1.1655e-05 -4.0026e-22 1.20411e-05)
(0.000231304 -5.19775e-05 -1.80973e-18 0.000144702 -1.01887e-19 0.000217734)
(2.86485e-05 -1.76292e-06 -1.32148e-20 2.55717e-05 8.24973e-21 2.79441e-05)
(0.00197451 -0.000497008 2.60792e-18 0.00104246 2.81039e-18 0.00169699)
(0.000254232 -5.28196e-05 -6.66193e-19 0.000130654 -6.16853e-19 0.000207698)
(0.00210633 -0.000286204 -2.64136e-17 0.00087636 -5.99292e-19 0.00157087)
(0.00527243 0.000332054 8.31255e-17 0.00202874 9.41873e-18 0.00375939)
(0.0542923 0.02099 -3.26141e-16 0.0419871 3.27258e-17 0.0501653)
(0.000674341 -3.74752e-05 4.91475e-21 0.000537799 3.92404e-21 0.000605921)
(0.000667418 -4.85788e-05 -1.10916e-20 0.000545535 -8.55735e-21 0.000606362)
(0.000655157 -5.90397e-05 -1.77233e-22 0.000554154 -2.49669e-21 0.000604411)
(0.000637911 -6.71899e-05 -2.14497e-21 0.000562294 -5.08951e-21 0.000599727)
(0.000616292 -7.23264e-05 3.22399e-20 0.000568832 3.0423e-20 0.00059208)
(0.000590341 -7.42355e-05 2.31833e-20 0.000573285 2.11556e-20 0.000581117)
(0.000561318 -7.26197e-05 3.2277e-21 0.000574269 5.47455e-21 0.00056688)
(0.000529993 -6.76745e-05 6.23328e-20 0.000570465 5.35481e-20 0.000549045)
(0.000497413 -5.99055e-05 -4.49624e-21 0.000561555 1.27876e-21 0.000527933)
(0.000464787 -5.01219e-05 -2.03225e-20 0.000547304 -1.12863e-20 0.000504106)
(0.000432697 -3.91571e-05 3.92874e-20 0.000527738 1.7582e-20 0.00047782)
(0.000401686 -2.78314e-05 -4.95752e-20 0.000503434 -2.12283e-20 0.000449647)
(0.000372075 -1.69205e-05 -1.00517e-19 0.00047511 -7.22918e-20 0.000420131)
(0.000343819 -6.99664e-06 -4.40119e-20 0.00044348 1.2643e-21 0.000389585)
(0.000316788 1.50621e-06 1.78856e-19 0.00040936 8.17763e-20 0.000358356)
(0.000291057 8.28298e-06 -1.25026e-19 0.000373964 -5.65028e-20 0.000327085)
(0.000264795 1.3205e-05 -3.18898e-20 0.00033609 1.99541e-20 0.000294337)
(0.00023539 1.65083e-05 5.91245e-20 0.000293188 3.5536e-20 0.000258025)
(0.000204768 1.83231e-05 -3.53722e-20 0.000248381 -1.5825e-21 0.000220692)
(0.000174277 1.8599e-05 -1.16537e-20 0.000204032 2.51867e-20 0.000184167)
(0.000148944 1.83906e-05 1.90325e-20 0.000167211 -8.13894e-21 0.000154177)
(0.000123148 1.60982e-05 -1.26304e-19 0.000131104 3.61573e-21 0.000124714)
(6.44714e-05 4.80894e-06 2.21563e-22 6.52502e-05 -5.17029e-21 6.45189e-05)
(5.53138e-06 2.65541e-08 -1.09093e-22 5.53564e-06 2.44309e-24 5.5334e-06)
(0 0 0 0 0 0)
(0 0 -0 0 -0 0)
(0 0 -0 0 -0 0)
(0.0208688 0.008925 1.14394e-18 0.0190985 2.7792e-20 0.0198339)
(0.084661 -0.0316585 3.24136e-17 0.0637657 -6.16713e-18 0.0738402)
(2.80153 -1.16039 2.06715e-16 2.42486 3.70478e-16 2.61077)
(11.5299 -4.96142 -3.66736e-16 10.6083 4.1719e-16 11.0804)
(18.8363 -8.3002 -4.06077e-15 18.077 9.18077e-16 18.4795)