/*--------------------------------*- C++ -*----------------------------------*\
| =========                 |                                                 |
| \\      /  F ield         | OpenFOAM: The Open Source CFD Toolbox           |
|  \\    /   O peration     | Version:  2506                                  |
|   \\  /    A nd           | Website:  www.openfoam.com                      |
|    \\/     M anipulation  |                                                 |
\*---------------------------------------------------------------------------*/
FoamFile
{
    version     2.0;
    format      ascii;
    arch        "LSB;label=32;scalar=64";
    class       surfaceScalarField;
    location    "400";
    object      phi;
}
// * * * * * * * * * * * * * * * * * * * * * * * * * * * * * * * * * * * * * //

dimensions      [0 3 -1 0 0 0 0];

oriented        oriented;

internalField   nonuniform List<scalar> 
2579
(
0.201731
0.004706
0.194917
0.00681326
0.181097
0.0138197
0.161217
0.0198803
0.228741
0.00873086
0.223785
0.0117681
0.21344
0.0241644
0.19539
0.0379299
0.248125
0.0123449
0.242973
0.0169207
0.232687
0.0344497
0.214883
0.0557338
0.265378
0.0153317
0.260651
0.0216474
0.250922
0.0441791
0.232552
0.0741029
0.279301
0.0180985
0.274957
0.025992
0.266412
0.0527239
0.248615
0.0918991
0.29458
0.021002
0.289911
0.0306606
0.281546
0.0610885
0.264165
0.10928
0.310231
0.0239969
0.305358
0.0355328
0.296977
0.06947
0.280107
0.126149
0.326949
0.027093
0.32189
0.0405921
0.313385
0.077974
0.297025
0.142509
0.344492
0.030263
0.339256
0.0458279
0.330724
0.0865053
0.314946
0.158288
0.36299
0.0335251
0.357631
0.0511861
0.349089
0.0950475
0.333869
0.173507
0.382497
0.0368385
0.377005
0.0566784
0.368473
0.10358
0.353879
0.188102
0.40303
0.0402153
0.397431
0.0622773
0.388972
0.112038
0.375014
0.202059
0.424699
0.0436147
0.419022
0.0679538
0.410601
0.12046
0.397322
0.215338
0.447507
0.0470428
0.441785
0.0736755
0.433489
0.128756
0.420863
0.227964
0.471564
0.0504819
0.465825
0.079415
0.457625
0.136955
0.445697
0.239892
0.496921
0.0539081
0.491179
0.0851563
0.483141
0.144994
0.471929
0.251103
0.523641
0.0573109
0.517958
0.090839
0.510073
0.152879
0.499548
0.261629
0.551836
0.0606254
0.546202
0.0964724
0.538549
0.160533
0.528719
0.271458
0.581543
0.0638776
0.576036
0.101979
0.56859
0.167979
0.559467
0.280581
0.612879
0.0670112
0.607511
0.107348
0.600313
0.175177
0.591874
0.28902
0.645917
0.0700379
0.640738
0.112527
0.63383
0.182085
0.626036
0.296814
0.680788
0.0728754
0.675795
0.11752
0.669188
0.188691
0.662088
0.303915
0.717558
0.0755449
0.71282
0.122259
0.706543
0.194968
0.700053
0.310405
0.756353
0.0779927
0.751901
0.126711
0.745953
0.200915
0.740079
0.316279
0.797281
0.08028
0.793165
0.130827
0.78757
0.20651
0.782278
0.321571
0.840474
0.0822759
0.836627
0.134675
0.83153
0.211607
0.826787
0.326315
0.886099
0.0839099
0.882701
0.138073
0.87785
0.216458
0.873646
0.330519
0.934368
0.0852806
0.93107
0.141371
0.92679
0.220738
0.923128
0.33418
0.985035
0.0863773
0.982371
0.144036
0.978402
0.224708
0.975339
0.337243
1.03876
0.0871671
1.03646
0.146331
1.03297
0.228195
1.03036
0.339862
1.09552
0.0876524
1.09351
0.148335
1.09049
0.23122
1.08819
0.342166
1.15536
0.0878157
1.1539
0.149797
1.15136
0.233754
1.14947
0.344061
1.21877
0.0874128
1.21759
0.150976
1.2153
0.236049
1.21407
0.34529
1.28541
0.0870729
1.28479
0.151594
1.28299
0.23785
1.28202
0.346265
1.3562
0.0861544
1.35572
0.152067
1.35453
0.239043
1.35395
0.346843
1.43087
0.0850495
1.43093
0.152002
1.42985
0.240124
1.42963
0.347065
1.50971
0.0836384
1.51004
0.151675
1.50955
0.240617
1.50969
0.346925
1.59324
0.0819562
1.59395
0.150959
1.59368
0.240887
1.59403
0.346579
1.67954
0.0228176
1.68138
0.0801135
1.68234
0.150002
1.68237
0.240861
1.68317
0.345776
1.77255
0.0198704
1.77464
0.0780198
1.77582
0.148831
1.77627
0.240402
1.77725
0.3448
1.87098
0.0167724
1.87319
0.0758109
1.87469
0.147337
1.87531
0.239773
1.87656
0.343551
1.97499
0.0136638
1.97742
0.0733894
1.9791
0.14565
1.97984
0.239031
1.98137
0.34203
2.08511
0.0104311
2.0876
0.0708983
2.08957
0.143688
2.09057
0.238031
2.09207
0.340526
2.2015
0.00720613
2.20419
0.0682106
2.20616
0.141718
2.20723
0.236954
2.2091
0.338656
2.32468
0.00400208
2.32742
0.065474
2.32936
0.139771
2.33066
0.235655
2.33258
0.336736
2.45494
0.000574126
2.45757
0.062841
2.45975
0.137587
2.46097
0.234441
2.46295
0.334758
2.59256
-0.00271126
2.59534
0.0600634
2.59748
0.135443
2.59887
0.233053
2.60073
0.332902
2.73805
-0.00594963
2.74085
0.0572591
2.74293
0.133365
2.74434
0.231643
2.74635
0.330893
2.89199
-0.00917917
2.89465
0.0545986
2.89692
0.131098
2.8981
0.230462
2.9001
0.328897
3.05473
-0.0125031
3.05731
0.052027
3.05936
0.12904
3.06067
0.229159
3.06264
0.326925
3.2266
-0.0155675
3.22916
0.0494607
3.23127
0.126931
3.23234
0.228091
3.23412
0.325141
3.40823
-0.0186339
3.41093
0.0467563
3.41272
0.125147
3.41378
0.227026
3.41551
0.323414
3.59731
-0.0817511
3.60038
-0.021701
3.60274
0.0443935
3.60457
0.123326
3.60539
0.226204
3.60694
0.321859
3.80014
-0.0855217
3.80314
-0.024693
3.8055
0.0420322
3.80729
0.121531
3.80786
0.225638
3.80933
0.320382
4.01454
-0.0893567
4.01757
-0.0277192
4.01976
0.0398393
4.02134
0.119955
4.0218
0.225172
4.02309
0.319093
4.24089
-0.0930315
4.24385
-0.0306786
4.24611
0.0375799
4.24741
0.118654
4.24767
0.22491
4.24863
0.318128
4.48007
-0.0969418
4.48289
-0.0335015
4.48485
0.0356173
4.48614
0.117367
4.48619
0.224859
4.48709
0.317229
4.73238
-0.100763
4.73518
-0.0362984
4.73727
0.0335283
4.73829
0.116346
4.73804
0.225105
4.73864
0.316627
4.99893
-0.104748
5.00176
-0.0391338
5.00359
0.0317037
5.00453
0.115408
5.00403
0.225607
5.00433
0.316325
5.28029
-0.108694
5.28304
-0.0418862
5.28481
0.0299395
5.28552
0.114691
5.28477
0.226365
5.28492
0.316172
5.57723
-0.112634
5.57995
-0.0446059
5.58152
0.0283735
5.5822
0.114007
5.5811
0.22746
5.581
0.316277
5.88655
-0.186119
5.89066
-0.116741
5.89335
-0.0472973
5.89502
0.0267028
5.89532
0.113701
5.89405
0.228733
5.89356
0.316767
6.21736
-0.192124
6.2214
-0.120774
6.22413
-0.0500267
6.22568
0.0251449
6.22588
0.1135
6.22422
0.230401
6.22353
0.31745
6.56619
-0.198281
6.57045
-0.12503
6.57324
-0.0528139
6.57448
0.0239023
6.57461
0.113369
6.57263
0.232383
6.57171
0.318365
6.93437
-0.204758
6.9389
-0.129563
6.94167
-0.0555828
6.94287
0.0227014
6.94286
0.113381
6.93967
0.235576
6.93887
0.319161
7.3225
-0.212242
7.32658
-0.133641
7.32885
-0.0578597
7.32992
0.0216344
7.33044
0.112866
7.3284
0.23761
7.32595
0.321608
7.73053
-0.217972
7.73535
-0.138457
7.73831
-0.0608223
7.74006
0.0198877
7.73875
0.114172
7.73624
0.24012
7.7351
0.322751
5.66328
-0.245998
5.69467
-0.169844
5.731
-0.0971563
5.77027
-0.019382
5.81694
0.0675074
5.87525
0.18181
5.92677
0.271227
6.23302
-0.277819
6.26815
-0.204977
6.30566
-0.134669
6.34997
-0.0636872
6.40177
0.0157115
6.46549
0.118089
6.52316
0.213555
6.85858
-0.31227
6.89759
-0.243984
6.9402
-0.177287
6.98967
-0.113156
7.04547
-0.0400852
7.11602
0.0475404
7.17737
0.152206
7.54899
-0.349484
7.59069
-0.285684
7.63729
-0.223894
7.69076
-0.166626
7.75322
-0.102538
7.82953
-0.0287692
7.89971
0.0820186
8.26553
-0.457618
8.3082
-0.39216
8.35277
-0.330249
8.406
-0.27713
8.4636
-0.224218
8.53291
-0.171853
8.61764
-0.113494
8.69301
0.00664787
9.09688
-0.497969
9.1426
-0.437882
9.19396
-0.381611
9.24888
-0.332047
9.31462
-0.289954
9.38961
-0.246848
9.48177
-0.205656
9.56627
-0.07785
10.0108
-0.542869
10.0597
-0.486793
10.1155
-0.43734
10.1786
-0.395144
10.2487
-0.360073
10.3307
-0.328924
10.4342
-0.309078
10.5252
-0.168874
11.0154
-0.592461
11.0702
-0.541568
11.1317
-0.498869
11.1993
-0.462729
11.2766
-0.437312
11.3673
-0.419633
11.4801
-0.42187
11.5808
-0.269663
12.1165
-0.646634
12.177
-0.602096
12.2429
-0.564783
12.3174
-0.537216
12.4028
-0.522742
12.5017
-0.518504
12.6235
-0.543649
12.7322
-0.378342
13.3268
-0.704748
13.3923
-0.667638
13.4657
-0.638158
13.5476
-0.619086
13.6406
-0.61577
13.7504
-0.628342
13.889
-0.682171
14.0119
-0.501275
14.6507
-0.768882
14.7223
-0.739296
14.8018
-0.717681
14.8911
-0.708384
14.9937
-0.718328
15.1115
-0.746195
15.2532
-0.823871
15.3794
-0.62741
16.1469
-0.841506
16.2278
-0.820164
16.3187
-0.80858
16.4194
-0.809143
16.5337
-0.832621
16.6716
-0.884066
16.8497
-1.00203
17.0084
-0.786108
17.778
17.8663
17.9634
18.0722
18.1952
18.3326
18.4903
18.6388
-0.178844
0.177434
-0.191344
0.207891
-0.204084
0.227622
-0.215792
0.24426
-0.226773
0.259596
-0.237122
0.274515
-0.246923
0.289907
-0.256128
0.30623
-0.264721
0.323538
-0.272683
0.341831
-0.280045
0.361241
-0.286782
0.38175
-0.292916
0.403456
-0.298464
0.426411
-0.303451
0.450684
-0.307894
0.476371
-0.311859
0.503513
-0.315351
0.532211
-0.318426
0.562542
-0.32113
0.594577
-0.32351
0.628417
-0.325615
0.664192
-0.327494
0.701932
-0.329196
0.741781
-0.330766
0.783848
-0.332246
0.828267
-0.333677
0.875076
-0.335094
0.924546
-0.33653
0.976774
-0.338011
1.03184
-0.339563
1.08974
-0.341194
1.1511
-0.342957
1.21583
-0.344831
1.28389
-0.346838
1.35596
-0.348988
1.43178
-0.351286
1.51199
-0.353734
1.59648
-0.356333
1.68577
-0.35908
1.78
-0.361971
1.87945
-0.364997
1.98439
-0.368148
2.09522
-0.3714
2.21236
-0.374763
2.33595
-0.378223
2.46641
-0.381737
2.60424
-0.385299
2.74991
-0.388893
2.90369
-0.392499
3.06624
-0.396099
3.23773
-0.399677
3.41909
-0.403215
3.61048
-0.406698
3.81282
-0.41011
4.0265
-0.413437
4.25196
-0.41667
4.49032
-0.419798
4.74177
-0.422816
5.00734
-0.42572
5.28782
-0.42849
5.58377
-0.431168
5.89624
-0.433704
6.22607
-0.43611
6.57412
-0.438384
6.94115
-0.440526
7.3281
-0.44254
7.73711
-0.443925
5.92816
-0.445316
6.52455
-0.446691
7.17874
-0.448091
7.90111
-0.449459
8.69437
-0.450788
9.5676
-0.452066
10.5265
-0.4531
11.5819
-0.45421
12.7333
-0.454332
14.012
-0.457142
15.3822
-0.455333
17.0066
18.6481
-0.192726
0.191204
-0.200596
0.215761
-0.206964
0.23399
-0.211913
0.249209
-0.216161
0.263844
-0.220407
0.278761
-0.224969
0.294469
-0.229847
0.311108
-0.235003
0.328694
-0.240405
0.347233
-0.245988
0.366824
-0.251739
0.387502
-0.257607
0.409324
-0.263546
0.43235
-0.269511
0.456649
-0.275468
0.482328
-0.281343
0.509389
-0.287125
0.537993
-0.292768
0.568185
-0.29824
0.600049
-0.303516
0.633692
-0.308575
0.669251
-0.313406
0.706762
-0.318003
0.746379
-0.322369
0.788214
-0.326511
0.832409
-0.330444
0.879009
-0.334186
0.928288
-0.337761
0.980349
-0.341194
1.03527
-0.34451
1.09305
-0.347751
1.15434
-0.350907
1.21899
-0.354039
1.28702
-0.357159
1.35908
-0.360288
1.43491
-0.363445
1.51514
-0.366645
1.59968
-0.369902
1.68903
-0.373222
1.78332
-0.376614
1.88284
-0.380078
1.98786
-0.383615
2.09876
-0.387234
2.21598
-0.390904
2.33962
-0.394616
2.47012
-0.398385
2.60801
-0.402188
2.75372
-0.40601
2.90751
-0.409837
3.07007
-0.413655
3.24154
-0.417448
3.42288
-0.421201
3.61423
-0.424899
3.81651
-0.428528
4.03013
-0.432074
4.25551
-0.43554
4.49379
-0.438889
4.74512
-0.442112
5.01057
-0.445234
5.29095
-0.448251
5.58679
-0.451113
5.8991
-0.453858
6.22881
-0.456484
6.57675
-0.458941
6.9436
-0.461276
7.33043
-0.463476
7.73932
-0.465008
5.92969
-0.46652
6.52606
-0.468064
7.18029
-0.469575
7.90262
-0.471088
8.69589
-0.472562
9.56907
-0.473986
10.5279
-0.475151
11.583
-0.476411
12.7345
-0.476662
14.0123
-0.479738
15.3853
-0.478456
17.0053
18.6576
-0.221889
0.203318
-0.229776
0.223649
-0.235889
0.240102
-0.240893
0.254212
-0.245409
0.26836
-0.249813
0.283165
-0.254183
0.298839
-0.25851
0.315435
-0.262766
0.332949
-0.266977
0.351444
-0.271154
0.371001
-0.275292
0.391639
-0.279408
0.41344
-0.283507
0.436448
-0.287615
0.460758
-0.291736
0.486448
-0.295885
0.513537
-0.30004
0.542147
-0.304231
0.572376
-0.308448
0.604267
-0.312699
0.637942
-0.316946
0.673498
-0.32121
0.711027
-0.325482
0.750651
-0.329728
0.792461
-0.333939
0.836619
-0.338122
0.883193
-0.342261
0.932426
-0.346347
0.984435
-0.350377
1.0393
-0.35435
1.09703
-0.358268
1.15826
-0.362137
1.22286
-0.365976
1.29086
-0.369771
1.36288
-0.373544
1.43868
-0.377307
1.51891
-0.381071
1.60344
-0.384833
1.69279
-0.38864
1.78713
-0.39245
1.88665
-0.396305
1.99171
-0.400209
2.10266
-0.404124
2.21989
-0.408087
2.34358
-0.412082
2.47411
-0.416115
2.61205
-0.420154
2.75775
-0.424201
2.91156
-0.428232
3.0741
-0.432262
3.24557
-0.436279
3.4269
-0.440228
3.61818
-0.444135
3.82042
-0.447989
4.03399
-0.451733
4.25925
-0.455399
4.49745
-0.458962
4.74868
-0.462416
5.01402
-0.465755
5.29428
-0.468972
5.59
-0.472062
5.90219
-0.475019
6.23177
-0.477836
6.57956
-0.480526
6.94629
-0.483058
7.33296
-0.485436
7.74169
-0.487089
5.93134
-0.488772
6.52774
-0.490431
7.18195
-0.492122
7.90431
-0.493772
8.69754
-0.495414
9.57072
-0.496998
10.5295
-0.498287
11.5843
-0.499731
12.736
-0.500066
14.0126
-0.503512
15.3887
-0.50257
17.0044
18.6674
-0.250587
0.211599
-0.255948
0.22901
-0.259694
0.243848
-0.262935
0.257453
-0.266183
0.271607
-0.269583
0.286564
-0.273123
0.302378
-0.276773
0.319085
-0.280519
0.336694
-0.284346
0.35527
-0.288242
0.374898
-0.292194
0.395591
-0.296189
0.417435
-0.300215
0.440474
-0.304269
0.464812
-0.308316
0.490495
-0.312373
0.517595
-0.316428
0.546202
-0.320475
0.576424
-0.324514
0.608306
-0.328545
0.641973
-0.332578
0.677532
-0.336587
0.715036
-0.340605
0.754668
-0.344625
0.79648
-0.348649
0.840643
-0.352679
0.887223
-0.356717
0.936465
-0.360764
0.988481
-0.364818
1.04335
-0.368877
1.10109
-0.372942
1.16232
-0.377011
1.22693
-0.381083
1.29493
-0.385158
1.36695
-0.389237
1.44276
-0.393322
1.52299
-0.397414
1.60753
-0.401529
1.6969
-0.405633
1.79123
-0.409767
1.89079
-0.413919
1.99586
-0.418092
2.10684
-0.422286
2.22409
-0.426501
2.34779
-0.430733
2.47835
-0.434979
2.61629
-0.439233
2.76201
-0.443489
2.91581
-0.447736
3.07835
-0.451967
3.2498
-0.456169
3.4311
-0.460331
3.62234
-0.464439
3.82453
-0.468482
4.03803
-0.472459
4.26323
-0.476319
4.50131
-0.480093
4.75246
-0.483774
5.0177
-0.487327
5.29784
-0.490745
5.59342
-0.49405
5.9055
-0.49722
6.23494
-0.500248
6.58259
-0.503131
6.94918
-0.505866
7.3357
-0.508459
7.74429
-0.510255
5.93314
-0.51207
6.52956
-0.513898
7.18377
-0.515731
7.90615
-0.517559
8.69937
-0.51935
9.57251
-0.521099
10.5312
-0.522544
11.5858
-0.524171
12.7376
-0.524678
14.0131
-0.528382
15.3924
-0.527998
17.004
18.6773
-0.286278
0.217465
-0.289771
0.232504
-0.291943
0.24602
-0.293937
0.259447
-0.296045
0.273715
-0.298292
0.288813
-0.300638
0.304723
-0.303103
0.32155
-0.305683
0.339274
-0.308382
0.357969
-0.311202
0.377718
-0.314145
0.398534
-0.317211
0.4205
-0.320407
0.443669
-0.323702
0.468107
-0.327118
0.493911
-0.330641
0.521118
-0.334262
0.549823
-0.337973
0.580134
-0.341763
0.612096
-0.345624
0.645833
-0.349544
0.681452
-0.353514
0.719006
-0.357525
0.75868
-0.36157
0.800525
-0.365643
0.844716
-0.369737
0.891318
-0.373851
0.940578
-0.377982
0.992612
-0.382127
1.0475
-0.386287
1.10525
-0.390462
1.1665
-0.394653
1.23112
-0.398859
1.29914
-0.403082
1.37117
-0.407321
1.447
-0.411579
1.52725
-0.415855
1.61181
-0.42015
1.7012
-0.424464
1.79555
-0.428798
1.89512
-0.433164
2.00023
-0.437524
2.1112
-0.441915
2.22848
-0.446322
2.3522
-0.450743
2.48277
-0.455173
2.62072
-0.459609
2.76644
-0.464043
2.92025
-0.468469
3.08278
-0.472892
3.25423
-0.477261
3.43547
-0.481605
3.62669
-0.485899
3.82883
-0.490131
4.04226
-0.494288
4.26739
-0.498359
4.50539
-0.502336
4.75643
-0.506209
5.02158
-0.509971
5.3016
-0.513616
5.59707
-0.517149
5.90903
-0.520518
6.23831
-0.523758
6.58583
-0.526852
6.95227
-0.529797
7.33864
-0.532596
7.74708
-0.534539
5.93508
-0.536509
6.53153
-0.538497
7.18576
-0.540496
7.90815
-0.542496
8.70137
-0.544464
9.57448
-0.546385
10.5331
-0.54801
11.5874
-0.54979
12.7394
-0.550563
14.0139
-0.554429
15.3963
-0.554751
-0.323399
0.221325
-0.32551
0.234615
-0.327003
0.247512
-0.328588
0.261033
-0.330285
0.275412
-0.332061
0.290588
-0.333931
0.306593
-0.33586
0.32348
-0.33789
0.341304
-0.339994
0.360074
-0.342177
0.3799
-0.344459
0.400816
-0.346835
0.422876
-0.349307
0.446142
-0.35188
0.47068
-0.354556
0.496587
-0.357338
0.5239
-0.360239
0.552723
-0.363239
0.583135
-0.366349
0.615206
-0.369559
0.649043
-0.372888
0.68478
-0.376332
0.722449
-0.379856
0.762204
-0.383486
0.804156
-0.387217
0.848446
-0.39102
0.895121
-0.394899
0.944457
-0.398847
0.99656
-0.402858
1.05151
-0.406923
1.10931
-0.411038
1.17061
-0.415199
1.23528
-0.41939
1.30333
-0.42363
1.37541
-0.427906
1.45127
-0.432216
1.53156
-0.436558
1.61615
-0.440932
1.70557
-0.445336
1.79995
-0.449781
1.89957
-0.454229
2.00468
-0.458715
2.11568
-0.463238
2.233
-0.467769
2.35673
-0.472317
2.48731
-0.476867
2.62527
-0.481437
2.77101
-0.486011
2.92482
-0.490594
3.08736
-0.495137
3.25877
-0.499672
3.44
-0.504188
3.6312
-0.508646
3.83328
-0.513035
4.04665
-0.517368
4.27172
-0.521623
4.50964
-0.525789
4.7606
-0.529858
5.02564
-0.533822
5.30556
-0.537672
5.60092
-0.541399
5.91276
-0.545008
6.24192
-0.548445
6.58927
-0.551751
6.95558
-0.554907
7.3418
-0.557931
7.75011
-0.560011
5.93716
-0.562141
6.53366
-0.564296
7.18792
-0.56647
7.91032
-0.568666
8.70356
-0.570805
9.57662
-0.572908
10.5353
-0.574724
11.5892
-0.576688
12.7413
-0.577729
-0.360668
0.223412
-0.361866
0.235813
-0.363019
0.248665
-0.364325
0.262338
-0.365705
0.276793
-0.367154
0.292037
-0.36867
0.308109
-0.370257
0.325067
-0.37192
0.342966
-0.373658
0.361812
-0.375476
0.381718
-0.377376
0.402715
-0.379359
0.424859
-0.381428
0.448211
-0.383585
0.472836
-0.385831
0.498833
-0.388169
0.526238
-0.390601
0.555155
-0.393128
0.585662
-0.395753
0.617831
-0.398476
0.651767
-0.401301
0.687605
-0.404229
0.725377
-0.40726
0.765235
-0.410396
0.807291
-0.413637
0.851687
-0.416982
0.898466
-0.420429
0.947905
-0.423977
1.00011
-0.427623
1.05516
-0.431363
1.11305
-0.435192
1.17444
-0.439106
1.23919
-0.4431
1.30732
-0.447169
1.37948
-0.451307
1.45541
-0.455511
1.53576
-0.459775
1.62041
-0.464096
1.70989
-0.468469
1.80432
-0.472891
1.90399
-0.477358
2.00914
-0.481866
2.12019
-0.486412
2.23755
-0.490992
2.36131
-0.495601
2.49192
-0.500235
2.6299
-0.504887
2.77567
-0.509551
2.92948
-0.51422
3.09203
-0.518886
3.26344
-0.52354
3.44466
-0.52817
3.63583
-0.532765
3.83788
-0.537314
4.0512
-0.541803
4.27621
-0.546222
4.51406
-0.550561
4.76494
-0.554812
5.0299
-0.558965
5.30972
-0.563025
5.60498
-0.566939
5.91667
-0.570738
6.24572
-0.574399
6.59293
-0.577915
6.95909
-0.581284
7.34517
-0.584505
7.75333
-0.586756
5.93941
-0.589049
6.53595
-0.591377
7.19024
-0.593732
7.91268
-0.596102
8.70593
-0.598452
9.57897
-0.600749
10.5376
-0.602767
-0.398654
0.224414
-0.399474
0.236633
-0.400443
0.249634
-0.401495
0.263389
-0.402593
0.277892
-0.403746
0.29319
-0.404956
0.309319
-0.406237
0.326348
-0.407562
0.344291
-0.408965
0.363215
-0.410448
0.383202
-0.411995
0.404262
-0.41362
0.426484
-0.415315
0.449906
-0.417104
0.474625
-0.41899
0.500719
-0.420956
0.528203
-0.423003
0.557202
-0.425156
0.587814
-0.427406
0.620081
-0.429765
0.654126
-0.432204
0.690044
-0.434757
0.727929
-0.437423
0.767902
-0.440184
0.810052
-0.443039
0.854542
-0.446012
0.901438
-0.449091
0.950984
-0.452277
1.00329
-0.45557
1.05845
-0.458968
1.11645
-0.462472
1.17794
-0.466078
1.2428
-0.469798
1.31104
-0.473604
1.38329
-0.477505
1.45931
-0.481497
1.53975
-0.485576
1.62449
-0.489726
1.71404
-0.493979
1.80857
-0.49828
1.90829
-0.502661
2.01352
-0.507118
2.12465
-0.511607
2.24203
-0.516162
2.36587
-0.520763
2.49652
-0.525418
2.63456
-0.530094
2.78034
-0.534797
2.93419
-0.539506
3.09674
-0.544238
3.26817
-0.548985
3.4494
-0.553694
3.64054
-0.558394
3.84258
-0.563073
4.05588
-0.567678
4.28081
-0.572253
4.51863
-0.576745
4.76943
-0.581145
5.0343
-0.585472
5.31404
-0.589701
5.6092
-0.59382
5.92079
-0.597817
6.24971
-0.601695
6.59681
-0.605419
6.96282
-0.608999
7.34875
-0.612418
7.75675
-0.614842
5.94184
-0.617302
6.53841
-0.619807
7.19275
-0.62235
7.91522
-0.624902
-0.627473
-0.437597
0.225026
-0.438339
0.237376
-0.439149
0.250444
-0.440005
0.264245
-0.440899
0.278787
-0.441849
0.29414
-0.442826
0.310296
-0.443863
0.327386
-0.444954
0.345381
-0.4461
0.364362
-0.447306
0.384408
-0.448574
0.405531
-0.449909
0.427818
-0.451323
0.45132
-0.4528
0.476102
-0.454343
0.502262
-0.455978
0.529838
-0.457696
0.558921
-0.459503
0.589621
-0.461402
0.62198
-0.463397
0.656121
-0.465501
0.692148
-0.467685
0.730113
-0.469984
0.770202
-0.472391
0.812459
-0.474907
0.857058
-0.477533
0.904065
-0.480272
0.953723
-0.483125
1.00615
-0.486091
1.06141
-0.489182
1.11954
-0.492363
1.18113
-0.49567
1.24611
-0.499089
1.31446
-0.502618
1.38682
-0.506257
1.46295
-0.510003
1.5435
-0.513853
1.62834
-0.517816
1.71801
-0.521853
1.81261
-0.526008
1.91244
-0.530239
2.01776
-0.534541
2.12895
-0.538934
2.24643
-0.5434
2.37033
-0.547932
2.50106
-0.552524
2.63915
-0.557169
2.78499
-0.561858
2.93888
-0.566585
3.10146
-0.571353
3.27294
-0.57611
3.45416
-0.580901
3.64533
-0.585671
3.84735
-0.590408
4.06061
-0.595141
4.28555
-0.599803
4.5233
-0.604424
4.77405
-0.608995
5.03887
-0.613478
5.31853
-0.61786
5.61359
-0.622171
5.9251
-0.62634
6.25388
-0.630399
6.60087
-0.634324
6.96674
-0.638112
7.35253
-0.641774
-0.644326
-0.646956
-0.649643
-0.477648
0.225595
-0.478299
0.238026
-0.478992
0.251137
-0.479702
0.264955
-0.480447
0.279531
-0.481219
0.294912
-0.482052
0.311129
-0.482907
0.32824
-0.483828
0.346302
-0.484786
0.36532
-0.485784
0.385405
-0.486846
0.406593
-0.487964
0.428937
-0.489143
0.452499
-0.490385
0.477344
-0.491693
0.503571
-0.493072
0.531217
-0.494537
0.560385
-0.496068
0.591153
-0.497682
0.623593
-0.49937
0.657809
-0.501159
0.693938
-0.503054
0.732008
-0.505024
0.772172
-0.507107
0.814541
-0.509307
0.859258
-0.511603
0.906361
-0.514011
0.956131
-0.516534
1.00867
-0.519173
1.06405
-0.521918
1.12228
-0.524806
1.18401
-0.527804
1.2491
-0.53091
1.31757
-0.534148
1.39006
-0.537507
1.46631
-0.540985
1.54698
-0.54458
1.63194
-0.54829
1.72172
-0.552113
1.81643
-0.556045
1.91638
-0.560083
2.02179
-0.564223
2.13309
-0.568472
2.25068
-0.5728
2.37466
-0.577213
2.50547
-0.581693
2.64363
-0.586258
2.78955
-0.590887
2.94351
-0.595586
3.10616
-0.600305
3.27765
-0.605072
3.45893
-0.609864
3.65013
-0.614668
3.85215
-0.61947
4.06542
-0.624257
4.29033
-0.629018
4.52806
-0.633743
4.77878
-0.638419
5.04354
-0.643036
5.32314
-0.647596
5.61815
-0.65204
-0.656411
-0.660639
-0.664758
-0.518905
0.226116
-0.519455
0.238576
-0.520012
0.251695
-0.520609
0.265551
-0.521236
0.280158
-0.521906
0.295582
-0.522588
0.311811
-0.523328
0.328981
-0.524085
0.347059
-0.524894
0.366129
-0.525757
0.386269
-0.526655
0.407491
-0.527603
0.429885
-0.528592
0.453488
-0.529659
0.47841
-0.530773
0.504685
-0.531949
0.532394
-0.533181
0.561616
-0.534493
0.592465
-0.535879
0.624979
-0.537353
0.659284
-0.538898
0.695483
-0.540517
0.733627
-0.542249
0.773903
-0.544062
0.816355
-0.545962
0.861157
-0.547975
0.908374
-0.550094
0.958249
-0.552322
1.0109
-0.554662
1.06639
-0.557118
1.12474
-0.559693
1.18659
-0.56239
1.2518
-0.565221
1.3204
-0.568166
1.393
-0.571236
1.46938
-0.574432
1.55017
-0.577755
1.63526
-0.581203
1.72516
-0.584776
1.82001
-0.588458
1.92006
-0.592273
2.02561
-0.596216
2.13703
-0.600247
2.25471
-0.604399
2.37881
-0.608654
2.50973
-0.61302
2.648
-0.617464
2.794
-0.621991
2.94803
-0.626581
3.11075
-0.631251
3.28232
-0.63599
3.46367
-0.640745
3.65488
-0.645545
3.85695
-0.650377
-0.655201
-0.660017
-0.664816
-0.669572
-0.674314
-0.561427
0.226561
-0.561888
0.239037
-0.562381
0.252188
-0.562888
0.266058
-0.563421
0.280691
-0.563969
0.296131
-0.56457
0.312412
-0.565179
0.32959
-0.565844
0.347724
-0.566533
0.366817
-0.567247
0.386983
-0.568014
0.408258
-0.568823
0.430694
-0.569689
0.454354
-0.570581
0.479302
-0.571535
0.50564
-0.572545
0.533404
-0.573625
0.562696
-0.574756
0.593596
-0.575952
0.626175
-0.577206
0.660538
-0.578546
0.696823
-0.579976
0.735056
-0.581464
0.775391
-0.58305
0.817941
-0.584738
0.862846
-0.586509
0.910145
-0.588378
0.960119
-0.590351
1.01287
-0.592431
1.06847
-0.594621
1.12693
-0.596914
1.18888
-0.599349
1.25423
-0.601881
1.32293
-0.604549
1.39567
-0.607343
1.47217
-0.610265
1.5531
-0.613317
1.63831
-0.6165
1.72835
-0.619814
1.82332
-0.62327
1.92352
-0.626844
2.02918
-0.630533
-0.63436
-0.638322
-0.64239
-0.646558
-0.650848
-0.655239
-0.659739
-0.66431
-0.668944
-0.673668
-0.605361
-0.605742
-0.606156
-0.606591
-0.607048
-0.607529
-0.608035
-0.60858
-0.60913
-0.609722
-0.610346
-0.611018
-0.611715
-0.612441
-0.61322
-0.614057
-0.614931
-0.615845
-0.616825
-0.617864
-0.618978
-0.620134
-0.621372
-0.622685
-0.624088
-0.62555
-0.627111
-0.628763
-0.630512
-0.632362
-0.634316
-0.636391
-0.638555
-0.640848
-0.643262
-0.645799
-0.648464
-0.651271
-0.654184
-0.657244
-0.660438
)
;

boundaryField
{
    inlet
    {
        type            calculated;
        value           nonuniform List<scalar> 
13
(
-0.919757
-0.90841
-0.905726
-0.917927
-0.955592
-1.02152
-1.15972
-0.934637
-0.464632
-0.487908
-0.51236
-0.537885
-0.5646
)
;
    }
    outlet
    {
        type            calculated;
        value           nonuniform List<scalar> 0();
    }
    walls
    {
        type            calculated;
        value           uniform 0;
    }
    frontAndBack
    {
        type            empty;
    }
    procBoundary2to1
    {
        type            processor;
        value           nonuniform List<scalar> 
84
(
-0.206437
-0.232765
-0.251739
-0.268365
-0.282068
-0.297484
-0.313226
-0.330046
-0.347662
-0.366252
-0.385811
-0.406407
-0.428098
-0.450935
-0.475004
-0.500347
-0.527044
-0.555151
-0.584795
-0.616013
-0.648944
-0.683626
-0.720227
-0.758801
-0.799568
-0.84247
-0.887733
-0.935739
-0.986132
-1.03955
-1.096
-1.15552
-1.21837
-1.28507
-1.35528
-1.42976
-1.5083
-1.59155
-0.0257249
-1.67663
-1.7696
-1.86788
-1.97189
-2.08188
-2.19828
-2.32148
-2.45151
-2.58928
-2.73481
-2.88876
-3.05141
-3.22353
-3.40516
0.0778978
-3.59346
-3.79637
-4.0107
-4.23721
-4.47616
-4.72856
-4.99494
-5.27634
-5.57329
0.180482
-5.88091
-6.21136
-6.56004
-6.92789
-7.31502
-7.7248
-5.63526
-6.2012
-6.82413
-7.51177
0.420407
-8.22832
-9.05653
-9.96592
-10.9658
-12.0623
-13.2687
-14.5865
-16.0743
-17.6998
)
;
    }
    procBoundary2to3
    {
        type            processor;
        value           nonuniform List<scalar> 
88
(
17.0043
18.6871
14.0149
-0.581792
15.4003
11.5912
-0.6049
12.7435
8.70848
9.58154
-0.629973
10.5401
7.76041
5.94439
6.54104
7.19544
-0.652378
7.91795
5.92954
6.25826
6.6051
6.97086
-0.668748
7.35652
4.07025
4.29516
4.53287
4.78358
5.0483
5.32789
-0.678973
5.6228
2.14072
2.25854
2.38277
2.51379
2.65216
2.79829
2.95243
3.11525
3.2869
3.4683
3.65961
-0.67843
3.86172
0.226949
0.239419
0.252602
0.266493
0.281148
0.296612
0.312918
0.330135
0.348274
0.367409
0.387608
0.40893
0.431391
0.455079
0.480082
0.506477
0.534277
0.56361
0.594576
0.627214
0.661652
0.697979
0.736294
0.776704
0.819344
0.864308
0.911706
0.961772
1.01462
1.07032
1.12888
1.19096
1.2564
1.32522
1.39808
1.47471
1.55576
1.64112
1.73126
1.82638
1.92671
-0.663767
2.03251
)
;
    }
    procBoundary2to6
    {
        type            processor;
        value           nonuniform List<scalar> 
13
(
0.162623
0.178955
0.209773
0.242304
0.280411
0.319539
0.35858
0.397652
0.436985
0.477079
0.518384
0.560982
0.604973
)
;
    }
}


// ************************************************************************* //
