/*--------------------------------*- C++ -*----------------------------------*\
| =========                 |                                                 |
| \\      /  F ield         | OpenFOAM: The Open Source CFD Toolbox           |
|  \\    /   O peration     | Version:  2506                                  |
|   \\  /    A nd           | Website:  www.openfoam.com                      |
|    \\/     M anipulation  |                                                 |
\*---------------------------------------------------------------------------*/
FoamFile
{
    version     2.0;
    format      ascii;
    arch        "LSB;label=32;scalar=64";
    class       volScalarField;
    location    "400";
    object      turbulenceProperties:L;
}
// * * * * * * * * * * * * * * * * * * * * * * * * * * * * * * * * * * * * * //

dimensions      [0 1 0 0 0 0 0];

internalField   nonuniform List<scalar> 
1340
(
0.0560831
0.0562072
0.0564334
0.0565267
0.212398
0.207405
0.198332
0.175243
0.258857
0.261729
0.273179
0.246072
0.235054
0.245828
0.257503
0.242418
0.118288
0.0874555
0.110187
0.192178
0.667182
0.05045
0.0603795
0.0990729
0.0619148
0.33629
3.39736
0.0221275
0.0487393
0.058419
0.29244
0.0608759
0.0436562
0.0422626
0.040981
0.453463
0.0475331
0.0478494
0.0374672
0.0652858
0.0472695
0.0473397
0.0399421
0.0355568
0.0490726
0.0487955
0.0430609
0.034066
0.0500328
0.0496837
0.0448559
0.0355452
0.0514864
0.0512604
0.0466212
0.0374641
0.0529083
0.0528154
0.0484729
0.0394428
0.0545722
0.0546266
0.0505495
0.0415414
0.0563958
0.0566152
0.0528076
0.0438192
0.0584513
0.0588616
0.0552808
0.0463046
0.060756
0.0613898
0.0580029
0.0490232
0.0633568
0.0642574
0.0610069
0.051986
0.0663029
0.0675268
0.0643508
0.0552277
0.0696598
0.071276
0.0680911
0.0587748
0.0735068
0.0756154
0.0723034
0.0626538
0.0779442
0.0806816
0.0770917
0.0669092
0.0831061
0.0866739
0.0825673
0.0715683
0.0891639
0.0938701
0.0888873
0.0766746
0.0963451
0.102684
0.0962389
0.0822545
0.104949
0.113773
0.10486
0.0883298
0.115362
0.128248
0.11501
0.0948903
0.128025
0.148187
0.12692
0.101873
0.143259
0.178186
0.140583
0.109141
0.160581
0.231148
0.155275
0.116446
0.177086
0.371306
0.168765
0.123428
0.18664
0.537584
0.177414
0.129663
0.185478
0.284895
0.179
0.134775
0.17744
0.222674
0.175105
0.138564
0.167975
0.192858
0.168959
0.141076
0.159668
0.175354
0.162781
0.142561
0.136149
0.153119
0.164101
0.1575
0.143354
0.135134
0.148233
0.156566
0.153353
0.143782
0.134388
0.144762
0.151478
0.150301
0.144102
0.134039
0.142468
0.148134
0.148235
0.144503
0.134145
0.141157
0.1461
0.147028
0.145103
0.134723
0.140683
0.145104
0.146576
0.145978
0.135771
0.14093
0.144959
0.146795
0.147175
0.137278
0.141815
0.145535
0.14761
0.148714
0.139228
0.143272
0.146743
0.148972
0.150609
0.141607
0.145253
0.148515
0.150838
0.15287
0.144405
0.147722
0.150805
0.153177
0.155495
0.147615
0.150658
0.153584
0.155972
0.158495
0.15124
0.15405
0.156834
0.159215
0.161878
0.155294
0.157903
0.160558
0.162912
0.165665
0.157437
0.159802
0.162236
0.164771
0.167083
0.169887
0.162609
0.1648
0.167079
0.169502
0.171759
0.174581
0.168285
0.170323
0.172464
0.174781
0.176972
0.179791
0.174495
0.176397
0.178412
0.180628
0.182745
0.185544
0.181242
0.183021
0.184921
0.18704
0.189075
0.191845
0.188499
0.190167
0.191959
0.193986
0.195934
0.19867
0.196234
0.1978
0.199492
0.20143
0.203289
0.205983
0.204454
0.205927
0.207527
0.209379
0.211147
0.213786
0.213259
0.21465
0.216163
0.21793
0.219603
0.222171
0.221641
0.222854
0.224174
0.225608
0.227289
0.22886
0.231339
0.23233
0.233493
0.234751
0.236108
0.237699
0.239155
0.241529
0.244278
0.245404
0.246607
0.247891
0.249391
0.250712
0.252977
0.257579
0.258677
0.259829
0.26104
0.262447
0.263611
0.26577
0.272247
0.273325
0.274435
0.275573
0.276889
0.277887
0.279964
0.287947
0.289019
0.290093
0.291151
0.292351
0.293145
0.295073
0.303277
0.304398
0.30549
0.306523
0.307665
0.308297
0.310037
0.317561
0.318786
0.319954
0.32104
0.32222
0.322791
0.324478
0.332297
0.333671
0.334973
0.336166
0.337432
0.337997
0.339665
0.348645
0.350188
0.351651
0.352965
0.354334
0.354915
0.356588
0.365536
0.367609
0.36952
0.371273
0.372779
0.374217
0.374591
0.375469
0.387669
0.390639
0.393489
0.396173
0.398593
0.400911
0.40247
0.405042
0.422278
0.426355
0.429971
0.433044
0.435331
0.436747
0.434859
0.43054
0.490599
0.503279
0.515759
0.527564
0.538355
0.547935
0.556053
0.568847
0.548469
0.553502
0.554953
0.552391
0.544291
0.530582
0.501689
0.466619
0.519243
0.520597
0.522289
0.524701
0.52661
0.518993
0.478318
0.443615
0.316317
0.310586
0.305844
0.301652
0.297016
0.290542
0.276236
0.265822
0.23081
0.230453
0.230198
0.230027
0.22991
0.229525
0.227244
0.23279
0.166989
0.166961
0.167007
0.167095
0.167284
0.16738
0.168067
0.174489
0.143071
0.180616
0.22912
0.222569
0.156916
0.0564119
0.0223938
0.0619385
0.36865
0.0462813
0.0331209
0.0331472
0.034778
0.0365722
0.0383983
0.0403317
0.0424267
0.0446991
0.047158
0.0498239
0.0527101
0.0558335
0.0592105
0.0628549
0.0667832
0.0710021
0.0755147
0.080315
0.0853817
0.0906741
0.0961272
0.101649
0.107127
0.112424
0.117408
0.121968
0.126032
0.129585
0.132665
0.135348
0.137738
0.139942
0.142061
0.144185
0.146389
0.148731
0.151257
0.154007
0.157008
0.16029
0.163881
0.167813
0.17213
0.176878
0.182106
0.187847
0.19411
0.200875
0.208111
0.215827
0.224115
0.233174
0.243236
0.254523
0.267113
0.281087
0.295896
0.310573
0.324737
0.339667
0.356404
0.374633
0.404813
0.425771
0.574229
0.446832
0.465068
0.268241
0.247667
0.185172
0.218339
0.222016
0.253848
0.259763
0.163774
0.13975
0.675201
2.11229
0.230581
0.0483217
0.0433524
0.0439916
0.0453576
0.046704
0.0480603
0.0495206
0.0511204
0.0528821
0.054804
0.0569054
0.059195
0.0616881
0.0643979
0.0673224
0.0704746
0.0738585
0.0774679
0.0812926
0.0853205
0.089524
0.0938685
0.0983081
0.102789
0.107251
0.111626
0.115862
0.119904
0.123723
0.127307
0.130664
0.133822
0.136825
0.139718
0.142561
0.145406
0.148303
0.1513
0.154436
0.157751
0.161282
0.165065
0.169142
0.173564
0.178384
0.183652
0.189406
0.195656
0.202383
0.209564
0.217217
0.225439
0.234431
0.244418
0.25561
0.268068
0.281882
0.296526
0.311106
0.325136
0.339867
0.356473
0.374502
0.404698
0.424548
0.57692
0.436285
0.49704
0.267745
0.248802
0.183085
0.27732
0.260472
0.258754
0.246286
0.0847132
0.0443608
0
0.719568
0.0903832
0.0555336
0.0559237
0.0573918
0.0590117
0.0604736
0.0619198
0.0634277
0.064998
0.0666459
0.0683847
0.0701955
0.0721044
0.0741152
0.0762499
0.0785001
0.0808825
0.0834168
0.0861022
0.0889386
0.0919348
0.0950806
0.0983668
0.101777
0.105288
0.108871
0.112494
0.116129
0.119739
0.1233
0.126793
0.13021
0.133547
0.136819
0.14004
0.143241
0.146449
0.149697
0.153022
0.156454
0.160028
0.163783
0.167753
0.171986
0.176533
0.181451
0.186792
0.192592
0.198865
0.20559
0.212752
0.220375
0.228567
0.23753
0.24749
0.258643
0.271034
0.284761
0.29932
0.313846
0.327741
0.342217
0.358639
0.376437
0.406421
0.425831
0.573226
0.432098
0.514413
0.268847
0.251336
0.182859
0.319317
0.292423
0.252909
0.136986
0.0722416
0
1.9612
0.23034
0.073798
0.0666328
0.06889
0.0701787
0.0715452
0.0727802
0.0740939
0.0755043
0.0769777
0.0785274
0.0801519
0.0818232
0.0835678
0.0853632
0.087224
0.0891545
0.0911504
0.0932242
0.0953865
0.0976387
0.0999914
0.102448
0.105014
0.107691
0.110473
0.113358
0.116335
0.119391
0.122513
0.125687
0.128899
0.13214
0.135401
0.138679
0.141982
0.145316
0.148694
0.152133
0.155656
0.159283
0.163043
0.166965
0.171083
0.175444
0.180097
0.185099
0.190503
0.196344
0.202633
0.209353
0.216491
0.224079
0.232235
0.241163
0.251082
0.262183
0.274495
0.288112
0.302545
0.316926
0.330599
0.344764
0.36092
0.378364
0.407894
0.426737
0.56489
0.429143
0.522829
0.270207
0.254602
0.183533
0.350703
0.312767
0.193598
0.147612
0
6.39311
0.720514
0.102896
0.0770484
0.0780088
0.0800097
0.080674
0.081442
0.0821408
0.0829562
0.0838566
0.0848476
0.0859524
0.0871543
0.088463
0.0898905
0.0914275
0.0930634
0.0948194
0.0966793
0.0986274
0.100682
0.102827
0.105057
0.107375
0.109777
0.112265
0.11483
0.117481
0.120213
0.12302
0.125907
0.128865
0.131893
0.134992
0.13815
0.141373
0.144666
0.148024
0.151457
0.154976
0.158594
0.162324
0.166185
0.170205
0.174411
0.178848
0.183563
0.188609
0.194041
0.199889
0.206163
0.212847
0.219934
0.227461
0.235552
0.244412
0.254251
0.265251
0.277419
0.290855
0.305084
0.319237
0.332618
0.346437
0.362267
0.379286
0.408171
0.426187
0.554047
0.424559
0.529195
0.270148
0.256365
0.183619
0.376254
0.326597
0.120701
0.06168
0.00667461
0.53822
0.139985
0.0878372
0.0849975
0.0879393
0.0889754
0.089369
0.0899226
0.0904902
0.0911716
0.0919137
0.0927532
0.0936869
0.0946942
0.0957972
0.0969925
0.0982859
0.0996667
0.101157
0.102749
0.104437
0.106244
0.108151
0.110165
0.112287
0.11451
0.116837
0.119254
0.121768
0.124372
0.127057
0.129828
0.132676
0.135606
0.138615
0.141698
0.144866
0.148119
0.151455
0.154887
0.158419
0.162061
0.165825
0.169725
0.173783
0.178026
0.182494
0.187231
0.192288
0.197717
0.203545
0.209777
0.216402
0.223416
0.230863
0.238871
0.24764
0.257375
0.268238
0.280223
0.293433
0.307416
0.321304
0.33435
0.347792
0.363249
0.379795
0.407916
0.424925
0.542437
0.419186
0.537023
0.269549
0.393907
0.248675
0.0624745
0.249922
1.61039
0.199368
0.102826
0.0963476
0.0989234
0.100827
0.100854
0.100961
0.101206
0.10151
0.101927
0.102406
0.102994
0.103682
0.104451
0.105319
0.106278
0.107335
0.108494
0.109746
0.111087
0.112533
0.114083
0.115722
0.117466
0.119313
0.12126
0.123315
0.125471
0.127731
0.130097
0.132562
0.135132
0.137796
0.140563
0.143427
0.146385
0.149447
0.152608
0.155873
0.159251
0.162739
0.166353
0.170097
0.173985
0.178036
0.182274
0.186735
0.191461
0.196502
0.201901
0.207685
0.213857
0.220405
0.22733
0.234684
0.242595
0.25126
0.260873
0.27158
0.283356
0.296314
0.310029
0.323616
0.336283
0.349312
0.364341
0.380359
0.40761
0.423455
0.530658
0.413942
0.445736
0.175951
10.3521
2.52202
0.2905
0.118271
0.108991
0.111397
0.113765
0.113937
0.113501
0.113398
0.113387
0.113466
0.113652
0.113922
0.1143
0.114776
0.11534
0.116004
0.116759
0.117608
0.118559
0.119599
0.120723
0.121951
0.123273
0.12468
0.126188
0.127791
0.129489
0.131291
0.13319
0.135192
0.137301
0.139516
0.141842
0.144275
0.146823
0.149486
0.152261
0.155158
0.158172
0.16131
0.164577
0.167971
0.171505
0.175181
0.179011
0.183013
0.187205
0.191622
0.196303
0.201295
0.206636
0.212349
0.218437
0.224887
0.231705
0.238947
0.246744
0.255286
0.264754
0.27528
0.286814
0.29949
0.3129
0.326135
0.338375
0.350953
0.365496
0.380928
0.407177
0.42173
0.181676
0
10.2952
1.49979
0.132158
0.121525
0.124041
0.126663
0.126834
0.126005
0.125431
0.125094
0.124844
0.124716
0.1247
0.124797
0.12501
0.125324
0.125742
0.126265
0.12689
0.127608
0.128418
0.12933
0.130325
0.131408
0.132584
0.133847
0.1352
0.136639
0.138173
0.139803
0.141519
0.14334
0.145262
0.147283
0.149415
0.151655
0.154009
0.156482
0.159077
0.161797
0.164648
0.167634
0.170759
0.174025
0.177443
0.181014
0.184748
0.18866
0.192768
0.197106
0.201706
0.206614
0.211864
0.217475
0.223448
0.229774
0.23646
0.243567
0.251226
0.259618
0.26891
0.279218
0.290471
0.302822
0.31588
0.328705
0.340472
0.352564
0.366564
0
0
1.09589
0.157395
0.13252
0.138443
0.140669
0.140738
0.139502
0.138427
0.137699
0.137102
0.136622
0.136286
0.136075
0.135978
0.136011
0.136163
0.136426
0.136801
0.137284
0.13787
0.138551
0.139335
0.140207
0.141166
0.142221
0.143361
0.144585
0.145894
0.147298
0.148789
0.150362
0.152041
0.153811
0.155679
0.157654
0.159734
0.161927
0.164238
0.16667
0.16923
0.171922
0.174754
0.177731
0.180854
0.184136
0.187577
0.191187
0.19498
0.198973
0.203197
0.207682
0.212472
0.217596
0.223072
0.2289
0.235071
0.241598
0.248543
0.256035
0.264246
0.273327
0.283374
0.294302
0.306282
0
1.56407
0.194443
0.147077
0.153015
0.156747
0.155747
0.154205
0.152635
0.151501
0.150562
0.149745
0.149083
0.148563
0.148188
0.147937
0.147819
0.147838
0.147967
0.148213
0.148566
0.149027
0.149587
0.150244
0.150988
0.151822
0.152748
0.153754
0.154845
0.156018
0.15728
0.158627
0.160056
0.161582
0.163198
0.16491
0.166726
0.168644
0.170675
0.172822
0.175088
0.177485
0.180014
0.182686
0.185505
0.188473
0.191604
0.194897
0.198362
0.202013
0.205863
0.209943
0.214283
0.218922
0.223887
0.229196
0.234846
0.240832
0.247171
0.253924
0.26122
1.64383
0.22858
0.16122
0.168954
0.173476
0.171903
0.169585
0.167689
0.16612
0.164848
0.163711
0.162728
0.161915
0.161248
0.160749
0.160381
0.160151
0.160067
0.160096
0.160247
0.160508
0.160879
0.161344
0.161906
0.162554
0.163286
0.164106
0.165
0.165974
0.167025
0.168157
0.169367
0.170656
0.172036
0.173498
0.175054
0.176707
0.178457
0.18032
0.182296
0.184388
0.18661
0.188967
0.191465
0.194113
0.196913
0.199876
0.203003
0.206303
0.209787
0.213469
0.217378
0.221542
0.225998
0.230801
0.188659
0.183408
0.191512
0.188503
0.18567
0.183362
0.181487
0.179862
0.178442
0.177146
0.176046
0.175126
0.174355
0.173754
0.173294
0.172984
0.172814
0.172765
0.172839
0.173025
0.173315
0.173709
0.174191
0.174756
0.17541
0.176139
0.176941
0.177817
0.178765
0.179788
0.180878
0.182047
0.183295
0.184617
0.186029
0.187528
0.189122
0.190821
0.192625
0.194546
0.196592
)
;

boundaryField
{
    inlet
    {
        type            calculated;
        value           nonuniform List<scalar> 
13
(
0.0988009
0.0981465
0.0975817
0.0970812
0.0966035
0.096117
0.0954966
0.0953179
0.0957685
0.0960395
0.0963976
0.0967101
0.0969676
)
;
    }
    outlet
    {
        type            calculated;
        value           nonuniform List<scalar> 0();
    }
    walls
    {
        type            calculated;
        value           uniform 0;
    }
    frontAndBack
    {
        type            empty;
    }
    procBoundary2to1
    {
        type            processor;
        value           nonuniform List<scalar> 
84
(
0.0559807
0.217005
0.252161
0.240332
0.0722419
8.58406
0.0391612
0.0456642
0.0438444
0.0469395
0.046962
0.0483372
0.0492046
0.0504374
0.0516821
0.0531059
0.054666
0.0564086
0.05835
0.0605189
0.0629493
0.0656804
0.0687557
0.072225
0.0761466
0.0805834
0.0855983
0.0912445
0.0975486
0.104465
0.111824
0.11926
0.126172
0.131828
0.13565
0.137529
0.137837
0.137186
0.137186
0.121579
0.12289
0.124108
0.125368
0.126775
0.128399
0.130291
0.132481
0.13499
0.13783
0.141011
0.144543
0.148441
0.152728
0.152728
0.155179
0.160531
0.166364
0.172712
0.179583
0.186953
0.19479
0.203101
0.211983
0.211983
0.220509
0.231235
0.243204
0.256513
0.271174
0.286855
0.302116
0.316274
0.330843
0.347003
0.347003
0.363342
0.384633
0.417817
0.478137
0.54035
0.517409
0.32324
0.231336
0.167126
)
;
    }
    procBoundary2to3
    {
        type            processor;
        value           nonuniform List<scalar> 
88
(
0.257288
0.183447
0.544511
0.257288
0.268982
0.518645
0.544511
0.409009
0.381365
0.406464
0.518645
0.419647
0.318938
0.331296
0.342549
0.354123
0.381365
0.367528
0.269215
0.278045
0.287788
0.298342
0.318938
0.309907
0.230772
0.235881
0.241322
0.247092
0.253213
0.259744
0.269215
0.266808
0.198771
0.201089
0.203557
0.206179
0.208959
0.211904
0.21502
0.218317
0.221806
0.225516
0.229474
0.230772
0.233715
0.19926
0.21019
0.206459
0.206469
0.202035
0.199729
0.197515
0.195647
0.193931
0.192393
0.191029
0.189862
0.188877
0.188032
0.187367
0.186854
0.186485
0.186251
0.186141
0.186154
0.18628
0.186506
0.186827
0.187238
0.187734
0.188307
0.188949
0.189667
0.190448
0.191298
0.192214
0.193195
0.194246
0.195365
0.196558
0.19783
0.19918
0.200623
0.202162
0.203798
0.20555
0.198771
0.20742
)
;
    }
    procBoundary2to6
    {
        type            processor;
        value           nonuniform List<scalar> 
13
(
0.161929
0.235677
0.297562
0.341895
0.373957
0.398992
0.420152
0.438393
0.506913
0.135179
0
0
1.49428
)
;
    }
}


// ************************************************************************* //
