/*--------------------------------*- C++ -*----------------------------------*\
| =========                 |                                                 |
| \\      /  F ield         | OpenFOAM: The Open Source CFD Toolbox           |
|  \\    /   O peration     | Version:  2506                                  |
|   \\  /    A nd           | Website:  www.openfoam.com                      |
|    \\/     M anipulation  |                                                 |
\*---------------------------------------------------------------------------*/
FoamFile
{
    version     2.0;
    format      ascii;
    arch        "LSB;label=32;scalar=64";
    class       volScalarField;
    location    "450";
    object      magR;
}
// * * * * * * * * * * * * * * * * * * * * * * * * * * * * * * * * * * * * * //

dimensions      [0 2 -2 0 0 0 0];

internalField   nonuniform List<scalar> 
1340
(
0.023538
0.0274622
0.0324771
0.039289
0.0473598
0.0576332
0.0707696
0.0870425
0.107706
0.134069
0.168129
0.213099
0.273425
0.356422
0.474562
0.647436
0.913673
1.32394
2.04424
3.16552
5.69245
9.51381
22.2731
43.4787
48.1808
46.0941
45.2946
46.1248
47.1529
47.414
46.7863
45.3896
43.1325
40.0444
36.0571
0.020032
0.0171884
0.0140007
0.0112669
0.00868558
0.00635913
0.0044804
0.00360469
0.0035844
0.00354304
0.0034405
0.00328197
0.00309976
0.00288482
0.00264314
0.00240398
0.0021695
0.00194594
0.00179066
0.0017693
0.00194392
0.00252446
0.00397242
0.00759089
0.0159119
0.038474
0.0943329
0.279531
0.771777
2.37089
7.60626
14.8861
22.3845
29.4313
34.4273
35.4227
32.5011
27.6994
22.8383
18.8952
15.8727
13.5508
0.0035722
0.00352402
0.00342528
0.00327883
0.00307843
0.00281403
0.00241978
0.00240068
0.00234654
0.00226375
0.00217717
0.00208202
0.00198581
0.00189929
0.00182488
0.00176715
0.00172253
0.00169695
0.00169023
0.00170479
0.00170942
0.00166256
0.00139696
0.00126034
0.000416249
0.00777971
0.0154034
0.000734995
0.00844327
0.0194801
0.220091
0.788592
2.01897
4.56202
9.01324
14.8907
20.2073
22.8213
22.3123
20.0354
17.3832
0.00243862
0.00243561
0.00242913
0.00238586
0.00230911
0.00218026
0.00204214
0.00204636
0.00203607
0.00201912
0.00198413
0.00193205
0.00186712
0.00178607
0.00169343
0.00159096
0.00148086
0.00136465
0.00124346
0.00111948
0.000993841
0.000862434
0.00072801
0.000620062
0.000479728
0.000262329
3.39155e-05
9.7037e-05
0
0.00480937
0.0259754
0.0523993
0.073374
0.00175625
0.0419476
0.440317
1.95598
5.33181
9.99523
13.8703
15.54
0.00202024
0.00198706
0.00193497
0.00187223
0.00179357
0.0015321
0.00152939
0.00151745
0.00149615
0.0014632
0.00141852
0.00136452
0.00130202
0.00123305
0.00116185
0.00109069
0.00102244
0.00096014
0.000905695
0.0008604
0.000822338
0.000782467
0.000730936
0.000683195
0.000609233
0.000482768
0.000290284
3.07499e-05
8.93392e-06
0
0
0
0.000948921
0.0272844
0.0119718
0.0352405
0.0652182
0.410737
2.39795
6.15486
0.00152813
0.00151732
0.0014958
0.00146134
0.00141275
0.0012558
0.00126116
0.00126065
0.00125615
0.00124381
0.00122381
0.00119703
0.0011624
0.00112064
0.00107288
0.00101953
0.000961856
0.000901209
0.000838671
0.000775346
0.000709716
0.00063825
0.000564578
0.00049687
0.000436096
0.000390583
0.000343864
0.000294686
0.000114353
1.4801e-05
7.66938e-06
3.43535e-06
2.07905e-07
0
0.00151351
0.00840756
0.0453998
0.00868358
0.111391
0.243543
0.00124442
0.0012287
0.00120582
0.00117563
0.00101587
0.00102033
0.00102104
0.00101846
0.00101034
0.000996296
0.00097665
0.000950828
0.000919055
0.000882211
0.000840924
0.000796228
0.000749501
0.000702072
0.000655049
0.000610001
0.000569167
0.000531107
0.000492248
0.00045197
0.000412443
0.000376009
0.000356115
0.000312741
0.000221017
0.000134871
5.14349e-05
2.57678e-06
4.31901e-06
3.7328e-07
0
0
0.00111821
0.0351644
0.026618
0.00100752
0.000996226
0.000979795
0.000957166
0.000841976
0.000847723
0.000851137
0.000852512
0.000850178
0.000843801
0.000833637
0.000818937
0.000799699
0.000776333
0.000748804
0.000717647
0.000683474
0.000646845
0.000608411
0.000568958
0.000527995
0.000484457
0.00044034
0.000398722
0.00036174
0.000331313
0.000309062
0.00029509
0.000272739
0.000233466
0.000180395
0.000123198
7.40373e-05
5.88835e-06
3.52768e-06
1.30826e-07
0
0
0.00384208
0.00083334
0.000822931
0.000808981
0.000790464
0.000702353
0.000707888
0.000711922
0.00071444
0.000714348
0.000711283
0.000705316
0.000695787
0.000682614
0.000665918
0.000645646
0.000622082
0.000595645
0.000566758
0.000536049
0.000504011
0.000471376
0.000439414
0.000408227
0.000377807
0.000348678
0.000322044
0.000298171
0.000277315
0.000256903
0.00023265
0.000206156
0.000177132
0.000149662
0.000107336
6.96958e-05
2.62827e-06
1.85704e-06
0
0
0.000694767
0.000685984
0.000674636
0.000607184
0.000606763
0.000604233
0.000599033
0.000591079
0.000580363
0.000566712
0.000550259
0.000531199
0.000509743
0.000486231
0.000461003
0.000434583
0.000406926
0.000378221
0.000349699
0.000322882
0.000298904
0.000277786
0.000257733
0.000236407
0.00021269
0.000188784
0.000167629
0.000150893
0.000136955
0.000122988
8.88811e-05
3.72278e-05
3.30363e-06
0
0.000519069
0.000516458
0.000511668
0.000504668
0.000495243
0.000483426
0.000469288
0.00045292
0.000434562
0.000414488
0.000393
0.000370585
0.000347751
0.00032495
0.000302912
0.000282234
0.000263129
0.000244495
0.000224278
0.000201556
0.000177957
0.000156743
0.000139726
0.000127345
0.000118081
0.000112495
9.84217e-05
5.71335e-05
3.78811e-06
0.000445229
0.000441027
0.000434875
0.000426752
0.000416651
0.000404593
0.000390695
0.000375119
0.000358099
0.000339984
0.000320904
0.000301278
0.000281974
0.000263652
0.000246476
0.000229675
0.000211637
0.000191433
0.000170119
0.000150197
0.000133382
0.000119895
0.000108908
0.00010176
9.83594e-05
9.47741e-05
6.18885e-05
0.00038612
0.000382243
0.000376747
0.000369576
0.000360693
0.000350163
0.000338081
0.000324583
0.000309969
0.000294464
0.000278362
0.00026219
0.000246433
0.000231201
0.000216013
0.000199789
0.000181822
0.000162853
0.000144798
0.000129151
0.000116035
0.000104833
9.54936e-05
8.8992e-05
8.65618e-05
9.12105e-05
0.000336765
0.00033322
0.000328293
0.000321925
0.000314117
0.000304911
0.000294379
0.000282752
0.000270178
0.000256831
0.000243106
0.000229487
0.00021607
0.000202519
0.000188066
0.000172175
0.000155376
0.000139168
0.000124859
0.000112653
0.000102115
9.29067e-05
8.51697e-05
7.9459e-05
7.82154e-05
0.000297184
0.000295075
0.000291815
0.000287339
0.000281614
0.00027466
0.000266518
0.000257313
0.000247212
0.00023633
0.000224877
0.00021327
0.000201595
0.000189617
0.000176813
0.000162793
0.000147937
0.000133412
0.000120344
0.000109038
9.9215e-05
9.0668e-05
8.31628e-05
7.75374e-05
6.97893e-05
0.000261649
0.00025963
0.000256592
0.000252511
0.000247361
0.000241156
0.000233956
0.000225921
0.00021709
0.000207578
0.000197729
0.000187642
0.00017716
0.000165906
0.000153601
0.000140523
0.000127574
0.000115697
0.000105251
9.6084e-05
8.8109e-05
8.10784e-05
7.5879e-05
6.90727e-05
0.000231176
0.000229237
0.000226415
0.000222676
0.000218013
0.000212448
0.000206108
0.000199011
0.000191204
0.000182931
0.000174299
0.000165213
0.000155401
0.000144657
0.000133193
0.000121704
0.000110971
0.000101367
9.28411e-05
8.53521e-05
7.88071e-05
7.35136e-05
6.93994e-05
0.00020602
0.000204894
0.000203033
0.000200396
0.000196965
0.00019273
0.000187783
0.000182134
0.000175789
0.00016889
0.000161569
0.000153767
0.000145281
0.000135958
0.000125958
0.000115818
0.000106178
9.74025e-05
8.952e-05
8.25031e-05
7.64081e-05
7.10778e-05
6.80496e-05
0.000183208
0.000182081
0.000180299
0.000177838
0.000174682
0.00017087
0.000166423
0.000161318
0.00015562
0.000149471
0.000142836
0.000135556
0.000127515
0.000118837
0.000109935
0.00010133
9.3363e-05
8.61171e-05
7.95891e-05
7.38841e-05
6.88015e-05
6.55453e-05
0.000163906
0.000163327
0.000162204
0.000160502
0.000158203
0.000155306
0.000151849
0.000147791
0.000143139
0.000138021
0.000132429
0.000126234
0.000119346
0.000111858
0.000104086
9.64515e-05
8.92633e-05
8.26381e-05
7.66072e-05
7.12562e-05
6.65547e-05
6.28594e-05
0.000146522
0.000145899
0.000144786
0.000143163
0.000141013
0.000138376
0.000135193
0.000131439
0.000127223
0.000122554
0.000117328
0.000111468
0.000105043
9.82967e-05
9.15649e-05
8.51213e-05
7.90979e-05
7.3558e-05
6.85564e-05
6.42104e-05
6.03624e-05
0.000131471
0.000131221
0.000130565
0.000129477
0.000127929
0.000125951
0.000123487
0.000120499
0.000117065
0.000113203
0.000108836
0.000103889
9.84122e-05
9.25914e-05
8.66936e-05
8.09542e-05
7.55116e-05
7.04478e-05
6.58064e-05
6.17528e-05
5.80159e-05
0.000118018
0.000117707
0.000117032
0.000115962
0.000114513
0.000112643
0.000110302
0.00010754
0.00010438
0.000100764
9.66209e-05
9.19829e-05
8.69927e-05
8.1859e-05
7.67814e-05
7.18936e-05
6.72872e-05
6.30087e-05
5.92113e-05
5.56953e-05
0.000106136
0.000106086
0.000105728
0.000105036
0.000104014
0.000102627
0.00010083
9.86361e-05
9.60816e-05
9.31147e-05
8.96729e-05
8.57731e-05
8.15233e-05
7.70836e-05
7.26217e-05
6.826e-05
6.40929e-05
6.01703e-05
5.66195e-05
5.33295e-05
9.54489e-05
9.55901e-05
9.54746e-05
9.50781e-05
9.4392e-05
9.33985e-05
9.20459e-05
9.03293e-05
8.82882e-05
8.58831e-05
8.30512e-05
7.9798e-05
7.62036e-05
7.23906e-05
6.84945e-05
6.46273e-05
6.08784e-05
5.72999e-05
5.39976e-05
5.09113e-05
8.61141e-05
8.618e-05
8.60098e-05
8.55888e-05
8.49089e-05
8.39226e-05
8.26053e-05
8.09999e-05
7.90717e-05
7.67624e-05
7.40688e-05
7.10495e-05
6.7798e-05
6.44197e-05
6.1012e-05
5.76581e-05
5.44108e-05
5.13523e-05
4.8457e-05
7.75626e-05
7.7761e-05
7.77615e-05
7.75484e-05
7.71166e-05
7.64242e-05
7.54395e-05
7.41971e-05
7.26714e-05
7.08077e-05
6.85968e-05
6.60797e-05
6.33252e-05
6.0416e-05
5.74323e-05
5.4448e-05
5.1515e-05
4.86996e-05
4.59849e-05
6.9847e-05
7.0138e-05
7.02663e-05
7.02132e-05
6.99767e-05
6.95177e-05
6.88048e-05
6.78618e-05
6.66725e-05
6.5187e-05
6.33889e-05
6.1307e-05
5.899e-05
5.65006e-05
5.39051e-05
5.12657e-05
4.86262e-05
4.60486e-05
4.35132e-05
6.3243e-05
6.34629e-05
6.35302e-05
6.3443e-05
6.31685e-05
6.26739e-05
6.19789e-05
6.10676e-05
5.98968e-05
5.84486e-05
5.67407e-05
5.48063e-05
5.26906e-05
5.04457e-05
4.81242e-05
4.57631e-05
4.34098e-05
4.1055e-05
5.70081e-05
5.72916e-05
5.74469e-05
5.74727e-05
5.73412e-05
5.70216e-05
5.65262e-05
5.58431e-05
5.49343e-05
5.37807e-05
5.23908e-05
5.07869e-05
4.90007e-05
4.70711e-05
4.5039e-05
4.29366e-05
4.07999e-05
3.86203e-05
5.13724e-05
5.16964e-05
5.19146e-05
5.20239e-05
5.20016e-05
5.182e-05
5.14846e-05
5.09859e-05
5.02921e-05
4.93841e-05
4.8263e-05
4.69427e-05
4.54442e-05
4.37948e-05
4.20262e-05
4.01617e-05
3.823e-05
3.62218e-05
4.66277e-05
4.68888e-05
4.70578e-05
4.71171e-05
4.70411e-05
4.68316e-05
4.64807e-05
4.5962e-05
4.52562e-05
4.43608e-05
4.3282e-05
4.20323e-05
4.063e-05
3.90975e-05
3.74524e-05
3.5713e-05
3.38717e-05
4.20401e-05
4.23269e-05
4.25359e-05
4.26543e-05
4.26587e-05
4.25463e-05
4.23123e-05
4.19337e-05
4.13933e-05
4.0685e-05
3.981e-05
3.87741e-05
3.75881e-05
3.62664e-05
3.48202e-05
3.32614e-05
3.15803e-05
3.78875e-05
3.81875e-05
3.84222e-05
3.85818e-05
3.86453e-05
3.86067e-05
3.84638e-05
3.81975e-05
3.77906e-05
3.72358e-05
3.6531e-05
3.56771e-05
3.46784e-05
3.35432e-05
3.2277e-05
3.08855e-05
3.44363e-05
3.46847e-05
3.48708e-05
3.49759e-05
3.49924e-05
3.49192e-05
3.47401e-05
3.44397e-05
3.401e-05
3.34464e-05
3.2746e-05
3.19087e-05
3.0937e-05
2.98326e-05
2.85953e-05
3.10379e-05
3.12914e-05
3.14928e-05
3.1626e-05
3.16821e-05
3.16607e-05
3.15488e-05
3.13328e-05
3.10041e-05
3.05562e-05
2.99842e-05
2.92844e-05
2.84555e-05
2.74951e-05
2.63995e-05
2.79618e-05
2.82134e-05
2.84215e-05
2.85714e-05
2.86551e-05
2.86718e-05
2.86105e-05
2.846e-05
2.82117e-05
2.78582e-05
2.73926e-05
2.68095e-05
2.61043e-05
2.52716e-05
2.43048e-05
2.51792e-05
2.54246e-05
2.56324e-05
2.57906e-05
2.58918e-05
2.59347e-05
2.59111e-05
2.58109e-05
2.56259e-05
2.53483e-05
2.49707e-05
2.44858e-05
2.3887e-05
2.31669e-05
2.23169e-05
2.26637e-05
2.28987e-05
2.31014e-05
2.32618e-05
2.3373e-05
2.34336e-05
2.3437e-05
2.33746e-05
2.32388e-05
2.3022e-05
2.27162e-05
2.23135e-05
2.18057e-05
2.11844e-05
2.04394e-05
2.06132e-05
2.08077e-05
2.09658e-05
2.10811e-05
2.11522e-05
2.11739e-05
2.11393e-05
2.10415e-05
2.08728e-05
2.06254e-05
2.02909e-05
1.98609e-05
1.93257e-05
1.86747e-05
1.85473e-05
1.8731e-05
1.88831e-05
1.89979e-05
1.90743e-05
1.91083e-05
1.90938e-05
1.90246e-05
1.88937e-05
1.86934e-05
1.84155e-05
1.80513e-05
1.7591e-05
1.70238e-05
1.66807e-05
1.68523e-05
1.69964e-05
1.71077e-05
1.71856e-05
1.72268e-05
1.7226e-05
1.7178e-05
1.70765e-05
1.69142e-05
1.6683e-05
1.63744e-05
1.5979e-05
1.5486e-05
1.4996e-05
1.51547e-05
1.52892e-05
1.53948e-05
1.54711e-05
1.55157e-05
1.55242e-05
1.54918e-05
1.5413e-05
1.5281e-05
1.50881e-05
1.48266e-05
1.44871e-05
1.40595e-05
1.34765e-05
1.36219e-05
1.3746e-05
1.38448e-05
1.39176e-05
1.39629e-05
1.3977e-05
1.39558e-05
1.38942e-05
1.37863e-05
1.36251e-05
1.34031e-05
1.31118e-05
1.27416e-05
1.22393e-05
1.23527e-05
1.24438e-05
1.25119e-05
1.25559e-05
1.2573e-05
1.25596e-05
1.25112e-05
1.24225e-05
1.22871e-05
1.20984e-05
1.18485e-05
1.15286e-05
1.09934e-05
1.10961e-05
1.1179e-05
1.12416e-05
1.12832e-05
1.13014e-05
1.12933e-05
1.12548e-05
1.11813e-05
1.10671e-05
1.09064e-05
1.0692e-05
9.87153e-06
9.96389e-06
1.00385e-05
1.00953e-05
1.01337e-05
1.01518e-05
1.0147e-05
1.0116e-05
1.00545e-05
9.95784e-06
9.82057e-06
9.6365e-06
8.8621e-06
8.94468e-06
9.01143e-06
9.06229e-06
9.097e-06
9.11412e-06
9.11142e-06
9.0859e-06
9.03402e-06
8.95171e-06
8.83421e-06
8.67609e-06
7.95464e-06
8.02809e-06
8.08732e-06
8.13238e-06
8.16329e-06
8.17886e-06
8.17722e-06
8.15584e-06
8.11167e-06
8.04122e-06
7.94039e-06
7.80446e-06
7.20443e-06
7.25665e-06
7.29626e-06
7.32337e-06
7.3371e-06
7.33589e-06
7.31762e-06
7.27965e-06
7.219e-06
7.13222e-06
7.01529e-06
6.46488e-06
6.51066e-06
6.54517e-06
6.56865e-06
6.58048e-06
6.57931e-06
6.56335e-06
6.5304e-06
6.47792e-06
6.403e-06
6.30224e-06
5.80136e-06
5.84125e-06
5.8711e-06
5.89123e-06
5.90116e-06
5.89976e-06
5.88554e-06
5.85669e-06
5.81106e-06
5.7462e-06
5.65923e-06
5.20644e-06
5.24105e-06
5.26666e-06
5.28369e-06
5.2918e-06
5.29005e-06
5.27719e-06
5.25171e-06
5.21184e-06
5.15554e-06
5.08036e-06
4.67331e-06
4.70316e-06
4.72501e-06
4.73928e-06
4.7457e-06
4.74356e-06
4.73177e-06
4.7091e-06
4.6741e-06
4.62504e-06
4.55992e-06
4.19582e-06
4.22148e-06
4.24001e-06
4.25181e-06
4.25669e-06
4.25412e-06
4.2432e-06
4.2229e-06
4.19202e-06
4.14915e-06
3.76837e-06
3.79036e-06
3.80595e-06
3.81558e-06
3.81914e-06
3.81615e-06
3.80594e-06
3.78764e-06
3.76027e-06
3.72268e-06
3.40475e-06
3.41777e-06
3.4255e-06
3.4279e-06
3.42455e-06
3.41491e-06
3.39831e-06
3.37393e-06
3.34085e-06
3.06005e-06
3.07083e-06
3.07691e-06
3.07828e-06
3.07463e-06
3.06549e-06
3.05034e-06
3.02851e-06
2.99927e-06
2.75177e-06
2.76065e-06
2.76534e-06
2.76586e-06
2.76198e-06
2.75332e-06
2.73944e-06
2.71982e-06
2.69388e-06
2.47556e-06
2.48282e-06
2.48636e-06
2.48621e-06
2.4822e-06
2.47402e-06
2.46133e-06
2.4437e-06
2.42067e-06
2.22714e-06
2.23303e-06
2.23563e-06
2.235e-06
2.23099e-06
2.22336e-06
2.21182e-06
2.19605e-06
2.17566e-06
2.00312e-06
2.00783e-06
2.00965e-06
2.00864e-06
2.00469e-06
1.99761e-06
1.98717e-06
1.97311e-06
1.80156e-06
1.80525e-06
1.80636e-06
1.80499e-06
1.80104e-06
1.79439e-06
1.78487e-06
1.77227e-06
1.62126e-06
1.62401e-06
1.62445e-06
1.62268e-06
1.61864e-06
1.61225e-06
1.60338e-06
1.59191e-06
1.46299e-06
1.4628e-06
1.46061e-06
1.4564e-06
1.45012e-06
1.44167e-06
1.431e-06
1.31967e-06
1.31889e-06
1.31628e-06
1.31187e-06
1.30559e-06
1.29737e-06
1.28728e-06
1.19349e-06
1.19259e-06
1.19003e-06
1.18605e-06
1.18018e-06
1.17248e-06
1.16347e-06
1.0939e-06
1.09271e-06
1.0899e-06
1.08615e-06
1.08036e-06
1.07268e-06
1.06457e-06
1.01323e-06
1.01159e-06
1.00816e-06
1.0039e-06
9.97511e-07
9.89017e-07
9.37149e-07
9.35795e-07
9.3264e-07
9.28615e-07
9.22561e-07
9.14276e-07
8.62425e-07
8.60464e-07
8.56639e-07
8.51914e-07
8.45471e-07
8.36487e-07
7.93095e-07
7.92056e-07
7.8926e-07
7.85367e-07
7.80044e-07
7.72738e-07
7.18064e-07
7.14479e-07
7.0909e-07
7.02991e-07
6.95937e-07
6.85179e-07
6.69847e-07
6.70127e-07
6.68619e-07
6.64901e-07
6.60579e-07
6.56591e-07
5.69238e-07
5.61594e-07
5.55215e-07
5.4763e-07
5.31172e-07
6.02865e-07
6.06185e-07
6.02571e-07
6.01514e-07
6.12663e-07
4.74221e-07
4.75184e-07
4.82262e-07
4.79281e-07
4.6034e-07
7.19249e-07
7.39296e-07
7.37368e-07
7.45985e-07
7.8461e-07
8.04581e-07
8.28226e-07
8.61944e-07
1.14904e-06
1.2161e-06
1.17246e-06
1.113e-06
)
;

boundaryField
{
    inlet
    {
        type            calculated;
        value           nonuniform List<scalar> 4(5.07408e-06 5.39919e-06 5.46837e-06 5.5322e-06);
    }
    outlet
    {
        type            calculated;
        value           nonuniform List<scalar> 0();
    }
    walls
    {
        type            calculated;
        value           nonuniform List<scalar> 
42
(
1.33437
1.54943
1.79052
2.0177
2.23551
2.44245
2.61892
2.76265
2.87477
2.95048
2.99498
3.00654
2.97847
2.91163
2.80296
2.65287
2.4567
2.21319
1.91707
1.57125
1.18498
0.794287
0.465075
0.278498
0.217432
0.244794
0.308712
0.382976
0.449671
0.496938
0.523419
0.533091
0.52279
0.494766
0.449239
1.12819
0.922566
0.715086
0.505362
0.321068
0.171863
0.0724889
)
;
    }
    frontAndBack
    {
        type            empty;
    }
    procBoundary5to0
    {
        type            processor;
        value           nonuniform List<scalar> 4(0.000592104 0.000585158 0.000577505 0.000567968);
    }
    procBoundary5to1
    {
        type            processor;
        value           nonuniform List<scalar> 
13
(
0.00335174
0.00250372
0.00250372
0.00200263
0.00169056
0.00169056
0.0013439
0.00113689
0.00113689
0.000927813
0.000767262
0.000659564
0.000659564
)
;
    }
    procBoundary5to4
    {
        type            processor;
        value           nonuniform List<scalar> 
95
(
0.00059753
0.000602055
0.000605556
0.000605556
0.000518656
0.000519673
0.000519673
0.000448488
0.000447694
0.000447694
0.000388422
0.000388422
0.000338978
0.000338978
0.000298223
0.00026273
0.00026273
0.000232274
0.000232274
0.000206453
0.000183732
0.000183732
0.000163981
0.000146694
0.000146694
0.000131343
0.000117989
0.000117989
0.000105906
9.50752e-05
8.58355e-05
8.58355e-05
7.71895e-05
6.94103e-05
6.28889e-05
6.28889e-05
5.66135e-05
5.09568e-05
4.62792e-05
4.62792e-05
4.16805e-05
3.75277e-05
3.41324e-05
3.41324e-05
3.07377e-05
2.76705e-05
2.49007e-05
2.24004e-05
2.03911e-05
2.03911e-05
1.83393e-05
1.64881e-05
1.48189e-05
1.33147e-05
1.21071e-05
1.21071e-05
1.08737e-05
9.76398e-06
8.76591e-06
7.86896e-06
7.1395e-06
7.1395e-06
6.40774e-06
5.75124e-06
5.16262e-06
4.63513e-06
4.16263e-06
3.73958e-06
3.38599e-06
3.38599e-06
3.04408e-06
2.73826e-06
2.46416e-06
2.21755e-06
1.99512e-06
1.79494e-06
1.61586e-06
1.46109e-06
1.46109e-06
1.31853e-06
1.19264e-06
1.09333e-06
1.013e-06
9.36684e-07
8.62496e-07
7.92406e-07
7.20053e-07
6.67481e-07
5.75403e-07
5.75403e-07
5.98025e-07
4.71275e-07
7.01479e-07
7.54838e-07
1.14672e-06
)
;
    }
    procBoundary5to6
    {
        type            processor;
        value           nonuniform List<scalar> 
86
(
31.2641
11.709
14.8928
15.3158
9.97347
2.28132
0.157022
0.0663652
0
0
0
3.0403e-06
4.65762e-05
9.34455e-05
8.75431e-05
6.99823e-05
6.11798e-05
5.95192e-05
5.99482e-05
5.95655e-05
5.79134e-05
5.55696e-05
5.30559e-05
5.05822e-05
4.81725e-05
4.57896e-05
4.34169e-05
4.10558e-05
3.87111e-05
3.63992e-05
3.41319e-05
3.19148e-05
2.97602e-05
2.93582e-05
2.93582e-05
2.72145e-05
2.51562e-05
2.31905e-05
2.13228e-05
1.95563e-05
1.78934e-05
1.63354e-05
1.48818e-05
1.35311e-05
1.2281e-05
1.11282e-05
1.0416e-05
1.0416e-05
9.39867e-06
8.47131e-06
7.6282e-06
6.86359e-06
6.17175e-06
5.54686e-06
4.98355e-06
4.47645e-06
4.09263e-06
4.09263e-06
3.67352e-06
3.29794e-06
2.96169e-06
2.66084e-06
2.39161e-06
2.15014e-06
1.95512e-06
1.95512e-06
1.75635e-06
1.57763e-06
1.41798e-06
1.27519e-06
1.15263e-06
1.05489e-06
9.80536e-07
9.80536e-07
9.05789e-07
8.2746e-07
7.64264e-07
6.75686e-07
6.47367e-07
5.23609e-07
6.00878e-07
4.6754e-07
8.07735e-07
8.07735e-07
8.65736e-07
1.4653e-06
)
;
    }
}


// ************************************************************************* //
