/*--------------------------------*- C++ -*----------------------------------*\
| =========                 |                                                 |
| \\      /  F ield         | OpenFOAM: The Open Source CFD Toolbox           |
|  \\    /   O peration     | Version:  2506                                  |
|   \\  /    A nd           | Website:  www.openfoam.com                      |
|    \\/     M anipulation  |                                                 |
\*---------------------------------------------------------------------------*/
FoamFile
{
    version     2.0;
    format      ascii;
    arch        "LSB;label=32;scalar=64";
    class       volScalarField;
    location    "450";
    object      nuTilda;
}
// * * * * * * * * * * * * * * * * * * * * * * * * * * * * * * * * * * * * * //

dimensions      [0 2 -1 0 0 0 0];

internalField   nonuniform List<scalar> 
1340
(
6.29091e-05
6.61137e-05
7.02152e-05
7.53177e-05
8.16866e-05
8.97461e-05
0.000100161
0.000113483
0.000130973
0.000154081
0.00018512
0.000227458
0.000285633
0.000367523
0.000486574
0.00066467
0.000946281
0.00139545
0.00221746
0.00358941
0.00690147
0.0127114
0.0339122
0.0760487
0.0937402
0.0946681
0.0957027
0.0992315
0.102747
0.104486
0.104463
0.103214
0.100846
0.0974143
0.0927944
6.00005e-05
5.73604e-05
5.46052e-05
5.19066e-05
4.91579e-05
4.63757e-05
4.36718e-05
3.8071e-05
3.78508e-05
3.76496e-05
3.74809e-05
3.72852e-05
3.71033e-05
3.69672e-05
3.68471e-05
3.67951e-05
3.68408e-05
3.69025e-05
3.75059e-05
3.96453e-05
4.42922e-05
5.39065e-05
7.20389e-05
0.000107839
0.000173824
0.000318856
0.000589611
0.00132208
0.00283124
0.00711314
0.0205078
0.0395401
0.0633177
0.0925304
0.123661
0.148694
0.162652
0.167954
0.168783
0.1672
0.163851
0.159339
3.8244e-05
3.84755e-05
3.86703e-05
3.89311e-05
3.91945e-05
3.9457e-05
4.03655e-05
4.03971e-05
4.04297e-05
4.04648e-05
4.05077e-05
4.05556e-05
4.06102e-05
4.06739e-05
4.07487e-05
4.0836e-05
4.09392e-05
4.10653e-05
4.12046e-05
4.14503e-05
4.14618e-05
4.07956e-05
3.72037e-05
3.54257e-05
2.03723e-05
0.000118542
0.000260131
3.87624e-05
0.00147401
0.000525658
0.00289828
0.00741592
0.0155424
0.0309678
0.0572748
0.0936878
0.132742
0.164471
0.184897
0.196744
0.203441
4.03413e-05
4.03065e-05
4.02799e-05
4.02404e-05
4.02063e-05
4.01696e-05
4.00344e-05
4.00299e-05
4.00288e-05
4.00295e-05
4.00312e-05
4.00361e-05
4.00452e-05
4.00577e-05
4.00763e-05
4.01015e-05
4.01347e-05
4.0178e-05
4.02344e-05
4.0305e-05
4.03987e-05
4.0511e-05
4.02423e-05
3.98169e-05
3.62298e-05
2.60337e-05
8.59524e-06
1.31469e-05
0
0.000107907
0.000605582
0.00157563
0.00336181
0.00021068
0.00343939
0.0133077
0.0355465
0.0727269
0.118803
0.161317
0.193212
4.00356e-05
4.004e-05
4.00458e-05
4.00498e-05
4.00569e-05
4.00808e-05
4.00819e-05
4.00824e-05
4.0084e-05
4.00869e-05
4.00905e-05
4.00955e-05
4.01021e-05
4.01108e-05
4.01222e-05
4.01371e-05
4.01566e-05
4.01822e-05
4.0215e-05
4.02593e-05
4.03106e-05
4.03936e-05
4.03936e-05
4.08259e-05
4.05203e-05
3.75309e-05
2.91144e-05
8.98918e-06
4.53778e-06
0
0
0
4.57799e-05
0.000770639
0.000384535
0.00158095
0.00800159
0.0295925
0.0707142
0.124118
4.00809e-05
4.00784e-05
4.00797e-05
4.00777e-05
4.00793e-05
4.00695e-05
4.00691e-05
4.00696e-05
4.00701e-05
4.00703e-05
4.0071e-05
4.00721e-05
4.00736e-05
4.00758e-05
4.0079e-05
4.00832e-05
4.00892e-05
4.00973e-05
4.01082e-05
4.01232e-05
4.01433e-05
4.01719e-05
4.01904e-05
4.0308e-05
4.04531e-05
4.09531e-05
4.05615e-05
3.84285e-05
2.34075e-05
8.27335e-06
5.95638e-06
3.9885e-06
9.60399e-07
0
8.52318e-05
0.000354738
0.00182677
0.000395801
0.00875432
0.0380793
4.00686e-05
4.00673e-05
4.0069e-05
4.00686e-05
4.00699e-05
4.00703e-05
4.00706e-05
4.00707e-05
4.0071e-05
4.00711e-05
4.00714e-05
4.00721e-05
4.0073e-05
4.00743e-05
4.00762e-05
4.00789e-05
4.00827e-05
4.0088e-05
4.00953e-05
4.01057e-05
4.01195e-05
4.01339e-05
4.01499e-05
4.01786e-05
4.0292e-05
4.04877e-05
4.15097e-05
4.08967e-05
3.61312e-05
2.99688e-05
1.97481e-05
4.68475e-06
6.26795e-06
1.8306e-06
0
0
9.02626e-05
0.00205738
0.00167686
4.00691e-05
4.00671e-05
4.00678e-05
4.00672e-05
4.00691e-05
4.00694e-05
4.00699e-05
4.00699e-05
4.00696e-05
4.00693e-05
4.0069e-05
4.00687e-05
4.00686e-05
4.00687e-05
4.00688e-05
4.00692e-05
4.00699e-05
4.0071e-05
4.00727e-05
4.00752e-05
4.0079e-05
4.00835e-05
4.00874e-05
4.00965e-05
4.00946e-05
4.00923e-05
4.02569e-05
4.1009e-05
4.16156e-05
4.13327e-05
3.94701e-05
3.54091e-05
2.94676e-05
8.75366e-06
7.07828e-06
1.38842e-06
0
0
0.000387926
4.0068e-05
4.00659e-05
4.00659e-05
4.00652e-05
4.0069e-05
4.00693e-05
4.00695e-05
4.00692e-05
4.00688e-05
4.00683e-05
4.00679e-05
4.00677e-05
4.00674e-05
4.00673e-05
4.00674e-05
4.00676e-05
4.0068e-05
4.00687e-05
4.00699e-05
4.00716e-05
4.00743e-05
4.00778e-05
4.0081e-05
4.00851e-05
4.0088e-05
4.00847e-05
4.0037e-05
4.01211e-05
4.05082e-05
4.10639e-05
4.17413e-05
4.19322e-05
4.15834e-05
3.75939e-05
3.21694e-05
6.52297e-06
5.69167e-06
0
0
4.00679e-05
4.00656e-05
4.0065e-05
4.00678e-05
4.00673e-05
4.00667e-05
4.00663e-05
4.00659e-05
4.00656e-05
4.00653e-05
4.00651e-05
4.00649e-05
4.00648e-05
4.00648e-05
4.00648e-05
4.00649e-05
4.00651e-05
4.00654e-05
4.00664e-05
4.00695e-05
4.00749e-05
4.00653e-05
4.00315e-05
4.00442e-05
4.01648e-05
4.04672e-05
4.09205e-05
4.15068e-05
4.21004e-05
4.24133e-05
3.80107e-05
2.56368e-05
7.87196e-06
0
4.00657e-05
4.00653e-05
4.0065e-05
4.00647e-05
4.00646e-05
4.00644e-05
4.00644e-05
4.00645e-05
4.00647e-05
4.0065e-05
4.00656e-05
4.00666e-05
4.00676e-05
4.00686e-05
4.00696e-05
4.00717e-05
4.00745e-05
4.00669e-05
4.00473e-05
4.00331e-05
4.00462e-05
4.01308e-05
4.03024e-05
4.07297e-05
4.14148e-05
4.26557e-05
4.18939e-05
3.29668e-05
8.67146e-06
4.00641e-05
4.00638e-05
4.00636e-05
4.00635e-05
4.00633e-05
4.00633e-05
4.00633e-05
4.00634e-05
4.00635e-05
4.00637e-05
4.00642e-05
4.00649e-05
4.0066e-05
4.00675e-05
4.00701e-05
4.00723e-05
4.00702e-05
4.00631e-05
4.00507e-05
4.00395e-05
4.00276e-05
4.00698e-05
4.01848e-05
4.07757e-05
4.19892e-05
4.29391e-05
3.56421e-05
4.00632e-05
4.00631e-05
4.0063e-05
4.00629e-05
4.00629e-05
4.0063e-05
4.00631e-05
4.00633e-05
4.00636e-05
4.00641e-05
4.00647e-05
4.00654e-05
4.00663e-05
4.00676e-05
4.00696e-05
4.00715e-05
4.00729e-05
4.00731e-05
4.00705e-05
4.00592e-05
4.00376e-05
3.99997e-05
4.00001e-05
4.03219e-05
4.1306e-05
4.4106e-05
4.00626e-05
4.00626e-05
4.00626e-05
4.00626e-05
4.00626e-05
4.00627e-05
4.00628e-05
4.0063e-05
4.00633e-05
4.00637e-05
4.00643e-05
4.00651e-05
4.00661e-05
4.00674e-05
4.00692e-05
4.00712e-05
4.00739e-05
4.00773e-05
4.00804e-05
4.00775e-05
4.00628e-05
4.00086e-05
3.99625e-05
4.00198e-05
4.10807e-05
4.00624e-05
4.00624e-05
4.00625e-05
4.00625e-05
4.00626e-05
4.00627e-05
4.00628e-05
4.0063e-05
4.00632e-05
4.00635e-05
4.0064e-05
4.00646e-05
4.00653e-05
4.00663e-05
4.00676e-05
4.00692e-05
4.00713e-05
4.00742e-05
4.00786e-05
4.00837e-05
4.00876e-05
4.00832e-05
4.00213e-05
4.00677e-05
3.91795e-05
4.00624e-05
4.00625e-05
4.00626e-05
4.00627e-05
4.00628e-05
4.00629e-05
4.0063e-05
4.00632e-05
4.00634e-05
4.00638e-05
4.00642e-05
4.00648e-05
4.00656e-05
4.00667e-05
4.0068e-05
4.00697e-05
4.00718e-05
4.00746e-05
4.00789e-05
4.00835e-05
4.00973e-05
4.00657e-05
4.01802e-05
3.95237e-05
4.00626e-05
4.00627e-05
4.00628e-05
4.00629e-05
4.0063e-05
4.00631e-05
4.00633e-05
4.00635e-05
4.00638e-05
4.00642e-05
4.00646e-05
4.00652e-05
4.00661e-05
4.00672e-05
4.00687e-05
4.00705e-05
4.00726e-05
4.00755e-05
4.00783e-05
4.00877e-05
4.00846e-05
4.01058e-05
4.02251e-05
4.00627e-05
4.00629e-05
4.0063e-05
4.00631e-05
4.00632e-05
4.00633e-05
4.00635e-05
4.00636e-05
4.00639e-05
4.00642e-05
4.00646e-05
4.00651e-05
4.00658e-05
4.00667e-05
4.0068e-05
4.00696e-05
4.00714e-05
4.00737e-05
4.00764e-05
4.00785e-05
4.00951e-05
4.00299e-05
4.04473e-05
4.0063e-05
4.00632e-05
4.00633e-05
4.00634e-05
4.00635e-05
4.00636e-05
4.00638e-05
4.0064e-05
4.00642e-05
4.00646e-05
4.0065e-05
4.00656e-05
4.00664e-05
4.00674e-05
4.00688e-05
4.00705e-05
4.00724e-05
4.00754e-05
4.00746e-05
4.00949e-05
4.00256e-05
4.03256e-05
4.00632e-05
4.00633e-05
4.00635e-05
4.00636e-05
4.00637e-05
4.00638e-05
4.0064e-05
4.00641e-05
4.00644e-05
4.00646e-05
4.0065e-05
4.00655e-05
4.00661e-05
4.00671e-05
4.00682e-05
4.00698e-05
4.00714e-05
4.00741e-05
4.00739e-05
4.00872e-05
4.00553e-05
4.01569e-05
4.00635e-05
4.00637e-05
4.00638e-05
4.00639e-05
4.00641e-05
4.00642e-05
4.00644e-05
4.00646e-05
4.00648e-05
4.00651e-05
4.00655e-05
4.00661e-05
4.00669e-05
4.00679e-05
4.00692e-05
4.00707e-05
4.00728e-05
4.00741e-05
4.00794e-05
4.00787e-05
4.00676e-05
4.00637e-05
4.00639e-05
4.0064e-05
4.00642e-05
4.00643e-05
4.00644e-05
4.00646e-05
4.00648e-05
4.0065e-05
4.00653e-05
4.00656e-05
4.00661e-05
4.00668e-05
4.00677e-05
4.00688e-05
4.00701e-05
4.00718e-05
4.00739e-05
4.00751e-05
4.00859e-05
4.00498e-05
4.00641e-05
4.00642e-05
4.00644e-05
4.00646e-05
4.00647e-05
4.00649e-05
4.00651e-05
4.00653e-05
4.00655e-05
4.00658e-05
4.00662e-05
4.00668e-05
4.00676e-05
4.00686e-05
4.00698e-05
4.00712e-05
4.00734e-05
4.00737e-05
4.00835e-05
4.00607e-05
4.00643e-05
4.00645e-05
4.00646e-05
4.00648e-05
4.0065e-05
4.00651e-05
4.00653e-05
4.00655e-05
4.00657e-05
4.0066e-05
4.00664e-05
4.00669e-05
4.00676e-05
4.00684e-05
4.00695e-05
4.00708e-05
4.00727e-05
4.00736e-05
4.00792e-05
4.00728e-05
4.00645e-05
4.00647e-05
4.00649e-05
4.00651e-05
4.00652e-05
4.00654e-05
4.00656e-05
4.00658e-05
4.0066e-05
4.00663e-05
4.00666e-05
4.00671e-05
4.00677e-05
4.00684e-05
4.00694e-05
4.00705e-05
4.00721e-05
4.00735e-05
4.00763e-05
4.00783e-05
4.00649e-05
4.00651e-05
4.00653e-05
4.00655e-05
4.00657e-05
4.00659e-05
4.00661e-05
4.00663e-05
4.00666e-05
4.00669e-05
4.00673e-05
4.00678e-05
4.00685e-05
4.00693e-05
4.00704e-05
4.00717e-05
4.00733e-05
4.0075e-05
4.00789e-05
4.00651e-05
4.00654e-05
4.00656e-05
4.00658e-05
4.0066e-05
4.00662e-05
4.00664e-05
4.00667e-05
4.00669e-05
4.00672e-05
4.00676e-05
4.0068e-05
4.00686e-05
4.00694e-05
4.00703e-05
4.00715e-05
4.0073e-05
4.00744e-05
4.00778e-05
4.00654e-05
4.00656e-05
4.00658e-05
4.00661e-05
4.00663e-05
4.00665e-05
4.00667e-05
4.0067e-05
4.00672e-05
4.00675e-05
4.00678e-05
4.00683e-05
4.00688e-05
4.00695e-05
4.00704e-05
4.00714e-05
4.00728e-05
4.00742e-05
4.00767e-05
4.00658e-05
4.00661e-05
4.00663e-05
4.00666e-05
4.00668e-05
4.00671e-05
4.00673e-05
4.00675e-05
4.00678e-05
4.00681e-05
4.00685e-05
4.00691e-05
4.00697e-05
4.00705e-05
4.00714e-05
4.00726e-05
4.00741e-05
4.0076e-05
4.00661e-05
4.00663e-05
4.00666e-05
4.00669e-05
4.00671e-05
4.00674e-05
4.00676e-05
4.00679e-05
4.00682e-05
4.00685e-05
4.00689e-05
4.00693e-05
4.00699e-05
4.00706e-05
4.00715e-05
4.00726e-05
4.0074e-05
4.00757e-05
4.00663e-05
4.00666e-05
4.00669e-05
4.00672e-05
4.00674e-05
4.00677e-05
4.0068e-05
4.00682e-05
4.00685e-05
4.00688e-05
4.00692e-05
4.00696e-05
4.00702e-05
4.00708e-05
4.00716e-05
4.00727e-05
4.00739e-05
4.00755e-05
4.00668e-05
4.00671e-05
4.00674e-05
4.00677e-05
4.0068e-05
4.00683e-05
4.00686e-05
4.00689e-05
4.00692e-05
4.00695e-05
4.007e-05
4.00705e-05
4.00711e-05
4.00718e-05
4.00728e-05
4.00739e-05
4.00754e-05
4.00671e-05
4.00674e-05
4.00677e-05
4.0068e-05
4.00683e-05
4.00686e-05
4.00689e-05
4.00692e-05
4.00695e-05
4.00699e-05
4.00703e-05
4.00708e-05
4.00714e-05
4.00721e-05
4.00729e-05
4.0074e-05
4.00754e-05
4.00673e-05
4.00677e-05
4.0068e-05
4.00683e-05
4.00687e-05
4.0069e-05
4.00693e-05
4.00696e-05
4.00699e-05
4.00703e-05
4.00707e-05
4.00711e-05
4.00717e-05
4.00724e-05
4.00732e-05
4.00742e-05
4.00679e-05
4.00683e-05
4.00686e-05
4.0069e-05
4.00693e-05
4.00696e-05
4.007e-05
4.00703e-05
4.00706e-05
4.0071e-05
4.00715e-05
4.0072e-05
4.00727e-05
4.00734e-05
4.00744e-05
4.00682e-05
4.00686e-05
4.00689e-05
4.00693e-05
4.00697e-05
4.007e-05
4.00703e-05
4.00707e-05
4.0071e-05
4.00714e-05
4.00719e-05
4.00724e-05
4.0073e-05
4.00737e-05
4.00746e-05
4.00684e-05
4.00688e-05
4.00692e-05
4.00696e-05
4.007e-05
4.00703e-05
4.00707e-05
4.0071e-05
4.00714e-05
4.00718e-05
4.00723e-05
4.00728e-05
4.00734e-05
4.00741e-05
4.00749e-05
4.00686e-05
4.00691e-05
4.00695e-05
4.00699e-05
4.00703e-05
4.00707e-05
4.0071e-05
4.00714e-05
4.00718e-05
4.00722e-05
4.00727e-05
4.00732e-05
4.00738e-05
4.00744e-05
4.00752e-05
4.00689e-05
4.00693e-05
4.00698e-05
4.00702e-05
4.00706e-05
4.0071e-05
4.00714e-05
4.00718e-05
4.00722e-05
4.00726e-05
4.00731e-05
4.00736e-05
4.00742e-05
4.00748e-05
4.00756e-05
4.00695e-05
4.007e-05
4.00705e-05
4.00709e-05
4.00713e-05
4.00717e-05
4.00721e-05
4.00726e-05
4.0073e-05
4.00735e-05
4.0074e-05
4.00746e-05
4.00752e-05
4.0076e-05
4.00697e-05
4.00702e-05
4.00707e-05
4.00712e-05
4.00716e-05
4.0072e-05
4.00725e-05
4.00729e-05
4.00734e-05
4.00739e-05
4.00744e-05
4.0075e-05
4.00756e-05
4.00764e-05
4.00699e-05
4.00704e-05
4.00709e-05
4.00714e-05
4.00719e-05
4.00723e-05
4.00728e-05
4.00732e-05
4.00737e-05
4.00742e-05
4.00748e-05
4.00754e-05
4.0076e-05
4.00767e-05
4.007e-05
4.00705e-05
4.00711e-05
4.00716e-05
4.00721e-05
4.00725e-05
4.0073e-05
4.00735e-05
4.0074e-05
4.00745e-05
4.00751e-05
4.00757e-05
4.00764e-05
4.00771e-05
4.00701e-05
4.00706e-05
4.00712e-05
4.00717e-05
4.00722e-05
4.00727e-05
4.00732e-05
4.00737e-05
4.00743e-05
4.00748e-05
4.00754e-05
4.00761e-05
4.00767e-05
4.00775e-05
4.00707e-05
4.00712e-05
4.00718e-05
4.00723e-05
4.00729e-05
4.00734e-05
4.00739e-05
4.00745e-05
4.00751e-05
4.00757e-05
4.00763e-05
4.0077e-05
4.00778e-05
4.00706e-05
4.00712e-05
4.00718e-05
4.00724e-05
4.00729e-05
4.00735e-05
4.0074e-05
4.00746e-05
4.00752e-05
4.00759e-05
4.00766e-05
4.00773e-05
4.00705e-05
4.00711e-05
4.00717e-05
4.00723e-05
4.00729e-05
4.00735e-05
4.00741e-05
4.00747e-05
4.00753e-05
4.0076e-05
4.00767e-05
4.00775e-05
4.00703e-05
4.00709e-05
4.00716e-05
4.00722e-05
4.00728e-05
4.00734e-05
4.0074e-05
4.00747e-05
4.00754e-05
4.00761e-05
4.00768e-05
4.00776e-05
4.007e-05
4.00707e-05
4.00713e-05
4.0072e-05
4.00726e-05
4.00732e-05
4.00739e-05
4.00746e-05
4.00753e-05
4.0076e-05
4.00768e-05
4.00776e-05
4.00703e-05
4.0071e-05
4.00716e-05
4.00723e-05
4.00729e-05
4.00736e-05
4.00744e-05
4.00751e-05
4.00759e-05
4.00767e-05
4.00776e-05
4.00697e-05
4.00704e-05
4.00711e-05
4.00718e-05
4.00725e-05
4.00733e-05
4.0074e-05
4.00748e-05
4.00756e-05
4.00765e-05
4.00774e-05
4.0069e-05
4.00698e-05
4.00705e-05
4.00712e-05
4.0072e-05
4.00727e-05
4.00735e-05
4.00743e-05
4.00752e-05
4.00761e-05
4.0077e-05
4.00682e-05
4.0069e-05
4.00697e-05
4.00705e-05
4.00712e-05
4.0072e-05
4.00728e-05
4.00737e-05
4.00746e-05
4.00755e-05
4.00765e-05
4.00672e-05
4.0068e-05
4.00688e-05
4.00695e-05
4.00703e-05
4.00712e-05
4.0072e-05
4.00729e-05
4.00738e-05
4.00748e-05
4.00758e-05
4.0066e-05
4.00668e-05
4.00676e-05
4.00684e-05
4.00692e-05
4.00701e-05
4.0071e-05
4.00719e-05
4.00729e-05
4.00739e-05
4.00646e-05
4.00654e-05
4.00663e-05
4.00671e-05
4.00679e-05
4.00688e-05
4.00698e-05
4.00707e-05
4.00717e-05
4.00728e-05
4.00639e-05
4.00647e-05
4.00656e-05
4.00665e-05
4.00674e-05
4.00683e-05
4.00693e-05
4.00704e-05
4.00715e-05
4.00621e-05
4.0063e-05
4.00639e-05
4.00648e-05
4.00657e-05
4.00667e-05
4.00677e-05
4.00688e-05
4.00699e-05
4.00601e-05
4.0061e-05
4.00619e-05
4.00628e-05
4.00638e-05
4.00648e-05
4.00659e-05
4.0067e-05
4.00682e-05
4.00577e-05
4.00586e-05
4.00596e-05
4.00605e-05
4.00615e-05
4.00626e-05
4.00637e-05
4.00649e-05
4.00661e-05
4.00548e-05
4.00557e-05
4.00566e-05
4.00577e-05
4.00587e-05
4.00598e-05
4.0061e-05
4.00622e-05
4.00635e-05
4.00512e-05
4.00521e-05
4.0053e-05
4.00541e-05
4.00552e-05
4.00563e-05
4.00576e-05
4.00589e-05
4.0047e-05
4.00479e-05
4.00488e-05
4.00498e-05
4.00509e-05
4.00521e-05
4.00534e-05
4.00547e-05
4.00426e-05
4.00434e-05
4.00443e-05
4.00453e-05
4.00464e-05
4.00475e-05
4.00487e-05
4.005e-05
4.00389e-05
4.00398e-05
4.00407e-05
4.00417e-05
4.00428e-05
4.0044e-05
4.00452e-05
4.00343e-05
4.00351e-05
4.0036e-05
4.0037e-05
4.0038e-05
4.00391e-05
4.00403e-05
4.00294e-05
4.00302e-05
4.00311e-05
4.00321e-05
4.00331e-05
4.00342e-05
4.00354e-05
4.00248e-05
4.00255e-05
4.00264e-05
4.00274e-05
4.00284e-05
4.00296e-05
4.00308e-05
4.00205e-05
4.00212e-05
4.0022e-05
4.00228e-05
4.00238e-05
4.00249e-05
4.00161e-05
4.00168e-05
4.00175e-05
4.00182e-05
4.00191e-05
4.00201e-05
4.00118e-05
4.00123e-05
4.00129e-05
4.00136e-05
4.00144e-05
4.00151e-05
4.00078e-05
4.00082e-05
4.00086e-05
4.00091e-05
4.00097e-05
4.00103e-05
4.00055e-05
4.00056e-05
4.00057e-05
4.00058e-05
4.0006e-05
4.00063e-05
4.00082e-05
4.00081e-05
4.00079e-05
4.00077e-05
4.00074e-05
4.00072e-05
4.00132e-05
4.00131e-05
4.00129e-05
4.00127e-05
4.00125e-05
4.00189e-05
4.0019e-05
4.00189e-05
4.00186e-05
4.00186e-05
4.00249e-05
4.00252e-05
4.00255e-05
4.00257e-05
4.00259e-05
4.00312e-05
4.00317e-05
4.00318e-05
4.00315e-05
4.00358e-05
4.00373e-05
4.00392e-05
4.00412e-05
4.0057e-05
4.0058e-05
4.00591e-05
4.00596e-05
)
;

boundaryField
{
    inlet
    {
        type            freestream;
        freestreamValue uniform 4e-05;
        value           nonuniform List<scalar> 4(4.0057e-05 4.0058e-05 4.00591e-05 4.00596e-05);
    }
    outlet
    {
        type            freestream;
        freestreamValue nonuniform List<scalar> 0();
        value           nonuniform List<scalar> 0();
    }
    walls
    {
        type            fixedValue;
        value           uniform 0;
    }
    frontAndBack
    {
        type            empty;
    }
    procBoundary5to0
    {
        type            processor;
        value           nonuniform List<scalar> 4(4.00689e-05 4.00679e-05 4.00656e-05 4.00644e-05);
    }
    procBoundary5to1
    {
        type            processor;
        value           nonuniform List<scalar> 
13
(
4.15912e-05
3.97066e-05
3.97066e-05
4.01369e-05
4.00607e-05
4.00607e-05
4.00771e-05
4.00718e-05
4.00718e-05
4.00703e-05
4.00682e-05
4.00639e-05
4.00639e-05
)
;
    }
    procBoundary5to4
    {
        type            processor;
        value           nonuniform List<scalar> 
95
(
4.00689e-05
4.00689e-05
4.00684e-05
4.00684e-05
4.00669e-05
4.00662e-05
4.00662e-05
4.00648e-05
4.00644e-05
4.00644e-05
4.00634e-05
4.00634e-05
4.00627e-05
4.00627e-05
4.00624e-05
4.00623e-05
4.00623e-05
4.00625e-05
4.00625e-05
4.00626e-05
4.00629e-05
4.00629e-05
4.0063e-05
4.00634e-05
4.00634e-05
4.00635e-05
4.00639e-05
4.00639e-05
4.00641e-05
4.00643e-05
4.00647e-05
4.00647e-05
4.00649e-05
4.00651e-05
4.00656e-05
4.00656e-05
4.00658e-05
4.0066e-05
4.00665e-05
4.00665e-05
4.00668e-05
4.0067e-05
4.00676e-05
4.00676e-05
4.00678e-05
4.0068e-05
4.00682e-05
4.00684e-05
4.0069e-05
4.0069e-05
4.00692e-05
4.00693e-05
4.00694e-05
4.00695e-05
4.00701e-05
4.00701e-05
4.007e-05
4.00698e-05
4.00696e-05
4.00693e-05
4.00695e-05
4.00695e-05
4.0069e-05
4.00683e-05
4.00674e-05
4.00664e-05
4.00651e-05
4.00637e-05
4.0063e-05
4.0063e-05
4.00612e-05
4.00592e-05
4.00568e-05
4.00538e-05
4.00502e-05
4.00461e-05
4.00418e-05
4.00381e-05
4.00381e-05
4.00336e-05
4.00287e-05
4.0024e-05
4.00198e-05
4.00156e-05
4.00114e-05
4.00075e-05
4.00055e-05
4.00083e-05
4.00132e-05
4.00132e-05
4.00188e-05
4.00245e-05
4.00309e-05
4.00342e-05
4.00557e-05
)
;
    }
    procBoundary5to6
    {
        type            processor;
        value           nonuniform List<scalar> 
86
(
0.0869126
0.153838
0.206325
0.215353
0.175051
0.0932917
0.0217445
0.00542305
0
0
0
7.82995e-06
3.14112e-05
4.61825e-05
4.52412e-05
4.0661e-05
3.84382e-05
3.85261e-05
3.93836e-05
4.00157e-05
4.02347e-05
4.02178e-05
4.01454e-05
4.00961e-05
4.00777e-05
4.00753e-05
4.00771e-05
4.00782e-05
4.00782e-05
4.00778e-05
4.00773e-05
4.00771e-05
4.00769e-05
4.00755e-05
4.00755e-05
4.00756e-05
4.00758e-05
4.0076e-05
4.00763e-05
4.00766e-05
4.00769e-05
4.00773e-05
4.00776e-05
4.0078e-05
4.00784e-05
4.00787e-05
4.00781e-05
4.00781e-05
4.00783e-05
4.00784e-05
4.00785e-05
4.00785e-05
4.00783e-05
4.0078e-05
4.00776e-05
4.00769e-05
4.0075e-05
4.0075e-05
4.00739e-05
4.00726e-05
4.00711e-05
4.00694e-05
4.00674e-05
4.00649e-05
4.00602e-05
4.00602e-05
4.00561e-05
4.00515e-05
4.00466e-05
4.00416e-05
4.00367e-05
4.00321e-05
4.00261e-05
4.00261e-05
4.00211e-05
4.0016e-05
4.0011e-05
4.00066e-05
4.0007e-05
4.00122e-05
4.00184e-05
4.00261e-05
4.00321e-05
4.00321e-05
4.00425e-05
4.00602e-05
)
;
    }
}


// ************************************************************************* //
