/*--------------------------------*- C++ -*----------------------------------*\
| =========                 |                                                 |
| \\      /  F ield         | OpenFOAM: The Open Source CFD Toolbox           |
|  \\    /   O peration     | Version:  2506                                  |
|   \\  /    A nd           | Website:  www.openfoam.com                      |
|    \\/     M anipulation  |                                                 |
\*---------------------------------------------------------------------------*/
FoamFile
{
    version     2.0;
    format      ascii;
    arch        "LSB;label=32;scalar=64";
    class       volScalarField;
    location    "450";
    object      turbulenceProperties:epsilon;
}
// * * * * * * * * * * * * * * * * * * * * * * * * * * * * * * * * * * * * * //

dimensions      [0 2 -3 0 0 0 0];

internalField   nonuniform List<scalar> 
1340
(
0.259336
0.340058
0.452942
0.623531
0.840153
1.1348
1.53073
2.0349
2.684
3.51442
4.57782
5.96433
7.80214
10.2908
13.7709
18.7577
26.2359
37.3536
56.0416
83.0163
139.621
211.74
435.002
739.17
736.378
667.369
637.452
637.525
643.465
639.787
623.093
593.539
548.565
489.485
416.617
0.194102
0.147051
0.100346
0.0666538
0.0405368
0.0221681
0.0111769
0.00736068
0.00727969
0.00711408
0.00670935
0.0061062
0.00544777
0.00471907
0.00396206
0.00327804
0.00267032
0.00214888
0.00181988
0.00177254
0.00210476
0.0033068
0.00670952
0.0165585
0.0441888
0.139014
0.449887
1.75878
6.25705
23.4993
83.8884
166.651
235.319
278.368
285.009
250.93
193.115
135.84
91.8916
63.4958
45.7232
34.2679
0.00722705
0.0070314
0.0066409
0.00608257
0.00535915
0.00447577
0.0033024
0.00325028
0.00310515
0.0028898
0.00267285
0.00244421
0.00222347
0.00203383
0.00187744
0.00176034
0.00167223
0.00162239
0.0016088
0.00163516
0.0016438
0.00155803
0.00110647
0.000899767
8.51705e-05
0.01556
0.0272418
0.000305737
0.00143864
0.0214843
0.497082
2.49375
7.79885
19.9841
42.1771
70.3761
91.4714
94.1611
80.0639
60.6697
44.1671
0.00335422
0.0033462
0.00332862
0.00321141
0.00300837
0.00268225
0.00235402
0.00236378
0.0023401
0.0023013
0.00222224
0.00210713
0.0019679
0.00180075
0.00161879
0.00142882
0.00123791
0.00105123
0.000872803
0.000707409
0.000557489
0.000419758
0.000299362
0.000217396
0.000130511
3.68598e-05
3.7947e-07
3.8153e-06
0
0.00654676
0.0331496
0.0518374
0.0476444
0.000438509
0.0152185
0.433228
3.20047
11.6234
25.0055
35.4626
37.1661
0.00230377
0.00222869
0.00211335
0.0019785
0.0018157
0.00132482
0.00132014
0.0012996
0.00126337
0.00120833
0.00113566
0.00105084
0.00095677
0.0008581
0.000761853
0.000671391
0.000589993
0.000520285
0.000462946
0.000417782
0.000381603
0.00034542
0.000301416
0.000262988
0.000209304
0.000132095
4.6451e-05
3.18882e-07
1.91757e-08
0
0
0
0.000495488
0.0287283
0.0110941
0.0233589
0.0158072
0.169523
2.41799
9.07571
0.00131797
0.00129939
0.00126279
0.00120527
0.00112645
0.000890098
0.000897705
0.00089698
0.000890586
0.000873175
0.000845324
0.000808728
0.000762611
0.000708803
0.000649673
0.000586669
0.000522166
0.000458394
0.000396982
0.000339296
0.000284288
0.000229911
0.000179896
0.000139293
0.000107258
8.59062e-05
6.66581e-05
4.9171e-05
6.76882e-06
7.09253e-08
1.61823e-08
2.65857e-09
4.77937e-12
0
0.000823476
0.00593275
0.0335512
0.00567013
0.0421457
0.0463171
0.000874041
0.000852089
0.000820656
0.000780078
0.00058246
0.000587587
0.000588407
0.000585433
0.000576143
0.000560234
0.000538357
0.000510265
0.000476733
0.000439274
0.00039912
0.000357819
0.000317052
0.000278194
0.000242175
0.00021001
0.000182832
0.000159194
0.000136746
0.000115273
9.59612e-05
7.97114e-05
7.12654e-05
5.50747e-05
2.76803e-05
1.00878e-05
1.28433e-06
1.62078e-09
5.26375e-09
2.12702e-11
0
0
0.000424705
0.017872
0.0125643
0.000572936
0.000560161
0.000541835
0.000517097
0.000400123
0.000405605
0.000408877
0.0004102
0.000407957
0.00040186
0.000392237
0.000378526
0.000360951
0.000340166
0.00031647
0.000290681
0.000263657
0.000236154
0.000208924
0.000182707
0.000157344
0.000132465
0.000109437
8.97261e-05
7.38534e-05
6.19517e-05
5.38861e-05
4.90152e-05
4.17846e-05
3.06479e-05
1.83928e-05
8.59475e-06
3.02943e-06
1.15416e-08
3.73e-09
2.2754e-12
0
0
0.00113261
0.000391958
0.00038223
0.000369381
0.000352666
0.000278424
0.000282829
0.000286061
0.000288088
0.000288015
0.000285549
0.000280778
0.000273243
0.000262995
0.000250287
0.00023528
0.00021842
0.000200249
0.000181297
0.000162182
0.000143375
0.000125408
0.000108977
9.40566e-05
8.05603e-05
6.8616e-05
5.85341e-05
5.01836e-05
4.33994e-05
3.72066e-05
3.04616e-05
2.38624e-05
1.76035e-05
1.25833e-05
6.52826e-06
2.72633e-06
1.98825e-09
9.27561e-10
0
0
0.000272442
0.000265599
0.000256885
0.000208083
0.000207795
0.000206066
0.000202534
0.000197192
0.000190107
0.000181269
0.000170897
0.000159262
0.000146657
0.00013344
0.000119952
0.000106597
9.3461e-05
8.07404e-05
6.90219e-05
5.88412e-05
5.04258e-05
4.35531e-05
3.74952e-05
3.1546e-05
2.55259e-05
2.00938e-05
1.58213e-05
1.27946e-05
1.05167e-05
8.47033e-06
4.47492e-06
7.38851e-07
3.44783e-09
0
0.000152072
0.000150546
0.000147766
0.000143751
0.000138432
0.000131905
0.000124302
0.000115783
0.000106587
9.6967e-05
8.71734e-05
7.75129e-05
6.8255e-05
5.95975e-05
5.17879e-05
4.49585e-05
3.90774e-05
3.37393e-05
2.83919e-05
2.29312e-05
1.78751e-05
1.38644e-05
1.10125e-05
9.13608e-06
7.83778e-06
7.07936e-06
5.43567e-06
1.83782e-06
4.75456e-09
0.000111884
0.000109782
0.000106741
0.000102791
9.79818e-05
9.23928e-05
8.61545e-05
7.94218e-05
7.23781e-05
6.52406e-05
5.81232e-05
5.12313e-05
4.48762e-05
3.92337e-05
3.42882e-05
2.97728e-05
2.52801e-05
2.06841e-05
1.63351e-05
1.27335e-05
1.00423e-05
8.11329e-06
6.69245e-06
5.83303e-06
5.42679e-06
5.01837e-06
2.16952e-06
8.41485e-05
8.24672e-05
8.01126e-05
7.70921e-05
7.34306e-05
6.92056e-05
6.45123e-05
5.94639e-05
5.42299e-05
4.89402e-05
4.37339e-05
3.87999e-05
3.42764e-05
3.017e-05
2.63363e-05
2.25287e-05
1.86588e-05
1.49686e-05
1.18336e-05
9.4146e-06
7.59986e-06
6.20388e-06
5.14776e-06
4.46692e-06
4.21354e-06
4.62178e-06
6.40111e-05
6.26706e-05
6.08312e-05
5.84939e-05
5.5691e-05
5.24744e-05
4.89119e-05
4.51244e-05
4.12004e-05
3.72303e-05
3.33574e-05
2.97245e-05
2.63504e-05
2.31488e-05
1.99626e-05
1.67314e-05
1.36257e-05
1.09312e-05
8.79883e-06
7.16266e-06
5.88547e-06
4.87253e-06
4.09525e-06
3.56397e-06
3.44275e-06
4.98487e-05
4.91435e-05
4.80638e-05
4.66006e-05
4.47622e-05
4.25786e-05
4.00917e-05
3.73701e-05
3.44938e-05
3.15238e-05
2.85423e-05
2.56721e-05
2.29383e-05
2.02933e-05
1.76452e-05
1.49578e-05
1.23522e-05
1.00457e-05
8.17403e-06
6.71023e-06
5.55558e-06
4.63967e-06
3.90396e-06
3.39328e-06
2.75438e-06
3.86404e-05
3.80463e-05
3.71611e-05
3.59885e-05
3.45353e-05
3.28245e-05
3.08937e-05
2.8808e-05
2.65998e-05
2.43199e-05
2.2067e-05
1.98728e-05
1.77145e-05
1.55353e-05
1.33163e-05
1.11452e-05
9.18577e-06
7.55501e-06
6.25228e-06
5.21052e-06
4.38131e-06
3.7103e-06
3.24873e-06
2.69625e-06
3.01639e-05
2.966e-05
2.89343e-05
2.79865e-05
2.68265e-05
2.54746e-05
2.39767e-05
2.23541e-05
2.06346e-05
1.88874e-05
1.71471e-05
1.54059e-05
1.36303e-05
1.18107e-05
1.00128e-05
8.35993e-06
6.95038e-06
5.79937e-06
4.86481e-06
4.11152e-06
3.50517e-06
3.04993e-06
2.71726e-06
2.39564e-05
2.36953e-05
2.32668e-05
2.26662e-05
2.18966e-05
2.09653e-05
1.99027e-05
1.87233e-05
1.74414e-05
1.60994e-05
1.47338e-05
1.33453e-05
1.19128e-05
1.04329e-05
8.95464e-06
7.57087e-06
6.363e-06
5.35464e-06
4.523e-06
3.84171e-06
3.29491e-06
2.85172e-06
2.611e-06
1.89447e-05
1.87124e-05
1.8348e-05
1.78505e-05
1.72225e-05
1.6479e-05
1.56324e-05
1.4688e-05
1.36688e-05
1.26099e-05
1.15154e-05
1.03714e-05
9.17746e-06
7.9708e-06
6.82133e-06
5.79527e-06
4.91972e-06
4.18569e-06
3.57516e-06
3.08083e-06
2.67201e-06
2.42317e-06
1.51631e-05
1.50562e-05
1.48498e-05
1.454e-05
1.41263e-05
1.36137e-05
1.30144e-05
1.23282e-05
1.15642e-05
1.0752e-05
9.89836e-06
8.99397e-06
8.03923e-06
7.062e-06
6.11477e-06
5.25064e-06
4.49715e-06
3.85433e-06
3.31229e-06
2.86563e-06
2.50015e-06
2.22966e-06
1.21173e-05
1.20145e-05
1.1832e-05
1.1568e-05
1.12233e-05
1.08074e-05
1.03159e-05
9.75091e-06
9.13542e-06
8.47717e-06
7.76964e-06
7.01288e-06
6.22776e-06
5.45348e-06
4.73209e-06
4.08949e-06
3.53119e-06
3.05386e-06
2.65265e-06
2.32699e-06
2.0565e-06
9.75569e-06
9.71873e-06
9.6218e-06
9.46204e-06
9.23716e-06
8.95369e-06
8.60685e-06
8.19527e-06
7.73485e-06
7.23295e-06
6.6856e-06
6.09169e-06
5.46632e-06
4.8388e-06
4.24199e-06
3.6989e-06
3.21824e-06
2.80107e-06
2.44413e-06
2.15223e-06
1.89981e-06
7.86129e-06
7.81998e-06
7.73052e-06
7.58976e-06
7.40135e-06
7.16157e-06
6.86704e-06
6.52732e-06
6.14942e-06
5.73068e-06
5.26915e-06
4.77542e-06
4.27132e-06
3.78206e-06
3.32741e-06
2.91724e-06
2.55537e-06
2.24073e-06
1.97873e-06
1.75082e-06
6.35805e-06
6.35206e-06
6.30932e-06
6.227e-06
6.10637e-06
5.94461e-06
5.73821e-06
5.49124e-06
5.2105e-06
4.89367e-06
4.53858e-06
4.1524e-06
3.75111e-06
3.35367e-06
2.97665e-06
2.62981e-06
2.31852e-06
2.0434e-06
1.80932e-06
1.60519e-06
5.14211e-06
5.15733e-06
5.14488e-06
5.10223e-06
5.02886e-06
4.92355e-06
4.78198e-06
4.60528e-06
4.3995e-06
4.16306e-06
3.89304e-06
3.59403e-06
3.27753e-06
2.95774e-06
2.64793e-06
2.35736e-06
2.09179e-06
1.8531e-06
1.64565e-06
1.46289e-06
4.18551e-06
4.19191e-06
4.17537e-06
4.13459e-06
4.06916e-06
3.97517e-06
3.85136e-06
3.70311e-06
3.52891e-06
3.32578e-06
3.09647e-06
2.84917e-06
2.59435e-06
2.34224e-06
2.10099e-06
1.87634e-06
1.67094e-06
1.48836e-06
1.32525e-06
3.3955e-06
3.41289e-06
3.41294e-06
3.39425e-06
3.35655e-06
3.29655e-06
3.21215e-06
3.10721e-06
2.98074e-06
2.82981e-06
2.65586e-06
2.46451e-06
2.26333e-06
2.06015e-06
1.86169e-06
1.67323e-06
1.49781e-06
1.33856e-06
1.19348e-06
2.75356e-06
2.77655e-06
2.78672e-06
2.7825e-06
2.76379e-06
2.72765e-06
2.67199e-06
2.59925e-06
2.50894e-06
2.39838e-06
2.26789e-06
2.12136e-06
1.96405e-06
1.80178e-06
1.64003e-06
1.48336e-06
1.33454e-06
1.1968e-06
1.06863e-06
2.25747e-06
2.2732e-06
2.27802e-06
2.27177e-06
2.25215e-06
2.21702e-06
2.16813e-06
2.10484e-06
2.0249e-06
1.92816e-06
1.81712e-06
1.69533e-06
1.56697e-06
1.43629e-06
1.30713e-06
1.18201e-06
1.06357e-06
9.51306e-07
1.8343e-06
1.85259e-06
1.86265e-06
1.86432e-06
1.8558e-06
1.83516e-06
1.80341e-06
1.76009e-06
1.70327e-06
1.63248e-06
1.54919e-06
1.45579e-06
1.35519e-06
1.25055e-06
1.14491e-06
1.04051e-06
9.39521e-07
8.41819e-07
1.48956e-06
1.50841e-06
1.52116e-06
1.52758e-06
1.52627e-06
1.51562e-06
1.49607e-06
1.46722e-06
1.42756e-06
1.37648e-06
1.31469e-06
1.24374e-06
1.1656e-06
1.08253e-06
9.96855e-07
9.10363e-07
8.24895e-07
7.40506e-07
1.22712e-06
1.2409e-06
1.24985e-06
1.25301e-06
1.24897e-06
1.23786e-06
1.21938e-06
1.19232e-06
1.15598e-06
1.11069e-06
1.05732e-06
9.97148e-07
9.31723e-07
8.6276e-07
7.91681e-07
7.1985e-07
6.47533e-07
9.97527e-07
1.01118e-06
1.02119e-06
1.02688e-06
1.0271e-06
1.02169e-06
1.01048e-06
9.92479e-07
9.67063e-07
9.3425e-07
8.94494e-07
8.48549e-07
7.97432e-07
7.42337e-07
6.84312e-07
6.24411e-07
5.62886e-07
8.10195e-07
8.23075e-07
8.33223e-07
8.40159e-07
8.42924e-07
8.41241e-07
8.35025e-07
8.23502e-07
8.06049e-07
7.82555e-07
7.5321e-07
7.1841e-07
6.78751e-07
6.35039e-07
5.87999e-07
5.38393e-07
6.69314e-07
6.79002e-07
6.8631e-07
6.90451e-07
6.91103e-07
6.88212e-07
6.81171e-07
6.69443e-07
6.52841e-07
6.31379e-07
6.05215e-07
5.74657e-07
5.40191e-07
5.02309e-07
4.61508e-07
5.43728e-07
5.52643e-07
5.59781e-07
5.64524e-07
5.66529e-07
5.65764e-07
5.6177e-07
5.54104e-07
5.42537e-07
5.26977e-07
5.07432e-07
4.84021e-07
4.57008e-07
4.2668e-07
3.93351e-07
4.41292e-07
4.49267e-07
4.5592e-07
4.60743e-07
4.63444e-07
4.63983e-07
4.62003e-07
4.57154e-07
4.49211e-07
4.38023e-07
4.23504e-07
4.05665e-07
3.84604e-07
3.60459e-07
3.33406e-07
3.57832e-07
3.64839e-07
3.70828e-07
3.7542e-07
3.7837e-07
3.79626e-07
3.78936e-07
3.76009e-07
3.70637e-07
3.62652e-07
3.51926e-07
3.38391e-07
3.22041e-07
3.02919e-07
2.81096e-07
2.89906e-07
2.95948e-07
3.01212e-07
3.05409e-07
3.08334e-07
3.09934e-07
3.10025e-07
3.08374e-07
3.04803e-07
2.99141e-07
2.91246e-07
2.81011e-07
2.68368e-07
2.53291e-07
2.35788e-07
2.3982e-07
2.44367e-07
2.48093e-07
2.50829e-07
2.52524e-07
2.53044e-07
2.52217e-07
2.49888e-07
2.45896e-07
2.401e-07
2.32377e-07
2.22632e-07
2.10795e-07
1.96832e-07
1.94157e-07
1.98024e-07
2.01252e-07
2.03705e-07
2.05348e-07
2.0608e-07
2.05766e-07
2.04277e-07
2.01476e-07
1.97227e-07
1.91407e-07
1.8391e-07
1.74651e-07
1.63568e-07
1.57044e-07
1.60292e-07
1.63044e-07
1.65187e-07
1.66695e-07
1.67494e-07
1.67479e-07
1.66546e-07
1.64585e-07
1.6147e-07
1.57085e-07
1.51328e-07
1.44107e-07
1.35351e-07
1.26925e-07
1.29625e-07
1.31935e-07
1.33765e-07
1.35094e-07
1.35873e-07
1.36022e-07
1.35455e-07
1.34079e-07
1.31792e-07
1.28487e-07
1.24071e-07
1.18455e-07
1.11564e-07
1.02506e-07
1.0473e-07
1.06646e-07
1.08184e-07
1.09325e-07
1.10038e-07
1.10261e-07
1.09926e-07
1.08958e-07
1.07272e-07
1.04777e-07
1.0139e-07
9.70311e-08
9.16296e-08
8.45491e-08
8.61229e-08
8.73969e-08
8.83565e-08
8.89789e-08
8.92213e-08
8.90307e-08
8.83463e-08
8.70975e-08
8.52093e-08
8.26114e-08
7.92338e-08
7.50134e-08
6.82109e-08
6.94918e-08
7.05338e-08
7.13258e-08
7.18542e-08
7.20869e-08
7.19829e-08
7.14936e-08
7.05621e-08
6.91285e-08
6.71348e-08
6.4521e-08
5.49999e-08
5.60338e-08
5.68766e-08
5.75219e-08
5.79599e-08
5.8167e-08
5.81123e-08
5.77573e-08
5.70572e-08
5.59651e-08
5.44326e-08
5.24112e-08
4.43268e-08
4.51567e-08
4.58331e-08
4.63519e-08
4.67076e-08
4.68835e-08
4.68556e-08
4.65934e-08
4.60628e-08
4.52272e-08
4.40476e-08
4.24848e-08
3.57137e-08
3.63762e-08
3.69149e-08
3.73273e-08
3.76116e-08
3.77551e-08
3.77399e-08
3.75428e-08
3.71372e-08
3.64948e-08
3.55853e-08
3.43773e-08
2.9295e-08
2.97211e-08
3.00464e-08
3.027e-08
3.03836e-08
3.03735e-08
3.02223e-08
2.99095e-08
2.94131e-08
2.87102e-08
2.77764e-08
2.35893e-08
2.39245e-08
2.41787e-08
2.43525e-08
2.44402e-08
2.44316e-08
2.43131e-08
2.40695e-08
2.36842e-08
2.31395e-08
2.24169e-08
1.89956e-08
1.92578e-08
1.9455e-08
1.95886e-08
1.96547e-08
1.96453e-08
1.95507e-08
1.93595e-08
1.90589e-08
1.86358e-08
1.8076e-08
1.52995e-08
1.55036e-08
1.56554e-08
1.57568e-08
1.58052e-08
1.57947e-08
1.57179e-08
1.55665e-08
1.5331e-08
1.50015e-08
1.45672e-08
1.23267e-08
1.24846e-08
1.26009e-08
1.26771e-08
1.27114e-08
1.26999e-08
1.26368e-08
1.2516e-08
1.23306e-08
1.20731e-08
1.17355e-08
9.93645e-09
1.00583e-08
1.01468e-08
1.02033e-08
1.02268e-08
1.02144e-08
1.0162e-08
1.0065e-08
9.91831e-09
9.71646e-09
8.01507e-09
8.10887e-09
8.17567e-09
8.21709e-09
8.23239e-09
8.21953e-09
8.17557e-09
8.09712e-09
7.98049e-09
7.82173e-09
6.54292e-09
6.59302e-09
6.62289e-09
6.63215e-09
6.61916e-09
6.58195e-09
6.51808e-09
6.42487e-09
6.29949e-09
5.28516e-09
5.32247e-09
5.34354e-09
5.3483e-09
5.3356e-09
5.30393e-09
5.25161e-09
5.17671e-09
5.0772e-09
4.27395e-09
4.30156e-09
4.31617e-09
4.31781e-09
4.30569e-09
4.2787e-09
4.23566e-09
4.17521e-09
4.09592e-09
3.45902e-09
3.47935e-09
3.48926e-09
3.48883e-09
3.47756e-09
3.45468e-09
3.41931e-09
3.37051e-09
3.30726e-09
2.79967e-09
2.81449e-09
2.82104e-09
2.81945e-09
2.80933e-09
2.79014e-09
2.76124e-09
2.722e-09
2.67167e-09
2.26479e-09
2.27545e-09
2.27957e-09
2.27728e-09
2.26833e-09
2.25232e-09
2.22884e-09
2.1974e-09
1.83196e-09
1.83947e-09
1.84173e-09
1.83893e-09
1.8309e-09
1.81739e-09
1.79815e-09
1.77285e-09
1.48364e-09
1.48867e-09
1.48948e-09
1.48623e-09
1.47884e-09
1.46718e-09
1.45108e-09
1.43038e-09
1.20812e-09
1.2078e-09
1.20418e-09
1.19726e-09
1.18695e-09
1.17315e-09
1.15584e-09
9.83021e-10
9.81859e-10
9.77976e-10
9.71434e-10
9.62151e-10
9.50072e-10
9.35341e-10
8.04036e-10
8.02824e-10
7.99384e-10
7.94037e-10
7.86196e-10
7.75963e-10
7.64082e-10
6.75456e-10
6.73993e-10
6.7053e-10
6.65914e-10
6.58832e-10
6.49494e-10
6.3971e-10
5.79517e-10
5.77633e-10
5.73724e-10
5.68882e-10
5.61668e-10
5.52142e-10
4.95759e-10
4.94325e-10
4.90998e-10
4.86768e-10
4.8044e-10
4.71849e-10
4.19856e-10
4.17948e-10
4.14239e-10
4.09682e-10
4.03508e-10
3.94977e-10
3.55069e-10
3.54139e-10
3.51642e-10
3.48182e-10
3.43477e-10
3.37074e-10
2.91065e-10
2.88167e-10
2.83836e-10
2.78975e-10
2.73404e-10
2.65016e-10
2.53288e-10
2.535e-10
2.52362e-10
2.49564e-10
2.4633e-10
2.43369e-10
1.82921e-10
1.78043e-10
1.74025e-10
1.69307e-10
1.59284e-10
2.05192e-10
2.07467e-10
2.05006e-10
2.04293e-10
2.1196e-10
1.27067e-10
1.27602e-10
1.31444e-10
1.29849e-10
1.19826e-10
2.92414e-10
3.08974e-10
3.07382e-10
3.14637e-10
3.48562e-10
3.66549e-10
3.88374e-10
4.20713e-10
7.47595e-10
8.37394e-10
7.78459e-10
7.01642e-10
)
;

boundaryField
{
    inlet
    {
        type            calculated;
        value           nonuniform List<scalar> 4(1.45826e-08 1.65111e-08 1.69373e-08 1.73353e-08);
    }
    outlet
    {
        type            calculated;
        value           nonuniform List<scalar> 0();
    }
    walls
    {
        type            calculated;
        value           uniform 0;
    }
    frontAndBack
    {
        type            empty;
    }
    procBoundary5to0
    {
        type            processor;
        value           nonuniform List<scalar> 4(0.000197875 0.00019326 0.000188239 0.000182074);
    }
    procBoundary5to1
    {
        type            processor;
        value           nonuniform List<scalar> 
13
(
0.00631142
0.00354115
0.00354115
0.00226319
0.00161311
0.00161311
0.00101935
0.000729506
0.000729506
0.000485864
0.000332264
0.000245536
0.000245536
)
;
    }
    procBoundary5to4
    {
        type            processor;
        value           nonuniform List<scalar> 
95
(
0.000201518
0.000204582
0.000206968
0.000206968
0.000151829
0.000152425
0.000152425
0.000113527
0.000113126
0.000113126
8.51546e-05
8.51546e-05
6.48553e-05
6.48553e-05
5.01978e-05
3.89602e-05
3.89602e-05
3.04511e-05
3.04511e-05
2.40572e-05
1.90532e-05
1.90532e-05
1.51771e-05
1.21458e-05
1.21458e-05
9.73674e-06
7.85746e-06
7.85746e-06
6.33049e-06
5.10193e-06
4.15846e-06
4.15846e-06
3.36291e-06
2.71924e-06
2.23227e-06
2.23227e-06
1.809e-06
1.46555e-06
1.20884e-06
1.20884e-06
9.80533e-07
7.94878e-07
6.57552e-07
6.57552e-07
5.3326e-07
4.32146e-07
3.4996e-07
2.8321e-07
2.34679e-07
2.34679e-07
1.89829e-07
1.53438e-07
1.23944e-07
1.0006e-07
8.27319e-08
8.27319e-08
6.67346e-08
5.38081e-08
4.33699e-08
3.49485e-08
2.87694e-08
2.87694e-08
2.31742e-08
1.86689e-08
1.50431e-08
1.21261e-08
9.7799e-09
7.89308e-09
6.47102e-09
6.47102e-09
5.23016e-09
4.2321e-09
3.42724e-09
2.77561e-09
2.24675e-09
1.81852e-09
1.47378e-09
1.20499e-09
1.20499e-09
9.81328e-10
8.02896e-10
6.74751e-10
5.79257e-10
4.95267e-10
4.19925e-10
3.54452e-10
2.9268e-10
2.51501e-10
1.86902e-10
1.86902e-10
2.01905e-10
1.25476e-10
2.78133e-10
3.22644e-10
7.4469e-10
)
;
    }
    procBoundary5to6
    {
        type            processor;
        value           nonuniform List<scalar> 
86
(
334.416
26.5009
31.9652
32.3897
16.8968
1.65886
0.033717
0.0241499
0
0
0
2.91238e-09
1.21325e-06
4.79282e-06
4.23084e-06
2.75972e-06
2.11921e-06
2.00549e-06
2.03155e-06
2.00282e-06
1.89219e-06
1.74222e-06
1.58846e-06
1.44398e-06
1.30974e-06
1.18337e-06
1.06391e-06
9.51337e-07
8.45779e-07
7.47769e-07
6.57515e-07
5.74871e-07
4.99872e-07
4.86459e-07
4.86459e-07
4.18012e-07
3.57172e-07
3.03534e-07
2.56612e-07
2.15854e-07
1.80707e-07
1.50607e-07
1.24995e-07
1.03335e-07
8.51242e-08
6.98928e-08
6.12329e-08
6.12329e-08
4.9856e-08
4.05028e-08
3.28419e-08
2.65881e-08
2.14981e-08
1.73652e-08
1.40172e-08
1.13098e-08
9.45352e-09
9.45352e-09
7.61646e-09
6.13868e-09
4.95074e-09
3.99607e-09
3.22831e-09
2.60935e-09
2.15751e-09
2.15751e-09
1.74113e-09
1.40484e-09
1.13491e-09
9.17853e-10
7.49906e-10
6.28131e-10
5.42712e-10
5.42712e-10
4.63128e-10
3.86497e-10
3.2972e-10
2.57725e-10
2.36577e-10
1.54789e-10
2.03877e-10
1.23618e-10
3.68952e-10
3.68952e-10
4.24559e-10
1.21579e-09
)
;
    }
}


// ************************************************************************* //
