/*--------------------------------*- C++ -*----------------------------------*\
| =========                 |                                                 |
| \\      /  F ield         | OpenFOAM: The Open Source CFD Toolbox           |
|  \\    /   O peration     | Version:  2506                                  |
|   \\  /    A nd           | Website:  www.openfoam.com                      |
|    \\/     M anipulation  |                                                 |
\*---------------------------------------------------------------------------*/
FoamFile
{
    version     2.0;
    format      ascii;
    arch        "LSB;label=32;scalar=64";
    class       volSymmTensorField;
    location    "450";
    object      turbulenceProperties:devReff;
}
// * * * * * * * * * * * * * * * * * * * * * * * * * * * * * * * * * * * * * //

dimensions      [0 2 -2 0 0 0 0];

internalField   nonuniform List<symmTensor> 
1340
(
(0.00163714 0.00425779 -9.50069e-22 -0.00177373 -2.23883e-20 0.000136593)
(0.00238852 0.00488002 -1.24309e-22 -0.00248646 1.40368e-19 9.79402e-05)
(0.00361105 0.00546062 -2.76482e-20 -0.00380827 -4.34987e-19 0.000197225)
(0.00524591 0.00621487 1.19073e-19 -0.00549189 8.78822e-19 0.00024598)
(0.00742491 0.00687339 -2.25915e-19 -0.00769355 -8.34223e-19 0.000268643)
(0.0104039 0.00726186 -1.72317e-19 -0.0107954 -4.50645e-19 0.000391442)
(0.014299 0.00737458 3.25998e-19 -0.0147852 1.25251e-18 0.000486256)
(0.0191876 0.00685904 -8.31322e-19 -0.0197702 -2.26133e-18 0.000582585)
(0.025239 0.00535156 -2.06509e-19 -0.0259856 6.04417e-19 0.000746563)
(0.0325644 0.00260623 6.13777e-19 -0.0334649 1.25947e-18 0.000900454)
(0.0413421 -0.00189799 1.57979e-18 -0.0424336 5.77706e-19 0.00109149)
(0.0519596 -0.00873399 -3.55239e-18 -0.0532774 -3.29927e-18 0.00131782)
(0.0649576 -0.0188219 6.7279e-19 -0.0665508 8.68395e-19 0.00159318)
(0.0812468 -0.0337492 2.68635e-18 -0.0832016 1.27312e-18 0.00195482)
(0.102368 -0.0561689 -4.07745e-18 -0.104834 -6.36944e-18 0.00246625)
(0.13053 -0.0904043 -4.36535e-18 -0.133705 -2.58501e-18 0.00317454)
(0.169882 -0.14506 1.92126e-17 -0.174188 1.77899e-17 0.00430663)
(0.224283 -0.232428 1.78591e-17 -0.230163 3.37909e-17 0.00588052)
(0.310932 -0.388887 -3.53878e-17 -0.319547 -5.48546e-17 0.00861515)
(0.426452 -0.641759 -1.3779e-18 -0.438626 1.45542e-17 0.0121748)
(0.666805 -1.21419 -2.7223e-17 -0.686199 5.20468e-17 0.0193947)
(0.945548 -2.11448 -1.24401e-17 -0.971666 4.18836e-17 0.0261183)
(1.76558 -5.12884 -1.43151e-16 -1.81774 -6.41884e-16 0.0521596)
(2.42861 -10.312 3.31458e-16 -2.51206 5.58901e-16 0.0834466)
(1.52872 -11.6483 4.24143e-17 -1.56982 -7.12353e-16 0.0410954)
(0.526702 -11.23 3.65809e-16 -0.515192 5.81279e-16 -0.0115097)
(-0.145877 -11.0458 -8.1852e-17 0.175792 -7.84429e-17 -0.0299154)
(-0.665125 -11.229 2.7451e-16 0.689999 2.30563e-16 -0.0248731)
(-1.13647 -11.443 7.29062e-16 1.15295 1.20848e-15 -0.0164791)
(-1.57191 -11.4559 4.00594e-16 1.58025 1.99764e-15 -0.0083479)
(-1.95806 -11.2417 -1.41159e-15 1.95633 -1.93154e-15 0.00173515)
(-2.27379 -10.8352 -4.74948e-16 2.2633 -7.26177e-16 0.0104959)
(-2.49385 -10.2216 -3.22521e-17 2.4789 -4.36833e-15 0.0149463)
(-2.60537 -9.41471 -2.58333e-15 2.59 -7.30007e-15 0.015376)
(-2.58948 -8.40637 1.00635e-15 2.57527 9.23249e-16 0.0142067)
(0.000968053 0.00371302 2.39404e-21 -0.00101994 5.55971e-20 5.18854e-05)
(0.000549692 0.00319713 -3.57159e-21 -0.000639717 2.55678e-23 9.00252e-05)
(0.00017931 0.0026111 -1.95663e-20 -0.000226376 -1.37147e-19 4.70665e-05)
(-6.70764e-05 0.00208971 4.98139e-21 3.29484e-05 9.36017e-20 3.41279e-05)
(-0.000179257 0.00159689 3.9189e-21 0.00016097 -1.82533e-20 1.82875e-05)
(-0.000172604 0.0011672 -3.3858e-20 0.000173 1.10834e-19 -3.9611e-07)
(-8.40078e-05 0.000835302 -2.02265e-19 0.000108116 1.62794e-19 -2.41082e-05)
(0.000579433 -0.000460527 1.22859e-22 -0.00052005 4.00305e-21 -5.93828e-05)
(0.000492605 -0.000547355 2.9033e-20 -0.000425489 7.03536e-20 -6.71159e-05)
(0.000371416 -0.000622949 -2.69199e-20 -0.000291097 -4.74604e-20 -8.03187e-05)
(0.000250519 -0.000652178 -1.81361e-20 -0.000158591 -5.16564e-20 -9.19289e-05)
(0.00013315 -0.000645109 1.2227e-19 -3.25568e-05 2.37307e-19 -0.000100593)
(2.31412e-05 -0.000610485 4.76158e-20 8.61799e-05 7.38712e-20 -0.000109321)
(-6.02899e-05 -0.000551403 2.2581e-19 0.000177197 2.07449e-19 -0.000116908)
(-0.000116636 -0.000479008 -1.16705e-19 0.000238471 -2.24588e-20 -0.000121835)
(-0.000149303 -0.000404777 1.64896e-19 0.000274582 1.14262e-19 -0.000125279)
(-0.000158012 -0.000336002 -5.85654e-21 0.000285259 2.50067e-22 -0.000127247)
(-0.000150112 -0.000278307 -2.23006e-19 0.000277009 -1.90525e-19 -0.000126896)
(-0.000132662 -0.000239949 2.87171e-19 0.00025889 3.57497e-19 -0.000126227)
(-0.000110888 -0.000226119 1.76602e-19 0.000240754 8.87438e-20 -0.000129866)
(-8.62536e-05 -0.000245789 -3.68423e-20 0.000231115 1.99826e-20 -0.000144861)
(-4.85452e-05 -0.000344616 -2.2687e-19 0.000241474 3.73456e-20 -0.000192929)
(6.24931e-05 -0.000658592 4.7736e-19 0.000258287 5.4626e-19 -0.00032078)
(0.000455354 -0.00154863 8.5542e-19 0.000142138 -9.35397e-19 -0.000597492)
(0.00150213 -0.00354906 -4.41878e-18 -0.000499215 -5.72735e-18 -0.00100292)
(0.00420729 -0.00868044 5.06249e-19 -0.00253859 7.46872e-18 -0.0016687)
(0.0104878 -0.0211621 7.37474e-18 -0.00790318 -2.07124e-18 -0.00258466)
(0.0295521 -0.0626785 1.55233e-17 -0.025132 6.15178e-18 -0.00442014)
(0.074114 -0.174791 -2.35791e-17 -0.0678933 -2.25793e-17 -0.00622068)
(0.19549 -0.546265 7.43592e-17 -0.187682 1.87682e-16 -0.00780853)
(0.50521 -1.78612 1.5583e-19 -0.502435 -1.54897e-16 -0.00277508)
(0.749791 -3.55022 -2.73593e-16 -0.773514 1.69827e-16 0.0237238)
(0.7903 -5.39761 -9.72351e-17 -0.844701 -6.60554e-16 0.0544005)
(0.603527 -7.14881 1.18377e-18 -0.675462 7.56942e-17 0.0719344)
(0.204327 -8.39218 -2.94461e-16 -0.279942 -4.44709e-16 0.0756145)
(-0.295503 -8.63452 -4.93563e-16 0.229457 -2.83241e-15 0.0660459)
(-0.707042 -7.89645 -1.66977e-16 0.665794 -3.54627e-15 0.0412485)
(-0.93119 -6.69147 5.22938e-16 0.922784 4.89648e-15 0.00840682)
(-0.998259 -5.47793 -9.5522e-16 1.01642 -3.75678e-17 -0.0181586)
(-0.984415 -4.49833 -7.18963e-15 1.0142 1.34209e-15 -0.0297892)
(-0.930846 -3.75355 8.7725e-15 0.960487 1.59519e-14 -0.0296406)
(-0.863833 -3.18644 -1.4887e-15 0.887846 -8.63766e-16 -0.0240127)
(0.000645655 -0.000345009 9.36998e-21 -0.000595427 2.31773e-20 -5.02282e-05)
(0.00068442 -0.000224612 -1.27043e-20 -0.00063747 -9.60293e-20 -4.69501e-05)
(0.000691694 -7.6394e-05 -1.86441e-20 -0.000654663 -1.11218e-19 -3.70303e-05)
(0.000654248 8.66813e-05 -7.12348e-21 -0.000627664 1.65311e-19 -2.65842e-05)
(0.000565077 0.000235302 1.92662e-21 -0.000550956 4.34553e-20 -1.41214e-05)
(0.000429275 0.000348908 3.7825e-20 -0.000425618 -1.45277e-19 -3.65725e-06)
(0.000333682 -0.000312807 1.7258e-21 -0.000360069 2.38759e-21 2.63877e-05)
(0.00025836 -0.000372281 -2.7296e-20 -0.000290235 -6.63198e-20 3.18749e-05)
(0.000160851 -0.000413558 -6.02086e-21 -0.000197977 -3.03308e-21 3.71262e-05)
(5.20709e-05 -0.000426361 2.27884e-20 -9.69441e-05 4.92238e-20 4.48732e-05)
(-5.44252e-05 -0.000413077 -7.20971e-20 3.54527e-06 -1.46642e-19 5.08799e-05)
(-0.000154783 -0.000372457 -8.20728e-20 9.79075e-05 -1.34513e-19 5.68753e-05)
(-0.000238945 -0.000308489 -1.66416e-19 0.000175434 -2.45977e-19 6.3511e-05)
(-0.000299999 -0.000230744 -1.34057e-20 0.000231132 -1.99283e-21 6.8867e-05)
(-0.000337765 -0.000145421 -7.30692e-20 0.000264304 -1.74013e-19 7.34607e-05)
(-0.000352964 -6.11089e-05 3.05788e-19 0.000275454 3.47969e-19 7.75098e-05)
(-0.000348657 1.65898e-05 -5.00762e-20 0.000268535 6.81112e-20 8.01224e-05)
(-0.000331378 8.39141e-05 3.41323e-20 0.000250344 2.10021e-20 8.10341e-05)
(-0.000307335 0.000139294 -2.33538e-19 0.00022752 -2.97234e-19 7.98149e-05)
(-0.000281359 0.000184856 1.50372e-19 0.000204138 -1.39598e-20 7.72213e-05)
(-0.000253977 0.000218701 4.36307e-20 0.000181522 1.35396e-19 7.24554e-05)
(-0.00022401 0.000237809 5.34493e-20 0.000159036 2.56524e-20 6.49737e-05)
(-0.000179239 0.000226922 -2.40503e-19 0.000127521 -1.40075e-19 5.17179e-05)
(-0.00015264 0.00022365 2.0859e-19 0.000110176 1.55489e-19 4.24641e-05)
(-0.000102344 0.000169004 5.07099e-20 7.59571e-05 6.6244e-22 2.63868e-05)
(-0.000915037 0.00164936 -2.11604e-18 0.000707775 -3.18358e-19 0.000207262)
(-0.00180546 0.00345927 5.24896e-18 0.00147017 -2.06144e-18 0.000335291)
(-6.63524e-05 0.000131144 7.30258e-21 5.76913e-05 1.2521e-19 8.66108e-06)
(-0.00134216 0.00153451 5.94616e-18 0.00143279 -8.78242e-18 -9.06262e-05)
(0.00125803 -0.00468563 -2.28358e-18 -0.0010142 -2.44019e-18 -0.000243823)
(0.0119051 -0.0526572 4.3557e-18 -0.0101209 1.53823e-17 -0.00178422)
(0.0316536 -0.19019 -2.80861e-17 -0.0275617 7.67601e-18 -0.00409191)
(0.0531107 -0.490047 1.47172e-17 -0.0471011 1.14278e-18 -0.0060096)
(0.0637029 -1.11122 -1.42717e-17 -0.0564855 7.61973e-17 -0.00721739)
(0.0252602 -2.19829 -4.39957e-16 -0.0184634 2.46006e-16 -0.00679682)
(-0.119842 -3.62971 2.16874e-16 0.123043 3.53034e-16 -0.0032005)
(-0.387148 -4.91324 1.56351e-15 0.381972 -5.8667e-16 0.0051761)
(-0.691727 -5.52342 -2.76465e-15 0.677325 2.16218e-15 0.0144014)
(-0.905508 -5.36693 5.13892e-16 0.889781 9.32704e-15 0.0157269)
(-0.983092 -4.78715 -4.86939e-17 0.974699 -6.36756e-15 0.00839282)
(-0.96487 -4.12831 3.05763e-15 0.963399 -2.3008e-15 0.00147124)
(0.000395295 -0.000236803 -3.54254e-21 -0.000419381 -6.74351e-21 2.40862e-05)
(0.000435596 -0.000154352 -1.34281e-20 -0.000454967 -1.89997e-20 1.93711e-05)
(0.000460047 -5.32791e-05 5.56881e-20 -0.000474973 1.20065e-19 1.49256e-05)
(0.000454763 5.438e-05 1.14453e-20 -0.000464206 -1.35571e-20 9.44308e-06)
(0.000415687 0.000160468 7.89576e-21 -0.000421151 -8.89555e-20 5.46415e-06)
(0.000342124 0.00024805 -2.4654e-20 -0.000344105 6.37279e-20 1.98092e-06)
(0.00030628 -0.000258223 9.51568e-21 -0.000296876 1.62784e-20 -9.4039e-06)
(0.000259298 -0.000306082 -1.32542e-20 -0.000248912 -2.38931e-20 -1.03863e-05)
(0.000195911 -0.000347409 -6.02783e-21 -0.000182639 -3.32174e-21 -1.32723e-05)
(0.000125025 -0.000374211 7.16064e-20 -0.000109147 1.04795e-19 -1.5878e-05)
(5.17749e-05 -0.000382634 4.5507e-20 -3.28947e-05 8.24867e-20 -1.88803e-05)
(-2.12929e-05 -0.000372943 5.77214e-20 4.36687e-05 1.10845e-19 -2.23758e-05)
(-8.66743e-05 -0.000347085 8.81562e-20 0.000112589 1.01992e-19 -2.59148e-05)
(-0.000139539 -0.000308084 -5.05818e-20 0.000168993 -7.85515e-20 -2.94546e-05)
(-0.000178415 -0.000260562 -1.80918e-19 0.00021168 -1.79248e-19 -3.32643e-05)
(-0.000202003 -0.000209912 2.34922e-19 0.000238692 1.323e-19 -3.6689e-05)
(-0.000211574 -0.000160037 1.97567e-19 0.000251484 1.67323e-19 -3.99102e-05)
(-0.000209291 -0.000114101 2.55705e-19 0.00025182 1.22495e-19 -4.25286e-05)
(-0.000197728 -7.42123e-05 -4.20852e-19 0.000241973 -1.34781e-19 -4.42449e-05)
(-0.000179863 -4.12309e-05 -3.58068e-19 0.000224681 -2.40533e-19 -4.48181e-05)
(-0.000157739 -1.50509e-05 4.73809e-19 0.000202211 1.49029e-19 -4.44718e-05)
(-0.000133134 7.47433e-06 9.57785e-20 0.000175307 5.89818e-20 -4.21734e-05)
(-0.000107455 2.65909e-05 -7.08913e-20 0.000145547 7.31687e-21 -3.80917e-05)
(-8.50134e-05 4.31435e-05 -2.30782e-19 0.000118158 -1.51199e-19 -3.31443e-05)
(-6.20234e-05 5.46944e-05 5.18258e-20 8.70631e-05 -1.98842e-20 -2.50398e-05)
(-4.30376e-05 5.86062e-05 2.00342e-19 5.90415e-05 6.18121e-20 -1.60039e-05)
(-3.80953e-05 7.09255e-05 -2.6889e-19 4.90741e-05 -7.73423e-20 -1.09788e-05)
(-4.03754e-05 9.39037e-05 1.43958e-19 4.85869e-05 2.05626e-20 -8.21151e-06)
(-3.74294e-05 0.000112358 -4.38603e-20 4.34991e-05 -9.51017e-21 -6.06976e-06)
(-0.000240961 0.00109635 -8.51209e-19 0.000287524 4.17476e-19 -4.65625e-05)
(-0.00059258 0.00637999 3.54164e-18 0.000863633 -1.13049e-18 -0.000271053)
(0.00050517 0.0128292 -7.45086e-18 8.41251e-05 9.89163e-18 -0.000589295)
(0.00339028 0.0176551 1.52483e-19 -0.002429 -3.48192e-19 -0.000961275)
(0.000262223 0.000362498 4.84909e-19 -0.000219551 -1.72239e-19 -4.26726e-05)
(0.00394701 -0.00954026 5.85282e-18 -0.00347745 1.48112e-17 -0.000469561)
(0.00987782 -0.107045 2.65018e-17 -0.00864255 -1.20013e-16 -0.00123527)
(-0.000311879 -0.477123 -6.63256e-17 0.00251511 -3.95358e-16 -0.00220324)
(-0.0767563 -1.29808 2.07585e-15 0.0794691 5.51215e-16 -0.00271285)
(-0.263503 -2.42339 2.97007e-15 0.264381 6.72415e-16 -0.000878404)
(-0.514108 -3.34369 -1.64326e-15 0.510698 -2.23408e-15 0.00340997)
(-0.715462 -3.72231 -7.33285e-15 0.709509 1.42196e-15 0.00595253)
(0.000342224 -0.000198497 -1.46076e-20 -0.000335899 -2.97426e-20 -6.32498e-06)
(0.000364714 -0.000135328 -5.02372e-21 -0.000359228 2.03042e-20 -5.48566e-06)
(0.000373312 -5.72451e-05 4.83501e-20 -0.000370622 9.21872e-20 -2.69012e-06)
(0.00036393 2.51558e-05 -2.06946e-20 -0.00036261 -1.16213e-21 -1.32002e-06)
(0.000332411 0.000105543 1.80246e-20 -0.000332513 1.1422e-19 1.02049e-07)
(0.000222634 -0.000196128 -1.35347e-20 -0.000225649 -2.01606e-20 3.0156e-06)
(0.000184148 -0.000231624 2.65854e-21 -0.000188508 4.23595e-21 4.35982e-06)
(0.000134444 -0.000261247 1.61108e-20 -0.000139278 1.74974e-20 4.83416e-06)
(7.79988e-05 -0.000279186 -9.89662e-20 -8.41634e-05 -1.40665e-19 6.16452e-06)
(1.89322e-05 -0.000283319 -7.24487e-20 -2.6481e-05 -8.47328e-20 7.54881e-06)
(-4.0442e-05 -0.00027307 1.69306e-19 3.16121e-05 2.02667e-19 8.82988e-06)
(-9.48347e-05 -0.000249163 -1.79755e-19 8.42686e-05 -2.23208e-19 1.05661e-05)
(-0.000140347 -0.000213788 -8.12619e-20 0.000127929 -5.40597e-20 1.2418e-05)
(-0.00017474 -0.000169936 -1.93186e-19 0.000160477 -1.44566e-19 1.42627e-05)
(-0.000196679 -0.000121817 -3.59989e-20 0.000180319 -6.55051e-20 1.63604e-05)
(-0.000206279 -7.28691e-05 2.41759e-20 0.000187824 -8.72369e-21 1.84546e-05)
(-0.000204704 -2.62634e-05 -1.32279e-19 0.000184162 -1.75438e-19 2.05422e-05)
(-0.000193971 1.54449e-05 4.30642e-19 0.000171446 2.94944e-19 2.25255e-05)
(-0.000176465 5.07378e-05 -1.41749e-19 0.000152269 -2.47893e-20 2.41963e-05)
(-0.000154503 7.94328e-05 -3.47387e-19 0.000128934 -1.51908e-19 2.55693e-05)
(-0.00013052 0.000100451 2.30334e-19 0.000104582 4.6094e-21 2.59376e-05)
(-0.000106131 0.000113136 -1.6736e-19 8.13168e-05 -9.65294e-20 2.48146e-05)
(-8.17562e-05 0.000118016 2.28533e-21 5.90844e-05 1.22192e-19 2.26718e-05)
(-5.96942e-05 0.00011814 -4.03238e-20 3.96048e-05 -3.16797e-20 2.00894e-05)
(-3.92402e-05 0.000110923 -2.8503e-19 2.26671e-05 -1.96934e-19 1.65731e-05)
(-2.21811e-05 9.47315e-05 1.98234e-19 1.03271e-05 1.92446e-19 1.18539e-05)
(-1.15774e-05 7.54073e-05 3.94494e-21 4.40425e-06 -1.21619e-19 7.17319e-06)
(-6.76656e-06 6.98844e-05 3.843e-20 2.12931e-06 1.1759e-20 4.63725e-06)
(-2.52058e-06 7.9849e-05 1.11652e-19 -1.22072e-06 -5.00065e-21 3.7413e-06)
(3.77674e-06 8.7e-05 -3.76399e-20 -6.75278e-06 -1.19923e-20 2.97604e-06)
(9.48228e-06 8.92173e-05 1.26741e-19 -1.15764e-05 2.02571e-20 2.09413e-06)
(1.27792e-05 8.91713e-05 -6.92975e-21 -1.40015e-05 1.58596e-22 1.22231e-06)
(2.84521e-05 0.000173983 -2.76415e-20 -2.96015e-05 -1.71204e-20 1.14945e-06)
(0.00123653 0.00662154 2.17844e-20 -0.00124807 1.70687e-18 1.15409e-05)
(0.000662634 0.00291108 -8.48172e-18 -0.000656852 7.00236e-19 -5.78195e-06)
(0.00261895 0.00824848 -1.04596e-17 -0.00257527 1.749e-18 -4.36729e-05)
(0.0105706 0.0120054 2.77164e-17 -0.0103437 -1.61765e-16 -0.000226916)
(0.0187385 -0.0985024 5.76207e-16 -0.0179097 -7.07023e-16 -0.000828814)
(-0.0256457 -0.584252 -2.98301e-15 0.0276358 1.58994e-16 -0.00199009)
(-0.182178 -1.48988 4.83461e-15 0.183991 1.81643e-15 -0.00181323)
(0.000253108 -0.000152902 8.63747e-21 -0.000256266 3.53068e-21 3.15743e-06)
(0.000274184 -0.000106572 -3.12486e-20 -0.000275956 -4.49324e-20 1.7728e-06)
(0.000285724 -4.96652e-05 3.99005e-21 -0.000287343 2.03317e-20 1.61917e-06)
(0.000283464 1.17712e-05 1.70417e-20 -0.000284288 -5.68582e-20 8.23687e-07)
(0.000264476 7.30935e-05 -1.38576e-19 -0.000265052 -1.99266e-19 5.76418e-07)
(0.00018413 -0.000161014 1.18697e-20 -0.000183018 1.37883e-20 -1.11164e-06)
(0.000155879 -0.000189721 -2.9849e-20 -0.000154872 -3.58774e-20 -1.00702e-06)
(0.000118628 -0.000214942 -2.41028e-21 -0.000117023 -4.98743e-21 -1.60467e-06)
(7.60893e-05 -0.00023239 -1.24403e-20 -7.41976e-05 -6.4876e-21 -1.89167e-06)
(3.10361e-05 -0.000239974 9.86365e-20 -2.8767e-05 1.13518e-19 -2.26911e-06)
(-1.54505e-05 -0.000237317 7.56356e-20 1.84272e-05 6.24058e-20 -2.97672e-06)
(-5.93401e-05 -0.00022451 9.61797e-22 6.29576e-05 3.04984e-20 -3.61756e-06)
(-9.76927e-05 -0.000202637 1.87631e-19 0.000102082 1.81804e-19 -4.38913e-06)
(-0.00012879 -0.000173559 -2.34317e-20 0.000134176 -3.12879e-21 -5.38568e-06)
(-0.000151049 -0.000140082 -6.47895e-20 0.000157472 -3.04222e-20 -6.42341e-06)
(-0.000164113 -0.000104705 1.27242e-19 0.000171715 4.74845e-20 -7.60198e-06)
(-0.000168495 -6.98242e-05 -1.71248e-19 0.000177395 -6.63707e-20 -8.90001e-06)
(-0.000165282 -3.76053e-05 -3.02169e-19 0.000175526 -2.36204e-19 -1.02437e-05)
(-0.000155964 -9.36208e-06 -1.26175e-19 0.000167619 3.25222e-20 -1.16553e-05)
(-0.000142207 1.41205e-05 5.44194e-19 0.000155243 2.45773e-19 -1.30364e-05)
(-0.000125184 3.22702e-05 -3.93014e-19 0.000139473 -1.79134e-19 -1.42893e-05)
(-0.000105668 4.6207e-05 -9.43973e-20 0.000120204 8.18611e-20 -1.4536e-05)
(-8.50573e-05 5.5854e-05 1.76266e-19 9.8942e-05 1.14893e-19 -1.38848e-05)
(-6.51582e-05 6.1853e-05 -1.11228e-19 7.76877e-05 -9.02641e-22 -1.25295e-05)
(-4.6858e-05 6.4385e-05 -3.63092e-20 5.75021e-05 9.09056e-20 -1.06441e-05)
(-3.11319e-05 6.50287e-05 5.093e-20 3.96823e-05 -3.27179e-20 -8.55038e-06)
(-1.70988e-05 6.26246e-05 -3.71993e-19 2.33036e-05 3.60098e-20 -6.20479e-06)
(-4.99311e-06 5.80188e-05 3.35784e-21 8.8509e-06 -5.63397e-20 -3.85779e-06)
(3.6338e-06 4.19112e-05 -1.67748e-19 -2.03058e-06 1.68737e-20 -1.60322e-06)
(9.17462e-06 3.89725e-05 4.21819e-20 -8.28342e-06 1.23576e-20 -8.91197e-07)
(1.2997e-05 3.78308e-05 -1.31996e-20 -1.22505e-05 -5.56638e-20 -7.46434e-07)
(1.44821e-05 3.72372e-05 -2.76898e-21 -1.37623e-05 -2.59641e-22 -7.19863e-07)
(1.47276e-05 3.89802e-05 6.52256e-21 -1.41594e-05 1.59977e-22 -5.68213e-07)
(1.50905e-05 4.33187e-05 6.65331e-20 -1.47212e-05 -2.26519e-20 -3.69276e-07)
(0.000102728 0.000315834 3.39922e-19 -0.00010085 5.47696e-19 -1.8774e-06)
(0.000630328 0.00200354 -5.85145e-19 -0.00061897 1.20893e-18 -1.13587e-05)
(0.00342217 0.0106013 -3.53817e-17 -0.00336692 1.14954e-17 -5.52476e-05)
(0.000749561 0.00203159 -1.08376e-17 -0.000741649 -7.30517e-18 -7.91226e-06)
(0.0136681 0.0235357 -9.23029e-17 -0.0135831 1.0201e-16 -8.50661e-05)
(0.0322966 -0.0499633 6.48875e-16 -0.0319757 -7.43864e-16 -0.000320867)
(0.000206326 -0.000126629 -1.3e-20 -0.000206073 -1.90252e-20 -2.5312e-07)
(0.000221507 -9.01457e-05 4.62528e-21 -0.000221021 1.27761e-21 -4.85375e-07)
(0.000229939 -4.55184e-05 1.2398e-20 -0.000230081 1.25918e-20 1.4169e-07)
(0.000228572 2.66999e-06 -1.11714e-20 -0.0002286 -5.19315e-20 2.77053e-08)
(0.000147374 -0.000131417 -5.84064e-21 -0.000147571 -5.50011e-21 1.97339e-07)
(0.000124516 -0.000154214 1.67081e-22 -0.000125117 -1.48063e-21 6.01321e-07)
(9.46633e-05 -0.000174373 4.14445e-20 -9.51769e-05 4.51987e-20 5.13587e-07)
(6.05169e-05 -0.000188434 1.6233e-21 -6.12772e-05 -8.7239e-22 7.60301e-07)
(2.41931e-05 -0.000194892 -1.42919e-19 -2.51766e-05 -1.51802e-19 9.83455e-07)
(-1.36275e-05 -0.000193275 3.28421e-20 1.2498e-05 3.87102e-20 1.12959e-06)
(-4.99328e-05 -0.000183401 3.2057e-20 4.85039e-05 1.98549e-20 1.42895e-06)
(-8.23752e-05 -0.000165934 -7.42299e-20 8.05891e-05 -1.08077e-19 1.78609e-06)
(-0.000109455 -0.000142037 -1.1091e-19 0.00010733 -6.5442e-20 2.12522e-06)
(-0.000129683 -0.00011369 4.20834e-20 0.00012709 5.5415e-20 2.59281e-06)
(-0.000142474 -8.27895e-05 -2.52053e-19 0.000139354 -2.08582e-19 3.11978e-06)
(-0.000147818 -5.12644e-05 1.6785e-19 0.000144114 1.06856e-19 3.70468e-06)
(-0.000146232 -2.10474e-05 3.41091e-19 0.00014184 1.93342e-19 4.39242e-06)
(-0.000138686 6.5206e-06 4.39601e-19 0.000133533 1.65659e-19 5.15301e-06)
(-0.000126322 3.03981e-05 -5.8792e-19 0.000120323 -4.40357e-19 5.99967e-06)
(-0.000110476 5.00203e-05 3.16238e-19 0.000103483 2.41787e-19 6.99276e-06)
(-9.2708e-05 6.48377e-05 3.38245e-19 8.50177e-05 7.81712e-20 7.6903e-06)
(-7.44864e-05 7.43454e-05 2.15735e-19 6.67368e-05 -4.70243e-20 7.74959e-06)
(-5.67357e-05 7.87595e-05 1.10171e-19 4.95508e-05 5.87599e-20 7.18482e-06)
(-4.0545e-05 7.88283e-05 -1.44375e-20 3.43474e-05 8.07307e-20 6.19764e-06)
(-2.6613e-05 7.58799e-05 1.09933e-19 2.16982e-05 -1.81325e-20 4.91472e-06)
(-1.48527e-05 7.13463e-05 3.66128e-19 1.12749e-05 1.54168e-19 3.57784e-06)
(-4.10352e-06 6.79359e-05 -1.58005e-19 1.59057e-06 -2.12961e-20 2.51295e-06)
(6.9416e-06 5.96374e-05 4.12384e-19 -8.66608e-06 9.71825e-20 1.72448e-06)
(1.44032e-05 4.35363e-05 -5.76981e-20 -1.55008e-05 2.24775e-21 1.09764e-06)
(1.70502e-05 2.95031e-05 -1.9393e-20 -1.77235e-05 1.34973e-20 6.73281e-07)
(1.61929e-05 1.95207e-05 4.95089e-21 -1.66297e-05 2.14436e-21 4.36832e-07)
(1.53596e-05 1.50591e-05 -1.76395e-20 -1.57618e-05 7.49349e-21 4.02212e-07)
(1.47799e-05 1.36594e-05 -4.25983e-20 -1.52057e-05 -2.4355e-20 4.25783e-07)
(1.44154e-05 1.44361e-05 -3.75178e-21 -1.48056e-05 2.93395e-20 3.90235e-07)
(1.44373e-05 1.75882e-05 2.66402e-21 -1.47417e-05 -2.09961e-20 3.04403e-07)
(1.49822e-05 2.34831e-05 1.54795e-19 -1.51717e-05 1.21803e-19 1.89517e-07)
(0.000113928 0.000222424 -1.75458e-18 -0.000114387 1.6484e-18 4.59413e-07)
(0.00359587 0.00783148 -1.64252e-17 -0.00359285 1.01278e-17 -3.02166e-06)
(0.00291204 0.0058427 -3.80147e-17 -0.00291882 1.47748e-18 6.78224e-06)
(0.000165498 -0.000104416 1.85118e-21 -0.000166032 6.08346e-21 5.3387e-07)
(0.000178238 -7.57514e-05 2.82461e-20 -0.000178351 2.4961e-20 1.12872e-07)
(0.000185937 -4.06945e-05 -2.81916e-20 -0.000186314 -1.01532e-20 3.76932e-07)
(0.000186051 -2.52145e-06 6.96958e-20 -0.000186163 6.73276e-20 1.12432e-07)
(0.000121489 -0.00010985 -2.61492e-22 -0.000121307 -7.60167e-22 -1.82099e-07)
(0.000103208 -0.000128531 -1.83375e-21 -0.000103203 -1.50081e-21 -5.19956e-09)
(7.93068e-05 -0.000145313 -5.40666e-21 -7.91154e-05 -4.81165e-21 -1.91379e-07)
(5.19066e-05 -0.000157458 -2.98911e-20 -5.17435e-05 -2.75682e-20 -1.63093e-07)
(2.26717e-05 -0.000163766 3.70022e-20 -2.24709e-05 4.13612e-20 -2.00813e-07)
(-8.10803e-06 -0.000163866 1.93461e-19 8.42773e-06 1.63695e-19 -3.19701e-07)
(-3.80685e-05 -0.000157519 -1.16696e-20 3.84528e-05 -3.19166e-20 -3.84281e-07)
(-6.53868e-05 -0.000145087 -8.46907e-20 6.58717e-05 -7.00796e-20 -4.84967e-07)
(-8.89603e-05 -0.000127306 2.23846e-19 8.9622e-05 2.05917e-19 -6.61711e-07)
(-0.000107463 -0.00010559 9.01127e-20 0.000108291 5.69578e-20 -8.27906e-07)
(-0.000120241 -8.13165e-05 -7.34013e-20 0.000121302 -1.25263e-20 -1.06156e-06)
(-0.000127147 -5.59479e-05 -2.73565e-19 0.000128498 -1.32807e-19 -1.3504e-06)
(-0.000128365 -3.10416e-05 -5.13251e-19 0.000130033 -3.90799e-19 -1.6679e-06)
(-0.000124465 -7.80962e-06 -5.90985e-19 0.000126524 -3.53037e-19 -2.05906e-06)
(-0.000116292 1.27659e-05 -3.34023e-20 0.000118804 1.34953e-19 -2.51231e-06)
(-0.000104885 2.992e-05 2.94246e-20 0.000107924 -6.38583e-20 -3.03916e-06)
(-9.11358e-05 4.32509e-05 -4.43098e-19 9.47478e-05 -2.03423e-19 -3.61194e-06)
(-7.58293e-05 5.28199e-05 -2.88285e-19 7.96994e-05 -1.24185e-19 -3.87011e-06)
(-6.00108e-05 5.88586e-05 7.35352e-20 6.37899e-05 6.73598e-21 -3.77906e-06)
(-4.48518e-05 6.17757e-05 3.06187e-19 4.82135e-05 4.11995e-20 -3.36173e-06)
(-3.10886e-05 6.22393e-05 -1.28566e-19 3.38363e-05 -5.32577e-20 -2.7477e-06)
(-1.9077e-05 6.11043e-05 -7.98785e-20 2.11491e-05 -1.50494e-19 -2.07213e-06)
(-8.21981e-06 5.92431e-05 1.51817e-20 9.65359e-06 5.60807e-21 -1.43378e-06)
(2.44316e-06 5.66808e-05 -1.41762e-19 -1.56146e-06 -1.37536e-19 -8.81692e-07)
(1.25287e-05 5.06279e-05 1.02036e-19 -1.20136e-05 2.19343e-20 -5.15083e-07)
(1.94509e-05 4.03689e-05 3.29421e-20 -1.9045e-05 -2.35845e-20 -4.05872e-07)
(2.12753e-05 2.83891e-05 1.33884e-21 -2.08918e-05 -9.10691e-21 -3.83491e-07)
(1.90696e-05 1.79848e-05 3.16365e-20 -1.87958e-05 9.54465e-21 -2.73801e-07)
(1.5928e-05 1.0861e-05 1.78395e-20 -1.57918e-05 1.30107e-20 -1.36148e-07)
(1.28278e-05 6.16704e-06 1.25344e-19 -1.27687e-05 6.69196e-21 -5.90694e-08)
(1.23143e-05 4.21533e-06 -5.24652e-20 -1.22836e-05 5.99196e-20 -3.07004e-08)
(1.19299e-05 3.79394e-06 1.31068e-19 -1.19303e-05 -1.76725e-19 3.61609e-10)
(1.19099e-05 5.78718e-06 3.15071e-19 -1.19363e-05 1.93563e-19 2.63838e-08)
(1.26015e-05 1.12028e-05 -6.68099e-21 -1.26048e-05 1.51861e-19 3.30057e-09)
(0.000553996 0.000781293 4.95686e-18 -0.000554137 -2.268e-18 1.41556e-07)
(0.000135994 -8.80026e-05 -4.84431e-21 -0.000136137 -7.45095e-21 1.42797e-07)
(0.000146334 -6.48443e-05 -1.52512e-20 -0.000146262 -1.06644e-20 -7.19903e-08)
(0.00015289 -3.66112e-05 2.37003e-20 -0.000153093 8.92248e-21 2.03453e-07)
(0.000153599 -5.71471e-06 -9.81546e-20 -0.000153614 -7.1689e-20 1.53759e-08)
(0.000100425 -9.25806e-05 -9.23309e-21 -0.00010038 -6.74462e-21 -4.49089e-08)
(8.53481e-05 -0.000107944 -2.91098e-20 -8.54719e-05 -2.61262e-20 1.23828e-07)
(6.57064e-05 -0.000121835 -6.70307e-21 -6.57377e-05 -6.72509e-21 3.13578e-08)
(4.31743e-05 -0.000132024 9.97984e-20 -4.32836e-05 8.75874e-20 1.09299e-07)
(1.91524e-05 -0.000137568 -6.66524e-20 -1.92933e-05 -5.91476e-20 1.40899e-07)
(-6.30386e-06 -0.000138168 -7.02081e-20 6.17355e-06 -7.30982e-20 1.30304e-07)
(-3.1313e-05 -0.000133549 -1.72708e-19 3.11214e-05 -1.25347e-19 1.9156e-07)
(-5.44464e-05 -0.000123914 -1.18195e-19 5.41892e-05 -8.23756e-20 2.5725e-07)
(-7.481e-05 -0.000109743 1.30399e-19 7.45256e-05 8.50709e-20 2.84415e-07)
(-9.12691e-05 -9.20399e-05 3.60547e-20 9.08951e-05 -1.69517e-21 3.73937e-07)
(-0.000103215 -7.18033e-05 5.63068e-20 0.000102756 6.35067e-20 4.59407e-07)
(-0.000110356 -5.01442e-05 5.07978e-19 0.000109803 3.0903e-19 5.53419e-07)
(-0.000112647 -2.83315e-05 -1.73611e-19 0.000111955 -1.94163e-20 6.91748e-07)
(-0.00011037 -7.40905e-06 3.80914e-19 0.000109528 3.28503e-19 8.42268e-07)
(-0.000104077 1.17011e-05 5.07883e-20 0.000103048 3.91608e-20 1.02957e-06)
(-9.4471e-05 2.82095e-05 -8.98627e-20 9.31966e-05 -4.38096e-20 1.27444e-06)
(-8.2374e-05 4.17092e-05 2.70925e-19 8.07799e-05 1.86697e-19 1.59407e-06)
(-6.88486e-05 5.17387e-05 1.03127e-19 6.70112e-05 7.4995e-20 1.83741e-06)
(-5.48456e-05 5.81687e-05 4.94639e-20 5.30049e-05 -2.46525e-20 1.84073e-06)
(-4.12928e-05 6.12505e-05 -1.8067e-19 3.96237e-05 -1.57757e-19 1.66905e-06)
(-2.88462e-05 6.16182e-05 -2.09985e-21 2.74997e-05 4.03117e-21 1.34651e-06)
(-1.78078e-05 6.01478e-05 -1.0132e-19 1.68258e-05 3.5506e-21 9.81964e-07)
(-7.79059e-06 5.75134e-05 -1.48858e-19 7.11998e-06 -8.1744e-21 6.7061e-07)
(1.69382e-06 5.38469e-05 3.92144e-20 -2.19002e-06 5.06634e-20 4.96201e-07)
(1.0426e-05 4.85269e-05 -6.82003e-21 -1.08152e-05 -4.23339e-20 3.89241e-07)
(1.71895e-05 4.12144e-05 -1.18113e-19 -1.74148e-05 3.91787e-21 2.25356e-07)
(2.10447e-05 3.32117e-05 -1.14663e-20 -2.10962e-05 4.24471e-21 5.145e-08)
(2.20626e-05 2.5521e-05 3.5815e-21 -2.20537e-05 -8.63884e-21 -8.91725e-09)
(2.15246e-05 1.88161e-05 -2.44111e-20 -2.15479e-05 4.29318e-21 2.33572e-08)
(1.83151e-05 1.16202e-05 2.79991e-20 -1.83485e-05 -1.42002e-19 3.34249e-08)
(1.50562e-05 6.12131e-06 1.66795e-19 -1.50696e-05 -3.24256e-20 1.33966e-08)
(1.12081e-05 2.08824e-06 -2.7834e-19 -1.12122e-05 -1.21436e-20 4.06697e-09)
(1.05717e-05 -6.35047e-08 3.1967e-19 -1.05864e-05 -1.77384e-19 1.4679e-08)
(1.01748e-05 -8.88988e-07 3.11958e-19 -1.01918e-05 -4.22954e-21 1.69855e-08)
(1.02514e-05 1.12452e-06 -3.70709e-19 -1.02814e-05 5.51521e-20 3.00769e-08)
(0.000112439 -7.47736e-05 5.95573e-21 -0.000112598 7.88154e-21 1.58454e-07)
(0.000121139 -5.58783e-05 4.48132e-20 -0.000121115 3.0328e-20 -2.38211e-08)
(0.000126915 -3.28601e-05 -2.87348e-20 -0.000127098 -3.1916e-20 1.82746e-07)
(1.64274e-05 -0.000116919 4.18178e-20 -1.64347e-05 3.67742e-20 7.24184e-09)
(-4.79068e-06 -0.000117889 5.93796e-20 4.82387e-06 4.97111e-20 -3.31941e-08)
(-2.57743e-05 -0.000114632 2.51055e-19 2.57943e-05 1.93038e-19 -1.99817e-08)
(-4.54006e-05 -0.000107268 -4.26514e-20 4.54278e-05 -3.26472e-20 -2.72469e-08)
(-6.2985e-05 -9.61253e-05 8.76575e-20 6.30456e-05 4.21685e-20 -6.0572e-08)
(-7.75823e-05 -8.19269e-05 -1.73351e-19 7.76521e-05 -1.00347e-19 -6.98146e-08)
(-8.86352e-05 -6.54151e-05 1.28584e-19 8.87377e-05 7.11103e-20 -1.02544e-07)
(-9.58332e-05 -4.74401e-05 -3.21099e-19 9.59893e-05 -2.51023e-19 -1.56097e-07)
(-9.90438e-05 -2.89843e-05 1.12597e-20 9.92486e-05 3.39853e-20 -2.04782e-07)
(-9.83848e-05 -1.09118e-05 5.1372e-20 9.86572e-05 -2.77582e-20 -2.72411e-07)
(-9.41838e-05 5.92574e-06 8.5721e-20 9.45459e-05 1.71488e-20 -3.62051e-07)
(-8.69634e-05 2.081e-05 1.39852e-20 8.74265e-05 1.21727e-20 -4.63094e-07)
(-7.73945e-05 3.32249e-05 -1.03641e-19 7.80017e-05 -9.67111e-20 -6.07152e-07)
(-6.61826e-05 4.27965e-05 -1.99867e-19 6.69167e-05 -6.29882e-20 -7.34054e-07)
(-5.40122e-05 4.94635e-05 -1.71869e-19 5.48219e-05 -5.02733e-20 -8.0973e-07)
(-4.17314e-05 5.33708e-05 -1.25544e-19 4.25134e-05 3.44708e-20 -7.81961e-07)
(-3.0004e-05 5.49561e-05 -7.96884e-20 3.0678e-05 -8.45412e-21 -6.73955e-07)
(-1.9248e-05 5.47397e-05 -8.53901e-21 1.97678e-05 3.71896e-20 -5.19821e-07)
(-9.3567e-06 5.31664e-05 9.76743e-20 9.71752e-06 6.16897e-20 -3.60823e-07)
(-1.16302e-07 5.01393e-05 -6.99668e-21 3.03459e-07 -3.85597e-20 -1.87158e-07)
(8.12566e-06 4.52657e-05 -5.28041e-20 -8.06573e-06 -8.13507e-21 -5.99371e-08)
(1.44348e-05 3.87116e-05 9.17948e-20 -1.43814e-05 2.71381e-20 -5.34788e-08)
(1.81779e-05 3.17092e-05 1.21504e-20 -1.8074e-05 4.42567e-21 -1.03889e-07)
(1.97845e-05 2.55178e-05 1.44888e-20 -1.96853e-05 -1.49359e-20 -9.92457e-08)
(2.03467e-05 2.04799e-05 1.00558e-20 -2.0309e-05 -4.89062e-21 -3.77854e-08)
(2.0481e-05 1.60814e-05 -2.42295e-19 -2.04829e-05 8.14938e-20 1.84543e-09)
(2.01243e-05 1.17854e-05 -2.03582e-19 -2.01227e-05 -5.87289e-20 -1.5469e-09)
(1.66314e-05 6.45924e-06 1.31074e-19 -1.66209e-05 2.69083e-19 -1.05761e-08)
(1.16458e-05 2.03134e-06 -1.68054e-19 -1.16426e-05 -2.03429e-19 -3.18983e-09)
(9.82876e-06 -6.81081e-07 4.45317e-20 -9.82217e-06 -1.21474e-19 -6.59244e-09)
(9.20161e-06 -2.85148e-06 1.96476e-19 -9.22081e-06 4.27599e-20 1.92029e-08)