/*--------------------------------*- C++ -*----------------------------------*\
| =========                 |                                                 |
| \\      /  F ield         | OpenFOAM: The Open Source CFD Toolbox           |
|  \\    /   O peration     | Version:  2506                                  |
|   \\  /    A nd           | Website:  www.openfoam.com                      |
|    \\/     M anipulation  |                                                 |
\*---------------------------------------------------------------------------*/
FoamFile
{
    version     2.0;
    format      ascii;
    arch        "LSB;label=32;scalar=64";
    class       volScalarField;
    location    "50";
    object      div(phi);
}
// * * * * * * * * * * * * * * * * * * * * * * * * * * * * * * * * * * * * * //

dimensions      [0 0 -1 0 0 0 0];

internalField   nonuniform List<scalar> 
1340
(
-0.00021467
-0.000646699
9.16182e-05
-0.000442902
9.61829e-05
-0.000291923
-0.000326329
8.14286e-05
-0.000216431
-0.000433832
-3.09081e-06
-2.51853e-05
-0.000348281
-0.00048039
0.000433046
-0.00047227
0.000136478
-0.000224345
-0.000256374
-5.0107e-05
-2.32761e-05
-0.000562986
0.00055996
-3.38248e-05
-0.000311376
4.72806e-05
-1.50072e-05
-0.000271213
-0.000284062
0.000234855
-0.00028602
5.83527e-05
-0.000181976
0.000196751
-0.000176212
-0.000190893
-1.72026e-05
4.32718e-05
-0.000299393
0.000164009
8.21266e-05
5.17082e-05
-0.000224464
6.66132e-05
1.32885e-05
-0.000208791
-0.000186956
0.000265486
-8.21546e-05
-0.000113667
0.000231099
-0.000126871
0.000178883
-0.000108593
-0.000141925
1.17273e-05
6.38191e-05
-0.000217363
0.000202382
0.000133476
-0.000199277
0.000111726
0.000115432
-0.00012745
8.09989e-05
2.0684e-05
-0.000143431
-0.000141763
0.000247014
-3.304e-05
-7.23554e-06
0.000155366
-5.1981e-05
-1.09747e-06
0.000173685
-6.41141e-05
-8.67202e-05
1.83741e-05
7.71234e-05
-0.000155305
0.000183029
0.00015937
-7.28297e-05
1.33683e-05
8.76022e-06
0.000122749
-6.87143e-05
7.72427e-05
3.23427e-05
-9.36676e-05
-9.17584e-05
0.0002142
-1.06157e-06
7.38584e-06
0.000172799
4.39956e-05
3.05341e-05
2.02921e-05
0.000139503
-2.11494e-05
-5.30694e-05
2.39991e-05
7.85593e-05
-0.000110849
0.000162728
0.000174906
-3.86265e-05
9.25527e-05
7.34813e-05
6.43423e-05
0.000132269
-1.53077e-05
7.09322e-05
3.34344e-05
-4.95358e-05
-6.86134e-05
0.000189819
2.35121e-05
1.57011e-05
0.000221534
8.79609e-05
6.87345e-05
0.000154036
6.64999e-05
0.000118597
7.39132e-06
-2.06807e-05
1.89073e-05
8.21418e-05
-7.18458e-05
0.000148351
0.000205392
-2.76807e-06
0.00012812
0.000139521
-6.73949e-05
0.000462731
0.000120141
1.89318e-05
6.17535e-05
3.6246e-05
-1.50221e-05
-3.89567e-05
0.000166732
5.34582e-05
2.44789e-05
0.000241061
0.000116652
4.71375e-05
0.000227845
-0.000184032
7.57904e-05
8.89019e-05
3.10781e-05
-1.06542e-06
1.96111e-05
8.35354e-05
-3.48379e-05
0.00013344
0.000210434
2.87083e-05
0.000120227
0.000146179
-8.17921e-05
0.000264409
0.000112191
4.41564e-05
4.80102e-05
3.71562e-05
1.27683e-05
-1.86557e-05
0.000145021
7.26194e-05
4.14401e-05
0.000212934
0.000111903
3.485e-05
0.000157681
-0.000242965
0.000175138
7.92807e-05
6.41343e-05
4.71761e-05
1.45801e-05
1.47323e-05
8.19439e-05
1.58914e-07
0.000119028
0.000186416
4.81854e-05
0.000104879
0.000101185
-7.42607e-05
8.14163e-05
-0.000175057
9.43134e-05
5.98836e-05
3.6906e-05
3.49364e-05
3.34051e-05
3.479e-06
0.000119867
8.3869e-05
5.41046e-05
0.000166762
9.14879e-05
1.89432e-05
8.25712e-05
-0.000151806
0.000126532
8.12882e-05
4.10867e-05
5.55831e-05
2.33666e-05
1.49938e-05
7.64164e-05
3.10497e-05
0.000100085
0.000151208
6.03185e-05
7.50562e-05
6.1968e-05
-8.07654e-05
7.86064e-05
-0.00011228
0.000361646
8.97686e-05
6.90984e-05
2.30494e-05
3.45786e-05
4.58085e-05
1.98789e-05
9.18116e-05
8.8668e-05
6.25107e-05
0.000119058
7.13008e-05
-3.38943e-06
4.56315e-05
-0.000113808
0.000158279
1.91995e-06
7.85792e-05
2.38954e-05
6.07761e-05
2.81994e-05
9.95333e-06
6.68826e-05
5.24712e-05
8.01564e-05
0.000117036
6.65751e-05
5.04221e-05
3.98409e-05
-7.44296e-05
7.17141e-05
-3.61194e-05
0.000249649
8.92209e-05
4.99251e-05
7.21361e-05
1.56803e-05
2.88345e-05
5.39876e-05
2.97235e-05
6.63619e-05
8.88173e-05
6.6032e-05
8.02254e-05
5.65753e-05
-1.01449e-05
2.83334e-05
-6.53632e-05
0.000125875
2.05692e-05
0.000318469
9.29162e-05
5.27678e-05
1.09765e-05
6.0192e-05
3.07328e-05
8.20252e-06
5.7072e-05
6.77871e-05
6.12389e-05
8.78238e-05
6.88905e-05
3.51777e-05
2.77334e-05
-4.99577e-05
3.80899e-05
7.01885e-06
0.000122155
7.19755e-05
3.71071e-05
3.88372e-05
7.00757e-05
6.15268e-06
2.7954e-05
5.57103e-05
3.67457e-05
4.24726e-05
8.55586e-05
6.47669e-05
5.14929e-05
4.67858e-05
-8.33772e-06
1.3387e-05
-2.73797e-05
7.02462e-05
6.12123e-05
0.000134051
8.07867e-05
4.9184e-05
9.90156e-07
6.07248e-05
3.03753e-05
2.83452e-06
4.5857e-05
7.31575e-05
4.41481e-05
6.48913e-05
6.88639e-05
2.49739e-05
2.07285e-05
-2.89296e-05
7.97819e-06
2.35496e-05
8.36875e-05
7.86504e-05
0.000228332
3.89527e-05
3.30081e-05
6.98246e-05
3.10668e-06
2.16922e-05
5.64009e-05
3.61642e-05
2.4398e-05
7.97261e-05
6.1789e-05
3.05905e-05
3.99214e-05
-4.70543e-06
-2.61171e-07
6.15612e-07
2.02367e-05
6.32749e-05
0.000104772
8.65922e-05
7.78948e-05
4.35453e-05
-4.03684e-06
5.6991e-05
2.97691e-05
2.61226e-07
3.67145e-05
7.5743e-05
3.02596e-05
4.6451e-05
6.55359e-05
1.8371e-05
1.33364e-05
-1.08964e-05
-2.31133e-05
3.37997e-05
4.47933e-05
8.54281e-05
0.000151553
2.16107e-05
2.7906e-05
6.55381e-05
-2.89949e-06
2.08256e-05
5.25826e-05
3.68358e-05
8.73873e-06
7.21006e-05
5.54405e-05
1.54548e-05
3.29683e-05
-2.28274e-06
-1.4256e-05
1.76291e-05
-1.04405e-05
6.44406e-05
9.59221e-05
0.00010454
6.85952e-05
4.08237e-05
-9.05141e-06
5.51028e-05
2.68077e-05
-4.16329e-06
2.7357e-05
7.12898e-05
1.82764e-05
3.2237e-05
6.04581e-05
1.18442e-05
7.83924e-06
-1.98377e-06
-3.89994e-05
3.94884e-05
2.22559e-05
0.000116784
0.000131781
2.61152e-05
2.42734e-05
6.28673e-05
-3.86463e-06
1.5015e-05
4.94877e-05
3.12261e-05
-1.45623e-06
6.36139e-05
4.94405e-05
4.74737e-06
2.7457e-05
-1.70068e-06
-2.2666e-05
2.44407e-05
-3.16048e-05
7.41329e-05
4.44583e-05
8.91473e-05
0.00026655
6.49728e-05
3.50834e-05
-1.08445e-05
4.95342e-05
2.4533e-05
-6.37695e-06
2.06212e-05
6.71853e-05
9.86009e-06
2.1498e-05
5.39538e-05
7.85058e-06
2.33627e-06
2.97933e-06
-5.27498e-05
4.0084e-05
-1.90315e-05
9.08626e-05
7.53884e-05
7.73437e-05
1.13857e-05
2.02401e-05
5.66855e-05
-7.83295e-06
1.40383e-05
4.34981e-05
2.92293e-05
-9.62262e-06
5.51638e-05
4.20644e-05
-1.87427e-06
2.18552e-05
-2.02959e-06
-2.91749e-05
2.43596e-05
-4.92958e-05
5.11481e-05
-8.85941e-06
8.71779e-05
6.15697e-05
5.56761e-05
3.19912e-05
-1.33976e-05
4.60047e-05
2.06335e-05
-9.17662e-06
1.4109e-05
5.8974e-05
3.12728e-06
1.40256e-05
4.72534e-05
3.84397e-06
-7.13058e-07
2.43031e-06
-5.63751e-05
2.76615e-05
-4.43669e-05
6.00616e-05
-1.51258e-05
7.42548e-05
1.61498e-05
1.72613e-05
5.24353e-05
-7.71883e-06
9.24527e-06
3.91222e-05
2.25924e-05
-1.36214e-05
4.70079e-05
3.59967e-05
-5.86522e-06
1.76852e-05
-3.21478e-06
-3.04935e-05
1.78861e-05
-5.7749e-05
2.6292e-05
-4.09422e-05
4.83348e-05
-1.57235e-05
5.1289e-05
2.65726e-05
-1.34565e-05
3.9931e-05
1.79995e-05
-1.03119e-05
9.9559e-06
5.25245e-05
-8.11439e-07
8.65952e-06
4.00166e-05
1.62337e-06
-3.62817e-06
1.23666e-06
-5.83647e-05
1.42677e-05
-4.97245e-05
2.6448e-05
-2.85441e-05
1.93077e-05
3.12402e-05
4.39676e-06
1.39965e-05
4.57204e-05
-1.00429e-05
8.46629e-06
3.30678e-05
2.00686e-05
-1.65237e-05
3.93018e-05
2.90165e-05
-7.91732e-06
1.31973e-05
-4.31888e-06
-3.10048e-05
1.12667e-05
-5.63979e-05
9.20493e-06
-3.87336e-05
8.96182e-06
1.0116e-05
1.1519e-05
4.2804e-05
2.36387e-05
-1.43794e-05
3.58764e-05
1.43592e-05
-1.14549e-05
5.98533e-06
4.37182e-05
-4.14807e-06
4.94234e-06
3.29916e-05
-9.0751e-07
-4.79392e-06
-1.49765e-06
-5.26419e-05
5.24673e-06
-4.46979e-05
1.35377e-06
-1.66088e-05
-2.79227e-06
4.97269e-05
8.98852e-06
1.16547e-05
4.10513e-05
-9.23506e-06
4.95045e-06
2.88031e-05
1.41888e-05
-1.69162e-05
3.2188e-05
2.34108e-05
-8.80555e-06
1.00504e-05
-5.36634e-06
-2.80531e-05
5.90625e-06
-5.05681e-05
-2.40222e-06
-2.87135e-05
-6.39812e-06
2.56356e-05
-8.82054e-06
3.84903e-05
1.90435e-05
-1.34798e-05
3.0267e-05
1.20548e-05
-1.15765e-05
3.79337e-06
3.71528e-05
-5.56633e-06
2.46126e-06
2.64752e-05
-1.86101e-06
-5.65475e-06
-2.5622e-06
-4.76063e-05
3.27426e-07
-3.71816e-05
-5.38095e-06
-1.61185e-06
-1.93632e-06
5.21381e-05
1.30861e-07
9.13931e-06
3.4808e-05
-1.03448e-05
4.46716e-06
2.36726e-05
1.20651e-05
-1.68691e-05
2.59749e-05
1.78214e-05
-8.55117e-06
7.16882e-06
-5.63958e-06
-2.54956e-05
3.05501e-06
-4.25575e-05
-3.72233e-06
-1.66832e-05
-2.09702e-06
2.61514e-05
-4.52853e-06
6.79637e-05
3.13525e-05
1.65668e-05
-1.34193e-05
2.64524e-05
9.1747e-06
-1.15033e-05
1.72687e-06
2.96278e-05
-6.71915e-06
1.01172e-06
2.10094e-05
-2.83551e-06
-5.31337e-06
-3.55892e-06
-3.92821e-05
-6.62205e-07
-2.64672e-05
-3.28903e-06
5.89385e-06
4.00384e-06
2.82687e-05
6.59142e-06
4.22435e-06
7.38534e-06
3.04843e-05
-9.16878e-06
2.1523e-06
2.02093e-05
7.73153e-06
-1.54418e-05
2.06703e-05
1.3835e-05
-7.8226e-06
5.49687e-06
-5.57084e-06
-2.12966e-05
1.99373e-06
-3.39129e-05
-1.98696e-06
-8.21699e-06
9.67014e-08
2.37002e-05
5.05556e-06
2.77444e-05
2.75705e-05
1.29407e-05
-1.20885e-05
2.18163e-05
7.51275e-06
-1.08405e-05
8.78497e-07
2.43748e-05
-6.59922e-06
1.75339e-07
1.64938e-05
-2.71411e-06
-5.00831e-06
-2.84676e-06
-3.32101e-05
9.82212e-07
-1.97656e-05
1.58145e-06
1.07662e-05
5.51709e-06
2.51772e-05
4.69986e-07
-2.16497e-06
5.54352e-06
2.52244e-05
-9.42621e-06
2.00846e-06
1.635e-05
6.44175e-06
-1.40678e-05
1.63032e-05
1.02021e-05
-6.77965e-06
3.96285e-06
-4.90753e-06
-1.83346e-05
2.88581e-06
-2.71133e-05
2.75504e-06
-2.04221e-06
6.77395e-06
2.14867e-05
8.91329e-06
2.37455e-05
2.19851e-05
1.10048e-05
-1.15035e-05
1.86361e-05
5.51513e-06
-1.00059e-05
-8.35153e-09
1.88932e-05
-6.59749e-06
-3.15546e-07
1.29689e-05
-2.84327e-06
-4.19905e-06
-2.14205e-06
-2.6673e-05
3.5846e-06
-1.3361e-05
7.56645e-06
1.18984e-05
1.34407e-05
2.19188e-05
7.09622e-06
1.27715e-06
4.30391e-06
2.15982e-05
-8.12574e-06
6.40778e-07
1.38002e-05
3.68328e-06
-1.2191e-05
1.27171e-05
7.81738e-06
-5.86593e-06
3.17429e-06
-4.23155e-06
-1.49841e-05
3.54304e-06
-2.15229e-05
5.95349e-06
-2.59462e-07
1.36011e-05
1.72063e-05
1.96988e-05
1.53576e-05
1.88624e-05
8.3198e-06
-1.00682e-05
1.50622e-05
4.46605e-06
-8.95096e-06
-1.97808e-07
1.52574e-05
-5.91408e-06
-6.46903e-07
1.01797e-05
-2.43164e-06
-3.70631e-06
-1.32357e-06
-2.24467e-05
4.5486e-06
-1.09131e-05
1.04932e-05
8.73915e-06
1.99277e-05
1.64389e-05
1.60645e-05
1.19416e-05
-3.12307e-06
3.01314e-06
1.74419e-05
-7.87273e-06
7.00888e-07
1.10714e-05
3.11083e-06
-1.06213e-05
9.81573e-06
5.67627e-06
-4.99736e-06
2.31798e-06
-3.68616e-06
-1.26167e-05
3.26351e-06
-1.73237e-05
6.64195e-06
-4.81451e-07
1.48054e-05
1.12807e-05
2.2058e-05
1.11567e-05
8.99246e-06
1.46844e-05
6.8603e-06
-9.26937e-06
1.25655e-05
3.1913e-06
-7.83145e-06
-5.15262e-07
1.15517e-05
-5.52939e-06
-9.30432e-07
7.90135e-06
-2.47837e-06
-2.96132e-06
-1.46043e-06
-1.75017e-05
4.17949e-06
-8.05383e-06
9.79295e-06
4.41603e-06
1.85716e-05
8.43492e-06
1.59314e-05
3.59343e-06
-5.21887e-07
2.12984e-06
1.45526e-05
-6.679e-06
-6.42315e-08
9.27582e-06
1.48852e-06
-8.95298e-06
7.351e-06
4.15955e-06
-4.42386e-06
1.72462e-06
-3.47105e-06
-9.7805e-06
2.68729e-06
-1.28922e-05
5.9105e-06
-1.5505e-06
1.31263e-05
4.04273e-06
1.90827e-05
5.52127e-06
8.43822e-06
1.21368e-05
4.91498e-06
-7.98875e-06
9.93857e-06
2.56076e-06
-6.70861e-06
-4.53035e-07
9.01784e-06
-4.88508e-06
-1.2591e-06
5.82962e-06
-2.38652e-06
-2.4945e-06
-1.22207e-06
-1.33307e-05
3.96757e-06
-6.33635e-06
8.99577e-06
2.49491e-07
1.72112e-05
3.56452e-06
1.27858e-05
3.15085e-08
-3.56391e-06
1.17672e-06
1.13699e-05
-6.14921e-06
8.02174e-08
7.3461e-06
1.21259e-06
-7.65946e-06
5.26893e-06
2.58063e-06
-4.03258e-06
8.99022e-07
-3.14418e-06
-7.54836e-06
2.79375e-06
-9.53735e-06
6.29953e-06
-2.88166e-06
1.32001e-05
1.66644e-06
1.40401e-05
2.5028e-06
7.95625e-06
8.89276e-06
3.79651e-06
-7.08382e-06
8.00282e-06
1.80837e-06
-5.66242e-06
-5.76338e-07
6.45748e-06
-4.579e-06
-1.57353e-06
4.02175e-06
-2.47695e-06
-2.11064e-06
-7.68906e-07
-1.01313e-05
4.73035e-06
-5.55971e-06
9.72157e-06
-7.72768e-08
1.1569e-05
2.45487e-06
7.26785e-06
-1.65141e-06
-1.68805e-06
5.33306e-07
9.05437e-06
-5.05079e-06
-4.49811e-07
6.01582e-06
2.36538e-07
-6.3598e-06
3.75884e-06
1.5131e-06
-3.81056e-06
3.25284e-07
-2.75246e-06
-6.06683e-06
2.95228e-06
-7.92159e-06
6.30874e-06
-2.23593e-06
8.9182e-06
2.36028e-06
6.07851e-06
7.37415e-07
3.35917e-06
6.73683e-06
2.12708e-06
-6.38836e-06
5.81634e-06
1.08074e-06
-5.01029e-06
-4.0869e-07
5.17495e-06
-3.9823e-06
-1.87982e-06
2.67145e-06
-2.37055e-06
-1.95638e-06
-7.48663e-07
-8.62849e-06
3.34877e-06
-4.81822e-06
6.43395e-06
1.00169e-06
5.69805e-06
1.2302e-06
5.21595e-06
-2.56097e-07
1.82957e-06
-3.95622e-06
3.06626e-07
7.04172e-06
-4.92763e-06
1.27507e-08
5.21292e-06
3.14054e-07
-5.44669e-06
2.65631e-06
1.24172e-06
-2.97781e-06
-1.6901e-09
-2.8345e-06
-5.19115e-06
1.15308e-06
-6.87407e-06
3.1355e-06
-1.50283e-06
5.27587e-06
2.83348e-06
4.86706e-06
-1.79922e-06
4.6448e-06
-1.50687e-06
4.75169e-06
-1.3043e-07
-5.71094e-06
5.18043e-06
-5.80606e-08
-4.20355e-06
-1.52487e-07
4.1699e-06
-2.94137e-06
-1.98143e-06
1.5191e-06
-2.31771e-06
-1.37156e-06
-1.42778e-06
-6.51568e-06
5.37948e-07
-3.70462e-06
3.713e-06
1.87454e-06
3.32179e-06
9.66873e-07
5.06882e-06
-2.66229e-06
4.90627e-06
-3.49017e-06
1.52428e-06
6.48608e-06
-5.62798e-06
4.79969e-07
5.15983e-06
2.05362e-07
-4.38783e-06
1.30025e-06
8.76069e-07
-2.14441e-06
-4.06724e-08
-2.42542e-06
-3.24713e-06
-1.04285e-06
-5.08434e-06
3.78813e-07
-1.23574e-06
3.76708e-06
5.24561e-06
3.17163e-06
-3.80365e-06
4.87036e-06
-7.15573e-07
4.66149e-06
-5.24781e-07
-5.53111e-06
4.82521e-06
3.7675e-07
-3.41512e-06
-1.99511e-07
3.21744e-06
-1.95359e-06
-1.56215e-06
5.65286e-07
-1.88177e-06
-6.6249e-07
-1.95242e-06
-3.82953e-06
-1.99275e-06
-2.50339e-06
1.58498e-06
2.39954e-06
1.38518e-06
9.89122e-07
2.47756e-06
-2.46244e-06
4.05297e-06
-2.99222e-06
4.6498e-07
4.51957e-06
-4.02448e-06
7.14425e-08
3.66523e-06
7.26163e-07
-3.14864e-06
7.217e-07
4.92523e-08
-1.76203e-06
5.29477e-10
-2.06096e-06
-1.21427e-06
-2.90152e-06
-2.31946e-06
-1.76673e-06
-1.14696e-07
4.61823e-07
3.9876e-06
-7.38937e-08
-2.7644e-06
5.07475e-07
-8.45294e-09
2.83125e-06
2.13737e-07
-4.15384e-06
3.13121e-06
6.98425e-07
-2.0398e-06
-3.54249e-07
1.91456e-06
-1.67892e-06
-1.08537e-06
-1.5362e-07
-1.69861e-06
4.67614e-07
-2.78155e-06
-8.38434e-07
-4.04221e-06
-5.34064e-07
-1.51061e-06
3.53552e-06
-1.53378e-06
1.89978e-06
-3.28397e-06
-8.2478e-07
7.32738e-07
-1.67808e-06
-3.98102e-07
2.95563e-06
-2.6291e-06
-3.17308e-07
2.38897e-06
4.34372e-07
-2.18778e-06
2.0877e-07
-9.05057e-07
-1.38084e-06
1.69824e-07
-2.0733e-06
8.79341e-07
-4.59515e-06
2.2521e-07
-3.83039e-06
2.7699e-06
-3.63192e-06
5.91225e-06
-3.96385e-06
3.00421e-07
-3.45264e-06
4.64354e-06
1.54849e-06
2.72706e-07
-2.84205e-06
1.71804e-06
7.2805e-07
-1.2201e-06
-3.64541e-07
8.69403e-07
-1.48631e-06
-4.52553e-07
-9.73139e-07
-1.37608e-06
1.3985e-06
-3.66776e-06
1.41628e-06
-5.27507e-06
2.72271e-06
-6.1545e-06
6.37167e-06
-2.61841e-06
3.36498e-06
-6.46273e-06
3.42345e-06
-4.04428e-06
-1.69548e-06
-8.51875e-07
1.63158e-06
-1.58135e-06
-3.4436e-07
1.18764e-06
2.65269e-07
-1.10375e-06
1.73811e-08
-1.65632e-06
-5.67094e-07
2.67851e-07
-2.37307e-06
1.98685e-06
-5.54895e-06
3.11821e-06
-7.28175e-06
5.56817e-06
-2.50287e-06
5.52165e-06
-6.05561e-06
1.62815e-06
-6.69913e-06
1.08265e-05
6.31678e-07
3.10461e-07
-1.81736e-06
7.05275e-07
3.06251e-07
-5.29916e-07
-6.60138e-08
3.03222e-08
-1.11561e-06
2.43922e-07
-1.61185e-06
-1.20613e-06
1.63401e-06
-4.32189e-06
3.9699e-06
-7.68684e-06
5.37389e-06
-2.98423e-06
6.72716e-06
-4.36707e-06
1.98332e-06
-8.97568e-06
2.16319e-06
-3.08483e-06
1.17514e-05
-1.37554e-06
-1.05216e-06
3.95216e-07
-9.18908e-07
-4.0868e-07
2.69913e-07
2.53379e-08
-7.33883e-08
-2.16781e-07
-1.82614e-06
6.03163e-07
-2.76384e-07
-3.11857e-06
3.13945e-06
-8.67892e-06
6.16806e-06
-2.66161e-06
7.95596e-06
-4.53148e-06
4.72131e-06
-1.13897e-05
1.09932e-06
-6.33249e-06
2.85725e-06
1.4809e-06
-1.71815e-07
-1.38745e-07
-8.394e-07
-1.47736e-07
-1.51151e-07
2.17225e-07
-8.48097e-08
-1.95875e-08
1.6322e-07
2.5176e-07
-2.66038e-06
-1.20352e-06
4.24188e-07
-8.44357e-06
6.28572e-06
-2.4084e-06
9.03278e-06
-4.64389e-06
7.37303e-06
-1.21125e-05
3.93021e-06
-1.35691e-05
4.03539e-06
-7.20834e-06
1.19768e-05
-2.52435e-06
-6.90105e-07
-4.96636e-08
-2.2909e-07
4.41494e-07
-6.59149e-07
1.00852e-06
1.91344e-06
-1.46317e-06
-3.47539e-07
1.92977e-06
1.60901e-06
-2.75201e-06
5.94085e-06
-4.66151e-07
1.04978e-05
-3.9773e-07
1.10127e-05
-8.23407e-06
1.0307e-05
-9.11738e-06
1.03482e-05
-7.87891e-06
9.33747e-06
-2.52822e-06
-2.0251e-08
-1.36806e-07
-7.95421e-08
3.46678e-07
-4.51954e-07
8.21313e-07
1.81667e-06
-9.92148e-07
1.43504e-06
2.28784e-06
4.10575e-06
3.07959e-06
5.33061e-06
2.89612e-06
9.4239e-06
4.97229e-06
1.12415e-05
2.16956e-07
1.42911e-05
2.86196e-06
1.91477e-05
1.66291e-06
2.23588e-05
2.49447e-06
2.87694e-05
-8.46134e-07
-1.56475e-08
7.77935e-08
-8.96066e-08
1.86861e-07
5.36348e-07
-9.00984e-08
6.52082e-07
7.2577e-07
1.25971e-06
2.51325e-06
2.01032e-06
1.89212e-06
3.54124e-06
3.20105e-06
4.64567e-06
2.44095e-06
7.10673e-06
5.18191e-06
1.13955e-05
8.06903e-06
1.80393e-05
1.42413e-05
2.2e-05
1.87921e-05
)
;

boundaryField
{
    inlet
    {
        type            extrapolatedCalculated;
        value           nonuniform List<scalar> 
25
(
-8.46134e-07
-1.56475e-08
7.77935e-08
-8.96066e-08
1.86861e-07
5.36348e-07
-9.00984e-08
6.52082e-07
7.2577e-07
1.25971e-06
2.51325e-06
2.01032e-06
1.89212e-06
3.54124e-06
3.20105e-06
4.64567e-06
2.44095e-06
7.10673e-06
5.18191e-06
1.13955e-05
8.06903e-06
1.80393e-05
1.42413e-05
2.2e-05
1.87921e-05
)
;
    }
    outlet
    {
        type            extrapolatedCalculated;
        value           nonuniform List<scalar> 0();
    }
    walls
    {
        type            extrapolatedCalculated;
        value           nonuniform List<scalar> 0();
    }
    frontAndBack
    {
        type            empty;
    }
    procBoundary4to0
    {
        type            processor;
        value           nonuniform List<scalar> 
72
(
-0.000192828
-0.000681097
-0.000431665
-0.00040227
-0.000142711
-0.000253871
1.67928e-05
-4.06659e-05
7.67127e-05
-1.12217e-05
0.000113216
7.01047e-05
0.000115527
8.01421e-05
0.000118142
0.000103372
0.000100531
0.000105621
9.11438e-05
9.31738e-05
7.53241e-05
0.000101005
0.000101005
8.78641e-05
5.86436e-05
8.84588e-05
4.91238e-05
6.76026e-05
3.91313e-05
7.36182e-05
3.38353e-05
5.39477e-05
2.60377e-05
5.90446e-05
2.20259e-05
4.10585e-05
1.60152e-05
4.49269e-05
1.32415e-05
2.97104e-05
8.90504e-06
3.26315e-05
7.17343e-06
2.05156e-05
4.26121e-06
2.27623e-05
3.27777e-06
1.35822e-05
1.46113e-06
1.51897e-05
8.54713e-07
8.42827e-06
-4.68887e-07
9.23836e-06
-1.00104e-06
4.11284e-06
-1.31377e-06
3.5915e-06
-9.25648e-07
1.26086e-06
-1.05883e-06
2.0329e-06
-1.35456e-06
7.97842e-07
-1.6335e-06
8.28162e-07
-1.9436e-06
-1.07199e-07
-2.87772e-06
5.82296e-07
-3.16638e-06
-6.43006e-07
)
;
    }
    procBoundary4to5
    {
        type            processor;
        value           nonuniform List<scalar> 
95
(
-0.000243313
0.000129021
-0.000367476
-0.000241257
-0.000241257
-0.000442483
-0.000295332
-0.000295332
-0.000630203
-0.000849047
-0.000849047
-0.000488362
-0.000488362
-7.41444e-05
-0.000374825
-0.000374825
-0.000364283
-0.000364283
-0.00018923
-3.78498e-05
-3.78498e-05
-1.04796e-05
7.10783e-05
7.10783e-05
0.000163128
-0.000119351
-0.000119351
-0.000161591
0.00029474
-0.000344069
-0.000344069
-0.000237862
0.000155053
-0.000109701
-0.000109701
5.30021e-07
0.000344453
2.76562e-06
2.76562e-06
6.01912e-05
0.000186184
0.000104966
0.000104966
0.000115033
0.00019244
8.8836e-05
0.000224747
8.95409e-05
8.95409e-05
9.42366e-05
0.000196579
0.00013254
3.33499e-05
5.55642e-05
5.55642e-05
4.15057e-05
6.65141e-05
3.93099e-06
7.24826e-05
-1.22779e-05
-1.22779e-05
6.595e-06
3.15091e-05
3.51486e-06
2.81621e-05
2.77807e-06
2.21064e-05
1.58304e-05
1.58304e-05
7.52566e-06
1.0761e-05
1.15939e-05
6.74234e-06
1.03452e-05
2.70321e-06
7.84338e-06
3.00273e-06
3.00273e-06
9.43637e-07
3.00848e-06
1.63699e-07
4.91576e-06
1.66618e-06
2.75041e-06
3.39966e-06
-1.10866e-06
1.03391e-05
-7.22903e-06
-7.22903e-06
-1.09149e-06
7.62785e-06
4.67868e-07
1.26296e-05
9.55403e-06
4.6643e-05
)
;
    }
}


// ************************************************************************* //
