/*--------------------------------*- C++ -*----------------------------------*\
| =========                 |                                                 |
| \\      /  F ield         | OpenFOAM: The Open Source CFD Toolbox           |
|  \\    /   O peration     | Version:  2506                                  |
|   \\  /    A nd           | Website:  www.openfoam.com                      |
|    \\/     M anipulation  |                                                 |
\*---------------------------------------------------------------------------*/
FoamFile
{
    version     2.0;
    format      ascii;
    arch        "LSB;label=32;scalar=64";
    class       volScalarField;
    location    "50";
    object      magR;
}
// * * * * * * * * * * * * * * * * * * * * * * * * * * * * * * * * * * * * * //

dimensions      [0 2 -2 0 0 0 0];

internalField   nonuniform List<scalar> 
1340
(
0.000492031
0.000494733
0.000495784
0.000416089
0.000418948
0.000420485
0.000421266
0.000421033
0.000354173
0.000357018
0.000358813
0.000360136
0.000360717
0.000360168
0.00035839
0.000303138
0.000305882
0.000307773
0.000309359
0.000310431
0.000310661
0.000309891
0.000308113
0.000260719
0.000263306
0.000265198
0.000266911
0.000268265
0.000268947
0.000268924
0.000268011
0.000266274
0.000225184
0.000227598
0.000229423
0.000231163
0.000232662
0.000233623
0.000234042
0.000233796
0.000232838
0.000195223
0.000197447
0.000199177
0.000200889
0.00020243
0.000203554
0.000204259
0.000204471
0.000204061
0.000203099
0.000169806
0.000171839
0.000173459
0.0001751
0.000176627
0.000177826
0.000178712
0.000179197
0.000179239
0.000178726
0.000177766
0.000148126
0.000149973
0.00015148
0.000153022
0.000154503
0.000155717
0.000156697
0.000157371
0.000157688
0.000157582
0.000157049
0.000129539
0.000131221
0.000132602
0.000134046
0.00013545
0.000136649
0.000137666
0.000138451
0.000138948
0.000139134
0.00013889
0.000138366
0.000113539
0.000115064
0.000116327
0.000117661
0.000118981
0.000120134
0.000121158
0.000121998
0.000122612
0.000122974
0.000123024
0.000122765
9.97163e-05
0.000101092
0.00010224
0.000103465
0.000104695
0.000105789
0.000106793
0.000107653
0.000108334
0.000108814
0.000109065
0.000109005
0.000108776
8.77268e-05
8.89687e-05
9.00048e-05
9.11282e-05
9.22652e-05
9.32958e-05
9.42617e-05
9.51165e-05
9.58289e-05
9.63827e-05
9.67482e-05
9.68978e-05
9.683e-05
7.7298e-05
7.84156e-05
7.93503e-05
8.03773e-05
8.14231e-05
8.23854e-05
8.33019e-05
8.41355e-05
8.48535e-05
8.54495e-05
8.58918e-05
8.61812e-05
8.62434e-05
8.62238e-05
6.82026e-05
6.9208e-05
7.00514e-05
7.09832e-05
7.19429e-05
7.28348e-05
7.36975e-05
7.44945e-05
7.52028e-05
7.58128e-05
7.63024e-05
7.66658e-05
7.68673e-05
7.69531e-05
6.02528e-05
6.11545e-05
6.19146e-05
6.27586e-05
6.36353e-05
6.44572e-05
6.52633e-05
6.60198e-05
6.67026e-05
6.73108e-05
6.78219e-05
6.82325e-05
6.8523e-05
6.86841e-05
5.32888e-05
5.40956e-05
5.47762e-05
5.55401e-05
5.63384e-05
5.70944e-05
5.78414e-05
5.85526e-05
5.92033e-05
5.97961e-05
6.0311e-05
6.07451e-05
6.10976e-05
6.13109e-05
6.15036e-05
4.71759e-05
4.78941e-05
4.85013e-05
4.91924e-05
4.99183e-05
5.06103e-05
5.13018e-05
5.19638e-05
5.2577e-05
5.3145e-05
5.36518e-05
5.4095e-05
5.44724e-05
5.47544e-05
5.49867e-05
4.17984e-05
4.24324e-05
4.2974e-05
4.36004e-05
4.4262e-05
4.48934e-05
4.55296e-05
4.61415e-05
4.67158e-05
4.72529e-05
4.77421e-05
4.81808e-05
4.85693e-05
4.88902e-05
4.91428e-05
3.70568e-05
3.7616e-05
3.81019e-05
3.86697e-05
3.92701e-05
3.98455e-05
4.0428e-05
4.09909e-05
4.15225e-05
4.20268e-05
4.24919e-05
4.29197e-05
4.33057e-05
4.36512e-05
4.39138e-05
4.41902e-05
3.2871e-05
3.33643e-05
3.38031e-05
3.43179e-05
3.4861e-05
3.53833e-05
3.59135e-05
3.64296e-05
3.69197e-05
3.73886e-05
3.78262e-05
3.82351e-05
3.86122e-05
3.8957e-05
3.92497e-05
3.95266e-05
2.91745e-05
2.96092e-05
3.00058e-05
3.04716e-05
3.09612e-05
3.14329e-05
3.19151e-05
3.23858e-05
3.28342e-05
3.32677e-05
3.36757e-05
3.40613e-05
3.44235e-05
3.47595e-05
3.50637e-05
3.53313e-05
2.55512e-05
2.59079e-05
2.62921e-05
2.66465e-05
2.70664e-05
2.75078e-05
2.79328e-05
2.83687e-05
2.87968e-05
2.92061e-05
2.96035e-05
2.99807e-05
3.03408e-05
3.06838e-05
3.10057e-05
3.13118e-05
3.15663e-05
3.18461e-05
2.2696e-05
2.30143e-05
2.33546e-05
2.36722e-05
2.405e-05
2.44465e-05
2.48292e-05
2.52233e-05
2.56102e-05
2.59816e-05
2.63447e-05
2.66908e-05
2.70239e-05
2.73445e-05
2.76489e-05
2.79404e-05
2.8204e-05
2.84662e-05
2.01663e-05
2.04491e-05
2.07525e-05
2.10363e-05
2.13755e-05
2.17322e-05
2.20756e-05
2.24301e-05
2.27795e-05
2.31159e-05
2.34443e-05
2.37602e-05
2.40657e-05
2.43622e-05
2.46469e-05
2.49209e-05
2.51787e-05
2.54195e-05
1.7923e-05
1.81755e-05
1.84452e-05
1.86993e-05
1.90038e-05
1.93227e-05
1.96307e-05
1.99494e-05
2.02631e-05
2.05653e-05
2.08627e-05
2.11488e-05
2.14271e-05
2.16985e-05
2.19606e-05
2.22146e-05
2.24637e-05
2.26798e-05
2.29175e-05
1.59329e-05
1.61582e-05
1.63987e-05
1.66255e-05
1.68982e-05
1.7184e-05
1.74594e-05
1.77444e-05
1.80259e-05
1.82969e-05
1.85637e-05
1.88215e-05
1.90726e-05
1.93189e-05
1.95587e-05
1.9792e-05
2.00194e-05
2.02304e-05
2.04474e-05
1.41661e-05
1.43673e-05
1.45815e-05
1.47844e-05
1.50284e-05
1.52835e-05
1.55296e-05
1.57849e-05
1.60355e-05
1.62777e-05
1.65169e-05
1.67476e-05
1.69731e-05
1.71946e-05
1.74106e-05
1.76225e-05
1.78288e-05
1.80237e-05
1.82227e-05
1.25967e-05
1.27767e-05
1.29677e-05
1.31485e-05
1.33668e-05
1.35948e-05
1.3814e-05
1.40414e-05
1.42653e-05
1.44812e-05
1.46937e-05
1.48992e-05
1.51e-05
1.52979e-05
1.54914e-05
1.56804e-05
1.58659e-05
1.60415e-05
1.62172e-05
1.1203e-05
1.13632e-05
1.15331e-05
1.16947e-05
1.18899e-05
1.20929e-05
1.22884e-05
1.24913e-05
1.26901e-05
1.28813e-05
1.30703e-05
1.32524e-05
1.34304e-05
1.36055e-05
1.37762e-05
1.39437e-05
1.41073e-05
1.42639e-05
1.44149e-05
9.96446e-06
1.01068e-05
1.02578e-05
1.04019e-05
1.05761e-05
1.07575e-05
1.09314e-05
1.11115e-05
1.12883e-05
1.14579e-05
1.16247e-05
1.17855e-05
1.19421e-05
1.2096e-05
1.2246e-05
1.23922e-05
1.25343e-05
1.26739e-05
1.27982e-05
1.29264e-05
8.86385e-06
8.98987e-06
9.12355e-06
9.25231e-06
9.4075e-06
9.56885e-06
9.72366e-06
9.88429e-06
1.00407e-05
1.01905e-05
1.03381e-05
1.04791e-05
1.06164e-05
1.07507e-05
1.08809e-05
1.10077e-05
1.11299e-05
1.12483e-05
1.13565e-05
1.14631e-05
7.88514e-06
7.99654e-06
8.11484e-06
8.22923e-06
8.36747e-06
8.51142e-06
8.64909e-06
8.79141e-06
8.93053e-06
9.06291e-06
9.19235e-06
9.31618e-06
9.43576e-06
9.55248e-06
9.66495e-06
9.77314e-06
9.8772e-06
9.97491e-06
1.0066e-05
1.01522e-05
7.01481e-06
7.11276e-06
7.21714e-06
7.31903e-06
7.44212e-06
7.56982e-06
7.6925e-06
7.81934e-06
7.94212e-06
8.05899e-06
8.17334e-06
8.28139e-06
8.38544e-06
8.48608e-06
8.58205e-06
8.67401e-06
8.76056e-06
8.84139e-06
8.91403e-06
8.97888e-06
6.23987e-06
6.32611e-06
6.41838e-06
6.50868e-06
6.61822e-06
6.73203e-06
6.84097e-06
6.9534e-06
7.06271e-06
7.16604e-06
7.26623e-06
7.36085e-06
7.45097e-06
7.53758e-06
7.61931e-06
7.6963e-06
7.76745e-06
7.8321e-06
7.88811e-06
7.93406e-06
5.54957e-06
5.6256e-06
5.7071e-06
5.78752e-06
5.8848e-06
5.98575e-06
6.08286e-06
6.18306e-06
6.27973e-06
6.37104e-06
6.45966e-06
6.54222e-06
6.62052e-06
6.69465e-06
6.76357e-06
6.8275e-06
6.88486e-06
6.93509e-06
6.97693e-06
7.00421e-06
7.02321e-06
4.93409e-06
5.00152e-06
5.07379e-06
5.14523e-06
5.23172e-06
5.32173e-06
5.40796e-06
5.49692e-06
5.58313e-06
5.66409e-06
5.74189e-06
5.81446e-06
5.8822e-06
5.94594e-06
6.00405e-06
6.05642e-06
6.1019e-06
6.13935e-06
6.1674e-06
6.1822e-06
6.18634e-06
4.38547e-06
4.44529e-06
4.50953e-06
4.57338e-06
4.65033e-06
4.73024e-06
4.80723e-06
4.88666e-06
4.96295e-06
5.03472e-06
5.10382e-06
5.16733e-06
5.22649e-06
5.28114e-06
5.32994e-06
5.37291e-06
5.40834e-06
5.4356e-06
5.4519e-06
5.45557e-06
5.44729e-06
3.8962e-06
3.94961e-06
4.00694e-06
4.06392e-06
4.13254e-06
4.20394e-06
4.2725e-06
4.34311e-06
4.41134e-06
4.47519e-06
4.53612e-06
4.59229e-06
4.64385e-06
4.69111e-06
4.73247e-06
4.76748e-06
4.7949e-06
4.81326e-06
4.82095e-06
4.81517e-06
4.79537e-06
3.46036e-06
3.50803e-06
3.55916e-06
3.61034e-06
3.67157e-06
3.73519e-06
3.79668e-06
3.85992e-06
3.92059e-06
3.9775e-06
4.0318e-06
4.08124e-06
4.12662e-06
4.16751e-06
4.20264e-06
4.23151e-06
4.25253e-06
4.26424e-06
4.265e-06
4.25143e-06
4.22416e-06
3.07245e-06
3.1149e-06
3.16051e-06
3.2063e-06
3.26107e-06
3.31823e-06
3.37332e-06
3.42997e-06
3.4846e-06
3.53544e-06
3.58357e-06
3.62753e-06
3.66738e-06
3.70316e-06
3.73337e-06
3.7572e-06
3.77344e-06
3.78011e-06
3.77609e-06
3.75715e-06
3.72406e-06
3.65827e-06
2.72772e-06
2.76504e-06
2.80554e-06
2.84666e-06
2.89567e-06
2.94693e-06
2.9968e-06
3.048e-06
3.09701e-06
3.14271e-06
3.18596e-06
3.22494e-06
3.26031e-06
3.29158e-06
3.31762e-06
3.33779e-06
3.35048e-06
3.35406e-06
3.34659e-06
3.3249e-06
3.28841e-06
3.22201e-06
2.42131e-06
2.45388e-06
2.48963e-06
2.52635e-06
2.57033e-06
2.61665e-06
2.66182e-06
2.70821e-06
2.75291e-06
2.79434e-06
2.83319e-06
2.86826e-06
2.89964e-06
2.92731e-06
2.95008e-06
2.96721e-06
2.97745e-06
2.97899e-06
2.97013e-06
2.94758e-06
2.91015e-06
2.84532e-06
2.14911e-06
2.17715e-06
2.20838e-06
2.24124e-06
2.28064e-06
2.32245e-06
2.36378e-06
2.40629e-06
2.44711e-06
2.48512e-06
2.52068e-06
2.5524e-06
2.58074e-06
2.60534e-06
2.62537e-06
2.64029e-06
2.64873e-06
2.64921e-06
2.63991e-06
2.61794e-06
2.58169e-06
2.51976e-06
1.90707e-06
1.93091e-06
1.95802e-06
1.98719e-06
2.02255e-06
2.06056e-06
2.0984e-06
2.13749e-06
2.17543e-06
2.21067e-06
2.24349e-06
2.27287e-06
2.29875e-06
2.32115e-06
2.33918e-06
2.35233e-06
2.35961e-06
2.3596e-06
2.35083e-06
2.33022e-06
2.29659e-06
2.23911e-06
1.69157e-06
1.71143e-06
1.73478e-06
1.76072e-06
1.79244e-06
1.82697e-06
1.86193e-06
1.89821e-06
1.93349e-06
1.96665e-06
1.99761e-06
2.02516e-06
2.04953e-06
2.07036e-06
2.08705e-06
2.09922e-06
2.10585e-06
2.10593e-06
2.09796e-06
2.0797e-06
2.04928e-06
1.99785e-06
1.4991e-06
1.51555e-06
1.53553e-06
1.55845e-06
1.58702e-06
1.61855e-06
1.65082e-06
1.68456e-06
1.71787e-06
1.74932e-06
1.77877e-06
1.80531e-06
1.82873e-06
1.8489e-06
1.86507e-06
1.87683e-06
1.88348e-06
1.88408e-06
1.87744e-06
1.86173e-06
1.83487e-06
1.79078e-06
1.32706e-06
1.34055e-06
1.35752e-06
1.3778e-06
1.40348e-06
1.43218e-06
1.46214e-06
1.49371e-06
1.5251e-06
1.55521e-06
1.58367e-06
1.6095e-06
1.63269e-06
1.65276e-06
1.66911e-06
1.68132e-06
1.6886e-06
1.69024e-06
1.68519e-06
1.67228e-06
1.64921e-06
1.61214e-06
1.55111e-06
1.17311e-06
1.1841e-06
1.1985e-06
1.21634e-06
1.23945e-06
1.26562e-06
1.29331e-06
1.32284e-06
1.3527e-06
1.38156e-06
1.40911e-06
1.43463e-06
1.45783e-06
1.47838e-06
1.4955e-06
1.50867e-06
1.51722e-06
1.52046e-06
1.51756e-06
1.50745e-06
1.48846e-06
1.45731e-06
1.40778e-06
1.03523e-06
1.04406e-06
1.05628e-06
1.07206e-06
1.09283e-06
1.1166e-06
1.14228e-06
1.16996e-06
1.19823e-06
1.22599e-06
1.25278e-06
1.27796e-06
1.30137e-06
1.32248e-06
1.34062e-06
1.35524e-06
1.36552e-06
1.37087e-06
1.37054e-06
1.36376e-06
1.34908e-06
1.32392e-06
1.284e-06
9.11724e-07
9.18871e-07
9.29251e-07
9.43184e-07
9.6191e-07
9.83522e-07
1.00725e-06
1.03319e-06
1.0601e-06
1.08668e-06
1.1126e-06
1.13744e-06
1.16086e-06
1.1825e-06
1.20168e-06
1.21778e-06
1.23007e-06
1.23788e-06
1.24055e-06
1.23731e-06
1.22716e-06
1.20803e-06
1.17691e-06
8.01648e-07
8.07433e-07
8.16271e-07
8.28639e-07
8.45441e-07
8.65023e-07
8.87047e-07
9.11354e-07
9.36812e-07
9.62176e-07
9.87139e-07
1.01135e-06
1.03461e-06
1.05645e-06
1.07642e-06
1.09393e-06
1.10822e-06
1.11864e-06
1.12448e-06
1.12509e-06
1.11946e-06
1.1061e-06
1.08297e-06
7.03918e-07
7.08631e-07
7.16263e-07
7.27304e-07
7.42414e-07
7.60223e-07
7.80626e-07
8.03349e-07
8.27433e-07
8.51313e-07
8.75063e-07
8.98505e-07
9.21212e-07
9.42987e-07
9.63461e-07
9.82127e-07
9.98296e-07
1.01127e-06
1.02029e-06
1.02466e-06
1.02345e-06
1.01575e-06
9.99826e-07
6.17096e-07
6.20903e-07
6.27652e-07
6.37795e-07
6.5146e-07
6.6787e-07
6.86941e-07
7.08138e-07
7.30739e-07
7.52926e-07
7.75409e-07
7.9786e-07
8.19733e-07
8.41031e-07
8.61758e-07
8.8139e-07
8.99208e-07
9.14515e-07
9.26546e-07
9.34432e-07
9.37578e-07
9.34934e-07
9.25379e-07
5.39981e-07
5.43086e-07
5.49066e-07
5.58549e-07
5.71066e-07
5.86574e-07
6.04395e-07
6.24234e-07
6.45482e-07
6.6566e-07
6.86968e-07
7.08584e-07
7.29261e-07
7.4973e-07
7.70389e-07
7.9071e-07
8.09904e-07
8.27244e-07
8.41876e-07
8.53073e-07
8.60162e-07
8.61719e-07
8.57692e-07
4.7218e-07
4.74609e-07
4.79836e-07
4.887e-07
5.00147e-07
5.15005e-07
5.31448e-07
5.503e-07
5.69984e-07
5.87869e-07
6.08796e-07
6.29979e-07
6.49255e-07
6.68428e-07
6.88636e-07
7.09267e-07
7.29435e-07
7.48349e-07
7.65128e-07
7.78932e-07
7.88686e-07
7.9362e-07
7.94341e-07
7.92052e-07
4.13163e-07
4.14816e-07
4.19224e-07
4.27354e-07
4.37738e-07
4.52014e-07
4.66707e-07
4.85297e-07
5.02136e-07
5.18548e-07
5.4119e-07
5.61956e-07
5.78901e-07
5.96501e-07
6.15881e-07
6.36209e-07
6.56812e-07
6.76833e-07
6.95167e-07
7.10557e-07
7.2238e-07
7.29675e-07
7.33488e-07
7.35495e-07
3.61879e-07
3.6262e-07
3.66208e-07
3.73622e-07
3.82971e-07
3.96561e-07
4.09308e-07
4.28238e-07
4.39748e-07
4.58244e-07
4.83889e-07
5.02969e-07
5.16317e-07
5.32541e-07
5.51298e-07
5.70902e-07
5.9137e-07
6.12131e-07
6.31495e-07
6.48117e-07
6.61324e-07
6.70505e-07
6.76065e-07
6.79593e-07
3.19021e-07
3.18887e-07
3.21762e-07
3.28324e-07
3.36768e-07
3.49216e-07
3.59609e-07
3.77724e-07
3.82466e-07
4.04519e-07
4.29785e-07
4.47689e-07
4.59728e-07
4.7699e-07
4.96926e-07
5.16942e-07
5.38048e-07
5.60199e-07
5.81614e-07
6.00642e-07
6.16276e-07
6.28239e-07
6.36411e-07
6.42097e-07
2.85865e-07
2.84396e-07
2.85727e-07
2.90523e-07
2.9743e-07
3.07686e-07
3.15855e-07
3.31042e-07
3.31816e-07
3.52624e-07
3.76325e-07
3.95969e-07
4.09393e-07
4.28287e-07
4.49745e-07
4.70544e-07
4.92068e-07
5.15001e-07
5.37754e-07
5.58493e-07
5.76252e-07
5.90484e-07
6.01678e-07
6.10706e-07
2.57632e-07
2.54881e-07
2.5443e-07
2.57173e-07
2.62183e-07
2.69995e-07
2.76377e-07
2.88459e-07
2.88078e-07
3.04624e-07
3.26416e-07
3.47158e-07
3.62655e-07
3.82635e-07
4.0509e-07
4.26536e-07
4.48025e-07
4.70727e-07
4.9368e-07
5.15024e-07
5.3369e-07
5.49003e-07
5.61897e-07
5.72803e-07
2.30021e-07
2.26439e-07
2.24698e-07
2.25794e-07
2.29215e-07
2.34954e-07
2.40181e-07
2.49533e-07
2.48951e-07
2.60691e-07
2.80173e-07
3.01256e-07
3.19319e-07
3.40704e-07
3.64406e-07
3.86929e-07
4.08734e-07
4.31258e-07
4.54165e-07
4.76044e-07
4.95474e-07
5.12083e-07
5.26279e-07
5.38188e-07
2.0365e-07
1.99528e-07
1.96819e-07
1.96589e-07
1.98627e-07
2.02512e-07
2.06842e-07
2.13574e-07
2.1308e-07
2.19958e-07
2.37e-07
2.57611e-07
2.78434e-07
3.0174e-07
3.26847e-07
3.50575e-07
3.72761e-07
3.94834e-07
4.17198e-07
4.38946e-07
4.58695e-07
4.76399e-07
4.92177e-07
5.05755e-07
1.7849e-07
1.74351e-07
1.71235e-07
1.70134e-07
1.70981e-07
1.73159e-07
1.76461e-07
1.80419e-07
1.79842e-07
1.82301e-07
1.96884e-07
2.16577e-07
2.39999e-07
2.6534e-07
2.9182e-07
3.16629e-07
3.39167e-07
3.60669e-07
3.82142e-07
4.03179e-07
4.23044e-07
4.41569e-07
4.58239e-07
4.72974e-07
1.54909e-07
1.51329e-07
1.48408e-07
1.46908e-07
1.46773e-07
1.47372e-07
1.49218e-07
1.50235e-07
1.49115e-07
1.47916e-07
1.60184e-07
1.78816e-07
2.0427e-07
2.31317e-07
2.58714e-07
2.84246e-07
3.06945e-07
3.2778e-07
3.48162e-07
3.68532e-07
3.88794e-07
4.08658e-07
4.27652e-07
4.45238e-07
1.33439e-07
1.30872e-07
1.28638e-07
1.27082e-07
1.26102e-07
1.25233e-07
1.25115e-07
1.23241e-07
1.21108e-07
1.17115e-07
1.27364e-07
1.4494e-07
1.71631e-07
1.99576e-07
2.27068e-07
2.52599e-07
2.75257e-07
2.95614e-07
3.14991e-07
3.34499e-07
3.54233e-07
3.73399e-07
3.91456e-07
4.07851e-07
4.22062e-07
1.13727e-07
1.12353e-07
1.11082e-07
1.09752e-07
1.08133e-07
1.05985e-07
1.03625e-07
9.93668e-08
9.58445e-08
8.96993e-08
9.85472e-08
1.15106e-07
1.42348e-07
1.70367e-07
1.96983e-07
2.21975e-07
2.44802e-07
2.65461e-07
2.85355e-07
3.05923e-07
3.27718e-07
3.50751e-07
3.74549e-07
3.98232e-07
4.18914e-07
9.55834e-08
9.58147e-08
9.57219e-08
9.47001e-08
9.24763e-08
8.90806e-08
8.44706e-08
7.84526e-08
7.30245e-08
6.5244e-08
7.34102e-08
8.88297e-08
1.15891e-07
1.43232e-07
1.68694e-07
1.92961e-07
2.15526e-07
2.36254e-07
2.5622e-07
2.76312e-07
2.96459e-07
3.15529e-07
3.32723e-07
3.49499e-07
3.67513e-07
8.0519e-08
8.3103e-08
8.42582e-08
8.3013e-08
7.94383e-08
7.39862e-08
6.695e-08
5.95097e-08
5.20945e-08
4.40513e-08
5.14266e-08
6.538e-08
9.10274e-08
1.17196e-07
1.42571e-07
1.68346e-07
1.94103e-07
2.19209e-07
2.44039e-07
2.69754e-07
2.97669e-07
3.28964e-07
3.63862e-07
3.99298e-07
4.29619e-07
7.1251e-08
7.6382e-08
7.83954e-08
7.62787e-08
7.04443e-08
6.16824e-08
5.12123e-08
4.12382e-08
3.2061e-08
2.62353e-08
3.28965e-08
4.53812e-08
6.8056e-08
9.1076e-08
1.13925e-07
1.38402e-07
1.64688e-07
1.92553e-07
2.22231e-07
2.53609e-07
2.85587e-07
3.1672e-07
3.46399e-07
3.74912e-07
4.02753e-07
6.7751e-08
7.42682e-08
7.64463e-08
7.3585e-08
6.60037e-08
5.4506e-08
4.06959e-08
2.65624e-08
1.38126e-08
1.01407e-08
1.22996e-08
2.26396e-08
4.48723e-08
7.35562e-08
1.08275e-07
1.49217e-07
1.95883e-07
2.47322e-07
3.0231e-07
3.59536e-07
4.16964e-07
4.71489e-07
5.18469e-07
5.54215e-07
5.84414e-07
)
;

boundaryField
{
    inlet
    {
        type            calculated;
        value           nonuniform List<scalar> 
25
(
6.91562e-08
7.58028e-08
7.79804e-08
7.50747e-08
6.71969e-08
5.5054e-08
4.02517e-08
2.44982e-08
9.57189e-09
8.20474e-09
1.56749e-08
3.30882e-08
7.00932e-08
1.27359e-07
2.05965e-07
3.07415e-07
4.32825e-07
5.82312e-07
7.55044e-07
9.4907e-07
1.16073e-06
1.38302e-06
1.60555e-06
1.81484e-06
2.00464e-06
)
;
    }
    outlet
    {
        type            calculated;
        value           nonuniform List<scalar> 0();
    }
    walls
    {
        type            calculated;
        value           nonuniform List<scalar> 0();
    }
    frontAndBack
    {
        type            empty;
    }
    procBoundary4to0
    {
        type            processor;
        value           nonuniform List<scalar> 
72
(
0.000489224
0.000413309
0.000351518
0.00030067
0.000258466
0.000223148
0.000193383
0.000168139
0.000146617
0.000128178
0.000112312
9.86048e-05
8.67207e-05
7.63865e-05
6.7376e-05
5.9501e-05
5.26035e-05
4.65517e-05
4.12352e-05
3.65517e-05
3.24219e-05
2.87772e-05
2.87772e-05
2.52264e-05
2.24054e-05
1.99072e-05
1.76921e-05
1.5727e-05
1.39827e-05
1.24341e-05
1.10587e-05
9.8371e-06
8.75158e-06
7.78669e-06
6.92824e-06
6.16385e-06
5.48234e-06
4.87442e-06
4.33196e-06
3.84825e-06
3.41732e-06
3.03409e-06
2.69376e-06
2.39182e-06
2.12389e-06
1.88585e-06
1.67387e-06
1.48463e-06
1.31541e-06
1.16383e-06
1.02781e-06
9.05945e-07
7.97229e-07
7.0053e-07
6.14426e-07
5.37922e-07
4.70745e-07
4.12352e-07
3.61633e-07
3.19409e-07
2.87292e-07
2.60036e-07
2.33097e-07
2.072e-07
1.8209e-07
1.5809e-07
1.35737e-07
1.14752e-07
9.47879e-08
7.68174e-08
6.38132e-08
5.79512e-08
)
;
    }
    procBoundary4to5
    {
        type            processor;
        value           nonuniform List<scalar> 
95
(
0.000586227
0.000588412
0.000588292
0.00049564
0.00049564
0.000494063
0.000419201
0.000419201
0.000415834
0.000355179
0.000355179
0.000305128
0.000305128
0.000263455
0.000231081
0.000231081
0.000201416
0.000201416
0.000176127
0.000156036
0.000156036
0.000137359
0.000122201
0.000122201
0.000108214
9.65754e-05
9.65754e-05
8.59588e-05
7.6877e-05
6.8758e-05
6.8758e-05
6.1582e-05
5.51471e-05
4.93659e-05
4.93659e-05
4.44199e-05
3.97788e-05
3.55982e-05
3.55982e-05
3.21132e-05
2.87251e-05
2.56646e-05
2.56646e-05
2.31587e-05
2.06664e-05
1.84131e-05
1.63831e-05
1.45597e-05
1.45597e-05
1.30639e-05
1.15737e-05
1.02341e-05
9.03682e-06
7.96932e-06
7.96932e-06
7.00883e-06
6.15582e-06
5.40308e-06
4.73951e-06
4.16072e-06
4.16072e-06
3.54059e-06
3.10682e-06
2.73503e-06
2.41593e-06
2.14477e-06
1.91391e-06
1.71757e-06
1.71757e-06
1.47548e-06
1.34576e-06
1.23523e-06
1.13917e-06
1.05492e-06
9.79984e-07
9.12608e-07
8.50266e-07
8.50266e-07
7.90829e-07
7.36678e-07
6.81834e-07
6.45766e-07
6.17506e-07
5.81553e-07
5.47494e-07
5.16578e-07
4.8486e-07
4.6019e-07
4.6019e-07
4.34071e-07
4.34438e-07
3.85704e-07
4.53928e-07
4.30062e-07
6.06526e-07
)
;
    }
}


// ************************************************************************* //
