/*--------------------------------*- C++ -*----------------------------------*\
| =========                 |                                                 |
| \\      /  F ield         | OpenFOAM: The Open Source CFD Toolbox           |
|  \\    /   O peration     | Version:  2506                                  |
|   \\  /    A nd           | Website:  www.openfoam.com                      |
|    \\/     M anipulation  |                                                 |
\*---------------------------------------------------------------------------*/
FoamFile
{
    version     2.0;
    format      ascii;
    arch        "LSB;label=32;scalar=64";
    class       volVectorField;
    location    "50";
    object      momentError;
}
// * * * * * * * * * * * * * * * * * * * * * * * * * * * * * * * * * * * * * //

dimensions      [0 1 -2 0 0 0 0];

internalField   nonuniform List<vector> 
1340
(
(-0.613944 -2.56621 -1.00691e-15)
(-0.806532 -2.40823 -7.67038e-15)
(-1.12885 -2.40331 -2.20567e-16)
(-0.615217 -2.2694 -5.44872e-15)
(-0.786584 -2.13156 2.94876e-15)
(-1.08304 -2.12956 2.09168e-14)
(-1.28472 -2.05852 -1.55299e-14)
(-1.42641 -1.97558 -1.37941e-14)
(-0.604908 -2.01379 2.53486e-15)
(-0.760848 -1.89307 1.36682e-14)
(-1.03047 -1.89044 1.10498e-14)
(-1.21235 -1.826 1.21524e-14)
(-1.35178 -1.7507 -4.93827e-15)
(-1.53408 -1.69631 -2.7169e-15)
(-1.66292 -1.60472 -2.57199e-15)
(-0.585076 -1.79222 -3.92351e-15)
(-0.729467 -1.68616 8.38689e-15)
(-0.977076 -1.68332 -1.35446e-15)
(-1.14257 -1.62411 -6.56551e-15)
(-1.27188 -1.554 -1.04442e-14)
(-1.44489 -1.50194 2.16718e-15)
(-1.57471 -1.41363 8.99891e-15)
(-1.68271 -1.3276 -7.47058e-15)
(-0.558323 -1.5992 -5.96563e-15)
(-0.692669 -1.50633 -3.53776e-15)
(-0.921739 -1.5017 1.14156e-15)
(-1.07468 -1.44599 -1.5452e-15)
(-1.1972 -1.38197 -3.32635e-15)
(-1.36088 -1.33129 -6.04275e-15)
(-1.48039 -1.2467 -1.28175e-15)
(-1.57885 -1.16633 9.72934e-15)
(-1.67916 -1.08938 2.1682e-14)
(-0.528513 -1.43144 8.786e-15)
(-0.653806 -1.34797 -9.05297e-15)
(-0.86657 -1.34173 1.10029e-14)
(-1.0089 -1.29008 -2.27877e-15)
(-1.12492 -1.22923 8.85971e-15)
(-1.27971 -1.17965 -4.16059e-15)
(-1.39398 -1.10103 -8.40317e-16)
(-1.48311 -1.02183 -4.61643e-15)
(-1.58354 -0.949171 -1.68207e-15)
(-0.49724 -1.28276 3.52695e-15)
(-0.614754 -1.20893 -7.43144e-15)
(-0.812354 -1.20035 -5.56973e-15)
(-0.945103 -1.15139 8.57679e-15)
(-1.05552 -1.09505 -3.29756e-15)
(-1.20116 -1.04578 1.00876e-14)
(-1.3089 -0.970411 -5.91626e-16)
(-1.39552 -0.895637 7.18762e-16)
(-1.48411 -0.823735 -1.73246e-14)
(-1.55716 -0.742004 -2.8203e-15)
(-0.465482 -1.15122 -1.85273e-17)
(-0.57549 -1.08526 3.62564e-15)
(-0.759114 -1.07531 -8.93791e-15)
(-0.883764 -1.02947 3.75487e-15)
(-0.988296 -0.975336 -8.51078e-15)
(-1.12563 -0.927107 -9.66176e-15)
(-1.2274 -0.856065 4.09682e-15)
(-1.31027 -0.784174 3.41048e-15)
(-1.39384 -0.7134 1.19745e-14)
(-1.4548 -0.63701 -9.11029e-16)
(-1.5073 -0.559249 -1.15476e-14)
(-0.433427 -1.0334 -8.32997e-16)
(-0.53629 -0.975439 -5.45914e-15)
(-0.707129 -0.963927 -9.16347e-15)
(-0.824297 -0.92003 2.11626e-15)
(-0.92407 -0.869541 7.05295e-15)
(-1.0532 -0.822141 -9.13256e-15)
(-1.14883 -0.753982 -5.69998e-15)
(-1.22808 -0.68614 3.78134e-15)
(-1.30948 -0.618293 2.8896e-15)
(-1.3632 -0.543081 -3.48119e-15)
(-1.41735 -0.472671 -4.97466e-15)
(-0.402486 -0.929349 -1.2877e-15)
(-0.498204 -0.876848 8.84415e-16)
(-0.65733 -0.864447 -2.95173e-15)
(-0.767664 -0.823053 2.06471e-15)
(-0.862328 -0.774588 9.46605e-15)
(-0.983944 -0.728589 8.72512e-15)
(-1.07443 -0.664719 1.19337e-15)
(-1.14957 -0.599551 -7.12156e-15)
(-1.22776 -0.534189 2.8929e-15)
(-1.27985 -0.462638 2.76481e-15)
(-1.32487 -0.394381 8.563e-15)
(-1.36491 -0.325181 -5.40479e-15)
(-0.373051 -0.835804 5.1383e-15)
(-0.462183 -0.789205 2.12211e-15)
(-0.609761 -0.775463 1.00474e-14)
(-0.713629 -0.735948 2.95319e-15)
(-0.803898 -0.690492 -6.17219e-16)
(-0.918299 -0.645786 -1.80476e-16)
(-1.00333 -0.584659 2.90963e-15)
(-1.07546 -0.523421 -5.38416e-16)
(-1.15013 -0.461002 -6.37974e-15)
(-1.20041 -0.391982 4.68263e-15)
(-1.2405 -0.326013 -1.19951e-14)
(-1.28186 -0.261971 1.9281e-14)
(-0.345229 -0.751744 4.68401e-15)
(-0.428056 -0.710078 2.23138e-16)
(-0.564983 -0.696161 -1.96628e-15)
(-0.662812 -0.65865 -6.55383e-16)
(-0.748453 -0.614875 1.54292e-15)
(-0.856104 -0.571523 9.908e-16)
(-0.93657 -0.514266 1.42702e-15)
(-1.00475 -0.455633 4.94637e-15)
(-1.07578 -0.395613 -8.03202e-15)
(-1.125 -0.331021 1.3869e-14)
(-1.16305 -0.267267 -1.27887e-14)
(-1.19568 -0.205812 -1.63836e-15)
(-1.21791 -0.143769 2.73978e-14)
(-0.319269 -0.676497 -1.39728e-15)
(-0.396636 -0.639372 1.00693e-14)
(-0.523427 -0.624915 -4.53907e-15)
(-0.615346 -0.588873 -1.65579e-15)
(-0.696547 -0.54739 -2.76875e-15)
(-0.797385 -0.505141 -3.71923e-15)
(-0.872748 -0.45034 -1.09602e-15)
(-0.937631 -0.395248 2.75506e-15)
(-1.00522 -0.338251 7.83313e-15)
(-1.05155 -0.276334 -9.30286e-15)
(-1.08941 -0.216189 1.96971e-14)
(-1.11803 -0.157315 -2.18638e-14)
(-1.14034 -0.100683 1.20479e-14)
(-0.295126 -0.609337 -5.42459e-15)
(-0.367776 -0.575408 8.81495e-15)
(-0.485573 -0.560908 -3.58204e-16)
(-0.571548 -0.526558 -1.36234e-17)
(-0.647684 -0.486179 5.0052e-15)
(-0.741825 -0.445004 -2.6567e-15)
(-0.812636 -0.393495 -4.1732e-15)
(-0.873509 -0.340775 -5.65548e-15)
(-0.937401 -0.286196 1.44242e-15)
(-0.982112 -0.228334 -6.59462e-16)
(-1.01855 -0.17134 5.85118e-16)
(-1.04577 -0.114841 1.48142e-14)
(-1.06221 -0.0616043 -4.40687e-14)
(-1.07182 -0.00962548 -6.07595e-16)
(-0.272686 -0.548662 4.44383e-16)
(-0.341487 -0.517979 -4.28751e-15)
(-0.450523 -0.503204 2.76577e-15)
(-0.530651 -0.470169 6.8967e-15)
(-0.601958 -0.431329 -1.60749e-15)
(-0.689394 -0.390934 1.6851e-15)
(-0.755083 -0.34137 -9.33738e-16)
(-0.812695 -0.291784 -1.41106e-15)
(-0.873234 -0.240068 -5.27543e-15)
(-0.915344 -0.184777 -1.04876e-14)
(-0.950693 -0.13127 -3.0476e-14)
(-0.977791 -0.0778281 1.81352e-15)
(-0.992027 -0.0273911 -6.47264e-15)
(-1.00287 0.0192128 -2.60108e-14)
(-0.250372 -0.49404 6.62483e-16)
(-0.316195 -0.466 -1.86977e-16)
(-0.417645 -0.451267 -4.10673e-15)
(-0.492163 -0.419548 5.79571e-15)
(-0.558633 -0.381561 2.21373e-15)
(-0.639818 -0.341917 -3.27804e-16)
(-0.701175 -0.295035 2.56392e-15)
(-0.754877 -0.247516 -2.39137e-15)
(-0.81191 -0.198106 6.30445e-15)
(-0.852487 -0.146499 3.29811e-15)
(-0.886116 -0.0955778 -5.89073e-15)
(-0.912631 -0.044899 -3.22459e-17)
(-0.925655 0.00302721 3.61447e-14)
(-0.939499 0.047648 5.24778e-14)
(-0.228248 -0.444555 -5.64404e-15)
(-0.291518 -0.419083 -4.09799e-15)
(-0.386242 -0.404234 7.47687e-15)
(-0.455643 -0.373627 -7.32268e-15)
(-0.517865 -0.337078 1.82461e-15)
(-0.593285 -0.298233 1.61272e-15)
(-0.650153 -0.253099 1.75418e-15)
(-0.700784 -0.208218 9.54599e-16)
(-0.754438 -0.161271 5.19253e-15)
(-0.792564 -0.111835 -3.00281e-15)
(-0.824988 -0.0636594 9.51613e-15)
(-0.850944 -0.0158322 1.22568e-14)
(-0.863451 0.0301747 -8.39949e-17)
(-0.873176 0.0729372 -4.60472e-15)
(-0.876384 0.116184 -2.47539e-14)
(-0.209715 -0.40197 4.11734e-15)
(-0.269196 -0.377384 -5.21074e-15)
(-0.356847 -0.36191 -6.61321e-15)
(-0.421074 -0.332461 -1.35629e-15)
(-0.4792 -0.296987 -2.46718e-15)
(-0.54946 -0.259153 -1.15031e-15)
(-0.602608 -0.216333 -1.72885e-15)
(-0.649753 -0.17319 3.18168e-15)
(-0.699975 -0.128041 3.06773e-15)
(-0.736478 -0.0815856 8.14485e-15)
(-0.767093 -0.0354582 -1.1268e-14)
(-0.791903 0.0102991 -1.7024e-14)
(-0.804914 0.0541747 -6.14853e-15)
(-0.812987 0.0956591 1.15165e-14)
(-0.816376 0.134607 2.11824e-14)
(-0.19096 -0.361467 2.68715e-15)
(-0.248057 -0.339022 7.5177e-15)
(-0.329011 -0.323451 -2.90145e-15)
(-0.388502 -0.295207 -1.85798e-15)
(-0.442887 -0.26123 9.07473e-16)
(-0.508293 -0.224519 2.34941e-15)
(-0.557769 -0.183308 -2.79618e-15)
(-0.602085 -0.142276 5.31387e-15)
(-0.649098 -0.0990736 -1.48656e-15)
(-0.683071 -0.0543174 -8.79572e-15)
(-0.712385 -0.0104311 2.07336e-15)
(-0.736009 0.0331937 1.10119e-15)
(-0.748825 0.0751438 -1.78007e-14)
(-0.755969 0.114882 -2.36272e-14)
(-0.761211 0.151714 -6.13079e-15)
(-0.172948 -0.324078 -2.16524e-15)
(-0.227283 -0.303189 3.03128e-15)
(-0.302444 -0.287878 8.06024e-15)
(-0.357768 -0.261378 1.33083e-15)
(-0.408608 -0.228856 -9.16583e-16)
(-0.469468 -0.193387 -3.20358e-16)
(-0.515757 -0.15433 2.45151e-15)
(-0.556955 -0.114818 -3.46993e-15)
(-0.60087 -0.0731146 1.18859e-14)
(-0.632959 -0.0307612 -2.03467e-15)
(-0.660456 0.0114103 2.0575e-15)
(-0.682819 0.0533891 1.84237e-14)
(-0.695568 0.093191 -4.9211e-17)
(-0.702074 0.13142 -3.97505e-16)
(-0.704443 0.16608 5.29514e-16)
(-0.704531 0.199013 -2.54297e-15)
(-0.154832 -0.290041 -1.06433e-15)
(-0.207119 -0.27067 -7.16909e-15)
(-0.277709 -0.25543 -6.78809e-16)
(-0.329109 -0.230412 -2.23472e-15)
(-0.376486 -0.199717 -2.65617e-16)
(-0.432958 -0.165671 7.76306e-16)
(-0.475902 -0.128269 1.15495e-15)
(-0.514548 -0.0907027 -7.1206e-15)
(-0.555572 -0.0507446 -3.45555e-15)
(-0.585289 -0.00983315 -2.65224e-16)
(-0.611331 0.0304665 2.95688e-15)
(-0.632541 0.0706375 3.98151e-16)
(-0.644616 0.108772 2.64894e-14)
(-0.651804 0.145144 2.17732e-14)
(-0.653434 0.178153 -2.04281e-14)
(-0.653716 0.207277 4.33768e-15)
(-0.13803 -0.255618 -1.53721e-15)
(-0.188663 -0.241087 -1.15176e-15)
(-0.254702 -0.226081 -4.59243e-16)
(-0.302544 -0.202555 -3.83823e-15)
(-0.346459 -0.173412 1.07931e-15)
(-0.398683 -0.140856 5.47843e-16)
(-0.438634 -0.1055 -2.53359e-15)
(-0.47446 -0.069429 2.93613e-16)
(-0.512619 -0.0309021 6.177e-15)
(-0.540611 0.00794475 5.2902e-15)
(-0.564814 0.0467409 -6.08937e-15)
(-0.584803 0.0854373 -2.50918e-14)
(-0.596394 0.121823 -1.60489e-14)
(-0.603529 0.156651 1.98646e-14)
(-0.605134 0.187924 1.04499e-14)
(-0.607068 0.215764 -5.26452e-15)
(-0.0800903 -0.231113 -2.06705e-16)
(-0.126684 -0.22684 2.05942e-15)
(-0.172018 -0.213315 4.96587e-15)
(-0.23321 -0.199698 2.09492e-15)
(-0.277685 -0.177348 7.56537e-16)
(-0.318397 -0.14987 -8.35751e-16)
(-0.366528 -0.118817 8.42999e-16)
(-0.403436 -0.0851001 1.05035e-15)
(-0.436869 -0.0508219 -1.14196e-15)
(-0.472277 -0.0139576 2.06703e-15)
(-0.498122 0.023488 8.10012e-15)
(-0.520866 0.060617 -1.54554e-15)
(-0.539687 0.0976986 3.09304e-15)
(-0.550571 0.132678 1.30387e-15)
(-0.558115 0.165734 -1.19372e-14)
(-0.559457 0.196003 -1.88509e-14)
(-0.558967 0.223026 9.29061e-15)
(-0.558302 0.249373 1.86432e-14)
(-0.0720429 -0.205636 -8.80474e-17)
(-0.115055 -0.201504 1.50258e-15)
(-0.157251 -0.188817 6.43997e-16)
(-0.213338 -0.175663 -4.96184e-15)
(-0.254385 -0.154612 4.86695e-16)
(-0.292048 -0.128597 -9.27728e-16)
(-0.336372 -0.0990034 -1.28024e-15)
(-0.370477 -0.0672071 2.16425e-15)
(-0.401331 -0.0344554 -2.60918e-16)
(-0.434085 0.000933684 -4.14133e-15)
(-0.458254 0.0364552 -3.43917e-16)
(-0.479265 0.0721442 -4.18848e-16)
(-0.496871 0.10782 -7.9257e-15)
(-0.507262 0.14128 4.08031e-15)
(-0.514302 0.173105 3.48072e-15)
(-0.516654 0.202283 1.57883e-14)
(-0.515844 0.228613 3.43829e-16)
(-0.514289 0.252644 -2.25689e-14)
(-0.0645067 -0.182804 9.28112e-16)
(-0.104302 -0.178566 -2.7551e-15)
(-0.143324 -0.166695 -1.50648e-15)
(-0.194817 -0.153846 -7.06924e-16)
(-0.232699 -0.133955 -4.59581e-16)
(-0.267511 -0.109473 1.19993e-15)
(-0.308213 -0.0813705 -4.98663e-16)
(-0.339534 -0.0511887 4.23474e-15)
(-0.36808 -0.0201841 3.30952e-15)
(-0.39825 0.0135182 -5.73616e-16)
(-0.420407 0.0475929 -9.06953e-15)
(-0.44003 0.0816857 4.41806e-15)
(-0.456363 0.115825 8.28045e-15)
(-0.466153 0.147967 -5.52325e-16)
(-0.473072 0.178458 4.48597e-15)
(-0.475414 0.206745 -2.92634e-14)
(-0.47453 0.232371 -1.72763e-14)
(-0.473729 0.255533 2.17826e-14)
(-0.0573757 -0.162218 4.84214e-16)
(-0.0943159 -0.157924 2.14474e-16)
(-0.130454 -0.146698 -3.0548e-15)
(-0.17769 -0.134117 1.0017e-15)
(-0.21254 -0.115343 3.42913e-16)
(-0.24462 -0.0922563 7.4719e-16)
(-0.281931 -0.065603 -1.39559e-16)
(-0.310723 -0.0372217 1.45299e-15)
(-0.336865 -0.00773437 1.65253e-15)
(-0.364558 0.0244781 -3.1453e-15)
(-0.385015 0.0567104 -3.16351e-16)
(-0.402993 0.089331 -4.23231e-15)
(-0.418116 0.122093 9.01119e-15)
(-0.427294 0.152819 -8.62511e-15)
(-0.433667 0.182324 -4.41271e-15)
(-0.436523 0.209479 3.66795e-16)
(-0.435425 0.234455 -7.959e-15)
(-0.432868 0.257202 -8.13228e-15)
(-0.431059 0.27902 -1.06301e-14)
(-0.0506224 -0.143704 2.30458e-17)
(-0.0849433 -0.139353 6.01713e-17)
(-0.118461 -0.128673 2.72742e-15)
(-0.161733 -0.116355 -2.84877e-15)
(-0.193783 -0.0985936 1.42292e-15)
(-0.223306 -0.0768792 -1.52204e-15)
(-0.257418 -0.0516509 -7.09021e-16)
(-0.283713 -0.0248118 -1.45941e-15)
(-0.30774 0.00304399 -4.21188e-15)
(-0.333026 0.0336 3.22407e-15)
(-0.35163 0.0643483 1.4724e-15)
(-0.368173 0.0953959 -3.83102e-15)
(-0.382012 0.126645 -7.51959e-15)
(-0.390513 0.156119 -5.44419e-16)
(-0.396605 0.184427 -1.27806e-14)
(-0.399094 0.210796 -6.01435e-15)
(-0.398582 0.235163 1.1348e-14)
(-0.396229 0.257617 3.85518e-14)
(-0.393778 0.277863 1.69951e-14)
(-0.0443771 -0.127047 5.08466e-16)
(-0.076187 -0.12261 9.77736e-16)
(-0.107268 -0.112493 1.4469e-16)
(-0.146909 -0.100433 2.17179e-15)
(-0.176327 -0.0836356 -9.82284e-16)
(-0.203445 -0.0631855 9.01397e-16)
(-0.234602 -0.0392878 -1.45938e-15)
(-0.258619 -0.014061 -4.91379e-16)
(-0.28049 0.0123282 -2.25594e-15)
(-0.303503 0.0413867 1.7094e-15)
(-0.320476 0.0703815 3.92415e-15)
(-0.335458 0.0999451 -2.39298e-15)
(-0.348072 0.129809 1.88578e-15)
(-0.355822 0.157916 9.25777e-15)
(-0.361326 0.185241 -3.25282e-15)
(-0.363847 0.210631 -1.70701e-14)
(-0.363224 0.234398 2.3626e-15)
(-0.361205 0.256541 -4.38762e-15)
(-0.359175 0.276305 -1.40247e-15)
(-0.0387485 -0.11187 -2.92402e-16)
(-0.0680926 -0.107532 5.97388e-16)
(-0.0968334 -0.0979166 -9.89806e-16)
(-0.133077 -0.0861862 1.69463e-15)
(-0.160051 -0.0703055 -5.27915e-16)
(-0.184923 -0.0510632 -9.3021e-16)
(-0.213308 -0.0284745 5.22696e-17)
(-0.235159 -0.00466593 1.81604e-15)
(-0.255099 0.0202076 -1.64357e-15)
(-0.275973 0.0476805 -3.32832e-16)
(-0.291241 0.075205 -7.15482e-15)
(-0.304832 0.103233 3.25713e-15)
(-0.316205 0.131617 4.36425e-15)
(-0.323147 0.158461 1.6347e-14)
(-0.328211 0.18463 1.99884e-15)
(-0.33022 0.209226 3.44018e-15)
(-0.32979 0.232408 8.63541e-15)
(-0.327806 0.253858 -8.12404e-16)
(-0.325908 0.273552 -1.92225e-14)
(-0.0337252 -0.0979498 -4.87408e-17)
(-0.0606487 -0.0938729 -8.12675e-16)
(-0.0871446 -0.08486 1.28525e-15)
(-0.120236 -0.0734916 -2.06103e-15)
(-0.144905 -0.0584893 8.18727e-16)
(-0.167662 -0.0403831 9.45971e-16)
(-0.193471 -0.0190258 -5.36941e-16)
(-0.213338 0.00332812 -3.11636e-16)
(-0.231396 0.0268255 1.90504e-15)
(-0.250245 0.0528587 3.42111e-15)
(-0.264035 0.0787555 3.93769e-15)
(-0.276173 0.105312 -6.90019e-15)
(-0.286341 0.132293 9.49831e-16)
(-0.292495 0.157815 5.41452e-15)
(-0.29686 0.182965 2.46809e-15)
(-0.298605 0.206612 -1.98518e-15)
(-0.298076 0.229118 1.19768e-14)
(-0.295852 0.250061 -3.56329e-15)
(-0.293944 0.269725 -9.16751e-16)
(-0.0292667 -0.0851974 4.52861e-16)
(-0.0538579 -0.0815232 -2.76111e-15)
(-0.0781963 -0.0731167 1.75935e-15)
(-0.108313 -0.0621984 -3.08071e-16)
(-0.130852 -0.0480612 4.40119e-16)
(-0.15162 -0.0310378 -2.37621e-16)
(-0.175008 -0.0108889 3.79616e-16)
(-0.192974 0.0101581 -4.63525e-15)
(-0.209336 0.0322793 2.99931e-15)
(-0.226288 0.0568265 6.28446e-16)
(-0.238563 0.0812839 -2.62426e-15)
(-0.249423 0.106371 -8.79658e-16)
(-0.258398 0.131903 -1.0255e-14)
(-0.263741 0.15617 -9.67525e-15)
(-0.267513 0.18013 -1.44332e-14)
(-0.268649 0.202926 -1.07858e-14)
(-0.268147 0.224655 -3.30046e-15)
(-0.265521 0.2452 1.70768e-15)
(-0.262393 0.26476 -1.0438e-15)
(-0.26033 0.285078 7.83293e-15)
(-0.0254193 -0.0735988 7.9909e-16)
(-0.0477354 -0.0702748 -1.3055e-15)
(-0.0699955 -0.0625993 -4.60989e-15)
(-0.097338 -0.0521707 1.52569e-15)
(-0.117848 -0.0388757 7.17381e-16)
(-0.136741 -0.0229176 5.64651e-16)
(-0.157864 -0.00391118 -2.03891e-17)
(-0.174077 0.0158367 -5.02974e-16)
(-0.188758 0.0366642 -3.4832e-15)
(-0.203945 0.059834 6.65305e-15)
(-0.21489 0.0827908 -1.41809e-15)
(-0.224455 0.106455 -4.5797e-15)
(-0.232315 0.130604 3.94476e-15)
(-0.236848 0.153558 8.76644e-15)
(-0.239887 0.176422 4.35527e-15)
(-0.24064 0.198201 1.61436e-15)
(-0.239636 0.219115 1.9326e-14)
(-0.237052 0.239198 6.96742e-15)
(-0.233627 0.258554 -8.35692e-15)
(-0.230426 0.278016 5.82446e-15)
(-0.0220931 -0.0630706 1.29617e-15)
(-0.0422472 -0.0601804 8.75936e-16)
(-0.0625109 -0.0531531 -1.3024e-15)
(-0.0872533 -0.0433019 5.06704e-16)
(-0.105872 -0.030862 -1.71642e-15)
(-0.123009 -0.0158996 1.37072e-16)
(-0.141999 0.00197409 1.26112e-16)
(-0.156546 0.0205053 3.05172e-15)
(-0.16971 0.0400761 -3.51755e-15)
(-0.183194 0.0618534 -7.25129e-16)
(-0.192817 0.0834393 4.4234e-15)
(-0.20121 0.105706 1.73675e-15)
(-0.207983 0.12846 -6.34761e-16)
(-0.211731 0.15014 1.09731e-15)
(-0.214129 0.171788 2.97829e-15)
(-0.214292 0.192585 5.95966e-15)
(-0.212983 0.212635 -4.0867e-15)
(-0.209962 0.23201 1.09559e-15)
(-0.206316 0.251047 1.09307e-14)
(-0.202711 0.269973 -1.87785e-15)
(-0.0190815 -0.0536425 -6.46285e-16)
(-0.037267 -0.0511173 2.72135e-16)
(-0.0556602 -0.0447853 1.64303e-16)
(-0.0779984 -0.0355059 3.57524e-16)
(-0.0948531 -0.0238755 5.08288e-16)
(-0.110364 -0.00992525 -9.91704e-16)
(-0.127393 0.00687026 -7.09654e-16)
(-0.140368 0.0242173 1.1323e-15)
(-0.152059 0.0425742 2.78913e-15)
(-0.163968 0.0630558 -7.67166e-16)
(-0.172377 0.0832677 -2.48156e-15)
(-0.179613 0.104174 -3.24249e-15)
(-0.185369 0.125581 4.38277e-15)
(-0.188347 0.145968 -2.58961e-15)
(-0.190035 0.166455 -5.00347e-15)
(-0.189746 0.186149 8.79245e-16)
(-0.187945 0.205265 4.19774e-15)
(-0.184668 0.223923 -1.39734e-14)
(-0.180624 0.242189 -1.07887e-14)
(-0.176456 0.260635 9.78557e-16)
(-0.0162593 -0.0454059 -3.31531e-16)
(-0.0327118 -0.0431509 1.63371e-15)
(-0.0493678 -0.0373712 5.24938e-16)
(-0.0694827 -0.028703 -1.2424e-15)
(-0.0847399 -0.0178883 8.90197e-16)
(-0.0987216 -0.00487022 5.81413e-16)
(-0.113936 0.0108421 5.90648e-16)
(-0.125477 0.0270542 -1.00088e-15)
(-0.135822 0.0442574 1.33731e-15)
(-0.146251 0.0634544 1.74387e-15)
(-0.153491 0.0823767 3.27938e-15)
(-0.159658 0.101979 -3.27903e-15)
(-0.164411 0.122043 -2.35148e-15)
(-0.166661 0.14118 1.54188e-15)
(-0.167704 0.160438 8.11772e-15)
(-0.166855 0.179035 2.09334e-15)
(-0.164646 0.197149 -9.58381e-15)
(-0.161029 0.21492 -4.54313e-16)
(-0.156575 0.232398 7.13115e-15)
(-0.151889 0.250151 6.36072e-15)
(-0.0136386 -0.0383839 5.19292e-17)
(-0.0285387 -0.0361674 -5.11498e-16)
(-0.0435974 -0.0309281 1.37235e-15)
(-0.0616525 -0.0228069 5.33583e-16)
(-0.075407 -0.012762 -2.93414e-16)
(-0.0880082 -0.000702816 1.82772e-16)
(-0.101569 0.013978 4.97382e-16)
(-0.111789 0.0290963 7.2957e-16)
(-0.120888 0.04516 -8.87345e-16)
(-0.129967 0.0631382 -2.75709e-15)
(-0.136138 0.0808138 -3.01386e-15)
(-0.141281 0.0991357 1.48703e-16)
(-0.145115 0.11792 4.85094e-15)
(-0.146637 0.135809 3.94292e-15)
(-0.147028 0.153895 -7.53803e-15)
(-0.145709 0.171342 -5.86317e-15)
(-0.143006 0.188417 -2.9907e-15)
(-0.139193 0.205189 9.64642e-15)
(-0.134136 0.221804 8.00143e-15)
(-0.128911 0.238817 -5.72539e-15)
(-0.123552 0.257944 2.34902e-15)
(-0.0112212 -0.0324482 4.83599e-17)
(-0.0247322 -0.0302395 -1.15605e-15)
(-0.0383094 -0.0253347 -3.74368e-16)
(-0.0544639 -0.0177589 -2.84828e-18)
(-0.0668266 -0.00847863 -9.10277e-16)
(-0.078136 0.00271704 2.61919e-16)
(-0.0901805 0.016356 1.97774e-16)
(-0.0992156 0.0303932 -6.38749e-16)
(-0.107185 0.0453747 1.96623e-17)
(-0.115022 0.0621459 -2.10246e-16)
(-0.120232 0.0786179 -1.26011e-15)
(-0.124458 0.0957415 -2.1937e-16)
(-0.127412 0.113275 1.86956e-15)
(-0.128278 0.129968 2.21181e-15)
(-0.128056 0.146853 4.22907e-15)
(-0.12622 0.163163 -3.92167e-15)
(-0.12314 0.179166 -4.18386e-15)
(-0.118903 0.194883 -5.23288e-15)
(-0.113623 0.210609 -4.02294e-15)
(-0.107948 0.226756 6.87764e-16)
(-0.101777 0.244764 -1.99198e-15)
(-0.00895979 -0.0274935 3.42753e-16)
(-0.0212609 -0.0251976 -3.0119e-16)
(-0.0334963 -0.020604 1.30893e-15)
(-0.0478856 -0.0134797 1.01333e-15)
(-0.0589457 -0.00488219 -1.04346e-15)
(-0.0690681 0.00542484 -4.00485e-16)
(-0.0797233 0.0180735 -4.98914e-16)
(-0.0876539 0.0310735 5.38789e-16)
(-0.0946098 0.0449553 -2.05474e-16)
(-0.10135 0.0605581 -2.19881e-15)
(-0.105684 0.075879 3.55642e-15)
(-0.10909 0.0918086 -9.79746e-15)
(-0.111287 0.108146 -7.25752e-17)
(-0.111538 0.123686 3.15104e-16)
(-0.110744 0.139422 2.1305e-15)
(-0.108457 0.154607 9.93478e-15)
(-0.104961 0.169513 -1.47474e-15)
(-0.100409 0.184161 4.24863e-15)
(-0.0947464 0.198855 3.38366e-15)
(-0.0887186 0.214039 -3.18207e-15)
(-0.081966 0.230897 6.00209e-15)
(-0.00689931 -0.0233835 8.62611e-17)
(-0.0181396 -0.0209978 5.53967e-18)
(-0.0291517 -0.016573 -6.66974e-16)
(-0.0419284 -0.0098822 1.21212e-15)
(-0.0517795 -0.00194794 6.84995e-17)
(-0.0607635 0.00757711 -5.81615e-16)
(-0.0701388 0.0192372 -2.25883e-16)
(-0.0770752 0.0311953 1.54589e-16)
(-0.0830832 0.0440309 2.51682e-15)
(-0.0888151 0.0584623 -3.36843e-15)
(-0.0924047 0.0726249 6.34944e-15)
(-0.0950881 0.0874207 1.60541e-15)
(-0.0966025 0.102588 -1.1435e-14)
(-0.0963544 0.117019 1.73092e-15)
(-0.0950636 0.131635 5.5254e-15)
(-0.0923699 0.145733 3.16018e-15)
(-0.0885301 0.159555 -2.86874e-15)
(-0.0836296 0.173127 2.09843e-15)
(-0.0777188 0.186744 -1.37717e-15)
(-0.0713252 0.200762 -5.24894e-15)
(-0.0639755 0.216448 4.66785e-15)
(-0.00512591 -0.0199026 1.51752e-16)
(-0.0153729 -0.0173983 4.21736e-16)
(-0.0252884 -0.0131977 -1.01487e-15)
(-0.0365908 -0.00686636 -1.28387e-15)
(-0.045298 0.000483988 -2.879e-16)
(-0.0532397 0.00921374 1.40159e-17)
(-0.0614213 0.0199507 3.9014e-16)
(-0.0674093 0.0309273 -2.57048e-16)
(-0.0725627 0.0426876 1.24809e-15)
(-0.0773914 0.0559632 3.29874e-15)
(-0.0802732 0.0690054 -1.08048e-15)
(-0.082338 0.082642 6.32477e-15)
(-0.0832886 0.0966579 -1.26812e-17)
(-0.0826053 0.110012 -8.15771e-15)
(-0.0809296 0.123551 -2.10146e-16)
(-0.0779051 0.136599 -4.10583e-15)
(-0.0737765 0.149364 -8.18672e-15)
(-0.0686358 0.161866 -4.29054e-15)
(-0.0624839 0.174385 -2.41579e-15)
(-0.0557758 0.187227 3.41613e-15)
(-0.048007 0.201696 2.59464e-15)
(-0.0036406 -0.0167882 1.85514e-16)
(-0.0129337 -0.0143463 -7.17407e-16)
(-0.0218533 -0.0102981 8.26037e-16)
(-0.0318398 -0.00434908 -6.28338e-17)
(-0.0395057 0.00242955 5.4873e-16)
(-0.0464649 0.0104899 1.66402e-16)
(-0.0535484 0.0203249 3.6581e-16)
(-0.0586837 0.0303279 -4.55825e-16)
(-0.063016 0.0410863 -1.29222e-15)
(-0.0669983 0.0532146 1.63391e-15)
(-0.0692739 0.0651017 -2.82674e-15)
(-0.0707593 0.0776053 -7.4056e-15)
(-0.0712102 0.0904757 5.98533e-15)
(-0.0701994 0.102749 4.97041e-15)
(-0.0682148 0.115239 3.05382e-15)
(-0.0649722 0.127252 -5.87799e-16)
(-0.0606668 0.138999 1.42618e-15)
(-0.0553203 0.150476 1.78243e-15)
(-0.0490966 0.161896 -3.28568e-15)
(-0.0419976 0.173613 -1.43374e-15)
(-0.0342365 0.186766 -1.59784e-15)
(-0.0259604 0.202713 -3.58128e-15)
(-0.00236915 -0.0139219 1.27672e-16)
(-0.0107549 -0.0116384 -2.25324e-16)
(-0.018785 -0.00786302 -4.94964e-16)
(-0.0275933 -0.00226086 3.10712e-16)
(-0.0343256 0.0040247 5.3027e-16)
(-0.0404164 0.0114033 1.92398e-16)
(-0.0465072 0.0204286 6.26472e-17)
(-0.0508358 0.0295557 -2.91277e-16)
(-0.054441 0.0393074 3.62298e-16)
(-0.0576533 0.0503175 -1.51808e-15)
(-0.0593293 0.0611135 -1.98938e-15)
(-0.0603068 0.0724518 -5.08525e-15)
(-0.0603283 0.0841643 -3.28979e-15)
(-0.0590233 0.0953604 4.19813e-15)
(-0.056831 0.106779 -7.85435e-16)
(-0.0534435 0.11779 4.07136e-15)
(-0.0490485 0.128543 2.19033e-15)
(-0.0436616 0.139012 -6.23199e-15)
(-0.0373372 0.149398 -6.41388e-15)
(-0.0301937 0.160034 1.16603e-14)
(-0.0222277 0.171886 3.72928e-17)
(-0.0134241 0.186293 -3.39669e-15)
(-0.00130158 -0.0112641 -1.44261e-16)
(-0.00881795 -0.00926223 6.6868e-16)
(-0.0160216 -0.00576021 2.7667e-17)
(-0.0237896 -0.00055519 -7.33919e-16)
(-0.0296992 0.00523344 3.47212e-17)
(-0.0349895 0.0120433 -9.13536e-17)
(-0.0402063 0.020303 -2.96335e-16)
(-0.0438471 0.0285872 6.59964e-16)
(-0.0467764 0.0374567 -4.75608e-16)
(-0.0492923 0.0474153 2.99607e-15)
(-0.0504639 0.0571125 1.99725e-15)
(-0.0509511 0.067338 2.18364e-15)
(-0.0505679 0.0779014 -1.66846e-15)
(-0.0490326 0.0879983 -1.58179e-15)
(-0.0466525 0.0983454 9.57356e-16)
(-0.0432172 0.108324 -3.1832e-15)
(-0.0388285 0.118091 1.91622e-16)
(-0.0334753 0.127596 5.20692e-15)
(-0.0272241 0.136987 -2.83663e-16)
(-0.0200453 0.146563 -9.67092e-15)
(-0.0120754 0.157157 1.41447e-15)
(-0.00298031 0.170117 -4.10721e-16)
(-0.000488208 -0.00879571 -2.99242e-16)
(-0.00712528 -0.007094 7.89873e-17)
(-0.0135571 -0.00399922 8.82932e-16)
(-0.0203796 0.000807535 -2.21349e-16)
(-0.0255361 0.00613767 1.21113e-16)
(-0.0301346 0.0123539 1.56831e-16)
(-0.0345697 0.0199335 1.41467e-16)
(-0.0375891 0.0274992 -7.486e-17)
(-0.0399664 0.0355219 -1.53803e-15)
(-0.0418915 0.0445161 -9.48514e-16)
(-0.0425854 0.0532442 4.24945e-15)
(-0.0426654 0.0623831 -1.48834e-15)
(-0.04193 0.071816 1.69162e-15)
(-0.0401623 0.0808318 -2.32041e-16)
(-0.0376593 0.0900824 3.64315e-15)
(-0.034181 0.099035 3.34875e-15)
(-0.0298539 0.1078 -1.59171e-15)
(-0.0246494 0.116335 -7.546e-16)
(-0.0185455 0.124767 3.55777e-16)
(-0.0115626 0.133314 3.65053e-15)
(-0.00362921 0.142719 -1.79091e-16)
(0.00559038 0.154268 -1.96817e-15)
(9.24118e-05 -0.00654827 2.08846e-16)
(-0.00567347 -0.00525325 -6.72745e-16)
(-0.0113598 -0.00252838 1.19326e-15)
(-0.0173293 0.00181777 7.07459e-16)
(-0.0218106 0.00666513 -1.49303e-16)
(-0.0257667 0.0123769 -1.85413e-17)
(-0.0295134 0.0193023 -9.57479e-17)
(-0.0320159 0.0261838 1.48736e-16)
(-0.0338942 0.0335052 6.33133e-16)
(-0.0353195 0.04165 -8.879e-16)
(-0.0356669 0.0494602 -1.41096e-15)
(-0.0353891 0.0576398 3.98388e-16)
(-0.0343477 0.0660263 -7.90965e-16)
(-0.0324038 0.0739898 -2.07771e-15)
(-0.0297565 0.0821699 -5.34397e-15)
(-0.026293 0.090064 -3.21463e-15)
(-0.0220582 0.0978143 -9.98534e-16)
(-0.0170262 0.105376 1.94343e-15)
(-0.0111847 0.112843 1.5619e-15)
(-0.00443586 0.120414 -2.83359e-15)
(0.00320886 0.128695 6.99246e-16)
(0.0123576 0.138866 2.0673e-15)
(0.00051998 -0.00469741 1.20951e-16)
(-0.00445271 -0.00375867 6.72044e-16)
(-0.00945068 -0.00147217 -9.48865e-16)
(-0.0146306 0.00243482 4.38005e-16)
(-0.0184997 0.00684264 -1.1875e-16)
(-0.0218842 0.0120093 4.68151e-17)
(-0.0250039 0.0183466 -5.57908e-16)
(-0.027018 0.0246508 7.18191e-16)
(-0.0284959 0.0313041 1.83754e-15)
(-0.0295133 0.0386973 1.5076e-16)
(-0.0295529 0.0457656 1.08031e-15)
(-0.0290317 0.0530758 -3.04811e-15)
(-0.0277697 0.0605137 -1.72584e-15)
(-0.0256766 0.0675253 -1.31619e-18)
(-0.022958 0.0746719 5.04781e-15)
(-0.0194771 0.0815548 1.05121e-15)
(-0.0153481 0.0882975 -5.14004e-16)
(-0.0105298 0.0948654 4.6693e-15)
(-0.00496664 0.101376 -8.03357e-16)
(0.00139874 0.107963 3.29512e-15)
(0.00872525 0.115174 -2.51478e-15)
(0.0176256 0.124095 -3.69724e-15)
(0.000805271 -0.00336759 1.70537e-17)
(-0.00345992 -0.00273243 1.21095e-16)
(-0.0078124 -0.000809786 -2.66501e-16)
(-0.0122939 0.00262714 -1.12961e-15)
(-0.0156194 0.00657389 1.15427e-16)
(-0.0184668 0.0112693 1.47583e-16)
(-0.0210265 0.0170271 6.79897e-16)
(-0.0226161 0.0227616 -1.11083e-15)
(-0.0236993 0.0288652 1.03085e-15)
(-0.0243602 0.0356096 -6.9884e-16)
(-0.0241989 0.0419922 7.01512e-16)
(-0.023481 0.0485836 2.09374e-15)
(-0.0220704 0.0552152 -3.97975e-15)
(-0.0199139 0.0613761 7.95894e-16)
(-0.0171338 0.0676144 -1.6287e-15)
(-0.0137093 0.0735438 -1.05359e-15)
(-0.00968746 0.0793213 -5.83475e-16)
(-0.00506703 0.084943 -4.33414e-15)
(0.000183444 0.0904869 2.76005e-15)
(0.00618414 0.0961349 1.35676e-15)
(0.0130575 0.102311 3.65327e-16)
(0.0214938 0.110005 -4.17607e-16)
(0.000950891 -0.00252479 1.05031e-16)
(-0.0026928 -0.00205732 -1.36704e-15)
(-0.00646732 -0.000513527 7.73918e-16)
(-0.0103179 0.00246715 3.78022e-16)
(-0.0131542 0.00596392 -6.75679e-16)
(-0.0155495 0.0101311 5.86566e-17)
(-0.0176039 0.0153347 1.08436e-16)
(-0.0187834 0.0205664 2.10578e-16)
(-0.0195284 0.026111 -1.99383e-15)
(-0.0198699 0.0322564 3.92192e-15)
(-0.0194952 0.0380865 -1.47714e-16)
(-0.0186549 0.0440331 2.88843e-15)
(-0.0171664 0.0499673 1.62882e-15)
(-0.0149902 0.0554278 -3.24182e-15)
(-0.0122492 0.0608735 5.91362e-15)
(-0.0088749 0.0659949 3.6818e-15)
(-0.00499019 0.0709151 -2.20207e-15)
(-0.000589906 0.0756422 6.80789e-16)
(0.00437866 0.0802935 1.31835e-15)
(0.00995876 0.0850075 3.32667e-17)
(0.0164302 0.0901873 2.22548e-16)
(0.0240163 0.0967044 1.9516e-15)
(0.0341939 0.108357 -1.15842e-16)
(0.000981121 -0.00213035 -8.80455e-17)
(-0.00213148 -0.00180836 2.57289e-16)
(-0.00539149 -0.000513023 8.05992e-17)
(-0.0087022 0.00200893 2.49767e-16)
(-0.0111203 0.00503632 9.81557e-17)
(-0.013117 0.00873161 -2.53966e-16)
(-0.014749 0.0133546 -4.89858e-17)
(-0.0155876 0.0180455 5.22077e-16)
(-0.0159887 0.0230826 -4.65731e-16)
(-0.016024 0.0286564 -1.59041e-15)
(-0.0154867 0.0339215 1.35004e-15)
(-0.0145138 0.0393149 -7.98493e-17)
(-0.0129714 0.044662 3.16012e-15)
(-0.0108373 0.0495289 1.12245e-15)
(-0.00814688 0.0543476 -3.59767e-15)
(-0.00492075 0.0587847 2.80029e-15)
(-0.00120043 0.0629814 4.93871e-15)
(0.00298478 0.06695 -8.64631e-16)
(0.00765137 0.0707871 -2.90469e-15)
(0.0128723 0.074646 2.16885e-15)
(0.0188487 0.0789018 9.36958e-16)
(0.025849 0.0842896 -2.75012e-15)
(0.0355484 0.0940166 -7.22502e-16)
(0.00097264 -0.00224896 -4.31686e-17)
(-0.00172554 -0.00197688 3.19808e-16)
(-0.004551 -0.000904903 7.59983e-16)
(-0.00739294 0.00124847 -9.38401e-16)
(-0.00946596 0.00388108 -3.72478e-17)
(-0.0111536 0.00709084 2.51432e-16)
(-0.0124471 0.0111722 4.62128e-16)
(-0.0129846 0.015359 -8.03212e-16)
(-0.013118 0.0198317 -2.66663e-17)
(-0.0128826 0.0248092 -4.52532e-16)
(-0.0121483 0.0295676 -1.62811e-15)
(-0.0110712 0.0344165 -1.34191e-15)
(-0.00948702 0.0392272 -1.15627e-15)
(-0.00739123 0.0436119 6.30997e-16)
(-0.00482167 0.0478975 5.41325e-16)
(-0.00173631 0.0518153 -5.55431e-15)
(0.00177017 0.0554434 2.27292e-15)
(0.0056944 0.0587812 3.73939e-16)
(0.0100714 0.0619474 -4.54874e-15)
(0.0149313 0.0650561 1.07546e-15)
(0.0204799 0.0684684 2.1768e-15)
(0.0269426 0.0728449 -8.71647e-16)
(0.0359962 0.0808394 -1.84407e-16)
(0.000947763 -0.0027274 -1.22357e-16)
(-0.00144867 -0.0024629 -2.61653e-16)
(-0.00390921 -0.00152025 -5.70318e-16)
(-0.00636345 0.000287355 4.15808e-16)
(-0.00814914 0.00254942 -2.1259e-16)
(-0.00957598 0.00537101 9.54727e-17)
(-0.0106222 0.00892426 1.51049e-16)
(-0.0109511 0.0125746 -1.07889e-16)