/*--------------------------------*- C++ -*----------------------------------*\
| =========                 |                                                 |
| \\      /  F ield         | OpenFOAM: The Open Source CFD Toolbox           |
|  \\    /   O peration     | Version:  2506                                  |
|   \\  /    A nd           | Website:  www.openfoam.com                      |
|    \\/     M anipulation  |                                                 |
\*---------------------------------------------------------------------------*/
FoamFile
{
    version     2.0;
    format      ascii;
    arch        "LSB;label=32;scalar=64";
    class       volScalarField;
    location    "50";
    object      nut;
}
// * * * * * * * * * * * * * * * * * * * * * * * * * * * * * * * * * * * * * //

dimensions      [0 2 -1 0 0 0 0];

internalField   nonuniform List<scalar> 
1340
(
6.10843e-06
6.10768e-06
6.10696e-06
6.1053e-06
6.10463e-06
6.10407e-06
6.10345e-06
6.10271e-06
6.10244e-06
6.10185e-06
6.10136e-06
6.1008e-06
6.10026e-06
6.10007e-06
6.10006e-06
6.1e-06
6.09944e-06
6.09898e-06
6.09843e-06
6.09788e-06
6.09773e-06
6.09788e-06
6.09807e-06
6.09808e-06
6.09749e-06
6.09701e-06
6.0964e-06
6.09584e-06
6.09567e-06
6.09574e-06
6.09594e-06
6.0961e-06
6.0967e-06
6.09603e-06
6.09546e-06
6.09477e-06
6.09415e-06
6.09391e-06
6.0939e-06
6.09398e-06
6.0942e-06
6.09581e-06
6.09501e-06
6.09433e-06
6.09355e-06
6.09286e-06
6.09254e-06
6.09244e-06
6.09244e-06
6.09257e-06
6.09283e-06
6.09529e-06
6.09436e-06
6.09359e-06
6.09275e-06
6.092e-06
6.09161e-06
6.09144e-06
6.09137e-06
6.09141e-06
6.0916e-06
6.09183e-06
6.09501e-06
6.09399e-06
6.09317e-06
6.0923e-06
6.09154e-06
6.09112e-06
6.09089e-06
6.09076e-06
6.09074e-06
6.09079e-06
6.09101e-06
6.09484e-06
6.09378e-06
6.09298e-06
6.09214e-06
6.09141e-06
6.09098e-06
6.0907e-06
6.09051e-06
6.09044e-06
6.09042e-06
6.09048e-06
6.09061e-06
6.0947e-06
6.09365e-06
6.0929e-06
6.09212e-06
6.09144e-06
6.09101e-06
6.09071e-06
6.09049e-06
6.09037e-06
6.09031e-06
6.09027e-06
6.09035e-06
6.09457e-06
6.09352e-06
6.09284e-06
6.09214e-06
6.09151e-06
6.09109e-06
6.09079e-06
6.09055e-06
6.09042e-06
6.09034e-06
6.09026e-06
6.09021e-06
6.09023e-06
6.09446e-06
6.09339e-06
6.09277e-06
6.09214e-06
6.09157e-06
6.09118e-06
6.0909e-06
6.09068e-06
6.09056e-06
6.09048e-06
6.09039e-06
6.09028e-06
6.09027e-06
6.09441e-06
6.09331e-06
6.09273e-06
6.09218e-06
6.09167e-06
6.09133e-06
6.09107e-06
6.09089e-06
6.09079e-06
6.09073e-06
6.09065e-06
6.09053e-06
6.09039e-06
6.09033e-06
6.09448e-06
6.09337e-06
6.09284e-06
6.09235e-06
6.09188e-06
6.09158e-06
6.09135e-06
6.09119e-06
6.09112e-06
6.09106e-06
6.09099e-06
6.09087e-06
6.09068e-06
6.09061e-06
6.09472e-06
6.09363e-06
6.09315e-06
6.09269e-06
6.09224e-06
6.09194e-06
6.09171e-06
6.09156e-06
6.09149e-06
6.09145e-06
6.09138e-06
6.09127e-06
6.0911e-06
6.09093e-06
6.09507e-06
6.09407e-06
6.09363e-06
6.09317e-06
6.09271e-06
6.09239e-06
6.09214e-06
6.09197e-06
6.0919e-06
6.09185e-06
6.09179e-06
6.09168e-06
6.09152e-06
6.09127e-06
6.09111e-06
6.09547e-06
6.0946e-06
6.0942e-06
6.09372e-06
6.09324e-06
6.09289e-06
6.09261e-06
6.09244e-06
6.09235e-06
6.09229e-06
6.09222e-06
6.09211e-06
6.09195e-06
6.09172e-06
6.09155e-06
6.09579e-06
6.09508e-06
6.09473e-06
6.09426e-06
6.09378e-06
6.09343e-06
6.09315e-06
6.09297e-06
6.09287e-06
6.09279e-06
6.09271e-06
6.0926e-06
6.09244e-06
6.09223e-06
6.09199e-06
6.09593e-06
6.0954e-06
6.09514e-06
6.09473e-06
6.09431e-06
6.094e-06
6.09375e-06
6.09357e-06
6.09347e-06
6.09338e-06
6.09329e-06
6.09317e-06
6.093e-06
6.09279e-06
6.09249e-06
6.09228e-06
6.09583e-06
6.09547e-06
6.09534e-06
6.09506e-06
6.09476e-06
6.09455e-06
6.09436e-06
6.09422e-06
6.09413e-06
6.09405e-06
6.09395e-06
6.09382e-06
6.09365e-06
6.09344e-06
6.09317e-06
6.09291e-06
6.09553e-06
6.09532e-06
6.09536e-06
6.09525e-06
6.09511e-06
6.09503e-06
6.09494e-06
6.09487e-06
6.09483e-06
6.09477e-06
6.09469e-06
6.09456e-06
6.09439e-06
6.09418e-06
6.09392e-06
6.09359e-06
6.09525e-06
6.09512e-06
6.09504e-06
6.09525e-06
6.09531e-06
6.09534e-06
6.0954e-06
6.09544e-06
6.09547e-06
6.0955e-06
6.0955e-06
6.09545e-06
6.09535e-06
6.0952e-06
6.095e-06
6.09475e-06
6.09441e-06
6.09412e-06
6.09495e-06
6.09479e-06
6.09478e-06
6.0951e-06
6.09529e-06
6.09547e-06
6.09567e-06
6.09584e-06
6.09599e-06
6.09613e-06
6.09621e-06
6.09622e-06
6.09617e-06
6.09606e-06
6.09588e-06
6.09565e-06
6.09536e-06
6.09503e-06
6.09494e-06
6.09468e-06
6.09465e-06
6.09501e-06
6.09527e-06
6.09555e-06
6.09587e-06
6.09616e-06
6.09643e-06
6.09667e-06
6.09685e-06
6.09694e-06
6.09696e-06
6.09691e-06
6.09679e-06
6.0966e-06
6.09635e-06
6.09603e-06
6.09523e-06
6.09484e-06
6.09474e-06
6.09506e-06
6.09533e-06
6.09564e-06
6.09604e-06
6.09642e-06
6.09679e-06
6.09713e-06
6.09741e-06
6.0976e-06
6.09771e-06
6.09774e-06
6.09769e-06
6.09757e-06
6.09738e-06
6.09707e-06
6.0968e-06
6.09574e-06
6.09524e-06
6.09505e-06
6.09528e-06
6.0955e-06
6.0958e-06
6.09621e-06
6.09664e-06
6.09709e-06
6.09752e-06
6.09788e-06
6.09818e-06
6.09839e-06
6.09851e-06
6.09856e-06
6.09852e-06
6.0984e-06
6.09819e-06
6.09794e-06
6.09628e-06
6.09574e-06
6.09549e-06
6.09563e-06
6.09577e-06
6.09603e-06
6.09642e-06
6.09686e-06
6.09734e-06
6.09783e-06
6.09828e-06
6.09866e-06
6.09897e-06
6.0992e-06
6.09934e-06
6.09941e-06
6.09938e-06
6.09926e-06
6.0991e-06
6.09664e-06
6.09617e-06
6.09593e-06
6.09601e-06
6.0961e-06
6.0963e-06
6.09666e-06
6.09709e-06
6.09758e-06
6.0981e-06
6.0986e-06
6.09905e-06
6.09945e-06
6.09978e-06
6.10003e-06
6.1002e-06
6.10029e-06
6.10027e-06
6.1002e-06
6.09665e-06
6.09637e-06
6.09622e-06
6.09632e-06
6.0964e-06
6.09657e-06
6.0969e-06
6.09731e-06
6.09779e-06
6.09833e-06
6.09885e-06
6.09936e-06
6.09982e-06
6.10024e-06
6.10059e-06
6.10087e-06
6.10107e-06
6.10117e-06
6.10119e-06
6.09622e-06
6.09621e-06
6.09624e-06
6.09644e-06
6.09657e-06
6.09677e-06
6.0971e-06
6.0975e-06
6.09798e-06
6.09851e-06
6.09905e-06
6.09959e-06
6.10011e-06
6.10059e-06
6.10102e-06
6.1014e-06
6.10171e-06
6.10194e-06
6.10204e-06
6.10216e-06
6.0954e-06
6.09569e-06
6.09595e-06
6.09633e-06
6.09658e-06
6.09685e-06
6.09723e-06
6.09765e-06
6.09813e-06
6.09867e-06
6.09922e-06
6.09977e-06
6.10031e-06
6.10084e-06
6.10134e-06
6.1018e-06
6.1022e-06
6.10254e-06
6.10279e-06
6.10299e-06
6.09435e-06
6.09489e-06
6.0954e-06
6.09599e-06
6.0964e-06
6.0968e-06
6.09726e-06
6.09774e-06
6.09826e-06
6.09881e-06
6.09936e-06
6.09992e-06
6.10048e-06
6.10103e-06
6.10157e-06
6.10209e-06
6.10257e-06
6.10301e-06
6.10337e-06
6.10369e-06
6.09328e-06
6.09399e-06
6.09471e-06
6.09549e-06
6.09608e-06
6.09664e-06
6.09722e-06
6.09778e-06
6.09835e-06
6.09894e-06
6.09951e-06
6.10008e-06
6.10064e-06
6.1012e-06
6.10176e-06
6.10232e-06
6.10285e-06
6.10336e-06
6.10381e-06
6.10424e-06
6.09244e-06
6.0932e-06
6.09404e-06
6.09498e-06
6.09572e-06
6.09642e-06
6.09713e-06
6.09779e-06
6.09844e-06
6.09908e-06
6.09968e-06
6.10026e-06
6.10082e-06
6.10139e-06
6.10196e-06
6.10253e-06
6.10309e-06
6.10364e-06
6.10416e-06
6.10466e-06
6.09204e-06
6.0927e-06
6.09356e-06
6.09457e-06
6.0954e-06
6.09622e-06
6.09704e-06
6.0978e-06
6.09853e-06
6.09923e-06
6.09987e-06
6.10048e-06
6.10105e-06
6.10162e-06
6.10219e-06
6.10276e-06
6.10333e-06
6.1039e-06
6.10446e-06
6.10501e-06
6.10556e-06
6.09216e-06
6.09261e-06
6.09338e-06
6.09437e-06
6.09523e-06
6.0961e-06
6.09699e-06
6.09783e-06
6.09863e-06
6.09939e-06
6.10008e-06
6.10073e-06
6.10133e-06
6.1019e-06
6.10247e-06
6.10304e-06
6.10361e-06
6.10418e-06
6.10476e-06
6.10535e-06
6.10593e-06
6.0927e-06
6.09291e-06
6.09353e-06
6.09441e-06
6.09522e-06
6.09608e-06
6.09699e-06
6.09787e-06
6.09873e-06
6.09954e-06
6.10029e-06
6.10098e-06
6.10161e-06
6.10221e-06
6.10279e-06
6.10336e-06
6.10393e-06
6.10451e-06
6.10509e-06
6.10569e-06
6.1063e-06
6.09345e-06
6.09346e-06
6.0939e-06
6.09462e-06
6.09534e-06
6.09613e-06
6.09701e-06
6.09789e-06
6.09877e-06
6.09963e-06
6.10043e-06
6.10117e-06
6.10186e-06
6.1025e-06
6.10311e-06
6.10371e-06
6.10429e-06
6.10487e-06
6.10546e-06
6.10605e-06
6.10668e-06
6.09408e-06
6.094e-06
6.0943e-06
6.09488e-06
6.09548e-06
6.09619e-06
6.097e-06
6.09785e-06
6.09872e-06
6.0996e-06
6.10044e-06
6.10123e-06
6.10198e-06
6.10268e-06
6.10335e-06
6.10398e-06
6.1046e-06
6.10521e-06
6.10582e-06
6.10643e-06
6.10708e-06
6.09427e-06
6.09424e-06
6.09449e-06
6.09499e-06
6.0955e-06
6.09613e-06
6.09688e-06
6.09767e-06
6.09852e-06
6.09939e-06
6.10025e-06
6.10109e-06
6.1019e-06
6.10267e-06
6.1034e-06
6.10411e-06
6.1048e-06
6.10546e-06
6.10611e-06
6.10677e-06
6.10743e-06
6.10814e-06
6.09382e-06
6.094e-06
6.09432e-06
6.09481e-06
6.09531e-06
6.09589e-06
6.09658e-06
6.09732e-06
6.09813e-06
6.09899e-06
6.09985e-06
6.10071e-06
6.10157e-06
6.1024e-06
6.10321e-06
6.10401e-06
6.10477e-06
6.10552e-06
6.10625e-06
6.10697e-06
6.10769e-06
6.10844e-06
6.09269e-06
6.09321e-06
6.0937e-06
6.0943e-06
6.09484e-06
6.09543e-06
6.0961e-06
6.09681e-06
6.09758e-06
6.09841e-06
6.09925e-06
6.10012e-06
6.10099e-06
6.10187e-06
6.10275e-06
6.10362e-06
6.10447e-06
6.10531e-06
6.10614e-06
6.10695e-06
6.10776e-06
6.10859e-06
6.09108e-06
6.09196e-06
6.09272e-06
6.09349e-06
6.09416e-06
6.09482e-06
6.09551e-06
6.09621e-06
6.09695e-06
6.09773e-06
6.09854e-06
6.09938e-06
6.10025e-06
6.10113e-06
6.10204e-06
6.10296e-06
6.10389e-06
6.10482e-06
6.10574e-06
6.10666e-06
6.10758e-06
6.1085e-06
6.08926e-06
6.09048e-06
6.09153e-06
6.09253e-06
6.09336e-06
6.09414e-06
6.09489e-06
6.09561e-06
6.09634e-06
6.09708e-06
6.09784e-06
6.09862e-06
6.09945e-06
6.1003e-06
6.1012e-06
6.10214e-06
6.1031e-06
6.10408e-06
6.10508e-06
6.1061e-06
6.10712e-06
6.10814e-06
6.08756e-06
6.089e-06
6.09032e-06
6.09155e-06
6.09257e-06
6.09349e-06
6.09434e-06
6.0951e-06
6.09584e-06
6.09655e-06
6.09725e-06
6.09798e-06
6.09873e-06
6.09952e-06
6.10037e-06
6.10127e-06
6.10222e-06
6.10322e-06
6.10425e-06
6.10532e-06
6.10642e-06
6.10753e-06
6.08623e-06
6.08776e-06
6.08925e-06
6.09067e-06
6.09185e-06
6.09292e-06
6.09388e-06
6.09472e-06
6.09548e-06
6.09618e-06
6.09684e-06
6.0975e-06
6.09818e-06
6.09889e-06
6.09966e-06
6.10049e-06
6.10139e-06
6.10235e-06
6.10336e-06
6.10444e-06
6.10556e-06
6.10673e-06
6.08537e-06
6.08685e-06
6.08841e-06
6.08994e-06
6.09123e-06
6.09242e-06
6.09348e-06
6.09439e-06
6.0952e-06
6.09592e-06
6.09657e-06
6.09719e-06
6.09781e-06
6.09845e-06
6.09914e-06
6.09988e-06
6.10069e-06
6.10157e-06
6.10253e-06
6.10356e-06
6.10466e-06
6.10583e-06
6.10709e-06
6.08498e-06
6.08628e-06
6.08778e-06
6.08932e-06
6.09064e-06
6.09189e-06
6.09303e-06
6.09401e-06
6.09488e-06
6.09564e-06
6.09631e-06
6.09694e-06
6.09753e-06
6.09813e-06
6.09875e-06
6.09941e-06
6.10013e-06
6.10092e-06
6.10179e-06
6.10275e-06
6.10379e-06
6.10491e-06
6.10613e-06
6.08491e-06
6.08597e-06
6.08729e-06
6.08871e-06
6.08998e-06
6.09121e-06
6.09237e-06
6.0934e-06
6.09432e-06
6.09515e-06
6.09589e-06
6.09656e-06
6.09718e-06
6.09777e-06
6.09835e-06
6.09896e-06
6.09962e-06
6.10034e-06
6.10113e-06
6.10201e-06
6.10297e-06
6.10402e-06
6.10518e-06
6.08492e-06
6.08571e-06
6.08678e-06
6.088e-06
6.08913e-06
6.09026e-06
6.09138e-06
6.0924e-06
6.09337e-06
6.09427e-06
6.0951e-06
6.09585e-06
6.09653e-06
6.09716e-06
6.09776e-06
6.09837e-06
6.099e-06
6.09969e-06
6.10044e-06
6.10126e-06
6.10216e-06
6.10314e-06
6.10423e-06
6.08474e-06
6.08532e-06
6.08612e-06
6.08709e-06
6.08801e-06
6.08897e-06
6.08998e-06
6.09095e-06
6.09192e-06
6.09288e-06
6.09379e-06
6.09464e-06
6.0954e-06
6.09611e-06
6.09678e-06
6.09744e-06
6.09813e-06
6.09884e-06
6.0996e-06
6.10042e-06
6.1013e-06
6.10224e-06
6.10327e-06
6.08413e-06
6.0846e-06
6.08518e-06
6.08591e-06
6.08662e-06
6.08738e-06
6.08821e-06
6.08907e-06
6.08999e-06
6.09096e-06
6.09191e-06
6.09282e-06
6.09367e-06
6.09447e-06
6.09526e-06
6.09604e-06
6.09684e-06
6.09765e-06
6.0985e-06
6.09937e-06
6.10029e-06
6.10123e-06
6.10224e-06
6.08298e-06
6.08345e-06
6.08392e-06
6.08448e-06
6.08502e-06
6.08559e-06
6.08623e-06
6.08693e-06
6.08774e-06
6.08862e-06
6.08954e-06
6.09045e-06
6.09134e-06
6.09224e-06
6.09314e-06
6.09407e-06
6.09502e-06
6.096e-06
6.09699e-06
6.09799e-06
6.099e-06
6.10002e-06
6.10106e-06
6.08131e-06
6.08191e-06
6.0824e-06
6.08292e-06
6.08338e-06
6.08381e-06
6.08426e-06
6.08479e-06
6.08541e-06
6.08613e-06
6.08691e-06
6.08773e-06
6.0886e-06
6.08951e-06
6.09049e-06
6.09153e-06
6.09262e-06
6.09376e-06
6.09493e-06
6.0961e-06
6.09727e-06
6.09842e-06
6.09955e-06
6.07936e-06
6.08015e-06
6.08077e-06
6.08136e-06
6.08184e-06
6.08222e-06
6.08255e-06
6.08293e-06
6.08333e-06
6.08382e-06
6.08439e-06
6.08503e-06
6.08576e-06
6.08658e-06
6.0875e-06
6.08854e-06
6.08968e-06
6.09092e-06
6.09221e-06
6.09355e-06
6.09489e-06
6.09622e-06
6.09752e-06
6.09874e-06
6.07748e-06
6.07844e-06
6.07925e-06
6.07998e-06
6.08056e-06
6.08097e-06
6.08127e-06
6.08154e-06
6.08174e-06
6.08201e-06
6.08233e-06
6.08272e-06
6.08321e-06
6.08381e-06
6.08454e-06
6.08542e-06
6.08646e-06
6.08764e-06
6.08896e-06
6.09037e-06
6.09184e-06
6.09332e-06
6.0948e-06
6.09618e-06
6.07596e-06
6.07701e-06
6.07798e-06
6.07885e-06
6.07954e-06
6.08005e-06
6.0804e-06
6.08064e-06
6.08072e-06
6.08084e-06
6.08095e-06
6.08108e-06
6.08129e-06
6.08159e-06
6.08202e-06
6.08261e-06
6.08339e-06
6.08437e-06
6.08555e-06
6.0869e-06
6.08838e-06
6.08994e-06
6.09153e-06
6.09307e-06
6.07515e-06
6.07617e-06
6.07716e-06
6.07809e-06
6.07883e-06
6.07941e-06
6.07983e-06
6.08007e-06
6.08011e-06
6.08011e-06
6.08005e-06
6.08002e-06
6.08006e-06
6.08016e-06
6.08035e-06
6.08067e-06
6.08117e-06
6.08189e-06
6.08284e-06
6.08402e-06
6.0854e-06
6.08692e-06
6.08856e-06
6.09023e-06
6.0747e-06
6.07563e-06
6.07657e-06
6.07747e-06
6.07821e-06
6.07881e-06
6.07927e-06
6.07953e-06
6.07957e-06
6.07951e-06
6.07941e-06
6.07937e-06
6.07936e-06
6.07936e-06
6.07938e-06
6.07947e-06
6.0797e-06
6.08013e-06
6.08078e-06
6.08169e-06
6.08284e-06
6.08419e-06
6.08575e-06
6.08742e-06
6.07455e-06
6.07534e-06
6.07615e-06
6.07692e-06
6.07756e-06
6.07809e-06
6.07851e-06
6.07873e-06
6.07879e-06
6.07866e-06
6.07862e-06
6.07866e-06
6.07872e-06
6.07873e-06
6.0787e-06
6.07866e-06
6.0787e-06
6.07886e-06
6.07922e-06
6.07979e-06
6.0806e-06
6.08164e-06
6.08291e-06
6.08437e-06
6.07432e-06
6.075e-06
6.07566e-06
6.07628e-06
6.07677e-06
6.07716e-06
6.07747e-06
6.07757e-06
6.0776e-06
6.07731e-06
6.07737e-06
6.07759e-06
6.0778e-06
6.07794e-06
6.07797e-06
6.07794e-06
6.0779e-06
6.07792e-06
6.07807e-06
6.07837e-06
6.07887e-06
6.07959e-06
6.08053e-06
6.08166e-06
6.07395e-06
6.07455e-06
6.07509e-06
6.07556e-06
6.07589e-06
6.0761e-06
6.07623e-06
6.07614e-06
6.07607e-06
6.07552e-06
6.07564e-06
6.07601e-06
6.07642e-06
6.07674e-06
6.07693e-06
6.07701e-06
6.07703e-06
6.07703e-06
6.07708e-06
6.07722e-06
6.07749e-06
6.07793e-06
6.07853e-06
6.0793e-06
6.07343e-06
6.07399e-06
6.07444e-06
6.07478e-06
6.07497e-06
6.07501e-06
6.07494e-06
6.07465e-06
6.07443e-06
6.07357e-06
6.07365e-06
6.0741e-06
6.07464e-06
6.07512e-06
6.07548e-06
6.07572e-06
6.07586e-06
6.07595e-06
6.07602e-06
6.07611e-06
6.07626e-06
6.07648e-06
6.0768e-06
6.07724e-06
6.07284e-06
6.07335e-06
6.07374e-06
6.07399e-06
6.07406e-06
6.07396e-06
6.07372e-06
6.07327e-06
6.07289e-06
6.0718e-06
6.07177e-06
6.07216e-06
6.07271e-06
6.07324e-06
6.0737e-06
6.07407e-06
6.07436e-06
6.07457e-06
6.07474e-06
6.07486e-06
6.07497e-06
6.07507e-06
6.07521e-06
6.0754e-06
6.07222e-06
6.07269e-06
6.07303e-06
6.07321e-06
6.0732e-06
6.07301e-06
6.07265e-06
6.07211e-06
6.07159e-06
6.07042e-06
6.07025e-06
6.07051e-06
6.07094e-06
6.0714e-06
6.07183e-06
6.07223e-06
6.07259e-06
6.0729e-06
6.07315e-06
6.07334e-06
6.07347e-06
6.07356e-06
6.07363e-06
6.07368e-06
6.07374e-06
6.07158e-06
6.07201e-06
6.07231e-06
6.07244e-06
6.07238e-06
6.07213e-06
6.07171e-06
6.07115e-06
6.07054e-06
6.06944e-06
6.06919e-06
6.06931e-06
6.06956e-06
6.06985e-06
6.07016e-06
6.07047e-06
6.07079e-06
6.07109e-06
6.07137e-06
6.07162e-06
6.07182e-06
6.07196e-06
6.07205e-06
6.07208e-06
6.07204e-06
6.07091e-06
6.07129e-06
6.07155e-06
6.07164e-06
6.07155e-06
6.07128e-06
6.07086e-06
6.07032e-06
6.06971e-06
6.06875e-06
6.06851e-06
6.06852e-06
6.06861e-06
6.06873e-06
6.06887e-06
6.06905e-06
6.06926e-06
6.06951e-06
6.06977e-06
6.07002e-06
6.07025e-06
6.07043e-06
6.07054e-06
6.07054e-06
6.07049e-06
6.07018e-06
6.07048e-06
6.07068e-06
6.07074e-06
6.07063e-06
6.07038e-06
6.07e-06
6.06954e-06
6.069e-06
6.06825e-06
6.06804e-06
6.06802e-06
6.06803e-06
6.06804e-06
6.06805e-06
6.06808e-06
6.06815e-06
6.06826e-06
6.0684e-06
6.06856e-06
6.06871e-06
6.06885e-06
6.06897e-06
6.0691e-06
6.06926e-06
6.0693e-06
6.0695e-06
6.06962e-06
6.06964e-06
6.06955e-06
6.06935e-06
6.06906e-06
6.06872e-06
6.06834e-06
6.06787e-06
6.06775e-06
6.06774e-06
6.06779e-06
6.06784e-06
6.06789e-06
6.06792e-06
6.06793e-06
6.06792e-06
6.06791e-06
6.06793e-06
6.068e-06
6.06816e-06
6.06842e-06
6.06879e-06
6.06929e-06
6.06823e-06
6.0683e-06
6.06834e-06
6.06833e-06
6.06829e-06
6.0682e-06
6.06808e-06
6.06794e-06
6.0678e-06
6.06767e-06
6.06766e-06
6.06772e-06
6.06784e-06
6.06807e-06
6.06841e-06
6.06883e-06
6.06931e-06
6.0698e-06
6.07028e-06
6.07073e-06
6.07115e-06
6.07157e-06
6.07201e-06
6.07249e-06
6.07305e-06
)
;

boundaryField
{
    inlet
    {
        type            freestream;
        freestreamValue uniform 1e-05;
        value           nonuniform List<scalar> 
25
(
1e-05
1e-05
1e-05
1e-05
1e-05
1e-05
1e-05
1e-05
1e-05
1e-05
6.06766e-06
6.06772e-06
6.06784e-06
6.06807e-06
6.06841e-06
6.06883e-06
6.06931e-06
6.0698e-06
6.07028e-06
6.07073e-06
6.07115e-06
6.07157e-06
6.07201e-06
6.07249e-06
6.07305e-06
)
;
    }
    outlet
    {
        type            freestream;
        freestreamValue nonuniform List<scalar> 0();
        value           nonuniform List<scalar> 0();
    }
    walls
    {
        type            nutUSpaldingWallFunction;
        value           nonuniform List<scalar> 0();
    }
    frontAndBack
    {
        type            empty;
    }
    procBoundary4to0
    {
        type            processor;
        value           nonuniform List<scalar> 
72
(
6.10734e-06
6.10428e-06
6.10154e-06
6.09929e-06
6.09762e-06
6.09655e-06
6.09595e-06
6.09566e-06
6.09555e-06
6.09551e-06
6.09548e-06
6.09546e-06
6.0955e-06
6.09563e-06
6.09587e-06
6.09618e-06
6.09651e-06
6.09675e-06
6.0968e-06
6.09663e-06
6.09624e-06
6.09574e-06
6.09574e-06
6.09507e-06
6.09503e-06
6.09532e-06
6.09585e-06
6.09644e-06
6.09686e-06
6.0969e-06
6.09646e-06
6.09558e-06
6.09441e-06
6.09318e-06
6.09218e-06
6.09165e-06
6.09169e-06
6.09227e-06
6.09315e-06
6.094e-06
6.09442e-06
6.09414e-06
6.09307e-06
6.09135e-06
6.08928e-06
6.08726e-06
6.08562e-06
6.08455e-06
6.0841e-06
6.08413e-06
6.0844e-06
6.08458e-06
6.08437e-06
6.08353e-06
6.08202e-06
6.08e-06
6.07783e-06
6.07595e-06
6.07463e-06
6.07408e-06
6.07387e-06
6.07385e-06
6.07365e-06
6.07328e-06
6.07279e-06
6.07223e-06
6.07164e-06
6.07105e-06
6.07044e-06
6.06979e-06
6.06903e-06
6.06814e-06
)
;
    }
    procBoundary4to5
    {
        type            processor;
        value           nonuniform List<scalar> 
95
(
6.11131e-06
6.11068e-06
6.11001e-06
6.1065e-06
6.1065e-06
6.10553e-06
6.10272e-06
6.10272e-06
6.10263e-06
6.10071e-06
6.10071e-06
6.0988e-06
6.0988e-06
6.0972e-06
6.0948e-06
6.0948e-06
6.09349e-06
6.09349e-06
6.09261e-06
6.09132e-06
6.09132e-06
6.09102e-06
6.0904e-06
6.0904e-06
6.09036e-06
6.09013e-06
6.09013e-06
6.09031e-06
6.09033e-06
6.09058e-06
6.09058e-06
6.09091e-06
6.09115e-06
6.09156e-06
6.09156e-06
6.09196e-06
6.0924e-06
6.09307e-06
6.09307e-06
6.09365e-06
6.09441e-06
6.09543e-06
6.09543e-06
6.09622e-06
6.0973e-06
6.09854e-06
6.09979e-06
6.10101e-06
6.10101e-06
6.10198e-06
6.10297e-06
6.10383e-06
6.10453e-06
6.10508e-06
6.10508e-06
6.10604e-06
6.10647e-06
6.10687e-06
6.10727e-06
6.10768e-06
6.10768e-06
6.10891e-06
6.10927e-06
6.10951e-06
6.10954e-06
6.1093e-06
6.10878e-06
6.10802e-06
6.10802e-06
6.10848e-06
6.10747e-06
6.10643e-06
6.10538e-06
6.10435e-06
6.10329e-06
6.10214e-06
6.10075e-06
6.10075e-06
6.09994e-06
6.09757e-06
6.09463e-06
6.09193e-06
6.08914e-06
6.08589e-06
6.08288e-06
6.08018e-06
6.07778e-06
6.07566e-06
6.07566e-06
6.07387e-06
6.07198e-06
6.07049e-06
6.06946e-06
6.06991e-06
6.07367e-06
)
;
    }
}


// ************************************************************************* //
