/*--------------------------------*- C++ -*----------------------------------*\
| =========                 |                                                 |
| \\      /  F ield         | OpenFOAM: The Open Source CFD Toolbox           |
|  \\    /   O peration     | Version:  2506                                  |
|   \\  /    A nd           | Website:  www.openfoam.com                      |
|    \\/     M anipulation  |                                                 |
\*---------------------------------------------------------------------------*/
FoamFile
{
    version     2.0;
    format      ascii;
    arch        "LSB;label=32;scalar=64";
    class       volScalarField;
    location    "50";
    object      p;
}
// * * * * * * * * * * * * * * * * * * * * * * * * * * * * * * * * * * * * * //

dimensions      [0 2 -2 0 0 0 0];

internalField   nonuniform List<scalar> 
1340
(
123.717
105.92
85.7182
116.097
99.6236
80.9566
61.1252
39.2291
108.831
93.5159
76.194
57.8691
37.6558
16.1096
-6.25614
101.942
87.6525
71.5188
54.5203
35.7931
15.8649
-4.78472
-26.2057
95.4386
82.0632
66.9892
51.1697
33.7635
15.2736
-3.844
-23.659
-43.8663
89.3143
76.7619
62.6401
47.8757
31.6513
14.4506
-3.29576
-21.669
-40.3894
83.5582
71.7513
58.4923
44.6779
29.5186
13.4786
-3.03251
-20.1043
-37.479
-55.0186
78.1543
67.0277
54.555
41.6014
27.4077
12.4178
-2.97563
-18.8684
-35.0236
-51.3173
-67.7326
73.0853
62.5843
50.8303
38.663
25.3479
11.3141
-3.06444
-17.885
-32.9286
-48.086
-63.353
68.3331
58.4085
47.3178
35.87
23.3604
10.2002
-3.25112
-17.0946
-31.123
-45.2407
-59.4527
-73.6505
63.8805
54.4898
44.0116
33.2274
21.458
9.10044
-3.50227
-16.4503
-29.5496
-42.7127
-55.9557
-69.1816
59.7093
50.8156
40.9065
30.7353
19.6497
8.03176
-3.78995
-15.9157
-28.1609
-40.448
-52.7983
-65.1267
-77.3944
55.804
47.3738
37.9947
28.393
17.941
7.00732
-4.09421
-15.4603
-26.9197
-38.3996
-49.9268
-61.4261
-72.8677
52.1486
44.153
35.2701
26.1968
16.3342
6.03555
-4.39839
-15.0639
-25.7961
-36.5307
-47.2968
-58.028
-68.702
-79.2857
48.7285
41.1417
32.7235
24.1443
14.8311
5.12277
-4.69207
-14.7064
-24.767
-34.8119
-44.8732
-54.8916
-64.8518
-74.7286
45.5292
38.3274
30.3467
22.2301
13.4299
4.27315
-4.96469
-14.3756
-23.8116
-33.2167
-42.6242
-51.981
-61.2775
-70.4951
42.536
35.6984
28.1295
20.448
12.1295
3.48814
-5.21199
-14.0592
-22.9148
-31.7259
-40.5251
-49.2665
-57.945
-66.5443
-75.0218
39.7355
33.2426
26.064
18.7921
10.9258
2.76839
-5.42789
-13.7503
-22.064
-30.3212
-38.5553
-46.7238
-54.8249
-62.8488
-70.7553
37.1161
30.9505
24.1409
17.2555
9.81627
2.1135
-5.61185
-13.4413
-21.2496
-28.9909
-36.6975
-44.3316
-51.8947
-59.3781
-66.7515
34.6682
28.8122
22.3532
15.8326
8.79514
1.52138
-5.76008
-13.1294
-20.4642
-27.7218
-34.9368
-42.0722
-49.1314
-56.1119
-62.9819
-69.7104
32.3793
26.8194
20.6916
14.5167
7.86022
0.990296
-5.87458
-12.8094
-19.7006
-26.5071
-33.2609
-39.9302
-46.5193
-53.0263
-59.4285
-65.6929
30.2394
24.9607
19.1498
13.302
7.00492
0.517149
-5.95364
-12.4819
-18.9561
-25.338
-31.6611
-37.894
-44.0423
-50.1083
-56.0677
-61.8991
32.495
28.2395
23.2295
17.7187
12.182
6.22676
0.0995637
-6.00121
-12.1441
-18.2265
-24.2116
-30.1293
-35.9534
-41.6894
-47.3394
-52.8882
-58.3072
-63.5635
30.4141
26.3727
21.6168
16.3929
11.1514
5.51925
-0.265852
-6.0151
-11.7973
-17.5102
-23.1206
-28.6594
-34.0999
-39.4491
-44.7121
-49.8701
-54.9071
-59.7833
28.4666
24.6294
20.1171
15.1647
10.2042
4.8799
-0.58169
-6.00084
-11.4393
-16.8048
-22.0645
-27.2458
-32.3265
-37.3137
-42.2106
-47.0072
-51.6796
-56.2027
26.6447
23.0026
18.7215
14.0293
9.33553
4.30234
-0.852071
-5.95657
-11.0738
-16.111
-21.0386
-25.8854
-30.6282
-35.2746
-39.8315
-44.2832
-48.6191
-52.8041
-56.8018
24.9397
21.4841
17.4249
12.9791
8.53956
3.78444
-1.07915
-5.88812
-10.6988
-15.4268
-20.0437
-24.5744
-28.9998
-33.3276
-37.5618
-41.6958
-45.7093
-49.5826
-53.2731
23.3451
20.0676
16.2191
12.0099
7.81191
3.3196
-1.26731
-5.7942
-10.3179
-14.7539
-19.0758
-23.3108
-27.4379
-31.4654
-35.4009
-39.2307
-42.9483
-46.5235
-49.9276
21.8532
18.746
15.0997
11.1145
7.14694
2.90602
-1.41902
-5.68094
-9.92995
-14.0907
-18.1371
-22.0922
-25.9394
-29.6864
-33.3375
-36.8886
-40.322
-43.6233
-46.7545
20.4584
17.5136
14.0592
10.2894
6.5405
2.53735
-1.53841
-5.54674
-9.5394
-13.4397
-17.2243
-20.9178
-24.5019
-27.9846
-31.3736
-34.6569
-37.8311
-40.8697
-43.7509
19.1538
16.3643
13.0942
9.52791
5.98764
2.21188
-1.6278
-5.39831
-9.14503
-12.8
-16.34
-19.7858
-23.1231
-26.3594
-29.4985
-32.5382
-35.4631
-38.263
-40.9041
-43.3582
17.9346
15.2932
12.1978
8.82708
5.4848
1.92369
-1.69121
-5.2341
-8.75143
-12.1743
-15.4817
-18.6964
-21.8019
-24.8057
-27.7158
-30.521
-33.2204
-35.7903
-38.2135
-40.4556
16.7945
14.2947
11.3671
8.18107
5.02756
1.67171
-1.73061
-5.06035
-8.35775
-11.562
-14.6527
-17.6484
-20.5366
-23.3245
-26.0157
-28.6091
-31.0911
-33.4541
-35.6694
-37.7147
15.729
13.3643
10.5958
7.58737
4.61294
1.45064
-1.74971
-4.87535
-7.96802
-10.9658
-13.8502
-16.642
-19.3265
-21.9108
-24.4024
-26.7918
-29.0787
-31.2428
-33.2711
-35.131
14.7324
12.4969
9.88121
7.0405
4.23671
1.25954
-1.74989
-4.68475
-7.58117
-10.3848
-13.0776
-15.6764
-18.1704
-20.5661
-22.8672
-25.0731
-27.1722
-29.159
-31.0081
-32.7026
13.8005
11.6882
9.21743
6.53803
3.89611
1.09344
-1.73454
-4.48683
-7.20104
-9.82158
-12.3322
-14.7517
-17.0676
-19.2859
-21.4141
-23.4436
-25.3752
-27.1915
-28.8819
-30.4194
-31.7824
12.9287
10.934
8.60222
6.07492
3.58722
0.951393
-1.70522
-4.28712
-6.82661
-9.27513
-11.6169
-13.8671
-16.0166
-18.0714
-20.0348
-21.9068
-23.6777
-25.3432
-26.8822
-28.2809
-29.5118
12.114
10.231
8.03047
5.64918
3.3075
0.82864
-1.66525
-4.0841
-6.46152
-8.74797
-10.9293
-13.0226
-15.017
-16.9181
-18.7327
-20.4539
-22.0823
-23.604
-25.01
-26.2788
-27.3918
11.3528
9.57573
7.50077
5.25663
3.05368
0.724591
-1.616
-3.88294
-6.10511
-8.23945
-10.2723
-12.2175
-14.0672
-15.8271
-17.5004
-19.0874
-20.5802
-21.9753
-23.2556
-24.4102
-25.4151
10.6426
8.966
7.00912
4.89613
2.82409
0.635468
-1.55995
-3.68192
-5.76052
-7.75187
-9.64389
-11.452
-13.167
-14.7944
-16.3404
-17.7994
-19.1724
-20.4478
-21.6185
-22.6669
-23.5784
9.9802
8.39882
6.55453
4.56441
2.6163
0.561261
-1.49775
-3.48515
-5.42677
-7.28446
-9.04642
-10.7255
-12.3151
-13.8209
-15.2462
-16.5916
-17.8509
-19.0215
-20.0895
-21.046
-21.8722
-22.5528
9.36309
7.87191
6.13345
4.26058
2.42915
0.499135
-1.43115
-3.2906
-5.10599
-6.8385
-8.47777
-10.0378
-11.5111
-12.9031
-14.2198
-15.4571
-16.6162
-17.6881
-18.6673
-19.539
-20.2924
-20.9084
8.78776
7.38215
5.7446
3.98156
2.26054
0.44921
-1.36035
-3.10122
-4.79655
-6.41251
-7.93903
-9.38776
-10.7535
-12.0414
-13.2556
-14.397
-15.4613
-16.4469
-17.3429
-18.1422
-18.8294
-19.3912
8.25157
6.92715
5.38454
3.72624
2.10913
0.408821
-1.28682
-2.91504
-4.49981
-6.00695
-7.42752
-8.77413
-10.0405
-11.232
-12.3544
-13.4051
-14.386
-15.2904
-16.1145
-16.8465
-17.4777
-17.9917
7.75147
6.50406
5.05193
3.49173
1.97278
0.377772
-1.21108
-2.73482
-4.21446
-5.62018
-6.94345
-8.19486
-9.36995
-10.4737
-11.5102
-12.4811
-13.3834
-14.2171
-14.974
-15.6487
-16.2288
-16.7033
7.28508
6.11076
4.74371
3.27687
1.85013
0.353464
-1.1348
-2.55937
-3.94193
-5.25273
-6.48443
-7.64841
-8.73939
-9.76224
-10.7225
-11.6184
-12.4524
-13.22
-13.9189
-14.5402
-15.0775
-15.5168
6.84992
5.74479
4.45874
3.07929
1.73943
0.335589
-1.05865
-2.39137
-3.68171
-4.90385
-6.05102
-7.13313
-8.14652
-9.09586
-9.98498
-10.8155
-11.5858
-12.2965
-12.9415
-13.5178
-14.0154
-14.4264
6.44432
5.40462
4.19466
2.89816
1.6397
0.322252
-0.983878
-2.22993
-3.43533
-4.57454
-5.64195
-6.6484
-7.58984
-8.47095
-9.29677
-10.0661
-10.7813
-11.4391
-12.0386
-12.5729
-13.0378
-13.4223
-13.7187
6.06654
5.0885
3.95069
2.73173
1.54974
0.313584
-0.910549
-2.07675
-3.20209
-4.26421
-5.25815
-6.19366
-7.06831
-7.88684
-8.65306
-9.36859
-10.0323
-10.6451
-11.2023
-11.702
-12.1365
-12.5001
-12.7817
5.71524
4.79522
3.72498
2.57936
1.46896
0.308415
-0.839086
-1.93033
-2.98237
-3.9731
-4.89841
-5.76866
-6.58128
-7.34133
-8.05378
-8.71818
-9.33694
-9.90745
-10.4292
-10.8968
-11.3071
-11.6513
-11.9219
5.38904
4.52335
3.51681
2.43957
1.39631
0.306901
-0.769166
-1.79139
-2.77479
-3.69977
-4.5625
-5.3722
-6.12761
-6.8339
-7.49531
-8.11405
-8.68987
-9.22379
-9.71207
-10.1534
-10.541
-10.8701
-11.1306
5.08688
4.27217
3.32499
2.31201
1.3314
0.308138
-0.701061
-1.65854
-2.57909
-3.44345
-4.24812
-5.00249
-5.70517
-6.36146
-6.97672
-7.55165
-8.08932
-8.58808
-9.04783
-9.46397
-9.83373
-10.1489
-10.4022
4.80769
4.04074
3.14926
2.19599
1.27383
0.312618
-0.634285
-1.53213
-2.39385
-3.20229
-3.95383
-4.65679
-5.31085
-5.92136
-6.49295
-7.02869
-7.52962
-7.99754
-8.42968
-8.82509
-9.17764
-9.48222
-9.72895
4.55025
3.82828
2.98874
2.0914
1.22367
0.320146
-0.568618
-1.41067
-2.21821
-2.97477
-3.67654
-4.33203
-4.94107
-5.50885
-6.04088
-6.53912
-7.00748
-7.44563
-7.85419
-8.22954
-8.56865
-8.86348
-9.10576
4.31357
3.63343
2.84247
1.99704
1.18019
0.330675
-0.503758
-1.29404
-2.05017
-2.75822
-3.41329
-4.02416
-4.59167
-5.12014
-5.6144
-6.07888
-6.51596
-6.92813
-7.31407
-7.67306
-7.99976
-8.28704
-8.52702
4.09731
3.45576
2.70964
1.91246
1.14299
0.343664
-0.439756
-1.18102
-1.88851
-2.55066
-3.16011
-3.72877
-4.25818
-4.7501
-5.20955
-5.64107
-6.04996
-6.43713
-6.80398
-7.14803
-7.4648
-7.74729
-7.98596
-8.16988
3.90248
3.29655
2.59215
1.83982
1.11449
0.36214
-0.373784
-1.06948
-1.73066
-2.3483
-2.91504
-3.44461
-3.93932
-4.3974
-4.82281
-5.22313
-5.60342
-5.96762
-6.31608
-6.64792
-6.95806
-7.23821
-7.47841
-7.66605
3.72756
3.15538
2.49083
1.78121
1.09805
0.390046
-0.300779
-0.954035
-1.57138
-2.14666
-2.67486
-3.17217
-3.63662
-4.06191
-4.45462
-4.82319
-5.17497
-5.51431
-5.84518
-6.16636
-6.47232
-6.75346
-6.99887
-7.19314
3.59274
3.04725
2.4133
1.73834
1.09005
0.419997
-0.22772
-0.838044
-1.40233
-1.93612
-2.39999
-2.87713
-3.33219
-3.73829
-4.11093
-4.46159
-4.79507
-5.11912
-5.43984
-5.75797
-6.06662
-6.35527
-6.61013
-6.81571
3.48659
2.96341
2.35538
1.70994
1.09263
0.457807
-0.148824
-0.715535
-1.2234
-1.71859
-2.10257
-2.57136
-3.03021
-3.42521
-3.7868
-4.12844
-4.45231
-4.76674
-5.08269
-5.40164
-5.71632
-6.01416
-6.28079
-6.49809
3.38211
2.88151
2.30025
1.68579
1.10071
0.502411
-0.0633029
-0.587762
-1.04448
-1.50574
-1.81436
-2.27164
-2.73202
-3.11526
-3.46406
-3.79562
-4.10762
-4.40997
-4.71687
-5.03304
-5.35081
-5.65649
-5.93307
-6.16253
3.27848
2.80067
2.24652
1.66349
1.11125
0.550096
0.0244857
-0.459114
-0.870882
-1.29938
-1.54069
-1.98146
-2.43821
-2.80865
-3.14344
-3.46255
-3.76156
-4.04912
-4.34381
-4.65283
-4.96988
-5.27951
-5.56473
-5.80516
3.17603
2.72071
2.19305
1.64063
1.12023
0.595568
0.108572
-0.335628
-0.707641
-1.10182
-1.28466
-1.70328
-2.14957
-2.50506
-2.82381
-3.12897
-3.41362
-3.68603
-3.96595
-4.26426
-4.57555
-4.88556
-5.17528
-5.42487
3.07489
2.64171
2.13911
1.61488
1.12358
0.632891
0.181795
-0.224338
-0.559944
-0.915747
-1.04821
-1.43835
-1.86557
-2.20228
-2.50306
-2.79251
-3.06332
-3.32105
-3.58615
-3.87095
-4.17279
-4.47757
-4.7669
-5.01911
2.9761
2.56378
2.08386
1.58425
1.11786
0.656799
0.237714
-0.131996
-0.432522
-0.743715
-0.832909
-1.18716
-1.58559
-1.89852
-2.1785
-2.45133
-2.70895
-2.95447
-3.20565
-3.47605
-3.76504
-4.06049
-4.34368
-4.59576
2.88071
2.4869
2.02632
1.54684
1.10071
0.664414
0.273396
-0.0611287
-0.326392
-0.586925
-0.639384
-0.949845
-1.30942
-1.59311
-1.84947
-2.10406
-2.34967
-2.58554
-2.82543
-3.08139
-3.35331
-3.62936
-3.8934
-4.12588
-4.31779
2.79044
2.41224
1.96756
1.50424
1.07449
0.658931
0.293051
-0.0074406
-0.238158
-0.445935
-0.467566
-0.72623
-1.03787
-1.28783
-1.51807
-1.7523
-1.98454
-2.21209
-2.44401
-2.68883
-2.94614
-3.20813
-3.4618
-3.6937
-3.89174
2.70867
2.34395
1.91297
1.46334
1.0475
0.649411
0.305253
0.0338319
-0.168072
-0.325347
-0.319005
-0.518412
-0.773403
-0.985941
-1.18939
-1.40222
-1.61822
-1.83216
-2.0468
-2.26525
-2.4857
-2.69894
-2.89431
-3.05949
-3.19565
2.64176
2.28537
1.86262
1.42203
1.01627
0.631732
0.305188
0.0553565
-0.123954
-0.231383
-0.197764
-0.333728
-0.523869
-0.692457
-0.864907
-1.05485
-1.25737
-1.46621
-1.67999
-1.89945
-2.12408
-2.35344
-2.58314
-2.80369
-2.99662
2.5935
2.23103
1.79997
1.35345
0.946917
0.569985
0.261256
0.0370896
-0.106546
-0.154256
-0.102332
-0.180031
-0.306669
-0.428029
-0.55531
-0.694009
-0.839875
-0.986958
-1.13048
-1.26572
-1.38617
-1.48073
-1.54016
-1.56319
-1.57792
2.55551
2.17577
1.72292
1.25666
0.838699
0.463458
0.173156
-0.0158973
-0.104117
-0.0871189
-0.0270652
-0.0498394
-0.114607
-0.201135
-0.312207
-0.447823
-0.607491
-0.790387
-0.996833
-1.22988
-1.4947
-1.79405
-2.11557
-2.42657
-2.67256
)
;

boundaryField
{
    inlet
    {
        type            freestreamPressure;
        freestreamValue uniform 0;
        value           nonuniform List<scalar> 
25
(
2.54306
2.16517
1.71454
1.25055
0.834616
0.461202
0.172313
-0.0158199
-0.10361
-0.0866947
-0.0116492
-0.0214533
-0.0493401
-0.0866116
-0.134481
-0.192967
-0.261885
-0.340907
-0.430204
-0.531125
-0.645944
-0.775881
-0.915607
-1.05094
-1.15823
)
;
    }
    outlet
    {
        type            freestreamPressure;
        freestreamValue nonuniform List<scalar> 0();
        value           nonuniform List<scalar> 0();
    }
    walls
    {
        type            zeroGradient;
    }
    frontAndBack
    {
        type            empty;
    }
    procBoundary4to0
    {
        type            processor;
        value           nonuniform List<scalar> 
72
(
138.585
129.87
121.643
113.908
106.649
99.8454
93.4722
87.5052
81.9193
76.6896
71.7934
67.2095
62.918
58.9007
55.1396
51.6181
48.3206
45.2324
42.3393
39.629
37.0929
34.7175
34.7175
36.3503
34.0787
31.9492
29.9525
28.0811
26.3267
24.6824
23.1413
21.6975
20.3448
19.0775
17.8897
16.7768
15.7334
14.7557
13.8398
12.9829
12.1817
11.4332
10.734
10.0811
9.4709
8.90048
8.36708
7.86864
7.40298
6.96857
6.56397
6.18784
5.8387
5.51516
5.21599
4.94046
4.6884
4.46045
4.25454
4.09523
3.96825
3.84254
3.71737
3.5929
3.46951
3.34891
3.23387
3.12659
3.03008
2.95323
2.90613
2.8787
)
;
    }
    procBoundary4to5
    {
        type            processor;
        value           nonuniform List<scalar> 
95
(
131.626
112.303
90.3261
64.1615
64.1615
40.3379
15.856
15.856
-8.45018
-29.4638
-29.4638
-48.0463
-48.0463
-64.2629
-59.288
-59.288
-72.6777
-72.6777
-84.1105
-78.5946
-78.5946
-87.7528
-82.3312
-82.3312
-89.5313
-84.2008
-84.2008
-89.6936
-84.4504
-79.5718
-79.5718
-83.3099
-78.4898
-73.964
-73.964
-76.2328
-71.7673
-67.5493
-67.5493
-68.5905
-64.4462
-60.5186
-60.5186
-60.5511
-56.7308
-53.1074
-49.6772
-46.4292
-46.4292
-45.5819
-42.4776
-39.5496
-36.796
-34.2069
-34.2069
-32.9382
-30.5522
-28.3243
-26.2542
-24.3323
-24.3323
-23.0709
-21.3768
-19.8144
-18.3795
-17.0607
-15.8508
-14.7387
-14.7387
-13.9143
-12.9736
-12.1089
-11.3149
-10.5838
-9.90975
-9.28634
-8.70771
-8.70771
-8.29753
-7.79933
-7.33405
-6.96704
-6.66083
-6.33676
-5.99163
-5.62195
-5.2219
-4.80196
-4.80196
-4.46812
-4.05456
-3.30971
-3.15798
-1.60195
-2.8535
)
;
    }
}


// ************************************************************************* //
