/*--------------------------------*- C++ -*----------------------------------*\
| =========                 |                                                 |
| \\      /  F ield         | OpenFOAM: The Open Source CFD Toolbox           |
|  \\    /   O peration     | Version:  2506                                  |
|   \\  /    A nd           | Website:  www.openfoam.com                      |
|    \\/     M anipulation  |                                                 |
\*---------------------------------------------------------------------------*/
FoamFile
{
    version     2.0;
    format      ascii;
    arch        "LSB;label=32;scalar=64";
    class       surfaceScalarField;
    location    "50";
    object      phi;
}
// * * * * * * * * * * * * * * * * * * * * * * * * * * * * * * * * * * * * * //

dimensions      [0 3 -1 0 0 0 0];

oriented        oriented;

internalField   nonuniform List<scalar> 
2584
(
0.185149
-0.247741
0.21925
-0.272291
-0.244724
0.189415
-0.279247
0.225416
-0.308291
0.2567
-0.27601
0.287302
-0.270043
-0.260335
0.19425
-0.312485
0.232257
-0.346301
0.265134
-0.308888
0.297306
-0.302215
0.328666
-0.291697
0.356721
-0.263375
-0.242114
0.199506
-0.347558
0.239642
-0.386435
0.274323
-0.343571
0.308203
-0.336097
0.341165
-0.324659
0.37059
-0.292801
0.397631
-0.269159
-0.243728
0.205247
-0.38457
0.247649
-0.428839
0.284191
-0.380112
0.319828
-0.371734
0.354508
-0.359341
0.385427
-0.323723
0.413746
-0.297477
0.439492
-0.269476
-0.239144
0.211444
-0.423602
0.256229
-0.473622
0.294712
-0.418597
0.332252
-0.409276
0.368826
-0.395916
0.401253
-0.356148
0.430963
-0.32719
0.458001
-0.296512
-0.263039
0.218098
-0.464755
0.265381
-0.520907
0.305916
-0.459131
0.345528
-0.448888
0.384028
-0.434418
0.418119
-0.390241
0.449345
-0.358414
0.477641
-0.324809
0.502591
-0.287991
-0.257074
0.225189
-0.508217
0.275124
-0.570841
0.317872
-0.501881
0.359614
-0.490631
0.400131
-0.474935
0.436033
-0.426142
0.468825
-0.391209
0.498474
-0.354456
0.52461
-0.314126
0.548108
-0.280574
-0.247407
0.232819
-0.554099
0.285453
-0.623477
0.330618
-0.547044
0.374536
-0.534549
0.417272
-0.517673
0.455002
-0.463873
0.489475
-0.425679
0.520617
-0.385598
0.548014
-0.341523
0.572479
-0.305038
-0.269251
0.240837
-0.602462
0.296492
-0.679129
0.343989
-0.594542
0.390376
-0.580937
0.435365
-0.562662
0.47515
-0.503657
0.511336
-0.461868
0.544024
-0.418283
0.572723
-0.370219
0.598408
-0.330723
0.621152
-0.291995
-0.255057
0.249393
-0.653491
0.308096
-0.737832
0.358275
-0.64472
0.407104
-0.629765
0.454577
-0.610137
0.496373
-0.545454
0.534468
-0.49996
0.568818
-0.452634
0.598955
-0.400356
0.62579
-0.357556
0.649633
-0.315837
-0.276062
0.258487
-0.707356
0.320448
-0.799791
0.373319
-0.697591
0.424837
-0.681284
0.474813
-0.660112
0.518868
-0.589508
0.55894
-0.540034
0.595043
-0.488733
0.626584
-0.431894
0.654752
-0.385725
0.67963
-0.340714
0.701566
-0.297997
-0.258905
0.268085
-0.764168
0.333477
-0.865184
0.389253
-0.753366
0.443536
-0.735566
0.496236
-0.712813
0.542601
-0.635874
0.584817
-0.582247
0.622735
-0.526651
0.655919
-0.465077
0.685394
-0.415196
0.711463
-0.366781
0.734376
-0.320909
-0.279104
0.278276
-0.824143
0.347262
-0.934166
0.40602
-0.812124
0.463341
-0.792887
0.518846
-0.768318
0.567696
-0.684722
0.61205
-0.626603
0.652015
-0.566612
0.686815
-0.499873
0.717765
-0.446145
0.745039
-0.394053
0.768983
-0.34485
0.790115
-0.300237
-0.256165
0.289011
-0.887389
0.361808
-1.00696
0.423821
-0.874135
0.484176
-0.853241
0.542703
-0.826846
0.594163
-0.736183
0.640926
-0.673361
0.682848
-0.608533
0.719427
-0.536452
0.751881
-0.478594
0.780511
-0.42268
0.805569
-0.369907
0.827649
-0.322312
-0.275431
0.300382
-0.954093
0.377181
-1.08376
0.442586
-0.939539
0.506214
-0.916869
0.567931
-0.888562
0.622137
-0.790387
0.67131
-0.722535
0.71547
-0.65269
0.753914
-0.574891
0.787994
-0.512673
0.81796
-0.452643
0.844139
-0.396083
0.867218
-0.345393
-0.29551
0.312355
-1.02444
0.393377
-1.16478
0.462338
-1.0085
0.52944
-0.98397
0.594477
-0.953599
0.651595
-0.847506
0.703391
-0.774327
0.749857
-0.699153
0.790238
-0.61527
0.826044
-0.548474
0.857493
-0.484088
0.884941
-0.423529
0.909072
-0.36952
0.930021
-0.316465
-0.265627
0.325063
-1.0987
0.410526
-1.25024
0.483255
-1.08123
0.554
-1.05471
0.622541
-1.02214
0.682708
-0.90767
0.737247
-0.828865
0.786168
-0.74807
0.828635
-0.657732
0.866213
-0.58605
0.899158
-0.51703
0.92799
-0.452358
0.95303
-0.394563
0.975123
-0.338556
-0.28451
0.338401
-1.17697
0.428598
-1.34043
0.505256
-1.15788
0.579843
-1.1293
0.652117
-1.09441
0.715459
-0.971012
0.772936
-0.886337
0.824387
-0.799519
0.869062
-0.702405
0.908501
-0.625484
0.943232
-0.551757
0.973159
-0.482284
0.999754
-0.421155
1.02249
-0.361297
-0.304276
0.352551
-1.25956
0.447651
-1.43553
0.528481
-1.23871
0.607112
-1.20793
0.68329
-1.17059
0.750081
-1.0378
0.810588
-0.946843
0.864745
-0.853671
0.911838
-0.749492
0.953328
-0.666971
0.989533
-0.587958
1.02129
-0.514039
1.04874
-0.448611
1.07272
-0.385267
1.09321
-0.324773
-0.26479
0.367454
-1.34667
0.467743
-1.53582
0.553007
-1.32397
0.635916
-1.29084
0.716192
-1.25087
0.786582
-1.10819
0.850318
-1.01057
0.907342
-0.910691
0.956657
-0.798805
1.00041
-0.710718
1.03856
-0.626104
1.07166
-0.547139
1.10062
-0.477576
1.1256
-0.41025
1.14708
-0.346244
-0.28306
0.383149
-1.43852
0.488953
-1.64162
0.57883
-1.41385
0.666233
-1.37824
0.750881
-1.33551
0.825039
-1.18234
0.892165
-1.0777
0.95218
-0.970702
1.0043
-0.850918
1.05008
-0.756495
1.09022
-0.666244
1.12498
-0.581895
1.1553
-0.507901
1.18148
-0.43642
1.20377
-0.368543
-0.301982
0.302843
-1.51982
0.399741
-1.53542
0.511318
-1.75319
0.606085
-1.50861
0.698235
-1.47039
0.78746
-1.42473
0.865588
-1.26047
0.936307
-1.14841
0.999593
-1.03398
1.05427
-0.905594
1.10259
-0.804806
1.14461
-0.708259
1.1811
-0.618389
1.21286
-0.539664
1.24024
-0.463799
1.26375
-0.392045
1.28337
-0.321602
-0.252113
0.315055
-1.6213
0.417242
-1.6376
0.534892
-1.87084
0.634837
-1.60855
0.731997
-1.56754
0.826051
-1.51879
0.908423
-1.34284
0.982932
-1.22292
1.04946
-1.1005
1.10704
-0.963177
1.15784
-0.855602
1.20211
-0.752526
1.2404
-0.656674
1.27375
-0.573017
1.30231
-0.492358
1.32684
-0.416571
1.34735
-0.342107
-0.268994
0.32792
-1.72834
0.435692
-1.74537
0.559792
-1.99494
0.665162
-1.71392
0.767579
-1.66996
0.866742
-1.61795
0.953509
-1.4296
1.03204
-1.30145
1.10211
-1.17057
1.16285
-1.02391
1.21612
-0.90887
1.2626
-0.798998
1.30285
-0.696926
1.33784
-0.60801
1.36791
-0.522429
1.39334
-0.441988
1.41482
-0.36359
-0.286635
0.341488
-1.84119
0.455155
-1.85903
0.586013
-2.12579
0.697135
-1.82504
0.805115
-1.77794
0.90962
-1.72245
1.00112
-1.5211
1.08369
-1.38402
1.15768
-1.24455
1.22143
-1.08765
1.27767
-0.965114
1.32657
-0.847893
1.36885
-0.739203
1.40539
-0.644554
1.43685
-0.553885
1.46376
-0.4689
1.48613
-0.38595
1.50432
-0.304823
-0.223783
0.355822
-1.96025
0.475667
-1.97887
0.613701
-2.26382
0.730861
-1.9422
0.844716
-1.89179
0.954874
-1.8326
1.05118
-1.6174
1.1384
-1.47123
1.21629
-1.32243
1.28346
-1.15482
1.34241
-1.02406
1.394
-0.899485
1.43842
-0.783621
1.47694
-0.683077
1.50987
-0.586815
1.53786
-0.496883
1.56129
-0.409381
1.58032
-0.323841
-0.238678
0.370921
-2.08581
0.497319
-2.10527
0.64285
-2.40935
0.766401
-2.06575
0.886423
-2.01181
1.00256
-1.94874
1.1042
-1.71904
1.19611
-1.56313
1.27793
-1.40425
1.34875
-1.22563
1.41098
-1.08629
1.46505
-0.953546
1.51161
-0.830188
1.5521
-0.723564
1.58662
-0.621337
1.61604
-0.526295
1.64039
-0.43373
1.66033
-0.343776
-0.254054
0.386871
-2.21821
0.520157
-2.23855
0.673679
-2.56286
0.803922
-2.19599
0.930478
-2.13836
1.05296
-2.07122
1.16006
-1.82613
1.25673
-1.6598
1.34305
-1.49056
1.41763
-1.30021
1.48313
-1.15178
1.53996
-1.01038
1.58912
-0.879339
1.63142
-0.765868
1.66789
-0.657804
1.69845
-0.556855
1.72408
-0.459356
1.74474
-0.364425
-0.270247
0.403672
-2.35784
0.54427
-2.37914
0.70612
-2.72472
0.843461
-2.33332
0.97693
-2.27183
1.10597
-2.20026
1.21889
-1.93905
1.32078
-1.76168
1.41181
-1.58159
1.49029
-1.37869
1.55918
-1.22066
1.61911
-1.0703
1.67054
-0.930768
1.7153
-0.810634
1.75325
-0.695755
1.78548
-0.589077
1.81221
-0.486087
1.83386
-0.386064
-0.286975
0.421416
-2.50512
0.569654
-2.52738
0.740365
-2.89542
0.885179
-2.47814
1.02583
-2.41247
1.16199
-2.33642
1.28083
-2.05789
1.38836
-1.86921
1.48414
-1.67736
1.5668
-1.46135
1.63939
-1.29325
1.70249
-1.13339
1.75676
-0.985042
1.8035
-0.857375
1.8436
-0.73586
1.8774
-0.622878
1.90534
-0.514013
1.92783
-0.408552
1.94525
-0.304383
-0.202534
0.440117
-2.66043
0.596469
-2.68372
0.776493
-3.07544
0.92919
-2.63083
1.07757
-2.56085
1.22097
-2.47982
1.34646
-2.18337
1.4597
-1.98245
1.56065
-1.77831
1.64774
-1.54843
1.72414
-1.36964
1.79042
-1.19968
1.84756
-1.04217
1.89681
-0.906631
1.93874
-0.777797
1.97426
-0.658394
2.00362
-0.543374
2.02714
-0.432062
2.04537
-0.322597
-0.215353
0.459877
-2.82426
0.624747
-2.84859
0.814583
-3.26527
0.975615
-2.79186
1.13204
-2.71727
1.28328
-2.63106
1.41542
-2.31551
1.5348
-2.10183
1.64126
-1.88475
1.73293
-1.6401
1.8134
-1.45011
1.88328
-1.26955
1.94331
-1.1022
1.99512
-0.958449
2.03925
-0.821918
2.07642
-0.695575
2.10709
-0.574034
2.13184
-0.456814
2.15067
-0.341418
-0.228961
0.480685
-2.99701
0.654586
-3.02248
0.854764
-3.46545
1.02459
-2.96168
1.18942
-2.88209
1.34897
-2.79061
1.48835
-2.45489
1.61419
-2.22765
1.72621
-1.99677
1.82296
-1.73685
1.90764
-1.53478
1.98116
-1.34307
2.04434
-1.16539
2.09887
-1.01297
2.14527
-0.868331
2.1842
-0.734505
2.21644
-0.606281
2.24223
-0.482586
2.26201
-0.361206
-0.243167
0.502653
-3.17922
0.686031
-3.20586
0.897163
-3.67657
1.07616
-3.14068
1.25013
-3.05606
1.41826
-2.95872
1.5651
-2.60173
1.69767
-2.36022
1.816
-2.11509
1.91774
-1.83859
2.00707
-1.6241
2.08437
-1.42036
2.15101
-1.23203
2.20828
-1.07025
2.25707
-0.917121
2.29812
-0.775566
2.33198
-0.640136
2.3589
-0.509515
2.37967
-0.381959
-0.257658
0.525819
-3.37138
0.719216
-3.39925
0.941892
-3.89925
1.13076
-3.32953
1.31409
-3.23939
1.49125
-3.13588
1.64629
-2.75676
1.78595
-2.49987
1.91044
-2.23959
2.01781
-1.94596
2.11182
-1.7181
2.19342
-1.50197
2.26344
-1.30205
2.32381
-1.13062
2.37505
-0.968378
2.41804
-0.818551
2.45356
-0.675668
2.48208
-0.538022
2.5036
-0.403483
2.51887
-0.272932
-0.14665
0.550283
-3.57405
0.754253
-3.60321
0.989037
-4.13402
1.18809
-3.52859
1.38147
-3.43277
1.5684
-3.32279
1.73159
-2.91995
1.87897
-2.64725
2.01035
-2.37096
2.12342
-2.05902
2.22256
-1.81724
2.30842
-1.58783
2.38202
-1.37564
2.44549
-1.19409
2.49954
-1.02243
2.54493
-0.863955
2.58212
-0.712857
2.61185
-0.567759
2.63451
-0.42614
2.65044
-0.288856
-0.156268
0.576084
-3.78781
0.791172
-3.8183
1.03881
-4.38166
1.24881
-3.73858
1.45256
-3.63652
1.64975
-3.51998
1.82184
-3.09205
1.97727
-2.80266
2.11545
-2.50915
2.23468
-2.17825
2.3391
-1.92165
2.42951
-1.67824
2.50719
-1.45333
2.57409
-1.26099
2.63077
-1.07912
2.67844
-0.911619
2.71772
-0.75215
2.74894
-0.598976
2.77253
-0.449736
2.7893
-0.305632
-0.166377
0.603293
-4.01324
0.830151
-4.04515
1.09131
-4.6428
1.31268
-3.95995
1.52771
-3.85154
1.73546
-3.72773
1.91704
-3.27362
2.08073
-2.96635
2.22662
-2.65503
2.3521
-2.30373
2.46218
-2.03172
2.55744
-1.7735
2.63926
-1.53515
2.70975
-1.33149
2.76942
-1.13879
2.81967
-0.961883
2.86077
-0.793245
2.89355
-0.631767
2.9185
-0.474684
2.93595
-0.323077
-0.17697
0.63204
-4.25097
0.871293
-4.2844
1.1467
-4.91821
1.38017
-4.19341
1.60682
-4.07819
1.82601
-3.94692
2.01731
-3.46493
2.18995
-3.13897
2.34358
-2.80866
2.47604
-2.43618
2.59194
-2.14761
2.69255
-1.87412
2.7786
-1.6212
2.85268
-1.40557
2.91569
-1.20181
2.96833
-1.01453
3.01173
-0.836653
3.0463
-0.666343
3.0725
-0.500879
3.0906
-0.341183
-0.187972
0.662362
-4.50173
0.91468
-4.53671
1.20514
-5.20865
1.45131
-4.43959
1.69043
-4.3173
1.92145
-4.17794
2.12316
-3.66663
2.30511
-3.32093
2.46721
-2.97076
2.60684
-2.5758
2.72898
-2.26976
2.83467
-1.9798
2.92555
-1.71208
3.00365
-1.48368
3.06991
-1.26807
3.12546
-1.07009
3.1711
-0.882296
3.20739
-0.702644
3.23483
-0.528321
3.25407
-0.36041
3.26561
-0.199517
-0.0519178
0.69433
-4.76616
0.960455
-4.80283
1.26669
-5.51489
1.52644
-4.69932
1.77849
-4.56935
2.02202
-4.42147
2.23475
-3.87936
2.42674
-3.51291
2.59767
-3.14168
2.74465
-2.72278
2.87348
-2.39858
2.98495
-2.09127
3.0806
-1.80773
3.16285
-1.56593
3.23269
-1.33793
3.2912
-1.12859
3.33929
-0.930399
3.37738
-0.740733
3.40627
-0.557211
3.42648
-0.380616
3.43866
-0.21169
-0.0567818
0.728129
-5.04507
1.00875
-5.08344
1.33186
-5.83799
1.6056
-4.97306
1.87135
-4.83511
2.12837
-4.67848
2.35258
-4.10356
2.55493
-3.71527
2.73497
-3.32171
2.89004
-2.87784
3.02578
-2.53433
3.14337
-2.20886
3.24421
-1.90857
3.33088
-1.65261
3.40443
-1.41147
3.46609
-1.19026
3.51656
-0.980866
3.55671
-0.780896
3.58726
-0.587755
3.60852
-0.401867
3.62114
-0.224311
-0.062179
0.763738
-5.33923
1.05974
-5.37943
1.40039
-6.17866
1.68913
-5.26178
1.96955
-5.11552
2.24039
-4.94932
2.47693
-4.3401
2.69007
-3.9284
2.88008
-3.51172
3.04356
-3.04133
3.18664
-2.6774
3.31055
-2.33277
3.41682
-2.01485
3.50811
-1.7439
3.5855
-1.48887
3.65054
-1.2553
3.70376
-1.0341
3.74611
-0.823246
3.77816
-0.619794
3.80054
-0.424244
3.81397
-0.237734
-0.0676906
0.801323
-5.64948
1.11349
-5.69159
1.47278
-6.53793
1.77737
-5.56638
2.07292
-5.41107
2.35853
-5.23493
2.60799
-4.58956
2.83289
-4.15331
3.03306
-3.71188
3.20527
-3.21352
3.35627
-2.8284
3.4868
-2.46331
3.59878
-2.12682
3.69506
-1.8402
3.7768
-1.5706
3.8451
-1.32362
3.90124
-1.09024
3.94591
-0.867915
3.97962
-0.653496
4.00308
-0.447701
4.01739
-0.252041
-0.0735155
0.841006
-5.97671
1.17023
-6.02082
1.54918
-6.91689
1.87034
-5.88753
2.182
-5.72272
2.48316
-5.5361
2.74606
-4.85246
2.98321
-4.39045
3.19435
-3.92302
3.37609
-3.39527
3.53505
-2.98736
3.67279
-2.60105
3.79072
-2.24475
3.89226
-1.94175
3.97822
-1.65658
4.05041
-1.39581
4.10955
-1.14938
4.15659
-0.914949
4.19207
-0.688968
4.21707
-0.472691
4.23196
-0.266925
-0.0797589
0.882845
-6.32186
1.23006
-6.36803
1.62972
-7.31652
1.96834
-6.22615
2.29708
-6.05146
2.61483
-5.85384
2.89206
-5.12968
3.14209
-4.64049
3.36464
-4.14556
3.55623
-3.58685
3.72388
-3.15501
3.86898
-2.74615
3.99338
-2.36915
4.10037
-2.04875
4.19104
-1.74725
4.26695
-1.47173
4.32936
-1.21179
4.37898
-0.964571
4.41651
-0.726486
4.44274
-0.49891
4.45853
-0.282708
-0.0862451
0.927009
-6.68589
1.29325
-6.73426
1.71471
-7.738
2.07189
-6.58331
2.41859
-6.39815
2.75348
-6.18874
3.04582
-5.42202
3.30946
-4.90412
3.54422
-4.38032
3.74612
-3.78876
3.92285
-3.33173
4.07578
-2.89907
4.20709
-2.50047
4.31972
-2.16138
4.41541
-1.84295
4.49551
-1.55183
4.56121
-1.27749
4.61341
-1.01677
4.65309
-0.766162
4.68074
-0.526544
4.69737
-0.299332
4.70456
-0.0934295
0.0804979
0.973641
-7.06987
1.35992
-7.12054
1.80452
-8.18258
2.18112
-6.95991
2.54669
-6.76373
2.89986
-6.5419
3.20818
-5.73034
3.4862
-5.18215
3.7335
-4.62761
3.94633
-4.00158
4.13272
-3.51813
4.29411
-3.06046
4.43226
-2.63862
4.55119
-2.28032
4.65191
-1.94367
4.73649
-1.63641
4.80583
-1.34683
4.86082
-1.07176
4.9026
-0.807931
4.93182
-0.555759
4.94951
-0.317001
4.95697
-0.10088
0.0810985
1.02285
-7.47487
1.43025
-7.52793
1.899
-8.65134
2.29639
-7.35729
2.68185
-7.14919
3.05434
-6.91439
3.37941
-6.05541
3.6724
-5.47513
3.93327
-4.88849
4.15786
-4.22616
4.35416
-3.71442
4.52422
-3.23052
4.66996
-2.78436
4.79541
-2.40578
4.9016
-2.04987
4.99059
-1.7254
5.06365
-1.4199
5.12192
-1.13002
5.16589
-0.8519
5.19668
-0.586529
5.21546
-0.335775
5.22331
-0.108721
0.0815885
1.07482
-7.90203
1.50459
-7.9577
1.99906
-9.14579
2.41795
-7.77619
2.8245
-7.55573
3.21726
-7.30715
3.56001
-6.39815
3.86903
-5.78416
4.14413
-5.16358
4.38063
-4.46267
4.58794
-3.92173
4.76713
-3.40971
4.92082
-2.93805
5.05274
-2.53771
5.16482
-2.16195
5.25869
-1.81928
5.33576
-1.49696
5.39699
-1.19126
5.4434
-0.898295
5.47601
-0.619133
5.49579
-0.355543
5.50431
-0.117236
0.0821997
1.12971
-8.35258
1.58294
-8.41092
2.1045
-9.66737
2.54625
-8.21793
2.9751
-7.98458
3.38922
-7.72128
3.75065
-6.75959
4.07659
-6.11009
4.36648
-5.45347
4.61594
-4.71213
4.8342
-4.13998
5.02312
-3.59863
5.18511
-3.10004
5.32442
-2.67703
5.44253
-2.28007
5.54143
-1.91818
5.62264
-1.57817
5.68731
-1.25593
5.73627
-0.947257
5.77076
-0.6536
5.7916
-0.37638
5.80065
-0.126276
0.0826182
1.18762
-8.82783
1.6656
-8.8889
2.21572
-10.2175
2.68172
-8.68394
3.13384
-8.4367
3.57063
-8.15805
3.95171
-7.14067
4.29528
-6.45366
4.60098
-5.75916
4.86405
-4.9752
5.09423
-4.37018
5.29349
-3.79789
5.46416
-3.27072
5.61093
-2.82381
5.73532
-2.40445
5.83978
-2.02265
5.92528
-1.66367
5.99349
-1.32414
6.04519
-0.998935
6.0814
-0.689811
6.10346
-0.398424
6.11309
-0.135908
0.0830498
1.24899
-9.32919
1.75301
-9.39292
2.33314
-10.7976
2.82462
-9.1754
3.30161
-8.91368
3.76207
-8.61853
4.16405
-7.54266
4.52628
-6.81587
4.84856
-6.08146
5.12588
-5.25251
5.36848
-4.61277
5.57847
-4.00788
5.75837
-3.45062
5.91308
-2.97852
6.04426
-2.53565
6.15412
-2.1325
6.24455
-1.7541
6.31622
-1.3958
6.37077
-1.05348
6.40902
-0.728045
6.43241
-0.421815
6.44252
-0.146014
0.0833199
1.31341
-9.85787
1.84534
-9.92485
2.45711
-11.4094
2.9755
-9.6938
3.47825
-9.41643
3.96405
-9.10432
4.38782
-7.96642
4.76984
-7.1979
5.10977
-6.42139
5.40215
-5.54488
5.65791
-4.86854
5.87918
-4.22916
6.06894
-3.64038
6.23198
-3.14157
6.37021
-2.67388
6.48611
-2.24841
6.5811
-1.84908
6.65682
-1.47152
6.71431
-1.11097
6.75459
-0.768319
6.77924
-0.44646
6.78997
-0.156742
0.0836631
1.38167
-10.4155
1.94266
-10.4858
2.58798
-12.0547
3.13466
-10.2405
3.66474
-9.9465
4.17728
-9.61688
4.62402
-8.41317
5.02677
-7.60064
5.38513
-6.77975
5.69341
-5.85316
5.96301
-5.13813
6.1963
-4.46246
6.3963
-3.84038
6.56815
-3.31341
6.71396
-2.8197
6.83602
-2.37046
6.93627
-1.94935
7.01605
-1.55129
7.07587
-1.17078
7.11919
-0.811637
7.14522
-0.472484
7.15606
-0.167573
7.15642
0.0832979
0.265996
1.4538
-11.0038
2.04512
-11.0771
2.72586
-12.7354
3.30236
-10.817
3.86182
-10.506
4.40177
-10.1568
4.87313
-8.88452
5.29793
-8.02545
5.67584
-7.15766
6.0008
-6.17812
6.28515
-5.42248
6.53108
-4.70839
6.74197
-4.05128
6.92301
-3.49446
7.07659
-2.97327
7.2052
-2.49909
7.31059
-2.05474
7.39494
-1.63564
7.459
-1.23484
7.50354
-0.856167
7.53063
-0.499571
7.54264
-0.179579
7.54177
0.0841683
0.273132
1.52961
-11.6242
2.1539
-11.7014
2.87154
-13.4531
3.47953
-11.425
4.0694
-11.0958
4.63913
-10.7266
5.13609
-9.38149
5.58398
-8.47332
5.98253
-7.55622
6.32495
-6.52055
6.62474
-5.72226
6.88414
-4.9678
7.10624
-4.27338
7.29723
-3.68546
7.45937
-3.13543
7.59408
-2.63379
7.70567
-2.16634
7.7944
-1.72436
7.86215
-1.30258
7.90803
-0.902048
7.9366
-0.528141
7.95024
-0.193203
7.94998
0.0844225
0.283298
1.10666
-12.0751
1.58253
-12.1773
2.1836
-14.0541
2.76557
-12.0069
3.42702
-11.7573
4.19899
-11.4985
5.02949
-10.212
5.96324
-9.40708
7.0131
-8.60608
8.58886
-8.09631
8.2031
-5.33651
7.8143
-4.57899
7.47995
-3.93904
7.1866
-3.39211
6.93097
-2.8798
6.70779
-2.41062
6.51189
-1.97044
6.34164
-1.55411
6.19456
-1.15549
6.07234
-0.779823
5.96935
-0.425147
5.88678
-0.110638
5.82334
0.147868
0.3285
1.21561
-12.5712
1.73875
-12.7004
2.39958
-14.715
3.0394
-12.6468
3.76643
-12.4843
4.61464
-12.3468
5.52751
-11.1249
6.55324
-10.4328
7.70697
-9.75981
9.43796
-9.82732
9.01435
-4.91289
8.5874
-4.15205
8.22017
-3.57181
7.89966
-3.07161
7.61836
-2.5985
7.37277
-2.16504
7.1579
-1.75558
6.97062
-1.36683
6.81095
-0.995815
6.67407
-0.642945
6.56202
-0.313091
6.4722
-0.020812
6.40322
0.216845
0.38003
1.33483
-13.1167
1.90996
-13.2756
2.63694
-15.4419
3.34003
-13.3499
4.13933
-13.2836
5.07197
-13.2794
6.07478
-12.1277
7.20186
-11.5599
8.4693
-11.0273
10.3717
-11.7297
9.90549
-4.44673
9.4381
-3.68466
9.03511
-3.16882
8.68247
-2.71897
8.37443
-2.29047
8.10448
-1.8951
7.86874
-1.51983
7.66394
-1.16202
7.48735
-0.81923
7.33667
-0.492258
7.21394
-0.190358
7.11387
0.0792541
7.03647
0.294247
0.434258
1.46588
-13.7167
2.09855
-13.9082
2.89744
-16.2408
3.67077
-14.1232
4.54928
-14.1621
5.57416
-14.3043
6.6763
-13.2298
7.91503
-12.7986
9.30729
-12.4195
11.3968
-13.8192
10.8859
-3.93586
10.3733
-3.17203
9.92868
-2.72419
9.54162
-2.33192
9.20462
-1.95347
8.90701
-1.5975
8.64847
-1.2613
8.42297
-0.936527
8.22898
-0.625232
8.06536
-0.328635
7.9289
-0.0538977
7.81956
0.188587
7.73731
0.376493
0.496647
1.60961
-14.3765
2.30572
-14.6043
3.18396
-17.1191
4.03415
-14.9734
4.99977
-15.1277
6.12626
-15.4307
7.33766
-14.4412
8.69879
-14.1597
10.2292
-13.9499
12.5253
-16.1153
11.965
-3.37556
11.3994
-2.60647
10.9144
-2.23917
10.4892
-1.90672
10.1159
-1.58014
9.79231
-1.27396
9.50638
-0.975379
9.25958
-0.689718
9.04628
-0.41195
8.86664
-0.14898
8.71602
0.0967157
8.59698
0.30763
8.50304
0.470429
0.562282
1.76757
-15.1023
2.53268
-15.3695
3.49893
-18.0853
4.43336
-15.9078
5.49501
-16.1894
6.73313
-16.6689
8.06489
-15.773
9.56083
-15.6557
11.2417
-15.6308
13.7648
-18.6384
13.1489
-2.75969
12.5292
-1.98678
11.9958
-1.70569
11.5284
-1.43937
11.1202
-1.17193
10.762
-0.915796
10.4505
-0.663819
10.1777
-0.416991
9.94327
-0.177486
9.74442
0.0498648
9.58043
0.260719
9.44868
0.439357
9.34788
0.571235
0.636666
1.9412
-15.9005
2.78253
-16.2108
3.84458
-19.1474
4.87217
-16.9354
6.0394
-17.3566
7.40057
-18.03
8.86416
-17.2366
10.509
-17.3005
12.3573
-17.4792
15.1311
-21.4122
14.4534
-2.08205
13.7727
-1.30601
13.185
-1.118
12.6716
-0.925968
12.2234
-0.723762
11.8295
-0.521937
11.4849
-0.319231
11.1868
-0.118827
10.9304
0.0789017
10.7117
0.268551
10.5312
0.441159
10.3864
0.584235
10.2757
0.681879
0.718819
2.13152
-16.7784
3.05669
-17.136
4.22494
-20.3156
5.35472
-18.0652
6.63783
-18.6397
8.13443
-19.5266
9.74343
-18.8456
11.5512
-19.1082
13.5825
-19.5105
16.6336
-24.4633
15.8864
-1.33482
15.1377
-0.557372
14.4926
-0.47284
13.9276
-0.361049
13.4352
-0.231307
13.0031
-0.0898436
12.6257
0.0581825
12.2972
0.209586
12.0143
0.361901
11.7751
0.507733
11.5762
0.640041
11.4175
0.742876
11.2939
0.805521
11.2047
0.807969
0.800778
2.34056
-17.7437
3.35806
-18.1535
4.64226
-21.5998
5.88467
-19.3076
7.2955
-20.0505
8.94107
-21.1722
10.7106
-20.6151
12.6983
-21.096
14.9321
-21.7443
18.2858
-27.8171
17.4662
-0.515215
16.6423
0.266524
15.9325
0.236922
15.3124
0.259156
14.7693
0.311646
14.2937
0.385833
13.8784
0.47347
13.5161
0.571918
13.2056
0.672374
12.9426
0.770795
12.7234
0.859202
12.5493
0.916978
12.415
0.939765
12.3176
0.905398
0.873232
2.56999
-18.8052
3.68884
-19.2723
5.10111
-23.0121
6.46724
-20.6737
8.0187
-21.602
9.82796
-22.9814
11.7735
-22.5606
13.9587
-23.2812
16.4167
-24.2022
20.1055
-31.5059
19.203
0.387244
18.2962
1.17331
17.515
1.01817
16.8315
0.942522
16.2343
0.908958
15.7124
0.907707
15.2552
0.930698
14.8577
0.969371
14.516
1.01415
14.2253
1.06143
13.9859
1.09861
13.7924
1.11047
13.6434
1.08873
13.5348
1.01395
0.952072
2.82206
-19.9725
4.05238
-20.5027
5.60528
-24.565
7.10732
-22.1758
8.81352
-23.3082
10.8038
-24.9717
12.943
-24.6999
15.3479
-25.686
18.0505
-26.9049
22.1093
-35.5647
21.1152
1.38132
20.1178
2.17072
19.2573
1.8786
18.5051
1.69485
17.8481
1.5659
17.2728
1.48317
16.7683
1.43513
16.332
1.40582
15.9554
1.39065
15.638
1.37892
15.3732
1.36334
15.1624
1.32127
15.0016
1.24954
14.8838
1.13182
1.03826
3.09804
-21.256
4.45107
-21.8557
6.15882
-26.2727
7.81078
-23.8277
9.68733
-25.1848
11.876
-27.1603
14.2292
-27.0531
16.8744
-28.3312
19.8487
-29.8791
24.3142
-40.0301
23.22
2.47557
22.121
3.26978
21.174
2.82565
20.3469
2.52201
19.6236
2.28929
18.9873
2.11956
18.4345
1.98797
17.9517
1.88863
17.5381
1.80438
17.1846
1.73246
16.8936
1.65443
16.6582
1.55664
16.476
1.43193
16.3432
1.26459
1.13645
3.40064
4.88819
6.76626
8.58349
10.6476
13.0561
15.6464
18.5564
21.8292
26.7432
25.5389
24.3283
23.2853
22.3719
21.5745
20.8766
20.2655
19.736
19.2798
18.8958
18.579
18.329
18.1374
17.9987
)
;

boundaryField
{
    inlet
    {
        type            calculated;
        value           nonuniform List<scalar> 
25
(
-22.6668
-23.3432
-28.1508
-25.645
-27.2489
-29.5688
-29.6434
-31.2412
-33.1519
-44.9441
3.67996
4.48036
3.86873
3.43549
3.08673
2.81744
2.59916
2.4182
2.26063
2.11652
1.97136
1.80672
1.6236
1.40339
1.23712
)
;
    }
    outlet
    {
        type            calculated;
        value           nonuniform List<scalar> 0();
    }
    walls
    {
        type            calculated;
        value           nonuniform List<scalar> 0();
    }
    frontAndBack
    {
        type            empty;
    }
    procBoundary4to0
    {
        type            processor;
        value           nonuniform List<scalar> 
72
(
-0.155218
-0.157911
-0.161013
-0.164436
-0.168235
-0.172414
-0.176944
-0.181728
-0.186936
-0.192474
-0.198362
-0.204621
-0.21127
-0.2183
-0.225763
-0.233676
-0.242004
-0.250797
-0.260136
-0.269953
-0.280341
-0.291293
1.42363
-0.206646
-0.213573
-0.220882
-0.228632
-0.236756
-0.245356
-0.254464
-0.264031
-0.274134
-0.284798
-0.296047
-0.307924
-0.320436
-0.333649
-0.34761
-0.362315
-0.377858
-0.394294
-0.411606
-0.429883
-0.449215
-0.469563
-0.491072
-0.513758
-0.537698
-0.562966
-0.589659
-0.617832
-0.647664
-0.679131
-0.71237
-0.747618
-0.784731
-0.824005
-0.865526
-0.909254
-0.655714
-0.719527
-0.789329
-0.865858
-0.949798
-1.04183
-1.14298
-1.25364
-1.37529
-1.50846
-1.65476
-1.81457
-1.98981
)
;
    }
    procBoundary4to5
    {
        type            processor;
        value           nonuniform List<scalar> 
95
(
0.217809
0.238188
0.215047
0.248928
0.23944
0.230501
0.317136
0.235317
0.216335
0.382503
0.219151
0.422213
0.216296
0.462341
0.481897
0.234646
0.525022
0.226542
0.568975
0.594323
0.2349
0.641309
0.670638
0.239442
0.72103
0.754578
0.237675
0.808616
0.84691
0.887303
0.24743
0.948223
0.994
1.04226
0.247382
1.11063
1.16535
1.22271
0.235892
1.29961
1.36424
1.43247
0.209319
1.5188
1.59522
1.67572
1.76094
1.8506
0.189835
1.95798
2.0582
2.16429
2.27623
2.39415
0.137288
2.52824
2.66006
2.79942
2.94654
3.10162
0.0471308
3.27042
3.44353
3.62655
3.81948
4.02323
4.23821
4.46503
-0.0797825
4.70385
4.95637
5.22282
5.5037
5.80023
6.11267
6.44225
6.78963
-0.257069
7.1475
7.53463
7.93982
5.77814
6.35169
6.98224
7.67493
8.43741
9.27349
10.1936
-0.735898
11.1399
12.2451
13.456
14.7976
16.2451
17.8981
)
;
    }
}


// ************************************************************************* //
