/*--------------------------------*- C++ -*----------------------------------*\
| =========                 |                                                 |
| \\      /  F ield         | OpenFOAM: The Open Source CFD Toolbox           |
|  \\    /   O peration     | Version:  2506                                  |
|   \\  /    A nd           | Website:  www.openfoam.com                      |
|    \\/     M anipulation  |                                                 |
\*---------------------------------------------------------------------------*/
FoamFile
{
    version     2.0;
    format      ascii;
    arch        "LSB;label=32;scalar=64";
    class       volSymmTensorField;
    location    "50";
    object      turbulenceProperties:R;
}
// * * * * * * * * * * * * * * * * * * * * * * * * * * * * * * * * * * * * * //

dimensions      [0 2 -2 0 0 0 0];

internalField   nonuniform List<symmTensor> 
1340
(
(0.000310651 -2.29142e-05 1.93004e-21 0.000254402 -9.55778e-22 0.000282523)
(0.000307847 -2.76648e-05 1.9763e-20 0.000260305 1.23682e-20 0.000284079)
(0.000303112 -3.15638e-05 -1.05096e-20 0.000266254 -3.56232e-21 0.000284678)
(0.000262582 -1.95157e-05 5.92149e-21 0.00021526 3.53566e-21 0.000238918)
(0.00026059 -2.35024e-05 -5.48245e-21 0.000220529 -1.51885e-21 0.000240567)
(0.000257019 -2.67947e-05 -1.47276e-20 0.000225872 -9.51002e-21 0.000241442)
(0.000252493 -2.91833e-05 8.25325e-20 0.000231298 4.81483e-20 0.00024189)
(0.000246833 -3.06116e-05 -1.85742e-20 0.000236688 -7.70982e-21 0.000241758)
(0.000223394 -1.6742e-05 2.11859e-21 0.000183346 1.70048e-21 0.000203364)
(0.000221962 -2.01115e-05 -1.03887e-20 0.000188038 -2.96821e-21 0.000205007)
(0.000219239 -2.29071e-05 -4.15311e-20 0.000192828 -2.21709e-20 0.000206031)
(0.000215817 -2.49565e-05 -7.14356e-21 0.000197774 -3.45242e-21 0.000206787)
(0.000211499 -2.62169e-05 -4.69627e-21 0.000202758 -4.12685e-21 0.000207121)
(0.000206359 -2.65341e-05 5.28702e-20 0.000207266 2.79185e-20 0.000206809)
(0.000200607 -2.58933e-05 1.33775e-20 0.000210972 7.65534e-21 0.000205791)
(0.000191097 -1.44503e-05 -5.18077e-21 0.000157034 -8.97047e-22 0.00017406)
(0.000190064 -1.73143e-05 -3.20168e-20 0.000161211 -1.61354e-20 0.000175645)
(0.000187961 -1.96966e-05 1.41157e-20 0.000165492 4.97483e-21 0.000176725)
(0.000185326 -2.14557e-05 9.15476e-21 0.000169951 4.02862e-21 0.000177632)
(0.000181996 -2.25609e-05 4.02318e-20 0.00017451 2.01548e-20 0.000178249)
(0.000178036 -2.28833e-05 -5.76897e-20 0.000178735 -2.96362e-20 0.000178382)
(0.00017356 -2.24048e-05 6.87658e-20 0.000182327 3.33262e-20 0.000177939)
(0.000168675 -2.11477e-05 -1.72495e-19 0.000185169 -8.60604e-20 0.000176919)
(0.00016426 -1.25371e-05 9.53367e-21 0.000135157 3.8607e-21 0.000149703)
(0.000163508 -1.49839e-05 9.38149e-21 0.000138873 3.91444e-21 0.000151197)
(0.000161866 -1.70218e-05 1.96577e-21 0.000142693 2.24573e-21 0.000152279)
(0.000159822 -1.85351e-05 -4.71068e-21 0.000146707 -3.04309e-21 0.000153259)
(0.000157232 -1.95005e-05 3.2691e-20 0.00015085 1.59349e-20 0.000154038)
(0.000154127 -1.98075e-05 -2.38072e-20 0.000154738 -1.27256e-20 0.000154431)
(0.000150657 -1.94478e-05 -9.46509e-20 0.00015818 -4.52097e-20 0.000154418)
(0.00014682 -1.8429e-05 9.9479e-20 0.000160975 5.09216e-20 0.000153888)
(0.000142794 -1.68112e-05 3.5696e-20 0.000163 1.77234e-20 0.000152896)
(0.000141785 -1.09258e-05 -2.3777e-21 0.000116823 -6.22154e-23 0.0001293)
(0.00014124 -1.30258e-05 -3.81476e-21 0.000120133 -1.43668e-21 0.000130693)
(0.000139939 -1.47743e-05 -1.8932e-20 0.000123535 -7.55164e-21 0.000131737)
(0.000138337 -1.60786e-05 9.23938e-21 0.000127139 2.97545e-21 0.000132733)
(0.000136306 -1.69196e-05 -3.009e-20 0.000130888 -1.27804e-20 0.000133595)
(0.000133856 -1.72031e-05 6.32948e-20 0.000134442 2.77395e-20 0.000134149)
(0.000131126 -1.69246e-05 1.76279e-21 0.000137653 3.06225e-21 0.000134389)
(0.00012812 -1.60908e-05 2.77856e-20 0.000140378 9.44388e-21 0.000134245)
(0.000124955 -1.47508e-05 2.34263e-20 0.000142445 7.6018e-21 0.000133694)
(0.000122843 -9.55887e-06 -1.94913e-20 0.000101358 -8.81127e-21 0.000112096)
(0.000122444 -1.13673e-05 3.01533e-20 0.000104303 1.17372e-20 0.00011338)
(0.000121403 -1.28731e-05 -2.1151e-20 0.000107336 -8.35588e-21 0.00011437)
(0.000120139 -1.39992e-05 1.17922e-20 0.000110569 4.9232e-21 0.00011535)
(0.000118531 -1.47298e-05 -6.9517e-20 0.000113945 -3.03151e-20 0.000116237)
(0.000116585 -1.49866e-05 3.24296e-20 0.00011718 1.42289e-20 0.000116883)
(0.000114425 -1.47663e-05 9.70226e-20 0.000120151 4.14077e-20 0.000117288)
(0.000112068 -1.40772e-05 -1.32727e-19 0.000122753 -5.78149e-20 0.000117408)
(0.000109556 -1.29516e-05 -6.87735e-20 0.000124795 -2.84953e-20 0.000117171)
(0.000106992 -1.14429e-05 5.38038e-20 0.000126253 2.07848e-20 0.000116619)
(0.00010678 -8.3914e-06 1.02648e-20 8.82316e-05 3.40708e-21 9.75017e-05)
(0.000106486 -9.95353e-06 4.08701e-21 9.08529e-05 2.37882e-21 9.86757e-05)
(0.000105645 -1.12544e-05 1.60716e-20 9.35584e-05 6.29615e-21 9.96026e-05)
(0.000104638 -1.22276e-05 -4.26343e-20 9.64522e-05 -1.73819e-20 0.000100542)
(0.000103354 -1.28618e-05 8.19716e-20 9.94889e-05 3.21092e-20 0.000101421)
(0.000101797 -1.30903e-05 -1.41685e-19 0.000102421 -5.76239e-20 0.00010211)
(0.000100083 -1.29125e-05 -6.46676e-20 0.000105153 -2.6596e-20 0.000102619)
(9.82105e-05 -1.23341e-05 7.93589e-20 0.000107585 3.4542e-20 0.000102896)
(9.62468e-05 -1.13856e-05 4.19439e-20 0.000109596 1.77991e-20 0.00010292)
(9.41971e-05 -1.01048e-05 -3.70688e-20 0.00011106 -1.74374e-20 0.000102622)
(9.21478e-05 -8.531e-06 -1.07827e-20 0.000112004 -4.41573e-21 0.000102075)
(9.30852e-05 -7.38682e-06 -1.05503e-20 7.70276e-05 -3.14684e-21 8.50529e-05)
(9.28655e-05 -8.74131e-06 -7.59029e-21 7.93624e-05 -3.91383e-21 8.61198e-05)
(9.2184e-05 -9.86779e-06 2.56367e-20 8.17783e-05 9.0481e-21 8.69821e-05)
(9.13705e-05 -1.07099e-05 6.17058e-21 8.43646e-05 2.48147e-21 8.78652e-05)
(9.03397e-05 -1.12602e-05 3.09838e-20 8.70943e-05 1.1908e-20 8.87175e-05)
(8.9085e-05 -1.14609e-05 2.10844e-19 8.97429e-05 8.24504e-20 8.94155e-05)
(8.77147e-05 -1.13136e-05 3.79184e-20 9.2239e-05 1.62075e-20 8.99781e-05)
(8.62287e-05 -1.08238e-05 3.31726e-20 9.45001e-05 1.11211e-20 9.03633e-05)
(8.46777e-05 -1.00178e-05 -2.73154e-20 9.64157e-05 -1.06624e-20 9.05451e-05)
(8.30714e-05 -8.92393e-06 -2.37316e-20 9.79018e-05 -8.39936e-21 9.0484e-05)
(8.14504e-05 -7.58189e-06 -2.04828e-20 9.89126e-05 -7.70261e-21 9.0176e-05)
(8.13502e-05 -6.51848e-06 8.71347e-21 6.74166e-05 1.90703e-21 7.43806e-05)
(8.11909e-05 -7.69683e-06 2.72129e-20 6.95032e-05 9.18735e-21 7.5352e-05)
(8.06273e-05 -8.67352e-06 2.78425e-20 7.16549e-05 1.15381e-20 7.61423e-05)
(7.99703e-05 -9.40403e-06 -4.2084e-20 7.39721e-05 -1.40675e-20 7.69689e-05)
(7.91339e-05 -9.88073e-06 -7.05317e-20 7.64193e-05 -2.66091e-20 7.77775e-05)
(7.81193e-05 -1.00555e-05 -5.12717e-20 7.88101e-05 -1.96124e-20 7.84662e-05)
(7.70174e-05 -9.93046e-06 -4.72278e-20 8.10804e-05 -1.78411e-20 7.90501e-05)
(7.58337e-05 -9.51149e-06 -3.02618e-20 8.31672e-05 -1.24079e-20 7.94998e-05)
(7.46033e-05 -8.82051e-06 4.50749e-20 8.49683e-05 1.7615e-20 7.97847e-05)
(7.33526e-05 -7.88444e-06 -1.63027e-21 8.64331e-05 -4.92004e-22 7.98912e-05)
(7.20513e-05 -6.72648e-06 9.56688e-21 8.74561e-05 3.61435e-21 7.97491e-05)
(7.08071e-05 -5.39047e-06 -2.30758e-20 8.80966e-05 -9.12224e-21 7.94512e-05)
(7.12536e-05 -5.7649e-06 -3.65519e-21 5.91385e-05 -2.04346e-22 6.51935e-05)
(7.11371e-05 -6.79182e-06 -2.65224e-20 6.10022e-05 -8.30101e-21 6.60744e-05)
(7.06693e-05 -7.64091e-06 -3.04647e-20 6.2923e-05 -1.06742e-20 6.67971e-05)
(7.0131e-05 -8.27471e-06 -5.38876e-21 6.49943e-05 -2.31381e-21 6.75607e-05)
(6.945e-05 -8.68769e-06 2.34373e-20 6.71897e-05 7.92138e-21 6.83208e-05)
(6.86224e-05 -8.83823e-06 -1.76075e-20 6.93416e-05 -6.69683e-21 6.89839e-05)
(6.77356e-05 -8.73006e-06 8.33677e-20 7.14044e-05 2.97554e-20 6.95712e-05)
(6.67885e-05 -8.36827e-06 -6.03523e-20 7.3317e-05 -2.13143e-20 7.00526e-05)
(6.5814e-05 -7.77262e-06 -1.0088e-20 7.49972e-05 -4.45403e-21 7.04051e-05)
(6.48297e-05 -6.96579e-06 -2.13261e-20 7.63977e-05 -5.24781e-21 7.06122e-05)
(6.38283e-05 -5.96692e-06 2.17463e-20 7.74576e-05 3.49449e-21 7.06396e-05)
(6.28453e-05 -4.81514e-06 -3.81347e-20 7.81441e-05 -9.68962e-21 7.04898e-05)
(6.25355e-05 -5.10813e-06 -1.64159e-20 5.1982e-05 -5.35738e-21 5.72567e-05)
(6.24476e-05 -6.0047e-06 1.44164e-20 5.36454e-05 4.13721e-21 5.80508e-05)
(6.20543e-05 -6.74387e-06 -4.20845e-21 5.53592e-05 -1.28621e-21 5.87079e-05)
(6.16106e-05 -7.29445e-06 -1.02993e-20 5.72118e-05 -2.82e-21 5.94095e-05)
(6.10529e-05 -7.65189e-06 -3.54564e-20 5.91798e-05 -1.19572e-20 6.01176e-05)
(6.03744e-05 -7.78054e-06 -2.72659e-20 6.11153e-05 -9.92169e-21 6.07468e-05)
(5.9658e-05 -7.68513e-06 3.52461e-20 6.29844e-05 1.16177e-20 6.13225e-05)
(5.88993e-05 -7.37022e-06 2.01302e-20 6.47321e-05 7.55396e-21 6.18161e-05)
(5.81256e-05 -6.85324e-06 -3.03171e-20 6.62875e-05 -9.97774e-21 6.22065e-05)
(5.73527e-05 -6.15391e-06 1.01269e-19 6.76123e-05 3.41701e-20 6.24814e-05)
(5.65861e-05 -5.2901e-06 -1.2592e-19 6.86685e-05 -4.21682e-20 6.26252e-05)
(5.58088e-05 -4.28671e-06 1.27364e-19 6.93784e-05 4.18778e-20 6.2589e-05)
(5.5108e-05 -3.17345e-06 -1.05353e-19 6.98143e-05 -2.70353e-20 6.24596e-05)
(5.49776e-05 -4.53347e-06 -6.93539e-22 4.57704e-05 -1.5688e-22 5.03727e-05)
(5.49128e-05 -5.31782e-06 -2.08097e-20 4.72579e-05 -5.95219e-21 5.10897e-05)
(5.45771e-05 -5.96187e-06 4.27706e-21 4.87853e-05 6.43348e-22 5.16827e-05)
(5.42106e-05 -6.44068e-06 1.53391e-20 5.0444e-05 5.10925e-21 5.23259e-05)
(5.37509e-05 -6.74984e-06 1.36867e-20 5.22076e-05 4.38274e-21 5.29807e-05)
(5.31933e-05 -6.85911e-06 4.65467e-20 5.39485e-05 1.49487e-20 5.35728e-05)
(5.26127e-05 -6.77354e-06 6.92433e-20 5.56387e-05 2.19568e-20 5.41271e-05)
(5.20035e-05 -6.49738e-06 3.15151e-20 5.72304e-05 9.68745e-21 5.46172e-05)
(5.13895e-05 -6.04631e-06 -3.72973e-20 5.86626e-05 -1.08131e-20 5.50262e-05)
(5.07844e-05 -5.43744e-06 -4.39424e-21 5.99043e-05 -3.6569e-21 5.53436e-05)
(5.01896e-05 -4.68589e-06 9.76902e-21 6.09196e-05 8.47571e-21 5.55527e-05)
(4.9611e-05 -3.8127e-06 -3.50375e-20 6.16709e-05 -1.59213e-20 5.56378e-05)
(4.90652e-05 -2.84447e-06 1.10169e-19 6.21395e-05 3.85609e-20 5.55982e-05)
(4.84075e-05 -4.02905e-06 4.68965e-21 4.03635e-05 1.93358e-21 4.43848e-05)
(4.83581e-05 -4.71613e-06 -3.40728e-20 4.16929e-05 -1.00426e-20 4.50301e-05)
(4.80698e-05 -5.27841e-06 3.38071e-20 4.30565e-05 9.95967e-21 4.55651e-05)
(4.77658e-05 -5.695e-06 -1.97939e-20 4.45418e-05 -5.17664e-21 4.6153e-05)
(4.73848e-05 -5.96219e-06 -1.93625e-20 4.61222e-05 -6.11595e-21 4.67552e-05)
(4.69247e-05 -6.05421e-06 5.02688e-20 4.76874e-05 1.51989e-20 4.73079e-05)
(4.64517e-05 -5.97614e-06 -6.68705e-20 4.92132e-05 -2.2311e-20 4.78339e-05)
(4.59626e-05 -5.73234e-06 -2.18517e-20 5.06601e-05 -6.83925e-21 4.8312e-05)
(4.54751e-05 -5.33661e-06 1.00823e-19 5.19725e-05 3.09185e-20 4.87241e-05)
(4.50041e-05 -4.80434e-06 -3.92356e-20 5.31286e-05 -1.26701e-20 4.90657e-05)
(4.4547e-05 -4.1479e-06 1.31417e-19 5.40945e-05 3.7423e-20 4.93188e-05)
(4.41212e-05 -3.38678e-06 -6.86993e-20 5.4853e-05 -1.94503e-20 4.94847e-05)
(4.37025e-05 -2.53695e-06 6.59074e-21 5.53445e-05 -6.90336e-21 4.95188e-05)
(4.33728e-05 -1.61885e-06 1.47456e-20 5.56498e-05 4.19206e-21 4.95097e-05)
(4.2681e-05 -3.58511e-06 1.39253e-20 3.56443e-05 4.17645e-21 3.91626e-05)
(4.26432e-05 -4.18792e-06 -1.83329e-20 3.68336e-05 -5.11907e-21 3.97431e-05)
(4.23948e-05 -4.67946e-06 -4.89966e-21 3.80523e-05 -1.28124e-21 4.02256e-05)
(4.21385e-05 -5.04184e-06 -3.2055e-20 3.93803e-05 -8.90708e-21 4.07593e-05)
(4.18218e-05 -5.27274e-06 -4.71528e-20 4.07978e-05 -1.47531e-20 4.13117e-05)
(4.144e-05 -5.34948e-06 4.3964e-20 4.22037e-05 1.27628e-20 4.1824e-05)
(4.10545e-05 -5.2775e-06 -7.74097e-20 4.35804e-05 -2.33296e-20 4.23189e-05)
(4.06597e-05 -5.0607e-06 -3.71115e-20 4.4891e-05 -1.13016e-20 4.27762e-05)
(4.02736e-05 -4.71183e-06 -1.03989e-19 4.60907e-05 -3.21566e-20 4.31827e-05)
(3.99069e-05 -4.24429e-06 -2.77232e-20 4.71585e-05 -9.43087e-21 4.35325e-05)
(3.95596e-05 -3.66901e-06 -1.37306e-19 4.80689e-05 -4.44193e-20 4.38128e-05)
(3.92432e-05 -3.0028e-06 3.69256e-20 4.8803e-05 1.42614e-20 4.4021e-05)
(3.89495e-05 -2.25749e-06 -1.82981e-19 4.93293e-05 -4.90611e-20 4.41356e-05)
(3.87124e-05 -1.45425e-06 3.14752e-20 4.96646e-05 1.3644e-20 4.41852e-05)
(3.76788e-05 -3.1937e-06 -1.03466e-20 3.15165e-05 -2.87228e-21 3.4598e-05)
(3.76483e-05 -3.72305e-06 2.09193e-20 3.25798e-05 5.71877e-21 3.51185e-05)
(3.74331e-05 -4.15311e-06 4.09168e-21 3.36695e-05 1.74771e-21 3.55535e-05)
(3.72155e-05 -4.46864e-06 -6.66265e-20 3.48576e-05 -1.9053e-20 3.60368e-05)
(3.69503e-05 -4.66788e-06 7.52589e-20 3.61285e-05 2.1836e-20 3.65415e-05)
(3.6632e-05 -4.73116e-06 -1.05217e-19 3.73907e-05 -3.06055e-20 3.70134e-05)
(3.6317e-05 -4.66416e-06 8.92423e-20 3.86318e-05 2.63488e-20 3.74759e-05)
(3.59994e-05 -4.47048e-06 -1.47948e-20 3.98187e-05 -3.41608e-21 3.79099e-05)
(3.56927e-05 -4.16157e-06 8.08828e-20 4.09097e-05 2.47448e-20 3.83018e-05)
(3.54095e-05 -3.74957e-06 -5.80971e-20 4.18919e-05 -1.70954e-20 3.86505e-05)
(3.51476e-05 -3.24377e-06 -4.90084e-20 4.27415e-05 -8.67644e-21 3.89433e-05)
(3.49173e-05 -2.65837e-06 8.38927e-20 4.34436e-05 2.50475e-20 3.91788e-05)
(3.47174e-05 -2.0042e-06 1.50825e-19 4.39779e-05 4.7003e-20 3.93448e-05)
(3.45524e-05 -1.2974e-06 1.03771e-19 4.43283e-05 2.55752e-20 3.94371e-05)
(3.32997e-05 -2.84788e-06 1.05313e-20 2.7898e-05 2.66192e-21 3.05993e-05)
(3.32735e-05 -3.31305e-06 -1.01305e-20 2.88481e-05 -2.4596e-21 3.10651e-05)
(3.30838e-05 -3.68939e-06 5.76788e-21 2.98208e-05 1.81377e-21 3.14546e-05)
(3.28981e-05 -3.96431e-06 6.58384e-21 3.08849e-05 1.94639e-21 3.18921e-05)
(3.26748e-05 -4.13598e-06 -5.14641e-20 3.20239e-05 -1.38408e-20 3.23516e-05)
(3.24093e-05 -4.18764e-06 -5.51495e-20 3.31578e-05 -1.58163e-20 3.27857e-05)
(3.21504e-05 -4.12467e-06 -4.24492e-20 3.42749e-05 -1.22642e-20 3.32142e-05)
(3.18949e-05 -3.95086e-06 -1.21359e-20 3.53476e-05 -2.47569e-21 3.36222e-05)
(3.16517e-05 -3.67617e-06 3.72882e-21 3.63382e-05 1.21802e-21 3.39957e-05)
(3.1434e-05 -3.31178e-06 -1.8072e-21 3.72372e-05 8.52523e-22 3.43356e-05)
(3.1239e-05 -2.86582e-06 9.665e-20 3.80241e-05 2.74335e-20 3.46307e-05)
(3.10755e-05 -2.35041e-06 1.80347e-20 3.86867e-05 1.1039e-21 3.48794e-05)
(3.09498e-05 -1.77536e-06 -3.6026e-20 3.92172e-05 -1.28802e-20 3.50818e-05)
(3.08415e-05 -1.15141e-06 -2.58725e-20 3.95717e-05 -1.05679e-20 3.5203e-05)
(3.08144e-05 -4.93084e-07 -1.42961e-19 3.98177e-05 -3.4827e-20 3.53162e-05)
(2.94585e-05 -2.54133e-06 1.32893e-20 2.4719e-05 3.14524e-21 2.70891e-05)
(2.94333e-05 -2.95045e-06 3.22118e-20 2.55667e-05 8.82569e-21 2.75038e-05)
(2.92639e-05 -3.27995e-06 -4.7884e-20 2.64344e-05 -1.28428e-20 2.78515e-05)
(2.91051e-05 -3.5196e-06 6.98101e-20 2.73879e-05 1.83721e-20 2.82473e-05)
(2.89164e-05 -3.66738e-06 1.18023e-20 2.84093e-05 3.56802e-21 2.86652e-05)
(2.86936e-05 -3.70892e-06 8.95919e-20 2.94268e-05 2.47251e-20 2.90625e-05)
(2.84819e-05 -3.6497e-06 6.79127e-20 3.04331e-05 1.85157e-20 2.94591e-05)
(2.82753e-05 -3.49299e-06 5.33715e-20 3.14003e-05 1.54022e-20 2.9839e-05)
(2.80828e-05 -3.24794e-06 8.02837e-20 3.22974e-05 2.10408e-20 3.01908e-05)
(2.79161e-05 -2.92471e-06 -3.40306e-20 3.31166e-05 -9.61878e-21 3.05166e-05)
(2.77735e-05 -2.53028e-06 -4.38195e-20 3.38418e-05 -1.45745e-20 3.0807e-05)
(2.76622e-05 -2.07523e-06 -5.77183e-20 3.44624e-05 -1.53533e-20 3.10612e-05)
(2.75874e-05 -1.5684e-06 6.70727e-20 3.49709e-05 1.67368e-20 3.12777e-05)
(2.75399e-05 -1.01693e-06 2.51669e-20 3.53428e-05 5.53728e-21 3.14389e-05)
(2.75493e-05 -4.37492e-07 5.41633e-20 3.55996e-05 2.03697e-20 3.15731e-05)
(2.60815e-05 -2.26928e-06 -2.63317e-20 2.19202e-05 -6.17668e-21 2.40014e-05)
(2.60538e-05 -2.62909e-06 -3.6924e-21 2.26742e-05 -1.43216e-21 2.43674e-05)
(2.59019e-05 -2.91777e-06 8.03833e-20 2.34488e-05 2.04619e-20 2.46775e-05)
(2.57668e-05 -3.12676e-06 -2.33401e-21 2.43043e-05 4.59149e-22 2.50364e-05)
(2.56084e-05 -3.25398e-06 -3.49095e-20 2.52214e-05 -8.97778e-21 2.54172e-05)
(2.54206e-05 -3.28681e-06 -1.24158e-20 2.61345e-05 -3.54184e-21 2.57798e-05)
(2.52465e-05 -3.23084e-06 -8.84669e-20 2.70395e-05 -2.38944e-20 2.61446e-05)
(2.50789e-05 -3.08898e-06 2.38496e-20 2.79102e-05 6.47062e-21 2.64958e-05)
(2.49272e-05 -2.86977e-06 -1.03115e-19 2.87216e-05 -2.73534e-20 2.68253e-05)
(2.48003e-05 -2.58209e-06 2.16684e-20 2.94657e-05 5.2102e-21 2.71334e-05)
(2.46982e-05 -2.23252e-06 -4.21063e-20 3.013e-05 -9.81997e-21 2.74138e-05)
(2.46266e-05 -1.82998e-06 -7.13056e-21 3.07059e-05 -6.59439e-22 2.76654e-05)
(2.45906e-05 -1.3821e-06 -8.9434e-20 3.11881e-05 -2.65066e-20 2.78883e-05)
(2.45868e-05 -8.95268e-07 -4.74626e-20 3.15609e-05 -1.01664e-20 2.80721e-05)
(2.46204e-05 -3.82585e-07 5.28418e-20 3.18172e-05 9.62993e-21 2.82174e-05)
(2.31055e-05 -2.02751e-06 5.49518e-21 1.94506e-05 1.50431e-21 2.1279e-05)
(2.30754e-05 -2.34411e-06 -3.25955e-20 2.01214e-05 -7.48104e-21 2.16016e-05)
(2.29409e-05 -2.59718e-06 -5.27437e-20 2.08146e-05 -1.29446e-20 2.18798e-05)
(2.28259e-05 -2.77939e-06 -1.08647e-20 2.15824e-05 -3.1278e-21 2.22051e-05)
(2.26919e-05 -2.88865e-06 4.9217e-20 2.24051e-05 1.26599e-20 2.25508e-05)
(2.25334e-05 -2.9141e-06 -5.52978e-20 2.32245e-05 -1.41266e-20 2.28811e-05)
(2.23897e-05 -2.8611e-06 -4.80987e-21 2.40374e-05 -4.90484e-22 2.32153e-05)
(2.22533e-05 -2.73226e-06 9.81036e-20 2.48206e-05 2.46927e-20 2.35383e-05)
(2.21331e-05 -2.53558e-06 7.57537e-20 2.55516e-05 2.00233e-20 2.38434e-05)
(2.2038e-05 -2.27902e-06 -9.00602e-20 2.62261e-05 -2.33044e-20 2.41326e-05)
(2.19667e-05 -1.96839e-06 3.49693e-20 2.68319e-05 1.14124e-20 2.43993e-05)
(2.19261e-05 -1.61161e-06 2.3081e-20 2.73641e-05 5.95076e-21 2.46446e-05)
(2.19184e-05 -1.21518e-06 -6.65088e-20 2.78154e-05 -1.22223e-20 2.48661e-05)
(2.1948e-05 -7.84856e-07 6.99074e-20 2.81824e-05 1.76087e-20 2.50645e-05)
(2.19994e-05 -3.29642e-07 -6.03988e-20 2.84332e-05 -1.73554e-20 2.52147e-05)
(2.21234e-05 1.43211e-07 5.29148e-20 2.86252e-05 1.45445e-20 2.53749e-05)
(2.048e-05 -1.81229e-06 2.50062e-21 1.72688e-05 5.52629e-22 1.88756e-05)
(2.04481e-05 -2.09105e-06 1.5588e-21 1.78661e-05 2.14809e-22 1.916e-05)
(2.03308e-05 -2.31302e-06 -1.60929e-20 1.8488e-05 -4.13822e-21 1.94114e-05)
(2.02332e-05 -2.47191e-06 1.50132e-20 1.91775e-05 3.54853e-21 1.97063e-05)
(2.01187e-05 -2.56555e-06 -3.61525e-20 1.99148e-05 -8.50045e-21 2.0019e-05)
(1.99841e-05 -2.58468e-06 7.53119e-20 2.06494e-05 1.87004e-20 2.03188e-05)
(1.98642e-05 -2.53433e-06 4.89901e-20 2.13785e-05 1.17077e-20 2.0623e-05)
(1.97533e-05 -2.4171e-06 -1.69989e-19 2.20823e-05 -4.34435e-20 2.09191e-05)
(1.96583e-05 -2.24025e-06 1.59904e-20 2.27402e-05 4.81706e-21 2.12004e-05)
(1.95876e-05 -2.01092e-06 6.35832e-21 2.33498e-05 2.5407e-21 2.14693e-05)
(1.95401e-05 -1.73432e-06 8.48211e-20 2.39003e-05 1.98314e-20 2.17202e-05)
(1.95221e-05 -1.4176e-06 5.4579e-20 2.43881e-05 1.05033e-20 2.19548e-05)
(1.95354e-05 -1.06594e-06 1.04913e-19 2.4808e-05 2.76202e-20 2.21712e-05)
(1.95837e-05 -6.85059e-07 -2.94942e-20 2.51557e-05 -7.99102e-21 2.23692e-05)
(1.96611e-05 -2.8058e-07 -3.62092e-20 2.54147e-05 -6.77359e-21 2.2537e-05)
(1.97892e-05 1.36946e-07 7.79035e-20 2.56043e-05 1.58184e-20 2.26963e-05)
(1.81627e-05 -1.62081e-06 7.33937e-21 1.53409e-05 1.29675e-21 1.67531e-05)
(1.81298e-05 -1.86605e-06 4.43963e-20 1.58723e-05 1.0327e-20 1.70035e-05)
(1.80275e-05 -2.06079e-06 2.92321e-21 1.64305e-05 9.28343e-22 1.72309e-05)
(1.7944e-05 -2.19934e-06 4.16485e-20 1.70494e-05 9.88408e-21 1.74978e-05)
(1.78453e-05 -2.2794e-06 8.04702e-21 1.77098e-05 2.46557e-21 1.77796e-05)
(1.77297e-05 -2.29309e-06 -3.87469e-20 1.83672e-05 -9.62526e-21 1.80504e-05)
(1.76298e-05 -2.24533e-06 -8.41442e-20 1.90211e-05 -2.06915e-20 1.83271e-05)
(1.7539e-05 -2.13843e-06 -6.82739e-21 1.96526e-05 -1.24753e-22 1.85972e-05)
(1.74634e-05 -1.97897e-06 6.8489e-20 2.02433e-05 1.70686e-20 1.88545e-05)
(1.74119e-05 -1.77367e-06 -3.62823e-20 2.07929e-05 -9.10064e-21 1.91031e-05)
(1.73824e-05 -1.52697e-06 -6.15396e-20 2.12913e-05 -1.65487e-20 1.93371e-05)
(1.73806e-05 -1.24525e-06 -1.37949e-19 2.17361e-05 -3.31575e-20 1.95583e-05)
(1.74091e-05 -9.33126e-07 7.20716e-20 2.21237e-05 1.57247e-20 1.97662e-05)
(1.74695e-05 -5.95156e-07 8.06189e-20 2.24491e-05 1.65178e-20 1.99591e-05)
(1.75626e-05 -2.36532e-07 -1.96713e-20 2.27056e-05 -4.41723e-21 2.01337e-05)
(1.76892e-05 1.3435e-07 -1.43369e-20 2.28862e-05 -2.83305e-21 2.02874e-05)
(1.61055e-05 -1.21836e-06 -1.16862e-21 1.32368e-05 -4.23835e-22 1.46729e-05)
(1.61166e-05 -1.45002e-06 2.41493e-21 1.36357e-05 7.92457e-22 1.48773e-05)
(1.60838e-05 -1.66589e-06 -2.6985e-20 1.41091e-05 -5.67686e-21 1.50987e-05)
(1.5992e-05 -1.83664e-06 -1.9488e-20 1.46082e-05 -4.8171e-21 1.53018e-05)
(1.59197e-05 -1.95736e-06 4.91487e-20 1.51632e-05 1.16663e-20 1.55425e-05)
(1.58344e-05 -2.0257e-06 -7.58086e-20 1.57547e-05 -1.74706e-20 1.57966e-05)
(1.57345e-05 -2.0348e-06 2.8333e-21 1.63428e-05 5.93552e-22 1.60406e-05)
(1.565e-05 -1.98939e-06 -1.82242e-20 1.69281e-05 -3.61774e-21 1.62906e-05)
(1.55757e-05 -1.89178e-06 5.03697e-20 1.74941e-05 1.19808e-20 1.65363e-05)
(1.55159e-05 -1.74787e-06 3.97535e-20 1.8024e-05 9.10419e-21 1.67713e-05)
(1.54787e-05 -1.56371e-06 4.78723e-20 1.8518e-05 1.1709e-20 1.69991e-05)
(1.54624e-05 -1.34336e-06 2.88411e-21 1.89677e-05 5.26513e-22 1.72154e-05)
(1.54724e-05 -1.09253e-06 5.57737e-21 1.93714e-05 3.63327e-21 1.7422e-05)
(1.55111e-05 -8.15114e-07 -1.26303e-20 1.97268e-05 -4.86946e-21 1.76189e-05)
(1.55789e-05 -5.14957e-07 -9.22732e-20 2.00286e-05 -2.14609e-20 1.78037e-05)
(1.56817e-05 -1.97067e-07 -5.19307e-21 2.02771e-05 1.39417e-21 1.79797e-05)
(1.58049e-05 1.33126e-07 8.83767e-20 2.04469e-05 1.75657e-20 1.81253e-05)
(1.59882e-05 4.7012e-07 9.65062e-21 2.05838e-05 -4.11235e-22 1.82872e-05)
(1.42971e-05 -1.09228e-06 3.37761e-21 1.17663e-05 8.00963e-22 1.30334e-05)
(1.43057e-05 -1.29728e-06 -1.75122e-20 1.21237e-05 -3.5577e-21 1.32158e-05)
(1.42736e-05 -1.48749e-06 -2.11374e-20 1.2546e-05 -4.91868e-21 1.34118e-05)
(1.41916e-05 -1.63729e-06 1.75719e-20 1.29929e-05 3.74435e-21 1.35939e-05)
(1.41285e-05 -1.74242e-06 -3.37514e-20 1.34903e-05 -7.46098e-21 1.38105e-05)
(1.4054e-05 -1.80054e-06 5.2037e-20 1.40196e-05 1.15861e-20 1.40387e-05)
(1.39675e-05 -1.80586e-06 3.00505e-20 1.45456e-05 7.18379e-21 1.42584e-05)
(1.38963e-05 -1.76285e-06 8.95333e-20 1.50696e-05 2.07218e-20 1.44845e-05)
(1.38346e-05 -1.67354e-06 -7.53178e-20 1.55757e-05 -1.75501e-20 1.47065e-05)
(1.37869e-05 -1.54341e-06 -6.27761e-21 1.605e-05 -1.59889e-21 1.49197e-05)
(1.37608e-05 -1.37807e-06 3.56909e-20 1.64933e-05 6.61561e-21 1.51279e-05)
(1.37541e-05 -1.18095e-06 -7.5654e-20 1.68978e-05 -1.65872e-20 1.53265e-05)
(1.3772e-05 -9.57263e-07 9.52634e-21 1.72625e-05 2.63948e-21 1.55176e-05)
(1.38167e-05 -7.10439e-07 3.44397e-21 1.75861e-05 1.49225e-21 1.57016e-05)
(1.38886e-05 -4.43722e-07 5.68283e-20 1.78639e-05 1.37377e-20 1.58763e-05)
(1.39919e-05 -1.61673e-07 4.98419e-20 1.80952e-05 7.84442e-21 1.60439e-05)
(1.41219e-05 1.32573e-07 -8.51964e-20 1.82681e-05 -1.93662e-20 1.6195e-05)
(1.42936e-05 4.30602e-07 -4.81424e-20 1.83974e-05 -6.80814e-21 1.63457e-05)
(1.26958e-05 -9.79337e-07 -8.97468e-22 1.04624e-05 -5.43098e-22 1.15807e-05)
(1.27014e-05 -1.16076e-06 1.90181e-21 1.0782e-05 2.4842e-22 1.17428e-05)
(1.26714e-05 -1.32851e-06 7.83874e-21 1.11599e-05 1.36812e-21 1.19176e-05)
(1.25976e-05 -1.4599e-06 5.61729e-20 1.15598e-05 1.23966e-20 1.20803e-05)
(1.25421e-05 -1.55136e-06 1.54673e-20 1.20053e-05 3.52575e-21 1.22748e-05)
(1.24772e-05 -1.60071e-06 2.07363e-20 1.24792e-05 4.71684e-21 1.24801e-05)
(1.24017e-05 -1.60284e-06 -1.31359e-20 1.29492e-05 -2.9332e-21 1.26772e-05)
(1.23408e-05 -1.56206e-06 1.53319e-20 1.34174e-05 3.77933e-21 1.28806e-05)
(1.22897e-05 -1.48033e-06 4.56443e-21 1.38698e-05 1.3694e-21 1.30811e-05)
(1.22518e-05 -1.36262e-06 -2.30814e-20 1.42941e-05 -5.85093e-21 1.32742e-05)
(1.22332e-05 -1.21387e-06 -6.993e-20 1.46901e-05 -1.57571e-20 1.34625e-05)
(1.22335e-05 -1.03746e-06 6.70834e-20 1.50528e-05 1.64792e-20 1.36437e-05)
(1.22563e-05 -8.37853e-07 -8.23652e-21 1.53809e-05 -1.38367e-21 1.38189e-05)
(1.2304e-05 -6.1803e-07 3.52409e-20 1.56737e-05 6.13664e-21 1.39892e-05)
(1.23772e-05 -3.80779e-07 -4.5883e-20 1.59276e-05 -1.12171e-20 1.41527e-05)
(1.24785e-05 -1.3016e-07 -9.97152e-20 1.61407e-05 -2.32604e-20 1.43102e-05)
(1.26077e-05 1.31167e-07 5.68651e-20 1.63078e-05 1.44671e-20 1.4458e-05)
(1.27661e-05 3.96124e-07 1.13509e-19 1.64261e-05 2.29753e-20 1.45962e-05)
(1.12767e-05 -8.78175e-07 -1.75364e-21 9.3054e-06 -2.26237e-22 1.02926e-05)
(1.12806e-05 -1.03878e-06 1.63388e-20 9.59182e-06 3.29832e-21 1.04373e-05)
(1.12521e-05 -1.18673e-06 1.35303e-20 9.92956e-06 3.04912e-21 1.05927e-05)
(1.11859e-05 -1.30198e-06 -2.70541e-20 1.02876e-05 -5.39566e-21 1.07384e-05)
(1.11369e-05 -1.38151e-06 -3.27912e-20 1.06868e-05 -7.24482e-21 1.09129e-05)
(1.10793e-05 -1.42316e-06 -7.21807e-20 1.11101e-05 -1.57145e-20 1.10965e-05)
(1.10131e-05 -1.4227e-06 -2.28238e-20 1.15299e-05 -4.87859e-21 1.12733e-05)
(1.09611e-05 -1.38414e-06 1.77142e-19 1.19481e-05 3.8637e-20 1.14561e-05)
(1.09179e-05 -1.30922e-06 1.77698e-20 1.23517e-05 3.02047e-21 1.16362e-05)
(1.0887e-05 -1.20256e-06 -2.40108e-20 1.27298e-05 -5.46607e-21 1.18096e-05)
(1.08748e-05 -1.06874e-06 -1.34914e-20 1.30837e-05 -1.67629e-21 1.19802e-05)
(1.08795e-05 -9.10631e-07 3.85222e-20 1.34078e-05 7.03073e-21 1.21442e-05)
(1.09051e-05 -7.32334e-07 3.54463e-20 1.37018e-05 7.22202e-21 1.23039e-05)
(1.09535e-05 -5.36508e-07 -6.58175e-20 1.39651e-05 -1.54119e-20 1.24597e-05)
(1.10251e-05 -3.25504e-07 2.43415e-20 1.41946e-05 5.75737e-21 1.26102e-05)
(1.11223e-05 -1.02693e-07 -6.68493e-20 1.43889e-05 -1.17462e-20 1.27562e-05)
(1.12488e-05 1.29174e-07 -1.85203e-20 1.45484e-05 -2.63662e-21 1.28993e-05)
(1.13926e-05 3.65008e-07 -6.21879e-20 1.46533e-05 -1.19973e-20 1.3023e-05)
(1.15818e-05 6.01705e-07 5.52796e-20 1.47364e-05 4.56261e-21 1.31601e-05)
(1.00184e-05 -7.87537e-07 -4.47641e-21 8.2782e-06 -8.71508e-22 9.14979e-06)
(1.00208e-05 -9.29702e-07 -9.97111e-21 8.53484e-06 -2.10375e-21 9.2789e-06)
(9.99425e-06 -1.06023e-06 1.80773e-20 8.83712e-06 3.72151e-21 9.41744e-06)
(9.93448e-06 -1.16129e-06 1.95632e-20 9.15753e-06 3.95977e-21 9.54754e-06)
(9.89081e-06 -1.23037e-06 3.36583e-20 9.51473e-06 7.00465e-21 9.70382e-06)
(9.84001e-06 -1.26545e-06 7.36882e-20 9.8932e-06 1.5761e-20 9.86839e-06)
(9.78172e-06 -1.26288e-06 1.30067e-20 1.02678e-05 2.49311e-21 1.00265e-05)
(9.73635e-06 -1.22639e-06 -5.09811e-20 1.06407e-05 -1.16061e-20 1.01899e-05)
(9.69991e-06 -1.15776e-06 -7.22605e-20 1.10004e-05 -1.57773e-20 1.03515e-05)
(9.67461e-06 -1.06106e-06 -2.71906e-20 1.13371e-05 -4.55826e-21 1.05071e-05)
(9.66628e-06 -9.40508e-07 2.89132e-20 1.16519e-05 5.7893e-21 1.066e-05)
(9.67388e-06 -7.98812e-07 -8.94725e-20 1.19407e-05 -1.93146e-20 1.08079e-05)
(9.70026e-06 -6.39426e-07 -6.24305e-22 1.22027e-05 -4.40494e-22 1.0952e-05)
(9.74766e-06 -4.648e-07 -5.53778e-20 1.24382e-05 -1.01074e-20 1.10934e-05)
(9.81651e-06 -2.77043e-07 -1.61352e-20 1.26447e-05 -4.5929e-21 1.12311e-05)
(9.90849e-06 -7.90027e-08 1.16756e-20 1.28205e-05 3.42537e-21 1.13651e-05)
(1.00256e-05 1.26708e-07 1.0164e-19 1.29645e-05 2.20021e-20 1.14958e-05)
(1.01644e-05 3.36795e-07 1.21306e-19 1.30681e-05 2.33274e-20 1.16168e-05)
(1.0337e-05 5.46081e-07 -7.61063e-20 1.31448e-05 -1.43776e-20 1.17414e-05)
(8.90197e-06 -7.06255e-07 8.80766e-22 7.36567e-06 -1.33756e-23 8.13526e-06)
(8.90333e-06 -8.32138e-07 7.0138e-21 7.59572e-06 1.59558e-21 8.25055e-06)
(8.87842e-06 -9.47274e-07 -3.60846e-20 7.86615e-06 -7.20045e-21 8.37391e-06)
(8.82469e-06 -1.0359e-06 2.35392e-20 8.15305e-06 4.82665e-21 8.49036e-06)
(8.78563e-06 -1.09584e-06 -5.84682e-20 8.47263e-06 -1.20749e-20 8.63017e-06)
(8.74019e-06 -1.12522e-06 5.29531e-20 8.81052e-06 1.07892e-20 8.77703e-06)
(8.68863e-06 -1.12097e-06 -1.93391e-19 9.14471e-06 -4.03926e-20 8.91832e-06)
(8.64941e-06 -1.08659e-06 1.15158e-20 9.47733e-06 2.53634e-21 9.06479e-06)
(8.61765e-06 -1.0236e-06 -2.21468e-20 9.79692e-06 -3.86938e-21 9.20866e-06)
(8.59668e-06 -9.35916e-07 1.42906e-19 1.00961e-05 2.93252e-20 9.34758e-06)
(8.59153e-06 -8.27328e-07 -4.25137e-20 1.03761e-05 -9.42587e-21 9.48476e-06)
(8.60043e-06 -7.00184e-07 1.00475e-20 1.06323e-05 3.1704e-21 9.61708e-06)
(8.62666e-06 -5.57708e-07 -8.01738e-22 1.08652e-05 4.77225e-22 9.74644e-06)
(8.67175e-06 -4.0203e-07 4.12126e-20 1.10745e-05 9.60862e-21 9.87362e-06)
(8.73607e-06 -2.34883e-07 -7.93239e-20 1.12583e-05 -1.645e-20 9.99764e-06)
(8.82169e-06 -5.89342e-08 -3.67678e-20 1.14158e-05 -5.97848e-21 1.01195e-05)
(8.92937e-06 1.23713e-07 4.52389e-20 1.15449e-05 6.91554e-21 1.0238e-05)
(9.05793e-06 3.10041e-07 -5.39502e-20 1.16404e-05 -1.36242e-20 1.03497e-05)
(9.21589e-06 4.9625e-07 7.92177e-20 1.17109e-05 1.52233e-20 1.0464e-05)
(7.91085e-06 -6.33345e-07 -2.1469e-21 6.55456e-06 -2.94093e-22 7.23406e-06)
(7.91145e-06 -7.44822e-07 -1.89716e-20 6.76087e-06 -3.77391e-21 7.33711e-06)
(7.88838e-06 -8.46373e-07 2.16296e-20 7.00291e-06 4.26452e-21 7.44715e-06)
(7.83959e-06 -9.24036e-07 -4.08849e-20 7.25942e-06 -8.15328e-21 7.5509e-06)
(7.80469e-06 -9.76014e-07 7.50127e-20 7.54535e-06 1.4797e-20 7.67598e-06)
(7.76427e-06 -1.00054e-06 -9.47612e-21 7.84717e-06 -1.94284e-21 7.80733e-06)
(7.71831e-06 -9.9497e-07 1.7045e-20 8.14492e-06 3.75587e-21 7.93321e-06)
(7.68363e-06 -9.6258e-07 1.3168e-20 8.44082e-06 2.79071e-21 8.06356e-06)
(7.65646e-06 -9.04882e-07 -2.3809e-20 8.72524e-06 -4.94418e-21 8.19216e-06)
(7.63887e-06 -8.25367e-07 -8.94274e-20 8.99079e-06 -1.83626e-20 8.31604e-06)
(7.63524e-06 -7.27414e-07 -1.1975e-20 9.23869e-06 -2.27313e-21 8.43788e-06)
(7.64462e-06 -6.13332e-07 7.3425e-21 9.4654e-06 2.02139e-21 8.55571e-06)
(7.66955e-06 -4.85924e-07 4.0388e-20 9.67119e-06 8.76858e-21 8.67093e-06)
(7.7116e-06 -3.47076e-07 6.91644e-20 9.85638e-06 1.41606e-20 8.7845e-06)
(7.77104e-06 -1.98415e-07 -4.03935e-20 1.00192e-05 -7.29095e-21 8.89567e-06)
(7.84892e-06 -4.20839e-08 4.42267e-20 1.01581e-05 1.08325e-20 9.00427e-06)