/*--------------------------------*- C++ -*----------------------------------*\
| =========                 |                                                 |
| \\      /  F ield         | OpenFOAM: The Open Source CFD Toolbox           |
|  \\    /   O peration     | Version:  2506                                  |
|   \\  /    A nd           | Website:  www.openfoam.com                      |
|    \\/     M anipulation  |                                                 |
\*---------------------------------------------------------------------------*/
FoamFile
{
    version     2.0;
    format      ascii;
    arch        "LSB;label=32;scalar=64";
    class       volScalarField;
    location    "50";
    object      turbulenceProperties:L;
}
// * * * * * * * * * * * * * * * * * * * * * * * * * * * * * * * * * * * * * //

dimensions      [0 1 0 0 0 0 0];

internalField   nonuniform List<scalar> 
1340
(
0.0104914
0.0104627
0.0104516
0.0114086
0.0113696
0.0113488
0.0113382
0.0113413
0.0123655
0.0123161
0.0122853
0.0122627
0.0122528
0.0122621
0.0122925
0.0133659
0.0133057
0.0132648
0.0132307
0.0132078
0.0132029
0.0132193
0.0132574
0.0144121
0.0143411
0.0142898
0.0142439
0.0142079
0.0141898
0.0141905
0.0142146
0.0142609
0.0155076
0.0154251
0.0153636
0.0153056
0.0152562
0.0152247
0.0152111
0.0152191
0.0152504
0.016655
0.0165609
0.0164888
0.0164184
0.0163557
0.0163105
0.0162823
0.0162738
0.0162902
0.0163287
0.017858
0.017752
0.0176689
0.0175859
0.0175096
0.0174505
0.0174072
0.0173836
0.0173816
0.0174065
0.0174534
0.0191203
0.0190021
0.0189073
0.0188117
0.0187213
0.0186482
0.0185897
0.0185499
0.0185312
0.0185374
0.0185689
0.0204461
0.0203145
0.0202084
0.0200992
0.0199947
0.0199068
0.0198331
0.0197768
0.0197414
0.0197282
0.0197455
0.0197828
0.0218392
0.0216939
0.0215757
0.0214531
0.0213337
0.021231
0.0211411
0.0210682
0.0210153
0.0209844
0.0209801
0.0210023
0.0233038
0.0231446
0.0230143
0.0228775
0.0227427
0.0226247
0.0225182
0.0224279
0.0223574
0.022308
0.0222823
0.0222884
0.0223119
0.0248452
0.0246711
0.0245287
0.0243769
0.0242262
0.024092
0.0239682
0.0238603
0.0237714
0.023703
0.0236582
0.0236399
0.0236482
0.0264682
0.0262788
0.0261235
0.0259561
0.0257888
0.0256377
0.0254963
0.0253696
0.0252621
0.0251738
0.0251089
0.0250667
0.0250576
0.0250605
0.0281779
0.0279724
0.0278034
0.0276203
0.0274354
0.0272669
0.0271068
0.0269614
0.0268341
0.0267259
0.02664
0.0265768
0.0265419
0.0265271
0.0299792
0.0297573
0.029574
0.0293745
0.0291714
0.0289848
0.0288052
0.0286396
0.0284927
0.0283637
0.0282566
0.0281714
0.0281116
0.0280786
0.031878
0.0316393
0.0314421
0.0312251
0.031003
0.030797
0.0305975
0.0304111
0.0302435
0.0300932
0.0299645
0.0298572
0.0297709
0.0297191
0.0296725
0.0338806
0.0336255
0.0334143
0.0331787
0.0329365
0.0327105
0.0324893
0.0322816
0.0320928
0.0319209
0.0317697
0.0316393
0.0315295
0.0314482
0.0313816
0.0359941
0.0357241
0.0354982
0.0352422
0.0349778
0.0347309
0.0344874
0.0342579
0.0340467
0.0338526
0.0336787
0.033525
0.0333907
0.0332809
0.0331952
0.0382276
0.0379423
0.0376996
0.0374218
0.0371345
0.0368654
0.0365988
0.0363466
0.0361132
0.0358959
0.0356989
0.0355205
0.0353618
0.0352216
0.0351161
0.035006
0.0405887
0.0402874
0.0400251
0.0397237
0.039413
0.039121
0.0388311
0.0385551
0.0382983
0.0380574
0.0378366
0.0376337
0.0374495
0.0372833
0.037144
0.0370137
0.0430833
0.0427659
0.0424823
0.0421563
0.0418216
0.0415066
0.0411918
0.0408914
0.0406112
0.0403458
0.0401006
0.0398729
0.0396626
0.0394704
0.0392988
0.0391496
0.0460367
0.0457187
0.0453834
0.0450806
0.0447296
0.0443693
0.0440304
0.0436909
0.0433649
0.04306
0.04277
0.0425001
0.0422471
0.0420103
0.0417916
0.0415868
0.0414187
0.0412363
0.0488467
0.0485076
0.048153
0.0478289
0.0474518
0.0470654
0.0467014
0.0463351
0.0459838
0.045654
0.0453383
0.0450433
0.0447649
0.0445017
0.044256
0.0440245
0.0438183
0.0436159
0.05182
0.0514603
0.0510827
0.0507371
0.0503329
0.0499182
0.0495284
0.0491355
0.0487573
0.0484013
0.0480611
0.0477406
0.0474366
0.047147
0.0468739
0.0466155
0.0463762
0.046156
0.0549673
0.0545841
0.0541836
0.0538143
0.0533814
0.0529391
0.0525223
0.0521012
0.0516963
0.0513151
0.0509481
0.0506023
0.0502727
0.0499573
0.0496583
0.0493736
0.049099
0.0488645
0.0486104
0.0582994
0.0578913
0.0574653
0.057072
0.0566096
0.056137
0.0556925
0.0552436
0.0548106
0.0544032
0.054011
0.0536398
0.0532856
0.0529449
0.0526193
0.0523083
0.0520102
0.0517384
0.051463
0.0618282
0.0613935
0.060941
0.0605213
0.060028
0.0595251
0.0590517
0.0585722
0.0581127
0.057679
0.0572598
0.0568642
0.0564852
0.0561203
0.0557711
0.0554348
0.0551132
0.0548144
0.0545142
0.0655667
0.0651033
0.064622
0.0641762
0.0636499
0.0631139
0.0626112
0.0621024
0.061613
0.0611522
0.0607084
0.0602885
0.0598863
0.0594978
0.059125
0.0587678
0.0584231
0.0581026
0.0577869
0.0695257
0.0690337
0.0685234
0.0680482
0.0674874
0.0669186
0.0663841
0.065843
0.0653253
0.0648388
0.0643684
0.0639248
0.0634998
0.06309
0.062698
0.0623203
0.0619579
0.0616169
0.0612932
0.0737199
0.0731989
0.0726581
0.072153
0.0715566
0.0709507
0.0703843
0.0698115
0.0692629
0.0687484
0.0682535
0.0677863
0.0673407
0.066911
0.0665
0.0661065
0.0657308
0.0653679
0.0650499
0.0647263
0.0781626
0.0776129
0.0770423
0.0765045
0.0758708
0.0752285
0.0746274
0.0740186
0.0734399
0.0728982
0.0723761
0.0718877
0.0714214
0.070974
0.0705482
0.0701408
0.069755
0.069387
0.0690555
0.068734
0.0828713
0.0822922
0.0816903
0.0811207
0.0804479
0.0797648
0.0791276
0.0784846
0.077871
0.0773004
0.0767543
0.0762427
0.0757582
0.075294
0.0748548
0.0744395
0.0740464
0.073683
0.0733489
0.0730371
0.0878616
0.0872548
0.0866217
0.0860169
0.0853027
0.0845803
0.0839033
0.0832202
0.0825746
0.0819738
0.0813986
0.080866
0.0803628
0.079885
0.0794372
0.0790152
0.0786241
0.078264
0.0779446
0.0776627
0.0931576
0.0925206
0.0918535
0.0912144
0.0904566
0.089689
0.0889722
0.0882501
0.0875647
0.0869313
0.0863301
0.0857736
0.0852534
0.0847624
0.0843067
0.0838842
0.0834992
0.083154
0.0828585
0.0826183
0.0987815
0.098112
0.0974092
0.0967304
0.0959278
0.0951157
0.0943537
0.0935862
0.0928634
0.0921957
0.0915613
0.0909819
0.0904425
0.0899406
0.0894813
0.0890616
0.0886899
0.0883684
0.0881032
0.0879316
0.0878128
0.104762
0.104053
0.10331
0.10259
0.101739
0.100875
0.100068
0.0992554
0.0984864
0.0977803
0.0971158
0.096508
0.095951
0.0954355
0.0949727
0.0945613
0.0942084
0.0939209
0.0937073
0.0935952
0.0935641
0.111122
0.110371
0.109583
0.108815
0.107912
0.106997
0.106137
0.105271
0.104459
0.103712
0.103008
0.102373
0.101792
0.101264
0.1008
0.100396
0.100067
0.099816
0.0996668
0.0996336
0.0997094
0.117893
0.117093
0.116252
0.115435
0.114473
0.113497
0.112583
0.111664
0.110797
0.110005
0.109264
0.108594
0.107989
0.107444
0.106974
0.106581
0.106276
0.106073
0.105989
0.106052
0.106271
0.125097
0.124244
0.123349
0.122472
0.121446
0.120408
0.119429
0.118447
0.117528
0.116684
0.115896
0.115192
0.114557
0.113994
0.113517
0.113129
0.11285
0.112695
0.112685
0.112865
0.113229
0.13276
0.131852
0.130897
0.129959
0.128864
0.127749
0.126702
0.125652
0.124663
0.123764
0.12293
0.122184
0.121518
0.12093
0.12044
0.120058
0.1198
0.119694
0.119758
0.12006
0.120592
0.121672
0.140899
0.139945
0.138932
0.137924
0.136753
0.135558
0.134426
0.133292
0.132234
0.131269
0.130376
0.129586
0.128881
0.128268
0.127764
0.127378
0.127137
0.127069
0.127211
0.127626
0.128332
0.129648
0.149548
0.148553
0.147482
0.146407
0.145149
0.143859
0.142634
0.141407
0.140255
0.139212
0.138254
0.137407
0.136662
0.136015
0.135489
0.135098
0.134866
0.134831
0.135033
0.135549
0.136418
0.137964
0.158736
0.157711
0.156592
0.15544
0.154092
0.152699
0.151358
0.150016
0.14876
0.147618
0.146574
0.14566
0.144859
0.144174
0.143623
0.143217
0.142989
0.142977
0.143229
0.143829
0.144836
0.146605
0.168507
0.167464
0.166301
0.165077
0.163628
0.162112
0.160644
0.159169
0.157775
0.156513
0.155364
0.154358
0.153487
0.152745
0.152155
0.15173
0.151496
0.151497
0.15178
0.15245
0.153563
0.155522
0.178918
0.177878
0.176677
0.175372
0.173813
0.172164
0.17054
0.168903
0.167355
0.165939
0.164648
0.163525
0.162551
0.161731
0.161083
0.160617
0.160364
0.160362
0.160666
0.16137
0.162565
0.164644
0.190056
0.189022
0.18779
0.186405
0.18472
0.182913
0.181117
0.179294
0.177548
0.175945
0.174483
0.173196
0.172083
0.171143
0.1704
0.169865
0.169566
0.16954
0.16984
0.170555
0.1718
0.173902
0.201999
0.200982
0.199723
0.198248
0.196427
0.194449
0.192448
0.190404
0.188434
0.186602
0.184918
0.183429
0.182122
0.181013
0.180125
0.17947
0.179083
0.178997
0.179266
0.179957
0.181211
0.183284
0.186856
0.214845
0.213846
0.212559
0.210996
0.20902
0.206849
0.204623
0.202327
0.200083
0.197982
0.196038
0.194286
0.192735
0.191391
0.190292
0.18946
0.188926
0.188726
0.188907
0.189539
0.190745
0.192774
0.196136
0.228705
0.227737
0.226416
0.224745
0.2226
0.220219
0.21773
0.21514
0.212588
0.210168
0.207909
0.205851
0.203992
0.202357
0.200984
0.199897
0.199144
0.198756
0.19878
0.199274
0.200356
0.202251
0.205373
0.243704
0.242755
0.241396
0.239607
0.237265
0.234644
0.231864
0.228936
0.226013
0.223232
0.220617
0.218196
0.215984
0.213999
0.212285
0.210878
0.209822
0.209159
0.208935
0.209208
0.210072
0.21173
0.214512
0.259897
0.258965
0.25756
0.255631
0.253079
0.250199
0.247075
0.243758
0.240424
0.237235
0.234217
0.231397
0.228781
0.226405
0.224296
0.222494
0.221055
0.220024
0.219452
0.219394
0.219945
0.22127
0.223622
0.277352
0.276429
0.274953
0.272858
0.270068
0.266887
0.263376
0.259626
0.25582
0.252208
0.248762
0.245497
0.242453
0.239638
0.237078
0.234815
0.232907
0.231409
0.230384
0.229893
0.23003
0.230901
0.232733
0.296219
0.295311
0.293719
0.291375
0.288303
0.28474
0.28076
0.276527
0.272218
0.268178
0.264262
0.260518
0.25702
0.253746
0.250676
0.24787
0.245402
0.243341
0.241757
0.240735
0.240332
0.240672
0.241912
0.316663
0.315757
0.314034
0.311357
0.307927
0.303829
0.299317
0.294523
0.289635
0.285213
0.280755
0.276441
0.272494
0.26875
0.265123
0.261695
0.258576
0.255853
0.253621
0.251952
0.250912
0.250687
0.251275
0.338633
0.337767
0.335922
0.332863
0.329032
0.324252
0.319197
0.313682
0.308219
0.303494
0.298233
0.293177
0.288793
0.284622
0.280416
0.276308
0.272463
0.268999
0.266034
0.263668
0.262033
0.261218
0.261101
0.261479
0.362008
0.361288
0.359385
0.35595
0.351704
0.346106
0.340615
0.334028
0.32838
0.323142
0.316311
0.310412
0.305836
0.301291
0.296513
0.291739
0.287127
0.28285
0.279097
0.276059
0.273792
0.272421
0.271714
0.271344
0.386807
0.386413
0.384517
0.380684
0.37601
0.369511
0.363713
0.355584
0.350899
0.343745
0.334513
0.328107
0.323839
0.318868
0.313397
0.30797
0.302594
0.29742
0.292825
0.289048
0.286148
0.284184
0.283014
0.28228
0.411968
0.412056
0.410212
0.406094
0.400972
0.393762
0.388031
0.378613
0.376258
0.365859
0.354942
0.347773
0.343189
0.336923
0.330095
0.323642
0.317232
0.310897
0.305121
0.30025
0.296419
0.293585
0.291695
0.290403
0.435201
0.436325
0.435309
0.431702
0.426662
0.419492
0.414033
0.404425
0.403953
0.391853
0.379314
0.369787
0.363674
0.355562
0.346976
0.339222
0.33172
0.324251
0.317318
0.311371
0.306537
0.302822
0.299993
0.297769
0.458425
0.460893
0.461302
0.458838
0.454434
0.447812
0.442613
0.433245
0.433532
0.421593
0.407277
0.394926
0.386396
0.376174
0.365599
0.35629
0.347641
0.339155
0.331177
0.324243
0.318523
0.31405
0.310428
0.30746
0.485156
0.488978
0.49087
0.489679
0.486012
0.480041
0.47479
0.465808
0.466353
0.455729
0.439597
0.423943
0.411779
0.398648
0.385466
0.37408
0.363965
0.354333
0.345282
0.337255
0.330576
0.325172
0.320757
0.31719
0.515607
0.520904
0.524478
0.524785
0.522088
0.517056
0.511617
0.503489
0.504073
0.496126
0.477951
0.458446
0.440972
0.423602
0.407008
0.392994
0.38112
0.370314
0.360253
0.351216
0.343572
0.337128
0.33168
0.327199
0.55074
0.557239
0.562285
0.564103
0.562704
0.559155
0.5539
0.547792
0.548667
0.544949
0.524371
0.499983
0.474964
0.451719
0.430739
0.413521
0.399547
0.387455
0.376413
0.366461
0.357754
0.350169
0.343741
0.338345
0.591163
0.598113
0.603969
0.607044
0.607324
0.606089
0.602329
0.600287
0.602533
0.604962
0.581323
0.550233
0.514819
0.483793
0.457464
0.436437
0.419991
0.406425
0.394351
0.383299
0.373177
0.363994
0.355818
0.34872
0.63693
0.643144
0.648705
0.652662
0.655192
0.65746
0.657767
0.662748
0.668552
0.679838
0.651897
0.61114
0.561628
0.520836
0.488295
0.462964
0.443503
0.427962
0.414592
0.402322
0.390956
0.38079
0.371904
0.364353
0.358167
0.689898
0.694102
0.698061
0.702274
0.707509
0.714637
0.722722
0.738034
0.751459
0.77674
0.74104
0.685744
0.616679
0.563706
0.524249
0.493862
0.470276
0.45161
0.435585
0.420689
0.406459
0.392886
0.380198
0.368717
0.359499
0.752487
0.75158
0.751944
0.755987
0.765016
0.779447
0.800412
0.83051
0.860782
0.91057
0.858448
0.780536
0.683422
0.61477
0.566492
0.529683
0.501193
0.478705
0.459678
0.442651
0.427346
0.414231
0.403383
0.39358
0.38381
0.819796
0.806964
0.801419
0.807401
0.825347
0.855179
0.89893
0.953369
1.01881
1.10761
1.02528
0.909636
0.771066
0.679606
0.616192
0.567076
0.528119
0.49696
0.470998
0.447983
0.426453
0.405651
0.385696
0.368175
0.35494
0.871415
0.841676
0.830809
0.842243
0.87638
0.936456
1.02752
1.14464
1.29728
1.43284
1.28069
1.09134
0.891601
0.770858
0.689284
0.625392
0.573319
0.530206
0.493515
0.46195
0.435284
0.413297
0.39516
0.379818
0.366459
0.893598
0.85355
0.841319
0.857498
0.905332
0.996059
1.15219
1.42409
1.96155
2.27151
2.07381
1.5407
1.09718
0.857394
0.706777
0.602076
0.525485
0.467649
0.422974
0.387841
0.360128
0.338652
0.322937
0.312354
0.30419
)
;

boundaryField
{
    inlet
    {
        type            calculated;
        value           nonuniform List<scalar> 
25
(
0.964367
0.921187
0.908242
0.925606
0.978248
1.0805
1.26292
1.61558
2.53895
2.71835
1.84312
1.27554
0.877681
0.651339
0.512235
0.419294
0.353371
0.304657
0.267549
0.238638
0.215785
0.197684
0.183475
0.172575
0.164206
)
;
    }
    outlet
    {
        type            calculated;
        value           nonuniform List<scalar> 0();
    }
    walls
    {
        type            calculated;
        value           nonuniform List<scalar> 0();
    }
    frontAndBack
    {
        type            empty;
    }
    procBoundary4to0
    {
        type            processor;
        value           nonuniform List<scalar> 
72
(
0.0105214
0.0114468
0.0124121
0.0134206
0.0144748
0.0155781
0.0167341
0.0179464
0.0192184
0.0205543
0.0219582
0.0234348
0.024989
0.0266258
0.0283503
0.0301682
0.0320852
0.0341071
0.0362392
0.0384909
0.0408688
0.0433797
0.0433797
0.0463321
0.0491624
0.0521561
0.055325
0.0586799
0.0622324
0.0659941
0.0699778
0.0741954
0.0786621
0.0833932
0.0884085
0.0937301
0.0993853
0.105401
0.111806
0.118625
0.125883
0.133596
0.141784
0.150466
0.159675
0.169451
0.17986
0.190979
0.202891
0.215699
0.229529
0.24448
0.260616
0.278021
0.296862
0.317267
0.339147
0.362363
0.386937
0.411716
0.434118
0.4563
0.481943
0.511169
0.545269
0.585184
0.631517
0.686809
0.755634
0.839291
0.92072
0.966056
)
;
    }
    procBoundary4to5
    {
        type            processor;
        value           nonuniform List<scalar> 
95
(
0.00961172
0.00959383
0.00959479
0.0104531
0.0104531
0.0104697
0.0113661
0.0113661
0.011412
0.0123479
0.0123479
0.0133222
0.0133222
0.014337
0.0153083
0.0153083
0.0163968
0.0163968
0.0175345
0.0186291
0.0186291
0.0198552
0.0210506
0.0210506
0.0223697
0.0236793
0.0236793
0.0250991
0.0265402
0.0280635
0.0280635
0.0296536
0.031336
0.0331201
0.0331201
0.0349154
0.0368961
0.0390026
0.0390026
0.0410645
0.0434189
0.045935
0.045935
0.0483564
0.0511895
0.0542316
0.0574935
0.0609877
0.0609877
0.0643848
0.0684045
0.0727442
0.0774134
0.0824354
0.0824354
0.0879029
0.0937959
0.100117
0.106896
0.114089
0.114089
0.123678
0.13203
0.140718
0.149723
0.158906
0.168217
0.177571
0.177571
0.191585
0.200606
0.209388
0.218037
0.226576
0.235078
0.2436
0.252371
0.252371
0.261682
0.271127
0.281818
0.289578
0.296127
0.30514
0.314484
0.323754
0.334173
0.343009
0.343009
0.353179
0.353018
0.374647
0.345303
0.354638
0.298604
)
;
    }
}


// ************************************************************************* //
