/*--------------------------------*- C++ -*----------------------------------*\
| =========                 |                                                 |
| \\      /  F ield         | OpenFOAM: The Open Source CFD Toolbox           |
|  \\    /   O peration     | Version:  2506                                  |
|   \\  /    A nd           | Website:  www.openfoam.com                      |
|    \\/     M anipulation  |                                                 |
\*---------------------------------------------------------------------------*/
FoamFile
{
    version     2.0;
    format      ascii;
    arch        "LSB;label=32;scalar=64";
    class       surfaceScalarField;
    location    "2";
    object      phi;
}
// * * * * * * * * * * * * * * * * * * * * * * * * * * * * * * * * * * * * * //

dimensions      [0 3 -1 0 0 0 0];

oriented        oriented;

internalField   nonuniform List<scalar> 
760
(
-2.25519e-06
2.25513e-06
-7.09969e-06
4.84451e-06
-1.25238e-05
5.42418e-06
-1.78393e-05
5.3155e-06
-2.28478e-05
5.00844e-06
-2.74369e-05
4.58912e-06
-3.14971e-05
4.06022e-06
-3.49106e-05
3.41352e-06
-3.75515e-05
2.6409e-06
-3.92887e-05
1.73722e-06
-3.99922e-05
7.03518e-07
-3.95338e-05
-4.5843e-07
-3.78123e-05
-1.72142e-06
-3.47614e-05
-3.05094e-06
-3.03714e-05
-4.38995e-06
-2.47119e-05
-5.65949e-06
-1.79661e-05
-6.74581e-06
-1.05499e-05
-7.41618e-06
-3.59302e-06
-6.95692e-06
-3.59303e-06
-5.04837e-06
7.30351e-06
-1.38147e-05
1.36108e-05
-2.33268e-05
1.49363e-05
-3.25892e-05
1.4578e-05
-4.12387e-05
1.36579e-05
-4.90553e-05
1.24057e-05
-5.58432e-05
1.08482e-05
-6.14096e-05
8.97989e-06
-6.55614e-05
6.79271e-06
-6.81081e-05
4.28398e-06
-6.88739e-05
1.46936e-06
-6.76892e-05
-1.64312e-06
-6.44274e-05
-4.98326e-06
-5.90225e-05
-8.45582e-06
-5.14923e-05
-1.19202e-05
-4.19735e-05
-1.51782e-05
-3.078e-05
-1.79394e-05
-1.85727e-05
-1.96235e-05
-6.93934e-06
-1.85903e-05
-1.05324e-05
-5.98768e-06
1.32912e-05
-1.61243e-05
2.37475e-05
-2.70244e-05
2.58364e-05
-3.76006e-05
2.51542e-05
-4.74582e-05
2.35155e-05
-5.63535e-05
2.13009e-05
-6.40702e-05
1.85649e-05
-7.03974e-05
1.53071e-05
-7.51258e-05
1.15211e-05
-7.80487e-05
7.20691e-06
-7.89679e-05
2.38862e-06
-7.76897e-05
-2.92127e-06
-7.40632e-05
-8.60983e-06
-6.79924e-05
-1.45265e-05
-5.94717e-05
-2.04409e-05
-4.86293e-05
-2.60207e-05
-3.58002e-05
-3.07685e-05
-2.17213e-05
-3.37024e-05
-8.19206e-06
-3.21195e-05
-1.87244e-05
-6.38824e-06
1.96795e-05
-1.72443e-05
3.46036e-05
-2.89014e-05
3.74935e-05
-4.02081e-05
3.64609e-05
-5.07642e-05
3.40717e-05
-6.03262e-05
3.08629e-05
-6.86765e-05
2.69153e-05
-7.5601e-05
2.22315e-05
-8.0882e-05
1.68021e-05
-8.42967e-05
1.06217e-05
-8.56231e-05
3.71501e-06
-8.46242e-05
-3.92018e-06
-8.10909e-05
-1.21431e-05
-7.48593e-05
-2.07582e-05
-6.58509e-05
-2.94492e-05
-5.41359e-05
-3.77357e-05
-4.00339e-05
-4.48705e-05
-2.43573e-05
-4.93791e-05
-9.17901e-06
-4.72978e-05
-2.79034e-05
-6.77442e-06
2.64539e-05
-1.83474e-05
4.61766e-05
-3.07833e-05
4.99293e-05
-4.28617e-05
4.85393e-05
-5.41774e-05
4.53874e-05
-6.4492e-05
4.11775e-05
-7.35933e-05
3.60166e-05
-8.12684e-05
2.99066e-05
-8.72941e-05
2.28279e-05
-9.14309e-05
1.47584e-05
-9.3418e-05
5.70218e-06
-9.29704e-05
-4.36783e-06
-8.97789e-05
-1.53345e-05
-8.35698e-05
-2.69673e-05
-7.41374e-05
-3.88816e-05
-6.14369e-05
-5.04363e-05
-4.57371e-05
-6.05703e-05
-2.79492e-05
-6.7167e-05
-1.05461e-05
-6.47009e-05
-3.84495e-05
-7.26541e-06
3.37193e-05
-1.97267e-05
5.86379e-05
-3.31263e-05
6.33289e-05
-4.6162e-05
6.15749e-05
-5.84229e-05
5.76483e-05
-6.96799e-05
5.24346e-05
-7.97321e-05
4.60687e-05
-8.83749e-05
3.85494e-05
-9.53857e-05
2.98387e-05
-0.000100509
1.98822e-05
-0.000103452
8.64425e-06
-0.000103861
-3.95858e-06
-0.000101293
-1.79018e-05
-9.53165e-05
-3.29442e-05
-8.55205e-05
-4.86776e-05
-7.16529e-05
-6.43039e-05
-5.38549e-05
-7.83683e-05
-3.31391e-05
-8.78828e-05
-1.25531e-05
-8.52869e-05
-5.10026e-05
-7.88512e-06
4.16044e-05
-2.14493e-05
7.2202e-05
-3.60338e-05
7.79133e-05
-5.02371e-05
7.57782e-05
-6.36444e-05
7.10556e-05
-7.60428e-05
6.4833e-05
-8.72526e-05
5.72785e-05
-9.70898e-05
4.83866e-05
-0.000105345
3.80937e-05
-0.00011176
2.62972e-05
-0.000116003
1.28879e-05
-0.000117693
-2.26912e-06
-0.000116174
-1.94206e-05
-0.000110815
-3.83033e-05
-0.000100891
-5.86016e-05
-8.5785e-05
-7.941e-05
-6.53491e-05
-9.88041e-05
-4.06394e-05
-0.000112593
-1.55041e-05
-0.000110422
-6.65067e-05
-8.64531e-06
5.02497e-05
-2.35457e-05
8.71024e-05
-3.95462e-05
9.39137e-05
-5.51259e-05
9.13579e-05
-6.98699e-05
8.57997e-05
-8.35926e-05
7.85556e-05
-9.61505e-05
6.98364e-05
-0.000107399
5.96353e-05
-0.000117164
4.78587e-05
-0.000125205
3.43382e-05
-0.000131167
1.885e-05
-0.000134731
1.29429e-06
-0.00013489
-1.92611e-05
-0.000130836
-4.23578e-05
-0.000121363
-6.80745e-05
-0.000105235
-9.55376e-05
-8.16978e-05
-0.000122342
-5.16409e-05
-0.000142649
-1.99581e-05
-0.000142105
-8.64648e-05
-9.5646e-06
5.98143e-05
-2.6057e-05
0.000103595
-4.37119e-05
0.000111569
-6.08667e-05
0.000108513
-7.71141e-05
0.000102047
-9.23114e-05
9.37529e-05
-0.000106373
8.38975e-05
-0.000119219
7.24822e-05
-0.000130748
5.93875e-05
-0.000140789
4.43786e-05
-0.000149042
2.71034e-05
-0.000154995
7.24773e-06
-0.00015786
-1.63961e-05
-0.00015627
-4.39479e-05
-0.000148426
-7.5919e-05
-0.000132105
-0.000111858
-0.000105358
-0.000149089
-6.83437e-05
-0.000179663
-2.70831e-05
-0.000183366
-0.000113548
-1.06781e-05
7.04924e-05
-2.90551e-05
0.000121972
-4.86132e-05
0.000131127
-6.75247e-05
0.000127424
-8.54035e-05
0.000119926
-0.000102172
0.000110522
-0.000117829
9.95547e-05
-0.000132396
8.70489e-05
-0.000145882
7.28733e-05
-0.000158238
5.67349e-05
-0.000169292
3.81573e-05
-0.000178552
1.65076e-05
-0.000185413
-9.53536e-06
-0.000188058
-4.13033e-05
-0.000184001
-7.99757e-05
-0.00016955
-0.000126309
-0.000140551
-0.000178089
-9.50888e-05
-0.000225125
-3.95781e-05
-0.000238876
-0.000153126
-1.20508e-05
8.25431e-05
-3.26663e-05
0.000142587
-5.4392e-05
0.000152852
-7.5214e-05
0.000148246
-9.47938e-05
0.000139506
-0.000113152
0.00012888
-0.000130402
0.000116805
-0.000146702
0.000103349
-0.000162221
8.83927e-05
-0.00017711
7.16231e-05
-0.000191418
5.24652e-05
-0.000204909
2.99992e-05
-0.000217468
3.02374e-06
-0.000226884
-3.1888e-05
-0.000230328
-7.65309e-05
-0.000222204
-0.000134433
-0.00019465
-0.000205642
-0.000140757
-0.000279018
-6.39852e-05
-0.000315649
-0.000217111
-1.38011e-05
9.63442e-05
-3.71107e-05
0.000165897
-6.1289e-05
0.000177031
-8.41289e-05
0.000171086
-0.000105392
0.000160769
-0.000125245
0.000148732
-0.000143954
0.000135514
-0.000161841
0.000121236
-0.000179283
0.000105835
-0.000196707
8.90476e-05
-0.000214575
7.03323e-05
-0.000233266
4.86908e-05
-0.000252704
2.24617e-05
-0.000272533
-1.20594e-05
-0.000289398
-5.96656e-05
-0.00029626
-0.000127571
-0.000279857
-0.000222045
-0.000222522
-0.000336354
-0.000114823
-0.000423347
-0.000331934
-1.61448e-05
0.000112489
-4.27691e-05
0.000192521
-6.97035e-05
0.000203965
-9.4584e-05
0.000195967
-0.000117384
0.00018357
-0.00013849
0.000169838
-0.000158352
0.000155377
-0.000177474
0.000140358
-0.000196448
0.000124808
-0.000216021
0.000108621
-0.000237166
9.14771e-05
-0.000261112
7.26363e-05
-0.000289099
5.04493e-05
-0.000322887
2.17284e-05
-0.00036103
-2.15223e-05
-0.000397005
-9.15961e-05
-0.000410597
-0.000208454
-0.000363466
-0.000383484
-0.00021346
-0.000573353
-0.000545394
-1.94842e-05
0.000131973
-5.03027e-05
0.00022334
-8.02819e-05
0.000233944
-0.000107061
0.000222746
-0.000131056
0.000207564
-0.000152984
0.000191766
-0.000173508
0.0001759
-0.000193278
0.000160128
-0.000213052
0.000144583
-0.000233855
0.000129424
-0.000257201
0.000114823
-0.000285395
0.000100831
-0.000321874
8.69276e-05
-0.000370957
7.08121e-05
-0.000437472
4.49926e-05
-0.000517356
-1.17125e-05
-0.000580945
-0.000144865
-0.000555695
-0.000408734
-0.000349071
-0.000779978
-0.000894465
-2.45493e-05
0.000156522
-6.08901e-05
0.00025968
-9.41228e-05
0.000267177
-0.000122279
0.000250902
-0.000146795
0.00023208
-0.000168887
0.000213858
-0.000189387
0.0001964
-0.000208987
0.000179729
-0.000228457
0.000164052
-0.000248887
0.000149853
-0.000272076
0.000138012
-0.000301195
0.000129949
-0.000341745
0.000127478
-0.000402411
0.000131478
-0.000493057
0.000135639
-0.000612044
0.000107274
-0.000715706
-4.12026e-05
-0.000696972
-0.000427468
-0.000434491
-0.00104246
-0.00132896
-3.3077e-05
0.000189599
-7.65341e-05
0.000303138
-0.000112338
0.00030298
-0.000140827
0.000279392
-0.00016488
0.000256133
-0.00018624
0.000235218
-0.000205797
0.000215957
-0.000224085
0.000198016
-0.000241631
0.000181598
-0.000259193
0.000167415
-0.000278206
0.000157025
-0.000301539
0.000153282
-0.000335118
0.000161057
-0.000388844
0.000185205
-0.000473691
0.000220486
-0.000587073
0.000220656
-0.000676756
4.84803e-05
-0.000646399
-0.000457825
-0.000401252
-0.00128761
-0.00173021
-4.81195e-05
0.000237719
-0.000103992
0.00035901
-0.000140274
0.000339263
-0.000164838
0.000303955
-0.000185534
0.000276829
-0.000204007
0.000253691
-0.000220255
0.000232206
-0.000234223
0.000211984
-0.000246104
0.000193479
-0.000255992
0.000177303
-0.000264253
0.000165286
-0.000271428
0.000160457
-0.000280119
0.000169748
-0.000294862
0.000199948
-0.000322252
0.000247876
-0.000358163
0.000256567
-0.000404211
9.45282e-05
-0.000384128
-0.000477908
-0.000282028
-0.00138971
-0.00201224
-4.52449e-05
0.000282964
-0.0001202
0.000433965
-0.000166212
0.000385275
-0.000191823
0.000329567
-0.000204013
0.000289019
-0.000207883
0.000257561
-0.000205808
0.000230131
-0.000199287
0.000205463
-0.000189885
0.000184078
-0.00017754
0.000164958
-0.000162178
0.000149924
-0.000141218
0.000139497
-0.000112504
0.000141034
-7.09036e-05
0.000158348
-2.04138e-05
0.000197386
2.59446e-05
0.000210209
5.9521e-05
6.09517e-05
1.08278e-05
-0.000429215
-1.9883e-06
-0.00137689
-0.00201422
-0.000382035
0.000664999
-0.000358071
0.00041
-0.00024876
0.000275964
-0.000145531
0.000226338
-5.17684e-05
0.000195257
3.66348e-05
0.000169158
0.000119364
0.000147402
0.000196469
0.000128357
0.000267255
0.000113292
0.00033267
9.95427e-05
0.000393255
8.93392e-05
0.000451493
8.12588e-05
0.000510297
8.22304e-05
0.000579959
8.86851e-05
0.000678713
9.86319e-05
0.000811121
7.78014e-05
0.000880867
-8.79488e-06
0.000842519
-0.000390866
0.000480579
-0.00101495
-0.00153364
0.000664999
0.001075
0.00135096
0.0015773
0.00177256
0.00194172
0.00208912
0.00221747
0.00233077
0.00243031
0.00251965
0.00260091
0.00268314
0.00277182
0.00287046
0.00294826
0.00293946
0.0025486
0.00153364
)
;

boundaryField
{
    movingWall
    {
        type            calculated;
        value           uniform 0;
    }
    fixedWalls
    {
        type            calculated;
        value           uniform 0;
    }
    frontAndBack
    {
        type            empty;
    }
}


// ************************************************************************* //
