/*--------------------------------*- C++ -*----------------------------------*\
| =========                 |                                                 |
| \\      /  F ield         | OpenFOAM: The Open Source CFD Toolbox           |
|  \\    /   O peration     | Version:  2506                                  |
|   \\  /    A nd           | Website:  www.openfoam.com                      |
|    \\/     M anipulation  |                                                 |
\*---------------------------------------------------------------------------*/
FoamFile
{
    version     2.0;
    format      ascii;
    arch        "LSB;label=32;scalar=64";
    class       pointScalarField;
    location    "2";
    object      streamFunction;
}
// * * * * * * * * * * * * * * * * * * * * * * * * * * * * * * * * * * * * * //

dimensions      [0 3 -1 0 0 0 0];

internalField   nonuniform List<scalar> 
882
(
0
0
0
0
0
0
0
0
0
0
0
0
0
0
0
0
0
0
0
0
0
0
-2.25515e-05
-7.0995e-05
-0.000125195
-0.000178381
-0.000228505
-0.000274411
-0.000315006
-0.000349069
-0.00037556
-0.000392896
-0.000399931
-0.000395355
-0.000378156
-0.000347579
-0.000303774
-0.000247171
-0.00017964
-0.000105554
-3.58749e-05
0
0
-7.30352e-05
-0.000209142
-0.000358463
-0.000504273
-0.000640892
-0.000764964
-0.000873438
-0.000963165
-0.00103117
-0.00107398
-0.00108867
-0.00107225
-0.00102243
-0.000937804
-0.000818697
-0.000666906
-0.00048744
-0.000291281
-0.000105268
0
0
-0.000132912
-0.000370385
-0.000628707
-0.000880279
-0.00111547
-0.0013285
-0.00151414
-0.00166714
-0.00178243
-0.00185446
-0.00187835
-0.00184914
-0.00176306
-0.00161773
-0.00141341
-0.0011532
-0.000845442
-0.000508494
-0.000187189
0
0
-0.000196794
-0.000542828
-0.000917721
-0.00128236
-0.00162312
-0.00193176
-0.0022009
-0.00242315
-0.00259125
-0.00269743
-0.00273458
-0.00269539
-0.00257397
-0.00236632
-0.00207192
-0.00169456
-0.00124578
-0.000752067
-0.000278979
0
0
-0.000264539
-0.000726302
-0.00122555
-0.00171098
-0.00216489
-0.00257668
-0.00293684
-0.00323583
-0.00346419
-0.00361174
-0.00366876
-0.00362509
-0.00347176
-0.00320202
-0.0028133
-0.00230893
-0.00170315
-0.00103156
-0.00038444
0
0
-0.000337193
-0.000923569
-0.00155682
-0.0021726
-0.00274912
-0.00327348
-0.00373416
-0.00411958
-0.00441805
-0.00461683
-0.00470328
-0.0046637
-0.00448469
-0.00415518
-0.0036685
-0.00302546
-0.0022417
-0.00136295
-0.000509971
0
0
-0.000416044
-0.00113806
-0.00191715
-0.00267497
-0.00338556
-0.00403391
-0.00460668
-0.00509048
-0.0054715
-0.00573443
-0.00586331
-0.00584063
-0.00564643
-0.00526333
-0.00467741
-0.00388331
-0.00289519
-0.00176934
-0.000665012
0
0
-0.000502497
-0.00137352
-0.00231262
-0.00322623
-0.00408426
-0.00486983
-0.00556819
-0.00616447
-0.00664314
-0.00698648
-0.00717498
-0.00718794
-0.00699533
-0.00657169
-0.00589104
-0.00493566
-0.00371217
-0.00228575
-0.000864593
0
0
-0.000598143
-0.00163409
-0.00274974
-0.00383489
-0.0048554
-0.00579295
-0.00663192
-0.00735666
-0.00795062
-0.00839437
-0.0086654
-0.00873789
-0.00857393
-0.00813439
-0.0073753
-0.00625671
-0.00476575
-0.00296919
-0.00113542
0
0
-0.000704924
-0.00192464
-0.00323587
-0.00451014
-0.00570944
-0.00681467
-0.00781021
-0.00868062
-0.00940944
-0.00997675
-0.0103583
-0.0105234
-0.0104281
-0.010015
-0.00921531
-0.00795221
-0.00617126
-0.00392008
-0.0015312
0
0
-0.000825432
-0.0022513
-0.00377979
-0.00526228
-0.00665738
-0.00794619
-0.00911423
-0.0101476
-0.0110316
-0.0117479
-0.0122725
-0.0125725
-0.0126027
-0.0122838
-0.0115186
-0.0101742
-0.00811776
-0.00532765
-0.00217106
0
0
-0.000963443
-0.00262241
-0.00439268
-0.00610357
-0.0077113
-0.00919864
-0.0105538
-0.0117661
-0.0128245
-0.0137149
-0.0144183
-0.0149052
-0.0151298
-0.0150091
-0.0144126
-0.0131368
-0.0109163
-0.00755287
-0.00331929
0
0
-0.00112489
-0.0030501
-0.00508971
-0.00704941
-0.00888514
-0.0105835
-0.0121373
-0.0135408
-0.014789
-0.0158751
-0.0167899
-0.0175163
-0.0180208
-0.018238
-0.0180229
-0.0171069
-0.0150223
-0.0111875
-0.00545389
0
0
-0.00131973
-0.00355313
-0.00589253
-0.00812002
-0.0101957
-0.0121134
-0.0138724
-0.0154736
-0.0169195
-0.0182137
-0.0193619
-0.0203702
-0.0212395
-0.0219476
-0.0223976
-0.0222805
-0.0208317
-0.0167445
-0.0089446
0
0
-0.00156523
-0.00416203
-0.00683376
-0.00934281
-0.0116636
-0.0138022
-0.0157662
-0.0175634
-0.0192041
-0.0207026
-0.0220827
-0.0233822
-0.024657
-0.0259717
-0.0273282
-0.0284009
-0.0279888
-0.0237142
-0.0132895
0
0
-0.001896
-0.00492737
-0.00795714
-0.0107511
-0.0133124
-0.0156646
-0.0178242
-0.0198043
-0.0216204
-0.0232945
-0.0248647
-0.0263976
-0.0280081
-0.0298601
-0.0320651
-0.0342716
-0.0347564
-0.0301782
-0.017302
0
0
-0.00237719
-0.00596729
-0.00935988
-0.0123995
-0.0151678
-0.0177047
-0.0200268
-0.0221465
-0.0240814
-0.0258544
-0.0275073
-0.0291119
-0.0308093
-0.0328088
-0.0352876
-0.0378533
-0.0387985
-0.0340195
-0.0201223
0
0
-0.00282964
-0.00716929
-0.011022
-0.0143177
-0.0172079
-0.0197835
-0.0220848
-0.0241394
-0.0259802
-0.0276298
-0.029129
-0.030524
-0.0319344
-0.0335178
-0.0354917
-0.0375938
-0.0382033
-0.0339112
-0.0201422
0
0
-0.00664999
-0.01075
-0.0135096
-0.015773
-0.0177256
-0.0194172
-0.0208912
-0.0221747
-0.0233077
-0.0243031
-0.0251965
-0.0260091
-0.0268314
-0.0277182
-0.0287046
-0.0294826
-0.0293946
-0.025486
-0.0153364
0
0
0
0
0
0
0
0
0
0
0
0
0
0
0
0
0
0
0
0
0
0
0
0
0
0
0
0
0
0
0
0
0
0
0
0
0
0
0
0
0
0
0
0
-2.25515e-05
-7.0995e-05
-0.000125195
-0.000178381
-0.000228505
-0.000274411
-0.000315006
-0.000349069
-0.00037556
-0.000392896
-0.000399931
-0.000395355
-0.000378156
-0.000347579
-0.000303774
-0.000247171
-0.00017964
-0.000105554
-3.58749e-05
0
0
-7.30352e-05
-0.000209142
-0.000358463
-0.000504273
-0.000640892
-0.000764964
-0.000873438
-0.000963165
-0.00103117
-0.00107398
-0.00108867
-0.00107225
-0.00102243
-0.000937804
-0.000818697
-0.000666906
-0.00048744
-0.000291281
-0.000105268
0
0
-0.000132912
-0.000370385
-0.000628707
-0.000880279
-0.00111547
-0.0013285
-0.00151414
-0.00166714
-0.00178243
-0.00185446
-0.00187835
-0.00184914
-0.00176306
-0.00161773
-0.00141341
-0.0011532
-0.000845442
-0.000508494
-0.000187189
0
0
-0.000196794
-0.000542828
-0.000917721
-0.00128236
-0.00162312
-0.00193176
-0.0022009
-0.00242315
-0.00259125
-0.00269743
-0.00273458
-0.00269539
-0.00257397
-0.00236632
-0.00207192
-0.00169456
-0.00124578
-0.000752067
-0.000278979
0
0
-0.000264539
-0.000726302
-0.00122555
-0.00171098
-0.00216489
-0.00257668
-0.00293684
-0.00323583
-0.00346419
-0.00361174
-0.00366876
-0.00362509
-0.00347176
-0.00320202
-0.0028133
-0.00230893
-0.00170315
-0.00103156
-0.00038444
0
0
-0.000337193
-0.000923569
-0.00155682
-0.0021726
-0.00274912
-0.00327348
-0.00373416
-0.00411958
-0.00441805
-0.00461683
-0.00470328
-0.0046637
-0.00448469
-0.00415518
-0.0036685
-0.00302546
-0.0022417
-0.00136295
-0.000509971
0
0
-0.000416044
-0.00113806
-0.00191715
-0.00267497
-0.00338556
-0.00403391
-0.00460668
-0.00509048
-0.0054715
-0.00573443
-0.00586331
-0.00584063
-0.00564643
-0.00526333
-0.00467741
-0.00388331
-0.00289519
-0.00176934
-0.000665012
0
0
-0.000502497
-0.00137352
-0.00231262
-0.00322623
-0.00408426
-0.00486983
-0.00556819
-0.00616447
-0.00664314
-0.00698648
-0.00717498
-0.00718794
-0.00699533
-0.00657169
-0.00589104
-0.00493566
-0.00371217
-0.00228575
-0.000864593
0
0
-0.000598143
-0.00163409
-0.00274974
-0.00383489
-0.0048554
-0.00579295
-0.00663192
-0.00735666
-0.00795062
-0.00839437
-0.0086654
-0.00873789
-0.00857393
-0.00813439
-0.0073753
-0.00625671
-0.00476575
-0.00296919
-0.00113542
0
0
-0.000704924
-0.00192464
-0.00323587
-0.00451014
-0.00570944
-0.00681467
-0.00781021
-0.00868062
-0.00940944
-0.00997675
-0.0103583
-0.0105234
-0.0104281
-0.010015
-0.00921531
-0.00795221
-0.00617126
-0.00392008
-0.0015312
0
0
-0.000825432
-0.0022513
-0.00377979
-0.00526228
-0.00665738
-0.00794619
-0.00911423
-0.0101476
-0.0110316
-0.0117479
-0.0122725
-0.0125725
-0.0126027
-0.0122838
-0.0115186
-0.0101742
-0.00811776
-0.00532765
-0.00217106
0
0
-0.000963443
-0.00262241
-0.00439268
-0.00610357
-0.0077113
-0.00919864
-0.0105538
-0.0117661
-0.0128245
-0.0137149
-0.0144183
-0.0149052
-0.0151298
-0.0150091
-0.0144126
-0.0131368
-0.0109163
-0.00755287
-0.00331929
0
0
-0.00112489
-0.0030501
-0.00508971
-0.00704941
-0.00888514
-0.0105835
-0.0121373
-0.0135408
-0.014789
-0.0158751
-0.0167899
-0.0175163
-0.0180208
-0.018238
-0.0180229
-0.0171069
-0.0150223
-0.0111875
-0.00545389
0
0
-0.00131973
-0.00355313
-0.00589253
-0.00812002
-0.0101957
-0.0121134
-0.0138724
-0.0154736
-0.0169195
-0.0182137
-0.0193619
-0.0203702
-0.0212395
-0.0219476
-0.0223976
-0.0222805
-0.0208317
-0.0167445
-0.0089446
0
0
-0.00156523
-0.00416203
-0.00683376
-0.00934281
-0.0116636
-0.0138022
-0.0157662
-0.0175634
-0.0192041
-0.0207026
-0.0220827
-0.0233822
-0.024657
-0.0259717
-0.0273282
-0.0284009
-0.0279888
-0.0237142
-0.0132895
0
0
-0.001896
-0.00492737
-0.00795714
-0.0107511
-0.0133124
-0.0156646
-0.0178242
-0.0198043
-0.0216204
-0.0232945
-0.0248647
-0.0263976
-0.0280081
-0.0298601
-0.0320651
-0.0342716
-0.0347564
-0.0301782
-0.017302
0
0
-0.00237719
-0.00596729
-0.00935988
-0.0123995
-0.0151678
-0.0177047
-0.0200268
-0.0221465
-0.0240814
-0.0258544
-0.0275073
-0.0291119
-0.0308093
-0.0328088
-0.0352876
-0.0378533
-0.0387985
-0.0340195
-0.0201223
0
0
-0.00282964
-0.00716929
-0.011022
-0.0143177
-0.0172079
-0.0197835
-0.0220848
-0.0241394
-0.0259802
-0.0276298
-0.029129
-0.030524
-0.0319344
-0.0335178
-0.0354917
-0.0375938
-0.0382033
-0.0339112
-0.0201422
0
0
-0.00664999
-0.01075
-0.0135096
-0.015773
-0.0177256
-0.0194172
-0.0208912
-0.0221747
-0.0233077
-0.0243031
-0.0251965
-0.0260091
-0.0268314
-0.0277182
-0.0287046
-0.0294826
-0.0293946
-0.025486
-0.0153364
0
0
0
0
0
0
0
0
0
0
0
0
0
0
0
0
0
0
0
0
0
0
)
;

boundaryField
{
    movingWall
    {
        type            calculated;
    }
    fixedWalls
    {
        type            calculated;
    }
    frontAndBack
    {
        type            empty;
    }
}


// ************************************************************************* //
