/*--------------------------------*- C++ -*----------------------------------*\
| =========                 |                                                 |
| \\      /  F ield         | OpenFOAM: The Open Source CFD Toolbox           |
|  \\    /   O peration     | Version:  2506                                  |
|   \\  /    A nd           | Website:  www.openfoam.com                      |
|    \\/     M anipulation  |                                                 |
\*---------------------------------------------------------------------------*/
FoamFile
{
    version     2.0;
    format      ascii;
    arch        "LSB;label=32;scalar=64";
    class       volScalarField;
    location    "0.8";
    object      mag(U);
}
// * * * * * * * * * * * * * * * * * * * * * * * * * * * * * * * * * * * * * //

dimensions      [0 1 -1 0 0 0 0];

internalField   nonuniform List<scalar> 
400
(
0.000183033
0.000248022
0.000149794
0.00102421
0.00251112
0.00448357
0.00674775
0.00902827
0.0109761
0.0121854
0.000255752
0.000338437
0.00193786
0.00471613
0.00876608
0.0139385
0.019814
0.0257206
0.0307646
0.0338904
0.000122211
0.00192749
0.00533142
0.010269
0.0167749
0.0246888
0.0334891
0.0422588
0.0497208
0.054334
0.000972914
0.00479291
0.010482
0.0178643
0.0268278
0.0371572
0.0482886
0.0591979
0.068405
0.0740794
0.00253776
0.00927497
0.0178301
0.0279589
0.039403
0.0518644
0.0647682
0.0771019
0.0873693
0.0936742
0.00486852
0.0157071
0.0279355
0.0412416
0.0552389
0.0695522
0.0836376
0.0966159
0.107184
0.113645
0.00807675
0.0244581
0.0414262
0.0585289
0.0752389
0.0911155
0.105704
0.118402
0.128354
0.134389
0.0123359
0.0360107
0.0590547
0.0807622
0.100414
0.117506
0.131743
0.142975
0.151098
0.155917
0.0179132
0.0510436
0.0817846
0.109038
0.131821
0.149572
0.162247
0.170355
0.174932
0.177349
0.0252135
0.0705266
0.110872
0.144593
0.170386
0.187693
0.196876
0.199372
0.197818
0.195936
0.0122379
0.0110974
0.00915002
0.00681947
0.00449135
0.00247253
0.00097115
0.000126359
0.00026779
0.00018722
0.0340045
0.0310302
0.0259928
0.0199859
0.0139778
0.00870397
0.00461159
0.00184318
0.000279317
0.000274279
0.0544885
0.050087
0.0426536
0.0337714
0.0248041
0.0167439
0.0101504
0.00518876
0.00181182
9.8279e-05
0.0742757
0.0688874
0.0597613
0.0487585
0.037438
0.0269014
0.0177692
0.0102923
0.00459968
0.000873918
0.0939395
0.0880523
0.0779717
0.0655961
0.0524772
0.0397093
0.0279592
0.0176116
0.00898943
0.00237359
0.114034
0.108228
0.098039
0.0851176
0.0707851
0.0560118
0.0414895
0.0277578
0.0153384
0.00462661
0.134977
0.129981
0.120736
0.108278
0.0934267
0.0768838
0.0593275
0.0414706
0.0240795
0.0077623
0.156777
0.153548
0.146641
0.135999
0.121574
0.103601
0.0826785
0.0597208
0.0358355
0.0120024
0.178489
0.178316
0.175705
0.168841
0.156316
0.137596
0.113068
0.0838619
0.0515579
0.0177172
0.197174
0.201807
0.206335
0.206277
0.198177
0.180245
0.152365
0.115791
0.0727014
0.0255094
0.0344934
0.0948921
0.146494
0.186915
0.214586
0.229189
0.231816
0.225165
0.213889
0.204881
0.045575
0.123194
0.186403
0.232053
0.258706
0.266895
0.259033
0.239389
0.214649
0.195197
0.0585874
0.15491
0.228489
0.275825
0.296657
0.293571
0.271154
0.235418
0.194322
0.160884
0.0745862
0.190912
0.271587
0.314377
0.322496
0.302561
0.262437
0.209758
0.151757
0.0995978
0.0956415
0.232269
0.312917
0.341227
0.328178
0.287254
0.230948
0.168939
0.107344
0.0488281
0.125397
0.278859
0.34549
0.345595
0.304773
0.247184
0.19321
0.158692
0.148654
0.151861
0.169974
0.325221
0.353088
0.312616
0.253427
0.215641
0.219177
0.250263
0.285389
0.310083
0.234983
0.349607
0.308627
0.249152
0.245971
0.297437
0.363697
0.42279
0.467262
0.494113
0.283717
0.301056
0.257089
0.330634
0.433103
0.52129
0.589676
0.639738
0.673848
0.693275
0.337134
0.42656
0.587131
0.709839
0.782042
0.827171
0.857126
0.877151
0.890015
0.896962
0.205595
0.217101
0.23247
0.243518
0.243968
0.230068
0.200553
0.156403
0.10034
0.0359305
0.194158
0.214275
0.243952
0.270593
0.284773
0.280092
0.253084
0.203415
0.133782
0.048998
0.156261
0.186601
0.233038
0.278496
0.311243
0.322082
0.304084
0.253754
0.172167
0.0648334
0.0875925
0.132609
0.196795
0.261263
0.315311
0.347872
0.347457
0.30468
0.215676
0.084389
0.0238605
0.0804169
0.147797
0.220309
0.291104
0.348
0.374168
0.351065
0.264115
0.109498
0.153003
0.149238
0.154058
0.185265
0.244512
0.315176
0.371853
0.383068
0.315354
0.143371
0.315816
0.300923
0.271046
0.23802
0.226146
0.260434
0.328308
0.382608
0.361137
0.191339
0.500168
0.484737
0.449901
0.397361
0.33216
0.27331
0.265503
0.326676
0.37695
0.256568
0.697304
0.68583
0.659485
0.616814
0.554584
0.469527
0.364472
0.279807
0.31585
0.297091
0.898065
0.893379
0.882983
0.865797
0.839114
0.797549
0.728815
0.606937
0.440294
0.343841
)
;

boundaryField
{
    movingWall
    {
        type            calculated;
        value           uniform 1;
    }
    fixedWalls
    {
        type            calculated;
        value           uniform 0;
    }
    frontAndBack
    {
        type            empty;
    }
}


// ************************************************************************* //
