/*--------------------------------*- C++ -*----------------------------------*\
| =========                 |                                                 |
| \\      /  F ield         | OpenFOAM: The Open Source CFD Toolbox           |
|  \\    /   O peration     | Version:  2506                                  |
|   \\  /    A nd           | Website:  www.openfoam.com                      |
|    \\/     M anipulation  |                                                 |
\*---------------------------------------------------------------------------*/
FoamFile
{
    version     2.0;
    format      ascii;
    arch        "LSB;label=32;scalar=64";
    class       volScalarField;
    location    "0.8";
    object      Ux;
}
// * * * * * * * * * * * * * * * * * * * * * * * * * * * * * * * * * * * * * //

dimensions      [0 1 -1 0 0 0 0];

internalField   nonuniform List<scalar> 
400
(
0.000129464
0.000242505
-7.36497e-05
-0.000976406
-0.00247147
-0.00445346
-0.00672738
-0.00901665
-0.0109714
-0.0121848
5.96916e-05
-0.000233292
-0.00159589
-0.00429586
-0.00837149
-0.0136217
-0.0195935
-0.0255933
-0.0307128
-0.0338835
-0.000114015
-0.00108044
-0.00378248
-0.00842159
-0.0149929
-0.0232152
-0.0324399
-0.0416448
-0.0494694
-0.0543009
-0.000298104
-0.00201196
-0.00620547
-0.0129195
-0.0220196
-0.0331091
-0.0453555
-0.0574585
-0.0676874
-0.0739851
-0.000472597
-0.00294321
-0.00870185
-0.0176024
-0.0293191
-0.0432901
-0.0584812
-0.0733342
-0.0858033
-0.0934675
-0.000640639
-0.00387256
-0.0112535
-0.0224533
-0.0369148
-0.0538622
-0.0720281
-0.0895963
-0.104244
-0.113253
-0.000813549
-0.00483907
-0.0139328
-0.0275797
-0.0449542
-0.0650185
-0.0862361
-0.106528
-0.123334
-0.133706
-0.00100692
-0.0059068
-0.016874
-0.0331766
-0.0536622
-0.0769717
-0.101264
-0.124209
-0.143071
-0.154791
-0.00124038
-0.00716076
-0.0202584
-0.0394924
-0.0632684
-0.0898182
-0.116965
-0.142179
-0.162696
-0.175555
-0.00154123
-0.00872122
-0.0243315
-0.0468106
-0.0738997
-0.103282
-0.132437
-0.158787
-0.179841
-0.193145
-0.0122375
-0.011093
-0.00913823
-0.00679808
-0.00445941
-0.00243064
-0.000920947
-3.15619e-05
0.000260839
0.00013298
-0.0339994
-0.030981
-0.0258639
-0.0197564
-0.0136458
-0.00829305
-0.00418119
-0.00150359
-0.000188475
7.01073e-05
-0.054463
-0.0498469
-0.0420332
-0.0326861
-0.0232712
-0.0149025
-0.00827216
-0.00365544
-0.00101559
-9.81655e-05
-0.074202
-0.068201
-0.0580086
-0.0457388
-0.0332497
-0.0219585
-0.0127605
-0.00605484
-0.0019296
-0.000276734
-0.0937787
-0.0865602
-0.074193
-0.0591561
-0.0436489
-0.0293837
-0.0174906
-0.00855241
-0.00284901
-0.00044564
-0.113737
-0.105456
-0.0910526
-0.0732994
-0.0547082
-0.0373066
-0.0225144
-0.011166
-0.00378487
-0.000610189
-0.134488
-0.125339
-0.109056
-0.0886181
-0.0668214
-0.0460406
-0.0280556
-0.014033
-0.004801
-0.00078643
-0.156043
-0.146347
-0.128495
-0.105532
-0.0804707
-0.0560474
-0.0344836
-0.0173889
-0.00600173
-0.000998063
-0.177472
-0.167807
-0.149081
-0.124147
-0.096053
-0.0678508
-0.042281
-0.0215597
-0.00753278
-0.00127765
-0.195869
-0.187238
-0.169091
-0.14361
-0.113477
-0.0818425
-0.0519907
-0.026973
-0.00959853
-0.00167208
-0.00194201
-0.0107209
-0.0292933
-0.0551376
-0.0849486
-0.115698
-0.144628
-0.169472
-0.188577
-0.200662
-0.00250227
-0.0133422
-0.0352822
-0.0640771
-0.0948722
-0.123905
-0.148571
-0.167576
-0.180863
-0.189077
-0.0033829
-0.0170448
-0.0427321
-0.0733063
-0.101927
-0.124518
-0.139498
-0.147462
-0.150652
-0.152099
-0.00494729
-0.0227507
-0.0523111
-0.0820076
-0.103154
-0.112716
-0.111607
-0.103292
-0.0926532
-0.0849903
-0.00791853
-0.0318387
-0.0639456
-0.0869114
-0.0921879
-0.0805589
-0.0571991
-0.0288993
-0.00267338
0.0148657
-0.0134525
-0.0454676
-0.0743343
-0.0790428
-0.0568594
-0.0161042
0.0330001
0.0813562
0.121532
0.14731
-0.0222094
-0.0611237
-0.0707921
-0.0385284
0.0228531
0.0960334
0.168163
0.230986
0.27928
0.309078
-0.0290502
-0.0620257
-0.0194504
0.0711546
0.174381
0.271465
0.354124
0.419302
0.466166
0.493936
0.0066064
0.0187046
0.154197
0.303784
0.425297
0.518743
0.588778
0.639419
0.67375
0.69326
0.30431
0.407631
0.582962
0.708904
0.781803
0.827103
0.857104
0.877144
0.890013
0.896962
-0.204053
-0.197989
-0.183071
-0.16007
-0.13055
-0.0971951
-0.0636191
-0.0339114
-0.0123952
-0.00223306
-0.19247
-0.190581
-0.182343
-0.166398
-0.142226
-0.111033
-0.0760308
-0.0422189
-0.0160381
-0.00301598
-0.154432
-0.157774
-0.159365
-0.155457
-0.142715
-0.119633
-0.0876344
-0.0517441
-0.0208262
-0.00416409
-0.0851644
-0.0940086
-0.107494
-0.119948
-0.125179
-0.117982
-0.0960688
-0.0623829
-0.0274848
-0.00602802
0.0175049
0.00385766
-0.0215835
-0.0524908
-0.0809358
-0.0981187
-0.0963321
-0.0729601
-0.0370831
-0.00931444
0.152549
0.135723
0.10087
0.0532401
0.000189277
-0.0479232
-0.0781268
-0.0786636
-0.0501192
-0.0150796
0.315722
0.298018
0.258873
0.201016
0.128545
0.0494007
-0.0221502
-0.0653711
-0.062648
-0.0235078
0.500149
0.484206
0.447698
0.39055
0.312152
0.213902
0.103209
-0.000161676
-0.0559126
-0.0280097
0.697302
0.685778
0.659274
0.616163
0.552617
0.463122
0.340967
0.183837
0.035655
0.014083
0.898065
0.893378
0.882978
0.865781
0.839062
0.797361
0.728029
0.60314
0.421851
0.310648
)
;

boundaryField
{
    movingWall
    {
        type            calculated;
        value           uniform 1;
    }
    fixedWalls
    {
        type            calculated;
        value           uniform 0;
    }
    frontAndBack
    {
        type            empty;
    }
}


// ************************************************************************* //
