/*--------------------------------*- C++ -*----------------------------------*\
| =========                 |                                                 |
| \\      /  F ield         | OpenFOAM: The Open Source CFD Toolbox           |
|  \\    /   O peration     | Version:  2506                                  |
|   \\  /    A nd           | Website:  www.openfoam.com                      |
|    \\/     M anipulation  |                                                 |
\*---------------------------------------------------------------------------*/
FoamFile
{
    version     2.0;
    format      ascii;
    arch        "LSB;label=32;scalar=64";
    class       volScalarField;
    location    "450";
    object      turbulenceProperties:k;
}
// * * * * * * * * * * * * * * * * * * * * * * * * * * * * * * * * * * * * * //

dimensions      [0 2 -2 0 0 0 0];

internalField   nonuniform List<scalar> 
1340
(
0.000514657
0.000518554
0.00052157
0.000437365
0.000441288
0.0004446
0.000446723
0.000447598
0.000374181
0.000378009
0.000381418
0.000383978
0.000385642
0.000386287
0.000385603
0.000321876
0.000325516
0.000328869
0.0003316
0.000333687
0.00033503
0.000335351
0.000334551
0.000278228
0.00028164
0.000284861
0.000287626
0.000289945
0.000291706
0.000292679
0.000292792
0.000291965
0.000241511
0.000244682
0.000247714
0.000250421
0.00025283
0.000254808
0.000256183
0.000256895
0.000256862
0.000210422
0.000213343
0.000216167
0.00021877
0.000221168
0.000223245
0.000224858
0.000225958
0.000226471
0.000226292
0.000183939
0.000186608
0.000189225
0.000191689
0.000194016
0.000196109
0.000197844
0.000199172
0.000200039
0.000200353
0.00020006
0.000161253
0.000163683
0.000166099
0.0001684
0.000170629
0.000172678
0.000174451
0.000175909
0.000177004
0.000177653
0.00017782
0.000141725
0.00014394
0.000146152
0.000148295
0.000150397
0.000152373
0.000154128
0.000155642
0.000156867
0.000157735
0.000158209
0.00015825
0.000124848
0.00012686
0.000128883
0.000130864
0.000132834
0.000134708
0.000136415
0.000137932
0.000139219
0.000140219
0.000140905
0.000141238
0.000110207
0.00011203
0.000113876
0.000115699
0.000117533
0.000119294
0.000120928
0.000122414
0.000123716
0.00012479
0.000125609
0.000126142
0.000126349
9.74584e-05
9.91122e-05
0.000100791
0.000102466
0.000104162
0.000105806
0.000107353
0.000108785
0.00011007
0.00011117
0.000112065
0.000112729
0.000113127
8.63263e-05
8.78228e-05
8.93483e-05
9.08841e-05
9.2445e-05
9.39735e-05
9.54239e-05
9.67873e-05
9.80327e-05
9.91296e-05
0.000100061
0.000100806
0.000101334
0.000101625
7.65776e-05
7.79304e-05
7.93174e-05
8.07187e-05
8.2153e-05
8.35654e-05
8.49189e-05
8.62027e-05
8.73946e-05
8.84646e-05
8.94032e-05
9.01883e-05
9.07993e-05
9.12174e-05
6.80189e-05
6.92409e-05
7.05015e-05
7.1778e-05
7.30924e-05
7.4393e-05
7.56482e-05
7.68507e-05
7.79782e-05
7.90083e-05
7.99317e-05
8.0731e-05
8.13896e-05
8.18891e-05
6.04885e-05
6.15921e-05
6.27349e-05
6.38974e-05
6.50982e-05
6.62926e-05
6.74509e-05
6.85711e-05
6.96297e-05
7.06104e-05
7.15037e-05
7.2298e-05
7.29758e-05
7.35257e-05
7.39309e-05
5.38484e-05
5.48455e-05
5.58803e-05
5.6937e-05
5.80327e-05
5.91255e-05
6.01925e-05
6.12298e-05
6.22184e-05
6.3143e-05
6.39973e-05
6.47712e-05
6.54506e-05
6.60269e-05
6.6484e-05
4.79825e-05
4.88838e-05
4.98195e-05
5.07793e-05
5.17776e-05
5.27751e-05
5.37555e-05
5.47116e-05
5.56304e-05
5.6496e-05
5.73052e-05
5.80476e-05
5.87152e-05
5.92981e-05
5.97837e-05
4.27927e-05
4.36057e-05
4.44521e-05
4.53226e-05
4.62301e-05
4.71402e-05
4.80375e-05
4.89166e-05
4.97657e-05
5.0572e-05
5.13318e-05
5.20386e-05
5.2684e-05
5.32606e-05
5.37588e-05
5.41667e-05
3.81936e-05
3.89264e-05
3.96916e-05
4.04806e-05
4.1304e-05
4.21333e-05
4.29527e-05
4.37592e-05
4.45411e-05
4.52888e-05
4.59984e-05
4.66648e-05
4.72808e-05
4.78418e-05
4.83379e-05
4.87617e-05
3.4112e-05
3.47727e-05
3.54636e-05
3.61779e-05
3.69252e-05
3.76788e-05
3.8426e-05
3.91642e-05
3.98822e-05
4.05722e-05
4.12312e-05
4.1855e-05
4.24378e-05
4.29759e-05
4.34624e-05
4.38895e-05
2.99506e-05
3.04854e-05
3.10804e-05
3.1704e-05
3.23501e-05
3.30272e-05
3.37113e-05
3.43915e-05
3.50656e-05
3.5723e-05
3.63577e-05
3.69672e-05
3.75478e-05
3.80953e-05
3.86064e-05
3.90756e-05
3.94964e-05
3.98607e-05
2.67778e-05
2.7259e-05
2.77945e-05
2.83573e-05
2.89412e-05
2.9554e-05
3.01745e-05
3.07929e-05
3.1407e-05
3.20079e-05
3.25901e-05
3.31516e-05
3.36894e-05
3.42002e-05
3.46814e-05
3.51289e-05
3.5537e-05
3.58997e-05
2.3953e-05
2.43858e-05
2.48675e-05
2.5375e-05
2.59023e-05
2.64566e-05
2.70186e-05
2.75801e-05
2.81388e-05
2.86874e-05
2.92197e-05
2.97352e-05
3.02316e-05
3.07057e-05
3.11558e-05
3.15784e-05
3.19692e-05
3.23229e-05
2.14356e-05
2.18245e-05
2.22576e-05
2.27149e-05
2.31909e-05
2.36916e-05
2.42003e-05
2.47093e-05
2.52173e-05
2.57166e-05
2.62026e-05
2.66749e-05
2.71312e-05
2.75692e-05
2.79876e-05
2.83837e-05
2.87542e-05
2.90942e-05
2.93985e-05
1.91903e-05
1.95394e-05
1.99285e-05
2.03403e-05
2.07697e-05
2.12218e-05
2.16819e-05
2.21433e-05
2.26042e-05
2.30578e-05
2.35006e-05
2.39322e-05
2.43503e-05
2.47534e-05
2.51405e-05
2.55096e-05
2.58575e-05
2.61807e-05
2.64746e-05
1.71859e-05
1.7499e-05
1.78486e-05
1.8219e-05
1.86061e-05
1.90142e-05
1.943e-05
1.98478e-05
2.02651e-05
2.0677e-05
2.108e-05
2.14735e-05
2.18557e-05
2.22254e-05
2.25821e-05
2.29239e-05
2.32483e-05
2.35526e-05
2.38328e-05
1.53951e-05
1.56759e-05
1.59896e-05
1.63226e-05
1.66715e-05
1.70395e-05
1.7415e-05
1.77927e-05
1.81708e-05
1.85445e-05
1.89107e-05
1.92685e-05
1.9617e-05
1.99551e-05
2.02827e-05
2.05978e-05
2.08987e-05
2.11828e-05
2.14471e-05
1.37941e-05
1.40458e-05
1.43271e-05
1.46264e-05
1.49406e-05
1.52723e-05
1.56113e-05
1.59527e-05
1.6295e-05
1.66334e-05
1.69654e-05
1.72906e-05
1.76079e-05
1.79165e-05
1.8216e-05
1.85052e-05
1.87829e-05
1.90467e-05
1.92937e-05
1.23621e-05
1.25873e-05
1.28394e-05
1.31083e-05
1.3391e-05
1.36901e-05
1.39959e-05
1.43044e-05
1.46138e-05
1.49202e-05
1.52212e-05
1.55163e-05
1.58046e-05
1.60855e-05
1.63587e-05
1.66234e-05
1.68784e-05
1.71216e-05
1.73508e-05
1.7563e-05
1.10803e-05
1.12818e-05
1.15074e-05
1.1749e-05
1.20033e-05
1.22727e-05
1.25485e-05
1.28272e-05
1.3107e-05
1.33842e-05
1.36568e-05
1.39242e-05
1.41857e-05
1.4441e-05
1.46896e-05
1.49311e-05
1.51642e-05
1.53875e-05
1.55989e-05
1.57958e-05
9.93246e-06
1.01125e-05
1.03143e-05
1.05313e-05
1.076e-05
1.10025e-05
1.12514e-05
1.1503e-05
1.17559e-05
1.20065e-05
1.22531e-05
1.24953e-05
1.27324e-05
1.29639e-05
1.31898e-05
1.34094e-05
1.36218e-05
1.3826e-05
1.402e-05
1.42013e-05
8.90401e-06
9.06466e-06
9.24518e-06
9.43983e-06
9.64559e-06
9.86401e-06
1.00884e-05
1.03156e-05
1.05441e-05
1.07708e-05
1.09939e-05
1.12131e-05
1.14277e-05
1.16374e-05
1.18423e-05
1.20415e-05
1.22346e-05
1.24205e-05
1.25975e-05
1.27636e-05
7.98218e-06
8.12535e-06
8.28677e-06
8.46131e-06
8.64638e-06
8.84309e-06
9.04554e-06
9.25074e-06
9.45725e-06
9.66219e-06
9.864e-06
1.00622e-05
1.02564e-05
1.04462e-05
1.06316e-05
1.08121e-05
1.09872e-05
1.11558e-05
1.13168e-05
1.14681e-05
7.15555e-06
7.28301e-06
7.42723e-06
7.58377e-06
7.75018e-06
7.92737e-06
8.1101e-06
8.29548e-06
8.4822e-06
8.66748e-06
8.85003e-06
9.02938e-06
9.20499e-06
9.37657e-06
9.54421e-06
9.70741e-06
9.86578e-06
1.00184e-05
1.01642e-05
1.03014e-05
1.04279e-05
6.41398e-06
6.52737e-06
6.65611e-06
6.79654e-06
6.94618e-06
7.1059e-06
7.27086e-06
7.43847e-06
7.60739e-06
7.77505e-06
7.94019e-06
8.10243e-06
8.26113e-06
8.41624e-06
8.56769e-06
8.71511e-06
8.85807e-06
8.99583e-06
9.12738e-06
9.25126e-06
9.36562e-06
5.74851e-06
5.84928e-06
5.96418e-06
6.09012e-06
6.22476e-06
6.36879e-06
6.51784e-06
6.66955e-06
6.82247e-06
6.97423e-06
7.12372e-06
7.27049e-06
7.41401e-06
7.55417e-06
7.69092e-06
7.82392e-06
7.95281e-06
8.07699e-06
8.19544e-06
8.30691e-06
8.40978e-06
5.15116e-06
5.24061e-06
5.34312e-06
5.45606e-06
5.57728e-06
5.70728e-06
5.84212e-06
5.97953e-06
6.11808e-06
6.25566e-06
6.39108e-06
6.524e-06
6.65382e-06
6.78049e-06
6.90389e-06
7.02382e-06
7.1399e-06
7.25155e-06
7.35797e-06
7.45799e-06
7.55014e-06
4.61478e-06
4.69412e-06
4.78551e-06
4.88683e-06
4.99607e-06
5.11353e-06
5.23569e-06
5.3603e-06
5.48606e-06
5.61092e-06
5.73375e-06
5.85417e-06
5.97169e-06
6.08615e-06
6.19755e-06
6.30564e-06
6.41008e-06
6.51036e-06
6.6058e-06
6.69533e-06
6.77759e-06
4.13303e-06
4.20331e-06
4.28479e-06
4.37575e-06
4.47425e-06
4.58056e-06
4.69139e-06
4.80464e-06
4.91898e-06
5.03243e-06
5.14397e-06
5.25319e-06
5.35966e-06
5.46321e-06
5.56382e-06
5.66121e-06
5.75515e-06
5.84516e-06
5.93061e-06
6.01056e-06
6.08384e-06
6.14931e-06
3.70025e-06
3.76243e-06
3.83507e-06
3.91678e-06
4.00571e-06
4.10209e-06
4.20287e-06
4.30598e-06
4.41012e-06
4.51339e-06
4.61485e-06
4.71407e-06
4.81065e-06
4.90441e-06
4.99529e-06
5.0831e-06
5.16761e-06
5.24835e-06
5.32475e-06
5.39603e-06
5.46115e-06
5.51904e-06
3.31138e-06
3.36634e-06
3.43109e-06
3.50454e-06
3.585e-06
3.67256e-06
3.76439e-06
3.85848e-06
3.95352e-06
4.04774e-06
4.14023e-06
4.23053e-06
4.31824e-06
4.40322e-06
4.4854e-06
4.56462e-06
4.64065e-06
4.71305e-06
4.78132e-06
4.84481e-06
4.90254e-06
4.95359e-06
2.9619e-06
3.01043e-06
3.06813e-06
3.13426e-06
3.2072e-06
3.28692e-06
3.37083e-06
3.4569e-06
3.54387e-06
3.63004e-06
3.71449e-06
3.79684e-06
3.87666e-06
3.95381e-06
4.02822e-06
4.09973e-06
4.16814e-06
4.23308e-06
4.2941e-06
4.35057e-06
4.40167e-06
4.4466e-06
2.64777e-06
2.69055e-06
2.74201e-06
2.80164e-06
2.8679e-06
2.94071e-06
3.01759e-06
3.09655e-06
3.17634e-06
3.25534e-06
3.33267e-06
3.40793e-06
3.4807e-06
3.55085e-06
3.61833e-06
3.68297e-06
3.74458e-06
3.80288e-06
3.85742e-06
3.90762e-06
3.95279e-06
3.99227e-06
2.36538e-06
2.40305e-06
2.44895e-06
2.50282e-06
2.56319e-06
2.6299e-06
2.70056e-06
2.77322e-06
2.84665e-06
2.91929e-06
2.99028e-06
3.05921e-06
3.1257e-06
3.18962e-06
3.25093e-06
3.30945e-06
3.36502e-06
3.41737e-06
3.46611e-06
3.51075e-06
3.55069e-06
3.58531e-06
2.11149e-06
2.14461e-06
2.18558e-06
2.23438e-06
2.28957e-06
2.35089e-06
2.41604e-06
2.48313e-06
2.55091e-06
2.6179e-06
2.68325e-06
2.74655e-06
2.80746e-06
2.86584e-06
2.92163e-06
2.97471e-06
3.0249e-06
3.07199e-06
3.1156e-06
3.15533e-06
3.19061e-06
3.22094e-06
1.88321e-06
1.9123e-06
1.9489e-06
1.99323e-06
2.04387e-06
2.10042e-06
2.16072e-06
2.22287e-06
2.28565e-06
2.34761e-06
2.40794e-06
2.46625e-06
2.5222e-06
2.57564e-06
2.62653e-06
2.67478e-06
2.72025e-06
2.76267e-06
2.80177e-06
2.83716e-06
2.86835e-06
2.89491e-06
2.91639e-06
1.67796e-06
1.70345e-06
1.73619e-06
1.77662e-06
1.82325e-06
1.8756e-06
1.93163e-06
1.9894e-06
2.04774e-06
2.10523e-06
2.16111e-06
2.215e-06
2.26652e-06
2.31557e-06
2.36215e-06
2.40614e-06
2.44742e-06
2.48576e-06
2.52089e-06
2.55246e-06
2.58006e-06
2.60333e-06
2.6219e-06
1.49341e-06
1.51571e-06
1.54505e-06
1.58208e-06
1.62517e-06
1.67384e-06
1.72609e-06
1.77996e-06
1.83437e-06
1.88789e-06
1.93982e-06
1.98978e-06
2.03738e-06
2.08254e-06
2.12528e-06
2.16553e-06
2.20312e-06
2.23785e-06
2.26947e-06
2.29767e-06
2.3221e-06
2.34247e-06
2.3585e-06
1.32749e-06
1.34695e-06
1.37332e-06
1.40739e-06
1.44736e-06
1.49279e-06
1.54169e-06
1.59209e-06
1.64301e-06
1.69298e-06
1.74142e-06
1.78791e-06
1.83203e-06
1.87371e-06
1.91306e-06
1.94998e-06
1.98426e-06
2.0157e-06
2.04412e-06
2.06925e-06
2.09083e-06
2.10862e-06
2.12241e-06
1.17832e-06
1.19527e-06
1.21904e-06
1.25054e-06
1.28777e-06
1.33037e-06
1.37629e-06
1.42357e-06
1.4714e-06
1.51816e-06
1.56351e-06
1.60698e-06
1.64797e-06
1.68651e-06
1.72277e-06
1.75658e-06
1.78773e-06
1.81607e-06
1.84147e-06
1.86377e-06
1.88273e-06
1.89818e-06
1.91001e-06
1.04423e-06
1.05898e-06
1.08048e-06
1.10976e-06
1.14456e-06
1.18471e-06
1.2279e-06
1.27242e-06
1.3175e-06
1.3613e-06
1.40402e-06
1.44486e-06
1.48289e-06
1.51839e-06
1.55166e-06
1.58247e-06
1.61061e-06
1.63601e-06
1.65863e-06
1.67834e-06
1.69495e-06
1.70834e-06
1.71843e-06
9.23757e-07
9.36576e-07
9.56119e-07
9.83451e-07
1.01608e-06
1.05411e-06
1.09474e-06
1.13685e-06
1.17941e-06
1.22043e-06
1.26118e-06
1.29968e-06
1.33456e-06
1.36686e-06
1.3972e-06
1.42521e-06
1.45058e-06
1.47338e-06
1.49361e-06
1.51113e-06
1.52577e-06
1.53741e-06
1.54601e-06
8.15609e-07
8.26765e-07
8.44602e-07
8.7021e-07
9.00906e-07
9.37048e-07
9.75135e-07
1.01524e-06
1.05532e-06
1.0936e-06
1.13307e-06
1.16933e-06
1.20073e-06
1.22984e-06
1.25764e-06
1.28334e-06
1.30648e-06
1.32721e-06
1.34555e-06
1.36132e-06
1.37433e-06
1.38447e-06
1.39177e-06
7.18599e-07
7.28312e-07
7.44694e-07
7.68773e-07
7.97804e-07
8.32234e-07
8.67699e-07
9.06378e-07
9.43455e-07
9.7903e-07
1.01793e-06
1.05161e-06
1.07938e-06
1.106e-06
1.13216e-06
1.15624e-06
1.17771e-06
1.19689e-06
1.21378e-06
1.22812e-06
1.23974e-06
1.2486e-06
1.25476e-06
1.25847e-06
6.31754e-07
6.40187e-07
6.55358e-07
6.78138e-07
7.05732e-07
7.38538e-07
7.71482e-07
8.09426e-07
8.41612e-07
8.75997e-07
9.16206e-07
9.45873e-07
9.69019e-07
9.9426e-07
1.01997e-06
1.04289e-06
1.06291e-06
1.08074e-06
1.09637e-06
1.10945e-06
1.11984e-06
1.12757e-06
1.13278e-06
1.13568e-06
5.55362e-07
5.62629e-07
5.76731e-07
5.98203e-07
6.24299e-07
6.5513e-07
6.85581e-07
7.22696e-07
7.472e-07
7.83383e-07
8.27339e-07
8.51618e-07
8.68436e-07
8.9352e-07
9.20266e-07
9.42548e-07
9.61256e-07
9.7793e-07
9.92482e-07
1.00445e-06
1.01372e-06
1.02044e-06
1.02483e-06
1.02725e-06
4.94032e-07
5.00207e-07
5.13019e-07
5.32408e-07
5.56119e-07
5.83266e-07
6.10012e-07
6.43247e-07
6.5833e-07
6.96232e-07
7.42594e-07
7.62417e-07
7.76119e-07
8.03839e-07
8.33642e-07
8.57108e-07
8.76123e-07
8.93015e-07
9.07724e-07
9.19695e-07
9.2887e-07
9.3537e-07
9.39522e-07
9.41709e-07
4.45522e-07
4.50694e-07
4.61832e-07
4.78516e-07
4.9895e-07
5.21029e-07
5.43202e-07
5.68991e-07
5.77714e-07
6.10408e-07
6.5571e-07
6.74392e-07
6.9095e-07
7.22208e-07
7.55057e-07
7.81007e-07
8.01939e-07
8.20329e-07
8.36295e-07
8.49266e-07
8.59142e-07
8.66068e-07
8.70446e-07
8.72528e-07
4.0109e-07
4.05432e-07
4.1498e-07
4.292e-07
4.46471e-07
4.63933e-07
4.82071e-07
5.00487e-07
5.05428e-07
5.29714e-07
5.71569e-07
5.90698e-07
6.12426e-07
6.45886e-07
6.80283e-07
7.08433e-07
7.31426e-07
7.51329e-07
7.68459e-07
7.82326e-07
7.92779e-07
8.00037e-07
8.04572e-07
8.06793e-07
3.57697e-07
3.61356e-07
3.69503e-07
3.8155e-07
3.95925e-07
4.09473e-07
4.24243e-07
4.3629e-07
4.38864e-07
4.56207e-07
4.94587e-07
5.13552e-07
5.40434e-07
5.75544e-07
6.10513e-07
6.40053e-07
6.64635e-07
6.85668e-07
7.03567e-07
7.18049e-07
7.28932e-07
7.36438e-07
7.40968e-07
7.42894e-07
3.1646e-07
3.19552e-07
3.26428e-07
3.36509e-07
3.48133e-07
3.58367e-07
3.70006e-07
3.76574e-07
3.77534e-07
3.88984e-07
4.24039e-07
4.42188e-07
4.73856e-07
5.10516e-07
5.4552e-07
5.75741e-07
6.01459e-07
6.23347e-07
6.41754e-07
6.56567e-07
6.67684e-07
6.75383e-07
6.80154e-07
6.82524e-07
2.776e-07
2.80202e-07
2.85863e-07
2.94071e-07
3.03022e-07
3.10498e-07
3.19029e-07
3.21131e-07
3.20943e-07
3.27422e-07
3.59312e-07
3.76518e-07
4.12205e-07
4.50205e-07
4.85044e-07
5.15534e-07
5.42053e-07
5.6466e-07
5.83498e-07
5.98473e-07
6.09425e-07
6.16448e-07
6.19831e-07
6.20205e-07
2.41629e-07
2.43763e-07
2.48121e-07
2.54314e-07
2.60534e-07
2.65624e-07
2.70891e-07
2.69857e-07
2.68687e-07
2.71122e-07
2.99699e-07
3.16284e-07
3.55067e-07
3.94255e-07
4.29026e-07
4.59634e-07
4.86689e-07
5.09849e-07
5.2913e-07
5.44643e-07
5.56515e-07
5.65091e-07
5.71017e-07
5.74923e-07
2.08911e-07
2.10588e-07
2.13523e-07
2.17393e-07
2.20665e-07
2.23286e-07
2.24872e-07
2.22298e-07
2.19785e-07
2.19671e-07
2.4499e-07
2.61613e-07
3.02422e-07
3.42652e-07
3.77574e-07
4.08415e-07
4.36033e-07
4.59508e-07
4.78242e-07
4.92143e-07
5.01191e-07
5.05351e-07
5.04866e-07
5.00952e-07
4.95619e-07
1.79426e-07
1.80711e-07
1.82204e-07
1.83542e-07
1.83677e-07
1.83302e-07
1.80643e-07
1.7784e-07
1.724e-07
1.72943e-07
1.95782e-07
2.12877e-07
2.54806e-07
2.95997e-07
3.30976e-07
3.61961e-07
3.90786e-07
4.16624e-07
4.38664e-07
4.56894e-07
4.71826e-07
4.84516e-07
4.96301e-07
5.07203e-07
5.1513e-07
1.53344e-07
1.54128e-07
1.53814e-07
1.52211e-07
1.49087e-07
1.45407e-07
1.39155e-07
1.3729e-07
1.27107e-07
1.35134e-07
1.54213e-07
1.70405e-07
2.1282e-07
2.55366e-07
2.90484e-07
3.2045e-07
3.47387e-07
3.70606e-07
3.89313e-07
4.03171e-07
4.11595e-07
4.14112e-07
4.11447e-07
4.07217e-07
4.06093e-07
1.32649e-07
1.32282e-07
1.28647e-07
1.22366e-07
1.14819e-07
1.07621e-07
1.00468e-07
1.01693e-07
9.00704e-08
1.14517e-07
1.23881e-07
1.35245e-07
1.75515e-07
2.18739e-07
2.57505e-07
2.95049e-07
3.32631e-07
3.68751e-07
4.02614e-07
4.35004e-07
4.67774e-07
5.03291e-07
5.42041e-07
5.78471e-07
6.04607e-07
1.20389e-07
1.183e-07
1.10018e-07
9.68296e-08
8.17637e-08
6.81768e-08
6.08782e-08
6.70137e-08
6.50739e-08
1.03921e-07
1.06074e-07
1.15193e-07
1.48047e-07
1.84849e-07
2.21804e-07
2.64086e-07
3.11994e-07
3.6267e-07
4.139e-07
4.64137e-07
5.11618e-07
5.54773e-07
5.92969e-07
6.24911e-07
6.51194e-07
1.14721e-07
1.11498e-07
1.00151e-07
8.17945e-08
5.89967e-08
3.46197e-08
2.24711e-08
3.78158e-08
5.5489e-08
8.58144e-08
7.28195e-08
1.14792e-07
1.82469e-07
2.56157e-07
3.33086e-07
4.13079e-07
4.96103e-07
5.81243e-07
6.66556e-07
7.4967e-07
8.26793e-07
8.92853e-07
9.41548e-07
9.70049e-07
9.89336e-07
)
;

boundaryField
{
    inlet
    {
        type            calculated;
        value           nonuniform List<scalar> 
25
(
1.14263e-07
1.1084e-07
9.92414e-08
8.03688e-08
5.63493e-08
2.96554e-08
1.8988e-08
4.25386e-08
6.92175e-08
6.48541e-08
1.36356e-07
2.59057e-07
4.43088e-07
6.65903e-07
9.20019e-07
1.20226e-06
1.51119e-06
1.84404e-06
2.19672e-06
2.56333e-06
2.93543e-06
3.29973e-06
3.64006e-06
3.93824e-06
4.1899e-06
)
;
    }
    outlet
    {
        type            calculated;
        value           nonuniform List<scalar> 0();
    }
    walls
    {
        type            calculated;
        value           nonuniform List<scalar> 0();
    }
    frontAndBack
    {
        type            empty;
    }
    procBoundary4to0
    {
        type            processor;
        value           nonuniform List<scalar> 
72
(
0.000509984
0.00043299
0.000370105
0.000318123
0.000274802
0.000238405
0.000207607
0.000181386
0.000158946
0.000139647
0.000122976
0.000108519
9.59378e-05
8.49558e-05
7.53436e-05
6.69081e-05
5.94871e-05
5.29461e-05
4.71705e-05
4.20611e-05
3.75341e-05
3.35182e-05
3.35182e-05
2.94349e-05
2.63154e-05
2.35386e-05
2.10643e-05
1.88576e-05
1.68882e-05
1.51291e-05
1.35565e-05
1.215e-05
1.08913e-05
9.7642e-06
8.75446e-06
7.84941e-06
7.03785e-06
6.30986e-06
5.65658e-06
5.07015e-06
4.54356e-06
4.07054e-06
3.64556e-06
3.26366e-06
2.92038e-06
2.61177e-06
2.33427e-06
2.08473e-06
1.8603e-06
1.65844e-06
1.47689e-06
1.31361e-06
1.16674e-06
1.03468e-06
9.15984e-07
8.09404e-07
7.1375e-07
6.28043e-07
5.52504e-07
4.91636e-07
4.4341e-07
3.99274e-07
3.5616e-07
3.15168e-07
2.76475e-07
2.40566e-07
2.07788e-07
1.78121e-07
1.51645e-07
1.3026e-07
1.17266e-07
1.11287e-07
)
;
    }
    procBoundary4to5
    {
        type            processor;
        value           nonuniform List<scalar> 
95
(
0.00060971
0.000613183
0.000615352
0.000522973
0.000522973
0.00052261
0.000447079
0.000447079
0.00044483
0.00038348
0.00038348
0.000332569
0.000332569
0.000290059
0.000255968
0.000255968
0.000225361
0.000225361
0.000199114
0.000177447
0.000177447
0.000157798
0.000141173
0.000141173
0.000126201
0.000113237
0.000113237
0.00010165
9.14157e-05
8.2211e-05
8.2211e-05
7.41709e-05
6.68054e-05
6.01599e-05
6.01599e-05
5.44717e-05
4.91016e-05
4.42475e-05
4.42475e-05
4.01608e-05
3.62095e-05
3.26328e-05
3.26328e-05
2.96603e-05
2.67332e-05
2.40837e-05
2.1687e-05
1.95204e-05
1.95204e-05
1.77543e-05
1.59749e-05
1.43672e-05
1.29162e-05
1.16074e-05
1.16074e-05
1.05418e-05
9.46865e-06
8.50242e-06
7.63299e-06
6.85138e-06
6.85138e-06
6.20523e-06
5.56825e-06
4.99675e-06
4.48435e-06
4.02516e-06
3.61389e-06
3.24573e-06
3.24573e-06
2.93254e-06
2.63565e-06
2.37013e-06
2.13223e-06
1.91827e-06
1.72532e-06
1.55171e-06
1.39642e-06
1.39642e-06
1.2601e-06
1.13666e-06
1.02798e-06
9.42201e-07
8.72724e-07
8.07193e-07
7.42833e-07
6.83118e-07
6.18492e-07
5.76961e-07
5.76961e-07
4.90313e-07
5.19306e-07
4.0866e-07
6.19935e-07
6.76844e-07
9.91265e-07
)
;
    }
}


// ************************************************************************* //
