/*--------------------------------*- C++ -*----------------------------------*\
| =========                 |                                                 |
| \\      /  F ield         | OpenFOAM: The Open Source CFD Toolbox           |
|  \\    /   O peration     | Version:  2506                                  |
|   \\  /    A nd           | Website:  www.openfoam.com                      |
|    \\/     M anipulation  |                                                 |
\*---------------------------------------------------------------------------*/
FoamFile
{
    version     2.0;
    format      ascii;
    arch        "LSB;label=32;scalar=64";
    class       volScalarField;
    location    "450";
    object      turbulenceProperties:L;
}
// * * * * * * * * * * * * * * * * * * * * * * * * * * * * * * * * * * * * * //

dimensions      [0 1 0 0 0 0 0];

internalField   nonuniform List<scalar> 
1340
(
0.00952016
0.00948432
0.00945685
0.0103272
0.0102812
0.0102428
0.0102184
0.0102084
0.0111651
0.0111084
0.0110586
0.0110217
0.0109979
0.0109887
0.0109984
0.0120381
0.0119706
0.0119094
0.0118602
0.0118231
0.0117993
0.0117937
0.0118078
0.012948
0.0128693
0.0127963
0.0127346
0.0126836
0.0126452
0.0126242
0.0126218
0.0126396
0.0138974
0.013807
0.0137222
0.0136479
0.0135827
0.0135298
0.0134935
0.0134748
0.0134756
0.0148886
0.0147864
0.0146894
0.0146018
0.0145224
0.0144546
0.0144027
0.0143676
0.0143513
0.014357
0.0159244
0.0158101
0.0157004
0.0155991
0.0155053
0.0154223
0.0153546
0.0153033
0.0152701
0.0152581
0.0152693
0.0170077
0.016881
0.0167577
0.0166428
0.0165338
0.0164354
0.0163517
0.0162838
0.0162333
0.0162036
0.016196
0.0181416
0.0180015
0.0178647
0.0177351
0.0176108
0.0174962
0.0173963
0.0173115
0.0172438
0.0171963
0.0171705
0.0171683
0.019329
0.0191751
0.0190239
0.0188794
0.0187389
0.0186081
0.0184913
0.0183894
0.0183042
0.0182387
0.0181943
0.0181728
0.0205729
0.0204047
0.0202387
0.0200786
0.0199213
0.0197737
0.0196397
0.0195202
0.0194172
0.0193335
0.0192703
0.0192296
0.0192138
0.0218771
0.0216937
0.0215124
0.0213357
0.0211614
0.0209963
0.0208445
0.0207069
0.0205856
0.0204836
0.0204016
0.0203414
0.0203056
0.0232449
0.0230459
0.0228484
0.0226545
0.0224624
0.022279
0.022109
0.0219528
0.0218129
0.0216919
0.0215907
0.0215108
0.0214547
0.021424
0.0246801
0.0244649
0.0242501
0.0240387
0.0238279
0.0236257
0.0234367
0.0232615
0.0231024
0.0229623
0.0228414
0.0227418
0.0226651
0.0226132
0.0261868
0.0259547
0.0257216
0.0254919
0.0252617
0.0250399
0.0248313
0.0246363
0.0244575
0.0242976
0.0241568
0.024037
0.0239395
0.0238664
0.0277691
0.0275192
0.0272674
0.0270182
0.0267679
0.0265256
0.0262969
0.0260812
0.0258822
0.0257019
0.0255408
0.0254002
0.0252819
0.0251872
0.0251181
0.0294314
0.0291626
0.0288914
0.028622
0.0283506
0.0280874
0.0278373
0.0276005
0.0273804
0.0271792
0.0269972
0.0268355
0.0266958
0.0265791
0.0264876
0.0311786
0.0308898
0.0305984
0.0303078
0.0300142
0.0297292
0.0294569
0.0291984
0.0289563
0.0287336
0.0285301
0.028347
0.0281854
0.0280466
0.0279325
0.0330151
0.0327059
0.032393
0.0320805
0.031764
0.0314559
0.0311608
0.0308796
0.030615
0.03037
0.0301444
0.029939
0.0297551
0.0295936
0.0294562
0.029345
0.0349463
0.0346158
0.0342806
0.0339449
0.0336048
0.0332725
0.0329536
0.0326486
0.0323608
0.0320926
0.0318441
0.0316159
0.0314093
0.0312246
0.031064
0.0309287
0.036978
0.036625
0.0362665
0.0359067
0.0355416
0.0351844
0.0348407
0.0345108
0.0341987
0.0339067
0.0336347
0.0333831
0.0331531
0.0329449
0.03276
0.0326002
0.0394634
0.0391157
0.0387395
0.0383566
0.0379717
0.0375805
0.0371972
0.0368276
0.0364719
0.0361348
0.035818
0.0355215
0.0352459
0.0349917
0.0347593
0.03455
0.0343655
0.0342081
0.0417358
0.0413658
0.0409654
0.0405569
0.0401457
0.0397274
0.0393168
0.0389201
0.0385377
0.0381743
0.0378318
0.0375101
0.0372095
0.0369306
0.0366735
0.0364392
0.0362294
0.0360459
0.0441282
0.0437349
0.0433093
0.042874
0.0424354
0.0419886
0.0415496
0.0411245
0.0407142
0.0403231
0.0399542
0.0396063
0.0392799
0.0389755
0.0386929
0.0384332
0.0381976
0.037988
0.0466475
0.04623
0.0457781
0.045315
0.0448475
0.0443711
0.0439023
0.0434479
0.0430081
0.0425885
0.0421918
0.0418166
0.0414635
0.0411328
0.0408243
0.0405385
0.0402764
0.0400404
0.0398327
0.0493009
0.0488586
0.0483792
0.0478871
0.0473895
0.046882
0.046382
0.0458963
0.045426
0.0449771
0.0445513
0.0441478
0.0437672
0.0434094
0.0430739
0.0427612
0.0424726
0.0422096
0.0419747
0.0520967
0.0516285
0.0511205
0.0505981
0.0500691
0.0495289
0.0489962
0.0484778
0.0479761
0.0474958
0.0470397
0.0466068
0.0461975
0.0458117
0.0454485
0.0451084
0.0447926
0.0445024
0.04424
0.0550434
0.0545481
0.0540103
0.0534567
0.0528944
0.0523202
0.0517531
0.0512009
0.0506655
0.0501524
0.0496646
0.0492013
0.0487624
0.0483475
0.0479555
0.0475874
0.0472436
0.0469257
0.0466357
0.0581499
0.0576265
0.057058
0.0564714
0.0558745
0.0552643
0.0546611
0.0540732
0.0535022
0.0529553
0.0524347
0.0519392
0.0514692
0.051024
0.0506028
0.0502059
0.0498334
0.0494872
0.0491695
0.0614256
0.0608735
0.0602732
0.0596517
0.0590187
0.0583707
0.0577296
0.0571036
0.0564959
0.0559129
0.0553575
0.0548285
0.0543261
0.0538498
0.0533982
0.0529715
0.0525699
0.0521951
0.0518493
0.0515353
0.0648812
0.0642993
0.0636659
0.063008
0.062337
0.0616492
0.060968
0.0603021
0.059655
0.0590341
0.0584421
0.0578783
0.0573423
0.0568333
0.0563503
0.0558929
0.0554616
0.0550578
0.0546834
0.0543416
0.0685278
0.0679151
0.0672474
0.0665512
0.0658402
0.0651105
0.0643864
0.0636785
0.0629899
0.0623291
0.0616987
0.061098
0.0605266
0.0599838
0.0594679
0.0589791
0.0585173
0.0580838
0.0576806
0.0573112
0.0723772
0.071733
0.0710293
0.0702933
0.0695396
0.0687655
0.0679964
0.0672435
0.0665111
0.0658076
0.0651363
0.0644967
0.0638884
0.0633101
0.0627602
0.0622389
0.0617458
0.061282
0.0608502
0.0604529
0.0764423
0.0757659
0.0750244
0.0742467
0.0734479
0.0726265
0.0718093
0.0710085
0.070229
0.0694803
0.0687659
0.0680853
0.0674378
0.0668225
0.0662373
0.0656821
0.0651568
0.0646624
0.064201
0.0637762
0.080737
0.0800274
0.0792468
0.0784248
0.0775783
0.0767065
0.0758376
0.0749855
0.0741557
0.0733589
0.0725985
0.0718739
0.0711851
0.0705309
0.0699088
0.0693187
0.0687602
0.0682344
0.0677434
0.0672909
0.0668814
0.0852766
0.0845328
0.0837114
0.0828421
0.0819451
0.0810191
0.0800948
0.0791874
0.0783034
0.0774546
0.0766451
0.0758739
0.0751417
0.0744461
0.0737852
0.0731586
0.0725659
0.0720082
0.0714875
0.0710073
0.0705725
0.0900773
0.0892982
0.0884339
0.087515
0.0865635
0.0855791
0.0845951
0.0836276
0.0826852
0.0817807
0.0809182
0.0800973
0.0793184
0.0785792
0.0778775
0.0772129
0.0765847
0.0759937
0.0754426
0.0749348
0.0744752
0.095157
0.0943414
0.0934322
0.0924603
0.0914502
0.0904028
0.0893535
0.088321
0.0873153
0.0863499
0.0854303
0.0845557
0.0837268
0.0829411
0.0821966
0.081492
0.0808269
0.0802023
0.0796203
0.0790847
0.0786007
0.100535
0.0996819
0.0987255
0.0976969
0.0966231
0.0955071
0.0943864
0.093283
0.0922078
0.0911762
0.0901944
0.089262
0.0883794
0.0875445
0.0867542
0.0860075
0.0853041
0.0846447
0.0840311
0.0834674
0.0829594
0.106233
0.105341
0.104335
0.103245
0.102102
0.100911
0.0997115
0.0985295
0.0973778
0.0962741
0.0952246
0.0942296
0.0932891
0.0924008
0.0915617
0.0907708
0.0900271
0.0893313
0.0886855
0.0880938
0.0875617
0.0870945
0.112273
0.111342
0.110282
0.109126
0.107908
0.106633
0.105347
0.104078
0.102842
0.101659
0.100535
0.0994719
0.0984685
0.0975228
0.0966316
0.0957935
0.0950071
0.0942736
0.0935949
0.0929748
0.0924189
0.0919331
0.118682
0.11771
0.116594
0.115366
0.114064
0.112697
0.111314
0.109948
0.108619
0.107347
0.106142
0.105003
0.103931
0.102923
0.101976
0.101087
0.100256
0.0994832
0.0987705
0.0981213
0.097542
0.0970382
0.125489
0.124474
0.123298
0.12199
0.120595
0.119124
0.117632
0.116159
0.114725
0.113355
0.112059
0.110837
0.10969
0.108615
0.107607
0.106665
0.105786
0.104972
0.104223
0.103545
0.102942
0.102421
0.132724
0.131665
0.130424
0.129029
0.12753
0.125941
0.124327
0.122731
0.12118
0.119701
0.118304
0.116991
0.115761
0.114612
0.113539
0.112538
0.111608
0.11075
0.109964
0.109256
0.10863
0.108091
0.140423
0.139319
0.138007
0.136514
0.134897
0.133175
0.131422
0.129689
0.128005
0.126403
0.124893
0.123478
0.122158
0.120928
0.119783
0.118719
0.117735
0.116829
0.116005
0.115266
0.114616
0.114061
0.148626
0.147474
0.146085
0.144482
0.14273
0.140856
0.138944
0.137055
0.135222
0.13348
0.131845
0.130317
0.128896
0.127576
0.126352
0.12522
0.124177
0.123222
0.122357
0.121584
0.12091
0.12034
0.157376
0.156175
0.154702
0.152972
0.151065
0.149018
0.146924
0.144856
0.142853
0.140955
0.139178
0.137523
0.135989
0.134571
0.133261
0.132054
0.130946
0.129937
0.129027
0.12822
0.127521
0.126935
0.126467
0.166723
0.165471
0.163904
0.162029
0.159944
0.157696
0.155392
0.15312
0.150923
0.148848
0.146911
0.145113
0.143454
0.141927
0.140521
0.13923
0.138051
0.136983
0.136025
0.135181
0.134456
0.133854
0.13338
0.176725
0.17542
0.173747
0.171702
0.16941
0.16693
0.164384
0.161877
0.159459
0.157182
0.155064
0.153105
0.151306
0.149657
0.148144
0.146761
0.145504
0.14437
0.143361
0.142479
0.141728
0.14111
0.14063
0.187444
0.186085
0.18429
0.182046
0.179515
0.176762
0.173936
0.171161
0.168488
0.165983
0.163659
0.161516
0.15956
0.157775
0.156144
0.154659
0.153318
0.152117
0.151057
0.150137
0.14936
0.148729
0.148245
0.198955
0.197539
0.195604
0.193125
0.190313
0.187241
0.184092
0.181008
0.178043
0.175279
0.172719
0.170366
0.168234
0.166301
0.164542
0.16295
0.161524
0.160259
0.15915
0.158196
0.157397
0.156756
0.15627
0.211342
0.209866
0.207767
0.205008
0.201868
0.198418
0.194897
0.191457
0.188154
0.185102
0.182264
0.179669
0.177351
0.175265
0.173376
0.17168
0.170174
0.168848
0.167692
0.166705
0.165886
0.165235
0.16475
0.224701
0.223158
0.220866
0.217775
0.21425
0.21035
0.206409
0.202551
0.198863
0.195492
0.192308
0.189438
0.186946
0.184724
0.182707
0.180903
0.179314
0.177921
0.176713
0.175685
0.17484
0.174178
0.173692
0.239134
0.237515
0.234994
0.231511
0.227533
0.223102
0.218702
0.214339
0.210229
0.206517
0.202888
0.199717
0.197088
0.194741
0.192577
0.190639
0.188943
0.187462
0.18618
0.185098
0.18422
0.183545
0.183063
0.254764
0.253059
0.250261
0.246311
0.241788
0.236734
0.231845
0.226844
0.222342
0.218265
0.214054
0.210598
0.20787
0.205353
0.202967
0.200843
0.199003
0.197402
0.196024
0.194877
0.193961
0.193272
0.192797
0.192513
0.27171
0.269915
0.266773
0.262254
0.257076
0.251301
0.245877
0.240044
0.235409
0.230743
0.225622
0.222056
0.219387
0.216584
0.213837
0.211474
0.209473
0.207738
0.206252
0.205032
0.204079
0.203379
0.202911
0.202652
0.289794
0.287917
0.284376
0.279225
0.273327
0.266818
0.260825
0.254039
0.249838
0.244
0.237429
0.23402
0.231743
0.228466
0.225122
0.222445
0.220269
0.218383
0.216776
0.215481
0.214494
0.213786
0.213328
0.213077
0.307254
0.305353
0.301516
0.295975
0.289596
0.282777
0.276508
0.269269
0.266167
0.25882
0.25061
0.24733
0.245136
0.240872
0.236527
0.233267
0.230721
0.228529
0.22667
0.22519
0.224075
0.223295
0.222801
0.222543
0.323549
0.321687
0.317785
0.312196
0.305736
0.299188
0.293018
0.2863
0.284129
0.276414
0.266695
0.262974
0.259804
0.254119
0.24853
0.244366
0.241155
0.238437
0.23615
0.234339
0.232989
0.232055
0.231471
0.231195
0.340998
0.339168
0.335243
0.329643
0.323204
0.317063
0.31104
0.305263
0.303767
0.29672
0.285648
0.280985
0.275955
0.268712
0.26183
0.256576
0.25251
0.249143
0.246351
0.244158
0.242543
0.24144
0.240759
0.240428
0.361088
0.359256
0.355273
0.349619
0.343214
0.337488
0.33156
0.326949
0.325988
0.319729
0.307073
0.301349
0.293759
0.284657
0.276385
0.269932
0.264893
0.260798
0.257459
0.25485
0.25294
0.251648
0.250878
0.250553
0.383891
0.382031
0.377986
0.372281
0.366012
0.360748
0.355027
0.351916
0.351467
0.346253
0.331632
0.324754
0.313715
0.302241
0.292384
0.284607
0.278456
0.273523
0.269572
0.266514
0.264286
0.262775
0.261852
0.261397
0.409878
0.407972
0.403912
0.398235
0.392309
0.387556
0.382338
0.381083
0.381192
0.377399
0.360263
0.351935
0.336356
0.321848
0.310075
0.300766
0.293316
0.287385
0.282708
0.279149
0.276629
0.275049
0.274297
0.274214
0.439326
0.437398
0.43354
0.428229
0.423086
0.419011
0.414916
0.415708
0.416609
0.414733
0.394466
0.383985
0.362409
0.343928
0.329697
0.318531
0.309551
0.302439
0.296878
0.292619
0.289482
0.287277
0.285782
0.28481
0.472472
0.470587
0.467341
0.463163
0.459715
0.457007
0.45539
0.458017
0.460625
0.460745
0.43629
0.422203
0.392688
0.368918
0.351444
0.337915
0.327039
0.318577
0.312275
0.307833
0.305043
0.303785
0.303931
0.305116
0.306753
0.509808
0.507993
0.505906
0.504059
0.503872
0.504385
0.508082
0.512066
0.520079
0.519264
0.488044
0.468041
0.427808
0.396929
0.375371
0.358946
0.345456
0.334573
0.32606
0.31949
0.314394
0.31025
0.306544
0.303232
0.30089
0.551452
0.550048
0.550608
0.553497
0.559264
0.566294
0.57887
0.582784
0.605671
0.587416
0.549891
0.52312
0.468107
0.427341
0.400681
0.381489
0.366401
0.354739
0.346112
0.340112
0.336614
0.33559
0.336675
0.33842
0.338888
0.592896
0.593716
0.602043
0.617297
0.63725
0.658204
0.681219
0.677104
0.719442
0.638089
0.613511
0.58718
0.515454
0.461734
0.425566
0.397572
0.374442
0.355632
0.340349
0.327434
0.315758
0.304413
0.293331
0.283945
0.27774
0.62234
0.627809
0.651001
0.693896
0.75508
0.82683
0.874926
0.833964
0.84629
0.669813
0.662988
0.636217
0.561227
0.502275
0.458534
0.420231
0.386627
0.358601
0.335677
0.316992
0.301926
0.289946
0.280453
0.273192
0.267622
0.637518
0.646661
0.682295
0.754935
0.888748
1.15936
1.43686
1.10948
0.916363
0.737054
0.800068
0.637326
0.505537
0.426684
0.374186
0.336012
0.306612
0.28327
0.264523
0.24943
0.237514
0.228559
0.222571
0.219278
0.217131
)
;

boundaryField
{
    inlet
    {
        type            calculated;
        value           nonuniform List<scalar> 
25
(
0.693313
0.703932
0.74391
0.82659
0.98694
1.35886
1.69424
1.13552
0.89062
0.920055
0.584777
0.424283
0.324427
0.264644
0.22515
0.196959
0.175678
0.159036
0.145712
0.134891
0.126053
0.118891
0.113198
0.108828
0.10551
)
;
    }
    outlet
    {
        type            calculated;
        value           nonuniform List<scalar> 0();
    }
    walls
    {
        type            calculated;
        value           nonuniform List<scalar> 0();
    }
    frontAndBack
    {
        type            empty;
    }
    procBoundary4to0
    {
        type            processor;
        value           nonuniform List<scalar> 
72
(
0.00956368
0.0103792
0.0112264
0.0121089
0.0130284
0.0139876
0.0149893
0.0160361
0.0171307
0.0182761
0.0194755
0.0207323
0.0220498
0.0234316
0.0248814
0.0264034
0.0280019
0.0296812
0.0314458
0.033301
0.0352521
0.0373042
0.0373042
0.0398076
0.042101
0.044515
0.0470568
0.0497339
0.0525538
0.0555252
0.0586572
0.0619593
0.0654418
0.0691156
0.0729927
0.077086
0.0814092
0.0859772
0.0908063
0.095914
0.10132
0.107045
0.113112
0.119547
0.126378
0.133636
0.141356
0.149576
0.158342
0.167701
0.17771
0.188431
0.199939
0.212315
0.225651
0.240048
0.255627
0.272511
0.290542
0.308002
0.324318
0.341772
0.361866
0.384677
0.410711
0.440295
0.473746
0.511671
0.55453
0.598305
0.630567
0.647276
)
;
    }
    procBoundary4to5
    {
        type            processor;
        value           nonuniform List<scalar> 
95
(
0.00874666
0.00872185
0.00870646
0.00944415
0.00944415
0.00944742
0.0102143
0.0102143
0.0102401
0.0110288
0.0110288
0.0118429
0.0118429
0.0126811
0.0134991
0.0134991
0.0143866
0.0143866
0.0153055
0.016213
0.016213
0.0171928
0.018177
0.018177
0.0192251
0.0202958
0.0202958
0.0214214
0.0225886
0.0238196
0.0238196
0.0250775
0.0264238
0.027845
0.027845
0.0292628
0.0308215
0.0324681
0.0324681
0.0340801
0.0358914
0.0378072
0.0378072
0.0396566
0.0417712
0.044009
0.046377
0.0488831
0.0488831
0.0512568
0.0540362
0.0569794
0.0600948
0.0633923
0.0633923
0.0665191
0.0701876
0.0740684
0.078173
0.0825116
0.0825116
0.0867013
0.091526
0.0966183
0.101989
0.107649
0.113609
0.119879
0.119879
0.126118
0.133032
0.140285
0.147904
0.155933
0.164421
0.173373
0.182758
0.182758
0.192389
0.202565
0.213002
0.222485
0.231169
0.240368
0.250563
0.261283
0.274594
0.284306
0.284306
0.308408
0.299678
0.337822
0.274285
0.262503
0.21692
)
;
    }
}


// ************************************************************************* //
