/*--------------------------------*- C++ -*----------------------------------*\
| =========                 |                                                 |
| \\      /  F ield         | OpenFOAM: The Open Source CFD Toolbox           |
|  \\    /   O peration     | Version:  2506                                  |
|   \\  /    A nd           | Website:  www.openfoam.com                      |
|    \\/     M anipulation  |                                                 |
\*---------------------------------------------------------------------------*/
FoamFile
{
    version     2.0;
    format      ascii;
    arch        "LSB;label=32;scalar=64";
    class       volScalarField;
    location    "450";
    object      turbulenceProperties:epsilon;
}
// * * * * * * * * * * * * * * * * * * * * * * * * * * * * * * * * * * * * * //

dimensions      [0 2 -3 0 0 0 0];

internalField   nonuniform List<scalar> 
1340
(
0.000201518
0.000204582
0.000206968
0.000145535
0.000148157
0.00015039
0.000151829
0.000152425
0.000106523
0.000108714
0.000110683
0.000112174
0.000113149
0.000113527
0.000113126
7.88236e-05
8.06165e-05
8.22861e-05
8.36585e-05
8.47148e-05
8.53985e-05
8.55623e-05
8.51546e-05
5.88954e-05
6.03488e-05
6.17374e-05
6.29417e-05
6.39606e-05
6.47403e-05
6.51729e-05
6.5223e-05
6.48553e-05
4.43767e-05
4.55496e-05
4.66858e-05
4.77116e-05
4.86338e-05
4.93979e-05
4.99325e-05
5.02105e-05
5.01978e-05
3.36872e-05
3.46288e-05
3.55516e-05
3.64133e-05
3.72157e-05
3.79183e-05
3.8468e-05
3.88452e-05
3.90218e-05
3.89602e-05
2.57411e-05
2.64936e-05
2.72419e-05
2.7956e-05
2.8639e-05
2.92602e-05
2.97802e-05
3.01815e-05
3.04449e-05
3.05405e-05
3.04511e-05
1.97833e-05
2.03839e-05
2.09903e-05
2.15759e-05
2.21507e-05
2.26859e-05
2.31542e-05
2.35428e-05
2.38368e-05
2.40121e-05
2.40572e-05
1.52819e-05
1.57632e-05
1.62515e-05
1.67316e-05
1.72093e-05
1.76645e-05
1.80737e-05
1.84305e-05
1.87218e-05
1.89296e-05
1.90435e-05
1.90532e-05
1.18589e-05
1.22442e-05
1.2638e-05
1.30293e-05
1.34247e-05
1.38062e-05
1.41581e-05
1.44748e-05
1.47461e-05
1.49589e-05
1.51055e-05
1.51771e-05
9.24061e-06
9.54887e-06
9.8662e-06
1.01847e-05
1.051e-05
1.08273e-05
1.11259e-05
1.1401e-05
1.16449e-05
1.18478e-05
1.20039e-05
1.2106e-05
1.21458e-05
7.2264e-06
7.47375e-06
7.72901e-06
7.98816e-06
8.25469e-06
8.5174e-06
8.76827e-06
9.00364e-06
9.2177e-06
9.40274e-06
9.55476e-06
9.66838e-06
9.73674e-06
5.66983e-06
5.86811e-06
6.07374e-06
6.28433e-06
6.50206e-06
6.71884e-06
6.92784e-06
7.12722e-06
7.31181e-06
7.47634e-06
7.61749e-06
7.73138e-06
7.81253e-06
7.85746e-06
4.46157e-06
4.6206e-06
4.78654e-06
4.95715e-06
5.13488e-06
5.31296e-06
5.48646e-06
5.6536e-06
5.81101e-06
5.95418e-06
6.08118e-06
6.18847e-06
6.27259e-06
6.33049e-06
3.52001e-06
3.64762e-06
3.78165e-06
3.91983e-06
4.0647e-06
4.21063e-06
4.35392e-06
4.49343e-06
4.62625e-06
4.74928e-06
4.86094e-06
4.95865e-06
5.03987e-06
5.10193e-06
2.78374e-06
2.88625e-06
2.99435e-06
3.10635e-06
3.2242e-06
3.34359e-06
3.46146e-06
3.57738e-06
3.68868e-06
3.79332e-06
3.88991e-06
3.9768e-06
4.05173e-06
4.11301e-06
4.15846e-06
2.20613e-06
2.28859e-06
2.37575e-06
2.46646e-06
2.5623e-06
2.6597e-06
2.75656e-06
2.85239e-06
2.94524e-06
3.03342e-06
3.11606e-06
3.19187e-06
3.25919e-06
3.31683e-06
3.36291e-06
1.75166e-06
1.81809e-06
1.88835e-06
1.96181e-06
2.03971e-06
2.11905e-06
2.19851e-06
2.27741e-06
2.35454e-06
2.42839e-06
2.49844e-06
2.5636e-06
2.62291e-06
2.67524e-06
2.71924e-06
1.39324e-06
1.44668e-06
1.50338e-06
1.56283e-06
1.62605e-06
1.6907e-06
1.75567e-06
1.82052e-06
1.88427e-06
1.94582e-06
2.00473e-06
2.06031e-06
2.11174e-06
2.15821e-06
2.19877e-06
2.23227e-06
1.10986e-06
1.15285e-06
1.19862e-06
1.24675e-06
1.29798e-06
1.35062e-06
1.40367e-06
1.45687e-06
1.5094e-06
1.5605e-06
1.60978e-06
1.65676e-06
1.70079e-06
1.74139e-06
1.77769e-06
1.809e-06
8.85315e-07
9.19945e-07
9.56863e-07
9.95799e-07
1.03736e-06
1.08013e-06
1.1234e-06
1.16697e-06
1.21015e-06
1.25239e-06
1.2934e-06
1.33283e-06
1.37021e-06
1.40518e-06
1.43717e-06
1.46555e-06
6.82491e-07
7.07078e-07
7.34951e-07
7.64739e-07
7.96226e-07
8.29903e-07
8.6464e-07
8.9988e-07
9.35502e-07
9.70906e-07
1.00571e-06
1.03972e-06
1.07263e-06
1.10414e-06
1.13397e-06
1.1617e-06
1.18685e-06
1.20884e-06
5.45551e-07
5.65336e-07
5.87765e-07
6.11806e-07
6.37261e-07
6.64533e-07
6.92731e-07
7.21412e-07
7.50472e-07
7.79467e-07
8.08079e-07
8.36163e-07
8.63511e-07
8.89895e-07
9.15111e-07
9.38878e-07
9.60822e-07
9.80533e-07
4.36522e-07
4.52437e-07
4.70488e-07
4.89888e-07
5.10458e-07
5.32539e-07
5.55405e-07
5.78729e-07
6.02412e-07
6.26128e-07
6.4958e-07
6.72705e-07
6.9535e-07
7.17331e-07
7.38513e-07
7.58683e-07
7.77576e-07
7.94878e-07
3.49589e-07
3.62389e-07
3.76914e-07
3.92559e-07
4.09185e-07
4.27045e-07
4.4558e-07
4.64521e-07
4.83814e-07
5.03164e-07
5.2236e-07
5.4136e-07
5.60042e-07
5.78269e-07
5.95951e-07
6.12939e-07
6.29048e-07
6.4401e-07
6.57552e-07
2.80188e-07
2.90475e-07
3.0216e-07
3.14775e-07
3.28205e-07
3.42649e-07
3.57668e-07
3.73051e-07
3.88743e-07
4.04498e-07
4.20185e-07
4.35759e-07
4.51118e-07
4.66177e-07
4.80873e-07
4.95093e-07
5.08691e-07
5.21487e-07
5.3326e-07
2.24714e-07
2.32977e-07
2.42377e-07
2.52543e-07
2.63388e-07
2.75067e-07
2.87229e-07
2.99714e-07
3.1245e-07
3.25281e-07
3.38083e-07
3.50821e-07
3.63421e-07
3.75818e-07
3.8798e-07
3.99813e-07
4.1121e-07
4.22042e-07
4.32146e-07
1.80322e-07
1.86961e-07
1.94519e-07
2.02705e-07
2.11463e-07
2.20901e-07
2.30745e-07
2.40862e-07
2.51207e-07
2.61645e-07
2.72079e-07
2.82472e-07
2.92783e-07
3.02963e-07
3.12992e-07
3.22791e-07
3.3229e-07
3.41387e-07
3.4996e-07
1.44768e-07
1.501e-07
1.56172e-07
1.62764e-07
1.69832e-07
1.77458e-07
1.85422e-07
1.9362e-07
2.02019e-07
2.10496e-07
2.18982e-07
2.27459e-07
2.35883e-07
2.44223e-07
2.52457e-07
2.60537e-07
2.68414e-07
2.76005e-07
2.8321e-07
1.1627e-07
1.20546e-07
1.25422e-07
1.30732e-07
1.36431e-07
1.42592e-07
1.49033e-07
1.55676e-07
1.62484e-07
1.69368e-07
1.76269e-07
1.83172e-07
1.90042e-07
1.96857e-07
2.03601e-07
2.10242e-07
2.16741e-07
2.23033e-07
2.29044e-07
2.34679e-07
9.34098e-08
9.68373e-08
1.00749e-07
1.05024e-07
1.0962e-07
1.14595e-07
1.19803e-07
1.25184e-07
1.30705e-07
1.36292e-07
1.41899e-07
1.4751e-07
1.53103e-07
1.58662e-07
1.64173e-07
1.69614e-07
1.74953e-07
1.80142e-07
1.85127e-07
1.89829e-07
7.50586e-08
7.78038e-08
8.09409e-08
8.43812e-08
8.80861e-08
9.21022e-08
9.6316e-08
1.00671e-07
1.05146e-07
1.09677e-07
1.14229e-07
1.18789e-07
1.23339e-07
1.27865e-07
1.3236e-07
1.36803e-07
1.41173e-07
1.45436e-07
1.49545e-07
1.53438e-07
6.03196e-08
6.25159e-08
6.50306e-08
6.77976e-08
7.07852e-08
7.40272e-08
7.74341e-08
8.09611e-08
8.45867e-08
8.82625e-08
9.19577e-08
9.56609e-08
9.93563e-08
1.03037e-07
1.06696e-07
1.10317e-07
1.13883e-07
1.1737e-07
1.20738e-07
1.23944e-07
4.84764e-08
5.02309e-08
5.22464e-08
5.44705e-08
5.68793e-08
5.94967e-08
6.2252e-08
6.51083e-08
6.80475e-08
7.10287e-08
7.40266e-08
7.70318e-08
8.00334e-08
8.30223e-08
8.59956e-08
8.89404e-08
9.18442e-08
9.46852e-08
9.74369e-08
1.0006e-07
3.89559e-08
4.03561e-08
4.19701e-08
4.37579e-08
4.56992e-08
4.78127e-08
5.00422e-08
5.2356e-08
5.47394e-08
5.71569e-08
5.95897e-08
6.20294e-08
6.44655e-08
6.68911e-08
6.93043e-08
7.16947e-08
7.40529e-08
7.6362e-08
7.86001e-08
8.07361e-08
8.27319e-08
3.12999e-08
3.24164e-08
3.37077e-08
3.51449e-08
3.67094e-08
3.8417e-08
4.02213e-08
4.20969e-08
4.40306e-08
4.59928e-08
4.79671e-08
4.99474e-08
5.19231e-08
5.38911e-08
5.58481e-08
5.77864e-08
5.96977e-08
6.15689e-08
6.33828e-08
6.51148e-08
6.67346e-08
2.5142e-08
2.60311e-08
2.70638e-08
2.82188e-08
2.94802e-08
3.08603e-08
3.23216e-08
3.38437e-08
3.54133e-08
3.70062e-08
3.86097e-08
4.0217e-08
4.18203e-08
4.34165e-08
4.50025e-08
4.65724e-08
4.81195e-08
4.96339e-08
5.11003e-08
5.24998e-08
5.38081e-08
2.01882e-08
2.08955e-08
2.17209e-08
2.26488e-08
2.36663e-08
2.47824e-08
2.59672e-08
2.72031e-08
2.84783e-08
2.97735e-08
3.10764e-08
3.23825e-08
3.3684e-08
3.49787e-08
3.62635e-08
3.75342e-08
3.8785e-08
4.00075e-08
4.11903e-08
4.23177e-08
4.33699e-08
1.62028e-08
1.67647e-08
1.74239e-08
1.81695e-08
1.89908e-08
1.98942e-08
2.08561e-08
2.18607e-08
2.28984e-08
2.39525e-08
2.50127e-08
2.60743e-08
2.71317e-08
2.81817e-08
2.92228e-08
3.0251e-08
3.12613e-08
3.22471e-08
3.31994e-08
3.41054e-08
3.49485e-08
1.29965e-08
1.34422e-08
1.39684e-08
1.45678e-08
1.52309e-08
1.59633e-08
1.67452e-08
1.75633e-08
1.84092e-08
1.92681e-08
2.01317e-08
2.09957e-08
2.18553e-08
2.2708e-08
2.3552e-08
2.43837e-08
2.51996e-08
2.5994e-08
2.67595e-08
2.74859e-08
2.81601e-08
2.87694e-08
1.04172e-08
1.07703e-08
1.11902e-08
1.1672e-08
1.2208e-08
1.28026e-08
1.34393e-08
1.41068e-08
1.47974e-08
1.54985e-08
1.62032e-08
1.69074e-08
1.76072e-08
1.83002e-08
1.89847e-08
1.9658e-08
2.0317e-08
2.09569e-08
2.15714e-08
2.21528e-08
2.26907e-08
2.31742e-08
8.34275e-09
8.62197e-09
8.95681e-09
9.34438e-09
9.77835e-09
1.02618e-08
1.07814e-08
1.13271e-08
1.18919e-08
1.24655e-08
1.30417e-08
1.36167e-08
1.41872e-08
1.47511e-08
1.53068e-08
1.58523e-08
1.63847e-08
1.69e-08
1.73931e-08
1.7858e-08
1.82861e-08
1.86689e-08
6.67469e-09
6.89519e-09
7.16205e-09
7.47408e-09
7.82599e-09
8.21991e-09
8.64491e-09
9.09203e-09
9.55521e-09
1.00255e-08
1.04975e-08
1.0968e-08
1.14341e-08
1.18937e-08
1.23455e-08
1.27877e-08
1.3218e-08
1.36331e-08
1.4029e-08
1.44004e-08
1.47406e-08
1.50431e-08
5.33398e-09
5.50775e-09
5.72041e-09
5.97192e-09
6.25774e-09
6.57947e-09
6.92802e-09
7.29532e-09
7.67611e-09
8.06266e-09
8.45026e-09
8.83621e-09
9.2176e-09
9.5929e-09
9.96093e-09
1.032e-08
1.06682e-08
1.10029e-08
1.13208e-08
1.16173e-08
1.18875e-08
1.21261e-08
4.2569e-09
4.39355e-09
4.56299e-09
4.76596e-09
4.99863e-09
5.26221e-09
5.54875e-09
5.85136e-09
6.1653e-09
6.48397e-09
6.80315e-09
7.12042e-09
7.43326e-09
7.74039e-09
8.0408e-09
8.33291e-09
8.61506e-09
8.88521e-09
9.14047e-09
9.37739e-09
9.59193e-09
9.7799e-09
3.39211e-09
3.49936e-09
3.63434e-09
3.79843e-09
3.98839e-09
4.20488e-09
4.44116e-09
4.69122e-09
4.95084e-09
5.21427e-09
5.47784e-09
5.73935e-09
5.99671e-09
6.24871e-09
6.49437e-09
6.73245e-09
6.96156e-09
7.17998e-09
7.38527e-09
7.57482e-09
7.74516e-09
7.89308e-09
2.69831e-09
2.78229e-09
2.88982e-09
3.02278e-09
3.17832e-09
3.35663e-09
3.55211e-09
3.75939e-09
3.97473e-09
4.19314e-09
4.41142e-09
4.62768e-09
4.84001e-09
5.04728e-09
5.24871e-09
5.44331e-09
5.62993e-09
5.80691e-09
5.97243e-09
6.12425e-09
6.25963e-09
6.37608e-09
6.47102e-09
2.14219e-09
2.20777e-09
2.29344e-09
2.4015e-09
2.5292e-09
2.67653e-09
2.83881e-09
3.01115e-09
3.19035e-09
3.37199e-09
3.55338e-09
3.7328e-09
3.90849e-09
4.07948e-09
4.24523e-09
4.40483e-09
4.55725e-09
4.70116e-09
4.83496e-09
4.95681e-09
5.06461e-09
5.15635e-09
5.23016e-09
1.69689e-09
1.74794e-09
1.81627e-09
1.90436e-09
2.00952e-09
2.13166e-09
2.26681e-09
2.41053e-09
2.56014e-09
2.71172e-09
2.86295e-09
3.01232e-09
3.15815e-09
3.29971e-09
3.43654e-09
3.56794e-09
3.69288e-09
3.81022e-09
3.91864e-09
4.01662e-09
4.10248e-09
4.17478e-09
4.2321e-09
1.34077e-09
1.38038e-09
1.43495e-09
1.50703e-09
1.59385e-09
1.69547e-09
1.80837e-09
1.92854e-09
2.05387e-09
2.18071e-09
2.30726e-09
2.43212e-09
2.55361e-09
2.67114e-09
2.78451e-09
2.89302e-09
2.99562e-09
3.09131e-09
3.17907e-09
3.25773e-09
3.32601e-09
3.38285e-09
3.42724e-09
1.05638e-09
1.087e-09
1.13065e-09
1.18985e-09
1.26174e-09
1.34661e-09
1.44115e-09
1.54189e-09
1.64722e-09
1.75358e-09
1.85991e-09
1.96477e-09
2.06629e-09
2.16408e-09
2.25811e-09
2.34763e-09
2.43163e-09
2.50934e-09
2.58002e-09
2.64286e-09
2.6969e-09
2.74135e-09
2.77561e-09
8.29644e-10
8.53236e-10
8.88242e-10
9.37031e-10
9.9671e-10
1.06787e-09
1.14716e-09
1.23185e-09
1.32067e-09
1.40994e-09
1.49983e-09
1.58835e-09
1.67306e-09
1.75413e-09
1.83183e-09
1.90531e-09
1.97367e-09
2.03641e-09
2.09312e-09
2.14316e-09
2.18579e-09
2.22045e-09
2.24675e-09
6.49252e-10
6.67396e-10
6.95538e-10
7.3587e-10
7.85515e-10
8.45406e-10
9.11845e-10
9.83332e-10
1.05834e-09
1.13324e-09
1.21018e-09
1.2852e-09
1.3551e-09
1.42149e-09
1.48531e-09
1.54544e-09
1.60097e-09
1.65167e-09
1.69734e-09
1.73741e-09
1.77123e-09
1.79834e-09
1.81852e-09
5.06131e-10
5.20071e-10
5.42753e-10
5.76163e-10
6.17527e-10
6.68069e-10
7.2348e-10
7.84208e-10
8.47349e-10
9.09938e-10
9.76809e-10
1.04033e-09
1.09697e-09
1.1508e-09
1.20341e-09
1.25308e-09
1.29869e-09
1.34022e-09
1.37753e-09
1.41001e-09
1.43708e-09
1.45837e-09
1.47378e-09
3.92892e-10
4.03585e-10
4.21944e-10
4.49671e-10
4.84273e-10
5.26974e-10
5.72845e-10
6.25054e-10
6.77238e-10
7.29275e-10
7.88376e-10
8.41411e-10
8.86445e-10
9.30712e-10
9.75261e-10
1.01717e-09
1.05532e-09
1.08997e-09
1.12094e-09
1.14758e-09
1.1694e-09
1.18618e-09
1.19791e-09
1.20499e-09
3.03667e-10
3.11827e-10
3.26781e-10
3.49894e-10
3.78948e-10
4.14997e-10
4.52848e-10
4.98489e-10
5.38921e-10
5.83857e-10
6.38688e-10
6.8072e-10
7.14444e-10
7.5215e-10
7.91558e-10
8.27525e-10
8.59598e-10
8.88686e-10
9.14567e-10
9.36531e-10
9.54151e-10
9.67359e-10
9.76318e-10
9.81328e-10
2.34668e-10
2.40849e-10
2.53074e-10
2.72269e-10
2.96542e-10
3.26555e-10
3.57619e-10
3.97387e-10
4.24792e-10
4.66931e-10
5.20801e-10
5.51817e-10
5.73829e-10
6.07456e-10
6.44368e-10
6.75949e-10
7.0305e-10
7.27652e-10
7.49469e-10
7.67651e-10
7.81889e-10
7.9229e-10
7.9912e-10
8.02896e-10
1.85701e-10
1.90372e-10
2.00249e-10
2.15671e-10
2.35309e-10
2.58843e-10
2.83127e-10
3.14818e-10
3.29756e-10
3.6882e-10
4.19576e-10
4.42276e-10
4.58317e-10
4.91641e-10
5.28773e-10
5.58961e-10
5.84038e-10
6.06775e-10
6.26929e-10
6.43574e-10
6.56478e-10
6.65698e-10
6.71621e-10
6.74751e-10
1.51023e-10
1.5455e-10
1.62283e-10
1.7422e-10
1.89416e-10
2.06551e-10
2.24506e-10
2.4633e-10
2.53942e-10
2.83498e-10
3.2714e-10
3.46048e-10
3.6325e-10
3.9686e-10
4.33783e-10
4.64112e-10
4.89324e-10
5.12023e-10
5.32149e-10
5.48784e-10
5.61622e-10
5.70712e-10
5.76497e-10
5.79257e-10
1.22402e-10
1.25067e-10
1.31027e-10
1.4016e-10
1.51667e-10
1.63764e-10
1.76819e-10
1.90588e-10
1.9437e-10
2.13499e-10
2.48572e-10
2.65489e-10
2.8538e-10
3.17415e-10
3.52123e-10
3.81868e-10
4.07059e-10
4.29514e-10
4.49322e-10
4.65685e-10
4.78212e-10
4.87008e-10
4.92545e-10
4.95267e-10
9.73502e-11
9.93521e-11
1.03882e-10
1.10767e-10
1.19271e-10
1.27573e-10
1.36943e-10
1.44831e-10
1.46546e-10
1.58358e-10
1.86124e-10
2.00672e-10
2.2223e-10
2.52044e-10
2.83602e-10
3.1171e-10
3.36113e-10
3.57723e-10
3.76643e-10
3.92308e-10
4.0429e-10
4.12659e-10
4.17751e-10
4.19925e-10
7.61986e-11
7.76944e-11
8.10741e-11
8.61591e-11
9.22143e-11
9.77161e-11
1.04167e-10
1.07898e-10
1.0845e-10
1.15128e-10
1.36814e-10
1.48776e-10
1.7085e-10
1.98308e-10
2.26434e-10
2.52218e-10
2.75254e-10
2.95653e-10
3.13371e-10
3.28004e-10
3.39206e-10
3.47073e-10
3.51994e-10
3.54452e-10
5.86339e-11
5.97381e-11
6.21764e-11
6.5798e-11
6.98649e-11
7.33551e-11
7.74417e-11
7.84657e-11
7.83744e-11
8.15713e-11
9.82348e-11
1.07868e-10
1.29285e-10
1.54221e-10
1.79013e-10
2.02227e-10
2.23567e-10
2.42604e-10
2.59061e-10
2.72528e-10
2.82594e-10
2.89145e-10
2.92327e-10
2.9268e-10
4.44231e-11
4.52114e-11
4.68424e-11
4.92099e-11
5.16464e-11
5.36845e-11
5.5835e-11
5.54098e-11
5.49308e-11
5.5931e-11
6.83429e-11
7.61163e-11
9.59274e-11
1.1827e-10
1.40052e-10
1.60748e-10
1.80229e-10
1.9779e-10
2.13033e-10
2.25707e-10
2.35654e-10
2.42972e-10
2.48096e-10
2.51501e-10
3.32073e-11
3.37427e-11
3.46899e-11
3.59587e-11
3.70494e-11
3.79351e-11
3.84761e-11
3.76003e-11
3.67551e-11
3.67172e-11
4.56688e-11
5.20765e-11
6.95904e-11
8.93363e-11
1.08474e-10
1.26918e-10
1.44663e-10
1.60659e-10
1.74026e-10
1.8429e-10
1.91128e-10
1.94314e-10
1.93941e-10
1.90946e-10
1.86902e-10
2.44955e-11
2.48476e-11
2.526e-11
2.56322e-11
2.56701e-11
2.55655e-11
2.48291e-11
2.40648e-11
2.26152e-11
2.27578e-11
2.91653e-11
3.44809e-11
4.94013e-11
6.66644e-11
8.33508e-11
9.96875e-11
1.16197e-10
1.3207e-10
1.46413e-10
1.58835e-10
1.69386e-10
1.7862e-10
1.87415e-10
1.95739e-10
2.01905e-10
1.78916e-11
1.8075e-11
1.80015e-11
1.76284e-11
1.69121e-11
1.60876e-11
1.47339e-11
1.43417e-11
1.22931e-11
1.38948e-11
1.80952e-11
2.20946e-11
3.44622e-11
4.96185e-11
6.42036e-11
7.81331e-11
9.18207e-11
1.04505e-10
1.15322e-10
1.23677e-10
1.28899e-10
1.30481e-10
1.28807e-10
1.26172e-10
1.25476e-10
1.33883e-11
1.33145e-11
1.25927e-11
1.1393e-11
1.00312e-11
8.81292e-12
7.68037e-12
7.86879e-12
6.1729e-12
9.9784e-12
1.16769e-11
1.39175e-11
2.34393e-11
3.64055e-11
5.04529e-11
6.62371e-11
8.41852e-11
1.03461e-10
1.23335e-10
1.43978e-10
1.66487e-10
1.92728e-10
2.23548e-10
2.54606e-10
2.78133e-10
1.1028e-11
1.06485e-11
9.20971e-12
7.13409e-12
5.0868e-12
3.53669e-12
2.82e-12
3.41707e-12
3.2221e-12
8.21735e-12
8.56127e-12
1.00966e-11
1.6677e-11
2.59985e-11
3.74327e-11
5.30645e-11
7.40634e-11
1.00077e-10
1.30347e-10
1.63908e-10
1.99158e-10
2.34173e-10
2.67527e-10
2.97126e-10
3.22644e-10
1.0014e-11
9.45936e-12
7.63198e-12
5.09065e-12
2.64838e-12
9.11951e-13
3.84215e-13
1.08811e-12
2.34282e-12
5.60332e-12
4.03477e-12
1.00264e-11
2.53334e-11
4.99259e-11
8.44159e-11
1.2983e-10
1.87261e-10
2.5705e-10
3.38043e-10
4.27598e-10
5.20101e-10
6.0653e-10
6.7449e-10
7.1594e-10
7.4469e-10
)
;

boundaryField
{
    inlet
    {
        type            calculated;
        value           nonuniform List<scalar> 
25
(
9.15303e-12
8.61285e-12
6.9046e-12
4.52821e-12
2.22602e-12
6.16536e-13
2.52761e-13
1.26858e-12
3.3588e-12
2.94868e-12
1.41473e-11
5.10634e-11
1.49382e-10
3.37393e-10
6.44027e-10
1.09978e-09
1.73756e-09
2.58727e-09
3.67154e-09
4.99927e-09
6.55598e-09
8.28414e-09
1.00811e-08
1.18003e-08
1.33566e-08
)
;
    }
    outlet
    {
        type            calculated;
        value           nonuniform List<scalar> 0();
    }
    walls
    {
        type            calculated;
        value           nonuniform List<scalar> 0();
    }
    frontAndBack
    {
        type            empty;
    }
    procBoundary4to0
    {
        type            processor;
        value           nonuniform List<scalar> 
72
(
0.000197875
0.000142638
0.000104215
7.69961e-05
5.74538e-05
4.32425e-05
3.27917e-05
2.50316e-05
1.92212e-05
1.4837e-05
1.1506e-05
8.95967e-06
7.00265e-06
5.49123e-06
4.31893e-06
3.40597e-06
2.69234e-06
2.13281e-06
1.69288e-06
1.346e-06
1.07186e-06
8.54762e-07
8.54762e-07
6.59187e-07
5.26872e-07
4.21547e-07
3.37584e-07
2.70558e-07
2.16996e-07
1.74144e-07
1.39824e-07
1.12316e-07
9.02497e-08
7.25372e-08
5.83105e-08
4.68772e-08
3.7685e-08
3.0292e-08
2.43443e-08
1.95583e-08
1.57066e-08
1.26065e-08
1.01116e-08
8.10403e-09
6.48889e-09
5.18992e-09
4.14569e-09
3.30669e-09
2.63305e-09
2.09265e-09
1.65956e-09
1.31288e-09
1.03573e-09
8.14531e-10
6.38374e-10
4.98461e-10
3.87608e-10
3.0011e-10
2.3226e-10
1.83905e-10
1.49595e-10
1.21297e-10
9.65155e-11
7.55774e-11
5.81598e-11
4.4033e-11
3.28514e-11
2.41405e-11
1.74975e-11
1.29105e-11
1.04633e-11
9.42349e-12
)
;
    }
    procBoundary4to5
    {
        type            processor;
        value           nonuniform List<scalar> 
95
(
0.000282829
0.000286061
0.000288088
0.000208083
0.000208083
0.000207795
0.000152072
0.000152072
0.000150546
0.000111884
0.000111884
8.41485e-05
8.41485e-05
6.40111e-05
4.98487e-05
4.98487e-05
3.86404e-05
3.86404e-05
3.01639e-05
2.39564e-05
2.39564e-05
1.89447e-05
1.51631e-05
1.51631e-05
1.21173e-05
9.75569e-06
9.75569e-06
7.86129e-06
6.35805e-06
5.14211e-06
5.14211e-06
4.18551e-06
3.3955e-06
2.75356e-06
2.75356e-06
2.25747e-06
1.8343e-06
1.48956e-06
1.48956e-06
1.22712e-06
9.97527e-07
8.10195e-07
8.10195e-07
6.69314e-07
5.43728e-07
4.41292e-07
3.57832e-07
2.89906e-07
2.89906e-07
2.3982e-07
1.94157e-07
1.57044e-07
1.26925e-07
1.02506e-07
1.02506e-07
8.45491e-08
6.82109e-08
5.49999e-08
4.43268e-08
3.57137e-08
3.57137e-08
2.9295e-08
2.35893e-08
1.89956e-08
1.52995e-08
1.23267e-08
9.93645e-09
8.01507e-09
8.01507e-09
6.54292e-09
5.28516e-09
4.27395e-09
3.45902e-09
2.79967e-09
2.26479e-09
1.83196e-09
1.48364e-09
1.48364e-09
1.20812e-09
9.83021e-10
8.04036e-10
6.75456e-10
5.79517e-10
4.95759e-10
4.19856e-10
3.55069e-10
2.91065e-10
2.53288e-10
2.53288e-10
1.82921e-10
2.05192e-10
1.27067e-10
2.92414e-10
3.48562e-10
7.47595e-10
)
;
    }
}


// ************************************************************************* //
