/*--------------------------------*- C++ -*----------------------------------*\
| =========                 |                                                 |
| \\      /  F ield         | OpenFOAM: The Open Source CFD Toolbox           |
|  \\    /   O peration     | Version:  2506                                  |
|   \\  /    A nd           | Website:  www.openfoam.com                      |
|    \\/     M anipulation  |                                                 |
\*---------------------------------------------------------------------------*/
FoamFile
{
    version     2.0;
    format      ascii;
    arch        "LSB;label=32;scalar=64";
    class       volVectorField;
    location    "450";
    object      U;
}
// * * * * * * * * * * * * * * * * * * * * * * * * * * * * * * * * * * * * * //

dimensions      [0 1 -1 0 0 0 0];

internalField   nonuniform List<vector> 
1340
(
(18.5696 14.7731 -5.32987e-19)
(19.3777 15.468 1.84332e-17)
(20.2844 16.1307 -1.85449e-17)
(19.2327 14.0588 1.40835e-17)
(19.986 14.6961 -3.90047e-18)
(20.8283 15.3041 1.82319e-17)
(21.7225 15.8362 -9.96949e-17)
(22.7075 16.3086 1.14622e-17)
(19.8238 13.4103 1.20228e-17)
(20.5292 13.9963 -1.90871e-17)
(21.3156 14.555 -1.78538e-17)
(22.1462 15.0434 1.25253e-17)
(23.0596 15.4781 3.23901e-17)
(24.0292 15.8384 -1.42083e-16)
(25.0357 16.108 -5.85424e-17)
(20.3529 12.8178 -1.83013e-17)
(21.0158 13.3579 -5.358e-17)
(21.7528 13.8722 9.37816e-18)
(22.5277 14.321 -3.2385e-18)
(23.3781 14.7209 -9.54699e-17)
(24.2786 15.0532 1.93472e-16)
(25.2108 15.3032 -3.20928e-16)
(26.1788 15.4683 1.02747e-15)
(20.8285 12.2737 2.68859e-17)
(21.4536 12.7722 1.42214e-17)
(22.1466 13.2463 1.96715e-17)
(22.872 13.6588 3.29171e-17)
(23.6666 14.0268 -5.55744e-17)
(24.5059 14.3326 9.19304e-17)
(25.3724 14.5633 4.30729e-16)
(26.2708 14.7172 -5.7396e-16)
(27.1884 14.7878 -2.69484e-16)
(21.2577 11.7716 3.84403e-18)
(21.8486 12.2324 -5.91401e-19)
(22.5021 12.6697 -1.38551e-17)
(23.1832 13.0494 1.45995e-18)
(23.9279 13.3878 8.65767e-17)
(24.7125 13.6687 -1.90612e-16)
(25.5203 13.8808 -3.65093e-17)
(26.3563 14.023 -1.53802e-16)
(27.2089 14.0897 -1.7847e-16)
(21.6463 11.3063 -5.46189e-17)
(22.2061 11.7327 5.05438e-17)
(22.8236 12.1366 -1.33074e-18)
(23.4648 12.4861 4.56074e-18)
(24.1645 12.7971 1.61171e-16)
(24.9 13.0548 -9.25554e-17)
(25.655 13.2491 -4.56488e-16)
(26.435 13.3793 7.12014e-16)
(27.229 13.4408 4.9362e-16)
(28.0321 13.4298 -3.85643e-16)
(21.9991 10.8736 2.41811e-17)
(22.5303 11.2686 3.24936e-18)
(23.115 11.6419 6.90325e-18)
(23.7199 11.9637 3.33177e-17)
(24.3789 12.2494 -1.6693e-16)
(25.0698 12.4855 4.56032e-16)
(25.7771 12.6627 3.0321e-16)
(26.5063 12.7811 -4.36059e-16)
(27.2473 12.8366 -3.16746e-16)
(27.9957 12.8262 2.6255e-16)
(28.7518 12.7468 9.45777e-17)
(22.3201 10.4702 -2.1536e-17)
(22.8249 10.8363 -8.36889e-18)
(23.3794 11.1814 -1.85473e-18)
(23.9512 11.4777 -1.01404e-17)
(24.5729 11.74 -4.68076e-17)
(25.2232 11.9559 -6.65278e-16)
(25.8872 12.1171 -1.93101e-16)
(26.5704 12.2239 -1.64251e-16)
(27.2631 12.2731 1.61124e-16)
(27.9615 12.262 1.61021e-16)
(28.6667 12.1881 2.02744e-16)
(22.6129 10.0928 2.39346e-17)
(23.0932 10.4324 4.57964e-17)
(23.6198 10.7516 4.00139e-18)
(24.1611 11.0244 2.23789e-17)
(24.7485 11.2651 1.29373e-16)
(25.3617 11.4621 1.5627e-16)
(25.986 11.6082 1.9918e-16)
(26.6271 11.7038 1.81891e-16)
(27.2758 11.7464 -3.05759e-16)
(27.9286 11.7338 -1.97003e-17)
(28.5871 11.6638 -1.04063e-16)
(29.2468 11.5338 2.06619e-16)
(22.8803 9.73919 -5.21546e-18)
(23.3378 10.0543 -3.6654e-17)
(23.8384 10.3495 5.57919e-18)
(24.3515 10.6006 1.73807e-17)
(24.9074 10.8212 -5.29343e-17)
(25.4863 11.0007 5.74925e-17)
(26.0743 11.1326 -3.54735e-16)
(26.6768 11.2176 3.11637e-16)
(27.2851 11.2535 6.45109e-17)
(27.8961 11.2388 1.49208e-16)
(28.5116 11.1716 -1.46862e-16)
(29.1278 11.0496 3.20613e-16)
(23.1249 9.40705 -4.01781e-17)
(23.5611 9.69946 1.76498e-17)
(24.0375 9.97245 -1.4305e-17)
(24.5243 10.2036 -4.3466e-18)
(25.051 10.4056 7.36631e-17)
(25.5983 10.5688 9.5919e-17)
(26.1528 10.6874 -1.39313e-16)
(26.7197 10.7623 -1.29278e-16)
(27.2909 10.7917 2.11433e-16)
(27.8635 10.7744 -7.55493e-16)
(28.4394 10.709 1.09636e-15)
(29.0153 10.5935 -1.20749e-15)
(29.59 10.4249 1.08444e-15)
(23.3491 9.09452 9.70268e-20)
(23.7652 9.36591 -1.42167e-17)
(24.2188 9.61836 9.39612e-18)
(24.6812 9.83097 -8.91256e-18)
(25.1807 10.0157 -1.42533e-17)
(25.6986 10.1638 -1.35496e-16)
(26.222 10.2699 -2.85097e-16)
(26.7561 10.3352 -1.74079e-16)
(27.293 10.3583 2.1643e-16)
(27.8302 10.3383 5.33589e-17)
(28.3696 10.274 -1.11763e-16)
(28.9084 10.1639 4.20874e-16)
(29.4456 10.0051 -1.17305e-15)
(23.5546 8.80002 4.98054e-18)
(23.9518 9.05187 -4.36666e-17)
(24.3841 9.28527 -8.87535e-19)
(24.8236 9.4807 2.52969e-17)
(25.2976 9.64947 6.45993e-17)
(25.7882 9.78346 -1.3661e-16)
(26.2828 9.87798 3.12452e-16)
(26.7865 9.93426 1.30791e-16)
(27.2916 9.95124 -6.4819e-16)
(27.796 9.92835 3.15445e-16)
(28.3017 9.8647 -1.04911e-15)
(28.806 9.75895 6.25226e-16)
(29.3084 9.60876 5.36331e-17)
(29.8078 9.41135 -1.81512e-16)
(23.7433 8.52209 2.52921e-17)
(24.1225 8.75579 -1.59052e-17)
(24.5347 8.97152 2.83355e-18)
(24.9528 9.15099 4.74256e-17)
(25.403 9.30493 1.31616e-16)
(25.8679 9.42583 -1.17891e-16)
(26.3357 9.50957 3.3768e-16)
(26.811 9.55738 1.84963e-16)
(27.2868 9.56859 6.60736e-16)
(27.7608 9.54281 2.09147e-16)
(28.2351 9.47941 1.18733e-15)
(28.7074 9.37731 -4.11959e-16)
(29.1775 9.23449 1.93303e-15)
(29.6445 9.04842 -4.02869e-16)
(23.9166 8.2595 -1.81832e-17)
(24.2789 8.47632 1.74166e-17)
(24.672 8.67556 -1.01158e-17)
(25.0698 8.84025 9.03047e-17)
(25.4976 8.98042 -1.75456e-16)
(25.9386 9.08917 3.52417e-16)
(26.3813 9.16285 -3.81432e-16)
(26.8302 9.2028 7.76328e-17)
(27.2786 9.20854 -5.18376e-16)
(27.7243 9.17997 4.12072e-16)
(28.1696 9.11657 3.99563e-16)
(28.6122 9.01754 -7.37251e-16)
(29.0522 8.88112 -1.62965e-15)
(29.489 8.70506 -1.26798e-15)
(24.0758 8.01112 1.97295e-17)
(24.422 8.21224 -3.67104e-18)
(24.7971 8.39613 -1.00489e-17)
(25.1759 8.5471 -3.2418e-17)
(25.5826 8.67447 9.69946e-17)
(26.001 8.77192 1.68956e-16)
(26.4202 8.8363 1.82846e-16)
(26.8444 8.86891 6.23688e-17)
(27.2672 8.86954 -2.4146e-17)
(27.6866 8.83824 -8.90403e-18)
(28.1048 8.77467 -8.17296e-16)
(28.5198 8.6783 -1.68955e-16)
(28.9318 8.54753 4.1114e-16)
(29.3404 8.38041 3.16792e-16)
(29.7435 8.17468 1.83208e-15)
(24.2223 7.77598 2.30353e-17)
(24.5531 7.96245 2.22942e-17)
(24.9111 8.13207 1.60407e-17)
(25.2718 8.27027 -9.4345e-17)
(25.6586 8.38578 -1.91633e-17)
(26.0558 8.47276 -3.06546e-16)
(26.4528 8.52851 -3.08372e-16)
(26.8539 8.55429 -3.09875e-16)
(27.2528 8.55016 -5.52784e-16)
(27.6477 8.5163 1.96854e-16)
(28.0406 8.4525 3.68733e-16)
(28.4299 8.35839 5.66034e-16)
(28.8158 8.23266 -6.70741e-16)
(29.198 8.0735 -2.87276e-16)
(29.5749 7.87893 -7.75402e-16)
(24.357 7.55319 -4.66348e-17)
(24.6732 7.72598 -7.35405e-18)
(25.0149 7.8823 -3.21806e-17)
(25.3585 8.00865 -3.17357e-18)
(25.7264 8.11312 6.8917e-17)
(26.1036 8.19042 3.93774e-17)
(26.4798 8.23818 4.29372e-16)
(26.8592 8.25765 -1.44266e-16)
(27.2356 8.2491 6.35272e-16)
(27.6076 8.21285 -1.65371e-16)
(27.977 8.14877 3.16745e-16)
(28.3422 8.05671 8.62078e-18)
(28.7037 7.93549 9.52165e-16)
(29.0613 7.78354 6.01568e-16)
(29.4137 7.59909 -6.30445e-16)
(24.4809 7.34195 1.21132e-17)
(24.7832 7.50196 -8.7495e-18)
(25.1093 7.6459 3.57398e-17)
(25.4367 7.76125 2.1979e-17)
(25.7867 7.85548 -1.41663e-16)
(26.145 7.92382 1.89934e-16)
(26.5016 7.96418 9.98921e-18)
(26.8605 7.97785 -5.47563e-16)
(27.2159 7.96522 -5.36298e-16)
(27.5663 7.92676 6.39665e-16)
(27.9137 7.86242 -3.32874e-16)
(28.2565 7.7722 -2.54655e-16)
(28.5952 7.65509 6.68156e-16)
(28.9298 7.50969 -8.26241e-16)
(29.2592 7.33443 7.98273e-16)
(29.5818 7.12756 -7.94331e-16)
(24.595 7.14152 4.27147e-18)
(24.8838 7.28962 2.03143e-18)
(25.1952 7.42202 1.55803e-17)
(25.5071 7.52713 -1.14705e-17)
(25.8401 7.61188 9.85262e-17)
(26.1804 7.67191 -2.93532e-16)
(26.5185 7.70546 -2.68931e-16)
(26.8581 7.71379 9.72782e-16)
(27.1938 7.69744 -1.15088e-16)
(27.524 7.65696 -7.19682e-17)
(27.8507 7.59241 -7.05574e-16)
(28.1725 7.50388 -4.51299e-16)
(28.4899 7.39054 -1.12462e-15)
(28.8031 7.25114 3.13664e-16)
(29.111 7.08432 5.00857e-16)
(29.4122 6.88846 -1.09466e-15)
(24.6999 6.95126 1.20237e-17)
(24.976 7.08824 1.78892e-17)
(25.2731 7.20988 4.58962e-18)
(25.5703 7.30548 -8.02223e-17)
(25.8872 7.38143 -3.7844e-17)
(26.2105 7.43378 1.40076e-16)
(26.531 7.46107 4.08592e-16)
(26.8525 7.46451 4.66559e-17)
(27.1695 7.44477 -4.83194e-16)
(27.4807 7.40248 2.69666e-16)
(27.7881 7.33778 5.28717e-16)
(28.0902 7.25085 1.35038e-15)
(28.3877 7.14101 -6.80743e-16)
(28.6808 7.00715 -9.19839e-16)
(28.9685 6.84808 2.35341e-16)
(29.2497 6.66234 2.07112e-16)
(24.5707 6.64064 -7.58583e-19)
(24.7964 6.77057 7.09339e-18)
(25.0602 6.89715 -9.53088e-18)
(25.3438 7.00878 1.99865e-17)
(25.627 7.09555 -9.86322e-17)
(25.9286 7.16335 2.05983e-16)
(26.2357 7.20862 -5.32669e-18)
(26.5396 7.23016 8.22091e-17)
(26.8438 7.22913 -2.83172e-16)
(27.1433 7.20631 -2.44821e-16)
(27.4367 7.16243 -3.56382e-16)
(27.7258 7.09766 -1.88567e-17)
(28.0095 7.01228 -6.83563e-17)
(28.2883 6.90572 1.5221e-16)
(28.5626 6.77701 1.10768e-15)
(28.8314 6.62511 1.37905e-16)
(29.0939 6.44872 -1.2198e-15)
(29.3482 6.24661 -1.69334e-16)
(24.6693 6.47829 6.29377e-18)
(24.8851 6.59889 -2.18393e-17)
(25.1372 6.71578 3.06636e-18)
(25.4079 6.81807 -2.46504e-17)
(25.6777 6.89665 4.73368e-17)
(25.9646 6.95691 -1.44318e-16)
(26.2563 6.99565 -1.01664e-16)
(26.5445 7.01191 -4.53674e-16)
(26.8324 7.00682 4.12016e-16)
(27.1153 6.98126 4.2601e-17)
(27.3919 6.93598 -2.65085e-16)
(27.6639 6.87123 6.41107e-16)
(27.9303 6.78737 -9.72687e-17)
(28.1916 6.68391 -9.07907e-18)
(28.4482 6.56002 -6.589e-16)
(28.6994 6.41479 -6.40008e-16)
(28.9443 6.24707 1.14781e-15)
(29.1813 6.05576 7.34857e-16)
(24.7603 6.32385 -2.71644e-18)
(24.9667 6.43573 1.01531e-18)
(25.2076 6.54356 7.20146e-18)
(25.4658 6.63716 -5.32238e-17)
(25.7228 6.70813 -2.90725e-17)
(25.9958 6.76142 -6.69417e-17)
(26.2729 6.79415 4.64341e-17)
(26.5461 6.80559 -1.03657e-16)
(26.8186 6.79682 -6.87559e-17)
(27.0858 6.76881 1.54867e-16)
(27.3465 6.72235 5.70221e-16)
(27.6025 6.65773 -5.82238e-16)
(27.8526 6.57538 5.05168e-17)
(28.0975 6.47489 -3.45171e-16)
(28.3375 6.35553 5.01651e-16)
(28.5721 6.21654 1.31903e-15)
(28.8005 6.05688 -7.56041e-16)
(29.0214 5.87559 -1.70474e-15)
(24.8444 6.17689 -3.84281e-18)
(25.0417 6.28062 1.73323e-17)
(25.2717 6.38 -7.62552e-18)
(25.5181 6.46549 1.49723e-17)
(25.7628 6.52943 6.44712e-17)
(26.0225 6.57627 2.35235e-16)
(26.2856 6.60348 1.18809e-16)
(26.5446 6.61054 -9.0485e-16)
(26.8025 6.59845 -1.1656e-16)
(27.0549 6.56826 1.89286e-16)
(27.3007 6.52082 1.03781e-16)
(27.5415 6.45644 -3.25732e-16)
(27.7763 6.37559 -3.56161e-16)
(28.0058 6.27795 7.30113e-16)
(28.2303 6.1629 -2.96445e-16)
(28.4494 6.02977 8.2001e-16)
(28.6623 5.87766 2.34091e-16)
(28.868 5.70571 9.4161e-16)
(29.0644 5.51338 -8.78339e-16)
(24.922 6.03703 -6.46771e-18)
(25.1106 6.13313 -7.22981e-18)
(25.3302 6.22462 -8.98139e-18)
(25.5652 6.30258 -3.03035e-17)
(25.7982 6.35998 -7.49509e-17)
(26.0451 6.40089 -2.64759e-16)
(26.295 6.42305 -5.77433e-17)
(26.5405 6.42612 2.87024e-16)
(26.7845 6.41104 4.54475e-16)
(27.0228 6.37895 1.68376e-16)
(27.2545 6.33074 -2.63682e-16)
(27.481 6.26669 7.72782e-16)
(27.7015 6.18736 7.83866e-19)
(27.9165 6.09249 5.50074e-16)
(28.1265 5.98155 1.8528e-16)
(28.3309 5.85395 -1.04837e-16)
(28.5294 5.7089 -1.36578e-15)
(28.7208 5.54568 -1.87801e-15)
(28.9034 5.36383 1.17563e-15)
(24.9936 5.9039 1.19164e-18)
(25.1738 5.99287 6.04994e-18)
(25.3835 6.07699 2.64655e-18)
(25.6075 6.14795 -3.7928e-17)
(25.8293 6.1993 1.18062e-16)
(26.0641 6.23475 -1.90994e-16)
(26.3012 6.25228 8.33529e-16)
(26.5339 6.25172 -3.18549e-17)
(26.7647 6.23398 1.47926e-16)
(26.9897 6.20026 -9.97446e-16)
(27.208 6.15145 3.23948e-16)
(27.4211 6.08785 -9.84304e-17)
(27.628 6.01007 -6.15803e-19)
(27.8294 5.9179 -4.57993e-16)
(28.0258 5.81088 9.0627e-16)
(28.2166 5.68853 5.04432e-16)
(28.4015 5.55014 -5.7744e-16)
(28.5795 5.39511 8.36183e-16)
(28.7491 5.22305 -1.28422e-15)
(25.0597 5.77714 -2.10437e-18)
(25.2318 5.85946 -1.1205e-17)
(25.4319 5.93671 7.99126e-19)
(25.6454 6.00116 5.0862e-17)
(25.8565 6.04693 -1.74285e-16)
(26.0796 6.07734 4.67038e-17)
(26.3047 6.09065 -6.42198e-17)
(26.5251 6.08682 -6.57196e-17)
(26.7434 6.06673 1.43059e-16)
(26.9558 6.03161 6.35421e-16)
(27.1615 5.98237 8.07494e-17)
(27.3618 5.91934 -6.0001e-17)
(27.556 5.84312 -3.59305e-16)
(27.7447 5.7536 -7.39267e-16)
(27.9282 5.65036 4.39709e-16)
(28.1062 5.533 -5.74352e-16)
(28.2785 5.40091 -6.62657e-17)
(28.4439 5.25357 3.95611e-16)
(28.6014 5.09068 9.89075e-16)
(25.1207 5.65646 5.01567e-18)
(25.285 5.73254 6.6366e-18)
(25.4758 5.8034 2.15118e-18)
(25.6793 5.86181 -4.04497e-18)
(25.8801 5.90241 4.18129e-17)
(26.0921 5.9282 9.82966e-17)
(26.3056 5.93766 -5.65134e-17)
(26.5143 5.9309 -3.83741e-16)
(26.7207 5.90874 2.49136e-16)
(26.9212 5.87244 -9.46037e-16)
(27.1149 5.82295 5.32486e-16)
(27.3033 5.76058 -4.58337e-16)
(27.4855 5.68598 -3.59599e-16)
(27.6621 5.59905 -1.09992e-15)
(27.8336 5.49945 3.78207e-16)
(27.9997 5.38686 -1.06348e-15)
(28.16 5.26074 1.43431e-16)
(28.3138 5.12065 1.10987e-16)
(28.4598 4.96637 5.00457e-16)
(25.1769 5.54154 -5.31955e-18)
(25.3337 5.61182 1.11635e-18)
(25.5157 5.67671 2.45014e-18)
(25.7094 5.72951 -5.55322e-17)
(25.9004 5.76535 4.85358e-18)
(26.1017 5.78691 7.93677e-17)
(26.3042 5.79287 1.33898e-16)
(26.5018 5.78349 4.9835e-16)
(26.6969 5.75953 -7.29413e-16)
(26.8861 5.72227 3.38783e-16)
(27.0685 5.67268 -3.30041e-16)
(27.2455 5.61106 8.55265e-16)
(27.4164 5.5381 7.21203e-16)
(27.5817 5.45373 1.12848e-15)
(27.7419 5.35766 7.69199e-16)
(27.8968 5.24963 9.45737e-16)
(28.0459 5.12918 -2.35611e-16)
(28.1887 4.99595 1.13405e-16)
(28.3241 4.84977 -1.39028e-16)
(28.4505 4.69084 -3.9018e-16)
(25.2287 5.43212 -8.3292e-18)
(25.3783 5.49697 2.1614e-17)
(25.5517 5.55631 -2.32221e-18)
(25.7361 5.60392 3.61053e-17)
(25.9176 5.63536 1.37857e-16)
(26.1088 5.65304 -2.86697e-16)
(26.3008 5.65585 2.08357e-17)
(26.4878 5.64412 5.37285e-16)
(26.6721 5.6186 -1.31501e-16)
(26.8505 5.58059 -2.88239e-16)
(27.0222 5.53104 7.64962e-16)
(27.1885 5.47028 -2.50314e-16)
(27.3488 5.39898 -8.38033e-17)
(27.5035 5.31714 -7.55037e-16)
(27.6531 5.2245 3.26543e-16)
(27.7974 5.12084 -1.03818e-15)
(27.9361 5.00579 -1.04153e-15)
(28.0687 4.87905 5.98404e-16)
(28.1941 4.74052 -2.65171e-16)
(28.311 4.59042 -5.54827e-16)
(25.2764 5.32793 -5.23067e-18)
(25.419 5.3877 -1.90151e-18)
(25.5842 5.44189 -3.69728e-17)
(25.7597 5.48468 3.00325e-17)
(25.9322 5.51209 -6.40202e-17)
(26.1135 5.52623 2.8823e-16)
(26.2954 5.52618 2.70326e-17)
(26.4724 5.51238 -3.11946e-16)
(26.6465 5.48553 5.02105e-16)
(26.8146 5.44695 -6.93923e-16)
(26.9762 5.39759 -3.81256e-16)
(27.1324 5.33776 2.63952e-16)
(27.2826 5.26817 -3.86517e-16)
(27.4273 5.18882 -3.0893e-16)
(27.567 5.0995 -4.02213e-16)
(27.7015 5.00005 -1.76042e-16)
(27.8304 4.89016 2.33192e-16)
(27.9534 4.76958 -9.79899e-16)
(28.0695 4.63826 -1.13535e-17)
(28.1775 4.49648 2.49578e-16)
(25.3203 5.22872 -9.87315e-18)
(25.4562 5.28377 1.67657e-18)
(25.6135 5.33316 1.45685e-17)
(25.7804 5.37149 4.84388e-17)
(25.9442 5.39519 -1.70414e-16)
(26.1162 5.40611 7.69162e-17)
(26.2885 5.40349 -3.93675e-17)
(26.4558 5.38787 -5.41444e-16)
(26.6201 5.3599 3.53259e-16)
(26.7786 5.32092 3.05232e-16)
(26.9306 5.27186 4.87881e-16)
(27.0772 5.21305 -4.29741e-16)
(27.218 5.14519 -3.37264e-17)
(27.3533 5.0683 6.56667e-16)
(27.4837 4.98222 2.65235e-16)
(27.6088 4.88683 -5.32141e-16)
(27.7287 4.78187 3.69467e-16)
(27.8428 4.66714 1.40584e-15)
(27.9502 4.54264 -3.63544e-17)
(28.0499 4.40869 3.22934e-16)
(25.3607 5.13426 1.22448e-17)
(25.4901 5.1849 -5.50618e-18)
(25.6398 5.22984 -2.29036e-17)
(25.7984 5.26406 -4.09779e-17)
(25.9539 5.28435 1.5142e-16)
(26.1169 5.29234 9.4997e-17)
(26.28 5.28742 5.30542e-17)
(26.4381 5.2702 1.04449e-16)
(26.5932 5.24131 -5.85717e-16)
(26.7425 5.20208 -4.08028e-16)
(26.8854 5.15345 -4.1126e-16)
(27.023 5.09573 8.41954e-16)
(27.1549 5.02961 -2.18221e-16)
(27.2814 4.95517 -3.57219e-16)
(27.4029 4.87224 -9.039e-16)
(27.5195 4.78077 6.9872e-16)
(27.6308 4.68051 5.09392e-16)
(27.7365 4.57135 -1.92433e-16)
(27.8359 4.45332 -7.77209e-16)
(27.9278 4.32675 2.60258e-16)
(25.3978 5.04433 -2.63137e-18)
(25.521 5.09087 -4.85091e-18)
(25.6633 5.13167 3.02547e-17)
(25.814 5.16209 -2.95426e-18)
(25.9615 5.17926 -3.73707e-17)
(26.116 5.18459 1.12116e-16)
(26.2703 5.17762 -5.97935e-16)
(26.4196 5.15903 5.73084e-17)
(26.5659 5.1294 1.85393e-16)
(26.7065 5.09007 5.07885e-16)
(26.8407 5.04196 3.33989e-16)
(26.9698 4.98539 -4.24884e-17)
(27.0932 4.92105 -6.98818e-16)
(27.2114 4.849 4.80433e-16)
(27.3248 4.76915 3.52395e-16)
(27.4332 4.68145 4.16336e-16)
(27.5366 4.58572 -3.79227e-16)
(27.6345 4.48185 -1.22572e-15)
(27.7264 4.36994 3.73211e-16)
(27.8112 4.25034 -6.01814e-17)
(27.8878 4.12391 -1.13195e-16)
(25.4319 4.95873 6.82789e-19)
(25.5491 5.00144 4.87499e-18)
(25.6844 5.0384 -4.64687e-18)
(25.8274 5.06533 6.85564e-18)
(25.9672 5.07964 -6.357e-17)
(26.1135 5.08257 -3.58951e-17)
(26.2594 5.07378 1.79314e-16)
(26.4003 5.05401 -6.09434e-17)
(26.5382 5.02381 5.27195e-17)
(26.6705 4.9845 1.2961e-16)
(26.7966 4.93702 -1.29594e-16)
(26.9177 4.88164 -2.4014e-16)
(27.0331 4.81908 -1.71289e-16)
(27.1435 4.74942 -5.18825e-16)
(27.2492 4.67257 3.3919e-16)
(27.35 4.58851 4.64254e-16)
(27.446 4.49711 3.29406e-16)
(27.5367 4.39829 7.54735e-16)
(27.6215 4.29219 -2.34436e-16)
(27.6996 4.17916 3.55221e-16)
(27.7701 4.06008 -4.78256e-16)
(25.4632 4.87725 -4.26273e-19)
(25.5746 4.91641 -3.77665e-18)
(25.7031 4.94982 3.91783e-18)
(25.8387 4.97351 1.8773e-17)
(25.9712 4.98522 -1.53588e-16)
(26.1096 4.98598 2.77031e-16)
(26.2474 4.97558 -2.47562e-16)
(26.3804 4.95481 1.92463e-16)
(26.5103 4.92419 5.70984e-17)
(26.6347 4.88503 1.17145e-16)
(26.7531 4.83825 1.55246e-16)
(26.8666 4.78413 8.00259e-16)
(26.9746 4.72337 -4.13613e-16)
(27.0776 4.65605 5.85528e-16)
(27.1761 4.58211 -8.65071e-16)
(27.2698 4.50158 -3.77465e-16)
(27.3588 4.41432 2.94063e-16)
(27.4427 4.32033 -9.83122e-16)
(27.5211 4.21972 4.70449e-16)
(27.5931 4.11291 -4.14952e-16)
(27.6578 4.00074 -2.90822e-16)
(25.4919 4.79972 -4.6965e-18)
(25.5978 4.83556 -7.6937e-19)
(25.7196 4.86568 2.07988e-17)
(25.8482 4.88641 1.00435e-16)
(25.9736 4.89575 -3.19962e-17)
(26.1044 4.89456 -1.40484e-16)
(26.2346 4.88275 6.87071e-16)
(26.36 4.86115 -3.85131e-16)
(26.4823 4.83024 -1.1632e-16)
(26.5992 4.79134 6.68922e-16)
(26.7103 4.74533 -1.32322e-15)
(26.8165 4.6925 1.53149e-15)
(26.9175 4.63353 -2.2048e-16)
(27.0137 4.56853 -4.07426e-16)
(27.1053 4.49743 -8.58205e-16)
(27.1925 4.42029 -1.71214e-16)
(27.275 4.33701 1.84255e-16)
(27.3526 4.24761 -5.92093e-16)
(27.4249 4.15223 1.11116e-15)
(27.4912 4.05129 -6.7419e-16)
(27.5506 3.94562 2.79813e-16)
(25.5182 4.72594 -1.28415e-18)
(25.6187 4.75871 3.29304e-18)
(25.7342 4.78579 -2.60111e-17)
(25.856 4.8038 -4.35709e-18)
(25.9745 4.81097 -5.92313e-17)
(26.0982 4.80804 -1.66642e-16)
(26.221 4.795 -5.21184e-16)
(26.3391 4.77272 1.36838e-16)
(26.4542 4.74165 -4.52243e-16)
(26.564 4.7031 -3.34162e-17)
(26.6682 4.65794 -5.91931e-16)
(26.7676 4.60643 -6.00841e-16)
(26.862 4.54925 1.09407e-15)
(26.9516 4.48651 6.05384e-16)
(27.037 4.41818 -1.53532e-16)
(27.1179 4.34432 1.23527e-15)
(27.1944 4.26486 5.55012e-16)
(27.2662 4.17983 3.95574e-16)
(27.3329 4.08942 -1.40862e-16)
(27.3939 3.99402 -4.891e-16)
(27.4484 3.89447 7.07333e-17)
(25.5423 4.65577 2.32176e-19)
(25.6375 4.68568 -2.5568e-19)
(25.7469 4.70995 3.80699e-18)
(25.8622 4.72545 -5.88592e-17)
(25.9742 4.73067 -7.83233e-17)
(26.0909 4.72618 1.61819e-16)
(26.2067 4.71208 1.14882e-16)
(26.3179 4.68925 9.1793e-17)
(26.4261 4.65814 -1.03014e-16)
(26.5291 4.62002 -7.41998e-16)
(26.6268 4.57575 7.49041e-16)
(26.7198 4.52559 1.83627e-16)
(26.8079 4.47019 -8.37947e-16)
(26.8915 4.40969 -2.341e-16)
(26.9709 4.34404 -1.96975e-16)
(27.046 4.27334 3.77747e-16)
(27.1169 4.19754 -7.55437e-16)
(27.1833 4.11669 4.09551e-16)
(27.2448 4.03097 3.49521e-16)
(27.3009 3.94081 1.23134e-16)
(27.3509 3.84702 3.69005e-16)
(27.3941 3.75111 2.97416e-16)
(25.5643 4.58902 -1.05954e-18)
(25.6545 4.61629 1.48798e-18)
(25.758 4.63796 1.63624e-17)
(25.867 4.65117 3.66619e-17)
(25.9727 4.65462 2.6322e-16)
(26.0828 4.64875 -2.97361e-17)
(26.1918 4.63373 -3.3186e-16)
(26.2964 4.61049 1.6949e-16)
(26.398 4.57943 3.09952e-16)
(26.4947 4.54182 4.64564e-16)
(26.5861 4.49849 7.84085e-16)
(26.6731 4.44969 9.63587e-16)
(26.7553 4.39606 -8.6475e-16)
(26.8332 4.33774 -4.22561e-17)
(26.907 4.27471 -5.26717e-16)
(26.9767 4.20705 -2.65115e-16)
(27.0424 4.13475 6.86477e-17)
(27.1037 4.05787 1.44267e-15)
(27.1604 3.97662 -1.13685e-15)
(27.212 3.89141 -5.79538e-16)
(27.2579 3.80303 4.95651e-16)
(27.2974 3.71294 -2.76481e-16)
(25.5844 4.52557 -1.51567e-18)
(25.6697 4.55037 -3.94126e-18)
(25.7676 4.56965 -2.01998e-17)
(25.8704 4.58077 -3.55898e-18)
(25.9702 4.58261 -2.77649e-17)
(26.0739 4.57552 1.2938e-16)
(26.1765 4.55973 1.74484e-16)
(26.2748 4.53618 1.33125e-16)
(26.3701 4.50527 -3.82288e-16)
(26.4607 4.46823 -2.02808e-16)
(26.5463 4.42587 -2.37064e-16)
(26.6275 4.37844 -3.16455e-16)
(26.7042 4.32657 1.05526e-15)
(26.7767 4.27038 -2.16181e-16)
(26.8453 4.20988 7.34614e-16)
(26.91 4.14516 -1.16055e-16)
(26.9708 4.07621 7.19828e-18)
(27.0274 4.00312 -9.50755e-16)
(27.0797 3.92609 1.58503e-15)
(27.1271 3.84555 -8.74143e-17)
(27.1692 3.76226 1.86152e-16)
(27.2053 3.67763 -1.84051e-16)
(25.6028 4.46525 2.23729e-18)
(25.6834 4.48777 -1.91694e-18)
(25.7757 4.50485 2.38186e-17)
(25.8727 4.51405 -6.60561e-17)
(25.9667 4.51445 1.02308e-16)
(26.0642 4.50628 -3.48843e-16)
(26.1607 4.48984 7.28735e-17)
(26.253 4.4661 -5.57361e-16)
(26.3424 4.43541 5.64157e-16)
(26.4272 4.399 -6.95625e-16)
(26.5072 4.35764 -4.45228e-16)
(26.583 4.31159 3.71227e-16)
(26.6545 4.26144 -7.31304e-16)
(26.722 4.20734 -3.60962e-16)
(26.7857 4.14928 -1.02026e-15)
(26.8457 4.08738 6.46336e-17)
(26.9019 4.02164 4.6349e-17)
(26.9542 3.95215 1.57966e-16)
(27.0024 3.87913 -4.37645e-16)
(27.046 3.803 -2.1539e-16)
(27.0846 3.72449 3.17482e-16)
(27.1176 3.64496 6.44746e-18)
(25.6195 4.40793 -7.28468e-19)
(25.6955 4.42834 -6.97396e-18)
(25.7826 4.44339 9.43916e-18)
(25.8739 4.45085 -2.92136e-17)
(25.9623 4.44995 -5.19901e-17)
(26.054 4.44083 1.86341e-18)
(26.1446 4.42387 -2.26699e-16)
(26.2311 4.40002 6.06448e-16)
(26.3148 4.36962 1.95604e-16)
(26.3942 4.33388 4.87004e-16)
(26.4689 4.29355 -3.89691e-16)
(26.5397 4.24887 4.00734e-16)
(26.6063 4.20042 -2.42339e-16)
(26.669 4.14835 1.56798e-15)
(26.7281 4.09265 3.56436e-16)
(26.7837 4.03346 5.75307e-16)
(26.8357 3.97078 5.47675e-17)
(26.884 3.90472 -5.04796e-16)
(26.9284 3.83549 3.92309e-16)
(26.9685 3.76351 4.47186e-18)
(27.0039 3.6895 -2.33171e-16)
(27.0341 3.61474 -2.25227e-16)
(25.6347 4.35348 -6.05564e-18)
(25.7063 4.37194 -3.2659e-18)
(25.7883 4.38512 5.11038e-17)
(25.8742 4.39099 1.16179e-16)
(25.9572 4.38893 1.8261e-17)
(26.0432 4.37899 -1.21149e-16)
(26.1281 4.3616 5.67594e-16)
(26.2092 4.33773 -5.96937e-16)
(26.2875 4.30769 -6.5317e-16)
(26.3617 4.27265 -2.46193e-16)
(26.4314 4.23336 5.50298e-16)
(26.4974 4.19004 8.08135e-17)
(26.5594 4.14326 5.00253e-16)
(26.6177 4.09316 -7.6968e-16)
(26.6725 4.03975 -9.49966e-16)
(26.724 3.98315 6.87347e-16)
(26.7721 3.92339 -1.30571e-15)
(26.8167 3.86058 3.63795e-16)
(26.8576 3.79495 -5.17984e-16)
(26.8944 3.72688 7.19503e-17)
(26.9268 3.65709 6.29058e-16)
(26.9544 3.58679 1.86328e-16)
(25.6484 4.30177 1.33394e-18)
(25.7158 4.31842 7.02746e-18)
(25.7929 4.32989 -6.2793e-17)
(25.8735 4.33432 -3.6797e-17)
(25.9514 4.33122 -1.04113e-16)
(26.032 4.32058 4.95395e-16)
(26.1115 4.30285 -1.01857e-16)
(26.1873 4.27903 -3.32023e-17)
(26.2605 4.2494 -9.86414e-17)
(26.3297 4.2151 7.93948e-16)
(26.3947 4.17686 -1.01815e-15)
(26.4562 4.13488 8.69556e-16)
(26.5138 4.08973 4.75421e-17)
(26.5679 4.04154 2.09872e-16)
(26.6188 3.99033 7.58983e-16)
(26.6665 3.93622 -5.37477e-16)
(26.7109 3.87924 1.00501e-15)
(26.7521 3.81952 -1.01585e-16)
(26.7897 3.75727 -4.55189e-16)
(26.8236 3.69289 1.27117e-16)
(26.8533 3.62705 -2.04342e-16)
(26.8786 3.56092 5.78285e-16)
(25.6609 4.25269 -3.31684e-18)
(25.7242 4.26767 -1.02562e-17)
(25.7965 4.27756 2.98085e-17)
(25.872 4.28068 -9.40222e-17)
(25.9449 4.27666 -1.78681e-17)
(26.0203 4.26542 -1.19484e-17)
(26.0946 4.24745 -6.21778e-16)
(26.1654 4.22374 5.90957e-16)
(26.2337 4.19455 -3.89396e-16)
(26.2983 4.16102 -8.31766e-16)
(26.3589 4.12383 4.2684e-16)
(26.416 4.08318 -9.50865e-16)
(26.4695 4.03962 7.28857e-16)
(26.5198 3.99328 -3.60525e-16)
(26.5669 3.94418 -1.29526e-15)
(26.611 3.89244 5.54417e-16)
(26.6521 3.83812 -7.22592e-17)
(26.6901 3.78132 -1.85463e-16)
(26.7247 3.72227 -1.82443e-16)
(26.7558 3.66135 1.42511e-16)
(26.7831 3.59921 -4.22805e-16)
(26.8062 3.53697 2.32544e-17)
(26.8249 3.47606 -1.31717e-16)
(25.6723 4.20611 2.33985e-18)
(25.7315 4.21954 -4.73842e-18)
(25.7991 4.228 2.53328e-17)
(25.8698 4.22993 1.04809e-16)
(25.9379 4.22509 -2.41439e-16)
(26.0083 4.21335 -1.32921e-16)
(26.0776 4.19521 5.1528e-16)
(26.1437 4.17167 -5.42323e-16)
(26.2073 4.14298 1.01594e-15)
(26.2674 4.11022 -7.3404e-16)
(26.3238 4.07408 -9.21659e-17)
(26.3769 4.03473 -6.74445e-16)
(26.4266 3.99272 -6.49453e-16)
(26.4732 3.94816 4.02741e-16)
(26.5168 3.90109 -1.18878e-16)
(26.5576 3.85162 -8.89131e-16)
(26.5955 3.79981 -4.9911e-16)
(26.6305 3.74578 5.55952e-16)
(26.6624 3.68974 -1.94886e-17)
(26.691 3.63207 -4.22386e-16)
(26.716 3.5734 3.94514e-16)
(26.7372 3.51479 2.3542e-16)
(26.7543 3.45759 4.4972e-17)
(25.6825 4.16194 1.76459e-18)
(25.7379 4.17394 2.54865e-18)
(25.801 4.18108 7.22402e-18)
(25.8668 4.18194 -9.32201e-17)
(25.9303 4.17639 1.34279e-16)
(25.996 4.16422 1.25895e-16)
(26.0605 4.14599 -6.29491e-16)
(26.122 4.12267 3.5348e-16)
(26.1812 4.0945 -4.70209e-16)
(26.2371 4.06253 7.7789e-16)
(26.2894 4.02743 1.23916e-16)
(26.3387 3.98936 5.42243e-16)
(26.3848 3.94884 7.92281e-17)
(26.428 3.906 -5.07566e-16)
(26.4684 3.86086 8.79707e-16)
(26.5061 3.81356 9.9142e-17)
(26.5411 3.76413 -4.25211e-16)
(26.5733 3.71271 7.17744e-16)
(26.6027 3.65951 2.32923e-16)
(26.629 3.60489 -5.53957e-16)
(26.6519 3.54946 9.80887e-17)
(26.6713 3.49423 2.56461e-17)
(26.687 3.44048 2.25713e-17)
(25.6917 4.12005 5.14395e-19)
(25.7433 4.13074 2.09229e-18)
(25.802 4.13667 3.81115e-17)
(25.8633 4.13657 -1.015e-16)
(25.9224 4.13039 -1.28917e-16)
(25.9834 4.11789 2.93274e-16)
(26.0434 4.09962 -8.97791e-17)
(26.1005 4.07657 4.6774e-16)
(26.1555 4.04894 4.96494e-16)
(26.2074 4.01778 -1.20086e-16)
(26.2559 3.9837 2.9132e-16)
(26.3016 3.94687 9.93152e-17)
(26.3443 3.9078 -4.83546e-16)
(26.3842 3.86661 7.86076e-16)
(26.4216 3.82333 -7.53087e-16)
(26.4564 3.77808 1.57406e-15)
(26.4887 3.73091 -7.14047e-16)
(26.5184 3.68195 -2.65118e-16)
(26.5454 3.63141 9.90065e-16)
(26.5695 3.57965 -1.1424e-16)
(26.5906 3.52725 4.51488e-17)
(26.6084 3.47516 -6.52133e-16)
(26.6227 3.4246 2.67174e-16)
(25.6999 4.08035 1.2119e-18)
(25.7479 4.08983 -3.01092e-18)
(25.8024 4.09467 -8.06532e-17)
(25.8592 4.0937 1.24807e-16)
(25.914 4.08698 7.30132e-17)
(25.9706 4.07421 1.11541e-16)
(26.0262 4.05597 -6.59254e-17)
(26.0791 4.03323 -7.84812e-17)
(26.1301 4.00617 -7.27046e-16)
(26.1782 3.97581 6.82116e-16)
(26.2231 3.94274 2.57856e-16)
(26.2654 3.90712 -4.06427e-17)
(26.3049 3.86945 -3.97281e-16)
(26.3418 3.82984 -5.2648e-16)
(26.3763 3.78832 8.91664e-16)
(26.4084 3.74501 -7.69276e-16)
(26.4382 3.69998 3.49731e-18)
(26.4656 3.65334 5.26095e-16)
(26.4904 3.6053 -2.02968e-16)
(26.5127 3.55621 5.37611e-16)
(26.532 3.50662 -3.41924e-16)
(26.5484 3.45745 -9.08098e-17)
(26.5615 3.40986 3.0572e-16)
(25.7073 4.04275 -3.98842e-18)
(25.7517 4.05111 8.51131e-18)
(25.8021 4.05495 2.39002e-17)
(25.8546 4.05321 4.94802e-17)
(25.9053 4.04604 -4.99286e-17)
(25.9575 4.03307 -1.50887e-16)
(26.009 4.01491 -2.70095e-17)
(26.058 3.99252 1.11799e-16)
(26.1051 3.96604 -4.60667e-17)
(26.1495 3.93648 -6.68775e-16)
(26.1911 3.9044 4.29596e-16)
(26.2302 3.86994 3.13233e-17)
(26.2667 3.83361 3.67404e-16)
(26.3007 3.79552 7.5622e-16)
(26.3326 3.75568 -8.78557e-16)
(26.3622 3.71423 1.29307e-15)
(26.3896 3.6712 -2.0034e-16)
(26.4149 3.62674 4.8607e-16)
(26.4378 3.58105 -4.87855e-16)
(26.4583 3.53445 -7.18858e-16)
(26.4761 3.48748 3.91819e-16)
(26.4911 3.44102 4.02478e-16)
(26.5032 3.39616 -2.45671e-16)
(25.7139 4.00714 1.8083e-18)
(25.7548 4.01447 4.50665e-19)
(25.8012 4.01741 1.34648e-17)
(25.8496 4.015 5.76702e-17)
(25.8962 4.00744 -2.07035e-16)
(25.9444 3.99434 2.859e-16)
(25.9918 3.97631 -1.96684e-16)
(26.037 3.95431 -1.60799e-16)
(26.0805 3.92841 1.21563e-16)
(26.1215 3.89967 2.98057e-17)
(26.1598 3.86854 -1.15561e-15)
(26.1958 3.8352 1.03997e-15)
(26.2295 3.80015 -4.84547e-16)
(26.261 3.76352 7.19806e-16)
(26.2903 3.72529 -2.13782e-16)
(26.3177 3.68557 -6.09635e-16)
(26.343 3.64444 -2.87137e-16)
(26.3663 3.60203 2.26085e-16)
(26.3875 3.55852 2.6661e-16)
(26.4064 3.51425 -1.35609e-16)
(26.4228 3.46972 1.94598e-16)
(26.4366 3.42576 -4.40278e-16)
(26.4477 3.38343 -1.56145e-16)
(25.7197 3.97344 -2.27567e-18)
(25.7573 3.97983 6.18646e-20)
(25.7998 3.98195 -1.23804e-17)
(25.8441 3.97894 -7.84851e-17)
(25.8869 3.97107 -3.8518e-18)
(25.9311 3.95789 -1.72239e-16)
(25.9747 3.94006 1.21657e-17)
(26.0162 3.91847 3.27736e-16)
(26.0562 3.89317 -2.05891e-16)
(26.094 3.86525 5.03087e-16)
(26.1292 3.83505 1.07292e-15)
(26.1624 3.80276 -1.54029e-15)
(26.1935 3.76897 3.69725e-16)
(26.2226 3.73374 -1.51238e-16)
(26.2497 3.69703 -6.77211e-17)
(26.275 3.65895 4.5531e-16)
(26.2984 3.6196 -3.34164e-16)
(26.3199 3.57909 1.41989e-16)
(26.3395 3.53762 -7.33418e-16)
(26.3569 3.4955 4.90382e-18)
(26.372 3.45322 8.47899e-17)
(26.3848 3.41158 1.69626e-16)
(26.3951 3.37158 -4.75764e-17)
(25.7249 3.94155 5.67004e-19)
(25.7591 3.94707 4.26918e-18)
(25.7979 3.94845 -3.34444e-18)
(25.8384 3.94493 2.71998e-16)
(25.8774 3.93683 -3.07251e-16)
(25.9178 3.92363 4.19633e-17)
(25.9578 3.90604 2.53751e-16)
(25.9957 3.88489 -1.70455e-16)
(26.0325 3.86019 3.51902e-17)
(26.067 3.83314 -7.70962e-16)
(26.0993 3.80381 -2.6283e-16)
(26.1299 3.77252 5.20695e-16)
(26.1587 3.73996 -8.01546e-16)
(26.1856 3.70609 3.64001e-16)