/*--------------------------------*- C++ -*----------------------------------*\
| =========                 |                                                 |
| \\      /  F ield         | OpenFOAM: The Open Source CFD Toolbox           |
|  \\    /   O peration     | Version:  2506                                  |
|   \\  /    A nd           | Website:  www.openfoam.com                      |
|    \\/     M anipulation  |                                                 |
\*---------------------------------------------------------------------------*/
FoamFile
{
    version     2.0;
    format      ascii;
    arch        "LSB;label=32;scalar=64";
    class       volVectorField;
    location    "500";
    object      momentError;
}
// * * * * * * * * * * * * * * * * * * * * * * * * * * * * * * * * * * * * * //

dimensions      [0 1 -2 0 0 0 0];

internalField   nonuniform List<vector> 
1340
(
(-8.13676e-05 0.000148274 2.99401e-14)
(-9.42719e-05 8.57883e-05 -7.52056e-14)
(-5.06094e-05 2.49688e-05 9.5795e-14)
(-1.21313e-05 -2.31882e-05 -6.00386e-14)
(3.44299e-05 -4.48056e-05 -1.46125e-13)
(5.09236e-05 -4.48661e-05 -1.64675e-13)
(5.88132e-05 -3.99767e-05 1.32091e-14)
(5.88829e-05 -3.31064e-05 1.33035e-13)
(5.53285e-05 -2.64313e-05 3.99406e-14)
(5.01827e-05 -2.08357e-05 -5.03069e-14)
(4.41942e-05 -1.59495e-05 -3.54749e-14)
(3.76982e-05 -1.23202e-05 -2.1818e-14)
(3.12658e-05 -9.00334e-06 3.90399e-14)
(2.45166e-05 -7.07278e-06 1.72961e-14)
(1.84014e-05 -5.26013e-06 2.50514e-14)
(1.24965e-05 -5.45902e-06 -3.38377e-14)
(1.11626e-05 -6.33142e-06 -2.46551e-14)
(1.47365e-05 -6.53491e-06 1.8184e-14)
(1.98979e-05 -6.29077e-06 1.24073e-14)
(2.65084e-05 -4.89523e-06 6.93012e-15)
(3.29483e-05 -4.69388e-06 -1.46246e-15)
(3.30034e-05 -1.8568e-06 -2.84507e-16)
(2.35213e-05 -5.84065e-06 2.30628e-16)
(2.35804e-05 -2.24506e-06 -4.51381e-16)
(3.43947e-05 -1.7314e-06 -1.86759e-15)
(4.08031e-05 -8.58218e-07 -1.26031e-15)
(3.69859e-05 -5.54559e-07 -3.83993e-15)
(4.87665e-05 1.7483e-06 -2.90651e-15)
(5.63276e-05 6.27431e-05 1.11416e-13)
(-1.52165e-06 7.94298e-05 5.95855e-14)
(-2.69099e-05 3.71137e-05 -8.2588e-14)
(-1.72806e-05 -3.96605e-06 -1.06484e-14)
(3.46137e-06 -3.50765e-05 1.01897e-13)
(2.94911e-05 -4.65104e-05 -5.20993e-15)
(4.4336e-05 -4.69204e-05 1.22903e-14)
(5.2137e-05 -4.24778e-05 -2.47923e-14)
(5.3793e-05 -3.61644e-05 -3.2588e-14)
(5.15886e-05 -2.97315e-05 1.41526e-14)
(4.76289e-05 -2.379e-05 1.70869e-14)
(4.2393e-05 -1.86913e-05 -5.80437e-14)
(3.66227e-05 -1.44096e-05 2.69297e-14)
(3.04235e-05 -1.1124e-05 1.78451e-14)
(2.42899e-05 -8.38628e-06 1.46789e-14)
(1.83156e-05 -6.72345e-06 3.19092e-14)
(1.34533e-05 -5.62118e-06 4.17819e-14)
(1.22391e-05 -6.89569e-06 1.76494e-14)
(1.55277e-05 -7.07022e-06 -1.51653e-14)
(2.04046e-05 -7.05265e-06 8.16093e-16)
(2.6536e-05 -6.28398e-06 -5.68202e-15)
(3.34491e-05 -5.20368e-06 -2.08582e-15)
(3.30868e-05 -3.20333e-06 3.93328e-16)
(2.72435e-05 -1.70013e-07 -3.86226e-17)
(4.09176e-05 -4.92952e-06 2.82933e-16)
(4.66359e-05 -5.65533e-07 6.14088e-16)
(5.25648e-05 8.26292e-08 1.84957e-15)
(7.58715e-05 -8.04852e-07 2.35488e-15)
(9.50759e-05 -6.16242e-07 7.65908e-16)
(6.53828e-05 2.78848e-05 1.35491e-14)
(3.08716e-05 3.33476e-05 -1.17648e-13)
(1.11969e-05 8.5476e-06 -7.91933e-14)
(9.32913e-06 -1.54913e-05 -8.81236e-14)
(2.02652e-05 -3.38107e-05 9.75413e-14)
(3.45959e-05 -4.20575e-05 1.4533e-14)
(4.49909e-05 -4.346e-05 -1.36542e-14)
(5.06358e-05 -4.07329e-05 -8.08997e-14)
(5.17895e-05 -3.59557e-05 -5.80885e-14)
(4.97686e-05 -3.0268e-05 3.78567e-14)
(4.61258e-05 -2.46855e-05 -2.13741e-14)
(4.13569e-05 -1.96564e-05 -4.39724e-14)
(3.59206e-05 -1.54941e-05 -4.00353e-15)
(3.00621e-05 -1.20576e-05 -4.02394e-14)
(2.4124e-05 -9.77332e-06 -4.30003e-14)
(1.83234e-05 -8.48464e-06 -8.43254e-14)
(1.35649e-05 -9.01609e-06 -6.39434e-14)
(1.22695e-05 -1.10074e-05 -1.79986e-14)
(1.51706e-05 -1.15191e-05 3.95036e-15)
(1.98649e-05 -1.07731e-05 -1.14748e-15)
(2.56159e-05 -9.12309e-06 -1.05285e-14)
(3.23808e-05 -7.30205e-06 4.47386e-15)
(3.25568e-05 -3.29191e-06 5.81755e-16)
(2.6836e-05 -5.9527e-06 -1.81328e-16)
(3.24496e-05 -3.40856e-06 -9.4487e-18)
(4.04786e-05 -6.86876e-07 -5.34171e-16)
(4.64954e-05 2.07125e-06 -9.83144e-16)
(6.03628e-05 5.00139e-06 -1.46475e-15)
(9.15143e-05 1.33125e-05 1.86769e-15)
(8.62096e-05 -1.4372e-05 7.34768e-14)
(6.5905e-05 6.93082e-06 -1.8417e-13)
(4.16998e-05 9.88789e-06 1.69127e-13)
(3.05646e-05 -5.90244e-06 2.01465e-15)
(2.69545e-05 -2.02103e-05 -1.20416e-13)
(3.23785e-05 -3.23281e-05 -7.02475e-14)
(4.00309e-05 -3.86912e-05 -1.98383e-14)
(4.66445e-05 -4.04344e-05 5.95862e-14)
(5.01938e-05 -3.86106e-05 1.29281e-13)
(5.05769e-05 -3.44416e-05 2.11142e-14)
(4.84551e-05 -2.92166e-05 -4.73379e-14)
(4.50043e-05 -2.39059e-05 2.21983e-14)
(4.05917e-05 -1.90263e-05 5.00096e-14)
(3.54723e-05 -1.50875e-05 -3.67786e-15)
(2.99253e-05 -1.17491e-05 -7.78287e-15)
(2.42495e-05 -9.59295e-06 -2.14375e-14)
(1.87642e-05 -8.29771e-06 5.2807e-14)
(1.43238e-05 -8.75465e-06 3.09354e-14)
(1.30408e-05 -1.05435e-05 -1.07667e-14)
(1.54985e-05 -1.12059e-05 -1.69122e-14)
(1.991e-05 -1.05647e-05 -6.96414e-15)
(2.55229e-05 -9.03074e-06 1.26255e-14)
(3.20368e-05 -7.3285e-06 -8.91379e-16)
(3.22996e-05 -3.37077e-06 -5.13488e-16)
(2.74853e-05 -3.1666e-06 2.0166e-16)
(3.19063e-05 -7.23167e-06 -3.98126e-17)
(3.86716e-05 -9.06589e-06 -3.67071e-17)
(3.14157e-05 -5.5025e-05 2.74278e-16)
(-1.05735e-05 -0.000235825 5.11487e-16)
(0.00015943 0.000286705 -3.23158e-15)
(7.75377e-05 -2.62755e-05 -6.87531e-14)
(6.41765e-05 -8.77766e-06 -7.24484e-14)
(4.83327e-05 -6.56495e-06 1.5044e-13)
(4.05283e-05 -1.53318e-05 1.26936e-13)
(3.77568e-05 -2.35868e-05 3.5648e-14)
(4.0511e-05 -3.11214e-05 -5.19378e-14)
(4.48844e-05 -3.56045e-05 5.9181e-14)
(4.86679e-05 -3.70642e-05 4.54279e-14)
(5.04767e-05 -3.56507e-05 -3.98189e-15)
(4.98566e-05 -3.21858e-05 -9.3721e-14)
(4.73803e-05 -2.75834e-05 3.96394e-15)
(4.39453e-05 -2.29956e-05 3.73007e-15)
(3.97013e-05 -1.87097e-05 2.06857e-16)
(3.48651e-05 -1.51377e-05 1.51383e-14)
(2.95724e-05 -1.20862e-05 -5.43059e-15)
(2.4171e-05 -1.02276e-05 1.23011e-14)
(1.89632e-05 -9.2361e-06 -2.67244e-14)
(1.47413e-05 -1.02242e-05 -1.53651e-14)
(1.3347e-05 -1.22123e-05 1.55018e-14)
(1.53851e-05 -1.3349e-05 2.09531e-14)
(1.95163e-05 -1.27194e-05 1.25527e-15)
(2.50702e-05 -1.09729e-05 -1.23695e-15)
(3.14613e-05 -8.48111e-06 -3.25999e-15)
(3.20169e-05 -3.96155e-06 6.54289e-16)
(2.75488e-05 -5.3867e-06 -1.0459e-16)
(3.17489e-05 -6.11617e-06 -5.30581e-16)
(4.03e-05 7.57446e-06 -2.81002e-17)
(4.94601e-05 7.52489e-05 7.79735e-17)
(8.77754e-05 0.000308681 -6.95889e-17)
(2.04693e-05 -0.00046482 -9.29079e-16)
(7.12522e-05 -5.3257e-05 4.68171e-15)
(6.96152e-05 -3.23808e-05 -7.8182e-14)
(6.15261e-05 -1.92819e-05 -2.9426e-14)
(5.15231e-05 -1.71398e-05 -3.50566e-14)
(4.62383e-05 -2.11553e-05 2.74177e-14)
(4.43542e-05 -2.57772e-05 1.35735e-13)
(4.59815e-05 -3.02089e-05 -3.03589e-14)
(4.86532e-05 -3.3199e-05 -5.88494e-14)
(5.06022e-05 -3.41429e-05 2.50169e-15)
(5.09873e-05 -3.28603e-05 -5.12986e-14)
(4.94365e-05 -2.98856e-05 1.70031e-14)
(4.65194e-05 -2.58671e-05 2.54112e-14)
(4.30006e-05 -2.1864e-05 3.93182e-14)
(3.88981e-05 -1.81177e-05 1.5049e-14)
(3.42678e-05 -1.48492e-05 -1.77031e-14)
(2.92197e-05 -1.20974e-05 2.27256e-14)
(2.41383e-05 -1.02978e-05 2.51827e-14)
(1.92434e-05 -9.56434e-06 1.82594e-14)
(1.53573e-05 -1.05286e-05 3.81566e-15)
(1.38758e-05 -1.24986e-05 -1.44098e-14)
(1.55381e-05 -1.37139e-05 1.18017e-14)
(1.92782e-05 -1.34465e-05 3.28035e-15)
(2.46771e-05 -1.1719e-05 -1.1371e-14)
(3.08671e-05 -9.27279e-06 1.22343e-15)
(3.17406e-05 -4.54682e-06 -1.18451e-16)
(2.78442e-05 -5.07666e-06 2.05603e-16)
(3.18548e-05 -6.60656e-06 6.67291e-16)
(4.11277e-05 -6.09384e-06 -1.60558e-16)
(5.42991e-05 -2.25098e-05 -2.51274e-16)
(8.76921e-05 -8.7575e-05 5.63598e-16)
(-1.78357e-06 0.000207609 1.39486e-15)
(6.14152e-05 -5.07527e-05 7.38141e-15)
(6.15823e-05 -3.51757e-05 1.10947e-14)
(5.67353e-05 -2.49314e-05 8.0639e-14)
(5.20198e-05 -2.34706e-05 -1.01462e-13)
(4.8876e-05 -2.49107e-05 -3.28009e-14)
(4.81906e-05 -2.71195e-05 -3.11479e-14)
(4.95414e-05 -2.95183e-05 1.17307e-13)
(5.13514e-05 -3.12808e-05 -4.64459e-14)
(5.22725e-05 -3.1526e-05 -4.56717e-15)
(5.15707e-05 -3.01353e-05 1.85391e-14)
(4.92819e-05 -2.72816e-05 1.77852e-14)
(4.59408e-05 -2.37705e-05 1.20879e-14)
(4.23014e-05 -2.03368e-05 -7.68256e-14)
(3.82271e-05 -1.71769e-05 -2.81418e-14)
(3.37388e-05 -1.42951e-05 3.58171e-14)
(2.89002e-05 -1.19507e-05 1.42872e-15)
(2.41057e-05 -1.03182e-05 3.63862e-14)
(1.954e-05 -9.90997e-06 -1.03902e-14)
(1.59031e-05 -1.09263e-05 1.50662e-15)
(1.43768e-05 -1.29961e-05 2.42355e-14)
(1.56214e-05 -1.44558e-05 -2.0363e-14)
(1.90328e-05 -1.45953e-05 -6.98987e-15)
(2.41511e-05 -1.31873e-05 6.58223e-15)
(3.02002e-05 -1.04882e-05 2.19797e-15)
(3.13171e-05 -5.66791e-06 -1.15953e-18)
(2.79789e-05 -5.74404e-06 -2.57136e-16)
(3.15353e-05 -6.37043e-06 6.37712e-16)
(3.95535e-05 -1.84481e-06 7.49886e-17)
(4.6273e-05 -1.82765e-07 -1.08077e-15)
(5.46264e-05 3.98796e-06 5.4267e-17)
(5.42031e-05 9.57908e-06 -3.16323e-15)
(5.44462e-05 -5.10639e-05 3.14461e-15)
(5.45728e-05 -3.64516e-05 1.01651e-13)
(5.21333e-05 -2.84889e-05 1.36656e-13)
(5.02381e-05 -2.75941e-05 -5.29997e-14)
(4.95765e-05 -2.71388e-05 -7.25299e-14)
(4.99871e-05 -2.78012e-05 -5.54113e-14)
(5.16174e-05 -2.89676e-05 -1.02164e-13)
(5.31599e-05 -2.96897e-05 -5.52871e-15)
(5.34719e-05 -2.92655e-05 -4.305e-14)
(5.21154e-05 -2.75138e-05 5.78123e-14)
(4.92374e-05 -2.47266e-05 1.93966e-14)
(4.55743e-05 -2.15763e-05 -3.07512e-14)
(4.18119e-05 -1.8706e-05 -3.26308e-15)
(3.77274e-05 -1.60363e-05 -2.54406e-14)
(3.3305e-05 -1.35879e-05 2.79092e-15)
(2.86493e-05 -1.15362e-05 -1.7768e-14)
(2.40956e-05 -1.02099e-05 -3.338e-14)
(1.98844e-05 -9.95301e-06 1.47958e-14)
(1.64871e-05 -1.10366e-05 -2.76256e-14)
(1.49603e-05 -1.3007e-05 -1.00665e-14)
(1.58291e-05 -1.46776e-05 6.28575e-15)
(1.88792e-05 -1.50917e-05 3.97121e-15)
(2.36411e-05 -1.41104e-05 1.56323e-15)
(2.9458e-05 -1.13611e-05 -1.03508e-15)
(3.0806e-05 -6.67263e-06 -4.35141e-16)
(2.80301e-05 -5.98854e-06 -7.72652e-17)
(3.12818e-05 -6.55786e-06 -1.03048e-15)
(3.91054e-05 -2.69471e-06 5.53524e-16)
(4.64217e-05 -1.39587e-06 3.06422e-15)
(5.5874e-05 -1.1691e-06 5.12418e-17)
(6.79829e-05 -4.44627e-06 2.49803e-15)
(4.24139e-05 -6.21876e-05 9.71645e-14)
(4.76993e-05 -4.82725e-05 6.43189e-14)
(4.91847e-05 -3.75027e-05 -1.65789e-13)
(4.86193e-05 -3.2452e-05 -1.14058e-13)
(4.77894e-05 -2.978e-05 -3.87775e-14)
(4.8587e-05 -2.79067e-05 7.08572e-14)
(5.05235e-05 -2.78542e-05 7.32029e-14)
(5.25383e-05 -2.82875e-05 2.72944e-14)
(5.41656e-05 -2.83132e-05 2.50398e-14)
(5.41914e-05 -2.72516e-05 -2.67405e-14)
(5.24729e-05 -2.50454e-05 -8.73373e-14)
(4.92465e-05 -2.22119e-05 1.34148e-14)
(4.54071e-05 -1.93894e-05 2.7094e-14)
(4.15164e-05 -1.69733e-05 1.84378e-14)
(3.73939e-05 -1.47264e-05 5.10859e-14)
(3.29958e-05 -1.2701e-05 -2.84807e-14)
(2.84862e-05 -1.09135e-05 -2.12613e-14)
(2.4173e-05 -9.89093e-06 -1.53181e-14)
(2.02507e-05 -9.78993e-06 -3.15587e-15)
(1.70995e-05 -1.08985e-05 2.46382e-14)
(1.55306e-05 -1.27978e-05 1.6455e-14)
(1.6124e-05 -1.45975e-05 1.90875e-14)
(1.87633e-05 -1.53871e-05 6.47006e-15)
(2.32009e-05 -1.4792e-05 2.82463e-17)
(2.86575e-05 -1.23516e-05 2.21314e-15)
(3.02421e-05 -7.54476e-06 -3.08461e-16)
(2.79604e-05 -6.43207e-06 3.02119e-16)
(3.10318e-05 -6.55787e-06 -3.79819e-16)
(3.86085e-05 -2.76362e-06 3.18489e-17)
(4.60621e-05 -7.26564e-07 -1.76e-15)
(5.46651e-05 1.7149e-06 4.24011e-16)
(6.54883e-05 3.94721e-06 4.63043e-15)
(4.07054e-05 -4.5831e-05 1.02134e-13)
(4.41973e-05 -3.7719e-05 1.87091e-14)
(4.49712e-05 -3.40343e-05 -2.7925e-15)
(4.63854e-05 -3.10847e-05 -9.34345e-14)
(4.73135e-05 -2.80302e-05 -3.88165e-14)
(4.99109e-05 -2.71897e-05 5.64922e-14)
(5.27554e-05 -2.74877e-05 6.41652e-14)
(5.44492e-05 -2.70008e-05 1.04452e-13)
(5.44622e-05 -2.53468e-05 9.98123e-14)
(5.2561e-05 -2.28098e-05 -2.10587e-14)
(4.92313e-05 -1.98901e-05 -8.11414e-15)
(4.53341e-05 -1.73455e-05 1.57313e-14)
(4.1404e-05 -1.52559e-05 3.48482e-15)
(3.72143e-05 -1.33712e-05 1.13504e-14)
(3.28285e-05 -1.1616e-05 3.09246e-14)
(2.84052e-05 -1.01764e-05 8.27685e-17)
(2.43208e-05 -9.34762e-06 -1.26205e-14)
(2.06597e-05 -9.43404e-06 -5.7631e-15)
(1.77325e-05 -1.05019e-05 2.63304e-15)
(1.61566e-05 -1.23637e-05 1.12642e-15)
(1.65081e-05 -1.41956e-05 -3.97038e-15)
(1.87591e-05 -1.53262e-05 -8.91572e-15)
(2.28147e-05 -1.50715e-05 5.54189e-16)
(2.78307e-05 -1.30103e-05 -1.41934e-15)
(2.9552e-05 -8.26285e-06 4.54778e-16)
(2.78115e-05 -6.80378e-06 6.53945e-17)
(3.07597e-05 -6.66459e-06 2.16457e-16)
(3.81065e-05 -3.06181e-06 1.74728e-15)
(4.573e-05 -6.04487e-07 2.52529e-15)
(5.45024e-05 1.91269e-06 -1.92763e-15)
(6.57477e-05 4.17044e-06 -6.47499e-15)
(3.89691e-05 -3.7087e-05 9.94015e-15)
(4.09598e-05 -3.29762e-05 7.45267e-14)
(4.39072e-05 -3.10721e-05 -9.30757e-14)
(4.66001e-05 -2.86485e-05 1.36613e-15)
(4.89785e-05 -2.69161e-05 2.55346e-14)
(5.21085e-05 -2.65577e-05 -1.08716e-13)
(5.41425e-05 -2.56919e-05 -1.63281e-13)
(5.4208e-05 -2.35847e-05 2.25665e-14)
(5.23907e-05 -2.07201e-05 2.43315e-14)
(4.9131e-05 -1.78411e-05 -1.70256e-14)
(4.5317e-05 -1.54772e-05 -1.64716e-14)
(4.13944e-05 -1.3623e-05 -3.75643e-14)
(3.71523e-05 -1.19666e-05 3.35301e-14)
(3.27707e-05 -1.0424e-05 2.93744e-14)
(2.84515e-05 -9.21499e-06 9.0653e-15)
(2.4547e-05 -8.63644e-06 3.06018e-14)
(2.11258e-05 -8.84313e-06 2.85566e-14)
(1.8368e-05 -9.90223e-06 1.1427e-15)
(1.68144e-05 -1.16487e-05 -4.24729e-14)
(1.69346e-05 -1.35099e-05 -9.03094e-15)
(1.88621e-05 -1.4849e-05 -2.44324e-15)
(2.24778e-05 -1.49813e-05 -7.61524e-15)
(2.70627e-05 -1.32328e-05 -4.13629e-17)
(2.88216e-05 -8.87374e-06 -9.25458e-17)
(2.76121e-05 -7.03193e-06 2.19292e-16)
(3.04555e-05 -6.82176e-06 -2.34824e-16)
(3.75725e-05 -3.34075e-06 -1.81295e-16)
(4.53167e-05 -5.33602e-07 2.33082e-17)
(5.4318e-05 2.36726e-06 -4.45343e-15)
(6.56996e-05 4.80415e-06 2.72915e-15)
(3.78291e-05 -3.27567e-05 -7.00859e-14)
(3.94315e-05 -2.87529e-05 7.50873e-14)
(4.43522e-05 -2.85944e-05 5.83729e-14)
(4.81052e-05 -2.73993e-05 7.79334e-14)
(5.11499e-05 -2.60724e-05 7.72713e-14)
(5.33141e-05 -2.44323e-05 -5.42474e-14)
(5.35263e-05 -2.19394e-05 -5.91122e-14)
(5.19203e-05 -1.88747e-05 4.22783e-14)
(4.89143e-05 -1.60466e-05 1.36122e-14)
(4.53042e-05 -1.37793e-05 2.77792e-15)
(4.14387e-05 -1.21074e-05 -5.28829e-15)
(3.71909e-05 -1.05329e-05 -8.11513e-14)
(3.27964e-05 -9.18161e-06 -3.57936e-14)
(2.85873e-05 -8.1352e-06 -1.46658e-14)
(2.48568e-05 -7.76326e-06 -3.10049e-14)
(2.16273e-05 -8.04383e-06 -1.60434e-14)
(1.90313e-05 -9.08641e-06 3.66988e-15)
(1.7494e-05 -1.07314e-05 2.51786e-14)
(1.74446e-05 -1.25722e-05 1.37406e-15)
(1.90521e-05 -1.40619e-05 1.15439e-14)
(2.22342e-05 -1.44808e-05 8.95668e-15)
(2.63101e-05 -1.30867e-05 1.0887e-15)
(2.80416e-05 -9.17582e-06 -1.28711e-15)
(2.73246e-05 -7.21474e-06 -2.04684e-16)
(3.01382e-05 -6.94856e-06 -2.23935e-16)
(3.69915e-05 -3.72438e-06 3.64188e-16)
(4.48149e-05 -5.71026e-07 -2.99414e-16)
(5.40903e-05 2.77465e-06 1.83721e-15)
(6.55663e-05 5.45341e-06 2.59541e-15)
(3.75154e-05 -2.85986e-05 9.77224e-14)
(3.95229e-05 -2.57959e-05 6.41964e-15)
(4.69779e-05 -2.77524e-05 -5.21812e-14)
(4.98028e-05 -2.5573e-05 4.48759e-14)
(5.1955e-05 -2.3172e-05 9.55722e-14)
(5.24678e-05 -2.0343e-05 1.66068e-14)
(5.11937e-05 -1.72738e-05 -6.74011e-14)
(4.85779e-05 -1.44827e-05 3.37441e-14)
(4.5247e-05 -1.23491e-05 1.38587e-14)
(4.14972e-05 -1.06497e-05 1.93073e-15)
(3.72602e-05 -9.13362e-06 1.99985e-15)
(3.29179e-05 -7.82814e-06 -5.01721e-14)
(2.88116e-05 -6.98977e-06 6.3913e-15)
(2.52468e-05 -6.70349e-06 3.20088e-15)
(2.2173e-05 -7.07088e-06 2.24478e-16)
(1.97168e-05 -8.02022e-06 -3.34461e-16)
(1.8185e-05 -9.59401e-06 9.53632e-15)
(1.80029e-05 -1.13252e-05 1.79727e-14)
(1.93087e-05 -1.29248e-05 -8.92409e-15)
(2.20739e-05 -1.34978e-05 -6.21536e-15)
(2.56351e-05 -1.25138e-05 1.65616e-15)
(2.73159e-05 -9.08072e-06 1.03167e-15)
(2.70259e-05 -7.23489e-06 -3.46438e-16)
(2.98276e-05 -7.00543e-06 -1.55465e-16)
(3.63756e-05 -4.06819e-06 -1.80238e-15)
(4.4231e-05 -5.91608e-07 2.26652e-15)
(5.37787e-05 3.12109e-06 1.93899e-15)
(6.52514e-05 6.3589e-06 -8.87356e-15)
(3.82874e-05 -2.60069e-05 -2.06117e-14)
(4.161e-05 -2.43544e-05 3.45132e-14)
(4.92272e-05 -2.55181e-05 -2.64684e-14)
(5.0273e-05 -2.18272e-05 -3.31975e-14)
(5.10845e-05 -1.8752e-05 1.41589e-14)
(5.02205e-05 -1.57934e-05 3.36165e-14)
(4.80851e-05 -1.31254e-05 -4.79461e-14)
(4.50814e-05 -1.10764e-05 1.00895e-14)
(4.15161e-05 -9.31374e-06 2.92532e-14)
(3.73325e-05 -7.75493e-06 2.80916e-14)
(3.30807e-05 -6.46346e-06 2.81822e-14)
(2.91123e-05 -5.73508e-06 1.28359e-14)
(2.56885e-05 -5.53644e-06 5.79826e-15)
(2.27568e-05 -5.92245e-06 9.13036e-15)
(2.04033e-05 -6.81184e-06 1.09399e-14)
(1.89012e-05 -8.25077e-06 -1.34853e-14)
(1.85942e-05 -9.89269e-06 -1.64104e-14)
(1.96452e-05 -1.15014e-05 -7.62944e-16)
(2.19823e-05 -1.22351e-05 -2.97501e-15)
(2.50392e-05 -1.15581e-05 -1.56546e-15)
(2.65894e-05 -8.71675e-06 -4.87735e-16)
(2.67171e-05 -7.06131e-06 2.58052e-16)
(2.95106e-05 -6.98154e-06 1.6492e-15)
(3.5709e-05 -4.31684e-06 -1.76982e-15)
(4.35434e-05 -7.388e-07 -4.73611e-15)
(5.33642e-05 3.4088e-06 6.02328e-15)
(6.48229e-05 7.24787e-06 2.14018e-15)
(3.89419e-05 -2.30671e-05 -3.65764e-14)
(4.59009e-05 -2.33316e-05 -5.9227e-14)
(4.91655e-05 -2.09295e-05 -2.1536e-14)
(4.94607e-05 -1.72596e-05 -2.56364e-14)
(4.92151e-05 -1.44343e-05 -1.09423e-15)
(4.74937e-05 -1.19791e-05 4.38308e-15)
(4.48547e-05 -9.87271e-06 -4.33725e-14)
(4.14299e-05 -8.06187e-06 7.73079e-15)
(3.74003e-05 -6.36379e-06 -2.55349e-14)
(3.32723e-05 -5.1338e-06 -1.64599e-14)
(2.9471e-05 -4.40593e-06 3.0506e-14)
(2.61797e-05 -4.28411e-06 -1.76402e-14)
(2.3371e-05 -4.60529e-06 -3.17496e-14)
(2.11017e-05 -5.45477e-06 2.42536e-15)
(1.96184e-05 -6.70198e-06 1.69042e-14)
(1.92153e-05 -8.25708e-06 2.45111e-15)
(2.00266e-05 -9.76534e-06 -3.6569e-15)
(2.1969e-05 -1.06461e-05 1.08233e-15)
(2.45483e-05 -1.01965e-05 2.94351e-16)
(2.59837e-05 -8.00544e-06 -6.61481e-16)
(2.64455e-05 -6.68035e-06 4.49123e-16)
(2.92125e-05 -6.69286e-06 -1.26748e-15)
(3.50533e-05 -4.42274e-06 -1.32142e-16)
(4.2782e-05 -8.22636e-07 -2.16972e-16)
(5.28432e-05 3.75683e-06 2.06694e-15)
(6.42098e-05 8.17623e-06 8.07282e-15)
(3.81588e-05 -2.2756e-05 -2.1852e-14)
(4.05862e-05 -1.9723e-05 -5.9784e-14)
(4.81147e-05 -2.01355e-05 -9.68117e-15)
(4.78748e-05 -1.58402e-05 4.24498e-15)
(4.80076e-05 -1.31634e-05 -2.73765e-14)
(4.67877e-05 -1.08805e-05 5.82456e-14)
(4.4471e-05 -8.74974e-06 5.85408e-14)
(4.12477e-05 -6.81443e-06 -1.39515e-15)
(3.73807e-05 -5.04729e-06 2.07571e-14)
(3.34615e-05 -3.8074e-06 -1.46693e-14)
(2.98331e-05 -3.09645e-06 1.59346e-14)
(2.66864e-05 -2.94796e-06 3.72978e-14)
(2.39813e-05 -3.21474e-06 1.55836e-15)
(2.17914e-05 -3.94455e-06 -2.6631e-14)
(2.03203e-05 -5.0452e-06 -8.15156e-15)
(1.98491e-05 -6.47068e-06 7.64606e-15)
(2.04393e-05 -7.91986e-06 3.80746e-15)
(2.20271e-05 -8.83869e-06 6.89453e-15)
(2.41389e-05 -8.66604e-06 -2.89439e-15)
(2.54582e-05 -7.01862e-06 4.78922e-17)
(2.61847e-05 -6.11661e-06 -1.94225e-16)
(2.89272e-05 -6.15847e-06 1.1372e-16)
(3.43703e-05 -4.3776e-06 2.43652e-16)
(4.19083e-05 -8.16487e-07 -1.7692e-15)
(5.21918e-05 3.98207e-06 -1.35658e-14)
(6.34513e-05 9.05049e-06 -1.42096e-14)
(3.82859e-05 -1.83819e-05 -4.60341e-14)
(4.36516e-05 -1.70815e-05 9.54308e-15)
(4.69852e-05 -1.50896e-05 4.26143e-14)
(4.6826e-05 -1.1914e-05 2.86931e-14)
(4.6091e-05 -9.84638e-06 -2.17628e-14)
(4.39691e-05 -7.72847e-06 1.93878e-14)
(4.09752e-05 -5.60984e-06 -1.61458e-14)
(3.73021e-05 -3.83985e-06 6.79326e-16)
(3.36289e-05 -2.53161e-06 1.84828e-14)
(3.01893e-05 -1.82981e-06 -1.61891e-14)
(2.71886e-05 -1.58179e-06 1.64406e-14)
(2.45841e-05 -1.80299e-06 1.33425e-14)
(2.24623e-05 -2.36088e-06 1.02308e-14)
(2.10123e-05 -3.31753e-06 -8.59357e-15)
(2.04907e-05 -4.52938e-06 -6.7273e-15)
(2.08861e-05 -5.95267e-06 -2.51488e-15)
(2.21453e-05 -6.84818e-06 -4.99836e-15)
(2.386e-05 -6.94132e-06 5.99284e-16)
(2.50639e-05 -5.79046e-06 1.96788e-15)
(2.5997e-05 -5.29574e-06 -2.08798e-16)
(2.86676e-05 -5.37091e-06 1.18725e-15)
(3.37341e-05 -3.98731e-06 -7.04452e-16)
(4.10051e-05 -6.71254e-07 1.52952e-15)
(5.14421e-05 4.33726e-06 9.62989e-15)
(6.2479e-05 1.00038e-05 7.21064e-15)
(3.74506e-05 -1.78198e-05 -7.79656e-14)
(3.87727e-05 -1.41328e-05 -4.35792e-14)
(4.56775e-05 -1.38829e-05 1.25075e-14)
(4.5189e-05 -1.08086e-05 -1.09356e-14)
(4.52183e-05 -8.83554e-06 -3.42821e-14)
(4.32839e-05 -6.6897e-06 -5.21844e-14)
(4.05128e-05 -4.52681e-06 2.35338e-14)
(3.71345e-05 -2.69109e-06 -2.29739e-14)
(3.37251e-05 -1.36733e-06 -1.05775e-14)
(3.05065e-05 -5.84345e-07 -2.23707e-14)
(2.76542e-05 -2.55698e-07 -4.10717e-14)
(2.51487e-05 -3.36952e-07 -1.27659e-14)
(2.3087e-05 -7.56594e-07 1.32926e-14)
(2.16623e-05 -1.53095e-06 1.14182e-14)
(2.11099e-05 -2.6394e-06 6.8496e-16)
(2.13591e-05 -3.9376e-06 4.4047e-15)
(2.23055e-05 -4.88031e-06 -2.54274e-15)
(2.36799e-05 -5.11968e-06 -6.59355e-17)
(2.47505e-05 -4.4686e-06 7.90584e-16)
(2.58376e-05 -4.2312e-06 -5.6468e-16)
(2.84113e-05 -4.41803e-06 2.56325e-16)
(3.31074e-05 -3.31305e-06 1.2398e-15)
(4.00335e-05 -3.61766e-07 -1.11483e-15)
(5.04597e-05 4.73768e-06 -1.63828e-15)
(6.13448e-05 1.08685e-05 7.72353e-15)
(3.65993e-05 -1.29728e-05 -8.89571e-14)
(4.14354e-05 -1.17562e-05 -1.20442e-14)
(4.46246e-05 -1.04349e-05 6.61014e-15)
(4.36088e-05 -7.8928e-06 4.73019e-14)
(4.24166e-05 -5.75344e-06 1.07966e-14)
(3.9843e-05 -3.57521e-06 -1.75585e-14)
(3.68323e-05 -1.67614e-06 3.19508e-14)
(3.37299e-05 -3.24955e-07 9.19132e-16)
(3.07561e-05 5.84206e-07 2.48674e-14)
(2.80645e-05 9.91534e-07 1.12479e-14)
(2.56664e-05 1.08051e-06 2.94391e-15)
(2.36666e-05 8.02107e-07 2.15216e-15)
(2.23008e-05 2.50343e-07 -6.94551e-15)
(2.17324e-05 -8.08208e-07 -3.21052e-15)
(2.18437e-05 -1.95828e-06 1.16745e-15)
(2.25331e-05 -2.93782e-06 1.31993e-15)
(2.36013e-05 -3.282e-06 7.60292e-16)
(2.45754e-05 -3.02425e-06 -7.2953e-16)
(2.57315e-05 -3.00892e-06 4.34219e-17)
(2.8214e-05 -3.21761e-06 -2.52965e-15)
(3.25524e-05 -2.3816e-06 1.78007e-15)
(3.91196e-05 3.05895e-07 6.53277e-15)
(4.92904e-05 5.22566e-06 -2.57342e-15)
(6.00692e-05 1.19703e-05 -8.08326e-15)
(3.47051e-05 -1.16807e-05 2.50406e-14)
(3.85123e-05 -1.05981e-05 -2.6772e-15)
(4.28219e-05 -9.93602e-06 2.65378e-14)
(4.22874e-05 -7.36145e-06 -2.16546e-14)
(4.12583e-05 -5.04325e-06 1.36284e-14)
(3.90951e-05 -2.78253e-06 -1.45133e-14)
(3.6418e-05 -8.60669e-07 1.04244e-14)
(3.3644e-05 6.0529e-07 1.15768e-14)
(3.09166e-05 1.60838e-06 -4.086e-15)
(2.83983e-05 2.1859e-06 1.69034e-14)
(2.61026e-05 2.40186e-06 -9.9264e-15)
(2.41734e-05 2.31803e-06 -1.06632e-14)
(2.28699e-05 1.85281e-06 9.05087e-15)
(2.23381e-05 9.44962e-07 -3.9453e-15)
(2.23242e-05 -1.52318e-07 -8.0169e-15)
(2.27936e-05 -1.07953e-06 4.13734e-16)
(2.35895e-05 -1.5469e-06 4.7108e-16)
(2.44623e-05 -1.52897e-06 -8.83029e-16)
(2.56352e-05 -1.6935e-06 9.7287e-16)
(2.80067e-05 -1.87922e-06 -7.82997e-16)
(3.20015e-05 -1.26171e-06 -5.88051e-16)
(3.81587e-05 1.18773e-06 3.3391e-17)
(4.7903e-05 5.86044e-06 2.52517e-15)
(5.86028e-05 1.30421e-05 4.35027e-16)
(3.3921e-05 -1.15259e-05 1.76215e-14)
(3.39195e-05 -8.6194e-06 -5.96959e-15)
(4.17685e-05 -9.85931e-06 5.20583e-15)
(4.05246e-05 -6.81185e-06 6.02655e-15)
(3.9825e-05 -4.48404e-06 -1.20489e-14)
(3.80701e-05 -2.16403e-06 1.32332e-14)
(3.57904e-05 -2.07703e-07 -5.32165e-15)
(3.33818e-05 1.38928e-06 6.24154e-15)
(3.09348e-05 2.4885e-06 -2.04312e-14)
(2.86144e-05 3.22523e-06 -4.15812e-15)
(2.64422e-05 3.58665e-06 1.63894e-14)
(2.46272e-05 3.68226e-06 -8.85769e-15)
(2.34311e-05 3.26493e-06 -9.26701e-15)
(2.2921e-05 2.48383e-06 4.51091e-15)
(2.28178e-05 1.4638e-06 5.42046e-15)
(2.30816e-05 5.94926e-07 2.96009e-15)
(2.36655e-05 8.59446e-08 -1.93758e-15)
(2.44313e-05 -6.66667e-08 3.06912e-16)
(2.55964e-05 -2.97058e-07 -4.64599e-18)
(2.78389e-05 -4.70422e-07 2.61315e-15)
(3.15192e-05 6.91372e-08 -2.93086e-15)
(3.72457e-05 2.26408e-06 -5.29525e-15)
(4.64944e-05 6.79586e-06 1.26507e-15)
(5.6982e-05 1.41584e-05 3.8994e-15)
(3.26241e-05 -8.68217e-06 -5.35641e-15)
(3.62756e-05 -7.57191e-06 1.10043e-14)
(4.00071e-05 -6.84115e-06 6.58951e-15)
(3.80741e-05 -3.93774e-06 -2.65219e-14)
(3.69302e-05 -1.8232e-06 -2.28005e-14)
(3.50004e-05 3.11514e-07 -1.42408e-14)
(3.29461e-05 1.97172e-06 7.71998e-15)
(3.08153e-05 3.23793e-06 2.19053e-14)
(2.86956e-05 4.08678e-06 -1.4746e-14)
(2.66788e-05 4.643e-06 -2.40149e-15)
(2.49876e-05 4.78815e-06 8.55894e-15)
(2.39333e-05 4.48319e-06 -1.64313e-15)
(2.34579e-05 3.75263e-06 -3.97149e-16)
(2.32843e-05 2.86484e-06 1.02485e-15)
(2.33699e-05 2.05782e-06 4.47158e-15)
(2.37586e-05 1.57864e-06 -9.28837e-16)
(2.44178e-05 1.32687e-06 -1.29666e-15)
(2.55389e-05 1.10618e-06 -6.0751e-16)
(2.76372e-05 9.61604e-07 2.95227e-16)
(3.10073e-05 1.501e-06 1.68646e-15)
(3.62673e-05 3.49395e-06 2.66529e-15)
(4.49313e-05 7.90948e-06 3.21848e-15)
(5.51019e-05 1.53633e-05 -2.95651e-15)
(3.26295e-05 -8.69155e-06 -4.8923e-14)
(3.18534e-05 -6.13024e-06 -2.74709e-14)
(3.84168e-05 -6.35065e-06 2.30635e-15)
(3.62754e-05 -3.6489e-06 -2.43891e-15)
(3.54281e-05 -1.51337e-06 -2.05945e-15)
(3.38812e-05 6.38415e-07 1.24847e-14)
(3.22897e-05 2.4725e-06 -6.0766e-16)
(3.04814e-05 3.82103e-06 -4.07951e-15)
(2.86213e-05 4.80606e-06 -3.41422e-15)
(2.6809e-05 5.45721e-06 2.59253e-15)
(2.53195e-05 5.62685e-06 5.31808e-15)
(2.44004e-05 5.37513e-06 4.452e-15)
(2.39781e-05 4.74216e-06 4.04436e-15)
(2.37199e-05 3.97446e-06 1.85913e-15)
(2.36603e-05 3.29647e-06 2.08366e-15)
(2.38907e-05 2.87556e-06 4.18619e-16)
(2.4451e-05 2.62344e-06 6.27551e-17)
(2.55097e-05 2.44197e-06 1.51173e-16)
(2.74709e-05 2.38956e-06 1.15745e-15)
(3.05421e-05 2.96657e-06 1.6468e-15)
(3.53469e-05 4.88406e-06 -5.45056e-15)
(4.33773e-05 9.1612e-06 -6.10194e-15)
(5.30745e-05 1.68076e-05 4.56466e-15)
(3.10751e-05 -6.1705e-06 -1.14965e-15)
(3.3378e-05 -4.90374e-06 7.55175e-15)
(3.57552e-05 -3.92065e-06 1.89296e-14)
(3.33722e-05 -1.25356e-06 -6.15886e-15)
(3.25113e-05 9.68231e-07 1.12584e-14)
(3.1271e-05 2.86403e-06 9.19952e-15)
(2.99862e-05 4.32653e-06 3.00084e-15)
(2.84106e-05 5.39174e-06 2.19095e-15)
(2.68617e-05 6.01318e-06 -8.58823e-15)
(2.55836e-05 6.2149e-06 -5.3698e-15)
(2.47982e-05 5.96338e-06 2.94001e-15)
(2.44196e-05 5.45939e-06 1.29127e-15)
(2.40996e-05 4.83816e-06 -7.01176e-15)
(2.38948e-05 4.32572e-06 -6.37e-15)
(2.39917e-05 4.00043e-06 1.9917e-15)
(2.44569e-05 3.80667e-06 -5.44448e-16)
(2.54322e-05 3.70939e-06 5.67988e-16)
(2.72357e-05 3.77617e-06 -3.30762e-15)
(3.00094e-05 4.44631e-06 1.19265e-15)
(3.43388e-05 6.34249e-06 7.32055e-15)
(4.16458e-05 1.05642e-05 -1.84272e-15)
(5.07976e-05 1.83171e-05 -1.9348e-15)
(2.96161e-05 -5.97505e-06 -3.76455e-15)
(3.06104e-05 -4.44625e-06 -1.31349e-14)
(3.39012e-05 -3.81828e-06 -3.14334e-14)
(3.14736e-05 -8.70567e-07 9.35481e-15)
(3.08895e-05 1.2725e-06 -1.00169e-14)
(3.02171e-05 3.23569e-06 6.19416e-15)
(2.93077e-05 4.72025e-06 -1.53594e-14)
(2.81933e-05 5.80259e-06 -7.66545e-15)
(2.68992e-05 6.34733e-06 2.24674e-14)
(2.58311e-05 6.48009e-06 -1.2765e-14)
(2.5176e-05 6.26535e-06 -5.46837e-15)
(2.48017e-05 5.87236e-06 -2.14898e-15)
(2.4412e-05 5.45377e-06 -2.08585e-15)
(2.40973e-05 5.12315e-06 5.63697e-15)
(2.40841e-05 4.93934e-06 2.07258e-15)
(2.44685e-05 4.83488e-06 1.10416e-15)
(2.5361e-05 4.86652e-06 -1.25136e-16)
(2.70084e-05 5.07597e-06 2.38574e-15)
(2.94995e-05 5.89151e-06 -2.25824e-15)
(3.33722e-05 7.80401e-06 -6.73065e-15)
(3.99406e-05 1.20376e-05 9.9427e-16)
(4.84432e-05 1.98116e-05 4.68892e-15)
(2.94692e-05 -5.98794e-06 4.88591e-15)
(2.68607e-05 -3.69697e-06 1.70076e-14)
(3.21579e-05 -3.1293e-06 9.47932e-15)
(2.94266e-05 -4.51543e-07 -6.35249e-15)
(2.9167e-05 1.72714e-06 -3.23252e-15)
(2.88773e-05 3.55408e-06 -1.42266e-14)
(2.86008e-05 5.09309e-06 1.93694e-14)
(2.78511e-05 5.95578e-06 3.8803e-15)
(2.69604e-05 6.43721e-06 -1.07203e-16)
(2.60463e-05 6.47379e-06 1.62633e-14)
(2.54642e-05 6.3293e-06 2.06284e-15)
(2.50824e-05 6.0976e-06 -1.30643e-15)
(2.46084e-05 5.88625e-06 -9.60736e-16)
(2.42084e-05 5.76046e-06 1.37386e-15)
(2.41061e-05 5.72805e-06 3.3406e-17)
(2.44077e-05 5.75942e-06 -5.76568e-16)
(2.52011e-05 5.9343e-06 -4.82823e-16)
(2.66825e-05 6.31701e-06 -7.21272e-18)
(2.8887e-05 7.2975e-06 -1.66015e-15)
(3.22784e-05 9.28355e-06 -5.97871e-15)
(3.807e-05 1.35437e-05 -5.35561e-15)
(4.58583e-05 2.13258e-05 -7.04198e-15)
(2.65485e-05 -3.52066e-06 -6.84265e-15)
(2.65699e-05 -1.51604e-06 1.57112e-15)
(2.90396e-05 -8.58347e-08 2.10456e-14)
(2.69445e-05 2.28612e-06 -8.36203e-15)
(2.75414e-05 3.92604e-06 -7.52948e-16)
(2.7622e-05 5.15343e-06 8.66782e-15)
(2.7588e-05 5.895e-06 -1.70575e-15)
(2.69218e-05 6.21331e-06 -4.53599e-15)
(2.62591e-05 6.24656e-06 2.17007e-15)
(2.56866e-05 6.19132e-06 -7.98689e-16)
(2.5268e-05 6.1628e-06 -5.80594e-15)
(2.47206e-05 6.16428e-06 2.83945e-15)
(2.42504e-05 6.24037e-06 -3.32285e-16)
(2.40907e-05 6.3639e-06 -6.63193e-16)
(2.43206e-05 6.54995e-06 -1.35985e-16)
(2.50222e-05 6.88543e-06 -1.76084e-16)
(2.63364e-05 7.45091e-06 -1.08846e-15)
(2.82731e-05 8.60758e-06 2.76619e-15)
(3.12075e-05 1.06939e-05 1.09586e-14)
(3.62441e-05 1.49736e-05 8.81775e-15)
(4.32157e-05 2.27537e-05 5.98601e-15)
(2.57862e-05 -2.61983e-06 2.1175e-14)
(2.39684e-05 -4.72712e-07 -1.00558e-15)
(2.69056e-05 7.34866e-07 -1.74747e-14)
(2.51801e-05 2.59996e-06 1.16325e-14)
(2.61333e-05 3.96554e-06 1.87873e-14)
(2.68597e-05 4.74601e-06 -8.30519e-15)
(2.71619e-05 5.45116e-06 3.49508e-15)
(2.69765e-05 5.62803e-06 -8.36805e-16)
(2.63748e-05 5.84017e-06 -1.86027e-14)
(2.58174e-05 5.9785e-06 4.53445e-15)
(2.53295e-05 6.16185e-06 5.0954e-15)
(2.47146e-05 6.38172e-06 -8.00844e-16)
(2.41894e-05 6.63131e-06 3.20708e-16)
(2.39765e-05 6.92446e-06 -9.76167e-16)
(2.4131e-05 7.27183e-06 -1.23006e-15)
(2.47295e-05 7.77594e-06 2.87754e-16)
(2.58635e-05 8.53095e-06 -4.77521e-16)
(2.75277e-05 9.86834e-06 1.85478e-15)
(2.99971e-05 1.20738e-05 -4.54e-15)
(3.42437e-05 1.63848e-05 -7.7574e-15)
(4.03838e-05 2.41424e-05 4.85143e-17)
(2.52063e-05 -2.22884e-06 6.278e-15)
(2.06724e-05 6.57922e-07 2.18317e-14)
(2.55246e-05 9.76841e-07 -1.66378e-15)
(2.36523e-05 2.7305e-06 -2.82273e-14)