/*--------------------------------*- C++ -*----------------------------------*\
| =========                 |                                                 |
| \\      /  F ield         | OpenFOAM: The Open Source CFD Toolbox           |
|  \\    /   O peration     | Version:  2506                                  |
|   \\  /    A nd           | Website:  www.openfoam.com                      |
|    \\/     M anipulation  |                                                 |
\*---------------------------------------------------------------------------*/
FoamFile
{
    version     2.0;
    format      ascii;
    arch        "LSB;label=32;scalar=64";
    class       volScalarField;
    location    "170.004218234212004";
    object      p;
}
// * * * * * * * * * * * * * * * * * * * * * * * * * * * * * * * * * * * * * //

dimensions      [0 2 -2 0 0 0 0];

internalField   nonuniform List<scalar> 
9700
(
0.00113744
0.00113898
0.00262153
0.00112833
0.00262995
0.00474012
0.00112652
0.00262586
0.00474773
0.00667112
0.00110749
0.0026419
0.00473786
0.00667963
0.00866
0.00109289
0.00264176
0.00474798
0.00667044
0.00866976
0.0106208
0.00106053
0.00265883
0.0047335
0.00668132
0.00866158
0.0106331
0.0125797
0.00102234
0.00266421
0.00473132
0.00666657
0.00867379
0.0106284
0.0125958
0.0145238
0.000964471
0.00268056
0.00470403
0.00666168
0.00865948
0.0106458
0.0125964
0.014545
0.0164541
0.000891352
0.00269073
0.00467309
0.00662764
0.00865257
0.0106379
0.0126226
0.014553
0.0164814
0.0183648
0.000795431
0.00271276
0.0046112
0.00658265
0.00861242
0.0106374
0.0126261
0.0145916
0.0164987
0.0183989
0.0202512
0.000678718
0.00274328
0.00452777
0.00649568
0.00855366
0.010603
0.0126393
0.014612
0.0165528
0.0184269
0.0202925
0.0221088
0.000518545
0.00279576
0.00439582
0.0063678
0.00844075
0.0105468
0.012621
0.0146469
0.0165948
0.0184991
0.0203321
0.0221573
0.0239335
0.000315803
0.00285978
0.00421835
0.00616408
0.00826799
0.010431
0.012582
0.0146561
0.0166585
0.0185664
0.0204237
0.0222087
0.0239887
0.0257203
7.96449e-05
0.00298943
0.00395967
0.00587065
0.00798992
0.010244
0.0124836
0.0146505
0.0167054
0.0186646
0.0205187
0.0223199
0.0240514
0.0257813
0.0274651
-0.000379402
0.00325924
0.0036487
0.00542583
0.00757439
0.00993454
0.0123118
0.0145928
0.0167481
0.0187574
0.0206549
0.0224433
0.0241813
0.0258542
0.0275308
0.0291659
-0.00108946
0.00340223
0.00322754
0.00479662
0.00693935
0.00945756
0.0120125
0.014469
0.0167521
0.0188605
0.0207989
0.0226184
0.0243317
0.0260005
0.027612
0.0292347
0.0308203
-0.00200593
0.0033436
0.00243126
0.00386046
0.00601209
0.00871611
0.0115341
0.0142268
0.0167069
0.0189437
0.0209703
0.0228153
0.0245441
0.026175
0.0277716
0.0293222
0.0308907
0.0324269
-0.00299998
0.00249928
0.000821247
0.00241132
0.0046376
0.00760655
0.0107735
0.0138143
0.0165655
0.0190027
0.0211444
0.023058
0.024792
0.0264206
0.0279657
0.0294911
0.0309819
0.0324974
0.0339868
-0.00359871
0.0002403
-0.0022587
-0.000375497
0.00245598
0.00595
0.00961616
0.0131308
0.0162817
0.0189988
0.0213247
0.0233276
0.0251036
0.0267138
0.028238
0.0296992
0.0311557
0.0325898
0.0340559
0.0355005
-0.00357472
-0.00295204
-0.00751211
-0.0053817
-0.00162605
0.00323565
0.00787318
0.0120633
0.0157654
0.0188977
0.0214837
0.0236368
0.0254657
0.0270866
0.0285677
0.0299901
0.0313715
0.0327641
0.0341472
0.035567
0.0369695
-0.00295439
-0.00703611
-0.0141551
-0.013624
-0.0088154
-0.00175158
0.00498609
0.0104203
0.0149111
0.018627
0.0216025
0.0239695
0.0259004
0.0275313
0.0289899
0.0303452
0.031672
0.0329812
0.0343178
0.0356552
0.0370327
0.0383965
-0.00177537
-0.0107693
-0.0222178
-0.0242687
-0.0203861
-0.0109906
-0.000200857
0.00770251
0.0135374
0.0180995
0.0216319
0.0243248
0.0264029
0.0280781
0.0295007
0.0308013
0.03204
0.0332821
0.0345303
0.0358187
0.0371161
0.0384559
0.0397846
2.66134e-05
-0.0127413
-0.0295132
-0.0375762
-0.0349753
-0.0265706
-0.0102843
0.00281967
0.0112173
0.0171679
0.0215117
0.024678
0.0269897
0.0287319
0.0301375
0.0313572
0.0325126
0.0336501
0.0348229
0.0360215
0.0372701
0.0385337
0.0398402
0.041136
0.00250687
-0.013219
-0.0351075
-0.0501334
-0.0534922
-0.045197
-0.0263918
-0.00673146
0.00691078
0.0154989
0.0211435
0.0249991
0.0276597
0.0295255
0.0309123
0.0320551
0.0330897
0.0341214
0.0351789
0.0362985
0.0374594
0.0386767
0.0399121
0.0411881
0.0424527
0.00328938
-0.0144263
-0.037854
-0.060583
-0.07158
-0.0665478
-0.0485435
-0.0205363
-0.00160008
0.0122589
0.0203025
0.0252376
0.0284133
0.0304776
0.0318713
0.0329115
0.0338158
0.034695
0.0356319
0.0366323
0.0377155
0.0388504
0.0400439
0.0412544
0.0425019
0.0437371
0.00261115
-0.016113
-0.038567
-0.0667078
-0.0870182
-0.08935
-0.0732657
-0.0425
-0.0150379
0.00568469
0.0184389
0.0252594
0.0292433
0.0316162
0.0330478
0.033982
0.0347086
0.0354153
0.0361788
0.0370526
0.0380197
0.0390828
0.0402016
0.041376
0.0425635
0.0437844
0.0449903
0.00116122
-0.0163699
-0.036629
-0.0685701
-0.0967435
-0.109853
-0.0998843
-0.0717369
-0.0357704
-0.00617586
0.0143417
0.0247546
0.0300853
0.032971
0.0344926
0.0353085
0.035829
0.0362977
0.0368607
0.0375529
0.0383968
0.0393531
0.0404097
0.0415189
0.0426767
0.0438426
0.0450367
0.0462124
-0.000844538
-0.0154333
-0.0337522
-0.0648634
-0.0999288
-0.123297
-0.124958
-0.100888
-0.0628859
-0.0249453
0.00623497
0.0229564
0.0308137
0.0345258
0.0362629
0.0369586
0.0372212
0.0374038
0.0376878
0.0381685
0.0388358
0.0396812
0.0406459
0.041705
0.0428076
0.04395
0.0450929
0.0462588
0.0474038
-0.00335565
-0.0137227
-0.0303415
-0.0593648
-0.0948172
-0.128162
-0.141375
-0.128645
-0.0920524
-0.0471803
-0.00752477
0.0185132
0.0310233
0.0362746
0.0383759
0.0390055
0.0389622
0.0387738
0.0387176
0.0389013
0.0393641
0.0400509
0.0409245
0.0419101
0.0429758
0.0440725
0.0451973
0.0463145
0.047451
0.0485641
-0.00604934
-0.0121927
-0.0264588
-0.0518778
-0.086912
-0.122662
-0.149693
-0.14721
-0.119698
-0.0737647
-0.0260927
0.00993392
0.0299017
0.0380281
0.0408897
0.0414926
0.0411296
0.0404864
0.0399803
0.0398002
0.0399732
0.0404802
0.0412242
0.0421437
0.0431561
0.0442286
0.0453156
0.0464188
0.0475075
0.0486126
0.0496922
-0.00918365
-0.0102352
-0.0218663
-0.042891
-0.0756636
-0.112732
-0.144422
-0.159885
-0.139903
-0.0995322
-0.0484789
-0.00316582
0.0261159
0.0394547
0.0436932
0.044504
0.0437846
0.0426122
0.041547
0.0408783
0.0406992
0.0409488
0.0415532
0.0423804
0.043354
0.0443925
0.0454662
0.0465371
0.047614
0.0486711
0.0497423
0.0507868
-0.0122537
-0.00872376
-0.0165967
-0.0326869
-0.062124
-0.0980928
-0.133275
-0.155215
-0.154364
-0.120193
-0.0710511
-0.0201366
0.0187371
0.0395213
0.0467701
0.0479273
0.0470104
0.0452177
0.0434717
0.0421925
0.0415305
0.0414766
0.0418792
0.0426184
0.043541
0.0445671
0.0456232
0.0466884
0.047736
0.0487814
0.0498032
0.0508383
0.0518475
-0.0146329
-0.00696613
-0.0108317
-0.0221852
-0.0469334
-0.0801983
-0.116925
-0.144394
-0.152082
-0.135298
-0.0908899
-0.038656
0.00750326
0.0371539
0.0493583
0.0519148
0.0506827
0.0483658
0.0458113
0.0437661
0.0425048
0.0420228
0.042204
0.0428156
0.0437074
0.0447229
0.0457884
0.0468477
0.0478933
0.0489097
0.0499184
0.0509018
0.0519001
0.0528733
-0.0156987
-0.00458663
-0.00468428
-0.0112972
-0.0305136
-0.0600167
-0.0963489
-0.128427
-0.144389
-0.136525
-0.106586
-0.0570633
-0.00662135
0.0312212
0.0506207
0.0557214
0.0549971
0.0519514
0.0485937
0.0456322
0.0435971
0.0425985
0.0424563
0.0429537
0.0438041
0.0448444
0.0459335
0.0470173
0.048063
0.0490771
0.0500544
0.0510219
0.0519659
0.0529265
0.0538638
-0.0130963
-0.00141794
0.00186611
-0.000520999
-0.0132679
-0.038422
-0.0729077
-0.107328
-0.130634
-0.133043
-0.111188
-0.0726764
-0.0227315
0.0214971
0.0487456
0.0591566
0.0589999
0.0560376
0.0517216
0.0477673
0.0448016
0.0431142
0.0426143
0.042935
0.0437946
0.0448804
0.0460403
0.0471716
0.0482486
0.0492628
0.0502339
0.0511657
0.0520901
0.0529939
0.0539169
0.0548194
-0.00635886
0.00408959
0.0086398
0.0104996
0.00399369
-0.0163255
-0.0477861
-0.0828316
-0.111336
-0.123035
-0.111651
-0.0806068
-0.0378042
0.00787134
0.0429489
0.0599317
0.0633078
0.0596344
0.0550738
0.050033
0.0460101
0.043514
0.0425132
0.0427017
0.0435638
0.0447814
0.04606
0.0472929
0.048429
0.0494727
0.0504386
0.0513575
0.0522406
0.0531207
0.0539849
0.0548718
0.0557412
-0.000434813
0.0123728
0.0167577
0.0218165
0.0206166
0.00521836
-0.022315
-0.0563446
-0.0881497
-0.107638
-0.106481
-0.0849493
-0.0506653
-0.00604311
0.0314667
0.0565918
0.0650838
0.0633151
0.0578004
0.05214
0.0469704
0.0435402
0.0420451
0.0420112
0.0430112
0.0444279
0.0459375
0.047339
0.0485892
0.0496909
0.0506768
0.0515812
0.0524428
0.0532758
0.0541124
0.0549392
0.0557922
0.0566299
0.00385078
0.0168248
0.0264041
0.0355397
0.0359042
0.0256247
0.00222168
-0.0295551
-0.0626309
-0.0880413
-0.0966438
-0.0852145
-0.0599462
-0.0221174
0.0178993
0.046659
0.0624468
0.0642393
0.0598103
0.0533148
0.0471834
0.0427161
0.0407089
0.0407019
0.0418364
0.0436877
0.0455595
0.0472558
0.0486974
0.0499072
0.0509387
0.0518476
0.0526828
0.0534852
0.0542693
0.0550654
0.0558579
0.056679
0.0574871
0.00737718
0.0205457
0.0357082
0.0487424
0.0527883
0.0438203
0.0253417
-0.00377593
-0.0367454
-0.0659206
-0.082899
-0.0814814
-0.0664766
-0.0349083
-0.00189312
0.0330169
0.0531644
0.0614293
0.0590105
0.0530987
0.0458699
0.0402325
0.0377218
0.0379099
0.0398418
0.0422663
0.0447798
0.046945
0.0487058
0.0501019
0.0512188
0.0521527
0.0529736
0.0537367
0.0544817
0.0552209
0.0559807
0.0567421
0.0575339
0.0583147
0.0110317
0.0244223
0.042226
0.0583292
0.0663117
0.0634987
0.0454752
0.0204556
-0.0116414
-0.0432845
-0.066617
-0.0745349
-0.0692049
-0.0470416
-0.017976
0.0106562
0.0389086
0.051656
0.0550114
0.0500549
0.0425815
0.0353629
0.0318765
0.0326041
0.0356676
0.0398004
0.0433313
0.0462625
0.0485389
0.0502367
0.0515106
0.0524953
0.0533158
0.0540448
0.0547384
0.0554316
0.0561317
0.0568597
0.0575936
0.0583592
0.0591145
0.0137136
0.0244055
0.0450683
0.0625146
0.0751097
0.0776497
0.066979
0.0411251
0.0121432
-0.0206961
-0.0490532
-0.0654367
-0.06784
-0.0571117
-0.0347442
-0.00795913
0.0153152
0.0369744
0.0445139
0.0437727
0.0364718
0.0279311
0.0224754
0.0230546
0.0279461
0.0348212
0.0407877
0.0449754
0.0480676
0.0502643
0.0517858
0.0528815
0.0537117
0.0544137
0.0550549
0.0556865
0.0563361
0.0570036
0.057705
0.0584153
0.0591568
0.0598879
0.0156924
0.0220539
0.0440621
0.0622532
0.0774787
0.0866358
0.081897
0.0632623
0.0318058
0.00104527
-0.0302
-0.0543471
-0.0645481
-0.064674
-0.0508464
-0.0285751
-0.00476561
0.013171
0.0284495
0.0319585
0.0272807
0.0177672
0.00982524
0.00874593
0.0139274
0.0252409
0.0357324
0.0426478
0.0471048
0.050079
0.0520262
0.0532909
0.0541785
0.0548479
0.0554372
0.0560016
0.0565824
0.0571977
0.0578398
0.0585199
0.0592094
0.0599283
0.0606363
0.0151313
0.0199237
0.0403422
0.0582216
0.0749002
0.0876317
0.0911367
0.079019
0.053566
0.0184886
-0.0127681
-0.0414861
-0.0606571
-0.071198
-0.0661749
-0.0495265
-0.0281086
-0.00704063
0.00575658
0.0151809
0.0140676
0.00505241
-0.00537823
-0.0098282
-0.00475599
0.00782873
0.0256385
0.0379031
0.0452414
0.0495506
0.0521481
0.053733
0.0546999
0.0553734
0.0558914
0.0563829
0.0568863
0.0574294
0.0580207
0.0586448
0.0593074
0.059978
0.0606757
0.0613607
0.0121482
0.0176929
0.0354692
0.0518371
0.0688049
0.0825706
0.0917884
0.0882418
0.070227
0.0387484
0.00147021
-0.0298624
-0.056369
-0.0759368
-0.0799531
-0.071295
-0.0525027
-0.0315448
-0.0128717
-0.0054335
-0.00294362
-0.00960042
-0.0223783
-0.0308145
-0.0283603
-0.0150605
0.00896145
0.0282043
0.04125
0.0483324
0.0520772
0.0541387
0.0553112
0.0559739
0.0564484
0.056837
0.0572522
0.0577137
0.0582335
0.0588109
0.0594227
0.0600707
0.0607234
0.0614
0.0620612
0.0086417
0.0149454
0.0305656
0.0448242
0.0608862
0.0753381
0.0858355
0.0893463
0.0797542
0.0557854
0.0189069
-0.0197715
-0.0514369
-0.0787405
-0.0917724
-0.0912451
-0.0783402
-0.0575422
-0.037045
-0.0213642
-0.020065
-0.0261904
-0.0388916
-0.0527058
-0.0548594
-0.0421776
-0.0153514
0.0123393
0.0328222
0.0455038
0.0515266
0.0544841
0.0559466
0.0567084
0.0570904
0.0573962
0.0576869
0.0580516
0.0584916
0.0590024
0.0595743
0.0601777
0.0608124
0.061447
0.0621014
0.062737
0.00616215
0.0122106
0.0257606
0.0382928
0.0527875
0.0666979
0.078439
0.0851565
0.0825022
0.0667356
0.0357658
-0.00633056
-0.0460656
-0.0794922
-0.101491
-0.109387
-0.102974
-0.0848949
-0.0625351
-0.0430563
-0.032649
-0.0389045
-0.0554279
-0.0717525
-0.0819406
-0.0726916
-0.0472858
-0.011692
0.0177005
0.0392744
0.0498735
0.0545213
0.0566303
0.0575005
0.0578951
0.0580412
0.0582191
0.0584495
0.0587919
0.0592306
0.0597444
0.0603167
0.0609137
0.0615349
0.0621492
0.0627791
0.0633872
0.0047122
0.0100385
0.02145
0.0325448
0.0454251
0.058145
0.0699592
0.0785021
0.0807466
0.0717876
0.0480978
0.00977057
-0.0372163
-0.0776928
-0.108458
-0.124796
-0.125492
-0.111807
-0.0889468
-0.0663467
-0.0497816
-0.0478902
-0.0633625
-0.0890668
-0.104136
-0.105274
-0.0800132
-0.0440696
-0.00523367
0.0274824
0.0458143
0.0538508
0.0571296
0.0584281
0.0587652
0.0588588
0.0588302
0.0589286
0.0591394
0.0594874
0.0599423
0.060468
0.0610437
0.0616339
0.0622386
0.0628292
0.0634322
0.0640098
0.00388939
0.00835112
0.0180034
0.0276798
0.0389423
0.0504342
0.0614961
0.0708045
0.0756833
0.072494
0.0559405
0.0234479
-0.021968
-0.0728131
-0.110589
-0.136374
-0.144455
-0.135948
-0.115232
-0.0896046
-0.0691021
-0.059053
-0.0683282
-0.0930171
-0.122671
-0.130136
-0.11834
-0.0788163
-0.0330389
0.00874464
0.0375681
0.0516094
0.0571949
0.059242
0.0598425
0.0597338
0.0596023
0.0594718
0.0595455
0.0597758
0.0601544
0.0606385
0.0611811
0.0617596
0.0623393
0.062923
0.063486
0.0640584
0.0646023
0.00330378
0.00717538
0.015324
0.0236697
0.0334658
0.0436169
0.0538346
0.0628429
0.0692959
0.0698468
0.0599395
0.0346493
-0.00672668
-0.0576797
-0.109421
-0.141241
-0.158259
-0.155801
-0.138247
-0.112331
-0.0875446
-0.071377
-0.072798
-0.0952578
-0.123284
-0.150873
-0.14345
-0.115186
-0.0662333
-0.0155998
0.0238021
0.0465205
0.0562464
0.0597999
0.0608199
0.0608634
0.0604171
0.0601487
0.0599955
0.0600954
0.0603809
0.0608098
0.0613305
0.0618901
0.0624666
0.0630294
0.0635868
0.064117
0.0646549
0.0651621
0.00286487
0.00631955
0.0132677
0.0204492
0.0289289
0.0378707
0.0469901
0.0555526
0.0623024
0.0653995
0.0606713
0.0428396
0.0085199
-0.0403342
-0.0938818
-0.141767
-0.16606
-0.169201
-0.156259
-0.131714
-0.104188
-0.0827861
-0.0769021
-0.0937843
-0.122716
-0.150726
-0.168335
-0.142016
-0.0995986
-0.0450197
0.00428862
0.0373266
0.053522
0.0596067
0.0616792
0.0618618
0.061486
0.06085
0.0605281
0.0604307
0.060609
0.0609783
0.0614698
0.0620279
0.0625983
0.0631643
0.0637028
0.0642269
0.0647191
0.0652187
0.0656866
0.00253371
0.00567825
0.0116863
0.0179083
0.0252497
0.0330794
0.0412069
0.048993
0.0557258
0.059944
0.0590708
0.0480175
0.0217972
-0.0204096
-0.0737639
-0.125653
-0.166166
-0.177664
-0.16745
-0.145535
-0.117326
-0.0919925
-0.0799243
-0.091049
-0.115346
-0.148105
-0.170142
-0.170998
-0.127128
-0.074519
-0.0198658
0.0232416
0.0480251
0.0582687
0.0618566
0.0629033
0.062384
0.0617326
0.0610638
0.0607929
0.0608204
0.0611194
0.0615914
0.0621482
0.0627358
0.063306
0.0638509
0.0643556
0.0648394
0.0652889
0.0657471
0.0661731
0.00228785
0.00518391
0.0104683
0.0159095
0.0223045
0.029164
0.0363587
0.043425
0.0497525
0.0544784
0.0558634
0.0503278
0.0324087
-0.00129071
-0.0488099
-0.102713
-0.146314
-0.17775
-0.171559
-0.152661
-0.125272
-0.098307
-0.0821203
-0.0866843
-0.105725
-0.136803
-0.165972
-0.17418
-0.156565
-0.101279
-0.0454103
0.00467977
0.0386482
0.0551193
0.0611557
0.0632667
0.0634409
0.0624481
0.0616822
0.0611151
0.0609994
0.0612103
0.0616603
0.0622403
0.0628537
0.0634554
0.0640108
0.0645214
0.0649827
0.06542
0.065823
0.0662369
0.0666193
0.00209761
0.00480607
0.00952039
0.0143454
0.0199579
0.0259981
0.0323741
0.0387325
0.0446361
0.0493829
0.0519808
0.050212
0.0396182
0.0155586
-0.0236621
-0.072518
-0.122189
-0.15217
-0.170331
-0.151592
-0.127232
-0.100474
-0.0831883
-0.0796926
-0.0941599
-0.122478
-0.153368
-0.171192
-0.161195
-0.129201
-0.0716578
-0.0170562
0.0251739
0.0490695
0.0590727
0.0626977
0.063837
0.0632516
0.0621265
0.0614109
0.0610758
0.0612073
0.0616479
0.0622615
0.0629386
0.0635886
0.0641838
0.0647061
0.0651693
0.0655788
0.0659645
0.066318
0.0666857
0.0670237
0.0019602
0.00450651
0.00878922
0.0131148
0.0181006
0.023451
0.029127
0.0348517
0.040293
0.0449415
0.0480562
0.0484546
0.0433808
0.0281799
-0.000604941
-0.0424277
-0.0873005
-0.127646
-0.14436
-0.146974
-0.122143
-0.0976324
-0.0798033
-0.0704442
-0.0803068
-0.104895
-0.137099
-0.16058
-0.162972
-0.136774
-0.0962646
-0.041314
0.00717002
0.039337
0.0547225
0.060838
0.0631607
0.0634074
0.0624775
0.0614763
0.0610069
0.061034
0.0614838
0.0621781
0.062945
0.0636912
0.0643493
0.0649124
0.0653832
0.0657873
0.0661382
0.0664685
0.0667709
0.0670916
0.0673851
0.00184783
0.0042842
0.0082144
0.0121548
0.0166271
0.0214157
0.0264936
0.0316655
0.0366705
0.0411266
0.0444923
0.0459926
0.0442485
0.0361242
0.0170342
-0.0152975
-0.0538274
-0.0910273
-0.118159
-0.122834
-0.113862
-0.0900198
-0.0711475
-0.0589685
-0.0641529
-0.084932
-0.115667
-0.144826
-0.156339
-0.142688
-0.107569
-0.0630718
-0.0150601
0.0244939
0.0468699
0.0569137
0.0611415
0.0625638
0.062171
0.061261
0.0606066
0.060587
0.0610836
0.0618976
0.0628332
0.0637192
0.0644939
0.0651244
0.065629
0.0660319
0.0663675
0.0666552
0.0669283
0.0671797
0.0674537
0.0677033
0.00177888
0.00410047
0.00778105
0.0113971
0.015468
0.019788
0.0243717
0.0290604
0.0336708
0.037901
0.0413577
0.0434764
0.0434943
0.0398317
0.0292207
0.0067008
-0.0230301
-0.0551046
-0.0833384
-0.0965829
-0.0915709
-0.0780544
-0.0585371
-0.0444104
-0.047104
-0.0634141
-0.0918449
-0.122212
-0.142824
-0.140889
-0.116288
-0.0824947
-0.0331666
0.00339293
0.0343026
0.0492895
0.0569289
0.0601653
0.0608716
0.0602857
0.059694
0.0596709
0.0602809
0.0613222
0.0624999
0.0636307
0.0645795
0.0653312
0.0658967
0.0663196
0.0666417
0.0669026
0.0671252
0.0673417
0.0675433
0.0677716
0.0679786
0.00171224
0.00398359
0.00743439
0.0108189
0.0145495
0.0184973
0.0226618
0.0269435
0.0311942
0.035198
0.038644
0.0411379
0.0421289
0.0409231
0.0357219
0.0235929
0.00275964
-0.0202889
-0.0477603
-0.0650869
-0.0666702
-0.0568971
-0.0407302
-0.028891
-0.0285819
-0.0421404
-0.0667608
-0.0972715
-0.122842
-0.132196
-0.119519
-0.0959656
-0.0577558
-0.0131511
0.0136229
0.0378954
0.0487099
0.0553427
0.0577983
0.0580831
0.0577999
0.0579653
0.0588432
0.0602308
0.061837
0.0633226
0.0645659
0.0655046
0.0661792
0.0666463
0.0669694
0.0672023
0.0673866
0.0675453
0.0677071
0.0678612
0.0680457
0.0682116
0.00169258
0.0038727
0.00720021
0.0103599
0.0138426
0.0174691
0.0212953
0.0252234
0.0291628
0.0329365
0.0363263
0.0390181
0.0406459
0.040711
0.0386308
0.0326436
0.020996
0.00476473
-0.0154322
-0.0330038
-0.0395693
-0.0338449
-0.0223553
-0.00779265
-0.0108268
-0.0204993
-0.0427361
-0.0713249
-0.0993647
-0.117195
-0.116687
-0.103186
-0.0735665
-0.0436311
-0.00363921
0.0170951
0.0370952
0.0464385
0.0520604
0.0538736
0.0542867
0.0549601
0.0563107
0.0583343
0.060581
0.062677
0.0643612
0.0656101
0.0664602
0.0670094
0.0673522
0.0675644
0.0677057
0.0678153
0.0679135
0.0680243
0.0681342
0.068277
0.0684037
0.00166076
0.00383761
0.0070004
0.0100411
0.0132833
0.0166716
0.0202002
0.0238377
0.0274958
0.0310596
0.034348
0.0371476
0.0391591
0.0400709
0.0394862
0.0369904
0.0313937
0.0214664
0.00826899
-0.00657485
-0.0127947
-0.0114927
-0.0023013
0.00726944
0.0144124
-0.00130113
-0.019347
-0.0465204
-0.075313
-0.0983261
-0.10786
-0.102916
-0.0865467
-0.0611351
-0.0377535
-0.00260768
0.0158645
0.0336157
0.0422453
0.0466233
0.0482959
0.0497336
0.0520705
0.0550293
0.0583905
0.0614232
0.0638494
0.0655758
0.0667144
0.067405
0.067792
0.067995
0.0680935
0.0681465
0.0681867
0.0682299
0.0682942
0.0683633
0.068467
0.0685562
0.00378348
0.00691741
0.00977992
0.012888
0.0160403
0.0193446
0.0227193
0.0261409
0.0295
0.0326794
0.0354989
0.0377643
0.039209
0.0396022
0.0387165
0.0363448
0.0317832
0.0241066
0.0154951
0.00919263
0.00884108
0.0149402
0.0241719
0.0282271
0.025851
0.000261314
-0.0226399
-0.0517503
-0.078014
-0.0954178
-0.0980539
-0.0939901
-0.0783942
-0.0566504
-0.0365443
-0.00699078
0.0125985
0.02809
0.0352598
0.0386269
0.0412871
0.044824
0.0494856
0.0545526
0.0591795
0.062779
0.0652988
0.0668953
0.0678182
0.0682958
0.0684995
0.0685596
0.0685495
0.068522
0.0685007
0.0684957
0.0685186
0.0685506
0.0686173
0.0686707
0.00682748
0.0096598
0.0125716
0.0155884
0.0186657
0.021839
0.025038
0.0282189
0.0312697
0.0340753
0.0364669
0.0382806
0.0393064
0.0394179
0.0385779
0.0367304
0.0334931
0.0290271
0.0253934
0.0246648
0.0287366
0.0363773
0.0427541
0.0396846
0.0272703
-0.00415546
-0.0287104
-0.0568669
-0.0804408
-0.0913164
-0.0989562
-0.0925847
-0.0773921
-0.0562664
-0.0417343
-0.0117839
0.00709943
0.0192513
0.0246959
0.0281638
0.0335346
0.0399917
0.0479818
0.0551859
0.0607706
0.064567
0.0669213
0.0682293
0.0688581
0.0690937
0.0691109
0.0690361
0.0689292
0.0688326
0.0687595
0.0687135
0.0687
0.068698
0.0687297
0.0687484
0.0095463
0.012417
0.0152316
0.018175
0.0211377
0.024163
0.0271651
0.030096
0.0328445
0.0353053
0.0373299
0.0387969
0.0395729
0.0396408
0.0390998
0.0380287
0.0364777
0.0351431
0.0352624
0.0383753
0.0443537
0.0507714
0.0527009
0.0422713
0.0216922
-0.012309
-0.0369266
-0.0634439
-0.0837472
-0.100649
-0.104158
-0.0961354
-0.0801973
-0.0575887
-0.0443195
-0.0176245
-0.00221944
0.00580076
0.010335
0.0159688
0.0250957
0.0363947
0.0484055
0.0571418
0.0630316
0.0666369
0.0685801
0.0694838
0.0697784
0.0697694
0.0696134
0.0694207
0.0692334
0.0690812
0.0689666
0.0688867
0.0688413
0.0688078
0.0688058
0.0687905
0.0122829
0.0150503
0.0177903
0.0206265
0.0234621
0.0263215
0.0291179
0.0318017
0.0342682
0.0364273
0.0381616
0.039401
0.0400913
0.0403097
0.0402441
0.0401297
0.0402671
0.0412779
0.0440311
0.0489467
0.0546143
0.0580489
0.0550641
0.0383887
0.0119181
-0.0228974
-0.0486283
-0.0750799
-0.0984739
-0.111934
-0.112956
-0.102638
-0.0836402
-0.0621273
-0.0454387
-0.0276494
-0.017146
-0.0127723
-0.00701996
0.002151
0.0169731
0.0358409
0.0504709
0.0600922
0.0657521
0.0687784
0.0701323
0.0705782
0.070539
0.0703061
0.0700024
0.069715
0.0694666
0.069273
0.0691269
0.0690192
0.0689453
0.068882
0.0688467
0.0687973
0.0149014
0.0175896
0.0202271
0.022947
0.0256409
0.0283267
0.0309182
0.0333686
0.035584
0.0374959
0.0390259
0.0401542
0.0408985
0.0414079
0.0419359
0.0427829
0.0442625
0.0468665
0.0509413
0.0559344
0.0602703
0.0596544
0.0516834
0.0300471
-0.00174481
-0.0373637
-0.0662716
-0.0952059
-0.116438
-0.126753
-0.124117
-0.108614
-0.0865241
-0.0631624
-0.0510222
-0.0438581
-0.0384168
-0.0356846
-0.0255954
-0.010906
0.0152701
0.0378734
0.0541779
0.0637809
0.0685966
0.0707718
0.0714591
0.0714565
0.0711185
0.0706989
0.0702811
0.0699255
0.0696359
0.0694147
0.0692457
0.0691152
0.069015
0.0689223
0.0688532
0.0687687
0.0174307
0.0200146
0.0225449
0.0251367
0.0276824
0.0301945
0.0325905
0.034829
0.0368326
0.038559
0.0399685
0.0410867
0.0419923
0.042878
0.0440164
0.0456763
0.0481054
0.0515393
0.055827
0.0601699
0.062147
0.057381
0.0442047
0.0174381
-0.0202777
-0.0576931
-0.0913528
-0.119533
-0.137042
-0.142734
-0.132667
-0.111549
-0.0861576
-0.0659586
-0.0634379
-0.0676543
-0.0653122
-0.0602754
-0.0418855
-0.0133636
0.0177397
0.0423969
0.0592397
0.0676691
0.0712172
0.0724464
0.0724859
0.0720913
0.0715125
0.0709534
0.0704589
0.0700625
0.0697508
0.0695139
0.0693289
0.0691786
0.0690525
0.0689294
0.0688255
0.0687041
0.0198506
0.0223278
0.0247426
0.0272013
0.0295986
0.0319433
0.0341589
0.0362135
0.0380504
0.0396515
0.0410144
0.0422021
0.0433348
0.0446162
0.0462899
0.0485595
0.051538
0.0551696
0.0589953
0.061972
0.060676
0.0519233
0.0328372
-0.000225638
-0.0449033
-0.0844048
-0.120812
-0.144959
-0.156973
-0.15392
-0.1353
-0.109758
-0.0858605
-0.0762015
-0.0835394
-0.0984541
-0.0945833
-0.0817002
-0.0504897
-0.0110062
0.0227225
0.0495994
0.0647174
0.0712072
0.073344
0.0737034
0.0731847
0.0724816
0.0717312
0.0710839
0.0705504
0.0701392
0.0698217
0.0695786
0.0693818
0.0692124
0.0690591
0.0689036
0.0687628
0.0686019
0.0221631
0.0245271
0.0268239
0.0291497
0.0314032
0.0335913
0.0356466
0.0375502
0.0392642
0.0407942
0.0421701
0.0434781
0.0448583
0.0464959
0.0485784
0.0512206
0.0543838
0.0577508
0.0606496
0.0612571
0.0566493
0.0431102
0.0167235
-0.0237016
-0.0756833
-0.114955
-0.14978
-0.167832
-0.169895
-0.156301
-0.131477
-0.106427
-0.0906105
-0.095365
-0.110975
-0.131964
-0.11981
-0.094136
-0.0501754
-0.00606514
0.0329436
0.0576226
0.0696485
0.0739924
0.0748224
0.0744959
0.0735638
0.0726457
0.0717958
0.0711107
0.070573
0.0701692
0.0698596
0.0696164
0.0694088
0.0692189
0.0690356
0.0688442
0.0686637
0.0684604
0.0243657
0.0266155
0.0287956
0.0309925
0.03311
0.0351562
0.0370756
0.0388601
0.0404914
0.0419953
0.0434235
0.0448719
0.0464793
0.0483921
0.0507269
0.0534929
0.0565223
0.059227
0.0606902
0.0585905
0.0500866
0.0302157
-0.00465776
-0.0524175
-0.109435
-0.144831
-0.173327
-0.181672
-0.171554
-0.14986
-0.124708
-0.105266
-0.105138
-0.123487
-0.14218
-0.16115
-0.133739
-0.0938467
-0.0410908
0.00783384
0.0444168
0.0649081
0.0734082
0.0759255
0.0756335
0.0748425
0.0736532
0.072615
0.0717344
0.0710576
0.0705473
0.0701684
0.069875
0.0696336
0.0694134
0.0691989
0.0689812
0.0687496
0.0685259
0.068277
0.0264606
0.0285985
0.0306661
0.0327404
0.0347329
0.0366554
0.0384625
0.0401579
0.0417406
0.0432491
0.0447479
0.0463291
0.0481126
0.0501927
0.0526101
0.0552578
0.057848
0.059531
0.0591426
0.0540567
0.0402874
0.0129376
-0.0304961
-0.0836147
-0.140055
-0.16841
-0.185827
-0.180416
-0.162259
-0.138856
-0.11798
-0.113992
-0.129819
-0.156063
-0.172059
-0.179453
-0.133051
-0.0811468
-0.0243042
0.0236399
0.0548994
0.0704471
0.0758508
0.0771242
0.0759378
0.0748079
0.0734969
0.0724292
0.0715796
0.0709518
0.0704931
0.0701511
0.0698769
0.0696351
0.0693971
0.0691519
0.0688943
0.0686176
0.0683466
0.0680489
0.0284525
0.0304832
0.0324439
0.0344043
0.0362858
0.0381025
0.0398197
0.0414521
0.0430106
0.0445401
0.0461087
0.0477921
0.0496798
0.0518064
0.0541363
0.0564425
0.0583103
0.0587067
0.0561147
0.0472046
0.0272069
-0.0079325
-0.0580779
-0.111519
-0.162113
-0.177522
-0.181574
-0.166638
-0.14655
-0.12688
-0.120779
-0.134363
-0.158426
-0.187343
-0.19352
-0.183514
-0.119395
-0.0601174
-0.00459508
0.0379129
0.0630615
0.073774
0.0771713
0.0774185
0.0758153
0.0744649
0.0731514
0.0721316
0.0713667
0.0708205
0.07043
0.0701298
0.0698721
0.0696234
0.0693593
0.0690762
0.0687718
0.0684453
0.0681225
0.0677732
0.0303477
0.0322768
0.034138
0.035996
0.0377799
0.0395078
0.0411555
0.0427442
0.0442926
0.0458464
0.0474675
0.0492066
0.0511166
0.0531681
0.0552501
0.0570291
0.0579503
0.0568161
0.0515837
0.0381516
0.0116763
-0.0300745
-0.0828009
-0.128405
-0.170883
-0.170745
-0.163183
-0.14702
-0.131355
-0.124215
-0.13684
-0.158223
-0.187983
-0.209367
-0.198586
-0.171711
-0.0975712
-0.0369055
0.0138441
0.0492389
0.0681238
0.0751387
0.0773564
0.07686
0.0752831
0.0738889
0.07267
0.0717685
0.071132
0.0706905
0.0703755
0.0701145
0.0698645
0.0695981
0.0692978
0.0689682
0.0686102
0.0682288
0.0678504
0.0674463
0.0321528
0.0339872
0.0357583
0.0375247
0.0392242
0.0408794
0.0424729
0.0440303
0.045574
0.0471434
0.0487876
0.0505273
0.0523759
0.0542399
0.0559398
0.0570454
0.0568588
0.0539584
0.0457575
0.0277257
-0.00488394
-0.0494663
-0.0989043
-0.131208
-0.162467
-0.150779
-0.139765
-0.129907
-0.124845
-0.134126
-0.155788
-0.185657
-0.213172
-0.216226
-0.186121
-0.146869
-0.0740667
-0.0164442
0.0283383
0.0564782
0.0702987
0.0752743
0.0766362
0.0759184
0.0744487
0.073154
0.0721131
0.0713875
0.0709112
0.0705861
0.0703436
0.0701109
0.0698543
0.0695566
0.0692084
0.0688233
0.0684052
0.0679642
0.0675272
0.0670642
0.0338747
0.0356234
0.037313
0.0389983
0.0406262
0.0422212
0.0437712
0.0453035
0.0468392
0.0484065
0.0500378
0.051721
0.0534308
0.0550132
0.0562301
0.0565589
0.0551627
0.0504045
0.0392897
0.0163297
-0.0201641
-0.0613419
-0.101975
-0.122432
-0.140606
-0.126125
-0.121562
-0.120057
-0.125767
-0.148576
-0.179502
-0.211479
-0.226024
-0.206811
-0.16275
-0.117087
-0.0531346
-0.000896935
0.0375915
0.0598527
0.0704417
0.0746346
0.0755223
0.0747319
0.0734162
0.0723311
0.0715411
0.0710354
0.0707373
0.0705272
0.0703431
0.0701202
0.0698382
0.0694935
0.0690852
0.0686361
0.0681522
0.0676479
0.0671508
0.0666262
0.0355221
0.0371927
0.038809
0.0404241
0.0419904
0.0435343
0.0450472
0.0465548
0.0480726
0.0496148
0.0511955
0.0527689
0.0542755
0.0555067
0.0561783
0.055686
0.0530905
0.0465659
0.032416
0.00492843
-0.028613
-0.0636009
-0.0920186
-0.103067
-0.112284
-0.106769
-0.106423
-0.113486
-0.135974
-0.167825
-0.200956
-0.225391
-0.218952
-0.183534
-0.138181
-0.0905004
-0.0375872
0.00892744
0.0417788
0.0606055
0.069412
0.0735596
0.0740699
0.0733041
0.0722715
0.0714935
0.0710151
0.0707579
0.0706387
0.0705272
0.0703762
0.0701384
0.0698091
0.0694012
0.0689214
0.0684009
0.0678465
0.0672766
0.0667172
0.0661323
0.0371015
0.0387016
0.0402535
0.0418067
0.043319
0.0448184
0.0462966
0.0477745
0.0492604
0.0507536
0.0522477
0.053668
0.0549247
0.0557686
0.0558784
0.0546059
0.0509421
0.0428249
0.0256685
0.00129247
-0.0286004
-0.0559848
-0.0724299
-0.0783746
-0.0843303
-0.0883825
-0.0959858
-0.119352
-0.150258
-0.185991
-0.212467
-0.21969
-0.196504
-0.157894
-0.120957
-0.0702327
-0.0291266
0.0136478
0.0423887
0.0602683
0.0683728
0.0719244
0.0722817
0.0717343
0.0711011
0.070718
0.0705962
0.0705959
0.0706354
0.0705903
0.0704377
0.0701558
0.0697569
0.0692704
0.0687093
0.0681118
0.0674839
0.0668471
0.0662223
0.0655788
0.0386195
0.040157
0.0416509
0.043149
0.0446136
0.0460719
0.0475138
0.0489544
0.0503935
0.0518146
0.0531929
0.0544307
0.0554144
0.055874
0.0554641
0.0535408
0.049036
0.0400014
0.0236883
0.00391106
-0.0215402
-0.0397174
-0.0479634
-0.0541085
-0.0590193
-0.0773292
-0.0981593
-0.129116
-0.16403
-0.195512
-0.209746
-0.200707
-0.172468
-0.142428
-0.109459
-0.0594423
-0.0270584
0.015242
0.0415174
0.0589847
0.0668106
0.0698047
0.0702617
0.0701136
0.0700008
0.0700858
0.0703418
0.0705801
0.0707351
0.0707106
0.0705155
0.0701587
0.0696693
0.0690912
0.0684416
0.0677637
0.0670606
0.0663577
0.0656673
0.0649656
0.0400825
0.0415633
0.0430049
0.0444536
0.0458746
0.0472923
0.0486941
0.0500892
0.0514667
0.0527976
0.0540411
0.055085
0.0558002
0.055919
0.0550954