/*--------------------------------*- C++ -*----------------------------------*\
| =========                 |                                                 |
| \\      /  F ield         | OpenFOAM: The Open Source CFD Toolbox           |
|  \\    /   O peration     | Version:  2506                                  |
|   \\  /    A nd           | Website:  www.openfoam.com                      |
|    \\/     M anipulation  |                                                 |
\*---------------------------------------------------------------------------*/
FoamFile
{
    version     2.0;
    format      ascii;
    arch        "LSB;label=32;scalar=64";
    class       surfaceScalarField;
    location    "170.004218234212004";
    object      phi_0;
}
// * * * * * * * * * * * * * * * * * * * * * * * * * * * * * * * * * * * * * //

dimensions      [0 3 -1 0 0 0 0];

oriented        oriented;

internalField   nonuniform List<scalar> 
19160
(
-0.000377397
-0.231619
-0.000751458
-0.231603
-0.000366949
-0.231252
-0.00111575
-0.231607
-0.000729627
-0.23124
-0.000367196
-0.230885
-0.00146811
-0.231583
-0.00108427
-0.231252
-0.00073062
-0.230877
-0.000368607
-0.230516
-0.00179819
-0.231578
-0.00142605
-0.231241
-0.00108781
-0.230895
-0.000734517
-0.230511
-0.000372814
-0.230143
-0.00210008
-0.231562
-0.00174751
-0.231257
-0.00143372
-0.230895
-0.00109596
-0.230533
-0.000744365
-0.230139
-0.00037823
-0.229765
-0.00235901
-0.231533
-0.00204093
-0.231268
-0.00176321
-0.230927
-0.0014492
-0.230542
-0.00111362
-0.230164
-0.000756775
-0.229761
-0.000383242
-0.229382
-0.00256022
-0.231529
-0.00229348
-0.23128
-0.00206885
-0.230963
-0.00179061
-0.230586
-0.00147861
-0.230177
-0.00113535
-0.229786
-0.000768342
-0.229376
-0.000387194
-0.228995
-0.00267997
-0.231506
-0.00249044
-0.231332
-0.00234066
-0.231008
-0.00211475
-0.230638
-0.00183756
-0.230227
-0.00151407
-0.229798
-0.0011558
-0.229398
-0.000777585
-0.228985
-0.000389023
-0.228606
-0.0026901
-0.231518
-0.00260849
-0.231388
-0.0025654
-0.231107
-0.00241454
-0.230708
-0.00218759
-0.230288
-0.00189303
-0.229848
-0.00154777
-0.229406
-0.00117243
-0.229003
-0.000782249
-0.228592
-0.000387261
-0.228218
-0.00254566
-0.23153
-0.00261903
-0.231507
-0.00272327
-0.23123
-0.00268007
-0.230841
-0.00252514
-0.230371
-0.00227233
-0.229909
-0.00194623
-0.22945
-0.00157567
-0.229003
-0.00118158
-0.228604
-0.000779294
-0.2282
-0.000381961
-0.227837
-0.00219581
-0.231554
-0.00247675
-0.231672
-0.00279035
-0.23144
-0.00289765
-0.231012
-0.00284497
-0.230522
-0.00265228
-0.229991
-0.00235426
-0.229501
-0.00199101
-0.229034
-0.00159236
-0.228592
-0.00117847
-0.228205
-0.000768777
-0.227813
-0.00037273
-0.227464
-0.00157082
-0.231602
-0.00212783
-0.231903
-0.00272801
-0.231735
-0.00304763
-0.23129
-0.00313999
-0.230717
-0.0030329
-0.230141
-0.00277601
-0.229569
-0.00242418
-0.229068
-0.00201962
-0.228607
-0.00159095
-0.22818
-0.00116306
-0.22781
-0.000749902
-0.227436
-0.000359937
-0.227104
-0.000599345
-0.231606
-0.00150619
-0.232224
-0.00248717
-0.232143
-0.00309979
-0.231682
-0.00339941
-0.231031
-0.00341476
-0.230336
-0.00321691
-0.2297
-0.00288274
-0.229111
-0.00247116
-0.228616
-0.00202263
-0.228175
-0.00157115
-0.227772
-0.00113411
-0.227426
-0.000723448
-0.227073
-0.000343576
-0.22676
0.00090002
-0.231568
-0.000539447
-0.232573
-0.00202125
-0.23269
-0.00301922
-0.232224
-0.00360657
-0.231475
-0.00379728
-0.230648
-0.00368514
-0.229867
-0.00337703
-0.229206
-0.00295725
-0.228624
-0.00248258
-0.228156
-0.00199923
-0.227747
-0.0015312
-0.227375
-0.00109283
-0.227057
-0.000689479
-0.226727
-0.000325083
-0.226435
0.00325106
-0.231965
0.00108456
-0.233192
-0.00125765
-0.233336
-0.00278151
-0.232927
-0.00374397
-0.232087
-0.00417946
-0.231093
-0.00419089
-0.230142
-0.00392199
-0.229322
-0.00349204
-0.228671
-0.00298271
-0.228124
-0.00245674
-0.227699
-0.00194707
-0.227331
-0.00147286
-0.226995
-0.00103945
-0.226707
-0.000650981
-0.226401
-0.00030553
-0.22613
0.00685774
-0.232675
0.00389237
-0.234773
0.000172196
-0.234622
-0.00231787
-0.2338
-0.00381475
-0.232857
-0.00456398
-0.231702
-0.00474941
-0.230535
-0.0045376
-0.229527
-0.00409566
-0.228719
-0.00353952
-0.228114
-0.00295605
-0.227625
-0.00239058
-0.227255
-0.00186854
-0.226936
-0.0013967
-0.226637
-0.000978682
-0.226379
-0.000610233
-0.226096
-0.000285702
-0.225844
0.0117135
-0.232616
0.0084882
-0.237271
0.00289355
-0.237494
-0.00124857
-0.235691
-0.00377085
-0.233844
-0.00497826
-0.232442
-0.00538279
-0.231069
-0.00525367
-0.229818
-0.00479567
-0.228827
-0.00417627
-0.228082
-0.00351441
-0.227556
-0.00287336
-0.227142
-0.00228731
-0.226837
-0.00176482
-0.226567
-0.00130948
-0.226306
-0.000914219
-0.226075
-0.000568954
-0.225813
-0.000267364
-0.225577
0.017262
-0.22984
0.014834
-0.238961
0.00748783
-0.241865
0.00109554
-0.239839
-0.0032763
-0.236185
-0.0054146
-0.233408
-0.00613633
-0.231689
-0.00610811
-0.230214
-0.00563297
-0.228981
-0.004925
-0.228078
-0.00415583
-0.227441
-0.0034117
-0.227017
-0.00273892
-0.226691
-0.0021491
-0.226452
-0.00164518
-0.226232
-0.00121667
-0.226004
-0.000848948
-0.225795
-0.000530821
-0.225549
-0.000251679
-0.225325
0.0228407
-0.223368
0.0222524
-0.237258
0.0138398
-0.245313
0.00525733
-0.246027
-0.00171925
-0.241396
-0.00566376
-0.235936
-0.00705938
-0.232485
-0.00715567
-0.230641
-0.00665661
-0.229191
-0.00583297
-0.228073
-0.00491347
-0.22732
-0.00402808
-0.226824
-0.00323722
-0.226519
-0.00255647
-0.226283
-0.00198838
-0.226109
-0.00151737
-0.225931
-0.00112276
-0.22573
-0.000788703
-0.225537
-0.000498291
-0.225303
-0.000239253
-0.225086
0.027691
-0.212817
0.0302057
-0.231321
0.0212906
-0.244709
0.0111467
-0.251203
0.00138219
-0.249128
-0.00525499
-0.241804
-0.00813335
-0.234862
-0.00850097
-0.231139
-0.00792292
-0.229375
-0.00695607
-0.228068
-0.00583591
-0.227151
-0.00475356
-0.226595
-0.00380105
-0.22626
-0.00299704
-0.226079
-0.0023425
-0.225929
-0.00181597
-0.225811
-0.00138811
-0.225666
-0.00103617
-0.225483
-0.000737464
-0.225298
-0.000472709
-0.225069
-0.000231173
-0.224854
0.0312108
-0.198847
0.0380044
-0.220616
0.029484
-0.239515
0.0182159
-0.251778
0.00606084
-0.255881
-0.00374142
-0.250642
-0.00912459
-0.240813
-0.0103352
-0.233028
-0.009568
-0.229494
-0.00834778
-0.227983
-0.00698169
-0.226922
-0.00563298
-0.226271
-0.00445659
-0.225939
-0.0034843
-0.225773
-0.00271303
-0.225708
-0.00211193
-0.225633
-0.00164163
-0.225557
-0.00126904
-0.225433
-0.000962816
-0.225257
-0.000697523
-0.225073
-0.000456328
-0.224844
-0.000227613
-0.224627
0.0329705
-0.182189
0.0450486
-0.205891
0.0378072
-0.228939
0.0263037
-0.247603
0.0119308
-0.257648
-0.000809597
-0.258813
-0.00963271
-0.250134
-0.0127255
-0.238423
-0.0119565
-0.23064
-0.0101427
-0.227699
-0.00840073
-0.226564
-0.00672271
-0.225832
-0.00524083
-0.225487
-0.00403747
-0.225386
-0.00310689
-0.225379
-0.00240561
-0.225414
-0.00187878
-0.225396
-0.00148109
-0.225345
-0.00116856
-0.225227
-0.000906317
-0.225049
-0.000672432
-0.224857
-0.000449553
-0.224622
-0.000228578
-0.224398
0.0324319
-0.164439
0.0509412
-0.188081
0.0458432
-0.213927
0.0348817
-0.237517
0.0190365
-0.254708
0.00326625
-0.261724
-0.00897893
-0.259467
-0.0153617
-0.247498
-0.0154588
-0.234921
-0.0128021
-0.22798
-0.0101994
-0.225901
-0.00806946
-0.225217
-0.00620268
-0.22487
-0.00468264
-0.224842
-0.00353492
-0.224958
-0.00269665
-0.225088
-0.0020946
-0.225199
-0.00166407
-0.225213
-0.00134613
-0.225167
-0.0010922
-0.225041
-0.000871773
-0.224849
-0.000662903
-0.224644
-0.000452397
-0.224398
-0.000233174
-0.224165
0.0296964
-0.147472
0.0556382
-0.169136
0.0532175
-0.195456
0.0435317
-0.222577
0.0269308
-0.245411
0.00862509
-0.260067
-0.0069815
-0.263722
-0.0174265
-0.257402
-0.0198974
-0.243059
-0.016974
-0.230749
-0.0128368
-0.225343
-0.00973993
-0.22423
-0.00738473
-0.224035
-0.0054566
-0.224096
-0.00401068
-0.224366
-0.00298669
-0.224668
-0.00228133
-0.224901
-0.00180796
-0.225055
-0.0014841
-0.225075
-0.00124496
-0.225015
-0.00104697
-0.224866
-0.000860349
-0.224652
-0.00066894
-0.224427
-0.000463024
-0.224168
-0.000240835
-0.223924
0.0267829
-0.0900265
0.0590334
-0.150867
0.0595976
-0.175516
0.0517226
-0.203647
0.035223
-0.230869
0.0150861
-0.251872
-0.00388296
-0.263166
-0.0178125
-0.263336
-0.0245172
-0.252782
-0.0227451
-0.237288
-0.0171699
-0.226416
-0.0120965
-0.222986
-0.00882055
-0.222794
-0.00639405
-0.223098
-0.00455565
-0.223551
-0.00327602
-0.224077
-0.00243107
-0.224518
-0.00189796
-0.224811
-0.00156805
-0.224971
-0.0013509
-0.224969
-0.00118706
-0.224875
-0.00103473
-0.224692
-0.000872034
-0.224449
-0.00068768
-0.224203
-0.000480175
-0.223929
-0.000250358
-0.223674
0.0240606
-0.0847892
0.0597227
-0.0907158
0.0646365
-0.155906
0.0592077
-0.183001
0.0434332
-0.211857
0.022145
-0.237928
0.000351494
-0.256106
-0.0171413
-0.263837
-0.0279756
-0.259877
-0.0294445
-0.246083
-0.0237047
-0.230753
-0.0160435
-0.222469
-0.0107276
-0.221079
-0.00751069
-0.221678
-0.00519095
-0.222463
-0.00356934
-0.223258
-0.00253087
-0.223977
-0.00191688
-0.224499
-0.00157704
-0.224802
-0.00139231
-0.224929
-0.00127727
-0.224879
-0.00117538
-0.224734
-0.00105546
-0.224508
-0.000902784
-0.224234
-0.000716977
-0.223966
-0.000501265
-0.223678
-0.000259948
-0.223414
0.0221032
-0.0806122
0.0599397
-0.0850062
0.0667008
-0.09278
0.065453
-0.162151
0.0513263
-0.190894
0.0295562
-0.219268
0.00532105
-0.242898
-0.0158204
-0.257427
-0.0303364
-0.261476
-0.0359735
-0.253348
-0.0319726
-0.237815
-0.022491
-0.224306
-0.0138639
-0.219332
-0.00889256
-0.219697
-0.00592424
-0.220944
-0.00386892
-0.222163
-0.00256825
-0.223221
-0.00183911
-0.224055
-0.00148546
-0.224591
-0.0013436
-0.224851
-0.00129803
-0.224909
-0.00126781
-0.224787
-0.00120994
-0.224579
-0.00110374
-0.224307
-0.000949212
-0.224001
-0.000752628
-0.223715
-0.000522489
-0.223416
-0.000268542
-0.223145
0.0213573
-0.0775872
0.0599089
-0.0805815
0.0683383
-0.0866437
0.0683616
-0.0956887
0.0580942
-0.168919
0.0369057
-0.198244
0.011045
-0.224992
-0.0135137
-0.245204
-0.0319335
-0.25583
-0.0416362
-0.255814
-0.0407768
-0.244544
-0.0314005
-0.228906
-0.0193486
-0.218821
-0.0110292
-0.217196
-0.00676047
-0.218861
-0.00417291
-0.22064
-0.00252406
-0.222207
-0.00163525
-0.223424
-0.00125619
-0.224284
-0.00117236
-0.224762
-0.00122114
-0.224928
-0.00129242
-0.224884
-0.00132274
-0.224674
-0.00128371
-0.224399
-0.00117445
-0.224082
-0.00100502
-0.223749
-0.000788519
-0.223448
-0.000541498
-0.223143
-0.000274666
-0.222871
0.0220868
-0.0759993
0.060041
-0.0777193
0.0696312
-0.0818744
0.0707583
-0.0890403
0.0616167
-0.0992111
0.0433306
-0.175344
0.0167379
-0.203937
-0.0102953
-0.22821
-0.0324431
-0.244695
-0.0459525
-0.251514
-0.049073
-0.247517
-0.0416516
-0.234293
-0.0277314
-0.220523
-0.0149562
-0.214894
-0.00792146
-0.216035
-0.00445135
-0.218583
-0.00237814
-0.220786
-0.00126454
-0.222578
-0.000843799
-0.223837
-0.000831948
-0.224624
-0.00100975
-0.224974
-0.0012209
-0.225
-0.00137623
-0.22483
-0.00143313
-0.224524
-0.00138911
-0.224185
-0.00125852
-0.223829
-0.00106122
-0.223476
-0.000820705
-0.223169
-0.000555143
-0.222862
-0.000277351
-0.222593
0.0243152
-0.0758658
0.0605919
-0.0765503
0.0707346
-0.0788227
0.0726636
-0.0837797
0.0646889
-0.0921126
0.0470522
-0.102933
0.0220435
-0.18065
-0.00701013
-0.207222
-0.0321568
-0.228497
-0.0492817
-0.241365
-0.0560925
-0.244494
-0.05191
-0.237259
-0.0383498
-0.223674
-0.0216876
-0.213791
-0.010121
-0.212694
-0.00474569
-0.21574
-0.00208536
-0.218875
-0.000679973
-0.221371
-0.000186742
-0.223235
-0.000262996
-0.224406
-0.000610775
-0.225023
-0.00101523
-0.225179
-0.00134488
-0.225031
-0.00153841
-0.224725
-0.001588
-0.224325
-0.00151335
-0.22393
-0.00134324
-0.223547
-0.00111166
-0.223185
-0.000844061
-0.22288
-0.000561342
-0.222578
-0.000275408
-0.222318
0.0278406
-0.0776189
0.0619135
-0.0771873
0.0716616
-0.0774772
0.074086
-0.0802451
0.067376
-0.0864669
0.0503749
-0.0954352
0.0258448
-0.106734
-0.00315585
-0.184504
-0.0311656
-0.208213
-0.0517297
-0.226049
-0.0620459
-0.235412
-0.0612172
-0.235187
-0.049791
-0.225818
-0.0312675
-0.214094
-0.0144676
-0.209445
-0.00539387
-0.212046
-0.00160136
-0.216224
0.000181493
-0.219737
0.000792952
-0.222351
0.000615468
-0.224113
4.54781e-05
-0.225062
-0.000620072
-0.225419
-0.00119332
-0.225331
-0.00157977
-0.22499
-0.00176333
-0.22455
-0.00176944
-0.224069
-0.00163874
-0.223634
-0.00141938
-0.223239
-0.00114869
-0.222881
-0.000855158
-0.222587
-0.000557621
-0.222296
-0.000268941
-0.222049
0.0324083
-0.0811488
0.063851
-0.0795564
0.0726478
-0.0781736
0.0751962
-0.0785874
0.0696589
-0.082528
0.0532355
-0.0893276
0.0293549
-0.0989454
0.000476353
-0.110366
-0.0289837
-0.186686
-0.0529207
-0.207022
-0.0669114
-0.221183
-0.0693239
-0.227305
-0.0606894
-0.224289
-0.0426265
-0.214459
-0.0216597
-0.206902
-0.00722116
-0.207618
-0.00100072
-0.212647
0.00140113
-0.217444
0.00218596
-0.22113
0.00191139
-0.223647
0.0010572
-0.225125
3.93052e-05
-0.225721
-0.000869554
-0.225742
-0.00152876
-0.225382
-0.0019037
-0.224849
-0.00202604
-0.224293
-0.00195297
-0.223755
-0.00175161
-0.223302
-0.00147594
-0.222912
-0.0011671
-0.222569
-0.00085006
-0.222294
-0.000544183
-0.222021
-0.000258069
-0.221791
0.0376608
-0.086473
0.0661384
-0.0834362
0.0735903
-0.0804989
0.075906
-0.0788834
0.0714611
-0.0803895
0.0555724
-0.0848649
0.0322985
-0.0922711
0.00382789
-0.102297
-0.0261746
-0.113175
-0.0530659
-0.186541
-0.0705376
-0.203396
-0.0761889
-0.214318
-0.0703781
-0.217617
-0.0541961
-0.212719
-0.0313612
-0.204757
-0.0112051
-0.202918
-0.000674608
-0.207944
0.00302341
-0.214269
0.00410494
-0.219363
0.00374906
-0.222967
0.00255581
-0.225145
0.00107188
-0.226158
-0.000300855
-0.22629
-0.00134309
-0.225928
-0.00199159
-0.225294
-0.002282
-0.224593
-0.00229266
-0.223954
-0.0021185
-0.223388
-0.00183638
-0.222942
-0.00150531
-0.222573
-0.00116122
-0.222258
-0.000829035
-0.222009
-0.00052132
-0.221758
-0.000242963
-0.221548
0.043091
-0.0934455
0.0684677
-0.0888023
0.0745469
-0.0843929
0.0764192
-0.0810121
0.0726855
-0.0801079
0.0574006
-0.0822178
0.0346189
-0.0871853
0.00666828
-0.0951115
-0.0234918
-0.10498
-0.0516395
-0.114602
-0.0732143
-0.183864
-0.081812
-0.197773
-0.0786429
-0.206053
-0.0648409
-0.206972
-0.0422942
-0.201786
-0.0177424
-0.19822
-0.00142729
-0.202166
0.00499869
-0.209919
0.00664724
-0.216811
0.00628572
-0.2219
0.00469897
-0.225111
0.0026207
-0.226694
0.000621829
-0.22708
-0.000960412
-0.226673
-0.00200064
-0.225919
-0.00253383
-0.225042
-0.00266753
-0.224218
-0.00253375
-0.223538
-0.002244
-0.222981
-0.00188201
-0.222565
-0.0014996
-0.222235
-0.00113134
-0.221955
-0.000792606
-0.221738
-0.00048948
-0.221511
-0.000224975
-0.221323
0.0506412
-0.155581
0.0705078
-0.0954857
0.0753796
-0.089635
0.0767755
-0.0847492
0.0733114
-0.081638
0.0586249
-0.0813322
0.0362694
-0.0838683
0.00885842
-0.0893754
-0.0210927
-0.0975105
-0.0499619
-0.106657
-0.0732648
-0.114551
-0.0862782
-0.179398
-0.0854318
-0.190984
-0.0739946
-0.1969
-0.0530457
-0.19622
-0.0263596
-0.193169
-0.00397213
-0.195675
0.00692086
-0.204088
0.00994777
-0.21322
0.00969227
-0.220218
0.0077076
-0.224908
0.00487107
-0.227361
0.00203449
-0.228107
-0.00028722
-0.227754
-0.00188803
-0.226785
-0.00277588
-0.225677
-0.00308955
-0.22462
-0.00301715
-0.223735
-0.00271804
-0.223064
-0.00231363
-0.222549
-0.00187781
-0.222187
-0.0014591
-0.221907
-0.00107835
-0.22167
-0.00074165
-0.221486
-0.000451535
-0.221284
-0.000205187
-0.221118
0.0566023
-0.176137
0.0721552
-0.157229
0.0759528
-0.0960589
0.0769642
-0.0898237
0.0733002
-0.084738
0.0591931
-0.0822062
0.0372866
-0.0823494
0.0103629
-0.0853728
-0.0191924
-0.0912758
-0.0482844
-0.099188
-0.0727961
-0.107126
-0.0876894
-0.11314
-0.090676
-0.174154
-0.0816123
-0.183366
-0.0625447
-0.187401
-0.0358483
-0.186732
-0.00872732
-0.188414
0.00817993
-0.196934
0.013928
-0.208068
0.0142099
-0.217737
0.0118878
-0.224398
0.00812911
-0.228166
0.00413987
-0.229466
0.000780965
-0.229175
-0.0015944
-0.228047
-0.00299343
-0.226568
-0.00357593
-0.225191
-0.00359529
-0.224042
-0.00328623
-0.223167
-0.00282274
-0.222555
-0.00231291
-0.222114
-0.00182397
-0.221822
-0.00138526
-0.2216
-0.00100385
-0.221407
-0.000680809
-0.221257
-0.000409845
-0.22108
-0.000185068
-0.220933
0.0600957
-0.197139
0.0726642
-0.176646
0.0758259
-0.157102
0.0768009
-0.0958955
0.0726037
-0.0891271
0.0588884
-0.0844333
0.0375885
-0.082508
0.0111513
-0.0831377
-0.0179118
-0.0866534
-0.0468301
-0.0927301
-0.0720374
-0.0999467
-0.0885195
-0.106296
-0.0928158
-0.111
-0.0876702
-0.168096
-0.0706234
-0.175287
-0.0447619
-0.178487
-0.0151323
-0.180327
0.00793662
-0.188171
0.0181456
-0.201152
0.0198744
-0.213733
0.0175723
-0.223422
0.0128882
-0.229157
0.00734626
-0.231373
0.00245023
-0.231136
-0.0010653
-0.229704
-0.00317534
-0.227865
-0.00414534
-0.225998
-0.00430698
-0.224479
-0.0039867
-0.223342
-0.00344185
-0.222548
-0.00282819
-0.22204
-0.00224189
-0.221696
-0.00172287
-0.221484
-0.00128085
-0.221323
-0.000914736
-0.221173
-0.000613996
-0.221052
-0.000367546
-0.220897
-0.000165746
-0.220767
0.0607028
-0.216514
0.0715987
-0.196073
0.0745591
-0.175379
0.0752122
-0.155513
0.0710452
-0.094337
0.0576945
-0.0879332
0.0370068
-0.0838517
0.0112196
-0.0825764
-0.0173051
-0.0837445
-0.0458335
-0.08765
-0.0712034
-0.0935641
-0.0888574
-0.0996089
-0.0942591
-0.104853
-0.0908896
-0.107781
-0.0771897
-0.16153
-0.0525689
-0.16748
-0.0220739
-0.171546
0.00604082
-0.178431
0.0219258
-0.191951
0.0262814
-0.207559
0.0247379
-0.220898
0.0195353
-0.230069
0.012335
-0.234146
0.00522558
-0.234148
-0.00012083
-0.23208
-0.00333474
-0.229544
-0.0048396
-0.227171
-0.00520389
-0.225101
-0.00487539
-0.22359
-0.0042159
-0.222568
-0.00345723
-0.221919
-0.00273426
-0.221548
-0.00210439
-0.221314
-0.00157911
-0.221186
-0.00115568
-0.221082
-0.000816975
-0.22097
-0.000546318
-0.220874
-0.000327088
-0.220736
-0.000148824
-0.220618
0.0583608
-0.232006
0.0683204
-0.213235
0.0712356
-0.19275
0.071757
-0.171924
0.0672969
-0.151765
0.055499
-0.0921416
0.0354921
-0.0864186
0.0103652
-0.0829972
-0.0174823
-0.0823992
-0.0454119
-0.084166
-0.0704568
-0.0883966
-0.0887566
-0.0936649
-0.0951031
-0.0987649
-0.0932224
-0.10252
-0.0813699
-0.1036
-0.0589552
-0.155143
-0.0285629
-0.160991
0.00259943
-0.168104
0.0246616
-0.181167
0.0329467
-0.198616
0.0328756
-0.215696
0.027883
-0.229246
0.0194461
-0.23718
0.00989391
-0.238814
0.0017974
-0.236066
-0.00335848
-0.232056
-0.00574449
-0.22864
-0.00637326
-0.226002
-0.00603061
-0.223946
-0.00521094
-0.222595
-0.00424605
-0.221779
-0.0033321
-0.221321
-0.00254711
-0.221105
-0.00190787
-0.220986
-0.00140647
-0.220935
-0.00101855
-0.220881
-0.000718187
-0.220799
-0.000481844
-0.220719
-0.000291834
-0.220593
-0.000135367
-0.220483
0.0528829
-0.241414
0.0620661
-0.225752
0.0652093
-0.207209
0.0661246
-0.187117
0.0618595
-0.166486
0.0511953
-0.147461
0.0329343
-0.0895838
0.00859966
-0.084653
-0.0185209
-0.0819586
-0.0456765
-0.0821346
-0.0700737
-0.0845491
-0.088363
-0.0887901
-0.0954639
-0.093304
-0.0947518
-0.0972355
-0.0845048
-0.0993849
-0.0636549
-0.0989009
-0.0340903
-0.149616
-0.00123048
-0.157162
0.0257222
-0.169165
0.0392335
-0.187453
0.0414568
-0.207197
0.0372592
-0.225073
0.028284
-0.238084
0.0166307
-0.243917
0.00543377
-0.242451
-0.00273969
-0.236685
-0.00686434
-0.230937
-0.00796196
-0.227051
-0.00756945
-0.224463
-0.00652112
-0.222636
-0.00526237
-0.221579
-0.00407701
-0.221034
-0.00307639
-0.220792
-0.00227867
-0.220734
-0.00167162
-0.220721
-0.00121769
-0.220736
-0.00088034
-0.220719
-0.000624593
-0.220656
-0.000425956
-0.220585
-0.000264024
-0.220464
-0.000125957
-0.220357
0.0446149
-0.243969
0.05287
-0.232218
0.0565973
-0.21714
0.0581552
-0.19924
0.0546342
-0.179892
0.0452272
-0.160518
0.0287897
-0.143316
0.00588131
-0.0868654
-0.0202757
-0.0828982
-0.0465466
-0.0810885
-0.0699618
-0.0822466
-0.0876897
-0.0852225
-0.0953992
-0.0888549
-0.0955464
-0.0925093
-0.0866604
-0.09508
-0.0671343
-0.0959055
-0.0390631
-0.0939281
-0.00489487
-0.145951
0.0257204
-0.15716
0.0444627
-0.174394
0.0499643
-0.195961
0.0470822
-0.21702
0.0381079
-0.234897
0.0248914
-0.246344
0.0107995
-0.249282
-0.0009267
-0.244264
-0.00789217
-0.235657
-0.0101247
-0.228774
-0.00967457
-0.224946
-0.00827583
-0.222708
-0.00660275
-0.221296
-0.00503025
-0.220626
-0.00372483
-0.220385
-0.00270891
-0.220361
-0.001956
-0.22045
-0.00141388
-0.220524
-0.00102807
-0.220589
-0.000750204
-0.220593
-0.000544039
-0.220538
-0.000382283
-0.220466
-0.000244903
-0.220345
-0.000121212
-0.220236
0.0352762
-0.240658
0.0419297
-0.233029
0.0461959
-0.221816
0.0482501
-0.207235
0.0456253
-0.190231
0.0377602
-0.172425
0.0233727
-0.155101
0.00272267
-0.140158
-0.0225439
-0.0845973
-0.0475058
-0.081939
-0.0697548
-0.0812955
-0.0867201
-0.0832162
-0.0948479
-0.0857738
-0.0955949
-0.0888065
-0.0877729
-0.0913968
-0.0694452
-0.092769
-0.0427121
-0.0922565
-0.00975354
-0.0890694
0.0251095
-0.14534
0.0484576
-0.161155
0.0579485
-0.182378
0.056884
-0.205763
0.0484364
-0.227349
0.0340835
-0.244089
0.0173114
-0.252856
0.00213345
-0.252343
-0.00853288
-0.243623
-0.0128646
-0.232917
-0.0126477
-0.225801
-0.0106613
-0.22256
-0.00839282
-0.220918
-0.00627765
-0.220048
-0.00454104
-0.219809
-0.00321924
-0.219875
-0.0022678
-0.22005
-0.00160513
-0.220258
-0.00115593
-0.220396
-0.000850759
-0.220488
-0.000639084
-0.220498
-0.000481891
-0.220438
-0.000352893
-0.220358
-0.000235721
-0.220231
-0.000121041
-0.220115
0.0267396
-0.235057
0.0315047
-0.230233
0.0355274
-0.22236
0.0376202
-0.211187
0.0357725
-0.197382
0.0293301
-0.181801
0.0171958
-0.166248
-0.000850126
-0.151528
-0.0235555
-0.139146
-0.0483615
-0.0837415
-0.0692063
-0.0824875
-0.0850966
-0.0829191
-0.093673
-0.0843911
-0.0948625
-0.0865061
-0.0877558
-0.0888235
-0.0705277
-0.0903143
-0.0450658
-0.0904153
-0.0134006
-0.0886095
0.0213111
-0.0852711
0.0514728
-0.148356
0.0649714
-0.168178
0.0662693
-0.191763
0.0588407
-0.216167
0.0439516
-0.237217
0.0247683
-0.251545
0.0060319
-0.256755
-0.00857807
-0.252297
-0.0160644
-0.240423
-0.0168289
-0.228736
-0.0140721
-0.22239
-0.0107906
-0.220162
-0.00792881
-0.219267
-0.00558951
-0.219
-0.00384178
-0.219187
-0.00261454
-0.219528
-0.00179007
-0.219865
-0.00125552
-0.220159
-0.000916421
-0.220331
-0.000700678
-0.220426
-0.000554588
-0.220425
-0.000441307
-0.22035
-0.000339714
-0.220254
-0.000236289
-0.220116
-0.000125076
-0.21999
0.0203322
-0.230827
0.0233807
-0.226933
0.0264147
-0.22112
0.0279931
-0.212733
0.0265803
-0.201994
0.0213943
-0.189446
0.0113293
-0.175934
-0.00403914
-0.163059
-0.0239315
-0.151152
-0.0462999
-0.141208
-0.0682067
-0.0847412
-0.0831556
-0.0844284
-0.0917209
-0.0848711
-0.0932656
-0.085988
-0.0867003
-0.0875616
-0.070568
-0.0887832
-0.0460943
-0.0892858
-0.0157096
-0.0881063
0.0181015
-0.0853998
0.0499018
-0.0837001
0.0709324
-0.154317
0.0749169
-0.176825
0.068816
-0.201739
0.0540962
-0.226312
0.0331567
-0.245605
0.0108986
-0.256412
-0.00761675
-0.257716
-0.0193476
-0.249014
-0.0222244
-0.235028
-0.0191525
-0.223656
-0.0141823
-0.218998
-0.0100935
-0.217998
-0.00695549
-0.217901
-0.00461348
-0.218228
-0.00301043
-0.218791
-0.00196342
-0.219355
-0.00131636
-0.219804
-0.000933298
-0.220142
-0.00071547
-0.220316
-0.000588371
-0.220393
-0.000501355
-0.220365
-0.000424964
-0.220264
-0.000342425
-0.220148
-0.000245808
-0.219995
-0.00013231
-0.219857
0.0160854
-0.229472
0.0180596
-0.225506
0.019966
-0.220484
0.0207441
-0.213871
0.0194413
-0.205594
0.0152341
-0.195834
0.00703017
-0.185147
-0.00573499
-0.174239
-0.0229537
-0.164037
-0.0429304
-0.154522
-0.0632859
-0.146128
-0.0807041
-0.0871927
-0.0891493
-0.0870001
-0.09088
-0.0872567
-0.0846761
-0.0880122
-0.0694712
-0.0886585
-0.0461721
-0.0887054
-0.0167207
-0.0882747
0.015974
-0.0859788
0.0481529
-0.0836509
0.07185
-0.0846178
0.0824811
-0.161881
0.078159
-0.186168
0.0640069
-0.211649
0.0420052
-0.23516
0.0168569
-0.251564
-0.00569043
-0.258338
-0.0217991
-0.255265
-0.0283107
-0.242928
-0.0261544
-0.228026
-0.0194045
-0.218434
-0.0130502
-0.216041
-0.00869754
-0.216256
-0.00559012
-0.216924
-0.0034639
-0.217775
-0.00212165
-0.218633
-0.00132169
-0.21935
-0.000882864
-0.219854
-0.000665338
-0.220192
-0.000567506
-0.220337
-0.000520499
-0.220373
-0.000482925
-0.220307
-0.000432365
-0.220175
-0.000359666
-0.220034
-0.000262156
-0.219865
-0.000141823
-0.219715
0.0132067
-0.230002
0.0147354
-0.226148
0.0159495
-0.221489
0.0161484
-0.215889
0.0148388
-0.209269
0.0113537
-0.201714
0.00479955
-0.193604
-0.00562368
-0.185259
-0.0201417
-0.177051
-0.0380119
-0.168955
-0.0569426
-0.160865
-0.0740485
-0.152784
-0.0859647
-0.0903772
-0.0877483
-0.0901318
-0.0818102
-0.0901226
-0.0672756
-0.0902078
-0.0448941
-0.0899364
-0.0165744
-0.0888517
0.0150012
-0.0873018
0.0466566
-0.0844825
0.0723128
-0.0841137
0.0852366
-0.0873732
0.086314
-0.170036
0.0735502
-0.195712
0.0510626
-0.220707
0.0233599
-0.241663
-0.00308338
-0.254171
-0.0231842
-0.256953
-0.0343118
-0.249263
-0.0345376
-0.234545
-0.0270776
-0.220353
-0.0176314
-0.213852
-0.0109428
-0.213796
-0.0067852
-0.215061
-0.00399933
-0.216389
-0.00224804
-0.217648
-0.00125153
-0.218703
-0.000739012
-0.219493
-0.000525305
-0.219994
-0.000471147
-0.220288
-0.000481973
-0.220375
-0.000501614
-0.220355
-0.000498582
-0.220241
-0.00046138
-0.220073
-0.000388005
-0.219909
-0.000283318
-0.219724
-0.000152323
-0.219563
0.0109981
-0.230955
0.0123929
-0.227659
0.0133652
-0.223564
0.0134328
-0.218774
0.0122662
-0.213316
0.00939906
-0.207314
0.00418093
-0.201095
-0.00408841
-0.195139
-0.0161572
-0.189243
-0.0317637
-0.183299
-0.0493514
-0.176546
-0.0660331
-0.168881
-0.078578
-0.160171
-0.0838512
-0.0942743
-0.0781412
-0.0938008
-0.0640246
-0.0933737
-0.0424374
-0.0926645
-0.0151504
-0.0913604
0.015402
-0.0892525
0.0460255
-0.0866707
0.0724687
-0.0846383
0.0875649
-0.086442
0.0901788
-0.091238
0.0818362
-0.178322
0.060095
-0.204744
0.0306047
-0.227952
0.000248319
-0.244995
-0.0243039
-0.253051
-0.0395788
-0.251686
-0.0434145
-0.240387
-0.0368644
-0.224758
-0.0247978
-0.213186
-0.0143101
-0.210485
-0.00820422
-0.212377
-0.0045908
-0.214469
-0.00233583
-0.216301
-0.0010695
-0.21783
-0.000467242
-0.218975
-0.000262221
-0.219757
-0.000269865
-0.220195
-0.000363928
-0.220406
-0.000464682
-0.220412
-0.000530719
-0.220323
-0.000545138
-0.220157
-0.000506932
-0.219954
-0.000424054
-0.219768
-0.000306501
-0.219569
-0.000162181
-0.219401
0.00919276
-0.231566
0.0104651
-0.229028
0.0114021
-0.225696
0.0115943
-0.221725
0.010761
-0.217269
0.00852243
-0.212439
0.00445458
-0.207588
-0.00201352
-0.20317
-0.0116745
-0.199622
-0.0249646
-0.196042
-0.0409292
-0.191721
-0.0569712
-0.185608
-0.0697249
-0.177734
-0.0760751
-0.167947
-0.073611
-0.0988045
-0.05981
-0.0980153
-0.0387478
-0.0970633
-0.0124867
-0.0953282
0.0168787
-0.0928371
0.0465459
-0.089773
0.0727041
-0.0869061
0.0895553
-0.0866288
0.0935022
-0.0897653
0.086807
-0.0962089
0.0678495
-0.186076
0.0378423
-0.211982
0.00458317
-0.232286
-0.0244629
-0.244836
-0.044083
-0.248547
-0.0520694
-0.243032
-0.0477334
-0.229517
-0.034669
-0.214887
-0.0198977
-0.207599
-0.0101264
-0.208563
-0.00518871
-0.211779
-0.00232502
-0.21448
-0.000739214
-0.216631
-1.72674e-05
-0.21828
0.000170195
-0.219407
7.40775e-05
-0.2201
-0.00013487
-0.220425
-0.000351076
-0.22052
-0.000514329
-0.220429
-0.000603176
-0.220265
-0.000615406
-0.220049
-0.000563771
-0.219814
-0.000463237
-0.219611
-0.000328223
-0.219403
-0.000170297
-0.219231
0.00770304
-0.231913
0.00883189
-0.229933
0.00972476
-0.22735
0.0100734
-0.224175
0.0096025
-0.220567
0.00799881
-0.216745
0.00491179
-0.212897
-1.60966e-05
-0.209585
-0.00747595
-0.207369
-0.0182844
-0.206302
-0.0322294
-0.204742
-0.0472062
-0.201486
-0.0598588
-0.195474
-0.0667353
-0.187073
-0.065848
-0.17571
-0.0547794
-0.103835
-0.0339778
-0.102785
-0.0086518
-0.100898
0.0194599
-0.0979094
0.0480191
-0.0943102
0.0735032
-0.0905721
0.0910758
-0.0884267
0.0962009
-0.0893275
0.0909951
-0.0939534
0.0738205
-0.10218
0.0440804
-0.192314
0.00865386
-0.216052
-0.0238846
-0.232865
-0.0477097
-0.241209
-0.0596624
-0.240954
-0.0586778
-0.232087
-0.0463682
-0.217818
-0.02839
-0.206394
-0.0134925
-0.204233
-0.00575057
-0.208001
-0.00215647
-0.211948
-0.00017715
-0.215042
0.000674263
-0.217323
0.000831994
-0.218942
0.000615384
-0.219948
0.000244827
-0.22048
-0.000129829
-0.220646
-0.000430973
-0.220603
-0.000624325
-0.220408
-0.00070904
-0.220171
-0.000701571
-0.219911
-0.000624991
-0.219652
-0.000499912
-0.219439
-0.000346084
-0.219228
-0.000175444
-0.219055
0.00646586
-0.232115
0.00746057
-0.230542
0.00828627
-0.228494
0.00872316
-0.226
0.00854362
-0.223116
0.00747426
-0.220042
0.0052288
-0.217062
0.00152484
-0.214437
-0.00404219
-0.213019
-0.0122879
-0.213365
-0.0238026
-0.214729
-0.0372097
-0.214738
-0.0492991
-0.212046
-0.0565937
-0.205616
-0.0564788
-0.196443
-0.0478493
-0.18264
-0.0285197
-0.109293
-0.00389219
-0.107545
0.0229352
-0.104374
0.0502597
-0.10015
0.0748307
-0.0956377
0.09239
-0.0918864
0.0980973
-0.0903231
0.0943998
-0.0927322
0.0788545
-0.0989874
0.0509197
-0.109019
0.012867
-0.196528
-0.0232487
-0.216688
-0.0508117
-0.229763
-0.0664713
-0.2344
-0.0689021
-0.230729
-0.0587162
-0.219739
-0.0394004
-0.206808
-0.0193422
-0.200545
-0.00685703
-0.203126
-0.00159796
-0.20856
0.000689941
-0.212815
0.00170232
-0.21607
0.00180858
-0.2183
0.00142094
-0.219748
0.00083421
-0.220538
0.000237666
-0.220848
-0.000252972
-0.220824
-0.000594466
-0.220633
-0.000781083
-0.220336
-0.00083692
-0.220036
-0.000793612
-0.219742
-0.000682201
-0.21947
-0.000530098
-0.219255
-0.000357471
-0.219046
-0.000176853
-0.218878
0.00541981
-0.232233
0.0063051
-0.230959
0.0070634
-0.229319
0.00754273
-0.227314
0.00755939
-0.225016
0.00690333
-0.222546
0.00532796
-0.220141
0.00260657
-0.218144
-0.00150269
-0.216977
-0.00747574
-0.217831
-0.016205
-0.220963
-0.0274952
-0.224443
-0.0386305
-0.225407
-0.0459218
-0.222718
-0.0467437
-0.215351
-0.0394303
-0.204862
-0.0231556
-0.188004
0.0016018
-0.114787
0.0269691
-0.111579
0.0529904
-0.107104
0.0765313
-0.101851
0.0934457
-0.0966934
0.099247
-0.093036
0.0971269
-0.0930502
0.0830671
-0.0969448
0.0568662
-0.104934
0.0202948
-0.116447
-0.020865
-0.198911
-0.0527699
-0.21473
-0.0724849
-0.223749
-0.0782069
-0.225096
-0.0706898
-0.218756
-0.0518337
-0.207306