/*--------------------------------*- C++ -*----------------------------------*\
| =========                 |                                                 |
| \\      /  F ield         | OpenFOAM: The Open Source CFD Toolbox           |
|  \\    /   O peration     | Version:  2506                                  |
|   \\  /    A nd           | Website:  www.openfoam.com                      |
|    \\/     M anipulation  |                                                 |
\*---------------------------------------------------------------------------*/
FoamFile
{
    version     2.0;
    format      ascii;
    arch        "LSB;label=32;scalar=64";
    class       volVectorField;
    location    "170.004218234212004";
    object      U;
}
// * * * * * * * * * * * * * * * * * * * * * * * * * * * * * * * * * * * * * //

dimensions      [0 1 -1 0 0 0 0];

internalField   nonuniform List<vector> 
9700
(
(1.09564 0.000916563 3.73786e-22)
(1.0956 0.00297283 -2.34736e-24)
(1.09282 0.000896642 1.45354e-28)
(1.09554 0.0047836 -4.83832e-22)
(1.09282 0.00289657 -3.04025e-25)
(1.09151 0.000898636 -3.75943e-22)
(1.09544 0.00671746 3.99367e-25)
(1.09282 0.00466738 -3.73756e-35)
(1.09151 0.00290564 -3.76833e-22)
(1.08963 0.000902755 0)
(1.09529 0.00842757 3.7152e-22)
(1.09282 0.00655484 1.11544e-24)
(1.09154 0.00468971 -2.76785e-21)
(1.08966 0.00292329 3.64152e-25)
(1.08792 0.00091216 3.67662e-22)
(1.09512 0.0101068 3.64095e-22)
(1.09283 0.00823162 -4.3701e-28)
(1.09158 0.00659839 -3.75087e-22)
(1.08971 0.00472803 8.76089e-35)
(1.08796 0.00296163 3.68005e-22)
(1.08613 0.00092294 2.12937e-28)
(1.0949 0.0115425 -4.87019e-23)
(1.09288 0.00988212 5.79505e-28)
(1.09166 0.00831327 -3.72548e-22)
(1.0898 0.00666916 -2.03654e-24)
(1.08802 0.00480119 2.70987e-21)
(1.08616 0.00300627 -5.30837e-25)
(1.08433 0.000932749 -3.6228e-22)
(1.09464 0.0127609 5.17373e-22)
(1.09298 0.0113056 1.51587e-23)
(1.0918 0.0100227 -3.73691e-22)
(1.08995 0.00843892 0)
(1.08813 0.00679354 3.68897e-22)
(1.08623 0.00488488 -1.30682e-35)
(1.08435 0.00304868 -3.62638e-22)
(1.08249 0.00093887 -3.02008e-21)
(1.09432 0.0136059 7.57156e-23)
(1.09316 0.0125246 -7.38995e-22)
(1.09202 0.0115371 -3.98296e-22)
(1.09019 0.0102315 0)
(1.08832 0.00864044 3.70431e-22)
(1.08635 0.00693447 6.65749e-25)
(1.08441 0.00496427 -2.4597e-25)
(1.08251 0.00307892 -3.49422e-21)
(1.08065 0.000939029 -3.63161e-25)
(1.09397 0.0139732 -4.29957e-22)
(1.09345 0.0134057 -2.4698e-23)
(1.09238 0.0128903 -3.96342e-21)
(1.09055 0.0118731 6.19829e-38)
(1.08861 0.0105459 3.65894e-22)
(1.08654 0.0088662 2.21894e-28)
(1.08451 0.00706866 -3.69837e-22)
(1.08255 0.00502232 -4.72077e-22)
(1.08065 0.0030887 3.86688e-22)
(1.07881 0.000931473 2.96288e-21)
(1.09347 0.0136867 2.99253e-22)
(1.09393 0.0138218 3.6835e-24)
(1.09292 0.0139653 9.80033e-22)
(1.09111 0.0134142 -2.41363e-23)
(1.08905 0.0123531 3.18228e-22)
(1.08684 0.0108948 -9.0838e-28)
(1.08468 0.00908214 -3.70517e-22)
(1.08262 0.00716957 -3.53249e-21)
(1.08066 0.00504475 4.68736e-22)
(1.07879 0.00307155 3.07804e-21)
(1.077 0.000915186 0)
(1.09289 0.0124385 -1.74878e-23)
(1.09466 0.0136348 5.82315e-24)
(1.09375 0.0146487 2.83741e-21)
(1.09194 0.0147567 -1.26363e-22)
(1.0897 0.0141337 4.0462e-21)
(1.0873 0.0128824 -6.3566e-23)
(1.08495 0.0112294 -3.72897e-22)
(1.08273 0.00925011 -3.19545e-21)
(1.08068 0.00721497 3.06586e-22)
(1.07877 0.0050205 -2.40439e-25)
(1.07694 0.00302367 -2.22593e-36)
(1.07521 0.000889993 3.45245e-22)
(1.09207 0.010032 1.16549e-21)
(1.09574 0.0125001 4.95362e-23)
(1.09496 0.0148498 -3.10796e-22)
(1.09315 0.0158374 6.05741e-23)
(1.09067 0.0158184 -8.28296e-22)
(1.08798 0.0149232 1.21133e-23)
(1.08536 0.013392 -4.06466e-22)
(1.08293 0.0114958 -3.23515e-21)
(1.08072 0.00933797 4.56477e-28)
(1.07872 0.00718764 3.10613e-21)
(1.07689 0.00494305 5.74979e-36)
(1.07514 0.00294417 3.53686e-22)
(1.07349 0.000856577 9.56606e-28)
(1.09085 0.00593686 1.44364e-23)
(1.09712 0.0102526 1.22645e-34)
(1.0967 0.0142446 -3.16086e-22)
(1.09493 0.016564 2.92117e-22)
(1.09209 0.0173848 -3.00886e-21)
(1.08898 0.016979 2.33465e-22)
(1.08597 0.0156849 -4.16781e-21)
(1.08323 0.0138068 -3.66768e-21)
(1.08081 0.0116484 -4.77247e-28)
(1.07868 0.00932087 3.14943e-21)
(1.07678 0.00707749 -2.18282e-36)
(1.07505 0.00481099 2.3341e-25)
(1.0734 0.0028352 -8.31615e-24)
(1.07184 0.000816449 -3.26197e-22)
(1.08884 -0.000166273 4.82888e-22)
(1.09854 0.00638458 -1.34512e-22)
(1.09893 0.0127219 -3.43207e-21)
(1.09744 0.0167144 3.81549e-22)
(1.09417 0.0187959 3.6392e-22)
(1.09044 0.0190776 -3.4898e-23)
(1.08687 0.0181029 -3.23221e-21)
(1.08369 0.0163143 -2.80621e-21)
(1.08095 0.0140631 4.37501e-22)
(1.07863 0.011652 3.23206e-21)
(1.07664 0.00918424 0)
(1.07488 0.00688235 3.28615e-22)
(1.07328 0.00462807 -1.61546e-35)
(1.07173 0.00270181 -3.18066e-22)
(1.07027 0.000771805 -4.17241e-22)
(1.08805 -0.0099549 7.2492e-22)
(1.10043 0.000511592 -1.21607e-23)
(1.10163 0.00992458 -1.16003e-22)
(1.10059 0.0162282 1.4035e-34)
(1.09708 0.0199232 2.58593e-22)
(1.0926 0.0212369 -5.52641e-23)
(1.08821 0.0207192 3.28011e-21)
(1.08438 0.0190442 -4.45154e-21)
(1.0812 0.0167227 2.86798e-21)
(1.07859 0.0141121 3.39668e-21)
(1.07645 0.0114862 0)
(1.07465 0.00892498 3.33762e-22)
(1.07305 0.00660816 1.97665e-23)
(1.07159 0.0044031 -2.44359e-21)
(1.07016 0.00255152 -8.17924e-22)
(1.06879 0.000725308 -1.98755e-28)
(1.0873 -0.0254616 -9.22e-22)
(1.10689 -0.0101612 0)
(1.10679 0.00544514 6.59335e-22)
(1.10458 0.0149353 -8.08301e-22)
(1.10065 0.0207947 4.39582e-21)
(1.0956 0.0234405 -5.18494e-22)
(1.09018 0.0236146 -3.81768e-22)
(1.08542 0.0221064 -7.51437e-22)
(1.08158 0.0196793 3.50098e-21)
(1.07858 0.0168421 -1.46461e-23)
(1.07621 0.0139251 -1.61914e-35)
(1.07432 0.0111468 3.88208e-22)
(1.07274 0.00855161 -9.41994e-27)
(1.07132 0.00626864 -3.6411e-22)
(1.07 0.00414907 -4.21561e-22)
(1.06868 0.00239349 3.29078e-22)
(1.06741 0.000679906 3.98368e-22)
(1.08284 -0.0490583 -1.18217e-21)
(1.11724 -0.0286859 -6.45104e-23)
(1.11861 -0.00424114 -2.89119e-22)
(1.11284 0.0123475 0)
(1.10532 0.0214387 4.22139e-22)
(1.09916 0.0258074 8.56947e-35)
(1.09291 0.0268777 -4.91163e-22)
(1.08697 0.0256403 -3.27159e-21)
(1.08219 0.0230663 -3.00476e-21)
(1.07859 0.0199145 8.75772e-22)
(1.07592 0.0166336 -2.10483e-22)
(1.07389 0.0134967 5.99213e-22)
(1.0723 0.010646 1.19471e-26)
(1.07095 0.00808386 -3.68174e-22)
(1.06971 0.00588399 -5.65736e-22)
(1.06853 0.0038818 2.72198e-21)
(1.06731 0.00223797 4.09939e-22)
(1.06612 0.000638539 -3.83667e-22)
(1.06791 -0.0780146 2.77684e-21)
(1.12409 -0.0583731 2.92812e-21)
(1.1368 -0.022267 -2.3924e-21)
(1.1311 0.0049091 5.26917e-36)
(1.11604 0.0213993 2.27488e-21)
(1.10394 0.0285169 1.17487e-21)
(1.09601 0.0307107 -2.8858e-21)
(1.08913 0.0298211 -4.25129e-21)
(1.08314 0.0270705 2.58934e-22)
(1.07868 0.0234696 3.58856e-21)
(1.07554 0.0196962 2.0847e-22)
(1.07332 0.0160899 4.17858e-21)
(1.0717 0.0128438 3.92652e-22)
(1.07042 0.0100117 -3.05817e-22)
(1.06931 0.00755067 -4.26546e-22)
(1.06824 0.00547884 2.82334e-22)
(1.06717 0.00361895 -2.2441e-21)
(1.06603 0.00209525 -7.64842e-22)
(1.0649 0.000603819 -1.99747e-28)
(1.03787 -0.109436 0)
(1.1151 -0.0951623 3.16226e-21)
(1.15061 -0.0513733 5.68198e-21)
(1.15843 -0.0104957 -8.37067e-36)
(1.13976 0.0177502 -5.38075e-22)
(1.11599 0.0313968 7.02818e-22)
(1.10017 0.0353777 -2.08529e-22)
(1.09138 0.034913 -6.02394e-22)
(1.08446 0.0319249 3.51456e-24)
(1.07889 0.0277258 3.95513e-21)
(1.07507 0.0232437 2.06554e-22)
(1.07256 0.0190154 3.23567e-21)
(1.07089 0.0152352 -4.74845e-23)
(1.0697 0.0120053 -6.93758e-24)
(1.06874 0.00928493 -4.31976e-22)
(1.06784 0.00698735 2.16123e-27)
(1.0669 0.00508062 3.60515e-22)
(1.06592 0.00337826 -3.85016e-22)
(1.06484 0.0019746 1.47239e-23)
(1.06375 0.000577824 3.61518e-22)
(0.98878 -0.13921 -2.12004e-20)
(1.08596 -0.136327 -1.25118e-20)
(1.14613 -0.0871651 -1.58932e-20)
(1.18079 -0.0363188 -3.47419e-35)
(1.17488 0.00760649 -6.68317e-21)
(1.14358 0.0327892 -2.55806e-25)
(1.11199 0.0412133 2.29237e-21)
(1.09428 0.0411945 -4.73122e-21)
(1.08562 0.037937 5.11209e-22)
(1.07921 0.0329402 4.24685e-21)
(1.07449 0.0275087 -1.6313e-22)
(1.07157 0.0223782 -3.55981e-21)
(1.0698 0.0179064 -6.1525e-22)
(1.06872 0.0141234 -4.02436e-21)
(1.06794 0.0110375 -7.79284e-22)
(1.06726 0.00851537 -2.79745e-27)
(1.06653 0.00643321 3.60864e-22)
(1.06569 0.00471687 -4.75996e-22)
(1.06476 0.00317569 7.78835e-35)
(1.06372 0.00188362 5.59488e-22)
(1.06265 0.00056183 2.98968e-24)
(0.927001 -0.163572 9.31763e-22)
(1.03556 -0.178373 -6.68271e-22)
(1.12022 -0.128156 4.94271e-21)
(1.18184 -0.0688849 0)
(1.20486 -0.0111915 -2.32119e-21)
(1.18469 0.0301174 -8.24519e-21)
(1.14081 0.0481873 -2.94062e-23)
(1.10416 0.049531 -4.52419e-21)
(1.08678 0.0453444 1.8664e-21)
(1.07913 0.0394551 1.62393e-22)
(1.07376 0.0327361 -3.37463e-36)
(1.07023 0.0264093 4.42816e-22)
(1.06834 0.0209225 6.60039e-23)
(1.06737 0.0164436 5.54456e-22)
(1.06686 0.0128324 -2.37269e-21)
(1.06646 0.0100089 3.99417e-22)
(1.066 0.00775844 4.45978e-22)
(1.06539 0.00592778 -3.82612e-22)
(1.0646 0.00441246 -3.51527e-23)
(1.06367 0.00302432 3.61259e-22)
(1.06264 0.0018273 1.34629e-23)
(1.06156 0.000556149 -3.22489e-21)
(0.853451 -0.180042 -4.89019e-22)
(0.965342 -0.218996 4.36353e-21)
(1.0695 -0.171676 3.41673e-20)
(1.16036 -0.107538 -2.5725e-35)
(1.21146 -0.0367971 1.48203e-20)
(1.2217 0.0213969 2.32438e-20)
(1.18514 0.0545245 -9.23591e-21)
(1.13115 0.0615026 -7.40621e-22)
(1.09336 0.0553197 -1.58484e-26)
(1.07837 0.0474441 5.39445e-21)
(1.07238 0.039297 -2.07782e-35)
(1.06847 0.0313064 5.50815e-22)
(1.06635 0.0245004 7.67266e-23)
(1.06556 0.0189801 3.30047e-21)
(1.06537 0.0147333 6.77096e-22)
(1.06536 0.0114565 2.50574e-21)
(1.06526 0.00899573 8.35736e-22)
(1.06494 0.00706992 -3.81624e-22)
(1.06438 0.0055069 2.18893e-27)
(1.06359 0.00418776 8.24831e-22)
(1.06264 0.00293276 8.50861e-22)
(1.06158 0.00180747 -3.59443e-21)
(1.06048 0.000560117 -7.41823e-25)
(0.77524 -0.187571 -1.38979e-21)
(0.880724 -0.254643 1.72148e-22)
(0.9985 -0.215126 -3.86889e-21)
(1.11162 -0.150427 -6.29824e-35)
(1.19555 -0.0687129 1.92359e-20)
(1.23461 0.00531225 1.97412e-20)
(1.22816 0.0585095 -9.24091e-22)
(1.17531 0.0768359 -6.25707e-21)
(1.11568 0.0707531 -5.27319e-21)
(1.08086 0.0580651 7.60978e-21)
(1.06976 0.0473066 -2.75391e-35)
(1.06584 0.0374542 3.95305e-21)
(1.06369 0.0287618 5.36413e-22)
(1.06308 0.0219272 -4.49806e-22)
(1.06335 0.0166974 -7.38748e-22)
(1.06385 0.0129036 -8.69716e-22)
(1.06423 0.0101003 -7.5549e-23)
(1.06432 0.00807492 -6.74189e-22)
(1.06405 0.0065005 -2.81072e-27)
(1.06347 0.00520006 3.54911e-22)
(1.06263 0.00405625 -3.15028e-23)
(1.06163 0.0029041 -3.3989e-22)
(1.06052 0.00182256 1.10579e-22)
(1.05938 0.000572154 3.0572e-21)
(0.700856 -0.181348 -1.77525e-23)
(0.791103 -0.282642 1.54388e-22)
(0.911866 -0.256151 7.0816e-21)
(1.04024 -0.195683 -1.36336e-34)
(1.15021 -0.106099 -3.23304e-20)
(1.22513 -0.0169407 -6.84554e-20)
(1.24549 0.0542355 6.87501e-21)
(1.22212 0.0938086 -1.0222e-21)
(1.1563 0.0932147 -6.53177e-21)
(1.09635 0.075 6.8999e-21)
(1.06811 0.0576504 0)
(1.06161 0.0449272 6.01674e-22)
(1.05996 0.034081 1.57906e-34)
(1.05974 0.0253111 -3.31267e-22)
(1.06058 0.0188893 -1.52821e-21)
(1.06178 0.0142486 -2.56534e-21)
(1.06282 0.0110961 2.53101e-22)
(1.06346 0.00886951 -1.94632e-21)
(1.06361 0.00731675 7.42132e-23)
(1.0633 0.00609213 3.50466e-22)
(1.06263 0.00502703 -3.15856e-23)
(1.06169 0.00402288 -3.41629e-21)
(1.0606 0.00293559 2.86068e-21)
(1.05944 0.00186755 3.17956e-21)
(1.05824 0.000589931 3.15509e-22)
(0.649483 -0.166976 0)
(0.70464 -0.304573 -4.38104e-21)
(0.818612 -0.293221 -6.08464e-20)
(0.950429 -0.239425 -1.41536e-20)
(1.08044 -0.148271 -2.29939e-20)
(1.18363 -0.0447846 -7.01704e-21)
(1.24185 0.0426301 2.40065e-20)
(1.24728 0.103659 -1.27966e-20)
(1.20348 0.120585 6.97661e-21)
(1.13026 0.101844 3.44226e-21)
(1.07553 0.0740376 1.32725e-35)
(1.05642 0.0542442 5.98716e-22)
(1.05444 0.0404988 -6.75769e-22)
(1.05514 0.02947 -7.23639e-21)
(1.05683 0.0212309 -2.06495e-21)
(1.05895 0.0156209 -1.76701e-22)
(1.06088 0.0118258 2.62149e-21)
(1.06227 0.00945459 7.64191e-22)
(1.06299 0.00786136 9.17382e-23)
(1.06307 0.00678001 6.10351e-22)
(1.06262 0.00587318 3.97276e-23)
(1.0618 0.00499534 -3.21266e-21)
(1.06074 0.00408344 -2.56914e-22)
(1.05955 0.00301854 1.74863e-21)
(1.05832 0.00193441 3.70302e-22)
(1.05707 0.000610611 1.36909e-28)
(0.612479 -0.153453 -1.98581e-21)
(0.640388 -0.31707 -1.48967e-21)
(0.727564 -0.32377 -5.81704e-23)
(0.852791 -0.281173 1.29877e-25)
(0.989765 -0.189599 -1.85697e-21)
(1.11638 -0.0795418 3.29792e-20)
(1.20728 0.0271404 5.80007e-21)
(1.24703 0.105023 -1.40693e-20)
(1.2377 0.145484 2.54203e-20)
(1.17387 0.137163 1.69729e-21)
(1.09962 0.101921 -4.96613e-35)
(1.05587 0.0683328 -1.21422e-21)
(1.04673 0.0482596 -2.70619e-22)
(1.04868 0.0343906 -7.42892e-22)
(1.05169 0.024005 -5.8871e-22)
(1.05509 0.0168372 5.40008e-22)
(1.05822 0.0123784 3.68245e-22)
(1.06063 0.009624 -6.62092e-22)
(1.06213 0.00811201 -6.30936e-36)
(1.06274 0.00715785 2.06465e-21)
(1.06263 0.00650519 3.5338e-22)
(1.06196 0.00585487 -3.15601e-21)
(1.06095 0.00509935 6.34502e-27)
(1.05974 0.00422442 2.95354e-21)
(1.05844 0.00313905 -4.42762e-21)
(1.05714 0.00201283 -9.36799e-23)
(1.05584 0.000631065 -3.00346e-22)
(0.579174 -0.141505 2.37456e-22)
(0.598781 -0.322416 2.7087e-20)
(0.659515 -0.343619 -8.86946e-21)
(0.755374 -0.3174 2.30759e-21)
(0.890302 -0.232546 6.5403e-20)
(1.0267 -0.113726 2.37786e-21)
(1.14326 0.00498836 -2.91196e-20)
(1.21756 0.103186 -1.14861e-20)
(1.24447 0.164495 2.44317e-20)
(1.20849 0.175348 2.39521e-20)
(1.13622 0.142261 -2.82015e-38)
(1.06807 0.0934523 -2.02493e-22)
(1.0397 0.0590591 5.26646e-26)
(1.03949 0.0402194 -2.36985e-21)
(1.04464 0.0270999 5.22481e-22)
(1.0498 0.0181137 3.25855e-21)
(1.05456 0.0124714 5.92709e-22)
(1.05836 0.00942246 -1.53557e-21)
(1.06093 0.00782504 -1.38485e-22)
(1.0623 0.00718233 6.58566e-22)
(1.06263 0.00681663 -3.139e-21)
(1.0622 0.00650936 -3.85273e-21)
(1.06125 0.00602966 -7.70547e-27)
(1.06002 0.00531983 3.05368e-21)
(1.05865 0.004424 1.90302e-22)
(1.05726 0.00327927 1.54749e-34)
(1.0559 0.00209117 -2.49017e-22)
(1.05457 0.000648156 0)
(0.551318 -0.133466 2.74725e-21)
(0.567434 -0.325029 -1.4388e-20)
(0.613375 -0.355517 6.60255e-20)
(0.681306 -0.342368 4.60319e-20)
(0.787478 -0.270234 -8.65648e-21)
(0.926941 -0.154005 1.68046e-21)
(1.05696 -0.0182665 9.01891e-21)
(1.158 0.0969182 -6.89454e-21)
(1.2138 0.177738 -2.61113e-20)
(1.21912 0.211328 4.87038e-20)
(1.16959 0.190017 0)
(1.09383 0.133549 1.11968e-20)
(1.04011 0.0784884 5.50189e-22)
(1.02825 0.0474991 1.24087e-21)
(1.03479 0.030686 -7.31754e-22)
(1.04259 0.0192002 1.57925e-22)
(1.04955 0.0122466 -2.28619e-21)
(1.05522 0.00847979 -1.90892e-21)
(1.05927 0.00699953 -1.70478e-22)
(1.06165 0.00658708 5.51928e-23)
(1.06264 0.00674792 -1.01904e-21)
(1.06253 0.00686347 -1.73474e-21)
(1.0617 0.00678359 4.56573e-22)
(1.06044 0.00637053 3.00635e-21)
(1.05898 0.00562535 3.09596e-22)
(1.05748 0.00465411 2.04109e-22)
(1.05601 0.00341903 1.62916e-21)
(1.05462 0.00215766 1.96364e-22)
(1.05327 0.000659039 -2.69478e-21)
(0.532065 -0.132316 1.35225e-21)
(0.547308 -0.326278 -2.6229e-21)
(0.577146 -0.364682 1.0042e-20)
(0.630811 -0.358744 -2.22411e-20)
(0.707675 -0.297592 5.22046e-20)
(0.818901 -0.186597 -1.22585e-21)
(0.957079 -0.0511303 -2.58646e-20)
(1.07607 0.086483 -4.20545e-20)
(1.1595 0.186358 -5.8489e-20)
(1.1971 0.240031 6.43122e-20)
(1.18319 0.238071 -6.30584e-36)
(1.12226 0.185664 -2.68842e-20)
(1.05225 0.112671 8.61428e-22)
(1.01913 0.0600808 1.12595e-21)
(1.02157 0.0345697 9.39321e-21)
(1.0327 0.0202939 2.68388e-21)
(1.04266 0.0112995 1.50595e-22)
(1.05088 0.00685557 -3.37003e-22)
(1.05692 0.00519297 1.62073e-22)
(1.06076 0.00532843 -6.86965e-22)
(1.06263 0.00602792 -1.5882e-21)
(1.06301 0.00684878 -8.74525e-22)
(1.06233 0.0072882 2.79949e-21)
(1.06105 0.00729139 2.89994e-21)
(1.05946 0.00683267 3.059e-22)
(1.05781 0.00597516 -1.20871e-27)
(1.05621 0.00488295 -4.10688e-22)
(1.0547 0.00353796 -1.30115e-21)
(1.05329 0.00220171 -2.75209e-21)
(1.05195 0.00066143 -6.48223e-25)
(0.523576 -0.138782 -6.93741e-21)
(0.539317 -0.327988 -4.76686e-21)
(0.553054 -0.371712 -6.02894e-21)
(0.590982 -0.371838 6.87892e-20)
(0.652837 -0.317281 -1.3877e-20)
(0.733858 -0.213912 -5.30165e-20)
(0.846654 -0.0712402 -5.90404e-23)
(0.975791 0.0670166 1.32806e-21)
(1.08125 0.189753 -5.34792e-20)
(1.14748 0.262612 4.11245e-21)
(1.16745 0.280592 8.90852e-34)
(1.13704 0.24201 6.91298e-21)
(1.07115 0.162511 2.83574e-21)
(1.01722 0.0843348 -8.53225e-21)
(1.00651 0.0407005 -1.77376e-21)
(1.01911 0.0208805 -3.73081e-21)
(1.03328 0.00977606 -2.41957e-21)
(1.04484 0.00399912 1.44326e-21)
(1.05364 0.00237816 1.66971e-35)
(1.05944 0.00291138 -6.02194e-22)
(1.06261 0.00457854 -2.78527e-23)
(1.06364 0.00620963 -2.65371e-22)
(1.06323 0.00747579 -2.44701e-21)
(1.06191 0.00804172 2.40656e-21)
(1.06017 0.00797075 6.28233e-22)
(1.05831 0.00735765 1.38783e-27)
(1.05651 0.0063228 -2.98884e-22)
(1.05485 0.00507835 2.92797e-22)
(1.05334 0.00361768 9.2419e-22)
(1.05194 0.00221492 -1.22253e-22)
(1.05064 0.000653857 2.54991e-21)
(0.531995 -0.151937 -1.80045e-21)
(0.542595 -0.332067 -1.10315e-20)
(0.540444 -0.377054 4.66089e-21)
(0.563648 -0.381819 -1.90205e-20)
(0.608956 -0.33386 6.59085e-20)
(0.67585 -0.234925 -8.85656e-21)
(0.758265 -0.0987509 -1.96488e-20)
(0.868381 0.0612933 0)
(0.983202 0.187021 -4.32626e-20)
(1.07313 0.28019 2.43791e-20)
(1.1226 0.316783 1.55729e-34)
(1.12606 0.29559 4.90419e-20)
(1.08341 0.221879 -1.89876e-20)
(1.02294 0.12493 1.95512e-20)
(0.993072 0.0537597 5.60863e-21)
(1.00166 0.0215878 5.77235e-22)
(1.02037 0.00705329 -2.04691e-21)
(1.03658 -8.32334e-05 -2.84977e-22)
(1.04899 -0.00212745 -2.47195e-22)
(1.05755 -0.000773473 1.89248e-22)
(1.06249 0.00187819 1.10442e-22)
(1.06453 0.00484764 -2.3027e-21)
(1.06446 0.00712756 2.00558e-21)
(1.06315 0.00856524 1.98174e-21)
(1.06117 0.00903807 2.87306e-22)
(1.05903 0.00873957 -3.10604e-23)
(1.05695 0.00787855 -2.98212e-22)
(1.05507 0.00662122 0)
(1.05341 0.00521138 -2.79193e-21)
(1.05194 0.00364363 -1.17921e-21)
(1.05059 0.00219195 2.57943e-21)
(1.04935 0.000635831 -2.47301e-21)
(0.554508 -0.171863 -1.2992e-21)
(0.557621 -0.339199 -9.00969e-22)
(0.544099 -0.381339 3.56166e-21)
(0.549919 -0.389003 4.80866e-20)
(0.577709 -0.347536 -3.7547e-20)
(0.628737 -0.252129 -7.17665e-20)
(0.697939 -0.119617 -1.06593e-20)
(0.779875 0.033355 -9.04323e-23)
(0.877558 0.188494 9.05161e-21)
(0.981049 0.291839 1.99408e-20)
(1.05327 0.346988 -3.5264e-20)
(1.08685 0.342856 -1.50441e-20)
(1.07603 0.282351 -2.91466e-21)
(1.02807 0.179562 3.93844e-21)
(0.984523 0.0800076 1.51044e-21)
(0.981276 0.0247256 2.03202e-21)
(1.00306 0.00313886 4.58046e-21)
(1.02513 -0.00609524 2.74183e-21)
(1.04249 -0.00850292 2.52481e-21)
(1.05477 -0.00653105 1.70825e-21)
(1.06224 -0.00224818 7.86463e-22)
(1.06568 0.00224875 -1.90346e-21)
(1.06621 0.00614404 -5.76998e-22)
(1.06486 0.00870022 2.80852e-21)
(1.06262 0.0100002 2.4603e-21)
(1.06006 0.0101618 -3.03113e-23)
(1.05761 0.00950296 -1.85142e-23)
(1.05541 0.00832745 0)
(1.05354 0.00682808 -2.80193e-21)
(1.05193 0.00525922 -4.28329e-22)
(1.05055 0.00360661 1.47413e-21)
(1.04927 0.00213105 -2.47573e-21)
(1.04811 0.000607875 -7.04175e-25)
(0.591209 -0.196964 -3.63549e-21)
(0.583866 -0.348483 1.11613e-20)
(0.559402 -0.384901 -6.18701e-21)
(0.550083 -0.39368 2.16596e-20)
(0.559833 -0.35874 -7.85638e-20)
(0.594287 -0.266176 1.91797e-21)
(0.64734 -0.137226 2.87564e-20)
(0.717768 0.016063 2.08227e-22)
(0.794246 0.16853 -3.77897e-21)
(0.882472 0.300104 1.10755e-20)
(0.967212 0.371096 5.62915e-25)
(1.02317 0.383194 1.32637e-20)
(1.04281 0.337447 1.88914e-20)
(1.02118 0.240658 -3.55837e-20)
(0.978213 0.121796 -1.5118e-21)
(0.960971 0.0352716 -3.92499e-21)
(0.980428 -0.00138895 -3.25569e-21)
(1.00943 -0.0142714 -3.42556e-22)
(1.03327 -0.0175829 -1.65528e-25)
(1.05067 -0.0147123 1.51439e-23)
(1.0617 -0.00871507 -1.46449e-22)
(1.0672 -0.00180155 2.54298e-23)
(1.06856 0.00406034 5.64553e-22)
(1.06731 0.00836841 1.96263e-21)
(1.06465 0.0107687 -2.53872e-21)
(1.06156 0.0116199 3.93265e-36)
(1.05855 0.0112781 2.21609e-22)
(1.05593 0.0101641 2.52103e-22)
(1.05373 0.0086433 -2.77719e-21)
(1.05194 0.00691009 5.13441e-27)
(1.05045 0.00520759 2.7033e-21)
(1.04918 0.00350371 8.49286e-22)
(1.048 0.00203417 1.02963e-22)
(1.04693 0.00057147 2.31433e-21)
(0.642091 -0.224623 0)
(0.621349 -0.358271 -1.56325e-21)
(0.58622 -0.38817 -9.46467e-22)
(0.563646 -0.396038 6.238e-20)
(0.55605 -0.366677 2.47537e-21)
(0.573259 -0.277084 2.10627e-20)
(0.609172 -0.150997 7.19911e-21)
(0.664094 -0.000682604 -4.82634e-20)
(0.731912 0.156828 -1.56206e-20)
(0.799358 0.296106 8.66126e-21)
(0.872894 0.391039 1.71352e-20)
(0.942627 0.417252 -7.30595e-20)
(0.985701 0.385241 2.05986e-21)
(0.993238 0.29972 -1.27414e-20)
(0.967041 0.174846 4.05298e-20)
(0.941674 0.058873 6.7234e-21)
(0.953449 -0.00438401 -5.07404e-22)
(0.987906 -0.0248378 5.92465e-22)
(1.02019 -0.0297987 5.38802e-35)
(1.04452 -0.0263452 1.35907e-21)
(1.06055 -0.0179742 -1.35498e-21)
(1.06911 -0.00828566 -1.37614e-22)
(1.07182 0.000657048 -6.25887e-22)
(1.07069 0.00720057 1.7987e-21)
(1.06756 0.0113093 1.74613e-22)
(1.06367 0.0131073 1.44319e-23)
(1.05993 0.0132333 2.50436e-21)
(1.05666 0.0122489 -8.78085e-22)
(1.05403 0.010636 -2.64585e-21)
(1.05195 0.00877844 -6.13043e-27)
(1.05032 0.00684672 2.64655e-21)
(1.04899 0.00505229 -2.68052e-21)
(1.04787 0.00333849 4.47935e-35)
(1.04681 0.00190676 2.42884e-21)
(1.04583 0.000528882 0)
(0.715324 -0.261706 -1.7403e-21)
(0.668666 -0.367354 -3.20316e-20)
(0.623585 -0.39076 -1.98628e-20)
(0.58948 -0.397039 2.46979e-21)
(0.565954 -0.371165 6.87279e-20)
(0.565623 -0.284727 -6.64285e-20)
(0.584578 -0.16126 -1.41569e-20)
(0.622399 -0.01324 -4.55775e-20)
(0.676848 0.143744 -9.70583e-20)
(0.73828 0.289274 5.22763e-20)
(0.793154 0.399107 1.87262e-20)
(0.853358 0.445032 -2.07878e-21)
(0.911957 0.425533 2.77299e-21)
(0.943407 0.352192 -2.15329e-21)
(0.941594 0.231969 -6.09563e-21)
(0.921222 0.094461 -9.16761e-21)
(0.923963 0.000439227 -4.40229e-21)
(0.959575 -0.0379787 9.66256e-24)
(1.0018 -0.0457976 1.19362e-21)
(1.03516 -0.0421641 -5.54739e-22)
(1.05828 -0.0313085 -1.47904e-21)
(1.07125 -0.0176441 1.8065e-21)
(1.07614 -0.00502452 -5.55725e-23)
(1.07545 0.00501186 -2.99945e-23)
(1.07163 0.0113913 2.04045e-22)
(1.06672 0.0146536 -5.7801e-24)
(1.06188 0.0154437 2.30339e-22)
(1.05775 0.0146429 6.88054e-23)
(1.05447 0.01295 -2.55173e-22)
(1.05199 0.010851 1.28347e-22)
(1.05014 0.0087039 2.67454e-21)
(1.04874 0.00663236 -2.56532e-21)
(1.04761 0.0047993 -2.44213e-22)
(1.04664 0.00312059 -7.93133e-22)
(1.0457 0.00175717 -3.59825e-23)
(1.04483 0.000482904 -2.28143e-22)
(0.809454 -0.293642 -6.85426e-21)
(0.740369 -0.37606 5.8871e-21)
(0.67004 -0.392632 -4.07769e-21)
(0.625863 -0.396992 -6.48362e-20)
(0.588245 -0.371779 1.11708e-19)
(0.571143 -0.288787 -7.29121e-21)
(0.573384 -0.167794 6.67057e-22)
(0.59429 -0.0225253 5.38012e-21)
(0.63286 0.133633 5.06098e-20)
(0.68401 0.282151 6.58327e-21)
(0.736095 0.399271 -9.95056e-21)
(0.778617 0.460584 -1.68857e-20)
(0.829708 0.457188 1.81913e-20)
(0.877107 0.396558 6.25242e-20)
(0.898389 0.285045 1.74119e-20)
(0.893032 0.141347 1.83041e-21)
(0.892012 0.0125976 -4.97515e-21)
(0.925454 -0.0491442 1.13569e-22)
(0.976008 -0.0668295 -3.04638e-21)
(1.02149 -0.063466 2.67953e-21)
(1.05401 -0.0499075 1.27628e-21)
(1.07361 -0.0314758 -3.77045e-21)
(1.08166 -0.0132928 -7.97663e-22)
(1.08183 0.00100738 -1.58952e-23)
(1.07743 0.0109077 -1.79818e-22)
(1.07105 0.0161933 3.17644e-22)
(1.06472 0.0180119 -2.08533e-22)
(1.05931 0.0174934 -2.73531e-21)
(1.05514 0.0156708 -4.45205e-21)
(1.05208 0.0132856 -1.28108e-21)
(1.04992 0.0107689 2.74977e-21)
(1.04838 0.00841252 -2.59146e-21)
(1.04725 0.00627641 6.1292e-27)
(1.04633 0.00446418 2.2334e-21)
(1.04552 0.00286462 3.81607e-35)
(1.0447 0.00159571 -1.67955e-22)
(1.04393 0.000436622 -1.47839e-28)
(0.916164 -0.317251 1.99574e-20)
(0.834933 -0.380534 1.0849e-20)
(0.739534 -0.392997 1.32911e-20)
(0.670294 -0.39567 -9.64643e-24)
(0.621192 -0.368344 -3.3722e-20)
(0.587969 -0.288633 5.95694e-20)
(0.575156 -0.170682 6.57228e-20)
(0.579758 -0.0280977 -9.3647e-20)
(0.602159 0.126001 1.41282e-19)
(0.639687 0.275302 -3.30916e-20)
(0.684703 0.398827 -4.88639e-20)
(0.726119 0.46838 -5.28964e-21)
(0.760795 0.47724 -3.07379e-20)
(0.802434 0.431196 -1.48983e-21)
(0.839129 0.33131 -2.16853e-20)
(0.854204 0.187723 7.54729e-21)
(0.855619 0.0408244 0)
(0.884886 -0.0591972 -5.32208e-21)
(0.942191 -0.0905739 3.79092e-21)
(1.00063 -0.09175 9.53677e-22)
(1.04689 -0.0761957 -8.2874e-23)
(1.07604 -0.0515838 7.12105e-21)
(1.08918 -0.0260974 1.92078e-21)
(1.0904 -0.00489957 -9.31892e-22)
(1.08519 0.0093808 2.41094e-22)
(1.07723 0.017751 5.50854e-35)
(1.0688 0.0210444 -3.34413e-22)
(1.0616 0.0209716 2.62393e-24)
(1.05611 0.0190001 -2.44584e-22)
(1.05223 0.0161804 2.56827e-21)
(1.04961 0.0131997 9.91055e-23)
(1.04789 0.0103808 -2.67736e-21)
(1.04673 0.00791897 -7.68288e-27)
(1.04589 0.00580221 2.38159e-21)
(1.04518 0.00407025 8.44544e-23)
(1.04452 0.00258856 7.36047e-22)
(1.04381 0.0014337 1.07469e-23)
(1.04312 0.00039318 2.12214e-22)
(1.0183 -0.324765 3.44306e-21)
(0.929474 -0.377677 -3.67741e-22)
(0.827806 -0.390715 3.13046e-20)
(0.735891 -0.390817 2.57054e-20)
(0.661707 -0.360705 -6.89747e-21)
(0.615087 -0.283768 3.27491e-20)
(0.586883 -0.169399 5.22076e-20)
(0.578207 -0.0298289 6.72956e-20)
(0.584995 0.121488 2.06508e-20)
(0.607739 0.269762 2.99049e-20)
(0.64244 0.396323 1.99829e-20)
(0.678931 0.474125 2.86299e-20)
(0.713076 0.488824 -1.12746e-20)
(0.740059 0.457047 3.92764e-21)
(0.771691 0.366538 5.11874e-20)
(0.801032 0.23236 -9.28719e-21)
(0.816796 0.0704626 -2.72627e-21)
(0.840892 -0.0550525 7.42249e-22)
(0.898308 -0.116491 -1.12328e-22)
(0.969959 -0.125511 -1.11496e-21)
(1.03265 -0.111359 -3.05395e-35)
(1.07746 -0.0817968 -9.85018e-21)
(1.09983 -0.0459236 -1.56957e-21)
(1.1033 -0.0149375 3.00767e-21)
(1.09608 0.00698901 1.67073e-21)
(1.0854 0.0192582 -1.51386e-21)
(1.07459 0.0247325 3.98263e-21)
(1.06492 0.0253394 2.67355e-23)
(1.05756 0.0231593 -3.23378e-21)
(1.05248 0.0197688 -2.23364e-22)
(1.04923 0.0160939 -8.98493e-22)
(1.04722 0.0126822 -6.70609e-22)
(1.04602 0.00970959 4.71695e-22)
(1.04526 0.00725786 2.39334e-21)
(1.0447 0.00524422 0)
(1.04417 0.00364595 -3.67899e-22)
(1.04364 0.00231203 -1.90015e-21)
(1.04301 0.00128252 1.78409e-22)
(1.04239 0.00035549 2.04812e-22)
(1.10282 -0.31937 7.78686e-22)
(1.01345 -0.368201 -5.67497e-21)
(0.913776 -0.379022 -4.37537e-20)
(0.817057 -0.377288 3.68222e-25)
(0.721146 -0.346102 2.38878e-20)
(0.649548 -0.273672 1.47323e-20)
(0.608659 -0.163613 -3.04625e-20)
(0.585365 -0.0274992 1.33775e-19)
(0.580277 0.12091 -5.61763e-20)
(0.588742 0.266375 2.07473e-20)
(0.611222 0.393279 9.12608e-22)
(0.640706 0.477057 1.70061e-20)
(0.670372 0.496843 3.10621e-20)
(0.69763 0.474721 -5.7719e-20)
(0.715898 0.39627 -7.04247e-21)
(0.740814 0.263771 -2.44454e-20)
(0.767241 0.107907 1.11218e-20)
(0.794363 -0.0496421 -1.64157e-20)
(0.847816 -0.136263 5.48595e-22)
(0.92677 -0.162542 3.19793e-20)
(1.00643 -0.153409 -1.15023e-20)
(1.07115 -0.122155 -5.67673e-21)
(1.11125 -0.0777593 -1.48342e-21)
(1.12307 -0.0321483 -1.11413e-21)
(1.11398 0.00150438 8.41275e-23)
(1.09739 0.0211709 3.54494e-22)
(1.08204 0.029403 -1.53249e-22)
(1.06958 0.030953 4.76691e-35)
(1.05969 0.0285307 -3.49398e-21)
(1.05291 0.024293 -2.92072e-22)
(1.04871 0.0196911 2.51971e-21)
(1.04632 0.0154006 -3.44871e-21)
(1.04504 0.011768 2.32779e-22)
(1.04438 0.00880587 2.3612e-21)
(1.044 0.0064794 0)
(1.04369 0.00464407 -2.26288e-22)
(1.04332 0.00322219 -2.52004e-23)
(1.04287 0.00205471 1.1484e-21)
(1.04231 0.00115246 2.57605e-22)
(1.04173 0.000325933 1.2882e-28)
(1.15999 -0.296876 -8.29057e-21)
(1.07592 -0.342027 -6.01002e-22)
(0.98737 -0.353441 1.55912e-21)
(0.892586 -0.351937 -1.16899e-20)
(0.793552 -0.323002 -4.45708e-20)
(0.701291 -0.25632 -1.70626e-20)
(0.63711 -0.152072 -1.46808e-20)
(0.602717 -0.02108 -2.55944e-20)
(0.583505 0.123848 -6.5835e-21)
(0.581712 0.266473 -1.40713e-19)
(0.591875 0.390813 1.81865e-20)
(0.612764 0.477395 -2.84249e-20)
(0.636344 0.501425 -4.98174e-22)
(0.659729 0.487463 -2.35684e-20)
(0.678796 0.418226 3.69794e-20)
(0.692508 0.295034 1.95953e-20)
(0.712937 0.13 -5.32548e-20)
(0.743935 -0.0274458 5.09257e-21)
(0.792507 -0.153899 6.32538e-21)
(0.873788 -0.198932 -4.85132e-21)
(0.965387 -0.198993 -5.00811e-25)
(1.04981 -0.170029 2.14174e-21)
(1.11327 -0.119559 1.32377e-20)
(1.14464 -0.0618403 1.0349e-20)
(1.14253 -0.0103425 -7.31601e-21)
(1.11903 0.0217954 -6.39531e-26)
(1.09352 0.0358114 1.73268e-21)
(1.07526 0.0384295 1.46285e-21)
(1.06263 0.0355928 -4.03139e-22)
(1.05357 0.0302073 -6.32286e-23)
(1.04804 0.0242205 3.21452e-21)
(1.04507 0.0187577 3.47709e-22)
(1.04369 0.0141546 2.80018e-35)
(1.04317 0.0105314 -2.98384e-21)
(1.04304 0.00774188 -5.09542e-22)
(1.04299 0.00564365 -2.25305e-22)
(1.04287 0.00404667 1.54524e-27)
(1.0426 0.00282977 2.87295e-22)
(1.04221 0.00183439 -1.10504e-21)
(1.04168 0.00105176 -8.94999e-23)
(1.04112 0.000306153 -1.91265e-22)
(1.18157 -0.257485 9.6087e-22)
(1.10865 -0.298422 4.79282e-23)
(1.03894 -0.313245 -4.43071e-21)
(0.95339 -0.315371 1.1799e-34)
(0.859738 -0.289532 3.39131e-20)
(0.765485 -0.231481 2.02889e-20)
(0.681162 -0.133768 3.95517e-22)
(0.62568 -0.00845595 1.19457e-20)
(0.597182 0.130013 6.86011e-20)
(0.582496 0.268491 -1.12465e-19)
(0.58402 0.38951 2.82861e-20)
(0.59619 0.475505 -6.76721e-20)
(0.612662 0.503329 -2.54574e-21)
(0.63014 0.49574 3.86727e-20)
(0.646489 0.43381 -1.20338e-19)
(0.661055 0.31894 -6.94854e-21)
(0.672442 0.160637 1.07302e-19)
(0.691626 -0.0200912 4.31092e-20)
(0.737564 -0.155557 2.11034e-20)
(0.812531 -0.233851 1.01407e-20)
(0.912047 -0.245264 -8.95034e-21)
(1.01082 -0.221057 2.185e-20)
(1.09674 -0.168786 3.64632e-20)
(1.15417 -0.0995781 -1.21153e-20)
(1.173 -0.032971 -8.47782e-21)
(1.15424 0.0182163 -5.27431e-21)
(1.11651 0.0433439 8.17654e-25)
(1.08446 0.0487836 0)
(1.06575 0.0451202 -4.3449e-21)
(1.05444 0.0380411 2.3884e-21)
(1.04714 0.0301547 3.87797e-21)
(1.04337 0.0229375 -3.81556e-21)