/*--------------------------------*- C++ -*----------------------------------*\
| =========                 |                                                 |
| \\      /  F ield         | OpenFOAM: The Open Source CFD Toolbox           |
|  \\    /   O peration     | Version:  2506                                  |
|   \\  /    A nd           | Website:  www.openfoam.com                      |
|    \\/     M anipulation  |                                                 |
\*---------------------------------------------------------------------------*/
FoamFile
{
    version     2.0;
    format      ascii;
    arch        "LSB;label=32;scalar=64";
    class       volVectorField;
    location    "170.004218234212004";
    object      U_0;
}
// * * * * * * * * * * * * * * * * * * * * * * * * * * * * * * * * * * * * * //

dimensions      [0 1 -1 0 0 0 0];

internalField   nonuniform List<vector> 
9700
(
(1.09563 0.000920151 3.70703e-22)
(1.09559 0.00298882 -2.36601e-24)
(1.0928 0.000896745 1.39162e-28)
(1.09551 0.00480803 -4.79608e-22)
(1.09279 0.00289967 -1.89772e-25)
(1.09149 0.000897145 -3.72908e-22)
(1.0954 0.00675337 4.62653e-25)
(1.09278 0.00466976 -3.69705e-35)
(1.09149 0.00290282 -3.73936e-22)
(1.08962 0.000899739 0)
(1.09523 0.00847377 3.6801e-22)
(1.09276 0.00655676 8.74692e-25)
(1.09151 0.0046821 -2.74379e-21)
(1.08964 0.00291465 2.32958e-24)
(1.08791 0.000908252 3.64852e-22)
(1.09503 0.0101646 3.60312e-22)
(1.09276 0.00822945 -3.21108e-28)
(1.09154 0.00658493 -3.711e-22)
(1.08969 0.00471064 8.69343e-35)
(1.08795 0.00294944 3.64747e-22)
(1.08613 0.000918725 1.80059e-28)
(1.09475 0.0116121 -4.90844e-23)
(1.09277 0.00987227 4.47755e-28)
(1.0916 0.00828932 -3.68296e-22)
(1.08976 0.00664064 -6.41386e-24)
(1.08801 0.00477794 2.68829e-21)
(1.08616 0.00299264 -1.17483e-25)
(1.08433 0.000928849 -3.60236e-22)
(1.09443 0.0128438 5.11304e-22)
(1.09282 0.0112826 1.10107e-23)
(1.09171 0.00998254 -3.70234e-22)
(1.0899 0.0083937 0)
(1.08811 0.00675608 3.66768e-22)
(1.08623 0.00485941 -1.29797e-35)
(1.08436 0.00303584 -3.61046e-22)
(1.08251 0.000935851 -3.0051e-21)
(1.09402 0.0137009 7.53948e-23)
(1.09294 0.0124808 -7.26996e-22)
(1.0919 0.0114727 -3.98871e-22)
(1.09012 0.0101619 0)
(1.08829 0.00858273 3.68049e-22)
(1.08634 0.00689373 -2.87802e-25)
(1.08442 0.00494045 -2.44417e-25)
(1.08252 0.00306892 -3.47648e-21)
(1.08067 0.00093736 -3.26237e-25)
(1.09354 0.0140841 -4.25932e-22)
(1.09314 0.0133292 -2.01061e-23)
(1.0922 0.0127891 -3.90867e-21)
(1.09046 0.0117685 7.3948e-38)
(1.08857 0.0104591 3.60891e-22)
(1.08654 0.00880413 6.84457e-28)
(1.08453 0.00703065 -3.65912e-22)
(1.08257 0.00500365 -4.6959e-22)
(1.08067 0.00308321 3.80464e-22)
(1.07883 0.000931472 2.95457e-21)
(1.09288 0.0138119 2.96229e-22)
(1.0935 0.0137016 3.26557e-24)
(1.09267 0.0138122 9.69977e-22)
(1.09098 0.0132585 -2.71701e-23)
(1.089 0.0122254 3.03294e-22)
(1.08684 0.0108025 -1.48128e-27)
(1.0847 0.00902438 -3.6633e-22)
(1.08264 0.00713975 -3.51268e-21)
(1.08069 0.00503411 4.66815e-22)
(1.07881 0.00307173 3.06868e-21)
(1.07701 0.000916993 0)
(1.09208 0.0125867 -1.70312e-23)
(1.09407 0.0134443 5.58245e-24)
(1.0934 0.0144171 2.78767e-21)
(1.09176 0.0145291 -1.36403e-22)
(1.08964 0.0139471 3.99518e-21)
(1.08729 0.0127477 -8.21931e-23)
(1.08498 0.0111439 -3.71738e-22)
(1.08277 0.00920452 -3.17606e-21)
(1.08072 0.00719781 3.16824e-22)
(1.0788 0.00501986 -2.39753e-25)
(1.07697 0.00303004 -2.21912e-36)
(1.07523 0.000893554 3.44975e-22)
(1.09096 0.0102067 1.16844e-21)
(1.09491 0.0122182 5.04865e-23)
(1.09448 0.0145158 -3.04409e-22)
(1.0929 0.0155067 6.34793e-23)
(1.09058 0.0155489 -8.03246e-22)
(1.08797 0.0147279 1.4288e-23)
(1.0854 0.0132674 -4.1969e-22)
(1.08298 0.0114281 -3.21341e-21)
(1.08078 0.00931098 3.44159e-28)
(1.07876 0.00718618 3.09873e-21)
(1.07692 0.00495329 5.71944e-36)
(1.07516 0.00295658 3.52801e-22)
(1.07349 0.000861646 9.09319e-28)
(1.08939 0.00613908 1.3352e-23)
(1.096 0.00984128 1.20038e-34)
(1.09604 0.0137624 -3.09008e-22)
(1.09458 0.0160905 2.98357e-22)
(1.09197 0.0169969 -2.95502e-21)
(1.08898 0.0166986 2.60268e-22)
(1.08603 0.0155048 -4.12086e-21)
(1.08331 0.0137078 -3.63984e-21)
(1.08089 0.0116076 -3.33281e-28)
(1.07874 0.00931684 3.14148e-21)
(1.07682 0.00709306 -2.17144e-36)
(1.07507 0.00483182 2.33355e-25)
(1.0734 0.00285284 -7.75138e-24)
(1.07183 0.000822612 -3.26955e-22)
(1.08677 0.000117686 3.73727e-22)
(1.09709 0.00577557 -1.39098e-22)
(1.09804 0.0120323 -3.33793e-21)
(1.09696 0.0160365 3.81559e-22)
(1.094 0.0182432 3.56824e-22)
(1.09045 0.0186759 -3.75488e-23)
(1.08697 0.0178446 -3.17141e-21)
(1.08381 0.016171 -2.75348e-21)
(1.08107 0.0140022 4.09819e-22)
(1.07872 0.0116443 3.21871e-21)
(1.0767 0.00920504 0)
(1.07491 0.00691448 3.30447e-22)
(1.07329 0.00465807 -1.61799e-35)
(1.07172 0.00272329 -3.19433e-22)
(1.07025 0.000778518 -4.1851e-22)
(1.08493 -0.00938065 8.55294e-22)
(1.09832 -0.000319107 -1.66752e-23)
(1.10045 0.00892184 -1.14109e-22)
(1.09998 0.015265 1.35624e-34)
(1.09686 0.0191335 2.48702e-22)
(1.09262 0.0206653 -5.79532e-23)
(1.08835 0.0203503 3.23091e-21)
(1.08456 0.0188381 -4.43878e-21)
(1.08136 0.0166335 2.85733e-21)
(1.07872 0.0140977 3.36129e-21)
(1.07654 0.0115141 0)
(1.0747 0.00896991 3.35746e-22)
(1.07307 0.00665461 1.84e-23)
(1.07159 0.00443985 -2.44928e-21)
(1.07013 0.00257499 -8.16902e-22)
(1.06876 0.000731942 -1.93412e-28)
(1.08267 -0.0242772 -7.57789e-22)
(1.10341 -0.0110571 -8.11839e-24)
(1.10488 0.00407803 5.97778e-22)
(1.10376 0.0135547 -7.80261e-22)
(1.1004 0.0196742 4.24012e-21)
(1.09564 0.0226244 -5.33561e-22)
(1.09039 0.0230896 -3.73241e-22)
(1.08567 0.021812 -7.84438e-22)
(1.08182 0.0195494 3.47371e-21)
(1.07876 0.0168185 -1.06868e-23)
(1.07634 0.0139608 -1.6184e-35)
(1.0744 0.0112091 3.85809e-22)
(1.07277 0.00861744 -8.74072e-27)
(1.07132 0.00632563 -3.63391e-22)
(1.06998 0.00418934 -4.23045e-22)
(1.06864 0.00241681 3.29903e-22)
(1.06736 0.000685808 4.00271e-22)
(1.07664 -0.0467724 -6.14721e-22)
(1.11157 -0.0294319 0)
(1.11518 -0.00591459 -2.64838e-22)
(1.11134 0.0104518 0)
(1.10499 0.0198497 4.06387e-22)
(1.09928 0.0246522 8.31573e-35)
(1.09322 0.026129 -4.86123e-22)
(1.08734 0.0252212 -3.17045e-21)
(1.08253 0.0228798 -2.98924e-21)
(1.07885 0.0198764 9.00747e-22)
(1.0761 0.0166801 -1.75115e-22)
(1.074 0.0135807 5.75864e-22)
(1.07235 0.0107381 1.10661e-26)
(1.07096 0.00816513 -3.67588e-22)
(1.06969 0.00594652 -5.76916e-22)
(1.06849 0.0039219 2.73454e-21)
(1.06726 0.0022589 4.1157e-22)
(1.06606 0.000643091 -3.85901e-22)
(1.06065 -0.0744964 1.58241e-21)
(1.11636 -0.0585738 2.21378e-21)
(1.13124 -0.0241845 -2.05496e-21)
(1.12811 0.00236551 8.13792e-36)
(1.11519 0.0191941 2.19164e-21)
(1.10412 0.0269004 1.17854e-21)
(1.09648 0.0296559 -2.79879e-21)
(1.08965 0.0292245 -4.16912e-21)
(1.08362 0.0268035 3.16178e-22)
(1.07906 0.0234119 3.56722e-21)
(1.0758 0.0197558 1.65607e-22)
(1.07348 0.016204 4.18687e-21)
(1.07178 0.0129697 3.62277e-22)
(1.07044 0.010126 -3.09391e-22)
(1.06929 0.00764021 -4.2856e-22)
(1.0682 0.00554116 2.85201e-22)
(1.06711 0.003655 -2.25662e-21)
(1.06597 0.00211164 -7.6704e-22)
(1.06484 0.000606504 -1.97387e-28)
(1.03005 -0.104405 0)
(1.10633 -0.0949673 2.64567e-21)
(1.14313 -0.0535767 5.46247e-21)
(1.15338 -0.01387 -8.77645e-36)
(1.13766 0.014577 -4.91604e-22)
(1.11595 0.0291213 6.95906e-22)
(1.10086 0.0339252 -1.87389e-22)
(1.09215 0.0340782 -5.87551e-22)
(1.08514 0.031545 -7.08943e-23)
(1.07943 0.0276394 3.92828e-21)
(1.07545 0.0233224 1.50721e-22)
(1.0728 0.0191689 3.27135e-21)
(1.07101 0.0154078 -4.36327e-23)
(1.06974 0.0121623 -2.90251e-23)
(1.06872 0.00941114 -4.34433e-22)
(1.06779 0.00707691 2.08484e-27)
(1.06684 0.00513672 3.63963e-22)
(1.06585 0.00340656 -3.87487e-22)
(1.06477 0.00198464 1.447e-23)
(1.06368 0.00057828 3.64111e-22)
(0.982066 -0.132448 -1.53505e-20)
(1.07674 -0.135585 -1.085e-20)
(1.13758 -0.089745 -1.54192e-20)
(1.1739 -0.0408153 -3.4918e-35)
(1.17104 0.0030596 -6.38434e-21)
(1.14274 0.0293192 -2.51796e-25)
(1.11282 0.0391501 2.35094e-21)
(1.09538 0.0400682 -4.58217e-21)
(1.08658 0.0374084 5.01684e-22)
(1.07998 0.0328154 4.19742e-21)
(1.07504 0.0276122 -9.49284e-23)
(1.0719 0.0225872 -3.56595e-21)
(1.06998 0.0181409 -5.62022e-22)
(1.06878 0.0143396 -4.04557e-21)
(1.06793 0.0112117 -7.84705e-22)
(1.0672 0.00864192 -2.70108e-27)
(1.06645 0.00651417 3.64679e-22)
(1.06561 0.00476101 -4.85077e-22)
(1.06468 0.00319309 7.84406e-35)
(1.06364 0.00188596 5.65225e-22)
(1.06258 0.000559897 2.97338e-24)
(0.92133 -0.154662 9.2564e-22)
(1.02658 -0.176899 -5.41165e-22)
(1.11099 -0.130941 4.2328e-21)
(1.17391 -0.0745464 0)
(1.19936 -0.0175976 -2.68604e-21)
(1.1826 0.0248338 -8.0311e-21)
(1.14149 0.0449133 -7.83121e-23)
(1.10577 0.0479509 -4.34217e-21)
(1.08815 0.0446491 1.95247e-21)
(1.08018 0.0392803 1.60454e-22)
(1.07453 0.0328773 -3.27561e-36)
(1.07071 0.0266929 4.46184e-22)
(1.0686 0.0212435 5.98561e-23)
(1.06747 0.0167385 5.88432e-22)
(1.06685 0.013073 -2.40231e-21)
(1.06639 0.0101843 3.99718e-22)
(1.0659 0.00787319 4.48091e-22)
(1.06528 0.0059919 -3.8566e-22)
(1.0645 0.00443972 -3.46084e-23)
(1.06359 0.00302852 3.6403e-22)
(1.06256 0.00182128 1.33356e-23)
(1.0615 0.00055189 -3.2513e-21)
(0.848879 -0.16909 -8.22825e-22)
(0.957428 -0.216507 3.26654e-21)
(1.06033 -0.174348 3.27373e-20)
(1.1515 -0.114248 -2.54886e-35)
(1.20484 -0.0449986 1.52526e-20)
(1.2181 0.0136324 2.23868e-20)
(1.18524 0.0492116 -9.22808e-21)
(1.13329 0.0589525 -7.02592e-22)
(1.09549 0.0543925 -1.67676e-26)
(1.07983 0.0472276 5.32847e-21)
(1.07342 0.0394883 -2.06037e-35)
(1.06915 0.0316976 5.41305e-22)
(1.06673 0.0249379 6.88875e-23)
(1.06571 0.0193848 3.33216e-21)
(1.06537 0.0150626 6.4627e-22)
(1.06528 0.0116995 2.52852e-21)
(1.06514 0.00915565 8.2907e-22)
(1.06481 0.00716123 -3.8516e-22)
(1.06425 0.00554707 2.15818e-27)
(1.06348 0.00419454 8.27972e-22)
(1.06255 0.00292257 8.57767e-22)
(1.06151 0.00179314 -3.62356e-21)
(1.06043 0.000553813 -7.39623e-25)
(0.772133 -0.173897 -6.78748e-22)
(0.873838 -0.250678 1.18859e-22)
(0.9899 -0.217397 -3.07278e-21)
(1.10246 -0.15788 -6.57369e-35)
(1.18777 -0.0787388 1.84379e-20)
(1.2298 -0.00470144 1.89003e-20)
(1.22703 0.0502799 -2.83123e-22)
(1.17762 0.0724386 -5.87605e-21)
(1.11892 0.0692619 -5.06431e-21)
(1.0832 0.0578388 7.66369e-21)
(1.07117 0.0475766 -2.72644e-35)
(1.06677 0.0379887 3.96264e-21)
(1.06423 0.0293641 4.75188e-22)
(1.06331 0.0224791 -4.52694e-22)
(1.06338 0.0171499 -7.33225e-22)
(1.06375 0.0132375 -8.8134e-22)
(1.06408 0.0103227 -7.38504e-23)
(1.06415 0.00820328 -6.81643e-22)
(1.0639 0.0065583 -2.77742e-27)
(1.06334 0.00521105 3.58092e-22)
(1.06253 0.00404069 -3.12768e-23)
(1.06155 0.00287963 -3.42771e-22)
(1.06047 0.00180075 1.09927e-22)
(1.05934 0.000564274 3.0849e-21)
(0.699022 -0.163369 -2.62728e-24)
(0.785802 -0.277515 1.98869e-22)
(0.904494 -0.257868 6.69454e-21)
(1.0314 -0.203489 -1.35692e-34)
(1.142 -0.117738 -3.3438e-20)
(1.219 -0.0292135 -6.62952e-20)
(1.24363 0.0433193 4.76391e-21)
(1.22373 0.0867573 -9.43734e-22)
(1.16043 0.0904111 -6.81456e-21)
(1.10021 0.0746664 6.68029e-21)
(1.07034 0.0580982 0)
(1.06284 0.0456517 6.21393e-22)
(1.0607 0.034904 1.6001e-34)
(1.06007 0.0260689 -3.46759e-22)
(1.06063 0.0195073 -1.48839e-21)
(1.06167 0.0147088 -2.60152e-21)
(1.06263 0.0114038 2.77646e-22)
(1.06324 0.00904935 -1.97801e-21)
(1.06341 0.00739954 7.35197e-23)
(1.06313 0.00610891 3.5399e-22)
(1.0625 0.00500602 -3.1428e-23)
(1.0616 0.00398509 -3.44746e-21)
(1.06054 0.00289827 2.88584e-21)
(1.0594 0.00183984 3.20748e-21)
(1.05822 0.000581091 3.18511e-22)
(0.649416 -0.147058 0)
(0.701245 -0.298888 -5.03016e-21)
(0.812787 -0.294035 -5.8272e-20)
(0.942547 -0.247421 -1.30308e-20)
(1.07228 -0.161055 -2.19758e-20)
(1.17697 -0.0594286 -6.81383e-21)
(1.23904 0.0293847 2.29954e-20)
(1.24648 0.0934568 -1.26853e-20)
(1.20772 0.115771 6.93045e-21)
(1.1357 0.100854 2.64183e-21)
(1.07945 0.0748181 1.15797e-35)
(1.05828 0.0552808 8.04724e-22)
(1.05539 0.0416076 -5.71211e-22)
(1.05561 0.030504 -7.36048e-21)
(1.05692 0.0220782 -2.0307e-21)
(1.05882 0.0162515 -1.71132e-22)
(1.06064 0.012252 2.67322e-21)
(1.06199 0.00970592 7.55075e-22)
(1.06272 0.00797916 9.1153e-23)
(1.06285 0.0068066 6.1742e-22)
(1.06246 0.00584483 3.96526e-23)
(1.06168 0.00494238 -3.24209e-21)
(1.06066 0.00402563 -2.55968e-22)
(1.0595 0.00297108 1.76457e-21)
(1.05829 0.00190298 3.72904e-22)
(1.05706 0.000601514 1.35982e-28)
(0.613142 -0.132675 -1.37513e-21)
(0.638659 -0.310037 -1.47194e-21)
(0.723384 -0.323641 -4.94963e-23)
(0.846204 -0.288839 1.22367e-25)
(0.982233 -0.20348 -2.23465e-21)
(1.10965 -0.0962278 3.16461e-20)
(1.20304 0.0111594 9.34113e-21)
(1.24586 0.0917333 -1.25042e-20)
(1.24097 0.137542 2.58725e-20)
(1.1802 0.134658 1.76903e-21)
(1.10576 0.102844 -4.92159e-35)
(1.05928 0.0700183 -1.25349e-21)
(1.04808 0.0497637 -2.1778e-22)
(1.04928 0.0357854 -7.39103e-22)
(1.05185 0.0251601 -6.03424e-22)
(1.05493 0.0177029 5.44598e-22)
(1.05791 0.0129661 3.79444e-22)
(1.06026 0.00997541 -6.67334e-22)
(1.06178 0.00828027 -6.47153e-36)
(1.06245 0.00719863 2.09089e-21)
(1.06241 0.00646953 3.5411e-22)
(1.06181 0.00578129 -3.18659e-21)
(1.06085 0.0050175 6.3375e-27)
(1.05968 0.0041508 2.98225e-21)
(1.05841 0.00308521 -4.46962e-21)
(1.05714 0.00198028 -9.28736e-23)
(1.05586 0.000622451 -3.03513e-22)
(0.580034 -0.120637 4.00362e-22)
(0.598385 -0.31398 2.62603e-20)
(0.656568 -0.342733 -6.73458e-21)
(0.750496 -0.324577 2.03203e-21)
(0.883634 -0.246707 6.66023e-20)
(1.02012 -0.13232 2.27682e-21)
(1.13875 -0.0140193 -2.79425e-20)
(1.21626 0.0869969 -8.14896e-21)
(1.24594 0.15272 2.50366e-20)
(1.21481 0.170309 2.20993e-20)
(1.14405 0.142516 -2.81086e-38)
(1.07399 0.0960689 -6.60821e-22)
(1.04218 0.0613345 3.73294e-26)
(1.04028 0.0420669 -2.2183e-21)
(1.04485 0.0286637 3.98522e-22)
(1.04962 0.0192955 3.36773e-21)
(1.05416 0.0132823 6.03239e-22)
(1.05788 0.00991288 -1.53754e-21)
(1.06046 0.00806499 -1.38554e-22)
(1.06191 0.00724644 6.62015e-22)
(1.06233 0.00677151 -3.1789e-21)
(1.062 0.00641089 -3.89032e-21)
(1.06113 0.00591504 -7.72359e-27)
(1.05995 0.00521509 3.08152e-21)
(1.05863 0.00434046 1.93988e-22)
(1.05726 0.00322354 1.56309e-34)
(1.05592 0.00206025 -2.52695e-22)
(1.05461 0.000640736 0)
(0.551884 -0.112976 3.5129e-21)
(0.568096 -0.315159 -1.12651e-20)
(0.611415 -0.354065 6.23193e-20)
(0.677991 -0.3491 4.71482e-20)
(0.782443 -0.284745 -7.84712e-21)
(0.92099 -0.173626 1.61414e-21)
(1.05216 -0.0397058 9.36834e-21)
(1.15608 0.077446 -3.30805e-21)
(1.21528 0.162813 -2.44596e-20)
(1.2249 0.20314 4.74318e-20)
(1.17778 0.188626 0)
(1.10224 0.136747 1.14191e-20)
(1.04489 0.0821702 1.47876e-22)
(1.02967 0.0501001 1.24078e-21)
(1.03504 0.0327508 -7.57761e-22)
(1.04237 0.020807 1.83847e-22)
(1.04903 0.0133601 -2.38433e-21)
(1.05458 0.00916395 -1.92664e-21)
(1.05865 0.00734267 -1.71185e-22)
(1.06113 0.00668593 5.92051e-23)
(1.06224 0.00669474 -1.03371e-21)
(1.06226 0.00673108 -1.75438e-21)
(1.06154 0.00662774 4.59999e-22)
(1.06035 0.00622329 3.03338e-21)
(1.05895 0.00550619 3.12456e-22)
(1.05749 0.00456768 2.0225e-22)
(1.05604 0.00336619 1.64622e-21)
(1.05466 0.00213103 1.99218e-22)
(1.05332 0.000653427 -2.72647e-21)
(0.532343 -0.112454 2.36748e-21)
(0.54862 -0.315554 -3.19357e-21)
(0.576271 -0.362951 7.05786e-21)
(0.628703 -0.365001 -2.01615e-20)
(0.704208 -0.312087 5.34916e-20)
(0.814413 -0.207891 -1.2476e-21)
(0.952999 -0.0745972 -3.09402e-20)
(1.07383 0.0644256 -3.93723e-20)
(1.16026 0.168595 -5.95251e-20)
(1.20113 0.228766 6.05998e-20)
(1.19073 0.23449 -6.68256e-36)
(1.13197 0.188456 -2.73001e-20)
(1.05996 0.118051 1.88854e-21)
(1.02221 0.0641588 7.80542e-22)
(1.02201 0.0373343 9.77948e-21)
(1.03239 0.0224357 2.59214e-21)
(1.04199 0.0128237 1.79057e-22)
(1.05004 0.00780747 -3.54991e-22)
(1.05609 0.0056831 1.63351e-22)
(1.06005 0.00548256 -6.94238e-22)
(1.06208 0.00596616 -1.61845e-21)
(1.06263 0.00667518 -8.79746e-22)
(1.0621 0.0070755 2.82743e-21)
(1.06093 0.0070896 2.9252e-21)
(1.05943 0.00666487 3.08615e-22)
(1.05782 0.00585178 -1.19792e-27)
(1.05624 0.00480114 -4.12444e-22)
(1.05475 0.00349259 -1.3156e-21)
(1.05335 0.00218163 -2.78468e-21)
(1.05201 0.000658081 -6.43321e-25)
(0.523682 -0.119604 -6.69655e-21)
(0.540996 -0.316886 -5.27038e-21)
(0.553227 -0.369727 -5.57962e-21)
(0.589982 -0.377592 6.54195e-20)
(0.650441 -0.331594 -1.69745e-20)
(0.73075 -0.235354 -5.59489e-20)
(0.843087 -0.0974785 -7.27946e-23)
(0.974049 0.0417761 -3.258e-21)
(1.08176 0.169213 -5.40384e-20)
(1.15089 0.248595 1.12673e-21)
(1.17406 0.274389 8.76408e-34)
(1.14669 0.243388 7.99892e-21)
(1.08113 0.168972 3.77702e-21)
(1.0231 0.0907364 -8.80685e-21)
(1.00781 0.0447433 -1.85765e-21)
(1.01872 0.0236973 -3.95813e-21)
(1.03242 0.0118403 -2.34089e-21)
(1.04375 0.00531904 1.39849e-21)
(1.05254 0.0030786 1.74408e-35)
(1.05848 0.00314924 -6.06664e-22)
(1.06186 0.00451447 -2.86808e-23)
(1.06313 0.005981 -2.6924e-22)
(1.06292 0.00719012 -2.47036e-21)
(1.06175 0.00776419 2.42386e-21)
(1.06012 0.0077397 6.30889e-22)
(1.05832 0.00718389 1.37543e-27)
(1.05656 0.00620616 -3.01903e-22)
(1.05491 0.00500837 2.94379e-22)
(1.0534 0.0035837 9.35105e-22)
(1.05201 0.00220303 -1.25727e-22)
(1.0507 0.000653017 2.58288e-21)
(0.53177 -0.133389 -2.2625e-21)
(0.544116 -0.321185 -8.26146e-21)
(0.541621 -0.37494 4.76088e-21)
(0.563693 -0.38705 -1.75661e-20)
(0.607519 -0.348076 6.15981e-20)
(0.6736 -0.256321 -1.00817e-20)
(0.755537 -0.124947 -2.01766e-20)
(0.866445 0.0339575 0)
(0.983372 0.163296 -3.67932e-20)
(1.07604 0.263495 2.33006e-20)
(1.1284 0.308036 1.52228e-34)
(1.1348 0.294975 4.93016e-20)
(1.09419 0.228257 -2.26114e-20)
(1.03173 0.133813 2.05229e-20)
(0.99642 0.0601173 5.92422e-21)
(1.00146 0.0254429 6.18773e-22)
(1.01925 0.00979134 -2.28653e-21)
(1.03517 0.00174298 -3.1696e-22)
(1.04752 -0.00112871 -2.50925e-22)
(1.05625 -0.000406254 2.03157e-22)
(1.06147 0.00182007 1.14981e-22)
(1.06382 0.00455332 -2.34574e-21)
(1.06403 0.00674157 2.0164e-21)
(1.06293 0.00818794 2.00379e-21)
(1.0611 0.00871889 2.8932e-22)
(1.05905 0.0084998 -3.0795e-23)
(1.05702 0.00771456 -3.01081e-22)
(1.05516 0.00652184 0)
(1.0535 0.00515938 -2.82445e-21)
(1.05202 0.00362389 -1.194e-21)
(1.05066 0.00218913 2.6137e-21)
(1.04941 0.000637507 -2.50619e-21)
(0.554331 -0.153893 -1.59524e-21)
(0.55909 -0.329092 -1.31601e-21)
(0.54592 -0.379475 2.87081e-21)
(0.550935 -0.393684 4.63622e-20)
(0.577159 -0.361565 -3.33864e-20)
(0.627358 -0.273477 -6.94686e-20)
(0.695857 -0.146161 -9.69876e-21)
(0.77794 0.0054779 8.9888e-22)
(0.877101 0.164453 5.44726e-21)
(0.983041 0.272623 1.85138e-20)
(1.05832 0.336001 -3.62993e-20)
(1.09457 0.340306 -1.6217e-20)
(1.08624 0.287715 -3.28503e-21)
(1.03871 0.190103 4.97391e-21)
(0.990754 0.0896405 1.61274e-21)
(0.982075 0.0304416 2.02569e-21)
(1.00171 0.00677683 4.56563e-21)
(1.02331 -0.0036137 3.21844e-21)
(1.04057 -0.00707521 2.57158e-21)
(1.05302 -0.005964 1.79534e-21)
(1.06084 -0.00227982 8.42768e-22)
(1.06468 0.00187234 -1.94992e-21)
(1.0656 0.00562901 -6.16407e-22)
(1.06456 0.00818365 2.83659e-21)
(1.06253 0.00956299 2.47223e-21)
(1.06009 0.00982984 -3.00573e-23)
(1.0577 0.00927675 -2.63657e-23)
(1.05553 0.00818837 0)
(1.05365 0.00675492 -2.83449e-21)
(1.05203 0.00522965 -4.28522e-22)
(1.05063 0.00360261 1.49366e-21)
(1.04934 0.00213732 -2.51021e-21)
(1.04816 0.000611843 -7.06604e-25)
(0.591276 -0.179732 -5.5128e-21)
(0.585259 -0.339548 7.08006e-21)
(0.561852 -0.383551 -5.11321e-21)
(0.552006 -0.397851 1.9719e-20)
(0.560135 -0.3725 -7.48381e-20)
(0.593706 -0.287516 2.10121e-21)
(0.6461 -0.163781 2.80045e-20)
(0.716263 -0.01273 -1.38219e-21)
(0.794134 0.141754 -2.49622e-21)
(0.883795 0.279214 1.05084e-20)
(0.97155 0.357897 5.71876e-25)
(1.02996 0.378916 1.34362e-20)
(1.05193 0.3415 2.04615e-20)
(1.03203 0.251668 -3.75874e-20)
(0.987082 0.134658 -1.63567e-21)
(0.963859 0.0441857 -3.70457e-21)
(0.979177 0.0036206 -3.65412e-21)
(1.00715 -0.0109427 -4.44773e-22)
(1.03079 -0.0155692 -1.69158e-25)
(1.04834 -0.0138421 4.03792e-23)
(1.05978 -0.00867756 -1.56857e-22)
(1.06582 -0.00227117 2.6581e-23)
(1.0677 0.00337206 6.34954e-22)
(1.06688 0.00766666 1.9325e-21)
(1.06451 0.0101649 -2.54163e-21)
(1.0616 0.0111631 3.95039e-36)
(1.05868 0.010965 2.23446e-22)
(1.05608 0.009973 2.53747e-22)
(1.05388 0.00854201 -2.81045e-21)
(1.05207 0.00686961 5.05799e-27)
(1.05055 0.00520274 2.73834e-21)
(1.04926 0.00351544 8.61065e-22)
(1.04806 0.00204869 1.03397e-22)
(1.04697 0.000577299 2.34674e-21)
(0.642973 -0.208053 0)
(0.622934 -0.350713 -9.21053e-22)
(0.588873 -0.387578 4.67945e-22)
(0.566243 -0.399958 5.43441e-20)
(0.55723 -0.380015 2.47361e-21)
(0.573385 -0.298457 1.90571e-20)
(0.60875 -0.177598 7.05987e-21)
(0.663221 -0.0298276 -4.76607e-20)
(0.731587 0.128793 -1.66547e-20)
(0.800739 0.272286 8.40552e-21)
(0.876841 0.375743 1.62267e-20)
(0.948571 0.411399 -7.29689e-20)
(0.993634 0.388057 2.15182e-21)
(1.00323 0.310277 -1.40806e-20)
(0.977229 0.19014 4.39953e-20)
(0.947214 0.0717541 6.30748e-21)
(0.953127 0.0031518 -6.1009e-22)
(0.985164 -0.0203879 9.47229e-22)
(1.01705 -0.0269916 4.09642e-35)
(1.04144 -0.0250258 9.73009e-22)
(1.05795 -0.0178145 -1.48087e-21)
(1.06718 -0.00884975 -2.11558e-22)
(1.0706 -0.000251504 -6.22683e-22)
(1.07005 0.00624186 1.75526e-21)
(1.06735 0.0104794 1.54863e-22)
(1.06372 0.0124734 1.43666e-23)
(1.06011 0.0128018 2.5168e-21)
(1.05688 0.0119853 -8.97376e-22)
(1.05424 0.0104983 -2.68332e-21)
(1.05212 0.00872409 -6.01232e-27)
(1.05046 0.00684215 2.68352e-21)
(1.04909 0.00507204 -2.71663e-21)
(1.04794 0.00336447 4.54314e-35)
(1.04685 0.00192796 2.46318e-21)
(1.04587 0.000535981 0)
(0.718144 -0.247142 -9.62745e-22)
(0.670663 -0.36122 -2.95925e-20)
(0.626534 -0.390871 -1.92388e-20)
(0.592574 -0.400828 2.48607e-21)
(0.567959 -0.384102 6.48465e-20)
(0.566454 -0.306152 -6.42867e-20)
(0.584887 -0.187888 -1.32061e-20)
(0.62218 -0.0426901 -4.23007e-20)
(0.676749 0.114734 -1.03402e-19)
(0.739357 0.264388 5.4683e-20)
(0.796461 0.38187 2.0284e-20)
(0.858449 0.438396 -2.0061e-21)
(0.918724 0.427409 2.82293e-21)
(0.952116 0.362062 -2.19224e-21)
(0.951689 0.248195 -6.6183e-21)
(0.929045 0.111605 -1.0295e-20)
(0.925402 0.0116803 -4.29467e-21)
(0.956743 -0.0316873 1.12543e-22)
(0.997851 -0.0419095 1.23544e-21)
(1.03117 -0.0401674 -4.67696e-22)
(1.05477 -0.0309127 -1.29138e-21)
(1.0686 -0.0183236 1.86519e-21)
(1.07441 -0.00621628 -2.33988e-22)
(1.07453 0.00371244 -2.90731e-23)
(1.07131 0.0102409 2.03109e-22)
(1.06679 0.0137752 -5.5741e-24)
(1.06212 0.0148437 2.30328e-22)
(1.05806 0.0142806 6.9278e-23)
(1.05476 0.0127619 -2.56584e-22)
(1.05223 0.0107796 1.16374e-22)
(1.05032 0.00870097 2.71327e-21)
(1.04887 0.00666341 -2.60373e-21)
(1.04769 0.00484124 -2.44804e-22)
(1.0467 0.00315803 -8.0476e-22)
(1.04573 0.00178285 -3.65389e-23)
(1.04485 0.000490579 -2.31303e-22)
(0.812169 -0.281215 -8.01189e-21)
(0.743072 -0.3717 5.94432e-21)
(0.673323 -0.393384 -3.65886e-21)
(0.62932 -0.400824 -5.92628e-20)
(0.591069 -0.384553 1.04912e-19)
(0.572741 -0.310182 -6.44367e-21)
(0.574336 -0.194435 9.14715e-22)
(0.594669 -0.0521004 5.04082e-21)
(0.633089 0.104113 4.99154e-20)
(0.684886 0.256017 8.3359e-21)
(0.738695 0.380575 -1.30119e-20)
(0.782931 0.453054 -1.70042e-20)
(0.835306 0.458537 1.77113e-20)
(0.884612 0.405789 6.50754e-20)
(0.907424 0.301576 1.89353e-20)
(0.902036 0.161256 2.14613e-21)
(0.895809 0.0287669 -6.99409e-21)
(0.923185 -0.0398647 1.29215e-23)
(0.971303 -0.0613996 -3.19658e-21)
(1.01635 -0.0603725 2.34671e-21)
(1.04926 -0.049035 1.54698e-21)
(1.06988 -0.0322091 -3.62607e-21)
(1.07921 -0.0148784 -4.32249e-22)
(1.08052 -0.000768294 1.1716e-24)
(1.07695 0.0093202 -1.72939e-22)
(1.07111 0.0149643 3.12638e-22)
(1.06506 0.0171774 -1.91728e-22)
(1.05973 0.0169905 -2.72669e-21)
(1.05554 0.0154148 -4.4844e-21)
(1.0524 0.0131912 -1.30567e-21)
(1.05016 0.0107698 2.79012e-21)
(1.04855 0.00846035 -2.63245e-21)
(1.04736 0.00633938 6.13643e-27)
(1.04639 0.00452385 2.26867e-21)
(1.04555 0.00290972 3.87239e-35)
(1.04471 0.00162332 -1.699e-22)
(1.04393 0.000444131 -1.51114e-28)
(0.919241 -0.306429 1.29886e-20)
(0.838617 -0.377542 1.20787e-20)
(0.743267 -0.394372 1.30667e-20)
(0.674141 -0.399888 -9.95047e-24)
(0.624797 -0.38133 -3.27142e-20)
(0.590465 -0.309933 5.82439e-20)
(0.576718 -0.19731 6.43699e-20)
(0.580656 -0.057682 -9.34427e-20)
(0.602743 0.0962197 1.44157e-19)
(0.640474 0.248513 -3.88937e-20)
(0.68673 0.378822 -5.15317e-20)
(0.729805 0.459643 -5.72564e-21)
(0.765438 0.477617 -2.93204e-20)
(0.808797 0.439983 -1.47e-21)
(0.847047 0.347697 -2.341e-20)
(0.862704 0.209691 8.18964e-21)
(0.861635 0.061405 2.31896e-23)
(0.884074 -0.0458447 -3.18283e-21)
(0.937189 -0.0828228 4.1861e-21)
(0.994317 -0.0871356 8.48679e-22)
(1.04055 -0.0742976 -1.31716e-22)
(1.07069 -0.0521391 6.52545e-21)
(1.08556 -0.0280896 1.93689e-21)
(1.08848 -0.00735091 -1.0275e-21)
(1.08451 0.00715364 2.17358e-22)
(1.0773 0.0160313 5.28106e-35)
(1.06925 0.019871 -3.32016e-22)
(1.06219 0.0202728 5.10186e-24)
(1.05666 0.0186477 -2.46516e-22)
(1.05269 0.0160565 2.60156e-21)
(1.04995 0.0132072 8.40479e-23)
(1.04812 0.0104529 -2.72128e-21)
(1.04688 0.00801201 -7.67669e-27)
(1.04597 0.00589047 2.42057e-21)
(1.04522 0.0041416 8.57284e-23)
(1.04453 0.00263686 7.46748e-22)
(1.0438 0.00146053 1.10329e-23)
(1.0431 0.000399792 2.14948e-22)
(1.02214 -0.316616 4.54289e-21)
(0.934278 -0.37563 -2.76224e-22)
(0.832358 -0.392127 3.01741e-20)
(0.740365 -0.396094 2.52882e-20)
(0.666086 -0.374158 -6.01163e-21)
(0.618518 -0.304919 3.22421e-20)
(0.589146 -0.195984 5.13967e-20)
(0.579682 -0.0594024 6.69792e-20)
(0.585931 0.0916295 2.00993e-20)
(0.60859 0.242621 3.20104e-20)
(0.643924 0.375382 2.29123e-20)
(0.681957 0.464559 2.85155e-20)
(0.716978 0.488527 -1.02405e-20)
(0.745406 0.46474 3.99102e-21)
(0.778493 0.383156 5.04068e-20)
(0.80865 0.254988 -1.32831e-20)
(0.823378 0.0951148 -5.37711e-21)
(0.841687 -0.0364934 0)
(0.893791 -0.106005 -1.76317e-22)
(0.962941 -0.118976 -9.97354e-22)
(1.02481 -0.108057 -2.85493e-35)
(1.07009 -0.0816101 -9.47153e-21)
(1.09424 -0.0481562 -1.31001e-21)
(1.10017 -0.018183 3.2629e-21)
(1.09499 0.00385184 1.57714e-21)
(1.0855 0.0168072 -1.49825e-21)
(1.07522 0.0230768 3.87201e-21)
(1.06572 0.0243566 -5.25136e-24)
(1.05833 0.022674 -3.24987e-21)
(1.05311 0.0196034 -2.11731e-22)
(1.04969 0.0161132 -9.13283e-22)
(1.04753 0.0127892 -6.66812e-22)
(1.04621 0.00984436 4.70176e-22)
(1.04536 0.00738636 2.43583e-21)
(1.04474 0.00534891 0)
(1.04418 0.00372197 -3.74402e-22)
(1.04363 0.00235886 -1.9269e-21)
(1.04299 0.00130596 1.80119e-22)
(1.04236 0.00036055 2.07297e-22)
(1.10721 -0.312746 6.71709e-22)
(1.01943 -0.365818 -5.79257e-21)
(0.919309 -0.381357 -4.22486e-20)
(0.822578 -0.38407 3.7672e-25)
(0.726565 -0.359997 2.33801e-20)
(0.653895 -0.294763 1.53239e-20)
(0.611677 -0.190067 -3.03733e-20)
(0.587505 -0.057035 1.32869e-19)
(0.581769 0.0910141 -5.76395e-20)
(0.589811 0.239057 2.1785e-20)
(0.612382 0.371844 8.10532e-22)
(0.642992 0.466456 1.75786e-20)
(0.673602 0.496048 3.10172e-20)
(0.70216 0.481111 -5.56191e-20)
(0.721652 0.412467 -6.64399e-21)
(0.747296 0.287536 -2.41964e-20)
(0.773593 0.134567 1.7656e-20)
(0.79738 -0.0262173 -1.39415e-20)
(0.844542 -0.121398 4.8069e-22)
(0.919622 -0.153964 2.90352e-20)
(0.997748 -0.148517 -1.11199e-20)
(1.06208 -0.121082 -4.80961e-21)
(1.1034 -0.079859 -4.7647e-22)
(1.11782 -0.0361733 -1.80597e-21)
(1.11179 -0.00280855 1.14417e-22)
(1.09738 0.0176848 3.52278e-22)
(1.08298 0.0270343 -1.33976e-22)
(1.07073 0.0295633 4.64455e-35)
(1.06077 0.0278523 -3.50461e-21)
(1.05379 0.0240735 -2.47143e-22)
(1.04935 0.0197276 2.59522e-21)
(1.04674 0.0155585 -3.54431e-21)
(1.0453 0.0119621 2.31239e-22)
(1.04452 0.00898929 2.40829e-21)
(1.04406 0.00663054 0)
(1.0437 0.00475499 -2.29997e-22)
(1.0433 0.00329556 -2.59002e-23)
(1.04284 0.00209556 1.16374e-21)
(1.04228 0.00117023 2.62006e-22)
(1.04169 0.000328921 1.32799e-28)
(1.16547 -0.292603 -7.84679e-21)
(1.08329 -0.342449 -7.19774e-22)
(0.994393 -0.357376 2.17519e-21)
(0.899431 -0.360381 -1.27325e-20)
(0.800229 -0.337348 -4.72636e-20)
(0.706797 -0.277344 -1.68741e-20)
(0.641016 -0.178463 -1.55475e-20)
(0.605494 -0.0504716 -2.57493e-20)
(0.585482 0.0940365 -7.16457e-21)
(0.583212 0.239243 -1.46151e-19)
(0.592878 0.369268 2.0535e-20)
(0.614327 0.466023 -3.3815e-20)
(0.638943 0.50061 -2.17181e-21)
(0.663437 0.492849 -2.49953e-20)
(0.683745 0.433966 3.51264e-20)
(0.697685 0.31877 2.22621e-20)
(0.718563 0.158902 -5.32367e-20)
(0.747666 -0.000142672 3.52518e-21)
(0.791081 -0.134826 6.19028e-21)
(0.86718 -0.187708 -4.45236e-21)
(0.956531 -0.192599 -4.31795e-25)
(1.03992 -0.168057 2.0447e-21)
(1.10382 -0.12178 1.17692e-20)
(1.13724 -0.0666876 1.0494e-20)
(1.13841 -0.0160625 -6.93081e-21)
(1.11827 0.0168364 -6.33182e-26)
(1.09472 0.0324372 1.80199e-21)
(1.07694 0.036454 1.52216e-21)
(1.06417 0.0346397 -4.01889e-22)
(1.05481 0.0299091 -1.71463e-22)
(1.04893 0.0242868 3.27659e-21)
(1.04566 0.0189881 3.23236e-22)
(1.04404 0.0144327 2.89395e-35)
(1.04335 0.0107921 -3.03979e-21)
(1.04311 0.00795566 -5.16802e-22)
(1.04299 0.00580284 -2.29352e-22)
(1.04284 0.00415324 1.59012e-27)
(1.04256 0.00289348 2.92816e-22)
(1.04216 0.00186534 -1.11876e-21)
(1.04164 0.0010621 -9.29468e-23)
(1.04108 0.000306745 -1.93241e-22)
(1.1888 -0.25567 8.05506e-22)
(1.11757 -0.300936 2.68832e-23)
(1.0477 -0.318796 -4.44905e-21)
(0.961844 -0.325134 1.21392e-34)
(0.867626 -0.30439 3.635e-20)
(0.772206 -0.25222 2.03897e-20)
(0.686181 -0.159847 3.99001e-22)
(0.629185 -0.0376671 1.24204e-20)
(0.599607 0.100548 6.93845e-20)
(0.584201 0.241793 -1.16338e-19)
(0.585039 0.368558 2.95342e-20)
(0.59689 0.463899 -7.75227e-20)
(0.614545 0.502415 -5.52793e-21)
(0.633022 0.500363 3.67988e-20)
(0.650464 0.449374 -1.14556e-19)
(0.665319 0.342565 -9.18249e-21)
(0.676871 0.190097 1.06352e-19)
(0.695549 0.010262 4.35318e-20)
(0.73757 -0.131383 2.12295e-20)
(0.807121 -0.219788 8.61242e-21)
(0.903567 -0.237278 -8.26758e-21)
(1.00084 -0.218337 2.03124e-20)
(1.08655 -0.171261 3.43466e-20)
(1.14548 -0.105854 -1.10946e-20)
(1.16712 -0.0406988 -9.35468e-21)
(1.15217 0.011209 -5.16064e-21)
(1.11756 0.0384145 7.02104e-25)
(1.08678 0.0459979 0)
(1.06796 0.0437874 -4.29467e-21)
(1.05618 0.0376371 2.40977e-21)
(1.04839 0.0302635 3.90434e-21)
(1.04419 0.0232758 -3.85916e-21)
(1.04231 0.017449 -3.1202e-22)