/*--------------------------------*- C++ -*----------------------------------*\
| =========                 |                                                 |
| \\      /  F ield         | OpenFOAM: The Open Source CFD Toolbox           |
|  \\    /   O peration     | Version:  2506                                  |
|   \\  /    A nd           | Website:  www.openfoam.com                      |
|    \\/     M anipulation  |                                                 |
\*---------------------------------------------------------------------------*/
FoamFile
{
    version     2.0;
    format      ascii;
    arch        "LSB;label=32;scalar=64";
    class       volVectorField;
    location    "170.004218234212004";
    object      vorticity;
}
// * * * * * * * * * * * * * * * * * * * * * * * * * * * * * * * * * * * * * //

dimensions      [0 0 -1 0 0 0 0];

internalField   nonuniform List<vector> 
9700
(
(1.13307e-20 -6.45627e-22 3.30668e-05)
(1.67524e-20 3.39166e-23 0.000111324)
(4.34981e-24 -1.94281e-21 4.47363e-05)
(3.83248e-22 -3.72048e-22 0.000150709)
(-1.10521e-20 -9.70421e-22 0.000174112)
(1.05555e-20 -1.23476e-20 -1.5251e-05)
(-1.58951e-20 -2.23139e-22 0.00014562)
(-3.3523e-24 -5.91868e-21 0.000243301)
(1.99823e-20 -1.23543e-20 1.59449e-06)
(-5.73346e-25 1.92744e-21 1.35184e-05)
(-1.13376e-20 1.33637e-21 6.18541e-05)
(1.04468e-20 -1.00232e-21 0.000332168)
(-1.73355e-21 -8.86756e-20 8.1204e-06)
(-8.24978e-20 3.65595e-21 4.38062e-05)
(1.08106e-20 1.34694e-20 1.27341e-05)
(9.57854e-21 2.52632e-21 -3.15021e-05)
(-9.58148e-25 -1.92807e-21 0.000437887)
(-1.98988e-20 -1.12506e-20 -1.28994e-05)
(5.66963e-24 1.41983e-20 4.16752e-05)
(9.59994e-21 1.31761e-20 2.11131e-05)
(4.82056e-24 -1.89155e-21 -3.925e-06)
(7.36932e-20 9.30793e-21 -0.000370497)
(-3.24835e-23 -1.91202e-21 0.000572181)
(-1.08818e-20 -1.05003e-20 -1.77281e-05)
(8.00309e-20 -3.24754e-21 6.09677e-05)
(4.47007e-21 9.92279e-20 -5.01493e-06)
(-1.16125e-20 -1.60025e-21 1.059e-05)
(1.09199e-20 -2.19573e-20 -8.02505e-06)
(-7.24092e-21 1.60626e-21 -0.000961613)
(7.88898e-20 -9.08023e-21 0.00067526)
(8.19455e-21 -1.14715e-20 -5.53333e-05)
(-4.80968e-24 1.92581e-21 7.30036e-05)
(-8.06767e-21 1.4515e-20 2.09119e-05)
(-2.82594e-24 -7.02285e-21 2.61199e-05)
(1.42162e-20 -2.3501e-20 6.55801e-07)
(5.51882e-22 -1.18403e-19 1.59341e-05)
(-2.69708e-20 -1.63158e-20 -0.00123652)
(-7.15373e-21 -2.92682e-20 0.000774663)
(6.80162e-20 -2.19399e-20 -0.000101083)
(-1.45625e-37 1.91702e-21 6.08461e-05)
(-9.38043e-21 1.46118e-20 2.62234e-05)
(1.16693e-20 -2.82293e-21 1.91855e-05)
(1.66431e-23 -1.23339e-21 2.16802e-05)
(-7.51499e-21 -1.3649e-19 3.79671e-05)
(-3.72739e-21 1.55039e-20 1.82864e-05)
(-5.27845e-22 6.15028e-22 -0.00200738)
(-4.34265e-20 2.70796e-20 0.000887153)
(-4.81558e-20 -8.24998e-20 -0.000180167)
(5.70019e-23 1.85724e-21 5.76467e-05)
(1.36152e-20 1.08191e-20 4.96509e-06)
(-2.69991e-24 -1.91952e-21 1.25992e-05)
(-1.57177e-20 -2.25804e-20 2.83679e-05)
(-3.14823e-22 -1.7664e-20 5.11808e-05)
(9.96832e-20 3.12529e-20 4.27149e-05)
(1.00453e-20 1.184e-19 2.73898e-05)
(-8.2069e-23 -4.51149e-21 -0.00248363)
(5.99447e-22 4.92041e-21 0.00110711)
(-3.36188e-20 3.92176e-20 -0.000266035)
(2.22628e-20 1.01734e-20 5.98015e-05)
(7.24607e-20 -1.10409e-20 -4.1535e-05)
(1.54459e-22 -1.91528e-21 2.36692e-05)
(-1.37218e-20 -2.1736e-20 4.4175e-05)
(9.57282e-22 -1.41542e-19 4.58737e-05)
(1.80013e-22 2.02497e-20 7.55662e-05)
(2.03894e-20 1.2351e-19 7.4091e-05)
(4.14572e-35 -6.78495e-21 7.86481e-06)
(-1.27961e-20 4.26335e-21 -0.00341273)
(-3.98366e-21 -6.8879e-21 0.00126059)
(6.83489e-20 2.54158e-20 -0.000406315)
(5.91873e-20 -5.46832e-20 1.45316e-05)
(5.65507e-20 1.37697e-19 -8.49013e-05)
(1.17576e-19 -3.51591e-20 1.50384e-07)
(1.04405e-20 -2.55216e-20 4.8367e-05)
(-9.27953e-21 -1.31801e-19 6.90191e-05)
(-1.0781e-19 3.38936e-20 9.48743e-05)
(-6.60738e-23 -1.22433e-21 9.82931e-05)
(5.50334e-36 -7.06157e-21 7.03879e-05)
(1.02461e-20 1.3724e-20 3.42579e-05)
(3.3724e-21 -8.09405e-20 -0.00519883)
(-6.00864e-20 -4.44868e-20 0.00112947)
(-3.54153e-21 4.34085e-21 -0.000625026)
(-1.47523e-20 7.6174e-21 -3.07521e-05)
(-6.33262e-20 1.34829e-20 -0.000115045)
(-1.27137e-20 -1.63592e-20 -5.20963e-05)
(1.01305e-19 -4.70696e-20 1.32127e-05)
(-1.29325e-20 -1.37829e-19 9.48337e-05)
(7.24861e-22 1.64417e-20 0.000123647)
(-2.84241e-20 1.29591e-19 0.00014381)
(2.43981e-34 1.22822e-24 0.000165187)
(1.50164e-20 1.43021e-20 0.000110568)
(1.6793e-23 -1.73987e-21 3.95136e-05)
(3.16039e-20 -9.67761e-21 -0.00840151)
(4.3466e-22 -1.19139e-20 -0.000357795)
(-1.52142e-20 -4.23039e-21 -0.0015468)
(-2.22508e-20 1.06887e-19 -9.68908e-05)
(-1.07783e-19 -8.80406e-20 -0.000131772)
(-1.33349e-19 7.27981e-20 -0.00011023)
(-6.62242e-20 -1.84924e-19 -3.90835e-05)
(-2.61223e-20 -1.62807e-19 5.54823e-05)
(-1.03409e-21 1.67588e-20 0.000138411)
(-1.85886e-20 1.36511e-19 0.000185953)
(-2.61299e-35 -7.19936e-21 0.0002009)
(5.83876e-23 9.418e-24 0.00020226)
(-1.10543e-20 -2.35625e-21 0.000132089)
(9.90879e-21 -1.3329e-20 3.57436e-05)
(3.76374e-19 -4.02158e-20 -0.00387642)
(1.73122e-19 5.84792e-20 -0.00251645)
(-3.34222e-19 1.938e-19 -0.00384453)
(7.93192e-21 1.23556e-19 -0.001352)
(8.17366e-21 1.24372e-20 -0.000325907)
(1.31617e-20 5.6868e-21 -9.14915e-05)
(-1.76074e-19 -1.26748e-19 -6.20859e-05)
(-1.60592e-19 -8.83433e-20 2.61205e-05)
(1.23229e-19 2.64511e-20 0.000129912)
(8.0752e-21 1.46428e-19 0.000207938)
(-8.92034e-35 -7.29826e-21 0.000246816)
(-1.82724e-20 1.29783e-20 0.000271634)
(-6.63218e-23 -6.33279e-21 0.000230401)
(1.9758e-20 -1.36979e-20 0.000144803)
(1.06697e-21 -1.44937e-20 5.15546e-05)
(-7.42149e-20 -6.72892e-20 -0.000512732)
(1.11203e-19 5.67368e-20 0.00517831)
(-2.13858e-20 4.47707e-20 -0.00359903)
(2.81003e-21 2.029e-20 -0.00406254)
(2.24135e-20 -1.42651e-20 -0.0021281)
(1.39344e-20 -1.70618e-20 -0.000300817)
(9.13878e-20 1.6077e-19 -3.25267e-05)
(7.01908e-20 -2.49467e-19 -5.00468e-08)
(-3.00725e-20 1.56897e-19 0.000120137)
(1.14778e-19 1.58829e-19 0.000239727)
(-9.18191e-36 -7.37131e-21 0.00029398)
(-1.51375e-20 1.34484e-20 0.000316987)
(1.15e-20 -2.12343e-22 0.000315035)
(1.37667e-20 -9.46113e-20 0.000273152)
(-7.00758e-20 -3.1349e-20 0.000161412)
(-5.18645e-22 2.11351e-21 5.36096e-05)
(-9.21367e-19 1.12069e-19 -0.00543294)
(-6.18179e-21 3.0855e-20 0.024893)
(3.01775e-19 4.64221e-19 0.00942402)
(-8.36931e-20 -2.62795e-19 -0.000914388)
(5.34601e-19 7.98483e-20 -0.00536581)
(8.10852e-20 -1.18511e-19 -0.00252898)
(-1.34684e-20 -2.6062e-20 -0.000312232)
(1.52824e-19 -1.1222e-19 3.33918e-05)
(4.30584e-20 2.07995e-19 8.28013e-05)
(-1.1119e-20 -8.05446e-21 0.000231139)
(4.9709e-22 -7.25108e-21 0.000343444)
(9.57346e-21 1.83004e-20 0.000382572)
(4.22962e-23 -1.81977e-21 0.000408411)
(-1.61129e-20 -1.68934e-20 0.000365382)
(2.03646e-21 -2.06346e-21 0.000288285)
(4.37255e-21 1.52559e-20 0.000198483)
(7.56809e-21 1.26285e-20 5.7004e-05)
(3.21741e-22 -6.9466e-19 -0.0297036)
(-1.18853e-18 -4.2536e-19 0.0323423)
(1.65108e-21 -2.10448e-19 0.0318135)
(-1.90896e-21 4.18752e-21 0.0212766)
(5.58446e-20 5.28844e-20 0.00114725)
(-3.99916e-21 -1.88692e-20 -0.00599949)
(2.06797e-21 -5.18904e-20 -0.00276764)
(-2.96666e-19 -1.43428e-19 -0.00019528)
(2.01904e-20 -1.83683e-19 0.000151614)
(-1.25807e-19 4.68817e-20 0.000192672)
(-1.4694e-19 -6.13303e-21 0.000367399)
(9.32806e-20 4.0019e-20 0.000440568)
(-9.22713e-22 -1.79734e-21 0.000485324)
(-7.27726e-21 -1.70299e-20 0.000468696)
(8.04163e-20 -1.09142e-20 0.000417347)
(-1.767e-20 9.01961e-20 0.000334591)
(1.59337e-20 1.13995e-20 0.000206135)
(9.65661e-22 -1.36562e-20 4.6662e-05)
(5.52745e-19 1.52949e-18 -0.0765855)
(2.63448e-18 -6.72668e-20 0.000944999)
(-1.23968e-18 -6.2451e-19 0.0284265)
(-3.0161e-32 -6.45298e-22 0.0506656)
(1.66399e-19 8.33703e-19 0.031965)
(-1.00981e-19 2.97427e-19 0.00362607)
(-2.49603e-19 -2.14267e-19 -0.00645265)
(-1.95142e-19 -3.14853e-19 -0.00266635)
(-2.31987e-19 7.63527e-20 -4.33119e-05)
(-1.52927e-21 2.38977e-19 0.000249143)
(1.61014e-19 2.69486e-20 0.000323066)
(-8.18089e-20 2.09985e-19 0.000482982)
(1.34089e-19 3.95928e-20 0.000534784)
(1.59542e-20 -1.12208e-20 0.000575464)
(5.19846e-21 -1.46867e-20 0.000551005)
(-8.52237e-21 1.0701e-20 0.00045226)
(1.4474e-20 -8.24657e-20 0.000336717)
(-5.67341e-20 -2.73682e-20 0.000210253)
(-2.36171e-23 1.93102e-21 5.60844e-05)
(1.48539e-18 -1.37675e-18 -0.140427)
(1.94701e-18 -9.82897e-19 -0.0663382)
(-3.80154e-19 1.57002e-18 -0.0351288)
(4.38943e-33 -1.11217e-20 0.0399186)
(-1.60064e-19 -1.10247e-19 0.0667045)
(-2.6021e-20 2.67223e-19 0.0422695)
(-9.22322e-20 -5.73091e-21 0.00488382)
(-3.53371e-20 -4.36291e-20 -0.00656648)
(2.77858e-19 -1.80092e-22 -0.00222573)
(4.93063e-21 2.89349e-19 0.000116585)
(1.99134e-19 8.11697e-21 0.000349214)
(-1.53192e-19 1.59398e-19 0.000505388)
(-1.24644e-20 -2.68279e-20 0.000608715)
(1.04301e-19 1.89962e-20 0.000666609)
(8.35812e-21 -1.50999e-20 0.000642525)
(6.67339e-22 2.04063e-21 0.00058133)
(-2.06996e-20 8.41559e-21 0.000463294)
(1.55593e-21 -6.35132e-21 0.000345848)
(9.79406e-21 3.96494e-21 0.000217773)
(-5.14082e-22 1.13226e-20 5.70634e-05)
(-1.95604e-18 -2.298e-18 -0.194188)
(-6.0441e-18 5.7989e-18 -0.139333)
(1.27923e-18 -3.25249e-18 -0.139881)
(6.691e-33 -2.07443e-20 -0.0488653)
(-5.47758e-19 -1.71857e-18 0.0484912)
(2.11306e-20 1.22212e-21 0.0833722)
(-3.84561e-19 9.3668e-19 0.048979)
(-3.63637e-19 -4.95573e-19 0.00435046)
(1.32595e-20 4.96081e-20 -0.00629108)
(7.06388e-20 3.57958e-19 -0.00153475)
(-2.32148e-19 -4.1209e-20 0.000318636)
(8.17905e-20 -2.18397e-19 0.000512817)
(-1.82972e-19 -8.88667e-20 0.000642174)
(8.75889e-20 -1.83905e-19 0.00072473)
(2.23884e-20 -2.78453e-20 0.00073406)
(-9.43839e-22 2.27483e-21 0.00069659)
(-1.34099e-20 8.68034e-21 0.00062057)
(6.09378e-20 -1.01092e-20 0.000480015)
(1.17792e-22 1.93386e-21 0.000350381)
(-5.40754e-20 1.78916e-20 0.000192798)
(6.59621e-21 -9.27641e-21 3.81687e-05)
(-1.01517e-18 3.2107e-18 -0.22387)
(-5.6133e-19 1.04478e-18 -0.200727)
(1.84909e-18 -1.99421e-18 -0.255591)
(1.31812e-33 7.96099e-20 -0.178804)
(1.65773e-18 -9.50639e-19 -0.0631859)
(-3.34105e-19 -1.92123e-18 0.0629126)
(2.11231e-19 -1.54536e-19 0.0983401)
(-4.82358e-19 -6.30486e-19 0.0505116)
(-4.00515e-19 2.77812e-19 0.00208442)
(-1.13814e-21 1.39851e-20 -0.00550736)
(-3.85258e-22 -9.58018e-21 -0.000748277)
(-2.90791e-20 2.94469e-20 0.00047491)
(1.76926e-20 2.78892e-20 0.000658029)
(-1.35314e-19 -8.04734e-21 0.000760966)
(1.00613e-19 -5.91341e-20 0.000842216)
(-2.65812e-21 2.18433e-20 0.000803766)
(-8.50392e-22 1.44142e-20 0.000746808)
(4.43569e-21 -1.17486e-20 0.000629537)
(-8.87759e-21 1.9238e-21 0.000473674)
(-1.85314e-21 1.29091e-20 0.00032254)
(7.02646e-21 -1.07289e-20 0.000173765)
(6.60081e-22 -1.03123e-19 3.57575e-05)
(1.10684e-19 -1.04415e-18 -0.229552)
(2.44819e-18 -4.98655e-18 -0.232077)
(-1.30528e-18 3.61024e-18 -0.359897)
(2.31449e-33 3.70482e-20 -0.31991)
(-3.65754e-18 2.61642e-18 -0.214276)
(9.19785e-19 1.98769e-18 -0.062725)
(7.41042e-20 -2.17195e-18 0.0852134)
(-1.09063e-19 -1.39589e-19 0.109545)
(1.68655e-20 3.14381e-20 0.0461357)
(-6.57049e-21 5.70779e-19 -0.000998212)
(1.33554e-34 9.82545e-21 -0.0042603)
(8.80156e-21 5.33143e-20 -6.83432e-05)
(2.18744e-20 1.1321e-20 0.000633015)
(-1.34507e-19 1.59562e-19 0.000818951)
(9.08455e-20 8.2351e-20 0.000885024)
(-6.37264e-20 9.07356e-20 0.000915867)
(4.19279e-20 4.60804e-20 0.000832049)
(7.01501e-21 -1.09635e-20 0.000733297)
(-8.26377e-23 1.91128e-21 0.000586879)
(4.37614e-20 2.18912e-20 0.000450787)
(-1.36809e-21 2.31996e-20 0.000287996)
(-3.54233e-20 -1.10193e-19 0.000177625)
(-2.03632e-21 1.63012e-20 2.31884e-05)
(-1.5084e-19 -4.99349e-19 -0.282316)
(1.96561e-19 -4.91279e-19 -0.214268)
(-2.09666e-18 4.14213e-18 -0.432709)
(1.58326e-32 -1.72363e-19 -0.453658)
(1.1505e-18 -1.17264e-18 -0.379439)
(1.15617e-18 6.34759e-20 -0.227796)
(-2.01687e-18 1.26103e-19 -0.0451403)
(-1.4469e-18 -1.07189e-18 0.114564)
(-3.69347e-19 -9.7222e-19 0.113666)
(-6.00805e-19 1.28715e-18 0.0364232)
(1.13135e-34 -1.2423e-20 -0.00356046)
(-1.42711e-19 3.39563e-19 -0.00268385)
(1.70424e-19 1.11262e-19 0.000444848)
(2.4816e-20 -3.15308e-20 0.000797714)
(-2.70294e-21 -7.06501e-20 0.000950224)
(4.85927e-20 -2.67701e-20 0.000970477)
(-4.7663e-21 -1.87457e-20 0.000942104)
(1.86699e-20 -1.66915e-20 0.000856225)
(-1.75589e-22 1.89696e-21 0.000715324)
(-1.29281e-21 8.71838e-21 0.000558708)
(-5.89124e-21 -1.10311e-20 0.000403755)
(-4.34899e-22 -5.08119e-21 0.000252489)
(7.87127e-20 1.32361e-20 0.000127712)
(1.16432e-21 1.07252e-19 2.04541e-05)
(-8.68254e-21 -4.92806e-20 -0.169493)
(1.68591e-19 -8.24625e-19 -0.188586)
(5.85184e-19 -9.00849e-19 -0.464286)
(3.34261e-20 -4.95723e-20 -0.553968)
(5.11087e-18 -3.43409e-18 -0.545629)
(-3.58108e-18 3.72084e-18 -0.408923)
(4.7218e-18 -4.06398e-19 -0.237974)
(-2.97844e-19 -1.04066e-19 0.00908346)
(1.28964e-18 -1.95153e-18 0.14255)
(2.48823e-19 1.21486e-18 0.108157)
(-1.23263e-34 -1.81728e-20 0.02353)
(-6.78343e-20 2.98926e-20 -0.00460462)
(2.86277e-21 -2.89957e-20 -0.00115559)
(6.73886e-20 -9.96264e-21 0.000766488)
(-7.62587e-20 -1.79855e-19 0.00094583)
(1.21307e-19 -7.75335e-20 0.00105201)
(-7.16732e-20 -3.92243e-20 0.00102704)
(7.08361e-20 -1.9248e-20 0.000961353)
(4.96569e-21 7.36532e-21 0.000852193)
(-3.75785e-21 7.29397e-21 0.000681028)
(-5.51457e-21 -9.27663e-21 0.000507022)
(3.10623e-20 -1.01903e-19 0.000331078)
(5.85833e-21 9.61156e-20 0.000223013)
(5.91672e-20 1.04094e-19 0.000111589)
(9.85321e-23 3.69215e-21 3.07213e-05)
(-1.9561e-18 3.96001e-19 -0.134344)
(-1.08316e-18 9.1003e-18 -0.185274)
(2.85805e-19 -3.47291e-18 -0.439081)
(-3.07204e-18 6.71271e-18 -0.615194)
(-1.66847e-18 3.72261e-18 -0.679904)
(-6.61395e-19 8.31636e-19 -0.602099)
(1.19999e-18 -3.65672e-19 -0.365025)
(-4.40491e-18 4.80246e-20 -0.236492)
(-5.04108e-19 1.12467e-18 0.0798934)
(1.82754e-18 1.70956e-20 0.160518)
(4.84881e-33 -2.10319e-20 0.0916976)
(-6.05698e-19 -5.86257e-20 0.0107802)
(-2.51308e-19 -2.38575e-19 -0.00394087)
(5.63725e-19 -4.63372e-19 -5.67056e-06)
(-3.69715e-20 -2.30946e-19 0.000966227)
(-1.71917e-20 -2.05631e-20 0.00107257)
(-1.50089e-19 4.21778e-20 0.00112185)
(1.54424e-20 6.87057e-20 0.0010505)
(3.20402e-21 1.60304e-20 0.000940237)
(-1.12857e-20 9.46303e-21 0.000780596)
(3.44033e-21 -9.08885e-21 0.000614983)
(-4.12859e-21 -8.15899e-20 0.0004503)
(-7.28926e-20 2.939e-20 0.000304323)
(6.09873e-21 4.01846e-20 0.000181171)
(6.46983e-20 -1.05797e-21 9.58215e-05)
(1.47936e-22 -1.5959e-21 8.63946e-06)
(-1.22393e-18 7.43518e-19 -0.123977)
(-4.64541e-19 3.34543e-18 -0.0496931)
(-8.57595e-20 -4.08666e-20 -0.372262)
(-3.88225e-20 3.27108e-19 -0.617924)
(9.92534e-19 -1.62448e-18 -0.774795)
(2.19255e-18 -5.05725e-18 -0.767764)
(-6.89419e-18 1.59805e-18 -0.616331)
(-5.78819e-18 5.23866e-21 -0.318198)
(-1.45183e-18 1.32629e-18 -0.0952698)
(-2.39665e-19 2.89894e-19 0.128584)
(1.36068e-33 -9.44726e-21 0.165081)
(1.92847e-19 -2.15019e-19 0.0663309)
(-1.26695e-19 -1.07043e-19 0.00153252)
(8.79731e-21 -8.08886e-20 -0.0022336)
(5.13685e-20 1.71062e-22 0.000642916)
(-3.48731e-20 4.25339e-20 0.00108965)
(-2.69396e-20 -6.02791e-21 0.00113858)
(2.57501e-20 -3.66829e-20 0.001135)
(5.4371e-22 -2.73711e-22 0.00102318)
(-2.67808e-20 7.73216e-21 0.000888881)
(2.78188e-20 -1.17837e-20 0.000725146)
(-6.09268e-21 -6.67047e-20 0.000539243)
(-6.05334e-22 1.62379e-20 0.000363565)
(-3.41626e-20 1.12481e-19 0.000227321)
(-1.80689e-20 -1.66974e-19 0.000103634)
(-9.82341e-20 5.38908e-21 4.24972e-05)
(-2.60244e-22 -1.25723e-20 2.00134e-06)
(-3.65718e-20 -2.5614e-19 -0.132017)
(4.78412e-18 -6.08604e-18 0.0874723)
(1.87298e-18 -7.73273e-18 -0.2862)
(-1.49077e-18 3.74862e-18 -0.576339)
(-5.78739e-18 2.9319e-18 -0.807292)
(2.92256e-19 -5.27283e-19 -0.891371)
(-1.80403e-18 3.74196e-18 -0.812339)
(-7.16111e-18 2.26767e-19 -0.60056)
(-1.32647e-19 2.10137e-20 -0.296175)
(2.05356e-18 3.24508e-18 -0.00853975)
(-3.23626e-34 2.46229e-20 0.174613)
(1.47823e-18 -6.98349e-19 0.150374)
(-1.89622e-21 6.37124e-21 0.0383537)
(-2.57933e-19 -5.48119e-19 -0.00270198)
(2.799e-19 3.1249e-19 -0.000543887)
(-3.80005e-19 6.49255e-20 0.000949252)
(-3.61313e-20 1.84977e-20 0.00118385)
(5.8038e-20 -1.28705e-19 0.00116416)
(4.639e-21 -9.0324e-21 0.00111545)
(-9.23556e-21 2.40736e-20 0.000960738)
(1.68496e-20 -2.00359e-20 0.000786654)
(-5.50845e-20 -2.75869e-20 0.000624807)
(-1.07948e-21 1.59693e-20 0.000434984)
(2.54461e-20 9.6565e-20 0.000289857)
(-6.04925e-20 1.54159e-20 0.000161701)
(-7.03278e-22 1.56952e-20 7.74415e-05)
(5.24248e-20 -1.54401e-20 2.6138e-05)
(-3.09169e-22 -6.20641e-21 9.98338e-06)
(2.97451e-20 -6.32713e-19 -0.154427)
(-1.41981e-18 -4.63009e-18 0.233647)
(1.37996e-18 4.51059e-18 -0.195634)
(1.8917e-18 -9.64532e-18 -0.503308)
(5.93764e-18 -1.66837e-17 -0.805753)
(2.86013e-19 -1.02783e-18 -0.960861)
(-6.36115e-19 -1.12371e-18 -0.95858)
(-6.71339e-18 5.31647e-19 -0.804206)
(-3.53862e-18 2.6044e-19 -0.555282)
(1.71598e-18 2.36175e-18 -0.217569)
(1.13961e-33 -1.31769e-19 0.0841882)
(-1.01721e-18 2.45738e-18 0.204658)
(1.31192e-18 -3.04142e-19 0.116116)
(-7.33145e-20 1.75717e-19 0.0153868)
(7.92564e-20 -2.10542e-20 -0.00284283)
(-6.64823e-20 -4.33836e-20 0.000559807)
(3.08996e-19 2.024e-20 0.00107334)
(1.17444e-19 -1.41391e-19 0.00119858)
(9.31392e-21 -1.30722e-20 0.00113884)
(8.28027e-21 -2.40167e-20 0.0010202)
(1.36731e-20 3.17579e-21 0.000864567)
(-2.0464e-20 6.84345e-21 0.000691044)
(3.97157e-20 -2.22566e-20 0.000524089)
(3.94003e-20 8.78062e-20 0.00035127)
(3.02262e-21 3.19823e-21 0.000214542)
(9.92364e-20 -2.1803e-20 0.000109618)
(7.44903e-21 6.65639e-20 6.16884e-05)
(-3.20164e-20 5.26304e-21 2.0495e-05)
(7.25015e-21 -1.24536e-19 -1.06874e-06)
(3.42166e-20 -1.4929e-18 -0.0980302)
(-1.32709e-18 5.51455e-19 0.37824)
(-8.76369e-19 5.67159e-18 -0.137568)
(1.99848e-18 -6.52098e-18 -0.417853)
(-4.27605e-18 -1.74598e-18 -0.748543)
(1.21524e-18 -3.26391e-18 -1.00995)
(1.06768e-17 -2.93987e-18 -1.0695)
(-5.0412e-18 6.84656e-18 -0.969436)
(1.26276e-18 6.17819e-18 -0.742409)
(7.91817e-18 3.5889e-18 -0.435739)
(-3.37354e-33 -1.08322e-19 -0.0845805)
(1.34696e-18 -4.77785e-18 0.173322)
(-3.34487e-18 1.18256e-18 0.200837)
(1.07223e-18 1.34139e-19 0.0718857)
(-1.48411e-18 4.97637e-19 0.00219919)
(5.03654e-20 5.71086e-19 -0.00126618)
(-6.88339e-20 -5.5837e-20 0.000971647)
(4.20334e-20 2.66257e-20 0.00106237)
(-1.39479e-20 1.98878e-20 0.00113349)
(7.94615e-20 -7.0589e-20 0.00105457)
(8.42152e-21 5.5912e-20 0.000907508)
(-5.01902e-20 -3.09989e-20 0.000735395)
(6.87828e-20 1.44601e-20 0.000560096)
(5.27629e-20 8.04165e-20 0.000394793)
(4.21167e-21 2.91855e-21 0.000252104)
(4.81553e-22 -1.57663e-21 0.000152816)
(-5.76872e-20 -2.64593e-21 8.13605e-05)
(-4.6642e-21 -6.14566e-20 2.8279e-05)
(-6.35638e-23 -1.31366e-19 1.68962e-05)
(-2.0062e-21 1.35853e-20 -3.05397e-06)
(-4.78849e-19 -7.16536e-21 0.0680268)
(-2.9199e-18 -1.47446e-20 0.499825)
(-2.30111e-19 -3.3303e-19 -0.02306)
(-2.84804e-18 6.28344e-18 -0.316962)
(1.89656e-18 5.66957e-18 -0.670298)
(9.0778e-18 -3.44479e-20 -0.956989)
(4.66044e-20 -8.17463e-20 -1.1527)
(8.81351e-18 -1.02295e-18 -1.1077)
(7.5023e-19 8.98034e-18 -0.918317)
(5.45034e-18 4.42682e-18 -0.630781)
(4.07083e-32 -3.95809e-20 -0.287103)
(-2.46862e-18 -4.68811e-19 0.050924)
(-2.62967e-18 8.84021e-19 0.230972)
(1.37627e-18 -1.59427e-18 0.161679)
(3.52244e-19 -1.57252e-19 0.032459)
(7.89373e-19 -6.38948e-20 -0.00200094)
(6.78181e-21 -5.73504e-19 0.000169879)
(-3.00156e-20 3.63823e-19 0.00102734)
(9.66554e-22 1.3637e-21 0.00104147)
(9.99669e-20 -1.19039e-19 0.00100907)
(-4.19527e-22 -4.3092e-21 0.000915581)
(-2.1603e-21 1.85223e-20 0.000740253)
(-7.29732e-20 1.35064e-20 0.000582408)
(4.32693e-20 1.17882e-19 0.00042423)
(8.65718e-20 -5.88832e-20 0.000285288)
(7.38496e-23 -1.56568e-21 0.000170974)
(-3.51464e-21 -1.37794e-20 7.32558e-05)
(3.61019e-20 1.72321e-22 2.25202e-05)
(1.81159e-21 4.51724e-20 9.50083e-06)
(1.10122e-19 3.67504e-21 1.67487e-06)
(-1.19548e-21 1.17128e-19 -1.60528e-05)
(-3.52501e-19 -1.55504e-18 0.247507)
(-3.31103e-18 9.00017e-19 0.583151)
(9.96458e-19 1.5073e-19 0.112412)
(7.8512e-19 -1.78757e-18 -0.20787)
(-3.87357e-18 6.9184e-18 -0.57737)
(2.81688e-18 1.11832e-18 -0.885315)
(3.26566e-18 -4.72249e-18 -1.10058)
(1.5778e-18 -8.55187e-18 -1.17824)
(-1.19717e-17 2.6514e-18 -1.06364)
(2.13713e-18 -6.54312e-19 -0.80054)
(8.32818e-20 -4.96541e-20 -0.477649)
(1.35878e-19 4.32936e-18 -0.12311)
(8.73132e-18 -3.62737e-19 0.17335)
(-4.04007e-18 4.20739e-18 0.239451)
(-1.40553e-18 8.70312e-19 0.102563)
(-1.59691e-19 2.98834e-20 0.00798391)
(7.00969e-19 2.70237e-19 -0.00145688)
(8.88613e-20 5.91279e-20 0.00082655)
(2.59298e-20 -3.19941e-20 0.000954733)
(-2.88704e-20 -4.14912e-20 0.000959893)
(-2.20028e-20 -2.28461e-21 0.000843732)
(-6.05701e-20 1.7958e-19 0.000761169)
(1.24476e-19 1.53741e-22 0.000583673)
(9.43208e-20 -8.78185e-20 0.000424216)
(4.64092e-21 5.16323e-21 0.000291595)
(-1.0607e-20 4.98831e-21 0.00016243)
(-5.53923e-21 -1.45841e-20 8.44499e-05)
(6.91497e-22 -6.48794e-21 1.28162e-05)
(-1.22187e-20 -1.43047e-19 3.51856e-06)
(9.58421e-22 -5.79467e-20 5.06953e-06)
(-3.78298e-20 1.22579e-19 4.83985e-06)
(2.06807e-21 -1.26831e-19 -1.3391e-05)
(-8.88209e-19 -1.71615e-18 0.417997)
(-5.34741e-18 -9.18803e-19 0.625857)
(-2.52658e-19 -1.89647e-19 0.181362)
(-1.56795e-18 1.30332e-18 -0.0959129)
(-1.09313e-19 -3.38604e-18 -0.476139)
(4.7512e-18 -6.66208e-18 -0.80117)
(-1.13725e-18 -2.3634e-18 -1.045)
(-1.89188e-18 -2.32209e-19 -1.16047)
(9.23096e-19 -8.47088e-18 -1.10463)
(2.75924e-18 -2.06605e-19 -0.927316)
(1.95171e-18 5.55497e-18 -0.633961)
(2.31156e-18 2.87963e-18 -0.296567)
(6.89309e-19 5.42971e-20 0.0464638)
(-2.86873e-18 5.36144e-19 0.255238)
(-4.34081e-19 2.50813e-19 0.197274)
(-9.95476e-20 3.36116e-19 0.0468154)
(-3.8431e-19 9.37436e-19 -0.00139474)
(-1.37576e-18 -7.15075e-19 -0.000268441)
(-3.79373e-19 3.86051e-19 0.000784167)
(-3.58948e-19 3.52774e-20 0.000823259)
(-2.87079e-20 -2.75585e-19 0.000799077)
(-1.20042e-19 3.19853e-19 0.000651178)
(1.1631e-19 1.61977e-19 0.000559218)
(1.66427e-19 -1.58051e-19 0.000387365)
(1.39889e-19 6.42017e-20 0.000302016)
(-1.10431e-20 9.46528e-21 0.000170323)
(1.13762e-19 -7.2348e-20 8.68064e-05)
(-5.9539e-22 -6.42555e-21 4.87737e-05)
(-2.41773e-20 -1.51216e-19 6.97798e-06)
(-1.23009e-19 2.7283e-21 9.8212e-06)
(-4.12302e-21 8.08039e-20 3.20391e-05)
(5.91874e-20 -1.28806e-19 7.4081e-06)
(-2.18295e-21 1.23447e-20 -1.55138e-05)
(-4.24376e-18 -2.40791e-18 0.571574)
(-2.69347e-19 -7.95194e-18 0.640765)
(-7.31995e-19 7.91576e-19 0.265611)
(-4.54837e-19 1.09125e-19 0.0234725)
(2.46933e-18 -2.33219e-18 -0.37055)
(-1.40045e-18 1.23837e-19 -0.710689)
(-4.41788e-19 2.9422e-18 -0.969989)
(4.04536e-18 2.26155e-19 -1.12921)
(-4.79202e-18 1.56521e-18 -1.13811)
(6.63709e-20 -5.70209e-18 -0.995461)
(-1.23779e-19 -2.41181e-19 -0.75106)
(-1.72731e-19 -5.36926e-19 -0.439767)
(-3.31709e-18 -2.89585e-18 -0.101547)
(5.13984e-18 -5.05754e-18 0.196373)
(3.7713e-19 -3.28744e-19 0.271498)
(-7.1795e-19 -8.25012e-19 0.125161)
(1.38916e-18 3.16104e-20 0.0112861)
(2.98839e-19 1.40892e-19 -0.00254573)
(5.99103e-21 -3.61303e-21 -0.000190102)
(-4.68029e-20 -1.00881e-19 0.000337884)
(5.13128e-20 -9.75536e-21 0.000556764)
(-8.56974e-22 -1.45883e-20 0.00057244)
(-2.22757e-19 -2.18276e-19 0.00041707)
(3.07372e-19 1.45813e-19 0.000381212)
(-2.02697e-19 -6.80208e-20 0.000244877)
(-1.05668e-22 1.14175e-22 0.000147535)
(-1.12461e-21 1.29481e-20 7.00646e-05)
(1.80157e-20 3.43982e-21 1.52233e-05)
(-1.10894e-20 -1.69641e-19 -1.1735e-05)
(-1.00904e-21 1.41189e-20 -1.06992e-06)
(2.69959e-20 1.39899e-19 -6.81691e-06)
(-3.87649e-21 3.97644e-20 3.35733e-05)
(9.82469e-20 2.13447e-20 1.4413e-05)
(-3.73437e-21 1.08334e-19 4.91591e-06)
(1.30307e-18 -5.11153e-19 0.631382)
(-1.4236e-19 2.0101e-18 0.638679)
(-1.54485e-18 1.47807e-18 0.319698)
(-3.45869e-19 -3.69802e-18 0.128336)
(-1.22546e-18 -1.29179e-19 -0.262717)
(9.28759e-18 4.01325e-19 -0.620081)
(-4.83282e-20 2.84923e-19 -0.884245)
(-1.22487e-18 -5.27247e-18 -1.07075)
(1.02482e-18 -3.35969e-18 -1.12794)
(1.57321e-18 1.624e-18 -1.0523)
(-1.21706e-18 -7.25112e-18 -0.827757)
(-2.73209e-18 -3.11714e-18 -0.542147)
(-2.20216e-19 -4.23633e-19 -0.228693)
(3.06315e-18 1.44921e-18 0.0897117)
(-1.12639e-17 7.77768e-18 0.292405)
(1.49388e-18 1.5152e-18 0.220605)
(3.71079e-19 3.19265e-21 0.0564859)
(-1.04218e-18 -4.89576e-19 -0.00264611)
(-2.81932e-21 -5.49839e-22 -0.00204201)
(7.67832e-19 1.39295e-18 -0.00105936)
(5.56882e-19 -7.91761e-20 -0.000477464)
(-1.97922e-19 7.58341e-19 1.91953e-06)
(-1.92763e-19 2.35036e-19 0.000245529)
(4.33469e-19 2.53962e-20 0.000223743)
(2.75995e-21 2.48668e-19 0.00019536)
(1.15663e-20 -1.24741e-20 7.14599e-05)
(1.28357e-19 1.61983e-19 2.98318e-05)
(1.12486e-19 -1.37402e-19 -3.53614e-05)
(5.33712e-20 -2.07771e-19 -3.27657e-05)
(-3.0594e-22 1.41273e-20 -3.8952e-05)
(-1.34349e-20 1.48903e-19 -1.22159e-05)
(-3.6852e-20 -1.54807e-19 1.89589e-05)
(8.19914e-22 -4.25607e-21 7.17465e-05)
(4.66394e-20 1.17443e-19 3.30275e-05)
(5.66533e-23 -6.59013e-21 1.31745e-05)
(1.31676e-18 3.0536e-18 0.625975)
(3.72422e-18 1.0089e-17 0.629065)
(8.9277e-19 2.15965e-18 0.361796)
(4.53854e-19 1.50729e-19 0.219857)
(-3.12596e-18 -2.56272e-18 -0.148152)
(5.77843e-18 -5.55677e-19 -0.53092)
(-4.49104e-18 -3.75122e-19 -0.795155)
(-1.2968e-17 -2.5692e-18 -0.992216)
(8.69691e-18 -1.24168e-17 -1.08915)
(4.49575e-18 1.18638e-17 -1.0427)
(3.57639e-18 7.85576e-18 -0.85945)
(6.24079e-20 6.93755e-19 -0.587603)
(-3.12081e-19 -2.42699e-19 -0.314777)
(-3.27356e-19 -1.18346e-18 -0.0145624)
(1.46702e-18 -8.55945e-19 0.248304)
(4.32247e-18 -2.44208e-18 0.305566)
(-3.55455e-19 -1.34211e-18 0.134848)
(-3.12917e-19 -1.20015e-19 0.0143512)
(-2.7487e-19 3.41943e-19 -0.00424411)
(-1.82451e-19 -2.98329e-19 -0.00227667)
(-2.66458e-19 -9.36645e-19 -0.00214662)
(-7.87272e-19 9.17362e-19 -0.00150264)
(5.67026e-19 4.00001e-19 -0.000842684)
(-7.25633e-21 7.47146e-21 -0.0002585)
(4.48799e-20 -3.4683e-20 3.76293e-06)
(1.10363e-20 -2.90981e-20 6.02082e-05)
(2.74996e-20 5.56214e-21 -5.49843e-05)
(7.17662e-21 -1.25475e-20 -5.9627e-05)
(-1.45657e-20 -1.5518e-20 -6.55923e-05)
(1.68418e-19 -6.78762e-21 -3.73732e-05)
(-1.80345e-20 1.66822e-19 3.83623e-06)
(2.75116e-20 -1.56103e-19 3.73736e-05)
(-1.08146e-19 -1.00887e-20 5.97633e-05)
(8.16821e-21 -3.82162e-20 9.45459e-05)
(-2.87091e-20 -1.05412e-20 7.41305e-05)
(3.46808e-22 -9.55563e-21 2.288e-05)
(8.09213e-19 4.10996e-18 0.624401)
(-2.62271e-19 -2.93389e-18 0.600177)
(-1.94149e-19 3.11813e-18 0.389812)
(3.75267e-21 9.52472e-18 0.286066)
(-4.40836e-18 -8.01622e-18 -0.0695667)
(9.26261e-18 -5.23247e-19 -0.449499)
(-5.15122e-18 1.44321e-19 -0.708419)
(2.15341e-18 5.43905e-19 -0.905148)
(7.71381e-18 3.04913e-18 -1.01972)
(-2.67854e-18 2.26683e-18 -1.01573)
(2.34082e-21 -8.45407e-18 -0.855603)
(-9.99832e-19 -1.29264e-18 -0.576276)
(-1.22565e-18 -3.99238e-18 -0.358352)
(-4.71035e-18 2.98154e-18 -0.0887102)
(-2.73109e-18 7.14472e-18 0.184244)
(-1.21981e-18 3.61632e-20 0.337047)
(7.45689e-18 -1.75543e-18 0.236822)
(3.66491e-19 9.20964e-20 0.0594945)
(9.2076e-19 -1.23149e-18 -0.00143653)
(7.09208e-19 1.05403e-18 -0.00276945)
(-1.10339e-18 2.9904e-19 -0.00248335)
(2.84556e-19 -1.75319e-18 -0.00218954)
(-1.23506e-18 -7.68473e-19 -0.00222983)
(4.88653e-19 -7.61545e-19 -0.00202867)
(-6.39381e-20 9.00217e-21 -0.000990965)
(-9.04391e-20 3.05433e-19 -0.000193408)
(-2.31683e-19 2.22921e-19 -3.13704e-05)
(-3.54212e-19 -1.22612e-19 -0.000125984)
(-2.16352e-19 -3.56168e-19 -0.000111926)
(6.92909e-20 -1.22146e-19 -8.02591e-05)
(-3.55451e-21 1.93584e-19 -3.28688e-05)
(3.84189e-20 -1.72704e-19 2.6753e-05)
(-5.74493e-22 1.28198e-20 7.29728e-05)
(-9.84465e-20 1.03446e-19 0.000118255)
(-2.84432e-22 3.96366e-21 0.000150965)
(4.29361e-20 -2.96724e-21 0.000106214)
(-1.7235e-23 1.1411e-21 3.30731e-05)
(-3.2489e-18 -2.10907e-18 0.597594)
(-9.59893e-21 -6.69624e-18 0.552104)
(-9.22259e-20 -4.79926e-18 0.404652)
(-3.20355e-19 -6.45935e-21 0.3274)
(-2.1052e-19 3.45666e-18 -0.0343392)
(2.50992e-18 -2.73302e-18 -0.375046)
(-6.68516e-18 -2.52146e-19 -0.63313)
(2.68046e-18 -1.10141e-18 -0.817701)
(4.47103e-18 5.42331e-18 -0.936598)
(1.26213e-17 -4.96938e-18 -0.957469)
(-4.77568e-18 -7.03874e-18 -0.834214)
(-7.78868e-19 -1.41892e-18 -0.572644)
(1.70881e-18 6.16613e-18 -0.362463)
(2.42269e-19 3.99357e-19 -0.123262)
(3.76807e-18 -1.96914e-18 0.126308)
(-2.42525e-18 -1.36974e-18 0.338785)
(4.25534e-19 2.10264e-18 0.331367)
(-9.95736e-18 -4.72551e-19 0.134861)
(-1.64583e-18 2.56102e-18 0.014394)
(2.32895e-19 2.92757e-19 -0.0062963)
(1.83838e-19 -9.53301e-20 -0.00293144)
(1.03856e-18 2.49252e-18 -0.00122766)
(-4.69514e-19 8.6399e-19 5.46895e-05)
(9.3194e-19 -7.57693e-19 -0.00186221)
(9.89381e-20 3.30171e-20 -0.00325423)
(4.3254e-21 1.07863e-20 -0.00193493)
(-3.61261e-20 -6.06144e-20 -0.00039376)
(-2.96003e-20 8.65926e-21 -9.3302e-05)
(-1.17186e-20 -2.00279e-20 -0.00018247)
(1.54675e-20 2.60157e-19 -0.000151732)
(1.82732e-19 -7.27823e-22 -6.54391e-05)
(3.0694e-20 -1.9991e-19 5.6713e-06)
(-1.11645e-21 1.29165e-20 8.72975e-05)
(-5.05553e-20 1.23955e-19 0.000148222)
(2.92483e-20 3.33622e-21 0.0001843)
(-8.5145e-21 2.56524e-20 0.000180454)
(1.16293e-20 2.00191e-21 0.0001267)
(-3.37715e-22 8.27529e-21 2.82763e-05)
(-4.42791e-21 -4.43551e-18 0.515844)
(5.82379e-20 -6.91076e-19 0.451202)
(3.87654e-20 4.57887e-18 0.405995)
(2.49014e-19 -5.71861e-18 0.327368)
(7.45525e-19 1.81815e-18 -0.00546756)
(1.89622e-18 -2.02817e-18 -0.314903)
(1.2767e-18 -1.29205e-18 -0.565739)
(5.28828e-18 -7.46052e-19 -0.746629)
(1.30417e-17 4.30924e-19 -0.848379)
(-3.69458e-18 1.31644e-18 -0.881406)
(-1.74943e-18 3.30999e-18 -0.78782)
(2.71294e-18 1.16844e-18 -0.541568)
(4.31058e-19 2.81421e-18 -0.344165)
(-4.83131e-20 6.83089e-21 -0.125591)
(-3.88124e-18 -7.63965e-18 0.111242)
(9.36766e-18 -7.33378e-18 0.311125)
(9.59144e-18 -3.19741e-18 0.406458)
(1.60561e-18 -6.82199e-20 0.245179)
(1.81741e-19 -2.62927e-19 0.0449221)
(-3.17588e-19 -2.89432e-19 -0.0115861)
(2.69689e-20 -1.71861e-20 -0.0167427)
(-3.98171e-20 -2.882e-18 -0.00748972)
(-7.78905e-19 -3.57523e-19 0.00175787)
(-1.57316e-18 1.40899e-18 0.00561653)
(3.0134e-19 5.89067e-19 0.000426358)
(9.90033e-20 -5.89573e-19 -0.00427325)