/*--------------------------------*- C++ -*----------------------------------*\
| =========                 |                                                 |
| \\      /  F ield         | OpenFOAM: The Open Source CFD Toolbox           |
|  \\    /   O peration     | Version:  2506                                  |
|   \\  /    A nd           | Website:  www.openfoam.com                      |
|    \\/     M anipulation  |                                                 |
\*---------------------------------------------------------------------------*/
FoamFile
{
    version     2.0;
    format      ascii;
    arch        "LSB;label=32;scalar=64";
    class       volScalarField;
    location    "300";
    object      nuTilda;
}
// * * * * * * * * * * * * * * * * * * * * * * * * * * * * * * * * * * * * * //

dimensions      [0 2 -1 0 0 0 0];

internalField   nonuniform List<scalar> 
1340
(
6.29169e-05
6.6122e-05
7.02243e-05
7.53277e-05
8.16977e-05
8.97588e-05
0.000100176
0.000113501
0.000130994
0.000154107
0.000185154
0.000227501
0.000285688
0.000367595
0.000486676
0.000664814
0.000946515
0.00139578
0.00221824
0.00359028
0.0069057
0.0127146
0.0339499
0.0760761
0.093728
0.0946455
0.0956864
0.0992218
0.102741
0.10448
0.10446
0.103213
0.100847
0.0974174
0.0927994
6.00077e-05
5.73673e-05
5.46117e-05
5.19128e-05
4.9164e-05
4.63818e-05
4.36783e-05
3.80703e-05
3.78501e-05
3.76489e-05
3.74802e-05
3.72845e-05
3.71026e-05
3.69666e-05
3.68466e-05
3.67947e-05
3.68406e-05
3.69022e-05
3.75078e-05
3.96511e-05
4.43035e-05
5.39276e-05
7.20748e-05
0.000107905
0.000173928
0.000319107
0.000589943
0.00132349
0.00283281
0.00712231
0.0205297
0.0395714
0.0633608
0.0925865
0.123724
0.148751
0.162699
0.167994
0.16882
0.167234
0.16388
0.159364
3.82433e-05
3.84748e-05
3.86696e-05
3.89304e-05
3.91938e-05
3.94562e-05
4.03657e-05
4.03973e-05
4.04299e-05
4.0465e-05
4.05079e-05
4.05558e-05
4.06104e-05
4.06741e-05
4.0749e-05
4.08363e-05
4.09395e-05
4.10656e-05
4.12049e-05
4.1451e-05
4.14615e-05
4.07937e-05
3.71978e-05
3.54252e-05
2.03644e-05
0.000118602
0.00026042
3.90094e-05
0.00147601
0.000528035
0.00290511
0.0074281
0.0155623
0.0310007
0.0573251
0.0937531
0.132813
0.164536
0.184954
0.196794
0.203484
4.03415e-05
4.03067e-05
4.02801e-05
4.02406e-05
4.02065e-05
4.01698e-05
4.00344e-05
4.003e-05
4.00288e-05
4.00295e-05
4.00312e-05
4.00362e-05
4.00453e-05
4.00578e-05
4.00764e-05
4.01015e-05
4.01347e-05
4.01781e-05
4.02344e-05
4.03051e-05
4.03988e-05
4.05087e-05
4.02512e-05
3.9832e-05
3.61364e-05
2.60153e-05
8.60861e-06
1.31857e-05
0
0.000108396
0.000607009
0.00157822
0.00336626
0.00021466
0.0034482
0.0133267
0.0355817
0.0727787
0.118863
0.161375
0.193262
4.00357e-05
4.004e-05
4.00458e-05
4.00499e-05
4.00569e-05
4.00809e-05
4.0082e-05
4.00825e-05
4.00841e-05
4.0087e-05
4.00906e-05
4.00955e-05
4.01022e-05
4.01108e-05
4.01223e-05
4.01372e-05
4.01567e-05
4.01823e-05
4.02151e-05
4.02594e-05
4.03104e-05
4.03966e-05
4.03925e-05
4.07971e-05
4.05445e-05
3.76095e-05
2.90617e-05
8.98293e-06
4.52366e-06
0
0
0
4.66446e-05
0.000772671
0.000387227
0.00158702
0.00801477
0.0296187
0.0707519
0.124159
4.0081e-05
4.00785e-05
4.00798e-05
4.00778e-05
4.00794e-05
4.00696e-05
4.00692e-05
4.00697e-05
4.00702e-05
4.00703e-05
4.00711e-05
4.00722e-05
4.00736e-05
4.00759e-05
4.0079e-05
4.00833e-05
4.00892e-05
4.00973e-05
4.01082e-05
4.01232e-05
4.01433e-05
4.01716e-05
4.01921e-05
4.03104e-05
4.04446e-05
4.09558e-05
4.05631e-05
3.84115e-05
2.33346e-05
8.2648e-06
5.94965e-06
3.97581e-06
9.46372e-07
0
8.58285e-05
0.0003561
0.0018299
0.000400656
0.00876542
0.0380969
4.00687e-05
4.00674e-05
4.00691e-05
4.00687e-05
4.007e-05
4.00704e-05
4.00707e-05
4.00708e-05
4.0071e-05
4.00712e-05
4.00715e-05
4.00721e-05
4.0073e-05
4.00743e-05
4.00762e-05
4.0079e-05
4.00828e-05
4.00881e-05
4.00954e-05
4.01058e-05
4.01195e-05
4.01347e-05
4.01502e-05
4.01716e-05
4.02904e-05
4.05046e-05
4.15227e-05
4.0889e-05
3.61068e-05
2.99349e-05
1.96852e-05
4.61632e-06
6.26019e-06
1.81986e-06
0
0
9.13698e-05
0.00206006
0.00168187
4.00691e-05
4.00672e-05
4.00679e-05
4.00673e-05
4.00692e-05
4.00695e-05
4.007e-05
4.00699e-05
4.00696e-05
4.00694e-05
4.00691e-05
4.00688e-05
4.00687e-05
4.00687e-05
4.00688e-05
4.00693e-05
4.007e-05
4.0071e-05
4.00727e-05
4.00752e-05
4.0079e-05
4.00835e-05
4.00875e-05
4.00961e-05
4.00937e-05
4.00952e-05
4.02623e-05
4.10123e-05
4.16122e-05
4.13238e-05
3.94536e-05
3.53861e-05
2.94432e-05
8.70232e-06
7.072e-06
1.37895e-06
0
0
0.000389086
4.00681e-05
4.0066e-05
4.0066e-05
4.00652e-05
4.00691e-05
4.00693e-05
4.00696e-05
4.00692e-05
4.00689e-05
4.00684e-05
4.0068e-05
4.00677e-05
4.00675e-05
4.00674e-05
4.00674e-05
4.00676e-05
4.00681e-05
4.00688e-05
4.007e-05
4.00717e-05
4.00744e-05
4.00779e-05
4.00812e-05
4.00852e-05
4.00873e-05
4.0084e-05
4.00379e-05
4.0123e-05
4.05096e-05
4.10639e-05
4.17405e-05
4.19283e-05
4.15769e-05
3.75805e-05
3.21482e-05
6.47849e-06
5.68534e-06
0
0
4.0068e-05
4.00657e-05
4.00651e-05
4.00679e-05
4.00673e-05
4.00668e-05
4.00664e-05
4.0066e-05
4.00656e-05
4.00653e-05
4.00651e-05
4.0065e-05
4.00649e-05
4.00648e-05
4.00648e-05
4.00649e-05
4.00651e-05
4.00654e-05
4.00665e-05
4.00694e-05
4.00747e-05
4.00654e-05
4.00322e-05
4.00453e-05
4.01659e-05
4.04683e-05
4.09215e-05
4.15073e-05
4.21008e-05
4.24104e-05
3.80004e-05
2.56138e-05
7.86773e-06
0
4.00658e-05
4.00654e-05
4.0065e-05
4.00648e-05
4.00646e-05
4.00645e-05
4.00645e-05
4.00645e-05
4.00647e-05
4.00651e-05
4.00657e-05
4.00667e-05
4.00677e-05
4.00687e-05
4.00697e-05
4.00718e-05
4.00745e-05
4.00671e-05
4.00476e-05
4.00335e-05
4.00468e-05
4.01315e-05
4.0303e-05
4.07318e-05
4.14131e-05
4.266e-05
4.18944e-05
3.29504e-05
8.6707e-06
4.00641e-05
4.00639e-05
4.00637e-05
4.00635e-05
4.00634e-05
4.00634e-05
4.00634e-05
4.00634e-05
4.00636e-05
4.00638e-05
4.00643e-05
4.0065e-05
4.00661e-05
4.00676e-05
4.00702e-05
4.00724e-05
4.00703e-05
4.00633e-05
4.00509e-05
4.00398e-05
4.00276e-05
4.00714e-05
4.01814e-05
4.07833e-05
4.19944e-05
4.29179e-05
3.56408e-05
4.00632e-05
4.00631e-05
4.0063e-05
4.0063e-05
4.0063e-05
4.0063e-05
4.00632e-05
4.00634e-05
4.00637e-05
4.00642e-05
4.00648e-05
4.00655e-05
4.00664e-05
4.00677e-05
4.00697e-05
4.00717e-05
4.00731e-05
4.00732e-05
4.00707e-05
4.00592e-05
4.00384e-05
3.99982e-05
4.00027e-05
4.03257e-05
4.12958e-05
4.41009e-05
4.00627e-05
4.00627e-05
4.00627e-05
4.00627e-05
4.00627e-05
4.00628e-05
4.00629e-05
4.00631e-05
4.00634e-05
4.00638e-05
4.00644e-05
4.00652e-05
4.00662e-05
4.00676e-05
4.00693e-05
4.00713e-05
4.0074e-05
4.00775e-05
4.00806e-05
4.00778e-05
4.0063e-05
4.00073e-05
3.99666e-05
4.00209e-05
4.10713e-05
4.00625e-05
4.00625e-05
4.00626e-05
4.00626e-05
4.00627e-05
4.00628e-05
4.00629e-05
4.00631e-05
4.00633e-05
4.00637e-05
4.00641e-05
4.00647e-05
4.00654e-05
4.00664e-05
4.00677e-05
4.00694e-05
4.00715e-05
4.00744e-05
4.00788e-05
4.00838e-05
4.00882e-05
4.0082e-05
4.00234e-05
4.00708e-05
3.91745e-05
4.00625e-05
4.00626e-05
4.00627e-05
4.00628e-05
4.00629e-05
4.0063e-05
4.00631e-05
4.00633e-05
4.00635e-05
4.00639e-05
4.00644e-05
4.0065e-05
4.00657e-05
4.00668e-05
4.00682e-05
4.00699e-05
4.0072e-05
4.00748e-05
4.00791e-05
4.00839e-05
4.00971e-05
4.00658e-05
4.01822e-05
3.95254e-05
4.00627e-05
4.00628e-05
4.00629e-05
4.0063e-05
4.00631e-05
4.00632e-05
4.00634e-05
4.00636e-05
4.00639e-05
4.00643e-05
4.00648e-05
4.00654e-05
4.00662e-05
4.00674e-05
4.00689e-05
4.00707e-05
4.00727e-05
4.00757e-05
4.00785e-05
4.00879e-05
4.00845e-05
4.01066e-05
4.02275e-05
4.00628e-05
4.0063e-05
4.00631e-05
4.00632e-05
4.00633e-05
4.00634e-05
4.00636e-05
4.00637e-05
4.0064e-05
4.00643e-05
4.00647e-05
4.00652e-05
4.00659e-05
4.00669e-05
4.00681e-05
4.00697e-05
4.00716e-05
4.00738e-05
4.00765e-05
4.00788e-05
4.00952e-05
4.00303e-05
4.04474e-05
4.00631e-05
4.00632e-05
4.00634e-05
4.00635e-05
4.00636e-05
4.00637e-05
4.00639e-05
4.00641e-05
4.00643e-05
4.00647e-05
4.00651e-05
4.00657e-05
4.00665e-05
4.00676e-05
4.0069e-05
4.00707e-05
4.00726e-05
4.00756e-05
4.00748e-05
4.0095e-05
4.00261e-05
4.03246e-05
4.00633e-05
4.00634e-05
4.00636e-05
4.00637e-05
4.00638e-05
4.00639e-05
4.00641e-05
4.00643e-05
4.00645e-05
4.00648e-05
4.00651e-05
4.00656e-05
4.00663e-05
4.00672e-05
4.00684e-05
4.00699e-05
4.00716e-05
4.00743e-05
4.00741e-05
4.00873e-05
4.00558e-05
4.01562e-05
4.00636e-05
4.00638e-05
4.00639e-05
4.0064e-05
4.00642e-05
4.00643e-05
4.00645e-05
4.00647e-05
4.00649e-05
4.00652e-05
4.00657e-05
4.00662e-05
4.0067e-05
4.0068e-05
4.00693e-05
4.00708e-05
4.0073e-05
4.00743e-05
4.00796e-05
4.0079e-05
4.00676e-05
4.00638e-05
4.0064e-05
4.00641e-05
4.00643e-05
4.00644e-05
4.00646e-05
4.00647e-05
4.00649e-05
4.00651e-05
4.00654e-05
4.00658e-05
4.00663e-05
4.00669e-05
4.00678e-05
4.0069e-05
4.00703e-05
4.0072e-05
4.00741e-05
4.00753e-05
4.0086e-05
4.00501e-05
4.00642e-05
4.00643e-05
4.00645e-05
4.00647e-05
4.00648e-05
4.0065e-05
4.00652e-05
4.00654e-05
4.00656e-05
4.00659e-05
4.00664e-05
4.0067e-05
4.00677e-05
4.00687e-05
4.00699e-05
4.00713e-05
4.00735e-05
4.00739e-05
4.00837e-05
4.00611e-05
4.00644e-05
4.00646e-05
4.00647e-05
4.00649e-05
4.00651e-05
4.00652e-05
4.00654e-05
4.00656e-05
4.00659e-05
4.00662e-05
4.00665e-05
4.00671e-05
4.00677e-05
4.00686e-05
4.00697e-05
4.00709e-05
4.00728e-05
4.00738e-05
4.00794e-05
4.00731e-05
4.00646e-05
4.00648e-05
4.0065e-05
4.00652e-05
4.00653e-05
4.00655e-05
4.00657e-05
4.00659e-05
4.00661e-05
4.00664e-05
4.00668e-05
4.00672e-05
4.00678e-05
4.00686e-05
4.00695e-05
4.00707e-05
4.00722e-05
4.00737e-05
4.00765e-05
4.00785e-05
4.0065e-05
4.00652e-05
4.00654e-05
4.00656e-05
4.00658e-05
4.0066e-05
4.00662e-05
4.00664e-05
4.00667e-05
4.0067e-05
4.00674e-05
4.00679e-05
4.00686e-05
4.00695e-05
4.00705e-05
4.00719e-05
4.00735e-05
4.00751e-05
4.00791e-05
4.00652e-05
4.00655e-05
4.00657e-05
4.00659e-05
4.00661e-05
4.00663e-05
4.00665e-05
4.00668e-05
4.0067e-05
4.00673e-05
4.00677e-05
4.00682e-05
4.00688e-05
4.00695e-05
4.00705e-05
4.00716e-05
4.00732e-05
4.00746e-05
4.0078e-05
4.00654e-05
4.00657e-05
4.00659e-05
4.00662e-05
4.00664e-05
4.00666e-05
4.00668e-05
4.00671e-05
4.00673e-05
4.00676e-05
4.0068e-05
4.00684e-05
4.0069e-05
4.00696e-05
4.00705e-05
4.00716e-05
4.00729e-05
4.00744e-05
4.00769e-05
4.00659e-05
4.00662e-05
4.00664e-05
4.00667e-05
4.00669e-05
4.00672e-05
4.00674e-05
4.00677e-05
4.00679e-05
4.00683e-05
4.00687e-05
4.00692e-05
4.00698e-05
4.00706e-05
4.00716e-05
4.00728e-05
4.00742e-05
4.00762e-05
4.00662e-05
4.00664e-05
4.00667e-05
4.0067e-05
4.00672e-05
4.00675e-05
4.00677e-05
4.0068e-05
4.00683e-05
4.00686e-05
4.0069e-05
4.00694e-05
4.007e-05
4.00707e-05
4.00716e-05
4.00728e-05
4.00741e-05
4.00758e-05
4.00664e-05
4.00667e-05
4.0067e-05
4.00672e-05
4.00675e-05
4.00678e-05
4.00681e-05
4.00683e-05
4.00686e-05
4.00689e-05
4.00693e-05
4.00697e-05
4.00703e-05
4.0071e-05
4.00718e-05
4.00728e-05
4.00741e-05
4.00757e-05
4.00669e-05
4.00672e-05
4.00675e-05
4.00678e-05
4.00681e-05
4.00684e-05
4.00687e-05
4.0069e-05
4.00693e-05
4.00696e-05
4.00701e-05
4.00706e-05
4.00712e-05
4.0072e-05
4.00729e-05
4.00741e-05
4.00756e-05
4.00672e-05
4.00675e-05
4.00678e-05
4.00681e-05
4.00684e-05
4.00687e-05
4.0069e-05
4.00693e-05
4.00696e-05
4.007e-05
4.00704e-05
4.00709e-05
4.00715e-05
4.00722e-05
4.00731e-05
4.00742e-05
4.00756e-05
4.00674e-05
4.00677e-05
4.00681e-05
4.00684e-05
4.00688e-05
4.00691e-05
4.00694e-05
4.00697e-05
4.007e-05
4.00704e-05
4.00708e-05
4.00712e-05
4.00718e-05
4.00725e-05
4.00733e-05
4.00743e-05
4.0068e-05
4.00684e-05
4.00687e-05
4.00691e-05
4.00694e-05
4.00697e-05
4.00701e-05
4.00704e-05
4.00707e-05
4.00712e-05
4.00716e-05
4.00722e-05
4.00728e-05
4.00736e-05
4.00745e-05
4.00682e-05
4.00686e-05
4.0069e-05
4.00694e-05
4.00697e-05
4.00701e-05
4.00704e-05
4.00708e-05
4.00711e-05
4.00715e-05
4.0072e-05
4.00725e-05
4.00731e-05
4.00739e-05
4.00748e-05
4.00685e-05
4.00689e-05
4.00693e-05
4.00697e-05
4.00701e-05
4.00704e-05
4.00708e-05
4.00711e-05
4.00715e-05
4.00719e-05
4.00724e-05
4.00729e-05
4.00735e-05
4.00742e-05
4.0075e-05
4.00687e-05
4.00691e-05
4.00696e-05
4.007e-05
4.00704e-05
4.00708e-05
4.00711e-05
4.00715e-05
4.00719e-05
4.00723e-05
4.00728e-05
4.00733e-05
4.00739e-05
4.00746e-05
4.00754e-05
4.00689e-05
4.00694e-05
4.00698e-05
4.00703e-05
4.00707e-05
4.00711e-05
4.00715e-05
4.00719e-05
4.00723e-05
4.00727e-05
4.00732e-05
4.00737e-05
4.00743e-05
4.00749e-05
4.00757e-05
4.00696e-05
4.00701e-05
4.00705e-05
4.0071e-05
4.00714e-05
4.00718e-05
4.00722e-05
4.00726e-05
4.00731e-05
4.00736e-05
4.00741e-05
4.00747e-05
4.00753e-05
4.00761e-05
4.00698e-05
4.00703e-05
4.00708e-05
4.00712e-05
4.00717e-05
4.00721e-05
4.00725e-05
4.0073e-05
4.00734e-05
4.00739e-05
4.00745e-05
4.00751e-05
4.00757e-05
4.00765e-05
4.00699e-05
4.00705e-05
4.0071e-05
4.00715e-05
4.00719e-05
4.00724e-05
4.00728e-05
4.00733e-05
4.00738e-05
4.00743e-05
4.00749e-05
4.00754e-05
4.00761e-05
4.00769e-05
4.007e-05
4.00706e-05
4.00711e-05
4.00716e-05
4.00721e-05
4.00726e-05
4.00731e-05
4.00736e-05
4.00741e-05
4.00746e-05
4.00752e-05
4.00758e-05
4.00765e-05
4.00772e-05
4.00701e-05
4.00707e-05
4.00712e-05
4.00718e-05
4.00723e-05
4.00728e-05
4.00733e-05
4.00738e-05
4.00743e-05
4.00749e-05
4.00755e-05
4.00761e-05
4.00768e-05
4.00776e-05
4.00707e-05
4.00713e-05
4.00719e-05
4.00724e-05
4.00729e-05
4.00734e-05
4.0074e-05
4.00746e-05
4.00751e-05
4.00758e-05
4.00764e-05
4.00771e-05
4.00779e-05
4.00707e-05
4.00713e-05
4.00719e-05
4.00724e-05
4.0073e-05
4.00735e-05
4.00741e-05
4.00747e-05
4.00753e-05
4.0076e-05
4.00766e-05
4.00774e-05
4.00705e-05
4.00712e-05
4.00718e-05
4.00724e-05
4.0073e-05
4.00735e-05
4.00741e-05
4.00748e-05
4.00754e-05
4.00761e-05
4.00768e-05
4.00776e-05
4.00703e-05
4.0071e-05
4.00716e-05
4.00723e-05
4.00729e-05
4.00735e-05
4.00741e-05
4.00748e-05
4.00754e-05
4.00761e-05
4.00769e-05
4.00777e-05
4.007e-05
4.00707e-05
4.00714e-05
4.0072e-05
4.00727e-05
4.00733e-05
4.0074e-05
4.00746e-05
4.00754e-05
4.00761e-05
4.00769e-05
4.00777e-05
4.00703e-05
4.0071e-05
4.00717e-05
4.00723e-05
4.0073e-05
4.00737e-05
4.00744e-05
4.00752e-05
4.00759e-05
4.00768e-05
4.00776e-05
4.00698e-05
4.00705e-05
4.00712e-05
4.00719e-05
4.00726e-05
4.00733e-05
4.00741e-05
4.00748e-05
4.00757e-05
4.00765e-05
4.00774e-05
4.00691e-05
4.00698e-05
4.00706e-05
4.00713e-05
4.0072e-05
4.00728e-05
4.00736e-05
4.00744e-05
4.00752e-05
4.00761e-05
4.00771e-05
4.00682e-05
4.0069e-05
4.00698e-05
4.00705e-05
4.00713e-05
4.00721e-05
4.00729e-05
4.00738e-05
4.00746e-05
4.00756e-05
4.00766e-05
4.00672e-05
4.0068e-05
4.00688e-05
4.00696e-05
4.00704e-05
4.00712e-05
4.00721e-05
4.0073e-05
4.00739e-05
4.00749e-05
4.00759e-05
4.0066e-05
4.00668e-05
4.00676e-05
4.00684e-05
4.00693e-05
4.00701e-05
4.0071e-05
4.0072e-05
4.00729e-05
4.00739e-05
4.00646e-05
4.00655e-05
4.00663e-05
4.00671e-05
4.0068e-05
4.00689e-05
4.00698e-05
4.00708e-05
4.00718e-05
4.00728e-05
4.00639e-05
4.00648e-05
4.00656e-05
4.00665e-05
4.00674e-05
4.00684e-05
4.00694e-05
4.00704e-05
4.00715e-05
4.00621e-05
4.0063e-05
4.00639e-05
4.00648e-05
4.00657e-05
4.00667e-05
4.00678e-05
4.00688e-05
4.007e-05
4.00601e-05
4.0061e-05
4.00619e-05
4.00629e-05
4.00638e-05
4.00649e-05
4.00659e-05
4.0067e-05
4.00682e-05
4.00577e-05
4.00587e-05
4.00596e-05
4.00605e-05
4.00616e-05
4.00626e-05
4.00638e-05
4.00649e-05
4.00661e-05
4.00548e-05
4.00557e-05
4.00567e-05
4.00577e-05
4.00587e-05
4.00599e-05
4.0061e-05
4.00623e-05
4.00636e-05
4.00512e-05
4.00521e-05
4.00531e-05
4.00541e-05
4.00552e-05
4.00563e-05
4.00576e-05
4.00589e-05
4.0047e-05
4.00479e-05
4.00488e-05
4.00499e-05
4.00509e-05
4.00521e-05
4.00534e-05
4.00547e-05
4.00426e-05
4.00434e-05
4.00443e-05
4.00453e-05
4.00464e-05
4.00475e-05
4.00487e-05
4.00501e-05
4.00389e-05
4.00398e-05
4.00407e-05
4.00417e-05
4.00428e-05
4.0044e-05
4.00452e-05
4.00343e-05
4.00351e-05
4.0036e-05
4.0037e-05
4.0038e-05
4.00391e-05
4.00403e-05
4.00294e-05
4.00302e-05
4.00311e-05
4.00321e-05
4.00331e-05
4.00342e-05
4.00354e-05
4.00248e-05
4.00255e-05
4.00264e-05
4.00274e-05
4.00284e-05
4.00296e-05
4.00308e-05
4.00204e-05
4.00212e-05
4.00219e-05
4.00228e-05
4.00238e-05
4.00249e-05
4.00161e-05
4.00168e-05
4.00174e-05
4.00182e-05
4.00191e-05
4.002e-05
4.00118e-05
4.00123e-05
4.00129e-05
4.00136e-05
4.00144e-05
4.00151e-05
4.00078e-05
4.00082e-05
4.00086e-05
4.00091e-05
4.00097e-05
4.00103e-05
4.00055e-05
4.00056e-05
4.00057e-05
4.00058e-05
4.0006e-05
4.00063e-05
4.00082e-05
4.00081e-05
4.00079e-05
4.00077e-05
4.00074e-05
4.00072e-05
4.00132e-05
4.00131e-05
4.0013e-05
4.00127e-05
4.00125e-05
4.00189e-05
4.0019e-05
4.00189e-05
4.00186e-05
4.00186e-05
4.00249e-05
4.00252e-05
4.00255e-05
4.00258e-05
4.00259e-05
4.00313e-05
4.00317e-05
4.00318e-05
4.00316e-05
4.00358e-05
4.00373e-05
4.00392e-05
4.00412e-05
4.0057e-05
4.00581e-05
4.00591e-05
4.00596e-05
)
;

boundaryField
{
    inlet
    {
        type            freestream;
        freestreamValue uniform 4e-05;
        value           nonuniform List<scalar> 4(4.0057e-05 4.00581e-05 4.00591e-05 4.00596e-05);
    }
    outlet
    {
        type            freestream;
        freestreamValue nonuniform List<scalar> 0();
        value           nonuniform List<scalar> 0();
    }
    walls
    {
        type            fixedValue;
        value           uniform 0;
    }
    frontAndBack
    {
        type            empty;
    }
    procBoundary5to0
    {
        type            processor;
        value           nonuniform List<scalar> 4(4.00689e-05 4.0068e-05 4.00657e-05 4.00645e-05);
    }
    procBoundary5to1
    {
        type            processor;
        value           nonuniform List<scalar> 
13
(
4.15985e-05
3.97057e-05
3.97057e-05
4.01371e-05
4.00607e-05
4.00607e-05
4.00772e-05
4.00719e-05
4.00719e-05
4.00704e-05
4.00682e-05
4.0064e-05
4.0064e-05
)
;
    }
    procBoundary5to4
    {
        type            processor;
        value           nonuniform List<scalar> 
95
(
4.00689e-05
4.0069e-05
4.00684e-05
4.00684e-05
4.00669e-05
4.00663e-05
4.00663e-05
4.00648e-05
4.00645e-05
4.00645e-05
4.00634e-05
4.00634e-05
4.00628e-05
4.00628e-05
4.00625e-05
4.00624e-05
4.00624e-05
4.00626e-05
4.00626e-05
4.00627e-05
4.0063e-05
4.0063e-05
4.00631e-05
4.00635e-05
4.00635e-05
4.00636e-05
4.0064e-05
4.0064e-05
4.00642e-05
4.00644e-05
4.00648e-05
4.00648e-05
4.0065e-05
4.00652e-05
4.00657e-05
4.00657e-05
4.00659e-05
4.00661e-05
4.00666e-05
4.00666e-05
4.00668e-05
4.0067e-05
4.00676e-05
4.00676e-05
4.00679e-05
4.00681e-05
4.00683e-05
4.00685e-05
4.00691e-05
4.00691e-05
4.00693e-05
4.00694e-05
4.00695e-05
4.00695e-05
4.00701e-05
4.00701e-05
4.007e-05
4.00699e-05
4.00696e-05
4.00693e-05
4.00696e-05
4.00696e-05
4.0069e-05
4.00683e-05
4.00674e-05
4.00664e-05
4.00652e-05
4.00637e-05
4.0063e-05
4.0063e-05
4.00612e-05
4.00592e-05
4.00568e-05
4.00539e-05
4.00503e-05
4.00461e-05
4.00418e-05
4.00381e-05
4.00381e-05
4.00336e-05
4.00287e-05
4.0024e-05
4.00198e-05
4.00156e-05
4.00114e-05
4.00075e-05
4.00055e-05
4.00083e-05
4.00132e-05
4.00132e-05
4.00189e-05
4.00246e-05
4.00309e-05
4.00342e-05
4.00557e-05
)
;
    }
    procBoundary5to6
    {
        type            processor;
        value           nonuniform List<scalar> 
86
(
0.0869194
0.153858
0.206359
0.215391
0.175084
0.0933065
0.0217482
0.00542371
0
0
0
7.83634e-06
3.14408e-05
4.61859e-05
4.52198e-05
4.06446e-05
3.8436e-05
3.85328e-05
3.93903e-05
4.00187e-05
4.0235e-05
4.02173e-05
4.01451e-05
4.00962e-05
4.00779e-05
4.00756e-05
4.00773e-05
4.00784e-05
4.00784e-05
4.0078e-05
4.00775e-05
4.00772e-05
4.00771e-05
4.00756e-05
4.00756e-05
4.00757e-05
4.00759e-05
4.00761e-05
4.00764e-05
4.00767e-05
4.0077e-05
4.00774e-05
4.00778e-05
4.00781e-05
4.00785e-05
4.00788e-05
4.00782e-05
4.00782e-05
4.00784e-05
4.00785e-05
4.00786e-05
4.00785e-05
4.00784e-05
4.00781e-05
4.00776e-05
4.0077e-05
4.0075e-05
4.0075e-05
4.00739e-05
4.00726e-05
4.00711e-05
4.00694e-05
4.00674e-05
4.00649e-05
4.00603e-05
4.00603e-05
4.00562e-05
4.00515e-05
4.00466e-05
4.00416e-05
4.00367e-05
4.00321e-05
4.00261e-05
4.00261e-05
4.00211e-05
4.0016e-05
4.0011e-05
4.00066e-05
4.0007e-05
4.00122e-05
4.00184e-05
4.00261e-05
4.00321e-05
4.00321e-05
4.00425e-05
4.00602e-05
)
;
    }
}


// ************************************************************************* //
