/*--------------------------------*- C++ -*----------------------------------*\
| =========                 |                                                 |
| \\      /  F ield         | OpenFOAM: The Open Source CFD Toolbox           |
|  \\    /   O peration     | Version:  2506                                  |
|   \\  /    A nd           | Website:  www.openfoam.com                      |
|    \\/     M anipulation  |                                                 |
\*---------------------------------------------------------------------------*/
FoamFile
{
    version     2.0;
    format      ascii;
    arch        "LSB;label=32;scalar=64";
    class       volScalarField;
    location    "300";
    object      p;
}
// * * * * * * * * * * * * * * * * * * * * * * * * * * * * * * * * * * * * * //

dimensions      [0 2 -2 0 0 0 0];

internalField   nonuniform List<scalar> 
1340
(
-62.4469
-133.746
-217.608
-300.255
-376.621
-454.412
-523.427
-581.367
-631.698
-671.077
-701.055
-723.131
-738.432
-747.682
-751.059
-747.914
-739.155
-723.731
-703.068
-677.232
-649.584
-623.182
-600.587
-573.628
-533.382
-482.292
-429.901
-384.292
-345.04
-308.119
-271.622
-235.456
-199.665
-163.879
-127.696
8.93605
73.9927
143.351
208.109
263.451
305.392
330.159
43.0973
-11.0671
-71.749
-136.197
-202.423
-270.204
-335.987
-397.693
-454.641
-505.07
-548.775
-585.761
-615.933
-639.289
-655.647
-664.706
-667.216
-663.064
-653.3
-638.474
-621.236
-603.947
-587.685
-565.278
-528.517
-479.455
-428.294
-383.223
-344.159
-307.315
-270.846
-234.718
-198.999
-163.308
-127.231
91.8372
138.299
184.644
229.35
268.75
300.232
56.8867
8.22108
-46.5742
-107.074
-169.798
-234.086
-298.373
-359.999
-417.38
-469.518
-515.162
-553.756
-584.995
-609.072
-626.22
-636.857
-641.012
-638.747
-630.71
-617.627
-601.359
-583.94
-566.526
-544.647
-511.464
-467.351
-420.439
-377.896
-340.241
-304.423
-268.801
-233.319
-198.021
-162.582
-126.673
100.802
143.47
185.909
226.09
260.804
288.43
79.5153
38.7196
-7.88411
-59.1342
-112.94
-169.232
-226.345
-282.52
-336.431
-386.924
-432.875
-473.557
-508.505
-537.569
-560.624
-577.794
-588.628
-593.083
-591.472
-584.412
-573.191
-559.357
-543.744
-523.482
-493.639
-454.167
-411.28
-371.19
-334.952
-300.249
-265.618
-230.962
-196.338
-161.438
-125.92
116.057
151.151
186.354
220.316
250.045
85.6514
49.3288
7.63982
-38.5396
-87.1551
-138.618
-191.554
-244.352
-296.002
-345.345
-391.236
-432.865
-469.552
-500.8
-526.308
-545.767
-558.926
-565.791
-566.6
-561.975
-552.936
-540.771
-526.123
-506.949
-479.435
-443.229
-403.225
-364.924
-329.737
-295.912
-262.122
-228.224
-194.258
-159.926
-124.899
118.268
149.425
180.762
210.992
237.473
89.4534
57.2954
20.1924
-20.8749
-64.1213
-110.247
-157.97
-206.012
-253.631
-299.77
-343.461
-383.936
-420.457
-452.427
-479.42
-501.059
-517.224
-527.721
-532.555
-532.092
-527.005
-518.191
-506.051
-489.109
-464.455
-431.665
-394.696
-358.43
-324.5
-291.627
-258.654
-225.461
-192.115
-158.337
-123.797
118.332
145.815
173.657
200.715
89.3802
60.3574
26.7833
-10.4119
-49.5034
-91.4249
-135.04
-179.228
-223.493
-266.898
-308.603
-347.922
-384.107
-416.509
-444.611
-467.961
-486.149
-498.913
-506.102
-507.996
-505.139
-498.237
-487.606
-472.239
-449.954
-420.249
-386.185
-351.962
-319.324
-287.421
-255.276
-222.773
-189.999
-156.729
-122.68
115.47
140.221
165.422
190.015
87.7065
61.3623
30.8234
-2.97907
-38.4092
-76.5256
-116.282
-156.701
-197.46
-237.761
-276.877
-314.236
-349.149
-380.979
-409.168
-433.205
-452.626
-467.196
-476.71
-481.234
-481.067
-476.641
-468.115
-454.757
-434.969
-408.286
-377.085
-344.968
-313.73
-282.895
-251.669
-219.941
-187.809
-155.08
-121.522
111.424
133.875
156.863
179.407
84.8158
60.6933
32.697
1.73196
-30.6224
-65.4889
-101.922
-139.039
-176.662
-214.095
-250.73
-286.108
-319.605
-350.625
-378.619
-403.05
-423.424
-439.373
-450.612
-457.037
-458.812
-456.233
-449.39
-437.762
-420.181
-396.226
-367.708
-337.666
-307.868
-278.142
-247.869
-216.954
-185.504
-153.36
-120.322
106.565
127.121
148.271
-24.932
-56.9481
-90.4152
-124.539
-159.24
-193.908
-228.047
-261.288
-293.08
-322.902
-350.228
-374.518
-395.266
-412.063
-424.604
-432.678
-436.289
-435.566
-430.497
-420.683
-405.273
-383.91
-357.979
-330.018
-301.716
-273.15
-243.869
-213.804
-183.07
-151.546
-119.064
-81.2377
-112.704
-144.76
-176.877
-208.652
-239.801
-269.841
-298.32
-324.76
-348.65
-369.482
-386.823
-400.31
-409.656
-414.719
-415.53
-412.017
-403.865
-390.452
-371.48
-347.989
-322.072
-295.298
-267.931
-239.676
-210.495
-180.512
-149.641
-117.749
-132.528
-162.289
-191.827
-220.93
-249.183
-276.206
-301.568
-324.794
-345.4
-362.941
-377.028
-387.342
-393.622
-395.799
-393.747
-387.189
-375.665
-358.925
-337.745
-313.831
-288.613
-262.483
-235.292
-207.03
-177.833
-147.649
-116.381
-149.741
-177.197
-204.352
-230.854
-256.381
-280.564
-302.969
-323.143
-340.648
-355.067
-366.073
-373.31
-376.629
-375.864
-370.768
-360.984
-346.303
-327.292
-305.325
-281.672
-256.812
-230.715
-203.407
-175.032
-145.569
-114.959
-164.38
-189.696
-214.502
-238.534
-261.477
-282.947
-302.517
-319.775
-334.291
-345.739
-353.712
-357.986
-358.36
-354.602
-346.425
-333.645
-316.665
-296.577
-274.489
-250.923
-225.948
-199.624
-172.105
-143.399
-113.483
-153.082
-176.677
-199.867
-222.439
-244.124
-264.586
-283.437
-300.289
-314.723
-326.404
-334.912
-339.953
-341.307
-338.747
-332.033
-320.994
-305.904
-287.618
-267.079
-244.822
-220.992
-195.682
-169.052
-141.138
-111.951
-165.053
-186.715
-207.875
-228.311
-247.726
-265.777
-282.103
-296.305
-308.039
-316.905
-322.548
-324.729
-323.23
-317.837
-308.386
-295.048
-278.477
-259.462
-238.521
-215.854
-191.583
-165.872
-138.785
-110.362
-174.847
-194.657
-213.87
-232.231
-249.432
-265.146
-278.998
-290.642
-299.708
-305.8
-308.665
-308.088
-303.875
-295.862
-284.138
-269.189
-251.66
-232.032
-210.54
-187.329
-162.567
-136.34
-108.717
-164.095
-182.626
-200.657
-217.97
-234.296
-249.337
-262.747
-274.186
-283.316
-289.723
-293.138
-293.35
-290.178
-283.46
-273.214
-259.788
-243.697
-225.371
-205.06
-182.925
-159.139
-133.803
-107.015
-171.636
-188.534
-204.821
-220.265
-234.596
-247.499
-258.646
-267.723
-274.326
-278.167
-279.04
-276.778
-271.214
-262.314
-250.312
-235.602
-218.556
-199.425
-178.378
-155.59
-131.175
-105.255
-161.56
-177.381
-192.676
-207.244
-220.847
-233.196
-243.985
-252.914
-259.61
-263.766
-265.182
-263.701
-259.16
-251.478
-240.795
-227.402
-211.607
-193.649
-173.697
-151.924
-128.458
-103.438
-167.096
-181.439
-195.149
-208.018
-219.782
-230.162
-238.869
-245.568
-249.94
-251.79
-250.975
-247.33
-240.742
-231.274
-219.127
-204.547
-187.745
-168.89
-148.148
-125.654
-101.563
-157.589
-171.02
-183.898
-196.037
-207.202
-217.136
-225.565
-232.192
-236.693
-238.879
-238.618
-235.752
-230.141
-221.786
-210.809
-197.398
-181.733
-163.97
-144.268
-122.766
-99.6325
-161.34
-173.417
-184.841
-195.402
-204.866
-212.974
-219.465
-224.021
-226.457
-226.651
-224.453
-219.706
-212.363
-202.48
-190.186
-175.63
-158.949
-140.292
-119.798
-97.6455
-152.329
-163.639
-174.367
-184.327
-193.308
-201.066
-207.37
-211.917
-214.526
-215.085
-213.455
-209.469
-203.04
-194.171
-182.939
-169.457
-153.842
-136.23
-116.756
-95.6037
-143.923
-154.503
-164.56
-173.93
-182.421
-189.81
-195.887
-200.373
-203.088
-203.933
-202.779
-199.456
-193.846
-185.912
-175.682
-163.235
-148.665
-132.092
-113.645
-93.5089
-145.952
-155.366
-164.161
-172.164
-179.172
-184.995
-189.375
-192.141
-193.201
-192.441
-189.69
-184.811
-177.732
-168.442
-156.987
-143.435
-127.889
-110.472
-91.3616
-137.938
-146.738
-154.976
-162.499
-169.122
-174.667
-178.909
-181.677
-182.892
-182.452
-180.193
-175.962
-169.66
-161.247
-150.735
-138.171
-123.635
-107.242
-89.1662
-130.416
-138.631
-146.334
-153.389
-159.627
-164.881
-168.958
-171.69
-173.007
-172.825
-170.982
-167.321
-161.722
-154.122
-144.503
-132.89
-119.344
-103.966
-86.9235
-131.007
-138.199
-144.798
-150.654
-155.613
-159.504
-162.169
-163.546
-163.563
-162.072
-158.909
-153.944
-147.092
-138.314
-127.612
-115.029
-100.652
-84.6376
-123.828
-130.532
-136.694
-142.176
-146.837
-150.53
-153.102
-154.502
-154.672
-153.473
-150.743
-146.345
-140.18
-132.189
-122.356
-110.704
-97.3085
-82.3125
-117.062
-123.303
-129.045
-134.165
-138.53
-142.014
-144.476
-145.87
-146.152
-145.194
-142.839
-138.946
-133.407
-126.15
-117.139
-106.385
-93.9463
-79.9518
-116.482
-121.824
-126.592
-130.668
-133.939
-136.276
-137.642
-138.001
-137.24
-135.208
-131.763
-126.794
-120.216
-111.982
-102.087
-90.5749
-77.5605
-110.041
-115.002
-119.435
-123.228
-126.286
-128.489
-129.808
-130.217
-129.615
-127.858
-124.811
-120.356
-114.406
-106.901
-97.8233
-87.2047
-75.1438
-103.955
-108.556
-112.667
-116.189
-119.034
-121.099
-122.358
-122.794
-122.318
-120.797
-118.099
-114.109
-108.735
-101.911
-93.6084
-83.846
-102.462
-106.268
-109.529
-112.167
-114.091
-115.28
-115.726
-115.349
-114.028
-111.637
-108.065
-103.219
-97.0284
-89.4557
-80.5093
-96.6996
-100.217
-103.229
-105.666
-107.45
-108.562
-109.004
-108.704
-107.552
-105.431
-102.234
-97.8698
-92.2655
-85.3774
-77.2043
-91.2492
-94.494
-97.2695
-99.5141
-101.159
-102.193
-102.619
-102.378
-101.369
-99.4842
-96.6232
-92.6975
-87.6337
-81.3845
-73.9405
-86.0922
-89.0812
-91.6335
-93.6943
-95.2055
-96.1578
-96.561
-96.3646
-95.4767
-93.7987
-91.238
-87.71
-83.1431
-77.4875
-70.7269
-81.2126
-83.9614
-86.3037
-88.1906
-89.5728
-90.4447
-90.8201
-90.6559
-89.8706
-88.3741
-86.0814
-82.9134
-78.8016
-73.6948
-67.5718
-79.1188
-81.2646
-82.9876
-84.2471
-85.0404
-85.3845
-85.2438
-84.5452
-83.208
-81.1547
-78.312
-74.6151
-70.0138
-64.4828
-74.539
-76.5009
-78.0707
-79.214
-79.9318
-80.2432
-80.1189
-79.494
-78.2968
-76.4567
-73.9075
-70.5883
-66.4506
-61.4665
-70.2076
-71.9984
-73.4254
-74.46
-75.106
-75.3843
-75.2711
-74.7091
-73.6349
-71.9854
-69.7003
-66.7239
-63.0099
-58.5288
-66.1117
-67.7439
-69.0382
-69.9716
-70.5499
-70.7957
-70.6899
-70.1822
-69.2164
-67.7367
-65.6893
-63.0233
-59.6949
-55.6746
-62.2388
-63.7244
-64.8961
-65.7359
-66.2512
-66.4657
-66.3645
-65.9039
-65.034
-63.706
-61.8721
-59.4863
-56.508
-52.908
-59.9278
-60.9865
-61.74
-62.1971
-62.3823
-62.2841
-61.8644
-61.0797
-59.8871
-58.2448
-56.1116
-53.4502
-50.232
-56.3424
-57.2976
-57.9719
-58.3757
-58.5338
-58.4375
-58.0538
-57.3448
-56.2733
-54.8028
-52.8968
-50.5212
-52.9573
-53.8177
-54.4197
-54.7752
-54.9083
-54.8134
-54.4616
-53.8202
-52.8571
-51.5407
-49.8386
-47.7204
-49.7616
-50.5357
-51.0723
-51.3838
-51.4946
-51.4007
-51.0774
-50.4966
-49.6306
-48.4521
-46.933
-45.0459
-46.7455
-47.4411
-47.9184
-48.1905
-48.2813
-48.1885
-47.8909
-47.3645
-46.5855
-45.5306
-44.1752
-42.4953
-44.5235
-44.9474
-45.1843
-45.2575
-45.166
-44.8918
-44.4143
-43.7134
-42.769
-41.5601
-40.0655
-41.7732
-42.1491
-42.3547
-42.4125
-42.3227
-42.0699
-41.6365
-41.0057
-40.1602
-39.0823
-37.7532
-39.1807
-39.5137
-39.6916
-39.7362
-39.6484
-39.4151
-39.0217
-38.4538
-37.6969
-36.7359
-35.5544
-36.7371
-37.0317
-37.1852
-37.2184
-37.133
-36.9179
-36.5607
-36.0493
-35.3717
-34.515
-33.465
-34.4335
-34.694
-34.8261
-34.8498
-34.7671
-34.5688
-34.2444
-33.7839
-33.1773
-32.4136
-31.4807
-32.2617
-32.4919
-32.6055
-32.6212
-32.5415
-32.3587
-32.0642
-31.6495
-31.1064
-30.4257
-30.2137
-30.4171
-30.5145
-30.5237
-30.4474
-30.2791
-30.0117
-29.6383
-29.1521
-28.5454
-28.4617
-28.5451
-28.5489
-28.4762
-28.3215
-28.0789
-27.7427
-27.3074
-26.7667
-26.6179
-26.6893
-26.689
-26.62
-26.4781
-26.258
-25.9554
-25.5658
-25.0839
-24.8786
-24.9397
-24.9363
-24.8713
-24.7411
-24.5417
-24.2695
-23.9209
-23.4916
-23.2369
-23.2893
-23.2835
-23.2225
-23.1035
-22.9231
-22.6783
-22.3665
-21.9841
-21.6861
-21.7311
-21.7237
-21.6669
-21.5584
-21.3953
-21.1756
-20.8969
-20.5564
-20.2199
-20.2588
-20.2505
-20.1979
-20.0992
-19.9521
-19.7551
-19.5062
-18.8323
-18.8661
-18.8574
-18.8092
-18.7198
-18.5876
-18.4112
-18.1894
-17.5174
-17.5471
-17.5386
-17.4948
-17.4142
-17.2957
-17.1382
-16.9409
-16.2965
-16.2887
-16.2493
-16.1772
-16.0714
-15.9314
-15.7563
-15.1083
-15.1016
-15.0667
-15.0027
-14.909
-14.785
-14.6304
-13.9784
-13.9733
-13.943
-13.887
-13.8046
-13.6958
-13.5599
-13.0742
-13.0716
-13.0459
-12.996
-12.9223
-12.825
-12.7008
-12.3266
-12.3278
-12.3068
-12.2621
-12.1953
-12.1071
-11.5614
-11.5666
-11.5508
-11.5118
-11.4525
-11.3743
-10.7796
-10.7888
-10.7778
-10.7441
-10.6918
-10.6228
-9.98433
-9.99936
-9.99569
-9.9699
-9.92764
-9.87071
-9.16791
-9.18508
-9.18432
-9.16182
-9.12431
-9.07371
-8.36219
-8.39316
-8.40744
-8.401
-8.38159
-8.35091
-7.48653
-7.49217
-7.47821
-7.45261
-7.41645
-6.82846
-6.87577
-6.90283
-6.92122
-6.93115
-5.51764
-5.51868
-5.50463
-5.48039
-5.44595
-5.61738
-5.72449
-5.81192
-5.9028
-2.65914
-2.64314
-2.61159
-2.55637
-5.69177
-5.90503
-6.07444
-6.35717
)
;

boundaryField
{
    inlet
    {
        type            freestreamPressure;
        freestreamValue uniform 0;
        value           nonuniform List<scalar> 4(-2.47025 -2.60503 -2.60845 -2.65999);
    }
    outlet
    {
        type            freestreamPressure;
        freestreamValue nonuniform List<scalar> 0();
        value           nonuniform List<scalar> 0();
    }
    walls
    {
        type            zeroGradient;
    }
    frontAndBack
    {
        type            empty;
    }
    procBoundary5to0
    {
        type            processor;
        value           nonuniform List<scalar> 4(81.2722 101.337 120.277 139.858);
    }
    procBoundary5to1
    {
        type            processor;
        value           nonuniform List<scalar> 
13
(
338.461
320.659
320.659
306.862
274.277
274.277
259.332
224.546
224.546
211.759
199.415
169.097
169.097
)
;
    }
    procBoundary5to4
    {
        type            processor;
        value           nonuniform List<scalar> 
95
(
59.0567
33.2554
4.75323
4.75323
-20.8571
-50.3811
-50.3811
-73.7948
-102.873
-102.873
-122.132
-122.132
-138.853
-138.853
-129.336
-143.062
-143.062
-154.623
-154.623
-145.217
-154.314
-154.314
-145.376
-152.298
-152.298
-143.754
-148.774
-148.774
-140.582
-132.949
-136.066
-136.066
-128.709
-121.807
-123.346
-123.346
-116.691
-110.42
-110.678
-110.678
-104.651
-98.9543
-98.2012
-98.2012
-92.7589
-87.609
-82.7341
-78.118
-76.5946
-76.5946
-72.2239
-68.0871
-64.1717
-60.4659
-58.5776
-58.5776
-55.1166
-51.8457
-48.7546
-45.8341
-43.8992
-43.8992
-41.2132
-38.6789
-36.2875
-34.0309
-31.9012
-29.891
-28.2819
-28.2819
-26.459
-24.7381
-23.1124
-21.5757
-20.1217
-18.7446
-17.439
-16.27
-16.27
-15.0842
-13.956
-13.0509
-12.3
-11.5312
-10.7459
-9.94557
-9.12722
-8.30859
-7.46588
-7.46588
-6.76387
-5.51027
-5.48374
-2.69129
-5.47522
)
;
    }
    procBoundary5to6
    {
        type            processor;
        value           nonuniform List<scalar> 
86
(
-90.0814
-89.7136
-89.2881
-88.8077
-88.2083
-87.556
-86.9257
-86.2781
-85.596
-84.8835
-84.1492
-83.4016
-82.6401
-81.8615
-81.0643
-80.2481
-79.4127
-78.5563
-77.678
-76.7759
-75.8478
-74.8916
-73.9048
-72.8851
-71.8291
-70.7353
-69.6002
-68.4221
-67.1985
-65.9276
-64.6086
-63.2411
-61.8244
-72.7074
-72.7074
-70.2573
-67.8001
-65.3419
-62.8898
-60.4506
-58.0308
-55.6369
-53.2752
-50.9517
-48.6716
-46.4399
-47.649
-47.649
-45.1604
-42.7669
-40.4686
-38.2648
-36.1544
-34.1358
-32.2069
-30.3653
-29.597
-29.597
-27.8092
-26.1128
-24.5033
-22.976
-21.5265
-20.1504
-19.2034
-19.2034
-17.9203
-16.7023
-15.5452
-14.4442
-13.3963
-12.5527
-11.9895
-11.9895
-11.2641
-10.5194
-9.77744
-8.98547
-8.28051
-7.34218
-6.89638
-5.37983
-5.99357
-5.99357
-2.5165
-6.76874
)
;
    }
}


// ************************************************************************* //
