/*--------------------------------*- C++ -*----------------------------------*\
| =========                 |                                                 |
| \\      /  F ield         | OpenFOAM: The Open Source CFD Toolbox           |
|  \\    /   O peration     | Version:  2506                                  |
|   \\  /    A nd           | Website:  www.openfoam.com                      |
|    \\/     M anipulation  |                                                 |
\*---------------------------------------------------------------------------*/
FoamFile
{
    version     2.0;
    format      ascii;
    arch        "LSB;label=32;scalar=64";
    class       volSymmTensorField;
    location    "300";
    object      turbulenceProperties:devReff;
}
// * * * * * * * * * * * * * * * * * * * * * * * * * * * * * * * * * * * * * //

dimensions      [0 2 -2 0 0 0 0];

internalField   nonuniform List<symmTensor> 
1340
(
(0.00163752 0.00425976 -9.4778e-22 -0.00177419 -2.23957e-20 0.000136663)
(0.00238922 0.00488225 -1.43324e-22 -0.00248722 1.40415e-19 9.79923e-05)
(0.00361226 0.00546309 -2.76236e-20 -0.00380958 -4.35166e-19 0.000197319)
(0.00524776 0.00621763 1.19085e-19 -0.00549386 8.79201e-19 0.000246093)
(0.00742757 0.00687638 -2.26007e-19 -0.00769633 -8.34603e-19 0.000268762)
(0.0104076 0.00726494 -1.72353e-19 -0.0107992 -4.50787e-19 0.000391604)
(0.0143039 0.0073776 3.26039e-19 -0.0147904 1.25297e-18 0.000486448)
(0.019194 0.00686179 -8.31518e-19 -0.0197768 -2.26214e-18 0.000582802)
(0.025247 0.00535375 -2.06576e-19 -0.0259939 6.04717e-19 0.000746823)
(0.0325743 0.00260753 6.13892e-19 -0.0334751 1.25986e-18 0.000900756)
(0.0413544 -0.00189792 1.58022e-18 -0.0424462 5.77786e-19 0.00109182)
(0.0519744 -0.00873559 -3.55336e-18 -0.0532926 -3.30028e-18 0.00131817)
(0.0649758 -0.018826 6.73002e-19 -0.0665694 8.68653e-19 0.0015936)
(0.0812693 -0.033757 2.687e-18 -0.0832246 1.27338e-18 0.00195531)
(0.102396 -0.0561826 -4.07833e-18 -0.104863 -6.37135e-18 0.00246688)
(0.130567 -0.0904267 -4.36606e-18 -0.133742 -2.58584e-18 0.00317534)
(0.169933 -0.145099 1.92195e-17 -0.174241 1.77969e-17 0.00430775)
(0.224348 -0.232486 1.7859e-17 -0.23023 3.38047e-17 0.0058818)
(0.311052 -0.389018 -3.54012e-17 -0.319669 -5.48844e-17 0.00861743)
(0.426564 -0.641887 -1.37176e-18 -0.438739 1.45607e-17 0.0121755)
(0.667207 -1.21482 -2.72327e-17 -0.686606 5.20917e-17 0.0193992)
(0.945721 -2.11468 -1.25119e-17 -0.971829 4.19222e-17 0.0261079)
(1.76722 -5.13334 -1.43209e-16 -1.8194 -6.43079e-16 0.0521738)
(2.42868 -10.3126 3.31742e-16 -2.51203 5.59506e-16 0.0833578)
(1.52765 -11.6429 4.24452e-17 -1.56859 -7.12716e-16 0.0409425)
(0.525968 -11.2237 3.65674e-16 -0.514357 5.81555e-16 -0.0116111)
(-0.146141 -11.0406 -8.19082e-17 0.176119 -7.8461e-17 -0.0299786)
(-0.665117 -11.2249 2.7454e-16 0.690029 2.30628e-16 -0.0249117)
(-1.13631 -11.4397 7.28995e-16 1.15282 1.20878e-15 -0.0165074)
(-1.57168 -11.4533 4.00371e-16 1.58005 1.9981e-15 -0.00836945)
(-1.95784 -11.2398 -1.41156e-15 1.95612 -1.93196e-15 0.00172044)
(-2.27364 -10.834 -4.74854e-16 2.26316 -7.26331e-16 0.0104868)
(-2.49381 -10.221 -3.25701e-17 2.47888 -4.369e-15 0.0149397)
(-2.60547 -9.41477 -2.58357e-15 2.5901 -7.30179e-15 0.0153699)
(-2.58972 -8.40693 1.00658e-15 2.57552 9.23474e-16 0.0142024)
(0.000968145 0.00371473 2.38695e-21 -0.00102006 5.56217e-20 5.19161e-05)
(0.000549598 0.00319863 -3.56722e-21 -0.000639676 4.29785e-23 9.00776e-05)
(0.000179046 0.00261231 -1.9522e-20 -0.000226144 -1.37224e-19 4.70985e-05)
(-6.74644e-05 0.00209068 4.92794e-21 3.33125e-05 9.36621e-20 3.41518e-05)
(-0.000179714 0.00159764 3.93211e-21 0.000161406 -1.83001e-20 1.83074e-05)
(-0.000173077 0.00116774 -3.38105e-20 0.000173443 1.10729e-19 -3.66845e-07)
(-8.4452e-05 0.000835677 -2.02303e-19 0.000108529 1.62827e-19 -2.40768e-05)
(0.000579457 -0.00046062 1.22614e-22 -0.000520055 4.00475e-21 -5.94018e-05)
(0.000492615 -0.000547443 2.90391e-20 -0.00042548 7.03637e-20 -6.7135e-05)
(0.00037141 -0.000623031 -2.69286e-20 -0.000291071 -4.74731e-20 -8.03392e-05)
(0.000250503 -0.000652248 -1.81305e-20 -0.000158553 -5.16573e-20 -9.19503e-05)
(0.000133128 -0.000645166 1.22283e-19 -3.25136e-05 2.37344e-19 -0.000100614)
(2.31172e-05 -0.000610529 4.76205e-20 8.62251e-05 7.38777e-20 -0.000109342)
(-6.03112e-05 -0.000551434 2.25838e-19 0.00017724 2.07469e-19 -0.000116929)
(-0.000116651 -0.000479029 -1.16729e-19 0.000238507 -2.24598e-20 -0.000121856)
(-0.000149311 -0.000404793 1.6492e-19 0.000274609 1.14273e-19 -0.000125298)
(-0.000158011 -0.000336015 -5.86147e-21 0.000285278 2.49608e-22 -0.000127267)
(-0.000150102 -0.000278323 -2.23025e-19 0.000277014 -1.90543e-19 -0.000126912)
(-0.000132646 -0.000239991 2.87211e-19 0.000258891 3.57562e-19 -0.000126246)
(-0.000110867 -0.000226198 1.76652e-19 0.000240767 8.87674e-20 -0.0001299)
(-8.62149e-05 -0.000245936 -3.68599e-20 0.000231141 1.99965e-20 -0.000144926)
(-4.84359e-05 -0.000344964 -2.27068e-19 0.000241514 3.73805e-20 -0.000193078)
(6.28904e-05 -0.000659458 4.77837e-19 0.000258201 5.46842e-19 -0.000321092)
(0.000456616 -0.00155069 8.56361e-19 0.000141398 -9.36326e-19 -0.000598014)
(0.00150507 -0.00355315 -4.42172e-18 -0.000501568 -5.7321e-18 -0.00100351)
(0.00421506 -0.00869178 5.0614e-19 -0.00254532 7.47585e-18 -0.00166974)
(0.0105036 -0.0211854 7.37903e-18 -0.00791825 -2.07244e-18 -0.00258536)
(0.0296091 -0.0627791 1.55403e-17 -0.0251866 6.15726e-18 -0.0044225)
(0.0742133 -0.17498 -2.35879e-17 -0.0679952 -2.26011e-17 -0.00621806)
(0.195873 -0.547223 7.44347e-17 -0.188071 1.88029e-16 -0.00780189)
(0.506016 -1.7887 1.53907e-19 -0.503289 -1.55161e-16 -0.00272651)
(0.750679 -3.55414 -2.73816e-16 -0.77451 1.70101e-16 0.0238309)
(0.791018 -5.40262 -9.72191e-17 -0.845536 -6.61346e-16 0.054518)
(0.603875 -7.1546 1.19868e-18 -0.675903 7.57654e-17 0.0720276)
(0.204198 -8.39782 -2.94598e-16 -0.279885 -4.45086e-16 0.0756867)
(-0.295982 -8.63895 -4.93678e-16 0.229883 -2.83424e-15 0.066099)
(-0.707613 -7.89951 -1.66958e-16 0.666339 -3.5482e-15 0.0412743)
(-0.931714 -6.69362 5.23074e-16 0.923305 4.89865e-15 0.00840979)
(-0.99872 -5.47961 -9.55555e-16 1.01689 -3.74816e-17 -0.0181658)
(-0.984799 -4.49959 -7.19071e-15 1.01459 1.34245e-15 -0.0297949)
(-0.931173 -3.75447 8.77449e-15 0.960813 1.59579e-14 -0.0296402)
(-0.864113 -3.18711 -1.48901e-15 0.888124 -8.64121e-16 -0.0240111)
(0.000645696 -0.000345101 9.37007e-21 -0.000595449 2.31898e-20 -5.02469e-05)
(0.000684478 -0.000224702 -1.27038e-20 -0.000637507 -9.60226e-20 -4.69704e-05)
(0.000691768 -7.64759e-05 -1.86397e-20 -0.000654718 -1.1128e-19 -3.70504e-05)
(0.000654339 8.66145e-05 -7.1215e-21 -0.000627734 1.65306e-19 -2.66045e-05)
(0.000565183 0.000235252 1.91191e-21 -0.000551042 4.34932e-20 -1.4141e-05)
(0.000429386 0.000348885 3.78001e-20 -0.000425714 -1.45182e-19 -3.672e-06)
(0.000333661 -0.000312883 1.7248e-21 -0.000360061 2.38462e-21 2.63994e-05)
(0.000258325 -0.000372355 -2.72933e-20 -0.000290213 -6.63341e-20 3.18877e-05)
(0.0001608 -0.000413625 -6.02269e-21 -0.00019794 -3.0281e-21 3.71398e-05)
(5.20066e-05 -0.000426416 2.27838e-20 -9.68949e-05 4.92303e-20 4.48883e-05)
(-5.44999e-05 -0.000413118 -7.2102e-20 3.60426e-06 -1.46673e-19 5.08956e-05)
(-0.000154864 -0.000372482 -8.20829e-20 9.79728e-05 -1.34535e-19 5.68914e-05)
(-0.000239029 -0.000308498 -1.6643e-19 0.000175501 -2.46013e-19 6.35276e-05)
(-0.000300082 -0.000230737 -1.34097e-20 0.000231198 -1.99094e-21 6.88837e-05)
(-0.000337843 -0.000145401 -7.30624e-20 0.000264366 -1.74038e-19 7.34773e-05)
(-0.000353036 -6.1078e-05 3.05817e-19 0.00027551 3.4802e-19 7.7526e-05)
(-0.000348722 1.66296e-05 -5.00894e-20 0.000268584 6.81217e-20 8.01374e-05)
(-0.000331443 8.39574e-05 3.41274e-20 0.000250398 2.10035e-20 8.10451e-05)
(-0.0003074 0.00013934 -2.33557e-19 0.000227579 -2.97274e-19 7.98215e-05)
(-0.000281431 0.000184908 1.50394e-19 0.000204205 -1.39647e-20 7.72261e-05)
(-0.000254043 0.000218743 4.36333e-20 0.00018159 1.35412e-19 7.24533e-05)
(-0.000224064 0.000237835 5.34478e-20 0.000159099 2.56537e-20 6.49654e-05)
(-0.000179267 0.000226914 -2.4048e-19 0.000127565 -1.40065e-19 5.17021e-05)
(-0.000152693 0.00022367 2.08603e-19 0.000110238 1.55498e-19 4.24547e-05)
(-0.000102374 0.000168998 5.07116e-20 7.5998e-05 6.64804e-22 2.63765e-05)
(-0.000915967 0.00165035 -2.1177e-18 0.000708668 -3.18642e-19 0.000207299)
(-0.00180775 0.00346181 5.25536e-18 0.00147239 -2.06381e-18 0.000335359)
(-6.68557e-05 0.000132033 7.36255e-21 5.81441e-05 1.26234e-19 8.71159e-06)
(-0.00133598 0.0015087 5.9557e-18 0.00142836 -8.79581e-18 -9.23811e-05)
(0.00126728 -0.00472052 -2.29392e-18 -0.00102197 -2.45132e-18 -0.000245316)
(0.0119501 -0.0528674 4.36387e-18 -0.0101605 1.5422e-17 -0.00178959)
(0.0317357 -0.190728 -2.81339e-17 -0.0276368 7.69486e-18 -0.00409893)
(0.0532135 -0.491126 1.47369e-17 -0.0471989 1.14511e-18 -0.00601465)
(0.0637903 -1.1132 -1.42958e-17 -0.0565721 7.6293e-17 -0.00721816)
(0.0252447 -2.20142 -4.40343e-16 -0.0184532 2.46271e-16 -0.00679148)
(-0.120071 -3.6337 2.17106e-16 0.123259 3.53333e-16 -0.00318833)
(-0.387618 -4.91726 1.56426e-15 0.382423 -5.87047e-16 0.00519463)
(-0.692323 -5.52672 -2.76581e-15 0.677903 2.16325e-15 0.0144202)
(-0.906104 -5.36939 5.1401e-16 0.890368 9.33123e-15 0.0157367)
(-0.983628 -4.78896 -4.87101e-17 0.975235 -6.37013e-15 0.0083928)
(-0.965339 -4.12965 3.05827e-15 0.963872 -2.3016e-15 0.00146771)
(0.00039529 -0.000236879 -3.54054e-21 -0.000419388 -6.74001e-21 2.40977e-05)
(0.000435605 -0.000154423 -1.34274e-20 -0.000454987 -1.90193e-20 1.93819e-05)
(0.000460074 -5.33443e-05 5.56655e-20 -0.000475009 1.20078e-19 1.49348e-05)
(0.000454803 5.4325e-05 1.14489e-20 -0.000464254 -1.35201e-20 9.45027e-06)
(0.000415742 0.000160428 7.89871e-21 -0.000421211 -8.89641e-20 5.46939e-06)
(0.000342192 0.00024803 -2.46386e-20 -0.000344177 6.36814e-20 1.98445e-06)
(0.00030629 -0.000258285 9.51673e-21 -0.000296881 1.62828e-20 -9.40926e-06)
(0.000259299 -0.000306143 -1.3257e-20 -0.000248908 -2.38989e-20 -1.03918e-05)
(0.000195902 -0.000347468 -6.0287e-21 -0.000182624 -3.31646e-21 -1.32786e-05)
(0.000125007 -0.000374265 7.16173e-20 -0.000109122 1.04815e-19 -1.58847e-05)
(5.17498e-05 -0.000382682 4.55088e-20 -3.28622e-05 8.24996e-20 -1.88877e-05)
(-2.13232e-05 -0.000372982 5.77182e-20 4.37072e-05 1.10865e-19 -2.23839e-05)
(-8.67072e-05 -0.000347116 8.81611e-20 0.000112631 1.02002e-19 -2.59235e-05)
(-0.000139572 -0.000308107 -5.05892e-20 0.000169036 -7.85675e-20 -2.94637e-05)
(-0.000178447 -0.000260577 -1.80932e-19 0.00021172 -1.79268e-19 -3.32738e-05)
(-0.000202032 -0.000209921 2.34954e-19 0.00023873 1.32316e-19 -3.66989e-05)
(-0.000211597 -0.000160041 1.97584e-19 0.000251517 1.67341e-19 -3.99201e-05)
(-0.000209309 -0.000114101 2.55725e-19 0.000251846 1.22502e-19 -4.25376e-05)
(-0.00019774 -7.42104e-05 -4.20901e-19 0.000241992 -1.34791e-19 -4.4252e-05)
(-0.00017987 -4.12284e-05 -3.58091e-19 0.000224693 -2.40556e-19 -4.48235e-05)
(-0.000157741 -1.50457e-05 4.73854e-19 0.000202215 1.49042e-19 -4.44746e-05)
(-0.000133121 7.48459e-06 9.57745e-20 0.000175291 5.89828e-20 -4.21694e-05)
(-0.000107486 2.66157e-05 -7.09186e-20 0.000145586 7.31946e-21 -3.81e-05)
(-8.50603e-05 4.31897e-05 -2.30915e-19 0.000118216 -1.51289e-19 -3.31559e-05)
(-6.18618e-05 5.45735e-05 5.16838e-20 8.68256e-05 -1.98295e-20 -2.49638e-05)
(-4.30445e-05 5.86253e-05 2.00299e-19 5.90382e-05 6.17988e-20 -1.59938e-05)
(-3.81238e-05 7.09705e-05 -2.68915e-19 4.9098e-05 -7.73507e-20 -1.09742e-05)
(-4.04132e-05 9.39645e-05 1.43982e-19 4.86217e-05 2.05688e-20 -8.20846e-06)
(-3.74556e-05 0.000112399 -4.38647e-20 4.35233e-05 -9.51121e-21 -6.0677e-06)
(-0.000242679 0.00110383 -8.57022e-19 0.000289556 4.20311e-19 -4.68771e-05)
(-0.000593777 0.00639323 3.55021e-18 0.000865542 -1.13324e-18 -0.000271765)
(0.00050737 0.0128411 -7.46392e-18 8.30397e-05 9.90884e-18 -0.00059041)
(0.00339742 0.0176508 1.52714e-19 -0.00243475 -3.48738e-19 -0.000962673)
(0.000267549 0.000367491 4.94622e-19 -0.000224026 -1.75695e-19 -4.3523e-05)
(0.00395691 -0.00960628 5.86709e-18 -0.00348625 1.48512e-17 -0.00047066)
(0.00988425 -0.107369 2.65475e-17 -0.00864769 -1.20194e-16 -0.00123656)
(-0.000350276 -0.478027 -6.63837e-17 0.00255443 -3.95797e-16 -0.00220416)
(-0.0769144 -1.29973 2.07737e-15 0.0796266 5.51677e-16 -0.00271222)
(-0.263821 -2.42546 2.97154e-15 0.264696 6.72848e-16 -0.000874953)
(-0.514528 -3.34563 -1.64389e-15 0.511114 -2.2352e-15 0.00341472)
(-0.715895 -3.72382 -7.33511e-15 0.70994 1.42255e-15 0.00595501)
(0.000342243 -0.000198558 -1.46076e-20 -0.000335914 -2.97479e-20 -6.32955e-06)
(0.000364742 -0.000135387 -5.02056e-21 -0.000359252 2.02931e-20 -5.48992e-06)
(0.000373348 -5.72976e-05 4.83511e-20 -0.000370655 9.22155e-20 -2.69364e-06)
(0.000363974 2.51118e-05 -2.06845e-20 -0.000362651 -1.17315e-21 -1.3227e-06)
(0.000332461 0.00010551 1.80265e-20 -0.000332562 1.14238e-19 1.0107e-07)
(0.000222631 -0.000196175 -1.35346e-20 -0.000225648 -2.01652e-20 3.01759e-06)
(0.000184137 -0.00023167 2.6592e-21 -0.0001885 4.23895e-21 4.36227e-06)
(0.000134425 -0.00026129 1.61101e-20 -0.000139262 1.74955e-20 4.83676e-06)
(7.7972e-05 -0.000279224 -9.89686e-20 -8.41396e-05 -1.40694e-19 6.1676e-06)
(1.8899e-05 -0.00028335 -7.24501e-20 -2.64512e-05 -8.47364e-20 7.55222e-06)
(-4.048e-05 -0.000273093 1.69316e-19 3.16464e-05 2.02698e-19 8.83358e-06)
(-9.48754e-05 -0.000249178 -1.7977e-19 8.43051e-05 -2.23248e-19 1.05703e-05)
(-0.000140388 -0.000213794 -8.12734e-20 0.000127966 -5.40621e-20 1.24226e-05)
(-0.00017478 -0.000169934 -1.93204e-19 0.000160512 -1.44582e-19 1.42676e-05)
(-0.000196717 -0.000121808 -3.59976e-20 0.000180351 -6.55132e-20 1.63658e-05)
(-0.000206312 -7.28538e-05 2.41771e-20 0.000187851 -8.72647e-21 1.84603e-05)
(-0.000204732 -2.62439e-05 -1.32281e-19 0.000184184 -1.7546e-19 2.05482e-05)
(-0.000193995 1.54667e-05 4.30678e-19 0.000171463 2.94977e-19 2.25313e-05)
(-0.000176485 5.07605e-05 -1.41768e-19 0.000152283 -2.47936e-20 2.42016e-05)
(-0.00015452 7.94564e-05 -3.47415e-19 0.000128946 -1.51921e-19 2.55741e-05)
(-0.000130533 0.00010047 2.30353e-19 0.000104593 4.60807e-21 2.59395e-05)
(-0.000106154 0.000113163 -1.67389e-19 8.13367e-05 -9.65485e-20 2.4817e-05)
(-8.17625e-05 0.000118022 2.28537e-21 5.90935e-05 1.22197e-19 2.26691e-05)
(-5.96443e-05 0.000118031 -4.02867e-20 3.95778e-05 -3.16509e-20 2.00664e-05)
(-3.92826e-05 0.000111019 -2.85282e-19 2.27003e-05 -1.97112e-19 1.65824e-05)
(-2.22508e-05 9.4976e-05 1.98737e-19 1.03718e-05 1.92934e-19 1.18789e-05)
(-1.15836e-05 7.53473e-05 3.94001e-21 4.42136e-06 -1.21493e-19 7.16222e-06)
(-6.78602e-06 6.99194e-05 3.84316e-20 2.15087e-06 1.17595e-20 4.63515e-06)
(-2.5379e-06 7.98968e-05 1.11663e-19 -1.20163e-06 -5.00138e-21 3.73953e-06)
(3.76563e-06 8.70508e-05 -3.76433e-20 -6.73988e-06 -1.19929e-20 2.97425e-06)
(9.47706e-06 8.92637e-05 1.26753e-19 -1.15693e-05 2.02584e-20 2.09226e-06)
(1.27773e-05 8.92101e-05 -6.93042e-21 -1.39977e-05 1.58543e-22 1.2204e-06)
(2.93576e-05 0.000179581 -2.85241e-20 -3.05402e-05 -1.76667e-20 1.18266e-06)
(0.00123983 0.00664006 2.18592e-20 -0.00125131 1.71152e-18 1.14736e-05)
(0.000667277 0.00293125 -8.54141e-18 -0.000661422 7.05214e-19 -5.85464e-06)
(0.00262884 0.00827656 -1.05003e-17 -0.00258493 1.75588e-18 -4.39141e-05)
(0.0105853 0.0119946 2.77649e-17 -0.0103578 -1.62049e-16 -0.000227472)
(0.0187365 -0.098722 5.76749e-16 -0.0179067 -7.07732e-16 -0.000829824)
(-0.0257163 -0.584836 -2.98478e-15 0.0277076 1.59086e-16 -0.00199129)
(-0.182341 -1.49068 4.83655e-15 0.184155 1.81737e-15 -0.00181392)
(0.000253114 -0.000152949 8.63674e-21 -0.000256273 3.53496e-21 3.15936e-06)
(0.000274197 -0.000106617 -3.12465e-20 -0.000275971 -4.4944e-20 1.7742e-06)
(0.000285746 -4.97065e-05 3.99504e-21 -0.000287366 2.03336e-20 1.62005e-06)
(0.000283494 1.17354e-05 1.70346e-20 -0.000284318 -5.6842e-20 8.24124e-07)
(0.000264513 7.30657e-05 -1.38552e-19 -0.00026509 -1.99288e-19 5.77014e-07)
(0.000184132 -0.000161053 1.18691e-20 -0.00018302 1.37905e-20 -1.11243e-06)
(0.000155876 -0.00018976 -2.98494e-20 -0.000154868 -3.58855e-20 -1.00783e-06)
(0.000118618 -0.000214979 -2.41133e-21 -0.000117012 -4.98668e-21 -1.60574e-06)
(7.60739e-05 -0.000232424 -1.24439e-20 -7.41811e-05 -6.48415e-21 -1.89279e-06)
(3.10158e-05 -0.000240004 9.8644e-20 -2.87454e-05 1.13538e-19 -2.27041e-06)
(-1.54747e-05 -0.000237342 7.56437e-20 1.8453e-05 6.24106e-20 -2.97827e-06)
(-5.93668e-05 -0.00022453 9.5784e-22 6.29861e-05 3.05072e-20 -3.6193e-06)
(-9.77204e-05 -0.000202651 1.87645e-19 0.000102112 1.81829e-19 -4.3911e-06)
(-0.000128817 -0.000173567 -2.34376e-20 0.000134205 -3.13202e-21 -5.38792e-06)
(-0.000151075 -0.000140085 -6.47958e-20 0.000157501 -3.04235e-20 -6.42594e-06)
(-0.000164137 -0.000104704 1.27254e-19 0.000171742 4.74866e-20 -7.60481e-06)
(-0.000168516 -6.98211e-05 -1.71269e-19 0.000177419 -6.63775e-20 -8.90318e-06)
(-0.0001653 -3.76005e-05 -3.02189e-19 0.000175547 -2.36231e-19 -1.02472e-05)
(-0.000155978 -9.35639e-06 -1.26181e-19 0.000167637 3.25348e-20 -1.1659e-05)
(-0.000142218 1.41262e-05 5.44232e-19 0.000155258 2.45795e-19 -1.30402e-05)
(-0.000125192 3.2276e-05 -3.93047e-19 0.000139484 -1.79152e-19 -1.42923e-05)
(-0.000105671 4.6213e-05 -9.44014e-20 0.000120208 8.18701e-20 -1.45372e-05)
(-8.50639e-05 5.58637e-05 1.76287e-19 9.89494e-05 1.1491e-19 -1.38855e-05)
(-6.51643e-05 6.18641e-05 -1.11244e-19 7.76935e-05 -9.03568e-22 -1.25292e-05)
(-4.68458e-05 6.43723e-05 -3.63008e-20 5.74847e-05 9.08844e-20 -1.06389e-05)
(-3.11373e-05 6.50408e-05 5.09377e-20 3.96857e-05 -3.27212e-20 -8.54839e-06)
(-1.7104e-05 6.26379e-05 -3.72038e-19 2.33062e-05 3.60096e-20 -6.20218e-06)
(-4.99523e-06 5.80048e-05 3.35511e-21 8.84814e-06 -5.63133e-20 -3.85291e-06)
(3.62777e-06 4.18937e-05 -1.67608e-19 -2.02785e-06 1.68598e-20 -1.59993e-06)
(9.17366e-06 3.89972e-05 4.21852e-20 -8.28387e-06 1.23585e-20 -8.89788e-07)
(1.29976e-05 3.78588e-05 -1.32014e-20 -1.22522e-05 -5.56691e-20 -7.45406e-07)
(1.44834e-05 3.7267e-05 -2.76915e-21 -1.37642e-05 -2.59607e-22 -7.19202e-07)
(1.47293e-05 3.90114e-05 6.52331e-21 -1.41616e-05 1.59804e-22 -5.67755e-07)
(1.50929e-05 4.33505e-05 6.65383e-20 -1.4724e-05 -2.26546e-20 -3.68966e-07)
(0.000104023 0.000319947 3.44176e-19 -0.000102123 5.54536e-19 -1.90007e-06)
(0.000632877 0.00201212 -5.87423e-19 -0.000621473 1.21366e-18 -1.14046e-05)
(0.00342867 0.0106224 -3.54448e-17 -0.00337331 1.15166e-17 -5.53557e-05)
(0.000758783 0.00205651 -1.09703e-17 -0.000750773 -7.39501e-18 -8.00981e-06)
(0.013686 0.0235615 -9.24261e-17 -0.0136008 1.02151e-16 -8.51949e-05)
(0.0323082 -0.0500049 6.49217e-16 -0.031987 -7.44347e-16 -0.000321231)
(0.000206334 -0.000126668 -1.29995e-20 -0.00020608 -1.90279e-20 -2.53606e-07)
(0.00022152 -9.01828e-05 4.62227e-21 -0.000221034 1.27333e-21 -4.85848e-07)
(0.000229958 -4.55525e-05 1.23985e-20 -0.000230099 1.25996e-20 1.41289e-07)
(0.000228597 2.64043e-06 -1.11774e-20 -0.000228624 -5.19367e-20 2.74225e-08)
(0.000147374 -0.000131449 -5.84011e-21 -0.000147572 -5.50139e-21 1.97556e-07)
(0.000124511 -0.000154245 1.66168e-22 -0.000125113 -1.47876e-21 6.01684e-07)
(9.46537e-05 -0.000174403 4.14458e-20 -9.51677e-05 4.52068e-20 5.13911e-07)
(6.05026e-05 -0.000188461 1.62238e-21 -6.12634e-05 -8.7887e-22 7.6079e-07)
(2.41746e-05 -0.000194916 -1.42923e-19 -2.51586e-05 -1.51828e-19 9.84e-07)
(-1.36495e-05 -0.000193294 3.28428e-20 1.25193e-05 3.87217e-20 1.13019e-06)
(-4.99572e-05 -0.000183416 3.20579e-20 4.85275e-05 1.98546e-20 1.42968e-06)
(-8.24007e-05 -0.000165944 -7.42298e-20 8.06138e-05 -1.08098e-19 1.78694e-06)
(-0.000109481 -0.000142042 -1.10919e-19 0.000107355 -6.5446e-20 2.1262e-06)
(-0.000129708 -0.00011369 4.20817e-20 0.000127114 5.54228e-20 2.59395e-06)
(-0.000142497 -8.27853e-05 -2.52068e-19 0.000139376 -2.08609e-19 3.12109e-06)
(-0.000147839 -5.12568e-05 1.6787e-19 0.000144132 1.06871e-19 3.70618e-06)
(-0.000146249 -2.10373e-05 3.4112e-19 0.000141855 1.93363e-19 4.39414e-06)
(-0.0001387 6.53229e-06 4.39627e-19 0.000133545 1.65668e-19 5.15496e-06)
(-0.000126333 3.04107e-05 -5.87958e-19 0.000120332 -4.4041e-19 6.00186e-06)
(-0.000110484 5.00335e-05 3.16264e-19 0.000103489 2.41818e-19 6.99517e-06)
(-9.27148e-05 6.48493e-05 3.38267e-19 8.5023e-05 7.81742e-20 7.69183e-06)
(-7.44943e-05 7.4357e-05 2.15753e-19 6.67438e-05 -4.70286e-20 7.75044e-06)
(-5.6742e-05 7.87678e-05 1.10178e-19 4.95573e-05 5.87663e-20 7.18471e-06)
(-4.05416e-05 7.88147e-05 -1.44353e-20 3.43463e-05 8.07179e-20 6.19527e-06)
(-2.6619e-05 7.58802e-05 1.09935e-19 2.17059e-05 -1.81322e-20 4.91306e-06)
(-1.48691e-05 7.13923e-05 3.66361e-19 1.12908e-05 1.54271e-19 3.57831e-06)
(-4.11159e-06 6.79738e-05 -1.58085e-19 1.59891e-06 -2.13087e-20 2.51269e-06)
(6.93754e-06 5.96311e-05 4.12305e-19 -8.66063e-06 9.71676e-20 1.7231e-06)
(1.4394e-05 4.35134e-05 -5.76609e-20 -1.54903e-05 2.2463e-21 1.0963e-06)
(1.70401e-05 2.94889e-05 -1.938e-20 -1.77126e-05 1.34888e-20 6.72464e-07)
(1.61871e-05 1.9518e-05 4.94878e-21 -1.66235e-05 2.14351e-21 4.36398e-07)
(1.53612e-05 1.50673e-05 -1.76407e-20 -1.57633e-05 7.49433e-21 4.02087e-07)
(1.47815e-05 1.367e-05 -4.26012e-20 -1.52073e-05 -2.43575e-20 4.25747e-07)
(1.44173e-05 1.44491e-05 -3.75119e-21 -1.48075e-05 2.93434e-20 3.90201e-07)
(1.44396e-05 1.76034e-05 2.66519e-21 -1.47439e-05 -2.09989e-20 3.04328e-07)
(1.4985e-05 2.34992e-05 1.54806e-19 -1.51745e-05 1.21818e-19 1.89421e-07)
(0.00011633 0.000227171 -1.79131e-18 -0.000116798 1.68304e-18 4.68307e-07)
(0.00360122 0.00784373 -1.64472e-17 -0.00359818 1.01424e-17 -3.04122e-06)
(0.00292119 0.00586109 -3.81309e-17 -0.00292798 1.48212e-18 6.79025e-06)
(0.000165504 -0.000104447 1.85094e-21 -0.000166038 6.08183e-21 5.34161e-07)
(0.000178248 -7.57817e-05 2.82456e-20 -0.000178361 2.49688e-20 1.13006e-07)
(0.000185952 -4.07226e-05 -2.81896e-20 -0.000186329 -1.0162e-20 3.76937e-07)
(0.000186071 -2.54601e-06 6.96917e-20 -0.000186183 6.73479e-20 1.1245e-07)
(0.00012149 -0.000109877 -2.61423e-22 -0.000121307 -7.59981e-22 -1.82219e-07)
(0.000103205 -0.000128557 -1.83303e-21 -0.0001032 -1.50127e-21 -5.2708e-09)
(7.92997e-05 -0.000145338 -5.40544e-21 -7.91082e-05 -4.81353e-21 -1.91553e-07)
(5.18957e-05 -0.000157482 -2.98944e-20 -5.17325e-05 -2.75711e-20 -1.63216e-07)
(2.26574e-05 -0.000163787 3.70032e-20 -2.24565e-05 4.13734e-20 -2.00979e-07)
(-8.12519e-06 -0.000163884 1.93472e-19 8.44512e-06 1.63717e-19 -3.19931e-07)
(-3.80878e-05 -0.000157533 -1.16694e-20 3.84723e-05 -3.19281e-20 -3.84533e-07)
(-6.54073e-05 -0.000145097 -8.46926e-20 6.58926e-05 -7.00861e-20 -4.8526e-07)
(-8.89812e-05 -0.000127312 2.23858e-19 8.96433e-05 2.0595e-19 -6.62073e-07)
(-0.000107483 -0.000105593 9.01162e-20 0.000108312 5.69614e-20 -8.28339e-07)
(-0.00012026 -8.13161e-05 -7.34136e-20 0.000121322 -1.25268e-20 -1.06209e-06)
(-0.000127165 -5.59449e-05 -2.73593e-19 0.000128516 -1.32821e-19 -1.35104e-06)
(-0.00012838 -3.10367e-05 -5.13284e-19 0.000130049 -3.90849e-19 -1.66867e-06)
(-0.000124478 -7.80348e-06 -5.91017e-19 0.000126538 -3.53073e-19 -2.05997e-06)
(-0.000116303 1.27727e-05 -3.34042e-20 0.000118817 1.34977e-19 -2.51339e-06)
(-0.000104894 2.99268e-05 2.9426e-20 0.000107934 -6.38692e-20 -3.04047e-06)
(-9.11428e-05 4.32572e-05 -4.43127e-19 9.4756e-05 -2.03443e-19 -3.61315e-06)
(-7.58346e-05 5.28257e-05 -2.88299e-19 7.97055e-05 -1.24197e-19 -3.8709e-06)
(-6.00156e-05 5.88644e-05 7.35412e-20 6.37949e-05 6.73686e-21 -3.77937e-06)
(-4.48555e-05 6.178e-05 3.06201e-19 4.8217e-05 4.1205e-20 -3.36152e-06)
(-3.10929e-05 6.22433e-05 -1.28571e-19 3.38401e-05 -5.3261e-20 -2.74719e-06)
(-1.90846e-05 6.11175e-05 -7.98913e-20 2.11564e-05 -1.50521e-19 -2.07177e-06)
(-8.22606e-06 5.92633e-05 1.51852e-20 9.65949e-06 5.60949e-21 -1.43344e-06)
(2.44165e-06 5.66975e-05 -1.41788e-19 -1.56042e-06 -1.37565e-19 -8.81232e-07)
(1.25289e-05 5.06307e-05 1.02032e-19 -1.20143e-05 2.19339e-20 -5.14612e-07)
(1.94489e-05 4.03622e-05 3.29341e-20 -1.90434e-05 -2.35799e-20 -4.05503e-07)
(2.12675e-05 2.83763e-05 1.33821e-21 -2.08843e-05 -9.10296e-21 -3.8318e-07)
(1.90595e-05 1.79742e-05 3.16174e-20 -1.8786e-05 9.53927e-21 -2.73556e-07)
(1.59216e-05 1.08568e-05 1.78321e-20 -1.57856e-05 1.30055e-20 -1.35997e-07)
(1.28286e-05 6.1687e-06 1.25347e-19 -1.27695e-05 6.69229e-21 -5.90103e-08)
(1.23154e-05 4.21843e-06 -5.24678e-20 -1.22848e-05 5.99272e-20 -3.06708e-08)
(1.19311e-05 3.79867e-06 1.31077e-19 -1.19315e-05 -1.76749e-19 3.78459e-10)
(1.19113e-05 5.79333e-06 3.15095e-19 -1.19377e-05 1.93593e-19 2.6386e-08)
(1.26032e-05 1.1209e-05 -6.67778e-21 -1.26065e-05 1.51889e-19 3.2946e-09)
(0.00055572 0.000783756 4.97201e-18 -0.000555861 -2.27519e-18 1.40803e-07)
(0.000135999 -8.80289e-05 -4.84437e-21 -0.000136141 -7.45137e-21 1.42802e-07)
(0.000146342 -6.48697e-05 -1.52506e-20 -0.00014627 -1.0669e-20 -7.20366e-08)
(0.000152902 -3.66348e-05 2.3698e-20 -0.000153106 8.92939e-21 2.03345e-07)
(0.000153615 -5.73543e-06 -9.81437e-20 -0.00015363 -7.16997e-20 1.53818e-08)
(0.000100426 -9.2603e-05 -9.2331e-21 -0.000100381 -6.74718e-21 -4.49136e-08)
(8.53456e-05 -0.000107966 -2.91104e-20 -8.54695e-05 -2.61309e-20 1.23885e-07)
(6.57004e-05 -0.000121857 -6.70427e-21 -6.57317e-05 -6.72226e-21 3.13504e-08)
(4.31651e-05 -0.000132044 9.98005e-20 -4.32744e-05 8.76011e-20 1.09378e-07)
(1.91402e-05 -0.000137586 -6.66565e-20 -1.92812e-05 -5.91612e-20 1.40981e-07)
(-6.31851e-06 -0.000138184 -7.02092e-20 6.18814e-06 -7.31117e-20 1.30369e-07)
(-3.13295e-05 -0.000133562 -1.72722e-19 3.11379e-05 -1.25363e-19 1.91664e-07)
(-5.44642e-05 -0.000123923 -1.182e-19 5.42068e-05 -8.2383e-20 2.57378e-07)
(-7.48283e-05 -0.000109748 1.30411e-19 7.45438e-05 8.50824e-20 2.84562e-07)
(-9.12872e-05 -9.20424e-05 3.60599e-20 9.0913e-05 -1.69887e-21 3.74129e-07)
(-0.000103233 -7.18029e-05 5.63135e-20 0.000102773 6.35191e-20 4.59636e-07)
(-0.000110372 -5.01412e-05 5.0801e-19 0.000109819 3.09065e-19 5.53688e-07)
(-0.000112661 -2.83266e-05 -1.73628e-19 0.000111969 -1.94148e-20 6.92072e-07)
(-0.000110383 -7.40262e-06 3.80934e-19 0.00010954 3.28547e-19 8.42658e-07)
(-0.000104088 1.17085e-05 5.07857e-20 0.000103058 3.9164e-20 1.03004e-06)
(-9.44794e-05 2.82174e-05 -8.98669e-20 9.32044e-05 -4.38141e-20 1.27504e-06)
(-8.23807e-05 4.17172e-05 2.70942e-19 8.07859e-05 1.86719e-19 1.5948e-06)
(-6.88542e-05 5.17461e-05 1.03132e-19 6.70163e-05 7.50003e-20 1.83795e-06)
(-5.48508e-05 5.81755e-05 4.94667e-20 5.30098e-05 -2.46543e-20 1.84101e-06)
(-4.12981e-05 6.12566e-05 -1.80682e-19 3.9629e-05 -1.57772e-19 1.66907e-06)
(-2.88512e-05 6.16225e-05 -2.09983e-21 2.7505e-05 4.03097e-21 1.34629e-06)
(-1.78134e-05 6.01533e-05 -1.01325e-19 1.68317e-05 3.54984e-21 9.81656e-07)
(-7.7959e-06 5.75238e-05 -1.48872e-19 7.12551e-06 -8.17619e-21 6.70395e-07)
(1.69127e-06 5.38601e-05 3.92196e-20 -2.18737e-06 5.06715e-20 4.96101e-07)
(1.04267e-05 4.85383e-05 -6.82129e-21 -1.08159e-05 -4.23403e-20 3.89162e-07)
(1.71919e-05 4.12215e-05 -1.18121e-19 -1.74171e-05 3.91859e-21 2.25248e-07)
(2.10472e-05 3.32153e-05 -1.14663e-20 -2.10985e-05 4.24513e-21 5.13159e-08)
(2.20623e-05 2.55202e-05 3.58122e-21 -2.20533e-05 -8.63869e-21 -9.00766e-09)
(2.15219e-05 1.88133e-05 -2.4407e-20 -2.15452e-05 4.29277e-21 2.33514e-08)
(1.83089e-05 1.16159e-05 2.79895e-20 -1.83423e-05 -1.41959e-19 3.34445e-08)
(1.50493e-05 6.11841e-06 1.66716e-19 -1.50627e-05 -3.24127e-20 1.34164e-08)
(1.12086e-05 2.08876e-06 -2.78353e-19 -1.12127e-05 -1.21453e-20 4.09456e-09)
(1.05723e-05 -6.22428e-08 3.19691e-19 -1.0587e-05 -1.7741e-19 1.47134e-08)
(1.01754e-05 -8.86898e-07 3.11976e-19 -1.01924e-05 -4.22856e-21 1.70186e-08)
(1.02521e-05 1.12642e-06 -3.70736e-19 -1.02822e-05 5.5161e-20 3.01062e-08)
(0.000112443 -7.47958e-05 5.95507e-21 -0.000112602 7.88044e-21 1.58513e-07)
(0.000121146 -5.58997e-05 4.48103e-20 -0.000121122 3.03348e-20 -2.38124e-08)
(0.000126925 -3.28801e-05 -2.8732e-20 -0.000127108 -3.19136e-20 1.82684e-07)
(1.64173e-05 -0.000116935 4.18133e-20 -1.64245e-05 3.67837e-20 7.23488e-09)
(-4.80295e-06 -0.000117902 5.93828e-20 4.83617e-06 4.97217e-20 -3.32206e-08)
(-2.57883e-05 -0.000114643 2.51064e-19 2.58083e-05 1.93066e-19 -2.00083e-08)
(-4.54156e-05 -0.000107276 -4.26556e-20 4.54429e-05 -3.26543e-20 -2.72878e-08)
(-6.30006e-05 -9.6131e-05 8.76633e-20 6.30612e-05 4.21716e-20 -6.0624e-08)
(-7.75979e-05 -8.193e-05 -1.73362e-19 7.76678e-05 -1.00358e-19 -6.98768e-08)
(-8.86503e-05 -6.54158e-05 1.28591e-19 8.8753e-05 7.11178e-20 -1.02619e-07)
(-9.58474e-05 -4.74386e-05 -3.21114e-19 9.60036e-05 -2.51058e-19 -1.56193e-07)
(-9.90567e-05 -2.8981e-05 1.12632e-20 9.92616e-05 3.39923e-20 -2.04905e-07)
(-9.83962e-05 -1.09073e-05 5.13788e-20 9.86688e-05 -2.77642e-20 -2.72567e-07)
(-9.41937e-05 5.93117e-06 8.57276e-20 9.4556e-05 1.71493e-20 -3.62248e-07)
(-8.69718e-05 2.08159e-05 1.39842e-20 8.74351e-05 1.21738e-20 -4.63335e-07)
(-7.74015e-05 3.32308e-05 -1.03646e-19 7.8009e-05 -9.67237e-20 -6.07478e-07)
(-6.61885e-05 4.28022e-05 -1.9988e-19 6.69228e-05 -6.29922e-20 -7.34362e-07)
(-5.40173e-05 4.94688e-05 -1.71879e-19 5.48273e-05 -5.02785e-20 -8.09966e-07)
(-4.17363e-05 5.33761e-05 -1.25552e-19 4.25184e-05 3.44727e-20 -7.82083e-07)
(-3.00089e-05 5.49615e-05 -7.9693e-20 3.06829e-05 -8.4555e-21 -6.73979e-07)
(-1.92529e-05 5.47458e-05 -8.53918e-21 1.97727e-05 3.71923e-20 -5.19786e-07)
(-9.3609e-06 5.31746e-05 9.76811e-20 9.72165e-06 6.16958e-20 -3.60745e-07)
(-1.18548e-07 5.01495e-05 -6.99763e-21 3.05596e-07 -3.85643e-20 -1.87048e-07)
(8.12607e-06 4.52761e-05 -5.28093e-20 -8.06622e-06 -8.13614e-21 -5.98481e-08)
(1.44372e-05 3.87203e-05 9.18045e-20 -1.43838e-05 2.71419e-20 -5.34502e-08)
(1.8181e-05 3.17159e-05 1.21515e-20 -1.80771e-05 4.42628e-21 -1.03927e-07)
(1.97874e-05 2.55227e-05 1.44902e-20 -1.96881e-05 -1.49382e-20 -9.92957e-08)
(2.0349e-05 2.04834e-05 1.00557e-20 -2.03112e-05 -4.89134e-21 -3.77965e-08)
(2.0483e-05 1.6084e-05 -2.42314e-19 -2.04848e-05 8.15052e-20 1.84564e-09)
(2.01237e-05 1.17859e-05 -2.03574e-19 -2.01221e-05 -5.87304e-20 -1.56437e-09)
(1.66269e-05 6.45807e-06 1.31041e-19 -1.66163e-05 2.69032e-19 -1.05838e-08)
(1.16422e-05 2.03128e-06 -1.68007e-19 -1.1639e-05 -2.03388e-19 -3.18654e-09)
(9.82915e-06 -6.8016e-07 4.45342e-20 -9.82256e-06 -1.21496e-19 -6.58401e-09)
(9.20198e-06 -2.84991e-06 1.96491e-19 -9.22119e-06 4.27712e-20 1.92095e-08)