/*--------------------------------*- C++ -*----------------------------------*\
| =========                 |                                                 |
| \\      /  F ield         | OpenFOAM: The Open Source CFD Toolbox           |
|  \\    /   O peration     | Version:  2506                                  |
|   \\  /    A nd           | Website:  www.openfoam.com                      |
|    \\/     M anipulation  |                                                 |
\*---------------------------------------------------------------------------*/
FoamFile
{
    version     2.0;
    format      ascii;
    arch        "LSB;label=32;scalar=64";
    class       volScalarField;
    location    "300";
    object      turbulenceProperties:I;
}
// * * * * * * * * * * * * * * * * * * * * * * * * * * * * * * * * * * * * * //

dimensions      [0 0 0 0 0 0 0];

internalField   nonuniform List<scalar> 
1340
(
0.00417405
0.00414916
0.00416935
0.00429782
0.00446118
0.00469054
0.00500355
0.00538926
0.00586682
0.00645506
0.00717359
0.00806467
0.00918887
0.0106294
0.0125299
0.015088
0.0186962
0.0238261
0.0320183
0.0443936
0.0694106
0.111503
0.228265
0.421191
0.508016
0.46711
0.408471
0.366487
0.339429
0.322279
0.311192
0.303472
0.298997
0.296883
0.29694
0.00422539
0.00438233
0.00456309
0.00498478
0.0056861
0.00704235
0.0101789
0.00181773
0.00166465
0.00152708
0.00139724
0.00127662
0.00116841
0.00106926
0.000977851
0.00089677
0.000824135
0.00075925
0.000711256
0.000692124
0.000711457
0.000795919
0.000980141
0.00132987
0.00190135
0.00294785
0.00465031
0.00817992
0.0141598
0.026554
0.0521923
0.0806923
0.10897
0.137057
0.161378
0.175711
0.177716
0.171263
0.161899
0.153561
0.147654
0.144824
0.00198341
0.00219074
0.00246952
0.00286736
0.00346239
0.00439617
0.0015786
0.00145468
0.00133324
0.00121901
0.00112075
0.00103361
0.000958183
0.000895751
0.000844867
0.000805006
0.000774132
0.000752521
0.000739256
0.000734135
0.000729806
0.000716407
0.000654875
0.000620303
0.000355165
0.00148801
0.00205566
0.000457461
0.00147582
0.00227487
0.00780241
0.0152686
0.025472
0.0402743
0.0602404
0.0834575
0.105745
0.122378
0.131164
0.134252
0.135542
0.00172219
0.00189285
0.00212858
0.00244299
0.00286657
0.00342209
0.00149018
0.00138667
0.00128696
0.00119628
0.00111318
0.00103589
0.000965473
0.000900538
0.000840936
0.000785963
0.000735012
0.000687254
0.000641844
0.000598275
0.000555782
0.000512351
0.00046798
0.000431122
0.000379132
0.000282583
0.000102487
0.000174203
0
0.00119559
0.0027631
0.00397208
0.00478075
0.000761272
0.00377965
0.0125866
0.0276538
0.048454
0.071689
0.0923934
0.10774
0.00159992
0.00172793
0.00189072
0.00210504
0.00237204
0.00131448
0.00122929
0.00114547
0.00106624
0.000993123
0.000924148
0.000860418
0.000801971
0.00074835
0.000700046
0.000656885
0.000618857
0.00058618
0.000558866
0.000536882
0.000519361
0.000503096
0.000484361
0.000467551
0.000442925
0.000396807
0.000308852
0.000101438
5.50013e-05
0
0
0
0.000614419
0.00320797
0.0021617
0.00375855
0.00520651
0.0134954
0.0343093
0.0593302
0.00140559
0.00150901
0.00163729
0.00179512
0.00197604
0.00119673
0.00112916
0.00106144
0.000997518
0.000938165
0.00088175
0.000829291
0.000780526
0.000735041
0.000692804
0.00065341
0.000616618
0.000582284
0.000550169
0.000520084
0.000490974
0.00046103
0.000430907
0.000403111
0.000377717
0.000358704
0.000338564
0.000316087
0.000199109
7.29791e-05
5.36257e-05
3.66644e-05
9.12997e-06
0
0.00081555
0.00192923
0.00455867
0.00203819
0.00739785
0.0112959
0.0012667
0.00134413
0.00143788
0.00155013
0.00107719
0.0010223
0.000966407
0.000912736
0.000862504
0.000813997
0.00076821
0.000725195
0.000684538
0.000646372
0.000610554
0.000576969
0.000545699
0.000516786
0.000490219
0.00046624
0.000445439
0.000427039
0.000409327
0.000391615
0.000374618
0.000359142
0.000351573
0.000332593
0.00028384
0.000226186
0.000142727
3.23631e-05
4.35353e-05
1.30683e-05
0
0
0.000769398
0.00432683
0.00384572
0.0011333
0.001194
0.00126587
0.0013488
0.000977322
0.000933326
0.000887851
0.000843784
0.000802356
0.000762006
0.000723757
0.000687651
0.000653332
0.000620928
0.000590227
0.000561115
0.000533569
0.000507499
0.000482839
0.000459595
0.000437245
0.000414996
0.000393306
0.000373195
0.000355481
0.000341144
0.000331247
0.000326377
0.000317723
0.000299097
0.000268528
0.000227148
0.000180446
5.19604e-05
4.15174e-05
8.18001e-06
0
0
0.00150408
0.00102148
0.00106848
0.00112328
0.00118504
0.000887735
0.000852048
0.000814658
0.000777991
0.000743343
0.000709248
0.000676632
0.000645595
0.000615818
0.000587415
0.000560256
0.000534234
0.000509366
0.000485619
0.000463023
0.000441558
0.000421304
0.000402596
0.000385274
0.000369116
0.000354152
0.000340859
0.000329388
0.000320034
0.000311539
0.000301109
0.000288865
0.000273445
0.000257026
0.000223027
0.000184462
3.6642e-05
3.1928e-05
0
0
0.000923098
0.000960143
0.00100278
0.000690642
0.000662056
0.000634553
0.000608253
0.000582893
0.00055858
0.000535187
0.000512623
0.000490899
0.000469976
0.000449856
0.000430539
0.000412087
0.000394277
0.000376978
0.00036057
0.000345638
0.000332694
0.000321781
0.000311973
0.000301877
0.000290457
0.00027852
0.000267695
0.000259398
0.000252743
0.000245369
0.000214329
0.000142911
4.398e-05
0
0.000594542
0.000572139
0.000550389
0.000529413
0.000509087
0.000489327
0.000470137
0.000451483
0.000433386
0.000415878
0.000398983
0.000382798
0.000367428
0.000352951
0.000339609
0.000327617
0.000317062
0.000307309
0.000297027
0.000285262
0.000272465
0.000260541
0.000251038
0.000244937
0.000241432
0.000241706
0.000232469
0.000182811
4.87949e-05
0.000520011
0.000502032
0.000484523
0.0004674
0.000450663
0.000434283
0.000418268
0.000402649
0.000387468
0.000372812
0.000358628
0.000345017
0.000332339
0.000320875
0.000310677
0.000301257
0.000291508
0.000280509
0.000268443
0.000256705
0.000246648
0.000238837
0.000232881
0.000230825
0.000233107
0.000235513
0.000197123
0.000475725
0.000460637
0.000445797
0.000431198
0.000416801
0.00040262
0.000388686
0.000375031
0.000361764
0.000348931
0.000336611
0.000325021
0.000314366
0.000304655
0.000295535
0.000286196
0.000275897
0.000264728
0.000253747
0.0002441
0.000236115
0.000229464
0.000224423
0.00022249
0.0002258
0.000239306
0.000437823
0.00042501
0.000412343
0.000399784
0.000387328
0.000375002
0.000362834
0.000350934
0.000339339
0.000328089
0.000317364
0.000307399
0.000298197
0.000289476
0.000280611
0.000271004
0.00026069
0.000250507
0.000241447
0.000233837
0.000227463
0.000222154
0.000218344
0.000217003
0.000222189
0.000415976
0.00040495
0.00039399
0.000383059
0.000372143
0.000361272
0.000350475
0.000339828
0.00032941
0.000319257
0.000309462
0.000300252
0.000291628
0.000283365
0.000274992
0.000266039
0.000256506
0.000247048
0.000238519
0.000231283
0.00022523
0.000220296
0.000216421
0.00021491
0.000210385
0.000385688
0.000376238
0.000366761
0.000357254
0.000347725
0.000338202
0.000328735
0.000319427
0.000310288
0.00030137
0.000292882
0.000284847
0.00027709
0.000269239
0.000260928
0.000252142
0.000243388
0.000235381
0.000228496
0.000222698
0.000218034
0.000214379
0.000213139
0.000209714
0.000359091
0.000350917
0.000342668
0.000334352
0.000325988
0.000317614
0.000309333
0.000301154
0.000293102
0.000285341
0.000277915
0.000270695
0.000263391
0.000255707
0.000247629
0.000239551
0.000232065
0.000225535
0.000219987
0.00021549
0.000212073
0.000210355
0.000210588
0.000342588
0.000335559
0.000328432
0.000321209
0.000313906
0.000306543
0.000299213
0.000291932
0.000284709
0.000277651
0.000270837
0.000264174
0.000257425
0.000250358
0.000242957
0.000235529
0.000228564
0.000222404
0.000217124
0.000212778
0.000209562
0.000207422
0.000208929
0.000320695
0.000314571
0.000308331
0.000301985
0.000295554
0.000289098
0.000282654
0.000276213
0.000269839
0.000263636
0.000257538
0.000251349
0.000244882
0.000238124
0.00023132
0.000224871
0.000219089
0.000214089
0.000209924
0.000206832
0.000204667
0.000205474
0.000306365
0.000301126
0.000295764
0.000290281
0.000284692
0.000279033
0.00027336
0.000267658
0.000261947
0.00025634
0.000250801
0.000245166
0.000239282
0.00023314
0.000226932
0.000220987
0.000215589
0.000210872
0.000206912
0.000203898
0.000201901
0.000201661
0.000288094
0.000283513
0.000278802
0.000273973
0.000269049
0.000264095
0.000259081
0.000254004
0.000248975
0.000243984
0.000238891
0.000233569
0.000228011
0.000222371
0.000216918
0.000211905
0.000207474
0.000203726
0.000200791
0.000198929
0.000198059
0.000275493
0.000271603
0.000267585
0.000263445
0.000259192
0.000254888
0.000250505
0.000246029
0.000241556
0.000237092
0.000232527
0.000227747
0.000222744
0.000217645
0.00021267
0.000208038
0.000203897
0.000200361
0.000197527
0.000195712
0.000194616
0.000260054
0.000256649
0.000253123
0.000249476
0.000245761
0.000241961
0.000238052
0.000234106
0.000230148
0.000226089
0.000221825
0.000217347
0.000212761
0.000208246
0.000203992
0.000200141
0.000196814
0.000194098
0.000192277
0.000191131
0.000248866
0.000246008
0.000243028
0.000239929
0.00023675
0.000233481
0.000230101
0.000226651
0.000223173
0.000219591
0.000215814
0.000211832
0.000207731
0.000203655
0.00019977
0.000196209
0.00019309
0.000190498
0.000188664
0.000187479
0.00023805
0.000235672
0.000233179
0.000230572
0.000227873
0.000225091
0.000222194
0.000219203
0.000216172
0.000213044
0.000209727
0.000206211
0.000202566
0.000198909
0.000195381
0.000192105
0.000189193
0.000186726
0.00018489
0.000183634
0.00022565
0.000223589
0.000221418
0.000219152
0.000216807
0.000214354
0.000211789
0.000209177
0.000206469
0.00020358
0.000200496
0.000197276
0.000194017
0.000190833
0.000187834
0.000185126
0.000182785
0.000180953
0.000179611
0.000215946
0.000214265
0.000212482
0.000210604
0.000208651
0.000206597
0.000204427
0.0002022
0.00019988
0.000197386
0.000194704
0.00019188
0.000188993
0.000186137
0.000183407
0.000180897
0.000178681
0.000176865
0.000175429
0.000206561
0.000205213
0.000203773
0.000202241
0.000200641
0.000198944
0.000197133
0.000195255
0.00019329
0.000191162
0.000188849
0.000186392
0.000183852
0.000181304
0.000178833
0.000176518
0.000174418
0.000172629
0.000171108
0.000196442
0.000195303
0.000194077
0.000192788
0.00019141
0.00018992
0.000188364
0.00018672
0.000184921
0.000182946
0.000180825
0.000178607
0.00017635
0.000174123
0.000171996
0.000170016
0.00016825
0.000166663
0.000187951
0.000187076
0.000186119
0.000185104
0.000184008
0.000182807
0.000181537
0.000180183
0.000178682
0.000177014
0.000175199
0.000173275
0.000171288
0.000169292
0.000167342
0.000165479
0.000163747
0.0001621
0.000179742
0.000179093
0.000178373
0.000177598
0.000176751
0.000175807
0.000174792
0.000173695
0.000172461
0.000171069
0.000169531
0.000167875
0.000166136
0.000164355
0.000162575
0.000160823
0.000159128
0.000157436
0.000171359
0.000170845
0.000170279
0.00016965
0.00016893
0.00016814
0.00016727
0.000166274
0.000165127
0.000163837
0.000162423
0.000160911
0.000159328
0.000157708
0.000156065
0.000154411
0.000152688
0.000163879
0.000163541
0.000163154
0.000162713
0.00016219
0.000161595
0.000160924
0.000160134
0.000159204
0.000158135
0.000156938
0.000155631
0.000154231
0.000152758
0.000151219
0.000149611
0.00014787
0.000156644
0.000156458
0.000156226
0.000155946
0.000155592
0.000155166
0.000154668
0.00015406
0.000153319
0.000152443
0.000151439
0.000150315
0.00014908
0.000147745
0.000146305
0.000144747
0.000149602
0.000149501
0.000149358
0.000149148
0.000148867
0.000148516
0.000148064
0.000147485
0.000146778
0.000145943
0.000144982
0.000143896
0.000142686
0.000141341
0.000139836
0.00014297
0.00014298
0.000142952
0.000142863
0.000142705
0.000142479
0.000142158
0.000141719
0.000141157
0.000140469
0.000139651
0.000138697
0.000137602
0.000136347
0.000134899
0.000136563
0.000136665
0.000136733
0.000136744
0.000136688
0.000136567
0.000136356
0.000136035
0.000135597
0.000135035
0.00013434
0.000133504
0.000132513
0.000131342
0.000129953
0.000130381
0.000130559
0.000130704
0.000130795
0.000130824
0.000130789
0.000130669
0.000130446
0.000130112
0.000129656
0.000129069
0.000128336
0.000127438
0.000126347
0.000125019
0.00012442
0.000124658
0.000124865
0.000125022
0.000125118
0.000125152
0.000125107
0.000124965
0.000124716
0.000124351
0.000123854
0.00012321
0.000122396
0.000121379
0.000120114
0.000118964
0.00011922
0.000119428
0.000119577
0.000119666
0.000119679
0.000119602
0.000119424
0.000119132
0.000118713
0.000118145
0.000117406
0.000116459
0.000115257
0.000113476
0.000113768
0.000114014
0.000114204
0.000114335
0.000114394
0.000114367
0.000114246
0.000114015
0.000113659
0.000113158
0.000112484
0.000111603
0.000110465
0.00010819
0.000108509
0.000108784
0.000109003
0.000109165
0.000109258
0.000109271
0.000109193
0.000109011
0.000108708
0.000108263
0.000107648
0.000106827
0.000105753
0.000103107
0.000103444
0.000103737
0.000103976
0.000104159
0.000104277
0.000104319
0.000104275
0.000104131
0.000103872
0.000103474
0.000102911
0.000102147
0.000101136
9.8223e-05
9.857e-05
9.88743e-05
9.91256e-05
9.93219e-05
9.94565e-05
9.9519e-05
9.94997e-05
9.93863e-05
9.91619e-05
9.88042e-05
9.82869e-05
9.75758e-05
9.66257e-05
9.38863e-05
9.41953e-05
9.44525e-05
9.46558e-05
9.47996e-05
9.48754e-05
9.4874e-05
9.47833e-05
9.45867e-05
9.42628e-05
9.37864e-05
9.31244e-05
9.22344e-05
8.93907e-05
8.96992e-05
8.99567e-05
9.01614e-05
9.03093e-05
9.03929e-05
9.04034e-05
9.03294e-05
9.01546e-05
8.98591e-05
8.9419e-05
8.88029e-05
8.50813e-05
8.53847e-05
8.56379e-05
8.58401e-05
8.59878e-05
8.60744e-05
8.60921e-05
8.60296e-05
8.5872e-05
8.56006e-05
8.51926e-05
8.46189e-05
8.0954e-05
8.12494e-05
8.14954e-05
8.16916e-05
8.18355e-05
8.19217e-05
8.19428e-05
8.1888e-05
8.17436e-05
8.14926e-05
8.11134e-05
8.05793e-05
7.70062e-05
7.72913e-05
7.75274e-05
7.77149e-05
7.78526e-05
7.79355e-05
7.79568e-05
7.79069e-05
7.77729e-05
7.75391e-05
7.71858e-05
7.66884e-05
7.35068e-05
7.37314e-05
7.39087e-05
7.4038e-05
7.41155e-05
7.41351e-05
7.40878e-05
7.39617e-05
7.37425e-05
7.34125e-05
7.29495e-05
6.98926e-05
7.01045e-05
7.02703e-05
7.03901e-05
7.0461e-05
7.04773e-05
7.04308e-05
7.03108e-05
7.01043e-05
6.97952e-05
6.93639e-05
6.64453e-05
6.66435e-05
6.67971e-05
6.69068e-05
6.69701e-05
6.6982e-05
6.6935e-05
6.68197e-05
6.66242e-05
6.63343e-05
6.59322e-05
6.31605e-05
6.33448e-05
6.34857e-05
6.35847e-05
6.36399e-05
6.36467e-05
6.35984e-05
6.34867e-05
6.3301e-05
6.30286e-05
6.26536e-05
6.00337e-05
6.02036e-05
6.03319e-05
6.04203e-05
6.04672e-05
6.04687e-05
6.04187e-05
6.03097e-05
6.01327e-05
5.98761e-05
5.9526e-05
5.70601e-05
5.72162e-05
5.73322e-05
5.741e-05
5.74483e-05
5.74442e-05
5.73922e-05
5.72855e-05
5.71161e-05
5.6874e-05
5.42352e-05
5.43779e-05
5.44817e-05
5.45492e-05
5.45795e-05
5.45698e-05
5.45154e-05
5.44105e-05
5.42479e-05
5.40191e-05
5.16843e-05
5.17765e-05
5.18341e-05
5.18567e-05
5.18414e-05
5.17845e-05
5.16809e-05
5.15244e-05
5.13076e-05
4.91312e-05
4.92123e-05
4.92604e-05
4.92753e-05
4.92548e-05
4.91954e-05
4.90928e-05
4.89417e-05
4.87356e-05
4.67114e-05
4.67822e-05
4.68215e-05
4.68295e-05
4.68042e-05
4.67426e-05
4.6641e-05
4.64948e-05
4.62985e-05
4.44146e-05
4.44761e-05
4.45075e-05
4.45092e-05
4.44798e-05
4.44166e-05
4.43165e-05
4.41754e-05
4.39886e-05
4.22267e-05
4.22795e-05
4.2304e-05
4.23007e-05
4.22684e-05
4.22047e-05
4.21069e-05
4.19716e-05
4.17948e-05
4.01368e-05
4.01814e-05
4.01996e-05
4.01919e-05
4.01572e-05
4.00936e-05
3.99988e-05
3.98698e-05
3.81455e-05
3.81823e-05
3.81941e-05
3.81817e-05
3.81441e-05
3.80799e-05
3.79873e-05
3.78638e-05
3.62601e-05
3.6289e-05
3.6294e-05
3.6276e-05
3.62344e-05
3.61681e-05
3.60758e-05
3.59556e-05
3.451e-05
3.45078e-05
3.44835e-05
3.44368e-05
3.4367e-05
3.42728e-05
3.41535e-05
3.28368e-05
3.28271e-05
3.27959e-05
3.27435e-05
3.26688e-05
3.2571e-05
3.24505e-05
3.12827e-05
3.12709e-05
3.12383e-05
3.11881e-05
3.1114e-05
3.10166e-05
3.09026e-05
2.99916e-05
2.99753e-05
2.99376e-05
2.98878e-05
2.98108e-05
2.97084e-05
2.96006e-05
2.88981e-05
2.88743e-05
2.8826e-05
2.87666e-05
2.86774e-05
2.85584e-05
2.78246e-05
2.78041e-05
2.77577e-05
2.76991e-05
2.76107e-05
2.74894e-05
2.6724e-05
2.66931e-05
2.6634e-05
2.65616e-05
2.64627e-05
2.63243e-05
2.56578e-05
2.56404e-05
2.55952e-05
2.55329e-05
2.54476e-05
2.53304e-05
2.44431e-05
2.43813e-05
2.42892e-05
2.41853e-05
2.40648e-05
2.38799e-05
2.36354e-05
2.36394e-05
2.36125e-05
2.35472e-05
2.34714e-05
2.34021e-05
2.18141e-05
2.1667e-05
2.15441e-05
2.13971e-05
2.10743e-05
2.24707e-05
2.2532e-05
2.24647e-05
2.24455e-05
2.26539e-05
1.99639e-05
1.99844e-05
2.01331e-05
2.00715e-05
1.96732e-05
2.45937e-05
2.49332e-05
2.49003e-05
2.5046e-05
2.57648e-05
2.6089e-05
2.64673e-05
2.69995e-05
3.11053e-05
3.19947e-05
3.14118e-05
3.05977e-05
)
;

boundaryField
{
    inlet
    {
        type            calculated;
        value           nonuniform List<scalar> 4(6.55252e-05 6.75886e-05 6.80113e-05 6.83924e-05);
    }
    outlet
    {
        type            calculated;
        value           nonuniform List<scalar> 0();
    }
    walls
    {
        type            calculated;
        value           uniform 0;
    }
    frontAndBack
    {
        type            empty;
    }
    procBoundary5to0
    {
        type            processor;
        value           nonuniform List<scalar> 4(0.00080956 0.000837905 0.000867265 0.000900727);
    }
    procBoundary5to1
    {
        type            processor;
        value           nonuniform List<scalar> 
13
(
0.0169986
0.00583152
0.00583152
0.00405527
0.00268392
0.00268392
0.00216709
0.00167229
0.00167229
0.00143476
0.00124697
0.00104972
0.00104972
)
;
    }
    procBoundary5to4
    {
        type            processor;
        value           nonuniform List<scalar> 
95
(
0.000780587
0.000749879
0.000719494
0.000719494
0.000641952
0.000617874
0.000617874
0.0005576
0.00053857
0.00053857
0.000491143
0.000491143
0.000450779
0.000450779
0.000427081
0.000395157
0.000395157
0.000367206
0.000367206
0.000349536
0.000326714
0.000326714
0.000311486
0.00029255
0.00029255
0.000279257
0.000263332
0.000263332
0.000251606
0.000240315
0.000227604
0.000227604
0.00021753
0.000207819
0.000197498
0.000197498
0.000188752
0.000180324
0.00017181
0.00017181
0.000164159
0.000156781
0.00014966
0.00014966
0.000142921
0.000136425
0.000130169
0.00012415
0.000118678
0.000118678
0.000113153
0.000107842
0.000102741
9.78467e-05
9.35353e-05
9.35353e-05
8.90405e-05
8.47362e-05
8.06174e-05
7.66805e-05
7.32344e-05
7.32344e-05
6.96344e-05
6.62017e-05
6.29319e-05
5.98202e-05
5.68617e-05
5.40513e-05
5.15546e-05
5.15546e-05
4.90138e-05
4.66059e-05
4.43201e-05
4.21424e-05
4.00623e-05
3.80802e-05
3.62038e-05
3.44892e-05
3.44892e-05
3.2824e-05
3.12727e-05
2.99849e-05
2.88961e-05
2.7819e-05
2.67264e-05
2.56481e-05
2.44784e-05
2.35953e-05
2.19325e-05
2.19325e-05
2.23817e-05
1.99017e-05
2.42901e-05
2.52737e-05
3.10813e-05
)
;
    }
    procBoundary5to6
    {
        type            processor;
        value           nonuniform List<scalar> 
86
(
0.299225
0.145251
0.137368
0.118675
0.0834101
0.0366826
0.00956179
0.00640572
0
0
0
4.54258e-05
0.000177831
0.000251281
0.000243491
0.000218229
0.000204442
0.000201925
0.000202858
0.000202412
0.000199812
0.000195975
0.000191746
0.000187478
0.000183213
0.00017888
0.000174441
0.000169891
0.00016523
0.000160483
0.00015567
0.000150796
0.000145884
0.000143002
0.000143002
0.000138101
0.000133184
0.000128269
0.000123378
0.000118524
0.000113725
0.000108997
0.000104355
9.98099e-05
9.53748e-05
9.10584e-05
8.79711e-05
8.79711e-05
8.38433e-05
7.98572e-05
7.60171e-05
7.2326e-05
6.87858e-05
6.5396e-05
6.21566e-05
5.90656e-05
5.6547e-05
5.6547e-05
5.37133e-05
5.1021e-05
4.84664e-05
4.60449e-05
4.375e-05
4.1571e-05
3.97032e-05
3.97032e-05
3.77065e-05
3.58051e-05
3.40071e-05
3.23056e-05
3.07648e-05
2.94715e-05
2.84401e-05
2.84401e-05
2.73655e-05
2.61854e-05
2.51943e-05
2.37167e-05
2.32395e-05
2.0926e-05
2.24366e-05
1.98281e-05
2.60625e-05
2.60625e-05
2.70609e-05
3.50964e-05
)
;
    }
}


// ************************************************************************* //
