/*--------------------------------*- C++ -*----------------------------------*\
| =========                 |                                                 |
| \\      /  F ield         | OpenFOAM: The Open Source CFD Toolbox           |
|  \\    /   O peration     | Version:  2506                                  |
|   \\  /    A nd           | Website:  www.openfoam.com                      |
|    \\/     M anipulation  |                                                 |
\*---------------------------------------------------------------------------*/
FoamFile
{
    version     2.0;
    format      ascii;
    arch        "LSB;label=32;scalar=64";
    class       volScalarField;
    location    "300";
    object      turbulenceProperties:L;
}
// * * * * * * * * * * * * * * * * * * * * * * * * * * * * * * * * * * * * * //

dimensions      [0 1 0 0 0 0 0];

internalField   nonuniform List<scalar> 
1340
(
0.00178896
0.00171321
0.00164685
0.00158325
0.0015454
0.00152522
0.00152696
0.00155519
0.00161197
0.00170015
0.00182531
0.0019935
0.0022111
0.0024926
0.00286039
0.00334555
0.00400966
0.00491214
0.00628219
0.0081716
0.011719
0.0166937
0.0291211
0.046725
0.0546999
0.0564745
0.0575946
0.0591796
0.0606043
0.0614587
0.0618555
0.0620489
0.0621906
0.0623472
0.0625875
0.00188256
0.00198076
0.00214013
0.00233235
0.00260265
0.00298902
0.00351403
0.00386709
0.00387775
0.00390017
0.00395781
0.00405235
0.0041699
0.00432259
0.00451604
0.00473531
0.00498424
0.00526228
0.00548402
0.0055247
0.00534476
0.00500099
0.00478927
0.00499085
0.00555542
0.00657283
0.00776981
0.0101278
0.0130514
0.0187166
0.0301254
0.0415147
0.054212
0.0690906
0.0853702
0.101195
0.115559
0.129253
0.143047
0.15579
0.16657
0.175312
0.00388496
0.00391196
0.00396855
0.00405721
0.00418844
0.0043823
0.00473328
0.00475233
0.00480711
0.0048945
0.00499121
0.00510438
0.00522699
0.00534526
0.00545385
0.0055431
0.00561563
0.00565941
0.00567266
0.00565214
0.00564494
0.00571463
0.00621175
0.00655109
0.0132022
0.00543001
0.00848543
0.0085243
0.0654046
0.0152618
0.0250281
0.0338285
0.0443079
0.0587298
0.0772766
0.0983428
0.119608
0.139449
0.158542
0.178026
0.197627
0.00471474
0.00471735
0.0047234
0.00476567
0.0048439
0.00498458
0.00514905
0.0051437
0.00515665
0.00517826
0.00522372
0.00529369
0.00538499
0.00550592
0.00565465
0.00583409
0.00604734
0.00629997
0.00660038
0.00695705
0.0073849
0.0079296
0.00862359
0.00933531
0.0106318
0.0152508
0.0687477
0.0330217
0
0.00630618
0.0152352
0.0279068
0.0503279
0.020551
0.0679644
0.0812154
0.10294
0.127568
0.152201
0.175437
0.198511
0.00517691
0.00522
0.00528985
0.00537781
0.00549455
0.00594523
0.00595049
0.00597387
0.00601625
0.00608364
0.00617874
0.00629986
0.00644935
0.00662731
0.00682747
0.00704678
0.00727834
0.00751097
0.00773375
0.00793519
0.00811754
0.00832272
0.008612
0.00892159
0.00943098
0.0105447
0.0140921
0.0708665
0.18522
0
0
0
0.00761989
0.0189176
0.0142795
0.0341792
0.127098
0.186968
0.184949
0.20263
0.00595294
0.00597408
0.00601692
0.00608743
0.00619124
0.00656658
0.00655262
0.00655395
0.00656569
0.00659818
0.00665187
0.00672589
0.00682536
0.00695138
0.00710446
0.00728801
0.00750341
0.00775186
0.00803581
0.00835769
0.00873587
0.00921253
0.00979508
0.0104434
0.0111533
0.0117959
0.0125603
0.0135317
0.0239908
0.10645
0.174046
0.318572
2.68372
0
0.00898841
0.01569
0.0347471
0.0173019
0.106304
0.312539
0.00659653
0.0066386
0.0067013
0.0067868
0.00730102
0.00728504
0.0072825
0.00729173
0.00732095
0.00737239
0.00744618
0.00754662
0.00767597
0.00783464
0.00802469
0.00824689
0.00850012
0.00878262
0.00909248
0.00942235
0.00975468
0.0100982
0.0104897
0.0109496
0.0114635
0.0120063
0.0123696
0.0131835
0.0156389
0.0205269
0.0381778
0.345441
0.226189
1.43205
0
0
0.0110395
0.0444573
0.041684
0.00733116
0.00737259
0.00743416
0.00752152
0.00801955
0.00799232
0.00797628
0.00796984
0.00798077
0.00801087
0.00805956
0.00813157
0.0082288
0.00835172
0.00850386
0.00868651
0.00890103
0.00914961
0.0094342
0.00975586
0.0101273
0.0105727
0.0110898
0.0116545
0.0122357
0.012784
0.0132395
0.0135726
0.0141428
0.0152759
0.0173149
0.0209696
0.0277976
0.165375
0.235527
2.78083
0
0
0.025376
0.00806098
0.00811177
0.00818142
0.00827667
0.00878055
0.00874615
0.00872135
0.00870596
0.00870651
0.00872525
0.00876207
0.00882186
0.00890658
0.00901754
0.00915803
0.00932987
0.00953468
0.00977467
0.0100508
0.0103653
0.0107182
0.0111012
0.0115175
0.0119723
0.0124626
0.0129675
0.0134748
0.0139741
0.0145301
0.0152891
0.0162726
0.0175667
0.0190922
0.0224163
0.0281754
0.286709
0.361891
0
0
0.00882834
0.00888464
0.00895904
0.0094436
0.00944687
0.00946662
0.00950761
0.00957137
0.00965932
0.00977496
0.00992003
0.0100964
0.0103067
0.010553
0.0108379
0.0111625
0.0115356
0.0119654
0.0124438
0.0129503
0.0134597
0.0139615
0.0144932
0.0151329
0.015958
0.0169488
0.0180053
0.0190072
0.0199868
0.0211144
0.0246336
0.040692
0.23081
0
0.0102137
0.0102395
0.0102873
0.0103584
0.0104565
0.0105835
0.0107418
0.0109342
0.0111627
0.0114299
0.0117382
0.012088
0.0124786
0.0129089
0.0133702
0.0138513
0.0143453
0.0148816
0.0155371
0.0163891
0.0174425
0.0185884
0.0196945
0.0206482
0.0214819
0.0220927
0.0235619
0.0310055
0.205371
0.0110281
0.0110805
0.0111586
0.0112643
0.0114001
0.0115687
0.0117727
0.0120146
0.0122968
0.0126202
0.01299
0.0134064
0.0138577
0.014331
0.0148219
0.0153544
0.0159952
0.0168179
0.0178401
0.0189861
0.0201471
0.0212511
0.0223046
0.0230986
0.0235741
0.0241057
0.0295566
0.0118422
0.0119021
0.0119886
0.0121043
0.0122525
0.0124354
0.0126556
0.0129161
0.0132171
0.0135606
0.0139473
0.0143709
0.0148232
0.0153036
0.0158324
0.0164627
0.0172571
0.0182345
0.019338
0.0204757
0.0216008
0.0227253
0.0238087
0.0246777
0.0250871
0.0246816
0.0126803
0.0127475
0.0128428
0.0129693
0.0131294
0.0133262
0.0135625
0.0138385
0.0141569
0.0145201
0.0149243
0.0153607
0.0158304
0.0163514
0.016968
0.0177339
0.0186681
0.0197255
0.0208254
0.0219245
0.0230275
0.0241403
0.025208
0.0261027
0.0263758
0.0134983
0.0135464
0.0136219
0.0137276
0.0138664
0.0140409
0.0142537
0.0145064
0.0147998
0.0151367
0.0155174
0.015934
0.0163888
0.0168985
0.0174996
0.0182377
0.0191317
0.0201464
0.0212123
0.0222853
0.0233625
0.0244397
0.0255142
0.0264253
0.0278209
0.0143857
0.0144415
0.0145268
0.0146437
0.0147954
0.0149845
0.0152133
0.0154815
0.0157932
0.016151
0.0165483
0.0169872
0.0174825
0.0180657
0.0187755
0.0196299
0.0206022
0.021634
0.0226824
0.02374
0.0247922
0.0258432
0.0267188
0.0279735
0.0153045
0.0153691
0.0154646
0.0155939
0.0157598
0.0159648
0.0162085
0.0164949
0.0168283
0.0172046
0.0176254
0.0181036
0.0186664
0.0193472
0.0201627
0.0210931
0.0220898
0.0231128
0.0241509
0.0251887
0.0262141
0.0271421
0.0279406
0.0162119
0.0162564
0.0163307
0.0164379
0.0165804
0.0167616
0.0169809
0.0172422
0.0175507
0.0179055
0.0183066
0.0187653
0.0193056
0.0199566
0.0207337
0.0216224
0.0225828
0.0235784
0.0245948
0.0256195
0.0266228
0.0275996
0.0282304
0.0171916
0.0172447
0.0173298
0.0174493
0.0176062
0.0178015
0.0180378
0.0183209
0.0186533
0.0190331
0.0194701
0.0199861
0.0206066
0.0213458
0.0221934
0.0231166
0.024083
0.0250759
0.0260841
0.0270736
0.0280522
0.0287581
0.0181757
0.0182079
0.0182708
0.0183674
0.0185004
0.0186722
0.0188835
0.019141
0.0194495
0.0198068
0.0202207
0.0207109
0.0213002
0.0220017
0.0228084
0.0236941
0.0246298
0.0255983
0.0265869
0.0275679
0.0285233
0.0293561
0.0192237
0.0192647
0.0193386
0.0194479
0.0195956
0.0197814
0.0200129
0.0202967
0.0206303
0.0210196
0.0214826
0.0220401
0.0227042
0.0234705
0.0243181
0.0252218
0.0261648
0.0271323
0.0281051
0.0290406
0.0299517
0.0202943
0.0203135
0.0203645
0.0204499
0.0205733
0.0207342
0.02094
0.0211981
0.0215067
0.0218705
0.022305
0.0228299
0.0234566
0.0241828
0.0249919
0.0258628
0.0267788
0.0277248
0.028686
0.0296133
0.0305501
0.0214197
0.021448
0.0215098
0.0216088
0.021745
0.0219248
0.0221562
0.022439
0.0227761
0.0231812
0.023673
0.0242625
0.0249488
0.0257193
0.0265563
0.0274443
0.0283684
0.0293159
0.030242
0.0311806
0.0225869
0.0225922
0.0226304
0.0227048
0.0228161
0.0229697
0.0231736
0.0234298
0.0237393
0.0241145
0.024573
0.0251255
0.0257721
0.026504
0.0273062
0.0281653
0.0290667
0.0299993
0.0309262
0.0318655
0.0238178
0.0238002
0.0238146
0.0238642
0.0239508
0.0240778
0.0242541
0.0244835
0.0247649
0.0251093
0.0255338
0.0260491
0.0266565
0.0273496
0.0281168
0.028946
0.0298241
0.0307415
0.0316679
0.0326139
0.0250755
0.0250659
0.0250907
0.0251523
0.0252529
0.0254008
0.0256026
0.0258551
0.0261684
0.0265592
0.0270378
0.0276064
0.0282608
0.0289924
0.0297912
0.0306456
0.0315471
0.0324732
0.0334297
0.0264217
0.0263879
0.0263879
0.0264241
0.026498
0.0266178
0.0267909
0.0270143
0.0272965
0.0276534
0.0280956
0.0286258
0.0292418
0.0299377
0.0307056
0.0315361
0.0324216
0.0333458
0.0343163
0.0278427
0.0277849
0.0277596
0.0277701
0.027817
0.0279087
0.0280529
0.0282472
0.028498
0.028821
0.0292269
0.0297191
0.0302972
0.0309576
0.0316943
0.0325001
0.0333707
0.0342922
0.0352774
0.0292604
0.0292096
0.0291942
0.0292143
0.0292777
0.029393
0.0295574
0.0297771
0.0300668
0.0304371
0.0308918
0.0314324
0.0320573
0.032763
0.0335441
0.0343987
0.0353191
0.0363181
0.0308189
0.0307426
0.030701
0.0306941
0.0307294
0.0308154
0.0309502
0.0311389
0.0313955
0.0317305
0.0321487
0.0326525
0.0332424
0.0339171
0.0346739
0.0355129
0.0364312
0.0374454
0.0324654
0.0323635
0.0322955
0.0322615
0.0322685
0.032325
0.0324301
0.0325884
0.0328125
0.0331128
0.0334953
0.0339631
0.0345187
0.0351628
0.0358953
0.0367192
0.0376357
0.0386652
0.0340771
0.0339822
0.0339212
0.0338998
0.0339272
0.0340031
0.0341312
0.0343233
0.03459
0.0349375
0.0353703
0.0358923
0.0365066
0.0372154
0.0380241
0.0389393
0.039984
0.0358883
0.0357666
0.0356787
0.0356291
0.0356273
0.0356744
0.035773
0.0359341
0.036168
0.0364816
0.0368804
0.0373699
0.037955
0.0386406
0.0394351
0.0403488
0.0414091
0.0378039
0.0376551
0.03754
0.0374623
0.0374316
0.0374504
0.0375199
0.0376505
0.0378528
0.0381338
0.0385
0.0389581
0.0395153
0.0401785
0.0409592
0.041872
0.0396531
0.0395109
0.0394053
0.0393462
0.0393369
0.0393782
0.0394796
0.0396515
0.0399013
0.0402362
0.0406643
0.0411946
0.0418367
0.0426043
0.0435164
0.0417675
0.0415981
0.0414649
0.0413775
0.0413409
0.041355
0.0414283
0.041571
0.0417909
0.0420961
0.0424958
0.0430007
0.0436227
0.0443782
0.04529
0.044005
0.0438085
0.0436478
0.0435332
0.0434697
0.0434571
0.0435037
0.0436186
0.0438103
0.0440875
0.0444607
0.0449418
0.0455449
0.0462894
0.0472013
0.0463728
0.0461486
0.0459612
0.04582
0.0457305
0.0456927
0.0457136
0.0458024
0.0459675
0.0462186
0.0465669
0.0470259
0.0476119
0.0483463
0.0492588
0.0488786
0.0486272
0.0484135
0.0482463
0.0481315
0.0480693
0.0480659
0.0481302
0.0482706
0.0484976
0.048823
0.0492618
0.0498322
0.050558
0.0514714
0.0512521
0.0510121
0.0508195
0.0506804
0.0505952
0.0505693
0.0506108
0.0507284
0.0509332
0.0512379
0.0516586
0.052215
0.0529333
0.0538484
0.0540312
0.0537656
0.0535487
0.0533868
0.0532798
0.0532325
0.0532529
0.0533497
0.0535344
0.0538205
0.0542252
0.0547697
0.0554819
0.056399
0.056974
0.0566833
0.0564426
0.0562588
0.0561312
0.0560642
0.0560656
0.056144
0.0563107
0.0565804
0.0569713
0.0575058
0.0582133
0.059133
0.060089
0.0597737
0.0595105
0.0593059
0.0591596
0.0590747
0.0590586
0.0591205
0.0592717
0.0595273
0.0599067
0.060433
0.0611371
0.0620603
0.0633861
0.0630469
0.0627619
0.0625377
0.062374
0.0622729
0.0622415
0.062289
0.062427
0.062671
0.0630409
0.0635612
0.0642636
0.0651907
0.0665126
0.0662068
0.0659643
0.0657845
0.0656693
0.0656248
0.06566
0.0657869
0.0660216
0.0663846
0.0669007
0.0676028
0.0685345
0.0701807
0.0698551
0.0695958
0.0694019
0.069274
0.0692182
0.0692433
0.0693616
0.0695896
0.0699478
0.0704617
0.071165
0.074061
0.0737171
0.0734426
0.0732359
0.0730972
0.0730322
0.0730496
0.0731617
0.0733853
0.0737409
0.0742548
0.0749609
0.0781651
0.0778036
0.0775151
0.0772973
0.0771499
0.0770776
0.0770892
0.0771976
0.0774192
0.0777745
0.0782903
0.0790008
0.0825031
0.0821249
0.0818238
0.081597
0.0814425
0.0813651
0.0813735
0.0814802
0.081702
0.0820595
0.0825791
0.0832955
0.0866922
0.0863799
0.0861453
0.0859859
0.0859056
0.0859129
0.0860203
0.0862446
0.0866064
0.087132
0.0878556
0.0915164
0.0911943
0.0909537
0.0907912
0.0907098
0.090718
0.0908285
0.0910576
0.091426
0.0919597
0.0926923
0.096608
0.0962777
0.0960328
0.0958689
0.0957884
0.0958
0.0959159
0.0961521
0.0965292
0.0970728
0.0978163
0.101978
0.101641
0.101394
0.10123
0.101153
0.10117
0.101293
0.101539
0.101927
0.102483
0.103238
0.107637
0.107295
0.107047
0.106886
0.106814
0.106838
0.106972
0.107229
0.10763
0.1082
0.10897
0.113597
0.113251
0.113003
0.112847
0.112782
0.112817
0.112962
0.113233
0.11365
0.114236
0.119866
0.119517
0.119273
0.119122
0.119067
0.119114
0.119274
0.119562
0.119997
0.120602
0.126103
0.125863
0.125721
0.125678
0.12574
0.125917
0.126225
0.126681
0.127307
0.133016
0.132782
0.132652
0.132622
0.132701
0.132899
0.133229
0.133709
0.13436
0.140268
0.140043
0.139924
0.139911
0.14001
0.14023
0.140586
0.141092
0.14177
0.147886
0.147669
0.147565
0.147569
0.147689
0.147933
0.148315
0.148849
0.149556
0.155914
0.155708
0.155618
0.155641
0.155781
0.156048
0.156455
0.157016
0.157751
0.1644
0.164207
0.164133
0.164175
0.164337
0.164628
0.165061
0.165648
0.173351
0.173174
0.173121
0.173187
0.173377
0.173699
0.174162
0.17478
0.182734
0.18258
0.182555
0.182655
0.182883
0.183246
0.183752
0.184414
0.192363
0.192376
0.19252
0.192799
0.193216
0.193782
0.194504
0.202537
0.202597
0.202798
0.203139
0.203628
0.204272
0.205072
0.212973
0.213053
0.213282
0.21364
0.214171
0.214874
0.215705
0.222454
0.222574
0.222861
0.223247
0.223845
0.224645
0.2255
0.231137
0.231325
0.231718
0.23221
0.232952
0.233951
0.240334
0.240508
0.240914
0.241436
0.242227
0.243323
0.250527
0.250813
0.251372
0.252068
0.253027
0.254383
0.261246
0.261417
0.26188
0.262528
0.263422
0.264664
0.274554
0.275242
0.276286
0.277482
0.278884
0.281065
0.284264
0.284204
0.284523
0.285317
0.286248
0.287114
0.308364
0.310454
0.31223
0.314382
0.319216
0.299628
0.298803
0.299695
0.299956
0.297204
0.337764
0.337408
0.334913
0.335935
0.342748
0.274232
0.270481
0.27083
0.269255
0.262445
0.259165
0.255445
0.250387
0.216878
0.210815
0.214696
0.220346
)
;

boundaryField
{
    inlet
    {
        type            calculated;
        value           nonuniform List<scalar> 4(0.103196 0.100041 0.0994056 0.0988299);
    }
    outlet
    {
        type            calculated;
        value           nonuniform List<scalar> 0();
    }
    walls
    {
        type            calculated;
        value           uniform 0;
    }
    frontAndBack
    {
        type            empty;
    }
    procBoundary5to0
    {
        type            processor;
        value           nonuniform List<scalar> 4(0.00956312 0.0096197 0.00968318 0.00976412);
    }
    procBoundary5to1
    {
        type            processor;
        value           nonuniform List<scalar> 
13
(
0.0040334
0.00464773
0.00464773
0.0052006
0.00565951
0.00565951
0.0063478
0.0069015
0.0069015
0.0076396
0.00840092
0.0090608
0.0090608
)
;
    }
    procBoundary5to4
    {
        type            processor;
        value           nonuniform List<scalar> 
95
(
0.0095196
0.00948376
0.0094563
0.0094563
0.0102178
0.0102078
0.0102078
0.010988
0.0109977
0.0109977
0.011807
0.011807
0.0126388
0.0126388
0.0134747
0.0143561
0.0143561
0.0152683
0.0152683
0.0161949
0.0171671
0.0171671
0.0181716
0.0192124
0.0192124
0.0203041
0.0214224
0.0214224
0.0226114
0.0238645
0.0251162
0.0251162
0.0264854
0.0279302
0.0293426
0.0293426
0.0309261
0.0325975
0.0342052
0.0342052
0.0360428
0.0379847
0.0398292
0.0398292
0.041971
0.044236
0.0466314
0.0491649
0.0515305
0.0515305
0.0543365
0.0573058
0.060447
0.0637699
0.0668748
0.0668748
0.0705655
0.0744677
0.0785926
0.0829508
0.0870854
0.0870854
0.0919233
0.0970279
0.10241
0.10808
0.114048
0.120326
0.126452
0.126452
0.133364
0.140614
0.148227
0.156251
0.164729
0.173671
0.183039
0.192488
0.192488
0.202625
0.213048
0.222512
0.231163
0.240394
0.250517
0.26136
0.274175
0.284768
0.306709
0.306709
0.300841
0.338832
0.277687
0.267564
0.217089
)
;
    }
    procBoundary5to6
    {
        type            processor;
        value           nonuniform List<scalar> 
86
(
0.062953
0.182084
0.216534
0.222867
0.224499
0.250179
0.222197
0.0852572
0
0
0
0.24075
0.0345378
0.0246345
0.0253347
0.0278603
0.0296915
0.0300984
0.0300177
0.0301467
0.0305881
0.031226
0.0319525
0.0327212
0.0335283
0.0343894
0.0353167
0.0363181
0.0374018
0.0385713
0.0398317
0.041192
0.042657
0.0429477
0.0429477
0.0446071
0.046396
0.0483224
0.0503942
0.052621
0.0550117
0.0575754
0.0603218
0.0632609
0.0664024
0.0697571
0.072102
0.072102
0.0759038
0.0799504
0.0842528
0.0888215
0.0936675
0.0988026
0.104237
0.109982
0.115023
0.115023
0.121407
0.128133
0.13521
0.142648
0.150462
0.158685
0.166409
0.166409
0.175571
0.185247
0.195395
0.206042
0.216718
0.226532
0.234961
0.234961
0.24446
0.255767
0.266128
0.283032
0.289153
0.321507
0.300107
0.340087
0.258745
0.258745
0.249817
0.192052
)
;
    }
}


// ************************************************************************* //
