/*--------------------------------*- C++ -*----------------------------------*\
| =========                 |                                                 |
| \\      /  F ield         | OpenFOAM: The Open Source CFD Toolbox           |
|  \\    /   O peration     | Version:  2506                                  |
|   \\  /    A nd           | Website:  www.openfoam.com                      |
|    \\/     M anipulation  |                                                 |
\*---------------------------------------------------------------------------*/
FoamFile
{
    version     2.0;
    format      ascii;
    arch        "LSB;label=32;scalar=64";
    class       volScalarField;
    location    "300";
    object      turbulenceProperties:k;
}
// * * * * * * * * * * * * * * * * * * * * * * * * * * * * * * * * * * * * * //

dimensions      [0 2 -2 0 0 0 0];

internalField   nonuniform List<scalar> 
1340
(
0.0199857
0.0232619
0.0274277
0.0330614
0.0396861
0.0480688
0.058727
0.0718724
0.0885312
0.109788
0.137296
0.173689
0.222603
0.289988
0.385983
0.526509
0.742983
1.07655
1.66239
2.57384
4.62993
7.73463
18.1218
35.3458
39.1475
37.4484
36.8023
37.4808
38.3192
38.5338
38.0259
36.8928
35.0603
32.552
29.3125
0.0170453
0.0146543
0.0119601
0.00964285
0.00744718
0.00546193
0.00385419
0.00310789
0.0030907
0.00305535
0.00296721
0.00283078
0.00267392
0.00248876
0.00228051
0.00207437
0.00187221
0.00167944
0.00154545
0.00152635
0.00167454
0.00216548
0.00337241
0.006331
0.0130832
0.0314282
0.0768666
0.227695
0.628139
1.93075
6.19209
12.1143
18.2133
23.944
28.0047
28.8098
26.4303
22.524
18.5709
15.3641
12.9061
11.0178
0.00307962
0.0030378
0.00295241
0.00282584
0.00265281
0.00242468
0.00208413
0.00206769
0.00202108
0.00194981
0.00187529
0.00179339
0.00171061
0.00163616
0.00157214
0.00152248
0.00148407
0.00146203
0.00145615
0.00146852
0.00147234
0.0014322
0.00120483
0.0010879
0.00036009
0.00642116
0.0125598
0.000640241
0.00679048
0.0159607
0.179642
0.642878
1.64484
3.71506
7.33723
12.1178
16.4398
18.5624
18.1459
16.2928
14.1353
0.00210037
0.00209779
0.00209222
0.00205498
0.00198891
0.00187799
0.00175916
0.00176279
0.00175394
0.00173934
0.0017092
0.00166435
0.00160843
0.00153862
0.00145884
0.00137059
0.00127577
0.00117567
0.00107129
0.000964506
0.000856274
0.000742982
0.000627619
0.000534851
0.000412085
0.000226723
2.94797e-05
8.45734e-05
0
0.0040001
0.0211658
0.0426434
0.0596506
0.00145516
0.0343211
0.35901
1.59302
4.33971
8.13204
11.2817
12.6375
0.00174028
0.00171169
0.00166681
0.00161276
0.00154499
0.00131973
0.0013174
0.00130711
0.00128877
0.00126039
0.00122191
0.00117539
0.00112156
0.00106216
0.00100084
0.000939555
0.00088078
0.000827137
0.000780258
0.00074126
0.000708458
0.000674168
0.000629628
0.000587626
0.000525324
0.000417991
0.000250158
2.66064e-05
7.69349e-06
0
0
0
0.000842821
0.0222432
0.00980503
0.0287461
0.0530208
0.334605
1.95123
5.00594
0.00131632
0.00130701
0.00128847
0.00125878
0.00121693
0.00108175
0.00108637
0.00108593
0.00108205
0.00107142
0.0010542
0.00103113
0.0010013
0.000965326
0.000924186
0.000878232
0.000828548
0.00077631
0.000722443
0.0006679
0.000611365
0.000549789
0.000486371
0.000428034
0.000375468
0.000336375
0.000296191
0.000253874
9.83996e-05
1.27992e-05
6.63132e-06
2.95829e-06
1.74956e-07
0
0.00127792
0.00686824
0.0369789
0.00714988
0.0906528
0.198112
0.00107195
0.0010584
0.0010387
0.00101269
0.000875067
0.000878911
0.000879524
0.000877299
0.00087031
0.00085821
0.000841286
0.000819042
0.000791673
0.000759935
0.00072437
0.000685868
0.000645618
0.000604764
0.00056426
0.00052546
0.000490289
0.000457519
0.000424029
0.000389188
0.000355217
0.000324081
0.000306729
0.00026921
0.000190469
0.000116347
4.4258e-05
2.16754e-06
3.73264e-06
3.19652e-07
0
0
0.000947581
0.0286294
0.0217062
0.000867883
0.000858152
0.000843997
0.000824505
0.000725282
0.000730234
0.000733174
0.000734359
0.000732348
0.000726855
0.000718099
0.000705436
0.000688864
0.000668736
0.000645022
0.000618182
0.000588745
0.000557192
0.000524085
0.0004901
0.000454811
0.000417305
0.000379305
0.000343446
0.00031159
0.000285438
0.000266285
0.000254135
0.000234745
0.000200917
0.000155317
0.000106195
6.3907e-05
5.04049e-06
3.05012e-06
1.11782e-07
0
0
0.00313464
0.000717844
0.000708878
0.00069686
0.00068091
0.000605012
0.00060978
0.000613254
0.000615423
0.000615344
0.000612704
0.000607564
0.000599355
0.000588008
0.000573625
0.000556161
0.000535863
0.000513089
0.000488205
0.000461752
0.000434153
0.000406041
0.000378509
0.000351647
0.000325443
0.000300342
0.000277405
0.000256872
0.000238911
0.000221281
0.000200323
0.00017744
0.00015242
0.000128787
9.24931e-05
6.01348e-05
2.24537e-06
1.60476e-06
0
0
0.000598477
0.000590912
0.000581136
0.000523035
0.000522672
0.000520492
0.000516013
0.000509161
0.000499929
0.000488171
0.000473997
0.000457578
0.000439095
0.000418841
0.000397109
0.00037435
0.000350525
0.000325798
0.000301231
0.000278131
0.00025748
0.000239299
0.000222038
0.00020367
0.000183226
0.000162606
0.00014435
0.000129895
0.00011786
0.000105807
7.65893e-05
3.21509e-05
2.85803e-06
0
0.000447133
0.000444883
0.000440757
0.000434727
0.000426607
0.000416428
0.000404249
0.000390149
0.000374335
0.000357042
0.000338532
0.000319223
0.000299554
0.000279914
0.000260933
0.000243123
0.000226669
0.000210623
0.000193212
0.000173639
0.000153306
0.000135024
0.000120354
0.000109674
0.000101643
9.67983e-05
8.47058e-05
4.92992e-05
3.2801e-06
0.000383527
0.000379908
0.000374608
0.00036761
0.000358908
0.000348521
0.000336549
0.000323131
0.00030847
0.000292865
0.000276429
0.000259525
0.000242898
0.000227118
0.000212325
0.000197855
0.000182317
0.000164913
0.000146551
0.000129388
0.000114901
0.000103288
9.37948e-05
8.76574e-05
8.46667e-05
8.14482e-05
5.34026e-05
0.00033261
0.000329271
0.000324536
0.000318359
0.000310706
0.000301635
0.000291227
0.0002796
0.000267012
0.000253656
0.000239785
0.000225856
0.000212285
0.000199167
0.000186085
0.00017211
0.000156631
0.000140289
0.000124734
0.000111254
9.99594e-05
9.03002e-05
8.22705e-05
7.66614e-05
7.44852e-05
7.83916e-05
0.000290096
0.000287042
0.000282798
0.000277312
0.000270586
0.000262655
0.000253583
0.000243567
0.000232736
0.00022124
0.000209418
0.000197688
0.000186132
0.00017446
0.000162011
0.000148321
0.000133848
0.000119885
0.000107557
9.70423e-05
8.79639e-05
8.00269e-05
7.33818e-05
6.84492e-05
6.73129e-05
0.000256001
0.000254184
0.000251376
0.00024752
0.000242588
0.000236597
0.000229584
0.000221655
0.000212954
0.00020358
0.000193715
0.000183719
0.000173663
0.000163345
0.000152316
0.000140239
0.000127439
0.000114926
0.000103668
9.39273e-05
8.54662e-05
7.80966e-05
7.16442e-05
6.67989e-05
6.01245e-05
0.000225391
0.000223652
0.000221034
0.000217519
0.000213082
0.000207737
0.000201535
0.000194614
0.000187007
0.000178814
0.000170331
0.000161643
0.000152614
0.00014292
0.000132319
0.000121052
0.000109897
9.9665e-05
9.06653e-05
8.27685e-05
7.58956e-05
6.98408e-05
6.53633e-05
5.95168e-05
0.000199141
0.000197471
0.00019504
0.000191819
0.000187802
0.000183009
0.000177547
0.000171434
0.00016471
0.000157583
0.000150149
0.000142322
0.00013387
0.000124615
0.000114738
0.00010484
9.55935e-05
8.73197e-05
7.99747e-05
7.35225e-05
6.78829e-05
6.33246e-05
5.97811e-05
0.000177472
0.000176502
0.000174899
0.000172626
0.000169671
0.000166024
0.000161762
0.000156896
0.00015143
0.000145488
0.000139182
0.000132462
0.000125152
0.00011712
0.000108506
9.97698e-05
9.14649e-05
8.39047e-05
7.71138e-05
7.10689e-05
6.58167e-05
6.12276e-05
5.86066e-05
0.000157821
0.00015685
0.000155315
0.000153195
0.000150476
0.000147193
0.000143362
0.000138965
0.000134057
0.000128761
0.000123046
0.000116774
0.000109848
0.000102371
9.47022e-05
8.72891e-05
8.04251e-05
7.41826e-05
6.85588e-05
6.3643e-05
5.92671e-05
5.64501e-05
0.000141194
0.000140695
0.000139727
0.000138262
0.000136281
0.000133786
0.000130808
0.000127313
0.000123305
0.000118897
0.00011408
0.000108744
0.00010281
9.63587e-05
8.96635e-05
8.30863e-05
7.68935e-05
7.11858e-05
6.59903e-05
6.13797e-05
5.73309e-05
5.4142e-05
0.000126219
0.000125682
0.000124724
0.000123325
0.000121474
0.000119202
0.00011646
0.000113227
0.000109595
0.000105573
0.000101071
9.60231e-05
9.04884e-05
8.46763e-05
7.88769e-05
7.33256e-05
6.81364e-05
6.33637e-05
5.90545e-05
5.53107e-05
5.19951e-05
0.000113254
0.000113039
0.000112474
0.000111536
0.000110203
0.000108499
0.000106377
0.000103802
0.000100845
9.75181e-05
9.37557e-05
8.94946e-05
8.47762e-05
7.97616e-05
7.46806e-05
6.9736e-05
6.50471e-05
6.06845e-05
5.66859e-05
5.31933e-05
4.99753e-05
0.000101665
0.000101398
0.000100816
9.9894e-05
9.86464e-05
9.70354e-05
9.50192e-05
9.26392e-05
8.99176e-05
8.68022e-05
8.32334e-05
7.92377e-05
7.49386e-05
7.0516e-05
6.61415e-05
6.19306e-05
5.7962e-05
5.4276e-05
5.10041e-05
4.79762e-05
9.14298e-05
9.13868e-05
9.10788e-05
9.04828e-05
8.96022e-05
8.84075e-05
8.68592e-05
8.49696e-05
8.2769e-05
8.02131e-05
7.72481e-05
7.38884e-05
7.02272e-05
6.64023e-05
6.25583e-05
5.88006e-05
5.52105e-05
5.18311e-05
4.87718e-05
4.59379e-05
8.22238e-05
8.23456e-05
8.22459e-05
8.19044e-05
8.13135e-05
8.04576e-05
7.92924e-05
7.78137e-05
7.60554e-05
7.39835e-05
7.15438e-05
6.87413e-05
6.56446e-05
6.23597e-05
5.90031e-05
5.56714e-05
5.24416e-05
4.93586e-05
4.65135e-05
4.38546e-05
7.41827e-05
7.42394e-05
7.40927e-05
7.37301e-05
7.31444e-05
7.22947e-05
7.11599e-05
6.9777e-05
6.81159e-05
6.61264e-05
6.38058e-05
6.12047e-05
5.84034e-05
5.5493e-05
5.25572e-05
4.96677e-05
4.68699e-05
4.42349e-05
4.17405e-05
6.68161e-05
6.6987e-05
6.69874e-05
6.68039e-05
6.64319e-05
6.58354e-05
6.49871e-05
6.39168e-05
6.26024e-05
6.09969e-05
5.90921e-05
5.69235e-05
5.45505e-05
5.20442e-05
4.94736e-05
4.69025e-05
4.43756e-05
4.195e-05
3.96112e-05
6.01697e-05
6.04204e-05
6.05308e-05
6.0485e-05
6.02814e-05
5.98859e-05
5.92717e-05
5.84593e-05
5.74347e-05
5.6155e-05
5.46059e-05
5.28122e-05
5.08161e-05
4.86714e-05
4.64352e-05
4.41612e-05
4.18872e-05
3.96665e-05
3.74821e-05
5.44807e-05
5.46702e-05
5.47281e-05
5.46529e-05
5.44164e-05
5.39903e-05
5.33916e-05
5.26064e-05
5.15977e-05
5.03501e-05
4.88786e-05
4.72121e-05
4.53893e-05
4.34553e-05
4.14552e-05
3.9421e-05
3.73934e-05
3.53647e-05
4.91098e-05
4.9354e-05
4.94877e-05
4.951e-05
4.93966e-05
4.91212e-05
4.86944e-05
4.81059e-05
4.73229e-05
4.6329e-05
4.51315e-05
4.37497e-05
4.22108e-05
4.05483e-05
3.87976e-05
3.69862e-05
3.51453e-05
3.32675e-05
4.4255e-05
4.45341e-05
4.47219e-05
4.48161e-05
4.47969e-05
4.46404e-05
4.43514e-05
4.39217e-05
4.3324e-05
4.25417e-05
4.15758e-05
4.04382e-05
3.91472e-05
3.77261e-05
3.62023e-05
3.4596e-05
3.29317e-05
3.12015e-05
4.01677e-05
4.03926e-05
4.05381e-05
4.05892e-05
4.05237e-05
4.03431e-05
4.00407e-05
3.95938e-05
3.89857e-05
3.82142e-05
3.72848e-05
3.62081e-05
3.49999e-05
3.36796e-05
3.22622e-05
3.07636e-05
2.91772e-05
3.62158e-05
3.64627e-05
3.66428e-05
3.67447e-05
3.67485e-05
3.66517e-05
3.64499e-05
3.61238e-05
3.56581e-05
3.50479e-05
3.42939e-05
3.34014e-05
3.23796e-05
3.12409e-05
2.99949e-05
2.86518e-05
2.72034e-05
3.26385e-05
3.2897e-05
3.30991e-05
3.32366e-05
3.32912e-05
3.32579e-05
3.31347e-05
3.29053e-05
3.25546e-05
3.20766e-05
3.14693e-05
3.07336e-05
2.98732e-05
2.88951e-05
2.78041e-05
2.66053e-05
2.96655e-05
2.98794e-05
3.00397e-05
3.01302e-05
3.01444e-05
3.00812e-05
2.99269e-05
2.96681e-05
2.92978e-05
2.88121e-05
2.82087e-05
2.74872e-05
2.66501e-05
2.56985e-05
2.46325e-05
2.6738e-05
2.69563e-05
2.71298e-05
2.72444e-05
2.72927e-05
2.72743e-05
2.71778e-05
2.69916e-05
2.67084e-05
2.63225e-05
2.58296e-05
2.52267e-05
2.45125e-05
2.3685e-05
2.2741e-05
2.40881e-05
2.43047e-05
2.4484e-05
2.46131e-05
2.46852e-05
2.46994e-05
2.46466e-05
2.45169e-05
2.43029e-05
2.39983e-05
2.35971e-05
2.30947e-05
2.24871e-05
2.17697e-05
2.09367e-05
2.1691e-05
2.19023e-05
2.20813e-05
2.22176e-05
2.23047e-05
2.23417e-05
2.23213e-05
2.22349e-05
2.20754e-05
2.18362e-05
2.15108e-05
2.1093e-05
2.0577e-05
1.99567e-05
1.92242e-05
1.9524e-05
1.97265e-05
1.9901e-05
2.00392e-05
2.01349e-05
2.01871e-05
2.019e-05
2.01361e-05
2.00191e-05
1.98322e-05
1.95687e-05
1.92217e-05
1.87843e-05
1.82489e-05
1.7607e-05
1.77576e-05
1.79251e-05
1.80613e-05
1.81606e-05
1.82218e-05
1.82405e-05
1.82106e-05
1.81263e-05
1.79809e-05
1.77677e-05
1.74795e-05
1.7109e-05
1.66478e-05
1.60869e-05
1.59779e-05
1.61362e-05
1.62672e-05
1.6366e-05
1.64318e-05
1.64611e-05
1.64485e-05
1.63888e-05
1.6276e-05
1.61034e-05
1.5864e-05
1.55501e-05
1.51535e-05
1.46647e-05
1.43699e-05
1.45177e-05
1.46418e-05
1.47377e-05
1.48048e-05
1.48402e-05
1.48395e-05
1.47981e-05
1.47107e-05
1.45707e-05
1.43715e-05
1.41056e-05
1.37649e-05
1.33401e-05
1.29187e-05
1.30554e-05
1.31711e-05
1.32622e-05
1.33279e-05
1.33662e-05
1.33735e-05
1.33456e-05
1.32776e-05
1.31638e-05
1.29977e-05
1.27723e-05
1.24798e-05
1.21113e-05
1.16097e-05
1.1735e-05
1.18418e-05
1.19269e-05
1.19896e-05
1.20286e-05
1.20407e-05
1.20224e-05
1.19693e-05
1.18763e-05
1.17374e-05
1.1546e-05
1.1295e-05
1.09761e-05
1.05439e-05
1.06416e-05
1.072e-05
1.07786e-05
1.08165e-05
1.08312e-05
1.08196e-05
1.07779e-05
1.07015e-05
1.05848e-05
1.04221e-05
1.02068e-05
9.93118e-06
9.47052e-06
9.55902e-06
9.63042e-06
9.68432e-06
9.72012e-06
9.73582e-06
9.72878e-06
9.69563e-06
9.63223e-06
9.53385e-06
9.39532e-06
9.21056e-06
8.50412e-06
8.58367e-06
8.64797e-06
8.69688e-06
8.72992e-06
8.74549e-06
8.74136e-06
8.71459e-06
8.66159e-06
8.57827e-06
8.45997e-06
8.30136e-06
7.63454e-06
7.70567e-06
7.76315e-06
7.80696e-06
7.83685e-06
7.85158e-06
7.84922e-06
7.82721e-06
7.7825e-06
7.71156e-06
7.6103e-06
7.47404e-06
6.8528e-06
6.91608e-06
6.96708e-06
7.00589e-06
7.03251e-06
7.0459e-06
7.04447e-06
7.02603e-06
6.98795e-06
6.92723e-06
6.84034e-06
6.7232e-06
6.20653e-06
6.2515e-06
6.2856e-06
6.30895e-06
6.32076e-06
6.3197e-06
6.30394e-06
6.27122e-06
6.21894e-06
6.14415e-06
6.04338e-06
5.56942e-06
5.60885e-06
5.63857e-06
5.65879e-06
5.66897e-06
5.66795e-06
5.65418e-06
5.62577e-06
5.58055e-06
5.51597e-06
5.42914e-06
4.99782e-06
5.03218e-06
5.05789e-06
5.07522e-06
5.08376e-06
5.08255e-06
5.07028e-06
5.04541e-06
5.00608e-06
4.95019e-06
4.87524e-06
4.48532e-06
4.51513e-06
4.53719e-06
4.55185e-06
4.55883e-06
4.5573e-06
4.54621e-06
4.52425e-06
4.48989e-06
4.44136e-06
4.37658e-06
4.02605e-06
4.05176e-06
4.07058e-06
4.08287e-06
4.08839e-06
4.08653e-06
4.07636e-06
4.05682e-06
4.02665e-06
3.98437e-06
3.92826e-06
3.6147e-06
3.63681e-06
3.65277e-06
3.66292e-06
3.66713e-06
3.6649e-06
3.65549e-06
3.63799e-06
3.61137e-06
3.57442e-06
3.24647e-06
3.26542e-06
3.27884e-06
3.28713e-06
3.29019e-06
3.28761e-06
3.2788e-06
3.26303e-06
3.23944e-06
3.20705e-06
2.93323e-06
2.94443e-06
2.95109e-06
2.95316e-06
2.95026e-06
2.94195e-06
2.92764e-06
2.90663e-06
2.87812e-06
2.63627e-06
2.64556e-06
2.65079e-06
2.65197e-06
2.64881e-06
2.64094e-06
2.62788e-06
2.60907e-06
2.58387e-06
2.3707e-06
2.37834e-06
2.38238e-06
2.38283e-06
2.37948e-06
2.37201e-06
2.36005e-06
2.34315e-06
2.32078e-06
2.13274e-06
2.139e-06
2.14205e-06
2.14191e-06
2.13845e-06
2.13141e-06
2.12047e-06
2.10528e-06
2.08543e-06
1.91874e-06
1.92382e-06
1.92605e-06
1.92551e-06
1.92205e-06
1.91547e-06
1.90553e-06
1.89194e-06
1.87436e-06
1.72575e-06
1.72981e-06
1.73137e-06
1.73051e-06
1.7271e-06
1.721e-06
1.712e-06
1.69988e-06
1.55211e-06
1.55529e-06
1.55624e-06
1.55506e-06
1.55166e-06
1.54593e-06
1.53772e-06
1.52687e-06
1.39678e-06
1.39915e-06
1.39953e-06
1.398e-06
1.39453e-06
1.38902e-06
1.38138e-06
1.37149e-06
1.26043e-06
1.26027e-06
1.25838e-06
1.25476e-06
1.24935e-06
1.24206e-06
1.23287e-06
1.13696e-06
1.13629e-06
1.13405e-06
1.13025e-06
1.12484e-06
1.11776e-06
1.10906e-06
1.02826e-06
1.02749e-06
1.02528e-06
1.02185e-06
1.01679e-06
1.01016e-06
1.00239e-06
9.42464e-07
9.41445e-07
9.39024e-07
9.35787e-07
9.30798e-07
9.24178e-07
9.17191e-07
8.72972e-07
8.71554e-07
8.68601e-07
8.64929e-07
8.59428e-07
8.52109e-07
8.07423e-07
8.06257e-07
8.03541e-07
8.00074e-07
7.94858e-07
7.87721e-07
7.43045e-07
7.41356e-07
7.38061e-07
7.33991e-07
7.28441e-07
7.20701e-07
6.83315e-07
6.82422e-07
6.80013e-07
6.76661e-07
6.72075e-07
6.65783e-07
6.1867e-07
6.15583e-07
6.1094e-07
6.05687e-07
5.9961e-07
5.9034e-07
5.77134e-07
5.77377e-07
5.76082e-07
5.7288e-07
5.69158e-07
5.65728e-07
4.90454e-07
4.83872e-07
4.78382e-07
4.71854e-07
4.57673e-07
5.19478e-07
5.22353e-07
5.19246e-07
5.18344e-07
5.27986e-07
4.08801e-07
4.09664e-07
4.15792e-07
4.13265e-07
3.97e-07
6.20176e-07
6.37499e-07
6.35856e-07
6.43318e-07
6.77142e-07
6.94398e-07
7.14774e-07
7.43945e-07
9.91644e-07
1.04952e-06
1.01191e-06
9.60688e-07
)
;

boundaryField
{
    inlet
    {
        type            calculated;
        value           nonuniform List<scalar> 4(4.3799e-06 4.66054e-06 4.72032e-06 4.77547e-06);
    }
    outlet
    {
        type            calculated;
        value           nonuniform List<scalar> 0();
    }
    walls
    {
        type            calculated;
        value           uniform 0;
    }
    frontAndBack
    {
        type            empty;
    }
    procBoundary5to0
    {
        type            processor;
        value           nonuniform List<scalar> 4(0.000510044 0.000504061 0.000497469 0.000489253);
    }
    procBoundary5to1
    {
        type            processor;
        value           nonuniform List<scalar> 
13
(
0.00288597
0.00215702
0.00215702
0.00172503
0.00145626
0.00145626
0.00115764
0.000979319
0.000979319
0.000799221
0.000660924
0.000568154
0.000568154
)
;
    }
    procBoundary5to4
    {
        type            processor;
        value           nonuniform List<scalar> 
95
(
0.000514718
0.000518616
0.000521632
0.000521632
0.000446776
0.000447652
0.000447652
0.000386334
0.00038565
0.00038565
0.000334593
0.000334593
0.000292002
0.000292002
0.000256896
0.000226322
0.000226322
0.000200087
0.000200087
0.000177845
0.000158272
0.000158272
0.000141258
0.000126367
0.000126367
0.000113144
0.00010164
0.00010164
9.12314e-05
8.19019e-05
7.39425e-05
7.39425e-05
6.64947e-05
5.97935e-05
5.41756e-05
5.41756e-05
4.87699e-05
4.38969e-05
3.98675e-05
3.98675e-05
3.59059e-05
3.23286e-05
2.94037e-05
2.94037e-05
2.64793e-05
2.38371e-05
2.14511e-05
1.92973e-05
1.75662e-05
1.75662e-05
1.57988e-05
1.4204e-05
1.27661e-05
1.14703e-05
1.043e-05
1.043e-05
9.36748e-06
8.41148e-06
7.55169e-06
6.779e-06
6.15059e-06
6.15059e-06
5.5202e-06
4.95465e-06
4.44757e-06
3.99315e-06
3.58611e-06
3.22167e-06
2.91706e-06
2.91706e-06
2.62251e-06
2.35906e-06
2.12292e-06
1.91047e-06
1.71886e-06
1.5464e-06
1.39213e-06
1.2588e-06
1.2588e-06
1.13598e-06
1.02753e-06
9.41969e-07
8.72772e-07
8.07019e-07
7.43103e-07
6.82718e-07
6.20381e-07
5.75091e-07
4.95761e-07
4.95761e-07
5.15297e-07
4.06228e-07
6.0484e-07
6.51479e-07
9.89714e-07
)
;
    }
    procBoundary5to6
    {
        type            processor;
        value           nonuniform List<scalar> 
86
(
25.4179
9.52001
12.1097
12.4537
8.10966
1.85464
0.127735
0.0539597
0
0
0
2.63729e-06
4.03183e-05
8.02448e-05
7.51436e-05
6.02199e-05
5.27311e-05
5.13198e-05
5.16702e-05
5.13166e-05
4.98819e-05
4.78619e-05
4.56988e-05
4.357e-05
4.14951e-05
3.94426e-05
3.73988e-05
3.5365e-05
3.33453e-05
3.13538e-05
2.94009e-05
2.74912e-05
2.56353e-05
2.52893e-05
2.52893e-05
2.34428e-05
2.16698e-05
1.99765e-05
1.83678e-05
1.68461e-05
1.54137e-05
1.40716e-05
1.28195e-05
1.1656e-05
1.05792e-05
9.58615e-06
8.97275e-06
8.97275e-06
8.09642e-06
7.29758e-06
6.57131e-06
5.91267e-06
5.3167e-06
4.77841e-06
4.29315e-06
3.85633e-06
3.52572e-06
3.52572e-06
3.16467e-06
2.84114e-06
2.55148e-06
2.29232e-06
2.06038e-06
1.85237e-06
1.68438e-06
1.68438e-06
1.51315e-06
1.35919e-06
1.22165e-06
1.09864e-06
9.93052e-07
9.08852e-07
8.44802e-07
8.44802e-07
7.80409e-07
7.12924e-07
6.58481e-07
5.82164e-07
5.57778e-07
4.5117e-07
5.17821e-07
4.03236e-07
6.96643e-07
6.96643e-07
7.47347e-07
1.26461e-06
)
;
    }
}


// ************************************************************************* //
