/*--------------------------------*- C++ -*----------------------------------*\
| =========                 |                                                 |
| \\      /  F ield         | OpenFOAM: The Open Source CFD Toolbox           |
|  \\    /   O peration     | Version:  2506                                  |
|   \\  /    A nd           | Website:  www.openfoam.com                      |
|    \\/     M anipulation  |                                                 |
\*---------------------------------------------------------------------------*/
FoamFile
{
    version     2.0;
    format      ascii;
    arch        "LSB;label=32;scalar=64";
    class       volVectorField;
    location    "350";
    object      momentError;
}
// * * * * * * * * * * * * * * * * * * * * * * * * * * * * * * * * * * * * * //

dimensions      [0 1 -2 0 0 0 0];

internalField   nonuniform List<vector> 
1340
(
(4.91822e-06 -1.14752e-05 -7.397e-16)
(1.24267e-06 -2.35438e-06 -1.09296e-16)
(4.40114e-06 -1.07973e-05 -7.61705e-16)
(2.40695e-06 -7.60655e-06 3.80772e-15)
(1.31718e-06 -2.4385e-06 -5.74626e-17)
(4.12815e-06 -1.04134e-05 1.22438e-15)
(1.62272e-06 -4.10286e-06 -8.40304e-16)
(2.35443e-06 -7.45841e-06 3.98121e-15)
(1.22016e-06 -2.28091e-06 3.27868e-16)
(3.99746e-06 -1.01347e-05 -1.89486e-15)
(1.85062e-06 -4.64335e-06 -1.92698e-15)
(1.94484e-06 -5.89815e-06 -1.60872e-15)
(1.57514e-06 -3.97821e-06 -1.14753e-15)
(2.18538e-06 -7.18216e-06 -1.40701e-15)
(1.16086e-06 -2.21685e-06 -3.27559e-16)
(3.79815e-06 -9.83782e-06 -1.0622e-15)
(2.22672e-06 -4.69191e-06 -6.14272e-16)
(2.07577e-06 -5.20213e-06 4.8606e-17)
(1.81289e-06 -4.52134e-06 -4.69381e-15)
(1.86963e-06 -5.73825e-06 -2.57515e-15)
(1.50055e-06 -3.77595e-06 1.25475e-15)
(1.99311e-06 -6.95554e-06 -1.57601e-15)
(1.13147e-06 -2.13582e-06 -8.49821e-16)
(3.561e-06 -9.53098e-06 2.66133e-15)
(3.04281e-06 -4.34494e-06 -3.26938e-15)
(2.72693e-06 -4.37382e-06 -4.23874e-15)
(2.43412e-06 -4.64217e-06 -2.67337e-15)
(2.15774e-06 -4.56281e-06 -6.48235e-18)
(2.036e-06 -5.06264e-06 -1.54767e-16)
(1.75558e-06 -4.33446e-06 1.8799e-15)
(1.76879e-06 -5.54245e-06 8.1945e-16)
(1.42756e-06 -3.63374e-06 -2.12806e-16)
(1.83597e-06 -6.72135e-06 7.75868e-16)
(1.08774e-06 -2.05239e-06 5.70471e-17)
(3.34723e-06 -9.22623e-06 -6.44718e-16)
(3.91216e-06 -3.79697e-06 -8.15365e-16)
(3.60414e-06 -4.1152e-06 1.23721e-15)
(3.2682e-06 -4.16484e-06 3.37324e-16)
(2.97009e-06 -4.27627e-06 -3.9757e-16)
(2.65264e-06 -4.27314e-06 -1.53646e-15)
(2.37655e-06 -4.53078e-06 -2.70434e-15)
(2.08897e-06 -4.38158e-06 -5.42611e-16)
(1.96615e-06 -4.89102e-06 1.41888e-16)
(1.69026e-06 -4.20734e-06 1.94726e-15)
(1.67064e-06 -5.37003e-06 4.49716e-16)
(1.37134e-06 -3.49515e-06 -1.01406e-15)
(1.69786e-06 -6.49369e-06 1.32285e-15)
(1.03758e-06 -1.96311e-06 5.05533e-16)
(3.15892e-06 -8.92577e-06 8.89341e-16)
(6.20399e-06 -3.4097e-06 -1.04905e-15)
(5.52085e-06 -3.47717e-06 2.93816e-16)
(4.90124e-06 -3.53444e-06 1.17438e-16)
(4.30302e-06 -3.65183e-06 -1.09925e-16)
(3.80557e-06 -3.77674e-06 -4.53049e-16)
(3.4855e-06 -4.04636e-06 2.17502e-15)
(3.17534e-06 -4.09116e-06 2.67529e-16)
(2.88772e-06 -4.16333e-06 9.03935e-16)
(2.57971e-06 -4.16315e-06 -1.61442e-16)
(2.31334e-06 -4.40445e-06 1.19924e-15)
(2.04486e-06 -4.25978e-06 5.01647e-16)
(1.87335e-06 -4.74085e-06 -1.66793e-16)
(1.63527e-06 -4.07028e-06 -1.35732e-15)
(1.5922e-06 -5.21081e-06 -3.62288e-16)
(1.31969e-06 -3.37045e-06 5.21663e-16)
(1.57754e-06 -6.27216e-06 -8.03883e-16)
(9.90529e-07 -1.87729e-06 1.34946e-16)
(2.98379e-06 -8.62705e-06 2.6931e-16)
(1.02772e-05 -4.07932e-06 -9.97588e-16)
(9.38649e-06 -3.95529e-06 -1.96756e-16)
(8.43416e-06 -3.81803e-06 1.45624e-16)
(7.61996e-06 -3.68649e-06 1.4402e-15)
(6.74914e-06 -3.63281e-06 -1.28858e-16)
(6.02661e-06 -3.60706e-06 -8.3846e-16)
(5.33908e-06 -3.55216e-06 1.59348e-15)
(4.7272e-06 -3.61446e-06 5.3019e-16)
(4.17617e-06 -3.66378e-06 1.06274e-16)
(3.69218e-06 -3.73141e-06 3.03782e-16)
(3.36487e-06 -3.98728e-06 -4.85146e-16)
(3.0817e-06 -3.99981e-06 -6.72415e-17)
(2.79249e-06 -4.08708e-06 -1.9069e-15)
(2.50151e-06 -4.0706e-06 -2.87816e-16)
(2.24148e-06 -4.29185e-06 2.21569e-16)
(1.98119e-06 -4.12948e-06 -4.57909e-16)
(1.80326e-06 -4.60635e-06 6.36183e-17)
(1.57843e-06 -3.9499e-06 -4.45179e-16)
(1.51718e-06 -5.0547e-06 -1.8846e-16)
(1.27506e-06 -3.25766e-06 2.82923e-17)
(1.47026e-06 -6.06007e-06 -1.0315e-15)
(9.49728e-07 -1.79637e-06 -1.56649e-16)
(2.81907e-06 -8.33733e-06 -1.50219e-15)
(1.62618e-05 -6.42332e-06 1.20364e-16)
(1.52461e-05 -5.98738e-06 -2.11509e-16)
(1.42485e-05 -5.60104e-06 5.66114e-17)
(1.32735e-05 -5.26408e-06 -1.62219e-16)
(1.23068e-05 -4.98936e-06 -6.50211e-16)
(1.13934e-05 -4.72426e-06 2.2025e-16)
(1.04755e-05 -4.54306e-06 1.53079e-16)
(9.62862e-06 -4.3727e-06 -1.10364e-15)
(8.77719e-06 -4.22923e-06 -2.67567e-16)
(7.99756e-06 -4.06475e-06 -3.24911e-16)
(7.20774e-06 -3.91422e-06 -4.4893e-16)
(6.46636e-06 -3.83309e-06 -4.23387e-17)
(5.79937e-06 -3.72046e-06 1.17026e-15)
(5.14356e-06 -3.68996e-06 6.60845e-16)
(4.54993e-06 -3.63835e-06 -2.06315e-16)
(4.03809e-06 -3.67474e-06 2.76167e-16)
(3.55127e-06 -3.72345e-06 2.98708e-17)
(3.26024e-06 -3.93382e-06 -8.30282e-17)
(2.96972e-06 -3.93098e-06 -3.35767e-17)
(2.69454e-06 -4.00281e-06 1.08009e-15)
(2.4126e-06 -3.97586e-06 1.17893e-15)
(2.16227e-06 -4.1847e-06 4.41824e-17)
(1.91224e-06 -4.01957e-06 4.83617e-16)
(1.72887e-06 -4.47367e-06 -7.66154e-17)
(1.52194e-06 -3.8308e-06 9.60673e-16)
(1.4453e-06 -4.90981e-06 6.34049e-16)
(1.23469e-06 -3.1575e-06 1.15783e-16)
(1.37434e-06 -5.85732e-06 2.16761e-16)
(9.12827e-07 -1.72469e-06 1.0291e-15)
(2.66503e-06 -8.05197e-06 4.72856e-16)
(2.80759e-05 -1.08028e-05 -1.74827e-17)
(2.65664e-05 -1.06485e-05 -1.89193e-18)
(2.51571e-05 -1.03654e-05 -2.14857e-18)
(2.38662e-05 -1.00737e-05 1.58746e-17)
(2.2656e-05 -9.74315e-06 2.53754e-17)
(2.15291e-05 -9.41054e-06 1.17422e-16)
(2.04599e-05 -9.00399e-06 2.50255e-17)
(1.94401e-05 -8.59742e-06 4.81415e-17)
(1.84619e-05 -8.15476e-06 5.10485e-18)
(1.75095e-05 -7.72919e-06 -2.01793e-16)
(1.65872e-05 -7.30012e-06 -7.92369e-17)
(1.56714e-05 -6.86797e-06 -2.45058e-16)
(1.4785e-05 -6.44879e-06 -2.00362e-16)
(1.38891e-05 -6.08044e-06 -3.52495e-16)
(1.3022e-05 -5.73268e-06 1.52837e-16)
(1.21599e-05 -5.44812e-06 -3.58801e-16)
(1.13209e-05 -5.16693e-06 -4.20534e-17)
(1.05074e-05 -4.94535e-06 4.8695e-16)
(9.69892e-06 -4.74244e-06 -1.47102e-16)
(8.95402e-06 -4.55996e-06 6.30348e-16)
(8.2022e-06 -4.37826e-06 -9.12732e-17)
(7.5334e-06 -4.23594e-06 -2.34198e-17)
(6.81536e-06 -4.0877e-06 1.39112e-16)
(6.19052e-06 -3.95555e-06 8.24765e-17)
(5.55291e-06 -3.86603e-06 -4.60895e-16)
(4.96162e-06 -3.7746e-06 -7.7948e-16)
(4.41315e-06 -3.73e-06 1.7367e-16)
(3.89733e-06 -3.70025e-06 -5.15296e-16)
(3.44736e-06 -3.70306e-06 -1.4876e-16)
(3.15259e-06 -3.89391e-06 3.54856e-17)
(2.86583e-06 -3.86785e-06 3.79416e-17)
(2.58784e-06 -3.93318e-06 8.91027e-16)
(2.31764e-06 -3.8922e-06 -3.64322e-16)
(2.07492e-06 -4.07775e-06 5.19844e-16)
(1.83661e-06 -3.90364e-06 -6.75765e-16)
(1.65232e-06 -4.35053e-06 2.24067e-16)
(1.46182e-06 -3.72486e-06 -6.80935e-16)
(1.37514e-06 -4.76511e-06 1.04842e-15)
(1.19354e-06 -3.06598e-06 9.38498e-16)
(1.28717e-06 -5.66553e-06 -1.81509e-17)
(8.78757e-07 -1.65949e-06 -1.36183e-16)
(2.52287e-06 -7.7779e-06 8.39054e-17)
(-0.000105127 -2.00501e-05 -1.75133e-17)
(-9.15596e-05 -2.15126e-05 1.36818e-17)
(-7.43242e-05 -1.87334e-05 -3.8339e-17)
(-7.83299e-05 -1.76788e-05 -5.97212e-18)
(-6.57155e-05 -1.91114e-05 2.98085e-17)
(-7.00087e-05 -2.08104e-05 -1.79613e-17)
(-6.01744e-05 -1.90213e-05 -4.17262e-17)
(-5.90253e-05 -1.82332e-05 1.16902e-17)
(-5.65121e-05 -1.759e-05 1.5402e-17)
(-6.558e-05 -1.83962e-05 -4.60377e-17)
(-8.44778e-05 -2.00076e-05 -3.38521e-17)
(-0.00010266 -2.20375e-05 -6.72023e-18)
(-0.000105831 -2.28993e-05 -1.59034e-17)
(-8.33039e-05 -2.14066e-05 4.95214e-17)
(-3.04439e-05 -1.68026e-05 5.15961e-17)
(4.61394e-05 -9.50709e-06 -8.08728e-17)
(0.00012904 -1.1454e-06 -1.41953e-16)
(0.000195665 6.03448e-06 -2.5648e-17)
(0.000230276 9.48627e-06 3.23848e-17)
(0.000252085 1.06026e-05 -2.3634e-17)
(0.000368485 4.06884e-05 2.10292e-17)
(0.000359025 8.28877e-05 -4.93025e-17)
(-0.000262155 -4.86252e-05 1.20981e-16)
(-6.81966e-05 -4.01519e-05 -9.96029e-17)
(9.49403e-05 -4.79941e-06 -1.44322e-16)
(5.26419e-05 -1.05103e-05 -1.32799e-17)
(5.28488e-05 -1.11752e-05 -1.71608e-18)
(5.22914e-05 -1.17162e-05 -8.08915e-17)
(4.75458e-05 -1.23406e-05 -8.39695e-18)
(4.40524e-05 -1.22043e-05 -3.13529e-17)
(4.12883e-05 -1.18127e-05 1.78927e-17)
(3.86384e-05 -1.13633e-05 1.37538e-16)
(3.62423e-05 -1.10587e-05 1.388e-17)
(3.39563e-05 -1.08164e-05 6.30609e-17)
(3.19219e-05 -1.06599e-05 -3.02568e-17)
(2.99452e-05 -1.05407e-05 1.2688e-17)
(2.82122e-05 -1.024e-05 2.63417e-17)
(2.64938e-05 -9.96919e-06 1.45782e-17)
(2.49691e-05 -9.85246e-06 -1.31459e-18)
(2.35082e-05 -9.55853e-06 1.53973e-21)
(2.22145e-05 -9.30277e-06 4.24908e-17)
(2.09622e-05 -9.00259e-06 2.75473e-17)
(1.98574e-05 -8.70063e-06 6.34636e-17)
(1.87764e-05 -8.35604e-06 2.43365e-17)
(1.77978e-05 -8.02155e-06 6.31887e-17)
(1.68333e-05 -7.67279e-06 -9.21232e-17)
(1.59469e-05 -7.33503e-06 -3.25717e-16)
(1.50719e-05 -6.98804e-06 2.58557e-16)
(1.42508e-05 -6.65619e-06 -3.07475e-17)
(1.34189e-05 -6.31407e-06 1.10977e-16)
(1.26327e-05 -6.0087e-06 1.04516e-16)
(1.18591e-05 -5.7202e-06 5.71876e-17)
(1.1103e-05 -5.46045e-06 1.23004e-16)
(1.03787e-05 -5.22417e-06 3.44976e-17)
(9.65298e-06 -5.00706e-06 -1.65825e-16)
(8.9862e-06 -4.8211e-06 -9.43884e-17)
(8.31433e-06 -4.64202e-06 2.33113e-16)
(7.69421e-06 -4.48981e-06 2.15792e-17)
(7.05954e-06 -4.32484e-06 2.08548e-16)
(6.48135e-06 -4.18816e-06 -5.03715e-17)
(5.88347e-06 -4.06197e-06 -2.16208e-16)
(5.32562e-06 -3.95654e-06 -6.23656e-16)
(4.78916e-06 -3.874e-06 -5.69434e-16)
(4.27945e-06 -3.77611e-06 4.37393e-16)
(3.8077e-06 -3.74364e-06 -3.1839e-16)
(3.35018e-06 -3.71567e-06 1.54528e-16)
(3.06126e-06 -3.87549e-06 -2.87184e-16)
(2.77049e-06 -3.83205e-06 -2.06871e-16)
(2.49542e-06 -3.87206e-06 -5.60394e-16)
(2.2334e-06 -3.80991e-06 -5.06376e-16)
(1.99001e-06 -3.98008e-06 -9.13034e-16)
(1.75708e-06 -3.805e-06 4.07669e-16)
(1.57331e-06 -4.22617e-06 -2.69271e-16)
(1.39682e-06 -3.6162e-06 7.43577e-16)
(1.30234e-06 -4.62934e-06 2.6233e-16)
(1.15009e-06 -2.98361e-06 -5.61162e-17)
(1.20659e-06 -5.48183e-06 1.63648e-16)
(8.46527e-07 -1.60438e-06 -2.78201e-16)
(2.39046e-06 -7.51238e-06 -1.26752e-16)
(-8.51534e-05 -2.82713e-05 1.54724e-17)
(-7.32702e-05 -2.79192e-05 -1.68943e-17)
(-5.76948e-05 -2.23135e-05 -3.54672e-17)
(-5.72791e-05 -2.12233e-05 3.16317e-18)
(-5.58245e-05 -2.21447e-05 1.77788e-17)
(-5.5443e-05 -2.18571e-05 -6.07729e-18)
(-5.6205e-05 -2.11497e-05 -4.20751e-18)
(-5.35996e-05 -1.99121e-05 -8.26995e-18)
(-4.75657e-05 -1.91093e-05 -3.43281e-18)
(-3.71733e-05 -1.84326e-05 -1.6628e-17)
(-3.0353e-05 -1.79326e-05 -2.3313e-17)
(-4.66078e-05 -2.08978e-05 1.39833e-17)
(-6.67782e-05 -2.32061e-05 -8.2925e-18)
(-8.15196e-05 -2.54718e-05 -4.66628e-18)
(-7.49523e-05 -2.53412e-05 1.17088e-17)
(-3.98567e-05 -2.21034e-05 -4.29188e-17)
(2.24251e-05 -1.57343e-05 2.08452e-17)
(9.88216e-05 -7.43907e-06 3.46164e-17)
(0.000170134 8.59441e-07 -4.05569e-17)
(0.000237995 1.23193e-05 -4.17029e-17)
(0.000269148 2.73941e-05 -4.42508e-17)
(3.92063e-05 -1.34833e-05 6.13422e-18)
(6.69861e-05 -4.03296e-05 3.61562e-17)
(0.000170629 -1.63922e-06 -5.4329e-17)
(0.000109077 -3.59267e-06 1.90556e-17)
(4.89394e-05 -9.28804e-06 -1.8739e-17)
(4.99567e-05 -8.55156e-06 2.28594e-18)
(5.22259e-05 -8.11829e-06 -3.89827e-17)
(4.77384e-05 -8.532e-06 1.40037e-17)
(4.33695e-05 -8.84516e-06 -1.95543e-17)
(4.01008e-05 -8.87799e-06 5.31551e-17)
(3.73933e-05 -8.79883e-06 2.50469e-17)
(3.49283e-05 -8.73924e-06 -1.9376e-17)
(3.25936e-05 -8.77305e-06 -2.47863e-17)
(3.0485e-05 -8.83311e-06 -2.88806e-17)
(2.85356e-05 -8.86133e-06 1.78055e-17)
(2.67654e-05 -8.8709e-06 1.96039e-17)
(2.50386e-05 -8.82381e-06 7.70075e-19)
(2.3507e-05 -8.65272e-06 -1.74255e-17)
(2.20559e-05 -8.51206e-06 1.97769e-18)
(2.07424e-05 -8.31707e-06 -2.2428e-17)
(1.95079e-05 -8.12016e-06 -1.62053e-17)
(1.83902e-05 -7.87656e-06 -1.03075e-17)
(1.73297e-05 -7.64255e-06 -6.22062e-18)
(1.6356e-05 -7.37714e-06 -2.56701e-17)
(1.5426e-05 -7.12002e-06 -1.32869e-17)
(1.45694e-05 -6.83966e-06 1.08763e-16)
(1.37474e-05 -6.57389e-06 1.79286e-16)
(1.29778e-05 -6.29884e-06 1.10006e-16)
(1.22307e-05 -6.05137e-06 5.36213e-17)
(1.15212e-05 -5.80123e-06 -3.65143e-18)
(1.08316e-05 -5.57469e-06 4.34561e-17)
(1.01686e-05 -5.35557e-06 -6.80678e-18)
(9.52261e-06 -5.1539e-06 1.1228e-17)
(8.9005e-06 -4.96585e-06 8.73588e-17)
(8.29769e-06 -4.79326e-06 2.77088e-16)
(7.72253e-06 -4.64256e-06 -4.87229e-16)
(7.16065e-06 -4.48562e-06 7.24734e-17)
(6.62669e-06 -4.35192e-06 -1.72202e-16)
(6.08441e-06 -4.2204e-06 5.16982e-16)
(5.57399e-06 -4.11444e-06 -4.49183e-19)
(5.06611e-06 -4.00494e-06 4.14211e-16)
(4.59568e-06 -3.90575e-06 6.97273e-16)
(4.12887e-06 -3.83264e-06 -3.77804e-16)
(3.67751e-06 -3.77897e-06 3.91966e-16)
(3.25526e-06 -3.73646e-06 -2.33573e-16)
(2.97583e-06 -3.87249e-06 -3.25906e-16)
(2.69039e-06 -3.8051e-06 -1.76889e-16)
(2.42014e-06 -3.82819e-06 1.11422e-16)
(2.15513e-06 -3.75062e-06 8.70951e-16)
(1.91375e-06 -3.89512e-06 9.33036e-16)
(1.68054e-06 -3.7031e-06 -4.54347e-17)
(1.48725e-06 -4.11e-06 -3.11352e-16)
(1.32493e-06 -3.51913e-06 -5.7795e-17)
(1.2259e-06 -4.48847e-06 -1.41478e-15)
(1.10336e-06 -2.90412e-06 1.53364e-17)
(1.12955e-06 -5.30522e-06 -5.91458e-16)
(8.16179e-07 -1.55523e-06 -1.24626e-16)
(2.26581e-06 -7.25975e-06 1.81087e-16)
(-7.60906e-05 -3.48555e-05 -8.97843e-18)
(-6.83876e-05 -3.23946e-05 -8.12226e-18)
(-5.19538e-05 -2.45185e-05 7.41632e-18)
(-5.21844e-05 -2.27795e-05 -8.07604e-19)
(-5.11509e-05 -2.22269e-05 -1.58437e-17)
(-5.0656e-05 -2.17592e-05 1.07047e-17)
(-4.99053e-05 -2.08837e-05 6.22187e-18)
(-4.90978e-05 -1.98263e-05 -1.51473e-17)
(-4.55062e-05 -2.01069e-05 5.96346e-18)
(-7.38665e-05 -8.16672e-06 -9.28717e-18)
(-3.09271e-06 -1.11553e-05 9.16731e-18)
(-2.27259e-05 -1.70793e-05 -9.33298e-18)
(-8.9733e-06 -1.52051e-05 -2.78531e-17)
(-3.82641e-05 -2.07451e-05 3.89482e-18)
(-5.8986e-05 -2.35184e-05 1.10954e-17)
(-6.80046e-05 -2.50499e-05 -1.17704e-18)
(-5.0906e-05 -2.33951e-05 2.23352e-17)
(-4.90502e-06 -1.83798e-05 -5.0087e-17)
(6.22163e-05 -1.03859e-05 -2.77306e-17)
(0.000132788 -3.07236e-07 1.99328e-18)
(0.000167049 2.94478e-06 -1.5308e-18)
(0.000161829 -5.50687e-06 2.21731e-17)
(0.000192444 9.31985e-06 -7.51557e-17)
(0.000142561 5.17525e-06 1.34993e-16)
(0.000101012 -6.69635e-07 1.85191e-17)
(6.30034e-05 -3.14524e-06 1.35575e-17)
(4.38815e-05 -6.70658e-06 2.36761e-17)
(4.77343e-05 -6.42692e-06 4.78843e-17)
(4.81433e-05 -6.17201e-06 1.16064e-17)
(4.43811e-05 -6.40997e-06 2.33232e-17)
(4.00388e-05 -6.64647e-06 -1.5748e-17)
(3.67537e-05 -6.70869e-06 -5.03732e-17)
(3.42083e-05 -6.69941e-06 2.22785e-18)
(3.18552e-05 -6.79057e-06 1.27177e-17)
(2.95451e-05 -6.97552e-06 3.99064e-17)
(2.74533e-05 -7.18385e-06 -2.15424e-17)
(2.55576e-05 -7.31896e-06 2.14206e-18)
(2.38784e-05 -7.39488e-06 -2.0977e-17)
(2.22973e-05 -7.39668e-06 1.08656e-17)
(2.08559e-05 -7.35444e-06 -2.59914e-19)
(1.95126e-05 -7.26215e-06 -9.49411e-18)
(1.82984e-05 -7.14968e-06 -6.48934e-18)
(1.71698e-05 -6.99785e-06 3.93085e-19)
(1.61417e-05 -6.83561e-06 -8.8409e-18)
(1.51762e-05 -6.6481e-06 -5.07822e-18)
(1.4288e-05 -6.46278e-06 5.07513e-17)
(1.34529e-05 -6.26069e-06 2.68516e-17)
(1.26794e-05 -6.06509e-06 -6.16915e-17)
(1.1946e-05 -5.86399e-06 3.286e-17)
(1.12552e-05 -5.67195e-06 1.40187e-17)
(1.05973e-05 -5.48458e-06 6.48522e-17)
(9.9703e-06 -5.31323e-06 -1.51642e-16)
(9.37042e-06 -5.14528e-06 9.97348e-18)
(8.78812e-06 -4.98492e-06 1.50205e-17)
(8.22722e-06 -4.83409e-06 7.30366e-17)
(7.68436e-06 -4.69027e-06 -8.39733e-17)
(7.1644e-06 -4.55378e-06 1.70402e-16)
(6.66448e-06 -4.42665e-06 6.888e-17)
(6.17132e-06 -4.30793e-06 -1.0013e-16)
(5.69926e-06 -4.20201e-06 1.41111e-16)
(5.22965e-06 -4.09366e-06 3.4292e-17)
(4.79184e-06 -3.99933e-06 5.54311e-16)
(4.35042e-06 -3.91792e-06 -1.1719e-18)
(3.93279e-06 -3.84114e-06 -3.24968e-16)
(3.52432e-06 -3.79563e-06 5.01657e-16)
(3.13617e-06 -3.7377e-06 3.67927e-18)
(2.87912e-06 -3.86834e-06 -2.66863e-16)
(2.60581e-06 -3.7914e-06 1.79638e-16)
(2.34122e-06 -3.79583e-06 -5.48701e-17)
(2.08462e-06 -3.69764e-06 3.90351e-16)
(1.83615e-06 -3.82088e-06 2.13992e-17)
(1.59729e-06 -3.6306e-06 -3.20065e-17)
(1.40274e-06 -3.99776e-06 2.90371e-16)
(1.24911e-06 -3.4136e-06 -1.81318e-18)
(1.14465e-06 -4.35267e-06 -6.68052e-17)
(1.05379e-06 -2.82976e-06 -1.09654e-16)
(1.05257e-06 -5.13215e-06 -3.59869e-16)
(7.86276e-07 -1.51434e-06 2.32558e-16)
(2.14391e-06 -7.01434e-06 -3.41134e-16)
(-7.59868e-05 -3.69065e-05 8.71133e-18)
(-7.0701e-05 -3.34081e-05 4.41196e-18)
(-5.46293e-05 -2.46827e-05 -1.2716e-17)
(-5.39921e-05 -2.25195e-05 -1.30073e-17)
(-5.31974e-05 -2.13626e-05 1.705e-17)
(-5.22603e-05 -2.04919e-05 -1.0304e-17)
(-4.96535e-05 -1.95853e-05 6.75854e-18)
(-3.10332e-05 -1.831e-05 2.27028e-17)
(0.000181131 -1.64996e-05 -5.3575e-18)
(-0.000238391 -1.79752e-05 4.02394e-18)
(-4.32417e-05 1.30646e-06 -2.04511e-18)
(-0.000109117 -2.93927e-05 3.06681e-18)
(4.09324e-05 -5.76785e-06 1.72389e-17)
(-2.13884e-05 -1.72751e-05 -6.9081e-18)
(-1.08526e-05 -1.66531e-05 -4.67274e-17)
(-3.80845e-05 -2.00964e-05 -1.85674e-17)
(-5.43564e-05 -2.19081e-05 -1.98432e-17)
(-5.13469e-05 -2.15914e-05 1.89688e-18)
(-2.00547e-05 -1.81635e-05 1.64532e-17)
(3.61028e-05 -1.20414e-05 -7.02581e-18)
(0.000108596 -4.18972e-06 2.54467e-17)
(0.000192835 9.70684e-06 -4.145e-17)
(0.000183426 1.13662e-05 7.03556e-17)
(0.000137502 6.64851e-07 -6.20388e-17)
(0.000130477 2.91131e-06 -6.61936e-17)
(9.34196e-05 3.37267e-07 -2.12846e-17)
(4.89124e-05 -5.05289e-06 -7.68812e-18)
(3.85891e-05 -6.74979e-06 -6.10818e-18)
(4.29488e-05 -6.07257e-06 3.54628e-18)
(4.47804e-05 -5.29077e-06 -1.50736e-17)
(4.16781e-05 -5.00695e-06 -3.93193e-18)
(3.6987e-05 -5.06912e-06 3.74194e-17)
(3.33875e-05 -5.1594e-06 2.17213e-17)
(3.09635e-05 -5.21275e-06 5.66105e-18)
(2.88937e-05 -5.29982e-06 -7.04435e-17)
(2.68077e-05 -5.46615e-06 2.32066e-18)
(2.47934e-05 -5.66241e-06 -1.253e-19)
(2.2972e-05 -5.83082e-06 2.11174e-18)
(2.1355e-05 -5.93302e-06 1.07991e-17)
(1.98963e-05 -5.98765e-06 2.2242e-18)
(1.8562e-05 -5.99806e-06 -7.26975e-18)
(1.73412e-05 -5.99122e-06 -6.64749e-18)
(1.62274e-05 -5.94982e-06 -1.5803e-17)
(1.52081e-05 -5.89593e-06 -3.74473e-18)
(1.42704e-05 -5.80987e-06 -2.92627e-18)
(1.34017e-05 -5.7128e-06 -1.6283e-17)
(1.25978e-05 -5.59408e-06 8.56406e-18)
(1.18502e-05 -5.47324e-06 -1.95212e-17)
(1.11527e-05 -5.34107e-06 -1.19921e-16)
(1.04948e-05 -5.22057e-06 8.3949e-17)
(9.87377e-06 -5.09772e-06 3.13547e-17)
(9.28478e-06 -4.98058e-06 -1.2121e-18)
(8.72318e-06 -4.86451e-06 1.5143e-17)
(8.18302e-06 -4.75429e-06 2.37731e-17)
(7.66253e-06 -4.64196e-06 -3.12964e-16)
(7.16164e-06 -4.53214e-06 -7.29853e-19)
(6.67958e-06 -4.42506e-06 5.12728e-17)
(6.21458e-06 -4.31915e-06 -2.57867e-17)
(5.76519e-06 -4.21984e-06 1.44204e-16)
(5.32809e-06 -4.12452e-06 -6.93658e-16)
(4.9081e-06 -4.03796e-06 2.00749e-16)
(4.49361e-06 -3.95257e-06 1.20475e-16)
(4.10115e-06 -3.88061e-06 -8.05117e-16)
(3.71499e-06 -3.81759e-06 3.44087e-16)
(3.34522e-06 -3.77399e-06 -3.09707e-16)
(2.99128e-06 -3.71866e-06 8.08303e-17)
(2.75285e-06 -3.84459e-06 -1.95271e-16)
(2.49929e-06 -3.76465e-06 2.04205e-16)
(2.24631e-06 -3.75815e-06 1.4746e-16)
(1.99474e-06 -3.65746e-06 -2.18769e-16)
(1.74822e-06 -3.76559e-06 -3.43036e-16)
(1.51882e-06 -3.55073e-06 -2.10697e-17)
(1.3241e-06 -3.89339e-06 -4.79778e-16)
(1.17603e-06 -3.32667e-06 -8.8061e-17)
(1.06386e-06 -4.21003e-06 1.05402e-15)
(9.98665e-07 -2.75488e-06 -2.66503e-16)
(9.73152e-07 -4.96277e-06 8.22892e-16)
(7.53588e-07 -1.47808e-06 -6.15632e-16)
(2.02311e-06 -6.77619e-06 2.54897e-16)
(-8.28033e-05 -3.6818e-05 -7.32131e-18)
(-7.89116e-05 -3.26595e-05 1.28231e-18)
(-6.08767e-05 -2.37726e-05 -1.95533e-18)
(-5.94374e-05 -2.09231e-05 -5.79671e-18)
(-5.80517e-05 -1.90578e-05 -1.81577e-17)
(-5.66933e-05 -1.78093e-05 8.15909e-18)
(-5.50895e-05 -1.68777e-05 2.43844e-18)
(-5.35473e-05 -1.58191e-05 -1.87088e-17)
(-7.81776e-05 -1.55071e-05 3.65467e-18)
(-5.16619e-05 -2.18348e-05 1.28728e-18)
(-5.21446e-05 -1.34072e-05 2.86531e-18)
(-2.8931e-05 -1.08717e-05 -1.32647e-18)
(-4.4637e-05 -9.02856e-06 -9.72071e-18)
(-8.19637e-07 -8.42669e-06 -4.17453e-18)
(-2.21315e-07 -1.1741e-05 8.25506e-18)
(9.71125e-06 -1.07983e-05 1.51354e-17)
(-1.23802e-05 -1.38781e-05 3.81646e-18)
(-3.39582e-05 -1.55658e-05 1.18454e-17)
(-4.40739e-05 -1.64382e-05 -2.26668e-17)
(-2.80004e-05 -1.48985e-05 6.80788e-18)
(1.62404e-05 -1.01368e-05 1.30029e-17)
(7.1411e-05 -4.43468e-06 2.73957e-17)
(0.000125813 -1.72139e-06 -2.7166e-17)
(0.000164163 2.86007e-06 -6.04933e-17)
(0.000177314 7.48375e-06 4.27867e-17)
(0.000150206 7.52244e-06 2.02287e-17)
(9.2703e-05 2.4383e-06 1.94632e-18)
(4.9279e-05 -2.4957e-06 -2.87045e-18)
(3.45565e-05 -4.55141e-06 4.90373e-18)
(3.67215e-05 -4.50601e-06 1.61417e-17)
(4.06586e-05 -3.81742e-06 -3.42238e-19)
(3.97221e-05 -3.33778e-06 -2.45323e-17)
(3.55384e-05 -3.22377e-06 -3.44438e-17)
(3.14031e-05 -3.35322e-06 -2.31412e-17)
(2.85478e-05 -3.56457e-06 5.32036e-17)
(2.64897e-05 -3.80584e-06 1.68671e-17)
(2.46351e-05 -4.03907e-06 -8.39947e-18)
(2.28036e-05 -4.25409e-06 -1.29471e-18)
(2.10628e-05 -4.42394e-06 1.11951e-18)
(1.94857e-05 -4.56107e-06 -5.73395e-18)
(1.80725e-05 -4.66295e-06 -6.02785e-18)
(1.68044e-05 -4.74563e-06 3.92502e-18)
(1.56537e-05 -4.79988e-06 1.87135e-18)
(1.46106e-05 -4.83578e-06 1.90505e-18)
(1.36551e-05 -4.84396e-06 -9.19738e-18)
(1.27774e-05 -4.84216e-06 -6.19871e-18)
(1.19672e-05 -4.81586e-06 5.52967e-17)
(1.12179e-05 -4.78496e-06 -8.49468e-18)
(1.05218e-05 -4.73917e-06 7.2785e-18)
(9.8695e-06 -4.69144e-06 -7.25671e-17)
(9.25709e-06 -4.63646e-06 -4.0596e-18)
(8.68021e-06 -4.58651e-06 -2.32853e-17)
(8.13722e-06 -4.52885e-06 7.35935e-17)
(7.61939e-06 -4.46823e-06 3.76539e-18)
(7.12441e-06 -4.40388e-06 -2.01335e-16)
(6.65045e-06 -4.33462e-06 9.98115e-17)
(6.19814e-06 -4.26074e-06 -1.07617e-17)
(5.76539e-06 -4.1853e-06 -1.40932e-16)
(5.34714e-06 -4.11105e-06 1.39825e-16)
(4.94316e-06 -4.03751e-06 1.9605e-16)
(4.55094e-06 -3.96814e-06 2.2277e-16)
(4.17324e-06 -3.90036e-06 -6.485e-17)
(3.80798e-06 -3.84281e-06 2.01685e-16)
(3.45589e-06 -3.79058e-06 -3.05797e-16)
(3.11904e-06 -3.75476e-06 3.08944e-17)
(2.79432e-06 -3.70168e-06 -1.28287e-16)
(2.58429e-06 -3.83207e-06 4.28144e-16)
(2.34744e-06 -3.75179e-06 1.15582e-17)
(2.11422e-06 -3.74649e-06 1.74905e-18)
(1.88523e-06 -3.63732e-06 -3.62053e-16)
(1.65362e-06 -3.72327e-06 1.26633e-16)
(1.44665e-06 -3.51328e-06 8.95272e-17)
(1.24323e-06 -3.81368e-06 5.12767e-16)
(1.12038e-06 -3.25457e-06 1.15849e-16)
(9.79591e-07 -4.09246e-06 -1.08908e-15)
(9.45787e-07 -2.69479e-06 -2.84457e-16)
(8.79949e-07 -4.80265e-06 -1.41971e-16)
(7.27218e-07 -1.4485e-06 1.93979e-16)
(1.88718e-06 -6.54993e-06 3.55152e-16)
(-9.04655e-05 -2.83452e-05 -4.31971e-18)
(-8.76865e-05 -2.58889e-05 -3.26253e-18)
(-6.35888e-05 -1.92336e-05 9.26534e-18)
(-6.10868e-05 -1.71421e-05 2.77026e-18)
(-5.88807e-05 -1.55547e-05 -5.179e-18)
(-5.67335e-05 -1.4342e-05 -1.67417e-17)
(-5.45367e-05 -1.35865e-05 -7.59624e-18)
(-5.17959e-05 -1.29485e-05 1.3304e-17)
(-4.73005e-05 -1.22777e-05 -8.53255e-18)
(-5.15905e-05 -1.08174e-05 -1.11061e-17)
(-4.40609e-05 -9.96496e-06 4.24149e-18)
(5.07212e-05 -9.6994e-06 9.35065e-20)
(-0.000127037 -9.52001e-06 8.42434e-18)
(-2.94968e-05 -1.83487e-06 -4.33366e-18)
(-6.36376e-05 -1.62124e-05 -1.52266e-18)
(2.19933e-05 -3.78321e-06 1.99316e-17)
(-5.51689e-06 -9.60248e-06 3.48994e-17)
(7.35998e-06 -7.99643e-06 -1.08193e-17)
(-9.23472e-06 -9.64135e-06 3.77992e-18)
(-2.173e-05 -1.03385e-05 1.15138e-17)
(-2.21403e-05 -1.01754e-05 2.06526e-18)
(-1.34472e-06 -8.53265e-06 3.76987e-18)
(3.79908e-05 -5.1611e-06 5.9409e-18)
(8.3481e-05 -8.08468e-07 5.68204e-17)
(0.000121572 4.16843e-06 2.01949e-17)
(0.000137292 7.34004e-06 -4.37522e-19)
(0.000121185 6.91383e-06 9.0662e-18)
(8.52571e-05 3.76239e-06 1.20128e-18)
(5.00864e-05 8.92969e-09 1.42013e-17)
(2.97197e-05 -2.46643e-06 -1.93275e-18)
(2.51537e-05 -3.09154e-06 -2.46235e-17)
(2.75982e-05 -2.63812e-06 -2.7303e-17)
(2.91088e-05 -2.0462e-06 1.81688e-17)
(2.74077e-05 -1.83543e-06 8.53321e-18)
(2.45189e-05 -1.92861e-06 -2.9171e-18)
(2.15824e-05 -2.1962e-06 -3.01254e-18)
(1.95041e-05 -2.44255e-06 8.40061e-18)
(1.79454e-05 -2.64385e-06 8.84233e-18)
(1.65936e-05 -2.79032e-06 -8.45105e-18)
(1.52942e-05 -2.90573e-06 8.77384e-18)
(1.40661e-05 -2.99318e-06 1.29339e-17)
(1.29539e-05 -3.07035e-06 6.61682e-18)
(1.19661e-05 -3.13835e-06 -4.98246e-18)
(1.10865e-05 -3.20793e-06 -1.87625e-18)
(1.0293e-05 -3.26649e-06 -6.03416e-18)
(9.57244e-06 -3.31592e-06 1.63777e-17)
(8.91601e-06 -3.34745e-06 3.21825e-17)
(8.31726e-06 -3.36731e-06 -1.61316e-17)
(7.77134e-06 -3.37361e-06 1.65992e-17)
(7.267e-06 -3.37856e-06 2.0518e-17)
(6.80331e-06 -3.37127e-06 2.91239e-17)
(6.37259e-06 -3.35567e-06 3.75287e-17)
(5.97407e-06 -3.33083e-06 -1.41441e-18)
(5.59815e-06 -3.30199e-06 2.11168e-17)
(5.24481e-06 -3.26604e-06 8.46172e-17)
(4.90861e-06 -3.22642e-06 -2.88209e-17)
(4.58998e-06 -3.18099e-06 -9.73763e-18)
(4.28577e-06 -3.13158e-06 1.52069e-16)
(3.99313e-06 -3.08169e-06 5.02093e-19)
(3.71041e-06 -3.03185e-06 1.22914e-16)
(3.43412e-06 -2.98514e-06 -3.38044e-16)
(3.16832e-06 -2.94026e-06 -1.05917e-16)
(2.90886e-06 -2.90524e-06 -2.16649e-17)
(2.66073e-06 -2.87633e-06 -2.08685e-16)
(2.42025e-06 -2.86221e-06 9.67876e-17)
(2.19013e-06 -2.83838e-06 6.35246e-17)
(2.05579e-06 -2.98691e-06 -5.86309e-18)
(1.88241e-06 -2.93537e-06 -1.60234e-16)
(1.71441e-06 -2.93766e-06 -8.82221e-17)
(1.54432e-06 -2.87904e-06 8.91927e-17)
(1.37052e-06 -2.97196e-06 -5.30533e-17)
(1.21482e-06 -2.82283e-06 -4.10593e-17)
(1.05209e-06 -3.1021e-06 5.36259e-16)
(9.57053e-07 -2.69038e-06 7.81893e-17)
(8.19868e-07 -3.43994e-06 3.72248e-16)
(8.31818e-07 -2.32144e-06 4.27194e-16)
(7.40212e-07 -4.25171e-06 6.33078e-17)
(6.77521e-07 -1.32915e-06 2.74039e-16)
(1.73165e-06 -6.22386e-06 8.45818e-17)
(-0.000104734 -2.07794e-05 -2.50705e-19)
(-9.88215e-05 -1.92848e-05 -1.18103e-18)
(-6.92659e-05 -1.5601e-05 -1.29226e-18)
(-6.58513e-05 -1.38759e-05 -1.61041e-18)
(-6.28415e-05 -1.24958e-05 7.39615e-18)
(-5.99797e-05 -1.11862e-05 1.50598e-17)
(-5.72276e-05 -1.03108e-05 1.04089e-17)
(-5.45595e-05 -9.75995e-06 -4.59928e-18)
(-5.20985e-05 -9.36064e-06 5.16939e-18)
(-5.00588e-05 -9.02214e-06 1.59313e-17)
(-4.71175e-05 -8.26264e-06 -5.89906e-18)
(-5.42513e-05 -7.90333e-06 2.18681e-18)
(-4.55531e-05 -1.00139e-05 6.87104e-18)
(-4.69327e-05 -7.951e-06 5.05445e-18)
(-4.29114e-05 -6.59758e-06 6.26377e-19)
(-3.51022e-05 -7.00346e-06 2.23357e-18)
(-2.25216e-05 -6.33198e-06 -8.97224e-18)
(-3.55486e-06 -5.28551e-06 9.39199e-18)
(8.30622e-06 -4.80042e-06 9.47126e-18)
(7.5825e-06 -4.9756e-06 -9.5461e-18)
(-5.34007e-06 -5.80902e-06 -9.62997e-19)
(-1.8492e-05 -6.48572e-06 3.41883e-18)
(-1.85868e-05 -6.25108e-06 -9.63993e-18)
(1.17075e-06 -4.61491e-06 -3.93259e-17)
(3.89637e-05 -1.22675e-06 -3.34772e-17)
(8.30945e-05 3.01135e-06 1.88615e-17)
(0.000115524 6.34402e-06 -1.38609e-19)
(0.000123253 7.49979e-06 3.41153e-18)
(0.000105384 6.20849e-06 -2.71332e-17)
(7.3199e-05 3.26872e-06 -3.44598e-17)
(4.38019e-05 3.13789e-07 -1.58571e-18)
(2.82763e-05 -1.1924e-06 4.50978e-17)
(2.52382e-05 -9.52377e-07 -1.78467e-17)
(2.39934e-05 -1.54674e-06 -1.29117e-17)
(2.8484e-05 -1.18662e-06 -2.48641e-18)
(2.53579e-05 -1.29387e-06 6.13703e-18)
(2.27563e-05 -1.45052e-06 -7.88559e-18)
(1.99892e-05 -1.8065e-06 -4.54874e-19)
(1.80115e-05 -2.07274e-06 5.02067e-18)
(1.65288e-05 -2.26065e-06 -2.26637e-19)
(1.525e-05 -2.38893e-06 6.25085e-18)
(1.40222e-05 -2.50282e-06 -3.41233e-19)
(1.2864e-05 -2.61126e-06 3.30863e-18)
(1.18195e-05 -2.71499e-06 -4.73668e-19)
(1.08935e-05 -2.80383e-06 6.10858e-18)
(1.00644e-05 -2.88181e-06 -2.25712e-19)
(9.31435e-06 -2.94479e-06 -1.81327e-17)
(8.63161e-06 -3.0012e-06 -1.18355e-17)
(8.01226e-06 -3.04017e-06 -4.06608e-18)
(7.44751e-06 -3.06668e-06 2.26806e-17)
(6.93348e-06 -3.07792e-06 5.4495e-17)
(6.4591e-06 -3.08786e-06 -2.83291e-18)
(6.025e-06 -3.08538e-06 -3.15011e-17)
(5.62061e-06 -3.07987e-06 2.11609e-17)
(5.24518e-06 -3.06388e-06 4.56231e-17)
(4.891e-06 -3.04156e-06 -5.91663e-17)
(4.56054e-06 -3.00888e-06 9.77819e-17)
(4.24732e-06 -2.97223e-06 5.16369e-17)
(3.95027e-06 -2.93015e-06 1.26357e-17)
(3.66452e-06 -2.88711e-06 1.82649e-16)
(3.38813e-06 -2.84487e-06 7.42568e-17)
(3.12212e-06 -2.80507e-06 -1.63556e-16)
(2.86355e-06 -2.77404e-06 1.63335e-16)
(2.61822e-06 -2.74889e-06 1.11081e-16)
(2.38077e-06 -2.73887e-06 -1.69013e-16)
(2.15741e-06 -2.71821e-06 2.13735e-17)
(2.01899e-06 -2.87731e-06 -6.0607e-17)
(1.86043e-06 -2.81742e-06 -1.39929e-16)
(1.69333e-06 -2.82935e-06 -6.27135e-17)
(1.52949e-06 -2.77189e-06 3.12428e-17)
(1.36409e-06 -2.8549e-06 8.91021e-17)
(1.21057e-06 -2.72537e-06 -9.96263e-17)
(1.04107e-06 -2.97934e-06 -4.09946e-16)
(9.44802e-07 -2.59553e-06 -1.06302e-16)
(7.9861e-07 -3.29966e-06 1.966e-16)
(8.08767e-07 -2.24671e-06 -2.16242e-16)
(7.06388e-07 -4.07976e-06 -3.47917e-16)
(6.51043e-07 -1.30238e-06 -2.05653e-16)
(1.67837e-06 -6.00981e-06 -3.34963e-16)
(-0.000106445 -1.21584e-05 1.08107e-18)
(-9.69854e-05 -1.19677e-05 5.43686e-18)
(-6.52463e-05 -1.04766e-05 -6.39528e-19)
(-6.16828e-05 -9.72434e-06 -2.31935e-18)
(-5.84554e-05 -9.18944e-06 -4.47315e-18)
(-5.54538e-05 -8.32846e-06 -5.83531e-18)
(-5.265e-05 -7.57564e-06 -5.50468e-18)
(-5.00306e-05 -7.07421e-06 -4.19365e-18)
(-4.76079e-05 -6.81905e-06 -2.30892e-18)
(-4.55086e-05 -6.63721e-06 8.96018e-19)
(-4.30389e-05 -6.4386e-06 1.00341e-17)
(-3.94093e-05 -6.26025e-06 5.95703e-19)
(-4.13147e-05 -5.89106e-06 -5.61181e-19)
(-3.95028e-05 -5.71784e-06 -8.51059e-18)
(-4.16367e-05 -6.17561e-06 4.50385e-19)
(-4.18726e-05 -6.13858e-06 -1.84422e-18)
(-4.0858e-05 -6.23113e-06 -1.32356e-17)
(-3.23897e-05 -5.79403e-06 -3.81001e-18)
(-1.8475e-05 -5.00679e-06 -6.20263e-19)
(-1.9788e-06 -3.9628e-06 6.35082e-18)
(8.12395e-06 -3.34139e-06 5.0975e-18)
(5.67438e-06 -3.51635e-06 -5.21108e-18)
(-6.4692e-06 -4.34771e-06 -9.7097e-18)
(-1.68263e-05 -4.98334e-06 -9.84452e-18)