/*--------------------------------*- C++ -*----------------------------------*\
| =========                 |                                                 |
| \\      /  F ield         | OpenFOAM: The Open Source CFD Toolbox           |
|  \\    /   O peration     | Version:  2506                                  |
|   \\  /    A nd           | Website:  www.openfoam.com                      |
|    \\/     M anipulation  |                                                 |
\*---------------------------------------------------------------------------*/
FoamFile
{
    version     2.0;
    format      ascii;
    arch        "LSB;label=32;scalar=64";
    class       volScalarField;
    location    "350";
    object      turbulenceProperties:nut;
}
// * * * * * * * * * * * * * * * * * * * * * * * * * * * * * * * * * * * * * //

dimensions      [0 2 -1 0 0 0 0];

internalField   nonuniform List<scalar> 
1340
(
6.102e-06
6.10275e-06
6.10233e-06
6.08334e-06
6.10338e-06
6.10276e-06
6.08133e-06
6.08325e-06
6.10406e-06
6.10328e-06
6.07231e-06
6.07456e-06
6.08122e-06
6.08315e-06
6.10476e-06
6.10389e-06
6.07744e-06
6.07309e-06
6.07228e-06
6.0745e-06
6.08111e-06
6.08302e-06
6.1055e-06
6.1046e-06
6.09024e-06
6.08641e-06
6.08221e-06
6.07784e-06
6.07333e-06
6.07225e-06
6.07442e-06
6.08099e-06
6.08286e-06
6.10628e-06
6.1054e-06
6.09964e-06
6.09675e-06
6.0941e-06
6.09085e-06
6.08698e-06
6.0827e-06
6.07828e-06
6.0736e-06
6.07224e-06
6.07433e-06
6.08087e-06
6.08268e-06
6.10707e-06
6.1063e-06
6.11214e-06
6.11003e-06
6.10728e-06
6.1039e-06
6.10039e-06
6.09744e-06
6.09477e-06
6.09149e-06
6.08759e-06
6.08323e-06
6.07874e-06
6.07391e-06
6.07224e-06
6.07423e-06
6.08076e-06
6.08247e-06
6.10789e-06
6.1073e-06
6.1186e-06
6.11784e-06
6.11692e-06
6.11584e-06
6.11458e-06
6.11302e-06
6.11092e-06
6.10818e-06
6.10477e-06
6.1012e-06
6.09819e-06
6.09548e-06
6.09218e-06
6.08824e-06
6.0838e-06
6.07923e-06
6.07425e-06
6.07227e-06
6.07413e-06
6.08063e-06
6.08223e-06
6.10872e-06
6.1084e-06
6.12117e-06
6.12114e-06
6.12111e-06
6.12103e-06
6.12085e-06
6.12055e-06
6.12011e-06
6.11952e-06
6.11876e-06
6.11784e-06
6.11676e-06
6.1155e-06
6.11394e-06
6.11187e-06
6.10913e-06
6.1057e-06
6.10205e-06
6.09897e-06
6.09623e-06
6.09291e-06
6.08893e-06
6.08441e-06
6.07976e-06
6.07463e-06
6.07232e-06
6.07401e-06
6.0805e-06
6.08195e-06
6.10956e-06
6.1096e-06
6.12283e-06
6.12358e-06
6.12338e-06
6.12312e-06
6.12289e-06
6.12261e-06
6.12238e-06
6.12225e-06
6.12219e-06
6.12215e-06
6.12213e-06
6.12211e-06
6.12208e-06
6.12205e-06
6.12202e-06
6.12194e-06
6.12178e-06
6.12149e-06
6.12106e-06
6.12048e-06
6.11973e-06
6.1188e-06
6.11772e-06
6.11646e-06
6.11491e-06
6.11286e-06
6.11014e-06
6.10668e-06
6.10297e-06
6.09981e-06
6.09703e-06
6.09369e-06
6.08967e-06
6.08506e-06
6.08033e-06
6.07505e-06
6.0724e-06
6.07388e-06
6.08037e-06
6.08165e-06
6.1104e-06
6.1109e-06
6.41664e-10
2.95614e-12
0
0
0.000148304
0.000474782
0.0161335
0.0552269
0.112703
0.176128
0.235552
0.285661
0.324122
0.35047
0.36588
0.3727
0.37385
0.362871
0.331031
0.272252
0.189117
0.0998191
0.0327094
0.00162874
0.000471005
0
0
0
1.68354e-09
3.90206e-07
6.1555e-06
8.00324e-06
6.45046e-06
5.9043e-06
6.032e-06
6.14133e-06
6.1419e-06
6.12823e-06
6.12608e-06
6.1257e-06
6.12428e-06
6.12352e-06
6.12347e-06
6.12344e-06
6.1233e-06
6.12317e-06
6.1231e-06
6.12308e-06
6.12306e-06
6.12303e-06
6.123e-06
6.12297e-06
6.1229e-06
6.12275e-06
6.12248e-06
6.12206e-06
6.12149e-06
6.12074e-06
6.11982e-06
6.11874e-06
6.11747e-06
6.11594e-06
6.1139e-06
6.1112e-06
6.10772e-06
6.10394e-06
6.1007e-06
6.09788e-06
6.09452e-06
6.09045e-06
6.08577e-06
6.08094e-06
6.07552e-06
6.07251e-06
6.07375e-06
6.08022e-06
6.08132e-06
6.11123e-06
6.1123e-06
6.109e-06
3.25899e-09
1.6126e-11
0
0
1.74449e-09
0.00209391
0.00822865
0.0367068
0.0875896
0.150409
0.21321
0.268312
0.311965
0.342881
0.361634
0.370791
0.373083
0.364469
0.336213
0.281379
0.201323
0.112306
0.0400658
0.00373801
0.00103624
0
0
0
2.85961e-10
5.63783e-08
5.09563e-06
8.71933e-06
6.97084e-06
5.98274e-06
5.99217e-06
6.12056e-06
6.1326e-06
6.11876e-06
6.12157e-06
6.12691e-06
6.12683e-06
6.12496e-06
6.12417e-06
6.12417e-06
6.12421e-06
6.12415e-06
6.12409e-06
6.12406e-06
6.12403e-06
6.124e-06
6.12397e-06
6.12391e-06
6.12377e-06
6.12352e-06
6.12311e-06
6.12255e-06
6.12181e-06
6.1209e-06
6.11981e-06
6.11854e-06
6.11701e-06
6.115e-06
6.11232e-06
6.10883e-06
6.10498e-06
6.10165e-06
6.09879e-06
6.0954e-06
6.09129e-06
6.08652e-06
6.08159e-06
6.07603e-06
6.07266e-06
6.07362e-06
6.08006e-06
6.08098e-06
6.11205e-06
6.11378e-06
7.96028e-06
6.17458e-06
5.67116e-08
2.69273e-10
0
0
0
0.00062469
0.0022953
0.0211361
0.0633476
0.123
0.187882
0.247809
0.297056
0.333216
0.356276
0.368342
0.371952
0.365628
0.340873
0.290102
0.213342
0.124126
0.0477329
0.00678363
0.00182587
0
0
0
1.46978e-12
5.37778e-11
2.77103e-06
8.24223e-06
7.30523e-06
6.0795e-06
5.9959e-06
6.16681e-06
6.18349e-06
6.13386e-06
6.11483e-06
6.12084e-06
6.12675e-06
6.127e-06
6.12567e-06
6.1251e-06
6.12511e-06
6.12516e-06
6.12513e-06
6.12509e-06
6.12505e-06
6.12502e-06
6.12497e-06
6.12484e-06
6.1246e-06
6.12422e-06
6.12367e-06
6.12294e-06
6.12203e-06
6.12093e-06
6.11967e-06
6.11815e-06
6.11616e-06
6.11351e-06
6.11001e-06
6.10608e-06
6.10267e-06
6.09975e-06
6.09633e-06
6.09219e-06
6.08733e-06
6.0823e-06
6.07659e-06
6.07286e-06
6.07348e-06
6.0799e-06
6.08064e-06
6.11284e-06
6.11537e-06
6.24399e-06
7.73857e-06
6.17547e-06
4.56515e-07
2.13148e-09
0
0
0
9.27969e-06
5.2813e-05
0.0107616
0.0420821
0.095595
0.1605
0.224661
0.279771
0.321752
0.349675
0.364986
0.370012
0.365842
0.34452
0.297861
0.224398
0.135338
0.0555982
0.0102568
0.00270864
0
0
0
7.65968e-17
7.89875e-09
1.92901e-06
7.90363e-06
7.69883e-06
6.00667e-06
5.67791e-06
5.98212e-06
6.18136e-06
6.18079e-06
6.1353e-06
6.11911e-06
6.12269e-06
6.12683e-06
6.12722e-06
6.12647e-06
6.12616e-06
6.12618e-06
6.12621e-06
6.12617e-06
6.12613e-06
6.12608e-06
6.12597e-06
6.12574e-06
6.12538e-06
6.12484e-06
6.12413e-06
6.12322e-06
6.12212e-06
6.12085e-06
6.11934e-06
6.11738e-06
6.11475e-06
6.11126e-06
6.10727e-06
6.10375e-06
6.10077e-06
6.09733e-06
6.09314e-06
6.0882e-06
6.08306e-06
6.07721e-06
6.0731e-06
6.07335e-06
6.07971e-06
6.08028e-06
6.11358e-06
6.11702e-06
6.01845e-06
6.22345e-06
7.42899e-06
6.42183e-06
1.82035e-06
8.34985e-09
4.34614e-16
0
0
2.22251e-12
0.000972936
0.0036468
0.0244387
0.0683066
0.129659
0.196605
0.258182
0.307622
0.342159
0.36206
0.369517
0.36716
0.348994
0.306573
0.236666
0.148251
0.0651658
0.0135815
0.00396192
0.00011504
0
0
0
3.08721e-09
6.95882e-07
6.86969e-06
9.73429e-06
7.60671e-06
6.04707e-06
5.79187e-06
6.0058e-06
6.15314e-06
6.16347e-06
6.13568e-06
6.12373e-06
6.12517e-06
6.12767e-06
6.12792e-06
6.12747e-06
6.12729e-06
6.1273e-06
6.12729e-06
6.12724e-06
6.12714e-06
6.12694e-06
6.12659e-06
6.12608e-06
6.12537e-06
6.12447e-06
6.12338e-06
6.1221e-06
6.1206e-06
6.11866e-06
6.11607e-06
6.11259e-06
6.10853e-06
6.10492e-06
6.10186e-06
6.09838e-06
6.09416e-06
6.08914e-06
6.08388e-06
6.07789e-06
6.0734e-06
6.07323e-06
6.07952e-06
6.07992e-06
6.11432e-06
6.1188e-06
6.13386e-06
6.06541e-06
6.19952e-06
6.76607e-06
6.63726e-06
4.56401e-06
1.73962e-07
8.39364e-10
2.23906e-18
0
0
0.000158872
0.000577062
0.00992565
0.0352148
0.0805872
0.140508
0.204999
0.264234
0.311532
0.343842
0.361361
0.364905
0.354243
0.322695
0.265327
0.186406
0.102788
0.0406127
0.00592349
0.00197659
1.59253e-05
0
0
5.89893e-13
1.97096e-09
2.64693e-07
4.53053e-06
8.41365e-06
7.63878e-06
6.28308e-06
5.8801e-06
5.99729e-06
6.13275e-06
6.1559e-06
6.13574e-06
6.12557e-06
6.12681e-06
6.12897e-06
6.12919e-06
6.12882e-06
6.12869e-06
6.12869e-06
6.12863e-06
6.12846e-06
6.12814e-06
6.12765e-06
6.12696e-06
6.12606e-06
6.12497e-06
6.12368e-06
6.12218e-06
6.12026e-06
6.11771e-06
6.11424e-06
6.11011e-06
6.10636e-06
6.1032e-06
6.09967e-06
6.09541e-06
6.09028e-06
6.08487e-06
6.07872e-06
6.07381e-06
6.07309e-06
6.07931e-06
6.07956e-06
6.11497e-06
6.12069e-06
6.13847e-06
6.13461e-06
6.08031e-06
6.13246e-06
6.39225e-06
7.24139e-06
6.07188e-06
3.07643e-06
1.52374e-09
9.58263e-12
0
0
1.07229e-09
4.715e-05
0.00231889
0.00858654
0.0315926
0.0738121
0.131366
0.195253
0.25546
0.304449
0.338404
0.356346
0.35835
0.34255
0.302991
0.238124
0.158331
0.082378
0.0297599
0.00261985
0.000951507
2.97428e-07
0
0
1.29168e-13
2.02744e-09
3.74284e-07
5.13357e-06
8.5178e-06
7.39133e-06
6.14563e-06
5.89511e-06
6.05284e-06
6.15639e-06
6.15403e-06
6.13258e-06
6.12736e-06
6.12983e-06
6.13115e-06
6.13094e-06
6.13062e-06
6.13047e-06
6.13031e-06
6.13002e-06
6.12956e-06
6.1289e-06
6.12801e-06
6.12691e-06
6.1256e-06
6.12408e-06
6.12219e-06
6.11967e-06
6.11623e-06
6.11201e-06
6.10811e-06
6.1048e-06
6.1012e-06
6.09688e-06
6.09164e-06
6.08604e-06
6.0797e-06
6.07433e-06
6.07297e-06
6.07907e-06
6.07923e-06
6.11562e-06
6.12269e-06
6.12773e-06
6.13274e-06
6.12709e-06
6.10645e-06
6.09683e-06
6.28508e-06
6.7793e-06
7.27021e-06
5.27992e-06
9.58816e-07
4.51389e-09
1.58865e-16
0
0
0
3.81999e-05
0.00202495
0.00741885
0.0294586
0.0707107
0.127779
0.191905
0.2529
0.302697
0.336779
0.35289
0.350775
0.326891
0.277348
0.206237
0.127564
0.0595939
0.0164206
0.000843496
0.000338595
0
0
0
2.26613e-13
6.44021e-09
1.40712e-06
7.17542e-06
8.33222e-06
6.70172e-06
5.91715e-06
5.94958e-06
6.11822e-06
6.16238e-06
6.14244e-06
6.12967e-06
6.13006e-06
6.13213e-06
6.13258e-06
6.13248e-06
6.13235e-06
6.13207e-06
6.13159e-06
6.13093e-06
6.13005e-06
6.12895e-06
6.12763e-06
6.12609e-06
6.12421e-06
6.12173e-06
6.11833e-06
6.11405e-06
6.10999e-06
6.10652e-06
6.10282e-06
6.09845e-06
6.09309e-06
6.08731e-06
6.08077e-06
6.07496e-06
6.0729e-06
6.07881e-06
6.07888e-06
6.11618e-06
6.12472e-06
6.1257e-06
6.12811e-06
6.12708e-06
6.11792e-06
6.09062e-06
6.16754e-06
6.41724e-06
7.20176e-06
6.78945e-06
4.21571e-06
8.57213e-08
4.16504e-10
0
0
0
0
3.02712e-05
0.00201115
0.00739394
0.0295743
0.0712025
0.128906
0.193827
0.255355
0.304657
0.336618
0.347848
0.338486
0.304642
0.245864
0.170631
0.0947408
0.038207
0.00668273
0.0019799
2.33369e-11
0
0
0
7.21813e-10
1.3817e-07
4.48919e-06
8.66626e-06
7.56488e-06
6.17214e-06
5.90296e-06
6.06334e-06
6.15921e-06
6.15469e-06
6.13754e-06
6.13404e-06
6.13475e-06
6.13447e-06
6.13405e-06
6.13394e-06
6.1337e-06
6.13311e-06
6.13222e-06
6.13111e-06
6.12977e-06
6.12821e-06
6.12633e-06
6.1239e-06
6.12055e-06
6.11623e-06
6.11203e-06
6.10838e-06
6.10456e-06
6.10013e-06
6.09467e-06
6.0887e-06
6.08195e-06
6.07571e-06
6.07288e-06
6.07851e-06
6.07852e-06
6.11661e-06
6.12674e-06
6.12423e-06
6.12485e-06
6.12579e-06
6.1279e-06
6.11895e-06
6.10626e-06
6.0845e-06
6.25427e-06
6.67175e-06
7.33709e-06
6.03406e-06
1.5793e-06
7.47193e-09
2.56898e-16
0
0
0
0
3.4541e-05
0.00225157
0.0083666
0.0319378
0.0754355
0.134923
0.20091
0.262072
0.308842
0.335865
0.340322
0.321268
0.276338
0.208686
0.131453
0.0629723
0.0192329
4.02586e-05
0.000123261
0
0
0
1.03961e-13
6.33851e-09
1.4023e-06
7.47696e-06
8.15248e-06
6.54481e-06
5.91213e-06
5.99523e-06
6.12892e-06
6.14754e-06
6.13401e-06
6.13358e-06
6.13771e-06
6.1381e-06
6.13666e-06
6.13573e-06
6.1352e-06
6.13447e-06
6.13339e-06
6.13203e-06
6.13045e-06
6.12857e-06
6.12618e-06
6.12289e-06
6.11856e-06
6.11423e-06
6.11039e-06
6.10642e-06
6.10192e-06
6.09636e-06
6.0902e-06
6.08324e-06
6.07658e-06
6.07293e-06
6.0782e-06
6.07813e-06
6.11692e-06
6.12874e-06
6.12411e-06
6.12434e-06
6.12459e-06
6.12546e-06
6.12642e-06
6.1247e-06
6.11096e-06
6.08583e-06
6.12586e-06
6.34516e-06
7.07172e-06
6.97451e-06
4.53074e-06
1.10201e-07
5.45288e-10
6.44732e-20
0
0
0
0
0.000107136
0.000170583
0.0101795
0.036589
0.0835393
0.145803
0.212638
0.271889
0.314001
0.333311
0.328478
0.297512
0.240559
0.166154
0.0912917
0.0351036
0.00534981
0.00158193
0
0
0
0
1.64532e-09
3.67934e-07
5.60494e-06
8.57577e-06
7.08102e-06
6.05378e-06
6.00844e-06
6.16222e-06
6.18147e-06
6.14212e-06
6.12756e-06
6.13351e-06
6.1388e-06
6.13913e-06
6.1379e-06
6.13681e-06
6.13574e-06
6.13442e-06
6.13283e-06
6.13094e-06
6.12858e-06
6.12537e-06
6.12106e-06
6.11663e-06
6.11259e-06
6.10844e-06
6.10385e-06
6.09821e-06
6.09186e-06
6.08466e-06
6.07761e-06
6.07309e-06
6.07785e-06
6.07771e-06
6.11704e-06
6.13071e-06
6.12444e-06
6.12464e-06
6.12484e-06
6.125e-06
6.12557e-06
6.12628e-06
6.12736e-06
6.11842e-06
6.10234e-06
6.07197e-06
6.20399e-06
6.56247e-06
7.40752e-06
5.7442e-06
2.39327e-06
2.23055e-11
3.16234e-13
0
0
0
0
3.06758e-11
0.000160999
0.000271293
0.0132307
0.0446129
0.0962989
0.16171
0.228438
0.283582
0.318191
0.327138
0.310069
0.265297
0.197226
0.120735
0.0546915
0.0147068
0.00399892
3.68098e-05
0
0
0
1.11034e-10
1.80164e-08
3.15483e-06
8.22927e-06
7.39691e-06
5.92794e-06
5.75229e-06
6.05614e-06
6.20903e-06
6.1883e-06
6.14682e-06
6.13553e-06
6.13818e-06
6.14008e-06
6.13957e-06
6.1383e-06
6.13689e-06
6.13527e-06
6.13338e-06
6.13105e-06
6.12792e-06
6.12365e-06
6.11915e-06
6.11491e-06
6.11056e-06
6.10586e-06
6.10013e-06
6.09361e-06
6.08617e-06
6.07872e-06
6.07334e-06
6.07754e-06
6.07728e-06
6.11712e-06
6.1326e-06
6.12504e-06
6.12521e-06
6.1254e-06
6.12558e-06
6.12579e-06
6.12601e-06
6.12694e-06
6.12767e-06
6.12645e-06
6.11173e-06
6.08737e-06
6.09319e-06
6.35408e-06
6.92916e-06
7.29589e-06
4.46311e-06
6.30591e-07
2.98566e-09
7.40174e-16
0
0
0
0
2.07639e-10
0.000598173
0.00193835
0.0186503
0.0564025
0.114069
0.182192
0.246753
0.294652
0.317835
0.313672
0.280852
0.221268
0.14598
0.0740815
0.0250939
0.00297475
0.000725573
0
0
0
1.73795e-14
6.53804e-09
1.54203e-06
9.09979e-06
9.72074e-06
6.9726e-06
5.7747e-06
5.81496e-06
6.07202e-06
6.16822e-06
6.16109e-06
6.14531e-06
6.14142e-06
6.14158e-06
6.14109e-06
6.13977e-06
6.1381e-06
6.13617e-06
6.13387e-06
6.13081e-06
6.12663e-06
6.12209e-06
6.11767e-06
6.11308e-06
6.10824e-06
6.1024e-06
6.09572e-06
6.08799e-06
6.08021e-06
6.07385e-06
6.07711e-06
6.07675e-06
6.11658e-06
6.13455e-06
6.12551e-06
6.12569e-06
6.12588e-06
6.12608e-06
6.12628e-06
6.12647e-06
6.12669e-06
6.12725e-06
6.12822e-06
6.12918e-06
6.12233e-06
6.10233e-06
6.07226e-06
6.19661e-06
6.58027e-06
7.41641e-06
6.54394e-06
3.39862e-06
1.99479e-07
9.8978e-10
6.82235e-16
0
0
0
0
6.15992e-07
0.00152749
0.00563277
0.0284315
0.0742229
0.138968
0.210304
0.272411
0.312461
0.322493
0.301508
0.249413
0.173989
0.0944475
0.0305046
0.00157261
0.00143169
0.000451149
0.000138398
2.20362e-06
0
1.96632e-12
1.15183e-08
2.30247e-06
8.60101e-06
8.3539e-06
6.6893e-06
6.06201e-06
6.05032e-06
6.1267e-06
6.15045e-06
6.14783e-06
6.14431e-06
6.14299e-06
6.14186e-06
6.14028e-06
6.13833e-06
6.13603e-06
6.13305e-06
6.12895e-06
6.1244e-06
6.11983e-06
6.11502e-06
6.11003e-06
6.10415e-06
6.09729e-06
6.08942e-06
6.08118e-06
6.07426e-06
6.07703e-06
6.07643e-06
6.11718e-06
6.13598e-06
6.12603e-06
6.12625e-06
6.12648e-06
6.12673e-06
6.12698e-06
6.12725e-06
6.1275e-06
6.12779e-06
6.1281e-06
6.12908e-06
6.13012e-06
6.13083e-06
6.11615e-06
6.09571e-06
6.07964e-06
6.31002e-06
6.84502e-06
7.41324e-06
6.31155e-06
3.26519e-06
1.46734e-07
5.60949e-10
0
0
0
0
0
3.07636e-05
0.00172729
0.00592487
0.027598
0.0689277
0.12585
0.188117
0.242752
0.278759
0.28792
0.267591
0.219395
0.153437
0.0896782
0.0436259
0.0175785
0.00562302
0.00106509
0.000235612
0
0
2.29005e-09
4.71001e-07
3.84144e-06
6.32699e-06
6.51097e-06
6.24305e-06
6.14157e-06
6.14005e-06
6.14858e-06
6.14977e-06
6.14841e-06
6.14695e-06
6.14534e-06
6.14338e-06
6.14106e-06
6.13816e-06
6.13423e-06
6.12977e-06
6.12504e-06
6.1198e-06
6.11444e-06
6.10829e-06
6.10128e-06
6.09282e-06
6.08429e-06
6.07561e-06
6.077e-06
6.0757e-06
6.11449e-06
6.13952e-06
)
;

boundaryField
{
    inlet
    {
        type            freestream;
        freestreamValue uniform 1e-05;
        value           nonuniform List<scalar> 
27
(
6.102e-06
6.10233e-06
6.10276e-06
6.10328e-06
6.10389e-06
6.1046e-06
6.1054e-06
6.1063e-06
6.1073e-06
6.1084e-06
6.1096e-06
6.1109e-06
6.1123e-06
6.11378e-06
6.11537e-06
6.11702e-06
6.1188e-06
6.12069e-06
6.12269e-06
6.12472e-06
6.12674e-06
6.12874e-06
6.13071e-06
6.1326e-06
6.13455e-06
6.13598e-06
6.13952e-06
)
;
    }
    outlet
    {
        type            freestream;
        freestreamValue uniform 1e-05;
        value           nonuniform List<scalar> 
78
(
6.12603e-06
6.12625e-06
6.12648e-06
6.12673e-06
6.12698e-06
6.12725e-06
6.1275e-06
6.12779e-06
6.1281e-06
6.12908e-06
6.13012e-06
6.13083e-06
6.11615e-06
6.09571e-06
6.07964e-06
6.31002e-06
6.84502e-06
7.41324e-06
6.31155e-06
3.26519e-06
1.46734e-07
5.60949e-10
0
0
0
0
0
3.07636e-05
0.00172729
0.00592487
0.027598
0.0689277
0.12585
0.188117
0.242752
0.278759
0.28792
0.267591
0.219395
0.153437
0.0896782
0.0436259
0.0175785
0.00562302
0.00106509
0.000235612
0
0
2.29005e-09
4.71001e-07
3.84144e-06
6.32699e-06
6.51097e-06
6.24305e-06
6.14157e-06
6.14005e-06
6.14858e-06
6.14977e-06
6.14841e-06
6.14695e-06
6.14534e-06
6.14338e-06
6.14106e-06
6.13816e-06
6.13423e-06
6.12977e-06
6.12504e-06
6.1198e-06
6.11444e-06
6.10829e-06
6.10128e-06
6.09282e-06
6.08429e-06
6.07561e-06
6.077e-06
6.0757e-06
6.11449e-06
6.13952e-06
)
;
    }
    walls
    {
        type            nutUSpaldingWallFunction;
        value           nonuniform List<scalar> 0();
    }
    frontAndBack
    {
        type            empty;
    }
    procBoundary7to3
    {
        type            processor;
        value           nonuniform List<scalar> 
16
(
5.29559e-06
8.0879e-06
6.31958e-06
6.01743e-06
6.12711e-06
6.14501e-06
6.13168e-06
6.12659e-06
6.12493e-06
6.12493e-06
6.12404e-06
6.12389e-06
6.12426e-06
6.12487e-06
6.12533e-06
6.12581e-06
)
;
    }
    procBoundary7to6
    {
        type            processor;
        value           nonuniform List<scalar> 
91
(
6.10177e-06
6.10215e-06
6.10215e-06
6.0834e-06
6.0834e-06
6.08145e-06
6.08145e-06
6.07236e-06
6.07461e-06
6.07461e-06
6.07706e-06
6.07287e-06
6.07287e-06
6.08966e-06
6.08588e-06
6.08175e-06
6.08175e-06
6.09892e-06
6.09609e-06
6.09347e-06
6.09347e-06
6.1113e-06
6.10918e-06
6.10643e-06
6.10308e-06
6.10308e-06
6.11773e-06
6.11697e-06
6.11605e-06
6.11497e-06
6.11372e-06
6.11372e-06
6.1203e-06
6.12028e-06
6.12025e-06
6.12016e-06
6.11996e-06
6.11965e-06
6.1192e-06
6.1192e-06
6.12375e-06
6.12312e-06
6.12252e-06
6.1221e-06
6.12178e-06
6.12157e-06
6.12143e-06
6.12133e-06
6.12127e-06
6.12124e-06
6.12123e-06
6.1212e-06
6.1212e-06
3.32765e-18
0
3.11038e-11
0.00122145
0.00477092
0.0288401
0.0763617
0.137263
0.199219
0.254655
0.300004
0.333824
0.356246
0.369058
0.374831
0.374636
0.360954
0.325343
0.262661
0.176807
0.0879441
0.0264728
0.000135734
4.44196e-05
0
0
0
4.40688e-09
1.06562e-06
6.89978e-06
7.64165e-06
6.29783e-06
5.96429e-06
6.08843e-06
6.14865e-06
6.13477e-06
6.1232e-06
6.1232e-06
)
;
    }
}


// ************************************************************************* //
