/*--------------------------------*- C++ -*----------------------------------*\
| =========                 |                                                 |
| \\      /  F ield         | OpenFOAM: The Open Source CFD Toolbox           |
|  \\    /   O peration     | Version:  2506                                  |
|   \\  /    A nd           | Website:  www.openfoam.com                      |
|    \\/     M anipulation  |                                                 |
\*---------------------------------------------------------------------------*/
FoamFile
{
    version     2.0;
    format      ascii;
    arch        "LSB;label=32;scalar=64";
    class       volScalarField;
    location    "500";
    object      magR;
}
// * * * * * * * * * * * * * * * * * * * * * * * * * * * * * * * * * * * * * //

dimensions      [0 2 -2 0 0 0 0];

internalField   nonuniform List<scalar> 
1340
(
0.00059753
0.000602055
0.000605556
0.000507792
0.000512347
0.000516192
0.000518656
0.000519673
0.000434434
0.000438879
0.000442836
0.000445808
0.00044774
0.000448488
0.000447694
0.000373706
0.000377932
0.000381825
0.000384996
0.000387418
0.000388978
0.000389351
0.000388422
0.00032303
0.000326991
0.000330731
0.000333941
0.000336633
0.000338678
0.000339808
0.000339938
0.000338979
0.0002804
0.000284082
0.000287602
0.000290745
0.000293541
0.000295838
0.000297434
0.000298261
0.000298223
0.000244306
0.000247696
0.000250974
0.000253997
0.000256781
0.000259193
0.000261065
0.000262342
0.000262938
0.00026273
0.000213557
0.000216656
0.000219694
0.000222555
0.000225257
0.000227687
0.000229701
0.000231244
0.00023225
0.000232615
0.000232274
0.000187219
0.000190039
0.000192845
0.000195517
0.000198104
0.000200483
0.000202542
0.000204234
0.000205505
0.00020626
0.000206453
0.000164547
0.000167118
0.000169686
0.000172174
0.000174615
0.000176909
0.000178946
0.000180704
0.000182127
0.000183135
0.000183685
0.000183732
0.000144951
0.000147287
0.000149636
0.000151936
0.000154224
0.0001564
0.000158381
0.000160142
0.000161636
0.000162798
0.000163594
0.000163981
0.000127953
0.000130069
0.000132213
0.00013433
0.000136458
0.000138503
0.0001404
0.000142125
0.000143637
0.000144884
0.000145835
0.000146453
0.000146694
0.000113151
0.000115072
0.00011702
0.000118966
0.000120934
0.000122844
0.00012464
0.000126301
0.000127794
0.00012907
0.00013011
0.000130881
0.000131343
0.000100227
0.000101964
0.000103735
0.000105518
0.000107331
0.000109105
0.000110789
0.000112372
0.000113818
0.000115092
0.000116173
0.000117038
0.000117651
0.000117989
8.89084e-05
9.0479e-05
9.20893e-05
9.37162e-05
9.53814e-05
9.70214e-05
9.85928e-05
0.000100083
0.000101467
0.000102709
0.000103799
0.000104711
0.00010542
0.000105906
7.89715e-05
8.03902e-05
8.18538e-05
8.33359e-05
8.48619e-05
8.63719e-05
8.78293e-05
8.92254e-05
9.05345e-05
9.17305e-05
9.28026e-05
9.37307e-05
9.44952e-05
9.50752e-05
7.02285e-05
7.15097e-05
7.28367e-05
7.41863e-05
7.55805e-05
7.69672e-05
7.83121e-05
7.96127e-05
8.08417e-05
8.19803e-05
8.30175e-05
8.39397e-05
8.47267e-05
8.53651e-05
8.58355e-05
6.25192e-05
6.36769e-05
6.48783e-05
6.61052e-05
6.73773e-05
6.8646e-05
6.98848e-05
7.10892e-05
7.22371e-05
7.33105e-05
7.43024e-05
7.52009e-05
7.59897e-05
7.66588e-05
7.71895e-05
5.57088e-05
5.67552e-05
5.78415e-05
5.89559e-05
6.0115e-05
6.12731e-05
6.24114e-05
6.35215e-05
6.45882e-05
6.55932e-05
6.65327e-05
6.73947e-05
6.81698e-05
6.88465e-05
6.94103e-05
4.96833e-05
5.06272e-05
5.16099e-05
5.26205e-05
5.36741e-05
5.47308e-05
5.57726e-05
5.67933e-05
5.77791e-05
5.87152e-05
5.95974e-05
6.0418e-05
6.11674e-05
6.18369e-05
6.24152e-05
6.28889e-05
4.43437e-05
4.51944e-05
4.60829e-05
4.69989e-05
4.79549e-05
4.89177e-05
4.98691e-05
5.08055e-05
5.17133e-05
5.25814e-05
5.34052e-05
5.4179e-05
5.48941e-05
5.55455e-05
5.61215e-05
5.66136e-05
3.96047e-05
4.03719e-05
4.1174e-05
4.20034e-05
4.2871e-05
4.37459e-05
4.46134e-05
4.54705e-05
4.63042e-05
4.71052e-05
4.78704e-05
4.85947e-05
4.92713e-05
4.98961e-05
5.04609e-05
5.09568e-05
3.47734e-05
3.53942e-05
3.6085e-05
3.68091e-05
3.75592e-05
3.83453e-05
3.91396e-05
3.99293e-05
4.0712e-05
4.14752e-05
4.22121e-05
4.29198e-05
4.35939e-05
4.42296e-05
4.4823e-05
4.53678e-05
4.58563e-05
4.62793e-05
3.10896e-05
3.16483e-05
3.227e-05
3.29234e-05
3.36014e-05
3.43129e-05
3.50333e-05
3.57512e-05
3.64642e-05
3.7162e-05
3.78379e-05
3.84898e-05
3.91142e-05
3.97073e-05
4.0266e-05
4.07855e-05
4.12594e-05
4.16805e-05
2.781e-05
2.83124e-05
2.88717e-05
2.94609e-05
3.00731e-05
3.07167e-05
3.13692e-05
3.20212e-05
3.26698e-05
3.33067e-05
3.39247e-05
3.45233e-05
3.50996e-05
3.56501e-05
3.61726e-05
3.66633e-05
3.7117e-05
3.75277e-05
2.48872e-05
2.53387e-05
2.58416e-05
2.63725e-05
2.69252e-05
2.75065e-05
2.80971e-05
2.86881e-05
2.92778e-05
2.98576e-05
3.04218e-05
3.09702e-05
3.15e-05
3.20086e-05
3.24942e-05
3.29542e-05
3.33844e-05
3.37791e-05
3.41324e-05
2.22804e-05
2.26857e-05
2.31375e-05
2.36155e-05
2.41141e-05
2.4639e-05
2.51732e-05
2.57089e-05
2.6244e-05
2.67706e-05
2.72848e-05
2.77858e-05
2.82713e-05
2.87393e-05
2.91888e-05
2.96173e-05
3.00213e-05
3.03965e-05
3.07377e-05
1.99532e-05
2.03168e-05
2.07226e-05
2.11527e-05
2.16021e-05
2.20759e-05
2.25586e-05
2.30437e-05
2.35283e-05
2.40065e-05
2.44744e-05
2.49312e-05
2.5375e-05
2.58042e-05
2.62184e-05
2.66152e-05
2.69919e-05
2.73451e-05
2.76705e-05
1.7874e-05
1.82001e-05
1.85643e-05
1.89509e-05
1.9356e-05
1.97832e-05
2.02192e-05
2.06578e-05
2.10967e-05
2.15306e-05
2.19557e-05
2.23711e-05
2.27758e-05
2.31684e-05
2.35487e-05
2.39146e-05
2.42639e-05
2.45938e-05
2.49007e-05
1.60152e-05
1.63075e-05
1.66341e-05
1.69815e-05
1.73463e-05
1.77315e-05
1.81251e-05
1.85214e-05
1.89189e-05
1.93118e-05
1.96972e-05
2.00748e-05
2.04432e-05
2.08015e-05
2.11493e-05
2.1485e-05
2.18074e-05
2.21137e-05
2.24005e-05
1.43526e-05
1.46142e-05
1.49068e-05
1.52191e-05
1.55473e-05
1.58945e-05
1.62495e-05
1.66077e-05
1.6967e-05
1.73227e-05
1.76721e-05
1.80148e-05
1.83496e-05
1.86757e-05
1.89929e-05
1.93002e-05
1.95962e-05
1.98787e-05
2.01448e-05
2.03911e-05
1.28645e-05
1.30984e-05
1.33604e-05
1.36409e-05
1.39361e-05
1.42489e-05
1.45691e-05
1.48927e-05
1.52176e-05
1.55394e-05
1.58558e-05
1.61663e-05
1.647e-05
1.67663e-05
1.7055e-05
1.73354e-05
1.76061e-05
1.78653e-05
1.81108e-05
1.83394e-05
1.15318e-05
1.17408e-05
1.19751e-05
1.2227e-05
1.24926e-05
1.27742e-05
1.30632e-05
1.33552e-05
1.36489e-05
1.39398e-05
1.42262e-05
1.45073e-05
1.47826e-05
1.50514e-05
1.53137e-05
1.55686e-05
1.58153e-05
1.60523e-05
1.62775e-05
1.64881e-05
1.03377e-05
1.05243e-05
1.07338e-05
1.09598e-05
1.11987e-05
1.14523e-05
1.17129e-05
1.19767e-05
1.22419e-05
1.25051e-05
1.27642e-05
1.30187e-05
1.32678e-05
1.35114e-05
1.37492e-05
1.39805e-05
1.42047e-05
1.44205e-05
1.4626e-05
1.48189e-05
9.26747e-06
9.43369e-06
9.6211e-06
9.82376e-06
1.00386e-05
1.0267e-05
1.05021e-05
1.07403e-05
1.09801e-05
1.1218e-05
1.14523e-05
1.16825e-05
1.19079e-05
1.21283e-05
1.23435e-05
1.25531e-05
1.27564e-05
1.29522e-05
1.31391e-05
1.33147e-05
8.30773e-06
8.45572e-06
8.62316e-06
8.80491e-06
8.99812e-06
9.20385e-06
9.41601e-06
9.63124e-06
9.84803e-06
1.00632e-05
1.02751e-05
1.04833e-05
1.06872e-05
1.08864e-05
1.10811e-05
1.12706e-05
1.14544e-05
1.16316e-05
1.18009e-05
1.19602e-05
1.21071e-05
7.44675e-06
7.57841e-06
7.72788e-06
7.89093e-06
8.06466e-06
8.2501e-06
8.44163e-06
8.63623e-06
8.83235e-06
9.02702e-06
9.21875e-06
9.40712e-06
9.59138e-06
9.77147e-06
9.94731e-06
1.01185e-05
1.02844e-05
1.04444e-05
1.05971e-05
1.0741e-05
1.08737e-05
6.67414e-06
6.79113e-06
6.92454e-06
7.07075e-06
7.22707e-06
7.3943e-06
7.56736e-06
7.7435e-06
7.92104e-06
8.09724e-06
8.27081e-06
8.44122e-06
8.60784e-06
8.77058e-06
8.92935e-06
9.08377e-06
9.23342e-06
9.3776e-06
9.51512e-06
9.64455e-06
9.76399e-06
5.98059e-06
6.08445e-06
6.20346e-06
6.33459e-06
6.47533e-06
6.62627e-06
6.78283e-06
6.94236e-06
7.10323e-06
7.26297e-06
7.4202e-06
7.57452e-06
7.72525e-06
7.87232e-06
8.01559e-06
8.15483e-06
8.28961e-06
8.41924e-06
8.54279e-06
8.65892e-06
8.76592e-06
5.35784e-06
5.44996e-06
5.55607e-06
5.67371e-06
5.80054e-06
5.93692e-06
6.07875e-06
6.22343e-06
6.36944e-06
6.5144e-06
6.65702e-06
6.79683e-06
6.93328e-06
7.06617e-06
7.19551e-06
7.32101e-06
7.44227e-06
7.5587e-06
7.6695e-06
7.77346e-06
7.86897e-06
4.79852e-06
4.88012e-06
4.97472e-06
5.08034e-06
5.19469e-06
5.31812e-06
5.44681e-06
5.57829e-06
5.71105e-06
5.84276e-06
5.97227e-06
6.09908e-06
6.22269e-06
6.34292e-06
6.45973e-06
6.5728e-06
6.68187e-06
6.78638e-06
6.88559e-06
6.97842e-06
7.06351e-06
7.13951e-06
4.29606e-06
4.36826e-06
4.45259e-06
4.54746e-06
4.65071e-06
4.76261e-06
4.87962e-06
4.99934e-06
5.12025e-06
5.24015e-06
5.35795e-06
5.47315e-06
5.58527e-06
5.69413e-06
5.79966e-06
5.9016e-06
5.99972e-06
6.09347e-06
6.18217e-06
6.26493e-06
6.34054e-06
6.40775e-06
3.84457e-06
3.90839e-06
3.98356e-06
4.06884e-06
4.16225e-06
4.26391e-06
4.37054e-06
4.47978e-06
4.59012e-06
4.69952e-06
4.8069e-06
4.91174e-06
5.01358e-06
5.11225e-06
5.20766e-06
5.29964e-06
5.38791e-06
5.47197e-06
5.55123e-06
5.62495e-06
5.69198e-06
5.75125e-06
3.43881e-06
3.49516e-06
3.56216e-06
3.63893e-06
3.72362e-06
3.81619e-06
3.9136e-06
4.01354e-06
4.1145e-06
4.21455e-06
4.31261e-06
4.40822e-06
4.5009e-06
4.59047e-06
4.67685e-06
4.75988e-06
4.83931e-06
4.9147e-06
4.98556e-06
5.05112e-06
5.11045e-06
5.16262e-06
3.0741e-06
3.12378e-06
3.18352e-06
3.25276e-06
3.32969e-06
3.41422e-06
3.50349e-06
3.59516e-06
3.6878e-06
3.77952e-06
3.8693e-06
3.95668e-06
4.04117e-06
4.12262e-06
4.20096e-06
4.27601e-06
4.34755e-06
4.41524e-06
4.47856e-06
4.53684e-06
4.58929e-06
4.63513e-06
2.74624e-06
2.78998e-06
2.84327e-06
2.90582e-06
2.97591e-06
3.05337e-06
3.1354e-06
3.21977e-06
3.30502e-06
3.38936e-06
3.47178e-06
3.55181e-06
3.629e-06
3.70322e-06
3.7744e-06
3.84235e-06
3.90686e-06
3.96765e-06
4.02424e-06
4.07606e-06
4.12243e-06
4.16263e-06
2.45147e-06
2.48993e-06
2.5375e-06
2.59416e-06
2.65823e-06
2.72943e-06
2.80507e-06
2.88296e-06
2.96166e-06
3.03944e-06
3.11531e-06
3.18881e-06
3.25952e-06
3.3273e-06
3.39208e-06
3.4537e-06
3.51197e-06
3.56665e-06
3.61728e-06
3.66341e-06
3.70437e-06
3.73959e-06
2.18644e-06
2.22021e-06
2.2627e-06
2.31418e-06
2.37297e-06
2.43863e-06
2.50864e-06
2.5808e-06
2.65368e-06
2.72562e-06
2.79566e-06
2.86337e-06
2.92833e-06
2.99037e-06
3.04946e-06
3.10548e-06
3.15827e-06
3.20753e-06
3.25292e-06
3.29401e-06
3.33022e-06
3.36106e-06
3.38599e-06
1.94814e-06
1.97774e-06
2.01575e-06
2.06269e-06
2.11682e-06
2.17761e-06
2.24265e-06
2.30973e-06
2.37746e-06
2.44421e-06
2.50909e-06
2.57165e-06
2.63148e-06
2.68843e-06
2.7425e-06
2.79357e-06
2.8415e-06
2.88602e-06
2.9268e-06
2.96346e-06
2.99551e-06
3.02252e-06
3.04408e-06
1.73387e-06
1.75976e-06
1.79383e-06
1.83682e-06
1.88685e-06
1.94335e-06
2.00402e-06
2.06657e-06
2.12973e-06
2.19188e-06
2.25217e-06
2.31018e-06
2.36543e-06
2.41786e-06
2.46749e-06
2.51422e-06
2.55787e-06
2.59819e-06
2.6349e-06
2.66764e-06
2.696e-06
2.71966e-06
2.73827e-06
1.54123e-06
1.56383e-06
1.59444e-06
1.634e-06
1.68041e-06
1.73316e-06
1.78993e-06
1.84845e-06
1.90756e-06
1.96558e-06
2.02181e-06
2.0758e-06
2.12701e-06
2.17541e-06
2.2211e-06
2.26396e-06
2.30376e-06
2.34027e-06
2.37326e-06
2.40244e-06
2.42749e-06
2.44815e-06
2.46416e-06
1.36804e-06
1.38773e-06
1.41532e-06
1.4519e-06
1.49512e-06
1.54459e-06
1.59789e-06
1.65279e-06
1.70831e-06
1.7626e-06
1.81526e-06
1.86573e-06
1.91332e-06
1.95807e-06
2.00016e-06
2.03942e-06
2.07559e-06
2.10849e-06
2.13798e-06
2.16387e-06
2.18588e-06
2.20382e-06
2.21755e-06
1.21237e-06
1.22949e-06
1.25446e-06
1.28845e-06
1.32885e-06
1.37547e-06
1.42562e-06
1.4773e-06
1.52963e-06
1.58049e-06
1.63009e-06
1.6775e-06
1.72166e-06
1.76288e-06
1.8015e-06
1.83727e-06
1.86994e-06
1.89943e-06
1.9257e-06
1.94858e-06
1.96787e-06
1.98341e-06
1.99513e-06
1.07249e-06
1.08738e-06
1.11007e-06
1.1418e-06
1.17969e-06
1.22383e-06
1.27101e-06
1.3199e-06
1.36931e-06
1.41693e-06
1.46425e-06
1.50895e-06
1.54944e-06
1.58694e-06
1.62217e-06
1.65468e-06
1.68415e-06
1.71061e-06
1.7341e-06
1.75445e-06
1.77144e-06
1.78495e-06
1.79494e-06
9.46931e-07
9.59884e-07
9.80593e-07
1.01033e-06
1.04596e-06
1.08793e-06
1.13214e-06
1.1787e-06
1.22523e-06
1.26968e-06
1.31551e-06
1.3576e-06
1.39407e-06
1.42786e-06
1.46014e-06
1.48997e-06
1.51684e-06
1.5409e-06
1.5622e-06
1.58051e-06
1.59561e-06
1.60739e-06
1.61586e-06
8.343e-07
8.45579e-07
8.64598e-07
8.92555e-07
9.26259e-07
9.66234e-07
1.00741e-06
1.05231e-06
1.09536e-06
1.13666e-06
1.18182e-06
1.22093e-06
1.25317e-06
1.28408e-06
1.31445e-06
1.3424e-06
1.36734e-06
1.38961e-06
1.40921e-06
1.42586e-06
1.43935e-06
1.44964e-06
1.4568e-06
1.4611e-06
7.33473e-07
7.43263e-07
7.60877e-07
7.87326e-07
8.19363e-07
8.5745e-07
8.95699e-07
9.39752e-07
9.7712e-07
1.01704e-06
1.06372e-06
1.09817e-06
1.12504e-06
1.15434e-06
1.1842e-06
1.2108e-06
1.23404e-06
1.25475e-06
1.27289e-06
1.28808e-06
1.30014e-06
1.30911e-06
1.31516e-06
1.31853e-06
6.4478e-07
6.53217e-07
6.6959e-07
6.94519e-07
7.24817e-07
7.60612e-07
7.95966e-07
8.39056e-07
8.67505e-07
9.09514e-07
9.60547e-07
9.88733e-07
1.00826e-06
1.03738e-06
1.06843e-06
1.0943e-06
1.11602e-06
1.13538e-06
1.15228e-06
1.16617e-06
1.17694e-06
1.18474e-06
1.18983e-06
1.19264e-06
5.73576e-07
5.80745e-07
5.9562e-07
6.1813e-07
6.4566e-07
6.77177e-07
7.08229e-07
7.46814e-07
7.64325e-07
8.0833e-07
8.62155e-07
8.8517e-07
9.01077e-07
9.3326e-07
9.67861e-07
9.95105e-07
1.01718e-06
1.03679e-06
1.05387e-06
1.06777e-06
1.07842e-06
1.08597e-06
1.09079e-06
1.09333e-06
5.17254e-07
5.2326e-07
5.36191e-07
5.55561e-07
5.79285e-07
6.04918e-07
6.30661e-07
6.60602e-07
6.70729e-07
7.08684e-07
7.61276e-07
7.8297e-07
8.02193e-07
8.38484e-07
8.76622e-07
9.06749e-07
9.31052e-07
9.52402e-07
9.7094e-07
9.85999e-07
9.97465e-07
1.00551e-06
1.01059e-06
1.01301e-06
4.65668e-07
4.70709e-07
4.81795e-07
4.98304e-07
5.18355e-07
5.38629e-07
5.59687e-07
5.81067e-07
5.86803e-07
6.14995e-07
6.63581e-07
6.85799e-07
7.11025e-07
7.49873e-07
7.89807e-07
8.2249e-07
8.49185e-07
8.72292e-07
8.92179e-07
9.0828e-07
9.20415e-07
9.28842e-07
9.34107e-07
9.36686e-07
4.15288e-07
4.19537e-07
4.28995e-07
4.42982e-07
4.59672e-07
4.754e-07
4.92547e-07
5.06533e-07
5.09521e-07
5.29651e-07
5.74196e-07
5.9623e-07
6.2744e-07
6.68205e-07
7.08804e-07
7.43099e-07
7.71638e-07
7.96058e-07
8.16838e-07
8.33652e-07
8.46287e-07
8.55002e-07
8.60262e-07
8.62497e-07
3.67412e-07
3.71001e-07
3.78984e-07
3.90688e-07
4.04183e-07
4.16065e-07
4.29578e-07
4.37203e-07
4.38316e-07
4.51604e-07
4.92282e-07
5.13375e-07
5.50142e-07
5.92707e-07
6.33345e-07
6.68432e-07
6.9829e-07
7.23703e-07
7.45073e-07
7.62271e-07
7.75177e-07
7.84116e-07
7.89655e-07
7.92407e-07
3.22295e-07
3.25315e-07
3.31888e-07
3.41417e-07
3.51809e-07
3.60489e-07
3.70393e-07
3.72832e-07
3.72613e-07
3.8013e-07
4.17129e-07
4.37132e-07
4.78564e-07
5.22684e-07
5.63132e-07
5.98532e-07
6.2932e-07
6.55567e-07
6.77437e-07
6.94823e-07
7.07539e-07
7.15692e-07
7.1962e-07
7.20054e-07
2.80532e-07
2.8301e-07
2.88069e-07
2.95259e-07
3.0248e-07
3.08389e-07
3.14504e-07
3.13303e-07
3.11945e-07
3.14767e-07
3.47915e-07
3.672e-07
4.12226e-07
4.57727e-07
4.98096e-07
5.33633e-07
5.65044e-07
5.91932e-07
6.14318e-07
6.32328e-07
6.46111e-07
6.56067e-07
6.62948e-07
6.67482e-07
2.42545e-07
2.44493e-07
2.479e-07
2.52393e-07
2.56192e-07
2.59235e-07
2.61076e-07
2.58086e-07
2.55168e-07
2.55034e-07
2.844e-07
3.03727e-07
3.51107e-07
3.97817e-07
4.38362e-07
4.74168e-07
5.06233e-07
5.33487e-07
5.55238e-07
5.71377e-07
5.8188e-07
5.8671e-07
5.86145e-07
5.81598e-07
5.75404e-07
2.08313e-07
2.09805e-07
2.11539e-07
2.13092e-07
2.13249e-07
2.12813e-07
2.09725e-07
2.0647e-07
2.00155e-07
2.00786e-07
2.27274e-07
2.47145e-07
2.95825e-07
3.43651e-07
3.84261e-07
4.20236e-07
4.53702e-07
4.83699e-07
5.09287e-07
5.30451e-07
5.47785e-07
5.62512e-07
5.76187e-07
5.88834e-07
5.98027e-07
1.78032e-07
1.78942e-07
1.78578e-07
1.76717e-07
1.73089e-07
1.68816e-07
1.61557e-07
1.59391e-07
1.47569e-07
1.5689e-07
1.79017e-07
1.97837e-07
2.47081e-07
2.9648e-07
3.37251e-07
3.72042e-07
4.03315e-07
4.30269e-07
4.51981e-07
4.68058e-07
4.7782e-07
4.80714e-07
4.77579e-07
4.72621e-07
4.71276e-07
1.54005e-07
1.53579e-07
1.49359e-07
1.42066e-07
1.33304e-07
1.24948e-07
1.16643e-07
1.18064e-07
1.04565e-07
1.32953e-07
1.43811e-07
1.57016e-07
2.03771e-07
2.53956e-07
2.98962e-07
3.42542e-07
3.86158e-07
4.28069e-07
4.6735e-07
5.04908e-07
5.42891e-07
5.84047e-07
6.28949e-07
6.71176e-07
7.01481e-07
1.39771e-07
1.37345e-07
1.27729e-07
1.12418e-07
9.49263e-08
7.91523e-08
7.06789e-08
7.78022e-08
7.55292e-08
1.20652e-07
1.23151e-07
1.33729e-07
1.71883e-07
2.14593e-07
2.57457e-07
3.0649e-07
3.62037e-07
4.20779e-07
4.80146e-07
5.38336e-07
5.93295e-07
6.43204e-07
6.87362e-07
7.24335e-07
7.54839e-07
1.3319e-07
1.29448e-07
1.16274e-07
9.49611e-08
6.84927e-08
4.01914e-08
2.60885e-08
4.39029e-08
6.44223e-08
9.96109e-08
8.45143e-08
1.33075e-07
2.11533e-07
2.96969e-07
3.86148e-07
4.78872e-07
5.75107e-07
6.73788e-07
7.72654e-07
8.68947e-07
9.5827e-07
1.03475e-06
1.09114e-06
1.12423e-06
1.14672e-06
)
;

boundaryField
{
    inlet
    {
        type            calculated;
        value           nonuniform List<scalar> 
25
(
1.33883e-07
1.29871e-07
1.16278e-07
9.41616e-08
6.60193e-08
3.47469e-08
2.2228e-08
4.97806e-08
8.10399e-08
7.57613e-08
1.58021e-07
3.00122e-07
5.13392e-07
7.71629e-07
1.06614e-06
1.39324e-06
1.75127e-06
2.13702e-06
2.54575e-06
2.9706e-06
3.40181e-06
3.82397e-06
4.21843e-06
4.56414e-06
4.856e-06
)
;
    }
    outlet
    {
        type            calculated;
        value           nonuniform List<scalar> 0();
    }
    walls
    {
        type            calculated;
        value           nonuniform List<scalar> 0();
    }
    frontAndBack
    {
        type            empty;
    }
    procBoundary4to0
    {
        type            processor;
        value           nonuniform List<scalar> 
72
(
0.000592105
0.000502712
0.000429702
0.000369349
0.000319052
0.000276794
0.000241037
0.000210594
0.00018454
0.000162134
0.000142778
0.000125993
0.000111386
9.86357e-05
8.74757e-05
7.76818e-05
6.90659e-05
6.14716e-05
5.4766e-05
4.88338e-05
4.35779e-05
3.89153e-05
3.89153e-05
3.41745e-05
3.05528e-05
2.73288e-05
2.44562e-05
2.18941e-05
1.96076e-05
1.75651e-05
1.57394e-05
1.41064e-05
1.2645e-05
1.13364e-05
1.01641e-05
9.11332e-06
8.17108e-06
7.32587e-06
6.56739e-06
5.88654e-06
5.27515e-06
4.72597e-06
4.23256e-06
3.78916e-06
3.39061e-06
3.0323e-06
2.71013e-06
2.4204e-06
2.15983e-06
1.92548e-06
1.71469e-06
1.52511e-06
1.3546e-06
1.20127e-06
1.06347e-06
9.39727e-07
8.28671e-07
7.29163e-07
6.41462e-07
5.70793e-07
5.14802e-07
4.63559e-07
4.13503e-07
3.65911e-07
3.20989e-07
2.79297e-07
2.41242e-07
2.06798e-07
1.7606e-07
1.51231e-07
1.36145e-07
1.29202e-07
)
;
    }
    procBoundary4to5
    {
        type            processor;
        value           nonuniform List<scalar> 
95
(
0.000707889
0.000711922
0.00071444
0.000607185
0.000607185
0.000606763
0.00051907
0.00051907
0.000516458
0.000445229
0.000445229
0.000386121
0.000386121
0.000336765
0.000297185
0.000297185
0.00026165
0.00026165
0.000231176
0.00020602
0.00020602
0.000183208
0.000163906
0.000163906
0.000146522
0.000131471
0.000131471
0.000118018
0.000106136
9.54489e-05
9.54489e-05
8.61142e-05
7.75626e-05
6.9847e-05
6.9847e-05
6.3243e-05
5.70081e-05
5.13724e-05
5.13724e-05
4.66277e-05
4.20401e-05
3.78875e-05
3.78875e-05
3.44363e-05
3.1038e-05
2.79618e-05
2.51792e-05
2.26637e-05
2.26637e-05
2.06132e-05
1.85473e-05
1.66807e-05
1.49961e-05
1.34765e-05
1.34765e-05
1.22393e-05
1.09934e-05
9.87154e-06
8.86211e-06
7.95464e-06
7.95464e-06
7.20444e-06
6.46489e-06
5.80136e-06
5.20645e-06
4.67332e-06
4.19582e-06
3.76838e-06
3.76838e-06
3.40476e-06
3.06005e-06
2.75178e-06
2.47556e-06
2.22715e-06
2.00312e-06
1.80156e-06
1.62126e-06
1.62126e-06
1.46299e-06
1.31967e-06
1.19349e-06
1.0939e-06
1.01323e-06
9.37151e-07
8.62427e-07
7.93097e-07
7.18065e-07
6.69848e-07
6.69848e-07
5.69239e-07
6.02866e-07
4.74222e-07
7.19251e-07
7.84612e-07
1.14904e-06
)
;
    }
}


// ************************************************************************* //
