/*--------------------------------*- C++ -*----------------------------------*\
| =========                 |                                                 |
| \\      /  F ield         | OpenFOAM: The Open Source CFD Toolbox           |
|  \\    /   O peration     | Version:  2506                                  |
|   \\  /    A nd           | Website:  www.openfoam.com                      |
|    \\/     M anipulation  |                                                 |
\*---------------------------------------------------------------------------*/
FoamFile
{
    version     2.0;
    format      ascii;
    arch        "LSB;label=32;scalar=64";
    class       volVectorField;
    location    "450";
    object      momentError;
}
// * * * * * * * * * * * * * * * * * * * * * * * * * * * * * * * * * * * * * //

dimensions      [0 1 -2 0 0 0 0];

internalField   nonuniform List<vector> 
1340
(
(-1.17986e-07 5.71574e-07 6.04182e-16)
(-1.12397e-07 8.41436e-07 -1.95206e-15)
(-1.4888e-07 6.84828e-07 5.94285e-15)
(-1.32273e-07 6.81296e-07 7.89907e-16)
(-1.05218e-07 5.66484e-07 1.19895e-15)
(-2.06177e-07 7.98062e-07 2.7942e-15)
(-1.96095e-07 7.3733e-07 9.75806e-17)
(-1.78093e-07 6.89894e-07 6.32717e-16)
(-1.557e-07 6.59899e-07 7.02413e-16)
(-1.46655e-07 6.64552e-07 -3.92523e-16)
(-1.02369e-07 6.38997e-07 -5.39265e-16)
(-2.24441e-07 7.81357e-07 3.05654e-15)
(-3.45191e-07 1.08767e-06 -1.32703e-15)
(-2.88344e-07 9.41391e-07 2.7691e-15)
(-2.2462e-07 8.40625e-07 8.46664e-18)
(-1.80866e-07 7.11314e-07 1.68363e-18)
(-2.04606e-07 6.77272e-07 1.20546e-15)
(-1.76593e-07 7.16508e-07 -4.17102e-15)
(-1.57824e-07 6.87618e-07 -2.20928e-15)
(-1.29438e-07 5.84696e-07 1.56423e-17)
(-1.68071e-07 7.62138e-07 -5.43762e-15)
(-7.5726e-07 1.64648e-06 2.16822e-16)
(-6.57302e-07 1.47596e-06 -2.65777e-16)
(-5.75108e-07 1.3831e-06 1.83284e-16)
(-4.96508e-07 1.30415e-06 1.12157e-15)
(-4.10853e-07 1.19007e-06 -4.12136e-16)
(-3.34117e-07 1.02337e-06 2.70049e-15)
(-2.79049e-07 8.91752e-07 -8.21318e-16)
(-2.34809e-07 8.10564e-07 -1.39446e-15)
(-1.98383e-07 7.77898e-07 -1.75779e-17)
(-2.21403e-07 7.09873e-07 -1.83124e-16)
(-1.71228e-07 6.48688e-07 2.71576e-15)
(-1.48971e-07 6.44443e-07 1.51726e-15)
(-1.27891e-07 5.82438e-07 3.03902e-18)
(-1.4572e-07 7.39083e-07 4.39402e-16)
(-1.97075e-06 1.62607e-06 -9.60082e-16)
(-1.6902e-06 1.68714e-06 2.21607e-16)
(-1.40157e-06 1.69768e-06 3.47361e-16)
(-1.18538e-06 1.7092e-06 1.11303e-15)
(-9.74986e-07 1.64882e-06 1.0263e-15)
(-8.07126e-07 1.50221e-06 -3.98605e-16)
(-6.82504e-07 1.36787e-06 -6.26368e-16)
(-5.87431e-07 1.28055e-06 -5.6675e-16)
(-4.96594e-07 1.19264e-06 1.68757e-15)
(-4.21809e-07 1.13435e-06 -1.11345e-16)
(-3.79667e-07 1.09488e-06 -6.81558e-16)
(-3.22636e-07 9.47972e-07 8.58169e-16)
(-2.68033e-07 8.2047e-07 -6.3115e-16)
(-2.21677e-07 7.06353e-07 1.51702e-17)
(-2.01933e-07 6.64569e-07 -1.63046e-16)
(-1.73599e-07 6.33125e-07 6.20625e-16)
(-1.44696e-07 6.30499e-07 7.21123e-16)
(-1.25278e-07 5.68175e-07 2.62397e-17)
(-1.21219e-07 7.15162e-07 -2.31075e-16)
(-4.39424e-06 9.52284e-07 4.63417e-16)
(-4.0066e-06 1.06054e-06 8.07182e-16)
(-3.65094e-06 1.09105e-06 9.94097e-16)
(-3.32203e-06 1.08771e-06 -2.56764e-16)
(-3.00099e-06 1.05074e-06 7.7164e-16)
(-2.72041e-06 1.09465e-06 -7.49332e-16)
(-2.40719e-06 1.17062e-06 -2.28977e-15)
(-2.11916e-06 1.19539e-06 -1.15916e-15)
(-1.79114e-06 1.3555e-06 6.27339e-16)
(-1.5222e-06 1.40785e-06 1.01968e-16)
(-1.27034e-06 1.43088e-06 1.45317e-15)
(-1.07534e-06 1.47851e-06 -2.24413e-16)
(-9.33379e-07 1.53758e-06 -5.2148e-17)
(-7.8824e-07 1.44099e-06 8.04815e-17)
(-6.8136e-07 1.36152e-06 -5.61829e-17)
(-5.74489e-07 1.28119e-06 -5.39958e-16)
(-4.84096e-07 1.14584e-06 1.07563e-15)
(-3.94921e-07 9.64119e-07 -9.6979e-16)
(-3.31771e-07 8.43192e-07 1.23372e-16)
(-2.78336e-07 7.4818e-07 1.72684e-15)
(-2.34939e-07 6.83506e-07 -3.73566e-17)
(-2.06675e-07 6.42571e-07 1.70589e-16)
(-1.73248e-07 6.07439e-07 -1.40743e-15)
(-1.41526e-07 6.13224e-07 -1.67633e-15)
(-1.18586e-07 5.5752e-07 -2.11109e-17)
(-1.03313e-07 6.90245e-07 6.30173e-16)
(-8.04553e-06 -3.11331e-06 -2.39419e-16)
(-7.77366e-06 -2.6725e-06 2.68118e-16)
(-7.51793e-06 -2.31852e-06 -1.10564e-16)
(-7.22884e-06 -1.98382e-06 -2.15847e-16)
(-6.93617e-06 -1.66821e-06 7.03281e-16)
(-6.61431e-06 -1.36076e-06 -5.63936e-16)
(-6.28971e-06 -1.06404e-06 9.91852e-17)
(-5.9423e-06 -7.74495e-07 6.16038e-16)
(-5.59396e-06 -5.03244e-07 -6.14696e-16)
(-5.22054e-06 -2.45386e-07 -1.85817e-15)
(-4.90212e-06 2.02005e-08 3.37783e-17)
(-4.63868e-06 2.99792e-07 -3.54436e-16)
(-4.18792e-06 3.72915e-07 3.28152e-16)
(-3.8278e-06 5.21342e-07 3.45011e-16)
(-3.46698e-06 6.30844e-07 -1.00428e-16)
(-3.17723e-06 6.43049e-07 -2.23437e-16)
(-2.8748e-06 6.92344e-07 7.12598e-16)
(-2.62966e-06 6.95471e-07 -2.74351e-16)
(-2.4093e-06 8.55875e-07 -4.00482e-16)
(-2.30204e-06 1.22218e-06 3.30272e-16)
(-1.99974e-06 1.29876e-06 -1.00444e-15)
(-1.72034e-06 1.39402e-06 6.39808e-16)
(-1.46048e-06 1.44982e-06 -3.79392e-16)
(-1.21537e-06 1.39873e-06 -5.21317e-16)
(-9.65329e-07 1.23994e-06 2.87805e-16)
(-8.23067e-07 1.17264e-06 2.01574e-16)
(-7.06424e-07 1.13019e-06 4.20737e-16)
(-6.05791e-07 1.07474e-06 -4.56526e-16)
(-5.0834e-07 1.00102e-06 -7.81191e-16)
(-4.26166e-07 9.02381e-07 2.68941e-16)
(-3.53695e-07 7.94453e-07 4.30358e-17)
(-2.94107e-07 7.08204e-07 -1.72227e-16)
(-2.4675e-07 6.44899e-07 1.24172e-17)
(-2.10241e-07 6.15715e-07 -1.38835e-16)
(-1.73441e-07 5.88805e-07 2.83386e-15)
(-1.38386e-07 5.96031e-07 -1.33358e-16)
(-1.12019e-07 5.42219e-07 2.68174e-16)
(-8.79107e-08 6.65679e-07 -9.54526e-17)
(2.87518e-05 -4.04752e-05 -7.58894e-17)
(2.88816e-05 -4.40698e-05 -2.39067e-17)
(2.7111e-05 -4.27696e-05 -2.76967e-18)
(2.50907e-05 -4.1398e-05 -2.61456e-17)
(2.28169e-05 -3.99913e-05 -1.17638e-17)
(2.03402e-05 -3.85047e-05 -8.89267e-18)
(1.77364e-05 -3.70016e-05 2.48385e-17)
(1.51267e-05 -3.55011e-05 6.72004e-17)
(1.25397e-05 -3.40351e-05 -2.89411e-17)
(1.00621e-05 -3.2586e-05 -5.4106e-17)
(7.69624e-06 -3.11585e-05 2.5329e-17)
(5.50631e-06 -2.9744e-05 -5.02823e-17)
(3.4722e-06 -2.8365e-05 -6.09805e-17)
(1.64457e-06 -2.70191e-05 -5.36789e-17)
(-1.74908e-08 -2.57118e-05 -1.08101e-16)
(-1.47096e-06 -2.44515e-05 -1.02432e-17)
(-2.77013e-06 -2.32297e-05 -8.98241e-17)
(-3.87478e-06 -2.20532e-05 -5.33865e-17)
(-4.84891e-06 -2.09078e-05 -1.20518e-16)
(-5.65081e-06 -1.98118e-05 -1.00079e-17)
(-6.34976e-06 -1.87544e-05 1.40507e-16)
(-6.89926e-06 -1.77313e-05 1.41575e-16)
(-7.37198e-06 -1.67267e-05 -8.45745e-17)
(-7.71707e-06 -1.57674e-05 5.85506e-17)
(-8.01065e-06 -1.48468e-05 1.26189e-16)
(-8.19481e-06 -1.39543e-05 1.149e-17)
(-8.34663e-06 -1.30797e-05 -1.07146e-16)
(-8.40737e-06 -1.22451e-05 -7.398e-18)
(-8.4545e-06 -1.14611e-05 2.56456e-17)
(-8.42819e-06 -1.07163e-05 -1.19015e-17)
(-8.40117e-06 -9.99604e-06 -9.52163e-17)
(-8.32111e-06 -9.32409e-06 8.13013e-17)
(-8.25306e-06 -8.70298e-06 -2.40963e-16)
(-8.14174e-06 -8.08777e-06 -9.33857e-17)
(-8.0521e-06 -7.53209e-06 1.70038e-16)
(-7.93578e-06 -7.0002e-06 3.12999e-17)
(-7.83776e-06 -6.50944e-06 2.10384e-17)
(-7.72283e-06 -6.037e-06 -3.25532e-17)
(-7.61181e-06 -5.60721e-06 4.52536e-17)
(-7.49966e-06 -5.22605e-06 2.55545e-16)
(-7.33429e-06 -4.84019e-06 -9.47059e-17)
(-7.3179e-06 -4.52285e-06 2.14529e-18)
(-7.65366e-06 -4.1314e-06 1.81468e-17)
(-7.3124e-06 -3.6429e-06 -1.51002e-16)
(-6.98824e-06 -3.20025e-06 7.0811e-16)
(-6.73076e-06 -2.86102e-06 1.44944e-17)
(-6.45256e-06 -2.53771e-06 -6.57217e-16)
(-6.18653e-06 -2.22384e-06 5.98754e-16)
(-5.89565e-06 -1.91965e-06 3.82705e-16)
(-5.62282e-06 -1.62817e-06 -7.98524e-17)
(-5.32118e-06 -1.34205e-06 9.91264e-18)
(-5.04005e-06 -1.06934e-06 -6.37478e-16)
(-4.73419e-06 -8.1294e-07 -1.00413e-15)
(-4.40512e-06 -5.75422e-07 -6.10061e-17)
(-4.22387e-06 -2.89194e-07 -2.14379e-16)
(-4.2829e-06 2.02705e-07 3.17214e-16)
(-3.9595e-06 3.72297e-07 -7.38491e-17)
(-3.63694e-06 5.02457e-07 -1.43821e-15)
(-3.31659e-06 6.05551e-07 -4.97846e-17)
(-3.05816e-06 6.49453e-07 4.51495e-16)
(-2.76594e-06 7.25995e-07 2.13333e-16)
(-2.52124e-06 7.43769e-07 5.01256e-16)
(-2.20211e-06 7.29473e-07 4.15967e-16)
(-1.97822e-06 8.42292e-07 6.61493e-16)
(-1.73441e-06 9.5558e-07 1.12119e-15)
(-1.4866e-06 1.04316e-06 2.59628e-17)
(-1.24675e-06 1.06806e-06 1.3437e-16)
(-1.03056e-06 1.06247e-06 -1.80606e-16)
(-8.7702e-07 1.01851e-06 -1.64917e-16)
(-7.64388e-07 9.98782e-07 8.42925e-16)
(-6.58242e-07 9.74421e-07 -6.83915e-16)
(-5.51526e-07 9.06653e-07 -4.30278e-17)
(-4.53526e-07 8.16992e-07 -5.80659e-16)
(-3.7214e-07 7.29162e-07 7.62737e-16)
(-3.08292e-07 6.60453e-07 -3.18063e-16)
(-2.57098e-07 6.134e-07 4.23996e-17)
(-2.13432e-07 5.88078e-07 8.82594e-17)
(-1.7248e-07 5.64686e-07 -1.91255e-15)
(-1.34441e-07 5.78785e-07 7.61456e-16)
(-1.05039e-07 5.28017e-07 1.79981e-16)
(-7.64008e-08 6.40522e-07 6.72518e-18)
(2.27701e-05 -2.9561e-05 -1.36773e-17)
(2.56879e-05 -3.15652e-05 -9.71951e-18)
(2.67054e-05 -3.09282e-05 8.61459e-18)
(2.70941e-05 -3.02074e-05 -1.06454e-18)
(2.69305e-05 -2.95086e-05 -1.19099e-17)
(2.62967e-05 -2.87905e-05 3.78999e-17)
(2.5262e-05 -2.80515e-05 1.29752e-17)
(2.39224e-05 -2.73009e-05 -1.01015e-17)
(2.23325e-05 -2.65289e-05 3.17883e-17)
(2.05794e-05 -2.57458e-05 -4.03394e-18)
(1.87089e-05 -2.49361e-05 3.44898e-17)
(1.67903e-05 -2.41162e-05 5.52033e-17)
(1.48544e-05 -2.32764e-05 -3.68519e-17)
(1.29559e-05 -2.24441e-05 4.63716e-17)
(1.11063e-05 -2.15968e-05 -2.80634e-17)
(9.34703e-06 -2.07676e-05 -9.07746e-17)
(7.67387e-06 -1.99319e-05 -6.60369e-18)
(6.11862e-06 -1.91206e-05 2.18897e-17)
(4.66513e-06 -1.83013e-05 1.85421e-17)
(3.33809e-06 -1.75109e-05 -2.34401e-17)
(2.11306e-06 -1.67259e-05 -1.04075e-17)
(1.01193e-06 -1.59773e-05 -3.38842e-18)
(5.24552e-09 -1.52212e-05 -2.54935e-17)
(-8.84066e-07 -1.44981e-05 -4.17427e-17)
(-1.69105e-06 -1.37837e-05 1.26983e-17)
(-2.39194e-06 -1.31071e-05 5.61228e-17)
(-3.02147e-06 -1.24158e-05 -4.90661e-17)
(-3.55234e-06 -1.17546e-05 4.723e-17)
(-4.02443e-06 -1.10992e-05 -2.22813e-17)
(-4.41056e-06 -1.04835e-05 4.61963e-17)
(-4.74891e-06 -9.84768e-06 -1.09871e-16)
(-5.00734e-06 -9.25185e-06 -1.16784e-16)
(-5.23151e-06 -8.67107e-06 -8.71478e-18)
(-5.38871e-06 -8.12512e-06 -1.98047e-16)
(-5.51449e-06 -7.55369e-06 -2.37224e-17)
(-5.59028e-06 -7.03889e-06 8.08323e-17)
(-5.6431e-06 -6.52678e-06 3.98057e-17)
(-5.65691e-06 -6.07316e-06 3.12105e-17)
(-5.65706e-06 -5.6286e-06 6.157e-17)
(-5.62465e-06 -5.22968e-06 1.89228e-16)
(-5.58348e-06 -4.86046e-06 -1.58078e-17)
(-5.40106e-06 -4.4786e-06 -1.31155e-16)
(-5.42322e-06 -4.21087e-06 1.1785e-16)
(-6.13439e-06 -3.89744e-06 -2.65778e-16)
(-6.08499e-06 -3.52939e-06 -4.51913e-16)
(-5.9522e-06 -3.16828e-06 2.55273e-17)
(-5.80645e-06 -2.81064e-06 1.98761e-16)
(-5.64264e-06 -2.47132e-06 -2.89528e-16)
(-5.46383e-06 -2.1365e-06 2.64904e-16)
(-5.2729e-06 -1.81743e-06 1.16692e-16)
(-5.06591e-06 -1.50983e-06 2.15975e-16)
(-4.8513e-06 -1.21908e-06 4.97935e-16)
(-4.61885e-06 -9.45888e-07 5.40871e-16)
(-4.36932e-06 -6.98949e-07 -2.29369e-17)
(-4.01403e-06 -5.10253e-07 -4.91995e-17)
(-3.59876e-06 -4.34456e-07 1.66454e-16)
(-3.36663e-06 -2.47961e-07 1.84743e-16)
(-3.15863e-06 -8.87678e-08 1.12641e-15)
(-2.93173e-06 4.24131e-08 1.56588e-17)
(-2.73788e-06 1.5569e-07 -1.0577e-15)
(-2.54342e-06 2.42601e-07 1.09741e-16)
(-2.35405e-06 3.55816e-07 -5.13549e-16)
(-2.17641e-06 4.76471e-07 -2.63684e-16)
(-1.96519e-06 5.85792e-07 9.3997e-19)
(-1.74685e-06 6.93887e-07 -9.20649e-16)
(-1.52499e-06 7.96505e-07 1.03941e-16)
(-1.29047e-06 8.47859e-07 5.71399e-17)
(-1.08732e-06 8.39613e-07 -1.02327e-17)
(-9.29851e-07 8.49369e-07 1.32814e-16)
(-8.26273e-07 8.56515e-07 -4.40654e-16)
(-7.04759e-07 8.35605e-07 2.13089e-16)
(-5.91755e-07 7.90794e-07 1.08502e-16)
(-4.8212e-07 7.27215e-07 4.22959e-17)
(-3.90033e-07 6.62829e-07 -1.82661e-15)
(-3.2156e-07 6.11334e-07 -5.39299e-16)
(-2.64241e-07 5.71987e-07 -1.5045e-17)
(-2.14762e-07 5.59389e-07 3.64598e-17)
(-1.69518e-07 5.45071e-07 -1.43927e-15)
(-1.30736e-07 5.59201e-07 4.97135e-16)
(-9.81809e-08 5.10061e-07 -4.05485e-16)
(-6.75724e-08 6.16061e-07 1.07391e-17)
(6.96736e-06 -1.78037e-05 -1.24918e-17)
(1.04734e-05 -1.81699e-05 -5.10684e-18)
(1.32039e-05 -1.72124e-05 1.23589e-17)
(1.53964e-05 -1.63981e-05 8.18473e-18)
(1.7096e-05 -1.57676e-05 -3.79432e-18)
(1.83074e-05 -1.52138e-05 -3.65686e-18)
(1.90703e-05 -1.47378e-05 1.3925e-17)
(1.94123e-05 -1.43363e-05 -1.0019e-17)
(1.93883e-05 -1.39865e-05 -3.13362e-18)
(1.90396e-05 -1.36616e-05 1.54859e-17)
(1.843e-05 -1.33467e-05 -1.89752e-18)
(1.75966e-05 -1.30499e-05 2.28283e-17)
(1.66042e-05 -1.27613e-05 2.06498e-17)
(1.54825e-05 -1.24744e-05 -1.2798e-17)
(1.42871e-05 -1.21791e-05 3.66106e-17)
(1.30364e-05 -1.18848e-05 -1.04073e-17)
(1.17765e-05 -1.15837e-05 -2.52495e-17)
(1.05141e-05 -1.12823e-05 3.12042e-17)
(9.28636e-06 -1.09728e-05 1.58714e-17)
(8.08844e-06 -1.06665e-05 2.3497e-18)
(6.95033e-06 -1.03549e-05 -9.7391e-18)
(5.85891e-06 -1.00537e-05 -6.92473e-17)
(4.83822e-06 -9.75354e-06 3.68134e-18)
(3.87088e-06 -9.465e-06 -3.64922e-17)
(2.97685e-06 -9.17194e-06 -1.0896e-17)
(2.13473e-06 -8.89842e-06 1.8524e-17)
(1.36307e-06 -8.6301e-06 3.521e-17)
(6.41626e-07 -8.37256e-06 3.40923e-18)
(-1.3474e-08 -8.10013e-06 8.41991e-18)
(-6.23631e-07 -7.84319e-06 -1.09543e-17)
(-1.17289e-06 -7.58826e-06 2.80942e-17)
(-1.67712e-06 -7.33346e-06 -5.90515e-17)
(-2.12474e-06 -7.05015e-06 -1.4099e-17)
(-2.5329e-06 -6.7919e-06 3.87784e-17)
(-2.88875e-06 -6.50074e-06 -1.15766e-16)
(-3.19814e-06 -6.20809e-06 -6.01327e-17)
(-3.46355e-06 -5.89774e-06 2.07937e-17)
(-3.68626e-06 -5.59215e-06 -1.703e-17)
(-3.87634e-06 -5.25797e-06 -3.33279e-17)
(-4.0245e-06 -4.93711e-06 -5.14328e-17)
(-4.13199e-06 -4.60892e-06 3.91586e-17)
(-4.16144e-06 -4.27518e-06 -4.01239e-17)
(-4.03552e-06 -3.91032e-06 -1.14844e-16)
(-3.6616e-06 -3.62327e-06 4.64864e-17)
(-3.70797e-06 -3.35219e-06 -2.38348e-16)
(-3.73417e-06 -3.09163e-06 3.18056e-19)
(-3.75304e-06 -2.82452e-06 1.47449e-17)
(-3.74686e-06 -2.56667e-06 1.70968e-16)
(-3.73384e-06 -2.30915e-06 -3.33621e-16)
(-3.69314e-06 -2.05933e-06 1.43779e-19)
(-3.64631e-06 -1.81249e-06 3.58335e-16)
(-3.57088e-06 -1.57074e-06 -1.18639e-16)
(-3.49205e-06 -1.33752e-06 4.96327e-16)
(-3.37089e-06 -1.11338e-06 2.98454e-17)
(-3.26014e-06 -8.97702e-07 -6.52469e-17)
(-3.14976e-06 -6.76398e-07 -6.43353e-17)
(-3.00576e-06 -5.00864e-07 -4.20695e-18)
(-2.84206e-06 -3.34597e-07 -6.3435e-16)
(-2.68881e-06 -1.89007e-07 2.19451e-16)
(-2.5272e-06 -6.12968e-08 6.07071e-16)
(-2.37491e-06 4.60143e-08 -1.3439e-16)
(-2.21523e-06 1.44612e-07 1.00792e-15)
(-2.05117e-06 2.4234e-07 1.48849e-17)
(-1.88431e-06 3.37759e-07 -1.8477e-16)
(-1.70921e-06 4.56546e-07 -2.21802e-16)
(-1.51616e-06 5.49179e-07 -2.70735e-16)
(-1.31586e-06 6.10361e-07 5.21075e-16)
(-1.11933e-06 6.58199e-07 1.23189e-16)
(-9.85531e-07 6.74901e-07 2.62861e-16)
(-8.59378e-07 6.99839e-07 -4.81893e-16)
(-7.43448e-07 6.9603e-07 1.51515e-16)
(-6.15663e-07 6.6999e-07 -1.12313e-16)
(-4.98945e-07 6.23745e-07 -1.17102e-15)
(-4.0719e-07 5.86412e-07 -3.83449e-16)
(-3.321e-07 5.57829e-07 1.39205e-16)
(-2.69197e-07 5.3482e-07 9.83196e-18)
(-2.12159e-07 5.27903e-07 1.81976e-16)
(-1.64631e-07 5.18765e-07 2.68098e-16)
(-1.27654e-07 5.39355e-07 -8.9974e-16)
(-9.23836e-08 4.93531e-07 -2.02939e-16)
(-6.12402e-08 5.91332e-07 -5.13723e-16)
(-7.26334e-06 -6.98508e-06 6.81336e-18)
(-4.55325e-06 -7.63431e-06 -2.02387e-18)
(-1.57078e-06 -7.24545e-06 -9.00853e-18)
(1.18338e-06 -6.83279e-06 -2.63982e-18)
(3.69587e-06 -6.53443e-06 5.94452e-18)
(5.9125e-06 -6.28774e-06 -2.58435e-19)
(7.80105e-06 -6.0966e-06 -4.50324e-18)
(9.34774e-06 -5.9698e-06 1.85888e-18)
(1.05517e-05 -5.90144e-06 -2.01581e-17)
(1.14261e-05 -5.86677e-06 -1.31692e-17)
(1.19938e-05 -5.85314e-06 -1.0165e-17)
(1.22818e-05 -5.85711e-06 -1.96623e-18)
(1.23238e-05 -5.87819e-06 2.68125e-17)
(1.21539e-05 -5.89966e-06 -7.72915e-18)
(1.18092e-05 -5.91384e-06 -3.10194e-17)
(1.13225e-05 -5.92029e-06 1.47801e-17)
(1.07275e-05 -5.91857e-06 -1.00221e-17)
(1.00514e-05 -5.90393e-06 -4.74051e-17)
(9.3232e-06 -5.87242e-06 -6.82354e-18)
(8.5617e-06 -5.83155e-06 -5.62921e-19)
(7.78916e-06 -5.778e-06 4.05254e-17)
(7.01679e-06 -5.71597e-06 5.26126e-17)
(6.26011e-06 -5.63989e-06 5.02298e-18)
(5.52389e-06 -5.56315e-06 1.90139e-17)
(4.81892e-06 -5.47628e-06 -3.24969e-19)
(4.14501e-06 -5.3897e-06 3.3609e-17)
(3.50879e-06 -5.2956e-06 -1.49562e-17)
(2.9064e-06 -5.20906e-06 -3.48642e-18)
(2.34348e-06 -5.11097e-06 -2.17753e-18)
(1.81489e-06 -5.01798e-06 7.36825e-18)
(1.32425e-06 -4.91612e-06 -2.85162e-18)
(8.64394e-07 -4.83042e-06 2.88845e-17)
(4.40786e-07 -4.7243e-06 -3.88533e-19)
(4.80907e-08 -4.61852e-06 8.23314e-19)
(-3.14021e-07 -4.52492e-06 2.12038e-17)
(-6.47816e-07 -4.43479e-06 7.08667e-17)
(-9.53114e-07 -4.31279e-06 -4.42147e-17)
(-1.23242e-06 -4.19133e-06 -2.93841e-18)
(-1.48814e-06 -4.05089e-06 4.89773e-17)
(-1.71519e-06 -3.89903e-06 4.60793e-18)
(-1.91555e-06 -3.72265e-06 -8.50597e-17)
(-2.07021e-06 -3.53465e-06 3.69083e-17)
(-2.24048e-06 -3.32e-06 7.77303e-17)
(-2.46114e-06 -3.13602e-06 2.01305e-16)
(-2.58179e-06 -2.93556e-06 2.11845e-16)
(-2.67867e-06 -2.73435e-06 4.928e-17)
(-2.76111e-06 -2.52295e-06 -7.5579e-18)
(-2.8247e-06 -2.32163e-06 -1.04037e-16)
(-2.87328e-06 -2.118e-06 1.19915e-16)
(-2.90283e-06 -1.92199e-06 -5.44712e-17)
(-2.91656e-06 -1.72543e-06 -2.77368e-16)
(-2.91122e-06 -1.53503e-06 -1.76938e-16)
(-2.88928e-06 -1.34802e-06 -7.99214e-17)
(-2.83925e-06 -1.17021e-06 -4.79431e-17)
(-2.76509e-06 -9.98971e-07 4.23723e-17)
(-2.68129e-06 -8.35675e-07 -4.06193e-16)
(-2.59288e-06 -6.7447e-07 -1.92453e-16)
(-2.49537e-06 -5.20754e-07 -2.25977e-16)
(-2.38616e-06 -3.80067e-07 -5.52803e-16)
(-2.27328e-06 -2.50957e-07 1.25392e-16)
(-2.15332e-06 -1.39357e-07 -1.4062e-16)
(-2.02968e-06 -3.58258e-08 -5.43836e-16)
(-1.90381e-06 5.83488e-08 5.71114e-16)
(-1.76986e-06 1.60326e-07 7.1454e-16)
(-1.63053e-06 2.48769e-07 -1.12854e-16)
(-1.46127e-06 3.44268e-07 -3.32991e-16)
(-1.29662e-06 4.12172e-07 -7.97783e-18)
(-1.11792e-06 4.67712e-07 -6.46366e-17)
(-9.8045e-07 5.12417e-07 1.59068e-16)
(-8.68413e-07 5.40758e-07 1.27657e-16)
(-7.42836e-07 5.501e-07 1.04694e-16)
(-6.20724e-07 5.3187e-07 3.01824e-16)
(-5.13416e-07 5.2256e-07 5.75309e-16)
(-4.24331e-07 5.09516e-07 2.44256e-16)
(-3.43235e-07 4.95542e-07 5.51222e-17)
(-2.70664e-07 4.82492e-07 -1.3937e-16)
(-2.11689e-07 4.91167e-07 -9.72121e-16)
(-1.61705e-07 4.96171e-07 4.26284e-16)
(-1.24781e-07 5.16045e-07 4.6012e-16)
(-8.70201e-08 4.71637e-07 6.12585e-16)
(-5.54118e-08 5.66463e-07 1.88946e-15)
(-1.46556e-05 1.07649e-06 4.92371e-19)
(-1.37472e-05 7.80495e-07 1.82256e-18)
(-1.1823e-05 9.9649e-07 6.03164e-18)
(-9.7363e-06 1.13321e-06 1.81877e-18)
(-7.56185e-06 1.14068e-06 -3.24238e-18)
(-5.38903e-06 1.06675e-06 -1.44195e-18)
(-3.29315e-06 9.30728e-07 -2.46261e-19)
(-1.33369e-06 7.43457e-07 -6.65899e-20)
(4.46136e-07 5.24043e-07 3.04076e-20)
(2.01515e-06 2.72075e-07 -8.03746e-18)
(3.35751e-06 2.00321e-09 9.6842e-18)
(4.46607e-06 -2.76318e-07 -7.07693e-18)
(5.34521e-06 -5.51523e-07 -1.72595e-17)
(6.00405e-06 -8.29187e-07 -1.03235e-17)
(6.46069e-06 -1.10027e-06 -3.77208e-18)
(6.73351e-06 -1.35789e-06 3.27426e-18)
(6.84664e-06 -1.59555e-06 1.41376e-18)
(6.82067e-06 -1.8178e-06 -1.2192e-17)
(6.68166e-06 -2.01913e-06 -1.80755e-17)
(6.44812e-06 -2.19829e-06 -4.89521e-18)
(6.14381e-06 -2.35361e-06 3.11619e-18)
(5.78279e-06 -2.4882e-06 1.95868e-17)
(5.38511e-06 -2.59908e-06 -2.73348e-17)
(4.96008e-06 -2.69044e-06 6.02822e-18)
(4.52318e-06 -2.76407e-06 -2.23572e-17)
(4.07857e-06 -2.82564e-06 1.23661e-17)
(3.63882e-06 -2.87177e-06 3.37537e-17)
(3.20355e-06 -2.90994e-06 -2.59938e-17)
(2.78196e-06 -2.94037e-06 -4.72191e-17)
(2.37149e-06 -2.96801e-06 -1.33378e-17)
(1.98005e-06 -2.98757e-06 9.92075e-17)
(1.60338e-06 -3.00469e-06 6.59209e-17)
(1.24596e-06 -3.01886e-06 5.49413e-17)
(9.0546e-07 -3.03312e-06 -4.93174e-19)
(5.8538e-07 -3.02038e-06 -5.80121e-17)
(2.78108e-07 -3.00896e-06 -6.42561e-17)
(-1.00403e-08 -2.97753e-06 4.87765e-17)
(-2.80869e-07 -2.9361e-06 -2.02062e-17)
(-5.32546e-07 -2.87492e-06 -6.4022e-17)
(-7.68806e-07 -2.8164e-06 4.97869e-17)
(-9.84719e-07 -2.73366e-06 -1.32366e-17)
(-1.17242e-06 -2.64004e-06 2.98752e-19)
(-1.34048e-06 -2.53349e-06 -3.8346e-17)
(-1.48835e-06 -2.43501e-06 3.23636e-18)
(-1.63634e-06 -2.31388e-06 -1.7267e-16)
(-1.76786e-06 -2.1891e-06 -1.14768e-16)
(-1.88473e-06 -2.05269e-06 -2.42464e-17)
(-1.98347e-06 -1.92251e-06 -2.30162e-16)
(-2.06661e-06 -1.78531e-06 -1.81435e-16)
(-2.13108e-06 -1.65389e-06 -5.94158e-17)
(-2.17927e-06 -1.51718e-06 -1.63987e-16)
(-2.20807e-06 -1.38431e-06 1.18349e-16)
(-2.22184e-06 -1.2495e-06 -3.2009e-16)
(-2.21206e-06 -1.11938e-06 -4.52497e-17)
(-2.18639e-06 -9.87295e-07 2.14043e-16)
(-2.15136e-06 -8.55158e-07 4.19964e-17)
(-2.10357e-06 -7.2461e-07 -1.03338e-16)
(-2.04295e-06 -5.94553e-07 9.20915e-16)
(-1.97156e-06 -4.71518e-07 5.36303e-17)
(-1.89282e-06 -3.54328e-07 -7.88581e-16)
(-1.80574e-06 -2.48432e-07 1.93111e-16)
(-1.71357e-06 -1.50537e-07 -6.6264e-16)
(-1.61676e-06 -5.98082e-08 -3.64864e-17)
(-1.51828e-06 2.25109e-08 8.00444e-17)
(-1.4025e-06 1.08899e-07 -1.72255e-15)
(-1.28536e-06 1.80222e-07 4.28755e-17)
(-1.13898e-06 2.48076e-07 7.87283e-17)
(-1.00581e-06 3.10424e-07 -2.46906e-16)
(-8.86344e-07 3.64157e-07 3.22973e-16)
(-7.83458e-07 3.94377e-07 -2.28353e-17)
(-6.79624e-07 4.0574e-07 1.06676e-16)
(-5.7882e-07 4.21127e-07 -7.12158e-16)
(-4.92707e-07 4.21542e-07 -6.83227e-16)
(-4.04616e-07 4.23612e-07 6.13211e-17)
(-3.31247e-07 4.2247e-07 -5.0311e-17)
(-2.61189e-07 4.29137e-07 1.24007e-16)
(-2.07869e-07 4.46604e-07 -6.68411e-16)
(-1.55251e-07 4.57176e-07 8.53185e-17)
(-1.16318e-07 4.86155e-07 -6.87668e-16)
(-7.59575e-08 4.45325e-07 -8.15957e-17)
(-4.76803e-08 5.35696e-07 1.4542e-15)
(-1.15434e-05 2.76911e-06 2.71326e-18)
(-1.27874e-05 2.70606e-06 4.04509e-18)
(-1.29195e-05 2.84545e-06 -1.01342e-18)
(-1.25923e-05 2.91688e-06 1.98564e-18)
(-1.19003e-05 2.89107e-06 1.75268e-18)
(-1.09183e-05 2.80118e-06 -1.57959e-17)
(-9.73265e-06 2.65374e-06 -9.37346e-18)
(-8.41567e-06 2.46817e-06 -3.43139e-18)
(-7.03652e-06 2.24812e-06 -1.05409e-18)
(-5.65439e-06 2.00797e-06 4.02976e-18)
(-4.31709e-06 1.74423e-06 -9.10996e-18)
(-3.06242e-06 1.47394e-06 1.24144e-17)
(-1.91906e-06 1.20018e-06 2.13748e-18)
(-9.04207e-07 9.33932e-07 7.63862e-18)
(-2.94374e-08 6.69897e-07 1.90277e-17)
(7.03919e-07 4.18851e-07 1.71568e-17)
(1.29722e-06 1.81536e-07 1.49339e-17)
(1.75843e-06 -3.92797e-08 5.83708e-18)
(2.09793e-06 -2.45902e-07 2.60892e-17)
(2.32814e-06 -4.34683e-07 -1.29569e-17)
(2.46292e-06 -6.05851e-07 -3.83756e-17)
(2.51603e-06 -7.59008e-07 -8.38642e-18)
(2.50124e-06 -8.95645e-07 -2.42053e-18)
(2.43189e-06 -1.01681e-06 -1.11157e-17)
(2.31971e-06 -1.12033e-06 -8.53569e-18)
(2.17421e-06 -1.21082e-06 -2.84741e-17)
(2.00562e-06 -1.28742e-06 -5.44059e-18)
(1.82014e-06 -1.35517e-06 -1.47116e-18)
(1.62549e-06 -1.41179e-06 3.04878e-17)
(1.42419e-06 -1.46246e-06 -9.3401e-18)
(1.22235e-06 -1.50524e-06 1.04557e-17)
(1.02043e-06 -1.5479e-06 3.18293e-17)
(8.22999e-07 -1.58474e-06 2.61894e-17)
(6.27658e-07 -1.62134e-06 6.96787e-17)
(4.38837e-07 -1.656e-06 5.22298e-18)
(2.54538e-07 -1.69102e-06 -4.58972e-17)
(7.81575e-08 -1.72333e-06 -6.5453e-17)
(-9.00792e-08 -1.75013e-06 2.13003e-17)
(-2.47692e-07 -1.75652e-06 5.9465e-17)
(-3.9846e-07 -1.75728e-06 -3.57486e-17)
(-5.41777e-07 -1.74911e-06 6.22376e-17)
(-6.72539e-07 -1.72906e-06 -1.07361e-17)
(-7.91977e-07 -1.68448e-06 2.29815e-17)
(-9.05559e-07 -1.64202e-06 -1.29023e-16)
(-1.00687e-06 -1.58288e-06 -3.72192e-17)
(-1.09615e-06 -1.5233e-06 3.37697e-17)
(-1.17478e-06 -1.45647e-06 -4.37022e-17)
(-1.24179e-06 -1.39364e-06 -4.89918e-17)
(-1.29901e-06 -1.32382e-06 7.65301e-17)
(-1.34476e-06 -1.2548e-06 3.90742e-18)
(-1.38205e-06 -1.18124e-06 1.4305e-16)
(-1.40805e-06 -1.10363e-06 2.39307e-16)
(-1.4274e-06 -1.02005e-06 2.83638e-17)
(-1.43412e-06 -9.3358e-07 7.12412e-17)
(-1.43289e-06 -8.40506e-07 1.27026e-17)
(-1.4251e-06 -7.43251e-07 1.92181e-16)
(-1.41075e-06 -6.43108e-07 4.33557e-17)
(-1.3876e-06 -5.42185e-07 -3.20732e-16)
(-1.35588e-06 -4.42199e-07 3.08785e-16)
(-1.31754e-06 -3.4592e-07 8.12534e-17)
(-1.27017e-06 -2.55545e-07 -5.96118e-17)
(-1.21877e-06 -1.71543e-07 4.76704e-16)
(-1.15949e-06 -9.44623e-08 -1.44167e-16)
(-1.09802e-06 -2.2562e-08 -1.21554e-16)
(-1.0284e-06 3.94058e-08 8.46028e-16)
(-9.48564e-07 9.73094e-08 -6.35417e-17)
(-8.63892e-07 1.51385e-07 -3.78671e-16)
(-7.66598e-07 2.11361e-07 -3.62427e-18)
(-6.90455e-07 2.54792e-07 -1.35287e-16)
(-6.21374e-07 2.88952e-07 -3.55644e-17)
(-5.53675e-07 3.16697e-07 -8.64134e-17)
(-4.86062e-07 3.3185e-07 4.53655e-16)
(-4.18235e-07 3.48363e-07 4.7413e-16)
(-3.56943e-07 3.58412e-07 2.05259e-16)
(-2.96456e-07 3.6903e-07 1.70746e-16)
(-2.43637e-07 3.80291e-07 -1.19522e-16)
(-1.95323e-07 4.07871e-07 7.25565e-16)
(-1.48785e-07 4.24399e-07 1.00231e-17)
(-1.09671e-07 4.55361e-07 8.06747e-16)
(-6.58972e-08 4.1682e-07 -4.10171e-16)
(-4.24914e-08 5.00328e-07 -2.34434e-15)
(1.58085e-06 -6.9601e-07 9.35512e-18)
(-9.31881e-07 -6.93884e-07 -3.35631e-18)
(-3.13741e-06 -3.12133e-07 -4.58595e-18)
(-4.89982e-06 -2.64323e-08 7.12247e-19)
(-6.25659e-06 1.89898e-07 5.52536e-18)
(-7.21349e-06 3.54094e-07 7.54802e-18)
(-7.79921e-06 4.711e-07 -4.12603e-18)
(-8.05328e-06 5.49157e-07 4.11816e-19)
(-8.02331e-06 5.87869e-07 9.21809e-18)
(-7.75968e-06 5.96848e-07 5.18913e-18)
(-7.31309e-06 5.77036e-07 -4.46881e-18)
(-6.73303e-06 5.32452e-07 -9.47272e-18)
(-6.06478e-06 4.68324e-07 5.92772e-19)
(-5.34868e-06 3.85383e-07 5.10002e-20)
(-4.61841e-06 2.86932e-07 -8.32079e-19)
(-3.90345e-06 1.75998e-07 1.6912e-18)
(-3.22415e-06 6.17988e-08 1.15566e-17)
(-2.59743e-06 -6.0853e-08 5.93168e-18)
(-2.03318e-06 -1.84381e-07 -1.27159e-17)
(-1.53805e-06 -3.08663e-07 2.07713e-17)
(-1.11331e-06 -4.27246e-07 1.41288e-17)
(-7.58726e-07 -5.42228e-07 -5.8809e-18)
(-4.69439e-07 -6.50265e-07 1.40581e-18)
(-2.41969e-07 -7.52897e-07 1.58441e-17)
(-6.83656e-08 -8.43077e-07 1.45155e-17)
(5.62909e-08 -9.25663e-07 1.71254e-17)
(1.41049e-07 -9.97027e-07 -1.37105e-17)
(1.9021e-07 -1.05932e-06 -3.2084e-19)
(2.12371e-07 -1.11112e-06 1.86099e-17)
(2.10614e-07 -1.1541e-06 4.01048e-18)
(1.92591e-07 -1.18623e-06 -2.61521e-17)
(1.59778e-07 -1.21341e-06 -1.37063e-17)
(1.18231e-07 -1.23459e-06 -6.89185e-18)
(6.77231e-08 -1.25187e-06 2.14535e-17)
(1.34115e-08 -1.26298e-06 4.21321e-17)
(-4.66868e-08 -1.27437e-06 4.28888e-17)
(-1.06859e-07 -1.28285e-06 3.06006e-17)
(-1.69257e-07 -1.29385e-06 -2.08065e-17)
(-2.309e-07 -1.30235e-06 -6.53471e-17)
(-2.99347e-07 -1.31382e-06 2.87863e-17)
(-3.72301e-07 -1.32349e-06 7.80784e-18)
(-4.44221e-07 -1.33445e-06 2.60395e-17)
(-5.14741e-07 -1.33729e-06 -5.20101e-17)
(-5.8197e-07 -1.3384e-06 9.48864e-17)
(-6.46361e-07 -1.32991e-06 -3.50681e-17)
(-7.06141e-07 -1.31512e-06 1.09241e-16)
(-7.62952e-07 -1.28665e-06 3.56586e-17)
(-8.14651e-07 -1.25471e-06 -7.13718e-17)
(-8.64232e-07 -1.21285e-06 5.11611e-17)
(-9.07878e-07 -1.16517e-06 1.23667e-16)
(-9.4959e-07 -1.10769e-06 3.3902e-17)
(-9.86028e-07 -1.04665e-06 -4.31899e-17)
(-1.02151e-06 -9.74844e-07 2.29653e-16)
(-1.04876e-06 -9.03469e-07 4.77547e-17)
(-1.07406e-06 -8.22671e-07 -1.14434e-16)
(-1.0925e-06 -7.40765e-07 -2.9383e-16)
(-1.10534e-06 -6.52878e-07 -2.58171e-17)
(-1.10922e-06 -5.66358e-07 -1.99268e-17)
(-1.10582e-06 -4.76492e-07 -2.52887e-16)
(-1.09455e-06 -3.89427e-07 1.96144e-16)
(-1.0743e-06 -3.03891e-07 1.18708e-16)
(-1.04804e-06 -2.22037e-07 2.08464e-16)
(-1.01295e-06 -1.45079e-07 1.96502e-16)
(-9.73314e-07 -7.37843e-08 -4.36187e-16)
(-9.23926e-07 -1.12886e-08 5.38548e-16)
(-8.70824e-07 4.38084e-08 3.46222e-16)
(-8.07287e-07 1.00806e-07 2.22448e-17)
(-7.37584e-07 1.573e-07 1.15356e-16)
(-6.60617e-07 2.0847e-07 -2.76984e-16)
(-6.11793e-07 2.534e-07 -5.95475e-17)
(-5.55282e-07 2.8405e-07 -1.97483e-17)
(-4.997e-07 3.14158e-07 4.83142e-16)
(-4.43021e-07 3.3446e-07 5.50315e-16)
(-3.86935e-07 3.53778e-07 4.84938e-16)
(-3.31872e-07 3.68651e-07 2.12764e-16)
(-2.8076e-07 3.93787e-07 1.0504e-16)
(-2.31809e-07 4.24862e-07 -7.47755e-16)
(-1.79199e-07 4.46779e-07 1.65538e-16)
(-1.3251e-07 4.78241e-07 7.20189e-16)
(-8.50045e-08 4.4523e-07 -1.44847e-16)
(-5.42947e-08 5.16723e-07 -5.445e-16)
(1.31935e-05 -6.74213e-06 -2.26199e-18)
(1.17731e-05 -6.87285e-06 3.94656e-18)
(9.58681e-06 -6.28428e-06 1.7295e-18)
(7.44489e-06 -5.81561e-06 4.83e-19)
(5.3954e-06 -5.37627e-06 5.4504e-19)
(3.51129e-06 -4.97171e-06 1.37324e-18)
(1.84042e-06 -4.59162e-06 5.04112e-18)
(4.09891e-07 -4.23722e-06 -2.62793e-20)
(-7.67574e-07 -3.90596e-06 -7.03586e-18)
(-1.69212e-06 -3.60162e-06 -2.2588e-18)
(-2.37862e-06 -3.3235e-06 2.44805e-18)
(-2.84583e-06 -3.07428e-06 -3.44035e-18)
(-3.12021e-06 -2.8517e-06 -9.51568e-19)
(-3.23051e-06 -2.65552e-06 -7.0616e-18)
(-3.20775e-06 -2.4848e-06 2.71531e-18)
(-3.08132e-06 -2.33913e-06 -1.72918e-18)
(-2.87797e-06 -2.21495e-06 -4.24219e-18)
(-2.62436e-06 -2.11054e-06 1.75857e-18)
(-2.34083e-06 -2.0228e-06 3.98916e-18)
(-2.04621e-06 -1.95174e-06 -1.17701e-17)
(-1.75459e-06 -1.89534e-06 -9.83185e-18)
(-1.47703e-06 -1.8481e-06 -2.55378e-18)
(-1.22077e-06 -1.80819e-06 -1.63216e-18)
(-9.91641e-07 -1.77717e-06 -1.16401e-17)
(-7.91573e-07 -1.75053e-06 -1.07096e-17)
(-6.21707e-07 -1.72601e-06 -9.58638e-18)
(-4.81005e-07 -1.70264e-06 3.01326e-17)
(-3.67894e-07 -1.67832e-06 -5.75249e-19)
(-2.79638e-07 -1.65257e-06 -2.83139e-17)
(-2.13673e-07 -1.62453e-06 3.98371e-18)
(-1.66149e-07 -1.5923e-06 1.08294e-17)
(-1.34624e-07 -1.55763e-06 2.50451e-18)
(-1.15728e-07 -1.5203e-06 -7.97741e-18)
(-1.07536e-07 -1.48112e-06 -3.74508e-17)
(-1.06658e-07 -1.44055e-06 -7.49456e-18)
(-1.11488e-07 -1.39877e-06 1.94052e-17)
(-1.18638e-07 -1.35403e-06 2.01459e-17)
(-1.27583e-07 -1.30981e-06 5.49644e-18)
(-1.3906e-07 -1.26628e-06 -1.71867e-17)
(-1.58755e-07 -1.22427e-06 -4.93834e-17)
(-1.84937e-07 -1.1818e-06 5.45582e-18)
(-2.12315e-07 -1.14352e-06 -3.66599e-17)
(-2.38285e-07 -1.10931e-06 2.83335e-17)
(-2.66397e-07 -1.07803e-06 -2.08906e-17)
(-2.95489e-07 -1.04438e-06 6.71949e-17)
(-3.27174e-07 -1.01459e-06 -9.34391e-17)
(-3.58662e-07 -9.82311e-07 3.53354e-17)
(-3.91126e-07 -9.51271e-07 4.73171e-17)
(-4.23035e-07 -9.17021e-07 -9.73643e-17)
(-4.55266e-07 -8.84059e-07 -8.85125e-17)