/*--------------------------------*- C++ -*----------------------------------*\
| =========                 |                                                 |
| \\      /  F ield         | OpenFOAM: The Open Source CFD Toolbox           |
|  \\    /   O peration     | Version:  2506                                  |
|   \\  /    A nd           | Website:  www.openfoam.com                      |
|    \\/     M anipulation  |                                                 |
\*---------------------------------------------------------------------------*/
FoamFile
{
    version     2.0;
    format      ascii;
    arch        "LSB;label=32;scalar=64";
    class       volSymmTensorField;
    location    "450";
    object      turbulenceProperties:R;
}
// * * * * * * * * * * * * * * * * * * * * * * * * * * * * * * * * * * * * * //

dimensions      [0 2 -2 0 0 0 0];

internalField   nonuniform List<symmTensor> 
1340
(
(4.9036e-07 2.98315e-08 -4.14968e-20 4.22542e-07 -5.37227e-21 4.96738e-07)
(8.43514e-07 3.63856e-08 2.09291e-20 1.0413e-06 2.42751e-21 8.87601e-07)
(1.03789e-07 -1.79817e-09 -8.12916e-20 9.73322e-08 -1.017e-20 1.13527e-07)
(3.89648e-07 9.89155e-09 -1.2723e-20 4.86518e-07 -1.43853e-21 4.13384e-07)
(4.86597e-07 3.1216e-08 6.13776e-21 4.23132e-07 6.62746e-22 4.95609e-07)
(8.45412e-07 3.60358e-08 -8.40781e-20 1.0428e-06 -9.51343e-21 8.88331e-07)
(1.00142e-07 -1.4392e-09 -0 1.29194e-07 -5.00778e-23 1.17502e-07)
(1.65587e-07 -5.42613e-09 -2.7507e-20 2.10433e-07 -3.24774e-21 1.81715e-07)
(1.00367e-07 -1.41873e-09 7.72586e-20 9.65469e-08 9.69122e-21 1.11455e-07)
(3.91135e-07 9.36061e-09 3.89288e-20 4.88448e-07 4.6003e-21 4.14836e-07)
(4.84388e-07 3.24178e-08 1.31109e-23 4.25223e-07 7.7192e-23 4.96271e-07)
(8.46863e-07 3.54821e-08 6.9266e-20 1.04319e-06 7.77847e-21 8.87853e-07)
(1.87317e-07 7.01715e-09 -3.50242e-20 2.40404e-07 -4.20694e-21 2.1372e-07)
(1.64466e-07 5.151e-09 7.24604e-22 2.11707e-07 1.78232e-22 1.8851e-07)
(1.54367e-07 1.62394e-09 4.78725e-21 1.99591e-07 5.70935e-22 1.75828e-07)
(1.05199e-07 -2.55012e-09 -0 1.35463e-07 -1.00737e-23 1.23124e-07)
(1.69587e-07 -6.62561e-09 -1.25609e-22 2.15009e-07 -2.19987e-23 1.86051e-07)
(9.77962e-08 -1.08398e-09 5.53548e-22 9.66471e-08 9.52266e-23 1.1022e-07)
(3.92763e-07 9.01605e-09 3.25569e-22 4.90485e-07 6.01958e-23 4.16421e-07)
(4.83499e-07 3.34905e-08 2.87547e-24 4.28223e-07 2.49845e-24 4.98069e-07)
(8.47783e-07 3.45377e-08 3.73872e-22 1.04314e-06 6.88152e-23 8.86899e-07)
(2.67612e-07 9.37088e-09 2.48268e-21 3.43785e-07 3.90361e-22 3.05681e-07)
(2.47941e-07 8.38222e-09 1.05397e-20 3.18707e-07 1.27598e-21 2.83305e-07)
(2.31855e-07 7.64155e-09 1.07127e-20 2.98154e-07 1.08349e-21 2.65027e-07)
(2.1695e-07 7.11532e-09 -3.72825e-20 2.7901e-07 -4.4666e-21 2.47961e-07)
(2.01367e-07 6.49377e-09 9.73394e-21 2.5904e-07 1.26044e-21 2.30239e-07)
(1.86672e-07 5.50197e-09 -1.48567e-20 2.40386e-07 -1.83118e-21 2.13396e-07)
(1.65006e-07 3.71889e-09 9.62177e-23 2.13027e-07 1.37094e-22 1.89425e-07)
(1.56079e-07 1.58495e-10 3.53847e-20 2.01954e-07 4.30206e-21 1.779e-07)
(1.10693e-07 -3.70806e-09 -0 1.42128e-07 -7.19474e-23 1.29142e-07)
(1.73456e-07 -7.76274e-09 2.05019e-21 2.19368e-07 1.40977e-22 1.90252e-07)
(9.59933e-08 -7.77006e-10 -7.06307e-20 9.74955e-08 -8.83597e-21 1.09692e-07)
(3.94421e-07 8.80836e-09 -3.55524e-20 4.92584e-07 -4.20699e-21 4.18114e-07)
(4.8363e-07 3.44825e-08 -2.32402e-21 4.31747e-07 -2.29516e-22 5.00565e-07)
(8.48298e-07 3.31822e-08 9.14177e-21 1.04299e-06 1.03816e-21 8.85816e-07)
(3.74731e-07 8.70395e-09 2.05444e-20 4.83242e-07 2.13864e-21 4.2899e-07)
(3.5141e-07 8.80584e-09 -1.89822e-20 4.52955e-07 -2.31721e-21 4.02185e-07)
(3.28074e-07 8.5908e-09 -4.9468e-21 4.22765e-07 -6.17593e-22 3.75426e-07)
(3.05302e-07 8.17347e-09 -3.07325e-20 3.93383e-07 -3.58041e-21 3.49331e-07)
(2.82937e-07 7.66284e-09 -7.11218e-21 3.64568e-07 -6.88868e-22 3.2378e-07)
(2.61914e-07 7.07884e-09 4.98841e-21 3.37515e-07 6.22035e-22 2.997e-07)
(2.43614e-07 6.27437e-09 2.54687e-21 3.14086e-07 2.80447e-22 2.78836e-07)
(2.2867e-07 5.7106e-09 5.23944e-23 2.94909e-07 2.56985e-23 2.61816e-07)
(2.14722e-07 5.34506e-09 6.23737e-21 2.76931e-07 6.77155e-22 2.4581e-07)
(2.00065e-07 4.86538e-09 -1.70831e-20 2.58085e-07 -1.96536e-21 2.2911e-07)
(1.86202e-07 3.97582e-09 3.24528e-20 2.40398e-07 3.90457e-21 2.13177e-07)
(1.65825e-07 2.25695e-09 -2.10643e-20 2.14509e-07 -2.727e-21 1.90555e-07)
(1.58096e-07 -1.32425e-09 -3.34103e-20 2.04498e-07 -3.99082e-21 1.80228e-07)
(1.16545e-07 -4.90665e-09 -0 1.4909e-07 7.32731e-23 1.35465e-07)
(1.77103e-07 -8.83376e-09 -1.95123e-21 2.23408e-07 -1.27667e-22 1.94223e-07)
(9.49002e-08 -4.85758e-10 6.70483e-20 9.90195e-08 8.3645e-21 1.09804e-07)
(3.95968e-07 8.715e-09 3.36014e-20 4.9457e-07 3.95527e-21 4.1976e-07)
(4.8442e-07 3.53918e-08 2.21173e-21 4.35539e-07 2.19283e-22 5.03465e-07)
(8.48546e-07 3.1451e-08 -8.60168e-21 1.04277e-06 -9.69635e-22 8.8463e-07)
(5.09161e-07 -4.44729e-09 -2.22217e-21 6.58486e-07 -3.73739e-22 5.83833e-07)
(4.8727e-07 -2.50003e-09 -1.20159e-20 6.3033e-07 -1.45892e-21 5.58809e-07)
(4.65513e-07 -6.97899e-10 -2.14404e-20 6.02244e-07 -2.22486e-21 5.33887e-07)
(4.44033e-07 9.8903e-10 7.58386e-21 5.74425e-07 9.78231e-22 5.09235e-07)
(4.22872e-07 2.54001e-09 -1.95654e-21 5.4694e-07 -2.09489e-22 4.84913e-07)
(4.01949e-07 3.87602e-09 9.79568e-21 5.19707e-07 1.27272e-21 4.60833e-07)
(3.81036e-07 4.90141e-09 2.53082e-20 4.92472e-07 2.81525e-21 4.36759e-07)
(3.59935e-07 5.54656e-09 1.39771e-22 4.65025e-07 -4.18499e-23 4.12484e-07)
(3.38613e-07 5.81602e-09 1.49606e-20 4.3736e-07 1.70661e-21 3.8799e-07)
(3.1725e-07 5.78422e-09 -1.37182e-21 4.09713e-07 -2.19885e-22 3.63488e-07)
(2.96378e-07 5.56337e-09 1.31479e-21 3.82747e-07 2.09318e-22 3.39552e-07)
(2.75761e-07 5.24909e-09 1.35273e-20 3.5614e-07 1.54916e-21 3.1598e-07)
(2.56308e-07 4.84173e-09 -4.69358e-21 3.31056e-07 -6.11663e-22 2.93668e-07)
(2.39405e-07 4.20986e-09 -2.36131e-21 3.09336e-07 -2.57917e-22 2.74358e-07)
(2.256e-07 3.81325e-09 7.83638e-23 2.91556e-07 2.68289e-23 2.58604e-07)
(2.12608e-07 3.59765e-09 -4.67729e-23 2.74768e-07 -3.80175e-24 2.43673e-07)
(1.98901e-07 3.24813e-09 -1.36987e-22 2.57096e-07 -8.06566e-23 2.28031e-07)
(1.8588e-07 2.44887e-09 -1.76966e-20 2.404e-07 -2.06358e-21 2.13029e-07)
(1.669e-07 7.7324e-10 2.00359e-20 2.16117e-07 2.46748e-21 1.91871e-07)
(1.60385e-07 -2.81814e-09 -1.33716e-22 2.07181e-07 -7.62923e-23 1.82772e-07)
(1.22697e-07 -6.13862e-09 -0 1.56277e-07 4.51316e-24 1.42027e-07)
(1.8046e-07 -9.83315e-09 1.85265e-21 2.27065e-07 1.13299e-22 1.97893e-07)
(9.4459e-08 -2.03803e-10 -6.83459e-20 1.01167e-07 -8.44933e-21 1.10496e-07)
(3.97379e-07 8.72584e-09 1.12644e-22 4.9641e-07 1.18061e-22 4.21322e-07)
(4.85588e-07 3.62085e-08 -6.29188e-21 4.39388e-07 -8.12086e-22 5.06536e-07)
(8.48407e-07 2.93571e-08 -4.70433e-23 1.04226e-06 -3.43449e-24 8.83162e-07)
(6.96691e-07 -4.51242e-08 2.13661e-21 8.77341e-07 2.06135e-23 7.87025e-07)
(6.79525e-07 -4.1594e-08 -1.34535e-20 8.58422e-07 -1.40931e-21 7.68983e-07)
(6.62023e-07 -3.80634e-08 -2.69164e-22 8.38853e-07 3.00552e-22 7.5045e-07)
(6.44234e-07 -3.45373e-08 1.22133e-20 8.18695e-07 1.10397e-21 7.31478e-07)
(6.26234e-07 -3.1037e-08 -1.30381e-20 7.98028e-07 -1.47835e-21 7.12143e-07)
(6.08059e-07 -2.75876e-08 2.37923e-21 7.76878e-07 4.17343e-22 6.92481e-07)
(5.89769e-07 -2.42183e-08 9.21336e-22 7.55308e-07 4.62407e-23 6.72551e-07)
(5.71405e-07 -2.09753e-08 -2.21037e-21 7.33353e-07 -8.59453e-23 6.52391e-07)
(5.52986e-07 -1.79047e-08 1.54403e-20 7.11031e-07 1.88064e-21 6.32019e-07)
(5.3447e-07 -1.50501e-08 2.17023e-20 6.88293e-07 2.18902e-21 6.11392e-07)
(5.1582e-07 -1.24427e-08 1.61404e-21 6.65111e-07 2.35091e-23 5.90475e-07)
(4.96982e-07 -1.00828e-08 5.70297e-21 6.41458e-07 5.51467e-22 5.69229e-07)
(4.7797e-07 -7.94186e-09 -6.14786e-21 6.17394e-07 -7.17397e-22 5.4769e-07)
(4.58835e-07 -5.96765e-09 -6.81913e-23 5.9303e-07 2.85839e-22 5.2594e-07)
(4.39703e-07 -4.10549e-09 3.23236e-20 5.68558e-07 3.55828e-21 5.04137e-07)
(4.20699e-07 -2.33581e-09 4.43261e-23 5.44152e-07 -3.51085e-22 4.82431e-07)
(4.0186e-07 -6.92719e-10 -1.83948e-20 5.19867e-07 -2.08359e-21 4.60868e-07)
(3.83121e-07 7.39602e-10 -3.75859e-21 4.95633e-07 -4.07315e-22 4.39381e-07)
(3.64294e-07 1.8641e-09 -1.72936e-20 4.71235e-07 -1.95397e-21 4.17768e-07)
(3.45228e-07 2.6204e-09 -4.06774e-21 4.46516e-07 -3.65511e-22 3.95875e-07)
(3.25911e-07 3.01746e-09 1.38762e-22 4.21495e-07 -5.23572e-23 3.73706e-07)
(3.06524e-07 3.13501e-09 -2.13454e-20 3.96415e-07 -2.45838e-21 3.51476e-07)
(2.8755e-07 3.08037e-09 -1.40627e-21 3.7189e-07 -8.73728e-23 3.29709e-07)
(2.68684e-07 2.93442e-09 -5.19757e-21 3.47519e-07 -6.01122e-22 3.0813e-07)
(2.50822e-07 2.68093e-09 -3.89713e-23 3.24453e-07 2.33894e-23 2.87622e-07)
(2.35326e-07 2.20799e-09 2.24845e-21 3.04479e-07 1.81005e-22 2.69892e-07)
(2.22647e-07 1.96699e-09 -1.82414e-20 2.88107e-07 -2.10049e-21 2.55402e-07)
(2.10606e-07 1.88809e-09 1.6585e-20 2.72525e-07 2.09971e-21 2.41551e-07)
(1.97865e-07 1.65479e-09 1.52572e-20 2.56066e-07 1.8523e-21 2.26993e-07)
(1.85699e-07 9.3046e-10 2.77654e-20 2.40388e-07 3.19e-21 2.12943e-07)
(1.68224e-07 -7.24845e-10 -3.23155e-20 2.1784e-07 -3.97384e-21 1.93363e-07)
(1.62927e-07 -4.31749e-09 -5.52953e-23 2.09981e-07 7.25345e-23 1.85511e-07)
(1.29098e-07 -7.39622e-09 -0 1.63632e-07 -2.71547e-24 1.48777e-07)
(1.83459e-07 -1.07547e-08 -1.74773e-21 2.30268e-07 -1.78701e-22 2.01196e-07)
(9.46281e-08 7.72588e-11 1.74564e-20 1.03894e-07 2.15259e-21 1.11726e-07)
(3.98592e-07 8.82716e-09 7.50494e-21 4.98037e-07 8.80327e-22 4.22746e-07)
(4.86768e-07 3.69345e-08 -7.37611e-21 4.42978e-07 -9.64417e-22 5.09407e-07)
(8.48062e-07 2.68929e-08 1.89064e-24 1.04171e-06 6.51458e-24 8.81656e-07)
(6.60388e-07 -4.62564e-08 1.24398e-21 7.98753e-07 1.6466e-22 7.12429e-07)
(7.19061e-07 -8.39362e-08 1.80122e-21 8.71705e-07 1.13818e-22 7.96629e-07)
(6.4726e-07 -7.46701e-08 -9.14498e-23 7.71316e-07 -4.28096e-23 7.1816e-07)
(6.66872e-07 -6.85554e-08 3.35832e-22 7.93266e-07 4.59992e-23 7.28158e-07)
(6.69295e-07 -7.09955e-08 4.21447e-22 7.88662e-07 3.64735e-23 7.29704e-07)
(7.00572e-07 -7.60066e-08 1.90926e-22 8.24396e-07 7.52141e-24 7.62201e-07)
(7.18426e-07 -7.93487e-08 1.00723e-22 8.41871e-07 -3.38086e-23 7.80222e-07)
(7.35861e-07 -8.20945e-08 -1.50709e-21 8.5946e-07 -1.59113e-22 7.97584e-07)
(7.51158e-07 -8.45611e-08 -5.93171e-22 8.74514e-07 1.60401e-23 8.1284e-07)
(7.65489e-07 -8.67349e-08 1.34046e-21 8.88961e-07 1.42249e-22 8.27191e-07)
(7.78604e-07 -8.87104e-08 -0 9.02281e-07 -3.7785e-23 8.40422e-07)
(7.90399e-07 -9.04123e-08 -7.11867e-23 9.14497e-07 6.2217e-23 8.52404e-07)
(8.00619e-07 -9.18514e-08 2.70771e-21 9.25183e-07 2.65146e-22 8.62875e-07)
(8.09296e-07 -9.30146e-08 8.12557e-23 9.34463e-07 1.18072e-23 8.71872e-07)
(8.16706e-07 -9.39171e-08 2.77706e-21 9.4272e-07 2.69978e-22 8.79668e-07)
(8.22493e-07 -9.4568e-08 1.68591e-22 9.49373e-07 -3.39689e-23 8.85905e-07)
(8.26828e-07 -9.49542e-08 5.43131e-22 9.54731e-07 9.09879e-23 8.90751e-07)
(8.29773e-07 -9.50991e-08 2.00096e-21 9.58806e-07 1.99151e-22 8.94265e-07)
(8.31379e-07 -9.50025e-08 9.67021e-22 9.61666e-07 1.07606e-22 8.96495e-07)
(8.31744e-07 -9.46842e-08 2.59402e-21 9.63382e-07 1.76361e-22 8.97533e-07)
(8.30892e-07 -9.41462e-08 -2.29589e-21 9.63972e-07 -3.48625e-22 8.97401e-07)
(8.28917e-07 -9.3408e-08 -3.29991e-21 9.63495e-07 -2.43381e-22 8.96185e-07)
(8.25937e-07 -9.24703e-08 1.10375e-21 9.62112e-07 1.58581e-22 8.93998e-07)
(8.22039e-07 -9.13574e-08 -7.8939e-22 9.59857e-07 -1.47471e-22 8.90921e-07)
(8.17285e-07 -9.00748e-08 -2.25149e-21 9.56786e-07 -2.45829e-22 8.87009e-07)
(8.11747e-07 -8.86347e-08 -1.9205e-21 9.52952e-07 -6.47087e-23 8.82328e-07)
(8.05522e-07 -8.70433e-08 3.82359e-21 9.4846e-07 3.8462e-22 8.76966e-07)
(7.98701e-07 -8.53218e-08 -1.29131e-21 9.43364e-07 -1.88928e-22 8.71007e-07)
(7.91269e-07 -8.34673e-08 4.8297e-22 9.37636e-07 3.94008e-23 8.6443e-07)
(7.8335e-07 -8.1494e-08 -1.6738e-21 9.31397e-07 -1.22634e-22 8.57349e-07)
(7.74932e-07 -7.94058e-08 2.64668e-21 9.24605e-07 3.1891e-22 8.49744e-07)
(7.6607e-07 -7.72114e-08 1.61755e-21 9.17304e-07 1.44313e-22 8.41662e-07)
(7.56805e-07 -7.49203e-08 1.89989e-21 9.09514e-07 2.40732e-22 8.33134e-07)
(7.47124e-07 -7.25313e-08 4.66556e-21 9.01209e-07 3.7082e-22 8.24141e-07)
(7.37078e-07 -7.00591e-08 -3.55918e-21 8.92417e-07 -4.65367e-22 8.14723e-07)
(7.2666e-07 -6.75022e-08 -1.96854e-21 8.83121e-07 -1.38682e-22 8.04864e-07)
(7.15858e-07 -6.48703e-08 1.66589e-22 8.73274e-07 1.30963e-23 7.94544e-07)
(7.04724e-07 -6.2167e-08 -2.28358e-21 8.62935e-07 -2.44351e-22 7.83805e-07)
(6.93187e-07 -5.93989e-08 -9.08636e-22 8.5199e-07 -1.15284e-22 7.7257e-07)
(6.81272e-07 -5.65659e-08 -3.62032e-21 8.40465e-07 -3.31769e-22 7.60853e-07)
(6.69007e-07 -5.36786e-08 1.25369e-21 8.28375e-07 2.05858e-22 7.48676e-07)
(6.5633e-07 -5.07352e-08 1.59538e-21 8.15638e-07 8.92357e-23 7.35973e-07)
(6.43265e-07 -4.77445e-08 -4.06135e-21 8.02265e-07 -3.95287e-22 7.22757e-07)
(6.29788e-07 -4.47039e-08 3.21571e-21 7.88227e-07 3.91318e-22 7.09004e-07)
(6.15954e-07 -4.16227e-08 -1.06573e-22 7.73577e-07 -6.50257e-23 6.94763e-07)
(6.0174e-07 -3.85061e-08 -3.12422e-27 7.58275e-07 -1.61895e-23 6.80008e-07)
(5.87192e-07 -3.53649e-08 6.54372e-23 7.42366e-07 5.82207e-23 6.64782e-07)
(5.72381e-07 -3.22172e-08 3.24308e-21 7.2592e-07 2.1377e-22 6.49154e-07)
(5.57326e-07 -2.90869e-08 -1.12107e-20 7.08938e-07 -1.217e-21 6.33137e-07)
(5.42097e-07 -2.60091e-08 4.62477e-24 6.91484e-07 1.15725e-22 6.16797e-07)
(5.26748e-07 -2.30265e-08 2.73766e-23 6.73604e-07 -4.15492e-23 6.00182e-07)
(5.11275e-07 -2.01887e-08 -4.28496e-21 6.55277e-07 -4.5408e-22 5.83282e-07)
(4.9565e-07 -1.75328e-08 1.61333e-22 6.36469e-07 7.01498e-23 5.66066e-07)
(4.79842e-07 -1.50881e-08 -5.04364e-22 6.17157e-07 -4.72045e-23 5.48506e-07)
(4.63787e-07 -1.28509e-08 1.65617e-23 5.97296e-07 -9.38484e-24 5.30548e-07)
(4.47487e-07 -1.07887e-08 -2.38652e-21 5.76935e-07 -2.59863e-22 5.12216e-07)
(4.30975e-07 -8.85001e-09 2.01826e-23 5.56161e-07 -8.67263e-23 4.93573e-07)
(4.14351e-07 -6.9891e-09 -1.38033e-20 5.35132e-07 -1.51359e-21 4.74747e-07)
(3.97722e-07 -5.1973e-09 3.46709e-24 5.13995e-07 2.0584e-22 4.55863e-07)
(3.81126e-07 -3.51987e-09 1.54722e-20 4.928e-07 1.72177e-21 4.36967e-07)
(3.64516e-07 -2.04625e-09 -1.77617e-23 4.71489e-07 -6.18954e-24 4.18006e-07)
(3.47741e-07 -8.72004e-10 1.65263e-20 4.49881e-07 1.85813e-21 3.98814e-07)
(3.30689e-07 -5.01516e-11 -1.00732e-21 4.27867e-07 -2.79289e-22 3.7928e-07)
(3.13368e-07 4.35618e-10 -1.37466e-20 4.05485e-07 -1.56127e-21 3.59429e-07)
(2.95947e-07 6.6757e-10 -1.97177e-22 3.82974e-07 3.88845e-23 3.39466e-07)
(2.78855e-07 7.47502e-10 -1.60393e-23 3.60886e-07 1.41432e-23 3.19859e-07)
(2.61731e-07 7.39759e-10 5.02734e-21 3.3876e-07 5.9819e-22 3.00274e-07)
(2.45471e-07 6.16751e-10 4.30559e-21 3.17745e-07 4.81532e-22 2.81593e-07)
(2.31383e-07 2.86941e-10 4.17766e-23 2.99539e-07 -8.95016e-24 2.65451e-07)
(2.19806e-07 1.88566e-10 -1.26706e-22 2.84567e-07 -1.94968e-23 2.52211e-07)
(2.08708e-07 2.31356e-10 8.27546e-23 2.70202e-07 -4.05334e-23 2.39442e-07)
(1.96944e-07 9.74147e-11 -1.44739e-20 2.54984e-07 -1.79542e-21 2.25987e-07)
(1.85647e-07 -5.70544e-10 -2.23924e-20 2.4035e-07 -2.54028e-21 2.12912e-07)
(1.69788e-07 -2.23018e-09 3.19075e-20 2.19666e-07 3.92816e-21 1.95024e-07)
(1.65707e-07 -5.81701e-09 1.53808e-20 2.12885e-07 1.7715e-21 1.88429e-07)
(1.35705e-07 -8.67037e-09 -0 1.71108e-07 -4.42829e-23 1.55671e-07)
(1.86059e-07 -1.15932e-08 -5.0799e-21 2.32982e-07 -5.4069e-22 2.04092e-07)
(9.53505e-08 3.7246e-10 4.52569e-20 1.07144e-07 5.53559e-21 1.13433e-07)
(3.99447e-07 8.99673e-09 -3.48665e-20 4.99286e-07 -4.28896e-21 4.23898e-07)
(4.87828e-07 3.75959e-08 1.842e-21 4.46186e-07 2.95018e-22 5.11923e-07)
(8.47599e-07 2.40601e-08 1.85218e-24 1.04126e-06 -1.64722e-24 8.80266e-07)
(7.14833e-07 -7.12938e-08 -1.33855e-22 8.92604e-07 -8.83658e-24 7.81389e-07)
(5.79473e-07 -6.48456e-08 1.92089e-22 6.85989e-07 1.77341e-23 6.33845e-07)
(5.34146e-07 -5.9491e-08 -2.12198e-22 6.22661e-07 -2.59959e-23 5.84624e-07)
(5.82569e-07 -6.23981e-08 -7.69353e-23 6.84849e-07 -2.78316e-24 6.3224e-07)
(5.94665e-07 -6.62308e-08 5.89796e-25 6.94484e-07 2.43826e-24 6.45151e-07)
(6.14873e-07 -6.9132e-08 1.69805e-25 7.16541e-07 -3.56804e-23 6.65491e-07)
(6.27889e-07 -7.1372e-08 -1.52343e-21 7.28709e-07 -1.31453e-22 6.78369e-07)
(6.41841e-07 -7.34739e-08 6.14647e-22 7.42766e-07 9.5078e-23 6.92261e-07)
(6.54334e-07 -7.53938e-08 5.91219e-23 7.55182e-07 -3.24359e-23 7.04756e-07)
(6.6608e-07 -7.71331e-08 -9.73353e-22 7.67097e-07 -9.57213e-23 7.16572e-07)
(6.76735e-07 -7.86826e-08 -0 7.78009e-07 -2.06399e-23 7.2736e-07)
(6.86244e-07 -8.00176e-08 -1.85289e-21 7.87902e-07 -1.9898e-22 7.37057e-07)
(6.94567e-07 -8.11463e-08 -7.53619e-22 7.96708e-07 -3.08777e-23 7.45624e-07)
(7.01697e-07 -8.20689e-08 1.56366e-25 8.04429e-07 -2.38385e-23 7.53056e-07)
(7.07736e-07 -8.27859e-08 -1.89574e-21 8.11228e-07 -1.45705e-22 7.59453e-07)
(7.12489e-07 -8.33026e-08 1.72633e-21 8.16777e-07 2.47419e-22 7.6462e-07)
(7.16109e-07 -8.36165e-08 1.86038e-21 8.21325e-07 1.15415e-22 7.68707e-07)
(7.18689e-07 -8.37403e-08 -1.41459e-21 8.24966e-07 -1.97866e-22 7.71805e-07)
(7.20178e-07 -8.3684e-08 -1.14945e-21 8.27574e-07 -9.70995e-23 7.7386e-07)
(7.20664e-07 -8.34454e-08 -5.78733e-22 8.29286e-07 -3.58096e-23 7.74958e-07)
(7.20237e-07 -8.30407e-08 -3.22666e-22 8.30173e-07 3.75007e-23 7.75186e-07)
(7.1893e-07 -8.24748e-08 2.87034e-21 8.30252e-07 2.83893e-22 7.74572e-07)
(7.16833e-07 -8.17616e-08 1.97928e-24 8.296e-07 -2.99944e-23 7.73202e-07)
(7.14026e-07 -8.09025e-08 1.2452e-21 8.2832e-07 1.50368e-22 7.71153e-07)
(7.10546e-07 -7.99144e-08 1.44516e-21 8.26395e-07 1.19536e-22 7.68455e-07)
(7.06468e-07 -7.87978e-08 1.83793e-22 8.23922e-07 -3.44913e-23 7.6518e-07)
(7.01894e-07 -7.75693e-08 -1.15884e-21 8.20986e-07 -1.24181e-22 7.61423e-07)
(6.96801e-07 -7.62283e-08 -6.18422e-22 8.17539e-07 -4.00163e-23 7.57156e-07)
(6.91275e-07 -7.47836e-08 1.56599e-24 8.13666e-07 1.65849e-23 7.52458e-07)
(6.85359e-07 -7.32407e-08 3.37631e-22 8.09405e-07 3.03772e-23 7.47369e-07)
(6.79057e-07 -7.1603e-08 8.85554e-24 8.04733e-07 3.17139e-23 7.41884e-07)
(6.72423e-07 -6.9877e-08 2.31764e-21 7.99701e-07 2.33283e-22 7.3605e-07)
(6.6545e-07 -6.80674e-08 3.892e-24 7.94275e-07 -3.57552e-23 7.29855e-07)
(6.58173e-07 -6.61732e-08 1.70007e-23 7.88496e-07 7.30612e-23 7.23326e-07)
(6.50594e-07 -6.42032e-08 3.99299e-21 7.82336e-07 4.19306e-22 7.16458e-07)
(6.42697e-07 -6.21555e-08 1.2153e-21 7.75765e-07 2.64639e-23 7.09226e-07)
(6.34509e-07 -6.00367e-08 -2.21984e-21 7.68799e-07 -2.1986e-22 7.0165e-07)
(6.26014e-07 -5.78464e-08 1.43715e-21 7.61408e-07 1.74893e-22 6.93706e-07)
(6.17185e-07 -5.55863e-08 -4.26405e-24 7.53544e-07 -4.60234e-23 6.8536e-07)
(6.08021e-07 -5.32611e-08 -1.70925e-21 7.45189e-07 -1.97026e-22 6.76603e-07)
(5.9851e-07 -5.08674e-08 -1.51447e-21 7.36327e-07 -1.148e-22 6.67417e-07)
(5.88648e-07 -4.84096e-08 1.36549e-21 7.2694e-07 1.91196e-22 6.57791e-07)
(5.78389e-07 -4.58884e-08 2.19285e-21 7.16955e-07 2.16348e-22 6.47672e-07)
(5.67734e-07 -4.32991e-08 1.16751e-21 7.06374e-07 2.11292e-22 6.37056e-07)
(5.56726e-07 -4.06536e-08 9.31946e-21 6.95234e-07 9.4951e-22 6.25981e-07)
(5.45315e-07 -3.79484e-08 1.06632e-24 6.8346e-07 -1.17178e-22 6.14391e-07)
(5.33575e-07 -3.5199e-08 6.65394e-24 6.71129e-07 -2.66553e-23 6.02356e-07)
(5.21536e-07 -3.24204e-08 -3.20878e-21 6.58254e-07 -2.52718e-22 5.899e-07)
(5.09239e-07 -2.96364e-08 7.02715e-21 6.44859e-07 7.64619e-22 5.77055e-07)
(4.96751e-07 -2.68845e-08 1.18947e-22 6.30999e-07 -1.45266e-22 5.63882e-07)
(4.84113e-07 -2.42048e-08 -8.52999e-21 6.16698e-07 -9.08524e-22 5.50413e-07)
(4.71322e-07 -2.16432e-08 3.15343e-23 6.01931e-07 -1.29391e-23 5.36634e-07)
(4.58356e-07 -1.92363e-08 -9.88068e-21 5.86666e-07 -1.05298e-21 5.2252e-07)
(4.4518e-07 -1.70052e-08 4.85462e-22 5.70876e-07 1.66258e-22 5.08035e-07)
(4.31715e-07 -1.49411e-08 3.22531e-21 5.54494e-07 3.35972e-22 4.93112e-07)
(4.17951e-07 -1.30083e-08 -1.89623e-21 5.37556e-07 -2.71491e-22 4.77761e-07)
(4.03898e-07 -1.11575e-08 -5.46643e-21 5.20118e-07 -5.89965e-22 4.62016e-07)
(3.8964e-07 -9.34985e-09 -1.20957e-22 5.02316e-07 1.30681e-23 4.45985e-07)
(3.75265e-07 -7.58893e-09 3.24074e-24 4.84267e-07 -2.25823e-24 4.29772e-07)
(3.60812e-07 -5.92966e-09 1.25702e-22 4.66011e-07 2.32295e-23 4.13417e-07)
(3.46257e-07 -4.46525e-09 -1.19728e-23 4.47508e-07 -9.23844e-23 3.96888e-07)
(3.31483e-07 -3.28828e-09 -1.5691e-20 4.28614e-07 -1.7384e-21 3.80053e-07)
(3.1641e-07 -2.44381e-09 5.58731e-21 4.0925e-07 7.90025e-22 3.62834e-07)
(3.01053e-07 -1.9069e-09 1.30557e-20 3.89467e-07 1.56176e-21 3.45264e-07)
(2.8557e-07 -1.59547e-09 1.94353e-20 3.69495e-07 2.17648e-21 3.27539e-07)
(2.70332e-07 -1.41295e-09 -4.42984e-23 3.49821e-07 -1.46244e-22 3.10066e-07)
(2.54927e-07 -1.31307e-09 -1.16962e-20 3.29924e-07 -1.37677e-21 2.92455e-07)
(2.40271e-07 -1.33013e-09 -4.08115e-21 3.10975e-07 -4.58568e-22 2.75608e-07)
(2.27574e-07 -1.53385e-09 -7.55503e-21 2.94536e-07 -8.09883e-22 2.61047e-07)
(2.17064e-07 -1.50396e-09 1.17895e-20 2.80943e-07 1.4122e-21 2.49028e-07)
(2.06901e-07 -1.35638e-09 -3.67182e-21 2.678e-07 -4.34187e-22 2.37339e-07)
(1.9612e-07 -1.41127e-09 1.41297e-20 2.53844e-07 1.81874e-21 2.25001e-07)
(1.85717e-07 -2.04386e-09 3.86861e-20 2.40286e-07 4.62388e-21 2.12929e-07)
(1.71578e-07 -3.73482e-09 1.76458e-20 2.21581e-07 2.00867e-21 1.9684e-07)
(1.68711e-07 -7.3096e-09 6.25857e-23 2.1588e-07 -3.48739e-23 1.91512e-07)
(1.42458e-07 -9.94832e-09 -0 1.78648e-07 1.26061e-23 1.62649e-07)
(1.88227e-07 -1.23451e-08 4.80755e-21 2.35185e-07 5.83491e-22 2.06559e-07)
(9.64954e-08 7.0346e-10 1.55367e-22 1.10802e-07 7.32821e-23 1.15472e-07)
(4.00093e-07 9.19979e-09 3.30962e-20 5.00385e-07 4.01968e-21 4.24982e-07)
(4.88545e-07 3.82302e-08 1.8855e-20 4.48753e-07 2.38603e-21 5.13771e-07)
(8.47237e-07 2.08483e-08 1.84215e-24 1.04128e-06 -1.67577e-23 8.79386e-07)
(5.51608e-07 -5.12821e-08 4.78488e-22 6.67192e-07 5.59786e-23 5.94633e-07)
(4.93959e-07 -5.51689e-08 4.98764e-22 5.7466e-07 4.09577e-23 5.35328e-07)
(4.77322e-07 -5.48529e-08 -2.59405e-23 5.49876e-07 -2.00765e-23 5.18606e-07)
(5.20392e-07 -5.83903e-08 -3.91672e-22 6.06037e-07 -3.78055e-23 5.62002e-07)
(5.26835e-07 -6.0547e-08 4.65653e-23 6.0932e-07 1.59683e-23 5.68521e-07)
(5.41075e-07 -6.23858e-08 1.56948e-22 6.24539e-07 1.6886e-23 5.82618e-07)
(5.51607e-07 -6.41041e-08 -2.025e-24 6.34536e-07 -4.21603e-24 5.93086e-07)
(5.62625e-07 -6.57284e-08 5.74783e-25 6.4567e-07 -1.12065e-24 6.04104e-07)
(5.72609e-07 -6.71982e-08 -2.06331e-25 6.55751e-07 2.79144e-25 6.14136e-07)
(5.81888e-07 -6.85382e-08 -2.00009e-24 6.65219e-07 -1.27894e-24 6.23513e-07)
(5.90156e-07 -6.9709e-08 -0 6.73733e-07 9.71623e-25 6.31924e-07)
(5.97682e-07 -7.07219e-08 -3.18618e-24 6.8169e-07 -3.14229e-24 6.3964e-07)
(6.04224e-07 -7.15822e-08 2.01681e-25 6.88695e-07 -6.45135e-25 6.46419e-07)
(6.09822e-07 -7.22788e-08 5.40326e-25 6.9486e-07 1.10737e-23 6.52302e-07)
(6.1452e-07 -7.28211e-08 4.40743e-22 7.0022e-07 3.40049e-23 6.57331e-07)
(6.18286e-07 -7.32027e-08 -3.67122e-22 7.04751e-07 -4.63546e-23 6.61476e-07)
(6.21148e-07 -7.34404e-08 3.60449e-24 7.08427e-07 1.1376e-23 6.64761e-07)
(6.23226e-07 -7.35201e-08 -3.89305e-24 7.1149e-07 2.23461e-24 6.67306e-07)
(6.24465e-07 -7.34725e-08 -3.51667e-24 7.13723e-07 6.25632e-24 6.69053e-07)
(6.24875e-07 -7.32761e-08 5.56902e-22 7.15222e-07 6.29446e-23 6.70013e-07)
(6.24643e-07 -7.2957e-08 3.00546e-22 7.16169e-07 1.7515e-23 6.70368e-07)
(6.2374e-07 -7.25104e-08 9.47652e-24 7.16525e-07 -3.47055e-24 6.70087e-07)
(6.2224e-07 -7.19539e-08 -3.1714e-25 7.1633e-07 1.30848e-24 6.69242e-07)
(6.20137e-07 -7.12839e-08 3.56049e-24 7.15576e-07 8.66067e-25 6.67823e-07)
(6.17589e-07 -7.05092e-08 2.61573e-24 7.14462e-07 -2.84876e-23 6.65984e-07)
(6.14603e-07 -6.96439e-08 -1.77138e-21 7.12937e-07 -1.75326e-22 6.6373e-07)
(6.11187e-07 -6.86832e-08 2.23503e-22 7.11017e-07 5.25226e-23 6.61063e-07)
(6.07416e-07 -6.76376e-08 -2.43175e-24 7.08768e-07 -4.91055e-24 6.58055e-07)
(6.03322e-07 -6.65091e-08 -2.35948e-23 7.06221e-07 -8.30047e-24 6.54735e-07)
(5.98928e-07 -6.53021e-08 -3.26582e-22 7.03384e-07 -3.46673e-23 6.5112e-07)
(5.94256e-07 -6.402e-08 1.13809e-24 7.00269e-07 7.06119e-25 6.47228e-07)
(5.89341e-07 -6.26663e-08 8.74974e-24 6.96906e-07 2.37082e-23 6.43088e-07)
(5.84166e-07 -6.12435e-08 1.28711e-21 6.93252e-07 1.32587e-22 6.38678e-07)
(5.78762e-07 -5.97503e-08 2.09297e-24 6.89348e-07 -1.41915e-23 6.34024e-07)
(5.73137e-07 -5.81913e-08 1.16195e-23 6.85182e-07 -1.06722e-23 6.29128e-07)
(5.67269e-07 -5.65677e-08 -1.15974e-21 6.80711e-07 -8.60414e-23 6.23962e-07)
(5.6116e-07 -5.48782e-08 2.10775e-21 6.75934e-07 2.10713e-22 6.18521e-07)
(5.548e-07 -5.31232e-08 -1.37537e-21 6.70827e-07 -1.69075e-22 6.12789e-07)
(5.48175e-07 -5.13022e-08 -8.47626e-25 6.65364e-07 3.76471e-23 6.06746e-07)
(5.41248e-07 -4.94153e-08 1.6141e-21 6.59488e-07 1.82343e-22 6.00348e-07)
(5.34023e-07 -4.74593e-08 1.43536e-21 6.532e-07 1.24516e-22 5.93592e-07)
(5.26479e-07 -4.54356e-08 8.84846e-24 6.46463e-07 -1.40073e-23 5.86452e-07)
(5.18555e-07 -4.33375e-08 6.50874e-24 6.39196e-07 -1.42145e-23 5.7886e-07)
(5.10295e-07 -4.11671e-08 -1.07176e-21 6.31448e-07 -1.61859e-22 5.70856e-07)
(5.01664e-07 -3.8927e-08 -4.73445e-21 6.23159e-07 -4.76952e-22 5.62397e-07)
(4.9265e-07 -3.66149e-08 9.37851e-25 6.14306e-07 4.51735e-23 5.53466e-07)
(4.83331e-07 -3.42468e-08 5.87484e-24 6.04963e-07 9.92785e-24 5.44136e-07)
(4.73707e-07 -3.1834e-08 -2.76208e-23 5.95105e-07 -1.98926e-23 5.34396e-07)
(4.63839e-07 -2.94045e-08 -1.78028e-21 5.84779e-07 -1.9337e-22 5.24301e-07)
(4.53785e-07 -2.69909e-08 -1.11859e-22 5.74023e-07 9.09261e-24 5.13896e-07)
(4.43574e-07 -2.46348e-08 -6.57075e-23 5.62839e-07 1.98267e-23 5.032e-07)
(4.33212e-07 -2.23755e-08 3.91728e-21 5.51217e-07 4.05081e-22 4.92209e-07)
(4.22679e-07 -2.02479e-08 -1.49678e-21 5.39122e-07 -1.95518e-22 4.80896e-07)
(4.11914e-07 -1.82644e-08 -5.55872e-24 5.26494e-07 -1.56297e-23 4.692e-07)
(4.00834e-07 -1.64074e-08 -3.04883e-21 5.13263e-07 -2.96867e-22 4.57046e-07)
(3.8942e-07 -1.4642e-08 3.89183e-21 4.99452e-07 4.88034e-22 4.44434e-07)
(3.7766e-07 -1.2919e-08 5.14874e-21 4.8509e-07 6.25421e-22 4.31373e-07)
(3.65608e-07 -1.1207e-08 1.4008e-20 4.70269e-07 1.51034e-21 4.17938e-07)
(3.53354e-07 -9.52189e-09 -3.88375e-23 4.55101e-07 -1.73589e-22 4.04226e-07)
(3.40945e-07 -7.92692e-09 -1.2494e-20 4.39623e-07 -1.37845e-21 3.90284e-07)
(3.28366e-07 -6.51652e-09 3.31638e-21 4.238e-07 4.47935e-22 3.76083e-07)
(3.15535e-07 -5.37958e-09 -1.30878e-22 4.07521e-07 -8.06906e-23 3.61528e-07)
(3.02392e-07 -4.55227e-09 -7.0153e-21 3.90729e-07 -8.84047e-22 3.4656e-07)
(2.88969e-07 -3.99814e-09 -1.80681e-20 3.73499e-07 -2.09273e-21 3.31235e-07)
(2.7539e-07 -3.64243e-09 -1.66405e-20 3.5602e-07 -1.78515e-21 3.15707e-07)
(2.61958e-07 -3.3868e-09 9.17746e-21 3.38706e-07 1.12837e-21 3.00321e-07)
(2.48254e-07 -3.2111e-09 -7.46592e-22 3.21023e-07 -1.14532e-22 2.84666e-07)
(2.35201e-07 -3.14606e-09 3.88132e-21 3.04147e-07 4.47115e-22 2.69657e-07)
(2.23867e-07 -3.24007e-09 -1.08916e-21 2.89457e-07 -1.42511e-22 2.56655e-07)
(2.14386e-07 -3.09831e-09 4.37521e-23 2.77211e-07 1.26732e-23 2.45823e-07)
(2.05159e-07 -2.86497e-09 9.0812e-24 2.65305e-07 -5.62833e-23 2.35221e-07)
(1.95369e-07 -2.86243e-09 -1.60704e-20 2.52626e-07 -1.96164e-21 2.24012e-07)
(1.85893e-07 -3.48345e-09 -1.52378e-20 2.40187e-07 -1.76595e-21 2.12982e-07)
(1.73591e-07 -5.23309e-09 8.34755e-23 2.23585e-07 5.57936e-23 1.9881e-07)
(1.71933e-07 -8.79202e-09 7.08842e-24 2.18971e-07 2.27447e-24 1.94759e-07)
(1.493e-07 -1.12167e-08 -0 1.862e-07 -6.65926e-24 1.69661e-07)
(1.89971e-07 -1.30166e-08 -4.72759e-21 2.36894e-07 -5.83858e-22 2.08618e-07)
(9.80512e-08 1.11517e-09 5.92983e-23 1.14869e-07 -2.19723e-23 1.17823e-07)
(3.99957e-07 9.37713e-09 -1.98919e-20 5.00672e-07 -2.4195e-21 4.25448e-07)
(4.89377e-07 3.89198e-08 -1.79008e-20 4.51014e-07 -2.27269e-21 5.15331e-07)
(8.47315e-07 1.73355e-08 2.41729e-22 1.04207e-06 6.11537e-23 8.79278e-07)
(4.745e-07 -4.56477e-08 -4.34954e-22 5.6622e-07 -4.41718e-23 5.0853e-07)
(4.44267e-07 -5.14845e-08 9.60743e-25 5.11188e-07 1.16803e-23 4.78823e-07)
(4.31631e-07 -5.11701e-08 -1.14215e-25 4.92483e-07 9.18228e-24 4.6625e-07)
(4.62888e-07 -5.34627e-08 3.74058e-22 5.3394e-07 3.5555e-23 4.97499e-07)
(4.66729e-07 -5.47678e-08 -4.39323e-23 5.34896e-07 -1.44819e-23 5.01237e-07)
(4.77877e-07 -5.61746e-08 -1.4898e-22 5.46956e-07 -1.19607e-23 5.12333e-07)
(4.86168e-07 -5.74846e-08 -4.79121e-25 5.54943e-07 2.09578e-24 5.20632e-07)
(4.94676e-07 -5.86998e-08 -3.26274e-26 5.63631e-07 1.68074e-24 5.29182e-07)
(5.02332e-07 -5.97996e-08 1.5e-22 5.71414e-07 3.15621e-23 5.36917e-07)
(5.09429e-07 -6.07864e-08 9.06129e-22 5.7876e-07 8.76059e-23 5.4413e-07)
(5.15776e-07 -6.1655e-08 -0 5.85384e-07 -5.98109e-24 5.5063e-07)
(5.21505e-07 -6.24031e-08 4.88223e-22 5.91523e-07 3.45476e-23 5.56551e-07)
(5.26494e-07 -6.30332e-08 -7.04558e-22 5.96969e-07 -8.92719e-23 5.61771e-07)
(5.30759e-07 -6.35423e-08 -5.65913e-22 6.01765e-07 -2.88876e-23 5.66305e-07)
(5.34332e-07 -6.39309e-08 8.78908e-22 6.0596e-07 1.02635e-22 5.70187e-07)
(5.37228e-07 -6.42034e-08 3.52675e-22 6.09561e-07 1.97782e-23 5.7343e-07)
(5.39409e-07 -6.43633e-08 7.49053e-25 6.12486e-07 1.88009e-23 5.75996e-07)
(5.41007e-07 -6.44077e-08 1.2886e-21 6.14956e-07 1.49289e-22 5.78016e-07)
(5.41966e-07 -6.43489e-08 1.04053e-21 6.16825e-07 7.26373e-23 5.79433e-07)
(5.42318e-07 -6.41836e-08 -5.29541e-22 6.1815e-07 -7.19598e-23 5.80277e-07)
(5.42187e-07 -6.3922e-08 -2.88259e-22 6.1908e-07 -6.35383e-23 5.80671e-07)
(5.41559e-07 -6.3567e-08 -2.61455e-21 6.19574e-07 -2.59333e-22 5.806e-07)
(5.40459e-07 -6.3124e-08 -1.57124e-24 6.19638e-07 2.91505e-23 5.80084e-07)
(5.38938e-07 -6.25961e-08 -6.98608e-22 6.19333e-07 -7.05301e-23 5.79176e-07)
(5.37124e-07 -6.19913e-08 -2.42178e-25 6.18818e-07 1.27032e-23 5.77998e-07)
(5.34916e-07 -6.13148e-08 -5.7248e-24 6.17907e-07 -4.6546e-24 5.76448e-07)
(5.3242e-07 -6.05612e-08 4.15387e-24 6.16774e-07 9.57085e-25 5.7463e-07)
(5.297e-07 -5.97476e-08 -1.84946e-24 6.15446e-07 -2.93975e-25 5.72604e-07)