/*--------------------------------*- C++ -*----------------------------------*\
| =========                 |                                                 |
| \\      /  F ield         | OpenFOAM: The Open Source CFD Toolbox           |
|  \\    /   O peration     | Version:  2506                                  |
|   \\  /    A nd           | Website:  www.openfoam.com                      |
|    \\/     M anipulation  |                                                 |
\*---------------------------------------------------------------------------*/
FoamFile
{
    version     2.0;
    format      ascii;
    arch        "LSB;label=32;scalar=64";
    class       volScalarField;
    location    "450";
    object      turbulenceProperties:L;
}
// * * * * * * * * * * * * * * * * * * * * * * * * * * * * * * * * * * * * * //

dimensions      [0 1 0 0 0 0 0];

internalField   nonuniform List<scalar> 
1340
(
0.257288
0.183447
0.544511
0.268982
0.257683
0.18331
0.518643
0.409008
0.550027
0.268477
0.257635
0.183265
0.381364
0.406463
0.419645
0.506422
0.404355
0.553362
0.267936
0.257279
0.183268
0.318937
0.331295
0.342548
0.354122
0.367527
0.381659
0.405469
0.417234
0.494228
0.400023
0.554713
0.267378
0.256722
0.183292
0.269214
0.278044
0.287787
0.298341
0.309906
0.322105
0.333942
0.344645
0.35567
0.368432
0.381862
0.40425
0.41458
0.482298
0.396085
0.554219
0.266851
0.256048
0.18333
0.230771
0.23588
0.241321
0.247092
0.253212
0.259744
0.266808
0.274549
0.283085
0.292475
0.302608
0.313709
0.325398
0.336658
0.346779
0.357227
0.369302
0.382002
0.402843
0.411741
0.470764
0.392575
0.552045
0.266364
0.255325
0.1834
0.198772
0.20109
0.203557
0.20618
0.208959
0.211904
0.21502
0.218317
0.221806
0.225515
0.229473
0.233715
0.238264
0.243139
0.248339
0.253863
0.259733
0.266009
0.272805
0.280249
0.288445
0.297432
0.307092
0.317681
0.3288
0.339433
0.348946
0.358794
0.370144
0.382087
0.401264
0.408754
0.459705
0.38953
0.548365
0.265936
0.254649
0.183479
0.206891
0.198951
0.209647
0.206443
0.206435
0.201975
0.199676
0.197476
0.195618
0.193906
0.192373
0.191013
0.18985
0.188868
0.188025
0.187362
0.186851
0.186482
0.186249
0.186141
0.186154
0.18628
0.186507
0.186828
0.18724
0.187736
0.188308
0.188951
0.189668
0.19045
0.1913
0.192216
0.193196
0.194247
0.195366
0.196559
0.197831
0.199181
0.200624
0.202162
0.203799
0.20555
0.207421
0.209422
0.211557
0.21384
0.216274
0.218862
0.221612
0.224528
0.227613
0.230886
0.23437
0.23809
0.242084
0.246376
0.250984
0.25591
0.261155
0.266742
0.272725
0.279212
0.286315
0.294119
0.302648
0.311785
0.321811
0.332302
0.342261
0.351148
0.360372
0.370965
0.382125
0.399529
0.405644
0.449162
0.386956
0.543416
0.265611
0.254052
0.183555
0.1993
0.221946
0.231441
0.221546
0.219629
0.216178
0.21414
0.211965
0.210078
0.208335
0.206783
0.205417
0.204232
0.203221
0.20236
0.201675
0.201138
0.200732
0.200465
0.200322
0.200292
0.200371
0.200548
0.200814
0.201166
0.201596
0.202092
0.202661
0.203292
0.203983
0.204735
0.205545
0.206415
0.207344
0.208335
0.209395
0.210522
0.211723
0.213008
0.214381
0.215851
0.217423
0.219115
0.220933
0.222878
0.224969
0.227205
0.229591
0.232132
0.234827
0.237682
0.240712
0.243941
0.247392
0.251105
0.255105
0.259414
0.264033
0.268966
0.274235
0.279888
0.286022
0.292733
0.300092
0.30811
0.316672
0.326086
0.335892
0.345138
0.353385
0.361966
0.371776
0.382119
0.397657
0.402437
0.439179
0.384851
0.537628
0.265331
0.253605
0.183595
0.22694
0.241134
0.245637
0.23508
0.233976
0.231033
0.229007
0.226899
0.225036
0.223337
0.221846
0.2205
0.21934
0.218347
0.21751
0.216826
0.21629
0.215874
0.215592
0.215438
0.21538
0.215424
0.21556
0.215789
0.216086
0.216452
0.216888
0.217383
0.217933
0.218537
0.219193
0.219897
0.220655
0.221463
0.222322
0.223241
0.22422
0.225266
0.226384
0.227587
0.228878
0.230266
0.231771
0.233389
0.235137
0.237026
0.239049
0.241217
0.243528
0.24598
0.24858
0.251338
0.254276
0.257424
0.260823
0.264495
0.268467
0.272747
0.277333
0.282244
0.287524
0.293257
0.299526
0.306381
0.31383
0.321769
0.330518
0.339578
0.34808
0.355683
0.363593
0.372594
0.382082
0.395657
0.399141
0.429776
0.383179
0.531111
0.265272
0.253201
0.183569
0.24532
0.255042
0.259063
0.249898
0.249179
0.246377
0.244429
0.242437
0.240685
0.239082
0.237667
0.236396
0.235294
0.23435
0.23355
0.232887
0.232368
0.231959
0.231675
0.231507
0.231427
0.23144
0.231543
0.231725
0.231959
0.232271
0.232638
0.233048
0.233515
0.234024
0.234578
0.235167
0.235807
0.236482
0.237203
0.237975
0.238797
0.239677
0.240626
0.241646
0.24275
0.243949
0.245252
0.246667
0.24821
0.24988
0.251679
0.253613
0.255673
0.25786
0.260175
0.262631
0.265244
0.268059
0.271105
0.274414
0.278026
0.281931
0.286134
0.290656
0.295521
0.300804
0.306582
0.312882
0.319712
0.326986
0.335024
0.343297
0.351034
0.357992
0.36522
0.373399
0.381985
0.393537
0.39577
0.421094
0.381873
0.525188
0.265345
0.253036
0.183347
0.260731
0.270965
0.275631
0.267078
0.266439
0.263779
0.261965
0.260107
0.258499
0.256986
0.255656
0.254472
0.253421
0.252536
0.251769
0.251119
0.250613
0.250216
0.249916
0.249722
0.24961
0.249586
0.249638
0.249748
0.249922
0.250157
0.250418
0.250732
0.251097
0.251495
0.251904
0.25236
0.252841
0.253372
0.253927
0.254491
0.255143
0.25583
0.256566
0.257367
0.258261
0.259226
0.260297
0.261487
0.262773
0.264198
0.265737
0.267388
0.269165
0.271033
0.273016
0.275121
0.277351
0.279776
0.282427
0.285316
0.288513
0.292004
0.295764
0.299846
0.304241
0.308998
0.314213
0.319885
0.326021
0.332553
0.339817
0.347232
0.354159
0.360438
0.366952
0.374263
0.381844
0.391277
0.392227
0.41281
0.380938
0.514545
0.26618
0.252382
0.183101
0.281861
0.292957
0.298265
0.289891
0.289565
0.287051
0.285495
0.283961
0.282368
0.281112
0.279941
0.278762
0.277854
0.27708
0.276305
0.275645
0.275241
0.274773
0.27445
0.274216
0.274017
0.273964
0.273888
0.273868
0.273951
0.274029
0.274133
0.274279
0.274447
0.274677
0.274848
0.275057
0.275311
0.275619
0.275858
0.276143
0.276518
0.276912
0.277325
0.277802
0.278388
0.278994
0.279767
0.280608
0.281521
0.28262
0.283775
0.285015
0.2864
0.287805
0.289314
0.290936
0.292617
0.294509
0.296622
0.298952
0.301578
0.304523
0.3077
0.31117
0.314927
0.318982
0.323442
0.32828
0.333523
0.33913
0.345426
0.351779
0.357761
0.363265
0.368932
0.375206
0.381581
0.388504
0.388345
0.403666
0.381711
0.495525
0.268742
0.253545
0.186245
0.311028
0.321456
0.326654
0.31916
0.31913
0.316934
0.31585
0.314589
0.313213
0.312288
0.311256
0.310214
0.309503
0.308845
0.30805
0.307464
0.307121
0.306549
0.306264
0.305903
0.305578
0.305504
0.305234
0.304994
0.304953
0.304794
0.304705
0.304599
0.304456
0.304407
0.304307
0.304154
0.304102
0.304051
0.303872
0.303827
0.303793
0.303771
0.303766
0.303845
0.303975
0.304175
0.304519
0.304859
0.305364
0.305969
0.306593
0.307306
0.308103
0.308893
0.309725
0.31066
0.311623
0.312784
0.314159
0.315763
0.317653
0.319846
0.322247
0.324894
0.327777
0.330908
0.334364
0.338133
0.342269
0.346741
0.351843
0.356949
0.361858
0.366473
0.371154
0.376208
0.381081
0.385227
0.383914
0.394547
0.38307
0.476954
0.268865
0.254572
0.186364
0.34409
0.35443
0.360113
0.353005
0.353176
0.351618
0.350704
0.349437
0.348796
0.347835
0.346828
0.346156
0.345526
0.344846
0.34407
0.343676
0.343109
0.342561
0.342277
0.341702
0.341244
0.341044
0.340567
0.340139
0.339903
0.339382
0.339056
0.33869
0.338182
0.337769
0.337358
0.336785
0.336357
0.335874
0.335262
0.334806
0.334314
0.333802
0.33335
0.332978
0.332598
0.332355
0.332149
0.331979
0.331993
0.331986
0.331997
0.332075
0.332146
0.332204
0.332226
0.33233
0.332492
0.33278
0.333327
0.3341
0.335141
0.33647
0.337954
0.339645
0.34152
0.343572
0.345889
0.348491
0.351407
0.354651
0.358469
0.362269
0.36608
0.369758
0.373367
0.377104
0.380268
0.381692
0.379163
0.386405
0.383628
0.460366
0.267634
0.25791
0.186389
0.380983
0.402835
0.392653
0.400129
0.391706
0.392758
0.391477
0.390418
0.38945
0.388982
0.38812
0.387162
0.386506
0.385962
0.385163
0.384329
0.383984
0.383147
0.382516
0.382006
0.381188
0.380637
0.379978
0.379303
0.378595
0.377901
0.377067
0.376307
0.375562
0.374583
0.373703
0.372853
0.371738
0.370841
0.369811
0.368656
0.367716
0.366643
0.365572
0.364612
0.363646
0.362729
0.361899
0.361081
0.360365
0.359681
0.358997
0.358303
0.357587
0.356829
0.356037
0.355171
0.354367
0.353653
0.353036
0.35272
0.352619
0.35276
0.353173
0.353687
0.354347
0.355155
0.356081
0.357236
0.358651
0.360342
0.362361
0.364907
0.367443
0.370197
0.372939
0.375436
0.377794
0.379121
0.377993
0.374376
0.379411
0.383545
0.442227
0.265743
0.262396
0.186443
0.423545
0.448595
0.437716
0.44679
0.436766
0.438416
0.436815
0.43624
0.435168
0.43439
0.433889
0.432839
0.432068
0.431208
0.430385
0.429543
0.428827
0.427753
0.426797
0.425986
0.424981
0.424051
0.422755
0.421822
0.420617
0.419415
0.418184
0.416717
0.415489
0.413946
0.412492
0.410941
0.409251
0.407719
0.40601
0.404222
0.402574
0.400894
0.399115
0.397472
0.395821
0.394185
0.392666
0.391102
0.389604
0.388083
0.386554
0.384992
0.383308
0.38157
0.37982
0.377976
0.376188
0.374546
0.372983
0.371753
0.370742
0.36993
0.369349
0.368833
0.368418
0.368111
0.367904
0.367886
0.368122
0.368621
0.369437
0.370739
0.372072
0.373811
0.375606
0.37698
0.377929
0.377371
0.373959
0.369516
0.37324
0.382344
0.420865
0.26321
0.267954
0.186428
0.474197
0.502541
0.4914
0.501959
0.490231
0.491807
0.490051
0.489228
0.487668
0.487176
0.486107
0.484587
0.483729
0.482384
0.481137
0.480115
0.478627
0.477191
0.475691
0.474465
0.47285
0.471093
0.469511
0.467791
0.465834
0.464182
0.462063
0.459879
0.458061
0.455717
0.453559
0.451185
0.448791
0.446575
0.444059
0.441464
0.439176
0.436701
0.434136
0.43177
0.429365
0.426858
0.424579
0.422196
0.419713
0.41733
0.414808
0.412261
0.409547
0.406799
0.404049
0.40118
0.398445
0.395856
0.393345
0.391177
0.389214
0.387394
0.385753
0.384153
0.382642
0.381192
0.379834
0.378675
0.377746
0.377084
0.376743
0.376859
0.377091
0.377879
0.378706
0.378904
0.37838
0.375906
0.370538
0.365723
0.369085
0.38129
0.399647
0.260154
0.275306
0.186159
0.518029
0.547209
0.535243
0.54712
0.534068
0.5359
0.534743
0.533068
0.531819
0.531372
0.529884
0.528363
0.527338
0.526098
0.52443
0.52325
0.521394
0.519692
0.518256
0.51656
0.514439
0.512326
0.510648
0.508552
0.505838
0.503947
0.501401
0.49872
0.496315
0.493559
0.490757
0.487858
0.484881
0.482003
0.478806
0.475597
0.472618
0.46931
0.466037
0.46279
0.459622
0.456165
0.452932
0.449569
0.446056
0.442717
0.439077
0.435532
0.43185
0.428136
0.424439
0.420696
0.417116
0.413608
0.410261
0.407176
0.404243
0.401444
0.398778
0.396144
0.393614
0.391128
0.388738
0.386571
0.384579
0.382864
0.381478
0.380496
0.379682
0.379516
0.379436
0.378636
0.376901
0.372888
0.366222
0.361442
0.364421
0.375986
0.37346
0.255629
0.28272
0.184916
0.57391
0.607674
0.594488
0.608948
0.590615
0.593106
0.59044
0.588156
0.587356
0.586035
0.583255
0.58108
0.579293
0.577683
0.575304
0.572794
0.570295
0.568159
0.566182
0.562858
0.560326
0.557619
0.554969
0.5523
0.548644
0.54592
0.542836
0.539574
0.536213
0.532828
0.529557
0.525789
0.52241
0.518788
0.514923
0.511266
0.507544
0.503788
0.49971
0.495819
0.492039
0.487827
0.483801
0.479693
0.475499
0.471262
0.466937
0.462656
0.458294
0.453941
0.449535
0.445212
0.440917
0.43668
0.432612
0.428682
0.424832
0.421081
0.417443
0.413796
0.410262
0.40675
0.403348
0.400163
0.397137
0.394431
0.392074
0.390144
0.38862
0.387814
0.386746
0.384616
0.381133
0.375007
0.367047
0.36326
0.367935
0.378948
0.358885
0.252937
0.296846
0.1828
0.55896
0.57985
0.57167
0.580903
0.572852
0.574554
0.572644
0.571644
0.571914
0.571129
0.569463
0.568105
0.567253
0.566681
0.565175
0.563597
0.562267
0.560996
0.559882
0.55753
0.555895
0.554396
0.552467
0.550475
0.54799
0.545851
0.543404
0.540958
0.538123
0.535216
0.532403
0.52896
0.52584
0.522225
0.518486
0.514678
0.510718
0.506664
0.502151
0.497906
0.493406
0.488775
0.484237
0.479678
0.4751
0.470549
0.466212
0.461809
0.457528
0.453278
0.448926
0.444627
0.4402
0.435804
0.431402
0.427078
0.422846
0.41873
0.414825
0.410989
0.407311
0.403673
0.400122
0.396705
0.393405
0.390362
0.387558
0.385032
0.382633
0.380891
0.379478
0.377447
0.374369
0.368981
0.362071
0.359077
0.361232
0.361607
0.325764
0.24603
0.292028
0.174395
0.64118
0.637476
0.641161
0.633948
0.630707
0.629618
0.627809
0.626515
0.624525
0.622436
0.621166
0.619147
0.617133
0.615042
0.613018
0.611073
0.60871
0.606501
0.604258
0.601753
0.599504
0.596894
0.594476
0.591902
0.589142
0.586348
0.583551
0.580763
0.577654
0.574688
0.571536
0.568272
0.565081
0.561577
0.558168
0.554532
0.550894
0.547169
0.543321
0.539603
0.535703
0.531908
0.528184
0.524534
0.520874
0.517385
0.513948
0.510415
0.506889
0.503139
0.499228
0.495087
0.490692
0.486221
0.481579
0.476937
0.472227
0.467532
0.46287
0.458061
0.453253
0.448355
0.443485
0.438714
0.434091
0.429839
0.425944
0.422561
0.420684
0.419925
0.417223
0.411769
0.403666
0.392214
0.38234
0.383528
0.395152
0.391088
0.329228
0.26635
0.306664
0.17375
)
;

boundaryField
{
    inlet
    {
        type            calculated;
        value           nonuniform List<scalar> 
23
(
0.0972132
0.0974567
0.0976941
0.0979264
0.0981585
0.098396
0.0986457
0.0989133
0.0992064
0.099532
0.0998996
0.100308
0.100782
0.101535
0.102178
0.10298
0.104006
0.105297
0.106916
0.108918
0.111451
0.113535
0.117791
)
;
    }
    outlet
    {
        type            calculated;
        value           nonuniform List<scalar> 
82
(
0.717996
0.71864
0.710948
0.706846
0.701924
0.700727
0.698356
0.696831
0.694188
0.691398
0.689962
0.687339
0.684713
0.682005
0.679403
0.676959
0.673856
0.671011
0.668147
0.664855
0.662011
0.658626
0.655542
0.652253
0.64869
0.645116
0.641557
0.63807
0.634108
0.63042
0.626506
0.622458
0.618598
0.614305
0.610236
0.605887
0.601596
0.597244
0.592754
0.588525
0.584044
0.579749
0.57557
0.571492
0.567371
0.563463
0.559594
0.555525
0.551438
0.547003
0.542356
0.53743
0.532213
0.526981
0.521574
0.516198
0.510697
0.505123
0.499462
0.49344
0.487305
0.480992
0.47472
0.468631
0.462787
0.457499
0.452808
0.449027
0.447554
0.447381
0.443981
0.436396
0.424801
0.408952
0.396034
0.398359
0.418117
0.422269
0.347602
0.271503
0.340054
0.182452
)
;
    }
    walls
    {
        type            calculated;
        value           nonuniform List<scalar> 0();
    }
    frontAndBack
    {
        type            empty;
    }
    procBoundary3to2
    {
        type            processor;
        value           nonuniform List<scalar> 
88
(
0.256365
0.183619
0.537023
0.269548
0.269548
0.530656
0.413941
0.413941
0.380927
0.407175
0.421729
0.421729
0.315879
0.328704
0.340471
0.352563
0.366563
0.366563
0.264246
0.273326
0.283374
0.294301
0.306282
0.306282
0.223886
0.229195
0.234846
0.240831
0.24717
0.253924
0.261219
0.261219
0.188968
0.191466
0.194113
0.196913
0.199876
0.203003
0.206303
0.209787
0.213469
0.217378
0.221542
0.225997
0.225997
0.223771
0.188263
0.183477
0.19151
0.188462
0.185639
0.183348
0.18148
0.179855
0.178436
0.177143
0.176044
0.175125
0.174355
0.173755
0.173295
0.172985
0.172815
0.172767
0.172841
0.173027
0.173317
0.17371
0.174193
0.174757
0.175411
0.176141
0.176943
0.177818
0.178766
0.17979
0.18088
0.182048
0.183296
0.184618
0.18603
0.187529
0.189122
0.190822
0.192625
0.194546
0.196593
0.196593
)
;
    }
    procBoundary3to6
    {
        type            processor;
        value           uniform 1.43576;
    }
    procBoundary3to7
    {
        type            processor;
        value           nonuniform List<scalar> 
16
(
6.3357
0.239633
0.238999
0.268782
0.28696
0.305737
0.332295
0.364406
0.364406
0.404893
0.450407
0.504815
0.549995
0.608457
0.58545
0.632628
)
;
    }
}


// ************************************************************************* //
