/*--------------------------------*- C++ -*----------------------------------*\
| =========                 |                                                 |
| \\      /  F ield         | OpenFOAM: The Open Source CFD Toolbox           |
|  \\    /   O peration     | Version:  2506                                  |
|   \\  /    A nd           | Website:  www.openfoam.com                      |
|    \\/     M anipulation  |                                                 |
\*---------------------------------------------------------------------------*/
FoamFile
{
    version     2.0;
    format      ascii;
    arch        "LSB;label=32;scalar=64";
    class       volScalarField;
    location    "450";
    object      turbulenceProperties:epsilon;
}
// * * * * * * * * * * * * * * * * * * * * * * * * * * * * * * * * * * * * * //

dimensions      [0 2 -3 0 0 0 0];

internalField   nonuniform List<scalar> 
1340
(
3.77901e-10
1.46189e-09
1.88298e-11
3.16279e-10
3.75596e-10
1.46624e-09
2.28791e-11
5.91616e-11
1.80857e-11
3.1867e-10
3.75884e-10
1.46769e-09
7.82575e-11
6.0648e-11
5.33823e-11
2.51696e-11
6.19325e-11
1.76536e-11
3.21258e-10
3.77974e-10
1.46759e-09
1.5997e-10
1.37408e-10
1.20224e-10
1.05262e-10
9.07249e-11
7.80168e-11
6.12455e-11
5.46279e-11
2.77477e-11
6.46596e-11
1.74822e-11
3.23956e-10
3.81278e-10
1.46683e-09
3.15055e-10
2.76911e-10
2.41282e-10
2.08917e-10
1.79442e-10
1.53769e-10
1.33104e-10
1.17326e-10
1.03442e-10
8.98372e-11
7.78517e-11
6.19878e-11
5.6041e-11
3.05976e-11
6.72707e-11
1.75448e-11
3.2653e-10
3.85315e-10
1.46561e-09
5.83529e-10
5.34582e-10
4.87966e-10
4.43948e-10
4.02553e-10
3.63566e-10
3.26571e-10
2.91275e-10
2.57708e-10
2.2618e-10
1.97382e-10
1.70898e-10
1.47641e-10
1.28861e-10
1.14465e-10
1.0165e-10
8.8994e-11
7.77377e-11
6.28591e-11
5.76036e-11
3.3709e-11
6.97094e-11
1.78229e-11
3.2893e-10
3.89703e-10
1.46338e-09
1.06033e-09
1.01227e-09
9.64068e-10
9.15939e-10
8.68162e-10
8.20886e-10
7.74316e-10
7.28594e-10
6.83806e-10
6.39903e-10
5.96871e-10
5.54696e-10
5.13518e-10
4.73545e-10
4.35101e-10
3.98443e-10
3.63622e-10
3.30506e-10
2.98789e-10
2.68292e-10
2.39081e-10
2.11478e-10
1.86105e-10
1.62512e-10
1.41625e-10
1.24699e-10
1.11648e-10
9.98871e-11
8.81882e-11
7.76696e-11
6.38555e-11
5.93072e-11
3.70724e-11
7.19153e-11
1.83065e-11
3.31063e-10
3.93872e-10
1.46085e-09
8.98578e-10
1.07715e-09
8.65514e-10
9.10953e-10
9.1059e-10
9.94917e-10
1.04179e-09
1.08895e-09
1.13088e-09
1.17126e-09
1.20901e-09
1.24379e-09
1.27451e-09
1.3012e-09
1.32466e-09
1.34348e-09
1.35823e-09
1.36896e-09
1.37581e-09
1.37901e-09
1.37861e-09
1.37486e-09
1.36817e-09
1.35878e-09
1.34687e-09
1.33268e-09
1.31654e-09
1.29872e-09
1.27918e-09
1.25831e-09
1.23609e-09
1.21269e-09
1.18824e-09
1.16273e-09
1.13631e-09
1.10898e-09
1.08072e-09
1.05171e-09
1.02177e-09
9.9101e-10
9.59545e-10
9.27257e-10
8.94252e-10
8.60539e-10
8.26318e-10
7.91591e-10
7.56538e-10
7.21386e-10
6.86227e-10
6.51264e-10
6.16653e-10
5.82416e-10
5.48545e-10
5.15043e-10
4.81873e-10
4.49154e-10
4.17056e-10
3.8585e-10
3.55767e-10
3.26885e-10
2.99131e-10
2.72292e-10
2.4627e-10
2.21162e-10
1.97272e-10
1.75152e-10
1.5433e-10
1.3575e-10
1.20629e-10
1.08875e-10
9.81496e-11
8.74103e-11
7.76398e-11
6.49731e-11
6.11482e-11
4.06789e-11
7.38483e-11
1.89828e-11
3.32696e-10
3.97591e-10
1.45842e-09
1.07623e-09
6.85143e-10
5.76839e-10
6.86572e-10
7.11595e-10
7.58335e-10
7.87543e-10
8.20324e-10
8.50152e-10
8.78932e-10
9.05595e-10
9.29916e-10
9.5166e-10
9.70722e-10
9.87328e-10
1.00079e-09
1.01151e-09
1.01971e-09
1.02514e-09
1.02805e-09
1.02867e-09
1.02704e-09
1.0234e-09
1.018e-09
1.01088e-09
1.00229e-09
9.92471e-10
9.81376e-10
9.69233e-10
9.5617e-10
9.42185e-10
9.27428e-10
9.11876e-10
8.95639e-10
8.7871e-10
8.6106e-10
8.42762e-10
8.2379e-10
8.04089e-10
7.83672e-10
7.62538e-10
7.40706e-10
7.1809e-10
6.94742e-10
6.708e-10
6.46189e-10
6.21122e-10
5.957e-10
5.7004e-10
5.44312e-10
5.1862e-10
4.92982e-10
4.67391e-10
4.41842e-10
4.16269e-10
3.90758e-10
3.65428e-10
3.40512e-10
3.16207e-10
2.92598e-10
2.69667e-10
2.47275e-10
2.25373e-10
2.04072e-10
1.83652e-10
1.6459e-10
1.46396e-10
1.3004e-10
1.16658e-10
1.06144e-10
9.6432e-11
8.66507e-11
7.76454e-11
6.62061e-11
6.31223e-11
4.45066e-11
7.54777e-11
1.9814e-11
3.34117e-10
4.00416e-10
1.45715e-09
6.25141e-10
4.89399e-10
4.54543e-10
5.42182e-10
5.52622e-10
5.81246e-10
6.02053e-10
6.24718e-10
6.45645e-10
6.65509e-10
6.83561e-10
7.00398e-10
7.15318e-10
7.28398e-10
7.39676e-10
7.49043e-10
7.5648e-10
7.62325e-10
7.66307e-10
7.685e-10
7.69322e-10
7.6869e-10
7.6675e-10
7.63488e-10
7.59303e-10
7.54171e-10
7.48122e-10
7.41328e-10
7.33867e-10
7.25785e-10
7.17135e-10
7.07992e-10
6.9831e-10
6.88172e-10
6.77587e-10
6.66502e-10
6.54928e-10
6.42845e-10
6.3023e-10
6.17006e-10
6.032e-10
5.88777e-10
5.73629e-10
5.57877e-10
5.41468e-10
5.24405e-10
5.06875e-10
4.88891e-10
4.70595e-10
4.52103e-10
4.3348e-10
4.14752e-10
3.95906e-10
3.76885e-10
3.57614e-10
3.38153e-10
3.18572e-10
2.99038e-10
2.7974e-10
2.60774e-10
2.42141e-10
2.23759e-10
2.05613e-10
1.87827e-10
1.70626e-10
1.54407e-10
1.38702e-10
1.24486e-10
1.12764e-10
1.03429e-10
9.47181e-11
8.58926e-11
7.76765e-11
6.75563e-11
6.52342e-11
4.85323e-11
7.68043e-11
2.0805e-11
3.34424e-10
4.02984e-10
1.45795e-09
4.56652e-10
3.91268e-10
3.67639e-10
4.24661e-10
4.29541e-10
4.49383e-10
4.63872e-10
4.79295e-10
4.93394e-10
5.06754e-10
5.18919e-10
5.30159e-10
5.40151e-10
5.48903e-10
5.56459e-10
5.62818e-10
5.67851e-10
5.71861e-10
5.74666e-10
5.76336e-10
5.77127e-10
5.76992e-10
5.75965e-10
5.74157e-10
5.71843e-10
5.68768e-10
5.65191e-10
5.61216e-10
5.56737e-10
5.51913e-10
5.46715e-10
5.41251e-10
5.35398e-10
5.29304e-10
5.22895e-10
5.16141e-10
5.09068e-10
5.01628e-10
4.93761e-10
4.85469e-10
4.76692e-10
4.67387e-10
4.57526e-10
4.47113e-10
4.36094e-10
4.24549e-10
4.12534e-10
4.00092e-10
3.8735e-10
3.7437e-10
3.61216e-10
3.47887e-10
3.34373e-10
3.20541e-10
3.06366e-10
2.91846e-10
2.76966e-10
2.61934e-10
2.46878e-10
2.31869e-10
2.16976e-10
2.02137e-10
1.87329e-10
1.72699e-10
1.58413e-10
1.44787e-10
1.31389e-10
1.19179e-10
1.09018e-10
1.00787e-10
9.30428e-11
8.51552e-11
7.77563e-11
6.90254e-11
6.74873e-11
5.26615e-11
7.7861e-11
2.17599e-11
3.34072e-10
4.04045e-10
1.465e-09
3.58266e-10
3.07202e-10
2.86913e-10
3.25442e-10
3.28559e-10
3.42009e-10
3.51574e-10
3.61726e-10
3.708e-10
3.79608e-10
3.87559e-10
3.94819e-10
4.01406e-10
4.07058e-10
4.12034e-10
4.16315e-10
4.19686e-10
4.22351e-10
4.24382e-10
4.25699e-10
4.26461e-10
4.26625e-10
4.26265e-10
4.25513e-10
4.24329e-10
4.22738e-10
4.20974e-10
4.18864e-10
4.16435e-10
4.13804e-10
4.11123e-10
4.08152e-10
4.05052e-10
4.01668e-10
3.98163e-10
3.94643e-10
3.90621e-10
3.86442e-10
3.82018e-10
3.77284e-10
3.72085e-10
3.66567e-10
3.60571e-10
3.54046e-10
3.47165e-10
3.39731e-10
3.31925e-10
3.23799e-10
3.15333e-10
3.06724e-10
2.97903e-10
2.88885e-10
2.797e-10
2.7012e-10
2.60116e-10
2.49732e-10
2.38839e-10
2.27618e-10
2.1626e-10
2.04725e-10
1.93151e-10
1.81534e-10
1.69785e-10
1.58066e-10
1.46503e-10
1.35334e-10
1.24133e-10
1.13869e-10
1.05221e-10
9.8079e-11
9.1299e-11
8.43729e-11
7.78723e-11
7.06356e-11
6.99603e-11
5.70182e-11
7.86288e-11
2.36175e-11
3.29912e-10
4.08258e-10
1.47288e-09
2.62366e-10
2.24804e-10
2.09216e-10
2.34452e-10
2.35506e-10
2.43863e-10
2.4922e-10
2.54646e-10
2.60436e-10
2.65122e-10
2.69581e-10
2.74169e-10
2.77768e-10
2.80882e-10
2.84046e-10
2.86771e-10
2.88457e-10
2.90425e-10
2.91796e-10
2.92792e-10
2.93641e-10
2.93867e-10
2.94191e-10
2.94277e-10
2.9392e-10
2.93584e-10
2.9314e-10
2.92515e-10
2.91796e-10
2.9082e-10
2.90092e-10
2.89212e-10
2.88144e-10
2.86854e-10
2.85863e-10
2.84682e-10
2.83136e-10
2.81528e-10
2.79849e-10
2.77932e-10
2.75597e-10
2.73205e-10
2.70196e-10
2.66968e-10
2.63519e-10
2.59442e-10
2.55242e-10
2.50826e-10
2.46009e-10
2.41234e-10
2.36236e-10
2.3101e-10
2.25742e-10
2.1999e-10
2.13782e-10
2.07189e-10
2.00063e-10
1.92432e-10
1.84607e-10
1.76509e-10
1.68241e-10
1.59852e-10
1.51221e-10
1.42507e-10
1.33762e-10
1.25138e-10
1.16266e-10
1.08096e-10
1.01048e-10
9.50622e-11
8.93559e-11
8.35288e-11
7.80888e-11
7.2676e-11
7.28023e-11
6.23645e-11
7.79941e-11
2.74589e-11
3.17525e-10
4.00825e-10
1.37588e-09
1.76925e-10
1.55056e-10
1.45419e-10
1.59564e-10
1.59624e-10
1.64092e-10
1.66354e-10
1.69037e-10
1.72025e-10
1.74072e-10
1.76391e-10
1.78772e-10
1.80418e-10
1.8196e-10
1.83844e-10
1.85248e-10
1.86078e-10
1.87469e-10
1.88168e-10
1.89057e-10
1.89862e-10
1.90045e-10
1.90718e-10
1.91319e-10
1.9142e-10
1.9182e-10
1.92044e-10
1.9231e-10
1.92671e-10
1.92792e-10
1.93046e-10
1.93432e-10
1.93564e-10
1.93692e-10
1.94148e-10
1.94261e-10
1.94345e-10
1.94402e-10
1.94413e-10
1.94207e-10
1.93874e-10
1.93362e-10
1.92489e-10
1.9163e-10
1.90364e-10
1.8886e-10
1.87326e-10
1.85593e-10
1.83676e-10
1.81803e-10
1.79854e-10
1.77694e-10
1.75504e-10
1.72908e-10
1.69896e-10
1.66466e-10
1.62536e-10
1.58123e-10
1.53463e-10
1.48523e-10
1.4337e-10
1.38024e-10
1.32412e-10
1.26611e-10
1.20606e-10
1.1451e-10
1.08016e-10
1.0197e-10
9.65496e-11
9.17783e-11
8.72363e-11
8.26435e-11
7.85011e-11
7.5183e-11
7.62239e-11
6.83343e-11
7.68936e-11
3.19933e-11
3.16964e-10
3.94407e-10
1.37234e-09
1.18106e-10
1.04914e-10
9.84464e-11
1.06618e-10
1.0641e-10
1.08309e-10
1.09441e-10
1.11036e-10
1.11855e-10
1.13095e-10
1.14415e-10
1.15306e-10
1.16147e-10
1.17066e-10
1.18125e-10
1.18668e-10
1.19454e-10
1.2022e-10
1.20619e-10
1.21433e-10
1.22086e-10
1.22371e-10
1.23059e-10
1.23678e-10
1.24022e-10
1.24785e-10
1.25264e-10
1.25807e-10
1.26563e-10
1.27182e-10
1.27803e-10
1.28674e-10
1.2933e-10
1.30073e-10
1.31025e-10
1.3174e-10
1.32515e-10
1.33328e-10
1.34052e-10
1.34651e-10
1.35266e-10
1.35661e-10
1.35997e-10
1.36275e-10
1.3625e-10
1.36261e-10
1.36242e-10
1.36112e-10
1.35994e-10
1.35896e-10
1.35858e-10
1.35684e-10
1.35417e-10
1.34945e-10
1.34058e-10
1.32818e-10
1.31173e-10
1.29112e-10
1.26859e-10
1.24355e-10
1.21649e-10
1.18773e-10
1.15627e-10
1.12217e-10
1.08545e-10
1.04632e-10
1.00249e-10
9.61122e-11
9.21734e-11
8.85609e-11
8.51867e-11
8.18623e-11
7.91767e-11
7.80102e-11
8.01191e-11
7.42804e-11
7.64479e-11
3.68618e-11
3.22857e-10
3.74384e-10
1.37156e-09
7.8582e-11
6.28687e-11
6.96473e-11
6.4586e-11
7.0323e-11
6.95721e-11
7.04873e-11
7.12549e-11
7.19661e-11
7.23127e-11
7.29571e-11
7.36815e-11
7.41829e-11
7.46018e-11
7.52221e-11
7.58776e-11
7.61505e-11
7.6818e-11
7.73256e-11
7.7739e-11
7.84086e-11
7.88628e-11
7.94117e-11
7.99782e-11
8.05779e-11
8.11709e-11
8.1891e-11
8.2554e-11
8.32105e-11
8.40839e-11
8.48777e-11
8.56541e-11
8.66855e-11
8.75272e-11
8.85056e-11
8.96195e-11
9.05384e-11
9.16018e-11
9.2679e-11
9.36584e-11
9.46573e-11
9.56165e-11
9.64965e-11
9.73726e-11
9.81483e-11
9.88957e-11
9.96505e-11
1.00424e-10
1.0123e-10
1.02092e-10
1.03001e-10
1.04007e-10
1.04951e-10
1.05799e-10
1.06537e-10
1.06917e-10
1.07037e-10
1.06864e-10
1.06366e-10
1.0575e-10
1.04966e-10
1.04017e-10
1.02943e-10
1.01624e-10
1.00033e-10
9.81741e-11
9.60083e-11
9.3361e-11
9.0813e-11
8.81415e-11
8.55791e-11
8.33262e-11
8.12677e-11
8.01426e-11
8.1112e-11
8.42998e-11
7.99121e-11
7.65147e-11
4.32946e-11
3.3217e-10
3.49432e-10
1.36993e-09
5.14438e-11
4.08794e-11
4.50979e-11
4.15438e-11
4.54911e-11
4.48102e-11
4.54707e-11
4.57106e-11
4.61627e-11
4.64945e-11
4.67093e-11
4.7164e-11
4.75016e-11
4.78817e-11
4.82489e-11
4.8628e-11
4.89535e-11
4.94472e-11
4.98915e-11
5.02726e-11
5.07494e-11
5.11961e-11
5.18264e-11
5.22865e-11
5.28882e-11
5.34967e-11
5.41293e-11
5.48951e-11
5.55466e-11
5.63794e-11
5.71779e-11
5.80457e-11
5.90104e-11
5.99016e-11
6.09165e-11
6.20008e-11
6.3022e-11
6.40845e-11
6.52342e-11
6.63192e-11
6.7432e-11
6.85575e-11
6.96241e-11
7.07441e-11
7.1838e-11
7.29699e-11
7.41309e-11
7.53408e-11
7.6672e-11
7.80777e-11
7.95252e-11
8.10868e-11
8.26365e-11
8.40935e-11
8.55094e-11
8.6645e-11
8.75917e-11
8.83626e-11
8.89206e-11
8.94206e-11
8.98259e-11
9.01297e-11
9.03358e-11
9.0358e-11
9.01306e-11
8.96481e-11
8.88633e-11
8.7625e-11
8.63789e-11
8.47837e-11
8.31751e-11
8.19702e-11
8.11543e-11
8.16418e-11
8.46722e-11
8.88254e-11
8.53307e-11
7.74809e-11
5.27809e-11
3.45162e-10
3.21331e-10
1.37031e-09
3.27397e-11
2.59545e-11
2.83899e-11
2.60749e-11
2.86614e-11
2.82958e-11
2.87035e-11
2.88971e-11
2.92687e-11
2.93871e-11
2.96464e-11
3.002e-11
3.02337e-11
3.05721e-11
3.08903e-11
3.11543e-11
3.15434e-11
3.19248e-11
3.23291e-11
3.26645e-11
3.31132e-11
3.36099e-11
3.40652e-11
3.45688e-11
3.51532e-11
3.56563e-11
3.63146e-11
3.70093e-11
3.76e-11
3.83796e-11
3.91151e-11
3.99447e-11
4.08036e-11
4.16193e-11
4.25703e-11
4.35796e-11
4.44945e-11
4.55117e-11
4.65966e-11
4.7626e-11
4.87016e-11
4.98559e-11
5.09345e-11
5.20938e-11
5.33372e-11
5.45653e-11
5.59042e-11
5.72976e-11
5.8831e-11
6.04358e-11
6.20966e-11
6.38908e-11
6.56612e-11
6.73946e-11
6.913e-11
7.06739e-11
7.2109e-11
7.34736e-11
7.47326e-11
7.59872e-11
7.71969e-11
7.83808e-11
7.9512e-11
8.04937e-11
8.12926e-11
8.18688e-11
8.21697e-11
8.20719e-11
8.18716e-11
8.11925e-11
8.04862e-11
8.032e-11
8.07699e-11
8.29255e-11
8.78468e-11
9.25707e-11
8.92386e-11
7.83422e-11
6.492e-11
3.61696e-10
2.88356e-10
1.37818e-09
2.29866e-11
1.84612e-11
2.01685e-11
1.84732e-11
2.03467e-11
2.00697e-11
2.0244e-11
2.04997e-11
2.06929e-11
2.07627e-11
2.09969e-11
2.12397e-11
2.14053e-11
2.16077e-11
2.1884e-11
2.20821e-11
2.23981e-11
2.2693e-11
2.29455e-11
2.32482e-11
2.3634e-11
2.40263e-11
2.43437e-11
2.47475e-11
2.52828e-11
2.56644e-11
2.61895e-11
2.67571e-11
2.72794e-11
2.78939e-11
2.85363e-11
2.92204e-11
2.99445e-11
3.06659e-11
3.1493e-11
3.23515e-11
3.31748e-11
3.41198e-11
3.50884e-11
3.60834e-11
3.70882e-11
3.82254e-11
3.93281e-11
4.0518e-11
4.18093e-11
4.30848e-11
4.4531e-11
4.59978e-11
4.75863e-11
4.92579e-11
5.09955e-11
5.28338e-11
5.46695e-11
5.65468e-11
5.84131e-11
6.02026e-11
6.1968e-11
6.37151e-11
6.54366e-11
6.71967e-11
6.89431e-11
7.07157e-11
7.24749e-11
7.4117e-11
7.56688e-11
7.70376e-11
7.81669e-11
7.89801e-11
7.96609e-11
7.98017e-11
7.98696e-11
8.05495e-11
8.20489e-11
8.56476e-11
9.20655e-11
9.70374e-11
9.38964e-11
8.28591e-11
8.51432e-11
3.88023e-10
2.59273e-10
1.41556e-09
1.52574e-11
1.21379e-11
1.32515e-11
1.20366e-11
1.36026e-11
1.33754e-11
1.36187e-11
1.38315e-11
1.3907e-11
1.40328e-11
1.43023e-11
1.45177e-11
1.46977e-11
1.48622e-11
1.51097e-11
1.53762e-11
1.56475e-11
1.58842e-11
1.61072e-11
1.64911e-11
1.67913e-11
1.71196e-11
1.7449e-11
1.77887e-11
1.82676e-11
1.8635e-11
1.9062e-11
1.95271e-11
2.00214e-11
2.0535e-11
2.10469e-11
2.16567e-11
2.22225e-11
2.28494e-11
2.35432e-11
2.42239e-11
2.49424e-11
2.56945e-11
2.65434e-11
2.73864e-11
2.82375e-11
2.92254e-11
3.02103e-11
3.12586e-11
3.23758e-11
3.35556e-11
3.4816e-11
3.6122e-11
3.75164e-11
3.89756e-11
4.05252e-11
4.21214e-11
4.37858e-11
4.5509e-11
4.7244e-11
4.89999e-11
5.08e-11
5.26348e-11
5.44952e-11
5.64435e-11
5.84162e-11
6.04629e-11
6.25316e-11
6.45499e-11
6.65437e-11
6.83916e-11
7.00546e-11
7.14532e-11
7.25823e-11
7.31884e-11
7.40014e-11
7.56574e-11
7.84681e-11
8.37316e-11
9.12444e-11
9.51116e-11
9.03613e-11
8.0301e-11
9.98497e-11
4.04831e-10
2.13326e-10
1.4822e-09
1.69568e-11
1.46417e-11
1.5498e-11
1.45357e-11
1.53704e-11
1.5189e-11
1.53927e-11
1.55007e-11
1.54714e-11
1.55566e-11
1.57395e-11
1.58905e-11
1.59863e-11
1.60508e-11
1.62226e-11
1.6405e-11
1.65607e-11
1.67114e-11
1.68447e-11
1.71307e-11
1.73331e-11
1.75213e-11
1.77673e-11
1.80258e-11
1.8355e-11
1.86443e-11
1.89824e-11
1.9328e-11
1.97385e-11
2.01707e-11
2.06004e-11
2.1142e-11
2.16481e-11
2.22537e-11
2.29025e-11
2.35879e-11
2.4328e-11
2.51158e-11
2.6031e-11
2.69301e-11
2.79259e-11
2.89995e-11
3.01018e-11
3.12624e-11
3.24847e-11
3.37593e-11
3.5033e-11
3.63877e-11
3.77681e-11
3.92035e-11
4.07452e-11
4.2343e-11
4.40711e-11
4.58751e-11
4.77757e-11
4.97396e-11
5.17615e-11
5.38278e-11
5.58845e-11
5.80026e-11
6.01288e-11
6.23286e-11
6.45745e-11
6.68322e-11
6.91067e-11
7.12904e-11
7.33795e-11
7.5326e-11
7.72342e-11
7.86575e-11
7.98372e-11
8.1574e-11
8.42982e-11
8.93413e-11
9.63698e-11
9.96237e-11
9.72571e-11
9.68515e-11
1.47097e-10
4.52269e-10
2.27747e-10
1.78924e-09
9.79209e-12
1.00217e-11
9.79325e-12
1.02468e-11
1.04591e-11
1.05317e-11
1.06535e-11
1.07419e-11
1.08794e-11
1.10262e-11
1.11167e-11
1.12625e-11
1.14102e-11
1.15662e-11
1.17197e-11
1.18696e-11
1.2055e-11
1.22316e-11
1.24142e-11
1.26223e-11
1.28128e-11
1.30384e-11
1.32518e-11
1.34837e-11
1.37383e-11
1.4002e-11
1.42724e-11
1.45483e-11
1.48641e-11
1.51733e-11
1.55108e-11
1.58702e-11
1.62317e-11
1.66406e-11
1.70508e-11
1.75025e-11
1.79694e-11
1.84637e-11
1.89923e-11
1.95213e-11
2.00959e-11
2.06754e-11
2.12646e-11
2.18626e-11
2.24833e-11
2.30957e-11
2.37193e-11
2.43823e-11
2.50674e-11
2.58225e-11
2.66407e-11
2.75425e-11
2.85421e-11
2.9606e-11
3.07639e-11
3.19795e-11
3.32751e-11
3.46329e-11
3.60506e-11
3.75904e-11
3.92129e-11
4.09567e-11
4.2788e-11
4.46823e-11
4.66192e-11
4.84939e-11
5.02941e-11
5.1925e-11
5.28587e-11
5.32429e-11
5.46378e-11
5.75951e-11
6.23676e-11
6.99863e-11
7.75064e-11
7.65469e-11
6.79212e-11
7.07944e-11
1.41029e-10
3.29284e-10
1.87274e-10
1.81599e-09
)
;

boundaryField
{
    inlet
    {
        type            calculated;
        value           nonuniform List<scalar> 
23
(
2.36903e-08
2.34545e-08
2.32272e-08
2.30076e-08
2.27908e-08
2.25716e-08
2.23439e-08
2.2103e-08
2.1843e-08
2.15586e-08
2.1243e-08
2.08989e-08
2.05085e-08
1.99069e-08
1.9411e-08
1.88131e-08
1.8082e-08
1.72108e-08
1.61917e-08
1.50339e-08
1.3713e-08
1.27338e-08
1.09906e-08
)
;
    }
    outlet
    {
        type            calculated;
        value           nonuniform List<scalar> 
82
(
6.22596e-12
6.20364e-12
6.47669e-12
6.62843e-12
6.81639e-12
6.86311e-12
6.95684e-12
7.01794e-12
7.12548e-12
7.24125e-12
7.3017e-12
7.41384e-12
7.5283e-12
7.64863e-12
7.76649e-12
7.87927e-12
8.02547e-12
8.16249e-12
8.30335e-12
8.46909e-12
8.61559e-12
8.79412e-12
8.96081e-12
9.14291e-12
9.34551e-12
9.55433e-12
9.76815e-12
9.98347e-12
1.02353e-11
1.0477e-11
1.07413e-11
1.10235e-11
1.13012e-11
1.16205e-11
1.19336e-11
1.228e-11
1.26341e-11
1.30064e-11
1.34051e-11
1.37946e-11
1.42228e-11
1.4649e-11
1.5079e-11
1.5514e-11
1.59695e-11
1.64169e-11
1.68754e-11
1.73751e-11
1.78956e-11
1.84827e-11
1.91239e-11
1.98344e-11
2.06232e-11
2.14543e-11
2.23578e-11
2.3304e-11
2.43248e-11
2.54171e-11
2.65902e-11
2.79135e-11
2.93475e-11
3.09208e-11
3.25893e-11
3.43185e-11
3.60872e-11
3.77865e-11
3.93785e-11
4.07227e-11
4.1262e-11
4.13267e-11
4.26088e-11
4.5653e-11
5.0851e-11
5.92122e-11
6.73288e-11
6.57675e-11
5.41835e-11
5.20873e-11
1.13493e-10
3.04987e-10
1.2386e-10
1.49355e-09
)
;
    }
    walls
    {
        type            calculated;
        value           nonuniform List<scalar> 0();
    }
    frontAndBack
    {
        type            empty;
    }
    procBoundary3to2
    {
        type            processor;
        value           nonuniform List<scalar> 
88
(
3.83367e-10
1.4564e-09
1.99023e-11
3.13623e-10
3.13623e-10
2.0876e-11
5.63906e-11
5.63906e-11
7.86167e-11
6.02238e-11
5.23342e-11
5.23342e-11
1.66254e-10
1.41791e-10
1.23184e-10
1.07135e-10
9.16825e-11
9.16825e-11
3.39427e-10
2.96528e-10
2.56667e-10
2.20626e-10
1.88086e-10
1.88086e-10
6.5869e-10
5.99735e-10
5.44055e-10
4.91941e-10
4.43381e-10
3.98061e-10
3.55428e-10
3.55428e-10
1.29811e-09
1.23167e-09
1.16583e-09
1.1009e-09
1.03706e-09
9.74611e-10
9.13728e-10
8.54506e-10
7.97054e-10
7.41234e-10
6.87046e-10
6.34435e-10
6.34435e-10
6.63063e-10
1.35425e-09
1.47942e-09
1.22986e-09
1.31108e-09
1.39403e-09
1.46535e-09
1.52672e-09
1.58254e-09
1.63338e-09
1.68156e-09
1.72388e-09
1.76031e-09
1.79158e-09
1.81641e-09
1.83572e-09
1.84891e-09
1.85614e-09
1.8582e-09
1.855e-09
1.84702e-09
1.83466e-09
1.81808e-09
1.79802e-09
1.77489e-09
1.74856e-09
1.71978e-09
1.6888e-09
1.65577e-09
1.62091e-09
1.58433e-09
1.54647e-09
1.50713e-09
1.4665e-09
1.42495e-09
1.38215e-09
1.33849e-09
1.29393e-09
1.24844e-09
1.20232e-09
1.15552e-09
1.10814e-09
1.10814e-09
)
;
    }
    procBoundary3to6
    {
        type            processor;
        value           uniform 1.96837e-12;
    }
    procBoundary3to7
    {
        type            processor;
        value           nonuniform List<scalar> 
16
(
1.4443e-14
5.0282e-10
5.20284e-10
3.17512e-10
2.43922e-10
1.89497e-10
1.35806e-10
9.38901e-11
9.38901e-11
6.16003e-11
4.02256e-11
2.54899e-11
1.80899e-11
1.20756e-11
1.40893e-11
1.03327e-11
)
;
    }
}


// ************************************************************************* //
