/*--------------------------------*- C++ -*----------------------------------*\
| =========                 |                                                 |
| \\      /  F ield         | OpenFOAM: The Open Source CFD Toolbox           |
|  \\    /   O peration     | Version:  2506                                  |
|   \\  /    A nd           | Website:  www.openfoam.com                      |
|    \\/     M anipulation  |                                                 |
\*---------------------------------------------------------------------------*/
FoamFile
{
    version     2.0;
    format      ascii;
    arch        "LSB;label=32;scalar=64";
    class       volScalarField;
    location    "450";
    object      turbulenceProperties:k;
}
// * * * * * * * * * * * * * * * * * * * * * * * * * * * * * * * * * * * * * //

dimensions      [0 2 -2 0 0 0 0];

internalField   nonuniform List<scalar> 
1340
(
7.0482e-07
1.38621e-06
1.57324e-07
6.44775e-07
7.02669e-07
1.38827e-06
1.73419e-07
2.78868e-07
1.54184e-07
6.4721e-07
7.02941e-07
1.38895e-06
3.2072e-07
2.82341e-07
2.64893e-07
1.81893e-07
2.85324e-07
1.52332e-07
6.49835e-07
7.04895e-07
1.38891e-06
4.58539e-07
4.24976e-07
3.97518e-07
3.7196e-07
3.45323e-07
3.20227e-07
2.83729e-07
2.67966e-07
1.90982e-07
2.91538e-07
1.51591e-07
6.5256e-07
7.07971e-07
1.38855e-06
6.43482e-07
6.03275e-07
5.63132e-07
5.24008e-07
4.85642e-07
4.49564e-07
4.18268e-07
3.92698e-07
3.68731e-07
3.4363e-07
3.19889e-07
2.85444e-07
2.71411e-07
2.0055e-07
2.97367e-07
1.51862e-07
6.55149e-07
7.11712e-07
1.38797e-06
8.7574e-07
8.38204e-07
8.00822e-07
7.63846e-07
7.27363e-07
6.91245e-07
6.55134e-07
6.18722e-07
5.81982e-07
5.45226e-07
5.09338e-07
4.73941e-07
4.40516e-07
4.11549e-07
3.8788e-07
3.65524e-07
3.42014e-07
3.19655e-07
2.87444e-07
2.75169e-07
2.10501e-07
3.02709e-07
1.53061e-07
6.57556e-07
7.15756e-07
1.38691e-06
1.18053e-06
1.15346e-06
1.12566e-06
1.0972e-06
1.0682e-06
1.03871e-06
1.00881e-06
9.78575e-07
9.48018e-07
9.17078e-07
8.85703e-07
8.53834e-07
8.21527e-07
7.88902e-07
7.56199e-07
7.23641e-07
6.91297e-07
6.59068e-07
6.26648e-07
5.9381e-07
5.60556e-07
5.27207e-07
4.94575e-07
4.62167e-07
4.31448e-07
4.04849e-07
3.83078e-07
3.62341e-07
3.40462e-07
3.19515e-07
2.89714e-07
2.79209e-07
2.20753e-07
3.07462e-07
1.55124e-07
6.59688e-07
7.19577e-07
1.38571e-06
1.08579e-06
1.1937e-06
1.06837e-06
1.09415e-06
1.09383e-06
1.14358e-06
1.17026e-06
1.19645e-06
1.21926e-06
1.24082e-06
1.26065e-06
1.27865e-06
1.29434e-06
1.30782e-06
1.31955e-06
1.32889e-06
1.33615e-06
1.34142e-06
1.34477e-06
1.34633e-06
1.34613e-06
1.3443e-06
1.34102e-06
1.33641e-06
1.33054e-06
1.32351e-06
1.31547e-06
1.30654e-06
1.29667e-06
1.28605e-06
1.27464e-06
1.26252e-06
1.24973e-06
1.23624e-06
1.22211e-06
1.20732e-06
1.19184e-06
1.17573e-06
1.15887e-06
1.14129e-06
1.12303e-06
1.10397e-06
1.08414e-06
1.06351e-06
1.04215e-06
1.02001e-06
9.9717e-07
9.73727e-07
9.497e-07
9.25189e-07
9.00267e-07
8.74917e-07
8.49093e-07
8.22753e-07
7.95815e-07
7.68319e-07
7.40354e-07
7.12115e-07
6.8379e-07
6.55447e-07
6.27006e-07
5.98218e-07
5.68918e-07
5.39141e-07
5.09194e-07
4.798e-07
4.50383e-07
4.22405e-07
3.98187e-07
3.78292e-07
3.59176e-07
3.38958e-07
3.19454e-07
2.92239e-07
2.83511e-07
2.31242e-07
3.11567e-07
1.57963e-07
6.61316e-07
7.22969e-07
1.38456e-06
1.19441e-06
9.49653e-07
8.70716e-07
9.49829e-07
9.6715e-07
9.98453e-07
1.01748e-06
1.03843e-06
1.05714e-06
1.07487e-06
1.09105e-06
1.1056e-06
1.11845e-06
1.12959e-06
1.13921e-06
1.14694e-06
1.15307e-06
1.15773e-06
1.16081e-06
1.16245e-06
1.1628e-06
1.16188e-06
1.15982e-06
1.15675e-06
1.1527e-06
1.14779e-06
1.14215e-06
1.13575e-06
1.1287e-06
1.12107e-06
1.11284e-06
1.10409e-06
1.09479e-06
1.085e-06
1.07469e-06
1.06384e-06
1.05248e-06
1.04056e-06
1.02804e-06
1.01491e-06
1.00113e-06
9.86689e-07
9.71508e-07
9.55582e-07
9.3897e-07
9.21583e-07
9.0353e-07
8.84845e-07
8.65576e-07
8.45816e-07
8.25612e-07
8.04944e-07
7.83771e-07
7.62045e-07
7.39661e-07
7.16634e-07
6.93016e-07
6.6897e-07
6.44652e-07
6.2012e-07
5.95326e-07
5.70075e-07
5.44247e-07
5.17892e-07
4.91302e-07
4.65109e-07
4.38653e-07
4.13427e-07
3.91578e-07
3.73518e-07
3.5602e-07
3.37482e-07
3.19466e-07
2.94999e-07
2.88052e-07
2.41878e-07
3.14986e-07
1.61385e-07
6.6273e-07
7.25535e-07
1.38395e-06
9.06717e-07
8.01973e-07
7.72903e-07
8.44215e-07
8.52338e-07
8.74116e-07
8.89614e-07
9.062e-07
9.21248e-07
9.35309e-07
9.47906e-07
9.59506e-07
9.69669e-07
9.78492e-07
9.86035e-07
9.92257e-07
9.97168e-07
1.00101e-06
1.00362e-06
1.00505e-06
1.00559e-06
1.00518e-06
1.00391e-06
1.00177e-06
9.99018e-07
9.95635e-07
9.91634e-07
9.8712e-07
9.82139e-07
9.76716e-07
9.70877e-07
9.64667e-07
9.58047e-07
9.51067e-07
9.43723e-07
9.35971e-07
9.27808e-07
9.19208e-07
9.10142e-07
9.00542e-07
8.90408e-07
8.79697e-07
8.68306e-07
8.56299e-07
8.4361e-07
8.30211e-07
8.16215e-07
8.01604e-07
7.8646e-07
7.70852e-07
7.54807e-07
7.38319e-07
7.21348e-07
7.03804e-07
6.85571e-07
6.66653e-07
6.47062e-07
6.26907e-07
6.06341e-07
5.85426e-07
5.64124e-07
5.42292e-07
5.1984e-07
4.96852e-07
4.73558e-07
4.50493e-07
4.26972e-07
4.04503e-07
3.8499e-07
3.68709e-07
3.52843e-07
3.36003e-07
3.19531e-07
2.97993e-07
2.92832e-07
2.5258e-07
3.17742e-07
1.65371e-07
6.63038e-07
7.27861e-07
1.38433e-06
7.74625e-07
7.17139e-07
6.95182e-07
7.47164e-07
7.51431e-07
7.68583e-07
7.80872e-07
7.93744e-07
8.05331e-07
8.1616e-07
8.25895e-07
8.34789e-07
8.42617e-07
8.49415e-07
8.55239e-07
8.6011e-07
8.63946e-07
8.6699e-07
8.69112e-07
8.70373e-07
8.70969e-07
8.70866e-07
8.7009e-07
8.68723e-07
8.6697e-07
8.64635e-07
8.61912e-07
8.58875e-07
8.5544e-07
8.51726e-07
8.47704e-07
8.43457e-07
8.38884e-07
8.34095e-07
8.29029e-07
8.23656e-07
8.17992e-07
8.11992e-07
8.05598e-07
7.98803e-07
7.91549e-07
7.83783e-07
7.7547e-07
7.66593e-07
7.57087e-07
7.46997e-07
7.3635e-07
7.25159e-07
7.13518e-07
7.0146e-07
6.89025e-07
6.76191e-07
6.62924e-07
6.49066e-07
6.34549e-07
6.19327e-07
6.0333e-07
5.86728e-07
5.69614e-07
5.52028e-07
5.34007e-07
5.15426e-07
4.9619e-07
4.76423e-07
4.56297e-07
4.36235e-07
4.15564e-07
3.95787e-07
3.7854e-07
3.6397e-07
3.49709e-07
3.34558e-07
3.19696e-07
3.01217e-07
2.97847e-07
2.63107e-07
3.1992e-07
1.69124e-07
6.62694e-07
7.28821e-07
1.38767e-06
6.86245e-07
6.35483e-07
6.14137e-07
6.54066e-07
6.57185e-07
6.705e-07
6.79809e-07
6.89552e-07
6.98146e-07
7.06386e-07
7.13745e-07
7.20397e-07
7.2638e-07
7.31475e-07
7.35931e-07
7.39743e-07
7.42731e-07
7.45084e-07
7.46872e-07
7.4803e-07
7.48699e-07
7.48842e-07
7.48525e-07
7.47864e-07
7.46822e-07
7.4542e-07
7.43863e-07
7.41996e-07
7.39842e-07
7.375e-07
7.35106e-07
7.32445e-07
7.29658e-07
7.26602e-07
7.23424e-07
7.20218e-07
7.16538e-07
7.12694e-07
7.08602e-07
7.04196e-07
6.99326e-07
6.9412e-07
6.88419e-07
6.8216e-07
6.75497e-07
6.68225e-07
6.60503e-07
6.52367e-07
6.43781e-07
6.34931e-07
6.25733e-07
6.16187e-07
6.0631e-07
5.95834e-07
5.84694e-07
5.72901e-07
5.60265e-07
5.46945e-07
5.33123e-07
5.18711e-07
5.03837e-07
4.88453e-07
4.72385e-07
4.55794e-07
4.3881e-07
4.21754e-07
4.03927e-07
3.8687e-07
3.7189e-07
3.59048e-07
3.46417e-07
3.33019e-07
3.19935e-07
3.04711e-07
3.03256e-07
2.73775e-07
3.21494e-07
1.76196e-07
6.5856e-07
7.32613e-07
1.39139e-06
5.87275e-07
5.43607e-07
5.24419e-07
5.55143e-07
5.56389e-07
5.66174e-07
5.72357e-07
5.78554e-07
5.85093e-07
5.90331e-07
5.95275e-07
6.00317e-07
6.04244e-07
6.0762e-07
6.11032e-07
6.13956e-07
6.15757e-07
6.17854e-07
6.19309e-07
6.20366e-07
6.21263e-07
6.21502e-07
6.21844e-07
6.21935e-07
6.21557e-07
6.21201e-07
6.20731e-07
6.20068e-07
6.19306e-07
6.18268e-07
6.17493e-07
6.16555e-07
6.15416e-07
6.14036e-07
6.12973e-07
6.11706e-07
6.10041e-07
6.08305e-07
6.06488e-07
6.04405e-07
6.01861e-07
5.99242e-07
5.95932e-07
5.92361e-07
5.88521e-07
5.8395e-07
5.79203e-07
5.74169e-07
5.68628e-07
5.63081e-07
5.57217e-07
5.51018e-07
5.44696e-07
5.3771e-07
5.30066e-07
5.21827e-07
5.12772e-07
5.02896e-07
4.92565e-07
4.81642e-07
4.70228e-07
4.58356e-07
4.45814e-07
4.32782e-07
4.19295e-07
4.05556e-07
3.90919e-07
3.76936e-07
3.64442e-07
3.53484e-07
3.42711e-07
3.31349e-07
3.20381e-07
3.09082e-07
3.09355e-07
2.86323e-07
3.20194e-07
1.89986e-07
6.46084e-07
7.25916e-07
1.34479e-06
4.82251e-07
4.51462e-07
4.37207e-07
4.57976e-07
4.58062e-07
4.64428e-07
4.67617e-07
4.71372e-07
4.7552e-07
4.7834e-07
4.81514e-07
4.84753e-07
4.86979e-07
4.89055e-07
4.91581e-07
4.93454e-07
4.94557e-07
4.96401e-07
4.97327e-07
4.985e-07
4.9956e-07
4.99799e-07
5.00683e-07
5.01472e-07
5.01604e-07
5.02127e-07
5.0242e-07
5.02768e-07
5.03238e-07
5.03397e-07
5.03727e-07
5.0423e-07
5.04402e-07
5.04567e-07
5.05161e-07
5.05306e-07
5.05416e-07
5.05489e-07
5.05502e-07
5.05233e-07
5.04799e-07
5.04132e-07
5.02991e-07
5.01867e-07
5.00206e-07
4.98225e-07
4.96197e-07
4.93895e-07
4.91337e-07
4.88824e-07
4.86195e-07
4.83266e-07
4.80276e-07
4.76709e-07
4.72536e-07
4.67741e-07
4.62185e-07
4.55866e-07
4.49098e-07
4.41812e-07
4.34082e-07
4.25915e-07
4.17169e-07
4.07931e-07
3.98144e-07
3.87953e-07
3.76795e-07
3.66101e-07
3.56239e-07
3.47325e-07
3.38623e-07
3.2959e-07
3.21227e-07
3.14369e-07
3.16543e-07
2.99715e-07
3.17927e-07
2.05075e-07
6.45519e-07
7.20083e-07
1.34306e-06
3.94013e-07
3.71357e-07
3.59728e-07
3.7436e-07
3.73994e-07
3.77316e-07
3.79283e-07
3.82036e-07
3.83441e-07
3.85562e-07
3.87804e-07
3.8931e-07
3.90728e-07
3.92271e-07
3.94041e-07
3.94945e-07
3.9625e-07
3.97518e-07
3.98177e-07
3.99518e-07
4.00591e-07
4.01059e-07
4.02183e-07
4.03194e-07
4.03753e-07
4.04993e-07
4.0577e-07
4.06648e-07
4.07867e-07
4.08864e-07
4.0986e-07
4.11254e-07
4.123e-07
4.13483e-07
4.14992e-07
4.16122e-07
4.17344e-07
4.18622e-07
4.19756e-07
4.20692e-07
4.21652e-07
4.22266e-07
4.22787e-07
4.23219e-07
4.2318e-07
4.23196e-07
4.23165e-07
4.22963e-07
4.22779e-07
4.22625e-07
4.22565e-07
4.22293e-07
4.21875e-07
4.21137e-07
4.19748e-07
4.17802e-07
4.15205e-07
4.1193e-07
4.08321e-07
4.04271e-07
3.9985e-07
3.95098e-07
3.89833e-07
3.84045e-07
3.77712e-07
3.70845e-07
3.62997e-07
3.5543e-07
3.48072e-07
3.41184e-07
3.34622e-07
3.28029e-07
3.22607e-07
3.20227e-07
3.24532e-07
3.12483e-07
3.17005e-07
2.20127e-07
6.515e-07
7.01569e-07
1.34267e-06
3.21392e-07
2.87469e-07
3.0257e-07
2.91368e-07
3.04033e-07
3.02406e-07
3.04388e-07
3.06041e-07
3.07564e-07
3.08304e-07
3.09674e-07
3.11208e-07
3.12265e-07
3.13145e-07
3.14444e-07
3.15811e-07
3.16378e-07
3.17761e-07
3.18809e-07
3.1966e-07
3.21034e-07
3.21962e-07
3.2308e-07
3.24231e-07
3.25444e-07
3.26639e-07
3.28084e-07
3.29409e-07
3.30716e-07
3.32447e-07
3.34012e-07
3.35536e-07
3.3755e-07
3.39184e-07
3.41074e-07
3.43213e-07
3.44968e-07
3.46987e-07
3.49021e-07
3.5086e-07
3.52725e-07
3.54507e-07
3.56134e-07
3.57747e-07
3.59169e-07
3.60533e-07
3.61906e-07
3.63307e-07
3.64762e-07
3.66309e-07
3.67936e-07
3.69728e-07
3.714e-07
3.72896e-07
3.74193e-07
3.74857e-07
3.75067e-07
3.74763e-07
3.73887e-07
3.72804e-07
3.71421e-07
3.6974e-07
3.67829e-07
3.65467e-07
3.62599e-07
3.59216e-07
3.55235e-07
3.50306e-07
3.45494e-07
3.40375e-07
3.35392e-07
3.30948e-07
3.26837e-07
3.24571e-07
3.26534e-07
3.32893e-07
3.24114e-07
3.17144e-07
2.38564e-07
6.60836e-07
6.77787e-07
1.34186e-06
2.6004e-07
2.31806e-07
2.43473e-07
2.33682e-07
2.44532e-07
2.42695e-07
2.44477e-07
2.45121e-07
2.4633e-07
2.47213e-07
2.47784e-07
2.48987e-07
2.49876e-07
2.50874e-07
2.51834e-07
2.52821e-07
2.53666e-07
2.54942e-07
2.56084e-07
2.5706e-07
2.58276e-07
2.59411e-07
2.61002e-07
2.62158e-07
2.63662e-07
2.65174e-07
2.66737e-07
2.68617e-07
2.70206e-07
2.72224e-07
2.74145e-07
2.76217e-07
2.78503e-07
2.80597e-07
2.82964e-07
2.85471e-07
2.87812e-07
2.90227e-07
2.92819e-07
2.95243e-07
2.9771e-07
3.00183e-07
3.02509e-07
3.04932e-07
3.0728e-07
3.09691e-07
3.12145e-07
3.14681e-07
3.17448e-07
3.20344e-07
3.23299e-07
3.26456e-07
3.29559e-07
3.32451e-07
3.35236e-07
3.37453e-07
3.39291e-07
3.4078e-07
3.41855e-07
3.42815e-07
3.43593e-07
3.44175e-07
3.44571e-07
3.44616e-07
3.44185e-07
3.43265e-07
3.41762e-07
3.39375e-07
3.36955e-07
3.3383e-07
3.30648e-07
3.28246e-07
3.2661e-07
3.27595e-07
3.33625e-07
3.41714e-07
3.34922e-07
3.19141e-07
2.63409e-07
6.73643e-07
6.49963e-07
1.34204e-06
2.07449e-07
1.84705e-07
1.93177e-07
1.85133e-07
1.94098e-07
1.92856e-07
1.9424e-07
1.94894e-07
1.96143e-07
1.9654e-07
1.97405e-07
1.98645e-07
1.9935e-07
2.00463e-07
2.01503e-07
2.02362e-07
2.03622e-07
2.04849e-07
2.06142e-07
2.07209e-07
2.08627e-07
2.10186e-07
2.11604e-07
2.13162e-07
2.14957e-07
2.16489e-07
2.18478e-07
2.20558e-07
2.22311e-07
2.24604e-07
2.26745e-07
2.29137e-07
2.31587e-07
2.3389e-07
2.36547e-07
2.39334e-07
2.41833e-07
2.44581e-07
2.47479e-07
2.50197e-07
2.53006e-07
2.55987e-07
2.58741e-07
2.61668e-07
2.64772e-07
2.67803e-07
2.71068e-07
2.74425e-07
2.78072e-07
2.81838e-07
2.85683e-07
2.8978e-07
2.93766e-07
2.97617e-07
3.01423e-07
3.04769e-07
3.07847e-07
3.10746e-07
3.13397e-07
3.16018e-07
3.18525e-07
3.2096e-07
3.23271e-07
3.25263e-07
3.26876e-07
3.28035e-07
3.2864e-07
3.28446e-07
3.28047e-07
3.26684e-07
3.2526e-07
3.24926e-07
3.25838e-07
3.30162e-07
3.39824e-07
3.48845e-07
3.42506e-07
3.2091e-07
2.92137e-07
6.89598e-07
6.1571e-07
1.34588e-06
1.73824e-07
1.55777e-07
1.62821e-07
1.55827e-07
1.63538e-07
1.62421e-07
1.63125e-07
1.64152e-07
1.64924e-07
1.65201e-07
1.6613e-07
1.67088e-07
1.67738e-07
1.6853e-07
1.69603e-07
1.70369e-07
1.71584e-07
1.7271e-07
1.73668e-07
1.7481e-07
1.76254e-07
1.77711e-07
1.7888e-07
1.80358e-07
1.82298e-07
1.83668e-07
1.85537e-07
1.87537e-07
1.89358e-07
1.91479e-07
1.93671e-07
1.95978e-07
1.98392e-07
2.00767e-07
2.03456e-07
2.0621e-07
2.08817e-07
2.1177e-07
2.14755e-07
2.17778e-07
2.20789e-07
2.24148e-07
2.27358e-07
2.30771e-07
2.3442e-07
2.37968e-07
2.41929e-07
2.4588e-07
2.50089e-07
2.54443e-07
2.5889e-07
2.63514e-07
2.68052e-07
2.72614e-07
2.77075e-07
2.81286e-07
2.8538e-07
2.89375e-07
2.93259e-07
2.97178e-07
3.01017e-07
3.04864e-07
3.08635e-07
3.12115e-07
3.15368e-07
3.1821e-07
3.20536e-07
3.22201e-07
3.23588e-07
3.23875e-07
3.24013e-07
3.25391e-07
3.28409e-07
3.3554e-07
3.47891e-07
3.57164e-07
3.51331e-07
3.30033e-07
3.34563e-07
7.14262e-07
5.83833e-07
1.364e-06
1.41616e-07
1.26312e-07
1.31979e-07
1.25784e-07
1.33716e-07
1.32595e-07
1.33795e-07
1.34837e-07
1.35204e-07
1.35814e-07
1.37112e-07
1.38141e-07
1.38994e-07
1.3977e-07
1.40929e-07
1.42166e-07
1.43415e-07
1.44495e-07
1.45506e-07
1.47229e-07
1.48563e-07
1.50009e-07
1.51445e-07
1.52912e-07
1.54956e-07
1.56507e-07
1.58289e-07
1.60209e-07
1.62224e-07
1.64291e-07
1.66326e-07
1.68718e-07
1.70908e-07
1.73301e-07
1.75912e-07
1.78437e-07
1.81064e-07
1.83773e-07
1.86784e-07
1.89727e-07
1.92652e-07
1.95993e-07
1.99267e-07
2.02695e-07
2.06285e-07
2.1001e-07
2.13917e-07
2.17892e-07
2.22057e-07
2.26333e-07
2.30787e-07
2.35287e-07
2.3989e-07
2.44564e-07
2.49181e-07
2.53769e-07
2.58388e-07
2.63013e-07
2.67622e-07
2.72365e-07
2.77085e-07
2.819e-07
2.86684e-07
2.91276e-07
2.95743e-07
2.99824e-07
3.03449e-07
3.06465e-07
3.08878e-07
3.10165e-07
3.11884e-07
3.15357e-07
3.21165e-07
3.31768e-07
3.46339e-07
3.53603e-07
3.44654e-07
3.249e-07
3.62313e-07
7.29577e-07
5.29578e-07
1.39573e-06
1.49295e-07
1.3873e-07
1.42729e-07
1.38226e-07
1.4214e-07
1.41299e-07
1.42243e-07
1.42741e-07
1.42606e-07
1.42998e-07
1.43836e-07
1.44525e-07
1.44959e-07
1.45252e-07
1.46027e-07
1.46845e-07
1.4754e-07
1.4821e-07
1.488e-07
1.50058e-07
1.50941e-07
1.51758e-07
1.5282e-07
1.53928e-07
1.55326e-07
1.56546e-07
1.57958e-07
1.5939e-07
1.61073e-07
1.62827e-07
1.64552e-07
1.66701e-07
1.68684e-07
1.71027e-07
1.73502e-07
1.76079e-07
1.7882e-07
1.81692e-07
1.84972e-07
1.8814e-07
1.91586e-07
1.95234e-07
1.98909e-07
2.02707e-07
2.06632e-07
2.10646e-07
2.14582e-07
2.18691e-07
2.228e-07
2.26993e-07
2.31412e-07
2.35905e-07
2.4067e-07
2.45545e-07
2.50579e-07
2.55677e-07
2.60822e-07
2.65977e-07
2.71012e-07
2.76101e-07
2.81118e-07
2.86217e-07
2.9133e-07
2.96382e-07
3.01386e-07
3.06113e-07
3.10568e-07
3.14662e-07
3.18623e-07
3.21546e-07
3.23949e-07
3.27457e-07
3.32885e-07
3.42704e-07
3.55935e-07
3.61895e-07
3.57564e-07
3.56816e-07
4.39762e-07
7.71145e-07
5.47182e-07
1.53349e-06
1.13452e-07
1.14775e-07
1.13459e-07
1.16056e-07
1.17252e-07
1.17658e-07
1.18337e-07
1.18827e-07
1.19585e-07
1.20389e-07
1.20882e-07
1.21672e-07
1.22467e-07
1.23301e-07
1.24117e-07
1.24908e-07
1.2588e-07
1.26798e-07
1.27741e-07
1.28807e-07
1.29775e-07
1.30912e-07
1.31979e-07
1.33129e-07
1.3438e-07
1.35663e-07
1.36967e-07
1.38284e-07
1.39777e-07
1.41223e-07
1.42785e-07
1.44429e-07
1.46065e-07
1.47893e-07
1.49705e-07
1.51675e-07
1.53684e-07
1.55783e-07
1.57998e-07
1.60182e-07
1.62523e-07
1.64849e-07
1.67181e-07
1.69515e-07
1.71904e-07
1.74229e-07
1.76565e-07
1.79015e-07
1.81512e-07
1.84225e-07
1.8712e-07
1.9026e-07
1.9368e-07
1.97256e-07
2.01076e-07
2.05011e-07
2.09123e-07
2.13347e-07
2.17671e-07
2.22273e-07
2.27021e-07
2.32016e-07
2.37148e-07
2.42343e-07
2.47542e-07
2.52472e-07
2.57117e-07
2.61253e-07
2.63592e-07
2.64549e-07
2.67994e-07
2.75154e-07
2.86333e-07
3.03324e-07
3.19208e-07
3.17224e-07
2.98811e-07
3.05069e-07
4.3061e-07
6.58003e-07
4.96181e-07
1.54491e-06
)
;

boundaryField
{
    inlet
    {
        type            calculated;
        value           nonuniform List<scalar> 
23
(
5.81312e-06
5.78411e-06
5.75602e-06
5.72875e-06
5.70169e-06
5.67421e-06
5.64551e-06
5.615e-06
5.58188e-06
5.54542e-06
5.50468e-06
5.45991e-06
5.40868e-06
5.32875e-06
5.26196e-06
5.18029e-06
5.07863e-06
4.95478e-06
4.80586e-06
4.63085e-06
4.42273e-06
4.2619e-06
3.95944e-06
)
;
    }
    outlet
    {
        type            calculated;
        value           nonuniform List<scalar> 
82
(
9.04643e-08
9.0302e-08
9.2268e-08
9.33425e-08
9.46566e-08
9.49804e-08
9.56267e-08
9.60457e-08
9.67788e-08
9.75617e-08
9.79681e-08
9.87175e-08
9.94766e-08
1.00268e-07
1.01038e-07
1.01769e-07
1.02709e-07
1.03581e-07
1.04471e-07
1.05509e-07
1.06417e-07
1.07514e-07
1.08528e-07
1.09625e-07
1.10833e-07
1.12064e-07
1.13311e-07
1.14553e-07
1.15989e-07
1.1735e-07
1.18821e-07
1.20372e-07
1.21879e-07
1.23588e-07
1.25242e-07
1.27046e-07
1.28865e-07
1.3075e-07
1.32738e-07
1.34653e-07
1.36727e-07
1.3876e-07
1.40782e-07
1.42797e-07
1.44878e-07
1.46893e-07
1.4893e-07
1.51118e-07
1.53364e-07
1.55859e-07
1.58539e-07
1.61456e-07
1.64634e-07
1.67918e-07
1.71417e-07
1.75007e-07
1.78799e-07
1.8277e-07
1.86942e-07
1.91538e-07
1.96398e-07
2.01595e-07
2.06965e-07
2.12386e-07
2.17792e-07
2.22863e-07
2.2751e-07
2.31362e-07
2.32889e-07
2.33073e-07
2.36662e-07
2.44973e-07
2.58548e-07
2.79001e-07
2.97513e-07
2.94041e-07
2.66887e-07
2.61677e-07
3.86291e-07
6.33262e-07
4.03522e-07
1.40106e-06
)
;
    }
    walls
    {
        type            calculated;
        value           nonuniform List<scalar> 0();
    }
    frontAndBack
    {
        type            empty;
    }
    procBoundary3to2
    {
        type            processor;
        value           nonuniform List<scalar> 
88
(
7.09897e-07
1.3836e-06
1.61742e-07
6.42061e-07
6.42061e-07
1.65653e-07
2.72258e-07
2.72258e-07
3.21455e-07
2.81352e-07
2.62279e-07
2.62279e-07
4.67457e-07
4.31701e-07
4.02381e-07
3.75256e-07
3.47141e-07
3.47141e-07
6.67907e-07
6.24278e-07
5.80808e-07
5.38492e-07
4.97202e-07
4.97202e-07
9.30433e-07
8.87815e-07
8.45596e-07
8.04075e-07
7.63358e-07
7.23294e-07
6.83466e-07
6.83466e-07
1.30621e-06
1.27234e-06
1.23786e-06
1.2029e-06
1.16749e-06
1.1318e-06
1.09587e-06
1.05976e-06
1.02351e-06
9.87022e-07
9.50256e-07
9.13145e-07
9.13145e-07
9.34225e-07
1.34025e-06
1.39742e-06
1.27129e-06
1.31255e-06
1.35365e-06
1.3879e-06
1.41668e-06
1.44233e-06
1.4653e-06
1.48675e-06
1.50533e-06
1.52115e-06
1.53459e-06
1.54518e-06
1.55337e-06
1.55893e-06
1.56198e-06
1.56284e-06
1.56149e-06
1.55813e-06
1.5529e-06
1.54587e-06
1.53731e-06
1.52739e-06
1.51602e-06
1.50349e-06
1.48988e-06
1.47524e-06
1.45963e-06
1.44306e-06
1.42572e-06
1.40747e-06
1.38836e-06
1.36855e-06
1.34784e-06
1.32638e-06
1.30411e-06
1.28098e-06
1.2571e-06
1.23239e-06
1.20685e-06
1.20685e-06
)
;
    }
    procBoundary3to6
    {
        type            processor;
        value           uniform 6.66526e-08;
    }
    procBoundary3to7
    {
        type            processor;
        value           nonuniform List<scalar> 
16
(
7.07776e-09
8.13178e-07
8.30431e-07
6.4613e-07
5.66145e-07
4.99091e-07
4.22515e-07
3.51306e-07
3.51306e-07
2.84555e-07
2.29945e-07
1.83045e-07
1.54203e-07
1.25987e-07
1.36088e-07
1.16541e-07
)
;
    }
}


// ************************************************************************* //
