/*--------------------------------*- C++ -*----------------------------------*\
| =========                 |                                                 |
| \\      /  F ield         | OpenFOAM: The Open Source CFD Toolbox           |
|  \\    /   O peration     | Version:  2506                                  |
|   \\  /    A nd           | Website:  www.openfoam.com                      |
|    \\/     M anipulation  |                                                 |
\*---------------------------------------------------------------------------*/
FoamFile
{
    version     2.0;
    format      ascii;
    arch        "LSB;label=32;scalar=64";
    class       volVectorField;
    location    "450";
    object      U;
}
// * * * * * * * * * * * * * * * * * * * * * * * * * * * * * * * * * * * * * //

dimensions      [0 1 -1 0 0 0 0];

internalField   nonuniform List<vector> 
1340
(
(25.5598 3.32915 -1.26853e-16)
(25.6222 2.89347 1.57782e-16)
(25.5177 3.17157 -3.89915e-16)
(25.5111 3.08359 -6.93398e-17)
(25.5621 3.32751 2.02e-17)
(25.6357 2.89609 -6.64354e-16)
(25.5481 3.12283 0)
(25.5359 3.11858 -1.52607e-16)
(25.5211 3.16851 3.86996e-16)
(25.5187 3.08297 2.28962e-16)
(25.5654 3.32562 3.59849e-19)
(25.6493 2.89865 5.76625e-16)
(25.5574 3.07676 -2.20801e-16)
(25.5598 3.09023 4.19024e-18)
(25.5598 3.1017 2.94059e-17)
(25.554 3.11907 0)
(25.5414 3.11574 1.7229e-18)
(25.5251 3.1654 -3.33589e-18)
(25.5268 3.08274 -1.71626e-18)
(25.5699 3.32351 5.00673e-19)
(25.6628 2.90121 -7.29308e-19)
(25.5512 3.00617 1.86343e-17)
(25.5555 3.02085 7.36259e-17)
(25.5586 3.03314 7.34372e-17)
(25.5615 3.04593 -2.49878e-16)
(25.5643 3.05892 6.18296e-17)
(25.5669 3.07216 -8.74428e-17)
(25.5684 3.08596 -1.88818e-18)
(25.5675 3.09788 2.11203e-16)
(25.5605 3.11546 0)
(25.5473 3.11314 1.36537e-17)
(25.5297 3.16228 -3.72055e-16)
(25.5352 3.08288 -2.16499e-16)
(25.5755 3.32122 -7.58841e-18)
(25.6764 2.90386 7.63783e-17)
(25.5379 2.9083 1.69369e-16)
(25.5443 2.92777 -1.53149e-16)
(25.5504 2.94683 -3.97069e-17)
(25.556 2.96543 -2.39487e-16)
(25.561 2.98357 -5.30412e-17)
(25.5655 3.00109 3.56987e-17)
(25.5687 3.01584 1.5895e-17)
(25.571 3.02825 -1.20849e-18)
(25.5732 3.04119 4.76546e-17)
(25.5752 3.05438 -1.15268e-16)
(25.5769 3.06789 2.16264e-16)
(25.5776 3.08197 -1.33474e-16)
(25.5757 3.09433 -2.11262e-16)
(25.5675 3.11203 0)
(25.5537 3.11082 -9.73944e-18)
(25.5351 3.15918 3.63425e-16)
(25.544 3.08341 2.12156e-16)
(25.5822 3.31878 8.93778e-18)
(25.6902 2.9067 -7.76605e-17)
(25.53 2.76785 -2.20613e-17)
(25.5331 2.78743 -1.06625e-16)
(25.5365 2.8071 -1.80186e-16)
(25.5402 2.8268 6.55845e-17)
(25.5444 2.84648 -2.10073e-17)
(25.549 2.86611 8.26322e-17)
(25.5539 2.88562 2.10458e-16)
(25.559 2.90495 -4.87643e-18)
(25.5641 2.92402 1.23973e-16)
(25.5688 2.94278 -1.06452e-17)
(25.5732 2.96115 1.62345e-17)
(25.577 2.97916 1.0218e-16)
(25.5803 2.99662 -3.62103e-17)
(25.5826 3.01139 -1.8361e-17)
(25.584 3.02385 -1.26607e-18)
(25.5854 3.03691 3.42723e-18)
(25.5866 3.05026 8.83547e-19)
(25.5875 3.06399 -1.13655e-16)
(25.5874 3.0783 1.28823e-16)
(25.5844 3.09108 -4.14288e-19)
(25.575 3.10882 0)
(25.5604 3.1088 1.32547e-17)
(25.5411 3.15614 -3.79537e-16)
(25.5534 3.08437 -2.10009e-18)
(25.59 3.3162 -2.28349e-17)
(25.704 2.90981 -8.02339e-19)
(25.5702 2.57657 1.74925e-17)
(25.5671 2.59025 -1.00891e-16)
(25.5644 2.60445 -2.78328e-18)
(25.562 2.61915 9.6443e-17)
(25.5599 2.63436 -1.04246e-16)
(25.5583 2.65005 1.65855e-17)
(25.5571 2.66621 7.57662e-18)
(25.5564 2.68281 -2.10625e-17)
(25.5562 2.69983 1.29133e-16)
(25.5565 2.71723 1.82247e-16)
(25.5573 2.73498 1.36407e-17)
(25.5585 2.75303 4.94549e-17)
(25.56 2.77133 -5.25067e-17)
(25.5618 2.78983 1.53666e-18)
(25.564 2.8085 2.77134e-16)
(25.5666 2.82729 -1.89075e-18)
(25.5696 2.84614 -1.53402e-16)
(25.5729 2.86503 -3.33646e-17)
(25.5766 2.88389 -1.45131e-16)
(25.5805 2.90265 -3.7408e-17)
(25.5842 2.92125 -1.21262e-18)
(25.5877 2.93961 -1.63744e-16)
(25.5908 2.95769 -6.05255e-18)
(25.5935 2.97548 -4.24562e-17)
(25.5956 2.99281 -3.56337e-19)
(25.5969 3.00754 1.42809e-17)
(25.5976 3.02001 -1.26466e-16)
(25.5982 3.03313 1.15913e-16)
(25.5987 3.04659 1.0223e-16)
(25.5988 3.06051 1.872e-16)
(25.5977 3.07501 -2.08853e-16)
(25.5937 3.08817 -4.41367e-19)
(25.583 3.10587 0)
(25.5677 3.1071 -8.73275e-18)
(25.548 3.15321 1.04863e-16)
(25.5632 3.08577 4.4589e-17)
(25.599 3.31352 -2.67762e-17)
(25.7181 2.91331 -8.37682e-19)
(25.7174 2.39773 2.34447e-18)
(25.7172 2.39948 2.29734e-18)
(25.7173 2.40007 -1.52983e-19)
(25.7172 2.40155 5.63761e-19)
(25.7171 2.40282 7.59827e-19)
(25.7168 2.40427 3.51876e-19)
(25.7163 2.40576 3.83959e-20)
(25.7157 2.40734 -3.02442e-18)
(25.7149 2.409 -1.24064e-18)
(25.714 2.41075 2.92715e-18)
(25.7129 2.41259 0)
(25.7117 2.41454 -4.71807e-19)
(25.7103 2.4166 6.66056e-18)
(25.7087 2.41877 2.10365e-19)
(25.7069 2.42107 7.47701e-18)
(25.705 2.4235 7.60685e-19)
(25.7029 2.42608 1.90528e-18)
(25.7006 2.42881 6.08844e-18)
(25.6982 2.4317 3.05015e-18)
(25.6956 2.43477 8.54435e-18)
(25.6928 2.43803 -7.86459e-18)
(25.69 2.44149 -1.16965e-17)
(25.6869 2.44516 4.45871e-18)
(25.6837 2.44905 -2.73763e-18)
(25.6804 2.45319 -8.60677e-18)
(25.677 2.45758 -8.29872e-18)
(25.6734 2.46224 1.63152e-17)
(25.6698 2.46718 -5.73019e-18)
(25.666 2.47243 2.21248e-18)
(25.6622 2.478 -7.93029e-18)
(25.6583 2.48391 1.29708e-17)
(25.6543 2.49016 8.26173e-18)
(25.6503 2.49679 9.89177e-18)
(25.6462 2.5038 2.51419e-17)
(25.6421 2.51121 -1.8491e-17)
(25.638 2.51905 -1.1264e-17)
(25.6339 2.52732 9.45854e-19)
(25.6298 2.53603 -1.33961e-17)
(25.6258 2.54521 -5.41484e-18)
(25.6218 2.55487 -2.4395e-17)
(25.6179 2.56501 8.20689e-18)
(25.6141 2.57565 1.15733e-17)
(25.6104 2.58679 -2.6887e-17)
(25.6069 2.59845 2.23434e-17)
(25.6036 2.61061 6.03224e-18)
(25.6005 2.6233 -6.23132e-19)
(25.5977 2.63649 -3.89354e-18)
(25.5952 2.6502 2.81102e-17)
(25.593 2.66441 -8.5429e-17)
(25.5913 2.67911 -2.89281e-19)
(25.59 2.69428 -2.23762e-18)
(25.5891 2.7099 -3.84041e-17)
(25.5886 2.72595 -6.5166e-18)
(25.5885 2.7424 -4.49584e-18)
(25.5887 2.7592 -6.24478e-19)
(25.5893 2.77631 -1.71607e-17)
(25.5901 2.79369 1.50266e-18)
(25.5913 2.81131 -1.1914e-16)
(25.5928 2.82912 -1.86799e-18)
(25.5946 2.84709 1.29987e-16)
(25.5969 2.86517 -5.65359e-19)
(25.5994 2.8833 1.33241e-16)
(25.6021 2.90142 -1.07906e-17)
(25.6047 2.91946 -1.07305e-16)
(25.607 2.93736 9.63079e-18)
(25.6089 2.95506 5.2498e-18)
(25.6104 2.97257 3.54264e-17)
(25.6114 2.9897 3.07968e-17)
(25.6118 3.00432 -2.10453e-18)
(25.6117 3.01677 4.03237e-18)
(25.6116 3.02989 -9.59726e-19)
(25.6113 3.04343 -9.98383e-17)
(25.6106 3.05749 -1.47996e-16)
(25.6086 3.07212 2.11923e-16)
(25.6034 3.08564 9.64463e-17)
(25.5915 3.10322 0)
(25.5754 3.10575 -2.83743e-17)
(25.5556 3.15043 2.5846e-16)
(25.5737 3.08765 -2.27e-16)
(25.609 3.31078 9.8314e-18)
(25.7324 2.9173 -8.84002e-19)
(25.7428 2.44913 -2.11635e-19)
(25.7426 2.45055 1.83958e-19)
(25.7426 2.45106 -3.03812e-19)
(25.7425 2.45228 -1.45231e-19)
(25.7422 2.45334 -3.45036e-20)
(25.7418 2.45455 -1.60113e-20)
(25.7413 2.45578 -2.6108e-18)
(25.7407 2.45709 1.17837e-18)
(25.74 2.45847 1.63678e-19)
(25.7391 2.45993 -1.94496e-18)
(25.7381 2.46147 0)
(25.7369 2.46309 -3.99739e-18)
(25.7356 2.46481 -1.96263e-18)
(25.7342 2.46662 -9.7285e-21)
(25.7326 2.46854 -4.72179e-18)
(25.7309 2.47057 4.35655e-18)
(25.729 2.47273 4.84302e-18)
(25.727 2.47501 -3.97988e-18)
(25.7249 2.47744 -3.26587e-18)
(25.7226 2.48001 -2.0479e-18)
(25.7201 2.48274 -5.62346e-19)
(25.7176 2.48565 9.33917e-18)
(25.7149 2.48873 1.43506e-19)
(25.7121 2.49201 4.49252e-18)
(25.7091 2.49549 5.67712e-18)
(25.7061 2.4992 6.90865e-19)
(25.7029 2.50314 -5.08027e-18)
(25.6997 2.50732 -2.08297e-18)
(25.6963 2.51177 -1.0346e-19)
(25.6929 2.5165 1.7774e-18)
(25.6893 2.52152 -6.0445e-19)
(25.6857 2.52686 9.79669e-18)
(25.682 2.53251 -4.58485e-19)
(25.6783 2.53852 -1.16124e-18)
(25.6745 2.54488 2.14768e-17)
(25.6707 2.55162 6.64139e-18)
(25.6669 2.55875 -1.15167e-17)
(25.663 2.56629 8.75152e-18)
(25.6592 2.57426 4.96851e-19)
(25.6553 2.58266 -9.66382e-18)
(25.6515 2.59152 -9.18687e-18)
(25.6478 2.60084 8.3954e-18)
(25.6441 2.61064 1.57625e-17)
(25.6406 2.62093 6.01314e-18)
(25.6372 2.63172 6.55633e-17)
(25.634 2.64301 -5.72597e-19)
(25.631 2.6548 -3.59534e-18)
(25.6282 2.6671 -2.03687e-17)
(25.6257 2.67991 5.40723e-17)
(25.6236 2.69321 5.70834e-19)
(25.6218 2.70701 -6.39683e-17)
(25.6204 2.72129 -1.35797e-18)
(25.6193 2.73601 -7.99718e-17)
(25.6185 2.75117 3.52406e-18)
(25.618 2.76672 2.38639e-17)
(25.6177 2.78263 -1.13801e-17)
(25.6177 2.79888 -4.05992e-17)
(25.618 2.81542 6.67538e-19)
(25.6185 2.83222 -1.83574e-18)
(25.6195 2.84925 -2.57921e-18)
(25.6207 2.86647 -5.61421e-19)
(25.6222 2.88382 -1.27417e-16)
(25.6238 2.90124 3.99298e-17)
(25.6253 2.91866 1.04177e-16)
(25.6265 2.93603 1.55745e-16)
(25.6274 2.95329 5.34945e-18)
(25.6278 2.97044 -8.94268e-17)
(25.6277 2.98731 -3.13831e-17)
(25.6272 3.00178 -5.3978e-17)
(25.6264 3.01415 8.44303e-17)
(25.6255 3.02724 -2.57512e-17)
(25.6245 3.0408 9.50728e-17)
(25.623 3.05496 2.5895e-16)
(25.6201 3.06968 1.09918e-16)
(25.6138 3.08351 -4.43309e-18)
(25.6006 3.10092 0)
(25.5836 3.10478 3.33935e-17)
(25.564 3.14785 -5.6005e-18)
(25.5848 3.09008 2.18006e-16)
(25.6202 3.30797 7.749e-17)
(25.7471 2.92191 -9.45465e-19)
(25.7648 2.4961 4.9275e-19)
(25.7646 2.49726 5.27213e-19)
(25.7645 2.4977 -1.4928e-20)
(25.7642 2.49871 -5.18001e-19)
(25.7639 2.49961 3.30869e-20)
(25.7635 2.50061 2.06182e-19)
(25.763 2.50165 1.22965e-19)
(25.7624 2.50275 8.77252e-21)
(25.7616 2.5039 3.75504e-20)
(25.7608 2.50513 6.17867e-20)
(25.7599 2.50642 0)
(25.7588 2.50778 1.56809e-19)
(25.7576 2.50922 -1.47441e-19)
(25.7564 2.51074 -8.2092e-21)
(25.7549 2.51236 1.05543e-18)
(25.7534 2.51407 -1.0233e-18)
(25.7518 2.51589 -2.87265e-19)
(25.75 2.51781 1.17405e-19)
(25.7481 2.51986 1.8217e-19)
(25.7461 2.52203 1.25032e-18)
(25.7439 2.52434 1.21051e-18)
(25.7417 2.52679 -3.90046e-19)
(25.7393 2.5294 1.22609e-19)
(25.7369 2.53218 -8.02297e-20)
(25.7343 2.53513 1.15997e-19)
(25.7316 2.53828 -5.79823e-18)
(25.7288 2.54162 5.25894e-19)
(25.726 2.54518 4.61584e-19)
(25.723 2.54897 -1.75866e-19)
(25.7199 2.553 -1.04828e-18)
(25.7168 2.55729 -5.25128e-19)
(25.7136 2.56185 -1.32784e-18)
(25.7103 2.5667 4.98616e-18)
(25.7069 2.57185 -1.01717e-18)
(25.7035 2.57733 -1.47315e-19)
(25.7 2.58313 -5.53708e-18)
(25.6964 2.5893 1.11935e-17)
(25.6929 2.59583 -6.62668e-18)
(25.6893 2.60274 4.42441e-19)
(25.6857 2.61006 9.31775e-18)
(25.6821 2.61779 8.33885e-18)
(25.6785 2.62596 -5.20627e-19)
(25.675 2.63457 7.15649e-19)
(25.6716 2.64363 -8.22137e-18)
(25.6682 2.65318 -2.92243e-17)
(25.665 2.6632 -5.24735e-19)
(25.6619 2.67371 -3.30993e-18)
(25.659 2.68471 3.57031e-18)
(25.6564 2.69622 -1.20591e-17)
(25.654 2.70822 -1.08492e-18)
(25.6519 2.72072 3.16907e-18)
(25.6501 2.73371 2.56341e-17)
(25.6486 2.74716 -1.02297e-17)
(25.6473 2.76107 -4.34342e-19)
(25.6462 2.7754 -2.47993e-17)
(25.6453 2.79013 3.28229e-17)
(25.6446 2.80524 4.30964e-17)
(25.6441 2.8207 1.0509e-16)
(25.6439 2.83648 -1.79573e-18)
(25.644 2.85255 -9.62656e-17)
(25.6444 2.86887 2.43612e-17)
(25.6449 2.8854 2.44735e-18)
(25.6456 2.90207 -5.83579e-17)
(25.6461 2.91883 -1.36295e-16)
(25.6463 2.93561 -1.21181e-16)
(25.6461 2.95237 7.25133e-17)
(25.6455 2.96912 -3.91793e-18)
(25.6444 2.98567 2.73098e-17)
(25.643 2.99994 -6.87208e-18)
(25.6416 3.01218 1.96194e-19)
(25.64 3.02521 2.03501e-19)
(25.6382 3.03875 -1.09749e-16)
(25.6359 3.05296 -1.06784e-16)
(25.6321 3.06773 -8.25133e-18)
(25.6246 3.08183 -4.68295e-18)
(25.6103 3.099 0)
(25.5924 3.10423 -2.53613e-17)
(25.5732 3.14551 -6.00014e-18)
(25.5968 3.09313 -1.3308e-16)
(25.6324 3.30508 -7.25605e-17)
(25.7624 2.92727 -1.03172e-18)
(25.7837 2.53907 -5.59078e-19)
(25.7834 2.54002 -1.06635e-19)
(25.7833 2.54041 1.70269e-20)
(25.783 2.54125 4.63617e-19)
(25.7826 2.542 -8.32358e-20)
(25.7822 2.54285 -2.20508e-19)
(25.7817 2.54372 1.03389e-19)
(25.7811 2.54464 7.38289e-21)
(25.7804 2.54562 2.49744e-19)
(25.7796 2.54665 1.42943e-18)
(25.7788 2.54773 0)
(25.7778 2.54889 9.43806e-19)
(25.7768 2.5501 -1.3477e-18)
(25.7756 2.55139 -1.03212e-18)
(25.7744 2.55276 1.68532e-18)
(25.773 2.55421 5.87497e-19)
(25.7716 2.55575 -2.44242e-19)
(25.77 2.55738 2.87336e-18)
(25.7684 2.55912 2.49098e-18)
(25.7666 2.56096 -1.5307e-18)
(25.7648 2.56292 -4.33337e-19)
(25.7628 2.56501 -6.97242e-18)
(25.7608 2.56723 1.05179e-19)
(25.7587 2.56959 -1.98859e-18)
(25.7564 2.57211 9.98492e-20)
(25.7541 2.57479 5.25387e-19)
(25.7517 2.57765 -2.77217e-19)
(25.7492 2.58069 3.99599e-19)
(25.7466 2.58393 6.37787e-21)
(25.7439 2.58739 1.35715e-18)
(25.7411 2.59106 -4.57551e-19)
(25.7383 2.59498 -1.15967e-18)
(25.7353 2.59915 -5.60343e-18)
(25.7323 2.60359 -8.92803e-19)
(25.7293 2.60831 -1.29648e-19)
(25.7262 2.61333 1.0901e-18)
(25.723 2.61867 -8.96785e-18)
(25.7198 2.62433 6.83992e-18)
(25.7165 2.63035 3.94065e-19)
(25.7132 2.63673 -1.66995e-17)
(25.7099 2.64349 7.50885e-18)
(25.7065 2.65064 -6.89211e-18)
(25.7032 2.65821 6.46467e-19)
(25.6999 2.6662 -3.37573e-17)
(25.6967 2.67463 5.81864e-18)
(25.6936 2.68352 -4.79751e-19)
(25.6906 2.69288 -3.03913e-18)
(25.6877 2.70271 2.07508e-17)
(25.685 2.71302 1.16804e-17)
(25.6826 2.72383 4.48638e-19)
(25.6803 2.73512 5.34447e-17)
(25.6783 2.7469 -3.96657e-18)
(25.6764 2.75916 2.10094e-17)
(25.6748 2.77188 1.64663e-17)
(25.6732 2.78504 7.5261e-18)
(25.6718 2.79863 3.47874e-17)
(25.6706 2.81263 2.08703e-17)
(25.6695 2.82702 -1.18185e-16)
(25.6686 2.84178 8.27505e-17)
(25.668 2.85689 1.32788e-16)
(25.6677 2.8723 -2.35959e-17)
(25.6675 2.88799 1.21833e-16)
(25.6673 2.90388 -3.24826e-17)
(25.6669 2.91994 -2.86122e-17)
(25.6661 2.93609 2.85639e-16)
(25.665 2.95231 1.32015e-18)
(25.6635 2.9686 -1.7119e-17)
(25.6615 2.98478 -2.02683e-18)
(25.6593 2.99881 -5.73578e-17)
(25.6572 3.0109 2.02082e-19)
(25.6549 3.02381 -4.593e-17)
(25.6525 3.03731 1.00057e-16)
(25.6495 3.05152 9.24253e-17)
(25.6447 3.0663 -2.57901e-17)
(25.636 3.08063 -4.93663e-18)
(25.6205 3.09751 0)
(25.6018 3.10415 3.0713e-16)
(25.5833 3.14343 -1.0413e-16)
(25.6097 3.09693 1.23052e-16)
(25.6454 3.30203 2.31472e-18)
(25.7783 2.93343 -4.81906e-16)
(25.8003 2.57859 3.6501e-19)
(25.8 2.57939 -9.09694e-20)
(25.7998 2.57971 1.45337e-20)
(25.7995 2.58042 -3.8291e-19)
(25.7991 2.58106 2.51831e-20)
(25.7987 2.58177 1.53177e-19)
(25.7982 2.58251 8.84694e-20)
(25.7976 2.58329 6.32175e-21)
(25.797 2.58412 6.94139e-21)
(25.7963 2.58499 -8.30071e-20)
(25.7955 2.58592 0)
(25.7947 2.58689 -6.62947e-19)
(25.7938 2.58793 1.06461e-18)
(25.7928 2.58903 1.37645e-18)
(25.7917 2.59019 5.56166e-19)
(25.7905 2.59143 -7.63442e-19)
(25.7893 2.59274 -2.10697e-19)
(25.7879 2.59413 -1.76747e-19)
(25.7865 2.59561 -8.7911e-20)
(25.785 2.59719 9.45352e-19)
(25.7834 2.59887 9.08198e-19)
(25.7817 2.60065 3.46806e-19)
(25.78 2.60255 2.83404e-18)
(25.7782 2.60457 1.79656e-18)
(25.7762 2.60673 8.69464e-20)
(25.7742 2.60903 3.16783e-18)
(25.7721 2.61148 -6.75158e-18)
(25.77 2.61409 2.34209e-18)
(25.7677 2.61688 2.86519e-18)
(25.7654 2.61984 5.76975e-18)
(25.763 2.62301 -8.39597e-18)
(25.7605 2.62638 -1.36419e-17)
(25.758 2.62998 -2.24681e-18)
(25.7554 2.63381 -4.64275e-18)
(25.7527 2.63789 6.41755e-18)
(25.7499 2.64224 8.32756e-18)
(25.7471 2.64687 6.57447e-18)
(25.7442 2.65179 -2.86803e-18)
(25.7413 2.65702 1.99941e-18)
(25.7383 2.66258 1.62372e-17)
(25.7353 2.66849 -8.66951e-18)
(25.7322 2.67476 1.01308e-17)
(25.7292 2.68141 -2.91388e-18)
(25.7261 2.68844 3.12855e-17)
(25.7231 2.69589 2.2863e-17)
(25.7202 2.70377 2.97182e-17)
(25.7173 2.71208 -7.23171e-19)
(25.7145 2.72085 3.22769e-17)
(25.7119 2.73008 1.819e-17)
(25.7095 2.73979 1.70586e-17)
(25.7072 2.74997 -1.39769e-17)
(25.705 2.76063 -4.43111e-17)
(25.703 2.77176 4.3745e-17)
(25.7011 2.78336 -1.83613e-18)
(25.6992 2.79541 -5.60493e-17)
(25.6975 2.80791 -5.50934e-17)
(25.6958 2.82084 -2.80229e-19)
(25.6942 2.83419 -1.12272e-17)
(25.6928 2.84795 -1.31189e-16)
(25.6917 2.86211 -5.68491e-18)
(25.6907 2.87662 -6.62586e-19)
(25.6898 2.89145 -2.01252e-17)
(25.6889 2.90656 2.85714e-17)
(25.6877 2.92188 1.01588e-17)
(25.6861 2.93739 -1.00274e-17)
(25.6841 2.95304 -2.66292e-18)
(25.6817 2.96883 2.00353e-17)
(25.6789 2.98461 7.04584e-17)
(25.676 2.99836 4.59769e-18)
(25.6733 3.01027 2.0764e-19)
(25.6704 3.02305 4.25495e-17)
(25.6673 3.03645 -3.69075e-18)
(25.6636 3.05064 -7.37188e-18)
(25.6579 3.0654 -8.10572e-18)
(25.648 3.07991 -5.1961e-18)
(25.6312 3.09648 0)
(25.6119 3.1046 -2.71808e-16)
(25.5941 3.14161 1.107e-16)
(25.6239 3.10172 -7.40747e-17)
(25.6586 3.29864 -4.58466e-18)
(25.7963 2.94057 3.83006e-16)
(25.8189 2.62376 -3.95831e-20)
(25.8186 2.62441 -1.61324e-19)
(25.8183 2.62467 -1.03021e-19)
(25.818 2.62524 8.40605e-20)
(25.8177 2.62576 -7.73061e-20)
(25.8173 2.62634 1.28455e-19)
(25.8168 2.62694 9.19201e-19)
(25.8163 2.62758 1.19724e-19)
(25.8158 2.62825 3.45696e-19)
(25.8152 2.62897 -1.28898e-19)
(25.8145 2.62972 0)
(25.8138 2.63053 5.23228e-19)
(25.813 2.63137 -1.22377e-18)
(25.8122 2.63228 4.87228e-21)
(25.8113 2.63323 -1.78141e-18)
(25.8103 2.63425 -1.12588e-18)
(25.8093 2.63533 -1.35723e-18)
(25.8082 2.63647 -1.08451e-18)
(25.8071 2.63769 -4.38233e-19)
(25.8059 2.63899 -2.44116e-18)
(25.8046 2.64037 3.43161e-18)
(25.8032 2.64184 1.7504e-18)
(25.8018 2.64341 -3.24138e-19)
(25.8003 2.64508 -3.01706e-19)
(25.7987 2.64686 9.99127e-19)
(25.7971 2.64876 1.03614e-18)
(25.7954 2.65079 3.12837e-18)
(25.7936 2.65296 2.29536e-18)
(25.7918 2.65527 -3.54956e-18)
(25.7899 2.65773 -5.32513e-18)
(25.7879 2.66036 2.40385e-18)
(25.7858 2.66317 1.56559e-18)
(25.7837 2.66616 1.04159e-18)
(25.7815 2.66936 -8.4689e-18)
(25.7793 2.67276 -7.75789e-18)
(25.7769 2.67641 -1.44513e-18)
(25.7745 2.68029 5.77864e-18)
(25.7721 2.68442 3.40946e-18)
(25.7695 2.68882 -8.61651e-18)
(25.7669 2.69352 -1.22074e-17)
(25.7643 2.69851 1.06801e-18)
(25.7616 2.70383 -1.68928e-17)
(25.7589 2.70949 7.58555e-18)
(25.7562 2.71548 -1.54484e-17)
(25.7535 2.72186 1.45244e-17)
(25.7508 2.72863 -4.65222e-17)
(25.7481 2.73579 2.52826e-19)
(25.7456 2.74338 4.74005e-18)
(25.7431 2.75141 -3.84613e-17)
(25.7407 2.75987 -1.76985e-17)
(25.7384 2.7688 -2.97564e-17)
(25.7362 2.77818 -7.58963e-18)
(25.734 2.78802 -5.42023e-17)
(25.7319 2.79833 -4.33141e-17)
(25.7297 2.80909 5.18407e-17)
(25.7276 2.8203 3.86044e-17)
(25.7255 2.83198 -1.94943e-17)
(25.7234 2.8441 6.91804e-17)
(25.7215 2.85666 9.87113e-17)
(25.7198 2.86967 -1.31482e-17)
(25.7181 2.88308 3.29072e-17)
(25.7164 2.89687 -1.10081e-16)
(25.7146 2.911 -5.63677e-17)
(25.7125 2.92543 1.14787e-16)
(25.71 2.94011 -2.40501e-16)
(25.707 2.95504 -3.24467e-17)
(25.7037 2.97019 1.22861e-16)
(25.6998 2.98544 -1.07818e-16)
(25.696 2.99883 4.55479e-17)
(25.6926 3.01049 1.14633e-17)
(25.689 3.02305 -5.12502e-18)
(25.6852 3.03632 -1.37978e-16)
(25.6805 3.05043 -1.57762e-16)
(25.6736 3.06511 -1.00368e-16)
(25.6622 3.07979 -6.96299e-17)
(25.644 3.0959 0)
(25.6239 3.10587 2.38359e-16)
(25.6073 3.13982 -1.54935e-16)
(25.6402 3.10822 -1.90095e-16)
(25.6749 3.29467 1.27451e-16)
(25.8136 2.94833 1.39838e-16)
(25.8382 2.67112 -1.54206e-19)
(25.8379 2.67163 -2.82099e-19)
(25.8377 2.67185 3.44808e-19)
(25.8374 2.6723 -2.60354e-20)
(25.8371 2.67271 -5.45298e-20)
(25.8368 2.67318 -3.49844e-19)
(25.8364 2.67366 -2.64179e-19)
(25.836 2.67417 1.37072e-19)
(25.8355 2.67471 -3.17647e-19)
(25.8351 2.67529 -5.34377e-19)
(25.8346 2.67589 0)
(25.834 2.67653 3.58663e-19)
(25.8334 2.67722 4.46461e-19)
(25.8328 2.67794 1.71956e-19)
(25.8321 2.6787 1.65701e-19)
(25.8313 2.67953 5.76734e-19)
(25.8306 2.68039 -3.9219e-19)
(25.8297 2.68132 -4.1493e-19)
(25.8289 2.68231 9.99846e-20)
(25.8279 2.68335 1.11887e-18)
(25.827 2.68447 -2.7952e-18)
(25.8259 2.68565 -8.63799e-19)
(25.8249 2.68692 2.5375e-19)
(25.8237 2.68827 -5.30692e-19)
(25.8225 2.68971 -2.11022e-18)
(25.8213 2.69125 -1.68078e-18)
(25.82 2.69289 -2.05103e-18)
(25.8187 2.69463 9.45305e-19)
(25.8173 2.69651 -2.41841e-18)
(25.8158 2.6985 2.02291e-18)
(25.8143 2.70064 1.92935e-18)
(25.8127 2.70291 1.10545e-18)
(25.811 2.70536 -6.63557e-19)
(25.8093 2.70795 1.05791e-18)
(25.8075 2.71073 -8.44376e-19)
(25.8056 2.71369 -3.99968e-18)
(25.8037 2.71686 -7.50671e-18)
(25.8017 2.72024 -5.32299e-18)
(25.7997 2.72385 1.14891e-17)
(25.7975 2.72771 1.8727e-17)
(25.7953 2.73182 -1.08216e-17)
(25.7931 2.73621 1.10478e-17)
(25.7908 2.74089 1.15589e-18)
(25.7885 2.74587 7.80359e-18)
(25.7862 2.75119 -1.73101e-17)
(25.7838 2.75684 2.59437e-17)
(25.7815 2.76286 -8.66217e-18)
(25.7792 2.76926 2.65149e-18)
(25.7769 2.77605 3.75257e-17)
(25.7747 2.78325 -1.27387e-17)
(25.7725 2.79088 5.73771e-18)
(25.7703 2.79892 2.94697e-17)
(25.7681 2.80741 -2.79375e-17)
(25.7658 2.81635 4.73954e-17)
(25.7634 2.82573 -3.04893e-17)
(25.761 2.83557 1.1987e-17)
(25.7585 2.84588 5.10053e-17)
(25.7561 2.85666 -5.3926e-17)
(25.7537 2.8679 -7.07337e-17)
(25.7514 2.87963 -3.74113e-17)
(25.7491 2.89179 -9.83755e-17)
(25.7466 2.9044 4.74455e-17)
(25.7439 2.91741 2.32635e-17)
(25.7409 2.93079 -5.84692e-18)
(25.7374 2.94452 1.17813e-16)
(25.7334 2.95858 -9.74396e-18)
(25.729 2.97297 -1.84346e-16)
(25.724 2.98757 9.6343e-17)
(25.7193 3.00049 6.37806e-17)
(25.7151 3.01183 -3.27844e-18)
(25.7107 3.02412 3.77086e-17)
(25.706 3.03718 -2.86355e-18)
(25.7002 3.05115 2.92271e-17)
(25.6919 3.0657 -4.38524e-17)
(25.6787 3.08048 -1.44653e-18)
(25.659 3.09614 0)
(25.638 3.10803 -2.18584e-16)
(25.6235 3.13885 1.66895e-16)
(25.6578 3.116 3.83106e-17)
(25.6962 3.29187 -1.21552e-16)
(25.8265 2.95761 9.32025e-17)
(25.8548 2.7114 7.39317e-20)
(25.8545 2.7118 7.49298e-21)
(25.8543 2.71199 -1.68516e-19)
(25.8541 2.71236 -4.5719e-20)
(25.8539 2.71269 -2.87542e-20)
(25.8536 2.71307 -2.41791e-20)
(25.8533 2.71346 -4.6565e-20)
(25.853 2.71388 -1.93257e-19)
(25.8526 2.71433 1.82428e-19)
(25.8523 2.71479 4.44337e-19)
(25.8519 2.71529 0)
(25.8515 2.71582 -6.33828e-20)
(25.851 2.71638 2.52908e-19)
(25.8506 2.71697 -1.73963e-19)
(25.85 2.71761 6.36683e-19)
(25.8495 2.71828 -8.25039e-19)
(25.8489 2.71899 6.7953e-19)
(25.8483 2.71976 -1.46422e-19)
(25.8477 2.72056 7.04837e-20)
(25.847 2.72142 -3.52385e-19)
(25.8463 2.72234 1.57268e-18)
(25.8456 2.72332 1.48129e-18)
(25.8448 2.72436 1.40475e-19)
(25.844 2.72548 5.93317e-19)
(25.8431 2.72667 2.05553e-18)
(25.8422 2.72793 1.6875e-18)
(25.8412 2.72929 1.0856e-18)
(25.8402 2.73073 -4.14584e-18)
(25.8392 2.73228 4.1163e-18)
(25.8381 2.73393 1.78551e-18)
(25.837 2.73569 -3.66072e-18)
(25.8358 2.73757 2.07578e-19)
(25.8345 2.73959 -1.49252e-18)
(25.8332 2.74173 4.87492e-18)
(25.8318 2.74404 3.15587e-18)
(25.8304 2.7465 -5.81442e-19)
(25.8289 2.74913 -7.73271e-19)
(25.8273 2.75194 2.32823e-18)
(25.8257 2.75495 2.2149e-19)
(25.824 2.75817 -6.70916e-18)
(25.8223 2.7616 4.29072e-18)
(25.8205 2.76528 3.27668e-18)
(25.8186 2.7692 -6.57353e-18)
(25.8167 2.7734 -2.32413e-18)
(25.8148 2.77789 -3.16274e-18)
(25.8129 2.78267 -1.02346e-18)
(25.811 2.78778 -5.44414e-18)
(25.809 2.79323 -5.98455e-18)
(25.8071 2.79903 -2.28919e-17)
(25.8051 2.8052 2.06705e-17)
(25.8031 2.81176 2.98188e-17)
(25.8011 2.81872 -2.93553e-17)
(25.7989 2.82608 3.40889e-17)
(25.7967 2.83387 -2.3029e-17)
(25.7943 2.84209 2.54756e-17)
(25.7918 2.85076 -4.24796e-17)
(25.7892 2.85989 -3.34888e-17)
(25.7865 2.86949 3.33573e-17)
(25.7839 2.87957 1.19967e-17)
(25.7812 2.89016 -1.47398e-17)
(25.7785 2.90121 9.76477e-17)
(25.7755 2.91273 -5.41133e-18)
(25.7722 2.9247 8.49708e-18)
(25.7684 2.9371 2.52939e-17)
(25.7642 2.94991 8.43655e-19)
(25.7594 2.96315 9.85077e-17)
(25.7541 2.97678 1.52242e-16)
(25.7482 2.99074 -7.5565e-17)
(25.7428 3.00319 -4.94857e-18)
(25.738 3.0142 -1.3545e-17)
(25.7329 3.02619 8.37726e-18)
(25.7274 3.03903 8.11721e-18)
(25.7206 3.05281 4.05227e-17)
(25.7109 3.06723 4.18442e-17)
(25.696 3.08203 -2.63066e-17)
(25.6748 3.09735 0)
(25.6532 3.11097 -4.70533e-17)
(25.6412 3.13921 -1.6891e-16)
(25.6766 3.12451 9.17883e-17)
(25.7197 3.29111 1.65508e-16)
(25.8383 2.96924 -8.97496e-17)
(25.8699 2.74567 -7.44095e-20)
(25.8701 2.74554 7.89702e-20)
(25.8697 2.746 -1.94046e-21)
(25.8695 2.74617 -8.11863e-21)
(25.8694 2.74647 8.3303e-20)
(25.8692 2.74676 7.68204e-20)
(25.869 2.74707 9.9497e-20)
(25.8688 2.7474 9.03025e-20)
(25.8686 2.74775 -1.30088e-19)
(25.8683 2.74813 -1.32891e-19)
(25.8681 2.74852 -3.45188e-19)
(25.8678 2.74894 0)
(25.8675 2.74938 -6.44355e-21)
(25.8672 2.74985 -3.69541e-19)
(25.8669 2.75035 -5.28419e-19)
(25.8665 2.75088 -5.66469e-19)
(25.8662 2.75145 5.27909e-19)
(25.8658 2.75205 -2.99764e-19)
(25.8654 2.75269 5.83705e-19)
(25.8649 2.75337 3.37083e-20)
(25.8645 2.75409 3.56855e-20)
(25.864 2.75487 -6.97772e-19)
(25.8635 2.75569 -4.66989e-19)
(25.8629 2.75657 -1.51559e-18)
(25.8623 2.7575 -5.30234e-20)
(25.8617 2.7585 2.31359e-20)
(25.8611 2.75956 1.13246e-18)
(25.8604 2.76071 8.19361e-19)
(25.8597 2.76192 8.01927e-19)
(25.859 2.76322 -1.9543e-18)
(25.8582 2.7646 -1.71872e-19)
(25.8574 2.76609 2.88014e-18)
(25.8565 2.76767 -2.05021e-18)
(25.8556 2.76937 -3.97765e-19)
(25.8547 2.77117 -6.23976e-19)
(25.8537 2.77312 5.60112e-19)
(25.8526 2.77519 2.07337e-18)
(25.8515 2.77741 8.10342e-19)
(25.8503 2.77979 9.94412e-19)
(25.8491 2.78233 -1.39492e-18)
(25.8478 2.78505 3.68665e-19)
(25.8464 2.78797 1.56663e-18)
(25.8451 2.79109 -4.66611e-18)
(25.8436 2.79444 7.60769e-18)
(25.8422 2.79802 1.48098e-18)
(25.8407 2.80185 3.80836e-18)
(25.8391 2.80595 -2.62237e-18)
(25.8376 2.81034 -1.00659e-17)
(25.836 2.81504 -1.08879e-17)
(25.8345 2.82005 7.12553e-18)
(25.8328 2.8254 -8.39455e-18)
(25.8311 2.8311 -1.79208e-17)
(25.8293 2.83717 7.77241e-18)
(25.8273 2.84361 -7.00657e-18)
(25.8252 2.85046 4.00492e-18)
(25.8228 2.85771 -2.30403e-17)
(25.8204 2.86539 4.03016e-17)
(25.8178 2.87353 -9.06142e-18)
(25.8152 2.88214 -1.92522e-17)
(25.8125 2.89123 -2.9096e-17)
(25.8096 2.90082 -4.70551e-19)
(25.8066 2.91089 -2.54067e-17)
(25.8033 2.92146 8.2436e-18)
(25.7996 2.9325 -3.5477e-17)
(25.7953 2.94402 -3.04637e-17)
(25.7905 2.956 8.75524e-18)
(25.7851 2.96847 -3.04062e-17)
(25.7791 2.98141 -7.27885e-17)
(25.7726 2.99477 3.8051e-17)
(25.7665 3.00677 -4.2766e-17)
(25.7613 3.01745 9.0613e-18)
(25.7556 3.02916 -4.67588e-17)
(25.7494 3.04178 1.37348e-17)
(25.7416 3.05537 -6.22896e-17)
(25.7306 3.06964 -4.93682e-17)
(25.714 3.08443 2.40097e-17)
(25.6916 3.09955 0)
(25.6697 3.11478 6.31221e-17)
(25.6607 3.14102 -4.38343e-17)
(25.6974 3.13408 1.26645e-16)
(25.7446 3.29223 -9.19932e-17)
(25.8514 2.98386 -1.11318e-16)
(25.8838 2.77455 -1.22725e-19)
(25.884 2.77441 -1.50033e-19)
(25.8837 2.77484 2.75678e-20)
(25.8836 2.77499 1.18934e-20)
(25.8835 2.77525 3.31817e-20)
(25.8834 2.7755 3.08767e-20)
(25.8833 2.77577 7.08707e-20)
(25.8832 2.77606 1.75664e-21)
(25.883 2.77636 1.22434e-19)
(25.8829 2.77668 -2.19573e-20)
(25.8828 2.77703 7.61377e-21)
(25.8826 2.77739 0)
(25.8824 2.77777 5.22202e-20)
(25.8822 2.77818 2.55701e-19)
(25.882 2.77862 1.54703e-19)
(25.8818 2.77908 1.24299e-19)
(25.8816 2.77957 3.47809e-20)
(25.8814 2.78009 -9.41661e-20)
(25.8811 2.78065 -3.49681e-19)
(25.8809 2.78123 2.54516e-21)
(25.8806 2.78186 1.54343e-19)
(25.8803 2.78253 -2.49091e-19)
(25.88 2.78324 1.22088e-20)
(25.8797 2.784 -1.05206e-19)
(25.8793 2.78481 -3.63083e-19)
(25.8789 2.78567 -3.5879e-19)
(25.8785 2.78659 -1.00068e-18)
(25.8781 2.78757 -7.01254e-19)
(25.8777 2.78862 1.78928e-18)
(25.8772 2.78974 4.57396e-19)
(25.8767 2.79094 -1.60386e-18)
(25.8762 2.79221 -9.32859e-19)
(25.8756 2.79358 2.3396e-18)
(25.875 2.79504 -7.22709e-19)
(25.8744 2.79659 9.74738e-19)
(25.8737 2.79826 -9.02837e-19)
(25.873 2.80005 -8.65644e-19)
(25.8722 2.80196 3.36124e-18)
(25.8714 2.80401 4.69878e-19)
(25.8705 2.8062 -2.51324e-18)
(25.8696 2.80855 -2.64629e-18)
(25.8687 2.81107 2.49263e-18)
(25.8677 2.81377 1.47535e-18)
(25.8666 2.81666 -3.56172e-18)
(25.8656 2.81977 5.77147e-18)
(25.8645 2.8231 -5.69322e-18)
(25.8634 2.82667 -3.05046e-18)
(25.8623 2.8305 -1.22212e-18)
(25.8611 2.8346 5.58685e-19)
(25.8598 2.83899 -2.83317e-18)
(25.8585 2.84369 -1.03062e-17)
(25.8571 2.8487 1.47969e-17)
(25.8555 2.85406 -7.05899e-18)
(25.8538 2.85976 -4.08088e-18)
(25.8519 2.86583 -1.06021e-17)
(25.8497 2.8723 6.91428e-18)
(25.8474 2.87918 -1.8479e-17)
(25.845 2.8865 5.45865e-18)
(25.8425 2.89428 1.14662e-17)
(25.8398 2.90254 2.10664e-17)
(25.8369 2.91129 -4.83229e-19)
(25.8338 2.92053 -8.80961e-18)
(25.8303 2.93027 -3.03501e-18)
(25.8262 2.94051 2.83231e-17)
(25.8216 2.95126 4.61521e-17)
(25.8164 2.96252 -1.0028e-17)
(25.8106 2.97431 -5.23491e-19)
(25.8041 2.98662 -8.48515e-18)
(25.7971 2.99943 -4.54974e-17)
(25.7906 3.01103 1.82427e-17)
(25.785 3.02143 -1.23714e-18)
(25.7789 3.03288 3.89319e-18)
(25.7721 3.04528 7.07893e-17)
(25.7634 3.05869 3.19182e-17)
(25.751 3.07285 2.07893e-17)
(25.7329 3.08761 2.67318e-17)
(25.7095 3.10269 0)
(25.6879 3.11945 6.52496e-17)
(25.6822 3.14425 -3.23392e-18)
(25.7207 3.14486 -3.24701e-17)
(25.7714 3.29512 -4.22522e-17)
(25.866 3.00187 -9.49722e-17)
(25.898 2.79841 -1.83913e-20)
(25.898 2.79827 3.34881e-21)
(25.8979 2.79866 -1.02293e-19)
(25.8979 2.7988 4.1984e-20)
(25.8978 2.79902 5.81606e-21)
(25.8978 2.79924 -8.363e-20)
(25.8978 2.79948 -1.05961e-19)
(25.8977 2.79973 -8.5471e-20)
(25.8977 2.8 -5.90271e-20)
(25.8976 2.80029 3.54229e-20)
(25.8975 2.80059 2.75805e-20)
(25.8975 2.80091 0)
(25.8974 2.80125 -1.59782e-19)
(25.8973 2.80161 -5.77016e-20)
(25.8972 2.80199 2.56977e-19)
(25.8971 2.8024 7.83508e-20)
(25.8971 2.80283 2.11189e-19)
(25.897 2.80329 2.4978e-19)
(25.8968 2.80378 7.44225e-20)
(25.8967 2.8043 -2.63314e-19)
(25.8966 2.80486 -1.35753e-19)
(25.8965 2.80545 3.00946e-19)
(25.8963 2.80608 1.86336e-19)
(25.8962 2.80675 3.08887e-19)
(25.896 2.80746 -2.29036e-20)
(25.8958 2.80823 -2.17297e-19)
(25.8957 2.80904 -8.25853e-19)
(25.8954 2.80991 5.62195e-19)
(25.8952 2.81084 -8.0296e-19)
(25.895 2.81183 3.40573e-19)
(25.8947 2.81289 -9.18068e-21)
(25.8944 2.81401 8.99538e-19)
(25.8941 2.81522 -8.63902e-19)
(25.8938 2.81651 1.39733e-18)
(25.8934 2.81789 -2.7316e-19)
(25.893 2.81937 -5.73397e-19)
(25.8926 2.82096 9.2671e-19)
(25.8921 2.82264 -4.6475e-19)
(25.8916 2.82446 1.17463e-18)
(25.8911 2.8264 1.25829e-18)
(25.8905 2.82849 1.45552e-18)
(25.8899 2.83072 -5.05745e-19)
(25.8893 2.83312 -1.28271e-18)
(25.8886 2.83568 -1.18071e-18)