/*--------------------------------*- C++ -*----------------------------------*\
| =========                 |                                                 |
| \\      /  F ield         | OpenFOAM: The Open Source CFD Toolbox           |
|  \\    /   O peration     | Version:  2506                                  |
|   \\  /    A nd           | Website:  www.openfoam.com                      |
|    \\/     M anipulation  |                                                 |
\*---------------------------------------------------------------------------*/
FoamFile
{
    version     2.0;
    format      ascii;
    arch        "LSB;label=32;scalar=64";
    class       pointScalarField;
    location    "0.8";
    object      streamFunction;
}
// * * * * * * * * * * * * * * * * * * * * * * * * * * * * * * * * * * * * * //

dimensions      [0 3 -1 0 0 0 0];

internalField   nonuniform List<scalar> 
882
(
0
0
0
0
0
0
0
0
0
0
0
0
0
0
0
0
0
0
0
0
0
0
1.12619e-06
-2.75119e-06
-1.15531e-05
-2.35655e-05
-3.71874e-05
-5.11107e-05
-6.42197e-05
-7.5435e-05
-8.3624e-05
-8.7712e-05
-8.6821e-05
-8.0423e-05
-6.8838e-05
-5.3236e-05
-3.56929e-05
-1.89596e-05
-5.827e-06
1.55459e-06
2.70358e-06
0
0
-2.8953e-06
-2.17766e-05
-5.51487e-05
-9.81631e-05
-0.00014598
-0.000194311
-0.000239277
-0.000277143
-0.000304205
-0.000317057
-0.000313095
-0.000291074
-0.00025216
-0.000200162
-0.000141561
-8.4719e-05
-3.81625e-05
-8.4402e-06
2.40308e-06
0
0
-1.31195e-05
-5.91752e-05
-0.000132375
-0.000223269
-0.000322611
-0.000422036
-0.000513832
-0.00059057
-0.000645018
-0.000670646
-0.00066255
-0.000618551
-0.000540839
-0.000436582
-0.000317979
-0.00020089
-0.000101819
-3.38936e-05
-2.3554e-06
0
0
-2.91856e-05
-0.000114244
-0.000241863
-0.000396252
-0.000562717
-0.000728062
-0.000880081
-0.001007
-0.00109743
-0.00114104
-0.00113
-0.00106063
-0.000935743
-0.000765906
-0.000569724
-0.00037214
-0.000200096
-7.62313e-05
-1.17516e-05
0
0
-5.05078e-05
-0.000185499
-0.000381066
-0.000613356
-0.000861318
-0.00110642
-0.00133162
-0.00152044
-0.00165683
-0.00172606
-0.00171654
-0.00162194
-0.0014447
-0.00119804
-0.000907043
-0.000607146
-0.000338692
-0.000137929
-2.61367e-05
0
0
-7.64035e-05
-0.00027098
-0.000546548
-0.000869692
-0.00121229
-0.00155022
-0.00186148
-0.00212479
-0.00231914
-0.00242468
-0.00242518
-0.00230983
-0.00207915
-0.00174728
-0.00134501
-0.000919224
-0.000526986
-0.000223658
-4.6629e-05
0
0
-0.000106045
-0.000368201
-0.000733868
-0.00115888
-0.00160755
-0.00205014
-0.00245988
-0.0028108
-0.00307681
-0.00323248
-0.00325528
-0.00312896
-0.00284912
-0.00242835
-0.00190107
-0.00132538
-0.000778161
-0.000340717
-7.5301e-05
0
0
-0.000138417
-0.00047408
-0.000937412
-0.00147262
-0.00203624
-0.00259308
-0.00311202
-0.00356281
-0.0039145
-0.00413578
-0.00419711
-0.00407468
-0.00375669
-0.00325047
-0.00259042
-0.00184361
-0.00110826
-0.000499057
-0.000115308
0
0
-0.000172325
-0.000584988
-0.00115042
-0.00180062
-0.00248426
-0.00316111
-0.00379635
-0.00435623
-0.00480556
-0.00510747
-0.00522518
-0.00512596
-0.00478808
-0.00420951
-0.00341922
-0.00248805
-0.00153387
-0.000710873
-0.000171029
0
0
-0.000206531
-0.000697066
-0.00136541
-0.00213092
-0.00293449
-0.00373142
-0.00448409
-0.00515637
-0.00571007
-0.00610383
-0.0062943
-0.00623961
-0.00590651
-0.00527968
-0.0043761
-0.00326199
-0.00206799
-0.000989464
-0.000248232
0
0
-0.000240032
-0.00080693
-0.00157519
-0.00245112
-0.00336805
-0.00427755
-0.00514041
-0.00591964
-0.00657577
-0.00706493
-0.00733908
-0.00734829
-0.0070481
-0.0064071
-0.00542392
-0.0041493
-0.00271368
-0.00134682
-0.000354175
0
0
-0.000272578
-0.00091286
-0.00177458
-0.00275038
-0.00376656
-0.00477207
-0.00572764
-0.00659724
-0.00734242
-0.00791937
-0.00827823
-0.0083644
-0.00812339
-0.00750816
-0.00649448
-0.00510649
-0.00345619
-0.00178935
-0.000497399
0
0
-0.000305523
-0.00101659
-0.00196265
-0.00302203
-0.00411511
-0.00519009
-0.00620961
-0.00714082
-0.00794874
-0.00859265
-0.00902442
-0.0091887
-0.00902535
-0.00847464
-0.00748905
-0.00605802
-0.00425499
-0.00231146
-0.000686643
0
0
-0.000343268
-0.00112584
-0.00214555
-0.00326612
-0.00440482
-0.00551215
-0.00655539
-0.00750729
-0.00833889
-0.00901535
-0.00949387
-0.00972271
-0.00964176
-0.00918465
-0.00828537
-0.00689703
-0.00503802
-0.00288757
-0.000927866
0
0
-0.000395753
-0.00125752
-0.00233854
-0.00349014
-0.00463246
-0.00572337
-0.00673839
-0.00765857
-0.00846313
-0.00912552
-0.00961107
-0.00987563
-0.00986492
-0.00951384
-0.00874763
-0.00749037
-0.00569893
-0.00346307
-0.00121796
0
0
-0.000482381
-0.00144027
-0.00256354
-0.00370183
-0.00479003
-0.00580101
-0.006723
-0.00754779
-0.00826454
-0.0088564
-0.00929867
-0.00955763
-0.00958959
-0.00933836
-0.00873275
-0.00768355
-0.00609559
-0.00394424
-0.00153428
0
0
-0.000635863
-0.00170646
-0.00282583
-0.00387504
-0.00482455
-0.00567173
-0.00642139
-0.00707752
-0.0076394
-0.00809989
-0.0084447
-0.00865179
-0.00869103
-0.00852071
-0.00808444
-0.00729946
-0.0060433
-0.00418493
-0.00182109
0
0
-0.000894629
-0.00202985
-0.00301491
-0.00383654
-0.0045251
-0.00510583
-0.00559809
-0.00601499
-0.00636296
-0.00664215
-0.00684699
-0.00696646
-0.00698458
-0.0068763
-0.00660772
-0.00612086
-0.00530503
-0.00396068
-0.00194173
0
0
-0.00115733
-0.00203638
-0.00259203
-0.00299433
-0.0033023
-0.00354274
-0.00373389
-0.00388761
-0.00401022
-0.00410398
-0.00416812
-0.00419969
-0.00419445
-0.00414132
-0.00403102
-0.00383996
-0.00350852
-0.00286846
-0.0016236
0
0
0
0
0
0
0
0
0
0
0
0
0
0
0
0
0
0
0
0
0
0
0
0
0
0
0
0
0
0
0
0
0
0
0
0
0
0
0
0
0
0
0
0
1.12619e-06
-2.75119e-06
-1.15531e-05
-2.35655e-05
-3.71874e-05
-5.11107e-05
-6.42197e-05
-7.5435e-05
-8.3624e-05
-8.7712e-05
-8.6821e-05
-8.0423e-05
-6.8838e-05
-5.3236e-05
-3.56929e-05
-1.89596e-05
-5.827e-06
1.55459e-06
2.70358e-06
0
0
-2.8953e-06
-2.17766e-05
-5.51487e-05
-9.81631e-05
-0.00014598
-0.000194311
-0.000239277
-0.000277143
-0.000304205
-0.000317057
-0.000313095
-0.000291074
-0.00025216
-0.000200162
-0.000141561
-8.4719e-05
-3.81625e-05
-8.4402e-06
2.40308e-06
0
0
-1.31195e-05
-5.91752e-05
-0.000132375
-0.000223269
-0.000322611
-0.000422036
-0.000513832
-0.00059057
-0.000645018
-0.000670646
-0.00066255
-0.000618551
-0.000540839
-0.000436582
-0.000317979
-0.00020089
-0.000101819
-3.38936e-05
-2.3554e-06
0
0
-2.91856e-05
-0.000114244
-0.000241863
-0.000396252
-0.000562717
-0.000728062
-0.000880081
-0.001007
-0.00109743
-0.00114104
-0.00113
-0.00106063
-0.000935743
-0.000765906
-0.000569724
-0.00037214
-0.000200096
-7.62313e-05
-1.17516e-05
0
0
-5.05078e-05
-0.000185499
-0.000381066
-0.000613356
-0.000861318
-0.00110642
-0.00133162
-0.00152044
-0.00165683
-0.00172606
-0.00171654
-0.00162194
-0.0014447
-0.00119804
-0.000907043
-0.000607146
-0.000338692
-0.000137929
-2.61367e-05
0
0
-7.64035e-05
-0.00027098
-0.000546548
-0.000869692
-0.00121229
-0.00155022
-0.00186148
-0.00212479
-0.00231914
-0.00242468
-0.00242518
-0.00230983
-0.00207915
-0.00174728
-0.00134501
-0.000919224
-0.000526986
-0.000223658
-4.6629e-05
0
0
-0.000106045
-0.000368201
-0.000733868
-0.00115888
-0.00160755
-0.00205014
-0.00245988
-0.0028108
-0.00307681
-0.00323248
-0.00325528
-0.00312896
-0.00284912
-0.00242835
-0.00190107
-0.00132538
-0.000778161
-0.000340717
-7.5301e-05
0
0
-0.000138417
-0.00047408
-0.000937412
-0.00147262
-0.00203624
-0.00259308
-0.00311202
-0.00356281
-0.0039145
-0.00413578
-0.00419711
-0.00407468
-0.00375669
-0.00325047
-0.00259042
-0.00184361
-0.00110826
-0.000499057
-0.000115308
0
0
-0.000172325
-0.000584988
-0.00115042
-0.00180062
-0.00248426
-0.00316111
-0.00379635
-0.00435623
-0.00480556
-0.00510747
-0.00522518
-0.00512596
-0.00478808
-0.00420951
-0.00341922
-0.00248805
-0.00153387
-0.000710873
-0.000171029
0
0
-0.000206531
-0.000697066
-0.00136541
-0.00213092
-0.00293449
-0.00373142
-0.00448409
-0.00515637
-0.00571007
-0.00610383
-0.0062943
-0.00623961
-0.00590651
-0.00527968
-0.0043761
-0.00326199
-0.00206799
-0.000989464
-0.000248232
0
0
-0.000240032
-0.00080693
-0.00157519
-0.00245112
-0.00336805
-0.00427755
-0.00514041
-0.00591964
-0.00657577
-0.00706493
-0.00733908
-0.00734829
-0.0070481
-0.0064071
-0.00542392
-0.0041493
-0.00271368
-0.00134682
-0.000354175
0
0
-0.000272578
-0.00091286
-0.00177458
-0.00275038
-0.00376656
-0.00477207
-0.00572764
-0.00659724
-0.00734242
-0.00791937
-0.00827823
-0.0083644
-0.00812339
-0.00750816
-0.00649448
-0.00510649
-0.00345619
-0.00178935
-0.000497399
0
0
-0.000305523
-0.00101659
-0.00196265
-0.00302203
-0.00411511
-0.00519009
-0.00620961
-0.00714082
-0.00794874
-0.00859265
-0.00902442
-0.0091887
-0.00902535
-0.00847464
-0.00748905
-0.00605802
-0.00425499
-0.00231146
-0.000686643
0
0
-0.000343268
-0.00112584
-0.00214555
-0.00326612
-0.00440482
-0.00551215
-0.00655539
-0.00750729
-0.00833889
-0.00901535
-0.00949387
-0.00972271
-0.00964176
-0.00918465
-0.00828537
-0.00689703
-0.00503802
-0.00288757
-0.000927866
0
0
-0.000395753
-0.00125752
-0.00233854
-0.00349014
-0.00463246
-0.00572337
-0.00673839
-0.00765857
-0.00846313
-0.00912552
-0.00961107
-0.00987563
-0.00986492
-0.00951384
-0.00874763
-0.00749037
-0.00569893
-0.00346307
-0.00121796
0
0
-0.000482381
-0.00144027
-0.00256354
-0.00370183
-0.00479003
-0.00580101
-0.006723
-0.00754779
-0.00826454
-0.0088564
-0.00929867
-0.00955763
-0.00958959
-0.00933836
-0.00873275
-0.00768355
-0.00609559
-0.00394424
-0.00153428
0
0
-0.000635863
-0.00170646
-0.00282583
-0.00387504
-0.00482455
-0.00567173
-0.00642139
-0.00707752
-0.0076394
-0.00809989
-0.0084447
-0.00865179
-0.00869103
-0.00852071
-0.00808444
-0.00729946
-0.0060433
-0.00418493
-0.00182109
0
0
-0.000894629
-0.00202985
-0.00301491
-0.00383654
-0.0045251
-0.00510583
-0.00559809
-0.00601499
-0.00636296
-0.00664215
-0.00684699
-0.00696646
-0.00698458
-0.0068763
-0.00660772
-0.00612086
-0.00530503
-0.00396068
-0.00194173
0
0
-0.00115733
-0.00203638
-0.00259203
-0.00299433
-0.0033023
-0.00354274
-0.00373389
-0.00388761
-0.00401022
-0.00410398
-0.00416812
-0.00419969
-0.00419445
-0.00414132
-0.00403102
-0.00383996
-0.00350852
-0.00286846
-0.0016236
0
0
0
0
0
0
0
0
0
0
0
0
0
0
0
0
0
0
0
0
0
0
)
;

boundaryField
{
    movingWall
    {
        type            calculated;
    }
    fixedWalls
    {
        type            calculated;
    }
    frontAndBack
    {
        type            empty;
    }
}


// ************************************************************************* //
