# static(p)_coeff  POINT_DATA 156
# x y z  static(p)_coeff
-17.5492 0.306481 0.05 -0.0785662
-17.5492 0.306481 0 -0.0785662
-17.5472 0.397851 0 -0.286335
-17.5472 0.397851 0.05 -0.286335
-17.5391 0.49775 0 -0.514761
-17.5391 0.49775 0.05 -0.514761
-17.5189 0.60624 0 -0.760881
-17.5189 0.60624 0.05 -0.760881
-17.4861 0.723342 0 -0.99647
-17.4861 0.723342 0.05 -0.99647
-17.44 0.848679 0 -1.22416
-17.44 0.848679 0.05 -1.22416
-17.377 0.981445 0 -1.44174
-17.377 0.981445 0.05 -1.44174
-17.2959 1.12134 0 -1.63016
-17.2959 1.12134 0.05 -1.63016
-17.1951 1.26784 0 -1.79073
-17.1951 1.26784 0.05 -1.79073
-17.0722 1.42 0 -1.92408
-17.0722 1.42 0.05 -1.92408
-16.9255 1.57744 0 -2.02726
-16.9255 1.57744 0.05 -2.02726
-16.7528 1.73942 0 -2.10478
-16.7528 1.73942 0.05 -2.10478
-16.5519 1.90501 0 -2.1605
-16.5519 1.90501 0.05 -2.1605
-16.3202 2.07341 0 -2.19722
-16.3202 2.07341 0.05 -2.19722
-16.0549 2.24347 0 -2.21629
-16.0549 2.24347 0.05 -2.21629
-15.753 2.41374 0 -2.21709
-15.753 2.41374 0.05 -2.21709
-15.4112 2.58276 0 -2.19987
-15.4112 2.58276 0.05 -2.19987
-15.0259 2.74838 0 -2.16457
-15.0259 2.74838 0.05 -2.16457
-14.5933 2.90861 0 -2.11157
-14.5933 2.90861 0.05 -2.11157
-14.1092 3.06066 0 -2.04317
-14.1092 3.06066 0.05 -2.04317
-13.5691 3.20201 0 -1.96419
-13.5691 3.20201 0.05 -1.96419
-12.9684 3.32943 0 -1.88417
-12.9684 3.32943 0.05 -1.88417
-12.3022 3.44054 0 -1.81145
-12.3022 3.44054 0.05 -1.81145
-11.5649 3.53289 0 -1.73847
-11.5649 3.53289 0.05 -1.73847
-10.7508 3.60555 0 -1.64001
-10.7508 3.60555 0.05 -1.64001
-9.85332 3.65883 0 -1.50569
-9.85332 3.65883 0.05 -1.50569
-8.86484 3.69086 0 -1.35275
-8.86484 3.69086 0.05 -1.35275
-7.77697 3.69778 0 -1.20734
-7.77697 3.69778 0.05 -1.20734
-6.58048 3.6759 0 -1.08139
-6.58048 3.6759 0.05 -1.08139
-5.26526 3.62108 0 -0.96857
-5.26526 3.62108 0.05 -0.96857
-3.82021 3.52882 0 -0.859961
-3.82021 3.52882 0.05 -0.859961
-2.23308 3.39439 0 -0.752475
-2.23308 3.39439 0.05 -0.752475
-0.490443 3.2127 0 -0.64603
-0.490443 3.2127 0.05 -0.64603
1.42254 2.97825 0 -0.540173
1.42254 2.97825 0.05 -0.540173
3.5222 2.68501 0 -0.433764
3.5222 2.68501 0.05 -0.433764
5.82644 2.32599 0 -0.324724
5.82644 2.32599 0.05 -0.324724
8.3548 1.89256 0 -0.212212
8.3548 1.89256 0.05 -0.212212
11.1283 1.37286 0 -0.0896784
11.1283 1.37286 0.05 -0.0896784
14.1695 0.751658 0 0.0258821
14.1695 0.751658 0.05 0.0258821
17.5 -5.0487e-06 0 0.11689
17.5 -5.0487e-06 0.05 0.11689
-17.5422 0.216644 0.05 0.119159
-17.5422 0.216644 0 0.119159
-17.529 0.118651 0.05 0.317433
-17.529 0.118651 0 0.317433
-17.5035 0.0128145 0.05 0.515925
-17.5035 0.0128145 0 0.515925
-17.4639 -0.100298 0.05 0.694062
-17.4639 -0.100298 0 0.694062
-17.4081 -0.21963 0.05 0.838668
-17.4081 -0.21963 0 0.838668
-17.3329 -0.343474 0.05 0.93836
-17.3329 -0.343474 0 0.93836
-17.2353 -0.469453 0.05 0.988298
-17.2353 -0.469453 0 0.988298
-17.1135 -0.595699 0.05 0.997743
-17.1135 -0.595699 0 0.997743
-16.967 -0.721197 0.05 0.975851
-16.967 -0.721197 0 0.975851
-16.7942 -0.84439 0.05 0.926254
-16.7942 -0.84439 0 0.926254
-16.5941 -0.964642 0.05 0.860531
-16.5941 -0.964642 0 0.860531
-16.3659 -1.08228 0.05 0.790925
-16.3659 -1.08228 0 0.790925
-16.1079 -1.19749 0.05 0.722363
-16.1079 -1.19749 0 0.722363
-15.8184 -1.31053 0.05 0.65696
-15.8184 -1.31053 0 0.65696
-15.4954 -1.42239 0.05 0.595515
-15.4954 -1.42239 0 0.595515
-15.1361 -1.53339 0.05 0.537892
-15.1361 -1.53339 0 0.537892
-14.7376 -1.64422 0.05 0.483578
-14.7376 -1.64422 0 0.483578
-14.2963 -1.75519 0.05 0.431514
-14.2963 -1.75519 0 0.431514
-13.8084 -1.86663 0.05 0.380607
-13.8084 -1.86663 0 0.380607
-13.2692 -1.97821 0.05 0.330005
-13.2692 -1.97821 0 0.330005
-12.6739 -2.08937 0.05 0.279208
-12.6739 -2.08937 0 0.279208
-12.0167 -2.19857 0.05 0.227854
-12.0167 -2.19857 0 0.227854
-11.2914 -2.30322 0.05 0.176672
-11.2914 -2.30322 0 0.176672
-10.491 -2.39854 0.05 0.128932
-10.491 -2.39854 0 0.128932
-9.60806 -2.48004 0.05 0.0889898
-9.60806 -2.48004 0 0.0889898
-8.63486 -2.54503 0.05 0.0569654
-8.63486 -2.54503 0 0.0569654
-7.56293 -2.59043 0.05 0.0308096
-7.56293 -2.59043 0 0.0308096
-6.38295 -2.61298 0.05 0.0103361
-6.38295 -2.61298 0 0.0103361
-5.08474 -2.60901 0.05 -0.00421688
-5.08474 -2.60901 0 -0.00421688
-3.65712 -2.57462 0.05 -0.0132526
-3.65712 -2.57462 0 -0.0132526
-2.08779 -2.50566 0.05 -0.0173644
-2.08779 -2.50566 0 -0.0173644
-0.363235 -2.39771 0.05 -0.0168985
-0.363235 -2.39771 0 -0.0168985
1.53142 -2.24595 0.05 -0.0119917
1.53142 -2.24595 0 -0.0119917
3.61256 -2.0451 0.05 -0.00264124
3.61256 -2.0451 0 -0.00264124
5.89814 -1.78898 0.05 0.0116643
5.89814 -1.78898 0 0.0116643
8.40781 -1.46986 0.05 0.0322813
8.40781 -1.46986 0 0.0322813
11.1628 -1.07688 0.05 0.0646681
11.1628 -1.07688 0 0.0646681
14.1859 -0.596043 0.05 0.119609
14.1859 -0.596043 0 0.119609
