/*--------------------------------*- C++ -*----------------------------------*\
| =========                 |                                                 |
| \\      /  F ield         | OpenFOAM: The Open Source CFD Toolbox           |
|  \\    /   O peration     | Version:  2506                                  |
|   \\  /    A nd           | Website:  www.openfoam.com                      |
|    \\/     M anipulation  |                                                 |
\*---------------------------------------------------------------------------*/
FoamFile
{
    version     2.0;
    format      ascii;
    arch        "LSB;label=32;scalar=64";
    class       pointScalarField;
    location    "0.2";
    object      streamFunction;
}
// * * * * * * * * * * * * * * * * * * * * * * * * * * * * * * * * * * * * * //

dimensions      [0 3 -1 0 0 0 0];

internalField   nonuniform List<scalar> 
882
(
0
0
0
0
0
0
0
0
0
0
0
0
0
0
0
0
0
0
0
0
0
0
1.42865e-06
-2.2236e-06
-1.14241e-05
-2.45397e-05
-3.95975e-05
-5.4706e-05
-6.82937e-05
-7.9032e-05
-8.59981e-05
-8.8533e-05
-8.6391e-05
-7.97118e-05
-6.89953e-05
-5.5182e-05
-3.9685e-05
-2.42642e-05
-1.09773e-05
-1.8434e-06
1.56795e-06
0
0
-1.99094e-06
-2.02535e-05
-5.48058e-05
-0.000100953
-0.000152774
-0.000204372
-0.000250557
-0.000287004
-0.000310538
-0.000319048
-0.000311694
-0.000288937
-0.000252552
-0.00020573
-0.000153051
-0.000100189
-5.35023e-05
-1.91068e-05
-1.51143e-06
0
0
-1.12092e-05
-5.59372e-05
-0.000131229
-0.000227748
-0.000334168
-0.000439179
-0.000532684
-0.000606267
-0.000653659
-0.000670756
-0.000655913
-0.000610034
-0.00053665
-0.000442017
-0.000335011
-0.000226588
-0.000128925
-5.37901e-05
-1.02415e-05
0
0
-2.57232e-05
-0.00010846
-0.000239345
-0.000402425
-0.000579498
-0.000752687
-0.00090606
-0.00102639
-0.00110377
-0.00113176
-0.00110776
-0.00103314
-0.00091344
-0.000758458
-0.000582103
-0.000401627
-0.000236334
-0.000105283
-2.41671e-05
0
0
-4.50753e-05
-0.000176931
-0.000377851
-0.000623062
-0.000885925
-0.00114092
-0.00136553
-0.00154125
-0.00165421
-0.00169541
-0.00166113
-0.00155319
-0.00137916
-0.00115261
-0.000892963
-0.000624597
-0.000375247
-0.000173108
-4.29364e-05
0
0
-6.90599e-05
-0.000260935
-0.000546121
-0.000888677
-0.00125189
-0.00160154
-0.00190799
-0.00214711
-0.00230094
-0.0023578
-0.00231276
-0.00216788
-0.00193264
-0.00162436
-0.0012682
-0.000896362
-0.000546348
-0.000257547
-6.65463e-05
0
0
-9.77256e-05
-0.000360615
-0.000744275
-0.00119909
-0.00167657
-0.00213288
-0.00253084
-0.00284065
-0.0030403
-0.00311547
-0.00305989
-0.00287562
-0.00257368
-0.00217479
-0.0017098
-0.00121922
-0.000751594
-0.000359776
-9.53668e-05
0
0
-0.000131352
-0.000476629
-0.000973033
-0.00155452
-0.00215914
-0.00273268
-0.00323032
-0.00361686
-0.00386659
-0.00396278
-0.00389774
-0.00367317
-0.00330101
-0.00280468
-0.00222018
-0.00159641
-0.000994042
-0.00048183
-0.000130131
0
0
-0.000170443
-0.000610103
-0.0012335
-0.00195508
-0.00269777
-0.00339658
-0.00399948
-0.00446662
-0.00476934
-0.00488897
-0.0048165
-0.00455282
-0.00410986
-0.00351251
-0.00280075
-0.00203127
-0.00127749
-0.000626525
-0.000171937
0
0
-0.000215787
-0.000762667
-0.00152698
-0.00240007
-0.00328838
-0.00411634
-0.00482582
-0.00537379
-0.00572999
-0.0058747
-0.00579781
-0.00549892
-0.00498874
-0.00429178
-0.00344995
-0.00252605
-0.00160599
-0.000797386
-0.000222293
0
0
-0.000268623
-0.000936639
-0.00185479
-0.00288725
-0.00392311
-0.00487745
-0.00568828
-0.00631179
-0.00671812
-0.00688788
-0.00681042
-0.00648358
-0.00591536
-0.00512743
-0.00416043
-0.00308013
-0.00198307
-0.000998604
-0.000283262
0
0
-0.000330994
-0.00113539
-0.00221801
-0.00341149
-0.00458792
-0.00565597
-0.00655347
-0.00723931
-0.00768687
-0.00787895
-0.00780523
-0.00746152
-0.00685152
-0.00599105
-0.00491511
-0.00368732
-0.00241051
-0.00123498
-0.000357742
0
0
-0.00040641
-0.00136385
-0.00261676
-0.00396247
-0.00525898
-0.00641394
-0.0073706
-0.00809522
-0.00856779
-0.00877561
-0.00870981
-0.00836423
-0.0077369
-0.00683463
-0.00568148
-0.00433157
-0.00288617
-0.00151167
-0.00044999
0
0
-0.00050094
-0.00162873
-0.00304792
-0.00451989
-0.00589616
-0.00709241
-0.00806481
-0.00879236
-0.00926525
-0.00947744
-0.00942285
-0.00909377
-0.00848191
-0.00758254
-0.00640337
-0.00497992
-0.00339956
-0.00183319
-0.000566435
0
0
-0.000624681
-0.00193709
-0.00349874
-0.00504342
-0.0064318
-0.00760074
-0.00852807
-0.00921048
-0.00965089
-0.00985135
-0.00980956
-0.00951722
-0.00896028
-0.00812179
-0.00698933
-0.00557065
-0.00392289
-0.00219984
-0.00071645
0
0
-0.00079207
-0.00228846
-0.00393033
-0.00545239
-0.00675122
-0.00780075
-0.00860775
-0.00918873
-0.00955926
-0.00972899
-0.00969956
-0.0094633
-0.00900274
-0.00829119
-0.00729669
-0.00599382
-0.00439251
-0.00259659
-0.00091095
0
0
-0.00101515
-0.00264751
-0.00423815
-0.00558685
-0.00666161
-0.00748538
-0.00809409
-0.00852003
-0.00878686
-0.00890852
-0.00888935
-0.00872357
-0.00839421
-0.0078714
-0.00711137
-0.00606007
-0.00467178
-0.00296282
-0.00115211
0
0
-0.00127253
-0.00286587
-0.00416637
-0.00513994
-0.00584835
-0.00635532
-0.00671129
-0.00695135
-0.00709783
-0.00716318
-0.00715186
-0.00706066
-0.00687761
-0.00657915
-0.00612528
-0.00545393
-0.00448058
-0.0031188
-0.00139795
0
0
-0.00135103
-0.00245779
-0.00313663
-0.0035606
-0.00383259
-0.00400957
-0.00412528
-0.00419928
-0.00424251
-0.00426063
-0.00425573
-0.00422687
-0.0041695
-0.00407371
-0.00392016
-0.00367242
-0.00326336
-0.00257104
-0.00141087
0
0
0
0
0
0
0
0
0
0
0
0
0
0
0
0
0
0
0
0
0
0
0
0
0
0
0
0
0
0
0
0
0
0
0
0
0
0
0
0
0
0
0
0
1.42865e-06
-2.2236e-06
-1.14241e-05
-2.45397e-05
-3.95975e-05
-5.4706e-05
-6.82937e-05
-7.9032e-05
-8.59981e-05
-8.8533e-05
-8.6391e-05
-7.97118e-05
-6.89953e-05
-5.5182e-05
-3.9685e-05
-2.42642e-05
-1.09773e-05
-1.8434e-06
1.56795e-06
0
0
-1.99094e-06
-2.02535e-05
-5.48058e-05
-0.000100953
-0.000152774
-0.000204372
-0.000250557
-0.000287004
-0.000310538
-0.000319048
-0.000311694
-0.000288937
-0.000252552
-0.00020573
-0.000153051
-0.000100189
-5.35023e-05
-1.91068e-05
-1.51143e-06
0
0
-1.12092e-05
-5.59372e-05
-0.000131229
-0.000227748
-0.000334168
-0.000439179
-0.000532684
-0.000606267
-0.000653659
-0.000670756
-0.000655913
-0.000610034
-0.00053665
-0.000442017
-0.000335011
-0.000226588
-0.000128925
-5.37901e-05
-1.02415e-05
0
0
-2.57232e-05
-0.00010846
-0.000239345
-0.000402425
-0.000579498
-0.000752687
-0.00090606
-0.00102639
-0.00110377
-0.00113176
-0.00110776
-0.00103314
-0.00091344
-0.000758458
-0.000582103
-0.000401627
-0.000236334
-0.000105283
-2.41671e-05
0
0
-4.50753e-05
-0.000176931
-0.000377851
-0.000623062
-0.000885925
-0.00114092
-0.00136553
-0.00154125
-0.00165421
-0.00169541
-0.00166113
-0.00155319
-0.00137916
-0.00115261
-0.000892963
-0.000624597
-0.000375247
-0.000173108
-4.29364e-05
0
0
-6.90599e-05
-0.000260935
-0.000546121
-0.000888677
-0.00125189
-0.00160154
-0.00190799
-0.00214711
-0.00230094
-0.0023578
-0.00231276
-0.00216788
-0.00193264
-0.00162436
-0.0012682
-0.000896362
-0.000546348
-0.000257547
-6.65463e-05
0
0
-9.77256e-05
-0.000360615
-0.000744275
-0.00119909
-0.00167657
-0.00213288
-0.00253084
-0.00284065
-0.0030403
-0.00311547
-0.00305989
-0.00287562
-0.00257368
-0.00217479
-0.0017098
-0.00121922
-0.000751594
-0.000359776
-9.53668e-05
0
0
-0.000131352
-0.000476629
-0.000973033
-0.00155452
-0.00215914
-0.00273268
-0.00323032
-0.00361686
-0.00386659
-0.00396278
-0.00389774
-0.00367317
-0.00330101
-0.00280468
-0.00222018
-0.00159641
-0.000994042
-0.00048183
-0.000130131
0
0
-0.000170443
-0.000610103
-0.0012335
-0.00195508
-0.00269777
-0.00339658
-0.00399948
-0.00446662
-0.00476934
-0.00488897
-0.0048165
-0.00455282
-0.00410986
-0.00351251
-0.00280075
-0.00203127
-0.00127749
-0.000626525
-0.000171937
0
0
-0.000215787
-0.000762667
-0.00152698
-0.00240007
-0.00328838
-0.00411634
-0.00482582
-0.00537379
-0.00572999
-0.0058747
-0.00579781
-0.00549892
-0.00498874
-0.00429178
-0.00344995
-0.00252605
-0.00160599
-0.000797386
-0.000222293
0
0
-0.000268623
-0.000936639
-0.00185479
-0.00288725
-0.00392311
-0.00487745
-0.00568828
-0.00631179
-0.00671812
-0.00688788
-0.00681042
-0.00648358
-0.00591536
-0.00512743
-0.00416043
-0.00308013
-0.00198307
-0.000998604
-0.000283262
0
0
-0.000330994
-0.00113539
-0.00221801
-0.00341149
-0.00458792
-0.00565597
-0.00655347
-0.00723931
-0.00768687
-0.00787895
-0.00780523
-0.00746152
-0.00685152
-0.00599105
-0.00491511
-0.00368732
-0.00241051
-0.00123498
-0.000357742
0
0
-0.00040641
-0.00136385
-0.00261676
-0.00396247
-0.00525898
-0.00641394
-0.0073706
-0.00809522
-0.00856779
-0.00877561
-0.00870981
-0.00836423
-0.0077369
-0.00683463
-0.00568148
-0.00433157
-0.00288617
-0.00151167
-0.00044999
0
0
-0.00050094
-0.00162873
-0.00304792
-0.00451989
-0.00589616
-0.00709241
-0.00806481
-0.00879236
-0.00926525
-0.00947744
-0.00942285
-0.00909377
-0.00848191
-0.00758254
-0.00640337
-0.00497992
-0.00339956
-0.00183319
-0.000566435
0
0
-0.000624681
-0.00193709
-0.00349874
-0.00504342
-0.0064318
-0.00760074
-0.00852807
-0.00921048
-0.00965089
-0.00985135
-0.00980956
-0.00951722
-0.00896028
-0.00812179
-0.00698933
-0.00557065
-0.00392289
-0.00219984
-0.00071645
0
0
-0.00079207
-0.00228846
-0.00393033
-0.00545239
-0.00675122
-0.00780075
-0.00860775
-0.00918873
-0.00955926
-0.00972899
-0.00969956
-0.0094633
-0.00900274
-0.00829119
-0.00729669
-0.00599382
-0.00439251
-0.00259659
-0.00091095
0
0
-0.00101515
-0.00264751
-0.00423815
-0.00558685
-0.00666161
-0.00748538
-0.00809409
-0.00852003
-0.00878686
-0.00890852
-0.00888935
-0.00872357
-0.00839421
-0.0078714
-0.00711137
-0.00606007
-0.00467178
-0.00296282
-0.00115211
0
0
-0.00127253
-0.00286587
-0.00416637
-0.00513994
-0.00584835
-0.00635532
-0.00671129
-0.00695135
-0.00709783
-0.00716318
-0.00715186
-0.00706066
-0.00687761
-0.00657915
-0.00612528
-0.00545393
-0.00448058
-0.0031188
-0.00139795
0
0
-0.00135103
-0.00245779
-0.00313663
-0.0035606
-0.00383259
-0.00400957
-0.00412528
-0.00419928
-0.00424251
-0.00426063
-0.00425573
-0.00422687
-0.0041695
-0.00407371
-0.00392016
-0.00367242
-0.00326336
-0.00257104
-0.00141087
0
0
0
0
0
0
0
0
0
0
0
0
0
0
0
0
0
0
0
0
0
0
)
;

boundaryField
{
    movingWall
    {
        type            calculated;
    }
    fixedWalls
    {
        type            calculated;
    }
    frontAndBack
    {
        type            empty;
    }
}


// ************************************************************************* //
