/*--------------------------------*- C++ -*----------------------------------*\
| =========                 |                                                 |
| \\      /  F ield         | OpenFOAM: The Open Source CFD Toolbox           |
|  \\    /   O peration     | Version:  2506                                  |
|   \\  /    A nd           | Website:  www.openfoam.com                      |
|    \\/     M anipulation  |                                                 |
\*---------------------------------------------------------------------------*/
FoamFile
{
    version     2.0;
    format      ascii;
    arch        "LSB;label=32;scalar=64";
    class       volScalarField;
    location    "250";
    object      p;
}
// * * * * * * * * * * * * * * * * * * * * * * * * * * * * * * * * * * * * * //

dimensions      [0 2 -2 0 0 0 0];

internalField   nonuniform List<scalar> 
1340
(
338.468
336.07
323.168
302.146
278.607
255.063
232.282
210.903
190.792
172.005
154.109
136.836
119.693
102.63
85.336
67.9035
50.7447
35.7275
23.8925
14.1789
6.29885
0.437145
-3.44092
-5.5837
-6.13905
-5.18957
-2.74125
1.21498
320.677
329.373
327.948
317.262
300.084
279.891
258.631
237.246
216.444
196.472
177.46
159.227
141.574
124.173
106.925
89.6245
72.3525
55.5345
40.6433
28.606
18.7396
10.6299
4.24105
-0.326717
-3.08639
-4.13224
-3.56769
-1.42528
2.29414
306.876
315.796
315.958
308.024
294.075
276.463
256.967
236.758
216.644
197.063
178.213
160.061
142.461
125.173
108.062
90.9876
74.0137
57.5222
42.6758
30.3782
20.2582
11.9608
5.47223
0.879978
-1.87958
-2.96401
-2.49114
-0.474929
3.11571
274.297
291.208
300.324
301.89
296.371
285.361
270.605
253.562
235.333
216.705
198.165
179.984
162.249
144.903
127.803
110.846
93.9579
77.2113
60.9646
46.1772
33.6991
23.3627
14.8449
8.10192
3.19575
0.0700574
-1.37929
-1.22806
0.529232
3.92778
259.347
275.183
284.42
287.089
283.61
275.134
262.976
248.278
232
214.895
197.47
180.06
162.845
145.857
129.041
112.338
95.7207
79.2724
63.325
48.6706
36.0825
25.5525
16.8236
9.8572
4.72125
1.38904
-0.224804
-0.20209
1.44712
4.75125
224.562
244.519
259.472
268.744
272.243
270.384
264.012
254.142
241.667
227.387
211.976
195.913
179.552
163.121
146.722
130.369
114.054
97.7921
81.6844
66.0462
51.5527
38.9069
28.2212
19.3157
12.1569
6.80913
3.25828
1.42112
1.22081
2.65426
5.76387
211.771
230.207
244.407
253.632
257.744
257.154
252.504
244.591
234.115
221.723
207.992
193.346
178.127
162.589
146.883
131.08
115.224
99.369
83.6378
68.3314
54.0357
41.3896
30.5893
21.5304
14.1902
8.63236
4.85727
2.80024
2.39628
3.65114
6.6117
199.424
216.598
230.123
239.229
243.791
244.18
240.919
234.65
225.93
215.276
203.168
189.963
175.97
161.447
146.565
131.437
116.147
100.785
85.4904
70.5547
56.5024
43.9164
33.0505
23.8722
16.377
10.6309
6.65009
4.38591
3.78146
4.84629
7.63348
169.105
187.647
203.752
216.66
225.601
230.476
231.621
229.473
224.569
217.363
208.269
197.676
185.873
173.129
159.678
145.699
131.327
116.677
101.868
87.0546
72.5219
58.7492
46.2734
35.3851
26.117
18.4872
12.5667
8.38651
5.9149
5.10703
5.98032
8.59476
176.501
191.672
204.013
212.756
217.837
219.558
218.3
214.521
208.605
200.886
191.678
181.209
169.699
157.351
144.334
130.79
116.854
102.663
88.3837
74.2962
60.8472
48.5366
37.6775
28.3575
20.6221
14.5497
10.1859
7.51779
6.51201
7.19242
9.62636
180.336
192.147
200.673
205.877
208.035
207.483
204.629
199.803
193.281
185.319
176.092
165.77
154.521
142.493
129.826
116.658
103.138
89.4383
75.8333
62.7478
50.6512
39.8684
30.533
22.7189
16.5148
11.981
9.12296
7.92168
8.40835
10.6584
181.019
189.319
194.578
197.062
197.073
194.976
191.066
185.578
178.723
170.63
161.43
151.253
140.22
128.457
116.099
103.296
90.2187
77.1356
64.4542
52.6205
41.9632
32.6524
24.7911
18.48
13.7944
10.7583
9.3679
9.66122
11.722
178.648
183.915
186.638
187.094
185.616
182.474
177.873
171.99
164.922
156.764
147.612
137.56
126.71
115.187
103.133
90.7147
78.1899
65.951
54.4248
43.9399
34.694
26.8172
20.4244
15.6055
12.4032
10.8298
10.9307
12.7985
173.858
176.752
177.558
176.584
174.083
170.24
165.206
159.055
151.853
143.667
134.563
124.618
113.941
102.658
90.9273
78.9927
67.232
56.0558
45.7889
36.6488
28.7902
22.3433
17.4123
14.0582
12.3102
12.2211
13.8924
167.383
168.463
167.9
165.935
162.737
158.44
153.103
146.769
139.481
131.279
122.217
112.381
101.882
90.8594
79.5411
68.29
57.5027
47.4967
38.503
30.6971
24.2245
19.2039
15.7138
13.8006
13.5249
14.9969
158.513
159.805
159.576
158.057
155.406
151.748
147.128
141.575
135.112
127.758
119.545
110.536
100.819
90.5167
79.8357
69.1224
58.7585
49.0534
40.2455
32.5271
26.0585
20.9723
17.3637
15.2964
14.8389
16.1096
151.571
151.612
150.465
148.281
145.173
141.182
136.327
130.617
124.052
116.644
108.435
99.4911
89.9114
79.8811
69.7274
59.8172
50.4494
41.8648
34.2687
27.8344
22.7078
18.9997
16.7906
16.1573
17.2257
143.748
144.009
143.171
141.382
138.748
135.308
131.073
126.043
120.205
113.554
106.11
97.9199
89.0578
79.6845
70.1069
60.6756
51.6772
43.3513
35.9113
29.5419
24.4009
20.6136
18.2763
17.4748
18.3408
136.757
136.178
134.723
132.498
129.538
125.853
121.434
116.26
110.313
103.595
96.1301
87.9717
79.2557
70.2653
61.3328
52.7314
44.6963
37.4448
31.1706
26.0417
22.1966
19.746
18.7851
19.4499
129.851
129.486
128.316
126.442
123.901
120.699
116.827
112.256
106.958
100.92
94.1486
86.6742
78.6083
70.2092
61.7895
53.6083
45.8924
38.86
32.7104
27.6203
23.7394
21.1917
20.0816
20.5477
123.279
123.093
122.165
120.593
118.416
115.64
112.255
108.228
103.524
98.1187
92.0029
85.1869
77.7573
69.9473
62.0494
54.3061
46.9342
40.1488
34.152
29.1271
25.2331
22.6053
21.3572
21.6286
116.993
116.27
114.959
113.098
110.697
107.744
104.206
100.043
95.2214
89.72
83.5314
76.719
69.4912
62.1183
54.8255
47.8178
41.3042
35.4867
30.5526
26.6682
23.9783
22.6045
22.6868
111.179
110.633
109.545
107.96
105.887
103.316
100.215
96.5412
92.2561
87.3266
81.7312
75.5126
68.8541
62.0037
55.1692
48.5411
42.3206
36.7068
31.8878
28.0355
25.302
23.8161
23.7163
105.246
104.353
103.007
101.222
98.9892
96.2778
93.0453
89.2489
84.8481
79.8095
74.1571
68.0505
61.7152
55.3409
49.104
43.1943
37.8052
33.1246
29.3263
26.5677
24.9838
24.7108
100.108
99.382
98.2449
96.7122
94.7774
92.4124
89.5759
86.223
82.3079
77.788
72.6717
67.0956
61.2638
55.3476
49.5079
43.9225
38.7771
34.2554
30.532
27.7672
26.1002
25.6641
95.2119
94.6301
93.6746
92.3629
90.6909
88.6335
86.1513
83.1991
79.7275
75.6879
71.0751
66.0056
60.6615
55.1965
49.7561
44.5046
39.6177
35.2737
31.6448
28.8923
27.1576
26.5701
90.0934
89.2964
88.1786
86.7382
84.9532
82.7868
80.1949
77.127
73.5294
69.3871
64.7971
59.9215
54.8968
49.8534
44.9412
40.3246
36.174
32.6578
29.9351
28.1485
27.4225
85.7672
85.1087
84.1607
82.9242
81.3802
79.4948
77.2259
74.5236
71.3313
67.6252
63.4861
59.0571
54.4586
49.8058
45.2344
40.8963
36.9525
33.5645
30.8887
29.0661
28.2156
81.6455
81.108
80.309
79.252
77.9209
76.2853
74.3056
71.9328
69.1095
65.8061
62.0883
58.082
53.8926
49.6209
45.3881
41.333
37.6058
34.3603
31.7468
29.9037
28.9438
77.2905
76.6225
75.7232
74.58
73.1659
71.4439
69.3673
66.8791
63.9453
60.6189
57.0101
53.2103
49.3068
45.407
41.6362
38.1328
35.041
32.504
30.6554
29.6019
73.6512
73.0981
72.3376
71.3603
70.1422
68.6498
66.8385
64.6532
62.057
59.0923
55.8548
52.4232
48.8728
45.2972
41.8087
38.533
35.6039
33.1561
31.3165
30.1854
69.7322
69.0942
68.263
67.2183
65.9296
64.3554
62.4431
60.1542
57.5217
54.6288
51.5431
48.3282
45.0657
41.8544
38.8077
36.0479
33.6997
31.8827
30.6903
66.521
65.9902
65.288
64.3963
63.2883
61.9256
60.2583
58.2476
55.919
53.3442
50.5812
47.6832
44.7201
41.7786
38.9592
36.3726
34.133
32.3509
31.1133
63.4589
63.0229
62.434
61.6774
60.7292
59.5545
58.1064
56.3469
54.2952
52.0127
49.5486
46.9475
44.2688
41.5871
38.991
36.5793
34.455
32.7191
31.4519
60.1884
59.6991
59.0616
58.2545
57.2466
55.9942
54.4606
52.6598
50.6445
48.4559
46.1313
43.7203
41.2868
38.9079
36.6704
34.6664
32.9865
31.7042
57.4823
57.0807
56.5479
55.8652
55.0048
53.9268
52.5958
51.0215
49.249
47.3131
45.2441
43.0835
40.8851
38.7153
36.6494
34.7686
33.1534
31.8696
54.9002
54.5755
54.1345
53.5614
52.8314
51.908
50.758
49.3875
47.8349
46.1293
44.2954
42.3672
40.3898
38.4195
36.521
34.7646
33.2208
31.9482
52.1796
51.8191
51.3425
50.7272
49.9407
48.952
47.7641
46.4098
44.9132
43.2941
41.5803
39.8091
38.0275
36.2905
34.6581
33.1912
31.9409
49.8893
49.5993
49.2069
48.6926
48.0271
47.1815
46.1568
44.9803
43.6724
42.2487
40.7315
39.1512
37.5468
35.9642
34.454
33.0679
47.7001
47.4718
47.1531
46.7273
46.1683
45.4493
44.5698
43.5525
42.4141
41.167
39.829
38.4244
36.9851
35.5489
34.1579
32.8549
45.4332
45.1788
44.8304
44.3648
43.7578
43.0069
42.1313
41.1447
40.0565
38.8808
37.6369
36.3505
35.052
33.7759
32.5573
43.48
43.2815
43.0006
42.6169
42.1082
41.4711
40.7211
39.8696
38.9239
37.8945
36.7968
35.6508
34.481
33.3148
32.1805
41.6089
41.4588
41.2364
40.924
40.5015
39.9647
39.3258
38.5942
37.7754
36.8774
35.9117
34.8941
33.8436
32.7818
31.7307
39.7076
39.5359
39.2857
38.9386
38.4895
37.9484
37.3228
36.6167
35.8359
34.9891
34.0881
33.1477
32.1841
31.2141
38.0254
37.8974
37.7009
37.4193
37.047
36.5917
36.0594
35.4529
34.7763
34.0359
33.2404
32.4008
31.5291
30.6376
36.4093
36.3188
36.1685
35.9438
35.6384
35.2581
34.8075
34.2887
33.7043
33.0587
32.3582
31.6105
30.8242
30.0079
34.7979
34.6874
34.5117
34.2644
33.9493
33.5702
33.1282
32.6251
32.0637
31.4483
30.784
30.0766
29.3316
33.3328
33.2562
33.1227
32.9255
32.667
32.3499
31.9751
31.5434
31.0565
30.517
29.928
29.2932
28.6155
31.9215
31.8736
31.7762
31.622
31.4123
31.1492
30.8329
30.4636
30.0423
29.5702
29.0491
28.4806
27.866
30.5618
30.5383
30.4715
30.3542
30.1865
29.9698
29.7042
29.3895
29.0258
28.6135
28.1531
27.6451
27.0891
29.2489
29.2079
29.1221
28.9903
28.8136
28.5919
28.3245
28.0112
27.6517
27.2457
26.7925
26.2907
28.0039
27.9848
27.9255
27.8244
27.6819
27.4979
27.2717
27.0024
26.6893
26.3318
25.9282
25.4763
26.8023
26.8012
26.7643
26.6892
26.5759
26.4243
26.2336
26.0026
25.7305
25.4159
25.057
25.6426
25.6564
25.6383
25.585
25.4966
25.3728
25.2126
25.0149
24.7786
24.5022
24.1833
24.5496
24.547
24.5121
24.4448
24.3445
24.2106
24.0419
23.837
23.5942
23.3113
23.48
23.4901
23.4706
23.4209
23.3408
23.2295
23.0857
22.9082
22.6952
22.4444
22.4467
22.4672
22.4603
22.4255
22.3625
22.2704
22.1483
21.9947
21.8079
21.5857
21.4489
21.4777
21.4814
21.4589
21.4103
21.3348
21.2312
21.0985
20.9348
20.7381
20.4858
20.5213
20.5334
20.5214
20.4849
20.4234
20.3359
20.2213
20.078
19.9039
19.5973
19.6164
19.6128
19.5865
19.537
19.4634
19.3645
19.2391
19.0852
18.7051
18.7297
18.7332
18.7155
18.6762
18.6145
18.5294
18.4197
18.2837
17.8441
17.8731
17.8824
17.8719
17.8413
17.7899
17.7168
17.6209
17.0135
17.046
17.06
17.0556
17.0324
16.9899
16.9273
16.8437
16.2127
16.248
16.2659
16.2666
16.2498
16.2151
16.1617
16.0888
15.4409
15.4784
15.4997
15.5048
15.4936
15.4656
15.4204
15.3572
14.7365
14.7605
14.7695
14.7632
14.7414
14.7035
14.6488
14.023
14.0495
14.0618
14.0599
14.0435
14.0121
13.9653
13.4461
13.4753
13.4907
13.4923
13.4798
13.4531
13.4116
12.9663
12.9985
13.017
13.0217
13.0124
12.989
12.9511
12.4733
12.5088
12.5305
12.5383
12.5324
12.5125
12.4784
11.9688
12.0077
12.0326
12.0438
12.0414
12.0252
11.9952
11.4554
11.4979
11.5263
11.5412
11.5424
11.53
10.9326
10.9794
11.0124
11.032
11.0381
11.0309
10.4032
10.4534
10.4899
10.5132
10.5235
10.5212
9.94337
9.9864
10.0153
10.0302
10.0314
9.37888
9.4351
9.48031
9.51445
9.53732
8.83945
8.87629
8.89754
8.90459
8.89888
8.73434
8.862
8.97643
9.07671
9.16084
6.28992
6.28108
6.26731
6.2483
6.22777
11.5846
11.8439
12.0688
12.2634
12.4208
)
;

boundaryField
{
    inlet
    {
        type            freestreamPressure;
        freestreamValue uniform 0;
        value           nonuniform List<scalar> 5(6.54554 6.69032 6.81572 6.92403 7.01139);
    }
    outlet
    {
        type            freestreamPressure;
        freestreamValue nonuniform List<scalar> 0();
        value           nonuniform List<scalar> 0();
    }
    walls
    {
        type            zeroGradient;
    }
    frontAndBack
    {
        type            empty;
    }
    procBoundary1to0
    {
        type            processor;
        value           nonuniform List<scalar> 
94
(
159.216
159.216
165.995
165.995
169.709
169.709
170.583
170.583
168.622
168.622
164.373
164.373
155.429
150.116
150.116
142.171
136.32
136.32
129.271
122.586
117.03
117.03
111.092
105.644
105.644
100.379
95.3732
90.5495
90.5495
86.1145
81.8985
77.7222
77.7222
73.99
70.1846
70.1846
66.8844
63.7445
60.5412
60.5412
57.7622
55.1159
52.437
52.437
50.0877
47.8471
45.608
45.608
43.6084
41.697
39.816
39.816
38.0979
36.4512
34.8565
34.8565
33.3643
31.9301
30.5514
29.2521
29.2521
27.9904
26.7749
25.604
24.5236
24.5236
23.4441
22.403
21.3991
20.4313
19.5566
19.5566
18.6604
17.7963
16.9635
16.1611
15.3881
14.6971
14.6971
13.9822
13.4028
12.9197
12.4233
11.9155
11.3983
10.8713
10.3384
9.88606
9.88606
9.31151
8.78536
8.59487
6.29488
11.2691
)
;
    }
    procBoundary1to2
    {
        type            processor;
        value           nonuniform List<scalar> 
84
(
7.0336
7.93584
8.64386
9.32003
10.0566
10.9008
11.6227
12.4829
13.2833
14.1379
14.9851
15.8513
16.7206
17.5966
18.4735
19.3494
20.2207
21.0841
21.9358
22.7724
23.5899
24.3844
25.1521
25.8888
26.5906
27.2536
27.8737
28.4471
28.9703
29.4395
29.8518
30.204
30.4935
30.7183
30.8766
30.9672
30.9895
30.9434
31.8496
31.8496
31.6771
31.4267
31.1026
30.7094
30.2523
29.7366
29.1682
28.5528
27.8962
27.2044
26.4828
25.7371
24.9722
24.6509
24.6509
23.8191
22.985
22.1525
21.3249
20.5053
19.6963
18.9002
18.1188
17.5007
17.5007
16.7376
15.9953
15.2749
14.5767
13.9022
13.3546
12.8982
12.4298
11.9512
11.5041
11.5041
11.0103
10.5065
10.019
9.54853
8.88226
9.22605
6.21066
12.5375
)
;
    }
    procBoundary1to5
    {
        type            processor;
        value           nonuniform List<scalar> 
13
(
330.181
330.181
300.263
288.455
288.455
250.072
237.494
237.494
200.734
190.03
179.418
179.418
148.281
)
;
    }
}


// ************************************************************************* //
