/*--------------------------------*- C++ -*----------------------------------*\
| =========                 |                                                 |
| \\      /  F ield         | OpenFOAM: The Open Source CFD Toolbox           |
|  \\    /   O peration     | Version:  2506                                  |
|   \\  /    A nd           | Website:  www.openfoam.com                      |
|    \\/     M anipulation  |                                                 |
\*---------------------------------------------------------------------------*/
FoamFile
{
    version     2.0;
    format      ascii;
    arch        "LSB;label=32;scalar=64";
    class       surfaceScalarField;
    location    "250";
    object      phi;
}
// * * * * * * * * * * * * * * * * * * * * * * * * * * * * * * * * * * * * * //

dimensions      [0 3 -1 0 0 0 0];

oriented        oriented;

internalField   nonuniform List<scalar> 
2568
(
0.00991215
-0.0318692
0.0388735
-0.0289613
0.0644528
-0.0255793
0.0864071
-0.0219543
0.1051
-0.018693
0.120822
-0.0157224
0.133918
-0.0130953
0.145104
-0.0111863
0.154703
-0.00959934
0.163192
-0.0084891
0.170802
-0.00760996
0.177842
-0.00703957
0.184431
-0.00658853
0.190736
-0.00630594
0.196744
-0.00600752
0.202378
-0.00563371
0.206985
-0.00460777
0.210388
-0.00340237
0.21291
-0.00252202
0.214607
-0.00169754
0.215709
-0.00110186
0.216355
-0.000646092
0.216538
-0.000182574
0.216042
0.000495831
0.214782
0.00126035
0.212756
0.00202595
0.210003
0.0027528
0.00356385
-0.0156204
-0.0666206
0.0152027
-0.0626923
0.043357
-0.0571156
0.0684071
-0.0506295
0.0901857
-0.0437329
0.10907
-0.0375776
0.125516
-0.0321681
0.139746
-0.0273249
0.152209
-0.0236495
0.163208
-0.0205986
0.173037
-0.0183178
0.182002
-0.0165758
0.190362
-0.0153992
0.198226
-0.0144529
0.205759
-0.0138386
0.213031
-0.0132791
0.219973
-0.0125762
0.226128
-0.0107631
0.231224
-0.0084977
0.235448
-0.00674657
0.238705
-0.00495476
0.240903
-0.00330007
0.241994
-0.00173685
0.242084
-0.000272569
0.241398
0.0011817
0.240121
0.00253706
0.238272
0.0038751
0.235847
0.00517718
0.00664113
-0.00750037
-0.0985178
0.0222816
-0.0924742
0.0495727
-0.0844067
0.0742787
-0.0753355
0.0960743
-0.0655285
0.115135
-0.0566386
0.131845
-0.0488776
0.14648
-0.04196
0.159348
-0.0365176
0.170788
-0.0320381
0.181064
-0.0285939
0.190443
-0.0259552
0.199134
-0.0240896
0.2073
-0.0226191
0.215128
-0.0216667
0.222631
-0.0207826
0.229713
-0.0196578
0.236072
-0.0171221
0.241419
-0.0138451
0.245867
-0.0111947
0.249484
-0.00857178
0.252309
-0.00612483
0.254406
-0.00383356
0.255767
-0.00163326
0.256448
0.000499887
0.256414
0.00257134
0.255669
0.00461985
0.254141
0.0067052
0.00903706
-0.0303687
-0.131954
0.00144187
-0.130328
0.0308496
-0.121882
0.0576701
-0.111227
0.0820029
-0.0996682
0.103496
-0.0870221
0.122393
-0.0755356
0.139125
-0.0656093
0.153945
-0.0567796
0.167172
-0.0497452
0.179032
-0.043898
0.189819
-0.0393802
0.199709
-0.0358458
0.208934
-0.0333148
0.217632
-0.0313171
0.225913
-0.0299479
0.233844
-0.0287128
0.241362
-0.0271763
0.248147
-0.023907
0.253949
-0.0196473
0.25883
-0.016076
0.262843
-0.0125843
0.266038
-0.00932055
0.268449
-0.00624415
0.270144
-0.00332807
0.271155
-0.000511167
0.271504
0.00222187
0.271186
0.00493807
0.270183
0.00770773
0.0108472
-0.0212529
-0.164999
0.0109593
-0.162541
0.0404063
-0.151329
0.0670941
-0.137915
0.0912133
-0.123787
0.112464
-0.108273
0.13119
-0.0942622
0.147894
-0.0823127
0.162794
-0.0716793
0.176207
-0.0631584
0.188396
-0.0560874
0.199538
-0.0505224
0.209818
-0.0461254
0.219429
-0.042926
0.22851
-0.0403978
0.237152
-0.0385897
0.245395
-0.0369558
0.253202
-0.0349839
0.260298
-0.0310031
0.266419
-0.0257682
0.271597
-0.0212537
0.275871
-0.0168588
0.279296
-0.0127446
0.28189
-0.00883905
0.283691
-0.00512877
0.284741
-0.00156141
0.285108
0.00185563
0.284797
0.00524826
0.283795
0.00871044
0.0125659
-0.0458992
-0.191896
-0.0119272
-0.198971
0.0210046
-0.195472
0.0508163
-0.181141
0.0776135
-0.164712
0.101685
-0.147859
0.122789
-0.129376
0.14133
-0.112804
0.15791
-0.0988924
0.172791
-0.0865608
0.186282
-0.0766491
0.19864
-0.0684457
0.210029
-0.0619109
0.220643
-0.0567395
0.230609
-0.0528921
0.240056
-0.0498452
0.249076
-0.0476092
0.257689
-0.0455686
0.26584
-0.0431353
0.273344
-0.0385076
0.27987
-0.0322938
0.285405
-0.0267887
0.290042
-0.0214956
0.293777
-0.0164801
0.296654
-0.0117159
0.298704
-0.00717922
0.299972
-0.00282928
0.300486
0.0013415
0.300255
0.00547954
0.299302
0.00966263
0.0143764
-0.0377483
-0.226003
-0.00252961
-0.234189
0.0313883
-0.22939
0.0618702
-0.211622
0.0890267
-0.191869
0.113268
-0.1721
0.134325
-0.150433
0.152745
-0.131224
0.169205
-0.115353
0.184007
-0.101363
0.197488
-0.09013
0.209932
-0.0808901
0.221511
-0.0734905
0.232368
-0.0675961
0.242636
-0.0631597
0.252407
-0.0596163
0.261752
-0.0569545
0.270685
-0.0545014
0.279181
-0.0516312
0.286994
-0.0463211
0.293896
-0.0391951
0.299803
-0.0326961
0.304743
-0.026436
0.30877
-0.0205067
0.31188
-0.0148257
0.314136
-0.00943566
0.315543
-0.00423644
0.316164
0.0007205
0.316014
0.00563029
0.31505
0.0106261
0.0161938
-0.0295184
-0.261548
0.00706843
-0.270776
0.0422071
-0.264529
0.0735782
-0.242994
0.101287
-0.219577
0.125837
-0.196651
0.146991
-0.171587
0.165354
-0.149587
0.181711
-0.131709
0.196408
-0.11606
0.209826
-0.103548
0.22231
-0.0933743
0.233977
-0.0851567
0.245007
-0.0786264
0.255499
-0.0736517
0.265546
-0.0696633
0.275178
-0.0665863
0.284438
-0.0637618
0.293262
-0.0604553
0.301445
-0.0545034
0.308717
-0.0464676
0.314993
-0.0389723
0.32029
-0.0317324
0.324639
-0.024856
0.328031
-0.018218
0.33051
-0.0119148
0.332127
-0.0058534
0.332888
-4.06436e-05
0.332831
0.00568734
0.33192
0.0115376
0.0180608
-0.0585418
-0.0213416
-0.298748
0.0168293
-0.308947
0.0534419
-0.301142
0.0858737
-0.275425
0.114316
-0.248019
0.139348
-0.221683
0.160717
-0.192956
0.179125
-0.167995
0.195428
-0.148012
0.210031
-0.130663
0.223368
-0.116886
0.235801
-0.105807
0.247517
-0.0968728
0.258649
-0.0897585
0.269305
-0.0843083
0.279577
-0.0799344
0.289496
-0.076506
0.299028
-0.0732941
0.308158
-0.0695853
0.31669
-0.0630349
0.324348
-0.0541262
0.330974
-0.0455977
0.336621
-0.0373799
0.341266
-0.0295006
0.344952
-0.0219045
0.347678
-0.01464
0.349476
-0.00765131
0.350387
-0.000951917
0.350408
0.00566594
0.349536
0.0124098
0.0199294
-0.0130868
0.0269258
-0.34896
0.0650805
-0.339296
0.0987602
-0.309105
0.128107
-0.277366
0.153788
-0.247364
0.175494
-0.214663
0.194018
-0.186518
0.210331
-0.164326
0.224862
-0.145193
0.238108
-0.130132
0.250481
-0.11818
0.262175
-0.108567
0.273349
-0.100932
0.28414
-0.0950998
0.294584
-0.0903784
0.304691
-0.0866134
0.314504
-0.0831065
0.32394
-0.0790218
0.332802
-0.0718971
0.340809
-0.0621332
0.347819
-0.0526075
0.353799
-0.0433595
0.358786
-0.0344883
0.362757
-0.0258747
0.365735
-0.0176181
0.367759
-0.00967599
0.368816
-0.00200829
0.368958
0.00552305
0.368144
0.0132241
0.0218165
0.0372597
0.0771857
-0.379222
0.112264
-0.344184
0.142685
-0.307786
0.169092
-0.273771
0.191275
-0.236845
0.210023
-0.205266
0.226419
-0.180722
0.24091
-0.159685
0.254077
-0.143298
0.266365
-0.130469
0.278011
-0.120213
0.2892
-0.112121
0.300031
-0.105931
0.310596
-0.100943
0.320914
-0.0969319
0.330954
-0.0931462
0.340649
-0.088717
0.349842
-0.0810894
0.3582
-0.0704913
0.365562
-0.0599695
0.371908
-0.0497059
0.377217
-0.0397967
0.381501
-0.030159
0.38474
-0.0208566
0.386963
-0.0118988
0.388212
-0.0032576
0.388461
0.00527421
0.38771
0.0139745
0.0237125
0.0898218
0.126407
-0.380768
0.158008
-0.339388
0.185326
-0.301089
0.208092
-0.259612
0.227164
-0.224338
0.243676
-0.197234
0.258189
-0.174197
0.271295
-0.156405
0.283506
-0.142679
0.295069
-0.131776
0.306221
-0.123272
0.31709
-0.1168
0.327727
-0.11158
0.338173
-0.107378
0.348399
-0.103372
0.358373
-0.0986905
0.367868
-0.090584
0.376565
-0.0791892
0.384281
-0.0676856
0.390967
-0.0563918
0.396623
-0.0454524
0.401191
-0.034727
0.404713
-0.0243787
0.407172
-0.014358
0.408591
-0.00467597
0.408985
0.00487956
0.408288
0.0146721
0.0255908
0.141245
0.174152
-0.372296
0.202483
-0.329419
0.22593
-0.283058
0.24541
-0.243818
0.262158
-0.213982
0.27674
-0.188779
0.289816
-0.16948
0.301953
-0.154816
0.313435
-0.143259
0.324523
-0.13436
0.335363
-0.127641
0.346047
-0.122264
0.356585
-0.117916
0.366986
-0.113773
0.377172
-0.108877
0.386963
-0.100374
0.395978
-0.0882046
0.404034
-0.0757419
0.411065
-0.063422
0.417029
-0.0514172
0.421922
-0.0396196
0.425722
-0.0281789
0.428427
-0.0170632
0.430052
-0.00630058
0.430577
0.00435416
0.429971
0.0152786
0.0274631
0.19119
0.220634
-0.358864
0.244871
-0.307295
0.264834
-0.263781
0.28187
-0.231018
0.296567
-0.203477
0.309641
-0.182553
0.321731
-0.166907
0.33314
-0.154668
0.344133
-0.145353
0.354928
-0.138436
0.36562
-0.132956
0.376223
-0.12852
0.386741
-0.124291
0.397137
-0.119273
0.407184
-0.110421
0.416498
-0.0975187
0.424878
-0.0841213
0.432242
-0.0707862
0.438549
-0.057724
0.443754
-0.0448252
0.447839
-0.0322637
0.450788
-0.0200121
0.452605
-0.0081178
0.453289
0.00367003
0.452774
0.0157933
0.0293033
0.239767
-0.389578
0.264868
-0.332396
0.28544
-0.284353
0.302838
-0.248416
0.317717
-0.218356
0.330849
-0.195685
0.342894
-0.178952
0.354218
-0.165991
0.365145
-0.156279
0.375869
-0.149161
0.386523
-0.14361
0.397154
-0.139151
0.407783
-0.134919
0.418347
-0.129838
0.428624
-0.120698
0.438236
-0.10713
0.446919
-0.0928047
0.454604
-0.0784711
0.461221
-0.064341
0.466739
-0.0503431
0.4711
-0.0366242
0.474311
-0.0232238
0.476358
-0.0101643
0.477186
0.00284149
0.476791
0.0161891
0.0310935
0.259964
0.286064
-0.358495
0.307288
-0.305577
0.325108
-0.266237
0.340232
-0.23348
0.353453
-0.208906
0.365504
-0.191002
0.37676
-0.177248
0.387596
-0.167115
0.398242
-0.159806
0.408852
-0.15422
0.419479
-0.149777
0.43016
-0.145601
0.440871
-0.140548
0.451383
-0.131211
0.461243
-0.116989
0.470208
-0.10177
0.478197
-0.0864604
0.485127
-0.0712707
0.490952
-0.0561687
0.495614
-0.0412864
0.499085
-0.0266942
0.501331
-0.0124108
0.502355
0.00181718
0.502067
0.0164776
0.0328185
0.308418
-0.385649
0.330384
-0.327543
0.348726
-0.284579
0.364142
-0.248896
0.377502
-0.222266
0.389596
-0.203096
0.400817
-0.188469
0.411575
-0.177874
0.422134
-0.170365
0.432668
-0.164754
0.44328
-0.160389
0.453996
-0.156317
0.464821
-0.151373
0.475508
-0.141898
0.485598
-0.127079
0.494843
-0.111015
0.503117
-0.0947342
0.510358
-0.0785122
0.516472
-0.0622824
0.521423
-0.0462374
0.525154
-0.0304256
0.527648
-0.0149047
0.528841
0.000624754
0.528675
0.0166437
0.0344568
0.332058
0.354856
-0.350341
0.373762
-0.303484
0.38953
-0.264664
0.403086
-0.235822
0.415232
-0.215242
0.426456
-0.199694
0.437135
-0.188552
0.447605
-0.180835
0.458062
-0.175211
0.468628
-0.170955
0.479358
-0.167048
0.490278
-0.162293
0.50113
-0.152749
0.511436
-0.137385
0.520913
-0.120491
0.529449
-0.103271
0.536961
-0.0860243
0.543378
-0.0686992
0.548601
-0.0514605
0.552609
-0.0344331
0.555318
-0.0176143
0.556717
-0.000774399
0.556714
0.0166467
0.0360301
0.380697
-0.374056
0.400237
-0.323024
0.416432
-0.28086
0.430227
-0.249617
0.442489
-0.227505
0.453714
-0.210918
0.464351
-0.199189
0.474736
-0.191221
0.485131
-0.185605
0.495624
-0.181448
0.506361
-0.177785
0.517339
-0.173271
0.52833
-0.163741
0.538826
-0.14788
0.548506
-0.130172
0.557306
-0.11207
0.565082
-0.093801
0.571752
-0.0753692
0.577278
-0.0569861
0.581536
-0.0386908
0.584491
-0.02057
0.586068
-0.00235129
0.586218
0.0164968
0.0374651
0.407999
-0.398716
0.428265
-0.343291
0.444925
-0.29752
0.459007
-0.263698
0.471431
-0.239928
0.482693
-0.222181
0.493313
-0.209808
0.503637
-0.201545
0.513934
-0.195902
0.524375
-0.19189
0.535068
-0.188477
0.546109
-0.184312
0.557218
-0.174851
0.567859
-0.158521
0.57775
-0.140062
0.586751
-0.121072
0.59477
-0.10182
0.601727
-0.0823261
0.607484
-0.0627429
0.612002
-0.0432092
0.615206
-0.0237741
0.617011
-0.00415578
0.617325
0.0161826
0.0387914
0.436874
0.457905
-0.364321
0.47509
-0.314705
0.489501
-0.278108
0.502111
-0.252539
0.513463
-0.233533
0.524055
-0.2204
0.534337
-0.211827
0.544564
-0.20613
0.554944
-0.20227
0.565621
-0.199154
0.576676
-0.195367
0.587879
-0.186053
0.598675
-0.169317
0.608712
-0.1501
0.617911
-0.130271
0.626163
-0.110072
0.633352
-0.0895147
0.639377
-0.0687682
0.644148
-0.0479806
0.647591
-0.0272162
0.64959
-0.00615491
0.650086
0.0156858
0.0399511
0.489205
-0.386192
0.506973
-0.332473
0.52179
-0.292925
0.534629
-0.265378
0.546089
-0.244993
0.556744
-0.231055
0.566983
-0.222066
0.577136
-0.216283
0.587451
-0.212584
0.598081
-0.209785
0.60916
-0.206446
0.620458
-0.197351
0.631347
-0.180206
0.641531
-0.160284
0.650914
-0.139653
0.659361
-0.11852
0.666762
-0.0969154
0.673027
-0.0750336
0.678033
-0.0529869
0.681699
-0.0308817
0.683938
-0.00839457
0.684616
0.0150079
0.040961
0.522299
0.540728
-0.350902
0.555942
-0.308139
0.569065
-0.278501
0.580675
-0.256604
0.591367
-0.241747
0.601607
-0.232306
0.611737
-0.226413
0.621976
-0.222824
0.632579
-0.220388
0.643685
-0.217552
0.655005
-0.208671
0.666002
-0.191204
0.676383
-0.170664
0.68578
-0.14905
0.694432
-0.127172
0.702095
-0.104578
0.708537
-0.0814757
0.713765
-0.0582149
0.717738
-0.0348549
0.720183
-0.0108392
0.721031
0.0141599
0.0417866
0.576352
-0.37003
0.592072
-0.323859
0.605511
-0.291939
0.617313
-0.268406
0.628103
-0.252537
0.638345
-0.242547
0.648471
-0.23654
0.658694
-0.233047
0.669196
-0.23089
0.68026
-0.228615
0.691759
-0.22017
0.702792
-0.202237
0.713183
-0.181056
0.722924
-0.158792
0.731614
-0.135862
0.73932
-0.112285
0.746115
-0.0882706
0.751578
-0.0636775
0.755542
-0.0388194
0.75822
-0.0135174
0.759448
0.0129324
0.0424582
0.61401
-0.389919
0.63023
-0.340079
0.644108
-0.305817
0.656089
-0.280387
0.667036
-0.263484
0.677316
-0.252827
0.687315
-0.246539
0.69749
-0.243222
0.708078
-0.241477
0.719307
-0.239844
0.730631
-0.231495
0.741862
-0.213467
0.752272
-0.191466
0.762072
-0.168591
0.770988
-0.144777
0.778971
-0.120268
0.785717
-0.0950164
0.791413
-0.0693737
0.795758
-0.0431639
0.798582
-0.0163414
0.79985
0.0116646
0.0427675
0.653849
0.670705
-0.356935
0.684817
-0.319929
0.697191
-0.29276
0.708207
-0.2745
0.718595
-0.263216
0.72868
-0.256624
0.73892
-0.253462
0.749485
-0.252042
0.760492
-0.250851
0.772083
-0.243086
0.783276
-0.22466
0.793801
-0.201992
0.803518
-0.178308
0.812515
-0.153774
0.820627
-0.128381
0.827672
-0.102061
0.833459
-0.0751605
0.83805
-0.0477551
0.841143
-0.0194349
0.842571
0.0102368
0.0428988
0.713273
-0.374447
0.727999
-0.334656
0.740515
-0.305276
0.7518
-0.285785
0.762226
-0.273641
0.772523
-0.266921
0.782618
-0.263557
0.793036
-0.26246
0.804269
-0.262083
0.81578
-0.254598
0.827055
-0.235935
0.837674
-0.212611
0.847645
-0.188279
0.856702
-0.162831
0.864801
-0.13648
0.871876
-0.109136
0.877982
-0.081267
0.882684
-0.0524569
0.885919
-0.0226693
0.88776
0.00839581
0.0429582
0.758306
-0.392571
0.773487
-0.349836
0.786465
-0.318254
0.797851
-0.297171
0.808529
-0.28432
0.818713
-0.277105
0.828925
-0.27377
0.839546
-0.273081
0.850671
-0.273208
0.86235
-0.266276
0.873679
-0.247264
0.884267
-0.223199
0.894116
-0.198128
0.903331
-0.172046
0.911634
-0.144783
0.918963
-0.116465
0.92488
-0.0871835
0.929803
-0.0573799
0.93342
-0.0262862
0.935307
0.00650786
0.0425623
0.805949
0.821679
-0.365566
0.834941
-0.331516
0.84677
-0.309
0.857517
-0.295067
0.867853
-0.287441
0.878058
-0.283974
0.888684
-0.283708
0.899935
-0.284458
0.911653
-0.277994
0.922941
-0.258552
0.933717
-0.233975
0.943671
-0.208082
0.952787
-0.181161
0.961031
-0.153027
0.968349
-0.123783
0.974792
-0.0936268
0.979674
-0.0622623
0.983419
-0.0300311
0.985601
0.00432593
0.0420699
0.872427
-0.381792
0.88631
-0.345399
0.89827
-0.32096
0.909213
-0.30601
0.919703
-0.297931
0.930153
-0.294425
0.940796
-0.294351
0.952086
-0.295749
0.963854
-0.289762
0.975309
-0.270007
0.986046
-0.244712
0.995974
-0.218011
1.00521
-0.190401
1.01363
-0.161438
1.02103
-0.131191
1.02725
-0.0998433
1.03245
-0.0674592
1.03618
-0.0337696
1.03866
0.00184857
0.0412259
0.926235
0.940343
-0.359507
0.95279
-0.333407
0.964058
-0.317279
0.974615
-0.308487
0.985121
-0.304931
0.995789
-0.305018
1.00723
-0.30719
1.01918
-0.301712
1.03069
-0.281521
1.04139
-0.255409
1.05152
-0.228145
1.06076
-0.199635
1.06908
-0.169757
1.07644
-0.13855
1.08289
-0.106303
1.08827
-0.0728316
1.09224
-0.0377422
1.09476
-0.000670558
0.0400251
0.997727
-0.374313
1.01034
-0.346024
1.02187
-0.328801
1.03273
-0.319355
1.04328
-0.315479
1.05423
-0.315969
1.06573
-0.318689
1.07775
-0.313732
1.08949
-0.293259
1.10024
-0.266164
1.11023
-0.238126
1.11944
-0.208851
1.12778
-0.178091
1.13543
-0.146208
1.14188
-0.112748
1.14716
-0.0781176
1.15136
-0.0419331
1.15416
-0.0034772
0.038713
1.05813
-0.389563
1.07129
-0.359185
1.08307
-0.340577
1.09404
-0.330329
1.10492
-0.326355
1.11595
-0.326997
1.12763
-0.33037
1.13986
-0.325958
1.15154
-0.304939
1.16251
-0.277139
1.17246
-0.248072
1.18165
-0.218049
1.19011
-0.186551
1.19757
-0.153667
1.20411
-0.11928
1.20954
-0.0835494
1.21381
-0.0462099
1.21678
-0.00643923
0.0371683
1.12192
1.13564
-0.372905
1.1477
-0.352631
1.15916
-0.34179
1.17001
-0.33721
1.18123
-0.338217
1.19327
-0.342406
1.20548
-0.338177
1.21739
-0.316841
1.22833
-0.288078
1.23848
-0.258226
1.24778
-0.227346
1.25612
-0.194892
1.26349
-0.161036
1.2701
-0.12589
1.27554
-0.088991
1.27989
-0.0505589
1.28312
-0.009672
0.0352684
1.20353
-0.386975
1.216
-0.365092
1.22762
-0.353413
1.23895
-0.348539
1.2504
-0.349671
1.26241
-0.354411
1.275
-0.350766
1.28702
-0.328865
1.29806
-0.299118
1.30832
-0.26848
1.31747
-0.236504
1.32581
-0.20323
1.33345
-0.168676
1.33988
-0.132323
1.34545
-0.0945528
1.34986
-0.0549696
1.3531
-0.0129188
0.033146
1.27519
-0.401523
1.28822
-0.378123
1.30024
-0.365432
1.31171
-0.360003
1.32342
-0.361387
1.33569
-0.366675
1.34865
-0.363725
1.36083
-0.341048
1.37198
-0.310272
1.3821
-0.278601
1.39137
-0.245771
1.39983
-0.21169
1.40725
-0.176093
1.41374
-0.138816
1.41941
-0.100223
1.424
-0.0595535
1.42737
-0.0162916
0.0308092
1.35111
1.3645
-0.391515
1.37669
-0.37762
1.3887
-0.372015
1.40068
-0.373364
1.41335
-0.379346
1.42637
-0.376747
1.4388
-0.353478
1.4501
-0.321575
1.46047
-0.288966
1.46973
-0.255038
1.4782
-0.220155
1.48552
-0.183414
1.49219
-0.145486
1.49772
-0.105752
1.50222
-0.0640549
1.50583
-0.0199019
0.028393
1.44505
-0.405482
1.45783
-0.390408
1.47002
-0.384202
1.48229
-0.385627
1.49527
-0.392333
1.5086
-0.390071
1.52135
-0.366235
1.53292
-0.333144
1.54319
-0.299233
1.55259
-0.264436
1.56094
-0.228511
1.56841
-0.190884
1.57489
-0.151966
1.58052
-0.111376
1.58517
-0.0687103
1.58889
-0.023616
1.53005
-0.419845
1.5433
-0.403657
1.55593
-0.396829
1.56852
-0.398221
1.58196
-0.405769
1.59574
-0.403856
1.60871
-0.379198
1.62034
-0.344777
1.63089
-0.309781
1.64031
-0.273864
1.6487
-0.236892
1.6562
-0.198388
1.66261
-0.15838
1.66821
-0.116972
1.67289
-0.0733896
-0.0273011
1.61996
1.6337
-0.417394
1.64669
-0.409818
1.65976
-0.411294
1.67341
-0.419411
1.6877
-0.418148
1.701
-0.392499
1.71285
-0.356632
1.72359
-0.320515
1.73306
-0.283336
1.74148
-0.245315
1.74891
-0.205816
1.75551
-0.164978
1.76095
-0.122415
1.76565
-0.0780882
-0.031193
1.72909
-0.43154
1.74257
-0.423301
1.75623
-0.424948
1.7704
-0.433588
1.78484
-0.432581
1.79865
-0.406315
1.81085
-0.368829
1.82167
-0.331332
1.83133
-0.293
1.83981
-0.253797
1.8473
-0.213302
1.8536
-0.171279
1.85926
-0.128079
1.86398
-0.0828024
-0.0350356
1.82989
-0.44645
1.84402
-0.437426
1.85798
-0.438911
1.87267
-0.448284
1.88778
-0.447683
1.90176
-0.420298
1.91434
-0.381408
1.9254
-0.342392
1.93515
-0.302757
1.94372
-0.262358
1.95115
-0.220737
1.95766
-0.177785
1.96318
-0.133599
1.96791
-0.0875322
-0.0389469
1.93645
1.951
-0.451978
1.96548
-0.453388
1.98072
-0.463525
1.99643
-0.463392
2.01097
-0.434838
2.02384
-0.394285
2.03504
-0.353586
2.04504
-0.312756
2.0537
-0.271018
2.06123
-0.22827
2.06771
-0.184264
2.07322
-0.139107
2.07796
-0.0922803
-0.0427966
2.06405
-0.467225
2.07924
-0.468576
2.09497
-0.47925
2.11114
-0.479569
2.1263
-0.449996
2.13949
-0.407471
2.1511
-0.365195
2.16112
-0.322777
2.16991
-0.27981
2.17756
-0.235917
2.18402
-0.190733
2.18965
-0.144737
2.1943
-0.0969259
-0.0467048
2.18339
-0.483072
2.19916
-0.484349
2.21575
-0.495836
2.23256
-0.496379
2.2481
-0.465542
2.26178
-0.42115
2.27372
-0.37713
2.28404
-0.333098
2.29298
-0.288755
2.30065
-0.243581
2.30725
-0.197333
2.31264
-0.150132
2.31732
-0.101601
-0.0507974
2.30959
2.32599
-0.500748
2.34311
-0.512961
2.36072
-0.513989
2.37681
-0.481625
2.39099
-0.435334
2.40329
-0.389426
2.41394
-0.34375
2.42306
-0.297882
2.43077
-0.251285
2.43728
-0.203841
2.44295
-0.155803
2.44753
-0.106189
-0.0547028
2.45999
-0.518063
2.47777
-0.530741
2.49612
-0.532336
2.51302
-0.498519
2.52763
-0.449945
2.54032
-0.402118
2.55121
-0.354637
2.56055
-0.307225
2.56832
-0.259058
2.57513
-0.210649
2.5806
-0.161273
2.58536
-0.11095
-0.0585495
2.60128
-0.535918
2.62005
-0.549514
2.63913
-0.551416
2.65667
-0.516055
2.67184
-0.465118
2.68508
-0.415358
2.69636
-0.365923
2.70583
-0.316688
2.71395
-0.267176
2.72058
-0.217287
2.72624
-0.166931
2.73082
-0.115527
-0.0624692
2.75079
-0.554739
2.77028
-0.569012
2.79016
-0.571288
2.80856
-0.534461
2.82451
-0.48107
2.83796
-0.428806
2.84956
-0.377517
2.85942
-0.326553
2.86767
-0.275421
2.87441
-0.22403
2.88016
-0.172679
2.88481
-0.120185
-0.0663464
2.90833
2.929
-0.589681
2.94981
-0.592104
2.96895
-0.553596
2.9854
-0.497517
2.99961
-0.443017
3.01167
-0.389577
3.02172
-0.336605
3.03012
-0.283826
3.03725
-0.231154
3.04286
-0.178291
3.04749
-0.124815
-0.0701954
3.09648
-0.61116
3.11839
-0.614013
3.13837
-0.57358
3.15567
-0.514815
3.17041
-0.457753
3.18285
-0.402018
3.19337
-0.347128
3.20197
-0.292423
3.20901
-0.238192
3.21475
-0.18404
3.21963
-0.129689
-0.0740278
3.27345
-0.633739
3.2963
-0.636861
3.31728
-0.594564
3.33532
-0.532851
3.35076
-0.473191
3.36361
-0.414875
3.3744
-0.357913
3.38347
-0.301492
3.3907
-0.245422
3.39661
-0.189953
3.40125
-0.134332
3.46022
-0.657334
3.48425
-0.660887
3.50618
-0.616498
3.52511
-0.551776
3.54117
-0.489259
3.55474
-0.428439
3.56594
-0.369116
3.57515
-0.310697
3.5826
-0.252878
3.58858
-0.195934
-0.13914
3.65752
3.68277
-0.686133
3.70583
-0.639564
3.72558
-0.571521
3.7423
-0.505977
3.75648
-0.442622
3.76814
-0.380776
3.77764
-0.320196
3.78535
-0.26059
3.79155
-0.202137
-0.143888
3.89241
-0.712813
3.9166
-0.663752
3.93722
-0.592144
3.95488
-0.523638
3.96947
-0.457212
3.98175
-0.393057
3.99158
-0.330024
3.99958
-0.268594
4.00567
-0.208218
-0.148855
4.11348
-0.740539
4.13902
-0.689292
4.16077
-0.6139
4.17906
-0.541926
4.1946
-0.472753
4.20716
-0.405619
4.21748
-0.340345
4.22569
-0.276797
4.23218
-0.21471
-0.153818
4.34716
-0.770008
4.37367
-0.715796
4.39664
-0.636875
4.41596
-0.561238
4.43199
-0.488784
4.44525
-0.418882
4.45598
-0.351071
4.46441
-0.285236
4.47097
-0.221268
-0.158933
4.59354
-0.800897
4.62172
-0.743977
4.64556
-0.660717
4.66583
-0.581502
4.68264
-0.5056
4.69665
-0.432887
4.70769
-0.362117
4.71653
-0.294074
4.72332
-0.228052
-0.164108
4.85365
4.88316
-0.773481
4.90842
-0.685982
4.92969
-0.602771
4.94734
-0.523246
4.96175
-0.4473
4.97353
-0.373901
4.98256
-0.303099
4.98973
-0.235229
-0.169248
5.15925
-0.804507
5.18574
-0.712474
5.20806
-0.62509
5.22671
-0.541899
5.24183
-0.462418
5.25402
-0.386091
5.26353
-0.312605
5.27075
-0.242457
-0.174771
5.45054
-0.837268
5.47841
-0.740343
5.50196
-0.648643
5.52142
-0.561359
5.53742
-0.478418
5.55006
-0.398732
5.56009
-0.322633
5.56754
-0.249902
5.758
-0.871642
5.78737
-0.769705
5.81207
-0.673344
5.83249
-0.581782
5.84916
-0.495092
5.86255
-0.412119
5.87289
-0.332973
-0.257857
6.08241
-0.907945
6.11327
-0.800559
6.13918
-0.69926
6.16077
-0.603371
6.1783
-0.512615
6.19222
-0.426045
6.20304
-0.343795
-0.266108
6.42475
-0.946125
6.45715
-0.832964
6.48445
-0.72656
6.50711
-0.62603
6.52553
-0.53103
6.54016
-0.440681
6.55151
-0.355141
-0.274571
6.78515
6.81956
-0.867373
6.84865
-0.755651
6.87245
-0.649827
6.89181
-0.550386
6.90644
-0.455314
6.91899
-0.36769
-0.283416
7.20295
-0.903957
7.23217
-0.784866
7.25775
-0.675407
7.27721
-0.569849
7.2943
-0.4724
7.30645
-0.379843
-0.291923
7.60541
-0.940505
7.63829
-0.817751
7.66373
-0.700845
7.68551
-0.591626
7.70231
-0.489203
7.71411
-0.391643
-0.302557
5.52907
-0.947613
5.53768
-0.826363
5.55044
-0.713607
5.56742
-0.608607
5.58612
-0.507903
5.60912
-0.414644
-0.328655
6.0848
-0.952682
6.09511
-0.836672
6.10946
-0.727958
6.12669
-0.625839
6.14811
-0.52932
6.17375
-0.44029
-0.356061
6.69666
-0.958421
6.70754
-0.847546
6.72365
-0.744074
6.74256
-0.64474
6.76683
-0.553594
6.79398
-0.467441
-0.38617
7.37103
-0.965033
7.38394
-0.860458
7.39942
-0.759553
7.42143
-0.666744
7.44744
-0.579608
7.47752
-0.497517
8.11301
-0.97399
8.1256
-0.873047
8.14447
-0.778425
8.16848
-0.690754
8.1964
-0.607528
-0.529398
8.92775
-0.981694
8.94273
-0.888029
8.96264
-0.798331
8.98884
-0.71695
9.0201
-0.638792
-0.565792
9.82654
9.84165
-0.90314
9.86403
-0.820717
9.89259
-0.745508
9.9261
-0.672299
-0.605579
10.8305
-0.919728
10.8543
-0.844458
10.8853
-0.776564
10.9225
-0.70945
-0.648896
11.916
-0.937903
11.9424
-0.870889
11.9747
-0.808854
12.0155
-0.750213
-0.695663
13.1068
-0.958045
13.135
-0.89914
13.1729
-0.846702
13.2166
-0.793886
-0.747767
14.4137
-0.97848
14.4446
-0.930047
14.4824
-0.884458
14.5309
-0.842418
-0.803377
15.87
-1.00387
15.907
-0.966965
15.9531
-0.930573
16.0097
-0.899029
-0.867947
17.4905
17.5255
17.5737
17.6313
)
;

boundaryField
{
    inlet
    {
        type            calculated;
        value           nonuniform List<scalar> 5(-1.02865 -1.00205 -0.978738 -0.956618 -0.936406);
    }
    outlet
    {
        type            calculated;
        value           nonuniform List<scalar> 0();
    }
    walls
    {
        type            calculated;
        value           uniform 0;
    }
    frontAndBack
    {
        type            empty;
    }
    procBoundary1to0
    {
        type            processor;
        value           nonuniform List<scalar> 
94
(
-0.287835
0.0519755
-0.337637
0.0046288
-0.390848
-0.047945
-0.421099
-0.102951
-0.419062
-0.156805
-0.40668
-0.209053
-0.227921
-0.421621
-0.281264
-0.303739
-0.413969
-0.356982
-0.383339
-0.411117
-0.424473
-0.467335
-0.499485
-0.409006
-0.557223
-0.594122
-0.633118
-0.410649
-0.69576
-0.740182
-0.787074
-0.411447
-0.856202
-0.909289
-0.398738
-0.982921
-1.04288
-1.10615
-0.405333
-1.18946
-1.26065
-1.33582
-0.416811
-1.43108
-1.51569
-1.60494
-0.434868
-1.71494
-1.81498
-1.92094
-0.46196
-2.04881
-2.16754
-2.29301
-0.49965
-2.44268
-2.58342
-2.73196
-2.88865
-0.574414
-3.075
-3.25087
-3.43662
-3.6326
-0.682252
-3.86573
-4.08575
-4.3177
-4.56265
-4.82129
-0.833261
-5.12822
-5.41778
-5.72363
-6.04611
-6.38657
-6.74594
-0.985336
-7.16637
-7.56886
-5.52196
-6.07973
-6.69093
-7.36442
-8.10405
-8.92005
-9.81734
-0.990891
-10.8139
-11.8978
-13.0866
-14.3933
-15.8447
-17.4657
)
;
    }
    procBoundary1to2
    {
        type            processor;
        value           nonuniform List<scalar> 
84
(
0.206439
0.23277
0.251745
0.268373
0.282076
0.297492
0.313233
0.330052
0.347668
0.366257
0.385814
0.406409
0.428099
0.450934
0.475
0.500342
0.527036
0.555141
0.584783
0.615998
0.648927
0.683606
0.720205
0.758776
0.79954
0.84244
0.8877
0.935703
0.986094
1.03951
1.09596
1.15547
1.21832
1.28502
1.35523
1.42971
1.50825
1.5915
0.0257837
1.67657
1.76954
1.86782
1.97182
2.08181
2.19821
2.32141
2.45144
2.58921
2.73474
2.88869
3.05134
3.22346
3.40509
-0.0778623
3.59339
3.7963
4.01063
4.23714
4.47609
4.72849
4.99487
5.27628
5.57322
-0.180457
5.88085
6.21129
6.55997
6.92783
7.31496
7.72475
5.63522
6.20116
6.82409
7.51173
-0.420388
8.22828
9.05649
9.96588
10.9658
12.0623
13.2687
14.5865
16.0743
17.6998
)
;
    }
    procBoundary1to5
    {
        type            processor;
        value           nonuniform List<scalar> 
13
(
0.0219569
0.0343784
0.0478625
0.0393976
0.0995606
0.0627625
0.0542972
0.158995
0.0788002
0.0718554
0.0650633
0.251539
0.0948379
)
;
    }
}


// ************************************************************************* //
