/*--------------------------------*- C++ -*----------------------------------*\
| =========                 |                                                 |
| \\      /  F ield         | OpenFOAM: The Open Source CFD Toolbox           |
|  \\    /   O peration     | Version:  2506                                  |
|   \\  /    A nd           | Website:  www.openfoam.com                      |
|    \\/     M anipulation  |                                                 |
\*---------------------------------------------------------------------------*/
FoamFile
{
    version     2.0;
    format      ascii;
    arch        "LSB;label=32;scalar=64";
    class       volSymmTensorField;
    location    "250";
    object      turbulenceProperties:R;
}
// * * * * * * * * * * * * * * * * * * * * * * * * * * * * * * * * * * * * * //

dimensions      [0 2 -2 0 0 0 0];

internalField   nonuniform List<symmTensor> 
1340
(
(0.00194553 0.000261361 5.73393e-20 0.00191606 -2.26442e-20 0.00190759)
(0.00211324 0.000277898 1.01417e-19 0.00191808 -5.1301e-20 0.00199794)
(0.00295755 0.000385179 -8.01595e-20 0.00247011 2.02636e-20 0.00271125)
(0.00451401 0.000623758 -2.35966e-20 0.00352057 1.11284e-19 0.00402696)
(0.00693475 0.00109489 1.74286e-19 0.00509592 7.25074e-20 0.00603417)
(0.0105114 0.00197137 3.58653e-19 0.0073279 -5.5839e-20 0.00895495)
(0.0156724 0.00349515 -6.86473e-21 0.0104662 -2.18669e-19 0.0131343)
(0.0229292 0.0059175 -7.16805e-20 0.0148955 -1.54525e-19 0.0190124)
(0.0330186 0.00952989 2.47713e-20 0.0213046 -5.36531e-20 0.0273119)
(0.0472612 0.014753 -1.86021e-19 0.0308202 6.32407e-19 0.0392469)
(0.0681629 0.0224746 7.12336e-19 0.045445 2.6483e-19 0.0570891)
(0.100406 0.034438 3.18678e-19 0.0687716 -1.18395e-18 0.08498)
(0.152298 0.0539292 -1.29519e-18 0.107422 -3.39849e-19 0.130434)
(0.240305 0.0874975 -4.38498e-18 0.174673 -2.0044e-18 0.208364)
(0.393969 0.147363 -3.32928e-18 0.295623 -8.90573e-19 0.346253)
(0.683005 0.262572 6.20009e-18 0.530507 -5.75937e-19 0.609411)
(1.22859 0.486577 -7.44704e-18 0.992972 1.20502e-18 1.11622)
(2.39684 0.978433 4.06571e-18 2.0229 -7.22347e-18 2.22163)
(4.80486 2.01683 -1.26367e-16 4.23283 2.6055e-18 4.54339)
(10.5297 4.53319 -7.83389e-17 9.67109 1.23189e-17 10.1581)
(21.2709 9.37026 6.5934e-17 20.3482 8.34855e-19 20.9301)
(29.549 13.2923 8.69829e-18 29.4286 -1.27341e-19 29.645)
(32.6409 14.9594 6.28791e-17 33.8001 4.82726e-19 33.368)
(33.0595 15.398 -4.37148e-16 35.5129 -4.92933e-18 34.4096)
(32.6473 15.4179 1.57328e-16 36.2863 2.08891e-17 34.5678)
(31.9244 15.2557 -1.88877e-15 36.6232 -1.5294e-16 34.3575)
(30.9833 14.9556 -3.45829e-15 36.6025 -2.3835e-16 33.8632)
(29.8508 14.5332 1.05821e-15 36.2472 1.08036e-16 33.1095)
(0.00153857 0.000150817 2.61012e-20 0.00133581 -8.34609e-20 0.00143909)
(0.00131411 0.000152942 -1.19457e-19 0.00121215 3.15292e-21 0.00126824)
(0.00111346 0.000139681 1.82414e-20 0.00109247 8.08263e-20 0.00110885)
(0.000921863 0.000116342 4.58134e-22 0.000968349 -4.75386e-20 0.000948537)
(0.000751451 8.76925e-05 -2.9972e-20 0.000839609 -2.84182e-20 0.000794762)
(0.000614941 6.18726e-05 -2.10369e-20 0.000717129 -2.97601e-20 0.000661665)
(0.000506744 4.21432e-05 -3.79538e-21 0.000605905 6.32061e-21 0.000549819)
(0.000418954 2.82106e-05 1.22205e-20 0.000506996 3.28865e-20 0.000455519)
(0.000346677 1.88843e-05 2.00741e-20 0.000420641 7.75626e-21 0.000376005)
(0.000286747 1.28394e-05 -2.68749e-20 0.000346585 -1.37199e-21 0.000309334)
(0.000236335 8.97649e-06 2.22281e-20 0.000283038 2.29704e-21 0.000253069)
(0.000193759 6.45742e-06 -2.36525e-21 0.000228929 -6.93792e-21 0.000205705)
(0.000156354 4.61735e-06 -6.86371e-21 0.000181388 1.09217e-20 0.000164407)
(0.000121895 3.1079e-06 -4.01046e-21 0.000138107 4.3666e-21 0.00012682)
(8.72316e-05 1.73916e-06 -6.00912e-21 9.58309e-05 6.76228e-21 8.96802e-05)
(5.2421e-05 6.6431e-07 -3.51994e-21 5.55485e-05 1.82656e-21 5.32442e-05)
(1.84593e-05 8.33613e-08 -6.75328e-22 1.88397e-05 5.81641e-23 1.85489e-05)
(3.02035e-06 2.25432e-09 8.15671e-24 3.03014e-06 7.75738e-25 3.02227e-06)
(7.73779e-06 1.61046e-08 -3.72361e-24 7.79773e-06 5.11209e-24 7.74667e-06)
(0.000851558 0.000193107 4.76128e-19 0.00143 1.24769e-19 0.000911219)
(0.00452267 0.0013339 2.64985e-18 0.00782929 -1.89379e-19 0.00474589)
(0.0372717 0.0119789 1.08216e-18 0.0621486 -4.52613e-19 0.0383569)
(0.128166 0.0459348 -7.54403e-19 0.204327 1.03954e-19 0.13066)
(0.256366 0.102739 4.96379e-17 0.386289 2.003e-18 0.261257)
(0.39113 0.170709 4.02638e-16 0.554381 9.78256e-18 0.401779)
(0.512696 0.235273 2.39503e-16 0.689888 1.30966e-17 0.533423)
(0.614577 0.28941 1.76232e-15 0.799604 1.21061e-16 0.648595)
(0.701458 0.334968 2.54456e-15 0.89818 1.70449e-16 0.750696)
(0.77901 0.375413 -5.7042e-16 0.995283 -9.77241e-17 0.845195)
(0.00124272 0.000115279 9.03805e-21 0.00105704 5.48209e-20 0.00114971)
(0.00108697 0.000121534 5.94004e-20 0.000979517 6.37672e-20 0.00103367)
(0.000943465 0.000117549 2.02083e-20 0.000906322 -5.07495e-20 0.000925726)
(0.000803056 0.000104274 4.50864e-20 0.00082423 2.67202e-20 0.000814245)
(0.000664105 8.44454e-05 -3.1861e-20 0.000723525 8.18799e-21 0.000694576)
(0.000538844 6.38386e-05 -4.60962e-21 0.000616379 2.70039e-20 0.000579048)
(0.000432613 4.57725e-05 2.01533e-21 0.00051441 -2.43312e-20 0.000475849)
(0.000344871 3.11649e-05 4.36026e-20 0.000422724 -3.06965e-20 0.000387119)
(0.0002748 2.01005e-05 3.30697e-21 0.000344647 -4.84088e-21 0.000313878)
(0.000219728 1.20363e-05 -4.90893e-21 0.000280085 2.02959e-20 0.000254769)
(0.000177752 6.39334e-06 3.15883e-20 0.00022885 -3.73184e-20 0.000208685)
(0.000146501 2.47461e-06 5.16332e-21 0.000189406 4.53538e-21 0.00017373)
(0.000124162 -2.96717e-07 3.68325e-20 0.000160355 -2.57481e-21 0.000148276)
(0.000108443 -2.41049e-06 3.966e-20 0.000139145 8.88961e-21 0.000130005)
(9.79512e-05 -4.16102e-06 1.02367e-19 0.000124188 -1.35211e-20 0.000117421)
(9.16328e-05 -5.8454e-06 1.33962e-19 0.000113925 -2.0265e-20 0.000109318)
(8.90269e-05 -7.67134e-06 8.09175e-20 0.000107298 7.01671e-21 0.000104987)
(8.91493e-05 -9.44223e-06 1.89337e-20 0.000101816 -3.8736e-21 0.000102908)
(9.23151e-05 -1.05732e-05 -2.07338e-20 9.7742e-05 1.00202e-20 0.000103466)
(9.52057e-05 -1.00416e-05 7.57049e-20 9.32766e-05 -1.23116e-20 0.000103153)
(0.000104317 -9.47105e-06 -2.05227e-20 9.58356e-05 -2.0026e-21 0.000110066)
(6.25482e-05 -2.74725e-06 -6.23825e-21 5.7953e-05 1.28788e-22 6.38801e-05)
(0.000474474 -6.55924e-05 2.47024e-20 0.000295684 -7.81114e-22 0.000502388)
(0.00326073 -0.000271903 -1.42316e-18 0.00168632 -5.41466e-20 0.00340952)
(0.00933795 0.000426478 -8.62551e-18 0.00468137 -8.38913e-20 0.00965731)
(0.0187942 0.00469011 -5.47833e-17 0.0112759 -3.1788e-18 0.0193819)
(0.0386333 0.0154515 -1.34272e-16 0.0317125 -4.49086e-18 0.039987)
(0.0760329 0.0343002 -3.34e-16 0.0748207 -2.29756e-17 0.0793116)
(0.130257 0.0608758 -8.55073e-16 0.139785 -7.62137e-17 0.137329)
(0.00107621 6.60776e-05 2.0938e-20 0.000865051 -5.98577e-21 0.00097079)
(0.000980764 8.44502e-05 2.26433e-20 0.000822582 -5.8785e-22 0.000901527)
(0.000878953 9.33468e-05 -5.58885e-20 0.000777324 -3.37761e-20 0.000828155)
(0.000775148 9.34948e-05 -3.05294e-20 0.000727808 2.63969e-21 0.000751935)
(0.000668408 8.57699e-05 5.06087e-20 0.000668342 2.28403e-20 0.000669024)
(0.000565353 7.27264e-05 2.36137e-20 0.000599821 -1.93753e-21 0.00058315)
(0.000474449 5.81073e-05 2.7949e-20 0.00053 -1.7256e-20 0.000502515)
(0.000398349 4.43929e-05 -4.31441e-20 0.000464218 -2.82816e-20 0.00043114)
(0.000335836 3.2676e-05 -5.3472e-20 0.000404526 1.00934e-20 0.000369546)
(0.00028519 2.33512e-05 4.87852e-21 0.000351981 1.41308e-20 0.00031744)
(0.000244164 1.62555e-05 1.65255e-20 0.000306518 -4.91805e-21 0.00027374)
(0.000211303 1.10712e-05 -4.05677e-20 0.000268247 -3.21344e-21 0.000237761)
(0.000185058 7.34849e-06 -1.55826e-21 0.000236562 -6.45849e-21 0.000208455)
(0.000164282 4.64531e-06 -1.55654e-20 0.000210846 -3.04766e-21 0.000184932)
(0.000147522 2.56436e-06 3.2689e-20 0.000189733 -1.88348e-20 0.000165806)
(0.000134021 8.49183e-07 -3.55849e-20 0.000172456 -1.23694e-20 0.00015027)
(0.000122792 -7.18161e-07 -7.3961e-20 0.000157823 -8.73683e-21 0.000137231)
(0.000112887 -2.26656e-06 3.34485e-21 0.00014455 -1.12072e-20 0.000125546)
(0.000102627 -3.70417e-06 1.89325e-20 0.00013041 -1.07782e-20 0.000113283)
(9.21991e-05 -4.60539e-06 5.73427e-20 0.00011583 -4.0004e-21 0.000100625)
(8.36255e-05 -4.88858e-06 -5.37361e-20 0.00010376 -3.11968e-21 8.99605e-05)
(7.72187e-05 -4.83443e-06 -9.23855e-21 9.46551e-05 2.87751e-21 8.18214e-05)
(7.26533e-05 -4.6709e-06 5.59183e-21 8.81543e-05 4.91126e-22 7.58951e-05)
(6.6899e-05 -4.28649e-06 -2.5611e-21 8.02324e-05 -1.03425e-22 6.89569e-05)
(5.91123e-05 -3.80488e-06 -3.71043e-21 7.01466e-05 1.84201e-22 6.02423e-05)
(4.49033e-05 -2.80391e-06 -5.48644e-21 5.21983e-05 -2.85603e-22 4.52784e-05)
(2.87224e-05 -1.69859e-06 1.3607e-20 3.25077e-05 3.91599e-22 2.86647e-05)
(0.000200368 -5.49763e-05 1.93077e-18 0.000303691 1.24997e-19 0.000184334)
(0.000395647 -4.54006e-05 1.86816e-17 0.00050558 1.74062e-18 0.000287257)
(0.00167825 0.000602292 7.87037e-17 0.00130387 1.03971e-17 0.00134061)
(0.000858114 4.83596e-05 -5.38239e-20 0.000685159 2.76251e-20 0.000771641)
(0.000791943 6.3918e-05 7.53491e-20 0.000656858 3.91221e-20 0.000724215)
(0.000720058 7.29016e-05 -2.43752e-20 0.000627094 -7.08057e-20 0.000673508)
(0.000644709 7.53565e-05 -3.32824e-20 0.000594035 9.44779e-21 0.000619474)
(0.000566033 7.16107e-05 -2.26955e-20 0.000553785 -3.94116e-20 0.000560101)
(0.000489188 6.33141e-05 7.9494e-21 0.000506993 1.2001e-20 0.000498263)
(0.000418523 5.28335e-05 -1.48962e-20 0.000456676 -1.94826e-20 0.000437758)
(0.000355876 4.2065e-05 -3.0767e-20 0.000405672 4.13916e-20 0.000380962)
(0.000301268 3.21383e-05 3.26353e-20 0.000355932 1.91487e-20 0.000328866)
(0.000254409 2.36674e-05 2.77357e-20 0.000309155 -1.2756e-20 0.000282165)
(0.000214677 1.68076e-05 -5.6997e-21 0.000266556 -1.14175e-20 0.00024116)
(0.000181471 1.14769e-05 1.65637e-20 0.000228954 3.68986e-21 0.000205932)
(0.000154128 7.42228e-06 -2.45422e-20 0.000196708 6.27094e-21 0.000176318)
(0.000131989 4.34717e-06 1.73796e-20 0.000169796 -4.567e-22 0.00015196)
(0.000114182 1.94874e-06 -2.28827e-20 0.0001476 -1.06887e-20 0.000132116)
(0.000100004 -8.85021e-09 2.20809e-20 0.000129483 1.84692e-21 0.000116097)
(8.86534e-05 -1.71753e-06 2.96104e-20 0.000114497 6.48015e-21 0.000103038)
(7.93395e-05 -3.28697e-06 -2.06552e-21 0.000101572 2.71866e-21 9.2005e-05)
(7.07612e-05 -4.65797e-06 -5.55217e-20 8.89174e-05 2.3939e-23 8.15035e-05)
(6.22301e-05 -5.53094e-06 -2.06714e-20 7.58605e-05 -8.8338e-21 7.08429e-05)
(5.44246e-05 -5.80796e-06 -6.09296e-21 6.37397e-05 9.39874e-21 6.09879e-05)
(4.83959e-05 -5.71957e-06 2.25732e-20 5.38865e-05 2.81659e-22 5.32239e-05)
(4.45601e-05 -5.39433e-06 8.12712e-22 4.66741e-05 -1.85639e-22 4.79373e-05)
(4.35261e-05 -5.06264e-06 -1.29382e-21 4.27225e-05 1.11052e-22 4.57609e-05)
(4.12521e-05 -4.09786e-06 1.36239e-20 3.8354e-05 6.14387e-23 4.23699e-05)
(5.1729e-05 -5.49675e-06 1.54915e-20 4.50272e-05 5.00298e-22 5.23283e-05)
(1.18849e-05 -3.1943e-07 -4.9207e-21 1.13728e-05 -2.71824e-22 1.18669e-05)
(8.49526e-05 -1.24008e-05 -5.4922e-19 6.21301e-05 -4.26191e-20 8.21554e-05)
(0.000439809 -0.000103962 -1.01712e-18 0.000233956 -1.25712e-19 0.000397328)
(0.00111219 -0.000257738 1.99513e-18 0.0005627 1.69979e-20 0.000952226)
(0.000734297 1.93247e-05 -1.09608e-20 0.000571212 2.80375e-21 0.000652835)
(0.000695102 3.59244e-05 4.74856e-20 0.000552041 3.38495e-20 0.000623472)
(0.00064756 4.91015e-05 -2.97859e-20 0.000532287 -5.08228e-20 0.000589794)
(0.000595443 5.75785e-05 1.50176e-20 0.000512108 2.50696e-20 0.000553745)
(0.000539629 6.10529e-05 -1.72395e-20 0.000489339 -3.62306e-21 0.00051452)
(0.000480717 5.96775e-05 -5.23491e-20 0.000461391 -2.17073e-21 0.000471159)
(0.000422448 5.45289e-05 3.75143e-20 0.000428736 8.41364e-21 0.000425711)
(0.000367783 4.7166e-05 -7.13567e-21 0.00039292 1.02729e-20 0.000380462)
(0.000318327 3.89884e-05 2.14252e-20 0.000355793 1.69161e-20 0.000337156)
(0.000274588 3.09771e-05 7.7246e-21 0.000318877 -1.93147e-20 0.000296786)
(0.000236648 2.37702e-05 -5.82175e-21 0.000283493 -1.40672e-20 0.000260057)
(0.000204274 1.76483e-05 -2.25032e-20 0.000250781 8.86154e-21 0.000227436)
(0.000177056 1.26797e-05 -2.7364e-20 0.00022144 1.27898e-20 0.000199063)
(0.000154464 8.75845e-06 1.125e-20 0.000195831 -7.80135e-22 0.000174863)
(0.000135915 5.69559e-06 -4.58214e-21 0.000173973 -5.25925e-21 0.000154558)
(0.000120722 3.26212e-06 -2.31597e-20 0.000155509 -1.38893e-24 0.000137635)
(0.000108236 1.26538e-06 -2.5995e-20 0.00013991 -6.14341e-21 0.000123501)
(9.77347e-05 -4.64359e-07 -2.19589e-20 0.000126397 1.58921e-21 0.000111414)
(8.84837e-05 -2.02993e-06 2.33359e-20 0.000114053 -1.03643e-20 0.000100546)
(7.94702e-05 -3.39772e-06 -5.73656e-21 0.000101564 1.07235e-20 8.97485e-05)
(7.02148e-05 -4.3405e-06 -3.49917e-20 8.84889e-05 8.25973e-21 7.85385e-05)
(6.14112e-05 -4.75674e-06 4.66299e-20 7.60651e-05 -2.72025e-21 6.78321e-05)
(5.37065e-05 -4.81226e-06 3.70808e-21 6.5272e-05 -2.78228e-21 5.84754e-05)
(4.72367e-05 -4.6665e-06 6.80334e-22 5.62789e-05 -2.71929e-22 5.0628e-05)
(4.17794e-05 -4.38362e-06 1.69134e-21 4.87993e-05 3.81705e-23 4.40158e-05)
(3.71978e-05 -4.01345e-06 -1.71822e-20 4.2663e-05 -7.1894e-22 3.84824e-05)
(3.3207e-05 -3.57153e-06 -9.90892e-21 3.74793e-05 -1.0427e-21 3.37271e-05)
(2.95104e-05 -3.15674e-06 5.0695e-20 3.27926e-05 4.08119e-21 2.94357e-05)
(2.37164e-05 -2.36113e-06 3.47178e-20 2.5681e-05 2.46936e-21 2.32412e-05)
(1.54977e-05 -1.22965e-06 -1.8621e-20 1.61174e-05 -1.30958e-21 1.49902e-05)
(9.59506e-09 -6.21352e-13 1.1886e-26 9.59505e-09 1.50089e-27 9.59463e-09)
(0.000599729 1.36743e-05 -1.33086e-21 0.000465717 -9.62932e-21 0.000532775)
(0.000570855 2.71861e-05 -1.60421e-20 0.00045143 8.25275e-21 0.00051105)
(0.000536169 3.83442e-05 1.82385e-20 0.000437498 1.77604e-20 0.000486751)
(0.000497335 4.60405e-05 4.27888e-20 0.000423296 1.87775e-20 0.000460304)
(0.000455106 4.98665e-05 2.92001e-20 0.000407161 -7.45204e-22 0.000431141)
(0.000410577 4.99275e-05 -8.2673e-21 0.000387691 7.29835e-21 0.000399174)
(0.000366141 4.69023e-05 -3.93503e-20 0.000364885 -1.47843e-20 0.000365558)
(0.000323718 4.18218e-05 2.77275e-20 0.000339341 1.90507e-20 0.000331575)
(0.000284399 3.56909e-05 1.3844e-21 0.000312018 -2.17088e-20 0.000298263)
(0.000248677 2.92969e-05 1.48343e-21 0.000283852 -9.89729e-21 0.000266323)
(0.000216799 2.32251e-05 -2.21773e-20 0.000255797 8.80657e-21 0.000236354)
(0.000188751 1.78007e-05 1.27664e-20 0.000228804 1.35665e-20 0.000208842)
(0.000164383 1.31822e-05 5.59869e-20 0.000203561 4.65459e-21 0.000184052)
(0.000143474 9.37241e-06 -2.04055e-20 0.000180608 -3.40713e-22 0.000162144)
(0.000125738 6.27918e-06 -4.24174e-21 0.000160233 -4.68343e-22 0.000143118)
(0.000110769 3.75362e-06 -2.9206e-20 0.000142392 1.89323e-20 0.000126751)
(9.81598e-05 1.65189e-06 -2.21638e-20 0.000126865 3.38228e-21 0.000112722)
(8.74305e-05 -1.56479e-07 2.51751e-20 0.000113195 6.30012e-21 0.000100561)
(7.80327e-05 -1.75201e-06 -5.84594e-20 0.000100725 6.17842e-21 8.96656e-05)
(6.92267e-05 -3.11696e-06 1.96216e-20 8.85088e-05 1.82437e-22 7.92057e-05)
(6.05674e-05 -4.08517e-06 3.87635e-20 7.61129e-05 5.84725e-22 6.87377e-05)
(5.24211e-05 -4.56491e-06 -1.59548e-20 6.43229e-05 -4.43779e-21 5.8804e-05)
(4.52817e-05 -4.67917e-06 -1.73426e-20 5.39339e-05 3.07945e-22 5.00757e-05)
(3.93045e-05 -4.56693e-06 -4.17083e-21 4.51391e-05 2.37414e-22 4.27495e-05)
(3.43656e-05 -4.29521e-06 -5.10955e-22 3.77615e-05 1.84074e-23 3.66703e-05)
(3.03984e-05 -3.90395e-06 2.07777e-21 3.17114e-05 5.48842e-22 3.17535e-05)
(2.75172e-05 -3.44047e-06 -2.70004e-20 2.70684e-05 -8.64497e-22 2.81064e-05)
(2.57701e-05 -2.95339e-06 6.19438e-20 2.38988e-05 2.03813e-21 2.5756e-05)
(2.48875e-05 -2.49509e-06 2.63287e-21 2.19309e-05 -5.76892e-22 2.43986e-05)
(2.35631e-05 -1.9432e-06 4.01764e-20 2.00326e-05 4.14807e-21 2.2729e-05)
(2.17828e-05 -1.4032e-06 1.95543e-20 1.81381e-05 -6.26592e-22 2.07481e-05)
(0.000496266 9.72311e-06 -4.75638e-22 0.000384852 2.56754e-21 0.000440554)
(0.000474343 2.08695e-05 -2.45546e-21 0.000373802 -2.3021e-20 0.000423996)
(0.000448386 3.03479e-05 -7.99283e-20 0.000363661 -3.7703e-20 0.000405978)
(0.000418847 3.72169e-05 1.76076e-20 0.000353407 2.76589e-20 0.000386118)
(0.000386435 4.10482e-05 -5.21041e-21 0.000341786 1.88064e-21 0.000364104)
(0.000352364 4.19369e-05 4.22958e-20 0.000328076 1.44593e-20 0.00034024)
(0.000318074 4.03074e-05 -2.8156e-21 0.000311943 1.39972e-20 0.000315033)
(0.000284905 3.6863e-05 1.7888e-20 0.000293608 -6.28048e-21 0.000289281)
(0.000253636 3.2327e-05 -1.55402e-20 0.000273554 5.07686e-21 0.00026363)
(0.00022468 2.73045e-05 -2.84366e-20 0.000252343 8.22783e-21 0.000238549)
(0.000198344 2.22889e-05 7.50273e-21 0.000230648 3.75494e-21 0.000214524)
(0.000174768 1.76027e-05 1.23873e-20 0.000209253 -5.05793e-21 0.00019203)
(0.000153939 1.34397e-05 1.16475e-20 0.000188742 -2.22686e-20 0.000171347)
(0.000135802 9.86982e-06 1.63265e-20 0.000169667 5.72859e-21 0.000152724)
(0.000120206 6.87716e-06 -1.50016e-20 0.000152363 8.46115e-21 0.000136252)
(0.000106879 4.3757e-06 5.58608e-20 0.00013691 2.44293e-21 0.000121839)
(9.54901e-05 2.26561e-06 -1.31305e-20 0.000123175 7.78132e-21 0.000109255)
(8.5651e-05 4.47457e-07 2.59298e-20 0.000110841 -1.01867e-20 9.81452e-05)
(7.69029e-05 -1.14231e-06 3.98125e-20 9.94003e-05 2.54194e-21 8.80287e-05)
(6.86717e-05 -2.49596e-06 7.94532e-22 8.81547e-05 -8.96237e-21 7.82776e-05)
(6.06137e-05 -3.49212e-06 -1.0941e-20 7.6789e-05 -7.16e-21 6.85578e-05)
(5.29873e-05 -4.04923e-06 -1.00218e-20 6.58952e-05 1.5211e-21 5.9268e-05)
(4.61561e-05 -4.25224e-06 2.02511e-21 5.61215e-05 1.3247e-22 5.09261e-05)
(4.02196e-05 -4.22385e-06 4.19618e-21 4.76409e-05 1.96465e-22 4.36858e-05)
(3.50371e-05 -4.0326e-06 1.71042e-21 4.02974e-05 -3.11282e-23 3.73902e-05)
(3.04742e-05 -3.72175e-06 4.82356e-21 3.39531e-05 1.12646e-22 3.18924e-05)
(2.64952e-05 -3.33967e-06 1.90158e-20 2.85688e-05 1.75485e-21 2.71519e-05)
(2.3031e-05 -2.92457e-06 -1.08286e-19 2.4028e-05 -7.87412e-21 2.30819e-05)
(2.00299e-05 -2.51039e-06 -4.32758e-20 2.01801e-05 -1.73899e-21 1.96029e-05)
(1.74597e-05 -2.09379e-06 -2.38053e-21 1.68899e-05 -4.54511e-21 1.66438e-05)
(1.57644e-05 -1.7572e-06 -6.09689e-20 1.44871e-05 -7.11133e-21 1.4585e-05)
(0.00042724 -2.86178e-06 -3.23463e-20 0.000330202 -2.46714e-20 0.000378722)
(0.000414921 6.91683e-06 -1.85919e-20 0.00032143 -1.32542e-20 0.000368154)
(0.000398091 1.6207e-05 -4.71461e-21 0.000312803 -1.21974e-21 0.000355389)
(0.000378207 2.43011e-05 1.16506e-20 0.000305194 2.98484e-20 0.000341684)
(0.000355346 3.03745e-05 2.64617e-20 0.000297625 1.70879e-20 0.000326478)
(0.000330175 3.4039e-05 1.87737e-20 0.000289162 -1.22526e-20 0.000309658)
(0.00030376 3.53808e-05 -2.55804e-20 0.000279407 -1.59196e-20 0.000291592)
(0.000277057 3.46695e-05 5.34896e-20 0.000267938 2.37896e-21 0.000272508)
(0.00025097 3.23921e-05 -7.8092e-21 0.000254736 -2.39897e-20 0.000252862)
(0.000226036 2.90742e-05 4.56316e-20 0.000240019 9.79438e-21 0.000233045)
(0.000202566 2.51732e-05 3.51423e-20 0.000224076 4.87419e-21 0.000213343)
(0.000180823 2.10866e-05 -1.67214e-20 0.000207326 -6.98858e-21 0.000194095)
(0.000160953 1.70986e-05 2.86543e-21 0.000190323 -7.82856e-21 0.000175659)
(0.000143033 1.34105e-05 -4.29341e-20 0.000173547 1.96995e-21 0.00015831)
(0.000127067 1.01253e-05 -6.70744e-21 0.000157449 -5.13813e-21 0.000142277)
(0.000113003 7.27359e-06 3.00398e-20 0.00014237 1.5376e-21 0.000127705)
(0.000100705 4.82553e-06 6.00445e-22 0.00012849 -8.43563e-21 0.000114618)
(8.99703e-05 2.72402e-06 2.62057e-20 0.000115812 4.94879e-21 0.000102915)
(8.0526e-05 8.99803e-07 -2.94344e-20 0.00010416 -4.95919e-21 9.23718e-05)
(7.20356e-05 -6.89789e-07 -2.2443e-20 9.3198e-05 -4.97372e-21 8.26536e-05)
(6.41023e-05 -2.03839e-06 -4.44936e-20 8.2469e-05 1.45001e-21 7.33376e-05)
(5.64748e-05 -3.0566e-06 -3.34955e-20 7.17601e-05 5.1496e-21 6.41905e-05)
(4.92952e-05 -3.67244e-06 -3.59775e-21 6.14736e-05 7.95803e-22 5.54685e-05)
(4.28518e-05 -3.94363e-06 -1.27451e-20 5.21597e-05 5.6618e-22 4.75944e-05)
(3.72524e-05 -3.97402e-06 -4.27057e-22 4.40182e-05 -3.02856e-22 4.0738e-05)
(3.24089e-05 -3.83039e-06 -1.62029e-21 3.69614e-05 -1.49565e-22 3.48092e-05)
(2.82215e-05 -3.5554e-06 -6.08254e-22 3.08898e-05 -3.00854e-22 2.9702e-05)
(2.46711e-05 -3.19366e-06 1.33568e-20 2.57756e-05 -6.96216e-23 2.53952e-05)
(2.18038e-05 -2.78794e-06 1.94414e-22 2.16258e-05 3.44143e-22 2.19209e-05)
(1.96376e-05 -2.36912e-06 8.77759e-20 1.84391e-05 7.95532e-21 1.92733e-05)
(1.81854e-05 -1.95616e-06 -1.40021e-19 1.61636e-05 -9.79889e-21 1.74244e-05)
(1.74684e-05 -1.56185e-06 7.81781e-21 1.4753e-05 6.65399e-21 1.63707e-05)
(0.000349973 4.89683e-06 -5.76845e-20 0.000270895 -5.89068e-21 0.000310406)
(0.000336906 1.27142e-05 8.25826e-20 0.000264086 6.55531e-20 0.000300454)
(0.000321355 1.96556e-05 5.07993e-20 0.000258209 7.21375e-21 0.000289781)
(0.000303382 2.49984e-05 3.65644e-20 0.000252497 -7.08065e-21 0.000277935)
(0.000283638 2.8419e-05 -5.74503e-20 0.000246301 -2.56129e-20 0.000264958)
(0.000262924 2.99817e-05 -3.58148e-20 0.000239303 -6.8584e-21 0.000251118)
(0.000241922 2.98633e-05 -7.24829e-20 0.000231099 -2.32997e-20 0.000236513)
(0.000221277 2.8413e-05 -7.44243e-20 0.000221572 3.90796e-21 0.000221426)
(0.00020133 2.6016e-05 -3.6268e-20 0.000210766 -1.21086e-20 0.000206058)
(0.000182283 2.30137e-05 1.09955e-20 0.000198802 7.47209e-22 0.000190558)
(0.000164375 1.97199e-05 -6.79929e-21 0.000185948 1.76203e-21 0.000175175)
(0.000147738 1.63746e-05 -1.90969e-20 0.00017258 7.76073e-21 0.000160174)
(0.000132458 1.31593e-05 2.10817e-20 0.00015904 4.25951e-21 0.000145762)
(0.000118608 1.01926e-05 -2.57494e-20 0.00014572 -7.1889e-21 0.000132173)
(0.000106186 7.53574e-06 -2.77868e-21 0.000132913 -6.46826e-21 0.000119553)
(9.51324e-05 5.19126e-06 8.19026e-21 0.000120827 -6.01635e-21 0.000107978)
(8.5329e-05 3.13879e-06 2.52015e-20 0.000109534 -1.08622e-20 9.74241e-05)
(7.65859e-05 1.34015e-06 -1.07e-20 9.8951e-05 5.17917e-22 8.77556e-05)
(6.86575e-05 -2.29753e-07 -6.19073e-21 8.88653e-05 1.19417e-20 7.87441e-05)
(6.12649e-05 -1.56507e-06 -6.74081e-21 7.89872e-05 1.1108e-20 7.01071e-05)
(5.42082e-05 -2.59618e-06 2.48077e-20 6.9163e-05 3.38495e-21 6.16694e-05)
(4.75781e-05 -3.26177e-06 -3.00394e-22 5.96991e-05 3.13213e-21 5.36173e-05)
(4.15878e-05 -3.5998e-06 8.4992e-21 5.10431e-05 1.36125e-21 4.62808e-05)
(3.63209e-05 -3.69514e-06 -1.12965e-21 4.33875e-05 1.43598e-22 3.98095e-05)
(3.17031e-05 -3.61163e-06 -9.0921e-22 3.66784e-05 3.4395e-23 3.41392e-05)
(2.7638e-05 -3.39195e-06 -3.2923e-21 3.08309e-05 -1.25618e-22 2.91727e-05)
(2.40887e-05 -3.07998e-06 -1.38888e-20 2.58113e-05 -7.82394e-22 2.48745e-05)
(2.10475e-05 -2.71731e-06 -3.73173e-20 2.15909e-05 -2.32238e-21 2.12262e-05)
(1.84882e-05 -2.33183e-06 2.53855e-21 1.809e-05 -5.73506e-22 1.8181e-05)
(1.64983e-05 -1.94672e-06 1.26623e-19 1.5319e-05 1.68194e-20 1.57878e-05)
(1.50927e-05 -1.55326e-06 9.13588e-20 1.32428e-05 2.50861e-21 1.4049e-05)
(0.000287141 1.00575e-05 -7.62467e-20 0.000224619 -4.28501e-20 0.000255852)
(0.000274788 1.60325e-05 -5.81274e-20 0.000219981 -1.01507e-20 0.000247391)
(0.000260466 2.07291e-05 4.32568e-20 0.000215594 3.55994e-20 0.000238028)
(0.00024482 2.38736e-05 7.08832e-20 0.000211028 1.68961e-20 0.000227912)
(0.000228419 2.55162e-05 1.17865e-20 0.000205989 -1.06373e-21 0.000217206)
(0.000211751 2.57726e-05 5.28224e-20 0.00020009 3.61748e-20 0.000205921)
(0.000195289 2.49028e-05 6.84484e-20 0.000193194 2.7534e-20 0.000194239)
(0.000179265 2.31949e-05 -2.46357e-20 0.000185268 -7.54193e-21 0.00018227)
(0.000163811 2.09064e-05 1.48733e-20 0.000176331 7.00081e-23 0.00017008)
(0.000149081 1.82777e-05 -5.09991e-21 0.000166507 2.41864e-21 0.000157802)
(0.000135182 1.55009e-05 3.7624e-20 0.000156051 2.04629e-21 0.000145626)
(0.0001222 1.27362e-05 -1.3639e-20 0.000145189 -2.76644e-22 0.000133705)
(0.00011021 1.00967e-05 -3.64017e-20 0.00013421 1.40291e-20 0.000122219)
(9.92588e-05 7.65766e-06 -1.36873e-20 0.000123377 1.27113e-21 0.000111325)
(8.93315e-05 5.44935e-06 -3.19283e-20 0.000112881 5.18357e-21 0.000101111)
(8.03623e-05 3.47616e-06 -3.40328e-20 0.000102818 -5.13392e-22 9.15933e-05)
(7.2237e-05 1.72324e-06 -3.68973e-20 9.31836e-05 7.21054e-21 8.27129e-05)
(6.47916e-05 1.81801e-07 6.00039e-20 8.38654e-05 -6.1359e-21 7.43319e-05)
(5.78363e-05 -1.13572e-06 4.67641e-20 7.46917e-05 -1.47318e-21 6.6271e-05)
(5.12391e-05 -2.17335e-06 7.9478e-21 6.55888e-05 -5.513e-21 5.84282e-05)
(4.506e-05 -2.87876e-06 3.0935e-20 5.67965e-05 -3.34172e-21 5.09461e-05)
(3.94509e-05 -3.27318e-06 7.0809e-21 4.86743e-05 -1.76046e-21 4.40781e-05)
(3.44872e-05 -3.42498e-06 2.07202e-21 4.14144e-05 3.71158e-22 3.79671e-05)
(3.01231e-05 -3.39268e-06 -1.53404e-22 3.50072e-05 1.31707e-22 3.25868e-05)
(2.6289e-05 -3.21797e-06 -1.96404e-22 2.94031e-05 1.82389e-22 2.78732e-05)
(2.29614e-05 -2.94228e-06 6.9527e-21 2.45881e-05 7.45002e-22 2.3807e-05)
(2.01552e-05 -2.60651e-06 9.96694e-21 2.05574e-05 1.39103e-21 2.0396e-05)
(1.78838e-05 -2.24008e-06 2.025e-20 1.72959e-05 1.53256e-21 1.76364e-05)
(1.6218e-05 -1.86617e-06 4.52713e-20 1.48143e-05 -1.55841e-21 1.55636e-05)
(1.51404e-05 -1.47824e-06 -1.61019e-19 1.30535e-05 -2.08001e-20 1.41485e-05)
(0.000236263 1.3176e-05 1.86968e-20 0.000188538 1.02087e-20 0.000212409)
(0.000224729 1.73045e-05 2.66526e-20 0.000185125 -1.48277e-20 0.000204925)
(0.000212206 2.0167e-05 -9.09207e-20 0.000181734 -4.79548e-20 0.00019696)
(0.000199084 2.18016e-05 -7.45528e-20 0.000178081 -7.53151e-22 0.000188582)
(0.000185744 2.22898e-05 1.37055e-20 0.00017384 -1.38495e-21 0.00017979)
(0.000172538 2.18253e-05 6.38978e-20 0.000168851 -1.07531e-20 0.00017069)
(0.000159614 2.063e-05 -1.76878e-20 0.000163041 4.21857e-21 0.000161329)
(0.000147032 1.88979e-05 -1.01143e-20 0.000156366 -8.7455e-22 0.000151705)
(0.000134918 1.68148e-05 -2.54982e-21 0.000148893 -4.30903e-21 0.000141909)
(0.000123338 1.45331e-05 -1.31752e-20 0.000140764 -3.31106e-22 0.000132057)
(0.000112353 1.21826e-05 2.8468e-20 0.000132112 3.73686e-21 0.000122239)
(0.000102039 9.86593e-06 5.60842e-20 0.000123151 1.41607e-20 0.000112601)
(9.24476e-05 7.66079e-06 8.62793e-21 0.000114071 4.18833e-21 0.000103264)
(8.36056e-05 5.61138e-06 3.9815e-20 0.000105057 4.63835e-21 9.43351e-05)
(7.54963e-05 3.74192e-06 1.71848e-20 9.62225e-05 5.15845e-21 8.58605e-05)
(6.80521e-05 2.05556e-06 2.82259e-20 8.75984e-05 1.99145e-21 7.78235e-05)
(6.11593e-05 5.58082e-07 -3.96264e-20 7.91271e-05 -7.61313e-21 7.01401e-05)
(5.46956e-05 -7.33594e-07 -6.24646e-21 7.07233e-05 -1.01193e-20 6.27077e-05)
(4.85919e-05 -1.77033e-06 -2.37597e-20 6.23868e-05 -1.96831e-22 5.54905e-05)
(4.28825e-05 -2.50509e-06 -3.32571e-20 5.43041e-05 -2.90954e-22 4.8595e-05)
(3.76782e-05 -2.94879e-06 -1.52429e-20 4.67699e-05 -5.12802e-22 4.22212e-05)
(3.30393e-05 -3.15386e-06 3.54137e-21 3.99658e-05 -3.55689e-22 3.6496e-05)
(2.89348e-05 -3.17297e-06 1.74947e-21 3.39113e-05 -7.08751e-23 3.14155e-05)
(2.5308e-05 -3.04614e-06 1.74896e-21 2.85789e-05 4.6528e-22 2.69341e-05)
(2.21325e-05 -2.81263e-06 -2.12759e-22 2.39581e-05 -4.27554e-22 2.30327e-05)
(1.9416e-05 -2.51191e-06 -2.33891e-21 2.00483e-05 9.8861e-22 1.97154e-05)
(1.71569e-05 -2.17269e-06 -2.60104e-21 1.68178e-05 -3.88323e-21 1.69668e-05)
(1.54236e-05 -1.81643e-06 -7.88546e-20 1.42761e-05 -3.75863e-21 1.48238e-05)
(1.42497e-05 -1.44125e-06 7.60302e-21 1.24109e-05 1.02332e-20 1.33076e-05)
(0.000194737 1.45301e-05 -1.0272e-19 0.000159741 -4.45533e-20 0.000177238)
(0.000184615 1.71216e-05 2.16263e-20 0.000157206 3.14253e-20 0.000170902)
(0.00017403 1.86986e-05 5.54265e-20 0.000154556 9.61456e-21 0.000164293)
(0.00016327 1.932e-05 -6.71904e-20 0.000151506 -2.82371e-20 0.000157387)
(0.000152599 1.91346e-05 -6.66754e-20 0.000147892 -6.86541e-21 0.000150242)
(0.000142118 1.83176e-05 3.80092e-20 0.000143638 9.34697e-21 0.000142878)
(0.000131858 1.70187e-05 2.001e-20 0.000138679 -4.36076e-22 0.000135271)
(0.000121884 1.53788e-05 -3.41438e-20 0.000133004 -1.86701e-21 0.000127446)
(0.000112238 1.3516e-05 2.96403e-20 0.000126706 1.32891e-21 0.000119476)
(0.000102968 1.15365e-05 -2.09098e-20 0.000119854 -1.0061e-20 0.000111415)
(9.41352e-05 9.52779e-06 5.04608e-20 0.000112589 -9.94361e-21 0.000103367)
(8.57874e-05 7.56131e-06 2.07045e-20 0.000105048 -3.7005e-21 9.5422e-05)
(7.79596e-05 5.68558e-06 -2.39067e-21 9.73739e-05 -8.31839e-21 8.76701e-05)
(7.06637e-05 3.93672e-06 7.79495e-21 8.96726e-05 -3.58628e-21 8.01699e-05)
(6.38685e-05 2.33268e-06 -7.65162e-21 8.19959e-05 -5.05571e-21 7.29327e-05)
(5.75114e-05 8.91191e-07 -2.34042e-21 7.43369e-05 5.36508e-21 6.59244e-05)
(5.15262e-05 -3.65479e-07 -4.8313e-20 6.66776e-05 5.5755e-21 5.91033e-05)
(4.5878e-05 -1.39355e-06 3.7552e-22 5.90525e-05 3.23541e-21 5.24696e-05)
(4.05987e-05 -2.14881e-06 2.29889e-20 5.16268e-05 3.6193e-21 4.6119e-05)
(3.57653e-05 -2.63288e-06 3.25502e-22 4.46394e-05 1.58492e-21 4.02068e-05)
(3.14292e-05 -2.88523e-06 -4.24727e-21 3.82624e-05 -1.04817e-22 3.48488e-05)
(2.75724e-05 -2.95137e-06 -2.36256e-21 3.25395e-05 -9.55137e-23 3.00597e-05)
(2.41529e-05 -2.8687e-06 7.53198e-21 2.74648e-05 -2.88388e-23 2.58139e-05)
(2.11515e-05 -2.67391e-06 -5.12749e-21 2.30417e-05 -5.3228e-22 2.21022e-05)
(1.8582e-05 -2.40466e-06 3.75466e-20 1.92818e-05 4.74086e-21 1.89384e-05)
(1.6455e-05 -2.0895e-06 -8.72903e-20 1.61742e-05 -7.57099e-21 1.63225e-05)
(1.4834e-05 -1.74943e-06 1.29844e-19 1.37353e-05 1.0152e-20 1.42905e-05)
(1.37518e-05 -1.38476e-06 6.19042e-20 1.19562e-05 9.65792e-21 1.28634e-05)
(0.00016114 1.46015e-05 5.72432e-21 0.000136521 3.85542e-21 0.000148823)
(0.000152524 1.60927e-05 -3.59309e-20 0.000134595 -1.48874e-20 0.000143559)
(0.000143774 1.67822e-05 4.58967e-21 0.000132404 2.1214e-20 0.000138087)
(0.000135101 1.67872e-05 3.70611e-20 0.0001298 8.27369e-21 0.000132446)
(0.000126564 1.62481e-05 -4.18133e-20 0.000126696 -1.27257e-20 0.000126628)
(0.000118163 1.52818e-05 7.69505e-21 0.000123011 7.92651e-22 0.000120588)