/*--------------------------------*- C++ -*----------------------------------*\
| =========                 |                                                 |
| \\      /  F ield         | OpenFOAM: The Open Source CFD Toolbox           |
|  \\    /   O peration     | Version:  2506                                  |
|   \\  /    A nd           | Website:  www.openfoam.com                      |
|    \\/     M anipulation  |                                                 |
\*---------------------------------------------------------------------------*/
FoamFile
{
    version     2.0;
    format      ascii;
    arch        "LSB;label=32;scalar=64";
    class       volScalarField;
    location    "250";
    object      turbulenceProperties:nuEff;
}
// * * * * * * * * * * * * * * * * * * * * * * * * * * * * * * * * * * * * * //

dimensions      [0 2 -1 0 0 0 0];

internalField   nonuniform List<scalar> 
1340
(
1.69602e-05
1.80954e-05
2.07897e-05
2.54799e-05
3.32253e-05
4.55743e-05
6.44529e-05
9.13875e-05
0.000127947
0.000177184
0.000246288
0.000349408
0.000511855
0.000783354
0.00125213
0.00212802
0.00378061
0.00734035
0.0147368
0.0325004
0.066349
0.0934901
0.10504
0.108447
0.109388
0.109484
0.108988
0.107986
1.59106e-05
1.60212e-05
1.59585e-05
1.5817e-05
1.56238e-05
1.53895e-05
1.51232e-05
1.48286e-05
1.44948e-05
1.41189e-05
1.36758e-05
1.31616e-05
1.25474e-05
1.18427e-05
1.10734e-05
1.04201e-05
1.0054e-05
1.00015e-05
1.00093e-05
0.000103759
0.000550382
0.00416983
0.0141319
0.0287377
0.043745
0.0550792
0.0618412
0.0656226
0.0680206
1.61407e-05
1.61267e-05
1.61315e-05
1.61465e-05
1.61661e-05
1.619e-05
1.62193e-05
1.62521e-05
1.62891e-05
1.633e-05
1.63764e-05
1.64297e-05
1.64933e-05
1.65708e-05
1.66702e-05
1.67977e-05
1.6979e-05
1.71723e-05
1.74346e-05
1.71551e-05
1.72455e-05
1.24805e-05
9.3805e-05
0.00080092
0.00302898
0.00755481
0.0142671
0.0224518
0.0311751
1.60995e-05
1.61008e-05
1.61018e-05
1.60996e-05
1.60969e-05
1.60934e-05
1.60897e-05
1.60862e-05
1.60828e-05
1.60795e-05
1.6076e-05
1.60723e-05
1.60683e-05
1.60632e-05
1.60582e-05
1.60528e-05
1.60471e-05
1.60403e-05
1.60341e-05
1.60273e-05
1.60297e-05
1.60224e-05
1.6082e-05
1.5998e-05
1.59511e-05
1.52092e-05
1.41788e-05
0.000236778
0.00105812
0.00306864
1.61084e-05
1.61063e-05
1.61044e-05
1.61033e-05
1.61031e-05
1.6103e-05
1.6103e-05
1.61034e-05
1.61039e-05
1.61049e-05
1.61062e-05
1.61077e-05
1.61096e-05
1.61118e-05
1.61143e-05
1.61171e-05
1.61201e-05
1.61235e-05
1.61274e-05
1.61323e-05
1.61366e-05
1.61499e-05
1.61295e-05
1.62724e-05
1.56939e-05
1.87113e-05
1.05788e-05
3.56214e-05
0.000255648
0.000726483
1.61056e-05
1.61053e-05
1.61039e-05
1.61027e-05
1.61017e-05
1.61011e-05
1.61007e-05
1.61002e-05
1.61e-05
1.60999e-05
1.60999e-05
1.61e-05
1.61002e-05
1.61004e-05
1.61006e-05
1.61009e-05
1.61011e-05
1.61012e-05
1.61013e-05
1.6101e-05
1.61009e-05
1.61012e-05
1.61015e-05
1.61033e-05
1.61029e-05
1.61122e-05
1.60951e-05
1.61848e-05
1.54496e-05
1.34253e-05
1e-05
1.61049e-05
1.61048e-05
1.61036e-05
1.61024e-05
1.61015e-05
1.6101e-05
1.61006e-05
1.61005e-05
1.61004e-05
1.61005e-05
1.61005e-05
1.61005e-05
1.61007e-05
1.61009e-05
1.61012e-05
1.61017e-05
1.61022e-05
1.61027e-05
1.61034e-05
1.61042e-05
1.61052e-05
1.61065e-05
1.61082e-05
1.61103e-05
1.6113e-05
1.61162e-05
1.61198e-05
1.6124e-05
1.6176e-05
1.58716e-05
1.53243e-05
1.61038e-05
1.6104e-05
1.61031e-05
1.6102e-05
1.61011e-05
1.61007e-05
1.61004e-05
1.61003e-05
1.61002e-05
1.61003e-05
1.61004e-05
1.61005e-05
1.61005e-05
1.61005e-05
1.61006e-05
1.61007e-05
1.61008e-05
1.6101e-05
1.61011e-05
1.61013e-05
1.61014e-05
1.61016e-05
1.61018e-05
1.61021e-05
1.61024e-05
1.61025e-05
1.61032e-05
1.61008e-05
1.61141e-05
1.60862e-05
1.6291e-05
1.61016e-05
1.61031e-05
1.61034e-05
1.61026e-05
1.61016e-05
1.61009e-05
1.61005e-05
1.61004e-05
1.61002e-05
1.61002e-05
1.61002e-05
1.61003e-05
1.61004e-05
1.61005e-05
1.61006e-05
1.61006e-05
1.61007e-05
1.61007e-05
1.61008e-05
1.6101e-05
1.61012e-05
1.61014e-05
1.61018e-05
1.61023e-05
1.6103e-05
1.61039e-05
1.6105e-05
1.61064e-05
1.61079e-05
1.61103e-05
1.6109e-05
1.61448e-05
1.61024e-05
1.61028e-05
1.61022e-05
1.61013e-05
1.61008e-05
1.61004e-05
1.61003e-05
1.61001e-05
1.61001e-05
1.61001e-05
1.61001e-05
1.61002e-05
1.61004e-05
1.61005e-05
1.61006e-05
1.61008e-05
1.61008e-05
1.61009e-05
1.61009e-05
1.61009e-05
1.61009e-05
1.6101e-05
1.61012e-05
1.61015e-05
1.61019e-05
1.61023e-05
1.61028e-05
1.61036e-05
1.61033e-05
1.61089e-05
1.60916e-05
1.61023e-05
1.61019e-05
1.61011e-05
1.61006e-05
1.61003e-05
1.61002e-05
1.61e-05
1.60999e-05
1.60999e-05
1.60999e-05
1.61e-05
1.61002e-05
1.61003e-05
1.61005e-05
1.61006e-05
1.61007e-05
1.61009e-05
1.61009e-05
1.6101e-05
1.61009e-05
1.6101e-05
1.61012e-05
1.61014e-05
1.61018e-05
1.61022e-05
1.61028e-05
1.61037e-05
1.61037e-05
1.61083e-05
1.60931e-05
1.61016e-05
1.61008e-05
1.61004e-05
1.61001e-05
1.61e-05
1.60999e-05
1.60998e-05
1.60997e-05
1.60997e-05
1.60998e-05
1.60999e-05
1.61001e-05
1.61002e-05
1.61004e-05
1.61006e-05
1.61008e-05
1.61009e-05
1.6101e-05
1.61011e-05
1.61011e-05
1.61011e-05
1.61012e-05
1.61014e-05
1.61017e-05
1.6102e-05
1.61025e-05
1.61028e-05
1.61044e-05
1.6101e-05
1.61006e-05
1.61002e-05
1.61e-05
1.60999e-05
1.60997e-05
1.60996e-05
1.60995e-05
1.60995e-05
1.60996e-05
1.60997e-05
1.60998e-05
1.61e-05
1.61002e-05
1.61004e-05
1.61006e-05
1.61008e-05
1.61009e-05
1.61011e-05
1.61012e-05
1.61011e-05
1.61011e-05
1.61012e-05
1.61014e-05
1.61017e-05
1.6102e-05
1.61025e-05
1.6103e-05
1.61041e-05
1.61001e-05
1.60998e-05
1.60997e-05
1.60996e-05
1.60994e-05
1.60993e-05
1.60993e-05
1.60993e-05
1.60994e-05
1.60996e-05
1.60997e-05
1.60999e-05
1.61001e-05
1.61004e-05
1.61006e-05
1.61008e-05
1.61009e-05
1.61011e-05
1.61011e-05
1.61011e-05
1.61011e-05
1.61012e-05
1.61014e-05
1.61016e-05
1.6102e-05
1.61022e-05
1.61034e-05
1.60997e-05
1.60995e-05
1.60994e-05
1.60993e-05
1.60992e-05
1.60991e-05
1.60991e-05
1.60992e-05
1.60993e-05
1.60995e-05
1.60997e-05
1.60999e-05
1.61001e-05
1.61003e-05
1.61006e-05
1.61008e-05
1.61009e-05
1.6101e-05
1.61011e-05
1.61011e-05
1.61011e-05
1.61012e-05
1.61014e-05
1.61016e-05
1.61019e-05
1.61025e-05
1.60995e-05
1.60994e-05
1.60992e-05
1.60991e-05
1.6099e-05
1.60989e-05
1.60989e-05
1.6099e-05
1.60991e-05
1.60992e-05
1.60994e-05
1.60996e-05
1.60999e-05
1.61001e-05
1.61003e-05
1.61006e-05
1.61008e-05
1.61009e-05
1.6101e-05
1.61011e-05
1.61011e-05
1.61011e-05
1.61012e-05
1.61014e-05
1.61016e-05
1.61019e-05
1.60992e-05
1.60991e-05
1.60989e-05
1.60988e-05
1.60987e-05
1.60987e-05
1.60988e-05
1.60989e-05
1.6099e-05
1.60992e-05
1.60994e-05
1.60996e-05
1.60999e-05
1.61001e-05
1.61004e-05
1.61006e-05
1.61008e-05
1.6101e-05
1.61011e-05
1.61011e-05
1.61011e-05
1.61011e-05
1.61012e-05
1.61014e-05
1.61016e-05
1.6099e-05
1.60989e-05
1.60987e-05
1.60986e-05
1.60985e-05
1.60985e-05
1.60986e-05
1.60987e-05
1.60988e-05
1.6099e-05
1.60992e-05
1.60994e-05
1.60997e-05
1.60999e-05
1.61002e-05
1.61005e-05
1.61007e-05
1.61008e-05
1.6101e-05
1.61011e-05
1.61011e-05
1.61011e-05
1.61011e-05
1.61012e-05
1.61014e-05
1.60987e-05
1.60986e-05
1.60985e-05
1.60984e-05
1.60984e-05
1.60984e-05
1.60985e-05
1.60986e-05
1.60988e-05
1.6099e-05
1.60992e-05
1.60995e-05
1.60998e-05
1.61e-05
1.61003e-05
1.61005e-05
1.61007e-05
1.61009e-05
1.6101e-05
1.61011e-05
1.61011e-05
1.61011e-05
1.61012e-05
1.61013e-05
1.60986e-05
1.60984e-05
1.60983e-05
1.60983e-05
1.60983e-05
1.60983e-05
1.60984e-05
1.60985e-05
1.60986e-05
1.60988e-05
1.60991e-05
1.60993e-05
1.60996e-05
1.60999e-05
1.61001e-05
1.61004e-05
1.61006e-05
1.61008e-05
1.61009e-05
1.6101e-05
1.61011e-05
1.61011e-05
1.61011e-05
1.61012e-05
1.60984e-05
1.60983e-05
1.60982e-05
1.60981e-05
1.60981e-05
1.60982e-05
1.60982e-05
1.60983e-05
1.60985e-05
1.60987e-05
1.60989e-05
1.60991e-05
1.60994e-05
1.60997e-05
1.60999e-05
1.61002e-05
1.61004e-05
1.61006e-05
1.61008e-05
1.61009e-05
1.61011e-05
1.61011e-05
1.61011e-05
1.61012e-05
1.60981e-05
1.60981e-05
1.6098e-05
1.6098e-05
1.60981e-05
1.60981e-05
1.60982e-05
1.60983e-05
1.60985e-05
1.60987e-05
1.60989e-05
1.60992e-05
1.60995e-05
1.60997e-05
1.61e-05
1.61002e-05
1.61004e-05
1.61007e-05
1.61008e-05
1.6101e-05
1.61011e-05
1.61012e-05
1.61012e-05
1.6098e-05
1.6098e-05
1.60979e-05
1.60979e-05
1.60979e-05
1.6098e-05
1.60981e-05
1.60982e-05
1.60984e-05
1.60985e-05
1.60988e-05
1.6099e-05
1.60993e-05
1.60995e-05
1.60998e-05
1.61e-05
1.61003e-05
1.61005e-05
1.61007e-05
1.61009e-05
1.6101e-05
1.61011e-05
1.61012e-05
1.60978e-05
1.60978e-05
1.60978e-05
1.60978e-05
1.60979e-05
1.6098e-05
1.60981e-05
1.60982e-05
1.60984e-05
1.60986e-05
1.60988e-05
1.60991e-05
1.60993e-05
1.60996e-05
1.60998e-05
1.61001e-05
1.61003e-05
1.61005e-05
1.61007e-05
1.61009e-05
1.6101e-05
1.61011e-05
1.60977e-05
1.60977e-05
1.60977e-05
1.60977e-05
1.60977e-05
1.60978e-05
1.60979e-05
1.6098e-05
1.60982e-05
1.60984e-05
1.60986e-05
1.60989e-05
1.60991e-05
1.60994e-05
1.60996e-05
1.60999e-05
1.61001e-05
1.61003e-05
1.61006e-05
1.61008e-05
1.61009e-05
1.61011e-05
1.60976e-05
1.60975e-05
1.60975e-05
1.60976e-05
1.60976e-05
1.60977e-05
1.60978e-05
1.60979e-05
1.6098e-05
1.60982e-05
1.60984e-05
1.60987e-05
1.60989e-05
1.60991e-05
1.60994e-05
1.60996e-05
1.60999e-05
1.61001e-05
1.61004e-05
1.61006e-05
1.61008e-05
1.6101e-05
1.60974e-05
1.60974e-05
1.60974e-05
1.60975e-05
1.60975e-05
1.60976e-05
1.60977e-05
1.60979e-05
1.6098e-05
1.60982e-05
1.60985e-05
1.60987e-05
1.60989e-05
1.60992e-05
1.60994e-05
1.60997e-05
1.60999e-05
1.61002e-05
1.61004e-05
1.61007e-05
1.61008e-05
1.60972e-05
1.60972e-05
1.60973e-05
1.60973e-05
1.60974e-05
1.60974e-05
1.60975e-05
1.60977e-05
1.60978e-05
1.6098e-05
1.60982e-05
1.60985e-05
1.60987e-05
1.60989e-05
1.60992e-05
1.60994e-05
1.60997e-05
1.61e-05
1.61002e-05
1.61005e-05
1.61007e-05
1.60971e-05
1.60971e-05
1.60971e-05
1.60971e-05
1.60972e-05
1.60973e-05
1.60974e-05
1.60975e-05
1.60976e-05
1.60978e-05
1.6098e-05
1.60982e-05
1.60984e-05
1.60987e-05
1.60989e-05
1.60992e-05
1.60995e-05
1.60997e-05
1.61e-05
1.61003e-05
1.61005e-05
1.60969e-05
1.60969e-05
1.6097e-05
1.6097e-05
1.60971e-05
1.60972e-05
1.60973e-05
1.60974e-05
1.60976e-05
1.60978e-05
1.6098e-05
1.60982e-05
1.60984e-05
1.60987e-05
1.60989e-05
1.60992e-05
1.60995e-05
1.60997e-05
1.61e-05
1.61003e-05
1.60967e-05
1.60967e-05
1.60968e-05
1.60968e-05
1.60969e-05
1.6097e-05
1.60971e-05
1.60972e-05
1.60974e-05
1.60975e-05
1.60977e-05
1.60979e-05
1.60981e-05
1.60984e-05
1.60986e-05
1.60989e-05
1.60992e-05
1.60995e-05
1.60998e-05
1.61e-05
1.60965e-05
1.60966e-05
1.60966e-05
1.60967e-05
1.60967e-05
1.60968e-05
1.6097e-05
1.60971e-05
1.60973e-05
1.60975e-05
1.60976e-05
1.60978e-05
1.60981e-05
1.60983e-05
1.60986e-05
1.60989e-05
1.60992e-05
1.60995e-05
1.60998e-05
1.60963e-05
1.60963e-05
1.60964e-05
1.60964e-05
1.60965e-05
1.60966e-05
1.60967e-05
1.60968e-05
1.6097e-05
1.60972e-05
1.60973e-05
1.60975e-05
1.60978e-05
1.6098e-05
1.60983e-05
1.60985e-05
1.60988e-05
1.60991e-05
1.60994e-05
1.6096e-05
1.60961e-05
1.60961e-05
1.60961e-05
1.60962e-05
1.60963e-05
1.60964e-05
1.60965e-05
1.60967e-05
1.60968e-05
1.6097e-05
1.60972e-05
1.60974e-05
1.60976e-05
1.60979e-05
1.60982e-05
1.60985e-05
1.60988e-05
1.60991e-05
1.60958e-05
1.60958e-05
1.60959e-05
1.60959e-05
1.6096e-05
1.60961e-05
1.60962e-05
1.60963e-05
1.60965e-05
1.60966e-05
1.60968e-05
1.6097e-05
1.60972e-05
1.60975e-05
1.60977e-05
1.6098e-05
1.60983e-05
1.60987e-05
1.60955e-05
1.60955e-05
1.60955e-05
1.60956e-05
1.60956e-05
1.60957e-05
1.60958e-05
1.60959e-05
1.60961e-05
1.60962e-05
1.60964e-05
1.60966e-05
1.60968e-05
1.6097e-05
1.60973e-05
1.60976e-05
1.60979e-05
1.60982e-05
1.60951e-05
1.60951e-05
1.60951e-05
1.60952e-05
1.60952e-05
1.60953e-05
1.60954e-05
1.60955e-05
1.60956e-05
1.60958e-05
1.60959e-05
1.60961e-05
1.60963e-05
1.60965e-05
1.60968e-05
1.60971e-05
1.60974e-05
1.60977e-05
1.60947e-05
1.60947e-05
1.60948e-05
1.60948e-05
1.60949e-05
1.60949e-05
1.6095e-05
1.60951e-05
1.60953e-05
1.60954e-05
1.60956e-05
1.60958e-05
1.6096e-05
1.60962e-05
1.60965e-05
1.60968e-05
1.60971e-05
1.60943e-05
1.60943e-05
1.60943e-05
1.60943e-05
1.60944e-05
1.60944e-05
1.60945e-05
1.60946e-05
1.60947e-05
1.60948e-05
1.6095e-05
1.60952e-05
1.60954e-05
1.60956e-05
1.60959e-05
1.60961e-05
1.60937e-05
1.60937e-05
1.60937e-05
1.60938e-05
1.60938e-05
1.60938e-05
1.60939e-05
1.6094e-05
1.60941e-05
1.60942e-05
1.60943e-05
1.60945e-05
1.60947e-05
1.60949e-05
1.60952e-05
1.60954e-05
1.60932e-05
1.60931e-05
1.60931e-05
1.60932e-05
1.60932e-05
1.60932e-05
1.60933e-05
1.60934e-05
1.60935e-05
1.60936e-05
1.60938e-05
1.60939e-05
1.60942e-05
1.60944e-05
1.60947e-05
1.60925e-05
1.60925e-05
1.60925e-05
1.60925e-05
1.60925e-05
1.60925e-05
1.60926e-05
1.60926e-05
1.60927e-05
1.60928e-05
1.6093e-05
1.60932e-05
1.60934e-05
1.60936e-05
1.60939e-05
1.60918e-05
1.60918e-05
1.60917e-05
1.60917e-05
1.60917e-05
1.60918e-05
1.60918e-05
1.60918e-05
1.60919e-05
1.6092e-05
1.60922e-05
1.60923e-05
1.60925e-05
1.60927e-05
1.6093e-05
1.6091e-05
1.60909e-05
1.60909e-05
1.60909e-05
1.60909e-05
1.6091e-05
1.6091e-05
1.60911e-05
1.60912e-05
1.60913e-05
1.60914e-05
1.60916e-05
1.60918e-05
1.60921e-05
1.60901e-05
1.60901e-05
1.60901e-05
1.60901e-05
1.60901e-05
1.60901e-05
1.60901e-05
1.60902e-05
1.60903e-05
1.60904e-05
1.60905e-05
1.60907e-05
1.60909e-05
1.60911e-05
1.60893e-05
1.60892e-05
1.60892e-05
1.60892e-05
1.60892e-05
1.60892e-05
1.60892e-05
1.60893e-05
1.60893e-05
1.60895e-05
1.60896e-05
1.60897e-05
1.60899e-05
1.60902e-05
1.60883e-05
1.60883e-05
1.60883e-05
1.60883e-05
1.60883e-05
1.60883e-05
1.60884e-05
1.60884e-05
1.60885e-05
1.60887e-05
1.60888e-05
1.6089e-05
1.60892e-05
1.60874e-05
1.60874e-05
1.60873e-05
1.60873e-05
1.60874e-05
1.60874e-05
1.60874e-05
1.60875e-05
1.60876e-05
1.60877e-05
1.60879e-05
1.60881e-05
1.60883e-05
1.60865e-05
1.60865e-05
1.60864e-05
1.60864e-05
1.60864e-05
1.60865e-05
1.60865e-05
1.60866e-05
1.60867e-05
1.60868e-05
1.6087e-05
1.60872e-05
1.60874e-05
1.60856e-05
1.60855e-05
1.60855e-05
1.60855e-05
1.60855e-05
1.60856e-05
1.60856e-05
1.60857e-05
1.60858e-05
1.60859e-05
1.60861e-05
1.60862e-05
1.60864e-05
1.60846e-05
1.60846e-05
1.60846e-05
1.60846e-05
1.60846e-05
1.60847e-05
1.60848e-05
1.60849e-05
1.6085e-05
1.60851e-05
1.60853e-05
1.60855e-05
1.60836e-05
1.60836e-05
1.60836e-05
1.60836e-05
1.60836e-05
1.60837e-05
1.60837e-05
1.60838e-05
1.60839e-05
1.6084e-05
1.60842e-05
1.60843e-05
1.60826e-05
1.60825e-05
1.60825e-05
1.60825e-05
1.60825e-05
1.60825e-05
1.60825e-05
1.60826e-05
1.60826e-05
1.60827e-05
1.60829e-05
1.60814e-05
1.60813e-05
1.60812e-05
1.60811e-05
1.60811e-05
1.60811e-05
1.60811e-05
1.60811e-05
1.60811e-05
1.60812e-05
1.60813e-05
1.60798e-05
1.60797e-05
1.60796e-05
1.60795e-05
1.60794e-05
1.60794e-05
1.60794e-05
1.60794e-05
1.60794e-05
1.60795e-05
1.60782e-05
1.6078e-05
1.60778e-05
1.60777e-05
1.60776e-05
1.60775e-05
1.60775e-05
1.60774e-05
1.60774e-05
1.60775e-05
1.60764e-05
1.60762e-05
1.6076e-05
1.60758e-05
1.60757e-05
1.60756e-05
1.60755e-05
1.60754e-05
1.60754e-05
1.60754e-05
1.60746e-05
1.60743e-05
1.60742e-05
1.6074e-05
1.60739e-05
1.60738e-05
1.60737e-05
1.60736e-05
1.60736e-05
1.60736e-05
1.6073e-05
1.60728e-05
1.60727e-05
1.60725e-05
1.60724e-05
1.60724e-05
1.60723e-05
1.60722e-05
1.60722e-05
1.60722e-05
1.60718e-05
1.60717e-05
1.60717e-05
1.60717e-05
1.60716e-05
1.60716e-05
1.60716e-05
1.60716e-05
1.60716e-05
1.60716e-05
1.60717e-05
1.60717e-05
1.60718e-05
1.60719e-05
1.6072e-05
1.6072e-05
1.60721e-05
1.60722e-05
1.60723e-05
1.60725e-05
1.60727e-05
1.60729e-05
1.60731e-05
1.60733e-05
1.60734e-05
1.60735e-05
1.60738e-05
1.60741e-05
1.60745e-05
1.60748e-05
1.6075e-05
1.60753e-05
1.60755e-05
1.60757e-05
1.6076e-05
1.60764e-05
1.60769e-05
1.60773e-05
1.60777e-05
1.6078e-05
1.60784e-05
1.60787e-05
1.60787e-05
1.60793e-05
1.60799e-05
1.60804e-05
1.60809e-05
1.60814e-05
1.60818e-05
1.60822e-05
1.60826e-05
1.60833e-05
1.60839e-05
1.60845e-05
1.6085e-05
1.60855e-05
1.6086e-05
1.60862e-05
1.60869e-05
1.60876e-05
1.60882e-05
1.60888e-05
1.60893e-05
1.60899e-05
1.60892e-05
1.60899e-05
1.60906e-05
1.60913e-05
1.60919e-05
1.60925e-05
1.60931e-05
1.60914e-05
1.60921e-05
1.60928e-05
1.60935e-05
1.60941e-05
1.60947e-05
1.60953e-05
1.60933e-05
1.6094e-05
1.60946e-05
1.60953e-05
1.60959e-05
1.60965e-05
1.60971e-05
1.60948e-05
1.60954e-05
1.60961e-05
1.60967e-05
1.60973e-05
1.60979e-05
1.60984e-05
1.60959e-05
1.60966e-05
1.60972e-05
1.60979e-05
1.60985e-05
1.60991e-05
1.60973e-05
1.6098e-05
1.60988e-05
1.60995e-05
1.61002e-05
1.61009e-05
1.60996e-05
1.61006e-05
1.61016e-05
1.61026e-05
1.61036e-05
1.61046e-05
1.61051e-05
1.61064e-05
1.61077e-05
1.6109e-05
1.61102e-05
1.61098e-05
1.61111e-05
1.61125e-05
1.61138e-05
1.6115e-05
1.61099e-05
1.61109e-05
1.61117e-05
1.61126e-05
1.61134e-05
1.61027e-05
1.61035e-05
1.61043e-05
1.61051e-05
1.6106e-05
1.60998e-05
1.61024e-05
1.6105e-05
1.61078e-05
1.61107e-05
1.61021e-05
1.61039e-05
1.61057e-05
1.61073e-05
1.61088e-05
)
;

boundaryField
{
    inlet
    {
        type            calculated;
        value           uniform 2e-05;
    }
    outlet
    {
        type            calculated;
        value           nonuniform List<scalar> 0();
    }
    walls
    {
        type            calculated;
        value           nonuniform List<scalar> 
28
(
0.00045733
0.000560213
0.000898301
0.00121866
0.00148061
0.00169115
0.00186302
0.00200562
0.00212599
0.0022298
0.00232139
0.00240446
0.00248137
0.00255418
0.00262354
0.00268947
0.00274866
0.00279472
0.00282723
0.00284947
0.00286449
0.00287362
0.00287768
0.00287519
0.00286449
0.00284532
0.00281811
0.00278242
)
;
    }
    frontAndBack
    {
        type            empty;
    }
    procBoundary1to0
    {
        type            processor;
        value           nonuniform List<scalar> 
94
(
1.6101e-05
1.6101e-05
1.6102e-05
1.6102e-05
1.6102e-05
1.6102e-05
1.61013e-05
1.61013e-05
1.61005e-05
1.61005e-05
1.60999e-05
1.60999e-05
1.60998e-05
1.60994e-05
1.60994e-05
1.60992e-05
1.60989e-05
1.60989e-05
1.60987e-05
1.60986e-05
1.60983e-05
1.60983e-05
1.60981e-05
1.60979e-05
1.60979e-05
1.60978e-05
1.60976e-05
1.60974e-05
1.60974e-05
1.60973e-05
1.60971e-05
1.60969e-05
1.60969e-05
1.60967e-05
1.60965e-05
1.60965e-05
1.60963e-05
1.6096e-05
1.60958e-05
1.60958e-05
1.60955e-05
1.60951e-05
1.60947e-05
1.60947e-05
1.60943e-05
1.60938e-05
1.60932e-05
1.60932e-05
1.60925e-05
1.60918e-05
1.6091e-05
1.6091e-05
1.60902e-05
1.60893e-05
1.60884e-05
1.60884e-05
1.60875e-05
1.60865e-05
1.60856e-05
1.60846e-05
1.60846e-05
1.60837e-05
1.60826e-05
1.60815e-05
1.608e-05
1.608e-05
1.60784e-05
1.60766e-05
1.60748e-05
1.60732e-05
1.60719e-05
1.60719e-05
1.60716e-05
1.60721e-05
1.60735e-05
1.60755e-05
1.60781e-05
1.60819e-05
1.60819e-05
1.60854e-05
1.60883e-05
1.60906e-05
1.60925e-05
1.60941e-05
1.60953e-05
1.60965e-05
1.60986e-05
1.61037e-05
1.61037e-05
1.61083e-05
1.6109e-05
1.6102e-05
1.60974e-05
1.61001e-05
)
;
    }
    procBoundary1to2
    {
        type            processor;
        value           nonuniform List<scalar> 
84
(
0.106589
0.0700116
0.0396202
0.00693582
0.0016601
1.00031e-05
1.11623e-05
1.55842e-05
1.6211e-05
1.61927e-05
1.61648e-05
1.6119e-05
1.61023e-05
1.61015e-05
1.61024e-05
1.61024e-05
1.6102e-05
1.61016e-05
1.61014e-05
1.61013e-05
1.61012e-05
1.61012e-05
1.61012e-05
1.61011e-05
1.61011e-05
1.61011e-05
1.6101e-05
1.61009e-05
1.61007e-05
1.61005e-05
1.61003e-05
1.61e-05
1.60997e-05
1.60994e-05
1.6099e-05
1.60985e-05
1.6098e-05
1.60975e-05
1.60965e-05
1.60965e-05
1.60958e-05
1.6095e-05
1.60942e-05
1.60933e-05
1.60923e-05
1.60914e-05
1.60904e-05
1.60895e-05
1.60885e-05
1.60876e-05
1.60867e-05
1.60857e-05
1.60846e-05
1.6083e-05
1.6083e-05
1.60814e-05
1.60796e-05
1.60775e-05
1.60754e-05
1.60736e-05
1.60722e-05
1.60716e-05
1.60722e-05
1.60737e-05
1.60737e-05
1.60759e-05
1.60789e-05
1.60825e-05
1.60864e-05
1.60903e-05
1.60936e-05
1.60958e-05
1.60976e-05
1.6099e-05
1.60997e-05
1.60997e-05
1.61017e-05
1.61055e-05
1.61115e-05
1.61163e-05
1.61142e-05
1.61069e-05
1.61136e-05
1.61102e-05
)
;
    }
    procBoundary1to5
    {
        type            processor;
        value           nonuniform List<scalar> 
13
(
1.82429e-05
1.82429e-05
1.57795e-05
1.61585e-05
1.61585e-05
1.60975e-05
1.61096e-05
1.61096e-05
1.61038e-05
1.61032e-05
1.61022e-05
1.61022e-05
1.61022e-05
)
;
    }
}


// ************************************************************************* //
