/*--------------------------------*- C++ -*----------------------------------*\
| =========                 |                                                 |
| \\      /  F ield         | OpenFOAM: The Open Source CFD Toolbox           |
|  \\    /   O peration     | Version:  2506                                  |
|   \\  /    A nd           | Website:  www.openfoam.com                      |
|    \\/     M anipulation  |                                                 |
\*---------------------------------------------------------------------------*/
FoamFile
{
    version     2.0;
    format      ascii;
    arch        "LSB;label=32;scalar=64";
    class       volVectorField;
    location    "9.99546";
    object      ddt0(U);
}
// * * * * * * * * * * * * * * * * * * * * * * * * * * * * * * * * * * * * * //

dimensions      [0 1 -2 0 0 0 0];

internalField   nonuniform List<vector> 
9700
(
(-0.00798093 -4.97734e-05 -6.54679e-69)
(-0.00754215 -0.000140671 -8.83215e-26)
(-0.00783815 -8.21753e-05 8.61626e-53)
(-0.00675033 -0.000225029 -4.62436e-24)
(-0.00741615 -0.000224811 -6.24277e-25)
(-0.00769136 -9.98641e-05 -5.68979e-24)
(-0.00606435 -0.000326705 3.19474e-24)
(-0.00665098 -0.000344052 -8.48127e-38)
(-0.00727471 -0.000268329 5.33516e-26)
(-0.00754605 -0.000112054 0)
(-0.00554895 -0.000555812 1.12391e-23)
(-0.00587452 -0.000439755 -3.05126e-25)
(-0.00655699 -0.000385537 2.06973e-23)
(-0.00715624 -0.000297419 -4.66149e-24)
(-0.00734865 -0.000117465 -6.90374e-24)
(-0.00546573 -0.000746563 -6.20381e-24)
(-0.00533609 -0.000578982 -6.27047e-30)
(-0.00578391 -0.000465563 2.24446e-26)
(-0.00647463 -0.000428617 -9.31216e-37)
(-0.00700371 -0.000322459 -9.94111e-24)
(-0.00713622 -0.00012594 5.77266e-29)
(-0.00544736 -0.000931363 3.78915e-29)
(-0.00522746 -0.000729164 1.01982e-28)
(-0.00526454 -0.000570739 -4.06533e-24)
(-0.00572475 -0.000494927 -6.74102e-25)
(-0.00638454 -0.000469993 -2.67299e-24)
(-0.00682409 -0.000355284 2.30549e-25)
(-0.00690916 -0.000142859 7.96179e-24)
(-0.00545409 -0.00109222 -1.57206e-24)
(-0.00523895 -0.000877559 -5.72677e-25)
(-0.00511504 -0.000684575 -7.0785e-25)
(-0.00520345 -0.000563619 0)
(-0.00566914 -0.000530511 -8.50418e-25)
(-0.00628687 -0.000525573 1.59978e-37)
(-0.0066363 -0.000409703 6.34574e-24)
(-0.00663503 -0.000170881 3.59317e-23)
(-0.0053791 -0.00123992 -5.52954e-30)
(-0.00526701 -0.00100536 -8.6076e-29)
(-0.00514815 -0.000813304 -2.82377e-28)
(-0.00502115 -0.000643258 0)
(-0.00514737 -0.000572541 -5.01915e-25)
(-0.00562826 -0.000590733 2.60426e-25)
(-0.00617193 -0.000612587 2.8845e-27)
(-0.00640086 -0.000490133 4.19417e-23)
(-0.00630359 -0.000208657 -1.63086e-26)
(-0.00528536 -0.00136807 2.37826e-24)
(-0.00521795 -0.00112159 9.60415e-25)
(-0.00518251 -0.000932594 3.11958e-24)
(-0.00504911 -0.000746712 -5.71933e-39)
(-0.00495485 -0.000614862 -1.04657e-24)
(-0.0051246 -0.000606551 -1.33818e-28)
(-0.00559635 -0.000684464 3.54528e-24)
(-0.00603532 -0.000734658 5.45833e-24)
(-0.00612017 -0.000596432 -1.21553e-24)
(-0.00590103 -0.000249751 -3.35163e-23)
(-0.00513184 -0.0014905 6.47457e-51)
(-0.00513394 -0.00121863 4.77829e-29)
(-0.00516042 -0.0010398 -4.71935e-28)
(-0.00508431 -0.000851294 2.40839e-24)
(-0.00496307 -0.0006921 -3.70009e-24)
(-0.00491461 -0.000612341 1.40588e-28)
(-0.00513038 -0.00067458 4.01445e-24)
(-0.0055722 -0.000812696 3.90467e-23)
(-0.00587772 -0.000880755 -5.34472e-24)
(-0.00578878 -0.000708088 -3.49384e-23)
(-0.00543056 -0.000283878 0)
(-0.00498991 -0.00160739 -2.82321e-25)
(-0.0049987 -0.00130829 -1.23406e-25)
(-0.00507491 -0.00112159 -2.37301e-24)
(-0.00508432 -0.000946755 2.35732e-24)
(-0.00500259 -0.000777382 1.13635e-23)
(-0.00489948 -0.000656092 -3.40568e-25)
(-0.00490955 -0.000639769 4.38773e-24)
(-0.0051663 -0.000774291 3.39669e-23)
(-0.00555969 -0.00096202 -9.44171e-24)
(-0.00570207 -0.00102569 2.69667e-27)
(-0.0054139 -0.000796586 2.25276e-38)
(-0.00491604 -0.000299591 -3.70147e-24)
(-0.00480418 -0.00171682 -2.24943e-44)
(-0.00486037 -0.00138512 1.3359e-30)
(-0.00496088 -0.00119419 3.33021e-28)
(-0.00501293 -0.00101241 -1.68978e-24)
(-0.0050155 -0.000855283 2.37924e-24)
(-0.00494066 -0.000713821 -3.20933e-25)
(-0.00487142 -0.000642265 6.96685e-24)
(-0.00494372 -0.00069381 3.3461e-23)
(-0.00523864 -0.00089241 3.716e-29)
(-0.00556136 -0.00110518 -3.51645e-23)
(-0.00551558 -0.00113332 -4.6526e-38)
(-0.00501591 -0.000831096 -3.35514e-24)
(-0.00439962 -0.000287641 -1.08188e-30)
(-0.00462121 -0.00181859 4.22004e-25)
(-0.00468838 -0.00146304 5.49283e-37)
(-0.00481672 -0.00125385 2.49482e-25)
(-0.00491221 -0.00106509 -1.68204e-24)
(-0.00496829 -0.000905043 -7.89032e-24)
(-0.00496761 -0.000766162 -1.59477e-23)
(-0.00490334 -0.000663138 5.17817e-23)
(-0.00487966 -0.000646687 3.69414e-23)
(-0.00502486 -0.000762272 -3.11409e-29)
(-0.00534881 -0.00100442 -3.45427e-23)
(-0.00557887 -0.00120592 1.94695e-38)
(-0.00532858 -0.00116509 -2.61333e-27)
(-0.00462673 -0.00078707 -3.25959e-25)
(-0.00393581 -0.000243609 3.76008e-24)
(-0.00439865 -0.00191577 1.79377e-28)
(-0.00450709 -0.00153325 3.81765e-29)
(-0.0046545 -0.00131374 -6.23883e-28)
(-0.00477219 -0.00110527 -1.8697e-24)
(-0.00487617 -0.000936867 7.55279e-25)
(-0.00494239 -0.000797282 2.9171e-25)
(-0.00494179 -0.000685755 3.07484e-23)
(-0.00489971 -0.00062118 2.49444e-23)
(-0.00493717 -0.000659211 -7.55159e-26)
(-0.0051557 -0.000824776 -3.31717e-23)
(-0.00549449 -0.00107919 0)
(-0.00561057 -0.00122699 -4.80569e-24)
(-0.00515407 -0.00109037 1.9275e-37)
(-0.00428613 -0.000653251 4.22427e-24)
(-0.00358158 -0.00016857 5.06088e-24)
(-0.00417029 -0.00200552 -6.2075e-24)
(-0.00429644 -0.00160458 3.81491e-25)
(-0.00446813 -0.00136948 -3.77855e-25)
(-0.0046123 -0.00114495 -1.97895e-36)
(-0.00474536 -0.00095822 -7.37742e-25)
(-0.00486371 -0.000807015 6.5756e-25)
(-0.0049348 -0.000689292 -3.65209e-23)
(-0.00494357 -0.000606116 4.41188e-23)
(-0.00493925 -0.000579424 -2.91069e-23)
(-0.00504714 -0.000664278 -3.02522e-23)
(-0.00533415 -0.000857061 0)
(-0.00566696 -0.00108518 -4.63566e-24)
(-0.00565166 -0.00113873 5.94092e-25)
(-0.00500716 -0.000894792 2.9692e-23)
(-0.00403508 -0.000434959 7.98513e-24)
(-0.00338521 -7.044e-05 2.59651e-30)
(-0.0039264 -0.0020885 -6.53927e-26)
(-0.00407396 -0.00166756 1.12116e-27)
(-0.00426345 -0.00142454 3.16897e-29)
(-0.00442766 -0.00118414 2.48328e-24)
(-0.00458446 -0.000979109 -4.2272e-23)
(-0.00473608 -0.000809707 2.10191e-24)
(-0.00486779 -0.000676638 3.3077e-24)
(-0.00495043 -0.000577833 7.88688e-24)
(-0.00498087 -0.000520035 -3.33041e-23)
(-0.005026 -0.000527616 -3.82894e-25)
(-0.00520861 -0.000644914 1.73331e-37)
(-0.00555078 -0.000835191 -3.52233e-24)
(-0.00585177 -0.00099657 -2.13587e-28)
(-0.00569604 -0.000926164 3.51485e-24)
(-0.00490437 -0.000584535 5.47116e-24)
(-0.0039089 -0.000153111 -4.06673e-24)
(-0.00337732 3.87242e-05 -5.62621e-24)
(-0.00364865 -0.00216692 2.41984e-25)
(-0.00383691 -0.00173116 -1.17781e-24)
(-0.00403952 -0.00147578 1.88707e-24)
(-0.00422523 -0.00122239 0)
(-0.00440094 -0.00100137 -3.99936e-24)
(-0.00457414 -0.000812867 -8.09931e-37)
(-0.00474207 -0.000659305 4.5787e-24)
(-0.00489068 -0.000542287 2.95202e-23)
(-0.00499225 -0.000457978 2.77565e-23)
(-0.00505495 -0.000421546 -1.1073e-23)
(-0.00515978 -0.000455381 -3.39717e-24)
(-0.00541376 -0.000584857 -8.3515e-25)
(-0.00578948 -0.000739299 1.78648e-28)
(-0.00603124 -0.00079857 3.77897e-24)
(-0.0057393 -0.000592959 1.29335e-23)
(-0.00486232 -0.000185836 -3.79247e-23)
(-0.0039315 0.000159632 -5.66442e-24)
(-0.00356559 0.000145393 5.90763e-24)
(-0.00339329 -0.0022335 2.37744e-23)
(-0.00356981 -0.00178393 1.12598e-24)
(-0.00380322 -0.00152584 -1.2496e-28)
(-0.00400542 -0.00126024 1.2267e-36)
(-0.00419722 -0.0010248 -6.50931e-24)
(-0.00438734 -0.000818225 -2.3245e-24)
(-0.00457792 -0.00064486 2.72392e-23)
(-0.00476486 -0.000505371 3.5768e-23)
(-0.00493349 -0.000400015 -3.07492e-24)
(-0.00505949 -0.000326161 -3.24031e-23)
(-0.005165 -0.000305535 3.00122e-24)
(-0.00533458 -0.00035325 -4.51163e-23)
(-0.00564841 -0.000470581 4.19926e-24)
(-0.00602956 -0.000556956 4.80879e-24)
(-0.00618849 -0.000490812 5.83363e-24)
(-0.00578136 -0.000161994 -4.92521e-24)
(-0.00489562 0.00025834 3.37032e-23)
(-0.00411006 0.000464108 1.1259e-23)
(-0.00393274 0.000235866 1.68164e-30)
(-0.00308393 -0.00230057 1.20917e-23)
(-0.0033151 -0.00183698 -1.39979e-24)
(-0.00354741 -0.00156788 -1.59285e-24)
(-0.00377092 -0.00129582 -1.24877e-37)
(-0.00397773 -0.00104851 4.87988e-24)
(-0.00418241 -0.000826775 -9.03558e-25)
(-0.00438803 -0.000634391 3.21119e-24)
(-0.00459685 -0.000474325 4.80138e-24)
(-0.00480367 -0.000345298 -5.94783e-25)
(-0.00499376 -0.000247528 -3.35982e-23)
(-0.00515035 -0.000180041 3.15321e-24)
(-0.00530639 -0.000167815 -3.75885e-23)
(-0.00553917 -0.00021345 -3.71798e-25)
(-0.00589361 -0.000293316 7.34452e-24)
(-0.0062493 -0.000285839 5.94162e-24)
(-0.00631142 -8.91298e-05 2.05021e-29)
(-0.00582728 0.000325803 -6.35353e-24)
(-0.00501341 0.000694387 6.22716e-24)
(-0.0044323 0.000720376 -1.9769e-25)
(-0.00443726 0.000297899 -6.60231e-24)
(-0.00279739 -0.00234843 -3.7179e-23)
(-0.00303477 -0.00188357 -4.5889e-26)
(-0.00328041 -0.00160916 3.99132e-23)
(-0.00352169 -0.001329 -1.4804e-37)
(-0.00374439 -0.00107184 2.13868e-25)
(-0.00396249 -0.00083683 2.05679e-28)
(-0.00418041 -0.000628377 -4.90686e-26)
(-0.00440227 -0.000448781 3.52528e-23)
(-0.00462962 -0.000299599 -3.7564e-24)
(-0.00485618 -0.000177606 -3.28931e-23)
(-0.00506921 -8.35258e-05 -3.13332e-24)
(-0.00526128 -1.809e-05 3.4251e-23)
(-0.00547101 -4.97095e-06 -3.81976e-24)
(-0.00575827 -3.09483e-05 4.81179e-23)
(-0.00612834 -5.09059e-05 1.0642e-23)
(-0.0064298 6.41636e-05 -2.10877e-29)
(-0.00639502 0.000373437 -6.60623e-24)
(-0.00588597 0.000815543 1.15674e-23)
(-0.00521599 0.00106598 -1.35619e-36)
(-0.00486658 0.000893878 -1.04645e-23)
(-0.00501895 0.000323463 -2.14481e-26)
(-0.00249399 -0.00240481 7.10968e-24)
(-0.00273072 -0.00191797 -1.05003e-25)
(-0.00301798 -0.00164924 -9.70885e-24)
(-0.00326005 -0.00135822 0)
(-0.00349723 -0.00109359 -2.32381e-23)
(-0.00372944 -0.000847853 4.06967e-24)
(-0.00395862 -0.000625197 -4.09525e-24)
(-0.00419084 -0.000429061 3.1252e-23)
(-0.00442914 -0.000260467 -7.53004e-24)
(-0.00467437 -0.000119588 -1.14134e-24)
(-0.00491997 -1.37114e-06 2.2283e-38)
(-0.00515694 9.24787e-05 -4.20063e-24)
(-0.00538704 0.000160746 3.65771e-25)
(-0.00564802 0.000185155 -1.3612e-23)
(-0.0059745 0.000195273 3.49654e-23)
(-0.00633263 0.000250314 -4.4009e-24)
(-0.00655802 0.000468905 -6.19986e-24)
(-0.00644234 0.000848524 6.59939e-24)
(-0.00596737 0.00124558 1.06498e-25)
(-0.00549249 0.00132307 -6.78093e-24)
(-0.00536611 0.00096312 -2.48887e-25)
(-0.00560968 0.000311419 7.11993e-23)
(-0.00216847 -0.00243951 -4.12402e-25)
(-0.00244598 -0.00196111 -1.32831e-24)
(-0.00271278 -0.00167319 3.07667e-23)
(-0.00298461 -0.00138653 -4.21308e-38)
(-0.00323748 -0.00111354 4.03153e-23)
(-0.00348348 -0.000858733 -7.69753e-24)
(-0.00372463 -0.00062432 7.92502e-24)
(-0.00396608 -0.000413192 4.61093e-24)
(-0.00421293 -0.000228174 3.05921e-29)
(-0.00446723 -6.87043e-05 -3.32715e-23)
(-0.00472907 6.64873e-05 1.42925e-37)
(-0.00499255 0.000183801 -3.63811e-24)
(-0.0052536 0.000280518 3.92624e-25)
(-0.00552094 0.000356891 -3.69495e-23)
(-0.00582503 0.000402493 2.94129e-24)
(-0.00617073 0.000460713 -3.51711e-23)
(-0.00649038 0.00059338 -4.10715e-24)
(-0.00662959 0.000890379 6.72757e-24)
(-0.00646381 0.00127824 2.86082e-30)
(-0.00607898 0.00155737 -1.34591e-23)
(-0.00582117 0.00143315 -1.73219e-23)
(-0.0058771 0.00092602 7.99905e-23)
(-0.00614662 0.000268431 1.97367e-27)
(-0.00186214 -0.00248135 -9.54057e-24)
(-0.00212758 -0.00198785 -3.32756e-25)
(-0.00242947 -0.00171004 1.28648e-23)
(-0.00269982 -0.00141091 -1.18418e-37)
(-0.0029656 -0.00113158 -7.5895e-25)
(-0.00322489 -0.000868708 -5.51842e-24)
(-0.00347853 -0.000624605 2.33773e-23)
(-0.00372999 -0.000400865 3.39118e-23)
(-0.00398425 -0.000200425 2.66819e-23)
(-0.00424566 -2.52444e-05 -3.6897e-23)
(-0.00451495 0.000127125 1.65715e-37)
(-0.00479168 0.000259126 -2.85574e-23)
(-0.0050715 0.00037792 2.71692e-24)
(-0.00535531 0.000480222 4.27946e-24)
(-0.00565539 0.000569555 4.97188e-24)
(-0.00598969 0.000643557 1.2576e-23)
(-0.00633218 0.000753542 -3.39984e-25)
(-0.00659268 0.000950572 1.2067e-23)
(-0.00665035 0.00128086 -1.03167e-29)
(-0.00647518 0.00160459 -7.01015e-24)
(-0.0062234 0.001709 3.01444e-25)
(-0.00617269 0.00139049 7.54072e-24)
(-0.00634875 0.000801679 -1.56566e-24)
(-0.00658495 0.000207506 -8.00919e-23)
(-0.00152373 -0.0025092 5.19873e-26)
(-0.00181828 -0.00201766 -8.40733e-25)
(-0.00211931 -0.00173318 2.43124e-24)
(-0.00240351 -0.00143121 -1.2271e-37)
(-0.00268192 -0.00114667 -3.86899e-23)
(-0.00295431 -0.00087779 1.75741e-23)
(-0.00322045 -0.000625057 -4.22101e-23)
(-0.0034827 -0.000390883 4.50801e-24)
(-0.00374505 -0.000177215 1.51762e-24)
(-0.00401244 1.33498e-05 -3.15088e-23)
(-0.00428781 0.000180179 0)
(-0.00457064 0.000327559 -4.5481e-24)
(-0.00486032 0.000458532 -1.27742e-36)
(-0.00515444 0.000580583 4.84511e-24)
(-0.0054579 0.000690528 2.417e-24)
(-0.00578286 0.000795918 3.3467e-23)
(-0.00613115 0.000900049 -1.54123e-23)
(-0.00644946 0.00105448 3.9549e-23)
(-0.0066406 0.00128639 3.57688e-25)
(-0.00663636 0.00159073 -7.12965e-24)
(-0.00649495 0.00178337 1.04915e-25)
(-0.00639755 0.00168753 7.7274e-23)
(-0.00651563 0.00121942 -6.92381e-23)
(-0.00674315 0.00062646 -8.35409e-23)
(-0.00690656 0.000144515 -8.85106e-24)
(-0.00123624 -0.00253803 -5.10413e-23)
(-0.00149953 -0.00203955 7.13167e-24)
(-0.00180597 -0.00175652 -4.84359e-23)
(-0.00210025 -0.00144829 1.0973e-23)
(-0.00239027 -0.00116063 3.38769e-24)
(-0.00267327 -0.000884455 1.81329e-24)
(-0.0029509 -0.000625336 -9.69848e-24)
(-0.0032243 -0.000382094 4.2891e-23)
(-0.00349558 -0.000157334 -6.16288e-24)
(-0.00376934 4.67236e-05 -2.62671e-23)
(-0.00404974 0.000228406 -6.32926e-38)
(-0.00433807 0.000388607 -8.90493e-24)
(-0.00463275 0.000532956 -3.41093e-24)
(-0.00493325 0.000664493 6.26713e-23)
(-0.00523905 0.000790832 6.88992e-24)
(-0.00555742 0.000909189 -5.77914e-25)
(-0.0058969 0.00103012 -4.19579e-23)
(-0.00624237 0.00115897 3.29147e-24)
(-0.00652134 0.00133902 4.56356e-25)
(-0.00664642 0.00156349 -1.28072e-23)
(-0.00661224 0.0017808 4.3362e-26)
(-0.00654136 0.00179754 7.26599e-23)
(-0.00659378 0.00151496 2.90746e-24)
(-0.0068232 0.000969877 -4.59715e-23)
(-0.00704296 0.000445024 -9.36128e-24)
(-0.00712198 9.43002e-05 -9.12886e-31)
(-0.00100503 -0.00255334 -1.23198e-23)
(-0.00120875 -0.00205867 -1.94128e-24)
(-0.00148451 -0.00177262 -9.44163e-26)
(-0.00178845 -0.00146454 -1.82832e-28)
(-0.00208924 -0.00116919 -6.39003e-24)
(-0.00238276 -0.000890668 -8.83606e-24)
(-0.00267115 -0.00062385 4.04021e-23)
(-0.00295514 -0.000373872 4.13751e-23)
(-0.00323611 -0.000139565 -8.11807e-24)
(-0.00351692 7.60844e-05 -1.78994e-24)
(-0.0038023 0.000271103 1.62964e-37)
(-0.00409518 0.00044518 5.77303e-24)
(-0.00439513 0.000600484 -1.42916e-24)
(-0.00469981 0.000743327 3.71651e-24)
(-0.00500891 0.00087633 5.91045e-24)
(-0.00532337 0.00100696 -4.25532e-24)
(-0.00565073 0.00113207 -6.61241e-24)
(-0.0059937 0.00126358 5.60701e-24)
(-0.00632235 0.00140446 1.91353e-37)
(-0.00655633 0.00158176 -4.03159e-23)
(-0.0066332 0.00175235 1.37838e-24)
(-0.00660742 0.00183454 7.31703e-23)
(-0.00662966 0.0016645 -3.55148e-29)
(-0.00680265 0.00124532 -7.94179e-23)
(-0.00707992 0.000705931 1.25493e-22)
(-0.00725445 0.000300075 5.63345e-25)
(-0.00726574 6.8295e-05 9.37895e-24)
(-0.000787386 -0.00256067 -3.46622e-25)
(-0.000986393 -0.00207002 1.4526e-23)
(-0.00121012 -0.00178695 -9.43859e-24)
(-0.00147154 -0.00147136 5.11398e-24)
(-0.00178088 -0.00117996 4.05005e-23)
(-0.00208441 -0.000892019 -8.81931e-25)
(-0.00238232 -0.000622493 1.00587e-23)
(-0.00267627 -0.000364386 4.08787e-23)
(-0.00296679 -0.000123023 -9.02443e-24)
(-0.00325572 0.000102603 -4.46792e-23)
(-0.0035464 0.000309464 6.66807e-41)
(-0.00384328 0.000496289 2.14666e-24)
(-0.00414776 0.000664154 3.29607e-28)
(-0.00445779 0.000816016 -1.19618e-24)
(-0.0047706 0.000958338 1.48865e-23)
(-0.00508619 0.0010929 -3.9443e-23)
(-0.00540608 0.00122607 -5.88827e-24)
(-0.00573649 0.00135357 2.63984e-24)
(-0.00607362 0.00148649 -5.99163e-25)
(-0.00637745 0.00162082 3.35391e-24)
(-0.00657284 0.00176338 7.22013e-23)
(-0.00663133 0.00184088 7.80813e-23)
(-0.00665108 0.00176525 8.23802e-30)
(-0.00677017 0.00143472 -7.97929e-23)
(-0.00701688 0.000952758 -7.96267e-24)
(-0.00728609 0.00049161 -4.72223e-36)
(-0.00740506 0.000224878 9.09321e-24)
(-0.00738889 7.3183e-05 0)
(-0.000556444 -0.00257026 8.65442e-24)
(-0.000769962 -0.00207615 -2.37814e-23)
(-0.000988562 -0.00179719 5.8233e-23)
(-0.00119972 -0.00148255 2.4021e-23)
(-0.00146615 -0.00117977 -2.19754e-23)
(-0.00177778 -0.000896384 -1.02326e-24)
(-0.00208557 -0.000616562 2.15069e-24)
(-0.00238854 -0.000355589 3.17979e-23)
(-0.00268835 -0.000105674 2.71761e-23)
(-0.00298576 0.000127345 -4.55456e-23)
(-0.00328297 0.00034451 0)
(-0.0035837 0.000543128 -2.78015e-23)
(-0.00389165 0.000722772 6.34541e-24)
(-0.00420651 0.00088569 -4.76896e-24)
(-0.00452502 0.00103521 5.77084e-24)
(-0.00484435 0.0011774 -5.34605e-24)
(-0.00516455 0.00131227 3.47543e-23)
(-0.00548716 0.00144451 7.77452e-24)
(-0.00581612 0.0015678 -6.60133e-25)
(-0.00614195 0.00168984 -8.50433e-24)
(-0.00642153 0.0017972 1.2815e-23)
(-0.00659645 0.00187736 4.38157e-23)
(-0.00667302 0.00184003 1.11892e-24)
(-0.00676672 0.00161558 -7.95807e-23)
(-0.0069677 0.00118082 -8.70263e-24)
(-0.00723496 0.000714807 -8.65138e-25)
(-0.00745805 0.000379343 -5.24912e-23)
(-0.00753813 0.000239167 -7.0287e-24)
(-0.00755005 0.000110509 9.27282e-23)
(-0.000321391 -0.00257662 -1.63613e-23)
(-0.000542561 -0.00208535 -4.5689e-24)
(-0.000764153 -0.00180407 9.29308e-24)
(-0.000981689 -0.00149253 -1.09351e-23)
(-0.00119711 -0.0011871 3.09898e-23)
(-0.00146554 -0.000889481 -4.42749e-24)
(-0.00178081 -0.000614751 -3.99924e-23)
(-0.00209304 -0.000342447 2.75366e-23)
(-0.00240135 -8.94903e-05 1.03385e-23)
(-0.00270737 0.000152489 -6.77181e-23)
(-0.00301196 0.000377366 2.68645e-39)
(-0.00331775 0.000586463 4.73317e-23)
(-0.00362847 0.000777542 -1.12397e-23)
(-0.00394672 0.000951006 1.08419e-23)
(-0.00427063 0.00111008 -6.3421e-23)
(-0.00459623 0.00125797 5.99527e-24)
(-0.0049208 0.00139938 -7.02024e-24)
(-0.00524443 0.00153213 6.71736e-24)
(-0.00556838 0.00165879 5.77406e-25)
(-0.00589404 0.00176982 -1.16162e-23)
(-0.00620879 0.00186844 4.30307e-23)
(-0.00647386 0.00193182 4.89468e-23)
(-0.00665499 0.00193363 -6.85732e-23)
(-0.00678556 0.00178329 -8.01013e-23)
(-0.006968 0.0014482 -8.67674e-24)
(-0.00722227 0.00098086 3.10794e-30)
(-0.0074624 0.000597126 1.01159e-23)
(-0.00762545 0.000402145 4.44689e-23)
(-0.00770518 0.000347748 9.74799e-23)
(-0.0078062 0.000176731 3.38157e-26)
(-8.42183e-05 -0.00258104 -2.20922e-23)
(-0.000311232 -0.00209089 -1.16449e-23)
(-0.000538049 -0.00180992 -6.96142e-24)
(-0.000760811 -0.0014972 4.06214e-23)
(-0.000981009 -0.00119552 -1.73982e-23)
(-0.00119847 -0.000893334 -3.56268e-23)
(-0.00147021 -0.000601096 -1.8147e-25)
(-0.00178945 -0.00033446 -3.06713e-23)
(-0.00210663 -6.91542e-05 1.36135e-23)
(-0.00242078 0.000176047 -2.16878e-23)
(-0.00273329 0.000410265 -7.73415e-37)
(-0.00304536 0.000627345 -1.92281e-24)
(-0.00335989 0.000828896 -7.5738e-24)
(-0.00368031 0.00101318 2.81975e-23)
(-0.00400793 0.00118147 1.0015e-23)
(-0.00433966 0.00133765 3.38135e-23)
(-0.00467124 0.00148383 -1.25437e-23)
(-0.00500044 0.00162295 1.69264e-23)
(-0.00532748 0.0017505 -2.64608e-37)
(-0.00565325 0.00186626 -1.72678e-23)
(-0.0059774 0.00195752 -1.49586e-25)
(-0.0062874 0.00202324 7.90061e-24)
(-0.00655517 0.00203377 7.05693e-23)
(-0.00677231 0.00195766 -8.07294e-23)
(-0.00698546 0.00171925 -8.81536e-24)
(-0.00725669 0.00133086 -3.95541e-30)
(-0.00752974 0.000901869 9.73477e-24)
(-0.00771078 0.000641985 -8.3422e-24)
(-0.00782523 0.000569622 -3.35657e-23)
(-0.00795704 0.000540225 3.22113e-24)
(-0.00820316 0.000263318 -1.0008e-22)
(0.00015788 -0.00258344 1.00456e-23)
(-7.72052e-05 -0.00209346 -1.87742e-23)
(-0.000309556 -0.00181251 1.39426e-23)
(-0.0005371 -0.00150044 -5.39031e-24)
(-0.000761797 -0.00119846 2.37564e-23)
(-0.000984162 -0.000900317 -1.00818e-23)
(-0.00120453 -0.000601556 -1.29355e-23)
(-0.00148 -0.000314154 -1.26881e-23)
(-0.00180377 -5.49575e-05 4.66604e-23)
(-0.00212646 0.000203614 -1.53986e-23)
(-0.00244682 0.000441203 -1.09484e-37)
(-0.00276613 0.000667946 -4.46673e-23)
(-0.0030859 0.00087767 2.39185e-23)
(-0.00340918 0.00107224 -5.09573e-23)
(-0.00373882 0.00125059 -2.59999e-23)
(-0.00407488 0.00141478 -4.56483e-24)
(-0.0044134 0.00156841 3.47494e-23)
(-0.00475045 0.00171216 6.59494e-24)
(-0.0050846 0.00184706 -7.20619e-25)
(-0.00541635 0.00196594 -7.35124e-24)
(-0.00574666 0.00206618 5.81788e-25)
(-0.00607474 0.0021328 7.64487e-23)
(-0.00639132 0.00216198 -7.34554e-23)
(-0.00668267 0.00212175 -4.35857e-23)
(-0.00696268 0.00198467 -8.92166e-24)
(-0.00727515 0.00169963 8.41009e-26)
(-0.00762235 0.00132113 9.80553e-24)
(-0.00788256 0.000986753 0)
(-0.00799472 0.000861845 1.03525e-22)
(-0.00809415 0.000866649 4.57817e-23)
(-0.00833452 0.000791213 -1.03302e-22)
(-0.0087668 0.000357566 1.06203e-22)
(0.000402916 -0.00258131 1.25945e-24)
(0.000157773 -0.00209239 -2.40014e-23)
(-7.89424e-05 -0.00181191 -1.78187e-24)
(-0.000310795 -0.00150035 5.57798e-23)
(-0.000539856 -0.00119992 4.85986e-24)
(-0.000766528 -0.000901224 -2.37592e-23)
(-0.000991517 -0.000607106 7.72047e-25)
(-0.00121519 -0.000311307 4.89576e-24)
(-0.00149483 -2.80037e-05 -1.44693e-23)
(-0.00182378 0.00022411 -1.35412e-23)
(-0.00215257 0.00047603 1.36573e-23)
(-0.0024795 0.000706225 4.90018e-24)
(-0.00280581 0.000925858 2.44218e-24)
(-0.0031334 0.0011287 -1.26397e-23)
(-0.00346533 0.00131703 -5.49962e-24)
(-0.00380371 0.00149052 -2.02574e-24)
(-0.00414736 0.00165126 1.44434e-24)
(-0.00449208 0.00180225 -7.27022e-23)
(-0.00483483 0.00194256 6.66515e-24)
(-0.00517521 0.00207097 -7.53933e-24)
(-0.00551437 0.00217829 -4.34222e-23)
(-0.00585397 0.00226044 8.36379e-23)
(-0.00619408 0.00230166 -5.47167e-24)
(-0.00653093 0.00229784 -7.85079e-23)
(-0.00686582 0.00221971 -7.81403e-23)
(-0.00722767 0.00205073 5.06333e-26)
(-0.0076422 0.00176694 8.22088e-24)
(-0.00804424 0.00145425 0)
(-0.00827035 0.00124688 1.06424e-22)
(-0.00832759 0.00123751 1.45318e-23)
(-0.00846099 0.00125404 -6.17752e-23)
(-0.00886035 0.00106318 1.06619e-22)
(-0.00949749 0.000444607 6.66201e-26)
(0.000652806 -0.00257342 -2.97367e-23)
(0.000394416 -0.00208767 2.88625e-24)
(0.000154071 -0.00180813 -1.55034e-23)
(-8.24101e-05 -0.00149737 2.68095e-23)
(-0.000315434 -0.00119772 -1.86744e-23)
(-0.000546098 -0.000900654 3.72589e-24)
(-0.000775106 -0.000606007 5.20268e-24)
(-0.00100308 -0.000315405 -9.64802e-24)
(-0.00123038 -2.20086e-05 1.5758e-23)
(-0.00151464 0.000257699 -1.14526e-23)
(-0.00184952 0.000502901 -2.26344e-28)
(-0.00218499 0.000748261 -7.27331e-24)
(-0.00251874 0.000971334 -1.17153e-23)
(-0.00285215 0.00118426 4.80939e-23)
(-0.00318763 0.00138088 4.18599e-24)
(-0.00352809 0.001564 -7.37946e-24)
(-0.00387469 0.00173343 3.22443e-23)
(-0.00422537 0.0018911 1.15131e-23)
(-0.00457631 0.00203915 -4.05677e-28)
(-0.00492571 0.00217465 -7.27265e-24)
(-0.00527452 0.00229467 -7.38943e-25)
(-0.00562489 0.00238901 -1.82613e-24)
(-0.0059797 0.00245331 7.24567e-24)
(-0.00634077 0.00247298 -8.95988e-23)
(-0.00671076 0.00244642 8.66945e-23)
(-0.00710413 0.00235092 -1.33491e-37)
(-0.00755555 0.00218375 -7.71312e-24)
(-0.00806184 0.00194508 -8.49408e-24)
(-0.00849476 0.00173681 1.08529e-22)
(-0.00868042 0.00166048 -1.12975e-28)
(-0.00871779 0.00171998 -1.17953e-22)
(-0.00894077 0.00167386 -3.88561e-23)
(-0.00953455 0.0013131 -1.1564e-23)
(-0.0103682 0.000510342 -1.25335e-22)
(0.00090281 -0.00256133 1.80182e-23)
(0.000635635 -0.00207829 -1.51881e-24)
(0.000388672 -0.00180066 -3.61515e-23)
(0.000147543 -0.00149107 6.39124e-23)
(-8.91107e-05 -0.00119248 4.65714e-24)
(-0.000323184 -0.000896257 -2.72497e-23)
(-0.000555833 -0.000603472 1.40727e-24)
(-0.000787511 -0.000312252 -5.27981e-24)
(-0.00101874 -2.47801e-05 -7.07776e-24)
(-0.00124997 0.000266737 -2.84625e-24)
(-0.00153936 0.000543095 -1.51062e-23)
(-0.00188099 0.000781465 4.04684e-23)
(-0.00222363 0.00102036 -1.25476e-24)
(-0.00256428 0.00123665 1.3265e-23)
(-0.00290487 0.00144353 -8.16359e-23)
(-0.00324832 0.00163493 8.16683e-24)
(-0.00359714 0.00181367 6.04076e-24)
(-0.00395157 0.00197968 -2.99733e-23)
(-0.00430918 0.00213455 1.81285e-36)
(-0.0046669 0.00227898 8.04334e-23)
(-0.00502457 0.00240845 -6.88341e-24)
(-0.00538466 0.00251919 8.43125e-23)
(-0.00575051 0.00260097 4.81333e-23)
(-0.00612632 0.00265062 -8.95365e-23)
(-0.00651606 0.00265664 -1.29493e-23)
(-0.00692848 0.00262202 1.42989e-25)
(-0.00738714 0.00253194 -8.68309e-23)
(-0.00792407 0.00239724 3.8398e-23)
(-0.00850202 0.00223515 1.08566e-22)
(-0.00894402 0.00214645 1.20288e-28)
(-0.00909932 0.00217595 -1.20234e-22)
(-0.00916722 0.00223843 1.29525e-22)
(-0.00953231 0.00206059 -2.28735e-36)
(-0.0103336 0.0015016 -1.38808e-22)
(-0.0113304 0.000545725 0)
(0.00120685 -0.00254221 -4.27946e-25)
(0.000881518 -0.00206094 -1.92845e-23)
(0.000624049 -0.00179092 2.20924e-23)
(0.000378844 -0.00148082 -4.43479e-24)
(0.000138666 -0.00118393 2.48472e-23)
(-9.84684e-05 -0.000888797 -2.53948e-23)
(-0.000334112 -0.000596961 9.17373e-24)
(-0.000569051 -0.000307792 2.2201e-23)
(-0.000803677 -1.96102e-05 -4.74677e-23)
(-0.00103843 0.000265204 8.55997e-24)
(-0.00127387 0.000555136 4.02584e-24)
(-0.00156897 0.000828186 1.63464e-24)
(-0.00191809 0.00105965 -1.41707e-24)
(-0.00226816 0.00129227 1.83779e-24)
(-0.00261573 0.00150245 9.24523e-24)
(-0.00296365 0.00170431 3.00227e-23)
(-0.00331513 0.00189134 -8.57301e-24)
(-0.00367218 0.00206646 -6.35619e-24)
(-0.00403435 0.00222966 2.79192e-24)
(-0.00439912 0.00238158 -1.27728e-23)
(-0.00476473 0.0025217 -4.82975e-23)
(-0.00513277 0.00264459 8.50516e-23)
(-0.00550716 0.00274635 -9.88343e-24)
(-0.00589231 0.00281789 2.01186e-24)
(-0.00629357 0.00285858 -9.04209e-24)
(-0.00671685 0.00286128 2.70273e-25)
(-0.00717529 0.00283388 -8.04669e-24)
(-0.0076972 0.00276904 -2.52003e-24)
(-0.00830559 0.00268814 9.41625e-24)
(-0.00892935 0.00261643 3.06729e-24)
(-0.00936521 0.00263635 -1.25034e-22)
(-0.00951613 0.00272162 1.27924e-22)
(-0.00967211 0.00271485 1.85011e-23)
(-0.0102186 0.00235561 4.49258e-23)
(-0.0112163 0.00160295 5.09871e-24)
(-0.0123254 0.000548274 1.61639e-23)
(0.00157158 -0.00251665 -5.39084e-24)
(0.0011735 -0.00204455 -1.46623e-24)
(0.000859828 -0.00177489 -5.56707e-24)
(0.000611293 -0.00146837 -1.80409e-24)
(0.000367463 -0.00117149 4.84975e-23)
(0.000127556 -0.00087799 -3.11883e-23)
(-0.000110609 -0.000587277 1.15885e-23)
(-0.000348162 -0.000299181 -3.53618e-24)
(-0.000585702 -1.32997e-05 -1.09356e-23)
(-0.000823564 0.000272319 1.36045e-23)
(-0.00106206 0.000554802 -2.03497e-23)
(-0.00130197 0.00084321 8.6077e-24)
(-0.00160342 0.00111272 -1.20684e-23)
(-0.00196053 0.00133716 -4.58336e-23)
(-0.00231808 0.00156413 -2.19817e-23)
(-0.00267267 0.00176935 -6.22056e-24)
(-0.00302814 0.00196713 5.66715e-23)
(-0.00338777 0.00215056 4.85009e-24)
(-0.00375305 0.00232282 -8.33288e-24)
(-0.00412302 0.00248339 3.33371e-23)
(-0.00449558 0.00263214 8.61943e-24)
(-0.00487056 0.00276765 -9.15987e-23)
(-0.00525119 0.00288414 1.63133e-23)
(-0.00564247 0.00297844 -8.23698e-23)
(-0.00604958 0.00304365 9.51587e-24)
(-0.00647857 0.00308254 -3.35767e-24)
(-0.00693625 0.0030921 9.23265e-24)
(-0.00743833 0.00308442 9.63058e-23)
(-0.00801388 0.00305753 1.70588e-22)
(-0.00867275 0.00303868 5.92219e-23)
(-0.00931579 0.00305127 -1.2959e-22)
(-0.00974093 0.00314515 1.33565e-22)
(-0.00992631 0.00322144 -3.58793e-28)
(-0.0102247 0.00308165 -1.26469e-22)
(-0.0109724 0.00252227 -2.55964e-36)
(-0.0121347 0.00161171 7.26475e-24)
(-0.0132979 0.000522733 2.05185e-29)
(0.00193189 -0.00248353 -7.50111e-23)
(0.00153873 -0.00201816 7.98468e-24)
(0.0011558 -0.00175448 -9.08628e-25)
(0.000843564 -0.00144992 9.08671e-27)
(0.000596949 -0.00115709 -2.52972e-24)
(0.000354362 -0.000863292 9.43854e-25)
(0.000114117 -0.000574149 2.35081e-23)
(-0.000125533 -0.000287258 -1.92189e-23)
(-0.000365327 -2.57973e-06 1.51749e-23)
(-0.000605804 0.000280475 -4.773e-23)
(-0.000847141 0.000563803 -4.34656e-24)
(-0.00108957 0.00084405 4.72535e-25)
(-0.00133434 0.00113079 2.35073e-23)
(-0.00164271 0.00139631 9.49565e-25)
(-0.00200787 0.00161401 2.30486e-23)
(-0.00237289 0.00183663 -1.31439e-23)
(-0.00273472 0.00203796 5.17221e-24)
(-0.00309805 0.00223248 -9.48101e-23)
(-0.00346602 0.00241309 1.42432e-23)
(-0.00383957 0.00258284 7.08518e-24)
(-0.00421761 0.00274084 -1.14455e-24)
(-0.00459891 0.00288635 7.53007e-23)
(-0.00498489 0.00301739 4.85263e-23)
(-0.00537998 0.00312844 -8.6942e-23)
(-0.00578988 0.0032179 -1.02746e-23)
(-0.00622008 0.00328171 -2.55872e-36)
(-0.00667632 0.00332564 1.10481e-23)
(-0.00716545 0.00335 -2.17049e-26)
(-0.00770404 0.00336928 9.38261e-24)
(-0.00831851 0.00338367 -1.08898e-22)
(-0.00900411 0.00342094 6.30526e-24)
(-0.00964496 0.00349374 1.39343e-22)
(-0.0100681 0.00361073 3.31487e-28)
(-0.0103334 0.00361229 -1.45595e-22)
(-0.0108167 0.00329903 -9.06863e-24)
(-0.0117642 0.00255497 -5.36875e-23)
(-0.0130452 0.00154292 -1.77181e-24)
(-0.0142069 0.000479473 -1.95059e-23)
(0.00229224 -0.00244675 9.4028e-25)
(0.00189178 -0.00198554 6.60417e-25)
(0.0015057 -0.00173289 -2.29701e-23)
(0.00113524 -0.0014285 1.96595e-24)
(0.000826278 -0.00113606 -7.35863e-24)
(0.000581672 -0.000846745 2.21272e-25)
(0.000339489 -0.000557142 6.16572e-24)
(9.83329e-05 -0.00027183 -1.92694e-24)
(-0.000143218 1.16189e-05 -2.17553e-23)
(-0.000385633 0.000293364 1.64776e-23)
(-0.000629384 0.000573867 1.74297e-23)
(-0.000874392 0.000854943 -2.08644e-23)
(-0.00112098 0.00113285 1.02126e-23)
(-0.00137112 0.00141764 -2.87397e-24)
(-0.00168685 0.00167897 -3.04291e-23)
(-0.00205974 0.00189095 4.03176e-23)
(-0.00243218 0.00211055 4.41103e-23)
(-0.00280167 0.0023089 1.0767e-23)
(-0.00317326 0.00250094 -1.83099e-24)
(-0.00354969 0.00267909 -5.41818e-24)
(-0.00393159 0.0028465 -1.65855e-37)
(-0.00431819 0.00300206 -7.12707e-23)
(-0.00470931 0.00314449 5.53594e-24)