/*--------------------------------*- C++ -*----------------------------------*\
| =========                 |                                                 |
| \\      /  F ield         | OpenFOAM: The Open Source CFD Toolbox           |
|  \\    /   O peration     | Version:  2506                                  |
|   \\  /    A nd           | Website:  www.openfoam.com                      |
|    \\/     M anipulation  |                                                 |
\*---------------------------------------------------------------------------*/
FoamFile
{
    version     2.0;
    format      ascii;
    arch        "LSB;label=32;scalar=64";
    class       volScalarField;
    location    "170.004218234212004";
    object      mag(vorticity);
}
// * * * * * * * * * * * * * * * * * * * * * * * * * * * * * * * * * * * * * //

dimensions      [0 0 -1 0 0 0 0];

internalField   nonuniform List<scalar> 
9700
(
3.30668e-05
0.000111324
4.47363e-05
0.000150709
0.000174112
1.5251e-05
0.00014562
0.000243301
1.59449e-06
1.35184e-05
6.18541e-05
0.000332168
8.1204e-06
4.38062e-05
1.27341e-05
3.15021e-05
0.000437887
1.28994e-05
4.16752e-05
2.11131e-05
3.925e-06
0.000370497
0.000572181
1.77281e-05
6.09677e-05
5.01493e-06
1.059e-05
8.02505e-06
0.000961613
0.00067526
5.53333e-05
7.30036e-05
2.09119e-05
2.61199e-05
6.55801e-07
1.59341e-05
0.00123652
0.000774663
0.000101083
6.08461e-05
2.62234e-05
1.91855e-05
2.16802e-05
3.79671e-05
1.82864e-05
0.00200738
0.000887153
0.000180167
5.76467e-05
4.96509e-06
1.25992e-05
2.83679e-05
5.11808e-05
4.27149e-05
2.73898e-05
0.00248363
0.00110711
0.000266035
5.98015e-05
4.1535e-05
2.36692e-05
4.4175e-05
4.58737e-05
7.55662e-05
7.4091e-05
7.86481e-06
0.00341273
0.00126059
0.000406315
1.45316e-05
8.49013e-05
1.50384e-07
4.8367e-05
6.90191e-05
9.48743e-05
9.82931e-05
7.03879e-05
3.42579e-05
0.00519883
0.00112947
0.000625026
3.07521e-05
0.000115045
5.20963e-05
1.32127e-05
9.48337e-05
0.000123647
0.00014381
0.000165187
0.000110568
3.95136e-05
0.00840151
0.000357795
0.0015468
9.68908e-05
0.000131772
0.00011023
3.90835e-05
5.54823e-05
0.000138411
0.000185953
0.0002009
0.00020226
0.000132089
3.57436e-05
0.00387642
0.00251645
0.00384453
0.001352
0.000325907
9.14915e-05
6.20859e-05
2.61205e-05
0.000129912
0.000207938
0.000246816
0.000271634
0.000230401
0.000144803
5.15546e-05
0.000512732
0.00517831
0.00359903
0.00406254
0.0021281
0.000300817
3.25267e-05
5.00468e-08
0.000120137
0.000239727
0.00029398
0.000316987
0.000315035
0.000273152
0.000161412
5.36096e-05
0.00543294
0.024893
0.00942402
0.000914388
0.00536581
0.00252898
0.000312232
3.33918e-05
8.28013e-05
0.000231139
0.000343444
0.000382572
0.000408411
0.000365382
0.000288285
0.000198483
5.7004e-05
0.0297036
0.0323423
0.0318135
0.0212766
0.00114725
0.00599949
0.00276764
0.00019528
0.000151614
0.000192672
0.000367399
0.000440568
0.000485324
0.000468696
0.000417347
0.000334591
0.000206135
4.6662e-05
0.0765855
0.000944999
0.0284265
0.0506656
0.031965
0.00362607
0.00645265
0.00266635
4.33119e-05
0.000249143
0.000323066
0.000482982
0.000534784
0.000575464
0.000551005
0.00045226
0.000336717
0.000210253
5.60844e-05
0.140427
0.0663382
0.0351288
0.0399186
0.0667045
0.0422695
0.00488382
0.00656648
0.00222573
0.000116585
0.000349214
0.000505388
0.000608715
0.000666609
0.000642525
0.00058133
0.000463294
0.000345848
0.000217773
5.70634e-05
0.194188
0.139333
0.139881
0.0488653
0.0484912
0.0833722
0.048979
0.00435046
0.00629108
0.00153475
0.000318636
0.000512817
0.000642174
0.00072473
0.00073406
0.00069659
0.00062057
0.000480015
0.000350381
0.000192798
3.81687e-05
0.22387
0.200727
0.255591
0.178804
0.0631859
0.0629126
0.0983401
0.0505116
0.00208442
0.00550736
0.000748277
0.00047491
0.000658029
0.000760966
0.000842216
0.000803766
0.000746808
0.000629537
0.000473674
0.00032254
0.000173765
3.57575e-05
0.229552
0.232077
0.359897
0.31991
0.214276
0.062725
0.0852134
0.109545
0.0461357
0.000998212
0.0042603
6.83432e-05
0.000633015
0.000818951
0.000885024
0.000915867
0.000832049
0.000733297
0.000586879
0.000450787
0.000287996
0.000177625
2.31884e-05
0.282316
0.214268
0.432709
0.453658
0.379439
0.227796
0.0451403
0.114564
0.113666
0.0364232
0.00356046
0.00268385
0.000444848
0.000797714
0.000950224
0.000970477
0.000942104
0.000856225
0.000715324
0.000558708
0.000403755
0.000252489
0.000127712
2.04541e-05
0.169493
0.188586
0.464286
0.553968
0.545629
0.408923
0.237974
0.00908346
0.14255
0.108157
0.02353
0.00460462
0.00115559
0.000766488
0.00094583
0.00105201
0.00102704
0.000961353
0.000852193
0.000681028
0.000507022
0.000331078
0.000223013
0.000111589
3.07213e-05
0.134344
0.185274
0.439081
0.615194
0.679904
0.602099
0.365025
0.236492
0.0798934
0.160518
0.0916976
0.0107802
0.00394087
5.67056e-06
0.000966227
0.00107257
0.00112185
0.0010505
0.000940237
0.000780596
0.000614983
0.0004503
0.000304323
0.000181171
9.58215e-05
8.63946e-06
0.123977
0.0496931
0.372262
0.617924
0.774795
0.767764
0.616331
0.318198
0.0952698
0.128584
0.165081
0.0663309
0.00153252
0.0022336
0.000642916
0.00108965
0.00113858
0.001135
0.00102318
0.000888881
0.000725146
0.000539243
0.000363565
0.000227321
0.000103634
4.24972e-05
2.00134e-06
0.132017
0.0874723
0.2862
0.576339
0.807292
0.891371
0.812339
0.60056
0.296175
0.00853975
0.174613
0.150374
0.0383537
0.00270198
0.000543887
0.000949252
0.00118385
0.00116416
0.00111545
0.000960738
0.000786654
0.000624807
0.000434984
0.000289857
0.000161701
7.74415e-05
2.6138e-05
9.98338e-06
0.154427
0.233647
0.195634
0.503308
0.805753
0.960861
0.95858
0.804206
0.555282
0.217569
0.0841882
0.204658
0.116116
0.0153868
0.00284283
0.000559807
0.00107334
0.00119858
0.00113884
0.0010202
0.000864567
0.000691044
0.000524089
0.00035127
0.000214542
0.000109618
6.16884e-05
2.0495e-05
1.06874e-06
0.0980302
0.37824
0.137568
0.417853
0.748543
1.00995
1.0695
0.969436
0.742409
0.435739
0.0845805
0.173322
0.200837
0.0718857
0.00219919
0.00126618
0.000971647
0.00106237
0.00113349
0.00105457
0.000907508
0.000735395
0.000560096
0.000394793
0.000252104
0.000152816
8.13605e-05
2.8279e-05
1.68962e-05
3.05397e-06
0.0680268
0.499825
0.02306
0.316962
0.670298
0.956989
1.1527
1.1077
0.918317
0.630781
0.287103
0.050924
0.230972
0.161679
0.032459
0.00200094
0.000169879
0.00102734
0.00104147
0.00100907
0.000915581
0.000740253
0.000582408
0.00042423
0.000285288
0.000170974
7.32558e-05
2.25202e-05
9.50083e-06
1.67487e-06
1.60528e-05
0.247507
0.583151
0.112412
0.20787
0.57737
0.885315
1.10058
1.17824
1.06364
0.80054
0.477649
0.12311
0.17335
0.239451
0.102563
0.00798391
0.00145688
0.00082655
0.000954733
0.000959893
0.000843732
0.000761169
0.000583673
0.000424216
0.000291595
0.00016243
8.44499e-05
1.28162e-05
3.51856e-06
5.06953e-06
4.83985e-06
1.3391e-05
0.417997
0.625857
0.181362
0.0959129
0.476139
0.80117
1.045
1.16047
1.10463
0.927316
0.633961
0.296567
0.0464638
0.255238
0.197274
0.0468154
0.00139474
0.000268441
0.000784167
0.000823259
0.000799077
0.000651178
0.000559218
0.000387365
0.000302016
0.000170323
8.68064e-05
4.87737e-05
6.97798e-06
9.8212e-06
3.20391e-05
7.4081e-06
1.55138e-05
0.571574
0.640765
0.265611
0.0234725
0.37055
0.710689
0.969989
1.12921
1.13811
0.995461
0.75106
0.439767
0.101547
0.196373
0.271498
0.125161
0.0112861
0.00254573
0.000190102
0.000337884
0.000556764
0.00057244
0.00041707
0.000381212
0.000244877
0.000147535
7.00646e-05
1.52233e-05
1.1735e-05
1.06992e-06
6.81691e-06
3.35733e-05
1.4413e-05
4.91591e-06
0.631382
0.638679
0.319698
0.128336
0.262717
0.620081
0.884245
1.07075
1.12794
1.0523
0.827757
0.542147
0.228693
0.0897117
0.292405
0.220605
0.0564859
0.00264611
0.00204201
0.00105936
0.000477464
1.91953e-06
0.000245529
0.000223743
0.00019536
7.14599e-05
2.98318e-05
3.53614e-05
3.27657e-05
3.8952e-05
1.22159e-05
1.89589e-05
7.17465e-05
3.30275e-05
1.31745e-05
0.625975
0.629065
0.361796
0.219857
0.148152
0.53092
0.795155
0.992216
1.08915
1.0427
0.85945
0.587603
0.314777
0.0145624
0.248304
0.305566
0.134848
0.0143512
0.00424411
0.00227667
0.00214662
0.00150264
0.000842684
0.0002585
3.76293e-06
6.02082e-05
5.49843e-05
5.9627e-05
6.55923e-05
3.73732e-05
3.83623e-06
3.73736e-05
5.97633e-05
9.45459e-05
7.41305e-05
2.288e-05
0.624401
0.600177
0.389812
0.286066
0.0695667
0.449499
0.708419
0.905148
1.01972
1.01573
0.855603
0.576276
0.358352
0.0887102
0.184244
0.337047
0.236822
0.0594945
0.00143653
0.00276945
0.00248335
0.00218954
0.00222983
0.00202867
0.000990965
0.000193408
3.13704e-05
0.000125984
0.000111926
8.02591e-05
3.28688e-05
2.6753e-05
7.29728e-05
0.000118255
0.000150965
0.000106214
3.30731e-05
0.597594
0.552104
0.404652
0.3274
0.0343392
0.375046
0.63313
0.817701
0.936598
0.957469
0.834214
0.572644
0.362463
0.123262
0.126308
0.338785
0.331367
0.134861
0.014394
0.0062963
0.00293144
0.00122766
5.46895e-05
0.00186221
0.00325423
0.00193493
0.00039376
9.3302e-05
0.00018247
0.000151732
6.54391e-05
5.6713e-06
8.72975e-05
0.000148222
0.0001843
0.000180454
0.0001267
2.82763e-05
0.515844
0.451202
0.405995
0.327368
0.00546756
0.314903
0.565739
0.746629
0.848379
0.881406
0.78782
0.541568
0.344165
0.125591
0.111242
0.311125
0.406458
0.245179
0.0449221
0.0115861
0.0167427
0.00748972
0.00175787
0.00561653
0.000426358
0.00427325
0.00294641
0.000558524
0.000154016
0.000184716
0.000104099
2.42818e-06
8.99722e-05
0.000164898
0.000215198
0.000237719
0.000226173
0.000138454
4.1575e-05
0.373757
0.420166
0.310106
0.229791
0.00814249
0.273056
0.506246
0.681537
0.783916
0.799829
0.72297
0.488775
0.308371
0.146372
0.1215
0.329194
0.428061
0.352505
0.122975
0.0133092
0.0434586
0.0440393
0.0199734
0.005411
0.0145013
0.00473258
0.00497881
0.00373046
0.000643417
0.000175737
0.000189317
5.19054e-05
7.07841e-05
0.000163903
0.000263726
0.000316949
0.000296521
0.000269583
0.000172976
4.44656e-05
0.188647
0.208958
0.158661
0.090012
0.0505529
0.250943
0.462869
0.622108
0.729974
0.726073
0.645367
0.428576
0.223276
0.143562
0.151102
0.354108
0.489761
0.44019
0.216971
0.0126905
0.0712273
0.102612
0.0927723
0.0426379
0.00886106
0.0258392
0.00984282
0.00559766
0.00405987
0.000594996
0.000193947
0.000129692
4.82679e-05
0.000199853
0.000302413
0.000370141
0.000376115
0.000369485
0.000300865
0.000194911
5.7007e-05
0.0264531
0.00750837
0.0135151
0.0392119
0.124147
0.2576
0.424196
0.571866
0.64263
0.677636
0.558628
0.350715
0.123727
0.111006
0.19851
0.393969
0.541497
0.539189
0.34185
0.0649368
0.0842207
0.162084
0.192869
0.158255
0.0715699
0.0136913
0.0382431
0.0135724
0.00639977
0.00384253
0.000467284
0.000148293
2.42449e-06
0.000189049
0.000316501
0.000411247
0.000453648
0.000477503
0.00040789
0.000340895
0.000219352
5.29138e-05
0.155021
0.169147
0.158753
0.165373
0.215342
0.289435
0.393025
0.498248
0.561997
0.53247
0.469014
0.271532
0.041069
0.0430883
0.273201
0.454907
0.584103
0.643019
0.455677
0.170698
0.0734712
0.203697
0.289451
0.29915
0.224202
0.0955253
0.0247583
0.0499665
0.014039
0.00729444
0.0031005
0.000290674
6.22437e-05
0.000111057
0.000308582
0.000432555
0.000532985
0.000559585
0.000559359
0.000468329
0.000345052
0.000216014
5.32069e-05
0.175182
0.229486
0.23128
0.241386
0.272478
0.319808
0.378948
0.417268
0.444133
0.419209
0.303395
0.158806
0.0169245
0.0536
0.389862
0.531388
0.648366
0.701681
0.605742
0.278054
0.0154398
0.22303
0.36298
0.431669
0.394246
0.27224
0.0931026
0.046172
0.05899
0.01065
0.00765553
0.00210231
0.000181473
5.87068e-05
0.000281262
0.000482328
0.000595574
0.000654512
0.000664849
0.000598826
0.000473982
0.000366451
0.000225779
4.66143e-05
0.114393
0.183396
0.211625
0.238323
0.26364
0.288412
0.317759
0.346776
0.330094
0.282867
0.195238
0.0514101
0.105752
0.187898
0.44892
0.612876
0.722417
0.767397
0.710936
0.428049
0.0657803
0.203597
0.411325
0.542154
0.556223
0.450811
0.318674
0.0422253
0.0753443
0.0621966
0.00439252
0.00696038
0.00111452
2.791e-05
0.000255011
0.000491
0.000654598
0.000739297
0.00074966
0.000696243
0.000631869
0.000494728
0.000340694
0.000217816
5.19855e-05
0.0418756
0.0893768
0.13231
0.168325
0.19598
0.212037
0.223064
0.22779
0.214054
0.163151
0.0741542
0.0454768
0.200103
0.321803
0.548906
0.704124
0.773565
0.849691
0.795045
0.568237
0.183064
0.1523
0.416151
0.625069
0.704598
0.635616
0.430491
0.235984
0.0151507
0.105916
0.0560143
0.00213576
0.00515529
0.000382406
0.000125773
0.00045298
0.000683748
0.000789349
0.000842198
0.00081942
0.000762007
0.000630727
0.000459685
0.000343099
0.000182417
3.95052e-05
0.00339557
0.0230091
0.053151
0.0818071
0.105203
0.120535
0.126528
0.125379
0.105816
0.055341
0.021307
0.13928
0.285362
0.450795
0.643492
0.800798
0.903088
0.886501
0.85807
0.711596
0.30937
0.0790783
0.388777
0.653653
0.82072
0.817185
0.655927
0.398473
0.12449
0.0828791
0.125889
0.0402581
0.00616305
0.00296785
5.7327e-05
0.00033991
0.000681594
0.000840044
0.00092907
0.000941348
0.000862352
0.000767948
0.000616277
0.000436827
0.000279318
0.000153229
2.53844e-05
0.000529733
0.000929821
0.0095087
0.0222878
0.0362877
0.0458583
0.0522173
0.0522048
0.035719
0.00194238
0.0860516
0.20463
0.360626
0.542651
0.735361
0.896021
0.997152
1.02417
0.923114
0.782347
0.447569
0.0220658
0.321171
0.659769
0.884989
0.957782
0.858137
0.635111
0.329443
0.0220127
0.152211
0.124029
0.0200118
0.00643701
0.00121956
0.000350432
0.000583478
0.000881993
0.000983451
0.00103965
0.000983752
0.000890597
0.000763832
0.000581727
0.000416337
0.000260675
0.000111569
2.48392e-05
0.00367335
0.00306064
0.00248536
0.000259219
0.00458852
0.0076553
0.00997167
0.0128845
0.00936241
0.0256687
0.102171
0.234747
0.406935
0.605472
0.817477
0.983779
1.09025
1.11375
1.04532
0.874906
0.580936
0.144361
0.234856
0.607787
0.951474
1.07572
1.01712
0.820087
0.531608
0.1809
0.10229
0.197759
0.0983056
0.00309619
0.00414054
0.000208171
0.000569941
0.000851826
0.0010379
0.00111675
0.0010978
0.00100629
0.000872892
0.000699726
0.00053415
0.000353776
0.000200882
0.000103808
4.89577e-06
0.00313274
0.00069655
0.00115648
0.00246431
0.00195408
0.00205148
0.00362191
0.00258861
0.00010002
0.017005
0.0888971
0.223943
0.415266
0.63
0.869541
1.05952
1.16636
1.19667
1.13275
0.963496
0.684265
0.261412
0.138717
0.517384
0.910767
1.20592
1.18923
0.994976
0.70833
0.360662
0.0119451
0.212962
0.200019
0.0592427
0.00526191
0.00154625
0.00030964
0.000819541
0.00106519
0.00117712
0.00119191
0.0011061
0.000981918
0.000818897
0.000630232
0.000441285
0.000308868
0.000169301
7.61231e-05
1.03813e-05
0.00214699
0.000354199
0.000706604
0.000285968
0.000647288
0.00119367
0.00258901
0.0052642
0.00179678
0.00431556
0.0544042
0.183277
0.378441
0.616341
0.846302
1.12461
1.20428
1.25768
1.19937
1.04317
0.765425
0.353448
0.0378202
0.398777
0.822597
1.15358
1.31285
1.17855
0.880142
0.532578
0.160789
0.157184
0.277947
0.158786
0.0232642
0.00565604
3.51735e-05
0.000638699
0.00101917
0.00120293
0.00125463
0.00119651
0.00110288
0.000924726
0.000744436
0.00056382
0.000392334
0.000231358
0.000107365
6.41672e-05
9.12348e-06
0.00149466
0.000399362
0.00113503
0.000720945
0.000716279
0.000347757
0.000106414
0.00224636
0.00350528
0.00245855
0.0179089
0.11935
0.308341
0.54589
0.80357
1.02829
1.29493
1.26571
1.22823
1.09376
0.826298
0.409118
0.0555488
0.280981
0.735721
1.07032
1.26982
1.23094
1.02706
0.681408
0.308971
0.0556223
0.294771
0.277096
0.0953461
0.00105203
0.00246235
0.000460525
0.000926986
0.00118348
0.00128137
0.00127666
0.00116345
0.00100427
0.000826898
0.000634833
0.000432331
0.000288321
0.000149869
6.61725e-05
5.61723e-06
2.58905e-05
0.00106897
0.000399309
0.00107739
0.000913191
0.00104546
0.000947436
0.000815229
9.17591e-05
0.00255914
0.000112715
0.00440797
0.0502829
0.209484
0.441211
0.697004
0.944135
1.1561
1.27131
1.24141
1.11069
0.859151
0.447545
0.113293
0.1437
0.646608
1.00834
1.23988
1.27549
1.0785
0.796627
0.435133
0.0588033
0.259066
0.362192
0.21468
0.0399672
0.00698625
0.000243033
0.00063317
0.00111389
0.0012939
0.00132354
0.00122153
0.00108377
0.000914129
0.000686149
0.00050505
0.000346615
0.000196128
7.95874e-05
1.97283e-05
1.50981e-06
1.25391e-05
0.000797353
0.000385392
0.00101084
0.000874873
0.00108715
0.0010214
0.000925525
0.000747363
0.000884668
0.0024683
0.00580331
0.000111382
0.101698
0.30752
0.555226
0.808412
1.01952
1.19495
1.14641
1.11282
0.865519
0.484093
0.195165
0.0425268
0.563323
0.924625
1.21368
1.31912
1.19334
0.874778
0.529907
0.160964
0.192692
0.404834
0.337693
0.124298
0.0102809
0.00610189
0.000965107
0.000762247
0.00119728
0.00128372
0.00125324
0.00116077
0.000970867
0.000787524
0.000582896
0.000369344
0.000241895
0.000115352
4.94643e-05
9.44811e-06
1.25668e-05
2.04714e-05
0.000587552
0.000372356
0.000954541
0.000873966
0.00103731
0.00103421
0.000973271
0.00082831
0.000436589
0.00201672
8.74762e-05
0.014574
0.0133263
0.162749
0.390413
0.631286
0.863557
1.02639
1.12075
1.01468
0.849316
0.4973
0.270737
0.0522833
0.484292
0.841781
1.13498
1.29733
1.25473
0.960027
0.544904
0.23441
0.124546
0.404489
0.448632
0.240313
0.0484714
0.00163769
0.00298787
0.000878569
0.000862855
0.00117994
0.00118712
0.00113622
0.00100482
0.000815951
0.000616912
0.00040967
0.000263126
0.000142093
5.44295e-05
1.21579e-05
1.81221e-05
4.7283e-06
2.19948e-05
0.00041813
0.000351028
0.000846399
0.000839145
0.000994017
0.0010274
0.00103506
0.000877174
0.000650005
0.000171902
0.00271291
0.0067602
0.0247321
0.0346794
0.216571
0.439542
0.657353
0.852258
0.959236
0.944751
0.808253
0.486024
0.291125
0.0800505
0.412414
0.765348
1.05384
1.23771
1.23037
1.01037
0.587351
0.276701
0.0712431
0.38836
0.522399
0.377431
0.124847
0.0084026
0.000803734
6.85149e-05
0.000961012
0.000919927
0.00110107
0.00105096
0.000937348
0.000818724
0.000613302
0.000460839
0.000269798
0.000131373
4.96371e-05
1.41283e-05
8.85396e-06
4.4104e-06
1.08425e-05
1.9893e-05
0.000276764
0.000326525
0.000699029
0.000737609
0.000936858
0.000995862
0.00101917
0.000935309
0.000744699
0.000449849
0.00107692
0.0019174
0.0182752
0.0341856
0.0560592
0.245857
0.432414
0.635375
0.774502
0.812918
0.731304
0.540383
0.293914
0.0565993
0.356411
0.707816
0.966986
1.16331
1.20179
1.01564
0.632921
0.295775
0.0390142
0.36756
0.579294
0.506809
0.235965
0.0423405
0.00163368
0.00084696
0.00095126
0.00109007
0.000997833
0.000906709
0.000877002
0.000742641
0.000634335
0.000445191
0.000293748
0.000155875
5.30138e-05
2.03467e-05
2.83788e-05
3.24285e-05
8.12672e-06
8.11563e-06
4.17113e-07
0.000172717
0.000246187
0.000599054
0.000642455
0.00082971
0.000912183
0.000973135
0.000933955
0.000815884
0.0005631
0.000108509
0.00219174
0.00153272
0.033861
0.0430684
0.0651228
0.27727
0.374263
0.577308
0.6363
0.610738
0.483571
0.272854
0.00909524
0.324674
0.652254
0.925807
1.04847
1.13231
1.00314
0.644692
0.296229
0.00451323
0.380822
0.603559
0.635169
0.373799
0.102832
0.00637916
0.00180395
0.000138425
1.86448e-05
0.000796299
0.000912151
0.00076014
0.000729308
0.000537994
0.000411143
0.000280498
0.0001605
3.8656e-05
2.65168e-05
5.16468e-05
4.0821e-05
2.24461e-06
2.56807e-05
2.49077e-05
7.60269e-06
7.09213e-05
0.000192453
0.0004595
0.000556753
0.000702347
0.000820481
0.000889419
0.000899909
0.000804181
0.000650191
0.000357605
0.000433256
0.00318794
0.00836352
0.0517094
0.0548032
0.0535325
0.243527
0.325204
0.432967
0.448063
0.37621
0.215498
0.0133653
0.310736
0.615642
0.856003
0.999075
1.04733
0.947571
0.633994
0.226746
0.0584752
0.37176
0.696673
0.711626
0.529302
0.201609
0.0261595
0.00292103
0.0050029
0.00411376
0.0024705
0.000357978
0.000510251
0.00053402
0.000554258
0.000334049
0.000221706
0.000112072
1.39717e-05
3.78034e-05
6.45353e-05
3.91158e-05
8.79868e-07
2.60999e-05
7.43682e-05
4.04715e-05
5.42197e-06
3.57624e-05
0.000101158
0.000331358
0.000417394
0.000611344
0.000714197
0.000792119
0.000848857
0.000809861
0.000671602
0.000477618
0.000110685
0.00129245
0.00355589
0.0182486
0.0701036
0.0747893
0.000880832
0.092649
0.206568
0.250174
0.225576
0.119011
0.0589714
0.315195
0.600289
0.823066
0.95008
0.959544
0.870597
0.598359
0.172899
0.0942075
0.366151
0.725816
0.875659
0.664685
0.324725
0.0719852
0.00429234
0.0124203
0.016002
0.0119905
0.00626662
0.00238188
0.000476897
0.000218523
0.000441558
0.000123711
3.6479e-05
2.53102e-05
8.10666e-05
7.03453e-05
6.93377e-05
2.76501e-05
3.68201e-05
7.74738e-05
0.000109158
8.36779e-05
1.07299e-05
4.61365e-05
0.000205962
0.000309506
0.000472302
0.000597513
0.000692293
0.000759983
0.000752976
0.000678473
0.000501781
0.000285651
0.000139278
0.00242723
0.00287968
0.0295577
0.0880193
0.105302
0.071661
0.0048777
0.0460393
0.0487064
0.0131694
0.14161
0.32054
0.575487
0.79866
0.911233
0.891855
0.775411
0.530842
0.133562
0.0877578
0.370582
0.729647
0.985612
0.858237
0.481537
0.135328
0.00274818
0.0292887
0.038803
0.0357819
0.0226259
0.0099994
0.00453311
0.00209042
0.000249518
0.000303507
3.40688e-05
9.64e-05
0.000115924
0.000118358
9.51777e-05
4.11222e-05
1.13883e-05
8.44238e-05
0.000136975
0.000163703
0.000116258
2.66223e-05
6.81188e-05
0.000200038
0.000348386
0.000462554
0.000580064
0.000640674
0.000667726
0.000633759
0.000524973
0.000342765
0.000129841
0.000494396
0.00375614
0.00133754
0.0393843
0.103665
0.140427
0.139435
0.118077
0.118526
0.154341
0.239388
0.370458
0.51641
0.702254
0.822568
0.808434
0.664629
0.425707
0.0692509
0.0254712
0.421916
0.742072
0.990415
1.05939
0.601904
0.250972
0.0149292
0.0504197
0.0828866
0.0888918
0.063824
0.0332457
0.0112051
0.00575045
0.00406919
0.000789629
0.000143638
0.000177973
0.000189034
0.000190172
0.000135498
7.66382e-05
3.51499e-05
0.000111506
0.000196747
0.000197107
0.000230543
0.000150001
5.52966e-05
6.27781e-05
0.000205957
0.000339367
0.00043089
0.000531724
0.000582495
0.000586625
0.000507879
0.000406276
0.000163935
2.02486e-06
0.000946445
0.00506734
0.000212892
0.0448307
0.113812
0.170593
0.202277
0.227035
0.261211
0.320631
0.406314
0.512264
0.586459
0.638141
0.629825
0.491143
0.294175
0.0581503
0.137236
0.45941
0.770984
1.00081
1.10741
0.887061
0.32183
0.0617824
0.0747998
0.138615
0.177211
0.162111
0.0988644
0.0403469
0.00772945
0.0056936
0.00596914
0.00122649
2.5151e-05
0.000312795
0.000277806
0.000197015
0.000119183
7.25332e-06
0.000120899
0.000215358
0.000256799
0.000260196
0.000282657
0.000174865
5.20673e-05
5.32076e-05
0.000212285
0.000326583
0.000414733
0.000485834
0.000516912
0.000492541
0.000393835
0.000257207
3.41988e-05
9.39689e-05
0.00143756
0.00609258
0.000630486
0.0439557
0.114286
0.185559
0.2435
0.294927
0.345733
0.403969
0.463744
0.512842
0.509805
0.434275
0.330275
0.164016
0.0336898
0.258288
0.518373
0.806885
1.03555
1.12979
1.01364
0.485765
0.105307
0.0827432
0.200752
0.279461
0.302639
0.248343
0.137955
0.0405676
0.000229851
0.00526127
0.0073619
0.00131247
0.000206591
0.000381119
0.000265883
0.000136025
1.88949e-05
0.000118792
0.000215856
0.000313306
0.0003505
0.000335599
0.000295607
0.000205179
5.22286e-05
5.67443e-05
0.000217449
0.000318926
0.00039025
0.000422302
0.000413029
0.000353851
0.000272846
0.000127399
6.71337e-05
0.000156209
0.00185766
0.00668754
0.000632275
0.0365645
0.101549
0.175624
0.242633
0.299364
0.344199
0.37813
0.394106
0.378295
0.325333
0.195408
0.054504
0.120315
0.336764
0.583943
0.850889
1.07988
1.19501
1.09118
0.706381
0.183805
0.0784805
0.247956
0.388116
0.453062
0.429866
0.35882
0.150009
0.0306125
0.0106524
0.00578881
0.00780457
0.00113717
0.000337015
0.000387841
0.000207399
4.61533e-05
8.7642e-05
0.000249777
0.000376137
0.000438656
0.000431964
0.000412933
0.000340755
0.000230782
5.99162e-05
5.71333e-05
0.000202745
0.000284341
0.000346343
0.000356311
0.000322278
0.000262774
0.000143179
8.29377e-06
0.000113434
0.000187621
0.0020517
0.00675443
0.00303202
0.0244201
0.0762122
0.139442
0.196888
0.240734
0.263409
0.269305
0.244282
0.191346
0.116093
0.025349
0.195666
0.410777
0.656422
0.909918
1.13336
1.25577
1.1827
0.848846
0.315738
0.038374
0.287409
0.475782
0.60873
0.616078
0.509108
0.354866
0.142218
0.00755395
0.0198171
0.00799408
0.00699006
0.000872237
0.000466547
0.000336705
0.000130609
8.1173e-05
0.000266345
0.000412523
0.000494402
0.000543801
0.00053166
0.000460873
0.000368148
0.000238743
4.61432e-05
4.05888e-05
0.000176812
0.000246324
0.0002798
0.000286683
0.000226734
0.000162731
4.52231e-05
8.14458e-05
0.000147657
0.000209261
0.00194458
0.00614014
0.00538179
0.0111821
0.0450154
0.0880027
0.1255
0.148176
0.149877
0.138448
0.102174
0.0350644
0.0675212
0.245412
0.478901
0.73206
0.968777
1.19524
1.31483
1.26465
0.977393
0.469897
0.031224
0.268865
0.56781
0.746089
0.808663
0.723985
0.528543
0.305962
0.105852
0.0254557
0.0233527
0.0107792
0.005166
0.000730561
0.000444362
0.000230226
3.66107e-05
0.000234666
0.000427754
0.000558197
0.000646572
0.000636046
0.000587533
0.000493338
0.000384123
0.000236544
4.27671e-05
4.12978e-05
0.000153369
0.000186027
0.00021599
0.000189769
0.000173458
6.8977e-05
3.11919e-05
0.000124442
0.000144401
0.000157641
0.00154159
0.00495709
0.00632607
0.00100336
0.01787
0.0397522
0.058344
0.0648451
0.060816
0.0431732
0.0039942
0.0889853
0.251766
0.50819
0.808074
1.03123
1.23023
1.37265
1.32992
1.07617
0.609581
0.118961
0.217998
0.570425
0.903876
1.0026
0.937603
0.778369
0.517756
0.251977
0.0385746
0.0582157
0.0188524
0.0121147
0.00300982
0.000692909
0.000335764
4.36411e-05
0.000214731
0.000428757
0.00061871
0.000731791
0.000753312
0.000724375
0.000652301
0.000510377
0.000367059
0.000228005
3.32304e-05
3.16691e-05
0.000149015
0.000158555
0.000157121
0.000131508
9.84617e-05
9.65282e-06
6.81018e-05
0.000119811
9.48908e-05
7.72521e-05
0.000966561
0.00333836
0.00545966
0.00370142
0.00173483
0.00869393
0.0163487
0.0178948
0.0131772
0.00897674
0.0765736
0.234047
0.474691
0.826372
1.10087
1.25247
1.39757
1.368
1.15169
0.719037
0.182437
0.162009
0.514844
0.914509
1.20245
1.17658
0.965852
0.719837
0.406196
0.144162
0.0433554
0.0764803
0.00842447
0.010637
0.00144134
0.000602444
0.000138324
0.000180687
0.000460063
0.000658101
0.000771697
0.000872999
0.000855067
0.000789288
0.000651427
0.000491315
0.000349803
0.000214103
1.65149e-05
3.19202e-05
0.000111304
0.000124725
0.000101635
9.51055e-05
3.00822e-05
3.29725e-05
7.42943e-05
0.000100362
5.96403e-05
2.11128e-05
0.000429819
0.00169809
0.00341636
0.00370738
0.00331048
0.00336258
0.000224089
0.000245064
0.0060839
0.0540173
0.187145
0.4291
0.727815
1.14536
1.25452
1.37045
1.39043
1.18337
0.790003
0.260038
0.102374
0.457682
0.84405
1.1859
1.32991
1.19757
0.878416
0.555902
0.249863
0.012405
0.115125
0.0707218
0.0026177
0.00669822
0.000722935
0.000398616
9.72175e-05
0.000453374
0.000691393
0.000855148
0.000952196
0.000947215
0.000914752
0.000799287
0.000664808
0.000474446
0.000308428
0.000168779
7.65204e-06
1.532e-05
0.000106098
6.6345e-05
6.318e-05
4.58913e-05
1.18787e-05
3.4078e-05
5.81377e-05
3.88131e-05
2.84577e-05
0.000135635
4.71256e-05
0.000410426
0.0013537
0.00172833
0.00222118
0.00395303
0.0022773
0.00443432
0.0266901
0.130951
0.344957
0.649755
0.968987
1.33025
1.28479
1.34451
1.19543
0.811929
0.286187
0.041704
0.372335
0.794938
1.13004
1.30795
1.26337
1.04898
0.690119
0.352874
0.0730931
0.113019
0.154341
0.04646
0.0100872
0.00272428
0.00053746
5.73577e-05
0.000366355
0.000694754
0.000928499
0.0010167
0.00106388
0.0010295
0.000928065
0.000801141
0.000615767
0.000430476
0.000263531
0.000131734
5.83586e-06
1.79429e-05
5.58992e-05
3.07163e-05
4.28591e-05
2.16862e-05
1.84524e-05
1.59359e-05
1.03648e-05
6.99503e-05
0.000162844
0.000283451
0.000330012
0.000373137
4.08702e-05
8.76027e-05
5.37648e-05
0.00154451
0.00245319
0.0108853
0.0710785
0.249844
0.527511
0.842948
1.14697
1.27244
1.25213
1.13423
0.801651
0.288661
0.00600951
0.306166
0.748994
1.13843
1.35336
1.33144
1.10664
0.802131
0.44446
0.130112
0.10262
0.206161
0.148714
0.0218406
0.0102794
0.00105348
0.000325492
0.000285341
0.000670526
0.000944221
0.00109256
0.00119217
0.00114237
0.00108077
0.00091416
0.000749962
0.000575376
0.000351855
0.000208321
9.18822e-05
5.77138e-06
1.23352e-05
4.54299e-05
9.93435e-06
3.13324e-06
1.27303e-05
9.28671e-06
3.06736e-05
8.12516e-05
0.000176012
0.000291996
0.000431076
0.000572313
0.000768372
0.000693222
0.000629956
0.00105365
0.000518103
0.00476876
0.0294128
0.148033
0.39122
0.692833
0.963337
1.19639
1.09568
1.05682
0.758944
0.300551
0.0588469
0.209097
0.712243
1.10149
1.43139
1.49707
1.26225
0.874716
0.511333
0.176235
0.094806
0.251074
0.243291
0.104057
0.00552574
0.00540069
0.000464326
3.89286e-05
0.000622044
0.000954027
0.00118636
0.00127906
0.00125637
0.00119852
0.0010309
0.000861896
0.0006469
0.000457694
0.000290637
0.000148674
6.10921e-05
9.69521e-06
1.73933e-05
1.31286e-05
1.03015e-05
8.47308e-06
3.40531e-05
4.4066e-05
9.08804e-05
0.00019129
0.000328511
0.00047235
0.000623829
0.000753502
0.000974732
0.000965074
0.000809494
0.00107275
0.00157456
0.0103893
0.0650309
0.249484
0.519046
0.799717
0.991755
1.08252
0.919099
0.704424
0.279192
0.0740249
0.170522
0.694358
1.07553
1.39769
1.55381
1.44075
1.00165
0.539949
0.201683
0.092332
0.296239
0.341275
0.215024
0.0477761
0.00226919
0.00187659
0.000133714
0.000449284
0.000946583
0.00122485
0.00135132
0.00136592
0.00129078
0.00115437
0.000979399
0.000773187
0.000562935
0.000351821
0.000218629
0.000102528
2.90016e-05
1.78537e-05
3.68419e-06
9.97456e-06
4.44737e-06
1.36037e-05
3.48773e-05
0.000111818
0.000189847
0.000321132
0.000486945
0.000644748
0.000828503
0.00096388
0.00110159
0.00103938
0.000860125
0.000385251
0.00388984
0.0195797
0.11865
0.350435
0.584795
0.825575
0.91956
0.857776
0.652819
0.344556
0.0541353
0.206215
0.674786
1.05062
1.40049
1.57651
1.46947
1.11316
0.60687
0.212035
0.0992095
0.341849
0.44011
0.34797
0.140637
0.00917984
0.00278219
0.000726949
0.000296476
0.000832606
0.00120915
0.00138366
0.00147315
0.00139078
0.00127532
0.0011091
0.000881797
0.000661256
0.000428748
0.000262737
0.000123469
4.38926e-05
6.15627e-06
5.49994e-05
1.21686e-05
1.03381e-05
2.62425e-05
3.15845e-05
0.00011729
0.000185109
0.000290137
0.000460763
0.000628334
0.00082043
0.000999217
0.00110649
0.00117783
0.00105009
0.000852303
0.000810246
0.00630029
0.0331676
0.181647
0.414936
0.623876
0.759088
0.748516
0.59721
0.325891
0.0327217
0.286455
0.663293
1.03398
1.35933
1.57416
1.53019
1.1789
0.67044
0.23871
0.107236
0.385974
0.546735
0.488906
0.271181
0.0613802
0.00483051
0.00107578
0.000286417
0.000733637
0.00109286
0.00139701
0.00150857
0.00149372
0.00137173
0.00118284
0.000950106
0.000736646
0.000530477
0.000322471
0.000161689
6.31366e-05
6.27059e-06