/*--------------------------------*- C++ -*----------------------------------*\
| =========                 |                                                 |
| \\      /  F ield         | OpenFOAM: The Open Source CFD Toolbox           |
|  \\    /   O peration     | Version:  2506                                  |
|   \\  /    A nd           | Website:  www.openfoam.com                      |
|    \\/     M anipulation  |                                                 |
\*---------------------------------------------------------------------------*/
FoamFile
{
    version     2.0;
    format      ascii;
    arch        "LSB;label=32;scalar=64";
    class       surfaceScalarField;
    location    "170.004218234212004";
    object      phi;
}
// * * * * * * * * * * * * * * * * * * * * * * * * * * * * * * * * * * * * * //

dimensions      [0 3 -1 0 0 0 0];

oriented        oriented;

internalField   nonuniform List<scalar> 
19160
(
-0.000375493
-0.231623
-0.000747579
-0.231608
-0.000366625
-0.231256
-0.00110991
-0.231614
-0.000729121
-0.231246
-0.000367595
-0.230889
-0.00146021
-0.231593
-0.00108383
-0.231259
-0.000731654
-0.230882
-0.00036972
-0.230519
-0.00178816
-0.231594
-0.00142609
-0.231251
-0.00108982
-0.230901
-0.000737054
-0.230514
-0.000374359
-0.230145
-0.0020878
-0.231584
-0.00174866
-0.231271
-0.00143735
-0.230904
-0.00110037
-0.230538
-0.000747805
-0.230141
-0.000379951
-0.229765
-0.00234433
-0.231565
-0.0020441
-0.231289
-0.00176939
-0.230939
-0.00145633
-0.230548
-0.00111945
-0.230166
-0.000760567
-0.22976
-0.000384862
-0.22938
-0.00254304
-0.231575
-0.00229996
-0.23131
-0.00207894
-0.230979
-0.00180169
-0.230594
-0.00148781
-0.230179
-0.00114172
-0.229785
-0.000771891
-0.229373
-0.000388461
-0.228991
-0.00266013
-0.231572
-0.00250199
-0.231373
-0.00235664
-0.231032
-0.00213157
-0.23065
-0.00185149
-0.23023
-0.00152401
-0.229797
-0.00116175
-0.229395
-0.000780359
-0.228981
-0.000389728
-0.228602
-0.00266734
-0.23161
-0.0026275
-0.231446
-0.00258996
-0.23114
-0.00243966
-0.230724
-0.00220828
-0.230293
-0.00190793
-0.229846
-0.00155701
-0.229402
-0.00117709
-0.228998
-0.000783809
-0.228587
-0.000387261
-0.228214
-0.00251917
-0.231658
-0.0026491
-0.231588
-0.00276039
-0.231276
-0.00271704
-0.230863
-0.00255548
-0.230377
-0.00229425
-0.229906
-0.00196005
-0.229443
-0.00158295
-0.228996
-0.00118426
-0.228598
-0.000779338
-0.228195
-0.000381192
-0.227833
-0.00216436
-0.231731
-0.00252232
-0.231785
-0.00284496
-0.231503
-0.00295154
-0.231041
-0.00288899
-0.230529
-0.00268414
-0.229987
-0.00237454
-0.229492
-0.00200194
-0.229024
-0.00159662
-0.228584
-0.00117867
-0.228198
-0.000767173
-0.227809
-0.000371209
-0.227462
-0.00153372
-0.231844
-0.00219463
-0.232058
-0.00280681
-0.231823
-0.00312528
-0.23133
-0.00320343
-0.230727
-0.00307884
-0.230134
-0.00280541
-0.229556
-0.00244026
-0.229054
-0.00202615
-0.228595
-0.00159148
-0.228171
-0.00116057
-0.227805
-0.000746693
-0.227434
-0.000357762
-0.227104
-0.00055231
-0.231924
-0.001605
-0.232434
-0.0026002
-0.232265
-0.00321093
-0.231737
-0.00349021
-0.231043
-0.00348062
-0.230325
-0.00325921
-0.229681
-0.00290613
-0.22909
-0.00248097
-0.228599
-0.00202376
-0.228162
-0.00156764
-0.227764
-0.00112899
-0.227423
-0.000718848
-0.227072
-0.000340924
-0.226763
0.000981677
-0.232021
-0.000679124
-0.23285
-0.00218482
-0.232849
-0.00317766
-0.232298
-0.00373613
-0.231491
-0.00389128
-0.230632
-0.00374566
-0.229839
-0.00341075
-0.229176
-0.00297174
-0.228599
-0.00248471
-0.228138
-0.00199453
-0.227736
-0.00152376
-0.227369
-0.00108544
-0.227056
-0.000683862
-0.22673
-0.000322182
-0.226441
0.00341938
-0.232686
0.000918543
-0.233619
-0.00148691
-0.233548
-0.00300784
-0.233019
-0.00392841
-0.232106
-0.00431346
-0.231069
-0.00427716
-0.230101
-0.00397027
-0.229279
-0.00351318
-0.228634
-0.00298636
-0.228097
-0.00245061
-0.227682
-0.00193672
-0.227323
-0.00146202
-0.226992
-0.0010304
-0.22671
-0.000644833
-0.226407
-0.000302645
-0.226138
0.00719191
-0.233788
0.00373935
-0.235506
-0.00012238
-0.234983
-0.00263451
-0.233921
-0.00407631
-0.232871
-0.0047544
-0.231665
-0.00487231
-0.230474
-0.00460644
-0.229465
-0.0041262
-0.228666
-0.00354547
-0.228075
-0.00294812
-0.2276
-0.00237645
-0.227242
-0.00185329
-0.226931
-0.00138336
-0.226639
-0.000968761
-0.226386
-0.000604117
-0.226105
-0.000283116
-0.225855
0.0122785
-0.234118
0.00839972
-0.238448
0.00254592
-0.238175
-0.00167848
-0.235939
-0.00413769
-0.23386
-0.0052459
-0.232379
-0.00555685
-0.230981
-0.00535166
-0.229729
-0.00483945
-0.228751
-0.0041855
-0.228026
-0.00350415
-0.227519
-0.00285423
-0.227122
-0.00226626
-0.226829
-0.00174596
-0.226569
-0.00129481
-0.226313
-0.00090433
-0.226085
-0.000563466
-0.225825
-0.000265341
-0.22559
0.0180967
-0.231561
0.014832
-0.24055
0.00709014
-0.242993
0.000523627
-0.240377
-0.00379651
-0.23628
-0.00579107
-0.233315
-0.00637829
-0.231558
-0.00624622
-0.230086
-0.00569538
-0.228873
-0.00493887
-0.227998
-0.00414246
-0.227388
-0.00338585
-0.226988
-0.0027101
-0.226678
-0.00212293
-0.226452
-0.00162436
-0.226239
-0.00120201
-0.226016
-0.000840056
-0.225809
-0.00052652
-0.225564
-0.000250445
-0.22534
0.0239834
-0.225174
0.0223423
-0.239071
0.0133799
-0.24684
0.00449744
-0.246966
-0.00246584
-0.241707
-0.00621886
-0.235853
-0.00739887
-0.232294
-0.00734489
-0.230459
-0.00674429
-0.229037
-0.00585329
-0.227959
-0.00489586
-0.227245
-0.00399308
-0.226781
-0.0031979
-0.2265
-0.00252045
-0.226281
-0.00195939
-0.226117
-0.00149651
-0.225945
-0.00110954
-0.225746
-0.000781712
-0.225554
-0.000495655
-0.225319
-0.000238974
-0.225101
0.0292001
-0.214543
0.0304199
-0.233252
0.0207726
-0.246464
0.0101677
-0.25251
0.000324769
-0.249757
-0.00610372
-0.241823
-0.00864802
-0.234603
-0.00876191
-0.230877
-0.00804104
-0.229162
-0.00698493
-0.227905
-0.00581224
-0.227042
-0.00470598
-0.226532
-0.0037474
-0.226231
-0.00294771
-0.226073
-0.00230248
-0.225938
-0.00178682
-0.225827
-0.00136924
-0.225685
-0.00102573
-0.225502
-0.000733152
-0.225316
-0.000472091
-0.225086
-0.00023193
-0.224869
0.0331252
-0.200351
0.0383929
-0.222516
0.028962
-0.241441
0.0170205
-0.253316
0.00465519
-0.25684
-0.00500444
-0.250856
-0.00995578
-0.240515
-0.0107334
-0.232632
-0.00972435
-0.229194
-0.00838542
-0.227762
-0.00694955
-0.226768
-0.00556779
-0.22618
-0.00438333
-0.225896
-0.00341678
-0.225762
-0.00265804
-0.225717
-0.00207155
-0.225653
-0.00161513
-0.225581
-0.00125405
-0.225457
-0.000956318
-0.225279
-0.000696462
-0.225092
-0.000457905
-0.22486
-0.000229395
-0.224639
0.0353768
-0.183437
0.0456809
-0.207639
0.0373313
-0.230885
0.0249452
-0.249366
0.0101693
-0.258831
-0.00251969
-0.259325
-0.0109344
-0.249878
-0.0133956
-0.237853
-0.0121897
-0.230167
-0.0101851
-0.227394
-0.00835606
-0.226355
-0.00663332
-0.225703
-0.0051404
-0.225423
-0.00394514
-0.225367
-0.00303145
-0.225389
-0.00234992
-0.225439
-0.0018419
-0.225426
-0.00145991
-0.225375
-0.00115911
-0.225254
-0.000904614
-0.225071
-0.000674916
-0.224875
-0.000453309
-0.224636
-0.000231281
-0.224408
0.0354829
-0.165409
0.0518118
-0.189568
0.0454671
-0.215775
0.0334128
-0.239353
0.0169516
-0.256148
0.00112153
-0.262472
-0.0108409
-0.259419
-0.0164597
-0.246814
-0.0158722
-0.23417
-0.0128552
-0.227497
-0.0101297
-0.225621
-0.00794784
-0.225041
-0.00606503
-0.224778
-0.00455624
-0.224812
-0.00343161
-0.224967
-0.00261999
-0.225119
-0.00204346
-0.225237
-0.00163435
-0.225252
-0.00133258
-0.225202
-0.00108953
-0.225069
-0.000875313
-0.22487
-0.000668911
-0.224659
-0.000458114
-0.224409
-0.000236599
-0.224171
0.0333525
-0.148022
0.0566749
-0.170272
0.0529723
-0.197073
0.0420119
-0.224374
0.0245797
-0.246981
0.00601394
-0.261041
-0.00929596
-0.264017
-0.0191043
-0.256774
-0.0206366
-0.242049
-0.0170997
-0.229926
-0.0127171
-0.224909
-0.00956968
-0.223999
-0.00719813
-0.223908
-0.00528367
-0.224051
-0.00386927
-0.224375
-0.00288138
-0.224706
-0.00221054
-0.224951
-0.00176637
-0.225105
-0.00146476
-0.22512
-0.00124079
-0.22505
-0.00105174
-0.224892
-0.000869115
-0.22467
-0.000678125
-0.224439
-0.000470283
-0.224175
-0.000244715
-0.223927
0.0306807
-0.0901184
0.0602899
-0.151637
0.0595319
-0.176831
0.0502125
-0.205274
0.0326544
-0.232449
0.01207
-0.253037
-0.00670503
-0.263632
-0.0200885
-0.263032
-0.0257398
-0.251671
-0.0230867
-0.236062
-0.0170035
-0.225639
-0.0118329
-0.222646
-0.00856809
-0.222629
-0.00615963
-0.223032
-0.00436241
-0.223557
-0.00313157
-0.224124
-0.00233325
-0.224583
-0.00183983
-0.224878
-0.00154046
-0.225029
-0.00134442
-0.225016
-0.00119326
-0.224909
-0.00104695
-0.224715
-0.000885523
-0.224463
-0.000699364
-0.22421
-0.000488403
-0.223931
-0.000254377
-0.223672
0.0280492
-0.084726
0.0612145
-0.091043
0.0647513
-0.156856
0.0577792
-0.184398
0.0407321
-0.213351
0.0187476
-0.239126
-0.00303426
-0.256708
-0.0199637
-0.263756
-0.0298839
-0.258888
-0.0301728
-0.244585
-0.0235912
-0.229475
-0.0156267
-0.221845
-0.010362
-0.220852
-0.00719773
-0.221591
-0.00492856
-0.222466
-0.00337167
-0.223317
-0.00239595
-0.224062
-0.00183568
-0.224587
-0.00153767
-0.224881
-0.00138222
-0.224992
-0.00128508
-0.224924
-0.001192
-0.224764
-0.00107443
-0.224526
-0.000919997
-0.224242
-0.000730235
-0.223968
-0.000509783
-0.223676
-0.000263763
-0.223409
0.0260608
-0.0804475
0.0616834
-0.0851949
0.0669234
-0.0932151
0.0641206
-0.163198
0.0485638
-0.19223
0.0258715
-0.220475
0.00142701
-0.243588
-0.0192633
-0.257408
-0.0329228
-0.260718
-0.0372412
-0.25182
-0.0320829
-0.236093
-0.0219288
-0.223173
-0.0132874
-0.21892
-0.00846287
-0.219587
-0.00557409
-0.220945
-0.00359971
-0.222238
-0.00238258
-0.223331
-0.00172582
-0.224172
-0.00142921
-0.224696
-0.00132792
-0.224935
-0.00130755
-0.224969
-0.0012901
-0.224826
-0.00123606
-0.224602
-0.00112806
-0.224318
-0.000968769
-0.224004
-0.000766354
-0.223712
-0.000530562
-0.223409
-0.000271832
-0.223137
0.0252092
-0.0773933
0.0618655
-0.0806296
0.0686383
-0.0869098
0.0671175
-0.096212
0.0553005
-0.169934
0.0329564
-0.199314
0.00670524
-0.225753
-0.0175184
-0.245333
-0.035079
-0.255252
-0.0435282
-0.254431
-0.0412634
-0.242639
-0.0308228
-0.227199
-0.018472
-0.217988
-0.010384
-0.216999
-0.00629427
-0.218867
-0.00381101
-0.220734
-0.0022696
-0.222351
-0.00147742
-0.223579
-0.00117581
-0.224425
-0.00114799
-0.224876
-0.00123227
-0.22501
-0.00132198
-0.224937
-0.00135833
-0.224704
-0.00131739
-0.224413
-0.00120213
-0.224084
-0.00102527
-0.223745
-0.000801514
-0.223441
-0.000548434
-0.223133
-0.000277152
-0.22286
0.0257959
-0.07582
0.0621175
-0.0776453
0.0699875
-0.0819787
0.0696076
-0.0893999
0.0588506
-0.0997621
0.0392152
-0.176193
0.0119595
-0.204569
-0.0148648
-0.228407
-0.0361502
-0.244261
-0.0483866
-0.250393
-0.0500136
-0.24568
-0.0412536
-0.232208
-0.0265884
-0.219083
-0.0139432
-0.214429
-0.00726446
-0.216029
-0.00397258
-0.218705
-0.00203192
-0.220972
-0.00104541
-0.222783
-0.000728919
-0.224026
-0.000794203
-0.224779
-0.00102194
-0.225086
-0.00125976
-0.225073
-0.00142437
-0.224871
-0.00147938
-0.224542
-0.00142759
-0.224187
-0.0012872
-0.223822
-0.00108036
-0.223466
-0.000831838
-0.223157
-0.000560347
-0.222849
-0.000278829
-0.222581
0.0278978
-0.075742
0.062676
-0.0763785
0.0711215
-0.0787793
0.0716169
-0.083988
0.0619587
-0.092508
0.0429361
-0.103483
0.0169957
-0.181229
-0.0120364
-0.207397
-0.0364164
-0.228141
-0.0522526
-0.240395
-0.05754
-0.242867
-0.0518387
-0.235095
-0.0371132
-0.221684
-0.0202124
-0.212813
-0.00911624
-0.212577
-0.00410182
-0.215899
-0.00162201
-0.219115
-0.000376452
-0.221641
-2.2816e-05
-0.223489
-0.000204683
-0.224615
-0.000622656
-0.225178
-0.00106573
-0.22528
-0.00140976
-0.225087
-0.00160161
-0.224749
-0.00164109
-0.224328
-0.00155327
-0.223921
-0.00137031
-0.223532
-0.00112799
-0.22317
-0.00085236
-0.222865
-0.000564382
-0.222564
-0.000275767
-0.222305
0.0313075
-0.0775402
0.0639068
-0.0769728
0.0720373
-0.0772943
0.073143
-0.0803055
0.0646855
-0.0867149
0.0462867
-0.0958586
0.0207753
-0.107263
-0.00847715
-0.184789
-0.0358158
-0.207998
-0.0551817
-0.225212
-0.0639551
-0.23398
-0.0615277
-0.233178
-0.0486616
-0.223547
-0.0293948
-0.212501
-0.0129242
-0.209005
-0.00446915
-0.21221
-0.000986462
-0.216535
0.000597048
-0.220089
0.00102713
-0.222691
0.000705478
-0.224399
3.6777e-05
-0.225275
-0.000684901
-0.225559
-0.00128035
-0.225409
-0.00166604
-0.225023
-0.00183633
-0.224554
-0.00182462
-0.224057
-0.00167638
-0.223615
-0.00144238
-0.223218
-0.00116075
-0.222861
-0.00085992
-0.22257
-0.000558267
-0.222281
-0.000268179
-0.222037
0.035749
-0.0810972
0.065662
-0.0792954
0.0729492
-0.0778847
0.0743531
-0.0785044
0.0670188
-0.0826387
0.049167
-0.0895951
0.0242839
-0.0993671
-0.00495719
-0.110783
-0.0340162
-0.186588
-0.0568181
-0.206361
-0.0692392
-0.219928
-0.0699876
-0.22552
-0.059786
-0.222053
-0.0405519
-0.21239
-0.019489
-0.205937
-0.00580934
-0.207665
-0.000166078
-0.21303
0.00196155
-0.217899
0.00251805
-0.22158
0.00204999
-0.224035
0.00105757
-0.22542
-4.23995e-05
-0.225917
-0.000985828
-0.225853
-0.00164636
-0.225429
-0.00200414
-0.224855
-0.00210219
-0.224276
-0.00200498
-0.223728
-0.00178346
-0.223274
-0.00149276
-0.222886
-0.00117385
-0.222547
-0.000850917
-0.222277
-0.000542437
-0.222007
-0.000256286
-0.22178
0.0408511
-0.0864023
0.0677119
-0.0831471
0.073776
-0.0801221
0.0751303
-0.0786619
0.0688875
-0.0803731
0.0515107
-0.0849825
0.0272322
-0.0925435
-0.00170132
-0.102623
-0.0314505
-0.113348
-0.0574331
-0.185973
-0.0733029
-0.202297
-0.0771599
-0.212755
-0.0697184
-0.215588
-0.0521207
-0.210485
-0.028649
-0.20323
-0.00909871
-0.202647
0.000535003
-0.208366
0.00377355
-0.214842
0.00457015
-0.219952
0.00396012
-0.22349
0.00257473
-0.225552
0.000971883
-0.226434
-0.000455078
-0.226448
-0.00150339
-0.225996
-0.00212996
-0.225303
-0.00238728
-0.22457
-0.00236449
-0.223917
-0.00216234
-0.223349
-0.00185942
-0.222907
-0.00151445
-0.222545
-0.00116212
-0.222236
-0.000826
-0.221994
-0.000517403
-0.221746
-0.000240355
-0.22154
0.046078
-0.0933204
0.0697786
-0.0884691
0.0745933
-0.0839645
0.0756862
-0.0806781
0.070185
-0.0799594
0.0533329
-0.0821953
0.0295548
-0.087305
0.00108448
-0.0953293
-0.0289449
-0.105129
-0.0562983
-0.114483
-0.076383
-0.182893
-0.0830309
-0.196426
-0.078186
-0.204288
-0.0628749
-0.204834
-0.039256
-0.199878
-0.014848
-0.197481
0.000387252
-0.202499
0.00603462
-0.210627
0.00729301
-0.217565
0.00660542
-0.222597
0.00475222
-0.225667
0.0025006
-0.227081
0.0004188
-0.227308
-0.00117835
-0.226773
-0.00219173
-0.225935
-0.00267984
-0.225011
-0.00276701
-0.224167
-0.00259412
-0.223485
-0.0022754
-0.222934
-0.00189414
-0.222528
-0.00150031
-0.222207
-0.00112643
-0.221936
-0.000786052
-0.221725
-0.00048382
-0.221503
-0.000221808
-0.221318
0.0532659
-0.155165
0.0715492
-0.095091
0.0752952
-0.0891709
0.0760453
-0.0843236
0.0708584
-0.0813514
0.0545535
-0.08118
0.0312062
-0.0838468
0.00324657
-0.0894671
-0.0266641
-0.0976101
-0.0548401
-0.106587
-0.0767121
-0.114154
-0.0876549
-0.178269
-0.0851426
-0.18947
-0.072149
-0.195014
-0.0498936
-0.194196
-0.022787
-0.191938
-0.00132831
-0.195765
0.00842101
-0.204886
0.0108475
-0.214182
0.0101829
-0.221142
0.0078295
-0.225674
0.00473414
-0.227901
0.0017663
-0.228428
-0.000584042
-0.227902
-0.0021523
-0.226813
-0.00297929
-0.225635
-0.00322795
-0.22455
-0.00310057
-0.223661
-0.00276085
-0.222999
-0.0023296
-0.222498
-0.00187799
-0.22215
-0.00145148
-0.221882
-0.00106821
-0.221654
-0.000732283
-0.221476
-0.000444708
-0.22128
-0.000201776
-0.221117
0.058865
-0.175424
0.0728701
-0.156486
0.0757651
-0.095561
0.0761857
-0.0893113
0.0708358
-0.084301
0.0551245
-0.0819223
0.0322194
-0.0821931
0.00473962
-0.0853399
-0.0248295
-0.0913017
-0.0533191
-0.0991311
-0.0764932
-0.106806
-0.0892522
-0.112557
-0.0905226
-0.172889
-0.079894
-0.181725
-0.0593694
-0.185538
-0.0318103
-0.185173
-0.00518115
-0.188086
0.0103615
-0.197705
0.0151961
-0.209234
0.0149535
-0.218953
0.0121543
-0.225467
0.00800388
-0.228944
0.00379345
-0.229928
0.000373083
-0.229386
-0.00196266
-0.228092
-0.00327814
-0.226514
-0.00376959
-0.225093
-0.0037112
-0.223939
-0.00334485
-0.223077
-0.00284378
-0.222485
-0.00231206
-0.222064
-0.0018124
-0.221789
-0.0013702
-0.22158
-0.000989578
-0.221396
-0.000669577
-0.221252
-0.000402525
-0.221079
-0.000181745
-0.220935
0.0619247
-0.196182
0.0731828
-0.175737
0.0755644
-0.156286
0.0759045
-0.0952798
0.0700711
-0.0885466
0.0548293
-0.0840059
0.0325192
-0.0822221
0.00552895
-0.0829825
-0.0235813
-0.0865881
-0.0519555
-0.0926653
-0.0759334
-0.0996909
-0.0902656
-0.105792
-0.0928125
-0.110267
-0.0860982
-0.166685
-0.0674574
-0.173637
-0.0404618
-0.176886
-0.0107585
-0.179596
0.0110102
-0.188734
0.0199149
-0.202424
0.0209485
-0.215229
0.0180741
-0.224872
0.0128514
-0.230315
0.00693721
-0.232088
0.00189897
-0.231454
-0.00158279
-0.229765
-0.00357784
-0.227792
-0.00441829
-0.225865
-0.00446912
-0.224336
-0.00406748
-0.223217
-0.0034697
-0.222451
-0.00282558
-0.221972
-0.00222459
-0.221652
-0.00170087
-0.221458
-0.00125994
-0.22131
-0.000897752
-0.221168
-0.000602004
-0.221052
-0.000360443
-0.2209
-0.000162835
-0.220772
0.0621236
-0.215421
0.0720153
-0.195015
0.0741944
-0.174367
0.0740583
-0.154439
0.0684175
-0.0936262
0.0536409
-0.0873582
0.0319348
-0.0834215
0.00558769
-0.0822809
-0.022989
-0.0835747
-0.0510041
-0.0875395
-0.0752282
-0.0933705
-0.0907805
-0.099176
-0.0943544
-0.10425
-0.0895427
-0.106822
-0.0740257
-0.160117
-0.0481026
-0.165996
-0.0171246
-0.17052
0.0100867
-0.178672
0.0243756
-0.193195
0.0277434
-0.209219
0.0255288
-0.222684
0.0196576
-0.231679
0.0119153
-0.235293
0.0045232
-0.234712
-0.000839502
-0.232197
-0.00390822
-0.229435
-0.00522764
-0.226983
-0.00543273
-0.224901
-0.00498754
-0.223415
-0.004253
-0.222433
-0.00345179
-0.221825
-0.00270868
-0.221488
-0.00207263
-0.22128
-0.00154901
-0.221169
-0.001131
-0.221077
-0.000798941
-0.220971
-0.000534719
-0.220878
-0.000320893
-0.220742
-0.000146609
-0.220625
0.0594091
-0.230734
0.0684893
-0.211895
0.0706303
-0.191451
0.0702917
-0.1706
0.0645787
-0.150601
0.0514328
-0.0914181
0.0304226
-0.085846
0.00473053
-0.0825643
-0.0231738
-0.0820961
-0.0505892
-0.0839896
-0.0745321
-0.0882356
-0.0908409
-0.0933101
-0.0952482
-0.0982821
-0.0920901
-0.101703
-0.0783073
-0.102541
-0.0543693
-0.15385
-0.0232078
-0.159913
0.0075
-0.167934
0.0279308
-0.182227
0.0348569
-0.200309
0.0339674
-0.217658
0.0281786
-0.231205
0.0190299
-0.238793
0.00903595
-0.239806
0.000828228
-0.23638
-0.00417499
-0.23193
-0.00629874
-0.228364
-0.00669767
-0.225718
-0.00618791
-0.223701
-0.00526077
-0.222408
-0.0042361
-0.221649
-0.00329459
-0.221239
-0.00250153
-0.221059
-0.00186501
-0.220964
-0.00137127
-0.220929
-0.000992491
-0.220883
-0.000700822
-0.220805
-0.000471759
-0.220727
-0.000287141
-0.220602
-0.00013407
-0.220491
0.0534647
-0.239837
0.0618028
-0.224047
0.0642962
-0.205561
0.0643744
-0.185533
0.0590421
-0.165064
0.0471753
-0.146343
0.0278691
-0.0888646
0.00297901
-0.0840945
-0.0241899
-0.0815482
-0.0508172
-0.0818682
-0.0741127
-0.084409
-0.0905357
-0.0885408
-0.0956339
-0.0929244
-0.0937945
-0.0965777
-0.0815114
-0.0984989
-0.0591098
-0.0978002
-0.0284528
-0.148605
0.00436216
-0.156775
0.0298927
-0.169895
0.0416781
-0.189049
0.0428448
-0.209186
0.0377154
-0.227195
0.0278334
-0.240009
0.0155598
-0.245317
0.00413233
-0.24311
-0.00389779
-0.236657
-0.00766536
-0.230564
-0.00842131
-0.22664
-0.00778971
-0.224116
-0.00658877
-0.222373
-0.00524533
-0.221398
-0.00402213
-0.220921
-0.00301125
-0.220729
-0.00221797
-0.220706
-0.00162191
-0.220713
-0.00118076
-0.220741
-0.00085537
-0.220728
-0.00060956
-0.220667
-0.000418347
-0.220596
-0.000261296
-0.220474
-0.000125718
-0.220366
0.0447674
-0.242168
0.052221
-0.230255
0.0554152
-0.215166
0.0561836
-0.19737
0.0517373
-0.178229
0.0412878
-0.159176
0.0238776
-0.142352
0.000332593
-0.0862181
-0.0258316
-0.0824528
-0.051542
-0.0808234
-0.0738401
-0.0821408
-0.0898378
-0.0851069
-0.0955998
-0.0885749
-0.0946898
-0.0920291
-0.0836973
-0.0943919
-0.0625995
-0.0950093
-0.0334109
-0.0928421
0.00119163
-0.145434
0.0306874
-0.15757
0.0475674
-0.175785
0.0516589
-0.197863
0.0476956
-0.219166
0.0376046
-0.236966
0.0235277
-0.247976
0.00906878
-0.250253
-0.00258529
-0.244422
-0.00908161
-0.235241
-0.0107927
-0.228192
-0.00997919
-0.224451
-0.00836626
-0.222339
-0.00657458
-0.221044
-0.00495009
-0.22047
-0.00363183
-0.220301
-0.00262325
-0.220324
-0.00188622
-0.220441
-0.00136206
-0.220532
-0.000992867
-0.220603
-0.000728681
-0.220609
-0.000532754
-0.220553
-0.000377892
-0.220479
-0.000244431
-0.220356
-0.000122075
-0.220243
0.0351568
-0.238882
0.0410731
-0.23102
0.0448709
-0.219711
0.0462
-0.205183
0.0427458
-0.188378
0.033979
-0.17092
0.0187402
-0.154039
-0.00248962
-0.139529
-0.027869
-0.0841808
-0.0522243
-0.0817705
-0.0733462
-0.0813173
-0.0887303
-0.0832483
-0.0950957
-0.0856109
-0.0947208
-0.088544
-0.0847969
-0.0909295
-0.0648996
-0.0920918
-0.0370397
-0.0913805
-0.0035175
-0.088133
0.0307761
-0.145523
0.052249
-0.162251
0.0599898
-0.184116
0.0576584
-0.207826
0.0479069
-0.229468
0.0324263
-0.245864
0.0150572
-0.253965
-0.000151446
-0.252687
-0.0103024
-0.243201
-0.0138896
-0.232144
-0.0130868
-0.225085
-0.0107755
-0.222042
-0.008346
-0.220567
-0.00616013
-0.219834
-0.00440831
-0.219694
-0.00309854
-0.219826
-0.0021702
-0.22004
-0.00153289
-0.220271
-0.00110679
-0.220418
-0.000820558
-0.220511
-0.000623009
-0.220519
-0.000475443
-0.220455
-0.000352184
-0.220371
-0.000237595
-0.22024
-0.000122954
-0.220121
0.0265593
-0.233598
0.0306891
-0.228498
0.0342838
-0.220433
0.0357212
-0.209232
0.0331406
-0.195577
0.0259111
-0.18031
0.013039
-0.165219
-0.00551869
-0.15101
-0.0283331
-0.139065
-0.0527097
-0.0836954
-0.0724847
-0.082632
-0.0869358
-0.0831118
-0.0939354
-0.0844086
-0.093886
-0.0864457
-0.0847696
-0.0885712
-0.0659539
-0.0898752
-0.0393635
-0.089768
-0.00709913
-0.0877988
0.027364
-0.0847209
0.0559057
-0.14918
0.0674151
-0.169677
0.0671903
-0.193648
0.0583204
-0.218239
0.0420575
-0.2391
0.0220215
-0.252829
0.00313962
-0.257256
-0.0110654
-0.251924
-0.0176161
-0.239475
-0.0175252
-0.227705
-0.0142213
-0.221639
-0.0107074
-0.21968
-0.0077562
-0.218971
-0.00539922
-0.218843
-0.00367191
-0.219121
-0.00247837
-0.219517
-0.00168974
-0.219883
-0.00118739
-0.22019
-0.000874457
-0.220364
-0.000678245
-0.220456
-0.00054549
-0.220449
-0.00044037
-0.220367
-0.000342824
-0.220266
-0.000240394
-0.220123
-0.000127895
-0.219993
0.0202123
-0.229893
0.0228008
-0.22571
0.0254504
-0.219665
0.0264707
-0.211183
0.0244444
-0.200536
0.0186015
-0.188268
0.00790734
-0.175179
-0.00794624
-0.162791
-0.0279914
-0.151351
-0.0500534
-0.141721
-0.0711462
-0.0850339
-0.0848184
-0.0847494
-0.0919644
-0.0850827
-0.0921502
-0.0861444
-0.0836856
-0.0875298
-0.0659992
-0.0885259
-0.0403649
-0.0888738
-0.00935979
-0.0875074
0.0243785
-0.0848134
0.0548549
-0.0836701
0.0737759
-0.15554
0.0760003
-0.178487
0.0683206
-0.203648
0.0520148
-0.228196
0.0299738
-0.247052
0.00740237
-0.257091
-0.0107861
-0.257535
-0.0215502
-0.24799
-0.0233335
-0.233667
-0.0194053
-0.222521
-0.0140313
-0.218315
-0.00983548
-0.217601
-0.00668297
-0.217687
-0.00437372
-0.218141
-0.00282086
-0.218778
-0.00182457
-0.219383
-0.00122225
-0.219848
-0.0008754
-0.220189
-0.00068445
-0.220358
-0.000575804
-0.220426
-0.000500172
-0.220389
-0.000429722
-0.22028
-0.000349157
-0.220157
-0.000251836
-0.219999
-0.000135807
-0.219857
0.016034
-0.228972
0.0177195
-0.224811
0.019341
-0.219601
0.0196898
-0.212884
0.0179136
-0.204652
0.0131943
-0.195128
0.00447892
-0.184839
-0.00871507
-0.17441
-0.0261705
-0.164612
-0.0460208
-0.155384
-0.0658044
-0.147063
-0.0821698
-0.0876825
-0.0893039
-0.0874099
-0.0896188
-0.0876141
-0.0816278
-0.0882021
-0.0648665
-0.0886625
-0.0403943
-0.0884965
-0.0103449
-0.0878886
0.0223399
-0.0854687
0.0535293
-0.0834878
0.0751262
-0.0850205
0.0837016
-0.163242
0.0777223
-0.187888
0.0618116
-0.213444
0.0384228
-0.236645
0.0127383
-0.252388
-0.00949035
-0.258387
-0.0247519
-0.254333
-0.0299612
-0.241362
-0.0266481
-0.226424
-0.0191755
-0.217377
-0.012646
-0.215504
-0.00830636
-0.215978
-0.00525249
-0.216809
-0.00319998
-0.217762
-0.00193003
-0.218673
-0.0011923
-0.219413
-0.000803241
-0.21992
-0.00062274
-0.220251
-0.000550275
-0.220384
-0.000519074
-0.220407
-0.000489897
-0.220329
-0.000442507
-0.220187
-0.000369509
-0.22004
-0.000269621
-0.219865
-0.000145717
-0.219711
0.013189
-0.229717
0.014537
-0.22579
0.0155734
-0.221044
0.015486
-0.215397
0.0138478
-0.208818
0.00999057
-0.201448
0.00305039
-0.1937
-0.00775275
-0.185802
-0.0225644
-0.178016
-0.040464
-0.170169
-0.0590459
-0.162142
-0.0753219
-0.153911
-0.085988
-0.0909984
-0.086339
-0.0906897
-0.078696
-0.090546
-0.0626123
-0.0904564
-0.0390705
-0.0899863
-0.0101261
-0.0887153
0.0214179
-0.0869666
0.0523074
-0.0842468
0.0760133
-0.0843748
0.0867142
-0.0880331
0.0859165
-0.171436
0.0713187
-0.197396
0.0471887
-0.22221
0.0186681
-0.242575
-0.00766433
-0.254214
-0.0269312
-0.256208
-0.0366309
-0.247664
-0.0354264
-0.232584
-0.0268411
-0.218758
-0.0169946
-0.213028
-0.0103661
-0.213445
-0.00631157
-0.214918
-0.00363299
-0.216376
-0.00198441
-0.217708
-0.00107413
-0.218791
-0.000630066
-0.219586
-0.000466932
-0.220076
-0.000447664
-0.220353
-0.000480252
-0.220422
-0.000511634
-0.220385
-0.000513243
-0.220258
-0.000476126
-0.22008
-0.000400153
-0.219909
-0.00029161
-0.219719
-0.000156301
-0.219555
0.0109906
-0.230752
0.0122598
-0.22744
0.0131192
-0.223336
0.0130097
-0.218568
0.0116308
-0.21318
0.00851536
-0.207343
0.00302506
-0.201423
-0.00555129
-0.195901
-0.0179247
-0.190441
-0.033691
-0.184789
-0.0510904
-0.178124
-0.0671011
-0.170363
-0.0785014
-0.161398
-0.0822924
-0.095045
-0.0749306
-0.0944551
-0.0592705
-0.0938878
-0.0365525
-0.0929744
-0.00867306
-0.0914393
0.0218632
-0.0891606
0.0518077
-0.086467
0.0765616
-0.0847951
0.0892918
-0.0869524
0.0899802
-0.0920968
0.0795616
-0.179679
0.0559732
-0.20618
0.0253966
-0.228939
-0.00508281
-0.245157
-0.0287652
-0.25238
-0.0426896
-0.250149
-0.0448073
-0.238283
-0.0367658
-0.222659
-0.0238953
-0.211858
-0.0134168
-0.209978
-0.00753868
-0.212218
-0.00408518
-0.214466
-0.00197433
-0.216386
-0.000827745
-0.217954
-0.000318473
-0.219102
-0.000182628
-0.21987
-0.000237833
-0.220286
-0.000361867
-0.220472
-0.000478868
-0.220455
-0.000551508
-0.220347
-0.000566349
-0.220168
-0.000525064
-0.219955
-0.00043751
-0.219763
-0.000314945
-0.21956
-0.00016592
-0.219389
0.00919014
-0.231408
0.0103672
-0.228859
0.0112228
-0.225543
0.0112954
-0.221621
0.0103215
-0.217258
0.00791715
-0.212582
0.0036708
-0.207989
-0.00301033
-0.203964
-0.0129445
-0.200882
-0.0264516
-0.197681
-0.0423502
-0.193529
-0.0578402
-0.187385
-0.0695221
-0.179343
-0.0744548
-0.169235
-0.0702984
-0.0996773
-0.054943
-0.0987826
-0.0328031
-0.0976372
-0.006
-0.0956474
0.0233472
-0.0929233
0.0523575
-0.0897104
0.0770522
-0.0869575
0.0914944
-0.0869977
0.0934461
-0.0904183
0.0847473
-0.0972825
0.0634984
-0.187204
0.0320874
-0.212871
-0.00139472
-0.232627
-0.0295997
-0.244322
-0.0478222
-0.247247
-0.053995
-0.240962
-0.047916
-0.227133
-0.033589
-0.212966
-0.0185513
-0.206723
-0.00913923
-0.208377
-0.00450241
-0.2118
-0.00183309
-0.214607
-0.000410552
-0.216803
0.000184358
-0.218457
0.000278662
-0.219564
0.000117628
-0.220225
-0.000132276
-0.220516
-0.000370963
-0.22058
-0.000543469
-0.220463
-0.000633114
-0.22028
-0.000641399
-0.220052
-0.000583782
-0.219809
-0.000476892
-0.219601
-0.000336124
-0.21939
-0.000173509
-0.219215
0.0077045
-0.231795
0.00876141
-0.229802
0.00959164
-0.227228
0.00984956
-0.224097
0.00927514
-0.220575
0.00755314
-0.216894
0.00434374
-0.213255
-0.000716972
-0.210282
-0.00836112
-0.208547
-0.0193821
-0.207951
-0.0333459
-0.206685
-0.0478733
-0.203496
-0.0595506
-0.197357
-0.0650424
-0.188755
-0.06261
-0.176924
-0.0498293
-0.104791
-0.0279859
-0.1036
-0.00220072
-0.101436
0.0258805
-0.0981807
0.0538168
-0.0943826
0.077954
-0.0906122
0.0931672
-0.0886304
0.096241
-0.0897927
0.0891299
-0.0948009
0.069635
-0.103419
0.037935
-0.193052
0.0019736
-0.216239
-0.0298176
-0.232409
-0.0521086
-0.240036
-0.0621738
-0.239069
-0.0592266
-0.229651
-0.0452763
-0.215445
-0.0265611
-0.204956
-0.0119913
-0.203871
-0.00478895
-0.208091
-0.00150028
-0.212133
0.000264541
-0.215283
0.000946827
-0.217565
0.000978669
-0.219157
0.000674811
-0.220121
0.000248194
-0.220606
-0.000157414
-0.220729
-0.000471504
-0.220652
-0.000666152
-0.22043
-0.000745611
-0.220176
-0.000730158
-0.219905
-0.000645211
-0.219641
-0.000512632
-0.219425
-0.000352822
-0.219211
-0.000177891
-0.219037
0.00646988
-0.23203
0.00741159
-0.230445
0.00819003
-0.2284
0.00855676
-0.225935
0.00829691
-0.223119
0.00713794
-0.22016
0.00480181
-0.217352
0.00101527
-0.214987
-0.00464674
-0.213996
-0.0130354
-0.214894
-0.0246105
-0.216686
-0.0376876
-0.216871
-0.0489034
-0.214143
-0.0549139
-0.207485
-0.0533126
-0.198052
-0.0431376
-0.183615
-0.0224827
-0.110294
0.00245388
-0.108254
0.0292248
-0.104781
0.0559621
-0.100326
0.0792542
-0.0956828
0.0944996
-0.0919445
0.0981992
-0.0905886
0.092712
-0.0933747
0.0748333
-0.0999992
0.0449078
-0.110392
0.0058276
-0.196906
-0.0297278
-0.216329
-0.0558398
-0.228678
-0.0695349
-0.232675
-0.0698774
-0.228418
-0.0577618
-0.217166
-0.0371956
-0.204811
-0.0171585
-0.199789
-0.00544353
-0.203216
-0.000726611
-0.208864
0.00127676
-0.213145
0.00206525
-0.216401
0.00200691
-0.218594
0.00150173
-0.219984
0.00083904
-0.220712
0.000199755
-0.220963
-0.00030902
-0.220892
-0.000652525
-0.220665
-0.000832067
-0.220344
-0.000877013
-0.220029
-0.000822371
-0.219728
-0.000700922
-0.219453
-0.000540873
-0.219237
-0.000362545
-0.219026
-0.000178378
-0.218859
0.00542503
-0.232173
0.00627163
-0.23089
0.00699497
-0.22925
0.00742162
-0.227265
0.00737686
-0.225015
0.00665246
-0.222634
0.00500922
-0.220367
0.00223052
-0.218567
-0.00191469
-0.217719
-0.00793717
-0.219095
-0.0167159
-0.222788
-0.0277931
-0.226581
-0.0381956
-0.227578
-0.0443169
-0.22474
-0.0437462
-0.217052
-0.0350546
-0.206135
-0.0173927
-0.188706
0.0078048
-0.115645
0.0330556
-0.112085
0.0585012
-0.10732
0.0808019
-0.101874
0.0954345
-0.0966177
0.0993372
-0.0930825
0.0955892
-0.0934658
0.0791579
-0.0976993
0.0510086
-0.1061
0.0132474
-0.117812
-0.0277274
-0.198906
-0.0582734
-0.213895
-0.0760229
-0.22219
-0.0795706
-0.222981
-0.0699593
-0.21622
-0.0494256
-0.204936