/*--------------------------------*- C++ -*----------------------------------*\
| =========                 |                                                 |
| \\      /  F ield         | OpenFOAM: The Open Source CFD Toolbox           |
|  \\    /   O peration     | Version:  2506                                  |
|   \\  /    A nd           | Website:  www.openfoam.com                      |
|    \\/     M anipulation  |                                                 |
\*---------------------------------------------------------------------------*/
FoamFile
{
    version     2.0;
    format      ascii;
    arch        "LSB;label=32;scalar=64";
    class       surfaceScalarField;
    location    "30";
    object      phi;
}
// * * * * * * * * * * * * * * * * * * * * * * * * * * * * * * * * * * * * * //

dimensions      [0 3 -1 0 0 0 0];

oriented        oriented;

internalField   nonuniform List<scalar> 
760
(
1.44564e-05
-1.44563e-05
2.69281e-05
-1.24718e-05
2.80245e-05
-1.09636e-06
1.55377e-05
1.24868e-05
-1.39907e-05
2.95284e-05
-6.65569e-05
5.25662e-05
-0.000145237
7.86798e-05
-0.000242117
9.68806e-05
-0.000338209
9.60915e-05
-0.000411025
7.28156e-05
-0.000443868
3.28432e-05
-0.000427108
-1.67599e-05
-0.000354572
-7.25355e-05
-0.000237122
-0.00011745
-9.70505e-05
-0.000140071
2.90813e-05
-0.000126132
0.000103127
-7.40456e-05
9.94816e-05
3.64544e-06
4.46906e-05
5.4791e-05
4.46906e-05
1.06682e-05
-2.51245e-05
4.28837e-06
-6.09196e-06
-3.22452e-05
3.54373e-05
-0.000107676
8.79179e-05
-0.000226514
0.000148366
-0.000381618
0.00020767
-0.000549727
0.000246789
-0.000700837
0.000247991
-0.000812543
0.000207797
-0.000873443
0.000133716
-0.000878587
3.79866e-05
-0.000825379
-6.99678e-05
-0.000716868
-0.000181046
-0.000556128
-0.000278191
-0.000357152
-0.000339047
-0.000149719
-0.000333565
1.42288e-05
-0.000237993
8.2366e-05
-6.44917e-05
5.10193e-05
8.61378e-05
9.57099e-05
-1.38408e-05
-1.12837e-05
-6.37897e-05
4.38569e-05
-0.000159545
0.000131193
-0.000305302
0.000233675
-0.00048996
0.000333024
-0.000685662
0.000403372
-0.000861954
0.000423081
-0.00100054
0.000386573
-0.00109563
0.000302888
-0.00114617
0.000184256
-0.00114743
3.92479e-05
-0.00110362
-0.000113772
-0.00101325
-0.000271424
-0.000870922
-0.000420515
-0.000674574
-0.000535395
-0.000433037
-0.000575102
-0.000185451
-0.00048558
-9.42016e-06
-0.000240522
2.88883e-05
4.78294e-05
0.000124598
-4.89e-05
3.76164e-05
-0.00015151
0.000146467
-0.000301608
0.00028129
-0.000490783
0.00042285
-0.000694983
0.000537224
-0.000884711
0.0005931
-0.00103968
0.000578046
-0.00115479
0.000501689
-0.00123242
0.000380512
-0.00127586
0.000227695
-0.00128385
4.72454e-05
-0.00126149
-0.000136134
-0.00120542
-0.000327499
-0.00110548
-0.00052045
-0.000948665
-0.00069221
-0.000722677
-0.00080109
-0.000431624
-0.000776633
-0.000135739
-0.000536408
1.16373e-05
-9.95464e-05
0.000136235
-8.29018e-05
0.000120518
-0.00022719
0.000290755
-0.000407475
0.000461575
-0.000605895
0.00062127
-0.000795773
0.000727102
-0.00095504
0.000752367
-0.00107529
0.000698293
-0.00115848
0.000584884
-0.00121051
0.000432538
-0.00123852
0.000255708
-0.0012512
5.99248e-05
-0.001248
-0.000139338
-0.00122773
-0.000347767
-0.00118234
-0.000565836
-0.00109326
-0.000781293
-0.000931959
-0.000962391
-0.000669352
-0.00103924
-0.000316005
-0.000889755
-2.59726e-05
-0.000389578
0.000110263
-0.000103833
0.000224351
-0.00026703
0.000453952
-0.000450002
0.000644547
-0.000630913
0.000802182
-0.000787935
0.000884124
-0.000907541
0.000871973
-0.000988441
0.000779194
-0.00103659
0.000633033
-0.0010608
0.000456749
-0.00107109
0.000265993
-0.0010795
6.83353e-05
-0.00108578
-0.000133056
-0.00109095
-0.000342595
-0.00109194
-0.000564846
-0.00107311
-0.000800118
-0.00100164
-0.00103387
-0.00082865
-0.00121223
-0.000514004
-0.0012044
-0.00011356
-0.000790022
-3.29696e-06
-0.000105779
0.00033013
-0.000264287
0.000612461
-0.000428798
0.000809058
-0.000578743
0.000952126
-0.000698264
0.00100364
-0.000780439
0.000954148
-0.000828194
0.000826949
-0.00084978
0.000654619
-0.00085549
0.000462459
-0.000855327
0.00026583
-0.000857996
7.10045e-05
-0.000865949
-0.000125103
-0.000881023
-0.00032752
-0.000904219
-0.000541651
-0.000929361
-0.000774976
-0.000932629
-0.0010306
-0.000861889
-0.00128297
-0.00064267
-0.00142362
-0.00023718
-0.00119551
-0.000240477
-8.89769e-05
0.000419107
-0.000224869
0.000748353
-0.000359531
0.00094372
-0.000474789
0.00106738
-0.000560369
0.00108922
-0.000613913
0.00100769
-0.000640465
0.0008535
-0.000648838
0.000662992
-0.000648809
0.000462431
-0.000648134
0.000265154
-0.000650928
7.37993e-05
-0.000659121
-0.00011691
-0.000674967
-0.000311674
-0.000701573
-0.000515045
-0.000740354
-0.000736195
-0.000781377
-0.000989579
-0.000782651
-0.00128169
-0.000662489
-0.00154378
-0.000351366
-0.00150663
-0.000591844
-5.92979e-05
0.000478405
-0.000161633
0.000850687
-0.00026202
0.00104411
-0.000343952
0.00114932
-0.000401601
0.00114687
-0.000435477
0.00104157
-0.000451043
0.000869066
-0.000456056
0.000668005
-0.000458
0.000464374
-0.000461656
0.00026881
-0.000468298
8.04413e-05
-0.000478625
-0.000106583
-0.000493808
-0.000296491
-0.000516922
-0.000491931
-0.000553636
-0.000699482
-0.000604852
-0.000938362
-0.000647306
-0.00123924
-0.000605969
-0.00158512
-0.000387124
-0.00172548
-0.000978968
-2.19437e-05
0.000500348
-8.55483e-05
0.000914292
-0.000150813
0.00110937
-0.000202389
0.00120089
-0.000237239
0.00118172
-0.000257507
0.00106184
-0.000267871
0.00087943
-0.000273708
0.000673842
-0.000279713
0.000470379
-0.000288307
0.000277405
-0.000299792
9.19261e-05
-0.000314083
-9.22919e-05
-0.000331297
-0.000279277
-0.000352908
-0.00047032
-0.000384557
-0.000667833
-0.00043456
-0.000888359
-0.000496461
-0.00117734
-0.000508352
-0.00157323
-0.000352984
-0.00188085
-0.00133195
1.56383e-05
0.00048471
-6.73195e-06
0.000936662
-3.9029e-05
0.00114167
-6.33465e-05
0.00122521
-7.80487e-05
0.00119643
-8.61228e-05
0.00106991
-9.15651e-05
0.000884872
-9.77119e-05
0.000679989
-0.000106338
0.000479005
-0.000118214
0.000289281
-0.000133466
0.000107179
-0.000152224
-7.35339e-05
-0.000174409
-0.000257092
-0.000200015
-0.000444714
-0.000232289
-0.000635559
-0.000281233
-0.000839415
-0.000352597
-0.00110597
-0.000400795
-0.00152503
-0.00030136
-0.00198028
-0.00163331
4.74623e-05
0.000437248
6.63947e-05
0.00091773
7.05065e-05
0.00113756
7.42008e-05
0.00122152
7.9177e-05
0.00119145
8.27246e-05
0.00106636
8.26151e-05
0.000884982
7.7888e-05
0.000684716
6.87272e-05
0.000488166
5.54537e-05
0.000302554
3.77505e-05
0.000124882
1.50249e-05
-5.08083e-05
-1.29615e-05
-0.000229106
-4.68951e-05
-0.000410781
-8.75872e-05
-0.000594867
-0.000140346
-0.000786656
-0.000220016
-0.0010263
-0.000296114
-0.00144893
-0.00024652
-0.00202988
-0.00187983
7.12935e-05
0.000365954
0.000128489
0.000860534
0.000166417
0.00109963
0.000198755
0.00118918
0.000226134
0.00116407
0.000245135
0.00104736
0.000254528
0.000875589
0.000255252
0.000683992
0.000248856
0.000494562
0.000236336
0.000315073
0.000217245
0.000143973
0.000190139
-2.37018e-05
0.000154838
-0.000193805
0.000110868
-0.000366811
5.76372e-05
-0.000541636
-1.06041e-05
-0.000718415
-9.85168e-05
-0.00093839
-0.000195186
-0.00135226
-0.000194096
-0.00203097
-0.00207393
8.17653e-05
0.000284189
0.000171373
0.000770926
0.000242858
0.00102815
0.000305381
0.00112665
0.00035944
0.00111001
0.000400326
0.00100647
0.000426004
0.000849911
0.000437689
0.000672307
0.000437821
0.00049443
0.000428155
0.000324739
0.000408632
0.000163496
0.000377209
7.72137e-06
0.00033395
-0.000150547
0.000277374
-0.000310235
0.000207289
-0.00047155
0.000125064
-0.00063619
2.09869e-05
-0.000834313
-0.000100937
-0.00123034
-0.000145172
-0.00198673
-0.0022191
7.54492e-05
0.00020874
0.000184281
0.000662094
0.000284439
0.000927988
0.000379048
0.00103204
0.000465046
0.00102401
0.000535524
0.000935996
0.000586155
0.00079928
0.000617
0.000641462
0.000630247
0.000481183
0.000627987
0.000326999
0.000610446
0.000181038
0.000576603
4.15642e-05
0.000524429
-9.83731e-05
0.000453819
-0.000239625
0.000364049
-0.00038178
0.000257962
-0.000530103
0.000130676
-0.000707027
-2.02153e-05
-0.00107945
-9.48681e-05
-0.00191208
-0.00231397
5.37976e-05
0.000154942
0.000165204
0.000550687
0.000293389
0.000799803
0.000423963
0.000901471
0.000547327
0.000900651
0.000653447
0.000829876
0.000735423
0.000717303
0.000791699
0.000585187
0.000823498
0.000449384
0.000832694
0.000317803
0.000820052
0.00019368
0.000785451
7.61649e-05
0.000724644
-3.75658e-05
0.000639183
-0.000154164
0.000527776
-0.000270373
0.000394733
-0.00039706
0.00024593
-0.000558225
8.70743e-05
-0.000920592
-1.85138e-05
-0.00180649
-0.00233248
1.29265e-05
0.000142016
9.52508e-05
0.000468363
0.000236424
0.000658629
0.000402559
0.000735335
0.00056985
0.00073336
0.000719725
0.000680001
0.000841626
0.000595402
0.000932329
0.000494484
0.000991208
0.000390505
0.00101959
0.000289421
0.00101802
0.000195251
0.000987163
0.000107021
0.000923653
2.59442e-05
0.000827714
-5.82254e-05
0.000699789
-0.000142448
0.000544678
-0.000241948
0.000377933
-0.000391479
0.00021602
-0.00075868
6.21627e-05
-0.00165263
-0.00227032
-5.0077e-05
0.000192093
1.65037e-05
0.000401783
0.000164118
0.000511015
0.000362244
0.00053721
0.000570632
0.000524971
0.000761262
0.000489371
0.000920253
0.000436411
0.00104334
0.000371402
0.0011285
0.000305337
0.00117754
0.000240386
0.00119088
0.000181905
0.00117064
0.000127269
0.00111832
7.82569e-05
0.00103242
2.76776e-05
0.000913293
-2.33209e-05
0.000767118
-9.57732e-05
0.000612727
-0.000237088
0.000437993
-0.000583947
0.000202341
-0.00141698
-0.00206798
-0.000416213
0.000608305
-0.000363721
0.000349291
-0.000129697
0.000276991
0.000142933
0.00026458
0.000409741
0.000258163
0.000656944
0.000242169
0.000873753
0.000219603
0.00105424
0.000190915
0.00119659
0.000162984
0.00130334
0.000133642
0.00137611
0.00010913
0.0014192
8.41797e-05
0.00143168
6.57822e-05
0.00141492
4.44291e-05
0.00136698
2.4626e-05
0.00128932
-1.8116e-05
0.001182
-0.000129765
0.00100685
-0.0004088
0.000561974
-0.000972105
-0.001506
0.000608305
0.000957597
0.00123459
0.00149917
0.00175733
0.0019995
0.0022191
0.00241002
0.002573
0.00270664
0.00281577
0.00289995
0.00296573
0.00301016
0.00303479
0.00301667
0.00288691
0.00247811
0.001506
)
;

boundaryField
{
    movingWall
    {
        type            calculated;
        value           uniform 0;
    }
    fixedWalls
    {
        type            calculated;
        value           uniform 0;
    }
    frontAndBack
    {
        type            empty;
    }
}


// ************************************************************************* //
