/*--------------------------------*- C++ -*----------------------------------*\
| =========                 |                                                 |
| \\      /  F ield         | OpenFOAM: The Open Source CFD Toolbox           |
|  \\    /   O peration     | Version:  2506                                  |
|   \\  /    A nd           | Website:  www.openfoam.com                      |
|    \\/     M anipulation  |                                                 |
\*---------------------------------------------------------------------------*/
FoamFile
{
    version     2.0;
    format      ascii;
    arch        "LSB;label=32;scalar=64";
    class       volScalarField;
    location    "450";
    object      div(phi);
}
// * * * * * * * * * * * * * * * * * * * * * * * * * * * * * * * * * * * * * //

dimensions      [0 0 -1 0 0 0 0];

internalField   nonuniform List<scalar> 
1340
(
-5.00855e-07
-1.3954e-05
-9.83486e-06
-1.06593e-05
2.24967e-07
-1.3489e-05
-1.1857e-05
-1.86959e-05
-1.04464e-06
-1.07294e-05
-6.72373e-06
-5.37058e-06
-5.66267e-07
-1.35313e-05
-1.25696e-05
-2.00113e-05
-1.72747e-06
-8.84543e-06
-4.29294e-06
-2.67103e-06
-1.38994e-06
-1.17276e-05
-1.20434e-05
-1.88594e-05
-1.78698e-06
-5.41243e-06
-2.27946e-06
4.6249e-07
-1.99063e-06
-9.7354e-06
-1.08899e-05
-1.57439e-05
-1.86492e-06
-3.25639e-06
-3.12804e-07
2.51804e-06
-2.52167e-06
-8.16609e-06
-9.68522e-06
-1.26064e-05
-1.59877e-06
-1.27035e-06
8.45373e-07
3.15516e-06
-2.81454e-06
-6.85382e-06
-8.34218e-06
-9.88722e-06
-1.33276e-06
-1.19401e-07
1.69004e-06
3.49425e-06
-3.02251e-06
-5.7021e-06
-7.01805e-06
-7.58085e-06
-9.90399e-07
8.09247e-07
2.21839e-06
3.00166e-06
-2.97922e-06
-4.68949e-06
-5.65535e-06
-5.80858e-06
-5.67684e-07
1.35063e-06
2.23845e-06
2.70415e-06
-2.78386e-06
-3.75212e-06
-4.4704e-06
-4.30565e-06
-3.03831e-07
1.55945e-06
2.23696e-06
2.02832e-06
-2.36612e-06
-2.95054e-06
-3.27213e-06
-3.11296e-06
2.32442e-07
1.9439e-06
1.88847e-06
1.79482e-06
-1.90226e-06
-2.17569e-06
-2.27686e-06
-2.12734e-06
3.21323e-07
1.78409e-06
1.91781e-06
1.33631e-06
-1.47042e-06
-1.58862e-06
-1.50706e-06
-1.48577e-06
4.41978e-07
1.69757e-06
1.55833e-06
1.10097e-06
-1.11137e-06
-1.13662e-06
-1.0518e-06
-1.09424e-06
3.51731e-07
1.26398e-06
1.30987e-06
7.887e-07
-8.51169e-07
-8.84513e-07
-8.25886e-07
-9.21839e-07
1.81873e-07
8.47118e-07
9.17027e-07
5.16995e-07
-6.67728e-07
-7.10755e-07
-7.42007e-07
-8.17825e-07
8.67426e-08
5.03966e-07
5.67433e-07
3.30139e-07
-4.87922e-07
-6.10115e-07
-6.67513e-07
-7.07607e-07
-2.53766e-08
2.62646e-07
3.30134e-07
2.15801e-07
-3.73233e-07
-4.86374e-07
-5.69467e-07
-5.78304e-07
-5.21395e-08
1.3783e-07
1.87833e-07
1.6237e-07
-2.20532e-07
-3.7359e-07
-4.46974e-07
-4.58754e-07
-8.69913e-08
8.21527e-08
1.1682e-07
1.23548e-07
-2.41862e-07
-2.67883e-07
-3.35198e-07
-3.46775e-07
-1.52394e-07
-1.53038e-08
4.3071e-08
7.81483e-08
8.83163e-08
-1.36403e-07
-1.43902e-07
-1.77985e-07
-2.39277e-07
-2.5909e-07
-1.27072e-07
-1.35596e-08
1.78371e-08
4.28142e-08
6.52502e-08
-5.28895e-08
-8.67046e-08
-1.16407e-07
-1.65404e-07
-1.89819e-07
-1.10954e-07
-2.51959e-08
-8.19898e-09
1.91471e-08
4.30133e-08
-3.51017e-08
-4.62492e-08
-7.04154e-08
-1.0825e-07
-1.32883e-07
-6.78694e-08
-3.30337e-08
-2.14417e-08
4.46509e-09
3.17626e-08
-2.52398e-08
-2.99836e-08
-3.8027e-08
-6.35234e-08
-8.76091e-08
-6.25079e-08
-3.02212e-08
-2.33067e-08
-7.19687e-10
2.79393e-08
-1.45598e-08
-7.73648e-09
-1.11736e-08
-2.87525e-08
-5.32556e-08
-1.28637e-08
-1.43081e-08
-1.66202e-08
-1.08418e-09
2.62636e-08
2.2503e-09
3.25812e-09
6.08071e-09
-6.80828e-09
-3.1149e-08
3.40368e-09
-4.95251e-09
-1.29546e-08
-2.94599e-09
2.42494e-08
1.53013e-08
2.83822e-10
8.0361e-09
4.22807e-09
-2.331e-08
8.55604e-08
1.14278e-08
1.3028e-08
-6.0665e-09
-1.10586e-08
3.01504e-08
-7.42912e-08
2.81859e-08
8.20444e-10
1.00358e-08
2.07017e-08
-8.97953e-09
8.54239e-08
2.3452e-09
1.75958e-08
3.89752e-09
-1.72873e-08
1.9248e-08
-7.14448e-08
1.5926e-08
6.2479e-09
1.73324e-08
1.95618e-08
-1.87153e-08
6.49532e-08
1.87881e-08
4.09523e-08
1.29041e-08
-9.63472e-09
8.22323e-09
-3.05018e-08
2.88785e-08
9.44515e-09
2.96973e-08
1.10426e-08
-1.96819e-08
4.31692e-08
7.25235e-09
3.908e-08
-1.23839e-08
-2.60198e-09
5.16689e-09
-1.18269e-08
2.07051e-08
-3.54603e-08
1.70433e-08
-4.25136e-09
-5.48223e-09
2.79421e-08
-3.64478e-08
2.10862e-08
-2.54829e-08
1.41976e-08
2.39065e-09
6.09189e-08
-1.20085e-08
1.82487e-08
-1.98446e-08
2.31833e-08
4.06573e-09
1.76258e-08
-1.14342e-08
1.06489e-08
-3.10117e-09
1.70252e-08
7.55564e-09
1.2132e-08
-3.71958e-09
3.10365e-08
4.01762e-09
6.43409e-09
4.94341e-09
4.74951e-09
5.19167e-10
3.67423e-10
-6.1485e-09
3.48819e-09
2.75849e-09
1.81329e-09
4.72023e-10
-3.28095e-09
-3.20537e-09
3.27436e-08
5.70802e-09
4.05925e-09
-2.62219e-09
-4.8663e-09
-9.61876e-09
-4.25419e-09
2.45113e-10
6.09957e-09
-6.00162e-09
-5.82507e-09
-1.09948e-08
-7.89637e-09
-8.47223e-09
3.16506e-08
-9.16957e-10
3.39709e-09
-4.75843e-09
-9.39991e-10
-7.7546e-09
1.89346e-10
2.12703e-09
6.15753e-09
1.69265e-09
4.54877e-09
3.5826e-09
8.22378e-09
-1.32755e-09
1.85081e-08
1.67596e-09
3.4868e-09
3.53305e-09
3.97807e-09
1.85041e-09
1.45086e-09
1.96734e-09
4.87916e-10
-2.07303e-09
-1.5037e-09
-7.63489e-10
-3.32643e-09
7.48688e-10
-1.46678e-08
-2.22747e-09
-4.26221e-09
-4.20552e-09
-4.37855e-09
-4.32238e-09
-4.02541e-09
-5.73399e-09
3.38104e-09
-4.07046e-09
-3.89453e-09
-4.67002e-09
-4.05606e-09
-4.85816e-09
-4.22361e-09
-5.642e-09
-6.86677e-09
-7.58118e-10
-1.88373e-09
-1.88331e-09
-2.44029e-09
-2.73549e-09
-1.7902e-09
-3.44388e-09
1.16125e-08
1.82536e-09
1.41074e-09
2.10207e-10
6.09225e-10
-1.65429e-10
2.27907e-10
-9.58115e-10
6.32101e-10
4.78607e-09
3.25242e-09
3.4663e-09
2.38994e-09
1.8308e-09
2.11129e-09
2.17632e-10
1.80878e-08
6.15399e-09
5.96889e-09
4.21459e-09
4.76487e-09
3.27023e-09
3.48584e-09
1.36288e-09
3.9938e-09
7.33976e-09
6.32124e-09
6.65769e-09
6.31969e-09
5.70227e-09
5.83742e-09
4.35643e-09
2.36747e-08
9.40454e-09
8.66787e-09
8.10213e-09
7.9879e-09
6.39325e-09
6.74361e-09
3.51161e-09
1.37681e-08
6.66149e-09
6.4621e-09
5.87857e-09
5.06531e-09
4.65745e-09
3.42613e-09
5.40527e-09
-0.000132949
4.0971e-05
-1.25128e-05
1.30661e-05
-1.30435e-05
3.59208e-07
-9.37778e-06
-4.22611e-06
-6.13759e-06
-5.33364e-06
-3.4676e-06
-4.99332e-06
-1.64899e-06
-4.37799e-06
-5.59863e-07
-3.66339e-06
2.40828e-07
-2.94398e-06
4.78642e-07
-2.12138e-06
8.53025e-07
-1.35876e-06
9.26586e-07
-8.14321e-07
9.01095e-07
-5.24549e-07
7.41732e-07
-4.52446e-07
4.95648e-07
-4.51556e-07
2.90394e-07
-4.28277e-07
1.61198e-07
-3.73216e-07
7.43459e-08
-2.87048e-07
2.71516e-08
-2.1493e-07
-6.02441e-10
-1.51952e-07
-2.60614e-08
-1.01003e-07
-3.16257e-08
-6.31166e-08
-2.79173e-08
-3.36675e-08
-1.74422e-08
-1.42126e-08
-5.79695e-09
-4.0302e-09
2.19078e-09
2.11617e-09
3.2886e-08
7.1977e-09
2.97479e-08
-8.70419e-11
-1.0542e-09
-1.09312e-08
-1.81918e-08
8.3707e-09
1.89207e-09
-1.04602e-08
1.19846e-08
-6.17283e-09
-7.09113e-09
-7.01269e-09
-1.17294e-08
-6.6657e-09
4.25869e-09
-1.01946e-09
-6.83509e-09
-4.02893e-09
-6.32581e-09
-3.13872e-09
1.14739e-09
8.67451e-10
2.82968e-09
9.19972e-09
1.44996e-08
7.32883e-09
-8.84809e-05
1.53783e-05
-1.22181e-05
4.31272e-06
-1.02144e-05
-8.09147e-07
-6.62594e-06
-3.1319e-06
-4.20446e-06
-3.94766e-06
-2.34901e-06
-3.85073e-06
-1.15696e-06
-3.46424e-06
-5.33399e-07
-2.95045e-06
-1.26844e-07
-2.4361e-06
-6.18011e-09
-1.90043e-06
1.91345e-07
-1.41554e-06
2.07688e-07
-1.04426e-06
2.63402e-07
-7.99537e-07
2.12576e-07
-6.68091e-07
1.47549e-07
-5.72495e-07
1.018e-07
-4.79215e-07
6.50692e-08
-3.78206e-07
5.0065e-08
-3.01942e-07
2.08028e-08
-2.26502e-07
-1.41028e-08
-1.66464e-07
-2.92514e-08
-1.14231e-07
-3.85729e-08
-6.76061e-08
-3.37131e-08
-3.28571e-08
-2.28104e-08
-1.00962e-08
-1.2811e-08
-1.36131e-11
-1.59828e-09
1.52933e-08
1.01552e-08
3.60616e-08
1.17619e-08
3.01013e-08
-1.30819e-09
1.39565e-09
1.48703e-09
-1.97937e-08
-4.08931e-09
1.51884e-08
-1.42598e-08
-1.69347e-09
-3.96756e-09
-2.85263e-09
1.40315e-09
-4.0199e-09
-7.39682e-09
-6.11491e-10
1.9142e-09
-8.70722e-09
-8.83236e-09
-5.39197e-09
-4.98543e-09
-3.43718e-10
-5.63725e-10
5.05409e-09
-6.56597e-09
2.26392e-08
-5.03505e-05
2.86525e-06
-8.8896e-06
1.53489e-06
-6.91482e-06
6.59002e-07
-4.83937e-06
-3.96331e-07
-3.88037e-06
-1.36779e-06
-2.63785e-06
-1.99524e-06
-1.82245e-06
-2.34818e-06
-1.04704e-06
-2.41704e-06
-4.41701e-07
-2.21366e-06
-1.31142e-07
-1.76377e-06
2.50617e-07
-1.20217e-06
4.11363e-07
-7.40647e-07
5.14493e-07
-4.64328e-07
4.59077e-07
-3.67767e-07
3.49262e-07
-3.61801e-07
2.22467e-07
-3.64621e-07
1.3977e-07
-3.50817e-07
6.35047e-08
-2.96988e-07
1.72696e-08
-2.4448e-07
-8.87619e-09
-1.84835e-07
-3.47097e-08
-1.27407e-07
-3.7604e-08
-7.91224e-08
-3.27666e-08
-3.98453e-08
-2.25955e-08
-1.46565e-08
-1.23756e-08
4.87206e-10
-6.47249e-09
5.92152e-09
1.83887e-08
9.96555e-09
3.99681e-08
1.02698e-08
2.97379e-08
9.42955e-10
-9.55434e-09
7.22249e-09
-7.90725e-10
-2.00349e-08
9.77448e-09
-8.75536e-09
-6.71421e-09
-4.77395e-09
-1.06682e-08
-5.07759e-09
2.81836e-09
-3.20902e-09
-8.9447e-09
-4.28051e-09
-4.58264e-09
-2.13921e-09
2.14786e-09
-6.57779e-10
1.81437e-09
4.225e-09
2.899e-09
1.26144e-08
-8.14214e-05
-9.98977e-06
-2.38554e-05
-1.2322e-05
-1.79495e-05
-9.82251e-06
-1.23257e-05
-7.63466e-06
-7.62947e-06
-5.9452e-06
-4.67902e-06
-4.71024e-06
-2.49676e-06
-3.73715e-06
-1.15769e-06
-2.97173e-06
-3.11119e-07
-2.33958e-06
1.72525e-07
-1.77078e-06
4.04406e-07
-1.29742e-06
5.79342e-07
-9.33306e-07
5.26725e-07
-7.02268e-07
4.91505e-07
-5.68945e-07
3.52573e-07
-4.98046e-07
2.37269e-07
-4.32484e-07
1.41729e-07
-3.59151e-07
9.38427e-08
-3.1037e-07
4.21684e-08
-2.53433e-07
-7.2718e-09
-2.00951e-07
-2.51383e-08
-1.47e-07
-3.61429e-08
-9.23043e-08
-3.10449e-08
-4.77399e-08
-2.15331e-08
-1.63597e-08
-1.38356e-08
-3.51393e-09
-4.89775e-09
3.15549e-09
1.33305e-09
1.82959e-08
1.10954e-08
3.21457e-08
8.21784e-09
1.97867e-08
1.53924e-08
-1.59024e-08
-1.10449e-08
1.42357e-08
-1.90392e-08
-3.2657e-09
-4.59031e-09
-3.35963e-09
3.89106e-09
-2.60476e-09
-8.5906e-09
-2.8942e-09
9.96208e-10
-8.59698e-09
-6.92371e-09
-3.38754e-09
-1.13986e-08
1.02634e-08
-1.67885e-09
1.46914e-09
-1.12156e-08
2.42048e-08
-8.11528e-06
1.52809e-05
5.17695e-06
1.01438e-05
1.36011e-06
6.29718e-06
-7.65798e-07
3.70473e-06
-1.46826e-06
1.93732e-06
-1.86571e-06
6.55206e-07
-1.61339e-06
-2.04556e-07
-1.39208e-06
-7.90691e-07
-9.75355e-07
-1.10494e-06
-6.03024e-07
-1.18785e-06
-3.16586e-07
-1.02413e-06
3.87002e-08
-7.20309e-07
3.06004e-07
-4.4884e-07
4.5862e-07
-2.90726e-07
4.611e-07
-2.51274e-07
3.66556e-07
-2.83943e-07
2.44338e-07
-3.27316e-07
1.11571e-07
-3.15137e-07
3.04105e-08
-2.82012e-07
-6.95561e-09
-2.24564e-07
-3.56608e-08
-1.60376e-07
-3.44949e-08
-1.02895e-07
-2.77576e-08
-5.5804e-08
-1.86233e-08
-2.53411e-08
-1.0829e-08
-4.55605e-09
-9.08147e-09
1.67301e-09
-2.80741e-09
2.2639e-09
1.34316e-08
4.72004e-09
2.8449e-08
1.50158e-08
-2.56298e-09
6.82448e-09
2.69938e-09
-2.42345e-08
8.2461e-09
-8.92585e-09
-3.24749e-09
-4.00121e-09
-1.18414e-08
-5.06948e-09
1.2276e-09
-3.36429e-09
-1.10831e-08
-3.88939e-09
-2.75499e-09
-3.66727e-09
-2.18747e-09
6.46135e-10
3.9608e-09
2.91692e-09
2.4326e-09
4.97053e-09
-2.28157e-05
6.39733e-06
-5.49986e-06
3.68969e-06
-5.60615e-06
2.14648e-06
-5.06619e-06
1.03109e-06
-4.64314e-06
2.05514e-07
-3.82985e-06
-3.22207e-07
-3.21667e-06
-6.7153e-07
-2.40475e-06
-8.54553e-07
-1.83502e-06
-9.51032e-07
-1.22724e-06
-9.55019e-07
-8.42035e-07
-8.90577e-07
-4.56707e-07
-7.99895e-07
-1.86484e-07
-7.18138e-07
-7.56939e-08
-6.52978e-07
1.60496e-08
-6.00958e-07
-4.18417e-09
-5.40667e-07
-3.30561e-08
-4.44174e-07
-1.24885e-08
-3.70542e-07
-1.39755e-08
-2.96232e-07
-3.28549e-08
-2.32891e-07
-2.98836e-08
-1.7259e-07
-3.23976e-08
-1.13294e-07
-2.48162e-08
-6.39432e-08
-1.66581e-08
-2.65866e-08
-1.11745e-08
-1.01e-08
-5.93469e-09
-2.66447e-09
-7.63924e-09
-7.14812e-10
-4.10577e-09
9.85957e-09
7.24744e-09
2.21169e-08
1.77244e-08
-1.55036e-09
-1.01581e-08
1.50829e-08
-1.92712e-08
-4.49596e-10
-6.80025e-09
-1.23162e-08
1.52393e-09
-5.66266e-09
-3.02691e-09
-3.74106e-09
8.51788e-10
-8.43256e-09
-6.49423e-09
-6.54405e-09
-9.1403e-09
1.35245e-08
-5.12995e-09
-2.54343e-09
-1.42244e-05
5.71269e-06
-2.39457e-06
4.51951e-06
-2.14887e-06
3.8083e-06
-1.85166e-06
3.11439e-06
-1.78761e-06
2.42252e-06
-1.57495e-06
1.79196e-06
-1.52328e-06
1.19629e-06
-1.29983e-06
6.86862e-07
-1.18949e-06
2.43821e-07
-9.659e-07
-8.77181e-08
-7.83058e-07
-3.05593e-07
-5.83935e-07
-3.62566e-07
-3.33303e-07
-3.08176e-07
-6.26196e-08
-2.37705e-07
9.80959e-08
-2.0268e-07
1.63274e-07
-2.17641e-07
1.62579e-07
-2.77091e-07
6.73965e-08
-2.95075e-07
7.84742e-10
-2.80913e-07
-2.0924e-08
-2.31568e-07
-3.8796e-08
-1.69126e-07
-2.84013e-08
-1.11578e-07
-1.87344e-08
-6.49852e-08
-1.09228e-08
-3.55149e-08
-7.12349e-09
-1.28327e-08
-9.00933e-09
-4.55604e-09
-8.24808e-09
-5.74131e-09
-5.6508e-09
-3.43618e-09
2.56507e-08
1.3586e-08
1.39576e-08
1.57593e-08
1.60076e-08
-1.14939e-08
1.25968e-08
-9.84342e-09
-2.3313e-09
4.64578e-09
-1.73036e-08
-2.30496e-09
-3.4573e-10
6.45657e-10
-1.1171e-08
-1.61018e-09
-1.21e-09
-1.27428e-10
-2.63011e-09
-5.8733e-09
-1.24657e-05
5.83753e-06
-1.88355e-06
3.34793e-06
-2.66019e-06
2.26518e-06
-2.752e-06
1.5905e-06
-2.56318e-06
1.11143e-06
-2.37619e-06
7.32665e-07
-2.05455e-06
4.53857e-07
-1.81881e-06
2.2601e-07
-1.46326e-06
5.67191e-08
-1.2328e-06
-9.66422e-08
-9.27054e-07
-2.10922e-07
-7.56649e-07
-3.02134e-07
-5.13331e-07
-3.71152e-07
-3.51866e-07
-4.30096e-07
-2.57023e-07
-4.66099e-07
-1.63838e-07
-4.65403e-07
-1.64322e-07
-4.05094e-07
-9.89739e-08
-3.34944e-07
-5.12756e-08
-2.60137e-07
-3.71987e-08
-2.01519e-07
-1.52837e-08
-1.52614e-07
-1.4361e-08
-1.07026e-07
-1.03036e-08
-6.76703e-08
-7.92816e-09
-3.39328e-08
-6.35503e-09
-1.7704e-08
-4.86218e-09
-8.28789e-09
-9.99918e-09
-4.377e-09
-9.68848e-09
7.07753e-09
3.19472e-09
2.20085e-08
2.54586e-08
9.32593e-09
1.99576e-08
2.05656e-08
-5.82967e-10
8.1293e-09
5.65608e-09
-1.36488e-08
4.36726e-09
-5.88498e-09
-1.96583e-09
-5.83713e-09
3.58805e-09
-1.37261e-08
-7.87124e-09
-1.1484e-08
-3.59851e-06
6.20838e-06
1.60482e-06
4.10498e-06
5.7356e-07
3.05165e-06
1.31626e-07
2.4001e-06
-8.16539e-08
1.9307e-06
-2.29678e-07
1.5533e-06
-2.93587e-07
1.22868e-06
-3.79987e-07
9.30581e-07
-3.92297e-07
6.58771e-07
-4.34638e-07
4.05795e-07
-4.24444e-07
1.91824e-07
-4.08381e-07
2.53343e-08
-3.6227e-07
-6.04394e-08
-2.54997e-07
-7.95414e-08
-8.77345e-08
-7.26678e-08
1.55565e-08
-7.86809e-08
1.10944e-07
-1.22105e-07
8.60271e-08
-1.58703e-07
3.68343e-08
-1.77665e-07
1.54414e-08
-1.61896e-07
-9.75439e-09
-1.26899e-07
-5.37754e-09
-8.89733e-08
-1.31338e-09
-5.67013e-08
1.60671e-09
-3.69271e-08
-7.65455e-11
-1.8021e-08
-4.50162e-09
-8.77531e-09
-5.84586e-09
-5.1633e-09
-8.30857e-09
-2.70224e-09
9.66009e-09
7.63939e-09
-4.97581e-09
3.80062e-08
8.72371e-09
2.94656e-08
1.04052e-08
5.12883e-09
-2.40654e-09
1.56302e-08
-2.47984e-08
-6.95228e-09
-9.38506e-10
8.06859e-10
-1.94666e-08
-6.48861e-06
2.18309e-06
-1.46219e-06
1.49258e-06
-1.43733e-06
1.14408e-06
-1.36829e-06
8.79489e-07
-1.29528e-06
6.74678e-07
-1.17094e-06
5.21754e-07
-1.0592e-06
3.94464e-07
-9.19317e-07
2.9596e-07
-8.15459e-07
2.10516e-07
-6.6692e-07
1.42636e-07
-5.75737e-07
7.27857e-08
-4.39583e-07
1.11883e-08
-3.77934e-07
-5.42191e-08
-2.61023e-07
-1.1848e-07
-1.94172e-07
-1.84598e-07
-1.4654e-07
-2.22482e-07
-1.21393e-07
-2.06696e-07
-7.03276e-08
-1.75242e-07
-1.8365e-08
-1.30471e-07
3.09639e-09
-1.00775e-07
2.69289e-08
-8.16777e-08
2.15435e-08
-6.57671e-08
1.55936e-08
-4.86099e-08
8.62293e-09
-2.77321e-08
6.64473e-09
-1.48398e-08
6.05283e-09
-4.54912e-09
-4.98143e-10
-1.86354e-09
-4.02753e-09
1.95218e-09
-1.02978e-08
-1.48714e-08
2.13699e-08
-1.38323e-08
4.8561e-08
-1.61151e-08
1.34482e-08
3.71615e-09
1.98004e-08
-2.25536e-08
-2.80431e-06
2.68772e-06
1.64633e-07
2.12251e-06
1.58296e-07
1.81934e-06
1.7263e-07
1.57292e-06
1.55199e-07
1.35985e-06
1.47997e-07
1.16737e-06
1.12714e-07
9.82484e-07
6.87861e-08
8.09245e-07
1.0944e-08
6.49714e-07
-2.50314e-08
5.07038e-07
-6.48898e-08
3.78734e-07
-8.26053e-08
2.68946e-07
-8.8654e-08
1.78259e-07
-8.90286e-08
1.25733e-07
-4.95826e-08
1.16605e-07
4.40192e-08
1.13352e-07
1.31616e-07
7.43777e-08
1.39979e-07
2.85176e-08
1.09681e-07
-2.10146e-08
7.90228e-08
-4.40328e-08
4.01563e-08
-4.49632e-08
3.31588e-08
-3.24613e-08
3.00748e-08
-1.93457e-08
2.87234e-08
-1.12202e-08
2.35801e-08
-4.64668e-10
1.70583e-08
1.82314e-09
1.12036e-08
4.14007e-09
4.10312e-09
-6.85637e-09
-5.26275e-09
-4.85992e-09
-2.17821e-08
3.31645e-08
-2.89415e-08
-6.08461e-06
1.43215e-06
-1.45548e-06
7.45574e-07
-1.50744e-06
4.78397e-07
-1.39597e-06
3.12296e-07
-1.26793e-06
2.02214e-07
-1.12566e-06
1.38896e-07
-9.65153e-07
1.16983e-07
-8.04817e-07
1.21028e-07
-6.30454e-07
1.43667e-07
-4.8562e-07
1.6838e-07
-3.30276e-07
1.92301e-07
-2.30656e-07
1.99945e-07
-1.14425e-07
1.93355e-07
-7.03594e-08
1.59129e-07
-3.40183e-09
9.89068e-08
8.80536e-09
3.1089e-08
-2.66279e-08
2.40128e-09
7.60952e-09
1.75974e-09
3.42326e-08
1.97836e-08
5.9494e-08
2.55263e-08
8.78709e-08
3.00681e-08
8.31223e-08
2.40795e-08
6.65898e-08
1.05524e-08
4.56112e-08
7.98034e-09
3.41223e-08
6.49762e-09
2.23541e-08
8.94604e-09
1.29955e-08
6.01601e-09
-1.42432e-06
2.1898e-06
8.12802e-07
1.38699e-06
4.87359e-07
1.05383e-06
3.89631e-07
8.88051e-07
3.33788e-07
7.91281e-07
3.08609e-07
7.3255e-07
2.7619e-07
6.8514e-07
2.5028e-07
6.42319e-07
2.07749e-07
5.95594e-07
1.67936e-07
5.49104e-07
1.36512e-07
4.97246e-07
1.02137e-07
4.42246e-07
7.95301e-08
3.81784e-07
6.09637e-08
3.17734e-07
3.65631e-08
2.67618e-07
3.54917e-08
2.32353e-07
9.08637e-08
1.96114e-07
9.72149e-08
1.48173e-07
1.05344e-07
9.69253e-08
7.43881e-08
7.39847e-08
5.88151e-08
5.47552e-08
)
;

boundaryField
{
    inlet
    {
        type            extrapolatedCalculated;
        value           nonuniform List<scalar> 
13
(
1.37681e-08
6.66149e-09
6.4621e-09
5.87857e-09
5.06531e-09
4.65745e-09
3.42613e-09
5.40527e-09
7.32883e-09
2.26392e-08
1.26144e-08
2.42048e-08
4.97053e-09
)
;
    }
    outlet
    {
        type            extrapolatedCalculated;
        value           nonuniform List<scalar> 0();
    }
    walls
    {
        type            extrapolatedCalculated;
        value           nonuniform List<scalar> 4(-5.00855e-07 -1.3954e-05 -9.83486e-06 -1.06593e-05);
    }
    frontAndBack
    {
        type            empty;
    }
    procBoundary2to1
    {
        type            processor;
        value           nonuniform List<scalar> 
84
(
-2.55612e-06
-2.47584e-06
-2.04021e-06
-2.46668e-06
-1.67441e-06
-2.18493e-06
-1.11428e-06
-1.94043e-06
-8.48295e-07
-1.81726e-06
-5.09757e-07
-1.75205e-06
-4.0672e-07
-1.7531e-06
-1.98189e-07
-1.84034e-06
4.5417e-08
-1.96447e-06
5.81993e-10
-2.01052e-06
1.32764e-07
-1.83715e-06
2.29107e-07
-1.61193e-06
1.99869e-07
-1.27321e-06
2.50054e-07
-9.99172e-07
2.06912e-07
-7.54784e-07
1.52371e-07
-5.81919e-07
7.71655e-08
-4.02352e-07
4.66778e-08
-3.43024e-07
1.16335e-07
-5.01061e-07
-5.01061e-07
-1.2563e-07
-1.66462e-07
-7.48431e-08
-9.68955e-08
-4.29066e-08
-5.50657e-08
-4.26521e-08
-3.80852e-08
-2.03845e-08
-2.10701e-08
-9.06804e-09
4.83568e-09
2.46085e-08
-3.63155e-08
-3.63155e-08
-7.1387e-08
6.14029e-08
-7.23681e-08
7.30084e-08
-6.61793e-08
6.04244e-08
-3.82225e-08
4.43227e-08
-1.93457e-08
-1.93457e-08
-3.55798e-08
4.45041e-08
-2.2313e-08
3.72757e-08
-1.249e-08
3.59689e-08
-1.16954e-08
2.45451e-08
-6.09262e-10
1.83093e-08
1.83093e-08
1.89921e-08
-1.44254e-08
1.25791e-08
-2.58561e-09
1.07776e-08
2.40484e-09
1.12734e-08
8.05088e-09
8.55017e-09
)
;
    }
    procBoundary2to3
    {
        type            processor;
        value           nonuniform List<scalar> 
88
(
-9.94321e-09
3.29877e-08
5.16798e-09
-9.94321e-09
6.82079e-09
-1.03596e-08
5.16798e-09
1.60294e-08
-6.77687e-09
-6.25302e-09
-1.03596e-08
1.4886e-09
4.00131e-09
-7.1744e-09
-5.06561e-09
-1.06883e-08
-6.77687e-09
8.53879e-10
6.58489e-08
8.43183e-09
2.2878e-08
-3.55414e-09
4.00131e-09
2.23615e-08
5.99119e-09
1.86937e-08
-2.01642e-08
-8.74684e-09
-4.12873e-10
-1.3108e-08
6.58489e-08
3.08372e-08
1.31904e-07
3.27544e-08
4.11256e-08
9.01188e-09
3.02382e-08
-3.85549e-09
2.36744e-08
-6.96639e-09
2.09228e-08
-1.06596e-08
2.34884e-08
5.99119e-09
-1.63762e-08
6.98498e-07
-2.19155e-06
5.21325e-07
-2.13243e-06
4.62701e-07
-2.02298e-06
3.91704e-07
-1.88462e-06
3.16669e-07
-1.73592e-06
2.43005e-07
-1.5789e-06
1.80782e-07
-1.40726e-06
1.32479e-07
-1.24024e-06
1.00842e-07
-1.05763e-06
8.47818e-08
-8.96009e-07
8.07545e-08
-7.17966e-07
8.49178e-08
-5.8298e-07
8.97885e-08
-4.29658e-07
9.07435e-08
-3.38381e-07
7.80336e-08
-2.28494e-07
4.41452e-08
-1.84453e-07
-4.9825e-10
-1.63681e-07
-2.67056e-08
-1.20372e-07
-4.64255e-08
-9.58193e-08
-5.39051e-08
-8.06166e-08
-5.285e-08
1.31904e-07
-4.84167e-08
)
;
    }
    procBoundary2to6
    {
        type            processor;
        value           nonuniform List<scalar> 
13
(
0.000150283
6.68043e-05
1.62448e-05
-1.61039e-05
2.40261e-05
2.03248e-05
1.4763e-05
1.10079e-05
1.26829e-05
7.03546e-06
7.38291e-06
2.34601e-06
5.33859e-06
)
;
    }
}


// ************************************************************************* //
