/*--------------------------------*- C++ -*----------------------------------*\
| =========                 |                                                 |
| \\      /  F ield         | OpenFOAM: The Open Source CFD Toolbox           |
|  \\    /   O peration     | Version:  2506                                  |
|   \\  /    A nd           | Website:  www.openfoam.com                      |
|    \\/     M anipulation  |                                                 |
\*---------------------------------------------------------------------------*/
FoamFile
{
    version     2.0;
    format      ascii;
    arch        "LSB;label=32;scalar=64";
    class       volVectorField;
    location    "450";
    object      momentError;
}
// * * * * * * * * * * * * * * * * * * * * * * * * * * * * * * * * * * * * * //

dimensions      [0 1 -2 0 0 0 0];

internalField   nonuniform List<vector> 
1340
(
(5.95729e-05 -2.19884e-07 1.26144e-15)
(0.000125381 -6.92786e-06 -2.16467e-15)
(0.000300943 -0.00013327 -1.10575e-14)
(0.00213942 -0.00125671 -2.14939e-14)
(0.000103992 6.06474e-07 -1.55111e-15)
(0.000173885 2.64161e-06 -6.65813e-17)
(0.000351515 1.72359e-05 3.77994e-15)
(0.00153436 0.00021285 9.20406e-15)
(0.000110888 -7.6209e-05 3.78337e-17)
(0.000235409 -2.92931e-05 1.44771e-14)
(0.00025528 -1.27143e-05 8.75013e-15)
(0.00121762 0.000234562 -1.03382e-13)
(-0.000410357 -0.00181091 7.59218e-15)
(-1.43453e-06 -0.000255511 -1.28909e-14)
(0.000374804 0.000686223 -2.99124e-14)
(0.00113048 0.000191726 -1.0866e-16)
(0.000169149 0.00262116 -6.88096e-16)
(0.00021335 0.000280347 1.03203e-14)
(0.000375648 -0.000744024 -1.0869e-14)
(0.000957147 0.000286112 5.48364e-15)
(0.000405077 -0.000884977 -1.19133e-14)
(0.00013604 1.10094e-05 3.46404e-15)
(0.000166476 0.000164801 4.41783e-14)
(0.00129464 -0.000471219 3.1055e-14)
(0.000111969 0.000105297 7.24372e-15)
(8.96275e-05 -5.18447e-07 -1.54303e-15)
(0.000212547 -4.78042e-05 -2.47425e-15)
(0.000692353 0.000421713 -4.22935e-14)
(7.82179e-05 -1.50336e-07 -3.4232e-15)
(0.000127816 -2.18983e-05 -6.46716e-15)
(0.000231948 5.79017e-05 3.78678e-15)
(0.000302078 0.000598915 -2.25906e-14)
(8.12154e-05 1.36376e-05 -1.09981e-15)
(0.000128977 6.17794e-06 8.89002e-16)
(0.000252694 3.18206e-05 -8.14326e-15)
(0.000652697 0.000196271 7.93274e-15)
(8.01526e-05 1.25607e-05 -4.81406e-16)
(0.000128122 4.99113e-06 -2.28725e-14)
(0.000244967 4.41437e-05 6.30249e-16)
(0.000530611 0.000243225 1.68674e-14)
(8.06613e-05 1.241e-05 2.33572e-15)
(0.000127811 8.44465e-06 2.05435e-14)
(0.000238748 4.66451e-05 7.8745e-15)
(0.000478287 0.000231932 -7.15153e-14)
(8.08138e-05 1.32269e-05 7.27911e-15)
(0.000126543 1.10895e-05 -4.67787e-15)
(0.000228822 5.30771e-05 -2.28054e-14)
(0.000417989 0.000236593 4.09798e-14)
(8.08727e-05 1.3886e-05 -1.25874e-14)
(0.000124943 1.4378e-05 4.02365e-15)
(0.000218002 5.85926e-05 2.53904e-14)
(0.000364261 0.000237295 6.16966e-14)
(8.06723e-05 1.47731e-05 7.45358e-16)
(0.0001226 1.76616e-05 2.6238e-15)
(0.000205875 6.43584e-05 -1.32532e-14)
(0.000315022 0.000237268 -6.36311e-15)
(8.02926e-05 1.59107e-05 7.28471e-16)
(0.000119919 2.12368e-05 -6.64007e-15)
(0.000193201 6.98351e-05 -2.43985e-14)
(0.000270707 0.000235033 -2.48137e-14)
(7.95864e-05 1.70775e-05 -1.03634e-15)
(0.000116481 2.47742e-05 4.81784e-16)
(0.000179829 7.48847e-05 1.92373e-14)
(0.000231047 0.000231048 4.77232e-14)
(7.86502e-05 1.86202e-05 3.09241e-15)
(0.000112739 2.84408e-05 -4.24571e-15)
(0.000166371 7.93292e-05 1.71493e-14)
(0.000195876 0.000225171 -1.92929e-14)
(7.73221e-05 2.01008e-05 1.59435e-15)
(0.000108306 3.19609e-05 7.50061e-15)
(0.00015267 8.30935e-05 3.81844e-15)
(0.000164823 0.000218015 -9.95272e-15)
(7.57465e-05 2.1642e-05 5.65206e-15)
(0.000103638 3.54157e-05 1.59035e-14)
(0.000139235 8.61094e-05 -1.01179e-14)
(0.000137665 0.000209335 -3.12922e-14)
(7.37741e-05 2.31238e-05 -9.50882e-15)
(9.83431e-05 3.86706e-05 -1.78575e-14)
(0.000125934 8.8443e-05 -1.3247e-14)
(0.000114065 0.000199843 1.15003e-14)
(7.15032e-05 2.49256e-05 5.55265e-15)
(9.28476e-05 4.19809e-05 4.16688e-15)
(0.000113177 8.99306e-05 1.99644e-14)
(9.36847e-05 0.000189399 1.62226e-14)
(6.87629e-05 2.67355e-05 -2.00696e-15)
(8.68923e-05 4.50518e-05 2.88752e-15)
(0.000100912 9.0744e-05 -5.29573e-15)
(7.61627e-05 0.00017882 -1.26031e-14)
(6.57768e-05 2.85373e-05 -7.54484e-18)
(8.09265e-05 4.76341e-05 -3.65812e-15)
(8.93567e-05 9.08193e-05 -1.08326e-14)
(6.11554e-05 0.000167914 -2.18459e-15)
(6.24264e-05 3.02641e-05 1.01937e-16)
(7.46447e-05 4.98722e-05 1.74195e-15)
(7.84416e-05 9.04024e-05 1.4781e-14)
(4.84754e-05 0.000157191 1.78732e-14)
(5.88865e-05 3.1865e-05 2.43617e-15)
(6.84386e-05 5.17321e-05 -5.36335e-15)
(6.83655e-05 8.91776e-05 -4.54198e-15)
(3.77458e-05 0.000146398 -1.11228e-14)
(5.50362e-05 3.34181e-05 -9.86163e-17)
(6.20831e-05 5.32021e-05 8.99569e-15)
(5.90839e-05 8.74808e-05 -1.18244e-14)
(2.88168e-05 0.000136046 -1.96159e-14)
(5.10713e-05 3.47266e-05 4.49176e-15)
(5.60147e-05 5.39314e-05 -1.1997e-14)
(5.06877e-05 8.50331e-05 -2.3178e-15)
(2.13395e-05 0.000125932 2.12686e-14)
(4.69654e-05 3.5831e-05 -8.96026e-15)
(4.99865e-05 5.42242e-05 2.83528e-15)
(4.30612e-05 8.22217e-05 1.39006e-15)
(1.52579e-05 0.000116297 -9.70507e-15)
(4.28793e-05 3.65025e-05 7.56004e-15)
(4.43581e-05 5.37803e-05 -1.63751e-16)
(3.6322e-05 7.87291e-05 7.08261e-15)
(1.02681e-05 0.000106933 1.40641e-14)
(3.88179e-05 3.69329e-05 -8.13955e-15)
(3.89093e-05 5.29412e-05 6.89113e-15)
(3.02992e-05 7.49995e-05 2.02215e-15)
(6.31597e-06 9.80832e-05 4.63227e-16)
(3.48815e-05 3.69524e-05 -1.75599e-15)
(3.3943e-05 5.15245e-05 2.6643e-15)
(2.51089e-05 7.07757e-05 1.1059e-15)
(3.15058e-06 8.9604e-05 -9.27279e-15)
(3.11344e-05 3.67646e-05 7.90577e-15)
(2.92574e-05 4.98251e-05 -1.50046e-15)
(2.05466e-05 6.64674e-05 -3.67959e-15)
(7.06233e-07 8.17275e-05 -1.35902e-14)
(2.76055e-05 3.61574e-05 1.32755e-15)
(2.512e-05 4.76807e-05 -1.19626e-16)
(1.67105e-05 6.19359e-05 1.74055e-15)
(-1.20989e-06 7.42746e-05 8.45881e-15)
(2.43364e-05 3.54162e-05 -6.34253e-15)
(2.12988e-05 4.53683e-05 -3.6223e-15)
(1.33434e-05 5.75429e-05 -1.62712e-15)
(-2.64254e-06 6.74475e-05 9.13748e-15)
(2.13086e-05 3.44216e-05 4.02122e-15)
(1.8015e-05 4.28497e-05 4.77809e-15)
(1.05772e-05 5.31355e-05 3.64605e-15)
(-3.72659e-06 6.10797e-05 -8.00827e-15)
(1.8585e-05 3.32967e-05 -2.96916e-15)
(1.50465e-05 4.0394e-05 -3.8735e-15)
(8.16164e-06 4.89478e-05 -2.11707e-15)
(-4.50391e-06 5.533e-05 1.06789e-14)
(1.60738e-05 3.21145e-05 -1.86155e-15)
(1.25878e-05 3.77568e-05 2.9658e-15)
(6.25802e-06 4.49061e-05 1.36687e-15)
(-5.06488e-06 4.99976e-05 -3.06838e-15)
(1.39988e-05 3.04252e-05 -7.37775e-16)
(1.04968e-05 3.51583e-05 -3.03734e-15)
(4.54809e-06 4.12034e-05 3.6698e-15)
(-5.41986e-06 4.52127e-05 -2.85048e-15)
(1.36837e-05 2.45344e-05 4.84957e-15)
(1.19431e-05 2.81034e-05 -2.38795e-16)
(9.30622e-06 3.34936e-05 2.1246e-15)
(2.87809e-06 3.73359e-05 -1.46879e-15)
(-5.56641e-06 4.08757e-05 -8.22411e-15)
(1.21098e-05 2.33424e-05 -6.37952e-15)
(1.01951e-05 2.65824e-05 1.84021e-15)
(7.52401e-06 3.09969e-05 1.71775e-15)
(1.7648e-06 3.40976e-05 -1.14235e-14)
(-5.66262e-06 3.69545e-05 1.80476e-15)
(1.06436e-05 2.21084e-05 1.45759e-15)
(8.6614e-06 2.49462e-05 -3.21838e-16)
(6.13594e-06 2.86471e-05 -8.76087e-16)
(9.28907e-07 3.10222e-05 1.00865e-14)
(-5.63943e-06 3.33459e-05 6.41116e-15)
(9.33906e-06 2.09241e-05 8.91732e-16)
(7.25334e-06 2.33787e-05 -6.22658e-16)
(4.87836e-06 2.64366e-05 -2.18186e-15)
(2.3396e-07 2.8244e-05 -7.18805e-17)
(-5.5451e-06 3.01318e-05 1.13481e-16)
(8.13407e-06 1.96928e-05 -3.52009e-15)
(6.12211e-06 2.17796e-05 -3.48853e-15)
(3.92956e-06 2.42952e-05 -3.82654e-15)
(-2.52358e-07 2.56365e-05 -2.07593e-15)
(-5.36748e-06 2.71682e-05 -2.49766e-15)
(7.10111e-06 1.8451e-05 -1.43803e-15)
(5.10081e-06 2.02006e-05 -4.17669e-16)
(3.06278e-06 2.23285e-05 3.37717e-15)
(-6.54701e-07 2.32808e-05 1.12256e-15)
(-5.15446e-06 2.45385e-05 -6.51175e-15)
(6.15709e-06 1.7194e-05 -4.27821e-15)
(4.27547e-06 1.86879e-05 3.39654e-15)
(2.43324e-06 2.04246e-05 1.8734e-15)
(-8.85571e-07 2.10838e-05 -1.79875e-15)
(-4.88199e-06 2.21196e-05 3.29874e-15)
(5.35386e-06 1.59473e-05 1.24486e-15)
(3.54898e-06 1.72221e-05 -1.67453e-15)
(1.86931e-06 1.86609e-05 -5.73275e-16)
(-1.09099e-06 1.91097e-05 2.40966e-15)
(-4.60863e-06 1.99837e-05 5.67522e-15)
(4.62633e-06 1.4742e-05 1.78144e-15)
(2.96042e-06 1.57877e-05 -1.43829e-15)
(1.47123e-06 1.70124e-05 -2.47509e-15)
(-1.16865e-06 1.72895e-05 -1.56042e-16)
(-4.29403e-06 1.80335e-05 -4.64045e-15)
(4.0315e-06 1.35924e-05 -5.82938e-16)
(2.45511e-06 1.44274e-05 8.81663e-17)
(1.09736e-06 1.55296e-05 3.19968e-15)
(-1.25336e-06 1.56621e-05 -1.99211e-15)
(-4.00539e-06 1.63191e-05 1.26535e-15)
(3.49069e-06 1.25356e-05 -2.2906e-15)
(2.02147e-06 1.32157e-05 1.52021e-16)
(8.26462e-07 1.41588e-05 3.73117e-15)
(-1.23529e-06 1.41772e-05 -3.22274e-15)
(-3.67986e-06 1.47545e-05 -2.51726e-15)
(3.02994e-06 1.15601e-05 1.71922e-15)
(1.68099e-06 1.20913e-05 4.62768e-16)
(6.09221e-07 1.29189e-05 7.62262e-16)
(-1.24253e-06 1.28512e-05 6.05316e-16)
(-3.3973e-06 1.33696e-05 -9.63449e-16)
(2.65282e-06 1.07074e-05 8.71182e-16)
(1.39738e-06 1.10358e-05 -2.2804e-15)
(4.57188e-07 1.1779e-05 -1.95364e-15)
(-1.16547e-06 1.16391e-05 1.88924e-15)
(-3.06904e-06 1.2111e-05 4.57287e-15)
(2.39089e-06 9.75927e-06 -1.12014e-15)
(1.28375e-06 1.01774e-05 3.02928e-15)
(3.26062e-07 1.06686e-05 9.01214e-17)
(-1.11564e-06 1.05564e-05 -2.19517e-15)
(-2.80071e-06 1.09897e-05 2.81491e-15)
(3.22408e-06 8.72466e-06 -2.12018e-15)
(2.10159e-06 8.86785e-06 3.54611e-16)
(1.3642e-06 9.75706e-06 1.34317e-15)
(9.11118e-08 9.48355e-06 1.38528e-16)
(-9.99436e-07 9.59558e-06 -3.53598e-15)
(-2.48635e-06 9.9756e-06 -3.18206e-15)
(2.94198e-06 7.98006e-06 1.27129e-15)
(1.93721e-06 8.09567e-06 2.98484e-15)
(1.31178e-06 8.88857e-06 6.32692e-17)
(4.23381e-08 8.60127e-06 -3.07456e-15)
(-9.27791e-07 8.71927e-06 9.1598e-16)
(-2.30983e-06 9.11667e-06 -2.43814e-15)
(2.75253e-06 7.245e-06 -1.76698e-15)
(1.7537e-06 7.36096e-06 -2.28282e-15)
(1.0946e-06 8.05259e-06 1.03148e-15)
(3.3047e-08 7.79584e-06 1.47179e-15)
(-8.93128e-07 7.91357e-06 -1.4304e-15)
(-2.06117e-06 8.33073e-06 2.62983e-16)
(2.4008e-06 6.53182e-06 7.03657e-16)
(1.59611e-06 6.64848e-06 -2.93924e-16)
(1.10365e-06 7.2528e-06 6.38971e-17)
(-1.09675e-08 7.06023e-06 -1.11179e-16)
(-8.51676e-07 7.17827e-06 1.74727e-15)
(-1.96003e-06 7.58246e-06 5.85363e-16)
(2.23336e-06 5.86347e-06 1.16527e-15)
(1.45764e-06 5.97e-06 6.73153e-16)
(8.59376e-07 6.58015e-06 -2.22892e-15)
(-7.36268e-08 6.41989e-06 -1.42325e-15)
(-8.42066e-07 6.51783e-06 -1.08054e-15)
(-1.77733e-06 6.90525e-06 2.50071e-16)
(1.87936e-06 5.27305e-06 -1.37791e-15)
(1.1979e-06 5.46215e-06 -1.88535e-15)
(7.82338e-07 5.98856e-06 -1.11305e-15)
(-1.04589e-07 5.86892e-06 2.91325e-15)
(-7.87488e-07 5.92574e-06 3.96772e-16)
(-1.67197e-06 6.23231e-06 2.95014e-16)
(1.60444e-06 4.76066e-06 -1.68283e-16)
(1.00709e-06 4.91859e-06 1.19804e-15)
(5.54903e-07 5.4514e-06 -6.80397e-16)
(-1.53432e-07 5.33787e-06 -5.54735e-16)
(-6.99392e-07 5.35248e-06 3.39658e-15)
(-1.45867e-06 5.6348e-06 -1.36974e-15)
(1.24144e-06 4.26057e-06 1.84824e-15)
(6.99256e-07 4.45531e-06 1.39735e-15)
(4.47351e-07 4.89714e-06 -2.44651e-15)
(-8.65487e-08 4.77166e-06 7.58291e-16)
(-5.82413e-07 4.79179e-06 -9.80929e-16)
(-1.31418e-06 5.05737e-06 1.06873e-15)
(9.45635e-07 3.79605e-06 -1.24001e-15)
(5.70611e-07 3.98409e-06 7.98676e-16)
(3.64811e-07 4.28215e-06 1.74161e-15)
(-8.97135e-08 4.21468e-06 -2.73668e-15)
(-5.18631e-07 4.28334e-06 1.4161e-15)
(-1.1573e-06 4.56032e-06 2.64388e-15)
(1.12545e-06 3.25694e-06 -4.96601e-16)
(7.10094e-07 3.36206e-06 4.34849e-16)
(5.473e-07 3.7617e-06 3.70477e-16)
(2.04459e-07 3.68911e-06 -1.01377e-15)
(-9.02768e-08 3.78193e-06 1.37261e-16)
(-4.94587e-07 3.83699e-06 1.55232e-15)
(-1.10741e-06 4.16571e-06 5.7121e-17)
(8.57645e-07 2.96578e-06 1.46591e-15)
(5.34095e-07 3.04544e-06 1.99525e-15)
(4.8255e-07 3.39306e-06 -1.83373e-15)
(1.21851e-07 3.33731e-06 -1.12616e-16)
(-1.58267e-07 3.41939e-06 -6.98136e-16)
(-5.32183e-07 3.51219e-06 -7.65333e-16)
(-1.02119e-06 3.79572e-06 2.45351e-15)
(7.10645e-07 2.69167e-06 -1.30464e-16)
(4.24434e-07 2.74308e-06 -1.01755e-15)
(3.01584e-07 3.08551e-06 -1.21596e-15)
(2.35494e-08 3.02985e-06 2.62866e-15)
(-2.24594e-07 3.12157e-06 1.13563e-15)
(-5.17244e-07 3.17898e-06 -3.14486e-15)
(-9.44913e-07 3.44014e-06 -2.3137e-15)
(5.13324e-07 2.42764e-06 6.42586e-16)
(2.60032e-07 2.47431e-06 -7.64171e-16)
(2.22509e-07 2.79381e-06 2.20354e-16)
(-6.686e-08 2.73584e-06 5.32786e-16)
(-2.58893e-07 2.80877e-06 -1.092e-15)
(-4.95692e-07 2.85763e-06 -2.18636e-15)
(-8.55289e-07 3.08853e-06 2.5219e-15)
(4.26044e-07 2.21276e-06 2.81697e-15)
(1.61373e-07 2.21422e-06 5.83733e-17)
(7.10928e-08 2.53449e-06 -1.85313e-15)
(-1.32392e-07 2.45006e-06 1.48385e-16)
(-2.78878e-07 2.50126e-06 1.29665e-15)
(-4.53745e-07 2.53466e-06 5.96326e-16)
(-7.52259e-07 2.73697e-06 -4.78346e-16)
(3.05683e-07 2.0272e-06 -3.40414e-16)
(5.6011e-08 2.01515e-06 3.26187e-16)
(3.8237e-08 2.27411e-06 -5.0115e-16)
(-1.56899e-07 2.15789e-06 -7.19069e-16)
(-2.54528e-07 2.1892e-06 4.86221e-16)
(-3.99966e-07 2.212e-06 -1.13231e-15)
(-6.68303e-07 2.39164e-06 1.82911e-16)
(2.92181e-07 1.8801e-06 1.68646e-15)
(6.13817e-08 1.8302e-06 8.08909e-16)
(1.69167e-08 2.08997e-06 2.24121e-16)
(-1.31523e-07 1.9382e-06 6.99874e-16)
(-2.35227e-07 1.95928e-06 -5.75985e-17)
(-3.61593e-07 1.96896e-06 8.10116e-16)
(-5.9439e-07 2.11591e-06 -3.77382e-17)
(2.59615e-07 1.7519e-06 7.4927e-16)
(5.8283e-08 1.72578e-06 1.82417e-15)
(5.6272e-08 1.94681e-06 -5.75335e-16)
(-1.11021e-07 1.79799e-06 -1.08864e-15)
(-2.04053e-07 1.8044e-06 6.13588e-16)
(-3.3315e-07 1.82648e-06 4.74139e-16)
(-5.45603e-07 1.95406e-06 4.45047e-16)
(2.40703e-07 1.64207e-06 8.21052e-16)
(6.70613e-08 1.60469e-06 -8.55036e-16)
(5.00492e-08 1.82067e-06 -4.58445e-16)
(-8.22981e-08 1.68409e-06 7.71337e-16)
(-1.79549e-07 1.6809e-06 1.90994e-15)
(-2.9839e-07 1.70784e-06 -8.10399e-16)
(-4.8938e-07 1.8266e-06 -2.539e-15)
(1.98492e-07 1.52403e-06 -1.06435e-17)
(6.86145e-08 1.52556e-06 -5.17742e-16)
(6.39136e-08 1.64536e-06 1.24854e-17)
(-6.07705e-08 1.54591e-06 7.25977e-16)
(-1.40385e-07 1.53587e-06 -1.38605e-16)
(-2.47874e-07 1.55412e-06 -4.51168e-16)
(-4.29241e-07 1.68032e-06 6.02238e-16)
(2.36295e-07 1.27773e-06 -1.4422e-15)
(1.40592e-07 1.28352e-06 -8.67092e-16)
(1.83058e-07 1.48067e-06 -5.64573e-17)
(3.60974e-08 1.3788e-06 4.67228e-16)
(-2.47396e-08 1.37011e-06 4.405e-16)
(-1.03783e-07 1.35223e-06 1.30018e-15)
(-1.96114e-07 1.37089e-06 -6.24634e-16)
(-3.65842e-07 1.48786e-06 -1.53133e-15)
(2.07258e-07 1.06404e-06 1.55501e-16)
(1.30464e-07 1.05537e-06 -3.97706e-17)
(1.35124e-07 1.24551e-06 -5.04324e-16)
(4.26588e-08 1.16479e-06 1.23246e-15)
(-8.22211e-09 1.16785e-06 3.81676e-16)
(-7.18149e-08 1.15771e-06 -1.26855e-15)
(-1.4793e-07 1.17894e-06 -6.36904e-16)
(-2.94411e-07 1.27316e-06 3.24235e-16)
(1.45048e-07 8.70994e-07 -9.35341e-16)
(8.48182e-08 8.77389e-07 4.77442e-18)
(1.23919e-07 1.03982e-06 3.80576e-16)
(3.07182e-08 9.71906e-07 -1.37287e-15)
(-4.41071e-09 9.80769e-07 2.70998e-15)
(-5.28121e-08 9.78227e-07 -3.04028e-16)
(-1.09306e-07 1.00444e-06 -1.15037e-15)
(-2.22614e-07 1.08605e-06 1.03809e-15)
(1.40771e-07 7.48922e-07 5.25165e-17)
(6.06299e-08 7.2816e-07 5.93261e-16)
(7.96495e-08 9.03146e-07 7.44865e-16)
(1.57376e-08 8.19954e-07 -1.08847e-15)
(-1.13656e-08 8.31019e-07 1.20605e-15)
(-4.72044e-08 8.31719e-07 -6.3508e-16)
(-8.59748e-08 8.62156e-07 -1.47679e-15)
(-1.66475e-07 9.33534e-07 1.68978e-15)
(1.21722e-07 6.67897e-07 1.74299e-16)
(5.32248e-08 6.55504e-07 6.63973e-16)
(7.77665e-08 8.10475e-07 1.31546e-15)
(-2.20356e-11 7.25586e-07 -2.56969e-17)
(-2.23738e-08 7.3395e-07 -1.89747e-15)
(-4.91038e-08 7.35197e-07 5.56121e-16)
(-6.99001e-08 7.67751e-07 -5.48047e-16)
(-1.2414e-07 8.24422e-07 -3.61696e-16)
(1.24123e-07 6.41441e-07 -6.26371e-16)
(3.6847e-08 6.25984e-07 -9.79124e-16)
(3.36619e-08 7.65863e-07 3.07386e-16)
(-1.01099e-08 6.79649e-07 1.49009e-15)
(-2.9119e-08 6.82322e-07 2.82959e-16)
(-4.79192e-08 6.79155e-07 -5.88839e-16)
(-5.95162e-08 7.06287e-07 1.33251e-16)
(-9.81006e-08 7.51699e-07 8.4434e-16)
(9.73918e-08 6.53342e-07 1.59278e-15)
(3.81709e-08 6.50107e-07 4.65309e-16)
(4.70165e-08 7.90076e-07 -1.30971e-15)
(-7.43314e-09 7.07958e-07 1.39634e-16)
(-2.23734e-08 7.12612e-07 -9.35911e-16)
(-3.54372e-08 7.11881e-07 -3.36779e-16)
(-3.30312e-08 7.37908e-07 1.7406e-15)
(-4.49656e-08 7.78568e-07 -1.12693e-16)
(7.72426e-08 7.05147e-07 -1.05418e-15)
(-5.26659e-09 6.88046e-07 -4.73446e-16)
(-1.49665e-08 8.28692e-07 1.0052e-15)
(-2.09753e-08 7.41705e-07 -4.35872e-16)
(-2.64147e-08 7.42399e-07 -3.63243e-16)
(-2.73268e-08 7.31679e-07 1.22524e-15)
(-1.64158e-08 7.51915e-07 -8.84997e-17)
(-1.27367e-08 8.26161e-07 -8.5499e-16)
(6.48831e-08 9.73034e-07 -6.32217e-16)
(1.24625e-08 9.7325e-07 -1.25381e-15)
(4.00794e-09 1.01292e-06 -6.62606e-16)
(3.33067e-10 9.59747e-07 2.37662e-15)
(1.40519e-09 9.47586e-07 -1.31034e-16)
(8.06712e-09 9.32152e-07 -6.26945e-16)
(3.43172e-08 9.53997e-07 -8.63899e-16)
(1.22463e-07 1.12355e-06 -3.35963e-15)
(-0.0294258 -0.011895 -1.46527e-14)
(0.00547544 0.00321318 1.77522e-14)
(0.00280237 0.00343862 -9.39182e-14)
(0.00157602 0.00288774 1.65252e-14)
(0.00093428 0.00269636 3.68614e-14)
(0.000605781 0.00243861 -1.78182e-14)
(0.000536538 0.00196524 -5.62096e-14)
(0.000427411 0.00161768 3.64425e-15)
(0.000356831 0.00158023 4.87591e-15)
(0.000304329 0.00138451 -2.55687e-14)
(0.000249857 0.00121408 -1.26923e-14)
(0.000205598 0.0010613 3.63806e-14)
(0.000167859 0.000926462 5.63703e-14)
(0.00013606 0.000808066 -3.54016e-14)
(0.000109138 0.000703957 2.21713e-14)
(8.66716e-05 0.000613523 9.86928e-15)
(6.7807e-05 0.000534585 -4.68482e-14)
(5.22439e-05 0.000466566 3.68868e-14)
(3.93442e-05 0.000407229 -5.08601e-14)
(2.88886e-05 0.000356355 3.02249e-14)
(2.03046e-05 0.00031251 -8.07053e-15)
(1.34565e-05 0.000275089 1.88468e-15)
(7.94309e-06 0.000242552 1.0875e-14)
(3.6601e-06 0.000214734 -9.95736e-15)
(2.60183e-07 0.000190587 -2.99937e-15)
(-2.30475e-06 0.000169832 -4.26654e-15)
(-4.2794e-06 0.00015153 1.61463e-14)
(-5.67678e-06 0.00013557 -1.03338e-14)
(-6.71077e-06 0.000121323 1.22514e-14)
(-7.35875e-06 0.000108773 2.20416e-15)
(-7.80957e-06 9.74879e-05 -1.40438e-14)
(-8.00981e-06 8.74996e-05 -1.23068e-14)
(-8.11582e-06 7.84885e-05 1.19066e-14)
(-8.06102e-06 7.05141e-05 8.64837e-15)
(-7.98758e-06 6.32987e-05 -2.95952e-15)
(-7.79991e-06 5.69174e-05 5.99332e-15)
(-7.62507e-06 5.11367e-05 -1.71106e-15)
(-7.35432e-06 4.60495e-05 -1.18976e-14)
(-7.15403e-06 4.13539e-05 3.52807e-15)
(-6.83792e-06 3.72101e-05 -2.02809e-16)
(-6.57866e-06 3.34047e-05 -7.94704e-16)
(-6.20949e-06 3.00554e-05 6.57843e-15)
(-5.90887e-06 2.69755e-05 -4.84521e-15)
(-5.5017e-06 2.42679e-05 -8.18251e-16)
(-5.17918e-06 2.17879e-05 7.70574e-16)
(-4.7634e-06 1.96179e-05 5.91776e-15)
(-4.43897e-06 1.76404e-05 -2.64767e-15)
(-4.03576e-06 1.59063e-05 5.59096e-15)
(-3.71955e-06 1.43243e-05 -1.04803e-15)
(-3.3395e-06 1.29261e-05 1.48379e-15)
(-3.02445e-06 1.16532e-05 1.41619e-15)
(-2.65828e-06 1.05255e-05 2.88969e-16)
(-2.35869e-06 9.5797e-06 1.53612e-15)
(-2.07013e-06 8.76641e-06 1.8666e-15)
(-1.82583e-06 8.03213e-06 -1.04594e-15)
(-1.62321e-06 7.35215e-06 -3.69643e-16)
(-1.48578e-06 6.64662e-06 -1.36936e-15)
(-1.33408e-06 5.99459e-06 1.9927e-15)
(-1.23309e-06 5.32435e-06 -3.96587e-15)
(-1.08705e-06 4.79309e-06 1.23544e-15)
(-1.00363e-06 4.30746e-06 -4.68299e-15)
(-9.00997e-07 3.89683e-06 -2.02103e-15)
(-8.02758e-07 3.54126e-06 1.71065e-16)
(-7.13351e-07 3.17221e-06 3.04078e-15)
(-6.21003e-07 2.81332e-06 3.48985e-15)
(-5.29289e-07 2.47322e-06 -7.68481e-16)
(-4.67185e-07 2.13471e-06 -2.94977e-15)
(-4.36105e-07 1.85837e-06 -1.35038e-15)
(-4.13239e-07 1.69414e-06 1.87342e-15)
(-3.81544e-07 1.54531e-06 5.28606e-15)
(-3.57477e-07 1.40568e-06 -2.39359e-15)
(-3.31264e-07 1.24281e-06 2.02682e-15)
(-2.90031e-07 1.05411e-06 -1.70056e-15)
(-2.3037e-07 8.7747e-07 -7.02325e-16)
(-1.88011e-07 7.23576e-07 -8.05717e-16)
(-1.36557e-07 6.11229e-07 3.81721e-15)
(-1.21409e-07 5.34411e-07 -3.98555e-16)
(-6.00934e-08 5.62764e-07 2.29187e-16)
(-4.34452e-08 6.04323e-07 8.96855e-16)
(2.70022e-07 1.08444e-06 9.78967e-15)
(-0.0203399 -0.000439561 3.87854e-15)
(-0.00313017 0.00041616 -4.31419e-15)
(-0.00172533 0.000569815 1.90312e-14)
(-0.00140342 0.000493489 -3.98161e-15)
(-0.000863716 0.000937919 -6.10719e-15)
(-0.00085128 0.000863976 1.9207e-15)
(-0.000775043 0.000450203 1.03852e-14)
(-0.000662822 0.000637735 -6.26954e-16)
(-0.000590172 0.000602707 -7.38938e-16)
(-0.000515238 0.000572626 3.53052e-15)
(-0.000448827 0.00053742 3.8645e-15)
(-0.000389998 0.000501964 -7.55573e-15)
(-0.000337833 0.000467274 -1.0068e-14)
(-0.000291536 0.0004327 6.31442e-15)
(-0.000250893 0.000399184 -3.51211e-15)
(-0.000215165 0.000366506 -2.51106e-15)
(-0.000184141 0.000335245 7.90592e-15)
(-0.000157128 0.00030538 -6.18789e-15)
(-0.000133965 0.000277234 9.16808e-15)
(-0.000113978 0.000250951 -5.8193e-15)
(-9.69962e-05 0.000226676 1.02457e-15)
(-8.24124e-05 0.000204474 -1.89168e-16)
(-7.01211e-05 0.000184206 -1.44331e-15)
(-5.9607e-05 0.000165984 8.80391e-16)
(-5.07742e-05 0.000149504 8.80573e-16)
(-4.32185e-05 0.000134768 1.41203e-15)
(-3.68939e-05 0.000121481 -3.25467e-15)
(-3.1481e-05 0.000109572 2.13334e-15)
(-2.69704e-05 9.87553e-05 -2.63765e-15)
(-2.31155e-05 8.90302e-05 -1.36697e-16)
(-1.99232e-05 8.01707e-05 2.30037e-15)
(-1.71924e-05 7.22088e-05 2.41279e-15)
(-1.49442e-05 6.4939e-05 -2.59798e-15)
(-1.30195e-05 5.84318e-05 -1.28332e-15)
(-1.1438e-05 5.24823e-05 1.29669e-15)
(-1.00716e-05 4.71721e-05 -1.35363e-15)
(-8.95975e-06 4.22929e-05 1.47431e-16)
(-7.94793e-06 3.80379e-05 1.87521e-15)
(-7.12069e-06 3.40945e-05 -4.04034e-16)
(-6.38171e-06 3.05636e-05 4.42816e-16)
(-5.7614e-06 2.73169e-05 6.25544e-16)
(-5.17848e-06 2.44405e-05 -1.92689e-15)
(-4.68309e-06 2.18163e-05 9.36376e-16)
(-4.19665e-06 1.9502e-05 4.4874e-16)
(-3.78724e-06 1.741e-05 -1.11699e-15)
(-3.37166e-06 1.55734e-05 -7.93063e-16)
(-3.02849e-06 1.39295e-05 8.67893e-17)
(-2.66849e-06 1.2477e-05 -2.06575e-16)
(-2.38004e-06 1.11742e-05 -3.61007e-16)
(-2.06572e-06 1.00048e-05 6.51158e-16)
(-1.81905e-06 8.95285e-06 -6.80029e-16)
(-1.53489e-06 8.04345e-06 1.20889e-15)
(-1.33583e-06 7.26768e-06 2.60171e-16)
(-1.04711e-06 6.63392e-06 -1.44142e-16)
(-8.57822e-07 6.07197e-06 4.2775e-16)
(-6.16818e-07 5.58649e-06 9.34444e-16)
(-4.91802e-07 5.07595e-06 2.08975e-16)
(-3.77706e-07 4.5559e-06 1.31799e-16)
(-3.32517e-07 4.05593e-06 1.87782e-15)
(-3.18423e-07 3.58372e-06 -1.4144e-15)
(-2.62887e-07 3.20799e-06 -7.77811e-16)
(-2.09824e-07 2.8781e-06 -1.48485e-15)
(-1.61549e-07 2.58014e-06 -9.69565e-16)
(-9.53347e-08 2.29923e-06 -2.74757e-15)
(-4.57544e-08 2.01751e-06 -8.1928e-16)
(-1.06442e-08 1.75436e-06 -2.07357e-16)
(7.92143e-09 1.51854e-06 6.69788e-16)
(-3.37907e-08 1.31655e-06 5.13567e-16)
(-6.05245e-08 1.15495e-06 -9.12842e-16)
(-6.79886e-08 1.02725e-06 -2.93811e-16)
(-7.03768e-08 9.06173e-07 8.62369e-16)
(-8.1651e-08 7.64836e-07 -3.37766e-16)
(-8.13137e-08 6.22647e-07 -5.07708e-16)
(-8.32567e-08 5.01508e-07 7.9841e-16)
(-9.19269e-08 3.89474e-07 5.88637e-17)
(-6.31782e-08 3.23529e-07 -5.37255e-16)
(-7.95862e-08 2.73687e-07 1.16849e-15)
(-7.19502e-08 2.93897e-07 -2.37685e-16)
(-8.88349e-08 2.62311e-07 -1.5325e-16)
(1.8073e-07 6.23519e-07 4.13602e-16)
(-0.0019334 -0.00106324 -1.25418e-16)
(-0.0004571 -0.000890863 -7.03028e-17)
(-0.000650536 -0.000817737 -8.54021e-17)
(-0.000672037 -0.000786274 1.09621e-16)
(-0.000644882 -0.000675792 -2.41306e-16)
(-0.000601557 -0.000423797 -1.69422e-16)
(-0.000550963 -0.000326537 1.61942e-17)
(-0.00054283 -0.000376526 -2.08807e-16)
(-0.00051029 -0.000301572 -2.36661e-16)
(-0.000474692 -0.000237229 1.07822e-16)
(-0.000439855 -0.000180724 -2.45491e-16)
(-0.000405761 -0.000131385 -2.05174e-16)
(-0.000372643 -8.79042e-05 1.7826e-16)
(-0.000340715 -5.0512e-05 3.57747e-16)
(-0.0003102 -1.86631e-05 -1.90614e-16)
(-0.000281232 7.77988e-06 1.89431e-16)
(-0.00025395 2.95324e-05 9.73215e-17)
(-0.000228408 4.67105e-05 -1.28023e-17)
(-0.000204686 5.99985e-05 -3.79873e-17)
(-0.000182774 6.98591e-05 1.52375e-16)
(-0.000162676 7.68461e-05 7.16399e-16)
(-0.000144327 8.14062e-05 -3.43104e-17)
(-0.0001277 8.38142e-05 2.03552e-16)
(-0.000112695 8.46391e-05 8.66948e-17)
(-9.92399e-05 8.40919e-05 -1.12867e-16)
(-8.72107e-05 8.25222e-05 -1.89417e-16)
(-7.6534e-05 8.00491e-05 -4.93161e-16)
(-6.70746e-05 7.6957e-05 -8.84369e-18)
(-5.87544e-05 7.33472e-05 1.30343e-18)
(-5.14429e-05 6.94234e-05 1.85337e-16)
(-4.50631e-05 6.52598e-05 2.37433e-16)
(-3.94956e-05 6.10247e-05 -1.10043e-15)
(-3.46602e-05 5.67559e-05 -1.24156e-15)
(-3.04616e-05 5.25748e-05 -6.14912e-16)
(-2.6819e-05 4.84824e-05 2.37204e-16)
(-2.36632e-05 4.4588e-05 6.74067e-16)
(-2.09245e-05 4.08158e-05 1.85443e-18)
(-1.85574e-05 3.73e-05 1.51627e-16)
(-1.64627e-05 3.39668e-05 4.91895e-16)
(-1.46414e-05 3.08924e-05 5.03397e-16)
(-1.30178e-05 2.79861e-05 4.43899e-17)
(-1.16052e-05 2.53505e-05 -2.36036e-16)
(-1.03272e-05 2.28893e-05 -1.62164e-16)
(-9.21297e-06 2.06854e-05 -7.96143e-16)
(-8.19469e-06 1.86606e-05 -1.40169e-15)
(-7.30516e-06 1.68633e-05 -6.92564e-16)
(-6.48896e-06 1.5232e-05 -2.66297e-16)
(-5.77399e-06 1.37806e-05 9.38563e-16)
(-5.12208e-06 1.24655e-05 1.38104e-15)
(-4.54531e-06 1.12811e-05 -3.26995e-17)
(-4.0285e-06 1.01999e-05 4.27575e-16)
(-3.56771e-06 9.23529e-06 -1.54517e-15)
(-3.13925e-06 8.40388e-06 -1.20155e-15)
(-2.73065e-06 7.69804e-06 1.63414e-16)
(-2.31099e-06 7.11901e-06 -8.58535e-16)
(-1.94614e-06 6.59074e-06 -2.68481e-16)
(-1.59094e-06 6.10176e-06 -3.01898e-16)
(-1.34186e-06 5.58323e-06 6.0526e-16)
(-1.1543e-06 5.05785e-06 2.97676e-15)
(-1.02459e-06 4.54938e-06 5.48499e-16)
(-9.17969e-07 4.08704e-06 3.30923e-15)
(-8.08495e-07 3.71235e-06 1.40988e-16)
(-6.87964e-07 3.38057e-06 3.43952e-16)
(-5.79058e-07 3.05363e-06 -1.47835e-15)
(-4.80626e-07 2.73879e-06 -2.43398e-16)
(-4.0385e-07 2.43934e-06 8.26616e-16)
(-3.4995e-07 2.16716e-06 -3.29699e-16)
(-3.31589e-07 1.95005e-06 6.27222e-16)
(-3.2965e-07 1.77381e-06 -2.15463e-16)
(-3.18776e-07 1.61693e-06 -6.75789e-16)
(-2.93976e-07 1.46899e-06 -9.31609e-16)
(-2.55675e-07 1.29366e-06 4.86597e-16)
(-2.15967e-07 1.09969e-06 1.62725e-15)
(-1.96638e-07 9.29211e-07 -1.57745e-15)
(-1.90735e-07 7.80562e-07 5.89785e-17)
(-1.19892e-07 7.1365e-07 -1.02051e-16)
(-1.43399e-07 6.65822e-07 -2.62294e-15)
(-1.48111e-07 6.89065e-07 2.06788e-15)
(-1.33484e-07 6.27903e-07 -2.08183e-17)
(8.16001e-08 9.58238e-07 -3.54632e-15)
(-0.000484688 -0.000297086 2.70506e-17)
(-0.000122007 -0.000226696 -3.3474e-17)
(-0.000195854 -0.000224487 2.89548e-18)
(-0.000140211 -0.00023104 -6.76631e-17)
(-0.000126955 -0.000178776 2.68809e-17)
(-0.000125695 -0.000169892 1.93318e-17)
(-0.000143946 -0.000178274 -1.76141e-17)
(-0.000153688 -0.000159371 -1.54374e-17)
(-0.000162434 -0.000153395 -1.57898e-16)
(-0.000168543 -0.000144809 -7.84985e-18)
(-0.000172922 -0.000134861 1.37252e-16)
(-0.00017558 -0.000124037 -1.08971e-17)
(-0.000176478 -0.000111687 5.45833e-17)
(-0.000175682 -9.87873e-05 -1.59494e-17)
(-0.00017329 -8.52516e-05 -3.62469e-19)
(-0.000169449 -7.17647e-05 -1.82609e-16)
(-0.000164326 -5.82283e-05 -3.47001e-16)
(-0.000158106 -4.52503e-05 -3.55225e-16)
(-0.000150977 -3.29072e-05 1.6675e-16)
(-0.000143149 -2.13944e-05 -2.7622e-17)
(-0.00013479 -1.08357e-05 5.20256e-16)
(-0.000126089 -1.17007e-06 -1.31798e-16)
(-0.000117195 7.34431e-06 -3.6805e-16)
(-0.000108305 1.48337e-05 2.92328e-16)
(-9.95118e-05 2.11213e-05 -5.0957e-17)
(-9.09631e-05 2.63753e-05 5.96118e-18)
(-8.27201e-05 3.05175e-05 -1.22717e-16)
(-7.49153e-05 3.36881e-05 -2.48837e-17)
(-6.75596e-05 3.58354e-05 4.52332e-17)
(-6.07334e-05 3.71502e-05 9.61548e-17)
(-5.44217e-05 3.76508e-05 4.51164e-16)
(-4.86612e-05 3.75336e-05 5.01554e-17)
(-4.34125e-05 3.68446e-05 3.21469e-16)
(-3.86773e-05 3.5766e-05 -2.00877e-16)
(-3.44067e-05 3.43168e-05 8.13608e-18)
(-3.05834e-05 3.26684e-05 7.7893e-17)
(-2.7164e-05 3.07972e-05 -5.12883e-16)
(-2.41175e-05 2.88771e-05 -1.94808e-16)
(-2.13874e-05 2.68727e-05 4.20336e-16)
(-1.89623e-05 2.49121e-05 -7.06528e-17)
(-1.67961e-05 2.29375e-05 -1.78462e-16)
(-1.48799e-05 2.10741e-05 4.92076e-16)
(-1.31659e-05 1.92623e-05 6.30314e-16)
(-1.16559e-05 1.76048e-05 7.65245e-16)
(-1.03027e-05 1.60371e-05 4.08739e-16)
(-9.11444e-06 1.46297e-05 1.88719e-16)
(-8.04841e-06 1.33244e-05 9.2612e-16)
(-7.11453e-06 1.21557e-05 -1.86337e-16)
(-6.27912e-06 1.10762e-05 -1.83818e-16)
(-5.54867e-06 1.00957e-05 -1.60865e-15)
(-4.90007e-06 9.1917e-06 2.98975e-16)
(-4.33871e-06 8.35182e-06 1.84171e-15)
(-3.8285e-06 7.62688e-06 -1.68112e-15)
(-3.35285e-06 6.97997e-06 -2.64767e-16)
(-2.89403e-06 6.45045e-06 2.50059e-16)
(-2.43637e-06 6.00857e-06 -7.89674e-16)
(-2.02089e-06 5.59084e-06 2.91539e-16)
(-1.64933e-06 5.19963e-06 -1.46663e-15)
(-1.38289e-06 4.76862e-06 -1.69825e-15)
(-1.18692e-06 4.32382e-06 -1.53519e-16)
(-1.02723e-06 3.9112e-06 -1.69807e-15)
(-8.79975e-07 3.54389e-06 4.94807e-17)
(-7.4688e-07 3.22487e-06 -3.89779e-16)
(-6.1729e-07 2.92831e-06 3.97926e-15)
(-5.10595e-07 2.63285e-06 6.34463e-16)
(-4.36531e-07 2.35456e-06 -8.2991e-17)
(-3.73932e-07 2.10446e-06 5.68448e-16)
(-3.43219e-07 1.90486e-06 -3.03857e-16)
(-3.26895e-07 1.73868e-06 7.13125e-16)
(-3.07676e-07 1.58408e-06 2.04475e-15)
(-2.80789e-07 1.42747e-06 1.64684e-15)
(-2.4007e-07 1.25139e-06 1.23136e-15)
(-2.02971e-07 1.07054e-06 4.16476e-16)
(-1.91963e-07 9.15428e-07 4.68262e-17)
(-1.91301e-07 7.63812e-07 -2.15141e-18)
(-1.13404e-07 7.12087e-07 5.31753e-16)
(-1.37524e-07 6.79664e-07 -4.11481e-15)
(-1.49156e-07 6.82292e-07 -3.44172e-15)
(-1.21732e-07 5.90006e-07 5.97682e-17)
(-2.23508e-08 8.82186e-07 5.79026e-16)
(-4.19145e-05 -0.000118767 9.00406e-17)
(0.000315271 -2.89866e-05 4.69759e-17)
(-0.000287822 -0.000104951 -6.59923e-18)
(-1.99486e-05 -0.000174847 -3.38457e-17)
(-5.66894e-05 -0.000112204 -3.38916e-16)
(-6.61696e-05 -8.93883e-05 -9.01109e-17)
(-6.83412e-05 -9.77215e-05 1.41106e-16)
(-7.32238e-05 -0.000102116 -1.12344e-17)
(-7.69884e-05 -9.76809e-05 6.37689e-17)
(-8.01638e-05 -9.37484e-05 -8.904e-17)
(-8.33105e-05 -8.99919e-05 -3.53528e-16)