/*--------------------------------*- C++ -*----------------------------------*\
| =========                 |                                                 |
| \\      /  F ield         | OpenFOAM: The Open Source CFD Toolbox           |
|  \\    /   O peration     | Version:  2506                                  |
|   \\  /    A nd           | Website:  www.openfoam.com                      |
|    \\/     M anipulation  |                                                 |
\*---------------------------------------------------------------------------*/
FoamFile
{
    version     2.0;
    format      ascii;
    arch        "LSB;label=32;scalar=64";
    class       volSymmTensorField;
    location    "50";
    object      turbulenceProperties:devReff;
}
// * * * * * * * * * * * * * * * * * * * * * * * * * * * * * * * * * * * * * //

dimensions      [0 2 -2 0 0 0 0];

internalField   nonuniform List<symmTensor> 
1340
(
(8.23936e-05 -4.75722e-05 -1.9839e-21 -8.23523e-05 8.74585e-22 -4.13047e-08)
(8.80673e-05 -3.3528e-05 2.38189e-20 -8.80769e-05 2.0273e-20 9.54479e-09)
(9.13133e-05 -1.92003e-05 4.63863e-20 -9.12403e-05 7.1189e-21 -7.30703e-08)
(9.20132e-05 -2.48999e-06 -7.88567e-20 -9.20857e-05 -7.43684e-20 7.25352e-08)
(8.89986e-05 1.49756e-05 -1.10409e-19 -8.88316e-05 -5.22379e-20 -1.67041e-07)
(6.93119e-05 -4.07088e-05 1.01428e-20 -6.92795e-05 7.62805e-21 -3.23395e-08)
(7.40892e-05 -2.90354e-05 2.81277e-20 -7.4087e-05 4.65651e-21 -2.21827e-09)
(7.68881e-05 -1.71005e-05 -7.38696e-20 -7.68172e-05 -3.56627e-20 -7.08816e-08)
(7.76774e-05 -3.20878e-06 1.5453e-20 -7.77307e-05 2.59915e-20 5.33611e-08)
(7.54582e-05 1.14195e-05 1.17416e-19 -7.5328e-05 2.26498e-20 -1.30246e-07)
(7.00881e-05 2.59125e-05 -8.24052e-20 -7.00165e-05 -6.26884e-20 -7.16509e-08)
(5.86783e-05 -3.50875e-05 -5.50348e-21 -5.86527e-05 -5.01249e-21 -2.56212e-08)
(6.2747e-05 -2.53024e-05 -2.32308e-20 -6.27372e-05 -1.04268e-20 -9.73283e-09)
(6.51778e-05 -1.52738e-05 2.5064e-22 -6.51115e-05 5.58851e-21 -6.6317e-08)
(6.60071e-05 -3.61251e-06 3.93913e-20 -6.60483e-05 1.68388e-20 4.12454e-08)
(6.43775e-05 8.74954e-06 -3.05807e-20 -6.42763e-05 -3.08645e-21 -1.01189e-07)
(6.01101e-05 2.10622e-05 9.71069e-20 -6.00576e-05 5.09951e-20 -5.24421e-08)
(5.30296e-05 3.25081e-05 1.60532e-19 -5.30187e-05 3.79075e-20 -1.0909e-08)
(4.99445e-05 -3.04226e-05 7.32565e-21 -4.99262e-05 4.43644e-21 -1.83337e-08)
(5.34481e-05 -2.21576e-05 1.05867e-20 -5.34371e-05 5.9524e-21 -1.09403e-08)
(5.5575e-05 -1.36731e-05 2.66791e-20 -5.55132e-05 1.25792e-21 -6.173e-08)
(5.64114e-05 -3.80501e-06 -7.21971e-20 -5.64452e-05 -3.59116e-20 3.38143e-08)
(5.52178e-05 6.71842e-06 -3.46691e-20 -5.5139e-05 -1.39227e-20 -7.8813e-08)
(5.17965e-05 1.72499e-05 -9.44277e-20 -5.17575e-05 -3.72566e-20 -3.90104e-08)
(4.60067e-05 2.71143e-05 -1.15258e-19 -4.59981e-05 -9.08456e-21 -8.59422e-09)
(3.80789e-05 3.54995e-05 9.77554e-20 -3.80788e-05 2.26783e-21 -1.30134e-10)
(4.27127e-05 -2.65155e-05 7.36355e-21 -4.26971e-05 1.92699e-21 -1.55667e-08)
(4.57537e-05 -1.94797e-05 1.06611e-21 -4.57448e-05 -1.18323e-21 -8.85775e-09)
(4.76295e-05 -1.22615e-05 -2.26401e-20 -4.75718e-05 -1.58192e-21 -5.76978e-08)
(4.84488e-05 -3.85103e-06 6.90083e-20 -4.8476e-05 3.57249e-20 2.7183e-08)
(4.75836e-05 5.16512e-06 1.29297e-19 -4.75211e-05 3.56367e-20 -6.25259e-08)
(4.48177e-05 1.42227e-05 4.18598e-21 -4.47889e-05 1.00426e-20 -2.8787e-08)
(4.00468e-05 2.27598e-05 2.43244e-19 -4.0041e-05 5.88143e-20 -5.80127e-09)
(3.34417e-05 3.01101e-05 -7.33213e-20 -3.344e-05 -4.9897e-20 -1.69518e-09)
(2.56824e-05 3.55496e-05 -1.23628e-19 -2.56687e-05 -1.60591e-20 -1.36433e-08)
(3.66809e-05 -2.3206e-05 6.60399e-21 -3.66677e-05 1.90537e-21 -1.32503e-08)
(3.93363e-05 -1.719e-05 -1.25965e-20 -3.93269e-05 -5.79178e-21 -9.38948e-09)
(4.10013e-05 -1.10047e-05 -2.97823e-21 -4.09513e-05 -1.70908e-21 -4.99935e-08)
(4.17897e-05 -3.80413e-06 -1.15818e-20 -4.18123e-05 5.80658e-21 2.25737e-08)
(4.11694e-05 3.96631e-06 9.15933e-20 -4.11203e-05 1.73341e-20 -4.91358e-08)
(3.89206e-05 1.17917e-05 -1.04327e-19 -3.88984e-05 -3.38842e-20 -2.21737e-08)
(3.49581e-05 1.92168e-05 1.27363e-20 -3.49539e-05 2.96916e-21 -4.25333e-09)
(2.94184e-05 2.5672e-05 3.82338e-20 -2.94166e-05 -3.91971e-21 -1.79754e-09)
(2.28645e-05 3.05353e-05 -3.1417e-19 -2.2852e-05 -3.75922e-20 -1.25382e-08)
(1.59235e-05 3.3626e-05 7.94487e-20 -1.59057e-05 2.54202e-20 -1.78192e-08)
(3.16163e-05 -2.0379e-05 -1.02686e-20 -3.16069e-05 -9.81118e-22 -9.45392e-09)
(3.39468e-05 -1.52163e-05 8.80305e-21 -3.3936e-05 7.7625e-21 -1.07996e-08)
(3.54321e-05 -9.88988e-06 5.72873e-20 -3.53865e-05 2.05641e-20 -4.56031e-08)
(3.61832e-05 -3.68732e-06 1.5119e-20 -3.62036e-05 -4.21622e-21 2.04536e-08)
(3.57467e-05 3.03722e-06 -7.45572e-20 -3.5707e-05 -2.04985e-20 -3.96656e-08)
(3.39064e-05 9.8267e-06 6.76868e-20 -3.3889e-05 2.6842e-20 -1.74414e-08)
(3.05949e-05 1.63078e-05 -1.65799e-20 -3.05917e-05 -4.5202e-21 -3.20909e-09)
(2.59188e-05 2.19896e-05 1.72341e-19 -2.59163e-05 3.64852e-20 -2.48982e-09)
(2.03499e-05 2.63345e-05 5.16178e-20 -2.03389e-05 1.98353e-20 -1.09586e-08)
(1.44204e-05 2.91697e-05 -3.29371e-20 -1.44015e-05 -7.67777e-21 -1.88936e-08)
(2.73376e-05 -1.79511e-05 1.51269e-21 -2.73308e-05 -8.6434e-22 -6.85951e-09)
(2.93936e-05 -1.34997e-05 -2.26823e-21 -2.93828e-05 -4.24357e-21 -1.08623e-08)
(3.07241e-05 -8.89839e-06 -4.98074e-20 -3.06824e-05 -2.23676e-20 -4.16884e-08)
(3.14338e-05 -3.52984e-06 -8.26943e-20 -3.14523e-05 -2.95939e-20 1.8547e-08)
(3.11328e-05 2.31527e-06 -1.01051e-19 -3.11014e-05 -1.12169e-20 -3.14374e-08)
(2.96205e-05 8.22582e-06 1.48371e-19 -2.96051e-05 3.15049e-20 -1.53294e-08)
(2.68369e-05 1.3902e-05 -1.39175e-19 -2.6835e-05 -3.46917e-20 -1.90784e-09)
(2.28688e-05 1.89138e-05 3.46014e-20 -2.28662e-05 2.02541e-20 -2.54751e-09)
(1.81117e-05 2.27935e-05 8.6012e-20 -1.81018e-05 1.32573e-20 -9.90266e-09)
(1.30226e-05 2.53871e-05 5.777e-20 -1.30075e-05 1.43621e-20 -1.51046e-08)
(7.89391e-06 2.67974e-05 5.84772e-20 -7.88402e-06 7.27128e-21 -9.88291e-09)
(2.37044e-05 -1.58556e-05 1.27645e-20 -2.36986e-05 6.45428e-21 -5.78159e-09)
(2.55244e-05 -1.20008e-05 2.085e-20 -2.55138e-05 9.17022e-21 -1.05952e-08)
(2.67201e-05 -8.01287e-06 5.72622e-20 -2.66823e-05 1.53212e-20 -3.77797e-08)
(2.73873e-05 -3.34716e-06 -1.17704e-20 -2.74038e-05 -4.49513e-21 1.65246e-08)
(2.71862e-05 1.75309e-06 5.01831e-20 -2.71618e-05 5.55087e-21 -2.43584e-08)
(2.59396e-05 6.91399e-06 -1.62629e-19 -2.59259e-05 -3.43971e-20 -1.37238e-08)
(2.35874e-05 1.18996e-05 1.41121e-19 -2.35857e-05 5.45988e-20 -1.72957e-09)
(2.02029e-05 1.6329e-05 1.93783e-19 -2.02008e-05 2.30163e-20 -2.10753e-09)
(1.61211e-05 1.97925e-05 -9.7509e-21 -1.61123e-05 -1.63057e-20 -8.81209e-09)
(1.17335e-05 2.21548e-05 8.82259e-20 -1.17199e-05 -9.96913e-21 -1.36131e-08)
(7.2928e-06 2.34938e-05 5.93378e-20 -7.28108e-06 6.63078e-21 -1.17133e-08)
(2.06051e-05 -1.40365e-05 -1.5785e-20 -2.06003e-05 -4.7869e-21 -4.81081e-09)
(2.22203e-05 -1.06883e-05 1.8516e-20 -2.22099e-05 3.67382e-21 -1.0358e-08)
(2.32971e-05 -7.22039e-06 -5.04327e-20 -2.32635e-05 -1.89328e-20 -3.35943e-08)
(2.39215e-05 -3.15185e-06 -4.00133e-20 -2.39364e-05 -8.94679e-21 1.48851e-08)
(2.37962e-05 1.31209e-06 -1.20243e-20 -2.37774e-05 6.71157e-21 -1.87938e-08)
(2.2764e-05 5.83372e-06 1.67788e-19 -2.27527e-05 3.94995e-20 -1.12974e-08)
(2.07685e-05 1.0221e-05 -2.01644e-20 -2.07669e-05 -2.1119e-20 -1.55394e-09)
(1.78679e-05 1.41436e-05 -1.35611e-19 -1.78657e-05 -4.34075e-20 -2.12727e-09)
(1.43501e-05 1.72373e-05 -1.17033e-19 -1.43423e-05 -2.64827e-20 -7.74527e-09)
(1.05538e-05 1.93796e-05 -3.92582e-19 -1.05418e-05 -4.52454e-20 -1.20383e-08)
(6.69606e-06 2.06413e-05 6.19856e-20 -6.68659e-06 2.01565e-20 -9.46803e-09)
(3.00717e-06 2.11175e-05 2.24083e-19 -2.99932e-06 1.10425e-20 -7.84881e-09)
(1.79503e-05 -1.24501e-05 9.90539e-21 -1.79469e-05 3.41995e-21 -3.41291e-09)
(1.93866e-05 -9.53419e-06 3.73032e-21 -1.93771e-05 3.47517e-21 -9.51782e-09)
(2.03576e-05 -6.50992e-06 6.06724e-20 -2.03279e-05 2.13405e-20 -2.96539e-08)
(2.09406e-05 -2.95146e-06 9.54937e-20 -2.0954e-05 2.15669e-20 1.34528e-08)
(2.08731e-05 9.66806e-07 -3.49307e-20 -2.08582e-05 -1.93716e-20 -1.48755e-08)
(2.00143e-05 4.9395e-06 -1.40879e-19 -2.00046e-05 -3.44358e-20 -9.69149e-09)
(1.83145e-05 8.80833e-06 2.26075e-20 -1.83134e-05 2.12482e-21 -1.09945e-09)
(1.5819e-05 1.22859e-05 -1.61956e-19 -1.58174e-05 -2.29469e-20 -1.67237e-09)
(1.27754e-05 1.50497e-05 7.75541e-20 -1.27685e-05 3.34988e-20 -6.91481e-09)
(9.47878e-06 1.69888e-05 1.65427e-19 -9.46804e-06 3.9455e-20 -1.0739e-08)
(6.1174e-06 1.81645e-05 -1.06319e-19 -6.10871e-06 -1.86838e-20 -8.69294e-09)
(2.89145e-06 1.86542e-05 -1.49432e-19 -2.88281e-06 -2.7089e-20 -8.63403e-09)
(1.5667e-05 -1.10621e-05 -1.15658e-20 -1.56649e-05 -7.57331e-22 -2.12344e-09)
(1.69471e-05 -8.51589e-06 3.51903e-20 -1.69386e-05 1.00248e-20 -8.53907e-09)
(1.78237e-05 -5.87143e-06 -2.03484e-20 -1.77979e-05 -7.54023e-21 -2.57722e-08)
(1.8367e-05 -2.75161e-06 -1.64522e-20 -1.83791e-05 -5.22154e-21 1.21217e-08)
(1.83427e-05 6.96414e-07 -3.29852e-20 -1.83313e-05 -1.16268e-20 -1.14518e-08)
(1.76261e-05 4.19436e-06 -1.01443e-19 -1.76176e-05 -2.03683e-20 -8.52855e-09)
(1.61722e-05 7.61336e-06 -6.15224e-20 -1.61712e-05 -1.59936e-20 -9.85391e-10)
(1.40169e-05 1.07009e-05 -7.06804e-21 -1.40152e-05 1.09048e-20 -1.68804e-09)
(1.13744e-05 1.31706e-05 7.0594e-20 -1.13677e-05 2.68993e-20 -6.69585e-09)
(8.50285e-06 1.49221e-05 7.76587e-20 -8.49303e-06 9.729e-21 -9.82661e-09)
(5.56728e-06 1.60094e-05 1.69529e-19 -5.55967e-06 7.97083e-21 -7.60788e-09)
(2.74151e-06 1.64938e-05 -3.68528e-20 -2.73282e-06 -1.23848e-20 -8.68756e-09)
(1.36967e-05 -9.84315e-06 -8.2109e-21 -1.36962e-05 -4.28554e-21 -5.53609e-10)
(1.48399e-05 -7.61551e-06 -5.34688e-20 -1.48321e-05 -1.53803e-20 -7.77906e-09)
(1.56317e-05 -5.29714e-06 -3.20347e-20 -1.56096e-05 -8.30703e-21 -2.21531e-08)
(1.61369e-05 -2.55565e-06 -2.99231e-20 -1.61479e-05 -7.55455e-21 1.10584e-08)
(1.61451e-05 4.85222e-07 -2.23948e-20 -1.61363e-05 -2.33102e-21 -8.83479e-09)
(1.55453e-05 3.57134e-06 6.39426e-20 -1.55382e-05 5.58716e-21 -7.08748e-09)
(1.42979e-05 6.59739e-06 -2.8885e-19 -1.4297e-05 -5.54021e-20 -8.60489e-10)
(1.24302e-05 9.34184e-06 2.02186e-20 -1.2429e-05 3.33046e-20 -1.28127e-09)
(1.01291e-05 1.15487e-05 3.8956e-19 -1.01234e-05 5.62419e-20 -5.6909e-09)
(7.62061e-06 1.31286e-05 1.12188e-19 -7.61185e-06 -3.50493e-21 -8.75564e-09)
(5.04941e-06 1.41279e-05 -2.9666e-19 -5.04197e-06 -5.39256e-20 -7.43887e-09)
(2.5669e-06 1.46015e-05 -2.20469e-19 -2.55911e-06 -1.42572e-20 -7.79017e-09)
(2.91169e-07 1.46404e-05 4.30439e-20 -2.81608e-07 1.74693e-20 -9.56058e-09)
(1.19915e-05 -8.77005e-06 9.44306e-21 -1.19922e-05 1.87969e-21 7.15638e-10)
(1.30142e-05 -6.81591e-06 -1.47324e-20 -1.30077e-05 -2.1012e-21 -6.48979e-09)
(1.37303e-05 -4.78027e-06 5.85408e-20 -1.37108e-05 9.95872e-21 -1.94846e-08)
(1.41991e-05 -2.36584e-06 -1.44244e-19 -1.42091e-05 -4.1147e-20 1.00444e-08)
(1.42311e-05 3.20979e-07 -1.10627e-19 -1.42242e-05 -2.07717e-20 -6.82388e-09)
(1.37276e-05 3.04892e-06 -5.90725e-20 -1.37214e-05 -4.37311e-21 -6.14573e-09)
(1.2654e-05 5.7309e-06 1.35454e-19 -1.26532e-05 4.58067e-20 -7.95898e-10)
(1.10303e-05 8.17277e-06 1.79039e-19 -1.10289e-05 1.32135e-20 -1.42181e-09)
(9.02065e-06 1.01455e-05 -1.8842e-19 -9.01533e-06 -4.30942e-20 -5.32182e-09)
(6.8239e-06 1.15685e-05 1.57333e-19 -6.81618e-06 2.21764e-20 -7.71879e-09)
(4.56701e-06 1.24823e-05 1.11888e-20 -4.5605e-06 1.42307e-20 -6.51202e-09)
(2.38505e-06 1.2936e-05 -5.5862e-20 -2.37807e-06 1.00649e-20 -6.97734e-09)
(3.79069e-07 1.30034e-05 1.91157e-19 -3.69363e-07 2.51148e-20 -9.70589e-09)
(1.05119e-05 -7.82303e-06 -9.66287e-21 -1.05134e-05 -3.88357e-21 1.56332e-09)
(1.14278e-05 -6.10449e-06 -2.04002e-20 -1.14227e-05 -3.65734e-21 -5.17761e-09)
(1.20763e-05 -4.31452e-06 3.7654e-20 -1.20595e-05 1.30106e-20 -1.67828e-08)
(1.25107e-05 -2.1845e-06 7.43833e-20 -1.25197e-05 2.06183e-20 8.96801e-09)
(1.25598e-05 1.94028e-07 1.17589e-19 -1.25545e-05 2.89508e-20 -5.26169e-09)
(1.21364e-05 2.60842e-06 7.85216e-20 -1.2131e-05 2.12736e-20 -5.35562e-09)
(1.12095e-05 4.98888e-06 2.34065e-19 -1.12089e-05 2.90506e-20 -6.38798e-10)
(9.79455e-06 7.16264e-06 -3.54857e-19 -9.79343e-06 -6.54522e-20 -1.12246e-09)
(8.03469e-06 8.92629e-06 3.13091e-20 -8.02996e-06 1.23604e-20 -4.73119e-09)
(6.10556e-06 1.02073e-05 -6.72552e-20 -6.09856e-06 -5.47684e-21 -7.00102e-09)
(4.12053e-06 1.10399e-05 1.40619e-19 -4.11431e-06 1.74416e-20 -6.21688e-09)
(2.1984e-06 1.14677e-05 5.17913e-20 -2.19161e-06 3.36571e-21 -6.79208e-09)
(4.27185e-07 1.15575e-05 1.07877e-19 -4.18998e-07 -4.47214e-21 -8.18643e-09)
(-1.17584e-06 1.13908e-05 4.74525e-20 1.18487e-06 -1.82918e-21 -9.02959e-09)
(9.22548e-06 -6.98484e-06 9.69867e-21 -9.22777e-06 3.76929e-21 2.29329e-09)
(1.00466e-05 -5.47118e-06 3.3503e-20 -1.00422e-05 5.69128e-21 -4.44215e-09)
(1.06344e-05 -3.89388e-06 -7.7275e-20 -1.06201e-05 -1.84631e-20 -1.42712e-08)
(1.10358e-05 -2.0124e-06 2.92207e-20 -1.10441e-05 1.20064e-20 8.29331e-09)
(1.10969e-05 9.56387e-08 9.48979e-20 -1.1093e-05 1.72458e-20 -3.99056e-09)
(1.07404e-05 2.23545e-06 -2.36657e-20 -1.07357e-05 -1.13584e-20 -4.64767e-09)
(9.93783e-06 4.3509e-06 -1.26463e-19 -9.93732e-06 -1.85977e-20 -5.05488e-10)
(8.70159e-06 6.28811e-06 2.78679e-19 -8.70024e-06 5.08904e-20 -1.35103e-09)
(7.15677e-06 7.86538e-06 -2.35851e-19 -7.1525e-06 -4.10754e-20 -4.27809e-09)
(5.45985e-06 9.01655e-06 1.93934e-19 -5.45362e-06 3.4505e-20 -6.22907e-09)
(3.7107e-06 9.77293e-06 -7.37601e-20 -3.70517e-06 -2.47122e-20 -5.52917e-09)
(2.01482e-06 1.01724e-05 -8.40981e-20 -2.00869e-06 -8.33652e-21 -6.12616e-09)
(4.50536e-07 1.0274e-05 -1.79286e-19 -4.4339e-07 -1.79667e-20 -7.14598e-09)
(-9.67722e-07 1.0147e-05 2.06786e-20 9.76272e-07 3.80542e-21 -8.55035e-09)
(8.10481e-06 -6.24167e-06 -2.21756e-22 -8.10748e-06 -2.17762e-22 2.67705e-09)
(8.84185e-06 -4.90669e-06 8.28607e-21 -8.83796e-06 7.31242e-22 -3.8932e-09)
(9.37459e-06 -3.51471e-06 -4.52483e-20 -9.36233e-06 -8.6451e-21 -1.22576e-08)
(9.74505e-06 -1.84995e-06 8.34067e-20 -9.75253e-06 1.7402e-20 7.48195e-09)
(9.81407e-06 2.03767e-08 -1.10749e-19 -9.81112e-06 -2.30241e-20 -2.95596e-09)
(9.51322e-06 1.9191e-06 1.39042e-19 -9.50913e-06 3.33419e-20 -4.09558e-09)
(8.81674e-06 3.80056e-06 1.30086e-19 -8.81639e-06 1.78419e-20 -3.5259e-10)
(7.7343e-06 5.52767e-06 -1.24831e-19 -7.7333e-06 -2.94139e-20 -1.00655e-09)
(6.37559e-06 6.93843e-06 -1.69871e-20 -6.37171e-06 8.12146e-21 -3.88133e-09)
(4.87961e-06 7.97276e-06 1.98721e-20 -4.87401e-06 -1.33985e-20 -5.5953e-09)
(3.33546e-06 8.65819e-06 -9.40253e-20 -3.33024e-06 -9.21262e-21 -5.21796e-09)
(1.83717e-06 9.02797e-06 1.23252e-19 -1.83147e-06 1.78359e-20 -5.69556e-09)
(4.54102e-07 9.13476e-06 7.50741e-20 -4.47566e-07 1.86844e-20 -6.53649e-09)
(-7.99321e-07 9.03805e-06 1.13909e-20 8.08015e-07 -9.61319e-21 -8.69456e-09)
(7.1267e-06 -5.58218e-06 -1.59246e-21 -7.12932e-06 -8.4214e-22 2.62235e-09)
(7.78939e-06 -4.40272e-06 7.60678e-21 -7.78558e-06 1.57679e-21 -3.80823e-09)
(8.27222e-06 -3.17257e-06 -1.5289e-21 -8.26166e-06 -2.09706e-21 -1.05613e-08)
(8.61316e-06 -1.69804e-06 -4.86431e-20 -8.61992e-06 -1.39487e-20 6.75458e-09)
(8.68704e-06 -3.69061e-08 -1.15464e-19 -8.68477e-06 -2.39285e-20 -2.26226e-09)
(8.43264e-06 1.64983e-06 -8.1694e-20 -8.42911e-06 -1.69634e-20 -3.52909e-09)
(7.82691e-06 3.3244e-06 -1.39661e-19 -7.82651e-06 -2.79421e-20 -4.07365e-10)
(6.87694e-06 4.86565e-06 5.58235e-20 -6.87594e-06 1.30189e-20 -9.94308e-10)
(5.67996e-06 6.12731e-06 2.59051e-20 -5.67642e-06 1.48301e-21 -3.54659e-09)
(4.359e-06 7.05599e-06 -2.92496e-19 -4.35393e-06 -3.44729e-20 -5.06752e-09)
(2.99404e-06 7.67558e-06 -5.62855e-20 -2.98926e-06 4.1804e-21 -4.77781e-09)
(1.66824e-06 8.01556e-06 -1.17684e-19 -1.66312e-06 -1.45497e-20 -5.12775e-09)
(4.44918e-07 8.12299e-06 2.11645e-19 -4.38665e-07 1.66214e-20 -6.2526e-09)
(-6.66072e-07 8.05152e-06 -2.23937e-19 6.72547e-07 -2.00691e-20 -6.47504e-09)
(-1.66411e-06 7.84622e-06 -8.67493e-20 1.67188e-06 -4.86238e-21 -7.77228e-09)
(6.27202e-06 -4.99603e-06 1.01478e-20 -6.27471e-06 3.96077e-21 2.69454e-09)
(6.86808e-06 -3.9523e-06 3.45881e-20 -6.86417e-06 9.2602e-21 -3.9139e-09)
(7.30579e-06 -2.864e-06 6.25825e-20 -7.2965e-06 1.4873e-20 -9.29398e-09)
(7.61896e-06 -1.55643e-06 6.30086e-20 -7.62509e-06 1.44739e-20 6.13367e-09)
(7.6953e-06 -8.00266e-08 9.73027e-20 -7.69355e-06 2.01696e-20 -1.75466e-09)
(7.47972e-06 1.41994e-06 9.59979e-20 -7.47668e-06 1.1615e-20 -3.0414e-09)
(6.95205e-06 2.91128e-06 -2.46114e-19 -6.95169e-06 -4.4818e-20 -3.58038e-10)
(6.11685e-06 4.28705e-06 -1.2251e-19 -6.11593e-06 -1.07551e-20 -9.24005e-10)
(5.06045e-06 5.4158e-06 1.73644e-19 -5.05719e-06 2.8381e-20 -3.25988e-09)
(3.89233e-06 6.24916e-06 3.38134e-19 -3.88776e-06 5.73392e-20 -4.56546e-09)
(2.68406e-06 6.80816e-06 1.64646e-19 -2.67965e-06 1.52101e-20 -4.41236e-09)
(1.50966e-06 7.1191e-06 -3.16948e-20 -1.50476e-06 -4.56467e-21 -4.89312e-09)
(4.26222e-07 7.22415e-06 -6.50735e-20 -4.2054e-07 -1.17925e-20 -5.68158e-09)
(-5.57791e-07 7.17106e-06 2.61629e-19 5.63779e-07 3.01027e-20 -5.9873e-09)
(-1.44324e-06 6.99879e-06 -4.92412e-20 1.44979e-06 -6.56653e-21 -6.54853e-09)
(5.52374e-06 -4.47294e-06 8.04333e-21 -5.52676e-06 1.4402e-21 3.02381e-09)
(6.06024e-06 -3.54928e-06 -6.99623e-21 -6.05631e-06 -2.45455e-21 -3.9271e-09)
(6.45703e-06 -2.58577e-06 -2.49083e-20 -6.44887e-06 -5.90731e-21 -8.15568e-09)
(6.74427e-06 -1.42528e-06 -2.43432e-20 -6.74981e-06 -1.00647e-20 5.54675e-09)
(6.82109e-06 -1.1177e-07 -2.62796e-19 -6.81988e-06 -5.2823e-20 -1.20382e-09)
(6.63827e-06 1.22278e-06 -4.91673e-20 -6.63566e-06 -6.74926e-22 -2.6112e-09)
(6.17774e-06 2.55204e-06 1.31477e-19 -6.17745e-06 2.86806e-20 -2.97207e-10)
(5.44237e-06 3.78054e-06 1.14697e-19 -5.44152e-06 1.58922e-20 -8.47494e-10)
(4.50874e-06 4.79031e-06 -2.7768e-19 -4.50578e-06 -4.0812e-20 -2.96225e-09)
(3.47442e-06 5.53779e-06 4.60682e-20 -3.47023e-06 -2.32165e-21 -4.192e-09)
(2.40351e-06 6.04146e-06 -2.7098e-20 -2.39939e-06 -3.50708e-21 -4.1186e-09)
(1.36239e-06 6.32495e-06 4.79998e-21 -1.35801e-06 4.66744e-21 -4.37745e-09)
(4.02236e-07 6.42472e-06 -8.35773e-20 -3.97051e-07 -4.29562e-21 -5.18437e-09)
(-4.70034e-07 6.38584e-06 -1.50293e-19 4.75701e-07 -2.32317e-20 -5.66708e-09)
(-1.25458e-06 6.23981e-06 2.03383e-21 1.26011e-06 6.03788e-22 -5.53794e-09)
(4.86803e-06 -4.00601e-06 -2.34919e-21 -4.87135e-06 -2.29185e-22 3.31839e-09)
(5.35085e-06 -3.18828e-06 2.31462e-20 -5.34727e-06 5.44999e-21 -3.58917e-09)
(5.71029e-06 -2.33479e-06 2.33986e-20 -5.70329e-06 4.5432e-21 -7.0053e-09)
(5.97354e-06 -1.30383e-06 8.05208e-21 -5.97858e-06 1.49457e-21 5.03746e-09)
(6.0495e-06 -1.34347e-07 3.4515e-20 -6.04868e-06 1.31744e-20 -8.21851e-10)
(5.89438e-06 1.05371e-06 2.15263e-19 -5.89211e-06 3.64419e-20 -2.2715e-09)
(5.4917e-06 2.23914e-06 -1.25764e-19 -5.49149e-06 -2.58815e-20 -2.09153e-10)
(4.84347e-06 3.33626e-06 8.65234e-20 -4.84261e-06 2.50355e-20 -8.6193e-10)
(4.01722e-06 4.23974e-06 3.04519e-19 -4.01453e-06 3.96744e-20 -2.69616e-09)
(3.10047e-06 4.90982e-06 -2.29296e-19 -3.09665e-06 -3.23994e-20 -3.81428e-09)
(2.15044e-06 5.36296e-06 1.88499e-19 -2.14669e-06 2.54183e-20 -3.75109e-09)
(1.2265e-06 5.62e-06 1.32753e-19 -1.2223e-06 8.80978e-21 -4.19454e-09)
(3.74504e-07 5.71413e-06 2.25754e-19 -3.69526e-07 2.20311e-20 -4.97806e-09)
(-3.97401e-07 5.6856e-06 -2.62481e-20 4.02608e-07 -2.30154e-21 -5.20643e-09)
(-1.09489e-06 5.56257e-06 -9.64846e-20 1.09924e-06 -7.24728e-21 -4.35079e-09)
(-1.70886e-06 5.37125e-06 -1.1208e-19 1.71491e-06 -6.32597e-21 -6.04628e-09)
(4.29266e-06 -3.58946e-06 2.55906e-21 -4.29598e-06 -6.7551e-22 3.3172e-09)
(4.72691e-06 -2.86507e-06 -5.96764e-20 -4.72396e-06 -1.13442e-20 -2.94504e-09)
(5.0524e-06 -2.10819e-06 7.24742e-20 -5.0466e-06 1.57958e-20 -5.80033e-09)
(5.29338e-06 -1.19154e-06 -2.32504e-20 -5.2981e-06 -2.77855e-21 4.718e-09)
(5.36774e-06 -1.4987e-07 1.94643e-19 -5.36727e-06 3.51341e-20 -4.66983e-10)
(5.23597e-06 9.08444e-07 -1.2987e-19 -5.23406e-06 -2.74358e-20 -1.9092e-09)
(4.88344e-06 1.96593e-06 2.08779e-20 -4.88331e-06 1.08832e-20 -1.24974e-10)
(4.31133e-06 2.94604e-06 3.20011e-19 -4.31054e-06 3.84603e-20 -7.91925e-10)
(3.57936e-06 3.75437e-06 -3.67493e-19 -3.57682e-06 -5.76629e-20 -2.53778e-09)
(2.76594e-06 4.3548e-06 1.50762e-19 -2.76239e-06 2.90885e-20 -3.55125e-09)
(1.92255e-06 4.76199e-06 -2.33457e-19 -1.91895e-06 -4.03814e-20 -3.60138e-09)
(1.10188e-06 4.99457e-06 -2.91953e-19 -1.0981e-06 -3.56546e-20 -3.7744e-09)
(3.46059e-07 5.08232e-06 -1.48544e-19 -3.41541e-07 -1.87002e-20 -4.51856e-09)
(-3.39028e-07 5.06045e-06 5.69822e-20 3.43744e-07 1.17204e-20 -4.71554e-09)
(-9.56579e-07 4.95823e-06 1.53199e-19 9.60571e-07 1.48111e-20 -3.99176e-09)
(-1.50084e-06 4.79102e-06 6.69911e-20 1.50559e-06 9.57661e-21 -4.74293e-09)
(4.17736e-06 -2.57527e-06 -2.05709e-20 -4.17507e-06 -4.83205e-21 -2.29514e-09)
(4.47207e-06 -1.90343e-06 -2.40675e-20 -4.46726e-06 -4.74107e-21 -4.81777e-09)
(4.69263e-06 -1.08774e-06 -9.6264e-21 -4.69705e-06 -3.97195e-21 4.41707e-09)
(4.76464e-06 -1.59512e-07 -1.42841e-19 -4.76452e-06 -2.3742e-20 -1.18819e-10)
(4.65269e-06 7.83602e-07 2.30307e-19 -4.65109e-06 4.19429e-20 -1.59616e-09)
(4.34372e-06 1.72719e-06 -9.58601e-20 -4.34364e-06 -2.53537e-20 -8.17755e-11)
(3.83815e-06 2.60297e-06 -4.12174e-19 -3.83747e-06 -6.40941e-20 -6.79988e-10)
(3.18934e-06 3.32588e-06 3.61083e-19 -3.18702e-06 6.72945e-20 -2.31721e-09)
(2.46702e-06 3.86377e-06 5.23488e-20 -2.4638e-06 -6.92101e-22 -3.2217e-09)
(1.71781e-06 4.22917e-06 1.11428e-19 -1.71444e-06 2.76274e-20 -3.3664e-09)
(9.88221e-07 4.43909e-06 1.32012e-19 -9.84601e-07 2.09474e-20 -3.6196e-09)
(3.17091e-07 4.51992e-06 -1.48926e-20 -3.1276e-07 6.0067e-21 -4.33099e-09)
(-2.90851e-07 4.50399e-06 2.90961e-20 2.95309e-07 -1.40501e-21 -4.45742e-09)
(-8.37503e-07 4.41603e-06 -1.56962e-19 8.41281e-07 -1.76976e-20 -3.77786e-09)
(-1.32199e-06 4.27243e-06 8.63156e-20 1.32631e-06 6.20159e-21 -4.32795e-09)
(-1.74987e-06 4.08714e-06 -1.64264e-19 1.75706e-06 -1.63422e-20 -7.19648e-09)
(3.6929e-06 -2.31495e-06 -1.54625e-20 -3.69113e-06 -2.49291e-21 -1.77054e-09)
(3.95975e-06 -1.71833e-06 3.8822e-20 -3.9559e-06 6.13507e-21 -3.8462e-09)
(4.16151e-06 -9.92078e-07 -1.15069e-19 -4.1656e-06 -2.23956e-20 4.09059e-09)
(4.23067e-06 -1.64478e-07 3.08833e-20 -4.23086e-06 4.80185e-21 1.8349e-10)
(4.1356e-06 6.76186e-07 -2.20354e-19 -4.1343e-06 -4.01335e-20 -1.30278e-09)
(3.86445e-06 1.51838e-06 5.05471e-20 -3.86446e-06 1.13012e-20 7.67845e-12)
(3.41732e-06 2.30096e-06 1.4133e-20 -3.41668e-06 7.94557e-21 -6.39906e-10)
(2.84166e-06 2.94749e-06 -1.77609e-20 -2.83953e-06 -1.07541e-20 -2.12617e-09)
(2.19986e-06 3.42904e-06 -5.27204e-20 -2.19685e-06 -3.26848e-21 -3.0103e-09)
(1.53389e-06 3.75663e-06 2.92662e-19 -1.53072e-06 3.42327e-20 -3.1615e-09)
(8.85156e-07 3.94566e-06 -3.35026e-20 -8.81792e-07 -9.40978e-21 -3.36421e-09)
(2.88715e-07 4.01953e-06 2.62912e-19 -2.84719e-07 2.55176e-20 -3.99698e-09)
(-2.50689e-07 4.00765e-06 -8.46103e-20 2.55023e-07 -1.08333e-20 -4.3342e-09)
(-7.3544e-07 3.93194e-06 9.25765e-20 7.39094e-07 1.42312e-20 -3.65398e-09)
(-1.16452e-06 3.80829e-06 -7.36636e-20 1.16859e-06 -1.0101e-20 -4.07745e-09)
(-1.54321e-06 3.64633e-06 1.24606e-19 1.54945e-06 1.6958e-20 -6.23748e-09)
(3.26549e-06 -2.08134e-06 -7.35629e-20 -3.26413e-06 -1.48739e-20 -1.36145e-09)
(3.50707e-06 -1.55084e-06 -9.09894e-21 -3.50403e-06 1.92113e-21 -3.04715e-09)
(3.69159e-06 -9.03912e-07 1.88675e-19 -3.69538e-06 3.62346e-20 3.78708e-09)
(3.75763e-06 -1.65907e-07 1.13377e-21 -3.758e-06 -1.28967e-21 3.72205e-10)
(3.67686e-06 5.83771e-07 1.38031e-19 -3.67582e-06 2.38622e-20 -1.037e-09)
(3.43869e-06 1.3356e-06 -1.61205e-19 -3.43877e-06 -2.95791e-20 8.15732e-11)
(3.04299e-06 2.0348e-06 2.18876e-20 -3.04245e-06 6.56867e-21 -5.37589e-10)
(2.53178e-06 2.61299e-06 -6.69358e-20 -2.52991e-06 -6.2989e-21 -1.86868e-09)
(1.96127e-06 3.04382e-06 5.75987e-20 -1.95859e-06 5.4646e-21 -2.68195e-09)
(1.36902e-06 3.33724e-06 -1.53944e-19 -1.36614e-06 -3.18773e-20 -2.88803e-09)
(7.91889e-07 3.50685e-06 -8.46918e-20 -7.88678e-07 -4.3953e-21 -3.21057e-09)
(2.61639e-07 3.57402e-06 -2.91716e-19 -2.57702e-07 -3.5398e-20 -3.93749e-09)
(-2.17347e-07 3.56531e-06 8.58702e-20 2.2116e-07 1.46164e-20 -3.81341e-09)
(-6.46874e-07 3.49951e-06 3.99304e-20 6.50483e-07 1.91915e-21 -3.60879e-09)
(-1.0268e-06 3.39162e-06 -3.18912e-20 1.03098e-06 -4.15614e-22 -4.18277e-09)
(-1.36227e-06 3.25055e-06 -3.70748e-20 1.36821e-06 -3.60653e-21 -5.94146e-09)
(2.88815e-06 -1.87129e-06 5.36049e-20 -2.88712e-06 1.18418e-20 -1.02875e-09)
(3.10682e-06 -1.3994e-06 8.78062e-20 -3.10443e-06 1.5305e-20 -2.39634e-09)
(3.2755e-06 -8.22901e-07 -8.01974e-20 -3.27898e-06 -1.93734e-20 3.48078e-09)
(3.33824e-06 -1.64717e-07 -2.11432e-19 -3.33877e-06 -3.56108e-20 5.30248e-10)
(3.26965e-06 5.04012e-07 1.85984e-20 -3.26885e-06 2.9619e-21 -7.98704e-10)
(3.06029e-06 1.17533e-06 -4.38026e-20 -3.06043e-06 -4.27173e-21 1.31396e-10)
(2.70975e-06 1.8002e-06 1.35337e-19 -2.70932e-06 2.36186e-20 -4.2794e-10)
(2.25555e-06 2.31711e-06 1.87389e-19 -2.25383e-06 2.41957e-20 -1.71178e-09)
(1.74817e-06 2.70241e-06 -1.21957e-19 -1.74572e-06 -1.7032e-20 -2.44451e-09)
(1.22119e-06 2.96492e-06 -1.80824e-19 -1.2185e-06 -1.6102e-20 -2.69027e-09)
(7.07585e-07 3.11689e-06 3.5787e-19 -7.04537e-07 4.52586e-20 -3.04831e-09)
(2.3622e-07 3.17766e-06 1.79054e-19 -2.32786e-07 2.46857e-20 -3.43438e-09)
(-1.89068e-07 3.17048e-06 -5.35487e-20 1.92661e-07 -1.2515e-20 -3.59353e-09)
(-5.70389e-07 3.11291e-06 2.35349e-20 5.7399e-07 1.72333e-21 -3.60134e-09)
(-9.05471e-07 3.01888e-06 1.57473e-19 9.09798e-07 1.80756e-20 -4.32725e-09)
(-1.20436e-06 2.89623e-06 1.37184e-19 1.20921e-06 1.44813e-20 -4.84381e-09)
(-1.4685e-06 2.75367e-06 2.13499e-20 1.47541e-06 1.47479e-21 -6.91067e-09)
(2.55485e-06 -1.68239e-06 -1.3295e-20 -2.55408e-06 -3.58706e-21 -7.68836e-10)
(2.75283e-06 -1.26242e-06 -9.97929e-20 -2.75096e-06 -1.86926e-20 -1.86941e-09)
(2.90688e-06 -7.48592e-07 1.50726e-20 -2.91003e-06 7.88148e-21 3.14773e-09)
(2.96618e-06 -1.61488e-07 3.22799e-19 -2.96675e-06 5.40934e-20 5.64515e-10)
(2.90803e-06 4.35223e-07 -2.45266e-19 -2.90737e-06 -4.42452e-20 -6.61535e-10)
(2.72386e-06 1.03467e-06 2.20482e-20 -2.72404e-06 5.89088e-21 1.77484e-10)
(2.41311e-06 1.59308e-06 -1.14075e-20 -2.41276e-06 -2.27515e-21 -3.4527e-10)
(2.00933e-06 2.05517e-06 -1.23005e-19 -2.00788e-06 -1.44509e-20 -1.45466e-09)
(1.55792e-06 2.39958e-06 3.44286e-19 -1.55577e-06 4.46746e-20 -2.14969e-09)
(1.08876e-06 2.63427e-06 1.8844e-20 -1.08632e-06 -5.59274e-21 -2.43733e-09)
(6.31838e-07 2.77014e-06 -3.42757e-19 -6.29e-07 -4.81071e-20 -2.83778e-09)
(2.12529e-07 2.82457e-06 9.03007e-20 -2.09371e-07 9.38247e-21 -3.15788e-09)
(-1.65308e-07 2.81885e-06 -1.65046e-19 1.68671e-07 -1.94955e-20 -3.36258e-09)
(-5.03325e-07 2.76837e-06 -1.50294e-19 5.06557e-07 -1.81857e-20 -3.23183e-09)
(-7.99857e-07 2.68554e-06 -6.85682e-20 8.04022e-07 -8.94735e-21 -4.16474e-09)
(-1.06432e-06 2.5789e-06 2.64877e-20 1.06908e-06 1.32982e-21 -4.76125e-09)
(-1.29848e-06 2.4539e-06 1.93203e-20 1.30432e-06 1.30225e-21 -5.83253e-09)
(2.26033e-06 -1.51252e-06 -3.52412e-20 -2.25971e-06 -5.86176e-21 -6.20887e-10)
(2.43963e-06 -1.13858e-06 6.49354e-20 -2.43818e-06 1.30168e-20 -1.45468e-09)
(2.58005e-06 -6.80578e-07 4.46229e-20 -2.58291e-06 3.27575e-21 2.85969e-09)
(2.63594e-06 -1.5698e-07 -3.5156e-19 -2.63652e-06 -5.99573e-20 5.79027e-10)
(2.58673e-06 3.75505e-07 2.55299e-19 -2.58622e-06 4.73523e-20 -5.09037e-10)
(2.42461e-06 9.10935e-07 -9.18068e-20 -2.42483e-06 -1.33601e-20 2.14214e-10)
(2.14899e-06 1.41008e-06 2.90636e-19 -2.14871e-06 4.50643e-20 -2.79535e-10)
(1.7898e-06 1.82313e-06 2.04479e-19 -1.78853e-06 2.3133e-20 -1.26691e-09)
(1.38799e-06 2.13089e-06 -5.1584e-19 -1.38609e-06 -7.62405e-20 -1.90378e-09)
(9.70281e-07 2.34053e-06 -2.35909e-19 -9.68085e-07 -2.60371e-20 -2.19582e-09)
(5.63572e-07 2.46179e-06 9.90903e-20 -5.61044e-07 1.96722e-20 -2.52837e-09)
(1.90459e-07 2.51047e-06 -3.73756e-20 -1.87597e-07 -6.44642e-21 -2.86188e-09)
(-1.45081e-07 2.50542e-06 1.17312e-19 1.48173e-07 1.89341e-20 -3.09239e-09)
(-4.44927e-07 2.46069e-06 -9.50674e-20 4.48151e-07 -8.94716e-21 -3.2243e-09)
(-7.07337e-07 2.38742e-06 -3.11458e-20 7.11681e-07 -3.4434e-21 -4.34407e-09)
(-9.40901e-07 2.29421e-06 -2.134e-20 9.45716e-07 -6.54675e-22 -4.8148e-09)
(-1.14897e-06 2.18488e-06 -2.16433e-20 1.15421e-06 -3.08161e-21 -5.2375e-09)
(1.99999e-06 -1.35975e-06 3.14481e-21 -1.99955e-06 1.52659e-21 -4.42529e-10)
(2.16241e-06 -1.02678e-06 7.38228e-20 -2.16128e-06 1.2799e-20 -1.13832e-09)
(2.29015e-06 -6.18493e-07 -8.2834e-20 -2.29277e-06 -1.38067e-20 2.62279e-09)
(2.34271e-06 -1.51561e-07 1.90341e-19 -2.34327e-06 3.4155e-20 5.54856e-10)
(2.30115e-06 3.23699e-07 -9.86459e-20 -2.30073e-06 -1.85713e-20 -4.18661e-10)
(2.15843e-06 8.01984e-07 1.5002e-19 -2.15865e-06 2.24764e-20 2.14839e-10)
(1.91381e-06 1.24811e-06 -2.73762e-19 -1.91361e-06 -4.83479e-20 -1.97321e-10)
(1.59421e-06 1.61734e-06 -2.82882e-20 -1.59311e-06 -3.53346e-21 -1.09719e-09)
(1.2363e-06 1.89237e-06 4.26818e-19 -1.23468e-06 6.95308e-20 -1.6204e-09)
(8.64318e-07 2.07944e-06 -2.60807e-20 -8.62381e-07 -1.37004e-22 -1.93768e-09)
(5.02161e-07 2.18744e-06 -6.33236e-20 -4.99886e-07 -7.8172e-21 -2.27417e-09)
(1.70296e-07 2.23078e-06 -1.72158e-20 -1.67682e-07 7.14904e-22 -2.6138e-09)
(-1.27868e-07 2.22607e-06 1.57034e-19 1.30676e-07 1.91094e-20 -2.80778e-09)
(-3.93819e-07 2.18612e-06 9.14573e-20 3.96927e-07 1.11246e-20 -3.10762e-09)
(-6.26165e-07 2.12128e-06 -9.77256e-20 6.30269e-07 -1.22224e-20 -4.1041e-09)
(-8.31536e-07 2.03932e-06 1.50089e-19 8.36397e-07 1.79363e-20 -4.86181e-09)
(-1.01705e-06 1.94365e-06 2.33414e-20 1.0215e-06 2.38477e-21 -4.45549e-09)
(-1.18028e-06 1.83889e-06 -1.27469e-19 1.18568e-06 -1.26073e-20 -5.39721e-09)
(1.76983e-06 -1.22234e-06 -8.76921e-21 -1.76953e-06 -2.9167e-21 -2.99228e-10)
(1.91699e-06 -9.25839e-07 -1.15315e-19 -1.91609e-06 -2.04783e-20 -9.00486e-10)
(2.03303e-06 -5.61934e-07 2.69369e-20 -2.03543e-06 6.24476e-21 2.4006e-09)
(2.08225e-06 -1.45596e-07 1.84521e-20 -2.08279e-06 9.97793e-22 5.40949e-10)