/*--------------------------------*- C++ -*----------------------------------*\
| =========                 |                                                 |
| \\      /  F ield         | OpenFOAM: The Open Source CFD Toolbox           |
|  \\    /   O peration     | Version:  2506                                  |
|   \\  /    A nd           | Website:  www.openfoam.com                      |
|    \\/     M anipulation  |                                                 |
\*---------------------------------------------------------------------------*/
FoamFile
{
    version     2.0;
    format      ascii;
    arch        "LSB;label=32;scalar=64";
    class       volScalarField;
    location    "50";
    object      turbulenceProperties:L;
}
// * * * * * * * * * * * * * * * * * * * * * * * * * * * * * * * * * * * * * //

dimensions      [0 1 0 0 0 0 0];

internalField   nonuniform List<scalar> 
1340
(
0.0105214
0.0105708
0.0106256
0.0106944
0.0108077
0.0114468
0.0115039
0.0115656
0.0116373
0.0117528
0.0118749
0.0124121
0.0124768
0.012546
0.0126205
0.0127377
0.0128621
0.0130132
0.0134206
0.0134923
0.0135692
0.0136468
0.0137657
0.0138926
0.0140446
0.0142239
0.0144748
0.0145537
0.014638
0.0147193
0.0148397
0.0149694
0.0151223
0.0152994
0.015498
0.0155781
0.0156643
0.0157557
0.0158412
0.0159634
0.0160961
0.01625
0.0164249
0.0166176
0.0168264
0.0167341
0.0168273
0.016926
0.0170153
0.0171399
0.017276
0.0174309
0.0176041
0.0177912
0.0179929
0.0179464
0.0180464
0.0181517
0.0182454
0.0183733
0.0185131
0.0186689
0.0188402
0.0190223
0.0192149
0.0194182
0.0192184
0.0193258
0.0194375
0.0195356
0.019668
0.0198111
0.0199681
0.0201373
0.0203146
0.020499
0.0206934
0.0205543
0.0206696
0.0207874
0.0208904
0.0210275
0.0211743
0.0213327
0.0215001
0.0216724
0.0218495
0.0220326
0.0222221
0.0219582
0.0220819
0.0222063
0.022314
0.0224562
0.0226072
0.0227669
0.0229329
0.0231008
0.0232706
0.0234435
0.0236223
0.0234348
0.0235675
0.0236986
0.0238109
0.0239587
0.0241145
0.0242758
0.0244405
0.0246042
0.0247669
0.0249297
0.0250999
0.024989
0.025131
0.0252695
0.0253864
0.02554
0.0257009
0.0258642
0.0260278
0.0261877
0.0263439
0.0264978
0.0266555
0.0268202
0.0266258
0.026778
0.026924
0.0270453
0.0272055
0.0273719
0.0275372
0.0277005
0.0278567
0.0280065
0.0281522
0.0282984
0.0284552
0.0283503
0.0285142
0.0286672
0.0287933
0.0289604
0.0291326
0.0293003
0.0294636
0.0296171
0.0297613
0.0298991
0.0300356
0.0301787
0.0303279
0.0301682
0.0303449
0.0305051
0.0306361
0.0308108
0.0309891
0.0311601
0.0313237
0.0314746
0.0316138
0.0317443
0.0318715
0.032004
0.0321452
0.0320852
0.0322755
0.0324435
0.0325798
0.0327627
0.0329478
0.0331225
0.0332871
0.0334363
0.0335711
0.0336948
0.0338135
0.0339363
0.0340709
0.0341071
0.0343119
0.0344881
0.0346308
0.0348227
0.0350154
0.0351948
0.035361
0.0355088
0.0356397
0.0357575
0.0358691
0.035983
0.0361068
0.0362364
0.0362392
0.036461
0.0366458
0.0367956
0.0369975
0.037199
0.0373837
0.0375526
0.0376999
0.0378276
0.0379403
0.0380455
0.0381514
0.0382667
0.0383902
0.0384909
0.0387299
0.0389237
0.0390815
0.039295
0.0395064
0.0396972
0.0398698
0.0400175
0.040143
0.0402512
0.0403496
0.040451
0.0405576
0.0406787
0.0408688
0.0411259
0.0413299
0.0414966
0.0417231
0.0419454
0.0421437
0.042321
0.04247
0.0425939
0.0426986
0.0427931
0.0428886
0.0429884
0.0431016
0.0432246
0.0433797
0.0436567
0.0438728
0.0440499
0.04429
0.0445246
0.0447315
0.0449146
0.0450663
0.0451898
0.0452918
0.0453824
0.0454727
0.045571
0.0456696
0.0457999
0.0463321
0.0465622
0.0467502
0.0470049
0.0472529
0.0474697
0.0476598
0.0478153
0.0479394
0.0480402
0.0481284
0.0482157
0.0483082
0.0484069
0.0485265
0.0486653
0.0491624
0.0494068
0.0496068
0.0498772
0.0501395
0.0503677
0.0505664
0.0507269
0.050853
0.0509537
0.0510401
0.0511261
0.0512158
0.0513125
0.0514249
0.0515691
0.0521561
0.0524177
0.05263
0.0529169
0.0531945
0.0534352
0.0536438
0.053811
0.0539407
0.0540428
0.0541312
0.0542168
0.054303
0.0544012
0.0545151
0.0546586
0.055325
0.0556052
0.0558304
0.0561345
0.0564288
0.0566833
0.0569032
0.0570792
0.0572136
0.0573193
0.0574105
0.0574965
0.0575875
0.0576887
0.0578045
0.0579402
0.0580807
0.0586799
0.0589802
0.0592196
0.0595424
0.0598538
0.0601234
0.0603567
0.0605424
0.0606837
0.0607949
0.0608908
0.0609824
0.0610756
0.0611811
0.0613043
0.0614348
0.06158
0.0622324
0.0625538
0.0628102
0.0631524
0.063482
0.0637687
0.0640168
0.0642148
0.0643644
0.0644826
0.0645856
0.0646833
0.0647846
0.0648988
0.0650322
0.0651635
0.0653053
0.0659941
0.0663377
0.0666148
0.0669772
0.0673269
0.067632
0.0678977
0.0681095
0.0682695
0.0683975
0.0685112
0.0686172
0.0687303
0.0688574
0.0690009
0.069143
0.0692774
0.0694063
0.0699778
0.0703443
0.0706448
0.0710303
0.0714022
0.0717287
0.0720141
0.0722421
0.0724156
0.0725555
0.0726805
0.0728002
0.0729279
0.0730718
0.073229
0.0733844
0.0735111
0.0736488
0.0741954
0.0745862
0.0749136
0.0753259
0.0757228
0.0760737
0.0763816
0.0766293
0.0768182
0.0769722
0.0771143
0.0772506
0.0773944
0.0775592
0.0777346
0.0779072
0.0780472
0.0781757
0.0786621
0.0790779
0.0794349
0.0798783
0.0803035
0.0806819
0.0810163
0.0812876
0.0814963
0.0816686
0.0818293
0.0819852
0.0821525
0.0823417
0.0825425
0.0827412
0.0828992
0.0830196
0.0831388
0.0833932
0.0838356
0.0842257
0.0847029
0.0851601
0.0855694
0.0859346
0.0862334
0.0864653
0.0866616
0.0868489
0.0870304
0.0872214
0.0874399
0.0876709
0.087894
0.0880752
0.0881926
0.0883107
0.0884085
0.0888798
0.0893043
0.0898172
0.0903089
0.0907522
0.0911512
0.091483
0.0917458
0.0919718
0.0921899
0.0924015
0.0926278
0.092879
0.0931454
0.0933992
0.093608
0.0937394
0.0938356
0.0937301
0.0942334
0.0946929
0.0952416
0.0957695
0.0962487
0.0966849
0.0970542
0.0973517
0.0976162
0.0978782
0.0981306
0.0983928
0.0986881
0.0989951
0.0992899
0.0995422
0.0996985
0.0997832
0.099861
0.0993853
0.0999241
0.100417
0.101001
0.101565
0.10208
0.102554
0.102965
0.103306
0.103618
0.103931
0.104233
0.10455
0.104896
0.105255
0.105601
0.105882
0.106068
0.106143
0.106233
0.105401
0.10598
0.106507
0.107123
0.107721
0.10827
0.108783
0.109237
0.109626
0.109995
0.110376
0.110745
0.111122
0.111537
0.111953
0.112348
0.112685
0.112892
0.112991
0.113057
0.111806
0.112431
0.11299
0.113636
0.114267
0.114849
0.115398
0.115899
0.116342
0.116777
0.117233
0.117683
0.118147
0.118644
0.119143
0.119612
0.119986
0.12025
0.120369
0.120356
0.120338
0.118625
0.119303
0.119894
0.120569
0.121232
0.121845
0.122434
0.122984
0.123483
0.12399
0.12454
0.125087
0.125648
0.126256
0.12685
0.127399
0.127861
0.128156
0.128256
0.128215
0.128181
0.125883
0.126616
0.12724
0.127946
0.128641
0.129288
0.129919
0.130525
0.131091
0.131676
0.132322
0.132977
0.133665
0.134401
0.135124
0.135786
0.136305
0.136653
0.136771
0.136713
0.13664
0.133596
0.134384
0.135045
0.135783
0.136514
0.137199
0.137882
0.138557
0.139198
0.13987
0.140624
0.141401
0.142218
0.143114
0.143989
0.144781
0.145447
0.14583
0.145938
0.145907
0.145806
0.141784
0.142626
0.143322
0.144099
0.144869
0.145595
0.146342
0.147105
0.147842
0.148613
0.149475
0.150374
0.151347
0.152416
0.153472
0.154458
0.155211
0.155658
0.155872
0.155877
0.15571
0.155452
0.150466
0.151357
0.152089
0.152911
0.153721
0.154491
0.155316
0.156191
0.157043
0.15793
0.158917
0.15995
0.161066
0.162328
0.163609
0.164759
0.165687
0.166324
0.166657
0.166696
0.166462
0.166034
0.159675
0.160604
0.161373
0.162247
0.163095
0.163909
0.164823
0.165832
0.166829
0.167852
0.168969
0.170132
0.171415
0.172892
0.174377
0.175769
0.176986
0.177843
0.178312
0.178378
0.178071
0.177523
0.169451
0.170412
0.171215
0.172145
0.17303
0.17388
0.174892
0.176054
0.177212
0.178393
0.179668
0.18098
0.182422
0.184099
0.185846
0.187566
0.189085
0.190211
0.190878
0.190996
0.190641
0.189978
0.17986
0.180844
0.181671
0.18266
0.183575
0.184452
0.185564
0.18689
0.188227
0.189587
0.191035
0.192513
0.194149
0.196063
0.198095
0.200119
0.20202
0.20351
0.204369
0.204668
0.204396
0.203674
0.202993
0.190979
0.19197
0.192804
0.193852
0.194787
0.195681
0.196897
0.198388
0.199904
0.201466
0.203139
0.204836
0.206683
0.208849
0.21117
0.213578
0.215878
0.217745
0.219015
0.219538
0.219353
0.218662
0.217953
0.202891
0.203872
0.204689
0.20579
0.206727
0.207628
0.208947
0.210596
0.212298
0.214098
0.216049
0.218022
0.22016
0.222636
0.225294
0.228045
0.230777
0.233123
0.234713
0.23561
0.235713
0.235076
0.234272
0.215699
0.216649
0.217417
0.218549
0.219461
0.220353
0.221778
0.223561
0.225445
0.227551
0.229898
0.232266
0.234755
0.237585
0.240589
0.243765
0.246938
0.249705
0.251837
0.253094
0.253369
0.252962
0.252289
0.229529
0.230424
0.231088
0.232221
0.233059
0.233933
0.235455
0.23733
0.239411
0.24194
0.244834
0.247727
0.250705
0.253983
0.257401
0.260935
0.264535
0.267791
0.270256
0.271936
0.27269
0.272494
0.271744
0.24448
0.245283
0.245789
0.246887
0.247588
0.248442
0.250057
0.251961
0.25427
0.257405
0.26108
0.264697
0.268262
0.272051
0.275896
0.27988
0.283909
0.287546
0.29055
0.292597
0.293701
0.293649
0.29305
0.293625
0.260616
0.2613
0.261603
0.262636
0.263115
0.263964
0.265652
0.267518
0.270172
0.27419
0.278883
0.283375
0.287663
0.292053
0.296392
0.300756
0.305207
0.309322
0.31264
0.315153
0.316669
0.316778
0.316454
0.317568
0.278021
0.278575
0.278648
0.27957
0.279719
0.280585
0.282295
0.284057
0.287271
0.292572
0.298562
0.304075
0.309132
0.314147
0.31896
0.323816
0.328732
0.333229
0.337101
0.339946
0.34182
0.342319
0.34226
0.343932
0.296862
0.297277
0.297081
0.297834
0.297513
0.298426
0.300013
0.301603
0.305692
0.312786
0.320315
0.326925
0.332921
0.338766
0.344233
0.349539
0.354934
0.359983
0.364184
0.36759
0.369986
0.37072
0.371244
0.37411
0.317267
0.317498
0.317009
0.317538
0.316601
0.317595
0.318826
0.320186
0.32535
0.334667
0.343982
0.351942
0.359248
0.366386
0.372852
0.378949
0.384975
0.390472
0.395362
0.399222
0.40213
0.403518
0.404749
0.40847
0.339147
0.339142
0.338377
0.338623
0.336931
0.338035
0.338645
0.339812
0.345976
0.357712
0.368915
0.378639
0.388143
0.397569
0.40589
0.413172
0.420048
0.426344
0.431711
0.436396
0.440168
0.441961
0.444072
0.449192
0.362363
0.36205
0.361024
0.360859
0.358314
0.359519
0.359404
0.360441
0.366788
0.381149
0.394473
0.406647
0.419565
0.432561
0.443749
0.453113
0.461458
0.46859
0.475175
0.481053
0.48573
0.488746
0.491513
0.498837
0.512859
0.386937
0.386127
0.384812
0.384002
0.380631
0.381994
0.3816
0.382461
0.386395
0.404218
0.420628
0.435847
0.453479
0.471527
0.48663
0.498336
0.507571
0.515119
0.522212
0.529462
0.536006
0.539901
0.542259
0.55075
0.56689
0.411716
0.410239
0.408774
0.407293
0.403714
0.405522
0.406651
0.404591
0.404265
0.427767
0.44828
0.466927
0.49011
0.514252
0.534052
0.54828
0.557942
0.564525
0.571736
0.581287
0.590212
0.593791
0.59361
0.600253
0.61747
0.434118
0.431908
0.430481
0.428853
0.426132
0.429505
0.433812
0.42911
0.424996
0.453615
0.477106
0.498032
0.52527
0.554785
0.579662
0.597587
0.608673
0.614884
0.622788
0.636221
0.650898
0.657512
0.65478
0.658123
0.675154
0.4563
0.453341
0.452057
0.450325
0.448959
0.454223
0.46147
0.456413
0.450247
0.482676
0.508392
0.5315
0.561985
0.596554
0.627197
0.650556
0.665278
0.671784
0.67897
0.695942
0.721808
0.739633
0.738418
0.737539
0.752053
0.481943
0.478147
0.477041
0.474926
0.475372
0.482055
0.491842
0.486701
0.477196
0.511973
0.539978
0.565935
0.599747
0.639622
0.677043
0.707371
0.728696
0.737993
0.744341
0.763502
0.800672
0.840938
0.853779
0.847978
0.852755
0.511169
0.506441
0.505423
0.502657
0.505535
0.512751
0.525404
0.520342
0.505774
0.541847
0.571398
0.599024
0.634077
0.678045
0.722851
0.761487
0.791854
0.809712
0.820095
0.83906
0.882556
0.945728
0.989265
0.991551
0.979627
0.545269
0.539756
0.538746
0.53497
0.540794
0.54649
0.562897
0.556521
0.534723
0.570516
0.600657
0.62773
0.659384
0.702344
0.753312
0.804578
0.851284
0.886124
0.908827
0.935788
0.984603
1.06232
1.14644
1.18181
1.15324
0.585184
0.579449
0.578606
0.573653
0.582737
0.583102
0.605303
0.593419
0.561991
0.594808
0.624994
0.652766
0.680761
0.716506
0.762216
0.818855
0.887244
0.957473
1.01656
1.06955
1.13787
1.23724
1.35032
1.43098
1.41226
0.631517
0.626901
0.627051
0.621792
0.634664
0.624826
0.658303
0.629963
0.585801
0.612861
0.639354
0.668812
0.703031
0.745341
0.790162
0.836604
0.896103
0.980959
1.09006
1.20984
1.33784
1.46868
1.54309
1.50637
1.39465
1.30022
0.686809
0.685232
0.687672
0.684191
0.70125
0.677288
0.734727
0.663178
0.604107
0.630029
0.647615
0.670298
0.706558
0.761506
0.82447
0.876282
0.911698
0.94012
0.974069
1.01345
1.04364
1.05156
1.03205
0.993814
0.953684
0.926888
0.755634
0.760712
0.768366
0.768829
0.785546
0.742935
0.833287
0.672253
0.610422
0.647382
0.661887
0.678044
0.694748
0.726341
0.790467
0.869234
0.891819
0.84261
0.779162
0.72699
0.686938
0.656149
0.631965
0.610371
0.587669
0.56534
0.839291
0.863694
0.889493
0.896975
0.89331
0.817195
0.883401
0.639019
0.599093
0.617734
0.591283
0.589824
0.609474
0.642835
0.676812
0.692848
0.69225
0.69053
0.692936
0.694566
0.69201
0.683154
0.665063
0.63854
0.6108
0.589138
0.92072
0.991617
1.08467
1.12714
1.05328
0.909471
0.861196
0.613334
0.614037
0.606081
0.550924
0.5012
0.45499
0.419547
0.395791
0.380643
0.371228
0.364659
0.358763
0.352568
0.345855
0.338926
0.332124
0.326093
0.321794
0.318936
0.966056
1.08828
1.33748
1.63405
1.29571
0.993419
0.821167
0.68186
0.570712
0.392752
0.325725
0.290692
0.271457
0.260936
0.255484
0.252653
0.250838
0.249067
0.247048
0.244839
0.242616
0.240456
0.23834
0.235935
0.233544
0.231657
)
;

boundaryField
{
    inlet
    {
        type            calculated;
        value           nonuniform List<scalar> 
26
(
1.04285
1.17732
1.47325
1.9507
1.42891
1.03494
0.822564
0.864947
0.412365
0.293387
0.238396
0.207798
0.189258
0.177358
0.169531
0.164201
0.160412
0.157549
0.155211
0.153146
0.151204
0.14926
0.147203
0.144975
0.14277
0.140825
)
;
    }
    outlet
    {
        type            calculated;
        value           nonuniform List<scalar> 0();
    }
    walls
    {
        type            calculated;
        value           nonuniform List<scalar> 0();
    }
    frontAndBack
    {
        type            empty;
    }
    procBoundary0to1
    {
        type            processor;
        value           nonuniform List<scalar> 
94
(
0.00989934
0.0109269
0.0109269
0.0120237
0.0120237
0.0131933
0.0131933
0.014426
0.014426
0.0157128
0.0157128
0.0170503
0.0182044
0.0182044
0.0196336
0.0208933
0.0208933
0.0224241
0.023809
0.0252721
0.0252721
0.026994
0.0286112
0.0286112
0.0304908
0.032292
0.0342043
0.0342043
0.0363831
0.0385179
0.0407952
0.0407952
0.0433733
0.045928
0.045928
0.048829
0.0517062
0.0547869
0.0547869
0.0582427
0.0616996
0.0654195
0.0654195
0.0695708
0.0737531
0.0782759
0.0782759
0.0833025
0.0883756
0.0938995
0.0938995
0.1
0.106271
0.113036
0.113036
0.120386
0.128051
0.136456
0.145572
0.145572
0.155279
0.165539
0.176909
0.18929
0.18929
0.203001
0.217657
0.233984
0.252033
0.271736
0.271736
0.295699
0.319881
0.347503
0.37915
0.415457
0.459285
0.459285
0.528945
0.585281
0.639601
0.701262
0.782545
0.883572
0.995945
1.13595
1.37788
1.37788
1.24085
0.913371
0.545838
0.573418
0.316742
0.230317
)
;
    }
    procBoundary0to4
    {
        type            processor;
        value           nonuniform List<scalar> 
72
(
0.0104914
0.0114086
0.0123655
0.0133659
0.0144121
0.0155076
0.016655
0.017858
0.0191203
0.0204461
0.0218392
0.0233038
0.0248452
0.0264682
0.0281779
0.0299792
0.031878
0.0338806
0.0359941
0.0382276
0.0405887
0.0430833
0.0460367
0.0460367
0.0488467
0.05182
0.0549673
0.0582994
0.0618282
0.0655667
0.0695257
0.0737199
0.0781626
0.0828713
0.0878616
0.0931576
0.0987815
0.104762
0.111122
0.117893
0.125097
0.13276
0.140899
0.149548
0.158736
0.168507
0.178918
0.190056
0.201999
0.214845
0.228705
0.243704
0.259897
0.277352
0.296219
0.316663
0.338633
0.362008
0.386807
0.411968
0.435201
0.458425
0.485156
0.515607
0.55074
0.591163
0.63693
0.689898
0.752487
0.819796
0.871415
0.893598
)
;
    }
    procBoundary0to5
    {
        type            processor;
        value           nonuniform List<scalar> 4(0.00963417 0.00967529 0.00972343 0.00978915);
    }
}


// ************************************************************************* //
