/*--------------------------------*- C++ -*----------------------------------*\
| =========                 |                                                 |
| \\      /  F ield         | OpenFOAM: The Open Source CFD Toolbox           |
|  \\    /   O peration     | Version:  2506                                  |
|   \\  /    A nd           | Website:  www.openfoam.com                      |
|    \\/     M anipulation  |                                                 |
\*---------------------------------------------------------------------------*/
FoamFile
{
    version     2.0;
    format      ascii;
    arch        "LSB;label=32;scalar=64";
    class       volVectorField;
    location    "180.017606233241935";
    object      ddt0(U);
}
// * * * * * * * * * * * * * * * * * * * * * * * * * * * * * * * * * * * * * //

dimensions      [0 1 -2 0 0 0 0];

internalField   nonuniform List<vector> 
9700
(
(0.00293686 0.000137869 -1.78445e-23)
(0.00285106 0.000501195 1.71418e-24)
(0.00250388 7.80299e-05 2.82866e-28)
(0.00272013 0.000823799 1.70231e-23)
(0.00239904 0.000308754 -2.08176e-24)
(0.00244076 4.28712e-05 2.56942e-23)
(0.00247704 0.00121171 -4.40471e-24)
(0.00224687 0.00048236 2.34029e-36)
(0.00234761 0.00019608 2.79084e-23)
(0.00233794 4.40328e-06 0)
(0.00213025 0.00162874 -3.97085e-24)
(0.00195648 0.000682884 5.53422e-24)
(0.00221113 0.000285664 1.56316e-22)
(0.00225849 6.92412e-05 -3.30651e-23)
(0.00234349 -2.66859e-05 -2.9318e-23)
(0.00161831 0.002128 1.96415e-23)
(0.00154449 0.000862806 -2.87996e-27)
(0.00195081 0.000378727 5.20485e-24)
(0.00214031 6.546e-05 -7.94267e-36)
(0.00228864 -3.53696e-05 -2.38799e-23)
(0.00239113 -4.91861e-05 5.94234e-28)
(0.000898454 0.00271907 9.32197e-23)
(0.000937446 0.00104262 4.15117e-27)
(0.00158023 0.000426791 -1.21124e-24)
(0.00191508 3.81506e-05 8.74159e-23)
(0.00220499 -0.000114577 -2.19217e-22)
(0.00236599 -0.00011383 -5.29444e-24)
(0.00247918 -6.04401e-05 3.88402e-23)
(-0.000114698 0.00345621 6.16692e-23)
(8.49381e-05 0.0012058 1.5864e-22)
(0.00103516 0.000430252 2.53851e-23)
(0.00159184 -6.03164e-05 0)
(0.00204471 -0.000240372 -4.62378e-23)
(0.00232503 -0.00024834 1.30634e-36)
(0.00248793 -0.000156469 4.43413e-23)
(0.00257894 -5.91889e-05 3.35969e-22)
(-0.00153417 0.00437515 -1.64815e-22)
(-0.00110673 0.0013554 -6.48352e-23)
(0.000268182 0.000362485 2.01049e-22)
(0.00111675 -0.000252719 0)
(0.00181091 -0.000457091 -4.64538e-23)
(0.00224423 -0.000447837 1.38621e-23)
(0.00249665 -0.000319614 2.57793e-26)
(0.00262272 -0.000158298 3.94759e-22)
(0.00266691 -4.50131e-05 -3.29261e-25)
(-0.00354354 0.00557566 -1.74865e-22)
(-0.00278287 0.00146813 -3.56052e-22)
(-0.000799254 0.000202087 -2.50662e-22)
(0.00044406 -0.000575193 -3.82749e-37)
(0.00146577 -0.000807724 3.1652e-24)
(0.00212036 -0.000752121 -7.32806e-27)
(0.00250768 -0.000559387 2.23628e-23)
(0.00268354 -0.000320262 5.45354e-23)
(0.00274429 -0.000116862 -1.31287e-23)
(0.00271688 -1.85975e-05 -3.69084e-22)
(-0.00627432 0.00713458 1.86477e-22)
(-0.00513323 0.00154135 4.57023e-23)
(-0.00229406 -9.87024e-05 -2.32205e-22)
(-0.000490241 -0.0010775 1.25053e-22)
(0.000969196 -0.00133342 2.64944e-22)
(0.00193359 -0.00122111 1.04533e-26)
(0.00251182 -0.00091085 2.22697e-23)
(0.00279057 -0.000562427 4.26013e-22)
(0.0028557 -0.000246408 -5.83847e-23)
(0.00282355 -3.33483e-05 -3.88467e-22)
(0.00270527 1.82987e-05 0)
(-0.00977266 0.00897581 5.46e-23)
(-0.00813342 0.00152999 6.3451e-23)
(-0.00438456 -0.000594243 5.491e-22)
(-0.00179948 -0.00182866 5.61692e-22)
(0.000277621 -0.00210754 -2.42715e-22)
(0.00165114 -0.00189797 3.96826e-22)
(0.00250852 -0.00144582 7.08801e-23)
(0.00292974 -0.000915929 4.09351e-22)
(0.00305596 -0.000450641 -1.26359e-22)
(0.00297953 -0.000100297 3.16607e-26)
(0.00283417 8.74269e-05 2.8234e-37)
(0.00261233 6.29037e-05 -4.53748e-23)
(-0.0156085 0.0106263 2.56943e-21)
(-0.0113907 0.00130065 5.60108e-22)
(-0.00706789 -0.0013765 -1.34051e-22)
(-0.00362583 -0.00292298 -2.42805e-22)
(-0.0006999 -0.00321021 -4.30905e-22)
(0.0012502 -0.00287657 -5.56539e-23)
(0.00247532 -0.00220704 3.23837e-22)
(0.00311967 -0.00145817 4.50888e-22)
(0.00332788 -0.000758351 7.80941e-28)
(0.00326229 -0.000226912 -4.42246e-22)
(0.00302437 0.000109742 -7.17737e-37)
(0.00275386 0.00023702 -4.62231e-23)
(0.00242438 0.00011159 4.47161e-29)
(-0.0292882 0.0125926 -2.38702e-22)
(-0.0167993 6.5113e-05 8.01706e-35)
(-0.00973198 -0.00244378 -5.21427e-24)
(-0.00600533 -0.00450565 -1.0855e-21)
(-0.002063 -0.00476391 2.38937e-23)
(0.000661517 -0.00424184 -8.50246e-22)
(0.00241047 -0.00330476 5.37097e-22)
(0.00335117 -0.00222992 5.71091e-22)
(0.00370819 -0.00124487 -1.08909e-27)
(0.0036537 -0.000441588 -4.84275e-22)
(0.00337118 9.66129e-05 2.87868e-37)
(0.00296396 0.000369252 -3.25874e-26)
(0.00256688 0.000403708 5.13087e-25)
(0.00213574 0.000160096 4.51118e-23)
(-0.0485385 0.0205017 -2.07707e-21)
(-0.0316998 -0.00348711 -7.22077e-22)
(-0.0132892 -0.00417133 -3.14021e-21)
(-0.00828255 -0.00657295 -1.31456e-21)
(-0.0039037 -0.00694252 -3.4686e-23)
(-0.000169079 -0.00613837 1.08026e-22)
(0.0022683 -0.00482355 9.76739e-23)
(0.00364275 -0.00335262 1.22055e-22)
(0.00420425 -0.00194821 1.43847e-22)
(0.00420659 -0.000809027 -5.26167e-22)
(0.00385781 1.82009e-05 0)
(0.00334919 0.000498284 -5.12723e-23)
(0.00277937 0.000658185 2.27742e-36)
(0.00226618 0.000573038 4.41864e-23)
(0.00174984 0.000203906 5.77281e-23)
(-0.0559083 0.0454229 -8.73965e-21)
(-0.0615469 -0.00739319 7.82763e-24)
(-0.0249089 -0.00837512 -5.67922e-22)
(-0.0105657 -0.00917075 7.98522e-35)
(-0.00569397 -0.009778 2.3035e-22)
(-0.00136421 -0.00874769 1.50642e-22)
(0.00203795 -0.00692949 -6.1833e-22)
(0.00397578 -0.004907 1.43552e-21)
(0.00485373 -0.00299362 -6.70246e-22)
(0.00494757 -0.00136384 -5.17051e-22)
(0.00455035 -0.000170705 0)
(0.00389612 0.000591537 -5.48608e-23)
(0.00317138 0.000947592 -2.54337e-24)
(0.00246157 0.00095176 3.43769e-22)
(0.00185496 0.00072899 1.15039e-22)
(0.00127939 0.000238708 1.08281e-29)
(-0.0307425 0.0903884 -1.55328e-21)
(-0.0952886 -0.000894407 6.57536e-23)
(-0.0540513 -0.0165541 -3.47246e-21)
(-0.0188382 -0.0139142 2.40505e-21)
(-0.00690791 -0.0130598 7.22648e-22)
(-0.00260196 -0.0121921 1.26904e-21)
(0.00160266 -0.00979238 4.84824e-23)
(0.00437495 -0.00708199 8.81252e-22)
(0.00567167 -0.00445553 -8.64264e-22)
(0.00593217 -0.00222532 -1.97872e-23)
(0.0054959 -0.000500396 3.22087e-36)
(0.00468032 0.000631496 -6.42201e-23)
(0.00373443 0.00123615 1.67119e-27)
(0.00282477 0.00140632 5.39798e-23)
(0.0020134 0.00122242 5.90159e-23)
(0.00134695 0.000855528 -4.62316e-23)
(0.000746488 0.000260741 -5.59053e-23)
(0.0180376 0.145886 6.11032e-21)
(-0.10767 0.0269609 -3.26897e-22)
(-0.0955645 -0.0224881 1.8983e-21)
(-0.0454492 -0.0247755 0)
(-0.0111439 -0.017647 -3.00721e-22)
(-0.00322318 -0.0162299 -3.05958e-35)
(0.00111554 -0.013627 3.115e-22)
(0.00475877 -0.0100267 1.4549e-22)
(0.00671096 -0.00654401 1.04257e-21)
(0.00721666 -0.00345954 -4.13147e-22)
(0.00676649 -0.00107197 -4.91508e-23)
(0.00576827 0.000593956 -1.03473e-22)
(0.00454862 0.00154046 -2.80364e-27)
(0.00335313 0.00189816 5.78588e-23)
(0.00231108 0.00183147 6.58023e-23)
(0.00145011 0.00144245 -3.79603e-22)
(0.000766763 0.000938037 -5.78057e-23)
(0.000180926 0.000267217 5.50242e-23)
(0.0457121 0.201057 -5.44419e-20)
(-0.0739034 0.0917813 -7.20576e-21)
(-0.127629 -0.0138144 7.11828e-21)
(-0.0934394 -0.0406664 -1.90473e-34)
(-0.0303922 -0.0283882 -4.53663e-21)
(-0.00454945 -0.0209017 -2.45167e-21)
(0.00101263 -0.0183186 1.01672e-21)
(0.00519991 -0.0140347 1.67462e-21)
(0.00794693 -0.00938707 -7.68812e-22)
(0.00887797 -0.00528842 -1.17123e-21)
(0.00846514 -0.00194082 5.26377e-23)
(0.00724677 0.000409542 -9.26144e-22)
(0.00569579 0.00184525 -1.22653e-22)
(0.00412517 0.00248153 4.22902e-23)
(0.00275142 0.00251598 6.10997e-23)
(0.00164801 0.00217936 -3.65807e-23)
(0.000799924 0.0015865 3.13595e-22)
(0.000148075 0.000965163 1.08116e-22)
(-0.000382644 0.000256638 2.72406e-30)
(0.0671469 0.228525 -4.3712e-21)
(0.00779683 0.167492 -2.04484e-20)
(-0.126955 0.0254715 -2.09905e-20)
(-0.144097 -0.0487256 2.056e-35)
(-0.075198 -0.0498877 5.56802e-22)
(-0.0155427 -0.0300575 -1.3154e-21)
(0.00144763 -0.0234873 -2.01174e-22)
(0.00580268 -0.0191543 2.98918e-22)
(0.00944826 -0.0133457 8.17225e-22)
(0.0109675 -0.00782202 -1.60993e-21)
(0.0106923 -0.00332168 5.87249e-23)
(0.00926576 3.72754e-05 -8.28714e-22)
(0.00727458 0.00212579 1.96332e-23)
(0.00523098 0.00315376 -7.33257e-23)
(0.00340402 0.00336748 6.27839e-23)
(0.00194966 0.00302595 -5.49652e-28)
(0.000870218 0.00240959 -4.76763e-23)
(0.000102014 0.00163477 5.44541e-23)
(-0.00046961 0.000930357 -1.58763e-24)
(-0.000906998 0.000229007 -5.41784e-23)
(0.106181 0.264048 -3.29066e-20)
(0.0306944 0.229794 3.70121e-20)
(-0.0994318 0.0982504 5.01138e-20)
(-0.168901 -0.0317566 5.67157e-35)
(-0.137249 -0.075608 1.14671e-20)
(-0.0496832 -0.0513545 3.99548e-25)
(-0.00264723 -0.031163 -4.26973e-21)
(0.00723081 -0.0251047 2.96701e-21)
(0.0111151 -0.0185677 -2.96124e-22)
(0.0135833 -0.0114813 -2.06598e-21)
(0.0135951 -0.00530867 -6.4549e-23)
(0.0119512 -0.000702723 1.11902e-21)
(0.00947423 0.00236158 3.32692e-22)
(0.00677585 0.00394444 7.43065e-22)
(0.00435786 0.00439959 1.15066e-22)
(0.00240777 0.00410653 8.35595e-28)
(0.000991153 0.00336827 -4.49378e-23)
(2.71518e-05 0.0024903 6.22683e-23)
(-0.000597135 0.00157578 -1.12747e-35)
(-0.00104374 0.000832862 -8.85749e-23)
(-0.00135632 0.000185925 -2.58829e-26)
(0.13384 0.267183 8.62126e-22)
(0.0744943 0.271798 -2.68695e-21)
(-0.015754 0.178616 -1.2533e-20)
(-0.148742 0.0154599 0)
(-0.187249 -0.0865582 -1.72804e-21)
(-0.110617 -0.087588 1.07404e-20)
(-0.0227874 -0.0485233 3.43984e-22)
(0.00738839 -0.0323876 3.58148e-21)
(0.0135302 -0.0252146 -2.45208e-21)
(0.0166382 -0.0164323 -1.00163e-22)
(0.0173055 -0.00836162 1.57205e-36)
(0.0155593 -0.00188685 -1.65599e-22)
(0.0124482 0.00243973 -4.65181e-23)
(0.008972 0.00486219 6.09802e-23)
(0.00571618 0.0057002 3.00269e-22)
(0.00309965 0.00545315 -6.85848e-23)
(0.00119097 0.00461093 -6.22492e-23)
(-6.00936e-05 0.00349497 5.08259e-23)
(-0.000821532 0.00240278 4.18663e-24)
(-0.00124712 0.00140818 -5.39648e-23)
(-0.00153338 0.00067813 -1.25418e-24)
(-0.00170002 0.000130492 5.01851e-22)
(0.0899986 0.235255 5.38969e-21)
(0.101548 0.305306 1.2509e-21)
(0.0357804 0.238386 -6.04672e-20)
(-0.079597 0.0946329 2.71358e-35)
(-0.198432 -0.0661684 4.73877e-21)
(-0.179426 -0.124283 -2.75618e-20)
(-0.0708498 -0.0847873 9.8897e-21)
(-0.000612282 -0.0455392 7.28331e-22)
(0.016007 -0.0330872 2.10757e-26)
(0.0204866 -0.0233407 -4.11762e-21)
(0.0219329 -0.0126268 1.27652e-35)
(0.0202599 -0.00396355 -2.87052e-22)
(0.016559 0.00230951 -6.97461e-23)
(0.0119988 0.00589078 -7.42128e-22)
(0.00769075 0.00731671 -3.99988e-22)
(0.00411429 0.00720875 -3.28641e-22)
(0.00152517 0.00618737 -1.75542e-22)
(-0.000161803 0.00480912 4.69053e-23)
(-0.00112528 0.00337714 -2.72037e-28)
(-0.0016106 0.00214448 -1.10632e-22)
(-0.00179929 0.00114155 -1.31675e-22)
(-0.00190376 0.000477366 5.65554e-22)
(-0.00191544 6.70165e-05 7.32331e-26)
(0.0237827 0.181953 7.98524e-22)
(0.111421 0.314598 4.75999e-22)
(0.0750736 0.281966 -3.17154e-21)
(-0.0226024 0.178831 4.82779e-35)
(-0.169879 -0.00759298 -2.2198e-20)
(-0.222154 -0.137552 -2.59606e-20)
(-0.142035 -0.137015 3.87254e-21)
(-0.0298062 -0.0746601 7.56645e-21)
(0.0158331 -0.0442793 5.50802e-21)
(0.024788 -0.0319378 -7.12962e-21)
(0.027674 -0.0191356 2.06181e-35)
(0.0264585 -0.00706598 -2.29473e-21)
(0.0220313 0.00161199 -6.29677e-22)
(0.0162989 0.00702183 1.37272e-22)
(0.0104773 0.00934879 2.62953e-22)
(0.00563592 0.00946684 9.0674e-23)
(0.00205394 0.00828448 2.6443e-23)
(-0.000252411 0.00649565 7.12946e-23)
(-0.0015435 0.00465696 3.47103e-28)
(-0.00211728 0.00301001 -5.12004e-23)
(-0.00227686 0.00173043 2.27222e-24)
(-0.00221225 0.000795584 5.4325e-23)
(-0.00212934 0.000246383 -1.97385e-23)
(-0.00199015 6.06655e-07 -4.70388e-22)
(-0.0353714 0.095238 2.28106e-23)
(0.112126 0.307879 1.39451e-21)
(0.0940632 0.313539 -1.10277e-20)
(0.0327483 0.23626 2.2619e-34)
(-0.0861982 0.0646541 4.36083e-20)
(-0.208245 -0.112991 1.27318e-19)
(-0.210308 -0.186468 -1.70247e-20)
(-0.086858 -0.127256 1.52592e-21)
(0.00384062 -0.065464 4.32381e-21)
(0.0289392 -0.0433997 -7.2839e-21)
(0.0342928 -0.0277398 0)
(0.0342685 -0.0123529 -3.49212e-22)
(0.0295701 0.000214178 -7.51612e-35)
(0.0221723 0.00807333 -3.36163e-24)
(0.0145498 0.0118555 9.87857e-22)
(0.00785537 0.0124452 2.90038e-22)
(0.00290781 0.0110423 1.87395e-22)
(-0.000314323 0.00876765 1.17759e-22)
(-0.00208522 0.00630986 -9.47171e-24)
(-0.00283388 0.00414596 -4.79319e-23)
(-0.00295124 0.00241534 1.50771e-24)
(-0.00276672 0.00119194 5.67574e-22)
(-0.00245585 0.000398027 -4.67181e-22)
(-0.00219659 4.11617e-06 -5.10066e-22)
(-0.00192336 -6.33961e-05 -4.66316e-23)
(-0.0728145 0.0240102 -3.11437e-20)
(0.0898808 0.254337 -1.41962e-20)
(0.125429 0.331726 2.19759e-19)
(0.0737414 0.284269 2.78879e-22)
(-0.0242623 0.134519 4.07521e-20)
(-0.155936 -0.0510301 9.69918e-21)
(-0.241175 -0.202857 -3.34367e-20)
(-0.162545 -0.197449 2.36502e-20)
(-0.0301091 -0.10821 -4.89202e-21)
(0.0286522 -0.0602503 -7.30276e-21)
(0.0416383 -0.0400353 -1.96557e-35)
(0.0438288 -0.0197464 5.59021e-22)
(0.0392399 -0.00287022 1.33677e-21)
(0.0305194 0.00893773 2.70018e-21)
(0.0202805 0.014901 1.3619e-21)
(0.0112165 0.0162976 1.3721e-22)
(0.00424047 0.0147798 -2.52467e-23)
(-0.000291521 0.0118014 -2.2308e-22)
(-0.00278459 0.00855269 -1.20565e-23)
(-0.00380425 0.005614 -7.45024e-23)
(-0.00391496 0.00330723 -2.91722e-25)
(-0.00355526 0.00163955 5.39815e-22)
(-0.00304162 0.000573242 3.50292e-23)
(-0.00251447 -1.79992e-05 -2.86321e-22)
(-0.00210537 -0.000229495 -7.16169e-23)
(-0.00172569 -0.000120002 -6.63462e-29)
(-0.0863396 -0.0403518 -1.21552e-20)
(0.0663061 0.196956 -8.57641e-21)
(0.109101 0.295641 5.74882e-22)
(0.0824911 0.309803 -1.18937e-27)
(0.0295508 0.198882 1.6152e-21)
(-0.0817044 0.0284213 -5.97352e-21)
(-0.211959 -0.170828 4.99214e-20)
(-0.227485 -0.25874 3.73678e-20)
(-0.0908889 -0.178823 -1.42753e-20)
(0.0165601 -0.0925732 -9.53016e-22)
(0.0487434 -0.0564767 5.60141e-35)
(0.0551179 -0.0317593 9.83125e-22)
(0.0519767 -0.00762664 7.23033e-22)
(0.041423 0.00913739 5.78714e-22)
(0.0285592 0.0184903 1.11306e-22)
(0.0161102 0.021362 -1.60859e-22)
(0.00640191 0.0197621 5.43908e-23)
(-0.000104478 0.0159821 8.41582e-23)
(-0.0036715 0.0115759 -1.25901e-37)
(-0.00511547 0.00761088 -1.83028e-22)
(-0.00524236 0.0044512 1.458e-23)
(-0.0046868 0.00220871 5.44995e-22)
(-0.0038782 0.000748444 -5.68855e-28)
(-0.00308244 -7.30091e-05 -5.0623e-22)
(-0.00238866 -0.000417821 7.08337e-22)
(-0.00186868 -0.000435696 5.63856e-23)
(-0.0014182 -0.000164899 3.6609e-23)
(-0.0717453 -0.0798833 -5.8748e-22)
(0.0350039 0.137795 1.42994e-21)
(0.0938056 0.288959 2.95635e-20)
(0.109769 0.317991 -4.5106e-20)
(0.0786889 0.245273 -4.12965e-20)
(-0.0261179 0.0742331 -7.02535e-22)
(-0.14104 -0.102551 1.87959e-20)
(-0.245894 -0.278261 5.82917e-20)
(-0.167673 -0.267551 -1.75266e-20)
(-0.0175392 -0.150138 -2.83525e-20)
(0.051932 -0.0840685 3.19531e-38)
(0.0687599 -0.0492396 -3.65728e-21)
(0.0685152 -0.0174075 -2.1407e-25)
(0.0570566 0.0084707 4.2515e-21)
(0.0396505 0.0229278 -2.43408e-21)
(0.023163 0.0278829 1.81289e-22)
(0.00969382 0.0265783 -5.47935e-23)
(0.00044621 0.0216768 4.1713e-22)
(-0.00477077 0.015784 2.03795e-23)
(-0.0068825 0.0103117 1.50709e-23)
(-0.00706551 0.00600227 3.96682e-22)
(-0.00625798 0.00291977 5.37017e-22)
(-0.00507918 0.000947036 1.2074e-28)
(-0.00389574 -0.000179841 -5.7487e-22)
(-0.00289149 -0.000691946 -5.51064e-24)
(-0.00209466 -0.000769079 -2.28298e-35)
(-0.00151132 -0.000598356 -2.38572e-24)
(-0.00103029 -0.000194806 0)
(-0.0449362 -0.102552 -4.17622e-21)
(-0.00729922 0.0787347 -1.29425e-21)
(0.0806458 0.258394 -7.19853e-20)
(0.11003 0.319054 1.47579e-20)
(0.107372 0.306973 1.40035e-19)
(0.0155631 0.141529 -4.00037e-22)
(-0.0687233 -0.0299027 -2.96996e-21)
(-0.205816 -0.241089 4.75128e-20)
(-0.229478 -0.343545 4.35837e-20)
(-0.078662 -0.237782 -4.52239e-20)
(0.0416608 -0.128375 0)
(0.0820781 -0.077283 -1.25571e-20)
(0.0901947 -0.034554 -5.37956e-21)
(0.0796796 0.00309882 -1.4592e-21)
(0.0573679 0.0276155 1.9462e-22)
(0.0330543 0.0370015 4.15329e-22)
(0.0142761 0.0358105 -8.42539e-22)
(0.00144452 0.0296599 3.90374e-22)
(-0.00607291 0.0215998 2.72707e-23)
(-0.00924645 0.0140887 -5.7101e-24)
(-0.00957127 0.00809064 -1.57092e-23)
(-0.00843014 0.00386987 3.07583e-22)
(-0.00675291 0.00116059 3.86984e-23)
(-0.00506031 -0.000363537 -6.25019e-22)
(-0.00361283 -0.0010645 -5.91436e-23)
(-0.00249148 -0.00123274 -1.23056e-22)
(-0.00166253 -0.00104421 -2.22235e-22)
(-0.00106737 -0.000705521 5.351e-24)
(-0.000596835 -0.000207698 2.02389e-22)
(-0.0149658 -0.111013 2.52912e-21)
(-0.0213465 0.044013 1.34274e-20)
(0.0647242 0.230632 -2.34745e-20)
(0.103689 0.315381 5.7338e-20)
(0.0988918 0.300894 1.16995e-19)
(0.0584636 0.203625 1.44791e-20)
(-0.0248246 -0.0102981 -6.23139e-21)
(-0.128278 -0.163008 4.6958e-20)
(-0.244524 -0.367429 4.18824e-20)
(-0.155094 -0.345156 -9.31336e-20)
(0.00895896 -0.197267 1.91205e-37)
(0.0861492 -0.114933 3.22461e-20)
(0.111832 -0.0633678 1.24355e-20)
(0.110685 -0.0104239 -7.70791e-21)
(0.0856851 0.0289311 -3.84294e-21)
(0.0514081 0.0478107 -4.84366e-21)
(0.0213843 0.0492079 5.85961e-22)
(0.00249843 0.0408286 -2.40237e-22)
(-0.00779435 0.0298795 -2.70486e-23)
(-0.0123973 0.0193464 -5.56768e-23)
(-0.0130055 0.0110101 6.97141e-23)
(-0.0114391 0.00512138 5.39887e-22)
(-0.00906922 0.00141962 -5.37824e-22)
(-0.00668492 -0.000660311 -6.87502e-22)
(-0.0046399 -0.00160589 -6.62113e-23)
(-0.00306173 -0.00183157 7.19898e-28)
(-0.00192271 -0.00165255 1.37634e-22)
(-0.00113304 -0.00122305 1.50586e-22)
(-0.000576684 -0.00075035 2.12219e-22)
(-0.000155234 -0.000202885 6.56951e-25)
(0.00775986 -0.110339 -4.75779e-21)
(-0.0138862 0.0343089 5.12338e-21)
(0.040997 0.186943 3.7457e-21)
(0.0884684 0.309185 -7.8551e-20)
(0.0998914 0.324881 -3.48591e-20)
(0.0754258 0.239515 4.81114e-20)
(0.000795502 0.0363726 -5.59963e-24)
(-0.0616166 -0.0725183 -6.6227e-21)
(-0.20324 -0.332555 6.43253e-20)
(-0.216468 -0.433944 -3.73915e-20)
(-0.0509237 -0.296887 -1.00154e-33)
(0.0750768 -0.165884 1.03281e-20)
(0.122656 -0.09748 1.03317e-20)
(0.139756 -0.0348046 1.25968e-20)
(0.124768 0.0234011 1.24285e-21)
(0.0834374 0.0579691 -7.26404e-22)
(0.0381919 0.0661323 4.80216e-21)
(0.00521284 0.0571694 -2.09868e-21)
(-0.0108343 0.0416461 9.26517e-36)
(-0.0168352 0.0268969 2.01802e-23)
(-0.0177333 0.0150684 -1.1576e-23)
(-0.0156026 0.0068574 4.22293e-23)
(-0.0122846 0.00170726 6.15496e-22)
(-0.00892604 -0.00110695 -8.12438e-22)
(-0.00607165 -0.00237453 -1.45893e-22)
(-0.00386557 -0.00267431 -7.93496e-28)
(-0.0022977 -0.00241982 5.19949e-23)
(-0.00123861 -0.00192051 -9.83641e-23)
(-0.000553408 -0.00129427 -8.2311e-23)
(-8.14758e-05 -0.000731278 -1.03917e-22)
(0.000257379 -0.000181118 -2.63659e-23)
(0.0338445 -0.0945948 5.90626e-24)
(-0.000838877 0.0284718 1.6106e-20)
(0.020531 0.148737 2.74213e-21)
(0.0731271 0.298274 2.60921e-20)
(0.087925 0.328373 -1.2148e-19)
(0.0770356 0.273508 6.35237e-22)
(0.0174352 0.103416 1.55424e-20)
(-0.030775 -0.0549426 3.18031e-20)
(-0.132493 -0.256496 9.63384e-20)
(-0.233376 -0.482344 -3.68149e-20)
(-0.124143 -0.412584 -1.95358e-34)
(0.0418173 -0.237235 -5.63559e-20)
(0.120948 -0.136512 -3.75148e-20)
(0.153233 -0.0608701 -2.91742e-20)
(0.158316 0.0120477 -5.82736e-21)
(0.125853 0.0649289 7.70434e-24)
(0.0703586 0.0865631 -5.61903e-21)
(0.017407 0.0791782 -7.09806e-22)
(-0.0137987 0.0587485 3.25356e-23)
(-0.023806 0.0376106 2.07404e-22)
(-0.0244362 0.0209182 6.43904e-23)
(-0.0214089 0.00922516 2.19453e-22)
(-0.0167405 0.00208172 -8.29072e-22)
(-0.0120325 -0.00179712 -2.8743e-22)
(-0.00803211 -0.00346803 -8.77521e-23)
(-0.00498404 -0.00383283 1.68822e-23)
(-0.00281586 -0.00348305 6.10238e-23)
(-0.00139235 -0.0027863 0)
(-0.000499935 -0.00201989 3.11307e-22)
(2.6749e-05 -0.00125562 6.68034e-23)
(0.000376895 -0.000651985 7.91522e-24)
(0.000607369 -0.000144596 -7.09925e-23)
(0.0480361 -0.0801439 2.91294e-21)
(0.0144348 0.0301897 1.03988e-20)
(0.0134325 0.133347 4.85213e-21)
(0.0487113 0.287752 -9.70911e-22)
(0.0719612 0.335882 8.7141e-20)
(0.0696293 0.294051 1.26409e-19)
(0.027073 0.152474 2.40242e-20)
(-0.0228047 -0.0431904 8.46057e-22)
(-0.0739107 -0.167997 -4.92672e-21)
(-0.191786 -0.464004 -4.26942e-20)
(-0.18126 -0.532546 1.77269e-20)
(-0.0115755 -0.336456 -1.16456e-20)
(0.104471 -0.183317 -3.71477e-21)
(0.154039 -0.0886071 1.19753e-20)
(0.172146 0.00241596 -1.79929e-21)
(0.158377 0.074774 -6.2146e-21)
(0.109549 0.108872 -1.57479e-20)
(0.0442277 0.109356 1.39344e-20)
(-0.00970464 0.0833182 -1.98353e-22)
(-0.0328311 0.0528596 1.15397e-21)
(-0.0344681 0.0290775 7.25543e-22)
(-0.0295969 0.0126391 6.87471e-23)
(-0.0229792 0.00249454 -7.50147e-22)
(-0.0163158 -0.00279234 -6.36329e-22)
(-0.010739 -0.00504148 -8.99226e-22)
(-0.00649554 -0.00545425 1.46079e-23)
(-0.00353466 -0.00491763 -1.87742e-22)
(-0.00158992 -0.00397373 0)
(-0.000425709 -0.00290892 3.6887e-22)
(0.000230434 -0.00194809 2.95056e-22)
(0.000559047 -0.00111378 -2.78798e-23)
(0.000761437 -0.000520907 -1.44374e-22)
(0.000867521 -9.68259e-05 7.58e-25)
(0.0579877 -0.0631577 2.53698e-20)
(0.0260625 0.0414279 1.50534e-21)
(0.00779475 0.137024 -7.46004e-21)
(0.0225176 0.282438 2.06393e-20)
(0.0475253 0.343287 1.11658e-19)
(0.0508608 0.316576 -3.19379e-22)
(0.026447 0.193889 -5.10928e-20)
(-0.0191191 -0.020065 -4.82223e-21)
(-0.0458896 -0.113026 9.04464e-21)
(-0.130197 -0.436272 6.50594e-21)
(-0.182968 -0.574808 5.959e-25)
(-0.0738191 -0.453521 -4.7748e-20)
(0.075437 -0.247781 1.90008e-20)
(0.14319 -0.119151 4.99092e-20)
(0.174837 -0.00922342 2.11323e-21)
(0.171666 0.087674 1.93217e-20)
(0.139186 0.143443 -8.38662e-21)
(0.0748612 0.149081 -4.18688e-21)
(0.005414 0.120866 -5.70466e-27)
(-0.0392385 0.0759169 5.15953e-22)
(-0.0486972 0.0402154 -1.50374e-22)
(-0.0413706 0.0172092 6.37592e-24)
(-0.0317006 0.00308629 1.34156e-21)
(-0.0222996 -0.00433373 -1.80002e-21)
(-0.014428 -0.00725568 1.18555e-21)
(-0.00857098 -0.0077305 -1.5124e-36)
(-0.00448122 -0.00690646 -6.23248e-23)
(-0.00186181 -0.00555254 -8.12936e-23)
(-0.000296182 -0.00411813 3.91593e-22)
(0.000520583 -0.00278602 -7.19252e-27)
(0.000892032 -0.00171631 -1.76393e-22)
(0.00100042 -0.000883506 2.00014e-23)
(0.00104257 -0.000350375 -1.34473e-22)
(0.00101871 -4.23937e-05 2.69387e-22)
(0.0703045 -0.0341221 -4.62378e-20)
(0.0256415 0.0666946 5.54299e-21)
(-0.00383557 0.161618 -3.34337e-20)
(-0.00457692 0.288351 4.40559e-20)
(0.0153112 0.352944 3.38095e-21)
(0.0234799 0.336232 -5.38035e-20)
(0.0126772 0.227082 -1.17156e-20)
(-0.018254 0.0092562 5.59949e-20)
(-0.0350084 -0.0891673 4.3623e-20)
(-0.0765817 -0.39119 -2.86166e-20)
(-0.154619 -0.595129 1.21261e-21)
(-0.115734 -0.561764 8.45453e-20)
(0.0223626 -0.330719 1.13926e-21)
(0.125721 -0.15695 -1.16559e-20)
(0.167436 -0.0245618 -5.69607e-20)
(0.17855 0.096202 -3.74976e-20)
(0.151557 0.178883 -7.42065e-23)
(0.0955092 0.203716 2.50175e-20)
(0.023845 0.175501 -3.85689e-34)
(-0.0396406 0.11434 -8.14356e-21)
(-0.0656556 0.0575725 -1.74802e-21)
(-0.0588167 0.0228612 -8.38474e-22)
(-0.0437418 0.00358556 4.51299e-22)
(-0.0305805 -0.00653779 -2.02218e-21)
(-0.0195436 -0.010503 -5.90781e-22)
(-0.0113414 -0.010895 7.09058e-25)
(-0.00577128 -0.00964992 -9.44991e-22)
(-0.00218557 -0.00772706 -6.00502e-23)
(-0.000113135 -0.00570474 2.53117e-22)
(0.000956896 -0.00391668 9.13455e-27)
(0.00136894 -0.00243538 -1.09732e-22)
(0.00143171 -0.00134815 1.37323e-22)
(0.00131661 -0.000586233 2.44169e-36)
(0.00119972 -0.000155811 2.02693e-22)
(0.00105174 1.34971e-05 0)
(0.0608446 0.0355864 -6.9732e-22)
(0.00717932 0.106519 3.12175e-20)
(-0.0259376 0.200073 4.86667e-20)
(-0.0377251 0.308521 -1.04857e-20)
(-0.0259575 0.368356 -4.3219e-20)
(-0.0121505 0.355494 7.61645e-20)
(-0.0102976 0.251939 2.78416e-20)
(-0.021693 0.0341784 9.98118e-20)
(-0.0287178 -0.0877792 2.10764e-19)
(-0.0444896 -0.3616 -9.29312e-20)
(-0.103931 -0.574545 -5.15431e-20)
(-0.136946 -0.629864 1.44547e-21)
(-0.0323896 -0.443904 -1.52724e-23)
(0.0982727 -0.203266 9.24979e-21)
(0.15353 -0.0473031 7.96687e-21)
(0.177671 0.0992285 1.01348e-20)
(0.164018 0.207558 2.42694e-20)
(0.120402 0.253891 4.44485e-21)
(0.0392381 0.241715 -1.93568e-21)
(-0.0345609 0.171946 1.74597e-21)
(-0.0810982 0.0893194 4.07787e-21)
(-0.0840254 0.031491 1.09733e-21)
(-0.0616503 0.00333524 -3.19088e-21)
(-0.041544 -0.0100095 3.88616e-23)
(-0.0265294 -0.0150891 -1.2698e-22)
(-0.0151391 -0.0154241 1.64109e-23)
(-0.00742353 -0.0134299 -1.14299e-22)
(-0.00261831 -0.0106796 -2.39606e-23)
(0.000187832 -0.00788008 9.99781e-23)
(0.00156665 -0.00538103 -5.43165e-22)
(0.00206805 -0.0033965 -1.60067e-22)
(0.00205178 -0.0018919 -2.4912e-23)
(0.00180771 -0.000877271 3.34517e-22)
(0.00148414 -0.000248673 -9.478e-23)
(0.00122323 4.5499e-05 4.3973e-23)
(0.000968126 6.56522e-05 -4.816e-23)
(0.00974174 0.0685292 4.05609e-21)
(-0.0400995 0.156787 -3.6835e-21)
(-0.0645269 0.250936 -1.65209e-21)
(-0.0803776 0.338759 9.08279e-20)
(-0.0729197 0.389298 -7.16457e-20)
(-0.0570011 0.372104 -3.83335e-20)
(-0.0346524 0.2675 6.95489e-22)
(-0.0278839 0.047947 -1.13092e-20)
(-0.0231904 -0.0907018 -9.59542e-20)
(-0.0217738 -0.342172 4.4571e-21)
(-0.0623382 -0.55028 1.48191e-20)
(-0.115224 -0.657248 2.86044e-20)
(-0.0685569 -0.5318 -1.39525e-20)
(0.0583077 -0.275115 -6.20904e-20)
(0.133708 -0.0710345 -5.46108e-20)
(0.168857 0.0919241 3.24653e-21)
(0.170608 0.230861 -2.29201e-20)
(0.133559 0.300057 -3.89494e-21)
(0.050803 0.297397 1.56694e-20)
(-0.0138458 0.238612 -3.27064e-21)
(-0.0885401 0.137633 2.99627e-21)
(-0.112771 0.050624 4.09174e-21)
(-0.0907521 0.00186044 7.40238e-21)
(-0.0571384 -0.0156118 -5.51717e-22)
(-0.0354316 -0.0219043 2.42166e-22)
(-0.020201 -0.0217214 -3.32574e-22)
(-0.00965466 -0.01873 3.5434e-22)
(-0.00307788 -0.0147231 1.58111e-21)
(0.000609694 -0.0107885 1.61659e-21)
(0.0024452 -0.00738254 -2.45649e-23)
(0.00304453 -0.00462352 -2.83389e-22)
(0.00295027 -0.00260782 4.77238e-24)
(0.00251636 -0.00120429 -8.72306e-27)
(0.00199189 -0.000345426 4.78802e-22)
(0.00149253 9.92943e-05 4.01144e-36)
(0.0011151 0.000235802 -1.18726e-22)
(0.000779598 0.000109466 1.29614e-28)
(-0.076341 0.20481 5.09413e-20)
(-0.141892 0.312771 -2.74166e-20)
(-0.130541 0.327269 -1.8968e-20)
(-0.13208 0.380667 2.88818e-23)
(-0.121884 0.408824 4.68802e-20)
(-0.0962316 0.377961 -6.36762e-20)
(-0.0524943 0.266539 -8.89191e-20)
(-0.0356133 0.0428777 1.4025e-19)
(-0.0140324 -0.103681 -1.48017e-19)
(-0.00279804 -0.337523 1.00188e-20)
(-0.0275838 -0.535538 7.01967e-20)
(-0.0822638 -0.647601 9.44133e-21)
(-0.0864648 -0.605912 3.94835e-20)
(0.0196917 -0.349403 1.23631e-21)
(0.10792 -0.10697 2.40977e-20)
(0.151251 0.0827937 8.15065e-21)
(0.168865 0.243312 -2.07262e-20)
(0.144256 0.343105 9.56634e-20)
(0.083376 0.355198 -2.41097e-20)
(0.0116273 0.304982 -2.82976e-21)
(-0.0818672 0.195403 -3.06875e-22)
(-0.132752 0.0852607 -1.75159e-20)
(-0.130217 0.00408045 2.92999e-22)
(-0.0843974 -0.0261619 -2.33133e-21)
(-0.046875 -0.0315857 -4.82086e-22)
(-0.0264745 -0.0308951 -6.76906e-35)
(-0.0124496 -0.0259815 2.31695e-22)
(-0.00367846 -0.0202771 4.23278e-23)
(0.00130995 -0.0147617 9.22965e-23)
(0.00365609 -0.0100175 -6.11041e-22)
(0.00441285 -0.00629674 -6.65937e-22)
(0.00420719 -0.00350389 1.20476e-22)
(0.00353636 -0.00161946 1.12972e-26)
(0.00272738 -0.000432382 3.03429e-22)
(0.00197233 0.000200739 -1.0655e-22)
(0.00134519 0.000427094 1.63797e-22)
(0.000888694 0.000398191 -1.17187e-23)
(0.000507311 0.000141364 6.48198e-23)
(-0.177196 0.28021 -1.15394e-20)
(-0.210926 0.383683 -5.5368e-23)
(-0.197689 0.399386 -1.89673e-19)
(-0.173483 0.403187 -9.10366e-21)
(-0.155039 0.417998 -3.00788e-20)
(-0.118008 0.361779 -4.52025e-20)
(-0.0629509 0.226234 -3.75177e-20)
(-0.0320741 0.0226327 -8.42037e-20)
(0.000602348 -0.128201 -2.45752e-20)
(0.016437 -0.346962 -3.03149e-20)
(0.00163808 -0.523711 -9.49261e-21)
(-0.0459066 -0.636438 -4.74483e-20)
(-0.0855219 -0.639493 2.15768e-20)
(-0.0124735 -0.426237 -4.02076e-21)
(0.0787616 -0.147328 -4.6397e-20)
(0.131526 0.06289 2.55783e-20)
(0.157847 0.253115 -1.80492e-20)
(0.14824 0.377799 -1.27166e-20)
(0.0972404 0.415247 2.78214e-21)
(0.0214357 0.374047 5.13919e-21)
(-0.0458368 0.272309 4.02325e-35)
(-0.139701 0.13412 1.73463e-20)
(-0.165345 0.0192801 6.67007e-21)
(-0.128388 -0.0412712 4.27165e-21)
(-0.0671605 -0.0480731 -2.41593e-21)
(-0.0332663 -0.0431635 1.10349e-21)
(-0.0158545 -0.0363714 -3.9945e-21)
(-0.00415491 -0.0277843 -5.09713e-22)
(0.00226824 -0.0201019 1.55261e-21)
(0.00540027 -0.0136223 4.35555e-22)
(0.00629609 -0.00846401 1.44235e-22)
(0.00594558 -0.00472184 7.9261e-22)
(0.00496724 -0.00211713 -7.28433e-22)
(0.00378171 -0.000515562 3.19552e-22)
(0.00267037 0.00035719 0)
(0.00175452 0.000713408 1.13788e-22)
(0.00105902 0.000705739 -5.19466e-22)
(0.000568187 0.000518018 1.00019e-22)
(0.000179805 0.000159006 7.18142e-23)
(-0.174004 0.275063 -1.64053e-21)
(-0.166722 0.351285 -8.01933e-22)
(-0.166807 0.36496 1.0525e-20)
(-0.155326 0.406589 -6.7164e-25)
(-0.158835 0.382239 -3.48613e-20)
(-0.105778 0.324876 -2.83009e-20)
(-0.0487498 0.173731 2.89246e-20)
(-0.00382963 0.00200532 -2.1582e-19)
(0.0227575 -0.165383 3.2679e-20)
(0.0360363 -0.360825 -2.92829e-20)
(0.0260199 -0.519273 -3.44026e-21)
(-0.0143305 -0.622149 -2.55716e-20)
(-0.0626468 -0.644723 -3.20573e-20)
(-0.0390479 -0.494769 7.5753e-20)
(0.0535047 -0.193972 1.06685e-20)
(0.105214 0.0445224 1.79296e-20)
(0.146209 0.243093 3.11845e-20)
(0.149559 0.410171 3.33294e-20)
(0.106794 0.473024 3.38158e-21)
(0.0357289 0.441241 -1.48292e-19)
(-0.0404039 0.350925 2.13769e-20)
(-0.139651 0.200272 1.96574e-20)
(-0.183161 0.0524839 2.80918e-20)
(-0.176416 -0.0520124 -1.55852e-20)
(-0.106637 -0.0754673 4.30044e-22)
(-0.0442479 -0.0621508 -2.49893e-22)
(-0.0183842 -0.0498415 3.50147e-22)
(-0.00469102 -0.0382861 -4.72375e-35)
(0.00392679 -0.0272957 1.93563e-21)
(0.00775831 -0.0183586 1.18709e-21)
(0.0089091 -0.0114452 4.12756e-22)
(0.0083434 -0.00626751 -8.82391e-22)
(0.00693224 -0.0027863 -3.77442e-22)