/*--------------------------------*- C++ -*----------------------------------*\
| =========                 |                                                 |
| \\      /  F ield         | OpenFOAM: The Open Source CFD Toolbox           |
|  \\    /   O peration     | Version:  2506                                  |
|   \\  /    A nd           | Website:  www.openfoam.com                      |
|    \\/     M anipulation  |                                                 |
\*---------------------------------------------------------------------------*/
FoamFile
{
    version     2.0;
    format      ascii;
    arch        "LSB;label=32;scalar=64";
    class       surfaceScalarField;
    location    "180.017606233241935";
    object      ddtCorrDdt0(phi);
}
// * * * * * * * * * * * * * * * * * * * * * * * * * * * * * * * * * * * * * //

dimensions      [0 3 -2 0 0 0 0];

oriented        oriented;

internalField   nonuniform List<scalar> 
19160
(
-6.20378e-05
-0.000566032
-0.000127426
-0.000545093
-3.79938e-05
-0.000528038
-0.000196503
-0.000514283
-7.57508e-05
-0.000507336
-2.39759e-05
-0.000504062
-0.000273782
-0.00045597
-0.000112743
-0.000477292
-4.56583e-05
-0.000485654
-8.15349e-06
-0.000495908
-0.0003623
-0.000373157
-0.00014891
-0.000419802
-6.43721e-05
-0.000458578
-1.21026e-05
-0.000481704
4.85447e-06
-0.000500763
-0.000467337
-0.000250991
-0.000183845
-0.000338222
-7.73002e-05
-0.000406874
-1.02495e-05
-0.000460431
1.54013e-05
-0.000492251
1.45729e-05
-0.000515336
-0.000595415
-7.93482e-05
-0.000216786
-0.00021805
-8.24748e-05
-0.000333048
2.59049e-06
-0.000419714
3.40257e-05
-0.000479055
3.58938e-05
-0.000513572
1.97764e-05
-0.000535112
-0.000755098
0.000161341
-0.000246994
-4.91402e-05
-7.60587e-05
-0.000224466
3.04802e-05
-0.000360937
6.77706e-05
-0.000453459
6.70154e-05
-0.000510176
4.68349e-05
-0.00054063
1.98787e-05
-0.00055499
-0.00095996
0.00049933
-0.000272155
0.000186502
-5.39662e-05
-7.12326e-05
8.03704e-05
-0.000274357
0.000122376
-0.000415542
0.000116312
-0.000502755
8.46494e-05
-0.000547991
4.70188e-05
-0.00056777
1.45931e-05
-0.000569583
-0.00122576
0.00097498
-0.000290072
0.000517248
-9.29367e-06
0.00014183
0.000160062
-0.000150925
0.000207145
-0.000359126
0.00019086
-0.00049009
0.00014231
-0.000560416
8.50277e-05
-0.000585999
3.58429e-05
-0.000589019
4.06835e-06
-0.000573651
-0.00154823
0.00159763
-0.000295946
0.000980854
6.765e-05
0.000440304
0.000281212
2.06807e-05
0.000332716
-0.000276495
0.000301684
-0.000469949
0.000227767
-0.000575547
0.000143059
-0.000618447
6.71653e-05
-0.000617321
1.35902e-05
-0.000598541
-1.10497e-05
-0.000562601
-0.00187673
0.00233054
-0.000273033
0.00157472
0.000191276
0.000857228
0.000459494
0.000262022
0.000514042
-0.000160645
0.000461678
-0.000436489
0.000353027
-0.000595209
0.000229429
-0.000661917
0.000117084
-0.000668366
3.14515e-05
-0.000635183
-1.84063e-05
-0.000591184
-2.96959e-05
-0.000532905
-0.00225628
0.00357473
-0.000134441
0.00219195
0.00036999
0.00139601
0.00071809
0.000598632
0.000770626
5.43887e-06
0.000688205
-0.000387172
0.000532577
-0.000616039
0.000356393
-0.000722172
0.000193702
-0.000738534
6.48228e-05
-0.000701737
-2.00323e-05
-0.000633556
-5.79478e-05
-0.000562932
-5.04241e-05
-0.00048248
-0.00327641
0.00659644
0.0003192
0.00312109
0.000639032
0.00192291
0.00107011
0.00104399
0.0011312
0.000238058
0.0010034
-0.000309761
0.000785296
-0.00063989
0.000539352
-0.000798998
0.000308734
-0.000837203
0.00012092
-0.000794631
-1.08064e-05
-0.000710962
-8.38353e-05
-0.000607668
-0.000102015
-0.00051134
-7.13561e-05
-0.000411124
-0.00637657
0.0118122
0.00104283
0.00587281
0.00121115
0.00254896
0.00152062
0.0014724
0.00161524
0.000559949
0.0014389
-0.00019744
0.00113536
-0.000659823
0.000797904
-0.000898443
0.000477676
-0.00096794
0.000210062
-0.000926345
1.48897e-05
-0.000820327
-0.000104925
-0.000689872
-0.000155158
-0.000554525
-0.000146659
-0.000436037
-9.05931e-05
-0.00032053
-0.0129467
0.0163425
0.000861695
0.0119933
0.00241462
0.00466934
0.0022313
0.00183828
0.00220647
0.000881171
0.00202368
-2.48325e-05
0.00161532
-0.000677398
0.00115803
-0.00101995
0.000719966
-0.00114073
0.000346768
-0.00110465
6.50789e-05
-0.000976534
-0.00011791
-0.000807341
-0.000210614
-0.000634415
-0.000227677
-0.000473507
-0.000187831
-0.000338799
-0.000106201
-0.000214329
-0.0226446
0.0155999
-0.00253681
0.019741
0.0038088
0.0105991
0.00374682
0.00315382
0.002968
0.00107675
0.00274712
0.000157737
0.00226201
-0.000671523
0.00165251
-0.00117188
0.00106292
-0.0013629
0.000549212
-0.00134318
0.000152003
-0.00119157
-0.000117996
-0.000976449
-0.000268017
-0.000749938
-0.000318658
-0.000543434
-0.000294823
-0.000366515
-0.000221373
-0.000223626
-0.000116236
-9.80927e-05
-0.0340858
0.00697727
-0.0113218
0.024385
0.00343194
0.0201179
0.00634896
0.00799699
0.00445379
0.00166803
0.0035896
0.00023427
0.00308578
-0.000666035
0.00232382
-0.00134283
0.00153944
-0.0016484
0.000844839
-0.00165853
0.000291223
-0.0014824
-9.67093e-05
-0.00121286
-0.000326675
-0.000917791
-0.000422605
-0.000645991
-0.000419286
-0.000418971
-0.000349807
-0.00023808
-0.000243089
-9.67715e-05
-0.000119492
2.13998e-05
-0.041481
-0.00403022
-0.0251097
0.0207651
-0.00109984
0.0289167
0.00865287
0.017814
0.00757636
0.00487442
0.00492942
0.000328208
0.00403821
-0.000718166
0.00320547
-0.00154769
0.00219644
-0.00199982
0.00126618
-0.00206974
0.00050819
-0.0018755
-4.27606e-05
-0.00153634
-0.000383391
-0.00115614
-0.000543616
-0.000796778
-0.00056772
-0.000497556
-0.000502294
-0.000266484
-0.000385737
-9.54317e-05
-0.000250327
3.40643e-05
-0.000115187
0.000136587
-0.0475388
-0.0113389
-0.0387442
0.00960429
-0.0115903
0.0312556
0.00781294
0.0297567
0.012152
0.0132384
0.00787888
0.00192497
0.00528058
-0.000914153
0.00427441
-0.0017871
0.00308347
-0.00243472
0.00186389
-0.00259753
0.000833578
-0.00239513
6.42599e-05
-0.00198252
-0.00043302
-0.00148672
-0.000685028
-0.00101473
-0.000749334
-0.000615164
-0.000688581
-0.000311269
-0.000557235
-9.49857e-05
-0.000398173
5.24143e-05
-0.00024137
0.000160248
-0.000103058
0.000239646
-0.0506387
-0.0197047
-0.0480294
-0.00205374
-0.0274903
0.0255043
0.00128827
0.0377803
0.0156558
0.0262528
0.0134461
0.00767116
0.00770167
-0.000496124
0.00555283
-0.00219257
0.00422996
-0.00293359
0.00269531
-0.00326614
0.00131971
-0.00308366
0.000250377
-0.00258125
-0.0004638
-0.00195173
-0.000849704
-0.00132204
-0.00097468
-0.000789379
-0.000922768
-0.000380976
-0.000769883
-9.86202e-05
-0.000577195
8.40374e-05
-0.000384217
0.000195262
-0.000215651
0.000272841
-8.39561e-05
0.000323603
-0.0484085
-0.0232764
-0.055698
-0.012036
-0.0398247
0.0102807
-0.0103964
0.0371889
0.0145851
0.038851
0.0204854
0.0192135
0.0128889
0.00248393
0.0075267
-0.00246999
0.00563236
-0.00359498
0.00384002
-0.0040783
0.00202645
-0.00397289
0.000564412
-0.00339769
-0.000458327
-0.00258672
-0.00103808
-0.00176336
-0.00125606
-0.00104066
-0.00122249
-0.00048966
-0.00104175
-0.000109105
-0.000801167
0.000125352
-0.000557619
0.000257439
-0.000342899
0.000322511
-0.000175005
0.00036389
-5.91952e-05
0.000382799
-0.0402293
-0.0213978
-0.0600501
-0.0189243
-0.0502687
-0.00159207
-0.026682
0.0265663
0.00728727
0.0444868
0.0253006
0.0340358
0.0214397
0.0106627
0.0116135
-0.00160293
0.00747317
-0.00431079
0.0053366
-0.00509156
0.00306591
-0.00511776
0.00106492
-0.00447339
-0.000379444
-0.00347657
-0.00124614
-0.00237866
-0.00160866
-0.00141076
-0.00160996
-0.000653192
-0.00139638
-0.000135035
-0.00109054
0.000180267
-0.000775443
0.000343177
-0.000496946
0.000411487
-0.000277191
0.000424697
-0.000122293
0.000426988
-3.07308e-05
0.00041353
-0.0265623
-0.0166765
-0.0597779
-0.02167
-0.0576627
-0.0115303
-0.0399777
0.0117036
-0.00573767
0.0395913
0.0239913
0.0457961
0.0312311
0.0242444
0.0195185
0.00275776
0.0106004
-0.00473014
0.0072715
-0.00624569
0.00452465
-0.00655029
0.00187348
-0.00592632
-0.000176266
-0.00467657
-0.00145801
-0.0032647
-0.00204654
-0.00194079
-0.00211591
-0.000904798
-0.00186488
-0.000184687
-0.00147258
0.000247004
-0.00105838
0.000463203
-0.000690241
0.000536472
-0.000399602
0.000533899
-0.000191817
0.000494222
-6.17512e-05
0.000458009
-8.37249e-07
0.000414368
-0.00977388
-0.00833036
-0.0542928
-0.0221616
-0.0612732
-0.0180596
-0.0502393
-0.00126873
-0.019436
0.0254019
0.0157142
0.0478683
0.0375316
0.0394956
0.0313673
0.0123956
0.0167883
-0.00343012
0.0100016
-0.00746027
0.00654026
-0.0082613
0.0030976
-0.00777441
0.000254504
-0.00635709
-0.00164222
-0.00449236
-0.0025835
-0.00272774
-0.00277561
-0.00128109
-0.00249186
-0.000277819
-0.00198458
0.000327315
-0.00143446
0.000623085
-0.000941293
0.000714256
-0.000551877
0.000688747
-0.000272807
0.000614889
-9.37759e-05
0.000526248
1.69746e-06
0.000455475
2.79924e-05
0.000386377
0.0017886
-0.00109867
-0.0424237
-0.0201995
-0.0604562
-0.0229786
-0.0568389
-0.01146
-0.0321676
0.0114629
0.00214399
0.0389721
0.0357863
0.0496136
0.0440021
0.0268609
0.0277439
0.0014399
0.0147514
-0.00817986
0.0093111
-0.0102311
0.00496843
-0.0101321
0.00101251
-0.00853242
-0.00174754
-0.00625178
-0.00322375
-0.0038521
-0.00363732
-0.00186602
-0.00333374
-0.000439219
-0.00268072
0.000418327
-0.00194285
0.000835708
-0.00127552
0.000957312
-0.000748108
0.000910489
-0.000370995
0.000786936
-0.000127244
0.000648358
8.8001e-06
0.000519146
6.26959e-05
0.000420773
5.35033e-05
0.000332874
0.0115358
0.00267669
-0.0318874
-0.0116349
-0.0562607
-0.024395
-0.060551
-0.0192664
-0.0432903
-0.000337274
-0.0099408
0.0235477
0.0261309
0.0486276
0.051703
0.0419127
0.0431199
0.0114849
0.0234331
-0.00724179
0.0135561
-0.0124249
0.00781226
-0.0130749
0.00241237
-0.011532
-0.00170175
-0.00857821
-0.00400045
-0.00547508
-0.00475677
-0.00273265
-0.00447265
-0.000727105
-0.00363416
0.000514219
-0.00264076
0.00111623
-0.00172876
0.00128895
-0.00100798
0.00121718
-0.000494338
0.00103383
-0.00016336
0.000823052
2.46689e-05
0.00063249
0.000107123
0.00047472
0.000116415
0.000357862
7.36309e-05
0.000259244
0.01719
0.00470673
-0.0208044
-0.00840632
-0.0523968
-0.0154988
-0.0618396
-0.0231064
-0.0525886
-0.00996811
-0.0211182
0.0108401
0.013054
0.0366245
0.0498976
0.0504329
0.0589232
0.0261093
0.0374749
-0.00255697
0.0204878
-0.0141735
0.0121985
-0.0168111
0.00500993
-0.0156725
-0.0011271
-0.0121066
-0.00488339
-0.00769527
-0.00626733
-0.00396452
-0.00602292
-0.00118239
-0.00495393
0.000592661
-0.00360886
0.00148232
-0.0023534
0.00174087
-0.00135907
0.00164004
-0.000654394
0.00137724
-0.000203011
0.00107348
5.27189e-05
0.000795003
0.000169652
0.000569962
0.000193312
0.000397823
0.000158468
0.000273025
8.69796e-05
0.000172265
0.0200939
0.00360576
-0.0120128
-0.00408486
-0.0469377
-0.0138655
-0.0609899
-0.0163485
-0.058487
-0.017208
-0.0330202
0.0019339
0.00400766
0.0198865
0.0386028
0.0479194
0.0685484
0.0408078
0.0562024
0.00738186
0.0314572
-0.0135264
0.0185373
-0.0205124
0.00944043
-0.0212416
0.000695071
-0.0174947
-0.00547517
-0.0115149
-0.00819974
-0.00576286
-0.00820667
-0.00178076
-0.0068036
0.000667285
-0.00496904
0.00195284
-0.00322535
0.00235428
-0.00184172
0.00222352
-0.000866755
0.0018524
-0.000248373
0.0014226
9.91505e-05
0.00102705
0.000257894
0.000706761
0.000295894
0.000467381
0.000260276
0.000296016
0.000185947
0.000174059
9.26586e-05
7.96072e-05
0.0208438
0.00153005
-0.00744476
-0.00096231
-0.0395861
-0.0114365
-0.0595069
-0.0153484
-0.0606936
-0.014142
-0.0433807
-0.00684755
-0.00307116
0.00901272
0.0229738
0.0355154
0.0674788
0.048989
0.075207
0.0218032
0.0477718
-0.0089327
0.0270999
-0.0220889
0.0155258
-0.0265977
0.00435149
-0.024898
-0.00506621
-0.0179036
-0.0102325
-0.00948208
-0.0111467
-0.00282287
-0.00945857
0.000874206
-0.00690513
0.00260337
-0.00446014
0.00318764
-0.00251507
0.00302762
-0.00115436
0.00251113
-0.000301127
0.00190516
0.000171152
0.0013506
0.000384295
0.000900653
0.000435145
0.00056751
0.000392905
0.000334753
0.00030339
0.000178574
0.000197046
6.96722e-05
9.04913e-05
-1.08832e-05
0.0192991
-0.000843791
-0.00577274
-0.000141965
-0.0319713
-0.00857706
-0.0578059
-0.0131375
-0.0622641
-0.0137779
-0.0493036
-0.0082191
-0.0150057
0.00508703
0.0125725
0.019414
0.0564894
0.0465048
0.0881036
0.0360924
0.0686155
0.000959436
0.0389015
-0.0207343
0.0225916
-0.0291548
0.00924713
-0.0314933
-0.00343278
-0.0265314
-0.0118784
-0.0162578
-0.0147342
-0.00589452
-0.0131752
0.000893775
-0.00969199
0.00366107
-0.00622261
0.00436584
-0.00346974
0.00414231
-0.00155035
0.00342361
-0.000364336
0.00257434
0.000280764
0.00179555
0.00056423
0.00117067
0.000628276
0.000707523
0.000569625
0.000390791
0.000454031
0.000184112
0.000319848
5.5773e-05
0.000191502
-3.13375e-05
8.07594e-05
-9.16418e-05
0.0163543
-0.00365037
-0.00548339
-0.00113314
-0.0269819
-0.00513139
-0.0557926
-0.0105904
-0.0632575
-0.0121441
-0.0540906
-0.00899083
-0.0244638
0.00123892
0.00910291
0.00855665
0.0405346
0.0353688
0.0911892
0.0434191
0.0903085
0.0143994
0.0553541
-0.0154931
0.0309047
-0.0290474
0.0144401
-0.0343478
-0.00135528
-0.0335708
-0.0135138
-0.024896
-0.0188675
-0.0121245
-0.0182259
-0.000843821
-0.0137248
0.00492664
-0.0087264
0.00616485
-0.00482157
0.00571767
-0.00210664
0.0046986
-0.000440447
0.00349972
0.000444112
0.00241099
0.00082136
0.00153842
0.000896874
0.000902068
0.000810518
0.00046663
0.000652237
0.000192586
0.000475381
2.85793e-05
0.000309344
-6.20684e-05
0.000170018
-0.000120595
6.46276e-05
-0.000156269
0.0131495
-0.00552748
-0.00697514
-0.00215862
-0.0258323
-0.00228272
-0.0542171
-0.00670682
-0.0645616
-0.00928626
-0.0581209
-0.00811383
-0.0329306
-0.000523996
0.00581671
0.00452513
0.026198
0.0228932
0.0866412
0.0399169
0.106387
0.0273408
0.0765457
-0.0067922
0.0415758
-0.0261643
0.0200921
-0.0346994
0.000689008
-0.0363921
-0.0156299
-0.0314547
-0.0242761
-0.0194874
-0.0250333
-0.00531711
-0.0197341
0.00516544
-0.0124254
0.00862567
-0.00668188
0.00802516
-0.00287713
0.00648816
-0.000535707
0.00479386
0.000688516
0.00325532
0.00118755
0.0020448
0.00127283
0.00116246
0.00114101
0.000571582
0.000919011
0.000199856
0.000677914
-9.94519e-06
0.000456783
-0.000118859
0.000273125
-0.000165175
0.000135133
-0.0001911
4.35984e-05
-0.000199866
0.00885014
-0.0059581
-0.010449
-0.00205363
-0.0284574
0.000466492
-0.0543345
-0.00216538
-0.0660988
-0.00516957
-0.06197
-0.0054372
-0.0399882
-0.00105618
0.00108062
0.00421209
0.019631
0.0110922
0.0789535
0.0305809
0.112856
0.033448
0.0984859
0.00540052
0.0560468
-0.0212631
0.0266836
-0.0327558
0.00333119
-0.0373415
-0.0176975
-0.0343245
-0.0311248
-0.024606
-0.0339418
-0.0105789
-0.0286437
0.00359247
-0.018362
0.011102
-0.00943197
0.0113758
-0.00386124
0.00900928
-0.00064142
0.00659387
0.00105165
0.00443073
0.00171383
0.00272904
0.00179879
0.00151885
0.00159723
0.00070623
0.00128124
0.000209349
0.00094755
-6.97795e-05
0.000646878
-0.00020004
0.000400325
-0.000246058
0.000215375
-0.000245416
9.00512e-05
-0.000237552
1.95353e-05
-0.0002194
0.00193768
-0.00465359
-0.0162538
-0.000153321
-0.0344196
0.00390853
-0.0568484
0.00298038
-0.0683213
5.70354e-05
-0.0657142
-0.00142534
-0.0455331
0.000107628
-0.00400365
0.0040281
0.0170034
0.00683971
0.0721734
0.0178722
0.112328
0.0311089
0.115434
0.0165
0.0746213
-0.013174
0.034857
-0.0294365
0.00699507
-0.0364196
-0.0187654
-0.0362736
-0.0372333
-0.028216
-0.0439384
-0.0146094
-0.0402966
0.00107395
-0.0275639
0.0127944
-0.0141664
0.0158365
-0.00523622
0.0127508
-0.000662531
0.00903039
0.00159823
0.00604729
0.00247145
0.0036731
0.00254044
0.00198739
0.00222732
0.000888761
0.00177557
0.000211901
0.0013105
-0.000153604
0.000897298
-0.000320198
0.000562463
-0.000362177
0.00031236
-0.000343041
0.000141325
-0.000296688
3.86961e-05
-0.000256712
-5.32158e-06
-0.000214078
-0.00978353
-0.00217148
-0.0249306
0.00402325
-0.0431827
0.00860983
-0.0618557
0.00891586
-0.0719751
0.00663425
-0.0691252
0.00346805
-0.0493361
0.0023777
-0.00761303
0.003717
0.0169393
0.00409216
0.0672818
0.0117314
0.107878
0.022322
0.124614
0.0219286
0.0942137
-0.00309238
0.0460874
-0.0244044
0.0115424
-0.0339839
-0.0183833
-0.0368018
-0.042167
-0.0313399
-0.0536581
-0.0184963
-0.0519679
-0.00293808
-0.0395737
0.0130838
-0.0218762
0.0205041
-0.00789846
0.0184987
-0.000490108
0.0125783
0.00247688
0.00815175
0.0035697
0.00494904
0.00358757
0.00262597
0.00310209
0.00111263
0.00245111
0.000213223
0.00180076
-0.000278351
0.00123173
-0.000488038
0.000773534
-0.000531269
0.000433893
-0.000483709
0.000200702
-0.000402418
5.73614e-05
-0.000315353
-1.42437e-05
-0.000247789
-2.87782e-05
-0.000185299
-0.0267273
0.0146871
-0.0453691
0.0182671
-0.0544252
0.0152657
-0.0689435
0.0156976
-0.0763129
0.0132536
-0.0713418
0.00885085
-0.0504574
0.0045893
-0.00852995
0.00329463
0.0185471
0.00210925
0.0648357
0.00653822
0.103799
0.0158105
0.125124
0.0218121
0.111157
0.00498497
0.0605261
-0.017531
0.0171418
-0.0300038
-0.0167225
-0.0356447
-0.0456751
-0.0332937
-0.0619044
-0.0230936
-0.0628904
-0.00757375
-0.0529276
0.0104158
-0.0321572
0.0233648
-0.0131054
0.0257111
-0.000540644
0.0185492
0.00403981
0.0110154
0.00516454
0.00655691
0.00507845
0.00345815
0.00431533
0.00141273
0.00337577
0.000187975
0.00246497
-0.000450995
0.00167922
-0.000725839
0.00105311
-0.000767613
0.000589413
-0.000686788
0.000272319
-0.000555325
7.48398e-05
-0.000419895
-2.89116e-05
-0.000300684
-6.4155e-05
-0.000212411
-4.87795e-05
-0.000136519
-0.0466745
0.0340288
-0.0662808
0.0355988
-0.0698702
0.033712
-0.075664
0.0219863
-0.0791787
0.0185635
-0.0709109
0.0128227
-0.0469361
0.00532961
-0.00654666
0.00260601
0.0220735
-0.000231773
0.0650586
0.00188632
0.100917
0.00942033
0.122806
0.0181286
0.119342
0.0136272
0.0761175
-0.0106064
0.0248123
-0.0252015
-0.0141052
-0.0326211
-0.0477627
-0.033557
-0.0694827
-0.0257155
-0.0743815
-0.0116025
-0.0649823
0.0044809
-0.0450706
0.0233292
-0.0212705
0.0315299
-0.00222487
0.0273953
0.00653676
0.0160523
0.00769152
0.00848841
0.00715179
0.00448357
0.00601403
0.00175945
0.0046381
0.000150406
0.00336255
-0.000709595
0.00228145
-0.00105322
0.00142373
-0.00109646
0.000793048
-0.000971248
0.000360459
-0.000774927
9.12105e-05
-0.000571695
-5.39859e-05
-0.00039482
-0.000110004
-0.000254834
-0.00010667
-0.00015452
-6.34839e-05
-7.3034e-05
-0.0533863
0.0363595
-0.0712207
0.0389686
-0.0733984
0.039127
-0.0779424
0.0359904
-0.0774894
0.020297
-0.0657776
0.0134302
-0.0382315
0.00411804
-0.00227776
0.00106071
0.0278265
-0.00314704
0.0671901
-0.00236321
0.0992374
0.00356573
0.119898
0.0123282
0.122759
0.0147116
0.0883682
0.00137647
0.0335088
-0.0193029
-0.0100435
-0.0292632
-0.0478783
-0.0325055
-0.0758587
-0.0271809
-0.0857178
-0.0143792
-0.0787416
0.00215685
-0.060195
0.0196053
-0.0320147
0.0340734
-0.00691828
0.0362233
0.00903736
0.0248947
0.0119426
0.0118012
0.010169
0.0054712
0.00832047
0.00217713
0.00637195
2.56041e-05
0.00457331
-0.00106036
0.00308625
-0.0015144
0.00192
-0.00154948
0.00105989
-0.0013633
0.000472719
-0.00108351
0.000105277
-0.000788993
-9.35237e-05
-0.000532157
-0.000174666
-0.000330158
-0.000178826
-0.000182677
-0.000137808
-8.01956e-05
-7.16862e-05
-1.34713e-06
-0.0452747
0.0240664
-0.0591062
0.0242451
-0.0621476
0.0277178
-0.0663429
0.0275275
-0.0644273
0.0229283
-0.0552208
0.00974013
-0.0265204
0.00171915
0.00412598
-0.0022857
0.0354101
-0.00652282
0.0702426
-0.00619955
0.0985823
-0.00170806
0.117181
0.00628241
0.122682
0.0124059
0.098241
0.00483882
0.0427291
-0.00784381
-0.00585114
-0.0234953
-0.0462574
-0.0308841
-0.0796656
-0.0286987
-0.095911
-0.0169877
-0.0921549
-0.000965927
-0.0742722
0.0162341
-0.0456604
0.033251
-0.0145098
0.0416649
0.00958807
0.0356726
0.0180068
0.0188305
0.0150542
0.00691595
0.0114665
0.00232516
0.00869352
-0.000144439
0.00620171
-0.0016028
0.00416438
-0.00213849
0.00257733
-0.00217173
0.00141552
-0.00190512
0.000616081
-0.00150666
0.000117322
-0.00109555
-0.000154218
-0.000728298
-0.000266077
-0.000440745
-0.00027665
-0.000232333
-0.000228898
-9.15863e-05
-0.000154926
3.04534e-06
-7.27242e-05
7.13779e-05
-0.0330873
0.00511662
-0.0410881
0.00604822
-0.04537
0.00746755
-0.0476312
0.00900615
-0.0447555
0.00785566
-0.0349175
0.00262505
-0.0144482
-0.00233207
0.0123371
-0.00649194
0.0427638
-0.00963945
0.0735921
-0.0098723
0.0988347
-0.00645197
0.115118
0.000355705
0.12087
0.0080939
0.104018
0.00662894
0.052049
-0.00448111
9.22705e-05
-0.0137872
-0.0450969
-0.0246558
-0.082627
-0.0279226
-0.104369
-0.0202402
-0.104613
-0.00452984
-0.0874979
0.0122597
-0.0586739
0.0292477
-0.0238729
0.0426141
0.00694564
0.0443073
0.0240303
0.0296491
0.0229867
0.0108981
0.0160887
0.00229377
0.0117385
-0.00071982
0.00836474
-0.00230747
0.00558618
-0.00302459
0.00345625
-0.0030174
0.00188338
-0.00263959
0.000805212
-0.00209425
0.00012577
-0.00151511
-0.000243453
-0.00100632
-0.000396094
-0.00059828
-0.000411357
-0.000306037
-0.000350238
-0.000110991
-0.000255936
9.42442e-06
-0.00015657
8.68917e-05
-6.64687e-05
0.000137847
-0.0229359
-0.00678609
-0.0282559
-0.00771557
-0.0324053
-0.00691652
-0.0333218
-0.00684189
-0.0281099
-0.00763943
-0.0175947
-0.00946718
-0.000643941
-0.0111792
0.0208345
-0.0108295
0.0493907
-0.0131188
0.0773731
-0.0134205
0.0995924
-0.01063
0.113649
-0.0049831
0.118479
0.00274641
0.106048
0.00606401
0.0603775
-0.0016996
0.00588534
-0.0102742
-0.0408672
-0.0180169
-0.0852023
-0.0220805
-0.113511
-0.0187807
-0.117831
-0.00702191
-0.101
0.00897234
-0.0713453
0.0249311
-0.0347507
0.0401254
0.00126506
0.0482947
0.0275364
0.0408012
0.0331795
0.0194563
0.0239164
0.00307037
0.0157317
-0.00169945
0.0111398
-0.00349488
0.00747108
-0.00419237
0.00459881
-0.00416716
0.00251116
-0.00364518
0.00105119
-0.00288557
0.000132722
-0.0021012
-0.000371642
-0.00138692
-0.00057954
-0.000822871
-0.000599209
-0.000410427
-0.000515357
-0.000140918
-0.000389022
2.20946e-05
-0.000257589
0.000110445
-0.00014249
0.000162914
-5.36935e-05
0.000191542
-0.0152787
-0.0110334
-0.0203021
-0.0147399
-0.0237122
-0.0164086
-0.022968
-0.0172702
-0.0171232
-0.0178286
-0.00600909
-0.019225
0.0101746
-0.0202857
0.0301863
-0.0205311
0.0550132
-0.016452
0.0810023
-0.016748
0.100722
-0.0145496
0.112592
-0.00957292
0.115985
-0.00248857
0.105309
0.00348501
0.0664984
-5.68994e-05
0.0106539
-0.00646817
-0.0365496
-0.0145918
-0.0821013
-0.0211179
-0.119159
-0.0164326
-0.13106
-0.00555224
-0.115565
0.00754343
-0.0842657
0.0218927
-0.0459859
0.0361663
-0.00640564
0.0477961
0.0274487
0.0483825
0.0431028
0.0308779
0.0356406
0.00773205
0.0221091
-0.00330702
0.0145457
-0.00510533
0.00984439
-0.0058682
0.00611721
-0.00571077
0.00332481
-0.0049808
0.00138267
-0.00397665
0.000136879
-0.00288973
-0.000550597
-0.00192225
-0.000835608
-0.00113085
-0.000861531
-0.000560548
-0.000743652
-0.000182131
-0.000568799
3.88605e-05
-0.000389489
0.000153995
-0.000233492
0.000201447
-0.000114446
0.000223667
-3.56391e-05
0.000227181
-0.00996968
-0.0106076
-0.0135607
-0.0177748
-0.0167162
-0.0217359
-0.015463
-0.0239136
-0.00891371
-0.0254798
0.00236435
-0.026202
0.0180271
-0.0270776
0.0372975
-0.0273969
0.0592913
-0.0248091
0.0840112
-0.0194609
0.101811
-0.0178378
0.111203
-0.0131611
0.113382
-0.00697044
0.102763
5.72833e-05
0.0687877
0.00119572
0.012809
-0.00221198
-0.0316933
-0.0113244
-0.0788321
-0.017861
-0.116951
-0.0233261
-0.136516
-0.0109766
-0.125545
0.00442725
-0.0958942
0.0191719
-0.0564217
0.0323286
-0.0146462
0.0444069
0.0243779
0.0508669
0.050312
0.0411732
0.0500793
0.0164392
0.0325136
-0.00267246
0.0191777
-0.00793899
0.0127798
-0.00804072
0.00800703
-0.00775801
0.00441923
-0.00680519
0.00182478
-0.00542291
0.000147896
-0.00398767
-0.000795656
-0.00264467
-0.00119044
-0.00156741
-0.00122563
-0.000766745
-0.00106119
-0.000243014
-0.000816085
6.51556e-05
-0.000566581
0.000215954
-0.000351171
0.000271675
-0.000186587
0.000273589
-7.52229e-05
0.000263252
-1.40795e-05
0.000241261
-0.00651773
-0.00826442
-0.00823613
-0.0159321
-0.0108446
-0.0236463
-0.00956235
-0.0276366
-0.00290543
-0.0299219
0.00843707
-0.0315525
0.0237921
-0.0319671
0.0420691
-0.0318492
0.0621252
-0.0302308
0.0840655
-0.0248635
0.102513
-0.0201624
0.109727
-0.0163616
0.110303
-0.0100816
0.0986706
-0.00287769
0.0667643
0.00208075
0.0123986
0.00160611
-0.0259397
-0.00796562
-0.0763444
-0.0138121
-0.114643
-0.0201689
-0.137121
-0.0227202
-0.134134
-0.00238775
-0.105402
0.0139348
-0.0656857
0.0284358
-0.0221551
0.0398375
0.0196792
0.0491055
0.0537786
0.0474004
0.0644032
0.0268493
0.0476776
0.00127529
0.0267553
-0.0102501
0.0161182
-0.0112774
0.0104467
-0.0104804
0.00579407
-0.00913284
0.00242583
-0.00740625
0.000171068
-0.00544608
-0.00112163
-0.00366169
-0.00167482
-0.00216029
-0.001731
-0.00106204
-0.0015017
-0.000326228
-0.00115924
0.000100145
-0.000809064
0.000307638
-0.000508093
0.000372877
-0.000278646
0.000363734
-0.000121523
0.00031989
-2.87286e-05
0.000277902
8.9162e-06
0.000232346
-0.00430971
-0.0061848
-0.00464978
-0.0118508
-0.00576867
-0.0210081
-0.0050782
-0.0281305
0.00102282
-0.0315649
0.0122586
-0.0337434
0.0269833
-0.0347437
0.044276
-0.0341739
0.0630189
-0.0327429
0.0817202
-0.0278855
0.0994217
-0.0217723
0.107552
-0.0179872
0.10565
-0.0117086
0.093034
-0.00444491
0.0613049
0.00258168
0.0103366
0.00414275
-0.0199721
-0.00436153
-0.0748884
-0.0094216
-0.113117
-0.015338
-0.13811
-0.0191808
-0.14071
-0.016144
-0.118776
0.010987
-0.0764997
0.0247489
-0.0284021
0.0346828
0.0147073
0.0448094
0.0541237
0.0487604
0.0759045
0.035899
0.0660561
0.00847078
0.0389866
-0.010956
0.0210801
-0.015212
0.0130678
-0.0138985
0.00762127
-0.0123076
0.00323978
-0.00994679
0.000230161
-0.00746534
-0.0015437
-0.00502402
-0.00233059
-0.00300592
-0.00242452
-0.00146677
-0.00211505
-0.000448695
-0.00163565
0.000150175
-0.00114472
0.000435806
-0.000721693
0.000521239
-0.000400172
0.000494404
-0.000179112
0.000421324
-4.4797e-05
0.000335959
2.05586e-05
0.00026626
3.11471e-05
0.000201199
-0.00284382
-0.00466823
-0.00258716
-0.00824742
-0.00237888
-0.0152405
-0.0014183
-0.024668
0.00304749
-0.0301552
0.0136437
-0.03295
0.0276358
-0.0343959
0.0438581
-0.0343258
0.061007
-0.032162
0.0778703
-0.028893
0.0930539
-0.0215177
0.102046
-0.0162669
0.0997362
-0.0120736
0.0859851
-0.00465969
0.0536361
0.00322383
0.00724708
0.00567121
-0.015464
-0.000365353
-0.0741537
-0.0050963
-0.112487
-0.0100514
-0.138521
-0.0149271
-0.145484
-0.014407
-0.128714
-0.00620677
-0.0873428
0.0218301
-0.0324962
0.0288429
0.0103701
0.03902
0.052494
0.0464391
0.083677
0.0409879
0.0846337
0.0173215
0.0562759
-0.00881858
0.0291026
-0.0189784
0.0164657
-0.0186098
0.00978091
-0.0160582
0.00437224
-0.01344
0.000387631
-0.0101043
-0.00207021
-0.00693883
-0.00320245
-0.00415215
-0.00337688
-0.00205356
-0.00296271
-0.000619104
-0.00230064
0.000216303
-0.00161074
0.000616191
-0.00101619
0.000730302
-0.000563953
0.00068502
-0.000253566
0.000568858
-6.25745e-05
0.000439102
3.61551e-05
0.000320363
6.79577e-05
0.00022945
5.06327e-05
0.000150567
-0.00186436
-0.00355928
-0.00148116
-0.00577424
-0.000677832
-0.00994847
0.00100116
-0.01766
0.00432535
-0.0259458
0.0127143
-0.0292257
0.0261206
-0.0314348
0.040988
-0.0315257
0.0565718
-0.0298906
0.0716915
-0.0259832
0.08458
-0.0204191
0.0932926
-0.0127639
0.0908077
-0.00733835
0.077122
-0.00321052
0.0442871
0.00468937
0.00393128
0.00653963
-0.013825
0.00403221
-0.0738539
-0.000665136
-0.112834
-0.00475001
-0.138828
-0.00974379
-0.148463
-0.0119473
-0.1355
-0.00762116
-0.0969809
0.00343136
-0.0344488
0.0237827
0.00638821
0.0328248
0.0498535
0.0416606
0.088019
0.0420972
0.100845
0.0247765
0.0773859
-0.00378853
0.0415024
-0.0212184
0.0212662
-0.023779
0.0124178
-0.0212468
0.00597606
-0.017662
0.000724889
-0.0137773
-0.00266841
-0.00950605
-0.00433836
-0.00580292
-0.00466585
-0.00286318
-0.00414056
-0.000875721
-0.00322576
0.000306015
-0.00226193
0.000867493
-0.00142421
0.00102421
-0.000788027
0.000954377
-0.000351655
0.00078311
-8.31493e-05
0.000589434
5.95747e-05
0.000415683
0.000113602
0.00027472
0.000109302
0.000170781
6.56244e-05
8.49431e-05
-0.0012198
-0.00265892
-0.0007888
-0.00425164
-1.33984e-05
-0.00643867
0.00188643
-0.0108337
0.00502058
-0.0183552
0.0109925
-0.024224
0.0221373
-0.0252424
0.036152
-0.0265989
0.0502882
-0.0252421
0.0632909
-0.0214901
0.0751074
-0.0165105
0.0820211
-0.00914759
0.0800988
-0.00205503
0.0654945
0.00428914
0.0351612
0.0059154
0.00132197
0.00729869
-0.0157861
0.0085008
-0.0740546
0.00423287
-0.113931
0.000432684
-0.13935
-0.00422863
-0.150126
-0.00808111
-0.14035
-0.00709683
-0.105092
0.000489863
-0.0415621
0.0105446
0.00427069
0.0259002
0.0456408
0.0370374
0.0902714
0.0394081
0.113589
0.0293532
0.0993129
0.00284944
0.0590882
-0.0213743
0.0285741
-0.0285264
0.0156745
-0.0270356
0.0080323
-0.023303
0.00146788
-0.018405
-0.00329518
-0.0131505
-0.00577203
-0.00807237
-0.00640191
-0.00406686
-0.00576061
-0.00124312
-0.00452178
0.0004203
-0.003172
0.00121609
-0.00199361
0.0014369
-0.00109645
0.00133263
-0.000483337
0.00108606
-0.000106639
0.000806601
9.42103e-05
0.000554799
0.000175597
0.000353688
0.000180701
0.000203321
0.000140914
9.54919e-05
7.50468e-05
9.89671e-06
-0.000744807
-0.00202489
-0.000341971
-0.00310575
0.000258953
-0.00452399
0.00185166
-0.0064039
0.00470982
-0.010523
0.00929219
-0.016655
0.0174109
-0.0194976
0.0293738
-0.0184642
0.041803
-0.0181136
0.0535999
-0.0155511
0.0641499
-0.0105326
0.0699619
-0.00445133
0.067882
0.00306912
0.0546001
0.00883939
0.0270747
0.0123755
-0.00166781
0.00890518
-0.021144
0.0126565
-0.0752326
0.00967886
-0.115607
0.00590801
-0.140469
0.00155219
-0.151173
-0.00318138
-0.143051
-0.00538014
-0.110978
-0.00121108
-0.0498669
0.00879471
-0.000517482
0.0153328
0.040128
0.031413
0.0912548
0.0360541
0.122981
0.0300158
0.120129
0.00853682
0.0806028
-0.0186652
0.0397698
-0.03257
0.0201476
-0.0329994
0.0107424
-0.0297457
0.00269295
-0.0245281
-0.00380321
-0.017897
-0.0075659
-0.0113567
-0.00869876
-0.00577552
-0.00799712
-0.00183035
-0.00632853
0.000563631
-0.00445289
0.00170119
-0.00279039
0.00201287
-0.00152444
0.00186488
-0.000661108
0.0015104
-0.00013403
0.00111345
0.000146434
0.000754377
0.000261311
0.000469085
0.000275204
0.000259185
0.000231472
0.000112764
0.000160513
1.00263e-05
7.83133e-05
-6.84162e-05
-0.000455335
-0.00147701
-9.12468e-05
-0.00227562
0.000399772
-0.00324657
0.00156278
-0.00423512
0.0038185
-0.00551258
0.00745352
-0.00868431
0.0130777
-0.0123218
0.0222655
-0.0123893
0.0337984