/*--------------------------------*- C++ -*----------------------------------*\
| =========                 |                                                 |
| \\      /  F ield         | OpenFOAM: The Open Source CFD Toolbox           |
|  \\    /   O peration     | Version:  2506                                  |
|   \\  /    A nd           | Website:  www.openfoam.com                      |
|    \\/     M anipulation  |                                                 |
\*---------------------------------------------------------------------------*/
FoamFile
{
    version     2.0;
    format      ascii;
    arch        "LSB;label=32;scalar=64";
    class       volScalarField;
    location    "180.017606233241935";
    object      p;
}
// * * * * * * * * * * * * * * * * * * * * * * * * * * * * * * * * * * * * * //

dimensions      [0 2 -2 0 0 0 0];

internalField   nonuniform List<scalar> 
9700
(
0.0020817
0.00210102
0.00500303
0.00211474
0.0050368
0.00889655
0.0021571
0.00506204
0.00895434
0.0124702
0.0021987
0.00513403
0.00901268
0.0125454
0.016079
0.00226776
0.00520644
0.00914474
0.0126309
0.0161708
0.0195884
0.00234569
0.00532022
0.00929404
0.0128082
0.0162827
0.019694
0.0230282
0.00245308
0.0054458
0.00951326
0.013018
0.0165034
0.0198286
0.0231452
0.0263772
0.0025824
0.00560983
0.00977005
0.0133169
0.0167717
0.0200859
0.023299
0.0265032
0.0296359
0.00274946
0.00579562
0.0101005
0.0136736
0.0171475
0.0204039
0.0235869
0.026672
0.0297683
0.0327983
0.00295414
0.00601935
0.010491
0.0141275
0.0176012
0.0208444
0.0239464
0.0269837
0.0299481
0.0329346
0.0358619
0.00321766
0.00627619
0.0109669
0.0146678
0.0181753
0.02138
0.0244407
0.0273753
0.0302767
0.0331214
0.036
0.0388269
0.00362845
0.00656877
0.0115256
0.0153233
0.0188633
0.0220552
0.0250441
0.0279107
0.030691
0.0334601
0.03619
0.0389648
0.0416947
0.00432767
0.00687865
0.0121824
0.0160943
0.0196982
0.0228676
0.025803
0.0285658
0.0312547
0.0338877
0.0365327
0.0391548
0.0418309
0.044466
0.0051349
0.00718392
0.0129356
0.0169986
0.0206862
0.0238541
0.0267186
0.0293877
0.0319444
0.0344669
0.0369648
0.0394961
0.0420182
0.0445994
0.0471423
0.00532651
0.00742598
0.0137687
0.0180309
0.0218525
0.0250277
0.0278319
0.0303808
0.0328078
0.0351744
0.0375474
0.0399249
0.0423537
0.0447821
0.0472725
0.0497277
0.00390123
0.00755662
0.0145967
0.0191903
0.0231994
0.0264219
0.0291626
0.0315893
0.0338508
0.0360568
0.0382564
0.0405003
0.0427731
0.0451088
0.0474494
0.0498545
0.0522239
0.00162381
0.00738637
0.0152829
0.0204311
0.024735
0.0280499
0.0307538
0.0330392
0.0351194
0.0371206
0.0391365
0.0411965
0.0433328
0.0455144
0.0477656
0.0500252
0.0523475
0.0546324
-0.00257501
0.00716283
0.0153382
0.0216674
0.0264183
0.0299372
0.0326319
0.0347823
0.0366446
0.0384118
0.0401926
0.042055
0.0440044
0.0460524
0.048155
0.0503306
0.0525123
0.0547535
0.0569564
-0.00937877
0.00381479
0.0136852
0.0225057
0.0281804
0.032065
0.0348416
0.0368587
0.0384845
0.0399633
0.0414686
0.0430771
0.0448255
0.0466914
0.0486682
0.0507034
0.0528078
0.0549133
0.0570756
0.0591966
-0.0165352
-0.00353577
0.00839367
0.0219152
0.0297055
0.0344116
0.0373883
0.0393337
0.040691
0.0418363
0.0429954
0.0443025
0.045792
0.0474641
0.0492706
0.0511917
0.0531654
0.0552005
0.0572317
0.0593146
0.061353
-0.020814
-0.0157673
2.35694e-06
0.0181493
0.0302929
0.0367959
0.0402955
0.0422425
0.0433463
0.0440899
0.0448337
0.045756
0.0469369
0.0483598
0.0499897
0.0517577
0.0536314
0.0555459
0.0575129
0.0594681
0.0614705
0.0634269
-0.0215498
-0.0262568
-0.0164879
0.00815836
0.028129
0.0387846
0.0434887
0.045651
0.0465138
0.0468169
0.0470423
0.0474926
0.0482749
0.0494029
0.0508073
0.0524238
0.0541651
0.055994
0.0578496
0.0597458
0.0616228
0.0635441
0.065419
-0.018984
-0.0337398
-0.0322653
-0.00646157
0.0197411
0.0390846
0.046792
0.0495602
0.0502948
0.0501019
0.0497162
0.049562
0.0498501
0.0505944
0.0517382
0.0531648
0.0547844
0.0565024
0.0582857
0.0600778
0.061899
0.063696
0.065536
0.067329
-0.0140805
-0.0381873
-0.0447025
-0.0241272
0.00860581
0.0357228
0.0494468
0.0539653
0.0547455
0.0540707
0.0529483
0.0520523
0.0516934
0.0519628
0.0527678
0.0539852
0.0554585
0.0570858
0.0587778
0.0605078
0.0622297
0.0639723
0.0656881
0.0674456
0.0691573
-0.00842788
-0.0364556
-0.0538392
-0.0403284
-0.00754549
0.0273702
0.0500379
0.0585708
0.0599438
0.0588174
0.0568725
0.0550468
0.0538754
0.0535114
0.0539048
0.0548552
0.0561823
0.0577094
0.0593388
0.060993
0.0626591
0.0643043
0.065965
0.0675978
0.0692729
0.0709057
-0.00479526
-0.0299815
-0.0508344
-0.0528331
-0.0245213
0.01425
0.0469668
0.0625788
0.0658628
0.0644512
0.0616008
0.0586654
0.0564469
0.0552813
0.05512
0.0557613
0.0569131
0.0583607
0.0599324
0.0615458
0.0631458
0.0647371
0.0662996
0.0678751
0.0694246
0.0710196
0.0725757
-0.00267643
-0.0236154
-0.0413791
-0.0535675
-0.0383192
-0.00042348
0.0383805
0.0645147
0.0721746
0.07103
0.0672472
0.0630093
0.0594912
0.0572674
0.0564125
0.0566402
0.0576155
0.0589884
0.0605419
0.0621308
0.0637031
0.0652317
0.0667379
0.0682123
0.069701
0.0711698
0.0726868
0.0741693
-0.0015497
-0.0160798
-0.0329356
-0.046929
-0.0446898
-0.0141208
0.0248955
0.0623702
0.0779536
0.0784424
0.0738466
0.0681567
0.0630468
0.0594874
0.0577097
0.0574406
0.0581956
0.0595399
0.0611127
0.0627305
0.0642988
0.0658031
0.0672438
0.068656
0.0700394
0.0714434
0.0728342
0.0742765
0.07569
-0.00112305
-0.00889162
-0.0223536
-0.0388751
-0.0426656
-0.0249558
0.0123374
0.0544734
0.0811186
0.0862712
0.081315
0.0740541
0.0670954
0.0618317
0.0589205
0.0580188
0.0585507
0.0598993
0.0615823
0.0632924
0.0649174
0.0664241
0.0678347
0.0691735
0.0704863
0.0717802
0.0731024
0.0744197
0.0757924
0.077142
-0.00087809
-0.00204399
-0.0125042
-0.0278113
-0.0372051
-0.0283814
0.00278595
0.0412591
0.0795647
0.0925311
0.0894091
0.0806131
0.0714439
0.0641004
0.0596856
0.0581373
0.0584655
0.0599238
0.0618266
0.0637518
0.0655132
0.0670835
0.0684894
0.0697847
0.0710128
0.0722265
0.073434
0.0746796
0.0759296
0.0772388
0.0785292
-0.000779619
0.00367382
-0.00216278
-0.0157528
-0.0285783
-0.0277311
-0.00423735
0.0283916
0.072504
0.0958409
0.0965709
0.0875191
0.0760184
0.0659318
0.0595469
0.0571244
0.0574815
0.0593345
0.0616844
0.063989
0.0660261
0.067746
0.069202
0.0704745
0.0716404
0.0727565
0.0738745
0.0750019
0.0761785
0.0773686
0.0786197
0.0798561
-0.000134119
0.00957699
0.00784994
-0.00307681
-0.0179339
-0.0236966
-0.00886496
0.0190804
0.0607551
0.0925766
0.102462
0.093521
0.080442
0.0673835
0.0579039
0.0542258
0.0546579
0.0574846
0.0608502
0.0638412
0.066351
0.0683611
0.0699499
0.0712425
0.0723604
0.073393
0.0744006
0.0754306
0.0764873
0.0776037
0.0787408
0.0799399
0.0811281
0.00185796
0.0160356
0.0172912
0.00920729
-0.00614698
-0.0172545
-0.0109437
0.0119993
0.0456454
0.0837678
0.100848
0.0979764
0.0839233
0.0681647
0.0551464
0.0485595
0.0486559
0.0530351
0.0585889
0.0630084
0.0663344
0.0688467
0.0706942
0.0720794
0.0731767
0.0741329
0.0750359
0.0759445
0.0768981
0.0778951
0.0789602
0.0800515
0.0812052
0.0823499
0.00446577
0.0220431
0.0259757
0.0206261
0.00561071
-0.00922787
-0.0107538
0.00553016
0.0331711
0.0682209
0.0930605
0.0963084
0.0853302
0.0680152
0.051194
0.0407355
0.0389294
0.0438483
0.0533075
0.0607508
0.0656992
0.0690694
0.0713809
0.072957
0.0740926
0.0749826
0.0757813
0.0765669
0.077391
0.0782824
0.0792309
0.0802538
0.0813069
0.0824205
0.0835258
0.00640672
0.0277449
0.0336492
0.0307798
0.0165516
-0.000636879
-0.00888378
-0.000115047
0.021482
0.0536787
0.0775926
0.0892722
0.0823617
0.0662577
0.0464603
0.0311214
0.0261489
0.0297665
0.0427358
0.0554086
0.0637351
0.0687963
0.0719006
0.0738499
0.075088
0.0759572
0.0766448
0.0773014
0.0779886
0.0787462
0.0795901
0.0805016
0.0814916
0.0825125
0.0835905
0.0846602
0.00990794
0.0348261
0.0405458
0.0392001
0.0259936
0.0073721
-0.00645699
-0.00464245
0.0106752
0.0376481
0.0627145
0.0742952
0.0748569
0.0614166
0.0408273
0.0210165
0.0105465
0.0134041
0.0264276
0.0451455
0.0588564
0.0674115
0.0720783
0.0746689
0.0761645
0.0770403
0.0776506
0.0781563
0.0786951
0.0793075
0.0800178
0.0808294
0.0817156
0.0826801
0.0836735
0.0847199
0.085757
0.0152353
0.0376256
0.0467328
0.0454079
0.0334017
0.0140438
-0.00440247
-0.00840954
9.5281e-05
0.0209524
0.044679
0.0601152
0.0613701
0.0527897
0.0341822
0.0109025
-0.00528483
-0.00726688
0.0058487
0.0298039
0.0491319
0.0636134
0.0714294
0.0752956
0.077246
0.0782586
0.0787822
0.079162
0.0795183
0.0799697
0.0805334
0.0812162
0.0820106
0.0828807
0.0838252
0.084795
0.0858127
0.0868186
0.0184696
0.0325057
0.0477857
0.0495339
0.037478
0.0189516
-0.00262407
-0.0121767
-0.0106748
0.00362108
0.0247193
0.0416325
0.0491468
0.0418301
0.0258015
0.00211038
-0.0202687
-0.0284256
-0.0187654
0.00580249
0.0337384
0.0554534
0.0690054
0.0753513
0.0782652
0.0795404
0.0800892
0.080299
0.0804911
0.0807395
0.0811371
0.081679
0.0823539
0.0831433
0.0840042
0.0849332
0.0858814
0.0868716
0.0878468
0.0186459
0.0257958
0.0427549
0.048411
0.0387314
0.0198286
-0.00225004
-0.0167797
-0.021759
-0.0140966
0.00313956
0.0207461
0.0319013
0.0325306
0.0179948
-0.00648938
-0.0318279
-0.0485345
-0.0442986
-0.0216411
0.0110944
0.041012
0.0632313
0.0742018
0.0789158
0.0808649
0.081494
0.0816366
0.0815908
0.0816476
0.0818347
0.0822139
0.0827602
0.0834435
0.0842369
0.0850935
0.0860089
0.0869356
0.0878981
0.088843
0.0139865
0.0207991
0.0353804
0.0421742
0.0361362
0.018367
-0.00354613
-0.0226861
-0.0338879
-0.031865
-0.0191088
-0.00217534
0.0121415
0.0183163
0.0115454
-0.00994848
-0.041209
-0.0634212
-0.0693696
-0.0503453
-0.0160692
0.0214776
0.0525191
0.0707033
0.0787962
0.0819691
0.083024
0.083082
0.0828981
0.0826698
0.0826499
0.0828245
0.0832203
0.0837932
0.0844972
0.0853006
0.0861546
0.0870556
0.0879593
0.0888938
0.0898075
0.00819577
0.0161178
0.0284838
0.0335816
0.030659
0.0154382
-0.00673612
-0.0291018
-0.045645
-0.049286
-0.0411754
-0.0257025
-0.00923275
0.00180701
0.00247807
-0.012041
-0.0411472
-0.0738753
-0.0869633
-0.0783742
-0.0456301
-0.00292537
0.0364473
0.0635362
0.0771988
0.0825846
0.0844314
0.0847157
0.0843057
0.0838862
0.0835596
0.083525
0.083735
0.0841778
0.0847943
0.0855267
0.0863418
0.0871913
0.088075
0.0889538
0.0898586
0.0907398
0.00499449
0.0121474
0.0217926
0.0265287
0.0237879
0.0109251
-0.0112458
-0.0365255
-0.0555324
-0.0655352
-0.0618071
-0.0486942
-0.0310461
-0.0155059
-0.00820882
-0.0144128
-0.0399916
-0.0711442
-0.100394
-0.0971499
-0.0736896
-0.0307695
0.015538
0.0519187
0.0731545
0.0823041
0.0855165
0.0862816
0.0859381
0.0851855
0.0846295
0.0842931
0.0843069
0.0845944
0.0851081
0.0857788
0.0865418
0.0873651
0.0882053
0.0890681
0.0899186
0.0907916
0.0916394
0.00341721
0.00935693
0.0170792
0.0206178
0.018815
0.00685707
-0.0144492
-0.0410949
-0.0656288
-0.0781496
-0.0801373
-0.0694217
-0.051778
-0.0326821
-0.0192191
-0.0170889
-0.0366611
-0.0670135
-0.0970539
-0.116516
-0.0945171
-0.0573078
-0.00881234
0.035671
0.0657673
0.0805132
0.0859677
0.087626
0.0875145
0.0867063
0.0857559
0.085171
0.0849116
0.0850334
0.0854322
0.0860322
0.0867597
0.0875485
0.0883726
0.0891974
0.0900341
0.0908527
0.0916923
0.0925061
0.00256383
0.00763061
0.0134289
0.0169565
0.0154074
0.00534957
-0.0145607
-0.0417439
-0.0692473
-0.0903603
-0.0932942
-0.0867494
-0.0697013
-0.0482612
-0.0294053
-0.0197721
-0.0327665
-0.0583095
-0.0905465
-0.113968
-0.11687
-0.0793141
-0.0326887
0.0158798
0.0543636
0.0764624
0.085449
0.0884452
0.0889433
0.0881536
0.0870569
0.0860661
0.0855657
0.0854649
0.0857442
0.0862765
0.0869679
0.0877451
0.0885492
0.0893646
0.0901659
0.0909708
0.0917548
0.0925598
0.0933391
0.0021209
0.00637641
0.011178
0.0144513
0.0140544
0.00602454
-0.0112371
-0.0371416
-0.0666501
-0.092286
-0.10616
-0.0982079
-0.0834293
-0.0607918
-0.0377631
-0.022471
-0.0283575
-0.0479785
-0.0785015
-0.106275
-0.115863
-0.101219
-0.0544458
-0.0051634
0.0393559
0.0692396
0.0834791
0.0884655
0.0900525
0.0895358
0.0882471
0.0870532
0.0861832
0.0858803
0.0860084
0.086478
0.0871524
0.0879267
0.0887382
0.0895435
0.0903381
0.0911075
0.0918762
0.0926237
0.093393
0.0941379
0.00187756
0.00557595
0.00965379
0.0130145
0.0136912
0.00844095
-0.00528423
-0.0282385
-0.0569398
-0.0848839
-0.105901
-0.108231
-0.0911297
-0.068859
-0.0429457
-0.0247317
-0.022893
-0.0365202
-0.0635819
-0.0936158
-0.110686
-0.103225
-0.075168
-0.0271995
0.0214338
0.0585793
0.0791201
0.0873146
0.0901468
0.0906226
0.0893979
0.0878757
0.0867822
0.0861898
0.0861904
0.0865962
0.0872709
0.088077
0.088913
0.0897379
0.0905267
0.0912881
0.0920187
0.092748
0.0934577
0.0941914
0.0949033
0.00176896
0.00504522
0.00873994
0.011987
0.0138168
0.0112647
0.00197698
-0.0164796
-0.0423627
-0.0700935
-0.0932132
-0.10441
-0.0958409
-0.0712141
-0.0445783
-0.0252442
-0.0160454
-0.0238127
-0.0465333
-0.0767896
-0.0998843
-0.102959
-0.0811525
-0.0469686
0.00111267
0.0438694
0.0715609
0.0843352
0.0888842
0.0905596
0.0900279
0.0885596
0.0871322
0.0863519
0.0861843
0.0865693
0.0872745
0.0881503
0.0890564
0.0899245
0.090737
0.0914912
0.0922091
0.092896
0.0935838
0.094256
0.0949555
0.0956361
0.00172831
0.00472001
0.00817259
0.0113323
0.0137863
0.0136793
0.00831842
-0.00462941
-0.02523
-0.050236
-0.0738261
-0.088956
-0.0870426
-0.0704851
-0.0428642
-0.0227423
-0.00797777
-0.0100453
-0.0281081
-0.056694
-0.0837839
-0.095848
-0.0848918
-0.0565496
-0.0170373
0.0253627
0.0594776
0.078217
0.0861279
0.0889577
0.0896243
0.0885734
0.0871561
0.0861372
0.0858918
0.0862737
0.0870948
0.0880956
0.0891247
0.0900874
0.0909506
0.0917244
0.0924287
0.0930954
0.0937355
0.094382
0.0950188
0.095686
0.0963376
0.00173055
0.00451456
0.0078422
0.0109195
0.0136554
0.0150934
0.0133365
0.00512539
-0.0101536
-0.0288824
-0.0501408
-0.0665513
-0.0708393
-0.058808
-0.0387447
-0.0165035
0.00187151
0.00432115
-0.0090674
-0.0350373
-0.0635347
-0.082909
-0.0824697
-0.062656
-0.0336985
0.0100681
0.0416637
0.0679262
0.0799939
0.0856625
0.0876428
0.0875233
0.086365
0.0853458
0.085059
0.0855509
0.0865682
0.0878157
0.0890654
0.0901892
0.0911547
0.0919749
0.0926873
0.0933303
0.0939413
0.0945346
0.0951423
0.0957467
0.0963845
0.0970102
0.00170739
0.00437612
0.00764884
0.0106893
0.0135395
0.0157353
0.0162943
0.013193
0.00392886
-0.00924135
-0.0256935
-0.0413637
-0.0485284
-0.0425435
-0.026652
-0.00586904
0.0135111
0.0192412
0.00959171
-0.012871
-0.0413168
-0.0652772
-0.0746926
-0.0641755
-0.0446484
-0.0109185
0.026369
0.0504136
0.0703697
0.0787963
0.0834533
0.0847324
0.0842499
0.0834645
0.0833569
0.0840942
0.085495
0.0871572
0.0887788
0.0901801
0.091322
0.0922342
0.0929784
0.0936125
0.0941877
0.0947427
0.0952926
0.0958652
0.0964413
0.0970535
0.0976567
0.00170721
0.00427393
0.00751327
0.0105576
0.0134918
0.0160264
0.0178051
0.0177234
0.0141932
0.00678304
-0.00332628
-0.0167986
-0.0244125
-0.0225425
-0.0104918
0.00752566
0.0289623
0.0335736
0.0276689
0.00820376
-0.0185728
-0.0450512
-0.062129
-0.0611717
-0.0508369
-0.0250163
0.000151771
0.03372
0.0526922
0.0685512
0.0756255
0.0793468
0.0800533
0.0797932
0.0801602
0.0814459
0.0834936
0.085891
0.0881171
0.0899712
0.0914092
0.0924877
0.0932978
0.0939413
0.0944879
0.0949947
0.095498
0.0960095
0.0965524
0.0971051
0.0976957
0.0982797
0.0017116
0.0042034
0.00745763
0.0104736
0.013471
0.0162199
0.0185395
0.0200449
0.0199158
0.0170283
0.0116593
0.00347239
-0.00252477
-0.00192699
0.00662034
0.0224114
0.0400259
0.0524683
0.0436302
0.0280645
0.00292574
-0.0242195
-0.0463065
-0.0546052
-0.0513748
-0.0373823
-0.0160441
0.0046198
0.0337978
0.0504035
0.0640298
0.0702462
0.0728547
0.073464
0.0744683
0.0767514
0.0799418
0.0835541
0.0868112
0.0894211
0.0913484
0.092701
0.0936443
0.0943163
0.094846
0.0953044
0.0957482
0.0962069
0.0966872
0.0972069
0.0977414
0.0983144
0.0988822
0.00171054
0.00415749
0.00740374
0.0104215
0.0134541
0.01634
0.0189804
0.0211926
0.0227202
0.0230832
0.0213114
0.0180457
0.0146358
0.0156834
0.022249
0.0351089
0.0513986
0.062588
0.0646289
0.0446094
0.0232266
-0.00391361
-0.0290771
-0.045215
-0.0487265
-0.0461707
-0.0323052
-0.0131811
0.00456462
0.0294062
0.045541
0.0571176
0.061855
0.0635406
0.0652882
0.0687476
0.0736564
0.0793813
0.0844322
0.0882716
0.0910129
0.0928338
0.0939927
0.0947488
0.0952643
0.0956793
0.0960571
0.0964476
0.0968714
0.0973291
0.0978323
0.0983537
0.0989127
0.0994674
0.00171616
0.00411527
0.00736771
0.0103743
0.0134377
0.0164031
0.0192421
0.0218393
0.0241228
0.0259524
0.0270258
0.0269152
0.0269148
0.0286935
0.034323
0.04488
0.0590051
0.0718164
0.0749993
0.0660844
0.0388749
0.0151992
-0.0115643
-0.033708
-0.0453534
-0.052974
-0.0465896
-0.0325889
-0.014161
-8.20152e-05
0.0234096
0.0382703
0.0466735
0.0497038
0.0515921
0.0562152
0.0630266
0.0718914
0.0801276
0.0861181
0.0901851
0.0927816
0.0943323
0.0952204
0.0957641
0.096123
0.0964339
0.096745
0.0970953
0.0974958
0.0979398
0.0984329
0.0989455
0.099494
0.100038
0.00171047
0.0040925
0.00732803
0.0103384
0.0134075
0.0164252
0.019378
0.0222107
0.0248778
0.027384
0.0296822
0.0316844
0.0336827
0.0367613
0.0420805
0.0510732
0.0632135
0.0754614
0.0830147
0.0777189
0.059762
0.0289979
0.00446449
-0.0213309
-0.0411889
-0.0571741
-0.0589128
-0.0510162
-0.0361638
-0.0176256
-0.00463245
0.0157715
0.0270539
0.0315901
0.0337181
0.0379136
0.0460625
0.058652
0.0722201
0.0821135
0.0885044
0.0923894
0.0945807
0.0957481
0.0963304
0.0966639
0.0968825
0.0971083
0.0973711
0.0976967
0.0980858
0.0985244
0.099013
0.0995208
0.100061
0.100597
0.00171724
0.00406081
0.00730622
0.0102944
0.0133763
0.0164099
0.0194317
0.0223938
0.0252919
0.028126
0.0309599
0.0338584
0.0369871
0.0408514
0.0462219
0.0539993
0.0643928
0.0757581
0.0847023
0.0857719
0.0730154
0.0483831
0.0160074
-0.0101558
-0.0358673
-0.0584213
-0.0687116
-0.0682336
-0.0576201
-0.0410707
-0.0218116
-0.00808878
0.00403885
0.010475
0.0115956
0.0149845
0.0230514
0.0370968
0.0580483
0.0743108
0.0851512
0.0913569
0.094652
0.0962637
0.0970036
0.0972867
0.0974342
0.0975406
0.0977065
0.0979423
0.098259
0.0986478
0.0990886
0.0995775
0.100083
0.100617
0.101144
0.00170766
0.00405428
0.00727024
0.0102661
0.0133298
0.0163801
0.0194242
0.0224597
0.0254781
0.0285001
0.0315738
0.0348181
0.0384034
0.0425951
0.0478525
0.054763
0.0636037
0.0736778
0.0829879
0.0874772
0.0818839
0.0629664
0.0325603
-0.00115531
-0.0301555
-0.0581564
-0.0759713
-0.0832977
-0.0785721
-0.0635626
-0.0438847
-0.0242133
-0.0162905
-0.0134361
-0.0119292
-0.0121409
-0.0042295
0.0104494
0.0374728
0.0602361
0.078092
0.0889748
0.0942956
0.0967431
0.0977165
0.0980493
0.0980719
0.0980729
0.0981035
0.0982376
0.0984679
0.0987906
0.0991891
0.099638
0.10013
0.100635
0.101164
0.101683
0.00171554
0.00402825
0.00726211
0.0102225
0.0132953
0.0163275
0.019389
0.022445
0.0255251
0.0286353
0.0318276
0.0351912
0.03889
0.0431279
0.0481648
0.0543542
0.0619571
0.0707238
0.0793023
0.08568
0.0847057
0.0731963
0.0481537
0.0120001
-0.0239198
-0.0566088
-0.0815084
-0.0954669
-0.0973527
-0.0859296
-0.0662668
-0.0446966
-0.029667
-0.0302399
-0.0377281
-0.0390211
-0.036549
-0.0198748
0.00763331
0.040189
0.0649846
0.0834523
0.0929551
0.0969635
0.0984974
0.0988739
0.0988632
0.0986852
0.0985887
0.0985831
0.0987141
0.0989591
0.0993011
0.0997172
0.100178
0.100675
0.101179
0.101702
0.102212
0.00170833
0.00403374
0.00722951
0.0102076
0.0132436
0.0162832
0.0193244
0.0223927
0.0254819
0.0286271
0.0318571
0.0352498
0.0389229
0.0430519
0.0478237
0.05345
0.0600926
0.0676688
0.0755812
0.0818821
0.0844122
0.0780362
0.0600488
0.0281162
-0.0144625
-0.051943
-0.0847943
-0.104896
-0.11272
-0.106218
-0.0878127
-0.0654739
-0.0468903
-0.0413371
-0.0510485
-0.0677249
-0.0672182
-0.056644
-0.0273603
0.00998774
0.0439522
0.0726882
0.08916
0.0964991
0.0991197
0.099834
0.0997151
0.0994466
0.0991409
0.0989989
0.0989961
0.0991508
0.0994283
0.0998002
0.100239
0.100713
0.101215
0.101716
0.102232
0.102732
0.00401829
0.00723507
0.0101684
0.0132211
0.0162208
0.0192654
0.0223075
0.0253973
0.0285307
0.031757
0.0351232
0.0387243
0.042685
0.0471657
0.0523099
0.0582337
0.0648941
0.0718979
0.0783444
0.0819465
0.0800012
0.0677251
0.0417404
0.00257405
-0.0457854
-0.0818334
-0.111121
-0.123936
-0.122588
-0.107242
-0.0845947
-0.064366
-0.053186
-0.061014
-0.0778901
-0.0989469
-0.0901329
-0.0671598
-0.026145
0.0165297
0.0550562
0.0810022
0.0941835
0.0992551
0.10066
0.100738
0.100251
0.0998207
0.0994628
0.0993258
0.0993618
0.0995641
0.0998884
0.100297
0.10076
0.101247
0.101751
0.102247
0.102754
0.103241
0.00721494
0.0101706
0.0131747
0.0161883
0.0191883
0.0222273
0.0252807
0.028397
0.0315828
0.0348982
0.0384019
0.0421916
0.0463823
0.0511023
0.0564244
0.0623451
0.0686368
0.0746303
0.0791038
0.0795671
0.0724054
0.0528159
0.0183317
-0.0271456
-0.0782273
-0.109415
-0.131211
-0.133745
-0.122268
-0.10104
-0.079474
-0.0647374
-0.0688065
-0.0877347
-0.107171
-0.12498
-0.101455
-0.0653243
-0.0163587
0.030715
0.0669566
0.0883936
0.0979492
0.10113
0.101602
0.101228
0.100519
0.10002
0.0996802
0.0995947
0.0997021
0.0999711
0.100351
0.100799
0.101285
0.101782
0.102284
0.102772
0.103266
0.103737
0.0101468
0.0131729
0.0161331
0.019143
0.022131
0.0251717
0.0282373
0.0313833
0.0346246
0.0380266
0.0416502
0.0455852
0.0499245
0.0547441
0.0600369
0.0656656
0.0712397
0.0758471
0.0779384
0.0744932
0.0610515
0.0335043
-0.00864484
-0.0576741
-0.106254
-0.130029
-0.139795
-0.131294
-0.112649
-0.0914712
-0.0745799
-0.0754854
-0.0917148
-0.117271
-0.133859
-0.140427
-0.0995431
-0.0522672
0.000414495
0.0462592
0.0774785
0.0939731
0.100315
0.102233
0.102002
0.101354
0.100568
0.100087
0.0998275
0.0998352
0.100039
0.100388
0.100828
0.101313
0.101817
0.102317
0.102813
0.103287
0.103765
0.104219
0.0131453
0.0161261
0.0190772
0.0220693
0.0250506
0.0280915
0.0311697
0.0343453
0.0376377
0.0411107
0.0448212
0.0488418
0.0532292
0.0579973
0.0630581
0.0681309
0.0726921
0.0755828
0.0748342
0.0665843
0.0462149
0.0111981
-0.0359173
-0.0833566
-0.125082
-0.136931
-0.133936
-0.117755
-0.0986863
-0.0820452
-0.080456
-0.0939014
-0.117739
-0.144208
-0.151416
-0.142164
-0.0859217
-0.0319785
0.019644
0.0604081
0.0856378
0.097334
0.101502
0.10262
0.101941
0.101196
0.100456
0.100066
0.0999409
0.100077
0.100395
0.100829
0.101326
0.101842
0.102357
0.102853
0.103336
0.103792
0.104251
0.104684
0.0160943
0.0190636
0.0219905
0.0249689
0.0279403
0.0309797
0.0340685
0.0372685
0.0405985
0.0441167
0.0478704
0.0519033
0.0562313
0.0607999
0.0654427
0.0697459
0.0730486
0.0739199
0.0697844
0.0562126
0.0291875
-0.0111676
-0.0588604
-0.0978578
-0.130938
-0.127886
-0.116198
-0.0996066
-0.0864353
-0.0819533
-0.0944506
-0.115601
-0.143278
-0.162086
-0.153848
-0.129245
-0.0650408
-0.009889
0.0375184
0.0715458
0.0907014
0.0988436
0.101777
0.102348
0.101548
0.100828
0.100232
0.100004
0.100059
0.100347
0.100788
0.101305
0.10185
0.102387
0.102902
0.103386
0.103849
0.104283
0.104719
0.105128
0.0190269
0.0219689
0.0248746
0.0278348
0.0307934
0.0338282
0.0369224
0.0401349
0.0434821
0.0470132
0.0507568
0.0547237
0.0588881
0.0631225
0.0671926
0.0705605
0.0724124
0.071008
0.0631944
0.044507
0.0120365
-0.0292578
-0.0724368
-0.0991973
-0.121092
-0.107671
-0.0944999
-0.0859668
-0.0805406
-0.0904859
-0.111035
-0.13916
-0.163135
-0.166571
-0.141175
-0.105404
-0.0426582
0.00975535
0.051596
0.0786624
0.0929893
0.099156
0.101398
0.101653
0.100911
0.100322
0.099954
0.0999505
0.100219
0.100674
0.101235
0.101824
0.102402
0.102946
0.103449
0.103913
0.10435
0.104757
0.105167
0.105551
0.0219265
0.0248435
0.0277226
0.0306609
0.0336032
0.0366282
0.0397176
0.0429262
0.0462665
0.0497709
0.0534479
0.0572734
0.0611784
0.0649705
0.0683499
0.0706735
0.0709662
0.067205
0.0558676
0.0321652
-0.00210029
-0.039197
-0.0732842
-0.088926
-0.0992819
-0.0844527
-0.0787851
-0.0752669
-0.0816624
-0.102493
-0.130818
-0.158676
-0.171169
-0.156466
-0.119178
-0.0782251
-0.0225549
0.0249779
0.0606623
0.0820562
0.0933933
0.0987618
0.100581
0.10068
0.100095
0.0997473
0.0996844
0.0999551
0.100457
0.101079
0.101746
0.102387
0.10298
0.103514
0.103993
0.104428
0.104834
0.105211
0.105593
0.10595
0.0247947
0.0276807
0.0305289
0.0334413
0.0363624
0.0393685
0.0424397
0.0456263
0.0489304
0.0523666
0.0559234
0.0595388
0.063107
0.0663796
0.0689971
0.070243
0.0690149
0.063044
0.047877
0.0213708
-0.0090841
-0.0398159
-0.0622174
-0.0692864
-0.0724089
-0.0657583
-0.0633716
-0.0698349
-0.0897228
-0.118058
-0.147472
-0.167134
-0.163323
-0.13503
-0.0965102
-0.0537935
-0.00725122
0.0348547
0.064903
0.0829006
0.0928714
0.0978767
0.0993653
0.0994604
0.0991767
0.0991776
0.0994873
0.100067
0.100805
0.101578
0.102322
0.102991
0.103575
0.104084
0.104528
0.104926
0.105297
0.105642
0.105993
0.106323
0.0276246
0.0304748
0.0332881
0.0361698
0.0390618
0.042038
0.0450775
0.0482199
0.0514574
0.054787
0.0581742
0.061525
0.0647032
0.0674166
0.0692617
0.0695028
0.0668974
0.0589662
0.0407934
0.0194245
-0.00809261
-0.0308873
-0.0426398
-0.0452999
-0.0463576
-0.0480144
-0.0543776
-0.0739857
-0.100836
-0.131786
-0.155006
-0.161259
-0.143836
-0.112219
-0.0801456
-0.0349632
0.00157637
0.0398795
0.0656284
0.0824862
0.0920431
0.0965104
0.0977967
0.0980826
0.0982403
0.0986941
0.0994292
0.10033
0.101286
0.102174
0.102961
0.103626
0.10418
0.104647
0.105046
0.105403
0.105735
0.106047
0.106367
0.106668
0.030411
0.0332209
0.0359949
0.0388387
0.0416926
0.0446285
0.0476194
0.0506951
0.0538383
0.0570261
0.060205
0.063256
0.0660188
0.0681794
0.0693156
0.0687231
0.0650268
0.0560574
0.0409277
0.0216992
5.39428e-05
-0.0141391
-0.0190861
-0.0218991
-0.0232099
-0.0378232
-0.0550366
-0.0812166
-0.1111
-0.138152
-0.151104
-0.14528
-0.123212
-0.0985559
-0.0685283
-0.0246294
0.00462657
0.0418923
0.064315
0.081953
0.0907647
0.0946171
0.0959448
0.096643
0.0973871
0.0983853
0.0995759
0.100781
0.101907
0.102863
0.10365
0.104279
0.104781
0.105194
0.105542
0.105854
0.106146
0.106424
0.106714
0.106985
0.0331492
0.0359142
0.0386425
0.0414405
0.0442485
0.0471312
0.0500567
0.053046
0.0560693
0.0590881
0.0620341
0.0647723
0.067127
0.0687964
0.0693583
0.0682171
0.0642543
0.0560554
0.0438344
0.0261939
0.014255
0.00657412
0.00386205
-0.00170079
-0.00733182
-0.0364297
-0.0586793
-0.0884433
-0.116019
-0.134725
-0.138506
-0.127533
-0.111789
-0.0877506
-0.0659605
-0.022543
0.00489217
0.0432673
0.0648817
0.0809646
0.0887555
0.0922113
0.0939065
0.0952581
0.0967345
0.0983464
0.0999828
0.101435
0.102663
0.103627
0.104369
0.104933
0.105365
0.105715
0.106008
0.106275
0.106528
0.106772
0.107034
0.107275
0.0358345
0.0385484
0.0412244
0.0439706
0.0467227
0.0495394
0.0523854
0.0552699
0.0581538
0.0609876
0.0636921
0.0661282
0.0681193
0.0694116
0.0696141
0.0683725
0.065067
0.0582173
0.0475697
0.0378016
0.0311499
0.027191
0.0233886
0.0125674
-0.000235007
-0.0375566
-0.0628005
-0.0914675
-0.113192
-0.124554
-0.124132
-0.115716
-0.103957
-0.0858193
-0.0714065
-0.0241925
0.00353274
0.0420811
0.0648461
0.0789921
0.0858432
0.0893668
0.0918185
0.0940744
0.0964227
0.0986656
0.100677
0.102285
0.10353
0.10444
0.105095
0.10557
0.105921
0.106204
0.106441
0.106663
0.106879
0.107089
0.107322
0.107537
0.038461
0.0411177
0.0437371
0.0464233
0.04911
0.0518508
0.0546036
0.0573695
0.0601027
0.0627473
0.0652187
0.067389
0.0690966
0.0701602
0.0703216
0.0695659
0.0672223
0.0622447
0.0563496
0.0513135
0.0476823
0.0447098
0.0376401
0.0203228
0.00136128
-0.0405064
-0.0645264
-0.0878463
-0.105075
-0.114058
-0.112922
-0.111978
-0.104559
-0.0936103
-0.0776744
-0.0299231
0.0060459
0.0422985
0.0634588
0.0755298
0.0819994
0.0862277
0.0898638
0.0932994
0.0966043
0.0993968
0.101649
0.103298
0.10447
0.105267
0.105802
0.106173
0.106437
0.106653
0.106837
0.107017
0.107197
0.10738
0.107582
0.107771
0.0410234
0.0436189
0.0461755
0.0487944
0.0514087
0.0540637
0.0567132
0.0593532
0.0619331
0.0643959
0.0666609
0.0686249
0.0701664
0.0711935
0.0716437
0.0716071
0.0705545
0.0684531
0.0659876
0.0637615
0.0615312
0.0572472
0.0461265
0.0234288
-0.0025403
-0.0432779
-0.0617108
-0.0813679
-0.0981276
-0.106133
-0.114816
-0.11814
-0.115997
-0.103456
-0.0829064
-0.0333925
0.00932305
0.0414122
0.0597534
0.0702918
0.0773534
0.0829961
0.0883322
0.0932005
0.0973798
0.100544
0.102862
0.104421
0.105435
0.106073
0.106467
0.106728
0.106907
0.10706
0.107195
0.107338
0.107485
0.107641
0.107814
0.107978
0.0435187
0.0460478
0.0485363
0.051083
0.0536176
0.0561795
0.0587207
0.0612336
0.0636655
0.0659663
0.0680687
0.0699042
0.0714102
0.0725971
0.0735332
0.0743925
0.0749491
0.0750923
0.0747425
0.0739435
0.0712591
0.0643317
0.0499097
0.0231052
-0.00673972
-0.0414865
-0.0576195
-0.0781536
-0.0956478
-0.113039
-0.127394
-0.133323
-0.130242
-0.11087
-0.0820153
-0.0280279
0.010535
0.0372826
0.0530407
0.0633545
0.0721361
0.0800608
0.087659
0.0939636
0.0987484
0.10205
0.10424
0.105584
0.106374
0.106824
0.107071
0.107225
0.107325
0.107422
0.107514
0.107624
0.107742
0.107873
0.108019
0.10816
0.0459429
0.048401
0.0508185
0.0532877
0.0557374
0.058203
0.0606353
0.0630252
0.0653232
0.0674935
0.0694876
0.0712808
0.072877
0.0743624
0.0759019
0.0777181
0.0795845
0.0810686
0.081764
0.080886
0.0767439
0.0669864
0.0505363
0.0225632
-0.00692254
-0.0388089
-0.0584724
-0.0818585
-0.105999
-0.129824
-0.145959
-0.151992
-0.142036
-0.110254
-0.073059
-0.0257248
0.00740815
0.0286226
0.0433098
0.055152
0.0668916
0.0782705
0.088234
0.0956056
0.100642
0.103797
0.105678
0.10671
0.107239
0.107494
0.1076
0.107657
0.10769
0.10774
0.107796
0.107878
0.10797
0.108077
0.108199
0.108316
0.0482928
0.0506782
0.0530211
0.0554091
0.0577718
0.0601411
0.0624673
0.0647442
0.066931
0.0690077
0.0709524
0.072785
0.0745645
0.0764274
0.0785857
0.0811574
0.0837792
0.085808
0.0864794
0.0847293
0.0789959
0.0670326
0.0491439
0.0217782
-0.00955172
-0.0419439
-0.0669397
-0.0965525
-0.126362
-0.152218
-0.169044
-0.168022
-0.144445
-0.100838
-0.063309
-0.0286062
-0.00191686
0.0151246
0.0312821
0.0462309
0.0631875
0.0784794
0.0901988
0.0980515
0.102914
0.105633
0.107064
0.107734
0.107995
0.108066
0.108048
0.108024
0.108004
0.108016
0.108044
0.108103
0.10817
0.108256
0.108353
0.108447
0.0505682
0.0528781
0.0551441
0.0574499
0.0597259
0.0620009
0.0642281
0.0664082
0.0685095
0.0705317
0.072482
0.0744158
0.0764294
0.0786761
0.0813284
0.084324
0.0871848
0.0890487
0.0891128
0.0863246
0.0793817
0.0662565
0.0471947
0.0188574
-0.0170536
-0.052249
-0.0853944
-0.120852
-0.152598
-0.179179
-0.18894
-0.173998
-0.134908
-0.0888742
-0.0604771
-0.0391035
-0.018174
-0.00222438
0.0168419
0.0385972
0.0625604
0.0808468
0.093478
0.1011