/*--------------------------------*- C++ -*----------------------------------*\
| =========                 |                                                 |
| \\      /  F ield         | OpenFOAM: The Open Source CFD Toolbox           |
|  \\    /   O peration     | Version:  2506                                  |
|   \\  /    A nd           | Website:  www.openfoam.com                      |
|    \\/     M anipulation  |                                                 |
\*---------------------------------------------------------------------------*/
FoamFile
{
    version     2.0;
    format      ascii;
    arch        "LSB;label=32;scalar=64";
    class       surfaceScalarField;
    location    "180.017606233241935";
    object      phi_0;
}
// * * * * * * * * * * * * * * * * * * * * * * * * * * * * * * * * * * * * * //

dimensions      [0 3 -1 0 0 0 0];

oriented        oriented;

internalField   nonuniform List<scalar> 
19160
(
-0.000594556
-0.236
-0.00119779
-0.235996
-0.000604982
-0.235395
-0.00180995
-0.236021
-0.00121838
-0.235383
-0.000603293
-0.234792
-0.00244324
-0.236029
-0.00184208
-0.235397
-0.00121369
-0.234772
-0.000598013
-0.234194
-0.00310135
-0.236067
-0.00248684
-0.235384
-0.00183453
-0.234776
-0.0012022
-0.234168
-0.000587633
-0.233606
-0.00379797
-0.236099
-0.00315868
-0.235395
-0.00247427
-0.234745
-0.00181573
-0.234163
-0.00118014
-0.233576
-0.000573598
-0.233033
-0.00454289
-0.236127
-0.00387015
-0.235388
-0.0031399
-0.234729
-0.0024459
-0.234115
-0.00178023
-0.233562
-0.00115055
-0.232999
-0.00055594
-0.232477
-0.00535471
-0.236183
-0.00463332
-0.235364
-0.00384194
-0.234686
-0.00309905
-0.234076
-0.00239364
-0.233501
-0.00173286
-0.23298
-0.00111353
-0.232441
-0.000536737
-0.23194
-0.00625413
-0.236225
-0.00546649
-0.23535
-0.0045925
-0.234614
-0.00378431
-0.234001
-0.00302559
-0.233444
-0.00232443
-0.23291
-0.00167393
-0.23242
-0.00107335
-0.231905
-0.000517215
-0.231423
-0.00727198
-0.236304
-0.00639265
-0.235299
-0.00540765
-0.234535
-0.00451248
-0.233885
-0.00368322
-0.233343
-0.00292898
-0.23284
-0.00223899
-0.232345
-0.0016101
-0.231883
-0.00103259
-0.231389
-0.000497853
-0.230925
-0.00843597
-0.23635
-0.00744408
-0.235253
-0.00630871
-0.234398
-0.00529753
-0.23375
-0.00437532
-0.233193
-0.00355133
-0.232721
-0.00281067
-0.232268
-0.00214668
-0.231808
-0.00154546
-0.23137
-0.000992329
-0.230895
-0.000480662
-0.230444
-0.00977895
-0.236197
-0.00864521
-0.235149
-0.0073245
-0.234237
-0.00615803
-0.233538
-0.00511286
-0.233012
-0.00419766
-0.232547
-0.00339115
-0.23214
-0.00268314
-0.231731
-0.00205344
-0.2313
-0.00148192
-0.23088
-0.000956713
-0.230419
-0.000466388
-0.229978
-0.0114308
-0.235892
-0.00999966
-0.234843
-0.0084803
-0.233993
-0.00711893
-0.233276
-0.00591066
-0.23274
-0.00487544
-0.232334
-0.00398358
-0.231954
-0.00321888
-0.231604
-0.0025546
-0.23123
-0.00196234
-0.23082
-0.00142595
-0.230411
-0.000927351
-0.229958
-0.000456019
-0.229522
-0.0137264
-0.236519
-0.0116098
-0.234282
-0.00977186
-0.233551
-0.00820494
-0.232907
-0.00678828
-0.232398
-0.00559512
-0.23202
-0.00459144
-0.231726
-0.00375371
-0.23142
-0.00304557
-0.231113
-0.0024298
-0.230763
-0.00188251
-0.230363
-0.0013802
-0.229958
-0.000906308
-0.229507
-0.00044925
-0.229073
-0.0169463
-0.240421
-0.0139457
-0.234184
-0.0112436
-0.232811
-0.00941103
-0.232345
-0.00776841
-0.231927
-0.00637004
-0.231623
-0.00522027
-0.231391
-0.00428682
-0.231193
-0.00352267
-0.230943
-0.00287832
-0.230665
-0.00232103
-0.230324
-0.001818
-0.229925
-0.00134796
-0.229517
-0.000893051
-0.229064
-0.000446797
-0.228626
-0.0207454
-0.248709
-0.0177271
-0.23664
-0.0132763
-0.232151
-0.0107439
-0.231478
-0.00885005
-0.231264
-0.0072187
-0.231078
-0.00587662
-0.230967
-0.00481836
-0.23086
-0.00398066
-0.230735
-0.0033008
-0.23052
-0.00273328
-0.230253
-0.00223419
-0.229908
-0.00177357
-0.2295
-0.00132856
-0.229081
-0.000889009
-0.228621
-0.000448233
-0.228178
-0.0237893
-0.259273
-0.0231131
-0.243323
-0.0166743
-0.233242
-0.0124852
-0.23041
-0.0100151
-0.230313
-0.00814546
-0.230337
-0.00657241
-0.230382
-0.00534777
-0.230438
-0.00441384
-0.230427
-0.00368767
-0.230348
-0.00310903
-0.230144
-0.0026189
-0.229868
-0.00217595
-0.229506
-0.00174865
-0.229079
-0.00132417
-0.228646
-0.000893289
-0.228176
-0.000452034
-0.227726
-0.0242539
-0.267152
-0.0289766
-0.25341
-0.021999
-0.237998
-0.0154431
-0.230284
-0.0114161
-0.229009
-0.00913002
-0.229328
-0.0073129
-0.229596
-0.00587859
-0.229851
-0.0048143
-0.230037
-0.0040271
-0.230087
-0.00343476
-0.230023
-0.00295937
-0.229804
-0.00254435
-0.229499
-0.00214617
-0.229108
-0.00174616
-0.228657
-0.00133336
-0.228206
-0.000902747
-0.227726
-0.000457735
-0.227268
-0.0218321
-0.268637
-0.0330365
-0.263092
-0.0287932
-0.246615
-0.0205263
-0.232915
-0.01372
-0.22798
-0.0102231
-0.227915
-0.00808667
-0.228554
-0.00641128
-0.229064
-0.00517581
-0.22949
-0.00430371
-0.229761
-0.00369262
-0.229829
-0.00323886
-0.229743
-0.00286445
-0.229484
-0.00251046
-0.229135
-0.0021486
-0.228706
-0.00176404
-0.228227
-0.00135122
-0.227758
-0.000916273
-0.227267
-0.000463939
-0.226804
-0.016342
-0.260551
-0.0339419
-0.267732
-0.035275
-0.25661
-0.0278337
-0.239308
-0.0180098
-0.228625
-0.0118682
-0.226335
-0.00888694
-0.227115
-0.00694269
-0.228023
-0.00548907
-0.22875
-0.00450044
-0.229293
-0.00385992
-0.229593
-0.00343422
-0.229634
-0.00311738
-0.22949
-0.00282689
-0.229167
-0.00252199
-0.228762
-0.00218047
-0.228289
-0.00179536
-0.227783
-0.00137576
-0.227298
-0.000930877
-0.2268
-0.000468415
-0.226336
-0.008227
-0.241952
-0.0312429
-0.26325
-0.0394022
-0.263605
-0.0361622
-0.248282
-0.024998
-0.23232
-0.0150575
-0.225436
-0.00994167
-0.22528
-0.0074472
-0.226611
-0.00574957
-0.227762
-0.00459535
-0.228656
-0.00390805
-0.229245
-0.00351613
-0.229511
-0.00327609
-0.229475
-0.00307604
-0.229241
-0.00285288
-0.228836
-0.00257536
-0.228367
-0.00223245
-0.227852
-0.00183678
-0.227322
-0.00140209
-0.226827
-0.000941862
-0.226327
-0.000470423
-0.225865
0.00179403
-0.214592
-0.0252316
-0.247964
-0.0395641
-0.263088
-0.0435012
-0.256266
-0.0341857
-0.239094
-0.0209146
-0.226462
-0.0119612
-0.223416
-0.00800767
-0.22472
-0.00592905
-0.226431
-0.00457101
-0.227787
-0.00380131
-0.228762
-0.00344452
-0.229317
-0.00330612
-0.229481
-0.00322923
-0.229322
-0.00312315
-0.228971
-0.00293798
-0.228474
-0.00265841
-0.227941
-0.00229922
-0.22739
-0.00188096
-0.226843
-0.00142271
-0.226346
-0.000947531
-0.22585
-0.000468463
-0.225397
0.0118718
-0.181995
-0.0160918
-0.223732
-0.0362958
-0.251232
-0.047553
-0.259036
-0.0437561
-0.246695
-0.0297783
-0.23023
-0.0161268
-0.222297
-0.0090101
-0.222414
-0.00604142
-0.224607
-0.00439299
-0.226609
-0.0035004
-0.228088
-0.00317004
-0.229037
-0.00315756
-0.229465
-0.0032493
-0.229461
-0.00330536
-0.22914
-0.00325359
-0.228655
-0.00306662
-0.228066
-0.0027629
-0.227477
-0.00237018
-0.226901
-0.00191694
-0.226349
-0.00143463
-0.225859
-0.000944703
-0.225373
-0.000461846
-0.224935
0.0196689
-0.147553
-0.00507608
-0.19301
-0.0296402
-0.230388
-0.0475323
-0.251253
-0.0516882
-0.251104
-0.0405833
-0.23589
-0.0234208
-0.222936
-0.0113774
-0.21993
-0.00623111
-0.222224
-0.0040464
-0.224954
-0.00295427
-0.227155
-0.00262721
-0.22863
-0.0027686
-0.229426
-0.00308015
-0.229634
-0.0033631
-0.229404
-0.00349926
-0.228894
-0.00344779
-0.228274
-0.00322637
-0.227602
-0.00287376
-0.226974
-0.00242995
-0.226388
-0.00193984
-0.225843
-0.0014327
-0.225371
-0.000931879
-0.224903
-0.000449358
-0.224486
0.0230277
-0.116738
0.00639814
-0.159027
-0.0206033
-0.202047
-0.0436926
-0.234227
-0.055409
-0.247532
-0.0510772
-0.24061
-0.0337821
-0.225529
-0.016292
-0.218021
-0.00703985
-0.219121
-0.00354885
-0.222722
-0.00212103
-0.225787
-0.00174105
-0.228041
-0.00204856
-0.229351
-0.00265071
-0.229855
-0.00323955
-0.229758
-0.00364351
-0.229259
-0.00378663
-0.228555
-0.00368736
-0.227813
-0.00339594
-0.22708
-0.00296975
-0.226434
-0.00247083
-0.225857
-0.00194202
-0.225334
-0.00141443
-0.224888
-0.000906571
-0.224446
-0.000431712
-0.224054
0.0222476
-0.064947
0.0165839
-0.126924
-0.00983376
-0.169796
-0.0366184
-0.209121
-0.055151
-0.234485
-0.0585124
-0.240097
-0.0456238
-0.228768
-0.0245713
-0.21725
-0.00942197
-0.215639
-0.00312036
-0.219549
-0.000960311
-0.223883
-0.000426361
-0.227102
-0.000897568
-0.229192
-0.0018525
-0.230149
-0.00286041
-0.230234
-0.00363576
-0.229766
-0.00406126
-0.228985
-0.00414082
-0.228102
-0.00394239
-0.227267
-0.00354613
-0.226504
-0.00303898
-0.225866
-0.00248188
-0.225317
-0.00191959
-0.224829
-0.00137593
-0.224419
-0.000870239
-0.224008
-0.000409343
-0.223644
0.0196709
-0.0582642
0.0214309
-0.069794
0.00125629
-0.138014
-0.0268978
-0.179517
-0.0511062
-0.213166
-0.0619608
-0.231037
-0.0562249
-0.229496
-0.0358372
-0.217502
-0.014531
-0.212141
-0.00330112
-0.215459
0.000511116
-0.221021
0.00141219
-0.225721
0.000829354
-0.228829
-0.000565347
-0.23048
-0.0021133
-0.230896
-0.0034076
-0.230462
-0.00423465
-0.229592
-0.00457842
-0.228547
-0.00451961
-0.227525
-0.00417253
-0.22664
-0.00365873
-0.225884
-0.00306597
-0.225282
-0.00245735
-0.224779
-0.00186712
-0.224338
-0.00131945
-0.22397
-0.000823849
-0.223593
-0.000382525
-0.223262
0.0167698
-0.0543931
0.0242463
-0.0610796
0.00825395
-0.0767916
-0.0160149
-0.148897
-0.044026
-0.186597
-0.0616969
-0.21343
-0.063143
-0.224119
-0.0480712
-0.217262
-0.0230841
-0.208949
-0.00505284
-0.210389
0.00209864
-0.217046
0.00389114
-0.2235
0.00331855
-0.22821
0.00142601
-0.23082
-0.000866464
-0.231726
-0.00286154
-0.231442
-0.00425575
-0.230441
-0.00498323
-0.229188
-0.00513547
-0.227931
-0.00486687
-0.22683
-0.00435016
-0.225949
-0.003712
-0.225238
-0.0030423
-0.224697
-0.00238991
-0.224256
-0.00178773
-0.223869
-0.00124662
-0.223547
-0.000768105
-0.223208
-0.000353158
-0.222909
0.0150664
-0.0536155
0.0255472
-0.0556939
0.0145285
-0.0673542
-0.00861294
-0.0841936
-0.0348053
-0.158117
-0.0581933
-0.190101
-0.0659265
-0.210647
-0.0585068
-0.213683
-0.0344969
-0.205849
-0.00953234
-0.20447
0.00320007
-0.21149
0.00699845
-0.220153
0.00681391
-0.226995
0.00443599
-0.23122
0.0011683
-0.232855
-0.00186761
-0.23272
-0.00406147
-0.231636
-0.0053325
-0.230092
-0.00579732
-0.228526
-0.00565348
-0.227145
-0.00514088
-0.22604
-0.00444454
-0.225216
-0.00369363
-0.224586
-0.00295835
-0.224128
-0.00228373
-0.22376
-0.00168398
-0.223432
-0.00115879
-0.223156
-0.000707005
-0.222854
-0.000322509
-0.222586
0.0150991
-0.0543738
0.0260628
-0.0541311
0.0196097
-0.0607751
-0.00158891
-0.0743782
-0.027814
-0.0911848
-0.0518563
-0.164454
-0.0657929
-0.190234
-0.0649387
-0.204215
-0.046745
-0.201435
-0.0174246
-0.197957
0.00283606
-0.204106
0.0103436
-0.214836
0.0113506
-0.22469
0.00884246
-0.231402
0.00444546
-0.234497
-7.65266e-05
-0.234646
-0.00354297
-0.233239
-0.0056125
-0.231356
-0.00651782
-0.229372
-0.00656464
-0.227615
-0.00606934
-0.226216
-0.00529785
-0.225186
-0.00443774
-0.224472
-0.00359115
-0.223954
-0.0028196
-0.223592
-0.0021427
-0.223301
-0.00155827
-0.223033
-0.00106234
-0.222801
-0.000643297
-0.222533
-0.000292312
-0.222294
0.016878
-0.057484
0.027021
-0.0553321
0.0229039
-0.0574252
0.00465283
-0.0670169
-0.0209405
-0.0812518
-0.0463386
-0.0967026
-0.0634909
-0.166756
-0.0672694
-0.187904
-0.0571888
-0.193771
-0.0280995
-0.19076
-0.000153254
-0.194967
0.0132676
-0.20703
0.01653
-0.220015
0.0146355
-0.230483
0.00944143
-0.236398
0.0030797
-0.237654
-0.00232518
-0.235864
-0.00576198
-0.233089
-0.0073387
-0.230535
-0.00764851
-0.228288
-0.00718947
-0.226494
-0.00632005
-0.225194
-0.00531172
-0.224312
-0.00431366
-0.22375
-0.00341174
-0.223362
-0.00263186
-0.223103
-0.00197083
-0.222889
-0.00141994
-0.222675
-0.000961821
-0.222482
-0.000580648
-0.222245
-0.000263677
-0.22203
0.020379
-0.0625918
0.0285353
-0.0589983
0.0251884
-0.0576166
0.00981833
-0.0625907
-0.0146928
-0.0732645
-0.0406138
-0.0869765
-0.060508
-0.0996856
-0.0673202
-0.166705
-0.0638459
-0.181246
-0.0394031
-0.182467
-0.00634405
-0.184569
0.0148286
-0.196528
0.0218543
-0.212354
0.0212827
-0.226662
0.0160433
-0.237085
0.00808367
-0.241402
0.000208797
-0.240188
-0.00544522
-0.236181
-0.00827617
-0.232152
-0.00899614
-0.229188
-0.00857813
-0.226899
-0.00758001
-0.225234
-0.0063674
-0.224138
-0.00516168
-0.223464
-0.00408185
-0.22308
-0.00316411
-0.222829
-0.00240172
-0.222672
-0.00178125
-0.222528
-0.00127589
-0.222361
-0.000863146
-0.2222
-0.00052147
-0.221987
-0.000238462
-0.221792
0.0250234
-0.069776
0.030703
-0.0647594
0.0268881
-0.060698
0.013526
-0.0613243
-0.00939993
-0.0678836
-0.0352651
-0.0786132
-0.056909
-0.0905755
-0.0665327
-0.100473
-0.0666364
-0.163915
-0.0488171
-0.171832
-0.0149742
-0.173837
0.0141379
-0.183879
0.0267036
-0.201378
0.0283307
-0.219402
0.0235967
-0.234216
0.014724
-0.243725
0.00444714
-0.24564
-0.00408789
-0.241545
-0.00912253
-0.235334
-0.0107198
-0.230428
-0.010359
-0.227407
-0.00917252
-0.225307
-0.00767989
-0.223922
-0.00618443
-0.223115
-0.00486085
-0.222685
-0.00375541
-0.222488
-0.00285875
-0.222372
-0.00214729
-0.222306
-0.00158401
-0.222219
-0.00113485
-0.222089
-0.000770338
-0.221951
-0.00046962
-0.221756
-0.00021774
-0.221574
0.0300167
-0.0788266
0.0331672
-0.0722402
0.0280907
-0.0659621
0.0157374
-0.0629094
-0.0055648
-0.0651594
-0.0308265
-0.0723223
-0.0533104
-0.0822117
-0.065284
-0.0918243
-0.0669981
-0.100111
-0.0551536
-0.157578
-0.0239355
-0.162871
0.0106122
-0.170311
0.0304704
-0.187645
0.0353157
-0.208363
0.0317288
-0.227534
0.0223579
-0.241849
0.0101459
-0.249424
-0.00138726
-0.248341
-0.00945887
-0.241209
-0.0128161
-0.233238
-0.0127335
-0.228054
-0.0112323
-0.225347
-0.00934981
-0.223637
-0.00745376
-0.222653
-0.00578979
-0.222187
-0.00442908
-0.222012
-0.00335087
-0.221996
-0.0025205
-0.221999
-0.001883
-0.222007
-0.00139149
-0.221963
-0.00100301
-0.221856
-0.000689505
-0.221731
-0.00042734
-0.221546
-0.000201931
-0.221372
0.034584
-0.0891334
0.0353689
-0.0810283
0.0285921
-0.0727416
0.0164609
-0.0666855
-0.00354236
-0.0649318
-0.0278039
-0.068182
-0.0503697
-0.0752631
-0.0637655
-0.0837302
-0.0665652
-0.0922571
-0.0580241
-0.0972408
-0.0312738
-0.15024
0.00507507
-0.157334
0.0323064
-0.172147
0.041916
-0.194246
0.0400532
-0.216687
0.0307794
-0.235956
0.0169015
-0.248605
0.00247994
-0.253291
-0.00900332
-0.248796
-0.015087
-0.238938
-0.0159311
-0.23004
-0.0140153
-0.225271
-0.0115028
-0.223194
-0.00906416
-0.222026
-0.00692921
-0.221513
-0.00521407
-0.221402
-0.00389205
-0.22147
-0.00290232
-0.221614
-0.00216983
-0.221712
-0.001626
-0.221773
-0.00121277
-0.221753
-0.000889128
-0.221657
-0.000624257
-0.221534
-0.00039555
-0.221352
-0.000191706
-0.22118
0.0395087
-0.154315
0.0366529
-0.0904175
0.0279196
-0.0803558
0.0155119
-0.0717926
-0.00361515
-0.0666127
-0.0265716
-0.0661641
-0.0484801
-0.0700716
-0.062264
-0.0767646
-0.0657205
-0.0845749
-0.0591731
-0.0911082
-0.035725
-0.0927896
-0.000789825
-0.144375
0.0319041
-0.156932
0.0476066
-0.177838
0.048304
-0.202497
0.0397012
-0.225609
0.0246902
-0.243744
0.00748351
-0.253609
-0.0074775
-0.254817
-0.0172222
-0.246661
-0.019977
-0.234892
-0.01796
-0.226096
-0.0143934
-0.22238
-0.0111182
-0.22114
-0.00835699
-0.220598
-0.00615421
-0.220573
-0.00449709
-0.220797
-0.00329668
-0.221076
-0.00243864
-0.221346
-0.0018302
-0.221508
-0.00138935
-0.221596
-0.00105991
-0.221582
-0.000798509
-0.221483
-0.00057615
-0.221354
-0.000375591
-0.221169
-0.000186815
-0.220994
0.0398544
-0.176582
0.034841
-0.152503
0.0253074
-0.0878053
0.0125539
-0.0773978
-0.00588135
-0.0695264
-0.0273579
-0.0658264
-0.0479333
-0.0667109
-0.0610288
-0.0713068
-0.0645878
-0.0778973
-0.0589293
-0.0848187
-0.0381179
-0.0887153
-0.00581032
-0.0877691
0.0299906
-0.142462
0.0518308
-0.161156
0.0561508
-0.185685
0.0488184
-0.211614
0.0333038
-0.234223
0.0137568
-0.250018
-0.00478406
-0.256302
-0.0185151
-0.253524
-0.0244938
-0.242144
-0.0233484
-0.229503
-0.0185892
-0.2219
-0.0138114
-0.219687
-0.0101479
-0.219349
-0.00730261
-0.21945
-0.00519075
-0.219879
-0.00370407
-0.220389
-0.00268348
-0.220831
-0.00199176
-0.221184
-0.00152012
-0.221377
-0.00118919
-0.221467
-0.000940335
-0.22144
-0.000733578
-0.221325
-0.000547209
-0.221182
-0.000366939
-0.220988
-0.000186781
-0.220807
0.0339319
-0.191874
0.0265076
-0.168249
0.0178641
-0.14506
0.00734728
-0.0825986
-0.0102392
-0.07304
-0.0299643
-0.06692
-0.0484992
-0.0652605
-0.0600312
-0.0677084
-0.0631611
-0.0727335
-0.0574915
-0.0793351
-0.0386477
-0.0842889
-0.00912067
-0.0854049
0.0261848
-0.0839633
0.054606
-0.145237
0.0632618
-0.168267
0.057746
-0.194612
0.0424264
-0.220736
0.0210752
-0.241541
-0.000832436
-0.253969
-0.0183469
-0.25647
-0.0287587
-0.249259
-0.0298408
-0.235652
-0.0246821
-0.223411
-0.0177067
-0.218005
-0.012407
-0.217428
-0.00870807
-0.217944
-0.00599679
-0.218644
-0.00413033
-0.219453
-0.00289166
-0.220181
-0.00209554
-0.220727
-0.00158747
-0.221117
-0.00126093
-0.221306
-0.00103573
-0.221372
-0.000857706
-0.221316
-0.000697058
-0.221175
-0.000536577
-0.221012
-0.000368558
-0.220807
-0.000190347
-0.220617
0.0239555
-0.200712
0.0143926
-0.179759
0.00728113
-0.157666
-0.00234322
-0.135369
-0.015989
-0.0768488
-0.0336568
-0.0693474
-0.0494934
-0.0659258
-0.059037
-0.0662547
-0.0612156
-0.069654
-0.0549848
-0.0752403
-0.0375241
-0.0804586
-0.010501
-0.0829086
0.0229956
-0.0822158
0.0536848
-0.0830421
0.0693847
-0.15136
0.0663311
-0.176852
0.051693
-0.203879
0.0291744
-0.228836
0.00422191
-0.246595
-0.0173698
-0.254946
-0.0318158
-0.253413
-0.0367117
-0.242388
-0.0325722
-0.227762
-0.023657
-0.21746
-0.0155564
-0.214855
-0.0103902
-0.215746
-0.00694066
-0.217
-0.00456998
-0.218204
-0.00305153
-0.219293
-0.00211776
-0.220159
-0.00156835
-0.220747
-0.00125367
-0.221124
-0.00106647
-0.221275
-0.000934308
-0.221295
-0.000815493
-0.221198
-0.000687665
-0.221024
-0.000542496
-0.220839
-0.000377808
-0.220619
-0.000196535
-0.22042
0.0146169
-0.207694
0.00407326
-0.190392
-0.00216444
-0.170313
-0.0113446
-0.148665
-0.0234078
-0.127951
-0.0371612
-0.0733444
-0.0501314
-0.0687094
-0.0575438
-0.067419
-0.0584502
-0.0690201
-0.0514391
-0.0731996
-0.0349088
-0.0778556
-0.0100423
-0.0809173
0.0211591
-0.081072
0.0523676
-0.0808987
0.0714001
-0.0850575
0.0740337
-0.159062
0.0609868
-0.186146
0.0379333
-0.212638
0.010272
-0.234886
-0.0153416
-0.248624
-0.034066
-0.252696
-0.0432052
-0.24692
-0.0415066
-0.233454
-0.0319578
-0.219461
-0.0205258
-0.212491
-0.0125606
-0.212685
-0.00798305
-0.214703
-0.00502577
-0.216544
-0.00313278
-0.218123
-0.00203098
-0.21938
-0.0014304
-0.220297
-0.00113815
-0.220862
-0.00100888
-0.221181
-0.000944475
-0.221265
-0.000889211
-0.221221
-0.000811876
-0.221074
-0.000702656
-0.220864
-0.000560714
-0.220656
-0.000392531
-0.220423
-0.000203904
-0.220216
0.0089988
-0.214937
-0.0012923
-0.202329
-0.00706337
-0.185493
-0.0163863
-0.165271
-0.0273045
-0.144768
-0.038978
-0.126134
-0.0497461
-0.0737297
-0.0552791
-0.0709742
-0.0548129
-0.0710563
-0.0469731
-0.0734862
-0.0310723
-0.0770362
-0.00791615
-0.0799817
0.0209304
-0.0806887
0.0513137
-0.0800181
0.0727949
-0.0822935
0.0778381
-0.0888618
0.0693504
-0.167426
0.0470305
-0.195243
0.0174548
-0.219821
-0.0121373
-0.23809
-0.0352678
-0.247422
-0.0486342
-0.247267
-0.0505464
-0.23788
-0.0420054
-0.223406
-0.0280461
-0.21194
-0.0159799
-0.209072
-0.0091531
-0.211515
-0.00542413
-0.214305
-0.00311425
-0.216563
-0.00178678
-0.218367
-0.00113234
-0.219678
-0.000875971
-0.220559
-0.000829603
-0.221041
-0.000864085
-0.221262
-0.000900173
-0.221254
-0.000897937
-0.221135
-0.000842756
-0.220934
-0.000735775
-0.220689
-0.000587589
-0.220461
-0.000409621
-0.220217
-0.000210628
-0.220005
0.00644329
-0.222351
-0.00213785
-0.214092
-0.00815319
-0.201239
-0.0171039
-0.184776
-0.0270902
-0.165486
-0.0372392
-0.146507
-0.0461096
-0.12977
-0.0520544
-0.0769544
-0.0502971
-0.07549
-0.041736
-0.0762934
-0.0261583
-0.0784002
-0.00434841
-0.0806039
0.0223606
-0.0814119
0.0510921
-0.0804671
0.0737809
-0.0810041
0.0810407
-0.0854961
0.0743866
-0.093898
0.055171
-0.175567
0.0249263
-0.202714
-0.00770998
-0.224248
-0.0352876
-0.23807
-0.0529653
-0.243091
-0.0588313
-0.238982
-0.0527393
-0.227146
-0.0379636
-0.213489
-0.0216633
-0.206257
-0.010858
-0.207367
-0.0057005
-0.211238
-0.00290232
-0.214517
-0.00133867
-0.217011
-0.000614182
-0.218885
-0.000414464
-0.22014
-0.000486677
-0.220902
-0.000658217
-0.221247
-0.000825654
-0.221336
-0.000930262
-0.221221
-0.000954544
-0.221023
-0.000899327
-0.22077
-0.000781339
-0.220495
-0.000618027
-0.220252
-0.00042519
-0.220003
-0.000215606
-0.21979
0.00571434
-0.228024
-0.0010105
-0.223478
-0.00679458
-0.21545
-0.0152442
-0.203099
-0.0241735
-0.187692
-0.0329458
-0.169779
-0.0403779
-0.152238
-0.0450899
-0.136735
-0.0450717
-0.0821798
-0.0358193
-0.0814068
-0.0203592
-0.0820924
0.000405702
-0.0831543
0.0252878
-0.0835311
0.0520722
-0.0823919
0.0747167
-0.0814029
0.0836385
-0.0836019
0.0788688
-0.0899782
0.0611054
-0.0998324
0.0319217
-0.182562
-0.00320837
-0.207216
-0.0344342
-0.225101
-0.0562844
-0.234751
-0.0660813
-0.235841
-0.0631989
-0.228523
-0.0493459
-0.215764
-0.0300393
-0.205113
-0.0140888
-0.203026
-0.00589007
-0.207177
-0.00241174
-0.211729
-0.00058277
-0.215273
0.000196248
-0.217821
0.000313376
-0.219613
8.05031e-05
-0.220707
-0.000284028
-0.221276
-0.000631969
-0.221441
-0.000889376
-0.221377
-0.00102632
-0.22115
-0.00104691
-0.220876
-0.000973062
-0.220578
-0.000831669
-0.220282
-0.00064574
-0.220032
-0.000436824
-0.219782
-0.00021754
-0.219572
0.00565576
-0.23147
0.000902621
-0.229937
-0.00423091
-0.226042
-0.011783
-0.218911
-0.0196734
-0.207599
-0.0273102
-0.193328
-0.0333757
-0.176781
-0.0367746
-0.160554
-0.0362122
-0.145594
-0.0294381
-0.088561
-0.0138558
-0.0879102
0.0060872
-0.0877739
0.0294619
-0.0873284
0.0542554
-0.0857144
0.07591
-0.0835852
0.0856708
-0.0834353
0.0827174
-0.0874505
0.0665098
-0.0953826
0.0385092
-0.10642
0.00220816
-0.187979
-0.032928
-0.208722
-0.0587412
-0.222645
-0.0723114
-0.228521
-0.0727895
-0.22625
-0.0610544
-0.216814
-0.0405939
-0.205209
-0.0196918
-0.19951
-0.00668663
-0.20223
-0.00144394
-0.208145
0.000573929
-0.212886
0.00140398
-0.216481
0.00140179
-0.218909
0.000944183
-0.220477
0.000322925
-0.221314
-0.000278252
-0.22163
-0.000745811
-0.221584
-0.00104361
-0.22136
-0.00117187
-0.221025
-0.00116253
-0.220686
-0.00105283
-0.220357
-0.000877438
-0.22005
-0.000666701
-0.219802
-0.00044177
-0.219557
-0.000215676
-0.219357
0.00571225
-0.233534
0.00265416
-0.233222
-0.00118278
-0.232985
-0.00753276
-0.230292
-0.0143788
-0.224206
-0.020815
-0.214094
-0.0257403
-0.200963
-0.0279927
-0.185563
-0.0265391
-0.170227
-0.0200771
-0.154955
-0.00702216
-0.0953946
0.0124949
-0.0943179
0.034498
-0.09281
0.0574695
-0.0905425
0.0775068
-0.0873112
0.087148
-0.0850624
0.0857779
-0.0864958
0.0712521
-0.0921928
0.0445858
-0.101459
0.00909189
-0.113304
-0.0293906
-0.191516
-0.0597294
-0.207734
-0.0774292
-0.217527
-0.0812489
-0.220062
-0.0721936
-0.215111
-0.0522597
-0.205148
-0.0277668
-0.197134
-0.00895989
-0.197237
-0.000305087
-0.203369
0.00237894
-0.20995
0.00313156
-0.214613
0.00295669
-0.218035
0.00221434
-0.22018
0.00123762
-0.221392
0.000298904
-0.221891
-0.000463827
-0.221912
-0.000984056
-0.221644
-0.00126625
-0.221266
-0.00134881
-0.220838
-0.00128555
-0.220454
-0.00112532
-0.220109
-0.000912442
-0.219804
-0.000676448
-0.219567
-0.00043844
-0.219335
-0.000209226
-0.219147
0.00571548
-0.234762
0.00384452
-0.234724
0.00147185
-0.235876
-0.00318543
-0.237333
-0.0088481
-0.235823
-0.0141483
-0.230873
-0.0179184
-0.221916
-0.0192139
-0.209742
-0.0169881
-0.195114
-0.0104266
-0.179877
0.00164543
-0.163623
0.0191564
-0.102056
0.0399907
-0.0998105
0.0612633
-0.0966038
0.0794465
-0.0924822
0.0882977
-0.0884609
0.088001
-0.0872854
0.0751934
-0.0904371
0.0497635
-0.0973704
0.0153534
-0.107721
-0.0233799
-0.119314
-0.0591763
-0.192069
-0.08114
-0.204023
-0.0884009
-0.210375
-0.0822169
-0.210038
-0.06394
-0.203431
-0.0376927
-0.195222
-0.0133025
-0.192791
0.000458423
-0.198
0.00484315
-0.205833
0.0055676
-0.212386
0.0051413
-0.216798
0.00400248
-0.219824
0.00257754
-0.22152
0.00117353
-0.222266
1.35494e-05
-0.222368
-0.000820343
-0.222075
-0.00131724
-0.221593
-0.00153145
-0.221083
-0.00153474
-0.220589
-0.00139729
-0.220182
-0.00118131
-0.21984
-0.000930061
-0.219551
-0.000672402
-0.219333
-0.000425239
-0.219119
-0.000198522
-0.218949
0.00563516
-0.235528
0.00453752
-0.235455
0.00326207
-0.236514
0.000487706
-0.23955
-0.00366413
-0.242517
-0.00784401
-0.242127
-0.010556
-0.238235
-0.0109373
-0.230192
-0.00814531
-0.218585
-0.00132055
-0.20422
0.00999399
-0.188226
0.0263104
-0.170777
0.0455613
-0.107627
0.0651169
-0.103664
0.0814566
-0.098614
0.0890268
-0.0932113
0.0893442
-0.0898042
0.0782474
-0.0903394
0.0538419
-0.0945155
0.0206333
-0.10265
-0.0178385
-0.113262
-0.0552086
-0.123282
-0.0838571
-0.189352
-0.094127
-0.198297
-0.0907579
-0.201834
-0.0748175
-0.199161
-0.0484332
-0.19269
-0.0197575
-0.188767
0.000151121
-0.192484
0.00781281
-0.20097
0.00891426
-0.209179
0.00808942
-0.215334
0.00650316
-0.219298
0.00446684
-0.221713
0.00246318
-0.222809
0.000753548
-0.223006
-0.000507785
-0.222681
-0.0013092
-0.222083
-0.00170877
-0.221416
-0.00180774
-0.22081
-0.00170362
-0.220283
-0.00148428
-0.219879
-0.00121136
-0.219559
-0.000926463
-0.219296
-0.00065208
-0.219106
-0.000402893
-0.218914
-0.000183966
-0.218765
0.00547281
-0.235973
0.00488505
-0.235876
0.00427624
-0.236469
0.00292836
-0.238955
0.000588328
-0.243802
-0.00238441
-0.247976
-0.00414259
-0.24854
-0.00373252
-0.24544
-0.000416999
-0.237921
0.00644417
-0.22635
0.0173905
-0.211617
0.0323455
-0.194261
0.0505622
-0.175778
0.0685734
-0.111083
0.0831334
-0.105341
0.0894184
-0.0990055
0.0899224
-0.0937894
0.0802249
-0.0917817
0.0567838
-0.0932813
0.0246951
-0.0985773
-0.0130223
-0.107467
-0.0510802
-0.117391
-0.0822323
-0.124907
-0.0986748
-0.184804
-0.0976041
-0.191451
-0.0843219
-0.192329
-0.0590275
-0.188566
-0.02771
-0.184738
-0.00175421
-0.186862
0.0108123
-0.195484
0.0132564
-0.205312
0.0120883
-0.213178
0.00985547
-0.218686
0.00711811
-0.22195
0.00430293
-0.223553
0.00186675
-0.223922
7.28989e-06
-0.223521
-0.00121543
-0.222775
-0.00187926
-0.221913
-0.00211439
-0.221109
-0.00205883
-0.220455
-0.00183588
-0.219931
-0.00153323
-0.219557
-0.00120997
-0.219276
-0.000898177
-0.21905
-0.00061668
-0.218892
-0.000372314
-0.218726
-0.000166074
-0.218599
0.00522459
-0.236203
0.0049981
-0.236086
0.00476943
-0.236369
0.00424889
-0.237789
0.0033716
-0.241738
0.00190558
-0.248092
0.000912148
-0.253031
0.00203329
-0.254306
0.00576208
-0.251619
0.0125764
-0.244053
0.0230476
-0.232007
0.037006
-0.216277
0.0536752
-0.197374
0.0705042
-0.177709
0.084076
-0.112026
0.089449
-0.105372
0.0897715
-0.0988547
0.0809833
-0.0945477
0.0584833
-0.0934813
0.0273945
-0.0959808
-0.00928093
-0.102319
-0.0472532
-0.111293
-0.0799498
-0.119673
-0.0992769
-0.124305
-0.102589
-0.179819
-0.0923087
-0.183464
-0.0686468
-0.18271
-0.0363219
-0.179955
-0.00528469
-0.181207
0.0132828
-0.189333
0.018397
-0.200624
0.0172888
-0.210512
0.0143677
-0.217691
0.0107153
-0.222283
0.00691643
-0.224563
0.00348694
-0.225173
0.000817997
-0.224733
-0.00100287
-0.223734
-0.0020382
-0.222616
-0.00246841
-0.221559
-0.00248333
-0.220685
-0.00225635
-0.220034
-0.00191292
-0.219551
-0.0015364
-0.21923
-0.00117254
-0.219001
-0.000847037
-0.21882
-0.000567783
-0.218697
-0.00033467
-0.218557
-0.00014621
-0.218453
0.00490885
-0.23633
0.00492725
-0.236132
0.00496137
-0.236278
0.00484582
-0.236966
0.00477321
-0.239191
0.00462128
-0.244454
0.00458551
-0.251765
0.00599766
-0.256995
0.0100471
-0.258591
0.0168211
-0.255864
0.0267186
-0.247724
0.0397968
-0.234797
0.0550301
-0.217632
0.0705297
-0.197399
0.082833
-0.176466
0.0889246
-0.111501
0.088826
-0.104426
0.0802905
-0.0981619
0.0588137
-0.0948781
0.028695
-0.0947817
-0.00687183
-0.0983899
-0.044105
-0.105467
-0.0774609
-0.113782
-0.0991341
-0.119816
-0.104339
-0.122555
-0.0984887
-0.173639
-0.0771189
-0.174992
-0.0445917
-0.17444
-0.00998242
-0.175257
0.0147416
-0.182666
0.0240472
-0.194983
0.023687
-0.207022
0.0202149
-0.21636
0.0155752
-0.222551
0.0105288
-0.225896
0.00583444
-0.226911
0.00203989
-0.226395
-0.000610067
-0.225126
-0.00217961
-0.223593
-0.0028885
-0.222196
-0.00300526
-0.221037
-0.00277451
-0.220166
-0.00237424
-0.219573
-0.00192393
-0.219164
-0.00148783
-0.218915
-0.00110178
-0.218747
-0.000775603
-0.218612
-0.000507449
-0.218524
-0.00029287
-0.218411
-0.000125509
-0.218327
0.00452468
-0.236377
0.00472578
-0.236128
0.00493979
-0.23611
0.00506515
-0.236497
0.00530709
-0.2375
0.00583191
-0.240402
0.00669909
-0.246567
0.00845807
-0.254226
0.0123849
-0.259333
0.0190329
-0.260803
0.0282753
-0.25742
0.0404796
-0.248407
0.0544899
-0.234257
0.0686011
-0.215703
0.0801779
-0.194744
0.0864214
-0.173962
0.0868055
-0.109481
0.0780716
-0.102207
0.0575841
-0.0969322
0.0284473
-0.0946304
-0.00593802
-0.0957155
-0.0420491
-0.100446
-0.0750924
-0.107835
-0.0983004
-0.114616
-0.105152
-0.119003
-0.102118
-0.118925
-0.08395
-0.166808
-0.0520769
-0.167507
-0.0151789
-0.169244
0.0152199
-0.175735
0.0297033
-0.188322
0.0312481
-0.202544
0.0274977
-0.214305
0.0219337
-0.222718
0.0154889
-0.227511
0.00915194
-0.229213
0.00386128
-0.228732
4.20104e-05
-0.227047
-0.00228492
-0.225021
-0.0033995
-0.223082
-0.00366508
-0.221536
-0.00343009
-0.220381
-0.00295121
-0.219589
-0.00239734
-0.2191
-0.00186131
-0.21879
-0.00139152
-0.218625
-0.00100168
-0.21852
-0.000687256
-0.218432
-0.000440447
-0.218377
-0.000249372
-0.218287
-0.000105289
-0.218222
0.00409693
-0.236366
0.00441681
-0.236068
0.00475331
-0.235942
0.00504806
-0.236093
0.00543284
-0.236623
0.00612699
-0.237795
0.00738491
-0.241088
0.00944538
-0.247555
0.013126
-0.254967
0.0193904
-0.259691
0.0280869
-0.260615
0.0390158
-0.255957
0.0518605
-0.245777
0.0647411
-0.230397
0.075622
-0.211147
0.0819896
-0.190313
0.082306
-0.169463
0.0742378
-0.105647
0.0546103
-0.0992333
0.0266111
-0.0950961
-0.00657461
-0.0939938
-0.0412754
-0.0964893
-0.073304
-0.102234
-0.0970787
-0.109057
-0.105445
-0.114323
-0.104332
-0.116789
-0.0894113
-0.113464
-0.0583497
-0.160535
-0.0200045
-0.162681
0.0146145
-0.168638
0.0350778
-0.18111
0.0396356
-0.19671
0.036265
-0.211311
0.0299702
-0.222342
0.0221283
-0.229357
0.0138388