/*--------------------------------*- C++ -*----------------------------------*\
| =========                 |                                                 |
| \\      /  F ield         | OpenFOAM: The Open Source CFD Toolbox           |
|  \\    /   O peration     | Version:  2506                                  |
|   \\  /    A nd           | Website:  www.openfoam.com                      |
|    \\/     M anipulation  |                                                 |
\*---------------------------------------------------------------------------*/
FoamFile
{
    version     2.0;
    format      ascii;
    arch        "LSB;label=32;scalar=64";
    class       volScalarField;
    location    "400";
    object      div(phi);
}
// * * * * * * * * * * * * * * * * * * * * * * * * * * * * * * * * * * * * * //

dimensions      [0 0 -1 0 0 0 0];

internalField   nonuniform List<scalar> 
1340
(
-1.08459e-08
-1.73526e-08
-3.78218e-09
-1.96644e-08
-4.17181e-09
-4.10528e-09
-1.32653e-08
-2.33029e-09
-6.00251e-09
-1.90386e-09
-9.72758e-09
-1.47466e-08
9.80216e-10
-6.31822e-09
-1.49749e-09
-2.74131e-09
1.17202e-08
-2.18087e-08
1.58545e-09
1.41495e-09
-5.7323e-09
8.58345e-11
-3.91036e-09
-7.67225e-10
-2.0978e-09
9.22137e-09
-2.46183e-09
4.41748e-09
5.96511e-09
-3.66502e-09
-7.02433e-09
1.48626e-09
-4.21874e-09
9.76986e-11
-1.80075e-09
-7.88032e-09
2.17923e-08
-8.42267e-09
3.26394e-09
2.33169e-09
1.20355e-08
1.2809e-09
-6.20306e-09
7.93367e-10
1.91643e-09
-5.40511e-09
1.37618e-09
-2.73204e-09
-8.43468e-11
-3.601e-08
1.25913e-08
1.45395e-08
-1.98304e-08
1.72462e-08
-6.60906e-10
3.54893e-09
-6.06196e-10
7.30963e-09
-3.23772e-09
3.01357e-09
6.35118e-09
-3.25931e-09
-6.8644e-09
1.99105e-09
-3.65268e-09
9.51115e-10
-1.35716e-09
-2.49419e-08
5.41835e-08
-5.56951e-08
4.54673e-08
-3.30219e-08
1.74198e-08
-1.23188e-08
-7.45536e-09
1.37986e-08
-3.96599e-10
8.19834e-09
-5.26066e-09
1.59751e-09
-1.27057e-09
1.01804e-08
1.76102e-09
-5.64254e-09
3.15762e-10
2.64438e-09
-5.57439e-09
1.92548e-09
-2.18808e-09
2.96398e-10
2.56395e-08
1.97833e-08
2.57933e-08
3.44502e-08
1.55194e-08
3.52582e-08
1.35308e-08
2.09261e-08
-6.76461e-09
1.63583e-08
-2.0811e-08
1.18667e-08
-2.38917e-08
1.34725e-09
-6.31557e-09
-1.03589e-08
4.82154e-09
-5.87886e-09
1.41841e-09
-1.62004e-09
7.56488e-09
-3.69048e-09
1.80557e-09
6.45902e-09
-2.53063e-09
-6.53524e-09
2.51911e-09
-3.2177e-09
1.35979e-09
-9.40353e-10
2.8977e-07
-9.12447e-08
1.2045e-07
-4.93418e-08
9.25807e-08
-3.14514e-08
5.43221e-08
-1.73387e-08
4.63655e-08
1.61858e-09
3.96057e-08
1.02102e-08
2.6363e-08
1.97747e-08
2.41411e-08
2.87369e-08
1.49106e-08
2.70419e-08
1.07133e-08
8.34547e-09
6.52113e-09
-1.02737e-08
1.58372e-09
-1.97148e-08
4.74538e-09
-2.14235e-08
-1.37879e-08
-8.9394e-09
-6.87528e-09
3.88523e-10
-6.88508e-09
5.09665e-10
-7.70661e-09
8.08706e-09
2.74427e-09
-5.37996e-09
1.21395e-10
3.24702e-09
-4.97837e-09
2.24728e-09
-1.78701e-09
4.97953e-10
9.1734e-07
-1.7187e-06
-3.30412e-07
-1.16151e-06
-5.60807e-08
-9.18715e-07
8.21459e-08
-7.3002e-07
1.76045e-07
-5.80828e-07
1.95472e-07
-4.94787e-07
2.10428e-07
-4.40933e-07
2.01084e-07
-4.07506e-07
2.06777e-07
-3.79492e-07
1.96136e-07
-3.70403e-07
2.00915e-07
-3.67682e-07
2.06196e-07
-3.54356e-07
2.03312e-07
-3.24903e-07
2.10456e-07
-2.84129e-07
1.93566e-07
-2.20409e-07
2.13636e-07
-1.52065e-07
2.25028e-07
-1.07242e-07
2.07162e-07
-6.93622e-08
1.64459e-07
-4.36203e-08
1.26707e-07
-2.93706e-08
9.24333e-08
-1.4116e-08
6.61916e-08
5.09326e-09
5.74266e-08
1.69787e-08
4.67735e-08
2.45251e-08
3.27214e-08
3.07214e-08
2.83196e-08
2.7082e-08
2.33639e-08
2.50126e-08
1.56795e-08
1.96955e-08
1.11342e-08
3.56524e-09
2.26576e-09
-4.99386e-09
2.98077e-09
-1.62085e-08
-7.24484e-09
-1.40814e-08
-9.73813e-09
-5.03979e-09
-1.11525e-08
-3.60315e-09
-1.09113e-08
4.954e-09
-7.28728e-09
-5.02205e-10
5.59108e-09
-1.19304e-09
-5.62244e-09
3.1349e-09
-3.07507e-09
1.54089e-09
-7.97462e-10
1.79265e-06
-1.07816e-06
3.66592e-07
-7.88878e-07
4.26974e-07
-6.52283e-07
4.42551e-07
-5.50007e-07
4.42876e-07
-4.50029e-07
3.97633e-07
-3.68817e-07
3.58553e-07
-3.1307e-07
3.21306e-07
-2.84584e-07
2.92662e-07
-2.62943e-07
2.57346e-07
-2.43501e-07
2.32604e-07
-2.29134e-07
2.13211e-07
-2.17009e-07
1.94435e-07
-1.98373e-07
1.75731e-07
-1.716e-07
1.53683e-07
-1.45684e-07
1.62696e-07
-1.21677e-07
1.30177e-07
-9.21931e-08
1.3472e-07
-6.39013e-08
1.22475e-07
-3.93906e-08
9.98115e-08
-1.69023e-08
8.6859e-08
-1.06682e-09
7.2121e-08
7.13004e-09
5.3009e-08
1.79859e-08
3.98909e-08
2.40682e-08
3.50141e-08
2.25215e-08
2.44072e-08
2.62526e-08
1.85772e-08
2.078e-08
1.80515e-08
1.76546e-08
1.27148e-08
1.04021e-08
8.40538e-09
5.08654e-09
-2.0186e-10
9.81985e-11
-5.25182e-09
-5.96944e-09
-5.40729e-09
-6.71464e-09
-3.96762e-09
-1.00813e-08
-1.69554e-09
-1.4054e-08
4.0796e-09
1.96902e-09
-4.16346e-09
-8.09022e-10
3.81759e-09
-4.57028e-09
2.52834e-09
-1.70387e-09
5.64793e-10
1.75145e-06
-1.104e-06
2.4062e-07
-6.83495e-07
3.86258e-07
-5.15619e-07
4.34801e-07
-4.34984e-07
4.34704e-07
-3.77221e-07
4.07849e-07
-3.17483e-07
3.60797e-07
-2.6952e-07
3.2037e-07
-2.36025e-07
2.88061e-07
-2.10256e-07
2.58458e-07
-1.85517e-07
2.30963e-07
-1.64535e-07
2.0762e-07
-1.52896e-07
1.92468e-07
-1.41757e-07
1.646e-07
-1.28803e-07
1.48894e-07
-1.02124e-07
1.21222e-07
-6.73473e-08
1.40333e-07
-4.25735e-08
1.28882e-07
-3.3252e-08
1.08438e-07
-3.33614e-08
8.84213e-08
-3.49037e-08
5.74478e-08
-2.81135e-08
3.72535e-08
-1.00701e-08
3.41746e-08
2.00693e-09
3.15739e-08
1.07707e-08
2.18875e-08
1.91173e-08
2.08667e-08
1.71432e-08
1.81048e-08
1.82465e-08
1.34705e-08
1.66717e-08
1.3493e-08
1.24397e-08
9.87242e-09
8.35275e-09
5.13977e-09
3.17748e-09
9.06715e-10
-1.04945e-09
-1.92452e-09
-2.14048e-09
-4.66488e-09
-2.88812e-09
-1.20074e-08
4.09197e-09
-6.46307e-09
-1.14319e-09
1.26697e-10
-3.32262e-10
-4.9226e-09
3.56836e-09
-2.63343e-09
1.70086e-09
-5.77219e-10
1.4398e-06
-7.7924e-07
3.41187e-07
-5.75182e-07
3.5555e-07
-4.71992e-07
3.62485e-07
-4.03087e-07
3.53276e-07
-3.61446e-07
3.38717e-07
-3.2345e-07
2.99223e-07
-2.83636e-07
2.5884e-07
-2.48852e-07
2.2721e-07
-2.23913e-07
2.04681e-07
-1.9938e-07
1.82628e-07
-1.74637e-07
1.6619e-07
-1.54391e-07
1.52597e-07
-1.37974e-07
1.38678e-07
-1.21342e-07
1.22828e-07
-1.05175e-07
1.06969e-07
-9.18639e-08
9.1162e-08
-7.41251e-08
7.53582e-08
-5.63263e-08
7.7615e-08
-3.88368e-08
6.44224e-08
-2.45977e-08
5.82753e-08
-1.42954e-08
5.05933e-08
-1.1886e-08
3.3245e-08
-4.12067e-09
2.16223e-08
4.85607e-09
2.24114e-08
8.67367e-09
1.63816e-08
1.57823e-08
1.35554e-08
1.57834e-08
1.43147e-08
1.44717e-08
1.11454e-08
1.14568e-08
8.81048e-09
7.37044e-09
5.55333e-09
3.6199e-09
2.36034e-09
1.37077e-09
-1.64286e-10
8.5492e-11
3.78311e-10
-3.87589e-09
1.91755e-09
-1.08565e-08
2.25174e-09
-4.62947e-09
-3.58753e-09
-7.11045e-09
2.20922e-09
-3.88413e-09
2.80687e-09
-1.32153e-09
6.88893e-10
7.44682e-07
-1.086e-06
-1.60494e-07
-6.72735e-07
6.7961e-08
-4.76045e-07
1.52329e-07
-3.64609e-07
2.04023e-07
-2.96793e-07
2.22813e-07
-2.52862e-07
2.32604e-07
-2.15543e-07
2.15403e-07
-1.86239e-07
1.95846e-07
-1.65888e-07
1.7618e-07
-1.51965e-07
1.57127e-07
-1.39203e-07
1.39062e-07
-1.2687e-07
1.23939e-07
-1.1803e-07
1.12475e-07
-1.07479e-07
9.90002e-08
-9.55494e-08
8.63246e-08
-8.15487e-08
7.38969e-08
-7.1884e-08
6.84257e-08
-6.58497e-08
4.81314e-08
-6.29061e-08
3.79735e-08
-5.89004e-08
2.38229e-08
-5.20468e-08
8.57606e-09
-3.41824e-08
1.07945e-08
-1.69458e-08
1.66571e-08
-3.3504e-09
1.32135e-08
9.07933e-09
1.55588e-08
1.12803e-08
1.36955e-08
1.24175e-08
9.05198e-09
1.12692e-08
8.04583e-09
8.58262e-09
6.08048e-09
5.54153e-09
4.61803e-09
2.34872e-09
3.55682e-09
9.99991e-10
1.77089e-09
4.44226e-10
2.61053e-09
9.14783e-10
-8.83733e-09
2.81267e-09
-8.74538e-09
-3.35183e-09
-8.47347e-09
-2.14049e-09
-6.92678e-09
2.8946e-09
-2.3038e-09
1.82161e-09
-5.01787e-10
1.23666e-06
-4.46969e-07
2.82146e-07
-3.3826e-07
2.81882e-07
-2.91455e-07
2.56173e-07
-2.55531e-07
2.43697e-07
-2.27242e-07
2.2194e-07
-2.13689e-07
2.05269e-07
-2.07015e-07
1.79289e-07
-1.97213e-07
1.53028e-07
-1.81885e-07
1.28657e-07
-1.70213e-07
1.1223e-07
-1.59382e-07
9.76003e-08
-1.49448e-07
8.87713e-08
-1.40038e-07
8.30169e-08
-1.32292e-07
8.00316e-08
-1.2093e-07
7.6939e-08
-1.07913e-07
6.99109e-08
-9.37697e-08
6.65607e-08
-8.07032e-08
5.66949e-08
-6.8249e-08
5.28353e-08
-5.38792e-08
3.99499e-08
-3.71076e-08
4.66648e-08
-2.38534e-08
4.16466e-08
-1.37197e-08
3.01021e-08
-4.52313e-09
3.13907e-08
-6.14363e-10
2.0367e-08
3.45049e-09
1.17718e-08
6.03944e-09
1.00703e-08
7.78579e-09
5.75144e-09
7.76996e-09
3.68332e-09
6.2675e-09
2.0175e-09
4.10609e-09
1.37918e-09
2.79872e-09
3.44253e-10
1.70479e-09
2.0925e-09
-4.89248e-09
2.03741e-09
-7.66053e-09
-2.03806e-09
-5.98111e-09
-5.0153e-09
-7.51895e-09
-5.63555e-10
-4.52287e-09
2.41865e-09
-1.33094e-09
7.04823e-10
1.24509e-06
-6.3294e-07
3.76863e-08
-4.22343e-07
8.64332e-08
-3.33371e-07
9.02698e-08
-2.78734e-07
9.2751e-08
-2.39226e-07
8.6059e-08
-2.10791e-07
8.62692e-08
-1.90052e-07
8.24747e-08
-1.73733e-07
8.58716e-08
-1.55714e-07
8.01052e-08
-1.40328e-07
7.56488e-08
-1.2828e-07
6.70664e-08
-1.20012e-07
6.37346e-08
-1.12697e-07
5.8279e-08
-1.08122e-07
5.47133e-08
-1.03621e-07
5.1075e-08
-9.63019e-08
4.66727e-08
-8.60963e-08
4.31601e-08
-7.44388e-08
3.96784e-08
-6.23094e-08
3.66155e-08
-5.15364e-08
3.36045e-08
-4.34837e-08
2.60508e-08
-3.36401e-08
1.87024e-08
-2.44479e-08
2.29091e-08
-1.72528e-08
1.20546e-08
-9.72238e-09
1.09308e-08
-4.07735e-09
9.86818e-09
9.00286e-11
4.49234e-09
2.47279e-09
3.14158e-09
3.4375e-09
1.039e-09
3.24988e-09
-6.09581e-11
2.27381e-09
2.27218e-10
1.74652e-09
-7.42059e-11
1.43814e-09
1.23421e-09
-5.30912e-11
-1.90659e-10
-1.85424e-09
-1.60986e-10
-5.10232e-09
-4.69498e-09
-3.95621e-09
-6.70087e-09
1.09316e-09
-2.86626e-09
1.56311e-09
-5.08407e-10
1.52678e-06
-5.30419e-07
1.89797e-07
-3.6243e-07
1.71224e-07
-2.82648e-07
1.51755e-07
-2.24177e-07
1.38343e-07
-1.80934e-07
1.31899e-07
-1.4984e-07
1.21596e-07
-1.28473e-07
1.14919e-07
-1.13971e-07
1.07949e-07
-1.02446e-07
1.03596e-07
-9.04606e-08
9.5757e-08
-7.83346e-08
8.86082e-08
-6.72178e-08
8.18402e-08
-5.72074e-08
7.78407e-08
-4.90118e-08
7.33133e-08
-4.29799e-08
6.96582e-08
-3.92605e-08
6.37718e-08
-3.6139e-08
5.63457e-08
-3.40905e-08
4.88901e-08
-3.1818e-08
4.14842e-08
-2.99717e-08
3.45618e-08
-2.74989e-08
2.89453e-08
-2.73805e-08
2.34926e-08
-2.72928e-08
1.11426e-08
-2.53047e-08
9.71061e-09
-2.18263e-08
5.4405e-09
-1.75008e-08
1.23042e-09
-1.28265e-08
7.42563e-10
-7.74794e-09
-1.08901e-09
-3.40278e-09
-1.55595e-09
3.30017e-10
-1.6916e-09
2.92359e-09
-1.532e-09
4.40705e-09
-2.08466e-09
5.42234e-09
-2.63469e-09
6.79256e-09
-2.3579e-09
4.49946e-09
-2.33592e-09
-3.11664e-10
-3.72332e-09
-5.9738e-09
-1.05727e-09
-5.23475e-09
1.88793e-09
-1.48869e-09
6.29981e-10
5.30615e-07
-2.7315e-07
9.57006e-08
-2.36266e-07
9.17565e-08
-2.02724e-07
9.19699e-08
-1.69982e-07
9.16198e-08
-1.41381e-07
9.47216e-08
-1.17139e-07
9.28256e-08
-9.7781e-08
9.36584e-08
-8.22997e-08
9.16857e-08
-7.13157e-08
9.18528e-08
-6.21816e-08
8.61684e-08
-5.37223e-08
8.03546e-08
-4.58216e-08
7.30482e-08
-4.06218e-08
6.67199e-08
-3.69203e-08
5.98604e-08
-3.44528e-08
5.30116e-08
-3.26742e-08
4.63289e-08
-3.12208e-08
3.84294e-08
-2.94892e-08
3.29891e-08
-2.73021e-08
2.60527e-08
-2.42239e-08
2.2555e-08
-1.88863e-08
1.69413e-08
-1.23378e-08
2.25479e-08
-9.06199e-09
1.73988e-08
-9.20754e-09
1.06661e-08
-9.76811e-09
6.18915e-09
-9.41736e-09
1.29266e-10
-6.55311e-09
-6.07411e-10
-2.10444e-09
4.91753e-10
1.61478e-09
1.48334e-09
3.83051e-09
1.9355e-09
4.53993e-09
2.03576e-09
4.53452e-09
1.48968e-09
5.98379e-09
1.61332e-09
3.73929e-09
1.09982e-09
1.65206e-09
-7.73588e-10
-2.57677e-09
-1.85387e-09
-6.07575e-09
1.27593e-09
-3.07992e-09
1.30542e-09
-5.67575e-10
2.46936e-07
-2.94627e-07
1.10175e-08
-2.48811e-07
2.36312e-08
-2.09236e-07
4.03535e-08
-1.72064e-07
5.2009e-08
-1.40826e-07
6.3167e-08
-1.15012e-07
6.68113e-08
-9.47197e-08
7.19565e-08
-7.88697e-08
7.04903e-08
-6.8287e-08
6.87252e-08
-6.18384e-08
6.34065e-08
-5.73077e-08
5.70552e-08
-5.24478e-08
4.91624e-08
-4.82423e-08
4.15929e-08
-4.44157e-08
3.49297e-08
-4.11362e-08
2.91944e-08
-3.83414e-08
2.47553e-08
-3.55129e-08
2.12532e-08
-3.20945e-08
1.82469e-08
-2.84444e-08
1.57896e-08
-2.47622e-08
1.31671e-08
-2.18344e-08
1.18277e-08
-2.02058e-08
7.36041e-09
-1.78074e-08
3.74689e-09
-1.5246e-08
3.61701e-09
-1.12597e-08
1.0788e-09
-7.21212e-09
2.38484e-09
-2.89176e-09
3.20272e-09
3.57669e-10
3.40935e-09
2.76214e-09
3.27644e-09
4.01838e-09
3.05886e-09
4.32089e-09
2.655e-09
4.09677e-09
2.13355e-09
5.03777e-09
1.97873e-09
2.95608e-09
1.49567e-09
1.01275e-09
2.88223e-10
-9.70763e-10
-4.44189e-09
4.54277e-10
-4.78309e-09
1.63616e-09
-1.66242e-09
5.52761e-10
1.11379e-07
-1.71868e-07
3.21382e-08
-1.56225e-07
5.00061e-08
-1.40237e-07
5.73142e-08
-1.23737e-07
6.23351e-08
-1.07621e-07
6.27762e-08
-9.33713e-08
6.20516e-08
-8.08968e-08
5.87839e-08
-7.04501e-08
5.71312e-08
-6.14671e-08
5.40937e-08
-5.40342e-08
5.14808e-08
-4.8248e-08
4.83975e-08
-4.27489e-08
4.38243e-08
-3.62809e-08
3.90387e-08
-2.99518e-08
3.50662e-08
-2.55751e-08
3.16544e-08
-2.26792e-08
2.83211e-08
-2.01667e-08
2.50653e-08
-1.76438e-08
2.16195e-08
-1.58256e-08
1.8006e-08
-1.44734e-08
1.45884e-08
-1.36135e-08
1.10378e-08
-1.29357e-08
8.7584e-09
-1.38266e-08
5.26636e-09
-1.46171e-08
9.04123e-11
-1.4652e-08
-1.96848e-09
-1.24421e-08
-3.49259e-09
-8.62791e-09
-2.51856e-09
-4.21162e-09
-7.74243e-10
-6.78816e-10
5.66008e-10
1.41538e-09
1.02021e-09
2.32126e-09
1.05384e-09
2.65973e-09
8.49192e-10
3.38819e-09
9.4415e-10
1.75318e-09
7.16035e-10
3.88175e-10
-2.09328e-11
-1.88018e-09
-1.31611e-10
-5.28819e-09
1.56855e-09
-3.01419e-09
1.0071e-09
-1.32138e-10
2.8201e-07
-1.71991e-07
6.38899e-08
-1.37263e-07
6.11457e-08
-1.14623e-07
5.73589e-08
-9.64043e-08
5.53726e-08
-8.12795e-08
5.29126e-08
-6.85656e-08
5.04757e-08
-5.7599e-08
4.68858e-08
-4.9339e-08
4.37344e-08
-4.34272e-08
3.90506e-08
-3.89224e-08
3.47818e-08
-3.53928e-08
3.00229e-08
-3.33913e-08
2.49211e-08
-3.17053e-08
1.97693e-08
-3.00047e-08
1.46615e-08
-2.87311e-08
1.08078e-08
-2.79092e-08
7.50261e-09
-2.64288e-08
5.59819e-09
-2.43887e-08
4.17324e-09
-2.18718e-08
4.00836e-09
-1.93191e-08
3.32151e-09
-1.65768e-08
4.10356e-09
-1.37622e-08
2.98203e-09
-1.00396e-08
4.85195e-09
-6.52075e-09
5.88157e-09
-3.92937e-09
5.65067e-09
-2.38109e-09
5.03179e-09
-1.70494e-09
3.30756e-09
-1.39263e-09
1.59871e-09
-8.35928e-10
4.22645e-10
-1.77783e-10
-1.36026e-10
2.32349e-10
-3.74259e-10
5.22809e-10
-6.42429e-10
8.94149e-10
-7.44387e-10
5.88932e-10
-3.19168e-10
-2.97433e-10
-5.09575e-10
-4.96937e-10
-4.13594e-09
1.38191e-09
-3.81617e-09
7.58329e-10
-1.06084e-09
-5.71858e-11
2.67713e-07
-1.19441e-07
2.29855e-08
-1.18617e-07
2.69044e-08
-1.07148e-07
3.31342e-08
-9.18118e-08
4.02698e-08
-7.66294e-08
4.37305e-08
-6.35732e-08
4.4204e-08
-5.2655e-08
4.21021e-08
-4.38193e-08
3.85099e-08
-3.76085e-08
3.38675e-08
-3.35065e-08
2.73987e-08
-3.06717e-08
2.16881e-08
-2.84845e-08
1.60557e-08
-2.67823e-08
1.16916e-08
-2.50026e-08
7.89339e-09
-2.3087e-08
5.07882e-09
-2.14706e-08
2.98631e-09
-1.99103e-08
1.54882e-09
-1.83662e-08
9.86659e-10
-1.67999e-08
5.59839e-10
-1.52627e-08
7.74154e-10
-1.36185e-08
3.58217e-10
-1.20528e-08
6.44733e-10
-1.11399e-08
9.22858e-10
-1.11207e-08
-1.25899e-09
-1.12402e-08
-2.16562e-09
-1.0657e-08
-3.61652e-09
-9.23922e-09
-4.14004e-09
-6.94904e-09
-3.58585e-09
-4.68392e-09
-2.8747e-09
-2.95424e-09
-2.38513e-09
-1.67368e-09
-1.95087e-09
-6.44706e-10
-1.67506e-09
-2.88277e-10
-1.46465e-09
-2.0532e-10
-9.56452e-10
-7.4274e-10
-5.83448e-10
-2.26282e-09
1.08e-09
-3.40327e-09
4.36335e-11
-2.04935e-09
-8.6455e-10
-4.12813e-10
-1.37664e-07
-1.29993e-07
3.00513e-09
-9.05885e-08
2.85527e-08
-6.87144e-08
3.73953e-08
-5.60769e-08
3.87357e-08
-4.77264e-08
3.74278e-08
-4.14413e-08
3.49918e-08
-3.61529e-08
3.22175e-08
-3.18863e-08
2.93411e-08
-2.8476e-08
2.53725e-08
-2.56159e-08
2.20453e-08
-2.29737e-08
1.86804e-08
-2.04444e-08
1.60525e-08
-1.77009e-08
1.3576e-08
-1.52758e-08
1.19649e-08
-1.37408e-08
1.01598e-08
-1.19471e-08
8.11401e-09
-9.23544e-09
6.61982e-09
-7.64028e-09
5.29122e-09
-7.84864e-09
4.00552e-09
-8.40197e-09
3.22869e-09
-8.14404e-09
2.29808e-09
-7.50771e-09
2.35114e-09
-6.40413e-09
1.4181e-09
-4.88823e-09
2.14413e-09
-3.16683e-09
2.55511e-09
-1.98585e-09
2.25117e-09
-1.49237e-09
1.76455e-09
-1.65046e-09
4.00118e-10
-1.96676e-09
-8.74036e-10
-1.89878e-09
-1.44264e-09
-1.55272e-09
-1.52958e-09
-1.15465e-09
-1.4761e-09
-1.33301e-09
-1.80853e-09
-8.35988e-10
-1.33047e-09
-4.85339e-10
-9.5002e-10
4.24251e-10
-1.96222e-09
-4.44992e-10
-1.90258e-09
-1.17718e-09
-6.15666e-10
-1.52108e-10
-2.61461e-08
-5.42046e-08
-1.94637e-08
-5.18663e-08
-1.60408e-08
-4.95821e-08
-1.22556e-08
-4.6909e-08
-1.11726e-08
-4.47839e-08
-9.40768e-09
-4.33143e-08
-9.81807e-09
-4.28715e-08
-1.00433e-08
-4.27505e-08
-1.11025e-08
-4.26296e-08
-1.07784e-08
-4.19839e-08
-1.06718e-08
-4.09681e-08
-9.40267e-09
-3.92449e-08
-8.20234e-09
-3.6965e-08
-6.37619e-09
-3.39985e-08
-4.34076e-09
-3.06538e-08
-2.49334e-09
-2.63304e-08
-8.05326e-10
-2.15249e-08
7.2612e-11
-1.75277e-08
1.04103e-09
-1.45164e-08
1.16369e-09
-1.17559e-08
1.39541e-09
-8.98412e-09
1.38016e-09
-6.50943e-09
8.31675e-10
-4.7511e-09
6.32944e-10
-4.12491e-09
-4.83772e-11
-4.52778e-09
-1.76449e-09
-5.33217e-09
-2.91998e-09
-5.75218e-09
-4.05302e-09
-5.49369e-09
-4.20371e-09
-4.55066e-09
-3.55675e-09
-3.38378e-09
-2.73519e-09
-2.31643e-09
-1.99958e-09
-1.41171e-09
-1.63867e-09
-1.47408e-09
-1.36755e-09
-6.32628e-10
-6.39684e-10
-3.84653e-10
-2.03565e-10
-5.34745e-10
-3.3089e-10
-7.93614e-10
-5.88934e-10
-3.07912e-10
-9.30565e-11
-4.55258e-16
)
;

boundaryField
{
    inlet
    {
        type            extrapolatedCalculated;
        value           nonuniform List<scalar> 
27
(
-1.08459e-08
-3.78218e-09
-4.10528e-09
-1.90386e-09
-2.74131e-09
-7.67225e-10
-1.80075e-09
-8.43468e-11
-1.35716e-09
2.96398e-10
-9.40353e-10
4.97953e-10
-7.97462e-10
5.64793e-10
-5.77219e-10
6.88893e-10
-5.01787e-10
7.04823e-10
-5.08407e-10
6.29981e-10
-5.67575e-10
5.52761e-10
-1.32138e-10
-5.71858e-11
-4.12813e-10
-1.52108e-10
-4.55258e-16
)
;
    }
    outlet
    {
        type            extrapolatedCalculated;
        value           nonuniform List<scalar> 
78
(
-2.61461e-08
-5.42046e-08
-1.94637e-08
-5.18663e-08
-1.60408e-08
-4.95821e-08
-1.22556e-08
-4.6909e-08
-1.11726e-08
-4.47839e-08
-9.40768e-09
-4.33143e-08
-9.81807e-09
-4.28715e-08
-1.00433e-08
-4.27505e-08
-1.11025e-08
-4.26296e-08
-1.07784e-08
-4.19839e-08
-1.06718e-08
-4.09681e-08
-9.40267e-09
-3.92449e-08
-8.20234e-09
-3.6965e-08
-6.37619e-09
-3.39985e-08
-4.34076e-09
-3.06538e-08
-2.49334e-09
-2.63304e-08
-8.05326e-10
-2.15249e-08
7.2612e-11
-1.75277e-08
1.04103e-09
-1.45164e-08
1.16369e-09
-1.17559e-08
1.39541e-09
-8.98412e-09
1.38016e-09
-6.50943e-09
8.31675e-10
-4.7511e-09
6.32944e-10
-4.12491e-09
-4.83772e-11
-4.52778e-09
-1.76449e-09
-5.33217e-09
-2.91998e-09
-5.75218e-09
-4.05302e-09
-5.49369e-09
-4.20371e-09
-4.55066e-09
-3.55675e-09
-3.38378e-09
-2.73519e-09
-2.31643e-09
-1.99958e-09
-1.41171e-09
-1.63867e-09
-1.47408e-09
-1.36755e-09
-6.32628e-10
-6.39684e-10
-3.84653e-10
-2.03565e-10
-5.34745e-10
-3.3089e-10
-7.93614e-10
-5.88934e-10
-3.07912e-10
-9.30565e-11
-4.55258e-16
)
;
    }
    walls
    {
        type            extrapolatedCalculated;
        value           nonuniform List<scalar> 0();
    }
    frontAndBack
    {
        type            empty;
    }
    procBoundary7to3
    {
        type            processor;
        value           nonuniform List<scalar> 
16
(
-5.79342e-06
-2.84468e-06
-2.44762e-06
-2.31459e-06
-2.17717e-06
-1.01263e-06
-1.15568e-06
-9.65848e-07
-3.51228e-07
-3.51228e-07
-3.92316e-07
-2.02088e-07
-2.70831e-07
-1.35839e-07
-1.78892e-07
-6.62638e-08
)
;
    }
    procBoundary7to6
    {
        type            processor;
        value           nonuniform List<scalar> 
91
(
-6.15047e-09
-7.12291e-09
-7.12291e-09
-4.95901e-09
-4.95901e-09
2.05016e-09
2.05016e-09
6.38586e-09
3.3551e-09
3.3551e-09
3.16904e-09
9.81321e-09
9.81321e-09
1.15014e-08
7.86353e-09
1.83281e-08
1.83281e-08
3.74317e-08
-1.78968e-09
1.69644e-08
1.69644e-08
3.72629e-08
-3.26944e-09
-1.44746e-08
3.65701e-08
3.65701e-08
3.391e-08
-3.31617e-08
4.27962e-08
-4.58142e-08
4.93989e-08
4.93989e-08
1.28171e-08
2.36267e-08
2.06894e-08
1.50128e-08
3.34264e-08
-1.09303e-08
5.26329e-08
5.26329e-08
9.2883e-08
-1.18837e-07
7.27731e-08
-5.32312e-08
6.04458e-08
-1.99292e-08
3.97698e-08
1.74206e-10
2.3805e-08
1.2179e-08
2.05846e-08
3.57154e-09
3.57154e-09
-2.04097e-06
1.51885e-06
-1.51346e-06
1.78452e-06
-1.30036e-06
1.72877e-06
-1.11397e-06
1.54933e-06
-9.22494e-07
1.36974e-06
-7.89662e-07
1.22174e-06
-6.95017e-07
1.10051e-06
-6.19964e-07
9.6454e-07
-5.45672e-07
8.55573e-07
-4.927e-07
7.59497e-07
-4.55162e-07
6.80866e-07
-4.18666e-07
5.7289e-07
-3.75297e-07
4.89357e-07
-3.34299e-07
4.04614e-07
-2.921e-07
3.47742e-07
-2.53171e-07
2.7746e-07
-1.9812e-07
2.32388e-07
-1.56995e-07
2.76858e-07
-3.33017e-07
-3.33017e-07
)
;
    }
}


// ************************************************************************* //
