/*--------------------------------*- C++ -*----------------------------------*\
| =========                 |                                                 |
| \\      /  F ield         | OpenFOAM: The Open Source CFD Toolbox           |
|  \\    /   O peration     | Version:  2506                                  |
|   \\  /    A nd           | Website:  www.openfoam.com                      |
|    \\/     M anipulation  |                                                 |
\*---------------------------------------------------------------------------*/
FoamFile
{
    version     2.0;
    format      ascii;
    arch        "LSB;label=32;scalar=64";
    class       volScalarField;
    location    "400";
    object      magR;
}
// * * * * * * * * * * * * * * * * * * * * * * * * * * * * * * * * * * * * * //

dimensions      [0 2 -2 0 0 0 0];

internalField   nonuniform List<scalar> 
1340
(
1.08983e-06
8.27983e-07
1.10578e-06
8.03153e-07
8.01993e-07
1.10523e-06
3.34679e-07
7.92787e-07
7.84801e-07
1.10967e-06
2.99501e-07
5.49943e-07
3.3152e-07
7.84528e-07
7.70202e-07
1.11716e-06
4.26483e-07
5.00983e-07
2.90482e-07
5.39805e-07
3.28257e-07
7.77064e-07
7.58379e-07
1.12475e-06
6.01592e-07
5.28069e-07
5.28046e-07
4.09391e-07
4.8701e-07
2.81017e-07
5.29904e-07
3.2508e-07
7.70645e-07
7.49858e-07
1.13183e-06
6.95065e-07
6.52205e-07
6.00394e-07
5.75358e-07
5.04403e-07
5.084e-07
3.92038e-07
4.72894e-07
2.71247e-07
5.20461e-07
3.21976e-07
7.65425e-07
7.44459e-07
1.13829e-06
8.82132e-07
8.22033e-07
7.64424e-07
7.0974e-07
6.56312e-07
6.18095e-07
5.69605e-07
5.4876e-07
4.80519e-07
4.88456e-07
3.74536e-07
4.58703e-07
2.61239e-07
5.11394e-07
3.18964e-07
7.61124e-07
7.41464e-07
1.14509e-06
1.11613e-06
1.05177e-06
9.89564e-07
9.29662e-07
8.72152e-07
8.17069e-07
7.64496e-07
7.13717e-07
6.65479e-07
6.17404e-07
5.83736e-07
5.3857e-07
5.21799e-07
4.56414e-07
4.6821e-07
3.56878e-07
4.44386e-07
2.51022e-07
5.02522e-07
3.161e-07
7.57429e-07
7.40363e-07
1.15112e-06
1.41448e-06
1.35556e-06
1.29644e-06
1.23738e-06
1.17875e-06
1.12082e-06
1.06387e-06
1.00814e-06
9.53824e-07
9.01054e-07
8.49953e-07
8.00637e-07
7.53131e-07
7.07653e-07
6.63373e-07
6.21335e-07
5.78489e-07
5.49263e-07
5.0741e-07
4.94579e-07
4.32175e-07
4.47719e-07
3.39142e-07
4.29951e-07
2.40659e-07
4.93767e-07
3.13369e-07
7.54206e-07
7.41708e-07
1.15707e-06
1.69917e-06
1.67158e-06
1.64207e-06
1.61052e-06
1.57684e-06
1.54101e-06
1.50307e-06
1.46313e-06
1.42133e-06
1.37789e-06
1.33299e-06
1.28687e-06
1.2398e-06
1.19203e-06
1.14388e-06
1.09555e-06
1.04736e-06
9.99535e-07
9.52324e-07
9.05931e-07
8.60523e-07
8.16215e-07
7.73096e-07
7.31287e-07
6.90787e-07
6.51929e-07
6.13771e-07
5.77635e-07
5.39859e-07
5.14925e-07
4.76353e-07
4.67282e-07
4.07968e-07
4.27102e-07
3.21433e-07
4.15445e-07
2.30252e-07
4.8515e-07
3.10709e-07
7.51388e-07
7.44356e-07
1.16294e-06
3.09118e-08
1.86473e-09
0
0
4.7583e-05
9.87474e-05
0.00853966
0.108075
0.417793
0.92436
1.46506
1.8437
1.9087
1.58891
0.91741
0.0975082
0.882533
1.54751
1.75481
1.43572
0.802235
0.261674
0.036801
0.000363713
4.12596e-05
0
0
0
3.26628e-08
4.46496e-07
1.63816e-06
1.83034e-06
1.60142e-06
1.50022e-06
1.49283e-06
1.48576e-06
1.46571e-06
1.4437e-06
1.4223e-06
1.39983e-06
1.37561e-06
1.34965e-06
1.32193e-06
1.29237e-06
1.26102e-06
1.22799e-06
1.19346e-06
1.1576e-06
1.12059e-06
1.08264e-06
1.044e-06
1.00489e-06
9.6551e-07
9.26108e-07
8.86893e-07
8.48059e-07
8.09787e-07
7.7222e-07
7.35435e-07
6.99488e-07
6.645e-07
6.3042e-07
5.97687e-07
5.65247e-07
5.34678e-07
5.01771e-07
4.80951e-07
4.45608e-07
4.40086e-07
3.83933e-07
4.06457e-07
3.03885e-07
4.00873e-07
2.19881e-07
4.76498e-07
3.08209e-07
7.488e-07
7.48503e-07
1.16876e-06
9.56149e-07
4.67778e-08
2.99335e-09
0
0
7.99427e-08
0.000621178
0.00110376
0.043361
0.23703
0.637011
1.1409
1.56223
1.7325
1.55341
1.02429
0.258296
0.599094
1.27446
1.565
1.36337
0.818559
0.295634
0.0470684
0.000871239
7.25622e-05
0
0
0
1.15006e-08
1.39393e-07
1.23183e-06
1.59576e-06
1.39187e-06
1.26151e-06
1.24337e-06
1.24089e-06
1.22637e-06
1.20856e-06
1.19158e-06
1.17368e-06
1.15378e-06
1.13212e-06
1.10896e-06
1.08432e-06
1.05818e-06
1.03069e-06
1.00201e-06
9.72279e-07
9.41693e-07
9.10458e-07
8.78773e-07
8.46803e-07
8.1476e-07
7.82818e-07
7.51144e-07
7.19885e-07
6.89154e-07
6.5901e-07
6.2946e-07
6.00618e-07
5.72375e-07
5.45265e-07
5.1811e-07
4.9275e-07
4.64483e-07
4.47569e-07
4.15378e-07
4.13171e-07
3.60245e-07
3.85925e-07
2.86589e-07
3.86285e-07
2.09568e-07
4.67907e-07
3.05632e-07
7.46308e-07
7.52749e-07
1.17495e-06
9.72454e-07
8.36795e-07
8.29566e-08
4.86032e-09
0
0
0
0.000189742
0.000310572
0.0125734
0.11704
0.405546
0.847191
1.2849
1.53961
1.48669
1.09316
0.433526
0.351676
1.02342
1.38014
1.28335
0.82557
0.32692
0.0601924
0.00208294
0.000108966
0
0
0
6.86018e-10
3.46538e-09
7.41515e-07
1.28815e-06
1.19398e-06
1.06494e-06
1.04009e-06
1.04198e-06
1.03116e-06
1.01383e-06
9.9801e-07
9.83122e-07
9.66924e-07
9.48881e-07
9.2934e-07
9.08545e-07
8.86601e-07
8.63622e-07
8.39716e-07
8.15066e-07
7.8985e-07
7.6425e-07
7.38416e-07
7.12525e-07
6.86719e-07
6.61153e-07
6.35933e-07
6.11167e-07
5.86855e-07
5.63005e-07
5.39688e-07
5.16727e-07
4.94767e-07
4.72494e-07
4.5195e-07
4.28116e-07
4.14878e-07
3.85784e-07
3.86616e-07
3.37001e-07
3.65506e-07
2.69643e-07
3.71732e-07
1.99397e-07
4.58962e-07
3.02908e-07
7.44495e-07
7.57189e-07
1.18149e-06
7.51855e-07
8.34754e-07
7.59995e-07
1.83334e-07
1.00034e-08
0
0
0
6.63824e-06
1.71741e-05
0.0020427
0.0482531
0.234364
0.594584
1.0223
1.33932
1.39599
1.12696
0.573605
0.147731
0.800187
1.20622
1.19951
0.822635
0.352237
0.0733352
0.0036687
0.000150567
0
0
0
4.48777e-12
3.64969e-08
5.0444e-07
1.0315e-06
1.02384e-06
8.90363e-07
8.50256e-07
8.60807e-07
8.64789e-07
8.53949e-07
8.38774e-07
8.24467e-07
8.10335e-07
7.95096e-07
7.78463e-07
7.60716e-07
7.42106e-07
7.22735e-07
7.02758e-07
6.82318e-07
6.61605e-07
6.40741e-07
6.19878e-07
5.9917e-07
5.78716e-07
5.58624e-07
5.38949e-07
5.1971e-07
5.00858e-07
4.82426e-07
4.642e-07
4.46863e-07
4.29043e-07
4.129e-07
3.93177e-07
3.83394e-07
3.57237e-07
3.60871e-07
3.14426e-07
3.45625e-07
2.53033e-07
3.57487e-07
1.88692e-07
4.5062e-07
2.99147e-07
7.42646e-07
7.62371e-07
1.19053e-06
6.57345e-07
6.53672e-07
7.3346e-07
6.69413e-07
3.15341e-07
1.68634e-08
3.56102e-12
0
0
2.33901e-09
0.000265941
0.000300353
0.0144058
0.114093
0.373817
0.758995
1.119
1.28296
1.14561
0.708105
0.0967863
0.576878
1.02985
1.11546
0.824796
0.387004
0.0928908
0.00609098
0.000137934
1.34817e-05
0
0
0
2.16896e-08
2.61473e-07
7.78886e-07
9.40707e-07
8.3022e-07
7.29704e-07
7.03191e-07
7.06606e-07
7.06104e-07
6.9675e-07
6.84073e-07
6.71267e-07
6.58221e-07
6.4437e-07
6.29611e-07
6.14171e-07
5.98292e-07
5.82032e-07
5.65599e-07
5.49113e-07
5.32691e-07
5.16492e-07
5.00581e-07
4.85077e-07
4.69958e-07
4.55299e-07
4.40991e-07
4.27021e-07
4.13185e-07
4.00117e-07
3.86431e-07
3.74457e-07
3.58655e-07
3.52135e-07
3.29011e-07
3.35082e-07
2.92215e-07
3.25328e-07
2.37183e-07
3.42372e-07
1.79451e-07
4.40851e-07
2.96406e-07
7.3958e-07
7.67055e-07
1.19619e-06
5.79121e-07
5.61605e-07
5.73366e-07
5.91887e-07
5.68209e-07
4.39707e-07
7.10776e-08
4.09299e-09
2.03732e-13
0
0
3.15123e-05
9.59752e-05
0.00137257
0.0280785
0.140247
0.382108
0.706433
0.977672
1.05023
0.847661
0.40158
0.17567
0.668786
0.915665
0.821548
0.49534
0.181723
0.0339495
0.0011729
0.000123651
2.55557e-06
0
0
2.64873e-10
1.3111e-08
1.2597e-07
4.90172e-07
6.76009e-07
6.47463e-07
5.81875e-07
5.55181e-07
5.53005e-07
5.51556e-07
5.44272e-07
5.34077e-07
5.23523e-07
5.12758e-07
5.01518e-07
4.89837e-07
4.778e-07
4.65681e-07
4.53602e-07
4.4168e-07
4.29992e-07
4.18646e-07
4.07752e-07
3.97271e-07
3.8727e-07
3.77595e-07
3.68252e-07
3.58964e-07
3.50361e-07
3.41041e-07
3.33346e-07
3.21954e-07
3.18585e-07
2.99302e-07
3.07128e-07
2.69561e-07
3.02468e-07
2.22628e-07
3.22838e-07
1.72456e-07
4.20251e-07
2.82434e-07
7.06321e-07
7.28654e-07
1.11108e-06
4.89925e-07
4.80878e-07
4.83295e-07
4.78081e-07
4.74577e-07
4.98641e-07
4.45765e-07
2.85574e-07
4.90655e-09
3.47099e-10
0
0
2.91314e-08
1.23433e-05
0.000381169
0.000968323
0.0211347
0.108716
0.304541
0.576001
0.806851
0.86246
0.672213
0.270393
0.220409
0.611625
0.752603
0.60904
0.328207
0.106905
0.0169199
0.000282459
6.03963e-05
2.61413e-07
0
0
9.29443e-11
9.84594e-09
1.10163e-07
3.86745e-07
5.08041e-07
4.77244e-07
4.31332e-07
4.16539e-07
4.16123e-07
4.1358e-07
4.0681e-07
3.98708e-07
3.90671e-07
3.82554e-07
3.74228e-07
3.65901e-07
3.57679e-07
3.4977e-07
3.42228e-07
3.35157e-07
3.2865e-07
3.22661e-07
3.1727e-07
3.12242e-07
3.07606e-07
3.02994e-07
2.98991e-07
2.94231e-07
2.9093e-07
2.84077e-07
2.84071e-07
2.68741e-07
2.78628e-07
2.46022e-07
2.79926e-07
2.06719e-07
3.05969e-07
1.64917e-07
4.09181e-07
2.83169e-07
7.03306e-07
7.45453e-07
1.12026e-06
4.06999e-07
4.01465e-07
4.06957e-07
4.02938e-07
3.93139e-07
3.90404e-07
4.01831e-07
4.14716e-07
3.34527e-07
1.17222e-07
6.2696e-09
1.26637e-12
0
0
0
1.18812e-05
0.00035715
0.000656213
0.0175887
0.0936595
0.265615
0.502826
0.696033
0.720451
0.518552
0.140023
0.283015
0.570056
0.609694
0.433336
0.201647
0.0538467
0.00554228
1.79001e-05
2.38847e-05
0
0
0
9.1383e-11
1.21709e-08
1.49745e-07
3.31142e-07
3.68029e-07
3.32362e-07
3.08648e-07
3.04554e-07
3.0399e-07
3.0008e-07
2.94217e-07
2.88228e-07
2.82546e-07
2.77061e-07
2.71803e-07
2.67047e-07
2.62853e-07
2.59331e-07
2.56551e-07
2.54488e-07
2.53145e-07
2.5229e-07
2.51913e-07
2.51561e-07
2.51738e-07
2.51107e-07
2.51771e-07
2.48937e-07
2.52014e-07
2.40299e-07
2.52141e-07
2.2389e-07
2.59072e-07
1.91283e-07
2.90968e-07
1.56118e-07
4.00555e-07
2.81295e-07
7.04489e-07
7.57811e-07
1.12836e-06
3.29674e-07
3.35956e-07
3.34503e-07
3.28581e-07
3.22283e-07
3.18935e-07
3.22286e-07
3.41038e-07
3.26483e-07
2.33156e-07
2.60079e-08
1.68152e-09
0
0
0
0
1.05373e-05
0.000340686
0.000667256
0.0170874
0.0889808
0.24741
0.457161
0.610248
0.593392
0.37033
0.0253328
0.33354
0.514633
0.472443
0.287924
0.10944
0.0220068
0.001038
7.61595e-05
1.83348e-06
0
0
0
3.20696e-09
3.21811e-08
1.8098e-07
2.58666e-07
2.48761e-07
2.24289e-07
2.15822e-07
2.14866e-07
2.1287e-07
2.09053e-07
2.05121e-07
2.01704e-07
1.98815e-07
1.96646e-07
1.95244e-07
1.94723e-07
1.95141e-07
1.9645e-07
1.98594e-07
2.01304e-07
2.04547e-07
2.07795e-07
2.11475e-07
2.14251e-07
2.18126e-07
2.18542e-07
2.24054e-07
2.15495e-07
2.28803e-07
2.04471e-07
2.40462e-07
1.777e-07
2.77621e-07
1.48254e-07
3.93542e-07
2.78674e-07
7.07491e-07
7.64439e-07
1.1358e-06
2.66514e-07
2.72931e-07
2.72359e-07
2.68946e-07
2.6585e-07
2.62177e-07
2.58893e-07
2.59346e-07
2.6721e-07
2.81467e-07
2.48236e-07
1.09722e-07
6.17065e-09
1.29261e-12
0
0
0
0
1.12203e-05
0.00033795
0.000964433
0.0189992
0.0920755
0.243333
0.427644
0.535951
0.471277
0.227535
0.101692
0.361716
0.443325
0.342108
0.170874
0.0492077
0.00589215
5.93837e-05
3.97619e-05
0
0
0
3.1762e-11
6.39919e-09
7.02223e-08
1.52866e-07
1.66521e-07
1.51181e-07
1.41758e-07
1.40215e-07
1.39664e-07
1.38148e-07
1.36656e-07
1.35941e-07
1.36245e-07
1.37558e-07
1.39951e-07
1.43463e-07
1.47959e-07
1.53335e-07
1.59253e-07
1.65637e-07
1.71948e-07
1.78527e-07
1.84063e-07
1.90429e-07
1.93368e-07
2.00634e-07
1.94801e-07
2.09051e-07
1.88291e-07
2.24469e-07
1.66675e-07
2.6609e-07
1.42428e-07
3.87798e-07
2.76002e-07
7.11992e-07
7.65381e-07
1.14444e-06
2.12294e-07
2.17956e-07
2.17916e-07
2.157e-07
2.13837e-07
2.11639e-07
2.10122e-07
2.07397e-07
2.05618e-07
2.07894e-07
2.2129e-07
2.20228e-07
1.67346e-07
2.19216e-08
1.57833e-09
2.14068e-14
0
0
0
0
2.40013e-05
2.16871e-05
0.00166394
0.0234722
0.102196
0.24939
0.405624
0.462517
0.348345
0.0926604
0.190591
0.361308
0.354643
0.222317
0.0851292
0.0166872
0.000662064
6.88827e-05
0
0
0
0
2.52264e-09
2.38977e-08
7.54611e-08
9.66165e-08
9.01199e-08
8.15019e-08
7.89069e-08
7.91473e-08
8.00202e-08
8.16664e-08
8.46972e-08
8.91951e-08
9.49668e-08
1.01818e-07
1.09536e-07
1.17919e-07
1.26644e-07
1.35579e-07
1.44272e-07
1.53006e-07
1.60541e-07
1.68581e-07
1.73239e-07
1.81466e-07
1.77764e-07
1.92426e-07
1.74783e-07
2.10591e-07
1.57409e-07
2.55809e-07
1.37541e-07
3.82862e-07
2.726e-07
7.16843e-07
7.58648e-07
1.15539e-06
1.78934e-07
1.83124e-07
1.83824e-07
1.82149e-07
1.80489e-07
1.79239e-07
1.78551e-07
1.77024e-07
1.75322e-07
1.73093e-07
1.73722e-07
1.78301e-07
1.91073e-07
1.66473e-07
1.00154e-07
2.84468e-10
4.59855e-11
0
0
0
0
7.72459e-09
7.21651e-05
9.01714e-05
0.00321762
0.0318456
0.119679
0.261831
0.382663
0.381492
0.221747
0.0344006
0.249747
0.326709
0.253193
0.122261
0.0323758
0.00316748
5.37467e-06
3.2519e-06
0
0
0
3.80223e-10
1.37542e-09
1.26837e-08
1.95259e-08
2.38631e-08
2.45213e-08
2.58811e-08
3.07078e-08
3.78681e-08
4.60948e-08
5.51343e-08
6.49072e-08
7.51915e-08
8.57362e-08
9.64119e-08
1.06997e-07
1.17481e-07
1.27525e-07
1.37451e-07
1.4611e-07
1.5494e-07
1.60568e-07
1.69028e-07
1.66948e-07
1.81413e-07
1.66699e-07
2.01269e-07
1.52955e-07
2.48927e-07
1.36674e-07
3.80192e-07
2.68513e-07
7.22915e-07
7.37711e-07
1.17835e-06
1.46202e-07
1.50594e-07
1.51026e-07
1.49476e-07
1.48069e-07
1.47748e-07
1.47964e-07
1.46147e-07
1.45739e-07
1.4514e-07
1.43472e-07
1.42545e-07
1.45615e-07
1.52092e-07
1.56682e-07
1.20375e-07
4.36289e-08
3.62498e-09
2.70394e-12
0
0
0
0
3.68732e-07
9.81975e-05
4.15339e-05
0.00620929
0.0454879
0.143851
0.274422
0.34799
0.283954
0.090411
0.135258
0.269945
0.257768
0.150098
0.0498436
0.00730531
0.000101065
4.50382e-05
0
0
0
8.26139e-12
1.77619e-09
9.48028e-09
4.37535e-08
3.58399e-08
2.56353e-08
2.77458e-08
3.56892e-08
4.51544e-08
5.45663e-08
6.38745e-08
7.33782e-08
8.30324e-08
9.27534e-08
1.02313e-07
1.11752e-07
1.20825e-07
1.29829e-07
1.37778e-07
1.45747e-07
1.50785e-07
1.58058e-07
1.56189e-07
1.69547e-07
1.56378e-07
1.89452e-07
1.43668e-07
2.38425e-07
1.28221e-07
3.73126e-07
2.58108e-07
7.21905e-07
6.99228e-07
1.21597e-06
1.5807e-07
1.60321e-07
1.60139e-07
1.58429e-07
1.56805e-07
1.55704e-07
1.55055e-07
1.53343e-07
1.5221e-07
1.50892e-07
1.48841e-07
1.47031e-07
1.45666e-07
1.45312e-07
1.4739e-07
1.54071e-07
1.41966e-07
1.01229e-07
2.71865e-08
2.76351e-09
3.2607e-12
0
0
0
0
1.05915e-06
0.000191001
0.000441802
0.0128175
0.0675284
0.178427
0.29415
0.317549
0.19616
0.0323365
0.208296
0.262144
0.186041
0.0760764
0.0130759
0.000184666
8.09439e-05
3.72184e-05
7.50135e-06
2.16392e-07
0
2.5889e-11
2.54167e-09
5.02094e-08
1.01961e-07
9.46131e-08
8.22961e-08
8.02884e-08
8.44507e-08
9.04226e-08
9.68861e-08
1.03779e-07
1.111e-07
1.18644e-07
1.26303e-07
1.33899e-07
1.41596e-07
1.4861e-07
1.55563e-07
1.60006e-07
1.66184e-07
1.64919e-07
1.76653e-07
1.65775e-07
1.95605e-07
1.54458e-07
2.4389e-07
1.36644e-07
3.80319e-07
2.44935e-07
7.35681e-07
6.34876e-07
1.34701e-06
1.35582e-07
1.36484e-07
1.36827e-07
1.37354e-07
1.37701e-07
1.38056e-07
1.3875e-07
1.39589e-07
1.40294e-07
1.40693e-07
1.41079e-07
1.41778e-07
1.42391e-07
1.43043e-07
1.4361e-07
1.46801e-07
1.52438e-07
1.56515e-07
1.42855e-07
1.07683e-07
2.7675e-08
2.46141e-09
0
0
0
0
0
6.88605e-06
0.000161643
0.000572782
0.0109332
0.051347
0.126559
0.198345
0.203543
0.113257
0.0328512
0.14555
0.167264
0.112584
0.0475985
0.0123007
0.00162983
3.268e-05
2.81709e-05
4.7508e-06
0
0
2.02357e-09
3.10981e-08
9.30069e-08
1.19698e-07
1.20392e-07
1.17957e-07
1.18178e-07
1.20015e-07
1.22376e-07
1.24965e-07
1.27714e-07
1.30563e-07
1.33437e-07
1.36507e-07
1.39289e-07
1.42238e-07
1.43032e-07
1.44846e-07
1.40727e-07
1.48799e-07
1.36522e-07
1.63347e-07
1.198e-07
2.08358e-07
9.15651e-08
3.39211e-07
2.02917e-07
6.69209e-07
6.33694e-07
1.32948e-06
)
;

boundaryField
{
    inlet
    {
        type            calculated;
        value           nonuniform List<scalar> 
27
(
7.07657e-06
7.08593e-06
7.10284e-06
7.12549e-06
7.1497e-06
7.17476e-06
7.20138e-06
7.22938e-06
7.25862e-06
7.28804e-06
7.31749e-06
7.34642e-06
7.37426e-06
7.40035e-06
7.42396e-06
7.4444e-06
7.46182e-06
7.42613e-06
7.4307e-06
7.42875e-06
7.41655e-06
7.39287e-06
7.35452e-06
7.30002e-06
7.22154e-06
7.14426e-06
6.98519e-06
)
;
    }
    outlet
    {
        type            calculated;
        value           nonuniform List<scalar> 
78
(
1.0997e-07
1.11237e-07
1.11844e-07
1.12675e-07
1.13301e-07
1.13936e-07
1.14991e-07
1.16219e-07
1.17288e-07
1.17998e-07
1.18694e-07
1.19755e-07
1.20779e-07
1.21852e-07
1.22807e-07
1.25924e-07
1.30929e-07
1.34203e-07
1.22385e-07
9.3266e-08
2.48552e-08
2.31154e-09
0
0
0
0
0
6.91809e-06
0.000161226
0.000538468
0.0108273
0.0511411
0.126362
0.198431
0.204191
0.114452
0.0306627
0.143994
0.166337
0.112248
0.0475667
0.0123355
0.00165057
2.10408e-05
2.68562e-05
4.51677e-06
0
0
1.76965e-09
2.76888e-08
8.3567e-08
1.07744e-07
1.08205e-07
1.05665e-07
1.05326e-07
1.06242e-07
1.07448e-07
1.08717e-07
1.10008e-07
1.11316e-07
1.12588e-07
1.14097e-07
1.15286e-07
1.16924e-07
1.16139e-07
1.17363e-07
1.11196e-07
1.21139e-07
1.04063e-07
1.38705e-07
8.01897e-08
1.9075e-07
2.4517e-08
3.26186e-07
1.81791e-07
6.46165e-07
6.3501e-07
1.25704e-06
)
;
    }
    walls
    {
        type            calculated;
        value           nonuniform List<scalar> 0();
    }
    frontAndBack
    {
        type            empty;
    }
    procBoundary7to3
    {
        type            processor;
        value           nonuniform List<scalar> 
16
(
1.36454e-06
1.3888e-06
1.05355e-06
8.98671e-07
7.95973e-07
6.81339e-07
5.59346e-07
4.56702e-07
3.32956e-07
3.32956e-07
2.68571e-07
2.14171e-07
1.80751e-07
1.46579e-07
1.61135e-07
1.3355e-07
)
;
    }
    procBoundary7to6
    {
        type            processor;
        value           nonuniform List<scalar> 
91
(
1.0862e-06
8.55407e-07
8.55407e-07
8.19182e-07
8.19182e-07
3.37419e-07
3.37419e-07
3.07944e-07
5.60094e-07
5.60094e-07
4.42974e-07
5.14565e-07
5.14565e-07
6.27293e-07
5.51362e-07
5.47285e-07
5.47285e-07
7.33652e-07
6.86063e-07
6.30935e-07
6.30935e-07
9.48038e-07
8.80014e-07
8.1528e-07
7.53936e-07
7.53936e-07
1.22938e-06
1.15382e-06
1.0812e-06
1.01169e-06
9.45328e-07
9.45328e-07
1.60801e-06
1.53548e-06
1.46315e-06
1.39132e-06
1.32038e-06
1.25068e-06
1.1825e-06
1.1825e-06
2.00089e-06
1.96436e-06
1.92552e-06
1.88421e-06
1.84037e-06
1.79405e-06
1.74534e-06
1.69436e-06
1.64135e-06
1.58661e-06
1.53033e-06
1.47283e-06
1.47283e-06
2.43841e-12
0
0
0.000413095
0.000367794
0.0321764
0.222636
0.663273
1.26104
1.81354
2.12688
2.06809
1.59349
0.772291
0.267543
1.20531
1.84555
1.95113
1.50122
0.778422
0.22601
0.0255188
0.000383557
4.95923e-05
0
0
0
5.79368e-08
8.28264e-07
2.09499e-06
2.1481e-06
1.89786e-06
1.80846e-06
1.79742e-06
1.77997e-06
1.75258e-06
1.72549e-06
1.72549e-06
)
;
    }
}


// ************************************************************************* //
