/*--------------------------------*- C++ -*----------------------------------*\
| =========                 |                                                 |
| \\      /  F ield         | OpenFOAM: The Open Source CFD Toolbox           |
|  \\    /   O peration     | Version:  2506                                  |
|   \\  /    A nd           | Website:  www.openfoam.com                      |
|    \\/     M anipulation  |                                                 |
\*---------------------------------------------------------------------------*/
FoamFile
{
    version     2.0;
    format      ascii;
    arch        "LSB;label=32;scalar=64";
    class       volVectorField;
    location    "400";
    object      momentError;
}
// * * * * * * * * * * * * * * * * * * * * * * * * * * * * * * * * * * * * * //

dimensions      [0 1 -2 0 0 0 0];

internalField   nonuniform List<vector> 
1340
(
(1.31717e-07 1.93473e-07 -7.39657e-16)
(-6.59179e-09 8.48756e-07 -1.09302e-16)
(2.07656e-07 6.42977e-07 -7.61661e-16)
(1.755e-07 5.56445e-07 3.80755e-15)
(1.09122e-07 8.03922e-07 -5.74727e-17)
(2.45383e-07 6.48598e-07 1.2243e-15)
(1.74337e-07 7.19158e-07 -8.40293e-16)
(2.85025e-07 5.87979e-07 3.98103e-15)
(1.6763e-07 8.59335e-07 3.27876e-16)
(2.67864e-07 6.74486e-07 -1.89475e-15)
(1.35657e-07 8.45463e-07 -1.92695e-15)
(1.97097e-07 7.06103e-07 -1.60868e-15)
(2.38032e-07 7.49898e-07 -1.14751e-15)
(3.24127e-07 6.26229e-07 -1.40694e-15)
(1.90096e-07 8.51939e-07 -3.27565e-16)
(2.82713e-07 6.79656e-07 -1.06214e-15)
(1.59558e-07 1.06918e-06 -6.14261e-16)
(1.76273e-07 9.01038e-07 4.86056e-17)
(1.9145e-07 8.62697e-07 -4.69373e-15)
(2.49147e-07 7.39936e-07 -2.57507e-15)
(2.67822e-07 7.88978e-07 1.25473e-15)
(3.2006e-07 6.39057e-07 -1.57594e-15)
(2.0665e-07 8.49974e-07 -8.49844e-16)
(2.88463e-07 6.72666e-07 2.66118e-15)
(3.53501e-07 1.6877e-06 -3.26934e-15)
(2.85721e-07 1.50618e-06 -4.23869e-15)
(2.21415e-07 1.28496e-06 -2.67334e-15)
(1.99795e-07 1.07164e-06 -6.48516e-18)
(2.48505e-07 9.12713e-07 -1.54765e-16)
(2.39634e-07 8.93314e-07 1.87987e-15)
(2.76469e-07 7.57609e-07 8.19428e-16)
(2.70898e-07 7.9935e-07 -2.12804e-16)
(3.19878e-07 6.49847e-07 7.75833e-16)
(2.10172e-07 8.36583e-07 5.70463e-17)
(2.91657e-07 6.56717e-07 -6.44681e-16)
(8.24335e-07 2.11228e-06 -8.1536e-16)
(6.91155e-07 1.87716e-06 1.2372e-15)
(5.58114e-07 1.73329e-06 3.37324e-16)
(4.56609e-07 1.59612e-06 -3.97563e-16)
(3.66221e-07 1.45279e-06 -1.53644e-15)
(3.00824e-07 1.24929e-06 -2.7043e-15)
(2.60006e-07 1.09184e-06 -5.42602e-16)
(3.02791e-07 9.21876e-07 1.41886e-16)
(2.64619e-07 8.79181e-07 1.94723e-15)
(2.84613e-07 7.67161e-07 4.49703e-16)
(2.79493e-07 8.06632e-07 -1.01405e-15)
(3.12291e-07 6.5062e-07 1.32279e-15)
(2.08543e-07 8.18951e-07 5.05548e-16)
(2.91864e-07 6.3379e-07 8.89293e-16)
(2.31417e-06 2.55059e-06 -1.04905e-15)
(1.91318e-06 2.40783e-06 2.93815e-16)
(1.56724e-06 2.28574e-06 1.17441e-16)
(1.22748e-06 2.11432e-06 -1.09925e-16)
(9.74013e-07 1.92874e-06 -4.53046e-16)
(8.06443e-07 1.75168e-06 2.17501e-15)
(6.78994e-07 1.61743e-06 2.67527e-16)
(5.81022e-07 1.51762e-06 9.03924e-16)
(4.73245e-07 1.38044e-06 -1.61445e-16)
(3.96568e-07 1.2015e-06 1.19922e-15)
(3.46651e-07 1.0548e-06 5.01641e-16)
(3.2766e-07 9.14103e-07 -1.66791e-16)
(3.01344e-07 8.71709e-07 -1.35731e-15)
(3.0531e-07 7.60165e-07 -3.62281e-16)
(2.86107e-07 8.02198e-07 5.21657e-16)
(3.05398e-07 6.44512e-07 -8.03848e-16)
(2.04681e-07 7.94651e-07 1.34951e-16)
(2.89638e-07 6.07035e-07 2.69293e-16)
(5.39735e-06 1.80654e-06 -9.97597e-16)
(4.82508e-06 1.89089e-06 -1.9676e-16)
(4.15773e-06 1.99322e-06 1.45624e-16)
(3.62602e-06 2.08443e-06 1.4402e-15)
(3.0134e-06 2.0888e-06 -1.28859e-16)
(2.53469e-06 2.06163e-06 -8.38459e-16)
(2.09329e-06 2.06785e-06 1.59348e-15)
(1.72184e-06 1.95156e-06 5.3019e-16)
(1.39836e-06 1.8655e-06 1.06273e-16)
(1.14451e-06 1.74086e-06 3.03781e-16)
(9.41739e-07 1.58939e-06 -4.8514e-16)
(8.22441e-07 1.49718e-06 -6.72407e-17)
(6.94812e-07 1.39637e-06 -1.90688e-15)
(5.79283e-07 1.2862e-06 -2.87815e-16)
(4.87759e-07 1.13751e-06 2.21564e-16)
(4.20587e-07 1.01967e-06 -4.57903e-16)
(3.80534e-07 8.82792e-07 6.3618e-17)
(3.38994e-07 8.45284e-07 -4.45173e-16)
(3.27279e-07 7.47475e-07 -1.88453e-16)
(2.95356e-07 7.89449e-07 2.82909e-17)
(3.0007e-07 6.30417e-07 -1.03146e-15)
(2.00574e-07 7.67272e-07 -1.56653e-16)
(2.85871e-07 5.76682e-07 -1.50211e-15)
(9.10708e-06 -6.18245e-07 1.20365e-16)
(8.60297e-06 -2.37555e-07 -2.11517e-16)
(8.07315e-06 9.70383e-08 5.66126e-17)
(7.52772e-06 3.87631e-07 -1.62223e-16)
(6.95541e-06 6.12933e-07 -6.50221e-16)
(6.40856e-06 8.40009e-07 2.20255e-16)
(5.82414e-06 9.74975e-07 1.53082e-16)
(5.27327e-06 1.11399e-06 -1.10365e-15)
(4.70786e-06 1.23408e-06 -2.67569e-16)
(4.18945e-06 1.37643e-06 -3.24913e-16)
(3.64844e-06 1.50833e-06 -4.48933e-16)
(3.13658e-06 1.55665e-06 -4.23388e-17)
(2.70103e-06 1.63528e-06 1.17026e-15)
(2.25794e-06 1.63439e-06 6.60848e-16)
(1.87332e-06 1.65822e-06 -2.06315e-16)
(1.56486e-06 1.5988e-06 2.76166e-16)
(1.27428e-06 1.50991e-06 2.987e-17)
(1.08979e-06 1.41781e-06 -8.30264e-17)
(9.43162e-07 1.34929e-06 -3.35765e-17)
(8.10041e-07 1.27377e-06 1.08008e-15)
(6.79788e-07 1.1854e-06 1.17892e-15)
(5.76327e-07 1.05862e-06 4.41835e-17)
(4.93658e-07 9.5716e-07 4.83613e-16)
(4.32856e-07 8.44444e-07 -7.66153e-17)
(3.7956e-07 8.16071e-07 9.6066e-16)
(3.50956e-07 7.21083e-07 6.3403e-16)
(3.07306e-07 7.67193e-07 1.15783e-16)
(2.96435e-07 6.10744e-07 2.16754e-16)
(1.96946e-07 7.34647e-07 1.02914e-15)
(2.80916e-07 5.44738e-07 4.72829e-16)
(1.00194e-05 -2.10679e-06 -1.74742e-17)
(1.0013e-05 -2.43286e-06 -1.88844e-18)
(9.99186e-06 -2.58389e-06 -2.15002e-18)
(9.97177e-06 -2.68317e-06 1.58883e-17)
(9.92339e-06 -2.70151e-06 2.53872e-17)
(9.8548e-06 -2.67997e-06 1.17441e-16)
(9.75264e-06 -2.55065e-06 2.50312e-17)
(9.61187e-06 -2.38959e-06 4.81473e-17)
(9.43069e-06 -2.1651e-06 5.10595e-18)
(9.19699e-06 -1.92972e-06 -2.0181e-16)
(8.9244e-06 -1.66001e-06 -7.92426e-17)
(8.59613e-06 -1.35959e-06 -2.45068e-16)
(8.23028e-06 -1.04299e-06 -2.0037e-16)
(7.81836e-06 -7.44634e-07 -3.52505e-16)
(7.38455e-06 -4.51098e-07 1.5284e-16)
(6.92606e-06 -2.17132e-07 -3.58808e-16)
(6.45414e-06 2.76187e-08 -4.20548e-17)
(5.98937e-06 2.11738e-07 4.86958e-16)
(5.48786e-06 3.80608e-07 -1.47105e-16)
(5.04764e-06 5.35675e-07 6.30355e-16)
(4.55275e-06 7.01776e-07 -9.12735e-17)
(4.13653e-06 8.34148e-07 -2.34207e-17)
(3.64107e-06 9.76225e-07 1.39111e-16)
(3.23346e-06 1.09722e-06 8.24772e-17)
(2.79762e-06 1.1737e-06 -4.60898e-16)
(2.40102e-06 1.25643e-06 -7.79483e-16)
(2.03994e-06 1.28924e-06 1.73671e-16)
(1.7038e-06 1.31598e-06 -5.15296e-16)
(1.43133e-06 1.28825e-06 -1.4876e-16)
(1.22548e-06 1.2273e-06 3.54877e-17)
(1.06549e-06 1.19027e-06 3.79419e-17)
(9.11728e-07 1.12912e-06 8.91022e-16)
(7.72127e-07 1.06611e-06 -3.64322e-16)
(6.56905e-07 9.73159e-07 5.19836e-16)
(5.61905e-07 8.96336e-07 -6.75759e-16)
(4.84548e-07 7.90001e-07 2.24065e-16)
(4.1842e-07 7.71111e-07 -6.80927e-16)
(3.75508e-07 6.9173e-07 1.04839e-15)
(3.18855e-07 7.38749e-07 9.3849e-16)
(2.94236e-07 5.84399e-07 -1.81503e-17)
(1.937e-07 7.00901e-07 -1.36185e-16)
(2.75228e-07 5.11272e-07 8.39006e-17)
(-6.34455e-05 2.54015e-05 -1.75118e-17)
(-4.99239e-05 2.35279e-05 1.36805e-17)
(-5.30713e-05 1.56425e-05 -3.8336e-17)
(-3.52783e-05 1.64964e-05 -5.97111e-18)
(-5.01285e-05 1.22216e-05 2.98056e-17)
(-4.22566e-05 1.43423e-05 -1.7961e-17)
(-4.57887e-05 1.33611e-05 -4.1722e-17)
(-4.03474e-05 1.43112e-05 1.16901e-17)
(-3.44618e-05 1.59616e-05 1.54007e-17)
(-2.4713e-05 1.83861e-05 -4.60344e-17)
(-1.04102e-05 2.12529e-05 -3.38493e-17)
(4.88467e-06 2.35041e-05 -6.72014e-18)
(1.69523e-05 2.48428e-05 -1.59031e-17)
(2.08961e-05 2.47992e-05 4.95176e-17)
(1.39628e-05 2.32026e-05 5.15925e-17)
(-3.29974e-06 2.014e-05 -8.08658e-17)
(-2.64641e-05 1.58934e-05 -1.41939e-16)
(-4.74719e-05 1.14356e-05 -2.56447e-17)
(-5.06858e-05 9.85709e-06 3.23808e-17)
(-9.62988e-06 1.81155e-05 -2.36325e-17)
(-0.000106843 -7.07009e-06 2.10303e-17)
(-0.000681554 -0.000126096 -4.93305e-17)
(0.000546043 6.02266e-05 1.2089e-16)
(0.000206188 5.74401e-05 -9.93694e-17)
(-2.50287e-05 1.53283e-06 -1.44351e-16)
(2.8674e-05 9.42552e-06 -1.32827e-17)
(2.17755e-05 8.19144e-06 -1.71482e-18)
(1.60463e-05 6.91263e-06 -8.08814e-17)
(1.50758e-05 5.92843e-06 -8.39648e-18)
(1.40737e-05 4.80113e-06 -3.13483e-17)
(1.32403e-05 3.7515e-06 1.78902e-17)
(1.24818e-05 2.88042e-06 1.37517e-16)
(1.18785e-05 2.08735e-06 1.38783e-17)
(1.12754e-05 1.40194e-06 6.30483e-17)
(1.08405e-05 7.29985e-07 -3.02505e-17)
(1.04053e-05 6.92647e-08 1.26828e-17)
(1.01434e-05 -3.81197e-07 2.63351e-17)
(9.80902e-06 -8.12419e-07 1.45763e-17)
(9.5962e-06 -1.3178e-06 -1.31174e-18)
(9.35693e-06 -1.58965e-06 4.07331e-21)
(9.19827e-06 -1.82839e-06 4.25101e-17)
(8.99753e-06 -1.96756e-06 2.75558e-17)
(8.85947e-06 -2.05484e-06 6.34737e-17)
(8.67121e-06 -2.05469e-06 2.434e-17)
(8.51007e-06 -2.02404e-06 6.31956e-17)
(8.29573e-06 -1.94226e-06 -9.2132e-17)
(8.08872e-06 -1.83571e-06 -3.2574e-16)
(7.8349e-06 -1.68266e-06 2.58571e-16)
(7.57513e-06 -1.50758e-06 -3.07485e-17)
(7.26489e-06 -1.28415e-06 1.1098e-16)
(6.94241e-06 -1.06543e-06 1.04518e-16)
(6.59297e-06 -8.35847e-07 5.71913e-17)
(6.22483e-06 -6.18192e-07 1.23006e-16)
(5.86454e-06 -4.15935e-07 3.44976e-17)
(5.46967e-06 -2.2595e-07 -1.65827e-16)
(5.11405e-06 -6.7487e-08 -9.43896e-17)
(4.72424e-06 9.33792e-08 2.33115e-16)
(4.36614e-06 2.33443e-07 2.15779e-17)
(3.97237e-06 3.99589e-07 2.08551e-16)
(3.61818e-06 5.38002e-07 -5.03743e-17)
(3.2277e-06 6.68601e-07 -2.16211e-16)
(2.86507e-06 7.76053e-07 -6.23663e-16)
(2.5119e-06 8.64709e-07 -5.69436e-16)
(2.17666e-06 9.70012e-07 4.37396e-16)
(1.87155e-06 1.01469e-06 -3.18392e-16)
(1.57349e-06 1.03197e-06 1.54528e-16)
(1.35968e-06 1.0129e-06 -2.87183e-16)
(1.18124e-06 1.00005e-06 -2.06871e-16)
(1.01695e-06 9.72374e-07 -5.60391e-16)
(8.68834e-07 9.42044e-07 -5.06373e-16)
(7.36036e-07 8.72722e-07 -9.13025e-16)
(6.2414e-07 8.12906e-07 4.07666e-16)
(5.33286e-07 7.32522e-07 -2.69268e-16)
(4.53507e-07 7.26812e-07 7.43569e-16)
(3.96907e-07 6.50342e-07 2.62325e-16)
(3.29512e-07 7.02582e-07 -5.61149e-17)
(2.93469e-07 5.54382e-07 1.63643e-16)
(1.90798e-07 6.62988e-07 -2.7821e-16)
(2.69446e-07 4.77472e-07 -1.26746e-16)
(-6.5045e-05 2.87182e-05 1.54712e-17)
(-5.98972e-05 2.39648e-05 -1.68929e-17)
(-4.23313e-05 1.4444e-05 -3.54642e-17)
(-3.76534e-05 1.32204e-05 3.16294e-18)
(-3.57453e-05 1.22528e-05 1.77772e-17)
(-3.5879e-05 1.19891e-05 -6.07651e-18)
(-3.63962e-05 1.15594e-05 -4.20713e-18)
(-3.68076e-05 1.095e-05 -8.26945e-18)
(-3.97908e-05 1.02211e-05 -3.4319e-18)
(-4.15878e-05 1.06848e-05 -1.66271e-17)
(-3.45393e-05 1.33225e-05 -2.3311e-17)
(-2.93844e-05 1.45668e-05 1.39832e-17)
(-1.63487e-05 1.71463e-05 -8.29144e-18)
(-3.84539e-06 1.86388e-05 -4.66658e-18)
(6.1518e-06 1.95397e-05 1.17082e-17)
(9.34011e-06 1.93175e-05 -4.29158e-17)
(4.40655e-06 1.79128e-05 2.08438e-17)
(-7.35585e-06 1.5487e-05 3.46139e-17)
(-2.329e-05 1.24673e-05 -4.05529e-17)
(-5.11237e-05 4.49907e-06 -4.1698e-17)
(-0.000122579 -2.489e-05 -4.42469e-17)
(0.000222401 2.91022e-05 6.10869e-18)
(6.96569e-06 5.82314e-05 3.62923e-17)
(-8.244e-05 -1.69959e-06 -5.43781e-17)
(-2.52908e-05 6.27989e-06 1.90361e-17)
(2.50597e-05 8.51065e-06 -1.87384e-17)
(2.53698e-05 7.42618e-06 2.28581e-18)
(1.97393e-05 5.75779e-06 -3.89772e-17)
(1.83217e-05 4.74087e-06 1.4002e-17)
(1.68047e-05 3.82717e-06 -1.95517e-17)
(1.5389e-05 3.03185e-06 5.31473e-17)
(1.41601e-05 2.37739e-06 2.50428e-17)
(1.31212e-05 1.88499e-06 -1.93732e-17)
(1.21867e-05 1.45686e-06 -2.47817e-17)
(1.13772e-05 1.04213e-06 -2.88748e-17)
(1.06443e-05 6.17892e-07 1.78022e-17)
(1.00511e-05 1.59911e-07 1.95973e-17)
(9.48294e-06 -2.72332e-07 7.68424e-19)
(9.05817e-06 -5.86915e-07 -1.74181e-17)
(8.66245e-06 -9.0793e-07 1.97804e-18)
(8.34553e-06 -1.14498e-06 -2.24301e-17)
(8.0476e-06 -1.35139e-06 -1.62082e-17)
(7.80607e-06 -1.48079e-06 -1.03044e-17)
(7.56475e-06 -1.58958e-06 -6.21904e-18)
(7.35439e-06 -1.63374e-06 -2.56722e-17)
(7.13359e-06 -1.65379e-06 -1.32891e-17)
(6.93008e-06 -1.6168e-06 1.08768e-16)
(6.71063e-06 -1.55934e-06 1.793e-16)
(6.49417e-06 -1.45416e-06 1.10014e-16)
(6.25768e-06 -1.33826e-06 5.36227e-17)
(6.01326e-06 -1.18298e-06 -3.65361e-18)
(5.75354e-06 -1.02099e-06 4.34582e-17)
(5.48213e-06 -8.45196e-07 -6.80834e-18)
(5.20388e-06 -6.7437e-07 1.1228e-17)
(4.91836e-06 -5.10619e-07 8.73629e-17)
(4.63079e-06 -3.5888e-07 2.77094e-16)
(4.34346e-06 -2.25013e-07 -4.87238e-16)
(4.0497e-06 -7.50585e-08 7.24739e-17)
(3.76235e-06 6.05467e-08 -1.72205e-16)
(3.44769e-06 2.00267e-07 5.16989e-16)
(3.14883e-06 3.17449e-07 -4.47485e-19)
(2.83598e-06 4.40368e-07 4.14213e-16)
(2.54856e-06 5.585e-07 6.9728e-16)
(2.25196e-06 6.49578e-07 -3.77805e-16)
(1.9587e-06 7.28522e-07 3.91967e-16)
(1.68628e-06 7.71177e-07 -2.33572e-16)
(1.47266e-06 7.85647e-07 -3.25906e-16)
(1.29097e-06 8.02671e-07 -1.76889e-16)
(1.12247e-06 7.98086e-07 1.11422e-16)
(9.5816e-07 7.93142e-07 8.70947e-16)
(8.14927e-07 7.55853e-07 9.3303e-16)
(6.84631e-07 7.29333e-07 -4.5434e-17)
(5.71796e-07 6.6067e-07 -3.11347e-16)
(4.81105e-07 6.66701e-07 -5.77943e-17)
(4.14092e-07 6.09e-07 -1.41475e-15)
(3.38722e-07 6.62638e-07 1.53364e-17)
(2.93221e-07 5.19208e-07 -5.91434e-16)
(1.88716e-07 6.24722e-07 -1.24627e-16)
(2.63579e-07 4.42601e-07 1.81079e-16)
(-5.7966e-05 2.62815e-05 -8.97765e-18)
(-4.88358e-05 2.08772e-05 -8.1216e-18)
(-3.43085e-05 1.18105e-05 7.41568e-18)
(-3.15483e-05 1.04024e-05 -8.07595e-19)
(-2.9898e-05 8.42664e-06 -1.58424e-17)
(-2.90032e-05 7.51308e-06 1.07038e-17)
(-2.85516e-05 6.79671e-06 6.22136e-18)
(-2.69683e-05 5.70279e-06 -1.51459e-17)
(-2.47862e-05 2.91105e-06 5.96293e-18)
(-6.37215e-05 1.25681e-05 -9.28641e-18)
(-1.42488e-05 8.26796e-06 9.16696e-18)
(-5.06527e-05 3.12877e-06 -9.33216e-18)
(-3.14784e-05 8.24448e-06 -2.78514e-17)
(-3.34985e-05 7.43855e-06 3.89564e-18)
(-2.02938e-05 9.25409e-06 1.10965e-17)
(-8.03372e-06 1.03168e-05 -1.17683e-18)
(2.16472e-06 1.10455e-05 2.23346e-17)
(6.67044e-06 1.09278e-05 -5.00837e-17)
(5.08034e-06 9.69079e-06 -2.77279e-17)
(3.28392e-06 7.03576e-06 1.9934e-18)
(1.30274e-05 7.42359e-06 -1.53126e-18)
(-2.21709e-05 1.14639e-05 2.21737e-17)
(-1.52656e-05 -5.38107e-06 -7.51404e-17)
(2.65019e-05 8.37645e-06 1.34979e-16)
(9.05472e-06 4.43906e-06 1.85177e-17)
(1.51777e-05 2.36127e-06 1.35545e-17)
(2.60425e-05 4.33878e-06 2.36731e-17)
(2.2369e-05 3.69548e-06 4.78781e-17)
(1.96761e-05 2.87491e-06 1.16049e-17)
(1.79974e-05 2.18051e-06 2.33201e-17)
(1.64592e-05 1.57801e-06 -1.57457e-17)
(1.50348e-05 1.11474e-06 -5.03654e-17)
(1.37095e-05 7.988e-07 2.22754e-18)
(1.2592e-05 5.74701e-07 1.27156e-17)
(1.1609e-05 3.95023e-07 3.98988e-17)
(1.07586e-05 1.94832e-07 -2.15382e-17)
(9.96381e-06 -1.77537e-08 2.14242e-18)
(9.29266e-06 -2.64105e-07 -2.09696e-17)
(8.67459e-06 -4.94459e-07 1.08599e-17)
(8.15538e-06 -7.06208e-07 -2.58537e-19)
(7.68785e-06 -8.7365e-07 -9.49283e-18)
(7.29788e-06 -1.02075e-06 -6.48501e-18)
(6.94602e-06 -1.12656e-06 3.96687e-19)
(6.65055e-06 -1.21685e-06 -8.84402e-18)
(6.37925e-06 -1.27232e-06 -5.07795e-18)
(6.14529e-06 -1.31677e-06 5.07574e-17)
(5.9253e-06 -1.32633e-06 2.68514e-17)
(5.72573e-06 -1.31952e-06 -6.16935e-17)
(5.53029e-06 -1.27936e-06 3.28625e-17)
(5.3402e-06 -1.21558e-06 1.40196e-17)
(5.14861e-06 -1.1242e-06 6.48554e-17)
(4.95178e-06 -1.02027e-06 -1.51648e-16)
(4.75204e-06 -8.98468e-07 9.97297e-18)
(4.54156e-06 -7.68913e-07 1.50207e-17)
(4.32807e-06 -6.42226e-07 7.30402e-17)
(4.10718e-06 -5.17207e-07 -8.39758e-17)
(3.88657e-06 -3.96053e-07 1.70404e-16)
(3.6639e-06 -2.76479e-07 6.88823e-17)
(3.428e-06 -1.56781e-07 -1.00132e-16)
(3.19491e-06 -4.28614e-08 1.41111e-16)
(2.94652e-06 8.01926e-08 3.42889e-17)
(2.71403e-06 1.92193e-07 5.54317e-16)
(2.4607e-06 2.98388e-07 -1.17235e-18)
(2.21717e-06 3.99903e-07 -3.24971e-16)
(1.96755e-06 4.7735e-07 5.01661e-16)
(1.72753e-06 5.43254e-07 3.67916e-18)
(1.53505e-06 5.69634e-07 -2.66864e-16)
(1.36205e-06 6.00263e-07 1.79637e-16)
(1.19583e-06 6.17639e-07 -5.48693e-17)
(1.03352e-06 6.41318e-07 3.90351e-16)
(8.75661e-07 6.29296e-07 2.13988e-17)
(7.25466e-07 6.15351e-07 -3.20066e-17)
(6.03485e-07 5.81669e-07 2.90367e-16)
(5.0103e-07 6.1136e-07 -1.81356e-18)
(4.24705e-07 5.57876e-07 -6.68026e-17)
(3.45566e-07 6.16977e-07 -1.09653e-16)
(2.91749e-07 4.82139e-07 -3.59854e-16)
(1.8644e-07 5.82546e-07 2.32563e-16)
(2.57131e-07 4.07647e-07 -3.41116e-16)
(-4.45871e-05 1.93208e-05 8.71053e-18)
(-3.56941e-05 1.43701e-05 4.4116e-18)
(-2.40241e-05 7.16311e-06 -1.27149e-17)
(-2.29161e-05 5.62329e-06 -1.30062e-17)
(-2.17414e-05 3.53464e-06 1.70484e-17)
(-2.07621e-05 2.51983e-06 -1.0303e-17)
(-1.90805e-05 2.03333e-06 6.75795e-18)
(-1.33975e-06 1.61685e-06 2.27007e-17)
(0.000211655 1.33505e-06 -5.35704e-18)
(-0.00020795 -2.27216e-06 4.02365e-18)
(-2.10992e-05 1.51792e-05 -2.04498e-18)
(-0.000110385 -1.68833e-05 3.06639e-18)
(1.03638e-05 6.51274e-06 1.7238e-17)
(-6.45468e-05 -3.21514e-06 -6.90583e-18)
(-3.94897e-05 1.02349e-06 -4.67241e-17)
(-3.46914e-05 1.90305e-06 -1.85664e-17)
(-2.07743e-05 3.56158e-06 -1.98435e-17)
(-7.88223e-06 4.86761e-06 1.89725e-18)
(2.37559e-06 5.68988e-06 1.64523e-17)
(8.16003e-06 5.96384e-06 -7.02551e-18)
(9.43961e-07 4.31542e-06 2.54437e-17)
(-2.73162e-05 -3.02012e-06 -4.14455e-17)
(-4.62401e-07 1.03159e-06 7.03488e-17)
(4.21048e-05 1.01629e-05 -6.2033e-17)
(1.98379e-05 4.55364e-06 -6.6186e-17)
(1.12263e-05 1.3544e-06 -2.12806e-17)
(2.4846e-05 2.75448e-06 -7.68681e-18)
(2.47844e-05 2.85333e-06 -6.10731e-18)
(2.10052e-05 2.14835e-06 3.54599e-18)
(1.8464e-05 1.41575e-06 -1.50715e-17)
(1.68499e-05 7.96727e-07 -3.93149e-18)
(1.55718e-05 3.23741e-07 3.74132e-17)
(1.42533e-05 -6.79192e-09 2.17178e-17)
(1.29312e-05 -2.12756e-07 5.65992e-18)
(1.17604e-05 -3.17834e-07 -7.04299e-17)
(1.07728e-05 -3.8563e-07 2.32026e-18)
(9.92264e-06 -4.61736e-07 -1.25287e-19)
(9.16134e-06 -5.63192e-07 2.11061e-18)
(8.47591e-06 -6.66695e-07 1.0795e-17)
(7.86281e-06 -7.66006e-07 2.22309e-18)
(7.31982e-06 -8.39836e-07 -7.26927e-18)
(6.84261e-06 -9.07669e-07 -6.64518e-18)
(6.42631e-06 -9.53074e-07 -1.58068e-17)
(6.06256e-06 -1.00121e-06 -3.74445e-18)
(5.7463e-06 -1.02992e-06 -2.92492e-18)
(5.46822e-06 -1.05632e-06 -1.62878e-17)
(5.22518e-06 -1.06464e-06 8.55968e-18)
(5.00804e-06 -1.06803e-06 -1.95211e-17)
(4.8129e-06 -1.04966e-06 -1.19931e-16)
(4.63015e-06 -1.0265e-06 8.39539e-17)
(4.45723e-06 -9.80786e-07 3.13554e-17)
(4.28808e-06 -9.20103e-07 -1.21237e-18)
(4.12085e-06 -8.44388e-07 1.51427e-17)
(3.95148e-06 -7.62272e-07 2.37741e-17)
(3.7799e-06 -6.71168e-07 -3.12975e-16)
(3.60641e-06 -5.78345e-07 -7.30185e-19)
(3.43073e-06 -4.85616e-07 5.12739e-17)
(3.25288e-06 -3.88868e-07 -2.57889e-17)
(3.07179e-06 -2.90693e-07 1.44206e-16)
(2.88643e-06 -1.89202e-07 -6.9367e-16)
(2.70131e-06 -8.92148e-08 2.00754e-16)
(2.50403e-06 1.49041e-08 1.20478e-16)
(2.31187e-06 1.12261e-07 -8.05126e-16)
(2.10869e-06 2.01928e-07 3.44091e-16)
(1.90511e-06 2.8121e-07 -3.09709e-16)
(1.70455e-06 3.48803e-07 8.08302e-17)
(1.53426e-06 3.84051e-07 -1.95271e-16)
(1.38277e-06 4.19731e-07 2.04206e-16)
(1.23e-06 4.49201e-07 1.47461e-16)
(1.07115e-06 4.79808e-07 -2.18769e-16)
(9.11061e-07 4.819e-07 -3.43035e-16)
(7.61947e-07 5.07153e-07 -2.10693e-17)
(6.35388e-07 4.90633e-07 -4.79773e-16)
(5.21461e-07 5.34923e-07 -8.80606e-17)
(4.35329e-07 5.0773e-07 1.05399e-15)
(3.49734e-07 5.69227e-07 -2.66501e-16)
(2.88362e-07 4.40653e-07 8.22857e-16)
(1.82549e-07 5.40931e-07 -6.15655e-16)
(2.49058e-07 3.72166e-07 2.54882e-16)
(-2.82e-05 7.95491e-06 -7.3206e-18)
(-2.13508e-05 4.80754e-06 1.28219e-18)
(-1.41534e-05 1.31614e-06 -1.95508e-18)
(-1.43329e-05 5.3201e-07 -5.79612e-18)
(-1.41666e-05 -1.17848e-06 -1.81561e-17)
(-1.38959e-05 -2.09687e-06 8.15823e-18)
(-1.37067e-05 -2.37818e-06 2.43827e-18)
(-1.42192e-05 -2.39631e-06 -1.87069e-17)
(-4.0633e-05 -3.44823e-06 3.65425e-18)
(-1.37843e-05 -1.12933e-05 1.28727e-18)
(-1.26751e-05 -4.11647e-06 2.8651e-18)
(6.25508e-06 -2.49201e-06 -1.32629e-18)
(-2.91644e-05 -1.49403e-06 -9.71994e-18)
(-1.89842e-05 -1.6735e-06 -4.17559e-18)
(-4.67166e-05 -4.90069e-06 8.25334e-18)
(-4.04168e-05 -2.39784e-06 1.51337e-17)
(-4.03037e-05 -2.76587e-06 3.81681e-18)
(-2.91691e-05 -1.50116e-06 1.18459e-17)
(-1.66779e-05 -4.17391e-07 -2.26667e-17)
(-4.50152e-06 5.87178e-07 6.80685e-18)
(4.18274e-06 6.25011e-07 1.30011e-17)
(1.21784e-05 1.17389e-06 2.73929e-17)
(1.76085e-05 4.59306e-06 -2.71633e-17)
(1.76771e-05 5.41807e-06 -6.04869e-17)
(7.91391e-06 1.82636e-06 4.27823e-17)
(6.08645e-06 -4.26494e-07 2.02257e-17)
(1.82809e-05 2.51539e-07 1.94591e-18)
(2.40976e-05 9.82879e-07 -2.87003e-18)
(2.25989e-05 8.32687e-07 4.90285e-18)
(1.94059e-05 3.1848e-07 1.61393e-17)
(1.6692e-05 -2.53463e-07 -3.42377e-19)
(1.50731e-05 -7.12045e-07 -2.45283e-17)
(1.40351e-05 -9.81121e-07 -3.44381e-17)
(1.30078e-05 -1.09378e-06 -2.31367e-17)
(1.18976e-05 -1.08882e-06 5.31934e-17)
(1.07935e-05 -1.04183e-06 1.68639e-17)
(9.82253e-06 -9.87478e-07 -8.3975e-18)
(8.99571e-06 -9.59012e-07 -1.29457e-18)
(8.27432e-06 -9.44523e-07 1.11965e-18)
(7.62996e-06 -9.46747e-07 -5.73235e-18)
(7.04628e-06 -9.41861e-07 -6.0268e-18)
(6.52428e-06 -9.32994e-07 3.91577e-18)
(6.05941e-06 -9.1136e-07 1.87017e-18)
(5.65127e-06 -8.92336e-07 1.90946e-18)
(5.29039e-06 -8.70781e-07 -9.19914e-18)
(4.97145e-06 -8.64419e-07 -6.20277e-18)
(4.68852e-06 -8.53697e-07 5.53085e-17)
(4.43644e-06 -8.53447e-07 -8.49181e-18)
(4.21125e-06 -8.45038e-07 7.27768e-18)
(4.00642e-06 -8.3411e-07 -7.25738e-17)
(3.81959e-06 -8.09596e-07 -4.06198e-18)
(3.64506e-06 -7.8152e-07 -2.32869e-17)
(3.483e-06 -7.37427e-07 7.35982e-17)
(3.32762e-06 -6.84176e-07 3.76539e-18)
(3.17872e-06 -6.25261e-07 -2.01344e-16)
(3.03352e-06 -5.60605e-07 9.98157e-17)
(2.89209e-06 -4.90928e-07 -1.07631e-17)
(2.75334e-06 -4.17439e-07 -1.40935e-16)
(2.61332e-06 -3.40414e-07 1.39829e-16)
(2.47295e-06 -2.58992e-07 1.96051e-16)
(2.32881e-06 -1.75442e-07 2.22773e-16)
(2.18262e-06 -8.96879e-08 -6.48518e-17)
(2.03134e-06 -7.85352e-09 2.01687e-16)
(1.87532e-06 6.92221e-08 -3.05801e-16)
(1.71648e-06 1.39165e-07 3.0894e-17)
(1.55483e-06 2.04884e-07 -1.28287e-16)
(1.42044e-06 2.37118e-07 4.28145e-16)
(1.29213e-06 2.71392e-07 1.15585e-17)
(1.16626e-06 2.95437e-07 1.74901e-18)
(1.03293e-06 3.34831e-07 -3.62053e-16)
(8.93744e-07 3.53526e-07 1.26632e-16)
(7.6416e-07 3.8134e-07 8.95269e-17)
(6.35971e-07 3.92966e-07 5.12762e-16)
(5.34211e-07 4.5631e-07 1.15849e-16)
(4.33655e-07 4.39242e-07 -1.08905e-15)
(3.43006e-07 5.10823e-07 -2.84455e-16)
(2.76726e-07 3.95343e-07 -1.41965e-16)
(1.73969e-07 4.94937e-07 1.93987e-16)
(2.38572e-07 3.37453e-07 3.55134e-16)
(-1.34291e-05 -3.05857e-06 -4.3192e-18)
(-1.09793e-05 -4.4298e-06 -3.26217e-18)
(-7.99528e-06 -4.5889e-06 9.26443e-18)
(-8.75876e-06 -4.34466e-06 2.76993e-18)
(-9.20694e-06 -5.14339e-06 -5.17844e-18)
(-9.49992e-06 -5.66966e-06 -1.67398e-17)
(-9.61601e-06 -5.86069e-06 -7.5954e-18)
(-9.27376e-06 -5.71062e-06 1.33025e-17)
(-7.42505e-06 -5.48677e-06 -8.5316e-18)
(-1.40868e-05 -4.64027e-06 -1.11047e-17)
(-7.42588e-06 -4.43608e-06 4.24107e-18)
(8.8167e-05 -4.61651e-06 9.34785e-20)
(-9.08748e-05 -4.64995e-06 8.42349e-18)
(-2.68749e-06 2.7715e-06 -4.33313e-18)
(-5.78163e-05 -1.22855e-05 -1.52334e-18)
(1.02195e-06 -7.59909e-07 1.99283e-17)
(-4.49832e-05 -6.91655e-06 3.4897e-17)
(-3.12619e-05 -4.51891e-06 -1.08188e-17)
(-2.96366e-05 -4.49239e-06 3.77943e-18)
(-1.97773e-05 -3.51849e-06 1.15133e-17)
(-9.10575e-06 -2.58446e-06 2.06526e-18)
(1.08028e-06 -1.33553e-06 3.76904e-18)
(8.45824e-06 -1.17704e-07 5.94137e-18)
(1.2787e-05 6.66782e-07 5.68157e-17)
(1.23665e-05 -5.44959e-09 2.01923e-17)
(1.02823e-05 -8.57746e-07 -4.37885e-19)
(1.2959e-05 -7.57812e-07 9.06498e-18)
(1.66097e-05 -2.54001e-07 1.20112e-18)
(1.79341e-05 4.66274e-08 1.41992e-17)
(1.70204e-05 2.4618e-09 -1.93239e-18)
(1.46939e-05 -3.36697e-07 -2.46194e-17)
(1.22989e-05 -7.59647e-07 -2.72985e-17)
(1.06296e-05 -1.0779e-06 1.81659e-17)
(9.502e-06 -1.29659e-06 8.53137e-18)
(9.02099e-06 -1.33628e-06 -2.91688e-18)
(8.2938e-06 -1.2999e-06 -3.01217e-18)
(7.61538e-06 -1.20372e-06 8.39913e-18)
(6.92231e-06 -1.12656e-06 8.83988e-18)
(6.30671e-06 -1.07856e-06 -8.44827e-18)
(5.7765e-06 -1.05675e-06 8.77107e-18)
(5.31406e-06 -1.02987e-06 1.29276e-17)
(4.90159e-06 -9.96526e-07 6.61263e-18)
(4.53025e-06 -9.54079e-07 -4.984e-18)
(4.195e-06 -9.18503e-07 -1.87389e-18)
(3.89339e-06 -8.8363e-07 -6.03711e-18)
(3.62238e-06 -8.55528e-07 1.63835e-17)
(3.38037e-06 -8.2583e-07 3.2191e-17)
(3.16277e-06 -7.99108e-07 -1.61337e-17)
(2.97038e-06 -7.69629e-07 1.66018e-17)
(2.79658e-06 -7.46513e-07 2.05201e-17)
(2.6437e-06 -7.14394e-07 2.91276e-17)
(2.5055e-06 -6.75268e-07 3.75328e-17)
(2.38429e-06 -6.28454e-07 -1.41515e-18)
(2.27243e-06 -5.79485e-07 2.11181e-17)
(2.17209e-06 -5.26284e-07 8.46214e-17)
(2.07797e-06 -4.72786e-07 -2.88213e-17)
(1.9904e-06 -4.16405e-07 -9.73936e-18)
(1.90662e-06 -3.56951e-07 1.52073e-16)
(1.82462e-06 -2.95296e-07 5.02203e-19)
(1.74399e-06 -2.31059e-07 1.22917e-16)
(1.66017e-06 -1.65556e-07 -3.3805e-16)
(1.57634e-06 -9.83065e-08 -1.0592e-16)
(1.48636e-06 -3.4565e-08 -2.16659e-17)
(1.39502e-06 2.60484e-08 -2.08687e-16)
(1.29779e-06 8.2253e-08 9.67884e-17)
(1.19909e-06 1.35671e-07 6.35248e-17)
(1.12126e-06 1.65711e-07 -5.86243e-18)
(1.03585e-06 1.93509e-07 -1.60235e-16)
(9.59154e-07 2.21919e-07 -8.82228e-17)
(8.68482e-07 2.47414e-07 8.91927e-17)
(7.75446e-07 2.64463e-07 -5.3053e-17)
(6.78955e-07 3.04369e-07 -4.10594e-17)
(5.88027e-07 3.19486e-07 5.36252e-16)
(4.93909e-07 3.80591e-07 7.81886e-17)
(4.05309e-07 3.80961e-07 3.72239e-16)
(3.21978e-07 4.52709e-07 4.27191e-16)
(2.57067e-07 3.60454e-07 6.33058e-17)
(1.65903e-07 4.50947e-07 2.7405e-16)
(2.29343e-07 3.05854e-07 8.45751e-17)
(-1.13811e-05 -1.29821e-05 -2.50636e-19)
(-1.23974e-05 -1.2795e-05 -1.18087e-18)
(-1.06354e-05 -1.02111e-05 -1.2921e-18)
(-1.11344e-05 -8.76681e-06 -1.6102e-18)
(-1.15053e-05 -8.32861e-06 7.39528e-18)
(-1.17673e-05 -8.05652e-06 1.5058e-17)
(-1.18698e-05 -7.92758e-06 1.04077e-17)
(-1.17764e-05 -7.66888e-06 -4.59875e-18)
(-1.17583e-05 -7.23533e-06 5.16875e-18)
(-1.22668e-05 -6.77805e-06 1.59294e-17)
(-1.17203e-05 -5.95641e-06 -5.89832e-18)
(-1.99793e-05 -5.56665e-06 2.18656e-18)
(-1.0028e-05 -7.55674e-06 6.87018e-18)
(-9.01061e-06 -5.25414e-06 5.0538e-18)
(-6.10406e-06 -3.72313e-06 6.26417e-19)
(-8.24824e-06 -4.31926e-06 2.23355e-18)
(-1.59722e-05 -4.40687e-06 -8.97164e-18)
(-2.17589e-05 -4.41404e-06 9.3912e-18)
(-2.68334e-05 -4.54866e-06 9.47144e-18)
(-2.66859e-05 -4.35241e-06 -9.54531e-18)
(-2.24214e-05 -3.96162e-06 -9.61683e-19)
(-1.50597e-05 -3.41613e-06 3.42158e-18)
(-6.19896e-06 -2.69056e-06 -9.6373e-18)
(2.68793e-06 -1.76143e-06 -3.93239e-17)
(8.82396e-06 -1.21615e-06 -3.34765e-17)
(1.10913e-05 -1.08795e-06 1.88604e-17)
(1.20485e-05 -9.8262e-07 -1.38056e-19)
(1.33056e-05 -7.54366e-07 3.41104e-18)
(1.46961e-05 -4.94528e-07 -2.71299e-17)
(1.60033e-05 -2.87822e-07 -3.44551e-17)
(1.64138e-05 -1.91937e-07 -1.5855e-18)
(1.54858e-05 -1.18835e-07 4.50903e-17)
(1.33513e-05 1.6916e-07 -1.78437e-17)
(7.99582e-06 -1.08425e-06 -1.29092e-17)
(1.00794e-05 -1.32745e-06 -2.48554e-18)
(7.79705e-06 -1.56597e-06 6.13591e-18)
(7.61422e-06 -1.37349e-06 -7.88405e-18)
(6.92736e-06 -1.27169e-06 -4.54587e-19)
(6.36449e-06 -1.17856e-06 5.01909e-18)
(5.79872e-06 -1.13732e-06 -2.26587e-19)
(5.27546e-06 -1.11588e-06 6.2474e-18)
(4.81773e-06 -1.10597e-06 -3.39353e-19)
(4.41292e-06 -1.0855e-06 3.30729e-18)
(4.04838e-06 -1.05109e-06 -4.78257e-19)
(3.72126e-06 -9.99797e-07 6.10611e-18)
(3.42672e-06 -9.45013e-07 -2.25907e-19)
(3.16455e-06 -8.86844e-07 -1.81376e-17)
(2.92949e-06 -8.37094e-07 -1.18384e-17)
(2.72294e-06 -7.83153e-07 -4.06786e-18)
(2.53942e-06 -7.28525e-07 2.26847e-17)
(2.38139e-06 -6.6765e-07 5.45026e-17)
(2.24046e-06 -6.1444e-07 -2.83245e-18)
(2.11973e-06 -5.56646e-07 -3.15036e-17)
(2.01102e-06 -5.0486e-07 2.11623e-17)
(1.91749e-06 -4.51462e-07 4.56251e-17)
(1.83201e-06 -4.00619e-07 -5.91692e-17)
(1.75834e-06 -3.47166e-07 9.77862e-17)
(1.68989e-06 -2.95635e-07 5.16406e-17)
(1.62748e-06 -2.4141e-07 1.26363e-17)
(1.56678e-06 -1.86363e-07 1.82653e-16)
(1.5059e-06 -1.29634e-07 7.42581e-17)
(1.44452e-06 -7.26495e-08 -1.63559e-16)
(1.37768e-06 -1.86034e-08 1.63338e-16)
(1.30996e-06 3.29906e-08 1.11083e-16)
(1.23473e-06 8.12148e-08 -1.69015e-16)
(1.1596e-06 1.29082e-07 2.13733e-17)
(1.08508e-06 1.49672e-07 -6.06077e-17)
(1.02637e-06 1.82762e-07 -1.3993e-16)
(9.63462e-07 1.94601e-07 -6.27134e-17)
(8.89653e-07 2.19445e-07 3.12424e-17)
(8.15533e-07 2.35878e-07 8.91022e-17)
(7.27041e-07 2.65546e-07 -9.96253e-17)
(6.38367e-07 2.85603e-07 -4.09942e-16)
(5.42312e-07 3.46732e-07 -1.06301e-16)
(4.49332e-07 3.51188e-07 1.96597e-16)
(3.54311e-07 4.25047e-07 -2.16241e-16)
(2.79367e-07 3.37605e-07 -3.47904e-16)
(1.81034e-07 4.18497e-07 -2.05659e-16)
(2.36989e-07 2.70475e-07 -3.34941e-16)
(-2.10881e-05 -1.19609e-05 1.08095e-18)
(-2.27301e-05 -1.17175e-05 5.43622e-18)
(-1.79183e-05 -9.47309e-06 -6.39453e-19)
(-1.75248e-05 -8.04341e-06 -2.31908e-18)
(-1.72432e-05 -7.1549e-06 -4.4726e-18)
(-1.69455e-05 -6.45474e-06 -5.8346e-18)
(-1.65823e-05 -6.10126e-06 -5.50402e-18)
(-1.61254e-05 -5.88264e-06 -4.19314e-18)
(-1.5582e-05 -5.64013e-06 -2.30862e-18)
(-1.51865e-05 -5.23547e-06 8.95902e-19)
(-1.44289e-05 -4.71361e-06 1.00328e-17)
(-1.2483e-05 -4.23723e-06 5.95614e-19)
(-1.53924e-05 -3.60645e-06 -5.61108e-19)
(-1.28371e-05 -3.12945e-06 -8.5095e-18)
(-1.23359e-05 -3.17908e-06 4.50332e-19)
(-1.00983e-05 -2.7052e-06 -1.84387e-18)
(-1.07669e-05 -2.56721e-06 -1.32338e-17)
(-1.17954e-05 -2.38521e-06 -3.80945e-18)
(-1.55101e-05 -2.46011e-06 -6.21128e-19)
(-1.91929e-05 -2.5857e-06 6.34972e-18)
(-2.13721e-05 -2.76085e-06 5.09674e-18)
(-2.02836e-05 -2.81417e-06 -5.21131e-18)
(-1.57071e-05 -2.63798e-06 -9.71052e-18)
(-8.8376e-06 -2.15167e-06 -9.8456e-18)
(-1.60453e-06 -1.66767e-06 2.48274e-17)
(4.46231e-06 -1.24521e-06 3.36901e-18)
(8.57197e-06 -9.02393e-07 -2.65487e-17)
(1.07163e-05 -6.34614e-07 -8.6555e-18)
(1.16374e-05 -4.27642e-07 4.22052e-18)
(1.27996e-05 -1.52836e-07 2.21727e-17)
(1.62671e-05 6.11185e-07 3.34242e-17)
(2.5862e-05 2.93734e-06 -1.69494e-17)
(2.96314e-05 3.99619e-06 8.29884e-18)
(-4.52357e-05 -1.27053e-05 2.63897e-17)