/*--------------------------------*- C++ -*----------------------------------*\
| =========                 |                                                 |
| \\      /  F ield         | OpenFOAM: The Open Source CFD Toolbox           |
|  \\    /   O peration     | Version:  2506                                  |
|   \\  /    A nd           | Website:  www.openfoam.com                      |
|    \\/     M anipulation  |                                                 |
\*---------------------------------------------------------------------------*/
FoamFile
{
    version     2.0;
    format      ascii;
    arch        "LSB;label=32;scalar=64";
    class       volScalarField;
    location    "400";
    object      turbulenceProperties:nuEff;
}
// * * * * * * * * * * * * * * * * * * * * * * * * * * * * * * * * * * * * * //

dimensions      [0 2 -1 0 0 0 0];

internalField   nonuniform List<scalar> 
1340
(
1.6102e-05
1.61027e-05
1.61023e-05
1.60833e-05
1.61034e-05
1.61028e-05
1.60813e-05
1.60832e-05
1.6104e-05
1.61033e-05
1.60723e-05
1.60746e-05
1.60812e-05
1.60831e-05
1.61048e-05
1.61039e-05
1.60774e-05
1.60731e-05
1.60723e-05
1.60745e-05
1.60811e-05
1.6083e-05
1.61055e-05
1.61046e-05
1.60902e-05
1.60864e-05
1.60822e-05
1.60778e-05
1.60733e-05
1.60723e-05
1.60744e-05
1.6081e-05
1.60829e-05
1.61063e-05
1.61054e-05
1.60996e-05
1.60967e-05
1.60941e-05
1.60908e-05
1.6087e-05
1.60827e-05
1.60783e-05
1.60736e-05
1.60722e-05
1.60743e-05
1.60809e-05
1.60827e-05
1.61071e-05
1.61063e-05
1.61121e-05
1.611e-05
1.61073e-05
1.61039e-05
1.61004e-05
1.60974e-05
1.60948e-05
1.60915e-05
1.60876e-05
1.60832e-05
1.60787e-05
1.60739e-05
1.60722e-05
1.60742e-05
1.60808e-05
1.60825e-05
1.61079e-05
1.61073e-05
1.61186e-05
1.61178e-05
1.61169e-05
1.61158e-05
1.61146e-05
1.6113e-05
1.61109e-05
1.61082e-05
1.61048e-05
1.61012e-05
1.60982e-05
1.60955e-05
1.60922e-05
1.60882e-05
1.60838e-05
1.60792e-05
1.60743e-05
1.60723e-05
1.60741e-05
1.60806e-05
1.60822e-05
1.61087e-05
1.61084e-05
1.61211e-05
1.61211e-05
1.61211e-05
1.6121e-05
1.61208e-05
1.61205e-05
1.61201e-05
1.61195e-05
1.61187e-05
1.61178e-05
1.61167e-05
1.61155e-05
1.61139e-05
1.61119e-05
1.61091e-05
1.61057e-05
1.61021e-05
1.6099e-05
1.60962e-05
1.60929e-05
1.60889e-05
1.60844e-05
1.60798e-05
1.60746e-05
1.60723e-05
1.6074e-05
1.60805e-05
1.60819e-05
1.61096e-05
1.61096e-05
1.61227e-05
1.61235e-05
1.61233e-05
1.6123e-05
1.61228e-05
1.61225e-05
1.61223e-05
1.61222e-05
1.61221e-05
1.61221e-05
1.61221e-05
1.61221e-05
1.6122e-05
1.6122e-05
1.6122e-05
1.61219e-05
1.61218e-05
1.61215e-05
1.6121e-05
1.61205e-05
1.61197e-05
1.61188e-05
1.61177e-05
1.61164e-05
1.61149e-05
1.61129e-05
1.61101e-05
1.61067e-05
1.6103e-05
1.60998e-05
1.6097e-05
1.60937e-05
1.60897e-05
1.60851e-05
1.60803e-05
1.60751e-05
1.60724e-05
1.60739e-05
1.60804e-05
1.60816e-05
1.61104e-05
1.61109e-05
1.00073e-05
1e-05
1e-05
1e-05
0.000152285
0.000465479
0.0161281
0.055224
0.112705
0.176135
0.235562
0.285674
0.324134
0.350478
0.365879
0.372687
0.373821
0.362828
0.330978
0.272191
0.189059
0.0999541
0.0339373
0.00197427
0.000553385
1e-05
1e-05
1e-05
1.00019e-05
1.04404e-05
1.62553e-05
1.804e-05
1.6464e-05
1.59088e-05
1.60335e-05
1.61418e-05
1.61419e-05
1.61281e-05
1.6126e-05
1.61256e-05
1.61242e-05
1.61234e-05
1.61234e-05
1.61234e-05
1.61232e-05
1.61231e-05
1.6123e-05
1.6123e-05
1.6123e-05
1.6123e-05
1.6123e-05
1.61229e-05
1.61229e-05
1.61227e-05
1.61225e-05
1.6122e-05
1.61215e-05
1.61207e-05
1.61198e-05
1.61187e-05
1.61175e-05
1.61159e-05
1.61139e-05
1.61112e-05
1.61077e-05
1.61039e-05
1.61007e-05
1.60979e-05
1.60945e-05
1.60905e-05
1.60858e-05
1.60809e-05
1.60755e-05
1.60725e-05
1.60737e-05
1.60802e-05
1.60813e-05
1.61112e-05
1.61123e-05
1.64419e-05
1.00222e-05
1.00001e-05
1e-05
1e-05
1.00015e-05
0.00210225
0.00823228
0.0367114
0.087599
0.150425
0.213231
0.268336
0.31199
0.342902
0.361648
0.370793
0.373067
0.364439
0.336172
0.281344
0.201317
0.112018
0.0398812
0.00357631
0.00100569
1e-05
1e-05
1e-05
1.00003e-05
1.00598e-05
1.51073e-05
1.87322e-05
1.69756e-05
1.59845e-05
1.59929e-05
1.61208e-05
1.61326e-05
1.61186e-05
1.61214e-05
1.61268e-05
1.61267e-05
1.61249e-05
1.61241e-05
1.61241e-05
1.61241e-05
1.61241e-05
1.6124e-05
1.6124e-05
1.6124e-05
1.6124e-05
1.61239e-05
1.61239e-05
1.61237e-05
1.61235e-05
1.61231e-05
1.61225e-05
1.61218e-05
1.61209e-05
1.61198e-05
1.61185e-05
1.6117e-05
1.6115e-05
1.61123e-05
1.61088e-05
1.6105e-05
1.61017e-05
1.60988e-05
1.60954e-05
1.60913e-05
1.60865e-05
1.60816e-05
1.6076e-05
1.60727e-05
1.60736e-05
1.60801e-05
1.6081e-05
1.6112e-05
1.61138e-05
1.8087e-05
1.64687e-05
1.00788e-05
1.00004e-05
1e-05
1e-05
1e-05
0.000633964
0.00230249
0.0211448
0.0633626
0.123024
0.187913
0.247844
0.297093
0.333252
0.356305
0.368359
0.37195
0.36561
0.340844
0.290065
0.213328
0.124096
0.0476514
0.00674413
0.00182409
1e-05
1e-05
1e-05
1e-05
1.00001e-05
1.27645e-05
1.8242e-05
1.73042e-05
1.6079e-05
1.59958e-05
1.61668e-05
1.61834e-05
1.61337e-05
1.61147e-05
1.61207e-05
1.61267e-05
1.61269e-05
1.61256e-05
1.6125e-05
1.6125e-05
1.61251e-05
1.61251e-05
1.6125e-05
1.6125e-05
1.6125e-05
1.61249e-05
1.61248e-05
1.61246e-05
1.61242e-05
1.61236e-05
1.61229e-05
1.6122e-05
1.61209e-05
1.61197e-05
1.61181e-05
1.61162e-05
1.61135e-05
1.611e-05
1.61061e-05
1.61027e-05
1.60997e-05
1.60963e-05
1.60922e-05
1.60873e-05
1.60823e-05
1.60766e-05
1.60729e-05
1.60735e-05
1.60799e-05
1.60806e-05
1.61128e-05
1.61154e-05
1.62579e-05
1.78375e-05
1.63534e-05
1.04807e-05
1.00022e-05
1e-05
1e-05
1e-05
1.91252e-05
6.17167e-05
0.0107726
0.0421005
0.0956252
0.160541
0.224709
0.279822
0.321802
0.349719
0.365018
0.370025
0.365838
0.34451
0.297855
0.224377
0.135294
0.0555693
0.0102488
0.00271416
1e-05
1e-05
1e-05
1e-05
1.00079e-05
1.19273e-05
1.79002e-05
1.76973e-05
1.60059e-05
1.56775e-05
1.59819e-05
1.61813e-05
1.61807e-05
1.61352e-05
1.6119e-05
1.61226e-05
1.61267e-05
1.61271e-05
1.61264e-05
1.61261e-05
1.61261e-05
1.61262e-05
1.61261e-05
1.61261e-05
1.6126e-05
1.61259e-05
1.61257e-05
1.61253e-05
1.61248e-05
1.61241e-05
1.61232e-05
1.61221e-05
1.61208e-05
1.61193e-05
1.61174e-05
1.61147e-05
1.61113e-05
1.61073e-05
1.61037e-05
1.61008e-05
1.60973e-05
1.60931e-05
1.60882e-05
1.60831e-05
1.60772e-05
1.60731e-05
1.60734e-05
1.60797e-05
1.60803e-05
1.61136e-05
1.6117e-05
1.60213e-05
1.62435e-05
1.74624e-05
1.64564e-05
1.1825e-05
1.00084e-05
1e-05
1e-05
1e-05
1e-05
0.000983283
0.00365824
0.0244578
0.06834
0.129708
0.196665
0.258247
0.307688
0.34222
0.362109
0.36955
0.367173
0.348989
0.306554
0.236634
0.148224
0.0651516
0.0135781
0.00396863
0.000124866
1e-05
1e-05
1e-05
1.00031e-05
1.06956e-05
1.68685e-05
1.97336e-05
1.76062e-05
1.60467e-05
1.57915e-05
1.60056e-05
1.61531e-05
1.61635e-05
1.61357e-05
1.61237e-05
1.61251e-05
1.61276e-05
1.61279e-05
1.61274e-05
1.61272e-05
1.61272e-05
1.61272e-05
1.61272e-05
1.61271e-05
1.61269e-05
1.61266e-05
1.6126e-05
1.61253e-05
1.61245e-05
1.61234e-05
1.61221e-05
1.61206e-05
1.61187e-05
1.61161e-05
1.61126e-05
1.61085e-05
1.61049e-05
1.61019e-05
1.60984e-05
1.60942e-05
1.60891e-05
1.60839e-05
1.60779e-05
1.60734e-05
1.60732e-05
1.60795e-05
1.60799e-05
1.61143e-05
1.61188e-05
1.61337e-05
1.6068e-05
1.6206e-05
1.67746e-05
1.66421e-05
1.45639e-05
1.01735e-05
1.00008e-05
1e-05
1e-05
1e-05
0.000169121
0.000587948
0.0099417
0.0352428
0.080633
0.140572
0.205076
0.264316
0.311613
0.343915
0.361421
0.364943
0.354261
0.322695
0.265319
0.186397
0.102782
0.0406116
0.00592709
0.00198498
2.58501e-05
1e-05
1e-05
1e-05
1.0002e-05
1.02647e-05
1.453e-05
1.84136e-05
1.76391e-05
1.62832e-05
1.58806e-05
1.59974e-05
1.61327e-05
1.61559e-05
1.61357e-05
1.61255e-05
1.61267e-05
1.61289e-05
1.61291e-05
1.61288e-05
1.61286e-05
1.61286e-05
1.61286e-05
1.61284e-05
1.61281e-05
1.61276e-05
1.61269e-05
1.6126e-05
1.61249e-05
1.61237e-05
1.61222e-05
1.61203e-05
1.61177e-05
1.61142e-05
1.61101e-05
1.61064e-05
1.61032e-05
1.60997e-05
1.60954e-05
1.60903e-05
1.60849e-05
1.60787e-05
1.60738e-05
1.60731e-05
1.60793e-05
1.60796e-05
1.6115e-05
1.61207e-05
1.61376e-05
1.61349e-05
1.60814e-05
1.61336e-05
1.63924e-05
1.72407e-05
1.60718e-05
1.30766e-05
1.00015e-05
1e-05
1e-05
1e-05
1.00011e-05
5.72142e-05
0.00233102
0.00860495
0.0316256
0.0738662
0.131442
0.195346
0.255562
0.304551
0.338496
0.356422
0.358402
0.342581
0.303007
0.238133
0.158337
0.0823823
0.0297649
0.00262586
0.000960516
1.02945e-05
1e-05
1e-05
1e-05
1.0002e-05
1.0374e-05
1.51321e-05
1.85171e-05
1.73886e-05
1.61396e-05
1.58916e-05
1.60511e-05
1.61555e-05
1.61536e-05
1.61324e-05
1.61272e-05
1.61297e-05
1.61311e-05
1.61309e-05
1.61306e-05
1.61304e-05
1.61303e-05
1.613e-05
1.61295e-05
1.61289e-05
1.6128e-05
1.61269e-05
1.61256e-05
1.61241e-05
1.61222e-05
1.61197e-05
1.61162e-05
1.6112e-05
1.61081e-05
1.61048e-05
1.61012e-05
1.60969e-05
1.60916e-05
1.6086e-05
1.60797e-05
1.60743e-05
1.6073e-05
1.60791e-05
1.60792e-05
1.61156e-05
1.61227e-05
1.61271e-05
1.61324e-05
1.61273e-05
1.61069e-05
1.60965e-05
1.62842e-05
1.67782e-05
1.72698e-05
1.52806e-05
1.09587e-05
1.00045e-05
1e-05
1e-05
1e-05
1e-05
4.82908e-05
0.00203766
0.00743953
0.0294967
0.070774
0.127869
0.192016
0.253021
0.302816
0.336887
0.352979
0.35084
0.326935
0.277379
0.206258
0.127579
0.0596044
0.016428
0.000851355
0.000348028
1e-05
1e-05
1e-05
1e-05
1.00064e-05
1.14039e-05
1.70783e-05
1.82721e-05
1.66815e-05
1.59069e-05
1.59446e-05
1.61161e-05
1.61615e-05
1.6142e-05
1.61295e-05
1.61299e-05
1.6132e-05
1.61325e-05
1.61324e-05
1.61323e-05
1.6132e-05
1.61316e-05
1.61309e-05
1.613e-05
1.61289e-05
1.61276e-05
1.61261e-05
1.61242e-05
1.61217e-05
1.61183e-05
1.6114e-05
1.611e-05
1.61065e-05
1.61028e-05
1.60984e-05
1.60931e-05
1.60873e-05
1.60808e-05
1.6075e-05
1.60729e-05
1.60788e-05
1.60789e-05
1.61162e-05
1.61247e-05
1.61253e-05
1.61279e-05
1.61271e-05
1.61179e-05
1.60902e-05
1.61668e-05
1.64164e-05
1.72014e-05
1.67892e-05
1.42161e-05
1.00855e-05
1.00004e-05
1e-05
1e-05
1e-05
1e-05
4.03864e-05
0.00202453
0.00741724
0.0296184
0.0712762
0.12901
0.193955
0.255494
0.304794
0.336741
0.347952
0.338564
0.3047
0.245907
0.170663
0.0947628
0.0382216
0.00669011
0.00198228
2.11715e-05
1e-05
1e-05
1e-05
1.00006e-05
1.01097e-05
1.44574e-05
1.8625e-05
1.75455e-05
1.61654e-05
1.58998e-05
1.60619e-05
1.61586e-05
1.61544e-05
1.61374e-05
1.61339e-05
1.61347e-05
1.61344e-05
1.6134e-05
1.61339e-05
1.61337e-05
1.61331e-05
1.61322e-05
1.61311e-05
1.61297e-05
1.61282e-05
1.61263e-05
1.61239e-05
1.61205e-05
1.61162e-05
1.6112e-05
1.61084e-05
1.61046e-05
1.61001e-05
1.60947e-05
1.60887e-05
1.6082e-05
1.60757e-05
1.60729e-05
1.60785e-05
1.60785e-05
1.61166e-05
1.61267e-05
1.61239e-05
1.61246e-05
1.61256e-05
1.61278e-05
1.61188e-05
1.61059e-05
1.6084e-05
1.62537e-05
1.66713e-05
1.73371e-05
1.60339e-05
1.15772e-05
1.00075e-05
1e-05
1e-05
1e-05
1e-05
1e-05
4.46979e-05
0.00226581
0.00839328
0.0319894
0.0755211
0.135039
0.201055
0.262229
0.308995
0.336002
0.340434
0.321356
0.276407
0.208739
0.13149
0.0629492
0.0189187
0.00211152
0.000626715
1e-05
1e-05
1e-05
1e-05
1.00065e-05
1.14549e-05
1.75168e-05
1.81749e-05
1.65531e-05
1.59141e-05
1.59957e-05
1.61291e-05
1.61476e-05
1.6134e-05
1.61335e-05
1.61376e-05
1.6138e-05
1.61366e-05
1.61357e-05
1.61352e-05
1.61344e-05
1.61334e-05
1.6132e-05
1.61304e-05
1.61285e-05
1.61262e-05
1.61229e-05
1.61186e-05
1.61142e-05
1.61104e-05
1.61064e-05
1.61019e-05
1.60964e-05
1.60902e-05
1.60832e-05
1.60766e-05
1.60729e-05
1.60782e-05
1.60781e-05
1.61169e-05
1.61287e-05
1.61239e-05
1.61241e-05
1.61243e-05
1.61252e-05
1.61262e-05
1.61245e-05
1.61107e-05
1.60855e-05
1.61255e-05
1.63447e-05
1.7072e-05
1.69738e-05
1.45295e-05
1.01097e-05
1.00005e-05
1e-05
1e-05
1e-05
1e-05
1e-05
0.000118784
0.000186094
0.0102111
0.0365951
0.0836729
0.145944
0.212807
0.272067
0.314169
0.333459
0.3286
0.297609
0.240632
0.16619
0.0914161
0.0359685
0.00563522
0.00165369
1e-05
1e-05
1e-05
1e-05
1.00017e-05
1.03916e-05
1.56515e-05
1.86051e-05
1.70934e-05
1.60576e-05
1.60094e-05
1.61626e-05
1.61817e-05
1.61422e-05
1.61275e-05
1.61334e-05
1.61387e-05
1.61391e-05
1.61378e-05
1.61368e-05
1.61357e-05
1.61344e-05
1.61328e-05
1.61309e-05
1.61286e-05
1.61253e-05
1.6121e-05
1.61166e-05
1.61126e-05
1.61084e-05
1.61038e-05
1.60982e-05
1.60919e-05
1.60847e-05
1.60776e-05
1.60731e-05
1.60778e-05
1.60777e-05
1.6117e-05
1.61307e-05
1.61242e-05
1.61244e-05
1.61246e-05
1.61247e-05
1.61253e-05
1.6126e-05
1.61271e-05
1.61181e-05
1.61021e-05
1.60716e-05
1.62037e-05
1.65624e-05
1.74078e-05
1.57424e-05
1.23913e-05
1e-05
1e-05
1e-05
1e-05
1e-05
1e-05
1e-05
0.000397445
0.00121756
0.0136515
0.0445496
0.0964463
0.161871
0.228624
0.283774
0.318371
0.327292
0.310196
0.265401
0.197321
0.120626
0.0546291
0.0146144
0.00398475
4.64271e-05
1e-05
1e-05
1e-05
1.00001e-05
1.00185e-05
1.31444e-05
1.82355e-05
1.74028e-05
1.59294e-05
1.57521e-05
1.60559e-05
1.62091e-05
1.61884e-05
1.61468e-05
1.61355e-05
1.61381e-05
1.614e-05
1.61395e-05
1.61383e-05
1.61368e-05
1.61352e-05
1.61334e-05
1.6131e-05
1.61279e-05
1.61236e-05
1.61191e-05
1.61149e-05
1.61106e-05
1.61059e-05
1.61001e-05
1.60936e-05
1.60862e-05
1.60787e-05
1.60733e-05
1.60775e-05
1.60773e-05
1.61171e-05
1.61326e-05
1.61248e-05
1.6125e-05
1.61252e-05
1.61253e-05
1.61255e-05
1.61258e-05
1.61267e-05
1.61274e-05
1.61262e-05
1.61115e-05
1.60871e-05
1.60929e-05
1.6354e-05
1.69293e-05
1.72958e-05
1.4461e-05
1.06283e-05
1.0003e-05
1e-05
1e-05
1e-05
1e-05
1e-05
1.00758e-05
0.000616838
0.00196568
0.0186877
0.0564923
0.114211
0.182375
0.246959
0.294857
0.318021
0.313829
0.280976
0.2214
0.146082
0.0740979
0.0250887
0.0029722
0.000732578
1e-05
1e-05
1e-05
1e-05
1.00065e-05
1.15358e-05
1.90915e-05
1.97238e-05
1.69749e-05
1.57747e-05
1.58143e-05
1.60717e-05
1.61681e-05
1.61611e-05
1.61453e-05
1.61414e-05
1.61415e-05
1.6141e-05
1.61397e-05
1.61381e-05
1.61361e-05
1.61338e-05
1.61308e-05
1.61266e-05
1.61221e-05
1.61177e-05
1.61131e-05
1.61082e-05
1.61024e-05
1.60957e-05
1.6088e-05
1.60802e-05
1.60739e-05
1.60771e-05
1.60767e-05
1.61166e-05
1.61345e-05
1.61253e-05
1.61255e-05
1.61257e-05
1.61258e-05
1.61261e-05
1.61262e-05
1.61265e-05
1.6127e-05
1.6128e-05
1.61289e-05
1.61221e-05
1.61021e-05
1.6072e-05
1.61965e-05
1.65803e-05
1.74173e-05
1.65424e-05
1.33959e-05
1.01984e-05
1.0001e-05
1e-05
1e-05
1e-05
1e-05
1e-05
1.06378e-05
0.00154175
0.00565975
0.0284947
0.0743412
0.139143
0.210519
0.272644
0.312687
0.322694
0.301692
0.249563
0.174085
0.0945049
0.0305284
0.00157907
0.00144189
0.000461656
0.000148633
1.22193e-05
1e-05
1e-05
1.00115e-05
1.22924e-05
1.85982e-05
1.83564e-05
1.66906e-05
1.6062e-05
1.605e-05
1.61265e-05
1.61504e-05
1.61478e-05
1.61442e-05
1.61429e-05
1.61418e-05
1.61402e-05
1.61383e-05
1.6136e-05
1.6133e-05
1.61289e-05
1.61244e-05
1.61198e-05
1.6115e-05
1.611e-05
1.61041e-05
1.60973e-05
1.60894e-05
1.60812e-05
1.60743e-05
1.6077e-05
1.60764e-05
1.61172e-05
1.6136e-05
1.61258e-05
1.6126e-05
1.61263e-05
1.61265e-05
1.61268e-05
1.6127e-05
1.61273e-05
1.61276e-05
1.61279e-05
1.61289e-05
1.61299e-05
1.61306e-05
1.61159e-05
1.60955e-05
1.60794e-05
1.631e-05
1.68455e-05
1.74137e-05
1.63094e-05
1.32621e-05
1.01456e-05
1.00006e-05
1e-05
1e-05
1e-05
1e-05
1e-05
4.10074e-05
0.00174284
0.00595599
0.0276638
0.0690426
0.126016
0.188323
0.242979
0.278989
0.288137
0.267778
0.219552
0.15356
0.089763
0.0436776
0.017608
0.00564049
0.00107709
0.000246087
1e-05
1e-05
1.00023e-05
1.04685e-05
1.38357e-05
1.63254e-05
1.65111e-05
1.62431e-05
1.61415e-05
1.61399e-05
1.61485e-05
1.61497e-05
1.61483e-05
1.61469e-05
1.61453e-05
1.61433e-05
1.6141e-05
1.61381e-05
1.61342e-05
1.61297e-05
1.6125e-05
1.61198e-05
1.61144e-05
1.61083e-05
1.61013e-05
1.60928e-05
1.60843e-05
1.60756e-05
1.6077e-05
1.60757e-05
1.61145e-05
1.61395e-05
)
;

boundaryField
{
    inlet
    {
        type            calculated;
        value           nonuniform List<scalar> 
27
(
1.6102e-05
1.61023e-05
1.61028e-05
1.61033e-05
1.61039e-05
1.61046e-05
1.61054e-05
1.61063e-05
1.61073e-05
1.61084e-05
1.61096e-05
1.61109e-05
1.61123e-05
1.61138e-05
1.61154e-05
1.6117e-05
1.61188e-05
1.61207e-05
1.61227e-05
1.61247e-05
1.61267e-05
1.61287e-05
1.61307e-05
1.61326e-05
1.61345e-05
1.6136e-05
1.61395e-05
)
;
    }
    outlet
    {
        type            calculated;
        value           nonuniform List<scalar> 
78
(
1.61258e-05
1.6126e-05
1.61263e-05
1.61265e-05
1.61268e-05
1.6127e-05
1.61273e-05
1.61276e-05
1.61279e-05
1.61289e-05
1.61299e-05
1.61306e-05
1.61159e-05
1.60955e-05
1.60794e-05
1.631e-05
1.68455e-05
1.74137e-05
1.63094e-05
1.32621e-05
1.01456e-05
1.00006e-05
1e-05
1e-05
1e-05
1e-05
1e-05
4.10074e-05
0.00174284
0.00595599
0.0276638
0.0690426
0.126016
0.188323
0.242979
0.278989
0.288137
0.267778
0.219552
0.15356
0.089763
0.0436776
0.017608
0.00564049
0.00107709
0.000246087
1e-05
1e-05
1.00023e-05
1.04685e-05
1.38357e-05
1.63254e-05
1.65111e-05
1.62431e-05
1.61415e-05
1.61399e-05
1.61485e-05
1.61497e-05
1.61483e-05
1.61469e-05
1.61453e-05
1.61433e-05
1.6141e-05
1.61381e-05
1.61342e-05
1.61297e-05
1.6125e-05
1.61198e-05
1.61144e-05
1.61083e-05
1.61013e-05
1.60928e-05
1.60843e-05
1.60756e-05
1.6077e-05
1.60757e-05
1.61145e-05
1.61395e-05
)
;
    }
    walls
    {
        type            calculated;
        value           nonuniform List<scalar> 0();
    }
    frontAndBack
    {
        type            empty;
    }
    procBoundary7to3
    {
        type            processor;
        value           nonuniform List<scalar> 
16
(
1.5912e-05
1.79931e-05
1.63011e-05
1.60084e-05
1.61246e-05
1.61438e-05
1.6131e-05
1.61263e-05
1.61246e-05
1.61246e-05
1.61238e-05
1.61237e-05
1.6124e-05
1.61246e-05
1.61251e-05
1.61256e-05
)
;
    }
    procBoundary7to6
    {
        type            processor;
        value           nonuniform List<scalar> 
91
(
1.61018e-05
1.61021e-05
1.61021e-05
1.60834e-05
1.60834e-05
1.60814e-05
1.60814e-05
1.60724e-05
1.60746e-05
1.60746e-05
1.60771e-05
1.60729e-05
1.60729e-05
1.60897e-05
1.60859e-05
1.60817e-05
1.60817e-05
1.60989e-05
1.60961e-05
1.60935e-05
1.60935e-05
1.61113e-05
1.61092e-05
1.61064e-05
1.61031e-05
1.61031e-05
1.61177e-05
1.6117e-05
1.6116e-05
1.6115e-05
1.61137e-05
1.61137e-05
1.61203e-05
1.61202e-05
1.61202e-05
1.61201e-05
1.61199e-05
1.61196e-05
1.61192e-05
1.61192e-05
1.61236e-05
1.6123e-05
1.61224e-05
1.6122e-05
1.61217e-05
1.61215e-05
1.61214e-05
1.61213e-05
1.61212e-05
1.61212e-05
1.61212e-05
1.61212e-05
1.61212e-05
1e-05
1e-05
1e-05
0.00121078
0.00470589
0.0288075
0.0763432
0.137253
0.199215
0.254655
0.300005
0.333823
0.356241
0.369044
0.374802
0.374594
0.3609
0.325279
0.262593
0.176738
0.0878348
0.026059
0.00283983
0.000708488
1e-05
1e-05
1e-05
1.00044e-05
1.1066e-05
1.70135e-05
1.76618e-05
1.63015e-05
1.5966e-05
1.60887e-05
1.61485e-05
1.61346e-05
1.6123e-05
1.6123e-05
)
;
    }
}


// ************************************************************************* //
