/*--------------------------------*- C++ -*----------------------------------*\
| =========                 |                                                 |
| \\      /  F ield         | OpenFOAM: The Open Source CFD Toolbox           |
|  \\    /   O peration     | Version:  2506                                  |
|   \\  /    A nd           | Website:  www.openfoam.com                      |
|    \\/     M anipulation  |                                                 |
\*---------------------------------------------------------------------------*/
FoamFile
{
    version     2.0;
    format      ascii;
    arch        "LSB;label=32;scalar=64";
    class       volSymmTensorField;
    location    "400";
    object      turbulenceProperties:devReff;
}
// * * * * * * * * * * * * * * * * * * * * * * * * * * * * * * * * * * * * * //

dimensions      [0 2 -2 0 0 0 0];

internalField   nonuniform List<symmTensor> 
1340
(
(1.51567e-07 3.94316e-08 -6.5253e-20 -2.16654e-07 -6.69226e-21 6.50874e-08)
(-1.07022e-07 -3.13007e-08 -6.43282e-20 1.62261e-07 -8.10174e-21 -5.52384e-08)
(1.55539e-07 4.35076e-08 3.39364e-20 -2.19591e-07 3.37366e-21 6.40524e-08)
(1.02209e-07 6.49884e-08 3.4538e-19 -1.47564e-07 3.83111e-20 4.53551e-08)
(-9.25686e-08 -3.37645e-08 8.53834e-23 1.52866e-07 -2.9904e-22 -6.02978e-08)
(1.43135e-07 5.17125e-08 -7.59515e-22 -2.14831e-07 1.79412e-22 7.16957e-08)
(-1.62349e-08 2.8492e-08 -1.75616e-19 4.88108e-08 -2.08148e-20 -3.25759e-08)
(9.96085e-08 6.07545e-08 5.64176e-21 -1.46632e-07 1.17726e-21 4.70239e-08)
(-8.39655e-08 -3.49505e-08 7.68616e-20 1.46636e-07 9.50337e-21 -6.26701e-08)
(1.37845e-07 5.57714e-08 -1.54177e-19 -2.13122e-07 -1.58505e-20 7.52763e-08)
(2.98855e-08 4.90587e-08 -4.19252e-19 -1.51925e-08 -4.85475e-20 -1.4693e-08)
(7.13491e-08 5.9379e-08 -2.29483e-19 -9.37e-08 -2.54224e-20 2.23509e-08)
(-1.42971e-08 2.81716e-08 7.75136e-20 4.72166e-08 9.12896e-21 -3.29195e-08)
(9.96045e-08 5.57295e-08 -1.14383e-19 -1.46908e-07 -1.2715e-20 4.73035e-08)
(-7.94139e-08 -3.48021e-08 -3.23855e-19 1.42544e-07 -4.00647e-20 -6.31297e-08)
(1.37919e-07 5.75349e-08 1.48008e-19 -2.1398e-07 1.48772e-20 7.60606e-08)
(5.94309e-08 6.0189e-08 6.19689e-20 -5.33909e-08 7.13149e-21 -6.04004e-09)
(6.91772e-08 6.19021e-08 -1.65701e-20 -7.87265e-08 -1.9678e-21 9.54928e-09)
(3.04715e-08 4.657e-08 1.61283e-21 -1.55531e-08 -2.95635e-22 -1.49184e-08)
(7.20498e-08 5.4442e-08 7.6831e-22 -9.45508e-08 -1.15871e-22 2.2501e-08)
(-1.25729e-08 2.78109e-08 5.4535e-20 4.5729e-08 6.5578e-21 -3.31561e-08)
(9.95115e-08 5.08397e-08 -5.77898e-21 -1.47122e-07 -8.98146e-22 4.76107e-08)
(-7.51752e-08 -3.46443e-08 1.95201e-22 1.38945e-07 -1.68205e-23 -6.37693e-08)
(1.37723e-07 5.91181e-08 -5.62018e-22 -2.14799e-07 1.33584e-22 7.70762e-08)
(9.50685e-08 6.72709e-08 -1.39452e-19 -9.63935e-08 -1.61979e-20 1.32505e-09)
(8.18304e-08 6.34797e-08 -1.77821e-19 -7.95625e-08 -2.02187e-20 -2.26793e-09)
(7.92498e-08 6.27936e-08 -2.22728e-19 -8.29861e-08 -2.48417e-20 3.73634e-09)
(5.91372e-08 5.58364e-08 -9.05325e-20 -5.29941e-08 -9.83401e-21 -6.14306e-09)
(6.9424e-08 5.70202e-08 1.0061e-20 -7.91534e-08 1.4787e-21 9.72938e-09)
(3.08999e-08 4.40095e-08 1.70521e-19 -1.58167e-08 1.96321e-20 -1.50832e-08)
(7.23597e-08 4.96644e-08 3.53624e-20 -9.51022e-08 3.71622e-21 2.27425e-08)
(-1.07617e-08 2.72031e-08 -1.22266e-19 4.42424e-08 -1.42992e-20 -3.34807e-08)
(9.88999e-08 4.64129e-08 1.0973e-19 -1.47119e-07 1.20871e-20 4.82195e-08)
(-7.07621e-08 -3.48336e-08 1.81482e-22 1.35622e-07 -1.13086e-22 -6.486e-08)
(1.36401e-07 6.05834e-08 2.7803e-22 -2.1518e-07 -6.18797e-23 7.87784e-08)
(1.20992e-07 6.04214e-08 -3.29546e-20 -1.20839e-07 -3.15421e-21 -1.52732e-10)
(1.10595e-07 6.16434e-08 1.63746e-19 -1.11118e-07 1.80378e-20 5.22292e-10)
(9.99464e-08 6.10947e-08 1.90363e-20 -9.90755e-08 1.88847e-21 -8.70908e-10)
(9.33353e-08 6.0638e-08 1.09703e-19 -9.47462e-08 1.20823e-20 1.41088e-09)
(8.04693e-08 5.76662e-08 4.45298e-22 -7.81601e-08 -3.36691e-22 -2.30923e-09)
(7.85424e-08 5.72259e-08 9.64252e-22 -8.2397e-08 -6.31055e-23 3.85455e-09)
(5.8627e-08 5.14838e-08 7.58643e-20 -5.23918e-08 8.51414e-21 -6.23522e-09)
(6.94019e-08 5.2182e-08 -9.58466e-21 -7.9287e-08 -1.18422e-21 9.88507e-09)
(3.12363e-08 4.13505e-08 -7.92483e-22 -1.59988e-08 2.03977e-22 -1.52375e-08)
(7.24703e-08 4.50338e-08 -1.61985e-22 -9.54517e-08 5.44599e-23 2.29814e-08)
(-9.0147e-09 2.63674e-08 3.51004e-22 4.28461e-08 -6.85468e-23 -3.38314e-08)
(9.8217e-08 4.23028e-08 -5.9662e-22 -1.47111e-07 1.58e-22 4.88937e-08)
(-6.68489e-08 -3.5208e-08 2.79626e-19 1.32883e-07 3.49042e-20 -6.60343e-08)
(1.34994e-07 6.14704e-08 7.50858e-20 -2.15538e-07 7.63316e-21 8.05432e-08)
(1.68218e-07 3.34075e-08 -9.0633e-20 -1.6821e-07 -9.34995e-21 -7.96555e-12)
(1.54587e-07 4.05689e-08 6.70792e-20 -1.5459e-07 7.46115e-21 2.22776e-12)
(1.4139e-07 4.5867e-08 3.38681e-20 -1.41367e-07 3.36555e-21 -2.25681e-11)
(1.28822e-07 4.94548e-08 -1.25779e-20 -1.2887e-07 -1.48989e-21 4.73242e-11)
(1.16585e-07 5.21358e-08 1.82044e-22 -1.16412e-07 -2.15751e-23 -1.73192e-10)
(1.07136e-07 5.39829e-08 -6.18766e-22 -1.07671e-07 1.16209e-22 5.35343e-10)
(9.71139e-08 5.41165e-08 -6.97196e-23 -9.62054e-08 -2.8306e-22 -9.0851e-10)
(9.12165e-08 5.41801e-08 -1.1956e-19 -9.26669e-08 -1.32312e-20 1.45042e-09)
(7.88004e-08 5.19731e-08 -5.71172e-20 -7.64266e-08 -5.96846e-21 -2.3738e-09)
(7.75291e-08 5.17394e-08 7.15461e-20 -8.14573e-08 8.05528e-21 3.92823e-09)
(5.79215e-08 4.71479e-08 -7.2213e-20 -5.15895e-08 -8.26869e-21 -6.33201e-09)
(6.91481e-08 4.73997e-08 2.89901e-23 -7.91441e-08 -7.41405e-23 9.99593e-09)
(3.14576e-08 3.86169e-08 -1.54216e-19 -1.60789e-08 -1.77897e-20 -1.53787e-08)
(7.24456e-08 4.05249e-08 -3.19509e-20 -9.56178e-08 -3.37576e-21 2.31721e-08)
(-7.45818e-09 2.53665e-08 6.32655e-20 4.16129e-08 7.40975e-21 -3.41548e-08)
(9.7633e-08 3.83691e-08 -9.95011e-20 -1.47146e-07 -1.09859e-20 4.95135e-08)
(-6.36246e-08 -3.56387e-08 -2.36008e-19 1.30759e-07 -2.93374e-20 -6.71348e-08)
(1.34054e-07 6.16929e-08 -9.59624e-20 -2.16244e-07 -9.53815e-21 8.21895e-08)
(2.13477e-07 -3.87796e-08 -8.44697e-20 -2.13453e-07 -8.56019e-21 -2.42819e-11)
(2.03144e-07 -2.31961e-08 -1.27383e-20 -2.03119e-07 -9.68463e-22 -2.46671e-11)
(1.92158e-07 -9.15678e-09 -1.3212e-20 -1.92132e-07 -1.33473e-21 -2.609e-11)
(1.80705e-07 3.33813e-09 -2.05104e-20 -1.80681e-07 -1.98727e-21 -2.45867e-11)
(1.68958e-07 1.42762e-08 -4.02211e-21 -1.68936e-07 -1.46419e-22 -2.2361e-11)
(1.571e-07 2.35745e-08 5.73315e-20 -1.57075e-07 6.14e-21 -2.50027e-11)
(1.45336e-07 3.11589e-08 6.59896e-20 -1.45326e-07 6.89385e-21 -1.00015e-11)
(1.33772e-07 3.69826e-08 -1.36742e-22 -1.3373e-07 -8.9527e-23 -4.2268e-11)
(1.22662e-07 4.11551e-08 2.85212e-20 -1.22704e-07 3.13973e-21 4.17479e-11)
(1.11652e-07 4.43996e-08 1.83621e-20 -1.11453e-07 1.91366e-21 -1.98592e-10)
(1.03181e-07 4.67458e-08 -4.25132e-23 -1.03721e-07 -6.54301e-23 5.40233e-10)
(9.38339e-08 4.74741e-08 -4.58185e-24 -9.28887e-08 2.25112e-23 -9.45234e-10)
(8.86712e-08 4.79803e-08 7.04141e-22 -9.01485e-08 -5.70039e-24 1.47735e-09)
(7.67805e-08 4.64705e-08 5.48417e-20 -7.43488e-08 5.88841e-21 -2.43168e-09)
(7.61695e-08 4.63982e-08 -6.81645e-20 -8.01513e-08 -7.62348e-21 3.98185e-09)
(5.69748e-08 4.288e-08 6.87376e-20 -5.05622e-08 7.83981e-21 -6.41251e-09)
(6.86271e-08 4.27143e-08 2.28969e-24 -7.87031e-08 8.14475e-23 1.0076e-08)
(3.15205e-08 3.58473e-08 1.47343e-19 -1.60303e-08 1.68475e-20 -1.54901e-08)
(7.22489e-08 3.61472e-08 3.07989e-20 -9.55708e-08 3.14945e-21 2.33219e-08)
(-6.12766e-09 2.42353e-08 -6.01947e-20 4.05702e-08 -7.13909e-21 -3.44426e-08)
(9.70785e-08 3.45873e-08 2.46827e-22 -1.4717e-07 6.65646e-23 5.00918e-08)
(-6.09604e-08 -3.61287e-08 4.01475e-19 1.29136e-07 4.97559e-20 -6.81754e-08)
(1.33355e-07 6.12902e-08 4.13128e-22 -2.17038e-07 -1.71379e-22 8.36833e-08)
(2.13811e-07 -1.72821e-07 -1.85681e-20 -2.13846e-07 -1.82408e-21 3.52469e-11)
(2.146e-07 -1.52858e-07 -4.23951e-20 -2.14624e-07 -3.904e-21 2.35594e-11)
(2.13923e-07 -1.33168e-07 1.96299e-20 -2.13937e-07 1.90411e-21 1.47224e-11)
(2.11815e-07 -1.13931e-07 -3.69962e-20 -2.11819e-07 -3.73416e-21 4.8674e-12)
(2.08346e-07 -9.53277e-08 -1.2366e-20 -2.08344e-07 -8.98357e-22 -1.84005e-12)
(2.03603e-07 -7.75251e-08 4.53952e-20 -2.03595e-07 4.56575e-21 -7.94968e-12)
(1.97698e-07 -6.06728e-08 4.7289e-21 -1.97685e-07 3.23863e-22 -1.27662e-11)
(1.90757e-07 -4.49007e-08 4.54008e-22 -1.90741e-07 -1.81035e-22 -1.65747e-11)
(1.82923e-07 -3.03082e-08 -1.39914e-20 -1.82904e-07 -1.48956e-21 -1.88727e-11)
(1.74341e-07 -1.69617e-08 -1.02757e-20 -1.74321e-07 -1.01291e-21 -2.03096e-11)
(1.65163e-07 -4.90021e-09 1.17494e-22 -1.65141e-07 1.14759e-23 -2.11869e-11)
(1.55543e-07 5.84493e-09 1.43737e-23 -1.55524e-07 -1.59134e-23 -1.8969e-11)
(1.45639e-07 1.5157e-08 -3.33858e-22 -1.45614e-07 2.96404e-23 -2.48763e-11)
(1.35658e-07 2.29319e-08 -1.06019e-20 -1.35651e-07 -1.00694e-21 -6.43883e-12)
(1.25682e-07 2.90741e-08 9.14252e-23 -1.25636e-07 -5.3618e-23 -4.69574e-11)
(1.16011e-07 3.36464e-08 -2.73497e-20 -1.1606e-07 -2.93296e-21 4.94066e-11)
(1.06236e-07 3.72952e-08 -1.75518e-20 -1.06027e-07 -1.83763e-21 -2.0984e-10)
(9.8761e-08 4.00135e-08 -4.05061e-23 -9.93141e-08 3.98656e-23 5.53142e-10)
(9.0126e-08 4.1242e-08 -4.38557e-24 -8.91601e-08 2.89565e-22 -9.65872e-10)
(8.57095e-08 4.2111e-08 1.07928e-19 -8.72144e-08 1.20221e-20 1.50492e-09)
(7.44098e-08 4.12222e-08 2.82637e-20 -7.19401e-08 3.23775e-21 -2.46971e-09)
(7.44591e-08 4.12615e-08 1.11235e-19 -7.8485e-08 1.22411e-20 4.0259e-09)
(5.57762e-08 3.87289e-08 -6.55353e-20 -4.93116e-08 -7.53452e-21 -6.46461e-09)
(6.78283e-08 3.81671e-08 3.83059e-23 -7.79618e-08 -2.30331e-23 1.01335e-08)
(3.14076e-08 3.30744e-08 -1.00437e-19 -1.5841e-08 -1.12939e-20 -1.55666e-08)
(7.18635e-08 3.19187e-08 8.46902e-20 -9.53029e-08 9.664e-21 2.34394e-08)
(-5.0128e-09 2.29939e-08 1.46365e-19 3.97066e-08 1.70335e-20 -3.46938e-08)
(9.65028e-08 3.09525e-08 -8.76428e-24 -1.47155e-07 -1.09947e-22 5.06524e-08)
(-5.88533e-08 -3.67107e-08 -2.60968e-22 1.28099e-07 5.92088e-23 -6.92456e-08)
(1.32837e-07 6.03702e-08 2.15837e-20 -2.17987e-07 2.19591e-21 8.51502e-08)
(8.04197e-08 -3.2031e-07 1.57346e-20 -8.04745e-08 1.42347e-21 5.47532e-11)
(9.19242e-08 -3.11605e-07 5.95151e-22 -9.1994e-08 6.00289e-23 6.98281e-11)
(1.03186e-07 -3.02002e-07 9.76757e-22 -1.03267e-07 1.19037e-22 8.03296e-11)
(1.14105e-07 -2.91472e-07 4.67579e-20 -1.14191e-07 4.31198e-21 8.64601e-11)
(1.24573e-07 -2.80003e-07 2.1022e-20 -1.24664e-07 1.96252e-21 9.08903e-11)
(1.3448e-07 -2.67609e-07 3.31068e-20 -1.3457e-07 3.04493e-21 9.01349e-11)
(1.43718e-07 -2.54328e-07 1.03516e-20 -1.43803e-07 9.50522e-22 8.47088e-11)
(1.52189e-07 -2.40209e-07 1.8868e-20 -1.52274e-07 1.7088e-21 8.44304e-11)
(1.59777e-07 -2.25344e-07 -1.08786e-20 -1.5985e-07 -1.25833e-21 7.31382e-11)
(1.66404e-07 -2.09821e-07 -6.5265e-20 -1.66471e-07 -6.06893e-21 6.76611e-11)
(1.71977e-07 -1.93757e-07 1.2523e-20 -1.72037e-07 1.26023e-21 5.94083e-11)
(1.76427e-07 -1.77278e-07 -1.71949e-20 -1.76477e-07 -1.70155e-21 4.96194e-11)
(1.79703e-07 -1.60528e-07 8.3016e-23 -1.79744e-07 3.02067e-23 4.13742e-11)
(1.81765e-07 -1.43656e-07 1.16196e-22 -1.81797e-07 -6.2215e-23 3.18919e-11)
(1.82602e-07 -1.26822e-07 -2.40268e-23 -1.82628e-07 9.76123e-24 2.56824e-11)
(1.82211e-07 -1.10182e-07 1.16712e-22 -1.82227e-07 -2.72623e-23 1.65544e-11)
(1.80623e-07 -9.38937e-08 4.09052e-23 -1.80633e-07 -3.3069e-23 1.02126e-11)
(1.77883e-07 -7.8113e-08 -1.53787e-22 -1.77888e-07 -4.87222e-23 4.64023e-12)
(1.7406e-07 -6.29888e-08 -2.36936e-20 -1.74058e-07 -2.1999e-21 -1.25751e-12)
(1.6924e-07 -4.86462e-08 4.79185e-20 -1.69236e-07 4.96368e-21 -4.74562e-12)
(1.63525e-07 -3.52056e-08 -3.97815e-21 -1.63516e-07 -5.75886e-22 -8.41796e-12)
(1.57026e-07 -2.27407e-08 9.90048e-21 -1.57015e-07 1.03194e-21 -1.05904e-11)
(1.49861e-07 -1.13159e-08 4.12328e-23 -1.49848e-07 -4.7765e-23 -1.29106e-11)
(1.4216e-07 -9.77766e-10 -6.33302e-22 -1.42149e-07 -2.12987e-22 -1.06774e-11)
(1.34053e-07 8.13642e-09 -5.154e-20 -1.34033e-07 -5.60061e-21 -1.95459e-11)
(1.2574e-07 1.58984e-08 -5.03146e-20 -1.25742e-07 -5.12133e-21 2.13078e-12)
(1.17277e-07 2.21724e-08 3.64609e-20 -1.1723e-07 3.98485e-21 -4.68585e-11)
(1.08998e-07 2.69722e-08 -2.89121e-20 -1.09059e-07 -3.19627e-21 6.07533e-11)
(1.00444e-07 3.08751e-08 1.66963e-20 -1.00229e-07 1.8562e-21 -2.14906e-10)
(9.39604e-08 3.38408e-08 -1.27176e-22 -9.45265e-08 -3.20906e-23 5.6608e-10)
(8.60592e-08 3.54736e-08 -6.16989e-23 -8.50821e-08 -7.43115e-23 -9.77131e-10)
(8.23865e-08 3.66238e-08 -3.89226e-20 -8.39134e-08 -4.36233e-21 1.52684e-09)
(7.17291e-08 3.62766e-08 -7.65864e-20 -6.92364e-08 -8.62264e-21 -2.49265e-09)
(7.24286e-08 3.63769e-08 -1.06113e-19 -7.64847e-08 -1.15415e-20 4.05605e-09)
(5.43408e-08 3.4733e-08 2.84795e-20 -4.78477e-08 3.35005e-21 -6.49314e-09)
(6.67688e-08 3.37919e-08 1.55564e-20 -7.69338e-08 1.84462e-21 1.0165e-08)
(3.11254e-08 3.0329e-08 7.67449e-20 -1.55217e-08 8.72416e-21 -1.56037e-08)
(7.13107e-08 2.78476e-08 5.28052e-20 -9.48355e-08 5.88932e-21 2.35249e-08)
(-4.10835e-09 2.16618e-08 -1.90614e-22 3.90073e-08 -2.42668e-23 -3.48989e-08)
(9.59288e-08 2.74322e-08 -8.55323e-24 -1.47111e-07 -5.47212e-24 5.1182e-08)
(-5.72135e-08 -3.73436e-08 -1.03284e-22 1.27462e-07 -2.76751e-23 -7.02486e-08)
(1.32548e-07 5.89464e-08 -2.06137e-20 -2.19099e-07 -2.05965e-21 8.65508e-08)
(-9.69774e-08 -6.076e-08 -1.17026e-21 8.8709e-08 -4.87071e-23 8.26839e-09)
(-1.00195e-07 -2.48472e-08 1.80518e-22 9.29721e-08 -3.73795e-23 7.22254e-09)
(-9.98099e-08 -9.73048e-08 6.32464e-22 1.0081e-07 7.9165e-23 -1.00048e-09)
(-7.06844e-08 -4.00898e-07 -7.10217e-22 7.2621e-08 -2.55801e-23 -1.93669e-09)
(-5.97742e-07 -1.1757e-05 -1.20046e-20 6.01385e-07 -2.1009e-21 -3.64289e-09)
(-4.28772e-06 -2.41815e-05 9.2019e-20 4.25605e-06 6.27678e-21 3.16675e-08)
(-0.000546186 0.00201112 1.9085e-18 0.000545193 2.87105e-19 9.92976e-07)
(-0.00451574 0.0259708 -6.69427e-18 0.00451912 -5.08313e-19 -3.38294e-06)
(-0.0163205 0.100579 3.85103e-18 0.0163306 -2.53346e-19 -1.01201e-05)
(-0.0366478 0.222436 3.10036e-17 0.0366469 2.82777e-18 8.66495e-07)
(-0.0607121 0.352101 7.15927e-18 0.0607013 1.06142e-18 1.07748e-05)
(-0.0810801 0.442263 2.4989e-17 0.0810711 2.91955e-18 8.97429e-06)
(-0.0905373 0.456594 -3.96216e-17 0.0905275 -1.59559e-18 9.74809e-06)
(-0.0840603 0.378269 -1.26513e-16 0.0840502 -1.28604e-17 1.01157e-05)
(-0.0605376 0.215387 4.05509e-17 0.060535 -1.88794e-18 2.53873e-06)
(-0.023746 0.00125175 2.60743e-16 0.0237475 2.404e-17 -1.56407e-06)
(0.0183243 -0.214445 3.57581e-17 -0.0183321 7.50405e-18 7.75331e-06)
(0.0546638 -0.373418 -5.22478e-17 -0.0546677 -4.66583e-18 3.90536e-06)
(0.0725653 -0.421758 7.84194e-18 -0.0725514 -1.05452e-18 -1.38942e-05)
(0.0648908 -0.344075 7.5484e-17 -0.0648699 7.49245e-18 -2.08466e-05)
(0.0384937 -0.191826 -2.87697e-17 -0.0384839 -3.16268e-18 -9.80768e-06)
(0.0130163 -0.0624787 5.34715e-17 -0.013016 5.61952e-18 -2.38579e-07)
(0.00178645 -0.00879766 -2.73607e-17 -0.00178655 -2.6048e-18 9.91339e-08)
(5.81008e-06 -8.89562e-05 1.71743e-18 -5.84592e-06 1.27506e-19 3.58384e-08)
(-6.81694e-06 7.6443e-06 3.00542e-19 6.79075e-06 3.1813e-20 2.6193e-08)
(-8.69678e-08 -9.31835e-09 1.02875e-21 8.67804e-08 1.35903e-22 1.87471e-10)
(-2.66976e-08 -2.06036e-07 1.60205e-21 2.6797e-08 6.16798e-23 -9.94558e-11)
(-2.42458e-09 -2.58124e-07 1.21746e-20 2.51268e-09 1.13494e-21 -8.80928e-11)
(-2.07496e-09 -2.33277e-07 -7.88088e-22 2.07735e-09 -5.07483e-25 -2.39708e-12)
(-4.30551e-09 -2.15662e-07 3.94409e-21 4.28609e-09 4.04214e-22 1.9417e-11)
(-2.72693e-09 -3.17404e-07 -1.36726e-20 2.70727e-09 -1.12119e-21 1.96628e-11)
(5.98672e-09 -3.44487e-07 -2.19065e-20 -5.99334e-09 -2.10276e-21 6.62327e-12)
(1.43854e-08 -3.08549e-07 1.87419e-21 -1.43949e-08 1.08956e-22 9.46796e-12)
(2.2556e-08 -2.92288e-07 -8.39716e-21 -2.25665e-08 -8.14728e-22 1.04827e-11)
(3.17631e-08 -2.89046e-07 1.787e-20 -3.17764e-08 1.63403e-21 1.32552e-11)
(4.13913e-08 -2.85664e-07 -5.58053e-21 -4.14085e-08 -4.35912e-22 1.72204e-11)
(5.09709e-08 -2.8015e-07 -1.55945e-20 -5.0993e-08 -1.44258e-21 2.20367e-11)
(6.05477e-08 -2.73954e-07 -1.39607e-20 -6.05732e-08 -1.33576e-21 2.55065e-11)
(7.0144e-08 -2.67371e-07 1.28895e-20 -7.01777e-08 1.19142e-21 3.36729e-11)
(7.96491e-08 -2.60132e-07 1.66346e-25 -7.96879e-08 -4.60505e-24 3.88059e-11)
(8.89678e-08 -2.52115e-07 -2.48352e-23 -8.90128e-08 3.4073e-23 4.50569e-11)
(9.80156e-08 -2.43311e-07 -1.55293e-23 -9.80648e-08 2.41368e-23 4.91884e-11)
(1.06711e-07 -2.33712e-07 -2.20652e-23 -1.06767e-07 1.6672e-23 5.51838e-11)
(1.14956e-07 -2.23325e-07 -1.17179e-23 -1.15011e-07 6.75247e-24 5.46364e-11)
(1.2267e-07 -2.12172e-07 -6.4086e-22 -1.22728e-07 -7.28655e-23 5.83146e-11)
(1.29755e-07 -2.00306e-07 -1.76038e-20 -1.29811e-07 -1.68097e-21 5.58203e-11)
(1.36136e-07 -1.87795e-07 1.12248e-22 -1.3619e-07 1.07946e-22 5.34514e-11)
(1.41733e-07 -1.74722e-07 4.96443e-20 -1.41783e-07 4.78691e-21 5.06759e-11)
(1.46469e-07 -1.61177e-07 6.17856e-23 -1.46515e-07 -1.00975e-22 4.57178e-11)
(1.50288e-07 -1.47265e-07 1.25834e-20 -1.50328e-07 1.2068e-21 4.08304e-11)
(1.53138e-07 -1.3311e-07 -3.20846e-21 -1.53172e-07 -3.2094e-22 3.41051e-11)
(1.54987e-07 -1.18837e-07 2.14781e-20 -1.55016e-07 2.154e-21 2.92355e-11)
(1.55811e-07 -1.04575e-07 1.56338e-23 -1.55834e-07 -7.04863e-23 2.24186e-11)
(1.55613e-07 -9.04604e-08 5.28375e-24 -1.5563e-07 -2.28696e-23 1.69039e-11)
(1.54407e-07 -7.66303e-08 1.72689e-23 -1.54419e-07 8.68354e-23 1.22987e-11)
(1.52226e-07 -6.32213e-08 2.26613e-20 -1.52233e-07 2.10467e-21 6.61366e-12)
(1.49125e-07 -5.03554e-08 -5.0257e-20 -1.49128e-07 -5.12488e-21 2.40407e-12)
(1.45171e-07 -3.81496e-08 1.2702e-20 -1.4517e-07 1.46777e-21 -4.41588e-13)
(1.40441e-07 -2.66908e-08 -7.12297e-23 -1.40437e-07 -1.3347e-23 -3.37725e-12)
(1.35022e-07 -1.60478e-08 1.84443e-22 -1.35015e-07 -1.30289e-22 -7.08067e-12)
(1.29021e-07 -6.28139e-09 -2.83924e-20 -1.29017e-07 -3.00019e-21 -4.21606e-12)
(1.22535e-07 2.46365e-09 3.05124e-22 -1.22519e-07 4.19638e-23 -1.60465e-11)
(1.15755e-07 1.00423e-08 9.49556e-21 -1.15764e-07 8.90313e-22 8.94375e-12)
(1.08705e-07 1.62831e-08 -2.37071e-22 -1.08658e-07 3.15982e-23 -4.75434e-11)
(1.01749e-07 2.1158e-08 2.47439e-22 -1.01819e-07 -7.61904e-23 7.03739e-11)
(9.43765e-08 2.51745e-08 -1.59709e-20 -9.41569e-08 -1.81174e-21 -2.19621e-10)
(8.88635e-08 2.82709e-08 -3.66532e-20 -8.94375e-08 -4.00817e-21 5.73979e-10)
(8.1705e-08 3.02099e-08 -2.39193e-20 -8.07212e-08 -2.4971e-21 -9.83781e-10)
(7.87601e-08 3.15638e-08 1.19434e-20 -8.03001e-08 1.47882e-21 1.53996e-09)
(6.87808e-08 3.16738e-08 5.69099e-20 -6.62754e-08 6.29628e-21 -2.50537e-09)
(7.01125e-08 3.17855e-08 5.11006e-20 -7.41797e-08 5.448e-21 4.06717e-09)
(5.26923e-08 3.09309e-08 -7.21117e-23 -4.61945e-08 -1.8297e-22 -6.4978e-09)
(6.5464e-08 2.96175e-08 -6.78602e-20 -7.56284e-08 -7.5893e-21 1.01644e-08)
(3.06629e-08 2.76456e-08 -1.46168e-22 -1.50562e-08 6.89014e-23 -1.56066e-08)
(7.05965e-08 2.3934e-08 -5.10058e-20 -9.41522e-08 -5.52544e-21 2.35557e-08)
(-3.44393e-09 2.02755e-08 3.89157e-20 3.84997e-08 4.61495e-21 -3.50558e-08)
(9.53793e-08 2.39724e-08 -2.08494e-22 -1.4703e-07 -2.11994e-23 5.16508e-08)
(-5.60838e-08 -3.79847e-08 -1.60233e-19 1.27295e-07 -1.98382e-20 -7.12114e-08)
(1.32582e-07 5.70306e-08 1.96362e-20 -2.20404e-07 2.00188e-21 8.78222e-08)
(-1.26945e-07 -1.3794e-07 -2.59584e-24 1.15907e-07 -8.3115e-23 1.10382e-08)
(-8.02198e-08 -5.8097e-08 1.82953e-21 7.42154e-08 1.54688e-22 6.00448e-09)
(-8.94858e-08 -1.9693e-08 6.85255e-22 9.0216e-08 1.1495e-22 -7.302e-10)
(-8.57536e-08 -4.75486e-08 -5.63419e-22 8.728e-08 -2.49125e-23 -1.52634e-09)
(-6.09874e-08 -2.65887e-07 -5.75814e-22 6.10636e-08 -6.44628e-23 -7.61695e-11)
(-2.57242e-08 -6.40219e-07 2.81818e-24 2.5596e-08 -8.86083e-24 1.28128e-10)
(-7.30953e-06 -0.00015203 2.21758e-22 7.30146e-06 -5.68246e-21 8.06812e-09)
(-0.000152901 0.000222062 1.04166e-18 0.000152504 1.10328e-19 3.97564e-07)
(-0.00201746 0.010383 -3.32874e-18 0.00201734 -3.4906e-19 1.20163e-07)
(-0.00959833 0.0570076 1.91685e-17 0.00960535 1.75672e-18 -7.02e-06)
(-0.0255927 0.153234 -1.00647e-17 0.0255985 -4.40472e-19 -5.83777e-06)
(-0.0474066 0.274173 2.31407e-19 0.0474 -7.99591e-19 6.61062e-06)
(-0.0683771 0.374807 5.58624e-17 0.0683668 5.18619e-18 1.0251e-05)
(-0.0810452 0.414669 -1.98574e-18 0.0810359 1.34964e-18 9.34553e-06)
(-0.0796219 0.370375 -6.30377e-17 0.079613 -5.71264e-18 8.88721e-06)
(-0.0618373 0.242024 -1.13239e-18 0.061834 1.59277e-19 3.27377e-06)
(-0.0302037 0.0552782 -7.20983e-17 0.0302046 -8.12102e-18 -9.18317e-07)
(0.00846451 -0.145858 8.0409e-17 -0.00847055 5.90056e-18 6.04197e-06)
(0.0442033 -0.307648 5.3283e-17 -0.0442082 5.59035e-18 4.92736e-06)
(0.0648704 -0.376111 3.58193e-17 -0.0648606 2.67419e-18 -9.86261e-06)
(0.0620579 -0.326652 1.00367e-16 -0.0620388 1.18067e-17 -1.90451e-05)
(0.0396778 -0.195648 -1.40007e-16 -0.0396678 -1.37923e-17 -1.00385e-05)
(0.0149496 -0.0705351 7.56306e-17 -0.014949 7.16277e-18 -6.13241e-07)
(0.00238561 -0.0112308 -3.07794e-17 -0.00238547 -2.62172e-18 -1.42836e-07)
(2.94184e-05 -0.000211019 2.45757e-21 -2.94534e-05 -2.59794e-20 3.50113e-08)
(-1.06703e-05 1.43488e-05 2.0689e-22 1.06301e-05 2.48347e-21 4.02811e-08)
(-8.86434e-08 5.91517e-08 -2.91977e-21 8.84283e-08 -2.35019e-22 2.15018e-10)
(-2.90532e-08 -1.44989e-07 -4.87328e-21 2.91168e-08 -4.82024e-22 -6.36011e-11)
(-5.9529e-10 -2.18279e-07 6.08631e-22 6.65423e-10 3.05434e-23 -7.0133e-11)
(1.34345e-09 -2.02173e-07 -1.22261e-21 -1.35024e-09 -1.15429e-22 6.79698e-12)
(-1.37221e-09 -1.76592e-07 5.18827e-22 1.3382e-09 3.63599e-24 3.40166e-11)
(2.18524e-10 -2.46746e-07 9.80172e-21 -2.63591e-10 9.26349e-22 4.50669e-11)
(8.29798e-09 -2.98315e-07 3.31011e-24 -8.34017e-09 -1.89845e-24 4.2194e-11)
(1.53831e-08 -2.65432e-07 1.49962e-20 -1.54228e-08 1.46212e-21 3.96292e-11)
(2.16449e-08 -2.45075e-07 -1.30733e-20 -2.1684e-08 -1.19172e-21 3.90265e-11)
(2.90439e-08 -2.40694e-07 3.43904e-21 -2.90869e-08 2.8635e-22 4.3017e-11)
(3.70839e-08 -2.38324e-07 -4.02544e-24 -3.71277e-08 -2.89726e-23 4.38138e-11)
(4.5105e-08 -2.33996e-07 1.72019e-20 -4.5145e-08 1.63596e-21 4.00494e-11)
(5.3091e-08 -2.28842e-07 -4.71267e-21 -5.31349e-08 -4.17145e-22 4.38974e-11)
(6.10856e-08 -2.23403e-07 6.09422e-21 -6.11266e-08 5.71383e-22 4.10455e-11)
(6.90174e-08 -2.17401e-07 3.19753e-21 -6.90595e-08 3.40013e-22 4.20268e-11)
(7.67829e-08 -2.10668e-07 -4.69819e-24 -7.68242e-08 2.9891e-23 4.13777e-11)
(8.4323e-08 -2.03226e-07 1.7368e-20 -8.43639e-08 1.69245e-21 4.08616e-11)
(9.15791e-08 -1.95104e-07 -3.26485e-24 -9.16194e-08 -3.52554e-24 4.02573e-11)
(9.8479e-08 -1.86311e-07 5.81994e-22 -9.85187e-08 9.98444e-23 3.96985e-11)
(1.04945e-07 -1.76864e-07 1.26326e-20 -1.04983e-07 1.21858e-21 3.82906e-11)
(1.10904e-07 -1.66809e-07 2.02437e-23 -1.10941e-07 -8.06517e-23 3.65721e-11)
(1.16289e-07 -1.56205e-07 -8.20933e-23 -1.16322e-07 1.00159e-22 3.38245e-11)
(1.2103e-07 -1.45114e-07 2.64827e-20 -1.21061e-07 2.60132e-21 3.11334e-11)
(1.25068e-07 -1.33616e-07 -1.19507e-20 -1.25095e-07 -1.2506e-21 2.7615e-11)
(1.28348e-07 -1.21807e-07 2.54967e-23 -1.28372e-07 -7.11852e-23 2.37591e-11)
(1.30829e-07 -1.09786e-07 -2.05364e-20 -1.30849e-07 -2.01706e-21 2.03028e-11)
(1.32474e-07 -9.7655e-08 1.3261e-23 -1.32489e-07 5.85244e-23 1.4923e-11)
(1.33267e-07 -8.55291e-08 4.51307e-24 -1.33279e-07 4.29651e-23 1.11148e-11)
(1.33201e-07 -7.35251e-08 2.0989e-20 -1.33208e-07 2.16212e-21 7.18554e-12)
(1.32286e-07 -6.1761e-08 2.74695e-21 -1.3229e-07 2.77692e-22 3.50406e-12)
(1.30546e-07 -5.03547e-08 4.39304e-21 -1.30546e-07 3.58724e-22 -5.5255e-13)
(1.28023e-07 -3.94101e-08 -8.39356e-21 -1.2802e-07 -9.64121e-22 -2.95495e-12)
(1.24766e-07 -2.90204e-08 -2.27011e-20 -1.24761e-07 -2.13396e-21 -5.13098e-12)
(1.20834e-07 -1.92511e-08 6.76042e-20 -1.20825e-07 7.27033e-21 -8.88291e-12)
(1.16309e-07 -1.01756e-08 2.76589e-20 -1.16304e-07 2.83535e-21 -4.9326e-12)
(1.11258e-07 -1.9284e-09 4.67722e-20 -1.11239e-07 4.98922e-21 -1.89985e-11)
(1.05861e-07 5.32888e-09 5.41577e-20 -1.05871e-07 5.59111e-21 1.03394e-11)
(1.00107e-07 1.13967e-08 -4.19555e-20 -1.00054e-07 -4.50347e-21 -5.29168e-11)
(9.43858e-08 1.6216e-08 5.80531e-20 -9.44603e-08 6.35034e-21 7.44427e-11)
(8.8137e-08 2.02213e-08 -1.50384e-20 -8.79116e-08 -1.79855e-21 -2.25344e-10)
(8.35567e-08 2.33385e-08 -3.09117e-23 -8.41313e-08 7.42637e-23 5.74669e-10)
(7.71348e-08 2.54866e-08 1.25787e-20 -7.61482e-08 1.32624e-21 -9.86611e-10)
(7.48917e-08 2.69737e-08 -1.05304e-20 -7.64315e-08 -1.09313e-21 1.53986e-09)
(6.5612e-08 2.74581e-08 4.4701e-20 -6.31069e-08 5.08288e-21 -2.50509e-09)
(6.75555e-08 2.75239e-08 3.40197e-20 -7.1614e-08 3.7544e-21 4.05844e-09)
(5.08465e-08 2.73631e-08 -5.69196e-24 -4.43711e-08 5.21547e-24 -6.47543e-09)
(6.39509e-08 2.56652e-08 4.36519e-20 -7.40695e-08 4.85346e-21 1.01186e-08)
(3.00084e-08 2.50751e-08 9.79818e-24 -1.44591e-08 -2.28437e-22 -1.55493e-08)
(6.97807e-08 2.01619e-08 -1.47621e-19 -9.32984e-08 -1.66044e-20 2.35177e-08)
(-3.07378e-09 1.88918e-08 -3.7187e-20 3.81844e-08 -4.27622e-21 -3.51106e-08)
(9.49538e-08 2.05254e-08 -9.52455e-20 -1.46933e-07 -1.03344e-20 5.19791e-08)
(-5.54277e-08 -3.85238e-08 1.61421e-19 1.27414e-07 2.0006e-20 -7.19867e-08)
(1.33145e-07 5.46576e-08 -1.8742e-20 -2.22034e-07 -1.88471e-21 8.88893e-08)
(-1.14056e-07 -1.46136e-07 -7.41551e-25 1.04092e-07 2.72132e-23 9.96395e-09)
(-1.05341e-07 -1.25096e-07 3.64825e-24 9.70923e-08 2.39208e-23 8.24853e-09)
(-7.18488e-08 -5.66761e-08 -6.59254e-22 7.2464e-08 -8.71933e-23 -6.15242e-10)
(-7.48705e-08 -1.94616e-08 9.51989e-22 7.61913e-08 7.3748e-23 -1.3208e-09)
(-7.22944e-08 -1.62108e-08 1.75734e-22 7.23363e-08 5.07599e-23 -4.18915e-11)
(-5.56907e-08 -1.55536e-07 -7.8348e-22 5.54816e-08 -7.75824e-23 2.09098e-10)
(-2.24189e-08 -4.79841e-07 5.02052e-22 2.25726e-08 3.41497e-23 -1.53769e-10)
(-2.83522e-07 -4.69722e-05 2.28676e-22 2.98297e-07 4.5766e-22 -1.47758e-08)
(-1.86284e-05 -7.37598e-05 -2.49956e-22 1.85597e-05 6.33224e-22 6.87197e-08)
(-0.000712539 0.00298389 1.9489e-20 0.000711741 6.93833e-21 7.98376e-07)
(-0.0049914 0.0281068 -3.26253e-20 0.00499475 -1.21051e-19 -3.35771e-06)
(-0.0165876 0.0975059 1.44257e-17 0.0165965 1.41742e-18 -8.89412e-06)
(-0.0353566 0.203566 2.23264e-19 0.0353563 2.47133e-19 3.2478e-07)
(-0.0560441 0.308306 -1.31966e-18 0.0560354 -6.34897e-19 8.7462e-06)
(-0.0712021 0.368662 4.07209e-17 0.0711944 4.11139e-18 7.65696e-06)
(-0.0743127 0.35487 2.97008e-18 0.0743057 6.50219e-19 7.00503e-06)
(-0.0619921 0.259288 3.08635e-17 0.0619881 2.18058e-18 4.02048e-06)
(-0.035412 0.099619 5.81854e-17 0.035411 6.01041e-18 1.02633e-06)
(-0.000262373 -0.0857643 3.13761e-20 0.000255934 1.16172e-18 6.43951e-06)
(0.0344087 -0.247202 -3.84762e-17 -0.0344175 -3.02318e-18 8.81227e-06)
(0.0571362 -0.331696 -4.4081e-17 -0.057136 -6.5887e-18 -1.38326e-07)
(0.0586258 -0.30744 1.74431e-16 -0.058616 1.79236e-17 -9.74796e-06)
(0.0402232 -0.197281 -1.34252e-16 -0.0402168 -1.16825e-17 -6.41833e-06)
(0.0166526 -0.0779731 4.93984e-19 -0.0166528 -4.7216e-19 1.8881e-07)
(0.00310544 -0.0143499 -8.39099e-18 -0.00310552 -7.7931e-19 7.40738e-08)
(8.65455e-05 -0.000501296 -1.39397e-21 -8.65756e-05 -5.85202e-21 3.00551e-08)
(-1.61046e-05 2.13374e-05 -1.32772e-19 1.60582e-05 -1.28541e-20 4.63602e-08)
(-8.72587e-08 1.05471e-07 -4.06271e-24 8.71752e-08 1.62884e-23 8.35331e-11)
(-2.82273e-08 -9.35853e-08 -2.75594e-21 2.84188e-08 -2.63783e-22 -1.9152e-10)
(3.6239e-09 -1.81377e-07 -1.97433e-24 -3.43555e-09 -1.77316e-23 -1.88351e-10)
(5.60168e-09 -1.72482e-07 6.78298e-25 -5.5332e-09 -5.11721e-24 -6.84773e-11)
(6.2429e-10 -1.46696e-07 -1.31699e-22 -6.17491e-10 -8.05507e-24 -6.79844e-12)
(5.74089e-10 -1.72483e-07 -1.65665e-21 -5.67941e-10 -1.05671e-22 -6.14749e-12)
(7.77415e-09 -2.41841e-07 -2.0962e-20 -7.75476e-09 -2.06915e-21 -1.93853e-11)
(1.50821e-08 -2.26383e-07 1.34695e-20 -1.507e-08 1.24281e-21 -1.21499e-11)
(2.03878e-08 -2.06201e-07 -3.29292e-21 -2.03945e-08 -2.8066e-22 6.62005e-12)
(2.63603e-08 -2.01069e-07 1.18145e-24 -2.63824e-08 -1.45361e-23 2.21429e-11)
(3.30531e-08 -1.99592e-07 -3.72998e-21 -3.30868e-08 -3.42405e-22 3.37117e-11)
(3.97644e-08 -1.96138e-07 -7.21774e-21 -3.98049e-08 -7.03942e-22 4.04849e-11)
(4.63787e-08 -1.91457e-07 -5.03283e-25 -4.64249e-08 -8.95875e-24 4.62757e-11)
(5.30181e-08 -1.86624e-07 -7.50252e-24 -5.30676e-08 2.97405e-23 4.95116e-11)
(5.96566e-08 -1.81534e-07 1.07002e-20 -5.97118e-08 1.05636e-21 5.5191e-11)
(6.61734e-08 -1.75871e-07 -1.3588e-20 -6.62282e-08 -1.30078e-21 5.47959e-11)
(7.24987e-08 -1.6955e-07 -3.32167e-21 -7.25546e-08 -3.13096e-22 5.59006e-11)
(7.85857e-08 -1.62613e-07 -4.55965e-24 -7.86428e-08 1.71301e-23 5.704e-11)
(8.43805e-08 -1.55099e-07 -8.58196e-24 -8.44357e-08 9.95227e-24 5.5245e-11)
(8.9827e-08 -1.47032e-07 1.63729e-23 -8.98816e-08 -4.89122e-23 5.45754e-11)
(9.48615e-08 -1.38454e-07 -1.87581e-23 -9.49132e-08 -3.75922e-23 5.17652e-11)
(9.94261e-08 -1.294e-07 -2.52646e-20 -9.94764e-08 -2.4031e-21 5.02918e-11)
(1.03461e-07 -1.19938e-07 3.10831e-20 -1.03507e-07 3.16278e-21 4.59996e-11)
(1.06918e-07 -1.10134e-07 2.93973e-21 -1.06961e-07 1.97794e-22 4.28983e-11)
(1.0975e-07 -1.00066e-07 1.8235e-23 -1.0979e-07 -7.0285e-24 4.02117e-11)
(1.11915e-07 -8.98201e-08 1.78322e-23 -1.11949e-07 -7.42632e-24 3.48072e-11)
(1.13386e-07 -7.94828e-08 3.82844e-24 -1.13417e-07 -8.15141e-23 3.13663e-11)
(1.14142e-07 -6.91537e-08 -2.01423e-20 -1.14169e-07 -2.01514e-21 2.69614e-11)
(1.14177e-07 -5.8936e-08 -2.65237e-21 -1.14199e-07 -1.93062e-22 2.24415e-11)
(1.13494e-07 -4.89284e-08 1.27685e-21 -1.13513e-07 1.95607e-22 1.82021e-11)
(1.12115e-07 -3.92335e-08 2.29621e-20 -1.1213e-07 2.41351e-21 1.499e-11)
(1.10063e-07 -2.99307e-08 8.5916e-21 -1.10075e-07 5.41411e-22 1.1089e-11)
(1.07379e-07 -2.10891e-08 -9.18292e-20 -1.07385e-07 -9.6666e-21 6.22854e-12)
(1.04118e-07 -1.27823e-08 -1.61928e-20 -1.04128e-07 -1.43406e-21 1.00227e-11)
(1.00318e-07 -5.1262e-09 1.84197e-20 -1.00309e-07 1.79676e-21 -9.09827e-12)
(9.61538e-08 1.69654e-09 -8.87771e-20 -9.61775e-08 -9.40595e-21 2.36924e-11)
(9.15741e-08 7.48577e-09 3.15349e-20 -9.15282e-08 3.54187e-21 -4.58764e-11)
(8.69864e-08 1.2128e-08 -1.60612e-20 -8.70716e-08 -1.71177e-21 8.51715e-11)