/*--------------------------------*- C++ -*----------------------------------*\
| =========                 |                                                 |
| \\      /  F ield         | OpenFOAM: The Open Source CFD Toolbox           |
|  \\    /   O peration     | Version:  2506                                  |
|   \\  /    A nd           | Website:  www.openfoam.com                      |
|    \\/     M anipulation  |                                                 |
\*---------------------------------------------------------------------------*/
FoamFile
{
    version     2.0;
    format      ascii;
    arch        "LSB;label=32;scalar=64";
    class       volVectorField;
    location    "350";
    object      momentError;
}
// * * * * * * * * * * * * * * * * * * * * * * * * * * * * * * * * * * * * * //

dimensions      [0 1 -2 0 0 0 0];

internalField   nonuniform List<vector> 
1340
(
(0.000115056 1.17036e-05 1.26076e-15)
(-3.32084e-05 -2.77455e-05 -2.1651e-15)
(0.000296527 -0.000134065 -1.10575e-14)
(0.0021579 -0.00128027 -2.14934e-14)
(-1.91141e-05 6.36876e-06 -1.55055e-15)
(0.000155242 1.78207e-05 -6.62977e-17)
(0.000226034 8.81418e-06 3.77992e-15)
(0.0015455 0.00018854 9.20409e-15)
(0.000116447 2.46002e-05 3.80699e-17)
(-1.04392e-05 4.86282e-07 1.44749e-14)
(0.000180686 5.5435e-05 8.75124e-15)
(0.0012009 0.000205659 -1.03379e-13)
(-0.00032828 -0.00106488 7.59891e-15)
(0.000574914 0.00191096 -1.28756e-14)
(0.000207984 -0.000363659 -2.99218e-14)
(0.00106095 0.000228144 -1.04961e-16)
(0.00025511 0.00124671 -6.92582e-16)
(0.000107734 -0.00254465 1.0303e-14)
(0.000132999 0.000497472 -1.08703e-14)
(0.00103466 0.000121289 5.47995e-15)
(0.00019433 -5.92245e-05 -1.19166e-14)
(-0.000259373 0.000795714 3.44865e-15)
(0.000335245 -0.000276049 4.42069e-14)
(0.00129449 -0.000451433 3.10514e-14)
(-4.84584e-05 -0.000181175 7.24291e-15)
(7.93789e-05 -0.000123879 -1.53614e-15)
(0.000203814 8.19548e-05 -2.47854e-15)
(0.000670162 0.000394602 -4.22927e-14)
(4.69516e-05 -1.95018e-05 -3.42317e-15)
(9.24732e-05 1.74627e-05 -6.46851e-15)
(0.000185394 8.32404e-05 3.78714e-15)
(0.000276052 0.000591461 -2.25893e-14)
(4.01114e-05 -8.0791e-06 -1.10007e-15)
(9.12251e-05 -1.46988e-06 8.8909e-16)
(0.000203634 4.35301e-05 -8.1432e-15)
(0.000624404 0.000182043 7.93229e-15)
(4.15274e-05 -4.13119e-06 -4.81755e-16)
(9.12312e-05 6.12689e-06 -2.28726e-14)
(0.000198351 5.15672e-05 6.29564e-16)
(0.00050129 0.00023205 1.68675e-14)
(4.17327e-05 -9.45369e-07 2.33662e-15)
(8.99572e-05 8.82564e-06 2.05434e-14)
(0.000193388 5.19047e-05 7.87505e-15)
(0.000446475 0.000223586 -7.15143e-14)
(4.18509e-05 1.22695e-06 7.27921e-15)
(8.80357e-05 1.1959e-05 -4.67761e-15)
(0.000184904 5.69618e-05 -2.28054e-14)
(0.000384168 0.000231023 4.09795e-14)
(4.19044e-05 3.46383e-06 -1.25879e-14)
(8.60043e-05 1.50422e-05 4.02349e-15)
(0.000175403 6.14807e-05 2.53907e-14)
(0.000328725 0.000234159 6.16946e-14)
(4.18032e-05 5.50254e-06 7.45062e-16)
(8.34009e-05 1.80887e-05 2.62402e-15)
(0.000164475 6.63893e-05 -1.32535e-14)
(0.000278016 0.000236067 -6.3633e-15)
(4.15893e-05 7.70667e-06 7.28407e-16)
(8.06508e-05 2.13427e-05 -6.64016e-15)
(0.000152945 7.11869e-05 -2.43984e-14)
(0.00023254 0.000235293 -2.48131e-14)
(4.11236e-05 9.72839e-06 -1.03613e-15)
(7.72662e-05 2.45219e-05 4.81819e-16)
(0.000140587 7.56644e-05 1.92375e-14)
(0.000191977 0.000232327 4.77225e-14)
(4.04729e-05 1.20064e-05 3.09252e-15)
(7.37018e-05 2.78354e-05 -4.2458e-15)
(0.000128081 7.96281e-05 1.71489e-14)
(0.000156181 0.000227079 -1.92925e-14)
(3.94935e-05 1.40737e-05 1.59469e-15)
(6.95086e-05 3.09953e-05 7.50051e-15)
(0.000115214 8.2975e-05 3.8188e-15)
(0.000124712 0.000220239 -9.95256e-15)
(3.83284e-05 1.60946e-05 5.65216e-15)
(6.5172e-05 3.41119e-05 1.59039e-14)
(0.000102587 8.56308e-05 -1.01179e-14)
(9.7381e-05 0.000211576 -3.12923e-14)
(3.68393e-05 1.79608e-05 -9.50943e-15)
(6.02824e-05 3.70536e-05 -1.78577e-14)
(9.00272e-05 8.76406e-05 -1.32472e-14)
(7.38136e-05 0.000201894 1.15008e-14)
(3.51083e-05 2.00962e-05 5.55304e-15)
(5.52813e-05 4.01092e-05 4.16698e-15)
(7.80249e-05 8.88219e-05 1.99645e-14)
(5.3691e-05 0.000191075 1.62222e-14)
(3.29517e-05 2.21936e-05 -2.00708e-15)
(4.98659e-05 4.29658e-05 2.88749e-15)
(6.64675e-05 8.93576e-05 -5.29578e-15)
(3.65992e-05 0.000180032 -1.2603e-14)
(3.05957e-05 2.42445e-05 -7.49258e-18)
(4.45042e-05 4.53648e-05 -3.65824e-15)
(5.56352e-05 8.91762e-05 -1.08325e-14)
(2.21884e-05 0.00016857 -2.18472e-15)
(2.79241e-05 2.61958e-05 1.0195e-16)
(3.88713e-05 4.74583e-05 1.74205e-15)
(4.54177e-05 8.85373e-05 1.47811e-14)
(1.02346e-05 0.00015727 1.78733e-14)
(2.51177e-05 2.79905e-05 2.43623e-15)
(3.33776e-05 4.92202e-05 -5.3635e-15)
(3.60874e-05 8.70995e-05 -4.54222e-15)
(3.7103e-07 0.00014585 -1.11228e-14)
(2.20273e-05 2.97326e-05 -9.86579e-17)
(2.77594e-05 5.06276e-05 8.99597e-15)
(2.75536e-05 8.52129e-05 -1.18245e-14)
(-7.58154e-06 0.000134908 -1.96161e-14)
(1.88502e-05 3.12169e-05 4.49191e-15)
(2.24695e-05 5.13108e-05 -1.19973e-14)
(1.99425e-05 8.25747e-05 -2.31781e-15)
(-1.39958e-05 0.000124204 2.12688e-14)
(1.55521e-05 3.24976e-05 -8.96052e-15)
(1.72358e-05 5.15772e-05 2.83537e-15)
(1.31023e-05 7.95986e-05 1.39003e-15)
(-1.89516e-05 0.000114036 -9.70529e-15)
(1.23099e-05 3.33193e-05 7.5603e-15)
(1.2452e-05 5.11133e-05 -1.63783e-16)
(7.20211e-06 7.59421e-05 7.08277e-15)
(-2.27545e-05 0.000104146 1.40643e-14)
(9.11572e-06 3.39023e-05 -8.13981e-15)
(7.88069e-06 5.02701e-05 6.89127e-15)
(2.04712e-06 7.20676e-05 2.02214e-15)
(-2.54618e-05 9.48389e-05 4.63095e-16)
(6.07763e-06 3.40535e-05 -1.75605e-15)
(3.82262e-06 4.88433e-05 2.66435e-15)
(-2.22309e-06 6.76941e-05 1.10596e-15)
(-2.73419e-05 8.59272e-05 -9.27288e-15)
(3.23694e-06 3.39975e-05 7.90598e-15)
(3.82465e-08 4.71455e-05 -1.50048e-15)
(-5.84537e-06 6.3254e-05 -3.67967e-15)
(-2.84722e-05 7.7693e-05 -1.35903e-14)
(6.39273e-07 3.34966e-05 1.32757e-15)
(-3.15634e-06 4.49879e-05 -1.19613e-16)
(-8.70687e-06 5.85896e-05 1.74058e-15)
(-2.90705e-05 6.99195e-05 8.45898e-15)
(-1.68012e-06 3.28626e-05 -6.34269e-15)
(-6.00808e-06 4.26686e-05 -3.62239e-15)
(-1.10815e-05 5.40921e-05 -1.62718e-15)
(-2.91785e-05 6.28481e-05 9.13755e-15)
(-3.73997e-06 3.19595e-05 4.02135e-15)
(-8.28455e-06 4.01375e-05 4.77817e-15)
(-1.28231e-05 4.95888e-05 3.64616e-15)
(-2.89473e-05 5.62828e-05 -8.00844e-15)
(-5.48792e-06 3.09249e-05 -2.96924e-15)
(-1.02388e-05 3.76852e-05 -3.8736e-15)
(-1.4219e-05 4.53403e-05 -2.11711e-15)
(-2.84295e-05 5.04085e-05 1.06791e-14)
(-7.00997e-06 2.98307e-05 -1.8616e-15)
(-1.16503e-05 3.5042e-05 2.96588e-15)
(-1.50877e-05 4.12555e-05 1.36688e-15)
(-2.77294e-05 4.5002e-05 -3.06847e-15)
(-8.0761e-06 2.82028e-05 -7.37793e-16)
(-1.26814e-05 3.24478e-05 -3.03742e-15)
(-1.57768e-05 3.75479e-05 3.66988e-15)
(-2.6851e-05 4.02081e-05 -2.8505e-15)
(-8.38558e-06 2.31435e-05 4.84965e-15)
(-1.23929e-05 2.63547e-05 -2.38784e-16)
(-1.08756e-05 3.04942e-05 2.12464e-15)
(-1.63824e-05 3.37039e-05 -1.46882e-15)
(-2.57999e-05 3.5901e-05 -8.22426e-15)
(-8.97292e-06 2.20064e-05 -6.37965e-15)
(-1.28755e-05 2.48468e-05 1.84024e-15)
(-1.16877e-05 2.80556e-05 1.7178e-15)
(-1.6488e-05 3.05101e-05 -1.14237e-14)
(-2.47371e-05 3.2047e-05 1.80478e-15)
(-9.40032e-06 2.08049e-05 1.45763e-15)
(-1.328e-05 2.32268e-05 -3.21861e-16)
(-1.21077e-05 2.57595e-05 -8.76089e-16)
(-1.63308e-05 2.74922e-05 1.00867e-14)
(-2.35983e-05 2.85301e-05 6.41131e-15)
(-9.68452e-06 1.96476e-05 8.91746e-16)
(-1.35786e-05 2.16776e-05 -6.22663e-16)
(-1.2418e-05 2.36107e-05 -2.18192e-15)
(-1.60639e-05 2.47899e-05 -7.19005e-17)
(-2.24341e-05 2.54395e-05 1.13476e-16)
(-9.89375e-06 1.84357e-05 -3.52015e-15)
(-1.3603e-05 2.00915e-05 -3.48859e-15)
(-1.24286e-05 2.15364e-05 -3.82661e-15)
(-1.56111e-05 2.22712e-05 -2.07596e-15)
(-2.12401e-05 2.26181e-05 -2.49773e-15)
(-9.94657e-06 1.72112e-05 -1.43804e-15)
(-1.35431e-05 1.85333e-05 -4.17674e-16)
(-1.23806e-05 1.96494e-05 3.37724e-15)
(-1.51048e-05 2.00249e-05 1.12259e-15)
(-2.00563e-05 2.01566e-05 -6.51188e-15)
(-9.93982e-06 1.59674e-05 -4.27828e-15)
(-1.3311e-05 1.70436e-05 3.3966e-15)
(-1.21161e-05 1.78291e-05 1.87343e-15)
(-1.44528e-05 1.79462e-05 -1.79878e-15)
(-1.88569e-05 1.79173e-05 3.29882e-15)
(-9.82133e-06 1.47252e-05 1.24488e-15)
(-1.30006e-05 1.55906e-05 -1.67457e-15)
(-1.18216e-05 1.61508e-05 -5.73283e-16)
(-1.38212e-05 1.60994e-05 2.4097e-15)
(-1.77129e-05 1.5974e-05 5.67533e-15)
(-9.67163e-06 1.35175e-05 1.78147e-15)
(-1.26091e-05 1.41714e-05 -1.43831e-15)
(-1.13854e-05 1.45876e-05 -2.47514e-15)
(-1.30903e-05 1.44088e-05 -1.56048e-16)
(-1.65733e-05 1.42188e-05 -4.64056e-15)
(-9.42594e-06 1.23648e-05 -5.82954e-16)
(-1.21517e-05 1.28239e-05 8.8175e-17)
(-1.09559e-05 1.31958e-05 3.19974e-15)
(-1.24037e-05 1.29181e-05 -1.99215e-15)
(-1.55028e-05 1.27079e-05 1.26538e-15)
(-9.15401e-06 1.13082e-05 -2.29063e-15)
(-1.16646e-05 1.16338e-05 1.52023e-16)
(-1.04582e-05 1.19208e-05 3.73124e-15)
(-1.16502e-05 1.15736e-05 -3.2228e-15)
(-1.44356e-05 1.13482e-05 -2.51732e-15)
(-8.83219e-06 1.03369e-05 1.71925e-15)
(-1.11114e-05 1.05301e-05 4.62769e-16)
(-9.94596e-06 1.0779e-05 7.62279e-16)
(-1.09688e-05 1.03907e-05 6.05332e-16)
(-1.34628e-05 1.01691e-05 -9.63466e-16)
(-8.44875e-06 9.49183e-06 8.71195e-16)
(-1.05618e-05 9.50523e-06 -2.28043e-15)
(-9.40603e-06 9.73525e-06 -1.95368e-15)
(-1.02367e-05 9.31975e-06 1.88927e-15)
(-1.24813e-05 9.11114e-06 4.57297e-15)
(-8.17346e-06 8.54731e-06 -1.12015e-15)
(-9.69621e-06 8.67535e-06 3.02933e-15)
(-8.87366e-06 8.71567e-06 9.01223e-17)
(-9.56772e-06 8.37011e-06 -2.19522e-15)
(-1.15948e-05 8.17832e-06 2.81497e-15)
(-7.2051e-06 7.87686e-06 -2.12021e-15)
(-9.35743e-06 7.77887e-06 3.54618e-16)
(-7.77016e-06 8.19724e-06 1.34319e-15)
(-8.45834e-06 7.61332e-06 1.38538e-16)
(-8.85739e-06 7.52423e-06 -3.53605e-15)
(-1.06875e-05 7.33221e-06 -3.18212e-15)
(-6.73416e-06 7.09289e-06 1.27131e-15)
(-8.67994e-06 6.97088e-06 2.98488e-15)
(-7.18587e-06 7.36867e-06 6.32664e-17)
(-7.90811e-06 6.80184e-06 -3.07461e-15)
(-8.22647e-06 6.74502e-06 9.15998e-16)
(-9.96246e-06 6.61749e-06 -2.43819e-15)
(-6.20484e-06 6.31715e-06 -1.76701e-15)
(-8.1132e-06 6.21324e-06 -2.28286e-15)
(-6.8053e-06 6.55988e-06 1.03151e-15)
(-7.35384e-06 6.05649e-06 1.47181e-15)
(-7.66735e-06 6.02873e-06 -1.43043e-15)
(-9.19486e-06 5.96233e-06 2.62988e-16)
(-5.88061e-06 5.56817e-06 7.03668e-16)
(-7.52781e-06 5.46919e-06 -2.93928e-16)
(-6.21891e-06 5.78461e-06 6.38945e-17)
(-6.86179e-06 5.37744e-06 -1.1118e-16)
(-7.13045e-06 5.37722e-06 1.7473e-15)
(-8.6119e-06 5.3337e-06 5.85375e-16)
(-5.40045e-06 4.86678e-06 1.16529e-15)
(-6.96044e-06 4.76311e-06 6.73161e-16)
(-5.9253e-06 5.13955e-06 -2.22896e-15)
(-6.42267e-06 4.79366e-06 -1.42328e-15)
(-6.65549e-06 4.79784e-06 -1.08056e-15)
(-7.96987e-06 4.76803e-06 2.50076e-16)
(-5.14847e-06 4.24964e-06 -1.37793e-15)
(-6.56225e-06 4.2386e-06 -1.88538e-15)
(-5.49114e-06 4.57738e-06 -1.11307e-15)
(-5.97728e-06 4.29777e-06 2.91331e-15)
(-6.161e-06 4.28085e-06 3.96779e-16)
(-7.43362e-06 4.19436e-06 2.95022e-16)
(-4.85577e-06 3.71848e-06 -1.68284e-16)
(-6.11461e-06 3.67761e-06 1.19805e-15)
(-5.23974e-06 4.06961e-06 -6.8041e-16)
(-5.58105e-06 3.81833e-06 -5.54745e-16)
(-5.65932e-06 3.77687e-06 3.39664e-15)
(-6.81022e-06 3.68767e-06 -1.36977e-15)
(-4.67856e-06 3.20172e-06 1.84827e-15)
(-5.88056e-06 3.20938e-06 1.39737e-15)
(-4.89914e-06 3.54043e-06 -2.44655e-15)
(-5.09163e-06 3.29751e-06 7.58301e-16)
(-5.15277e-06 3.27842e-06 -9.80949e-16)
(-6.28238e-06 3.19285e-06 1.06875e-15)
(-4.6039e-06 2.7088e-06 -1.24003e-15)
(-5.32783e-06 2.74277e-06 7.9869e-16)
(-4.54144e-06 2.94699e-06 1.74164e-15)
(-4.69876e-06 2.78154e-06 -2.73673e-15)
(-4.7238e-06 2.82813e-06 1.41613e-15)
(-5.76025e-06 2.77192e-06 2.64393e-15)
(-4.00965e-06 2.31299e-06 -4.96608e-16)
(-5.21758e-06 2.22387e-06 4.34856e-16)
(-4.26267e-06 2.53613e-06 3.70483e-16)
(-4.2885e-06 2.37616e-06 -1.01379e-15)
(-4.32582e-06 2.38702e-06 1.37263e-16)
(-4.35602e-06 2.43468e-06 1.55234e-15)
(-5.36709e-06 2.44803e-06 5.71237e-17)
(-3.81601e-06 1.99469e-06 1.46593e-15)
(-4.8607e-06 1.87636e-06 1.99528e-15)
(-3.91351e-06 2.17521e-06 -1.83375e-15)
(-3.99297e-06 2.04961e-06 -1.12617e-16)
(-4.04262e-06 2.06052e-06 -6.98149e-16)
(-4.07331e-06 2.15811e-06 -7.65347e-16)
(-4.95593e-06 2.14095e-06 2.45355e-15)
(-3.53537e-06 1.69029e-06 -1.30466e-16)
(-4.48048e-06 1.54259e-06 -1.01757e-15)
(-3.71396e-06 1.86982e-06 -1.21598e-15)
(-3.74014e-06 1.76019e-06 2.6287e-15)
(-3.78185e-06 1.7953e-06 1.13566e-15)
(-3.75827e-06 1.868e-06 -3.14492e-15)
(-4.57248e-06 1.84021e-06 -2.31375e-15)
(-3.3504e-06 1.3939e-06 6.42596e-16)
(-4.18024e-06 1.24381e-06 -7.64183e-16)
(-3.44035e-06 1.57543e-06 2.20358e-16)
(-3.50713e-06 1.47752e-06 5.32796e-16)
(-3.51339e-06 1.507e-06 -1.09202e-15)
(-3.4585e-06 1.58133e-06 -2.18641e-15)
(-4.19582e-06 1.53436e-06 2.52195e-15)
(-3.08146e-06 1.15339e-06 2.81701e-15)
(-3.92701e-06 9.53342e-07 5.8374e-17)
(-3.27378e-06 1.31132e-06 -1.85316e-15)
(-3.27805e-06 1.19908e-06 1.48386e-16)
(-3.25623e-06 1.21876e-06 1.29667e-15)
(-3.16162e-06 1.28815e-06 5.96337e-16)
(-3.82743e-06 1.22203e-06 -4.78355e-16)
(-2.87877e-06 9.46512e-07 -3.4042e-16)
(-3.64599e-06 7.36225e-07 3.26192e-16)
(-3.00707e-06 1.04892e-06 -5.0116e-16)
(-3.02859e-06 9.13999e-07 -7.19081e-16)
(-2.97509e-06 9.23639e-07 4.86228e-16)
(-2.87221e-06 9.92066e-07 -1.13233e-15)
(-3.49742e-06 9.12844e-07 1.82913e-16)
(-2.69462e-06 7.73405e-07 1.68649e-15)
(-3.4927e-06 4.83615e-07 8.08922e-16)
(-2.83227e-06 8.44965e-07 2.24125e-16)
(-2.79523e-06 6.92315e-07 6.99887e-16)
(-2.75244e-06 7.02403e-07 -5.75995e-17)
(-2.65377e-06 7.62819e-07 8.10132e-16)
(-3.24455e-06 6.55485e-07 -3.77397e-17)
(-2.51095e-06 6.41225e-07 7.49283e-16)
(-3.23978e-06 3.71035e-07 1.82421e-15)
(-2.60679e-06 6.97318e-07 -5.75346e-16)
(-2.60219e-06 5.5433e-07 -1.08866e-15)
(-2.53097e-06 5.69772e-07 6.136e-16)
(-2.44017e-06 6.52646e-07 4.74149e-16)
(-2.99605e-06 5.37263e-07 4.45057e-16)
(-2.3115e-06 5.29455e-07 8.21067e-16)
(-2.98636e-06 2.38739e-07 -8.55052e-16)
(-2.43591e-06 5.64735e-07 -4.58453e-16)
(-2.41524e-06 4.38244e-07 7.71351e-16)
(-2.34254e-06 4.60966e-07 1.90997e-15)
(-2.23534e-06 5.64225e-07 -8.10416e-16)
(-2.7513e-06 4.49131e-07 -2.53905e-15)
(-2.21943e-06 3.77684e-07 -1.06437e-17)
(-2.65341e-06 1.92027e-07 -5.17752e-16)
(-2.22942e-06 3.94139e-07 1.24852e-17)
(-2.22917e-06 3.04607e-07 7.25991e-16)
(-2.1547e-06 3.24101e-07 -1.38608e-16)
(-2.03102e-06 4.34384e-07 -4.51176e-16)
(-2.51462e-06 3.36973e-07 6.02249e-16)
(-1.93252e-06 2.23462e-07 -1.44222e-15)
(-2.52548e-06 -4.32465e-08 -8.67107e-16)
(-2.00701e-06 2.60166e-07 -5.64586e-17)
(-2.08086e-06 1.35222e-07 4.67236e-16)
(-2.03997e-06 1.3559e-07 4.40508e-16)
(-1.97952e-06 1.48107e-07 1.3002e-15)
(-1.85024e-06 2.64864e-07 -6.24647e-16)
(-2.28984e-06 1.75818e-07 -1.53136e-15)
(-1.76661e-06 4.37105e-09 1.55504e-16)
(-2.30175e-06 -2.83324e-07 -3.97715e-17)
(-1.87469e-06 2.45024e-08 -5.04333e-16)
(-1.90614e-06 -7.49752e-08 1.23249e-15)
(-1.86989e-06 -6.29158e-08 3.81684e-16)
(-1.80907e-06 -4.20261e-08 -1.26857e-15)
(-1.68285e-06 7.80839e-08 -6.36917e-16)
(-2.0813e-06 -2.12994e-08 3.24241e-16)
(-1.6529e-06 -1.90389e-07 -9.35359e-16)
(-2.11406e-06 -4.58081e-07 4.77466e-18)
(-1.71231e-06 -1.76396e-07 3.80583e-16)
(-1.75712e-06 -2.63348e-07 -1.3729e-15)
(-1.71852e-06 -2.46981e-07 2.71003e-15)
(-1.65648e-06 -2.19734e-07 -3.04034e-16)
(-1.52925e-06 -9.60477e-08 -1.15039e-15)
(-1.90102e-06 -2.29485e-07 1.03811e-15)
(-1.48008e-06 -3.00196e-07 5.25173e-17)
(-1.99859e-06 -6.35893e-07 5.93273e-16)
(-1.59298e-06 -2.98164e-07 7.4488e-16)
(-1.61584e-06 -3.936e-07 -1.08849e-15)
(-1.57997e-06 -3.70154e-07 1.20607e-15)
(-1.5181e-06 -3.35464e-07 -6.35093e-16)
(-1.39093e-06 -2.09764e-07 -1.47682e-15)
(-1.71076e-06 -3.34743e-07 1.68981e-15)
(-1.35482e-06 -3.9855e-07 1.74303e-16)
(-1.83241e-06 -7.35419e-07 6.63987e-16)
(-1.4629e-06 -4.14627e-07 1.31549e-15)
(-1.50911e-06 -5.16672e-07 -2.56972e-17)
(-1.47788e-06 -5.00694e-07 -1.89751e-15)
(-1.41762e-06 -4.70569e-07 5.56134e-16)
(-1.29134e-06 -3.44974e-07 -5.4806e-16)
(-1.62601e-06 -5.49179e-07 -3.61704e-16)
(-1.21242e-06 -3.47808e-07 -6.26383e-16)
(-1.69239e-06 -7.0493e-07 -9.79144e-16)
(-1.37581e-06 -3.47807e-07 3.07392e-16)
(-1.39894e-06 -4.30111e-07 1.49012e-15)
(-1.3759e-06 -4.0417e-07 2.82965e-16)
(-1.32005e-06 -3.65683e-07 -5.88851e-16)
(-1.19193e-06 -2.46946e-07 1.33254e-16)
(-1.42549e-06 -3.32265e-07 8.44359e-16)
(-1.22767e-06 -5.89558e-07 1.59281e-15)
(-1.64313e-06 -9.04427e-07 4.65319e-16)
(-1.35152e-06 -6.05914e-07 -1.30974e-15)
(-1.38925e-06 -7.09017e-07 1.39638e-16)
(-1.36355e-06 -6.9316e-07 -9.35934e-16)
(-1.30705e-06 -6.58203e-07 -3.36787e-16)
(-1.18931e-06 -5.17838e-07 1.74064e-15)
(-1.56797e-06 -8.19646e-07 -1.12694e-16)
(-1.02041e-06 8.65962e-08 -1.0542e-15)
(-1.42834e-06 -3.50595e-07 -4.73455e-16)
(-1.1887e-06 1.28639e-07 1.00522e-15)
(-1.19106e-06 7.30141e-08 -4.35879e-16)
(-1.1696e-06 1.09665e-07 -3.6325e-16)
(-1.11155e-06 1.44893e-07 1.22526e-15)
(-9.56941e-07 2.52243e-07 -8.85022e-17)
(-9.94956e-07 3.99043e-07 -8.55007e-16)
(-9.88645e-07 -1.43424e-06 -6.32232e-16)
(-1.1737e-06 -1.79342e-06 -1.25384e-15)
(-1.04867e-06 -1.58941e-06 -6.62622e-16)
(-1.02861e-06 -1.68085e-06 2.37668e-15)
(-9.90156e-07 -1.67236e-06 -1.31038e-16)
(-9.36401e-07 -1.61318e-06 -6.26958e-16)
(-8.74087e-07 -1.38726e-06 -8.63923e-16)
(-1.23547e-06 -1.7655e-06 -3.35972e-15)
(-0.0289193 -0.011588 -1.46521e-14)
(0.0057714 0.00352083 1.77517e-14)
(0.00303552 0.003715 -9.39166e-14)
(0.00157494 0.00310224 1.65255e-14)
(0.000712024 0.00261342 3.68625e-14)
(0.000542239 0.00259271 -1.7818e-14)
(0.000637349 0.00220116 -5.62085e-14)
(0.000388695 0.00168825 3.64417e-15)
(0.000313406 0.00163803 4.87583e-15)
(0.000254209 0.00143502 -2.55685e-14)
(0.000195245 0.00125861 -1.26921e-14)
(0.000147538 0.00110041 3.63801e-14)
(0.000107193 0.000960394 5.63698e-14)
(7.35071e-05 0.000837199 -3.54013e-14)
(4.54053e-05 0.000728524 2.21712e-14)
(2.23449e-05 0.000633893 9.86924e-15)
(3.42032e-06 0.000551019 -4.6848e-14)
(-1.17665e-05 0.000479418 3.68867e-14)
(-2.38833e-05 0.000416711 -5.086e-14)
(-3.32156e-05 0.000362841 3.02249e-14)
(-4.03804e-05 0.000316268 -8.07054e-15)
(-4.55761e-05 0.000276468 1.88468e-15)
(-4.92592e-05 0.00024177 1.08751e-14)
(-5.15644e-05 0.000212111 -9.95743e-15)
(-5.28883e-05 0.000186349 -2.99939e-15)
(-5.32985e-05 0.000164256 -4.26658e-15)
(-5.30995e-05 0.000144795 1.61465e-14)
(-5.23075e-05 0.000127897 -1.03339e-14)
(-5.1174e-05 0.000112863 1.22516e-14)
(-4.96585e-05 9.97081e-05 2.20421e-15)
(-4.7991e-05 8.79464e-05 -1.4044e-14)
(-4.61096e-05 7.76284e-05 -1.2307e-14)
(-4.42106e-05 6.83954e-05 1.19068e-14)
(-4.22042e-05 6.03195e-05 8.64853e-15)
(-4.02619e-05 5.30917e-05 -2.95958e-15)
(-3.82845e-05 4.6792e-05 5.99344e-15)
(-3.63652e-05 4.11724e-05 -1.71109e-15)
(-3.44467e-05 3.63096e-05 -1.18979e-14)
(-3.2714e-05 3.18848e-05 3.52815e-15)
(-3.09368e-05 2.80483e-05 -2.02813e-16)
(-2.92961e-05 2.45737e-05 -7.94724e-16)
(-2.76146e-05 2.15798e-05 6.57857e-15)
(-2.60915e-05 1.88682e-05 -4.84532e-15)
(-2.45209e-05 1.65442e-05 -8.18271e-16)
(-2.31106e-05 1.44505e-05 7.70593e-16)
(-2.16704e-05 1.26686e-05 5.9179e-15)
(-2.03872e-05 1.10736e-05 -2.64773e-15)
(-1.90677e-05 9.7207e-06 5.59108e-15)
(-1.7893e-05 8.51073e-06 -1.04806e-15)
(-1.67057e-05 7.47333e-06 1.48383e-15)
(-1.56246e-05 6.54441e-06 1.41623e-15)
(-1.45266e-05 5.73306e-06 2.88976e-16)
(-1.35379e-05 5.0725e-06 1.53615e-15)
(-1.25997e-05 4.51176e-06 1.86664e-15)
(-1.17423e-05 4.00395e-06 -1.04596e-15)
(-1.09591e-05 3.52992e-06 -3.69651e-16)
(-1.02693e-05 3.00602e-06 -1.36938e-15)
(-9.59021e-06 2.51712e-06 1.99274e-15)
(-8.98888e-06 1.99007e-06 -3.96596e-15)
(-8.36843e-06 1.59232e-06 1.23547e-15)
(-7.82976e-06 1.22885e-06 -4.68308e-15)
(-7.29105e-06 9.25176e-07 -2.02107e-15)
(-6.77599e-06 6.63007e-07 1.71069e-16)
(-6.28657e-06 3.75751e-07 3.04084e-15)
(-5.81674e-06 8.12635e-08 3.48992e-15)
(-5.37246e-06 -2.02747e-07 -7.68498e-16)
(-4.97573e-06 -4.92255e-07 -2.94983e-15)
(-4.76678e-06 -7.81978e-07 -1.35041e-15)
(-4.4816e-06 -9.00997e-07 1.87346e-15)
(-4.20395e-06 -1.01201e-06 5.28617e-15)
(-3.94792e-06 -1.12344e-06 -2.39364e-15)
(-3.71134e-06 -1.26653e-06 2.02686e-15)
(-3.46953e-06 -1.43836e-06 -1.7006e-15)
(-3.24793e-06 -1.66433e-06 -7.0234e-16)
(-2.97199e-06 -1.70392e-06 -8.05735e-16)
(-2.92204e-06 -2.07148e-06 3.8173e-15)
(-2.53872e-06 -1.5154e-06 -3.98564e-16)
(-3.0556e-06 -2.71325e-06 2.29192e-16)
(-1.79173e-06 -2.5586e-07 8.96873e-16)
(-2.44095e-06 -4.49376e-06 9.78994e-15)
(-0.0208355 -0.000357988 3.8784e-15)
(-0.00380289 0.000477577 -4.31408e-15)
(-0.00168076 0.000695905 1.90309e-14)
(-0.00126555 0.000931713 -3.9817e-15)
(-0.00138619 0.00027876 -6.10733e-15)
(-0.000953103 0.000605197 1.92088e-15)
(-0.000822645 0.0012792 1.03849e-14)
(-0.000793412 0.000793604 -6.26935e-16)
(-0.000715386 0.000701162 -7.38916e-16)
(-0.000635581 0.000654124 3.53047e-15)
(-0.000564587 0.000606179 3.86446e-15)
(-0.000501031 0.00055954 -7.55563e-15)
(-0.000444217 0.000514583 -1.00679e-14)
(-0.000393323 0.000470843 6.31434e-15)
(-0.000348172 0.000429034 -3.51208e-15)
(-0.000308006 0.000389066 -2.51103e-15)
(-0.000272663 0.000351318 7.9059e-15)
(-0.000241414 0.000315845 -6.18788e-15)
(-0.000214125 0.000282772 9.16805e-15)
(-0.000190094 0.000252336 -5.81929e-15)
(-0.000169186 0.000224521 1.02456e-15)
(-0.000150782 0.00019942 -1.89166e-16)
(-0.000134811 0.000176736 -1.44331e-15)
(-0.000120733 0.000156621 8.80395e-16)
(-0.00010848 0.000138632 8.80584e-16)
(-9.76412e-05 0.000122779 1.41204e-15)
(-8.81996e-05 0.00010865 -3.25469e-15)
(-7.98144e-05 9.6186e-05 2.13337e-15)
(-7.24845e-05 8.50074e-05 -2.63769e-15)
(-6.59416e-05 7.5122e-05 -1.367e-16)
(-6.02099e-05 6.6238e-05 2.3004e-15)
(-5.50738e-05 5.83936e-05 2.41282e-15)
(-5.05653e-05 5.13373e-05 -2.59802e-15)
(-4.65044e-05 4.51424e-05 -1.28333e-15)
(-4.29159e-05 3.95735e-05 1.29672e-15)
(-3.96723e-05 3.47053e-05 -1.35366e-15)
(-3.67921e-05 3.03118e-05 1.47435e-16)
(-3.39485e-05 2.65978e-05 1.87525e-15)
(-3.15398e-05 2.31915e-05 -4.0404e-16)
(-2.93555e-05 2.02031e-05 4.42824e-16)
(-2.73851e-05 1.74983e-05 6.25552e-16)
(-2.55398e-05 1.51596e-05 -1.92693e-15)
(-2.38703e-05 1.30641e-05 9.36396e-16)
(-2.22775e-05 1.12675e-05 4.48748e-16)
(-2.08378e-05 9.67665e-06 -1.11701e-15)
(-1.9459e-05 8.32029e-06 -7.93084e-16)
(-1.82116e-05 7.13615e-06 8.67926e-17)
(-1.69902e-05 6.12266e-06 -2.06577e-16)
(-1.58952e-05 5.23706e-06 -3.61013e-16)
(-1.48215e-05 4.46001e-06 6.51173e-16)
(-1.38581e-05 3.77484e-06 -6.80045e-16)
(-1.28378e-05 3.20677e-06 1.20891e-15)
(-1.19906e-05 2.73189e-06 2.6018e-16)
(-1.10873e-05 2.36707e-06 -1.44145e-16)
(-1.03194e-05 2.04698e-06 4.2776e-16)
(-9.52261e-06 1.77944e-06 9.34465e-16)
(-8.87017e-06 1.45949e-06 2.08979e-16)
(-8.25051e-06 1.10585e-06 1.31803e-16)
(-7.72823e-06 7.54225e-07 1.87786e-15)
(-7.26105e-06 4.16082e-07 -1.41443e-15)
(-6.75656e-06 1.63938e-07 -7.77827e-16)
(-6.2877e-06 -5.87805e-08 -1.48488e-15)
(-5.84016e-06 -2.64487e-07 -9.69585e-16)
(-5.39282e-06 -4.67117e-07 -2.74763e-15)
(-4.98291e-06 -6.84541e-07 -8.19296e-16)
(-4.6122e-06 -8.91894e-07 -2.07362e-16)
(-4.27761e-06 -1.0814e-06 6.69802e-16)
(-4.15811e-06 -1.3057e-06 5.13578e-16)
(-3.92746e-06 -1.42198e-06 -9.12861e-16)
(-3.69786e-06 -1.51098e-06 -2.93816e-16)
(-3.47296e-06 -1.59875e-06 8.62387e-16)
(-3.28018e-06 -1.71797e-06 -3.37773e-16)
(-3.08528e-06 -1.83876e-06 -5.07719e-16)
(-2.92e-06 -1.98702e-06 7.98428e-16)
(-2.72563e-06 -1.9965e-06 5.8865e-17)
(-2.6502e-06 -2.26136e-06 -5.37268e-16)
(-2.43575e-06 -1.81546e-06 1.16851e-15)
(-2.7499e-06 -2.80833e-06 -2.37693e-16)
(-2.00497e-06 -9.40803e-07 -1.53253e-16)
(-1.95937e-06 -4.58645e-06 4.13614e-16)
(-0.00261912 -0.00115655 -1.25443e-16)
(-0.00120498 -0.00101974 -7.03043e-17)
(-0.000830529 -0.000872769 -8.53925e-17)
(-0.000854514 -0.000696648 1.09607e-16)
(-0.000896186 -0.000637115 -2.41367e-16)
(-0.000816656 -0.000694231 -1.69547e-16)
(-0.000789166 -0.000582012 1.61965e-17)
(-0.00074058 -0.000407553 -2.08815e-16)
(-0.000697864 -0.000347257 -2.36663e-16)
(-0.00064968 -0.000283362 1.07831e-16)
(-0.000603237 -0.000223778 -2.45468e-16)
(-0.000557956 -0.000171171 -2.05156e-16)
(-0.000514269 -0.000125057 1.78251e-16)
(-0.000472315 -8.55069e-05 3.57746e-16)
(-0.000432424 -5.19122e-05 -1.90592e-16)
(-0.000394632 -2.40166e-05 1.89408e-16)
(-0.000359158 -1.09344e-06 9.72934e-17)
(-0.000325944 1.70951e-05 -1.27927e-17)
(-0.00029512 3.1233e-05 -3.79872e-17)
(-0.000266576 4.18963e-05 1.52397e-16)
(-0.00024036 4.96344e-05 7.16409e-16)
(-0.000216324 5.4972e-05 -3.43076e-17)
(-0.000194471 5.81415e-05 2.03563e-16)
(-0.000174613 5.97814e-05 8.67001e-17)
(-0.000156701 6.00572e-05 -1.12864e-16)
(-0.000140556 5.93522e-05 -1.89426e-16)
(-0.000126117 5.77382e-05 -4.93165e-16)
(-0.000113185 5.55291e-05 -8.84002e-18)
(-0.000101675 5.27909e-05 1.30415e-18)
(-9.14156e-05 4.97464e-05 1.85344e-16)
(-8.23316e-05 4.6448e-05 2.37434e-16)
(-7.42709e-05 4.30815e-05 -1.10045e-15)
(-6.71441e-05 3.96719e-05 -1.24158e-15)
(-6.08296e-05 3.63498e-05 -6.14924e-16)
(-5.52365e-05 3.31084e-05 2.37205e-16)
(-5.02883e-05 3.00566e-05 6.74081e-16)
(-4.59016e-05 2.71101e-05 1.85847e-18)
(-4.19119e-05 2.44151e-05 1.51633e-16)
(-3.83858e-05 2.18608e-05 4.91907e-16)
(-3.52571e-05 1.95373e-05 5.03407e-16)
(-3.24177e-05 1.73516e-05 4.43953e-17)
(-2.98841e-05 1.54059e-05 -2.36038e-16)
(-2.75636e-05 1.36019e-05 -1.62166e-16)
(-2.54781e-05 1.20224e-05 -7.96158e-16)
(-2.3556e-05 1.05858e-05 -1.40172e-15)
(-2.18285e-05 9.34007e-06 -6.92579e-16)
(-2.02212e-05 8.22503e-06 -2.66302e-16)
(-1.87586e-05 7.25666e-06 9.38585e-16)
(-1.7404e-05 6.39147e-06 1.38107e-15)
(-1.61676e-05 5.62376e-06 -3.27006e-17)
(-1.50239e-05 4.9271e-06 4.27587e-16)
(-1.39305e-05 4.31591e-06 -1.5452e-15)
(-1.2929e-05 3.79829e-06 -1.20158e-15)
(-1.19765e-05 3.37379e-06 1.63417e-16)
(-1.10368e-05 3.05055e-06 -8.58555e-16)
(-1.01738e-05 2.75048e-06 -2.68487e-16)
(-9.33896e-06 2.46124e-06 -3.01905e-16)
(-8.6328e-06 2.11583e-06 6.05273e-16)
(-8.01161e-06 1.74222e-06 2.97683e-15)
(-7.47048e-06 1.36845e-06 5.4851e-16)
(-6.95861e-06 1.0283e-06 3.3093e-15)
(-6.46915e-06 7.58208e-07 1.4099e-16)
(-5.98114e-06 5.17776e-07 3.43959e-16)
(-5.52102e-06 2.6943e-07 -1.47838e-15)
(-5.09025e-06 1.95662e-08 -2.43403e-16)
(-4.70379e-06 -2.22482e-07 8.26633e-16)
(-4.36031e-06 -4.49656e-07 -3.29706e-16)
(-4.19821e-06 -6.91969e-07 6.27235e-16)
(-3.95083e-06 -8.19562e-07 -2.15468e-16)
(-3.71566e-06 -9.34758e-07 -6.75804e-16)
(-3.47826e-06 -1.0471e-06 -9.31629e-16)
(-3.24865e-06 -1.1973e-06 4.86608e-16)
(-3.02983e-06 -1.36541e-06 1.62729e-15)
(-2.85166e-06 -1.56016e-06 -1.57748e-15)
(-2.68195e-06 -1.61683e-06 5.89796e-17)
(-2.54063e-06 -1.88463e-06 -1.02053e-16)
(-2.44334e-06 -1.47945e-06 -2.623e-15)
(-2.60072e-06 -2.41943e-06 2.06793e-15)
(-2.12829e-06 -6.51522e-07 -2.08185e-17)
(-1.68225e-06 -4.05319e-06 -3.54642e-15)
(-0.00112721 -0.000488797 2.70613e-17)
(-0.000619398 -0.000399061 -3.34716e-17)
(-0.000325397 -0.000338441 2.8979e-18)
(-0.000257833 -0.000301932 -6.76683e-17)
(-0.000273056 -0.000326609 2.68868e-17)
(-0.000281533 -0.000330601 1.93633e-17)
(-0.000275463 -0.000308651 -1.76151e-17)
(-0.00028272 -0.000294965 -1.54362e-17)
(-0.000287061 -0.000282449 -1.57899e-16)
(-0.000288054 -0.000267427 -7.85092e-18)
(-0.000287296 -0.000249484 1.3725e-16)
(-0.000284676 -0.000230314 -1.08925e-17)
(-0.000280256 -0.000210028 5.45842e-17)
(-0.000274114 -0.000189731 -1.59597e-17)
(-0.000266455 -0.000169237 -3.71794e-19)
(-0.000257405 -0.000149294 -1.82607e-16)
(-0.000247217 -0.000129741 -3.46999e-16)
(-0.000236039 -0.000111221 -3.55235e-16)
(-0.000224129 -9.37427e-05 1.66738e-16)
(-0.000211673 -7.75113e-05 -2.76162e-17)
(-0.000198905 -6.25762e-05 5.20261e-16)
(-0.000185984 -4.88739e-05 -1.31814e-16)
(-0.000173104 -3.6622e-05 -3.68052e-16)
(-0.000160434 -2.56973e-05 2.92338e-16)
(-0.0001481 -1.62429e-05 -5.09548e-17)
(-0.000136234 -8.08463e-06 5.96687e-18)
(-0.000124915 -1.28117e-06 -1.22712e-16)
(-0.000114244 4.31458e-06 -2.48822e-17)
(-0.000104232 8.66997e-06 4.52351e-17)
(-9.49433e-05 1.19918e-05 9.61584e-17)
(-8.63667e-05 1.43212e-05 4.51172e-16)
(-7.85206e-05 1.58781e-05 5.01547e-17)
(-7.13532e-05 1.67287e-05 3.21474e-16)
(-6.48532e-05 1.70721e-05 -2.00874e-16)
(-5.89581e-05 1.69457e-05 8.13821e-18)
(-5.36449e-05 1.6529e-05 7.78897e-17)
(-4.88665e-05 1.58057e-05 -5.12895e-16)
(-4.45124e-05 1.49636e-05 -1.94814e-16)
(-4.06096e-05 1.39548e-05 4.20346e-16)
(-3.7107e-05 1.29226e-05 -7.06549e-17)
(-3.39415e-05 1.18136e-05 -1.7847e-16)
(-3.11042e-05 1.07581e-05 4.92086e-16)
(-2.85324e-05 9.69763e-06 6.3033e-16)
(-2.62218e-05 8.73981e-06 7.65265e-16)
(-2.41232e-05 7.81859e-06 4.08747e-16)
(-2.22408e-05 7.00805e-06 1.88721e-16)
(-2.05153e-05 6.25216e-06 9.26142e-16)
(-1.89558e-05 5.5902e-06 -1.86339e-16)
(-1.75291e-05 4.97598e-06 -1.83821e-16)
(-1.62395e-05 4.42222e-06 -1.60868e-15)
(-1.50545e-05 3.90859e-06 2.98983e-16)
(-1.39549e-05 3.42389e-06 1.84176e-15)
(-1.29453e-05 3.01614e-06 -1.68116e-15)
(-1.19904e-05 2.65421e-06 -2.64772e-16)
(-1.10694e-05 2.38374e-06 2.50065e-16)
(-1.0162e-05 2.17374e-06 -7.8969e-16)
(-9.31085e-06 1.9592e-06 2.91545e-16)
(-8.52001e-06 1.74541e-06 -1.46667e-15)
(-7.85539e-06 1.46927e-06 -1.69828e-15)
(-7.28081e-06 1.15959e-06 -1.53523e-16)
(-6.74824e-06 8.65573e-07 -1.6981e-15)
(-6.24696e-06 6.0212e-07 4.94817e-17)
(-5.77065e-06 3.7447e-07 -3.89787e-16)
(-5.31148e-06 1.56459e-07 3.97935e-15)
(-4.89383e-06 -7.20787e-08 6.34477e-16)
(-4.53031e-06 -2.91576e-07 -8.29931e-17)
(-4.1982e-06 -4.96091e-07 5.6846e-16)
(-4.03653e-06 -7.21192e-07 -3.03863e-16)
(-3.78359e-06 -8.36277e-07 7.13141e-16)
(-3.5476e-06 -9.46324e-07 2.04479e-15)
(-3.31627e-06 -1.06364e-06 1.64687e-15)
(-3.08995e-06 -1.20989e-06 1.23139e-15)
(-2.87829e-06 -1.36039e-06 4.16485e-16)
(-2.71159e-06 -1.53755e-06 4.68275e-17)
(-2.56415e-06 -1.60823e-06 -2.15146e-18)
(-2.41292e-06 -1.86207e-06 5.31765e-16)
(-2.35626e-06 -1.46842e-06 -4.1149e-15)
(-2.48421e-06 -2.38519e-06 -3.44181e-15)
(-2.05728e-06 -6.81944e-07 5.97691e-17)
(-1.64418e-06 -3.9557e-06 5.79042e-16)
(-0.000435385 -0.00032929 9.00444e-17)
(0.000103536 -0.000193143 4.69758e-17)
(-0.000335826 -0.00022451 -6.60024e-18)