/*--------------------------------*- C++ -*----------------------------------*\
| =========                 |                                                 |
| \\      /  F ield         | OpenFOAM: The Open Source CFD Toolbox           |
|  \\    /   O peration     | Version:  2506                                  |
|   \\  /    A nd           | Website:  www.openfoam.com                      |
|    \\/     M anipulation  |                                                 |
\*---------------------------------------------------------------------------*/
FoamFile
{
    version     2.0;
    format      ascii;
    arch        "LSB;label=32;scalar=64";
    class       volScalarField;
    location    "350";
    object      p;
}
// * * * * * * * * * * * * * * * * * * * * * * * * * * * * * * * * * * * * * //

dimensions      [0 2 -2 0 0 0 0];

internalField   nonuniform List<scalar> 
1340
(
6.96962
15.2152
29.1382
52.827
7.87186
15.9847
29.829
52.587
8.5799
16.6045
30.3144
52.1908
9.25619
17.182
30.7188
51.7464
9.99273
17.8265
31.154
51.2934
10.837
18.5156
31.5742
50.8008
11.559
19.1121
31.8971
50.2337
12.4194
19.8023
32.2461
49.6647
13.2201
20.4288
32.5132
49.036
14.0749
21.0834
32.7612
48.377
14.9224
21.7164
32.9611
47.6825
15.789
22.3474
33.1255
46.9575
16.6588
22.9643
33.2499
46.2044
17.5352
23.5695
33.3384
45.4272
18.4127
24.1588
33.3911
44.6297
19.2893
24.7311
33.4106
43.8159
20.1613
25.2843
33.3988
42.9897
21.0255
25.8166
33.3584
42.1561
21.8781
26.3266
33.2918
41.3196
22.7156
26.8127
33.2017
40.4844
23.5341
27.2736
33.091
39.6553
24.3297
27.708
32.9622
38.8368
25.0985
28.115
32.818
38.0329
25.8364
28.4934
32.6607
37.2476
26.5395
28.8421
32.4925
36.4845
27.2038
29.1603
32.3152
35.7464
27.8252
29.4468
32.1301
35.0358
28.4001
29.7006
31.9386
34.3545
28.9246
29.9206
31.7411
33.7035
29.3954
30.1056
31.538
33.0832
29.8091
30.2543
31.3289
32.4931
30.1628
30.3654
31.1133
31.9323
30.4538
30.4374
30.89
31.399
30.6801
30.469
30.6576
30.8907
30.8399
30.4588
30.4145
30.4046
30.932
30.4055
30.1586
29.9374
30.9558
30.3079
29.8877
29.4854
30.9112
30.1651
29.5998
29.0448
31.8189
30.7988
29.9766
29.2926
28.6115
31.6477
30.6198
29.7418
28.964
28.1817
31.3986
30.376
29.461
28.6122
27.7516
31.0758
30.0697
29.1345
28.2356
27.3174
30.6839
29.7039
28.7634
27.8329
26.876
30.228
29.282
28.3488
27.4033
26.4244
29.7136
28.8077
27.8927
26.9464
25.9603
29.1463
28.2852
27.3972
26.4622
25.4817
28.532
27.719
26.865
25.9514
24.9872
27.8766
27.1136
26.2989
25.4148
24.4759
27.1858
26.4737
25.7021
24.8538
23.9475
26.4653
25.804
25.0779
24.2702
23.402
25.7205
25.1092
24.4299
23.666
22.8402
24.9566
24.3939
23.7617
23.0435
22.2629
24.6361
24.1785
23.6624
23.0768
22.4053
21.6716
23.8051
23.3907
22.919
22.3788
21.7539
21.068
22.9719
22.5974
22.1675
21.6711
21.0922
20.4538
22.1402
21.8025
21.4116
20.957
20.4227
19.8312
21.3134
21.0093
20.6549
20.2397
19.7483
19.2022
20.4946
20.2211
19.9004
19.5222
19.0716
18.5691
19.6862
19.4407
19.1509
18.8071
18.395
17.9341
18.8907
18.6705
18.409
18.0972
17.7212
17.2993
18.11
17.9126
17.6771
17.3947
17.0522
16.667
17.4925
17.3458
17.169
16.957
16.7016
16.3902
16.0393
16.73
16.5994
16.4413
16.2507
16.0201
15.7373
15.4182
15.9882
15.8722
15.7309
15.5597
15.3517
15.0953
14.8055
15.2683
15.1654
15.0392
14.8856
14.6981
14.4659
14.2032
14.5706
14.4794
14.367
14.2294
14.0607
13.8505
13.6127
13.8966
13.8161
13.716
13.5929
13.4413
13.2513
13.0364
13.3494
13.276
13.1842
13.0708
12.9305
12.7542
12.5546
12.8933
12.8246
12.7383
12.6312
12.4986
12.3311
12.1417
12.4252
12.3613
12.2805
12.1799
12.0548
11.8963
11.7172
11.9469
11.8881
11.8131
11.7192
11.6019
11.4525
11.2836
11.5003
11.4608
11.4071
11.338
11.2509
11.1416
11.0016
10.8434
11.0068
10.9728
10.9248
10.8619
10.7817
10.6801
10.5486
10.3986
10.5033
10.4761
10.436
10.3819
10.3116
10.2214
10.104
9.97407
10.0162
9.99072
9.95231
9.90052
9.83348
9.74688
9.62903
9.4838
9.54604
9.54494
9.53062
9.50187
9.4574
9.39764
9.32561
9.27414
8.88002
8.85445
8.82151
8.78115
8.72926
8.6521
8.51496
8.27565
9.22434
9.26844
9.29038
9.29207
9.28126
9.28254
9.35049
9.59375
6.20909
6.19891
6.19673
6.19776
6.18401
6.10229
5.84461
5.23513
12.5362
12.6144
12.6608
12.6916
12.7392
12.8861
13.2571
14.0562
106.562
103.438
99.8988
96.1803
92.3736
88.5638
84.8137
81.1717
77.6208
74.1885
70.8753
67.6915
64.6436
61.7372
58.9762
56.363
53.8987
51.5831
49.4142
47.3888
45.5025
43.7501
42.1255
40.6221
39.2327
37.9501
36.7669
35.676
34.6702
33.7424
32.8862
32.0949
31.3622
30.6821
30.0484
29.4555
28.8975
28.369
27.8644
27.3786
26.9065
26.4435
25.9852
25.5276
25.0671
24.6008
24.1261
23.6409
23.1439
22.6341
22.111
21.5746
21.0256
20.4646
19.8928
19.3119
18.7234
18.1292
17.5313
16.9316
16.3322
15.735
15.142
14.5551
13.9764
13.4071
12.8507
12.3826
11.9789
11.5641
11.14
10.71
10.2716
9.86618
9.35485
9.2342
8.06599
9.7663
4.82042
14.3928
47.3222
47.5272
47.9116
48.2553
48.5279
48.7028
48.7695
48.7216
48.5564
48.283
47.9015
47.4193
46.843
46.1803
45.4404
44.6333
43.7694
42.8594
41.9149
40.947
39.9667
38.9839
38.0082
37.048
36.1107
35.202
34.3267
33.4884
32.689
31.9296
31.2104
30.5306
29.8884
29.2819
28.7085
28.1651
27.6484
27.1551
26.6815
26.224
25.7789
25.3427
24.9118
24.4829
24.0531
23.6194
23.1796
22.7315
22.2735
21.8044
21.3234
20.8301
20.3247
19.8074
19.2792
18.741
18.1942
17.6404
17.0811
16.5183
15.9537
15.3893
14.8271
14.2689
13.7168
13.1722
12.6385
12.1886
11.8
11.4001
10.9903
10.5745
10.149
9.75856
9.25739
9.15105
8.00453
9.65459
4.90777
14.0534
29.4244
29.5136
29.5995
29.6756
29.771
29.8868
30.0252
30.1816
30.3534
30.5352
30.72
30.9023
31.0748
31.2314
31.3656
31.4715
31.5438
31.578
31.5705
31.519
31.4221
31.2797
31.0928
30.8639
30.5962
30.2935
29.9607
29.6027
29.2247
28.8316
28.4282
28.0187
27.6069
27.1958
26.7876
26.384
25.9858
25.5933
25.2063
24.8239
24.4451
24.0683
23.6919
23.3139
22.9327
22.5462
22.1529
21.751
21.3393
20.9167
20.4823
20.0357
19.5768
19.1058
18.6232
18.1298
17.6266
17.1149
16.5962
16.0721
15.5442
15.0146
14.485
13.9574
13.4338
12.9155
12.4063
11.9761
11.6041
11.2205
10.8265
10.4265
10.0159
9.63993
9.15553
9.04878
7.96045
9.49176
5.04639
13.6633
27.9817
28.0735
28.1394
28.1828
28.2095
28.2192
28.214
28.1939
28.1616
28.1178
28.0646
28.004
27.9373
27.8663
27.792
27.7154
27.6369
27.5564
27.4735
27.3872
27.2962
27.1988
27.0933
26.9777
26.8503
26.7095
26.5539
26.3829
26.1959
25.9932
25.7754
25.5434
25.2985
25.0422
24.7761
24.5016
24.2202
23.9328
23.6404
23.3434
23.0419
22.7357
22.4243
22.1071
21.7831
21.4513
21.1106
20.76
20.3985
20.0253
19.6397
19.2413
18.8299
18.4057
17.9688
17.52
17.0601
16.5903
16.1118
15.626
15.1347
14.6395
14.1423
13.6449
13.1495
12.6574
12.1724
11.7614
11.4051
11.0372
10.6585
10.2737
9.87753
9.5155
9.04603
8.94358
7.89483
9.36267
5.08726
13.4136
23.7499
23.8631
23.9771
24.087
24.1938
24.2969
24.3951
24.4866
24.5703
24.6444
24.7077
24.7592
24.7977
24.8226
24.8333
24.8298
24.812
24.7805
24.7358
24.6788
24.6104
24.5316
24.4436
24.3471
24.2429
24.1318
24.0139
23.8895
23.7584
23.6206
23.4758
23.3235
23.1634
22.9953
22.819
22.6344
22.4413
22.24
22.0303
21.8122
21.5858
21.3508
21.1069
20.8538
20.5909
20.3176
20.0333
19.7373
19.4289
19.1074
18.7725
18.4237
18.061
17.6843
17.2938
16.8903
16.4742
16.0467
15.6089
15.162
14.7078
14.2477
13.7835
13.3171
12.8506
12.3854
11.9253
11.5339
11.1938
10.8419
10.479
10.1096
9.72831
9.38039
8.92585
8.83037
7.81201
9.24246
5.07643
13.2089
19.0767
19.1695
19.2674
19.365
19.4661
19.5703
19.6775
19.7874
19.8998
20.0141
20.1296
20.2457
20.3614
20.4757
20.5874
20.6953
20.7981
20.8944
20.9829
21.0624
21.1318
21.1902
21.2368
21.271
21.2927
21.3016
21.2978
21.2817
21.2536
21.2138
21.1628
21.101
21.0287
20.9461
20.8534
20.7506
20.6378
20.5148
20.3815
20.2376
20.083
19.9175
19.7405
19.5519
19.3512
19.1379
18.9116
18.6717
18.4179
18.1496
17.8666
17.5686
17.2554
16.9271
16.584
16.2264
15.855
15.4708
15.0746
14.6677
14.2516
13.8277
13.3978
12.9638
12.5275
12.0906
11.6568
11.2863
10.9635
10.6288
10.2826
9.92987
9.56458
9.23142
8.79376
8.70391
7.72061
9.10444
15.9279
16.0143
16.1054
16.1971
16.2921
16.3893
16.4891
16.5912
16.6956
16.8022
16.9109
17.0216
17.1341
17.2482
17.3636
17.4802
17.5973
17.7146
17.8314
17.947
18.0606
18.1712
18.2779
18.3795
18.4751
18.5633
18.6433
18.7141
18.7747
18.8245
18.8629
18.8895
18.9038
18.9058
18.8954
18.8724
18.8368
18.7886
18.7277
18.654
18.5675
18.4679
18.3549
18.2284
18.0879
17.9332
17.7638
17.5795
17.3797
17.1643
16.9329
16.6854
16.4217
16.1418
15.8459
15.5344
15.2079
14.8671
14.5129
14.1465
13.7691
13.3823
12.9876
12.5868
12.1818
11.7742
11.3679
11.0193
10.7147
10.3982
10.0698
9.7345
9.38633
9.06845
8.64956
8.56342
13.7114
13.7922
13.8781
13.9658
14.0569
14.1506
14.2472
14.3464
14.4481
14.5523
14.6588
14.7673
14.8777
14.9897
15.1031
15.2177
15.3331
15.4491
15.5655
15.6818
15.7978
15.9129
16.0269
16.1392
16.2492
16.3564
16.46
16.5593
16.6534
16.7415
16.8228
16.8962
16.961
17.0163
17.0614
17.0956
17.1183
17.1289
17.1269
17.112
17.0837
17.0417
16.9856
16.915
16.8296
16.729
16.6129
16.4809
16.3326
16.1677
15.9861
15.7875
15.5718
15.3391
15.0895
14.8232
14.5409
14.2431
13.9306
13.6045
13.2659
12.9162
12.557
12.1899
11.8168
11.4392
11.061
10.7349
10.4492
10.1513
9.84145
9.52417
9.1939
8.89157
11.8843
11.9561
12.0331
12.1121
12.1946
12.28
12.3687
12.4605
12.5555
12.6536
12.7547
12.8588
12.9657
13.0753
13.1874
13.3018
13.4182
13.5364
13.6561
13.7768
13.8981
14.0198
14.1414
14.2623
14.3822
14.5005
14.6167
14.7303
14.8408
14.9474
15.0496
15.1467
15.238
15.3226
15.3999
15.469
15.5291
15.5794
15.6192
15.6476
15.6641
15.6678
15.6582
15.6346
15.5965
15.5434
15.4747
15.39
15.2888
15.1708
15.0357
14.8832
14.7131
14.5254
14.3202
14.0976
13.8582
13.6023
13.3306
13.0442
12.744
12.4312
12.1074
11.7741
11.4331
11.0859
10.7363
10.4332
10.1667
9.88797
9.59713
10.3577
10.4212
10.489
10.559
10.6323
10.7085
10.7878
10.8702
10.9558
11.0445
11.1366
11.2318
11.3302
11.4318
11.5365
11.6443
11.7549
11.8683
11.9843
12.1027
12.2231
12.3454
12.4691
12.5938
12.7191
12.8446
12.9697
13.0938
13.2164
13.3368
13.4545
13.5687
13.6787
13.784
13.8836
13.977
14.0632
14.1416
14.2113
14.2715
14.3215
14.3603
14.3872
14.4015
14.4023
14.3891
14.361
14.3175
14.258
14.182
14.0891
13.9789
13.8511
13.7055
13.5421
13.3611
13.1626
12.947
12.7149
12.4671
12.2044
11.928
11.6393
11.3396
11.0307
10.714
9.10628
9.16249
9.22249
9.28458
9.34963
9.41742
9.48814
9.5618
9.63849
9.71824
9.80111
9.88713
9.97632
10.0687
10.1642
10.2629
10.3648
10.4696
10.5774
10.6881
10.8016
10.9175
11.0358
11.1562
11.2783
11.402
11.5267
11.652
11.7775
11.9026
12.0268
12.1494
12.2697
12.3871
12.5008
12.61
12.714
12.8119
12.9029
12.9863
13.061
13.1264
13.1814
13.2253
13.2573
13.2764
13.282
13.2733
13.2496
13.2101
13.1545
13.082
12.9925
12.8854
12.7607
12.6182
12.4582
12.2808
12.0864
11.8756
11.6493
8.06669
8.11636
8.16928
8.2242
8.2818
8.34193
8.40478
8.47037
8.53879
8.6101
8.68437
8.76166
8.84201
8.92545
9.01201
9.10172
9.19456
9.29051
9.38954
9.4916
9.5966
9.70444
9.81498
9.92807
10.0435
10.1611
10.2805
10.4015
10.5236
10.6466
10.7699
10.893
11.0155
11.1367
11.2559
11.3724
11.4856
11.5946
11.6986
11.7968
11.8883
11.9722
12.0476
12.1136
12.1694
12.2139
12.2464
12.266
12.2719
12.2634
12.2396
12.2001
12.1442
12.0715
7.1851
7.22884
7.27536
7.32376
7.37456
7.42768
7.48327
7.54138
7.60209
7.66549
7.73165
7.80063
7.87249
7.9473
8.02511
8.10595
8.18986
8.27683
8.3669
8.46004
8.55623
8.65539
8.75747
8.86236
8.96992
9.08001
9.19242
9.30693
9.42329
9.54118
9.66024
9.78009
9.9003
10.0204
10.1398
10.2579
10.3741
10.4878
10.5981
10.7043
10.8056
10.9011
)
;

boundaryField
{
    inlet
    {
        type            freestreamPressure;
        freestreamValue uniform 0;
        value           nonuniform List<scalar> 
13
(
7.07511
7.11784
7.1427
7.15875
7.18432
7.26586
7.47373
7.92349
8.11308
7.92202
7.70233
7.5617
7.44644
)
;
    }
    outlet
    {
        type            freestreamPressure;
        freestreamValue nonuniform List<scalar> 0();
        value           nonuniform List<scalar> 0();
    }
    walls
    {
        type            zeroGradient;
    }
    frontAndBack
    {
        type            empty;
    }
    procBoundary2to1
    {
        type            processor;
        value           nonuniform List<scalar> 
84
(
1.15823
2.23737
3.05891
3.87103
4.69444
5.70705
6.55494
7.57675
8.53814
9.56986
10.602
11.6659
12.7426
13.8368
14.9417
16.0548
17.1714
18.287
19.3967
20.4951
21.5768
22.6358
23.6661
24.6615
25.6159
26.5228
27.3763
28.1705
28.8999
29.5592
30.144
30.6502
31.0745
31.4144
31.6681
31.8348
31.9148
31.9088
31.9088
33.0375
32.8258
32.5294
32.1538
31.7052
31.1899
30.6146
29.986
29.3108
28.5958
27.8473
27.0714
26.2741
25.4606
25.4606
25.0422
24.1694
23.2982
22.4321
21.5742
20.7273
19.8938
19.0758
18.2748
18.2748
17.6127
16.8361
16.0818
15.3506
14.6428
13.9597
13.4064
12.9462
12.4738
11.991
11.991
11.5262
11.0274
10.5181
10.0285
9.53486
8.89666
9.15915
6.22622
12.4196
)
;
    }
    procBoundary2to3
    {
        type            processor;
        value           nonuniform List<scalar> 
88
(
5.06232
12.9762
7.62113
5.06232
8.94722
8.49283
7.62113
8.40912
9.29839
8.98667
8.49283
8.70016
10.3933
10.1136
9.86666
9.60747
9.29839
9.33608
11.4083
11.1539
10.8873
10.6103
10.3933
10.324
11.9817
11.8745
11.7499
11.608
11.449
11.2733
11.4083
11.0815
10.9899
11.0712
11.144
11.2073
11.2603
11.302
11.3316
11.3482
11.351
11.3393
11.3123
11.9817
11.2695
6.4285
6.46696
6.50783
6.55041
6.59514
6.64197
6.69102
6.74235
6.79606
6.85222
6.9109
6.97218
7.03614
7.10284
7.17234
7.24469
7.31995
7.39816
7.47936
7.56355
7.65073
7.74092
7.83406
7.93012
8.02902
8.13066
8.23491
8.34162
8.45061
8.56164
8.67444
8.7887
8.90409
9.0202
9.13659
9.25276
9.36817
9.48223
9.5943
9.70369
9.80966
10.9899
9.91142
)
;
    }
    procBoundary2to6
    {
        type            processor;
        value           nonuniform List<scalar> 
13
(
106.921
47.0007
29.269
27.8521
23.6021
18.954
15.8223
13.6182
11.8035
10.2878
9.04539
8.01358
7.13878
)
;
    }
}


// ************************************************************************* //
