/*--------------------------------*- C++ -*----------------------------------*\
| =========                 |                                                 |
| \\      /  F ield         | OpenFOAM: The Open Source CFD Toolbox           |
|  \\    /   O peration     | Version:  2506                                  |
|   \\  /    A nd           | Website:  www.openfoam.com                      |
|    \\/     M anipulation  |                                                 |
\*---------------------------------------------------------------------------*/
FoamFile
{
    version     2.0;
    format      ascii;
    arch        "LSB;label=32;scalar=64";
    class       volScalarField;
    location    "350";
    object      turbulenceProperties:k;
}
// * * * * * * * * * * * * * * * * * * * * * * * * * * * * * * * * * * * * * //

dimensions      [0 2 -2 0 0 0 0];

internalField   nonuniform List<scalar> 
1340
(
48.1496
46.0264
43.5539
35.6738
1.44799
1.59461
1.92184
2.67264
0.312006
0.429973
0.514671
0.878524
0.0114916
0.0379747
0.0959116
0.349082
0.00112512
0.00159289
0.00296435
0.0677684
0.000166884
0.000274052
0.000681705
0.00768981
3.07891e-06
1.38096e-06
6.15763e-08
0.000219699
2.03687e-05
1.54019e-05
1.59346e-06
1.52471e-05
2.4429e-05
2.63414e-05
2.78743e-05
1.05004e-06
2.06434e-05
2.03571e-05
3.4153e-05
1.41507e-05
2.08824e-05
2.07906e-05
2.94934e-05
3.67781e-05
1.93702e-05
1.9585e-05
2.51735e-05
4.02074e-05
1.86323e-05
1.88971e-05
2.31762e-05
3.69532e-05
1.75951e-05
1.77519e-05
2.14573e-05
3.32414e-05
1.66621e-05
1.67212e-05
1.98515e-05
2.99828e-05
1.56616e-05
1.56306e-05
1.82544e-05
2.70293e-05
1.46651e-05
1.45518e-05
1.67265e-05
2.42925e-05
1.36518e-05
1.34623e-05
1.52633e-05
2.17546e-05
1.26356e-05
1.23763e-05
1.38643e-05
1.94088e-05
1.16195e-05
1.12963e-05
1.25325e-05
1.72595e-05
1.06098e-05
1.02289e-05
1.12639e-05
1.52929e-05
9.61188e-06
9.1811e-06
1.00604e-05
1.35027e-05
8.6321e-06
8.15755e-06
8.92237e-06
1.18826e-05
7.67718e-06
7.16523e-06
7.84844e-06
1.04192e-05
6.75307e-06
6.2087e-06
6.84201e-06
9.10683e-06
5.86659e-06
5.29324e-06
5.90367e-06
7.93426e-06
5.0246e-06
4.42355e-06
5.03618e-06
6.89435e-06
4.23446e-06
3.60321e-06
4.24215e-06
5.9786e-06
3.50446e-06
2.83572e-06
3.52646e-06
5.18052e-06
2.84545e-06
2.12392e-06
2.89571e-06
4.49473e-06
2.27241e-06
1.46893e-06
2.36025e-06
3.91603e-06
1.80855e-06
8.72859e-07
1.93479e-06
3.44014e-06
1.48715e-06
3.38213e-07
1.6379e-06
3.06194e-06
1.33884e-06
1.61583e-07
1.48212e-06
2.77458e-06
1.35575e-06
5.74815e-07
1.45595e-06
2.56809e-06
1.48144e-06
9.40821e-07
1.5214e-06
2.42955e-06
1.65313e-06
1.25416e-06
1.63407e-06
2.34375e-06
1.82962e-06
1.51701e-06
1.76042e-06
2.29516e-06
2.5163e-06
1.98948e-06
1.73216e-06
1.88041e-06
2.26982e-06
2.55423e-06
2.1228e-06
1.90289e-06
1.98347e-06
2.25631e-06
2.58267e-06
2.2258e-06
2.03283e-06
2.0648e-06
2.24626e-06
2.59614e-06
2.29805e-06
2.12564e-06
2.12275e-06
2.23379e-06
2.59203e-06
2.3409e-06
2.18521e-06
2.15772e-06
2.21534e-06
2.56981e-06
2.35671e-06
2.21531e-06
2.17102e-06
2.18885e-06
2.53027e-06
2.34842e-06
2.21972e-06
2.16453e-06
2.15338e-06
2.47503e-06
2.3192e-06
2.20217e-06
2.14067e-06
2.10903e-06
2.40615e-06
2.27224e-06
2.16604e-06
2.1017e-06
2.05626e-06
2.32597e-06
2.21069e-06
2.11464e-06
2.05e-06
1.99588e-06
2.2367e-06
2.13738e-06
2.0509e-06
1.98786e-06
1.92905e-06
2.14047e-06
2.05487e-06
1.97734e-06
1.91724e-06
1.85671e-06
2.03907e-06
1.96538e-06
1.89621e-06
1.83993e-06
1.77989e-06
1.93399e-06
1.87061e-06
1.80926e-06
1.75736e-06
1.69943e-06
1.88168e-06
1.8264e-06
1.77202e-06
1.71791e-06
1.6707e-06
1.61601e-06
1.76387e-06
1.7173e-06
1.67077e-06
1.62333e-06
1.58096e-06
1.53026e-06
1.64687e-06
1.60771e-06
1.56804e-06
1.52674e-06
1.48917e-06
1.44284e-06
1.53172e-06
1.49888e-06
1.46521e-06
1.42947e-06
1.39655e-06
1.35473e-06
1.41979e-06
1.39232e-06
1.36386e-06
1.33313e-06
1.30459e-06
1.26719e-06
1.31255e-06
1.28964e-06
1.26567e-06
1.23936e-06
1.21483e-06
1.1816e-06
1.21111e-06
1.19202e-06
1.17188e-06
1.14944e-06
1.12851e-06
1.09919e-06
1.11568e-06
1.09977e-06
1.08288e-06
1.06381e-06
1.04607e-06
1.0204e-06
1.02546e-06
1.01222e-06
9.98091e-07
9.81974e-07
9.67064e-07
9.44837e-07
9.49369e-07
9.39062e-07
9.28038e-07
9.16277e-07
9.02777e-07
8.90422e-07
8.71444e-07
8.64036e-07
8.5545e-07
8.4631e-07
8.36607e-07
8.25444e-07
8.15427e-07
7.99471e-07
7.81593e-07
7.74438e-07
7.66902e-07
7.58981e-07
7.49878e-07
7.41993e-07
7.28765e-07
7.02971e-07
6.9702e-07
6.90851e-07
6.84458e-07
6.77139e-07
6.71171e-07
6.60313e-07
6.29276e-07
6.24324e-07
6.19288e-07
6.14181e-07
6.08358e-07
6.03997e-07
5.95067e-07
5.62539e-07
5.58375e-07
5.54249e-07
5.50229e-07
5.45723e-07
5.4277e-07
5.35702e-07
5.07119e-07
5.0339e-07
4.99799e-07
4.96437e-07
4.92759e-07
4.90742e-07
4.85248e-07
4.62529e-07
4.58983e-07
4.55639e-07
4.52562e-07
4.49254e-07
4.47665e-07
4.43025e-07
4.2242e-07
4.18949e-07
4.157e-07
4.12755e-07
4.09664e-07
4.08294e-07
4.04298e-07
3.83735e-07
3.80362e-07
3.77204e-07
3.744e-07
3.71514e-07
3.703e-07
3.66834e-07
3.49093e-07
3.45166e-07
3.41606e-07
3.38388e-07
3.3566e-07
3.33085e-07
3.3242e-07
3.30871e-07
3.10371e-07
3.0567e-07
3.01259e-07
2.9719e-07
2.93593e-07
2.90209e-07
2.87965e-07
2.8432e-07
2.61586e-07
2.56608e-07
2.5231e-07
2.48742e-07
2.46135e-07
2.44542e-07
2.46671e-07
2.51647e-07
1.93803e-07
1.84161e-07
1.75355e-07
1.67594e-07
1.60942e-07
1.55361e-07
1.50856e-07
1.44145e-07
1.55063e-07
1.52256e-07
1.5146e-07
1.52868e-07
1.57452e-07
1.65695e-07
1.85336e-07
2.14249e-07
1.73016e-07
1.72118e-07
1.71005e-07
1.69438e-07
1.68211e-07
1.73185e-07
2.03894e-07
2.37045e-07
4.662e-07
4.83567e-07
4.98682e-07
5.12641e-07
5.28774e-07
5.52604e-07
6.11335e-07
6.60179e-07
8.75658e-07
8.78388e-07
8.80349e-07
8.81677e-07
8.82595e-07
8.85576e-07
9.03464e-07
8.60949e-07
1.67284e-06
1.67342e-06
1.67251e-06
1.67076e-06
1.66701e-06
1.66509e-06
1.65153e-06
1.53221e-06
10.4382
2.82147
0.748019
0.231507
0.0404833
0.00269041
0.000231869
1.80946e-05
1.39129e-06
2.38706e-05
4.23677e-05
4.25139e-05
3.85979e-05
3.48802e-05
3.16366e-05
2.86758e-05
2.59139e-05
2.3346e-05
2.09748e-05
1.87903e-05
1.67888e-05
1.4963e-05
1.33049e-05
1.18067e-05
1.04586e-05
9.2527e-06
8.17991e-06
7.23133e-06
6.39858e-06
5.67346e-06
5.04804e-06
4.51448e-06
4.06463e-06
3.69059e-06
3.38391e-06
3.13562e-06
2.93663e-06
2.7778e-06
2.65031e-06
2.54623e-06
2.45864e-06
2.38177e-06
2.31124e-06
2.24363e-06
2.17656e-06
2.10855e-06
2.03869e-06
1.9665e-06
1.89205e-06
1.81534e-06
1.73666e-06
1.65621e-06
1.57416e-06
1.49077e-06
1.40639e-06
1.32172e-06
1.23779e-06
1.15581e-06
1.07682e-06
1.00119e-06
9.28517e-07
8.5778e-07
7.88296e-07
7.1994e-07
6.53689e-07
5.90326e-07
5.32727e-07
4.83576e-07
4.42318e-07
4.04293e-07
3.67214e-07
3.32349e-07
2.84642e-07
2.57318e-07
1.41455e-07
2.33646e-07
2.1568e-07
6.4833e-07
7.60636e-07
1.36052e-06
6.28195
2.03392
0.385703
0.0603154
0.0059109
0.00116501
5.99506e-08
1.13481e-07
2.09403e-06
2.00318e-05
2.48201e-05
2.41395e-05
2.26845e-05
2.13863e-05
2.01949e-05
1.90214e-05
1.78494e-05
1.66799e-05
1.55305e-05
1.44046e-05
1.33118e-05
1.22575e-05
1.12477e-05
1.02917e-05
9.39162e-06
8.55076e-06
7.77254e-06
7.05838e-06
6.40768e-06
5.82008e-06
5.29382e-06
4.82648e-06
4.41484e-06
4.05515e-06
3.74348e-06
3.47477e-06
3.24442e-06
3.04724e-06
2.87804e-06
2.73204e-06
2.60462e-06
2.49153e-06
2.38938e-06
2.29502e-06
2.20608e-06
2.12072e-06
2.03754e-06
1.95559e-06
1.87427e-06
1.79308e-06
1.71183e-06
1.63029e-06
1.54826e-06
1.46571e-06
1.38281e-06
1.30005e-06
1.2183e-06
1.13865e-06
1.06194e-06
9.88426e-07
9.17644e-07
8.4861e-07
7.80686e-07
7.13831e-07
6.49043e-07
5.87e-07
5.30466e-07
4.81922e-07
4.41235e-07
4.03817e-07
3.67074e-07
3.32582e-07
2.84805e-07
2.58803e-07
1.40139e-07
2.45081e-07
1.88826e-07
6.50737e-07
7.5372e-07
1.39171e-06
3.96634
1.2835
0.173374
0.0111648
0.000370129
7.60071e-05
2.33104e-09
4.35685e-08
6.58977e-06
1.51148e-05
1.49395e-05
1.41761e-05
1.33978e-05
1.27554e-05
1.21663e-05
1.15947e-05
1.10412e-05
1.05019e-05
9.97451e-06
9.46648e-06
8.97184e-06
8.49162e-06
8.0228e-06
7.56944e-06
7.13008e-06
6.70342e-06
6.29181e-06
5.89689e-06
5.5188e-06
5.15966e-06
4.82068e-06
4.50304e-06
4.20777e-06
3.93532e-06
3.68589e-06
3.4588e-06
3.25337e-06
3.06814e-06
2.90139e-06
2.75112e-06
2.61533e-06
2.49173e-06
2.3784e-06
2.2733e-06
2.17476e-06
2.0814e-06
1.99193e-06
1.90549e-06
1.8213e-06
1.73875e-06
1.6574e-06
1.57681e-06
1.49662e-06
1.41658e-06
1.33671e-06
1.25739e-06
1.1793e-06
1.10339e-06
1.03035e-06
9.60299e-07
8.92701e-07
8.26607e-07
7.61429e-07
6.97192e-07
6.34913e-07
5.75194e-07
5.2061e-07
4.73545e-07
4.3425e-07
3.98291e-07
3.62653e-07
3.29172e-07
2.82396e-07
2.57247e-07
1.41951e-07
2.49854e-07
1.76286e-07
6.45416e-07
7.38605e-07
1.39516e-06
2.38972
0.643191
0.0465264
0.000445313
9.98918e-05
0
9.76058e-08
1.69968e-06
8.57357e-06
1.05778e-05
9.84049e-06
9.47664e-06
9.1141e-06
8.80693e-06
8.49738e-06
8.18281e-06
7.87246e-06
7.56471e-06
7.26108e-06
6.96742e-06
6.6795e-06
6.40143e-06
6.13117e-06
5.8685e-06
5.61429e-06
5.36726e-06
5.12667e-06
4.89288e-06
4.66533e-06
4.44425e-06
4.22974e-06
4.02204e-06
3.82204e-06
3.62998e-06
3.44654e-06
3.27238e-06
3.10768e-06
2.95268e-06
2.80738e-06
2.67133e-06
2.54421e-06
2.42533e-06
2.31378e-06
2.20882e-06
2.1096e-06
2.01529e-06
1.92507e-06
1.83838e-06
1.75457e-06
1.67309e-06
1.5935e-06
1.51526e-06
1.43797e-06
1.36129e-06
1.28514e-06
1.2098e-06
1.13585e-06
1.06409e-06
9.95064e-07
9.28809e-07
8.64723e-07
8.01893e-07
7.39797e-07
6.78489e-07
6.19008e-07
5.61891e-07
5.0957e-07
4.64386e-07
4.26775e-07
3.92429e-07
3.58083e-07
3.25828e-07
2.80361e-07
2.56156e-07
1.46173e-07
2.53307e-07
1.70655e-07
6.38937e-07
7.19788e-07
1.38494e-06
1.1822
0.204326
0.00281759
0.000294076
0
2.12497e-08
4.01036e-07
4.5709e-06
7.89338e-06
7.70563e-06
7.29039e-06
7.16921e-06
7.03326e-06
6.91417e-06
6.77888e-06
6.63399e-06
6.47984e-06
6.31424e-06
6.14122e-06
5.96081e-06
5.77294e-06
5.58043e-06
5.38593e-06
5.18827e-06
4.99054e-06
4.79533e-06
4.60158e-06
4.41164e-06
4.22626e-06
4.04575e-06
3.87065e-06
3.70099e-06
3.53747e-06
3.37965e-06
3.22773e-06
3.08215e-06
2.94241e-06
2.80886e-06
2.68133e-06
2.55966e-06
2.44393e-06
2.33375e-06
2.22873e-06
2.12874e-06
2.0333e-06
1.942e-06
1.8544e-06
1.77016e-06
1.68883e-06
1.61e-06
1.53328e-06
1.45813e-06
1.38418e-06
1.31109e-06
1.23869e-06
1.16725e-06
1.09728e-06
1.02943e-06
9.64155e-07
9.01397e-07
8.40539e-07
7.80716e-07
7.21472e-07
6.62889e-07
6.06026e-07
5.51342e-07
5.01127e-07
4.57688e-07
4.21609e-07
3.88648e-07
3.55425e-07
3.24246e-07
2.79981e-07
2.56818e-07
1.51952e-07
2.58808e-07
1.66574e-07
6.39222e-07
7.09929e-07
1.38364e-06
0.397852
0.0283964
9.18296e-05
2.25776e-05
0
1.67444e-07
2.82694e-06
6.06867e-06
6.5126e-06
6.04222e-06
5.89317e-06
5.84127e-06
5.76906e-06
5.69706e-06
5.61212e-06
5.52178e-06
5.42218e-06
5.31457e-06
5.20205e-06
5.08291e-06
4.95836e-06
4.8287e-06
4.6958e-06
4.5584e-06
4.41823e-06
4.27659e-06
4.13237e-06
3.98788e-06
3.8434e-06
3.69954e-06
3.55729e-06
3.41701e-06
3.27985e-06
3.14582e-06
3.01546e-06
2.88939e-06
2.76732e-06
2.64978e-06
2.53652e-06
2.42756e-06
2.32306e-06
2.22258e-06
2.12601e-06
2.03338e-06
1.94424e-06
1.85852e-06
1.7759e-06
1.6962e-06
1.61913e-06
1.54438e-06
1.47164e-06
1.40044e-06
1.33047e-06
1.26139e-06
1.19306e-06
1.1257e-06
1.05979e-06
9.95886e-07
9.34332e-07
8.75024e-07
8.17347e-07
7.60491e-07
7.04065e-07
6.48205e-07
5.93959e-07
5.41699e-07
4.93552e-07
4.51819e-07
4.17252e-07
3.85625e-07
3.53507e-07
3.23378e-07
2.80332e-07
2.58347e-07
1.58528e-07
2.65486e-07
1.61752e-07
6.42075e-07
0.0573825
0.000166775
2.17846e-05
1.08092e-06
8.25277e-08
1.42168e-06
4.4426e-06
5.0828e-06
4.78547e-06
4.58932e-06
4.58641e-06
4.57673e-06
4.55436e-06
4.52716e-06
4.49013e-06
4.44815e-06
4.39747e-06
4.33919e-06
4.27553e-06
4.2053e-06
4.12973e-06
4.04878e-06
3.96272e-06
3.87281e-06
3.77984e-06
3.6833e-06
3.58389e-06
3.48313e-06
3.38042e-06
3.27661e-06
3.17222e-06
3.06736e-06
2.96286e-06
2.85892e-06
2.75591e-06
2.65434e-06
2.55436e-06
2.45653e-06
2.36076e-06
2.26741e-06
2.17669e-06
2.08838e-06
2.00275e-06
1.91973e-06
1.83914e-06
1.76113e-06
1.68545e-06
1.61206e-06
1.54081e-06
1.47147e-06
1.40384e-06
1.33755e-06
1.27232e-06
1.20787e-06
1.14412e-06
1.08127e-06
1.01974e-06
9.60041e-07
9.02429e-07
8.46763e-07
7.92444e-07
7.38738e-07
6.8531e-07
6.32351e-07
5.80901e-07
5.31218e-07
4.85271e-07
4.45388e-07
4.12471e-07
3.82277e-07
3.51392e-07
3.22421e-07
2.80754e-07
2.60146e-07
1.65646e-07
2.72256e-07
0.000597514
0.000236796
2.31547e-09
4.08804e-08
7.69764e-07
3.34039e-06
3.98757e-06
3.77817e-06
3.60593e-06
3.59296e-06
3.62129e-06
3.62766e-06
3.62833e-06
3.62329e-06
3.61131e-06
3.59418e-06
3.57043e-06
3.54082e-06
3.50623e-06
3.46621e-06
3.42148e-06
3.37229e-06
3.31837e-06
3.26092e-06
3.20048e-06
3.13632e-06
3.06944e-06
3.00054e-06
2.92923e-06
2.85624e-06
2.78183e-06
2.70599e-06
2.62938e-06
2.55208e-06
2.47425e-06
2.39632e-06
2.31838e-06
2.24082e-06
2.16371e-06
2.08732e-06
2.0119e-06
1.93748e-06
1.86434e-06
1.7925e-06
1.72202e-06
1.65313e-06
1.5857e-06
1.51984e-06
1.45548e-06
1.39253e-06
1.33086e-06
1.27019e-06
1.21032e-06
1.15103e-06
1.09228e-06
1.03428e-06
9.7742e-07
9.22151e-07
8.6867e-07
8.16816e-07
7.66015e-07
7.1562e-07
6.65365e-07
6.1547e-07
5.66976e-07
5.20011e-07
4.76407e-07
4.38533e-07
4.07387e-07
3.78711e-07
3.49174e-07
3.21457e-07
2.81352e-07
2.62278e-07
0.000263137
0
4.19147e-09
7.52943e-08
2.65527e-06
3.21953e-06
3.05436e-06
2.90904e-06
2.8986e-06
2.93784e-06
2.965e-06
2.98081e-06
2.99278e-06
2.9989e-06
2.99959e-06
2.9949e-06
2.98468e-06
2.96974e-06
2.95003e-06
2.92561e-06
2.89686e-06
2.86433e-06
2.82833e-06
2.7886e-06
2.74618e-06
2.7011e-06
2.65339e-06
2.60356e-06
2.55173e-06
2.49825e-06
2.44309e-06
2.38647e-06
2.32894e-06
2.27013e-06
2.21046e-06
2.15022e-06
2.0893e-06
2.02803e-06
1.9665e-06
1.90482e-06
1.84318e-06
1.78173e-06
1.72054e-06
1.65979e-06
1.59958e-06
1.5401e-06
1.48133e-06
1.42346e-06
1.36649e-06
1.3104e-06
1.25514e-06
1.20049e-06
1.14635e-06
1.09253e-06
1.03904e-06
9.86097e-07
9.34068e-07
8.8334e-07
8.34083e-07
7.86124e-07
7.3893e-07
6.91937e-07
6.44958e-07
5.98234e-07
5.52791e-07
5.08632e-07
4.67461e-07
4.31705e-07
4.02384e-07
3.75259e-07
3.47143e-07
0
0
1.1077e-07
1.87178e-06
2.72496e-06
2.45052e-06
2.35895e-06
2.3533e-06
2.39614e-06
2.43415e-06
2.45986e-06
2.48126e-06
2.49875e-06
2.51106e-06
2.51886e-06
2.52246e-06
2.52121e-06
2.51558e-06
2.50591e-06
2.49219e-06
2.47469e-06
2.45371e-06
2.42965e-06
2.40239e-06
2.37261e-06
2.34049e-06
2.3059e-06
2.26941e-06
2.23113e-06
2.1913e-06
2.14973e-06
2.10687e-06
2.06302e-06
2.01772e-06
1.97154e-06
1.92452e-06
1.87659e-06
1.82805e-06
1.77885e-06
1.72914e-06
1.67905e-06
1.62863e-06
1.57801e-06
1.52729e-06
1.47654e-06
1.42598e-06
1.3756e-06
1.32559e-06
1.27599e-06
1.22682e-06
1.17807e-06
1.1296e-06
1.08132e-06
1.03311e-06
9.85011e-07
9.37226e-07
8.90099e-07
8.43975e-07
7.98983e-07
7.54961e-07
7.1143e-07
6.67912e-07
6.24283e-07
5.80813e-07
5.38496e-07
4.97205e-07
0
6.06347e-08
1.25051e-06
2.2204e-06
2.00633e-06
1.89885e-06
1.92128e-06
1.96025e-06
2.00162e-06
2.03181e-06
2.05718e-06
2.07969e-06
2.09823e-06
2.11296e-06
2.12366e-06
2.13091e-06
2.13432e-06
2.13381e-06
2.13009e-06
2.12306e-06
2.11298e-06
2.09995e-06
2.08428e-06
2.06611e-06
2.0458e-06
2.02341e-06
1.99895e-06
1.9729e-06
1.94522e-06
1.91609e-06
1.88547e-06
1.8536e-06
1.82065e-06
1.78643e-06
1.75123e-06
1.71505e-06
1.6779e-06
1.63997e-06
1.60116e-06
1.56162e-06
1.52146e-06
1.48064e-06
1.43932e-06
1.39753e-06
1.35537e-06
1.31301e-06
1.27045e-06
1.22788e-06
1.18534e-06
1.14289e-06
1.10053e-06
1.05816e-06
1.01573e-06
9.73127e-07
9.3043e-07
8.87814e-07
8.45596e-07
8.04077e-07
7.6336e-07
7.23297e-07
6.8347e-07
5.5051e-08
9.0418e-07
1.84083e-06
1.64758e-06
1.54856e-06
1.57678e-06
1.6205e-06
1.65785e-06
1.68958e-06
1.71576e-06
1.73968e-06
1.7608e-06
1.77856e-06
1.79333e-06
1.80452e-06
1.81286e-06
1.81809e-06
1.82002e-06
1.8194e-06
1.816e-06
1.81013e-06
1.80182e-06
1.79147e-06
1.77909e-06
1.76494e-06
1.74917e-06
1.73175e-06
1.71306e-06
1.69304e-06
1.67182e-06
1.64938e-06
1.62592e-06
1.60146e-06
1.57588e-06
1.54943e-06
1.52203e-06
1.49368e-06
1.46453e-06
1.43443e-06
1.40351e-06
1.37184e-06
1.33936e-06
1.30615e-06
1.27229e-06
1.23782e-06
1.20286e-06
1.16746e-06
1.13177e-06
1.09585e-06
1.05974e-06
1.0235e-06
9.8701e-07
9.50247e-07
9.13138e-07
9.34546e-07
1.33148e-06
1.39621e-06
1.27009e-06
1.31072e-06
1.35181e-06
1.38624e-06
1.41521e-06
1.44097e-06
1.46401e-06
1.48554e-06
1.50422e-06
1.52011e-06
1.53363e-06
1.54429e-06
1.55255e-06
1.55817e-06
1.56128e-06
1.56219e-06
1.56089e-06
1.55758e-06
1.5524e-06
1.54541e-06
1.53689e-06
1.527e-06
1.51566e-06
1.50316e-06
1.48958e-06
1.47497e-06
1.45938e-06
1.44283e-06
1.42551e-06
1.40728e-06
1.38819e-06
1.36839e-06
1.3477e-06
1.32625e-06
1.304e-06
1.28088e-06
1.25701e-06
1.2323e-06
1.20678e-06
)
;

boundaryField
{
    inlet
    {
        type            calculated;
        value           nonuniform List<scalar> 
13
(
5.62794e-06
5.70324e-06
5.76945e-06
5.8291e-06
5.8869e-06
5.94665e-06
6.02416e-06
6.04678e-06
5.99002e-06
5.95627e-06
5.91209e-06
5.87395e-06
5.8428e-06
)
;
    }
    outlet
    {
        type            calculated;
        value           nonuniform List<scalar> 0();
    }
    walls
    {
        type            calculated;
        value           uniform 0;
    }
    frontAndBack
    {
        type            empty;
    }
    procBoundary2to1
    {
        type            processor;
        value           nonuniform List<scalar> 
84
(
49.6009
1.30939
0.203542
0.00214579
0.00133424
5.28433e-07
2.40644e-05
2.24377e-05
2.42284e-05
2.11622e-05
2.11474e-05
1.99623e-05
1.92651e-05
1.83348e-05
1.74622e-05
1.65383e-05
1.56078e-05
1.46583e-05
1.36991e-05
1.27348e-05
1.17704e-05
1.08119e-05
9.86629e-06
8.94118e-06
8.04391e-06
7.1825e-06
6.36553e-06
5.60209e-06
4.90139e-06
4.27383e-06
3.72982e-06
3.27919e-06
2.92981e-06
2.68383e-06
2.53474e-06
2.46601e-06
2.45502e-06
2.4784e-06
2.4784e-06
3.15554e-06
3.08854e-06
3.02824e-06
2.96765e-06
2.90217e-06
2.82918e-06
2.74762e-06
2.65749e-06
2.55962e-06
2.45522e-06
2.34567e-06
2.23242e-06
2.11669e-06
1.99952e-06
1.99952e-06
1.93684e-06
1.80983e-06
1.68513e-06
1.56351e-06
1.44615e-06
1.33436e-06
1.22914e-06
1.1306e-06
1.03784e-06
1.03784e-06
9.59143e-07
8.72238e-07
7.88512e-07
7.08827e-07
6.34265e-07
5.66829e-07
5.11021e-07
4.663e-07
4.26139e-07
3.87375e-07
3.87375e-07
3.53319e-07
3.15288e-07
2.672e-07
2.04037e-07
1.59759e-07
1.74244e-07
4.46441e-07
8.71663e-07
1.6701e-06
)
;
    }
    procBoundary2to3
    {
        type            processor;
        value           nonuniform List<scalar> 
88
(
7.04852e-07
1.38625e-06
1.57333e-07
7.04852e-07
6.44789e-07
1.73411e-07
1.57333e-07
2.78865e-07
3.20722e-07
2.82341e-07
1.73411e-07
2.64891e-07
4.58542e-07
4.24979e-07
3.9752e-07
3.71962e-07
3.20722e-07
3.45324e-07
6.43485e-07
6.03278e-07
5.63136e-07
5.24011e-07
4.58542e-07
4.85644e-07
8.75734e-07
8.382e-07
8.00819e-07
7.63845e-07
7.27363e-07
6.91246e-07
6.43485e-07
6.55135e-07
1.18046e-06
1.1534e-06
1.12561e-06
1.09716e-06
1.06816e-06
1.03867e-06
1.00878e-06
9.7855e-07
9.47998e-07
9.17061e-07
8.85689e-07
8.75734e-07
8.53823e-07
1.20043e-06
1.06106e-06
1.09156e-06
1.09238e-06
1.14165e-06
1.16833e-06
1.19463e-06
1.21759e-06
1.23926e-06
1.25919e-06
1.27728e-06
1.29306e-06
1.30663e-06
1.31845e-06
1.32787e-06
1.33522e-06
1.34056e-06
1.34398e-06
1.3456e-06
1.34546e-06
1.34368e-06
1.34046e-06
1.33589e-06
1.33006e-06
1.32307e-06
1.31507e-06
1.30617e-06
1.29633e-06
1.28574e-06
1.27436e-06
1.26226e-06
1.24949e-06
1.23602e-06
1.22192e-06
1.20715e-06
1.19168e-06
1.17559e-06
1.15874e-06
1.14118e-06
1.12292e-06
1.10388e-06
1.18046e-06
1.08406e-06
)
;
    }
    procBoundary2to6
    {
        type            processor;
        value           nonuniform List<scalar> 
13
(
15.1095
10.9556
7.14444
4.68612
2.84525
1.41909
0.469878
0.0624341
0.000539053
0.000133389
0
0
6.68054e-08
)
;
    }
}


// ************************************************************************* //
