/*--------------------------------*- C++ -*----------------------------------*\
| =========                 |                                                 |
| \\      /  F ield         | OpenFOAM: The Open Source CFD Toolbox           |
|  \\    /   O peration     | Version:  2506                                  |
|   \\  /    A nd           | Website:  www.openfoam.com                      |
|    \\/     M anipulation  |                                                 |
\*---------------------------------------------------------------------------*/
FoamFile
{
    version     2.0;
    format      ascii;
    arch        "LSB;label=32;scalar=64";
    class       volSymmTensorField;
    location    "350";
    object      turbulenceProperties:R;
}
// * * * * * * * * * * * * * * * * * * * * * * * * * * * * * * * * * * * * * //

dimensions      [0 2 -2 0 0 0 0];

internalField   nonuniform List<symmTensor> 
1340
(
(28.5625 14.0094 1.02448e-15 35.6017 1.64277e-16 32.135)
(26.9094 13.2864 1.45039e-15 34.4271 2.66656e-16 30.7164)
(25.1168 12.4692 -2.90361e-16 32.9251 -3.67418e-17 29.0659)
(20.1427 10.0654 -4.55417e-15 27.4157 -7.8412e-16 23.7892)
(0.856893 0.415492 -4.90893e-16 1.09891 -8.61453e-17 0.940173)
(0.93431 0.456112 -1.22499e-15 1.21462 -5.15048e-16 1.04029)
(1.13393 0.552233 -2.52485e-15 1.45537 -3.44601e-18 1.25439)
(1.57413 0.775641 -2.03886e-15 1.97918 1.35831e-15 1.79196)
(0.196686 0.0929425 2.15533e-16 0.218815 -1.73756e-17 0.208511)
(0.267577 0.127577 -1.17272e-15 0.305677 2.11014e-16 0.286692)
(0.333473 0.154068 2.94673e-15 0.353587 5.32807e-16 0.342281)
(0.548225 0.261149 4.63636e-15 0.615161 9.50532e-16 0.593662)
(0.00853951 0.00332509 -1.73279e-16 0.00672645 -2.64474e-17 0.00771725)
(0.0268909 0.0112241 7.43195e-16 0.0232629 1.09905e-16 0.0257956)
(0.0706606 0.0279082 -4.86161e-16 0.0567314 -1.68259e-16 0.0644312)
(0.229893 0.104478 -3.29587e-16 0.23077 -1.41007e-15 0.2375)
(0.000995574 -0.000199773 -3.92033e-18 0.000465066 1.55645e-18 0.000789604)
(0.0014936 -0.000154527 -2.11234e-17 0.000595404 -1.7588e-17 0.00109678)
(0.00285261 0.00019877 5.23892e-17 0.00112016 3.74091e-18 0.00195593)
(0.0490173 0.0197132 -2.90625e-16 0.0399673 5.22863e-17 0.0465523)
(0.000137816 -3.66824e-05 4.06528e-18 0.00010109 3.62231e-19 9.48612e-05)
(0.00025709 -4.00874e-05 -1.4006e-17 0.000127529 -2.76603e-19 0.000163485)
(0.000666562 -2.24168e-05 -1.51705e-17 0.000269431 -4.93779e-18 0.000427419)
(0.00609894 0.00203658 6.88486e-18 0.00398911 4.71265e-17 0.00529158)
(2.07279e-06 -1.18534e-08 -1.19094e-21 2.02762e-06 -1.50044e-22 2.05742e-06)
(9.25206e-07 -1.30895e-09 4.00278e-22 9.15218e-07 1.04643e-22 9.21488e-07)
(4.10591e-08 -1.33375e-13 7.69088e-27 4.10422e-08 1.14254e-25 4.10513e-08)
(0.000173071 3.83829e-05 2.15802e-18 0.000113694 1.91725e-19 0.000152633)
(1.47769e-05 -1.29812e-06 1.2918e-19 1.27159e-05 2.29179e-20 1.32445e-05)
(1.12485e-05 -4.38608e-07 -3.89618e-20 9.43705e-06 -1.66282e-20 1.01183e-05)
(1.0703e-06 1.58357e-10 5.19198e-23 1.05515e-06 1.23546e-23 1.06148e-06)
(1.03652e-05 3.16859e-07 2.16477e-22 9.9351e-06 -6.25868e-21 1.0194e-05)
(1.79458e-05 -1.16879e-06 -5.01536e-21 1.44773e-05 -5.62447e-21 1.64348e-05)
(1.97221e-05 -6.19919e-07 3.51854e-20 1.52159e-05 3.83607e-20 1.77447e-05)
(2.0643e-05 1.52965e-07 2.017e-20 1.65078e-05 -2.06681e-20 1.85979e-05)
(7.01013e-07 1.55061e-09 -8.87364e-24 6.98858e-07 9.48827e-24 7.00213e-07)
(1.51335e-05 -1.17603e-06 3.98221e-20 1.24804e-05 5.26753e-21 1.36728e-05)
(1.52055e-05 -5.35939e-07 2.16087e-19 1.19705e-05 8.15408e-22 1.35382e-05)
(2.62932e-05 3.20495e-07 -2.49981e-19 1.93908e-05 2.23427e-20 2.26219e-05)
(9.62437e-06 3.12302e-07 7.84747e-21 9.21185e-06 3.68324e-21 9.46524e-06)
(1.53349e-05 -1.09485e-06 4.16015e-21 1.24894e-05 -8.30725e-21 1.39405e-05)
(1.55151e-05 -4.64661e-07 -2.46892e-19 1.21554e-05 -3.88414e-20 1.39106e-05)
(2.23891e-05 3.31001e-07 3.15893e-19 1.69859e-05 4.8576e-20 1.96118e-05)
(2.58615e-05 2.22443e-06 8.48525e-20 2.29566e-05 -3.2187e-20 2.47381e-05)
(1.42122e-05 -1.04803e-06 -9.45985e-20 1.16399e-05 -4.43511e-21 1.28884e-05)
(1.46594e-05 -4.41277e-07 1.60054e-19 1.14382e-05 2.35546e-20 1.30723e-05)
(1.89551e-05 3.24063e-07 -1.44447e-19 1.46645e-05 -6.43617e-20 1.67274e-05)
(2.85198e-05 2.89284e-06 -1.80569e-19 2.48231e-05 -1.0113e-19 2.7072e-05)
(1.3673e-05 -9.90565e-07 1.09027e-19 1.11747e-05 1.33935e-20 1.24169e-05)
(1.41521e-05 -3.96841e-07 -2.24812e-19 1.10147e-05 -2.98822e-20 1.26274e-05)
(1.7414e-05 3.49075e-07 -1.49861e-20 1.35274e-05 2.39176e-20 1.5411e-05)
(2.62067e-05 2.69451e-06 -2.91381e-19 2.28282e-05 3.20305e-20 2.48715e-05)
(1.2909e-05 -9.42909e-07 -8.00653e-20 1.05621e-05 -1.4891e-20 1.17191e-05)
(1.33008e-05 -3.57288e-07 1.46893e-19 1.03464e-05 4.53625e-20 1.18566e-05)
(1.61166e-05 3.74128e-07 2.30087e-20 1.25297e-05 1.97636e-20 1.42683e-05)
(2.35446e-05 2.42035e-06 1.69099e-19 2.0579e-05 5.78398e-20 2.23593e-05)
(1.22231e-05 -8.92673e-07 1.66959e-20 9.99977e-06 7.40626e-21 1.11014e-05)
(1.25307e-05 -3.18905e-07 6.37008e-20 9.74142e-06 -1.40091e-20 1.11703e-05)
(1.49013e-05 3.92235e-07 1.20866e-19 1.15973e-05 -7.807e-21 1.32044e-05)
(2.12155e-05 2.1918e-06 -8.27312e-20 1.85935e-05 -5.30489e-20 2.01566e-05)
(1.14857e-05 -8.43492e-07 1.1232e-20 9.40304e-06 7.64141e-24 1.04345e-05)
(1.17167e-05 -2.84974e-07 -9.30362e-20 9.10385e-06 -1.27881e-20 1.04407e-05)
(1.36913e-05 4.02454e-07 -1.59426e-19 1.06731e-05 -4.13044e-20 1.21444e-05)
(1.91073e-05 1.99016e-06 -9.43194e-20 1.67898e-05 3.5282e-20 1.81614e-05)
(1.07508e-05 -7.9409e-07 -4.4011e-21 8.80764e-06 1.46815e-21 9.77171e-06)
(1.09104e-05 -2.54077e-07 5.01705e-20 8.47319e-06 1.88854e-21 9.71998e-06)
(1.25335e-05 4.06255e-07 -6.5432e-20 9.78904e-06 2.16946e-20 1.11305e-05)
(1.71546e-05 1.80293e-06 2.25679e-19 1.51163e-05 1.6772e-20 1.63139e-05)
(1.00027e-05 -7.45174e-07 4.12635e-20 8.20371e-06 -2.53172e-21 9.09706e-06)
(1.00956e-05 -2.2615e-07 -1.46912e-19 7.83722e-06 -1.85352e-20 8.99176e-06)
(1.14254e-05 4.04668e-07 9.73289e-20 8.94212e-06 2.64247e-20 1.01591e-05)
(1.53437e-05 1.62835e-06 -1.73248e-19 1.35638e-05 -1.66126e-20 1.46018e-05)
(9.25209e-06 -6.96615e-07 -1.1449e-19 7.59853e-06 -1.15544e-20 8.42066e-06)
(9.28276e-06 -2.00856e-07 3.53741e-20 7.20378e-06 2.46072e-20 8.26603e-06)
(1.03667e-05 3.9804e-07 7.26395e-20 8.13188e-06 -9.38405e-21 9.2299e-06)
(1.36699e-05 1.46595e-06 2.80912e-19 1.21277e-05 3.50046e-20 1.302e-05)
(8.50087e-06 -6.48714e-07 5.80072e-20 6.99413e-06 1.22869e-20 7.74407e-06)
(8.47393e-06 -1.78102e-07 1.14159e-19 6.57437e-06 3.75205e-21 7.5443e-06)
(9.3599e-06 3.87124e-07 -7.04661e-20 7.35997e-06 -1.92445e-20 8.34515e-06)
(1.21364e-05 1.31607e-06 -1.68621e-19 1.08106e-05 -4.90858e-20 1.1572e-05)
(7.7539e-06 -6.01499e-07 -1.56371e-20 6.39408e-06 -4.87375e-21 7.07167e-06)
(7.6741e-06 -1.57561e-07 -8.70987e-20 5.95266e-06 -1.7218e-20 6.83103e-06)
(8.40171e-06 3.72671e-07 -4.14401e-20 6.62414e-06 6.88201e-21 7.50194e-06)
(1.07331e-05 1.17804e-06 3.20541e-20 9.60473e-06 2.28757e-20 1.02479e-05)
(7.01523e-06 -5.55036e-07 4.62109e-21 5.80151e-06 3.5206e-21 6.407e-06)
(6.88861e-06 -1.38988e-07 1.33402e-20 5.34261e-06 8.11856e-21 6.13099e-06)
(7.49366e-06 3.55151e-07 4.90716e-20 5.92544e-06 1.4529e-20 6.70174e-06)
(9.45574e-06 1.05144e-06 1.9066e-21 8.50618e-06 -8.09561e-21 9.04357e-06)
(6.28963e-06 -5.09479e-07 3.27498e-20 5.22021e-06 1.6865e-21 5.75435e-06)
(6.12103e-06 -1.22104e-07 3.13801e-21 4.74687e-06 -2.38229e-21 5.44719e-06)
(6.63571e-06 3.3554e-07 6.6393e-20 5.26426e-06 -7.2626e-21 5.94476e-06)
(8.29951e-06 9.35929e-07 -4.75435e-20 7.5112e-06 -2.4373e-21 7.95443e-06)
(5.58208e-06 -4.6495e-07 -2.60823e-20 4.6541e-06 -3.53716e-21 5.11817e-06)
(5.37663e-06 -1.06757e-07 -2.35638e-20 4.16946e-06 7.99216e-22 4.78438e-06)
(5.8269e-06 3.1416e-07 -1.30719e-19 4.63988e-06 -1.5881e-20 5.23011e-06)
(7.25508e-06 8.30638e-07 2.67019e-20 6.61199e-06 9.42269e-21 6.97139e-06)
(4.89705e-06 -4.21495e-07 1.86719e-20 4.10665e-06 6.28789e-22 4.50244e-06)
(4.65891e-06 -9.26219e-08 5.22106e-20 3.61293e-06 7.35543e-21 4.14555e-06)
(5.06938e-06 2.91887e-07 4.89285e-20 4.05447e-06 2.19204e-20 4.56016e-06)
(6.31813e-06 7.35187e-07 2.80114e-20 5.80502e-06 3.77585e-21 6.09051e-06)
(4.2396e-06 -3.79197e-07 -4.84208e-20 3.58187e-06 -3.7775e-21 3.91171e-06)
(3.97189e-06 -7.95213e-08 -2.33829e-21 3.08034e-06 -1.67193e-21 3.53424e-06)
(4.36339e-06 2.69239e-07 8.79048e-20 3.50862e-06 9.93267e-22 3.93532e-06)
(5.48063e-06 6.48869e-07 4.51528e-20 5.08386e-06 -5.14074e-21 5.30404e-06)
(3.61475e-06 -3.38155e-07 4.15917e-20 3.08387e-06 7.05867e-21 3.35058e-06)
(3.31915e-06 -6.72124e-08 3.36978e-20 2.57436e-06 3.07719e-21 2.95359e-06)
(3.71065e-06 2.46787e-07 -6.65682e-20 3.00421e-06 -9.88649e-21 3.35749e-06)
(4.73736e-06 5.71158e-07 -1.06836e-19 4.44426e-06 -9.56778e-21 4.60708e-06)
(3.02784e-06 -2.98454e-07 2.2513e-21 2.61712e-06 -2.16574e-21 2.82395e-06)
(2.70342e-06 -5.55618e-08 -1.08734e-20 2.09706e-06 -5.02336e-21 2.40596e-06)
(3.11273e-06 2.24995e-07 4.88889e-20 2.54313e-06 5.14152e-21 2.82844e-06)
(4.08211e-06 5.01436e-07 6.97853e-20 3.88134e-06 9.15871e-21 3.99374e-06)
(2.4848e-06 -2.60164e-07 -2.93886e-21 2.18676e-06 -9.23696e-22 2.33736e-06)
(2.12737e-06 -4.43442e-08 -3.22327e-20 1.65041e-06 -4.00425e-21 1.89367e-06)
(2.57275e-06 2.04293e-07 -7.19161e-20 2.1287e-06 -8.59051e-21 2.35147e-06)
(3.51012e-06 4.39153e-07 -8.63037e-20 3.39135e-06 -1.39357e-20 3.45957e-06)
(1.9932e-06 -2.23372e-07 -9.38492e-21 1.79965e-06 -1.31079e-21 1.89805e-06)
(1.59317e-06 -3.34619e-08 -2.25406e-20 1.23605e-06 -8.80933e-22 1.41863e-06)
(2.09495e-06 1.8502e-07 3.49189e-20 1.76544e-06 8.28474e-21 1.93103e-06)
(3.01736e-06 3.83813e-07 -8.13789e-21 2.97128e-06 9.44524e-21 3.00081e-06)
(1.56328e-06 -1.88159e-07 -9.25647e-21 1.46553e-06 -1.02261e-21 1.51601e-06)
(1.1017e-06 -2.28284e-08 -5.87065e-21 8.5463e-07 2.10168e-21 9.81527e-07)
(1.6861e-06 1.67439e-07 3.16291e-21 1.46036e-06 -1.11011e-21 1.57405e-06)
(2.59999e-06 3.34886e-07 8.33626e-20 2.61818e-06 1.33165e-20 2.61388e-06)
(1.21073e-06 -1.54614e-07 -1.27767e-20 1.19963e-06 -1.08054e-21 1.20675e-06)
(6.54555e-07 -1.23516e-08 3.0581e-20 5.07371e-07 2.95946e-21 5.83791e-07)
(1.35579e-06 1.51722e-07 1.22602e-20 1.22344e-06 -5.71039e-22 1.29034e-06)
(2.2548e-06 2.91913e-07 8.33823e-20 2.32965e-06 6.69663e-23 2.29583e-06)
(9.57867e-07 -1.2284e-07 -3.79174e-21 1.024e-06 1.18844e-21 9.92431e-07)
(2.53443e-07 -2.02103e-09 -9.85417e-21 1.95914e-07 -1.88127e-21 2.27068e-07)
(1.11627e-06 1.37958e-07 -2.9302e-20 1.0672e-06 -3.64003e-21 1.09233e-06)
(1.97808e-06 2.54436e-07 -7.27076e-20 2.10265e-06 -1.41258e-20 2.04316e-06)
(8.25147e-07 -9.292e-08 2.32882e-20 9.5903e-07 2.3671e-21 8.93495e-07)
(9.60892e-08 8.17931e-09 1.36671e-20 1.18004e-07 -1.48975e-22 1.09073e-07)
(9.75696e-07 1.26202e-07 2.05167e-22 1.00015e-06 3.27382e-21 9.88389e-07)
(1.76503e-06 2.22023e-07 -5.24364e-20 1.93292e-06 -5.56426e-22 1.85123e-06)
(8.07329e-07 -6.49386e-08 -4.94544e-21 9.99488e-07 -1.14966e-21 9.04692e-07)
(3.3699e-07 1.8208e-08 -4.66857e-20 4.28279e-07 -4.22927e-21 3.84361e-07)
(9.26211e-07 1.16403e-07 3.57048e-20 1.01483e-06 1.64446e-21 9.70856e-07)
(1.60876e-06 1.94232e-07 2.51106e-20 1.81408e-06 2.95562e-21 1.71334e-06)
(8.66668e-07 -3.89724e-08 7.95865e-21 1.10782e-06 7.1535e-22 9.88402e-07)
(5.51297e-07 2.80301e-08 2.98079e-20 7.02148e-07 4.53398e-21 6.28198e-07)
(9.42272e-07 1.08465e-07 -4.39347e-20 1.08612e-06 -5.14731e-21 1.01441e-06)
(1.50049e-06 1.70648e-07 -4.71417e-20 1.73776e-06 -5.3136e-21 1.62084e-06)
(9.61157e-07 -1.50968e-08 -7.48838e-21 1.24234e-06 -5.90827e-22 1.10277e-06)
(7.35201e-07 3.75602e-08 -1.41955e-20 9.36161e-07 -2.57872e-21 8.3695e-07)
(9.94042e-07 1.02259e-07 2.19843e-20 1.18463e-06 3.07527e-21 1.08946e-06)
(1.42992e-06 1.50866e-07 1.41021e-20 1.69401e-06 5.88444e-21 1.56357e-06)
(1.0631e-06 6.64616e-09 1.30229e-20 1.37579e-06 1.79453e-21 1.22035e-06)
(8.89927e-07 4.67198e-08 3.5276e-21 1.13202e-06 3.48337e-22 1.01206e-06)
(1.05893e-06 9.75964e-08 -2.7947e-20 1.28827e-06 -2.03276e-21 1.17364e-06)
(1.38655e-06 1.3447e-07 6.52569e-20 1.67264e-06 5.65862e-21 1.53114e-06)
(1.46244e-06 1.25329e-08 -8.87014e-21 1.89212e-06 -8.82864e-23 1.67804e-06)
(1.15794e-06 2.62079e-08 3.85872e-21 1.49419e-06 -1.3944e-21 1.32683e-06)
(1.01706e-06 5.53964e-08 -1.6559e-20 1.29186e-06 2.36306e-22 1.15539e-06)
(1.12331e-06 9.42839e-08 4.77376e-20 1.38392e-06 6.10465e-21 1.25359e-06)
(1.36093e-06 1.21072e-07 -9.22116e-21 1.66448e-06 -3.19707e-21 1.51423e-06)
(1.48729e-06 3.67704e-08 2.39965e-20 1.91792e-06 2.64154e-21 1.70325e-06)
(1.23875e-06 4.35879e-08 -3.89185e-20 1.59122e-06 -4.05148e-21 1.41563e-06)
(1.11848e-06 6.35101e-08 5.95002e-20 1.41816e-06 5.66918e-21 1.26913e-06)
(1.17987e-06 9.21028e-08 3.83895e-21 1.46479e-06 -3.14803e-21 1.32227e-06)
(1.34533e-06 1.10283e-07 3.00661e-21 1.66206e-06 6.4929e-22 1.50523e-06)
(1.50838e-06 5.75626e-08 -6.73721e-21 1.93482e-06 -1.76007e-21 1.72213e-06)
(1.30265e-06 5.8787e-08 7.63355e-21 1.66473e-06 2.80352e-21 1.48423e-06)
(1.19628e-06 7.09473e-08 -3.30489e-20 1.5137e-06 -5.68045e-21 1.35568e-06)
(1.22513e-06 9.08211e-08 -5.46767e-20 1.52801e-06 -5.18931e-21 1.37646e-06)
(1.33403e-06 1.01728e-07 -1.75608e-21 1.65996e-06 -1.37088e-21 1.49853e-06)
(1.5217e-06 7.50616e-08 -9.51211e-21 1.93953e-06 -3.76253e-22 1.73105e-06)
(1.34899e-06 7.18506e-08 2.30085e-20 1.71479e-06 2.79966e-21 1.53232e-06)
(1.25254e-06 7.76362e-08 -6.38598e-21 1.58125e-06 9.43563e-22 1.41749e-06)
(1.25769e-06 9.0235e-08 2.01383e-20 1.57272e-06 4.08841e-21 1.41509e-06)
(1.32299e-06 9.50692e-08 -3.46783e-20 1.65437e-06 -2.56631e-21 1.49023e-06)
(1.52514e-06 8.94553e-08 1.53983e-20 1.93067e-06 2.01096e-21 1.72825e-06)
(1.37828e-06 8.28399e-08 1.8965e-20 1.7427e-06 1.2119e-21 1.56084e-06)
(1.28949e-06 8.35068e-08 1.82062e-20 1.62379e-06 1.56163e-21 1.45714e-06)
(1.27753e-06 9.01259e-08 5.68977e-21 1.59952e-06 6.86121e-22 1.43839e-06)
(1.30966e-06 8.99636e-08 3.36994e-20 1.64309e-06 4.97483e-21 1.47793e-06)
(1.51798e-06 1.00961e-07 2.41728e-21 1.90825e-06 -2.04091e-22 1.71339e-06)
(1.3917e-06 9.18385e-08 -5.29712e-21 1.7504e-06 -1.68202e-21 1.57132e-06)
(1.30926e-06 8.84963e-08 -2.12448e-20 1.64419e-06 -2.43017e-21 1.47715e-06)
(1.28522e-06 9.03071e-08 2.46124e-20 1.60958e-06 1.9264e-21 1.44725e-06)
(1.29255e-06 8.61159e-08 1.68812e-20 1.62488e-06 7.12954e-22 1.46027e-06)
(1.50042e-06 1.09823e-07 -1.04276e-21 1.87313e-06 -3.85044e-23 1.687e-06)
(1.39087e-06 9.89693e-08 -2.32096e-20 1.74023e-06 -2.2808e-21 1.56575e-06)
(1.31404e-06 9.25934e-08 1.47728e-20 1.64534e-06 1.95321e-21 1.48005e-06)
(1.28172e-06 9.06157e-08 -1.80011e-20 1.60443e-06 -3.12264e-21 1.44292e-06)
(1.27086e-06 8.32551e-08 -6.37638e-21 1.59928e-06 -1.97618e-21 1.43662e-06)
(1.47322e-06 1.16296e-07 4.93886e-21 1.82671e-06 5.08933e-22 1.65013e-06)
(1.37752e-06 1.04355e-07 4.70202e-21 1.71465e-06 1.61367e-21 1.54624e-06)
(1.30594e-06 9.57783e-08 -8.85391e-21 1.63008e-06 -1.35841e-21 1.46832e-06)
(1.26834e-06 9.09103e-08 -2.02205e-20 1.586e-06 -1.11705e-21 1.42701e-06)
(1.24449e-06 8.11351e-08 -3.71688e-20 1.56652e-06 -3.30033e-21 1.40704e-06)
(1.43749e-06 1.20638e-07 -4.72086e-21 1.77063e-06 -5.05116e-22 1.60419e-06)
(1.35345e-06 1.08135e-07 2.23913e-20 1.67613e-06 2.00768e-21 1.5149e-06)
(1.28689e-06 9.80648e-08 -1.44973e-21 1.60099e-06 -1.51603e-24 1.4442e-06)
(1.24632e-06 9.10728e-08 2.28728e-20 1.55605e-06 3.13945e-21 1.40102e-06)
(1.21358e-06 7.95463e-08 2.34124e-20 1.52708e-06 2.60587e-21 1.37185e-06)
(1.39452e-06 1.23113e-07 7.33327e-21 1.70671e-06 1.1961e-21 1.55071e-06)
(1.32047e-06 1.10473e-07 -1.7482e-20 1.62706e-06 -2.91906e-21 1.47384e-06)
(1.25878e-06 9.94895e-08 -2.67975e-21 1.56058e-06 -1.08701e-22 1.40991e-06)
(1.21699e-06 9.10225e-08 8.49236e-21 1.51645e-06 9.38362e-22 1.36655e-06)
(1.17852e-06 7.83079e-08 -3.61621e-20 1.48166e-06 -4.34975e-21 1.33158e-06)
(1.34559e-06 1.23955e-07 1.41858e-20 1.63663e-06 1.35598e-21 1.49118e-06)
(1.28021e-06 1.11507e-07 -2.29111e-20 1.56959e-06 -2.20907e-21 1.42495e-06)
(1.2233e-06 1.00084e-07 6.33885e-21 1.51111e-06 4.83354e-22 1.36739e-06)
(1.18162e-06 9.06749e-08 2.42845e-20 1.46898e-06 2.68981e-21 1.32513e-06)
(1.13989e-06 7.72586e-08 3.86787e-21 1.43121e-06 9.97364e-22 1.287e-06)
(1.29194e-06 1.23404e-07 -8.08801e-21 1.56198e-06 -1.05447e-21 1.42701e-06)
(1.23414e-06 1.11385e-07 1.03e-21 1.50567e-06 7.68023e-22 1.36993e-06)
(1.18187e-06 9.98929e-08 -1.34743e-20 1.45447e-06 -1.67625e-21 1.31833e-06)
(1.14128e-06 8.99821e-08 8.8928e-21 1.41515e-06 7.02716e-24 1.27805e-06)
(1.09818e-06 7.62707e-08 -9.03659e-21 1.37648e-06 -1.3077e-21 1.23875e-06)
(1.23463e-06 1.21652e-07 8.12575e-21 1.48411e-06 1.0269e-21 1.35941e-06)
(1.18355e-06 1.10239e-07 1.23125e-20 1.43695e-06 1.0393e-21 1.31026e-06)
(1.13579e-06 9.89658e-08 -8.36883e-22 1.3924e-06 6.74938e-22 1.26424e-06)
(1.09699e-06 8.88974e-08 -2.64477e-20 1.35637e-06 -3.52191e-21 1.22651e-06)
(1.05393e-06 7.52195e-08 -1.45189e-20 1.31834e-06 -1.36967e-21 1.18751e-06)
(1.17453e-06 1.18872e-07 -3.1596e-21 1.4041e-06 -5.70907e-22 1.28934e-06)
(1.12942e-06 1.0818e-07 -2.2044e-20 1.36474e-06 -2.83165e-21 1.24707e-06)
(1.08602e-06 9.73317e-08 2.97624e-20 1.32624e-06 3.63245e-21 1.20625e-06)
(1.04951e-06 8.73784e-08 -2.22805e-20 1.29376e-06 -1.56068e-21 1.17146e-06)
(1.00757e-06 7.39998e-08 5.63696e-21 1.25746e-06 7.72891e-22 1.13383e-06)
(1.15351e-06 1.25118e-07 1.90551e-21 1.35539e-06 6.21872e-23 1.25446e-06)
(1.11237e-06 1.15215e-07 -4.47371e-21 1.32282e-06 -8.06413e-22 1.21762e-06)
(1.07259e-06 1.05311e-07 -4.67742e-21 1.29011e-06 2.92484e-22 1.18134e-06)
(1.03338e-06 9.50371e-08 1.27498e-20 1.25708e-06 7.24142e-22 1.14535e-06)
(9.99478e-07 8.53994e-08 2.95377e-20 1.22824e-06 4.08352e-21 1.11369e-06)
(9.59427e-07 7.25221e-08 -4.12439e-21 1.19441e-06 -6.81557e-22 1.07818e-06)
(1.08445e-06 1.19739e-07 -4.95991e-21 1.26737e-06 -4.66318e-22 1.17591e-06)
(1.04873e-06 1.10814e-07 -2.44229e-20 1.24098e-06 -2.76231e-21 1.14487e-06)
(1.01374e-06 1.01727e-07 3.46841e-20 1.21396e-06 3.90966e-21 1.11383e-06)
(9.78535e-07 9.21222e-08 -1.73754e-20 1.18585e-06 -2.0554e-21 1.08229e-06)
(9.47439e-07 8.29415e-08 2.2651e-20 1.16062e-06 2.08782e-21 1.05386e-06)
(9.09826e-07 7.07202e-08 -8.67757e-21 1.12972e-06 -8.3647e-22 1.02097e-06)
(1.01526e-06 1.13811e-07 1.31291e-20 1.18057e-06 1.68738e-21 1.09792e-06)
(9.84289e-07 1.05814e-07 5.81781e-21 1.15932e-06 9.4846e-22 1.07181e-06)
(9.53595e-07 9.75419e-08 -1.74714e-20 1.13714e-06 -2.47218e-21 1.04535e-06)
(9.22174e-07 8.86622e-08 1.15396e-20 1.11342e-06 1.46052e-21 1.01789e-06)
(8.93972e-07 8.00354e-08 -2.70537e-21 1.09169e-06 -7.35427e-22 9.92675e-07)
(8.59114e-07 6.85677e-08 6.66376e-21 1.06392e-06 8.78532e-22 9.62649e-07)
(9.46637e-07 1.07505e-07 3.72398e-21 1.09566e-06 1.55756e-22 1.02115e-06)
(9.19822e-07 1.00374e-07 -4.01593e-21 1.07868e-06 -3.74624e-22 9.99257e-07)
(8.92993e-07 9.28975e-08 4.32587e-21 1.06064e-06 8.0908e-22 9.76791e-07)
(8.65104e-07 8.47595e-08 -1.05837e-20 1.04081e-06 -1.19486e-21 9.53036e-07)
(8.39787e-07 7.67411e-08 -7.24763e-21 1.02238e-06 -8.53625e-22 9.30934e-07)
(8.07842e-07 6.60842e-08 -4.59182e-22 9.97768e-07 -3.89053e-23 9.03859e-07)
(8.79504e-07 1.0101e-07 -1.43215e-20 1.01355e-06 -1.71274e-21 9.46529e-07)
(8.5632e-07 9.46776e-08 1.6275e-20 1.0001e-06 2.19062e-21 9.28217e-07)
(8.32939e-07 8.79602e-08 6.96483e-21 9.85564e-07 6.16252e-22 9.09226e-07)
(8.08313e-07 8.05587e-08 1.65814e-20 9.69148e-07 1.94294e-21 8.88801e-07)
(7.8579e-07 7.31779e-08 -4.06857e-21 9.53756e-07 -3.06046e-22 8.69636e-07)
(7.56755e-07 6.33531e-08 9.03063e-21 9.32176e-07 8.53562e-22 8.45444e-07)
(8.14849e-07 9.45145e-08 6.73992e-21 9.35222e-07 9.37977e-22 8.75036e-07)
(7.9483e-07 8.89123e-08 1.79187e-20 9.24684e-07 1.92446e-21 8.59762e-07)
(7.74501e-07 8.29086e-08 -1.53257e-20 9.13078e-07 -1.74613e-21 8.43765e-07)
(7.52835e-07 7.62197e-08 -1.36838e-20 8.99601e-07 -2.05268e-21 8.26282e-07)
(7.3293e-07 6.94781e-08 5.78691e-21 8.86926e-07 6.9014e-22 8.09803e-07)
(7.06702e-07 6.04777e-08 -1.89347e-20 8.68167e-07 -2.07138e-21 7.88337e-07)
(7.53429e-07 8.81673e-08 -2.6041e-21 8.6139e-07 -6.051e-22 8.0741e-07)
(7.36141e-07 8.32256e-08 -8.031e-21 8.53214e-07 -9.34857e-22 7.94682e-07)
(7.18489e-07 7.78828e-08 1.69503e-20 8.44037e-07 2.15557e-21 7.8124e-07)
(6.99478e-07 7.18698e-08 -2.42875e-20 8.33067e-07 -2.71068e-21 7.66331e-07)
(6.81979e-07 6.57533e-08 -5.3568e-21 8.22775e-07 -7.06413e-22 7.52262e-07)
(6.58418e-07 5.75565e-08 2.47609e-20 8.06612e-07 2.90587e-21 7.33345e-07)
(6.95417e-07 8.20305e-08 -2.73668e-20 7.92156e-07 -3.26697e-21 7.43785e-07)
(6.8048e-07 7.76815e-08 2.26707e-20 7.85883e-07 2.64935e-21 7.33185e-07)
(6.65161e-07 7.29425e-08 -4.56057e-21 7.78699e-07 -5.88984e-22 7.21908e-07)
(6.48526e-07 6.7563e-08 4.84823e-21 7.69858e-07 8.46047e-22 7.09245e-07)
(6.33211e-07 6.20479e-08 2.21655e-21 7.61624e-07 4.79972e-23 6.97313e-07)
(6.1218e-07 5.46253e-08 -1.88069e-20 7.47848e-07 -2.33326e-21 6.80776e-07)
(6.40351e-07 7.60784e-08 8.58567e-21 7.26932e-07 1.21601e-21 6.83641e-07)
(6.27435e-07 7.22565e-08 -2.38517e-20 7.22184e-07 -3.06927e-21 6.74813e-07)
(6.1416e-07 6.80648e-08 1.54322e-20 7.16643e-07 1.95181e-21 6.65381e-07)
(5.99655e-07 6.32717e-08 5.67374e-21 7.09612e-07 5.5115e-22 6.54681e-07)
(5.86322e-07 5.83212e-08 -2.76125e-20 7.03161e-07 -3.36022e-21 6.44645e-07)
(5.67713e-07 5.16397e-08 1.2472e-20 6.91607e-07 1.68501e-21 6.30354e-07)
(5.98231e-07 7.32515e-08 2.99574e-22 6.67594e-07 -1.40625e-22 6.32914e-07)
(5.87374e-07 7.02255e-08 -5.64533e-21 6.6471e-07 -6.8373e-22 6.26041e-07)
(5.76199e-07 6.68682e-08 4.17561e-21 6.61182e-07 7.54584e-22 6.18694e-07)
(5.64719e-07 6.31674e-08 5.012e-21 6.56995e-07 4.72963e-22 6.1084e-07)
(5.52144e-07 5.89117e-08 -1.18706e-20 6.51529e-07 -1.34551e-21 6.0188e-07)
(5.40636e-07 5.44862e-08 -5.48048e-21 6.4665e-07 -5.63097e-22 5.93558e-07)
(5.24352e-07 4.85092e-08 6.84308e-21 6.37155e-07 6.53338e-22 5.81382e-07)
(5.45279e-07 6.70634e-08 -2.67275e-20 6.06769e-07 -3.32826e-21 5.76024e-07)
(5.35863e-07 6.44152e-08 9.75083e-21 6.04739e-07 1.37805e-21 5.70299e-07)
(5.26208e-07 6.14663e-08 8.41285e-21 6.02205e-07 9.10037e-22 5.64207e-07)
(5.16326e-07 5.82031e-08 -2.8519e-21 5.99162e-07 -4.88949e-22 5.57726e-07)
(5.0551e-07 5.44343e-08 1.67922e-20 5.95058e-07 2.2337e-21 5.5032e-07)
(4.95696e-07 5.04893e-08 -1.72682e-20 5.91589e-07 -1.76418e-21 5.43569e-07)
(4.81616e-07 4.51701e-08 -9.01719e-21 5.83976e-07 -1.21561e-21 5.33351e-07)
(4.93916e-07 6.09828e-08 -7.12591e-22 5.48207e-07 1.14986e-22 5.21065e-07)
(4.85738e-07 5.8662e-08 1.88116e-20 5.46844e-07 2.26585e-21 5.16294e-07)
(4.77413e-07 5.60724e-08 -1.4719e-20 5.45119e-07 -1.88681e-21 5.11272e-07)
(4.68948e-07 5.31973e-08 -1.70575e-20 5.43033e-07 -2.07613e-21 5.0598e-07)
(4.59716e-07 4.98663e-08 1.37238e-20 5.40098e-07 1.69798e-21 4.99942e-07)
(4.51465e-07 4.63551e-08 3.60297e-20 5.37894e-07 4.45626e-21 4.94628e-07)
(4.39421e-07 4.1642e-08 -1.24314e-20 5.31941e-07 -1.62963e-21 4.86167e-07)
(4.44771e-07 5.51026e-08 6.6164e-21 4.92527e-07 7.68978e-22 4.68644e-07)
(4.37668e-07 5.30666e-08 -8.46201e-22 4.91697e-07 -1.27904e-22 4.64676e-07)
(4.30506e-07 5.0791e-08 -1.55562e-21 4.90632e-07 -7.95168e-23 4.60565e-07)
(4.23283e-07 4.8256e-08 -8.5533e-22 4.89338e-07 -4.58838e-23 4.56295e-07)
(4.15454e-07 4.53136e-08 2.40704e-20 4.87385e-07 2.77795e-21 4.51439e-07)
(4.08625e-07 4.21896e-08 -3.9404e-21 4.86297e-07 -7.02079e-22 4.4742e-07)
(3.98398e-07 3.80202e-08 -3.35268e-20 4.81752e-07 -3.95152e-21 4.40475e-07)
(3.98621e-07 4.95495e-08 -1.37133e-20 4.40409e-07 -1.71721e-21 4.19522e-07)
(3.92436e-07 4.77618e-08 1.6472e-20 4.3999e-07 2.0137e-21 4.16222e-07)
(3.86269e-07 4.57613e-08 4.19912e-21 4.39443e-07 6.38507e-22 4.12864e-07)
(3.80119e-07 4.35266e-08 -8.97805e-21 4.38789e-07 -1.2107e-21 4.09453e-07)
(3.73499e-07 4.09278e-08 -1.18125e-20 4.37628e-07 -1.44625e-21 4.05589e-07)
(3.67886e-07 3.81447e-08 4.26891e-21 4.37447e-07 4.61919e-22 4.02661e-07)
(3.59186e-07 3.44511e-08 3.25829e-21 4.34007e-07 7.39153e-22 3.96942e-07)
(3.56769e-07 4.44846e-08 5.95512e-21 3.9329e-07 7.19144e-22 3.7502e-07)
(3.51345e-07 4.29098e-08 -9.51496e-21 3.93159e-07 -1.26363e-21 3.72245e-07)
(3.46009e-07 4.11467e-08 2.44839e-20 3.92994e-07 2.93571e-21 3.69495e-07)
(3.40792e-07 3.91791e-08 -1.95132e-20 3.92855e-07 -2.35548e-21 3.6681e-07)
(3.35253e-07 3.68909e-08 2.73518e-20 3.92375e-07 3.36915e-21 3.63819e-07)
(3.30736e-07 3.4427e-08 -1.49187e-20 3.92964e-07 -1.88731e-21 3.6184e-07)
(3.23496e-07 3.11747e-08 3.03666e-20 3.90598e-07 3.70257e-21 3.5731e-07)
(3.21871e-07 4.02156e-08 -1.55473e-20 3.54294e-07 -2.09266e-21 3.38074e-07)
(3.16937e-07 3.87878e-08 -3.8944e-22 3.54257e-07 -1.04677e-23 3.35587e-07)
(3.12143e-07 3.71884e-08 -1.08196e-20 3.54263e-07 -1.39013e-21 3.33192e-07)
(3.07532e-07 3.54001e-08 -6.33065e-22 3.54393e-07 3.98521e-23 3.30949e-07)
(3.02712e-07 3.33209e-08 -4.72241e-21 3.54302e-07 -8.12862e-22 3.28503e-07)
(2.98946e-07 3.10657e-08 -7.80502e-21 3.5538e-07 -8.43593e-22 3.27157e-07)
(2.92946e-07 2.81512e-08 1.0866e-20 3.53925e-07 1.03684e-21 3.23625e-07)
(2.93805e-07 3.67833e-08 -2.25352e-20 3.22895e-07 -2.73113e-21 3.08358e-07)
(2.89157e-07 3.54622e-08 -3.45897e-21 3.22817e-07 -3.65664e-22 3.05993e-07)
(2.84687e-07 3.39831e-08 1.30668e-20 3.22829e-07 1.65861e-21 3.03763e-07)
(2.80415e-07 3.23251e-08 1.79269e-23 3.22998e-07 -5.01123e-23 3.01711e-07)
(2.75996e-07 3.03989e-08 -1.13392e-20 3.23004e-07 -1.48245e-21 2.99509e-07)
(2.72638e-07 2.82973e-08 1.12098e-21 3.24233e-07 4.83844e-22 2.98459e-07)
(2.6739e-07 2.56398e-08 -1.70419e-20 3.23199e-07 -2.3012e-21 2.95461e-07)
(2.68623e-07 3.37135e-08 3.22519e-21 2.94603e-07 5.65482e-22 2.81614e-07)
(2.64182e-07 3.24898e-08 9.87538e-21 2.94414e-07 1.23377e-21 2.79301e-07)
(2.59924e-07 3.11178e-08 -7.68259e-21 2.94336e-07 -1.02324e-21 2.7714e-07)
(2.55892e-07 2.95822e-08 -1.08355e-20 2.94441e-07 -1.42814e-21 2.75177e-07)
(2.51764e-07 2.77974e-08 -2.06077e-20 2.94446e-07 -2.35273e-21 2.73118e-07)
(2.48693e-07 2.58465e-08 4.37268e-20 2.95682e-07 5.24636e-21 2.72214e-07)
(2.44037e-07 2.34166e-08 -2.91792e-20 2.94949e-07 -3.30472e-21 2.6961e-07)
(2.44339e-07 3.07484e-08 9.22684e-21 2.67316e-07 1.16902e-21 2.55815e-07)
(2.40114e-07 2.96196e-08 -3.21586e-21 2.67047e-07 -4.76627e-22 2.53563e-07)
(2.36061e-07 2.83489e-08 2.95594e-21 2.66889e-07 3.84529e-22 2.51458e-07)
(2.32263e-07 2.69283e-08 -1.69837e-20 2.6695e-07 -2.11016e-21 2.49588e-07)
(2.28409e-07 2.52755e-08 2.57347e-20 2.66953e-07 3.25227e-21 2.47666e-07)
(2.25576e-07 2.34634e-08 -2.51478e-20 2.68155e-07 -3.21651e-21 2.4687e-07)
(2.21432e-07 2.12523e-08 3.4639e-20 2.67627e-07 4.33374e-21 2.44609e-07)
(2.24605e-07 2.87411e-08 1.25425e-20 2.4082e-07 1.59755e-21 2.3276e-07)
(2.20133e-07 2.77975e-08 6.43552e-21 2.40054e-07 8.05778e-22 2.30144e-07)
(2.15942e-07 2.6746e-08 -5.53566e-21 2.395e-07 -7.29566e-22 2.27771e-07)
(2.12003e-07 2.55714e-08 -4.99158e-21 2.39152e-07 -6.76865e-22 2.25622e-07)
(2.08392e-07 2.42602e-08 -1.10565e-20 2.39131e-07 -1.26885e-21 2.23798e-07)
(2.04874e-07 2.27415e-08 -1.09933e-20 2.39229e-07 -1.41248e-21 2.22067e-07)
(2.02527e-07 2.10893e-08 2.84508e-20 2.40702e-07 3.6396e-21 2.21612e-07)
(1.99731e-07 1.91412e-08 -1.59854e-20 2.41456e-07 -2.08139e-21 2.20555e-07)
(2.00052e-07 2.56428e-08 -6.30959e-21 2.13847e-07 -7.75467e-22 2.06843e-07)
(1.95223e-07 2.4704e-08 1.06381e-20 2.12395e-07 1.24231e-21 2.03722e-07)
(1.90623e-07 2.36587e-08 -1.10372e-20 2.11093e-07 -1.2795e-21 2.00803e-07)
(1.86287e-07 2.25032e-08 -9.77705e-21 2.0998e-07 -1.27185e-21 1.98114e-07)
(1.82266e-07 2.12191e-08 9.0838e-21 2.09172e-07 1.09759e-21 1.95748e-07)
(1.78384e-07 1.97484e-08 1.81369e-20 2.08506e-07 2.43885e-21 1.93528e-07)
(1.75131e-07 1.80543e-08 -3.30376e-21 2.08681e-07 -6.33647e-22 1.92118e-07)
(1.71241e-07 1.61628e-08 8.3435e-21 2.07619e-07 1.14794e-21 1.89779e-07)
(1.69267e-07 2.17997e-08 2.03977e-20 1.79457e-07 2.60389e-21 1.74447e-07)
(1.64371e-07 2.09152e-08 -2.39799e-20 1.77776e-07 -3.12505e-21 1.71068e-07)
(1.59934e-07 1.9935e-08 2.78124e-20 1.76548e-07 3.57674e-21 1.68138e-07)
(1.55988e-07 1.88456e-08 -2.19483e-20 1.75806e-07 -2.73912e-21 1.6569e-07)
(1.52668e-07 1.76349e-08 -2.51945e-20 1.75725e-07 -3.22452e-21 1.63878e-07)
(1.50031e-07 1.62761e-08 3.62261e-20 1.76351e-07 4.58236e-21 1.62702e-07)
(1.49787e-07 1.49396e-08 -2.25094e-20 1.79609e-07 -2.85949e-21 1.63947e-07)
(1.51435e-07 1.35298e-08 1.77436e-20 1.84891e-07 2.17991e-21 1.66967e-07)
(1.261e-07 1.63235e-08 3.05018e-21 1.31997e-07 2.92965e-22 1.2951e-07)
(1.18455e-07 1.52149e-08 -2.13242e-20 1.26634e-07 -2.64913e-21 1.23233e-07)
(1.11405e-07 1.40608e-08 1.38907e-20 1.21794e-07 1.62937e-21 1.17512e-07)
(1.05069e-07 1.28557e-08 -3.74304e-21 1.17638e-07 -3.24977e-22 1.12482e-07)
(9.94157e-08 1.15369e-08 -1.54362e-20 1.14253e-07 -1.83889e-21 1.08215e-07)
(9.43879e-08 9.99996e-09 4.08729e-20 1.11611e-07 4.95501e-21 1.04724e-07)
(8.9687e-08 7.73243e-09 -2.1243e-20 1.09785e-07 -2.48059e-21 1.02241e-07)
(8.44735e-08 5.54827e-09 4.29379e-21 1.0566e-07 3.68588e-22 9.81563e-08)
(1.01202e-07 1.26206e-08 -1.06609e-20 1.07384e-07 -1.32899e-21 1.0154e-07)
(9.77333e-08 1.16969e-08 -1.08155e-20 1.07384e-07 -1.29785e-21 9.93944e-08)
(9.56037e-08 1.0631e-08 -1.74975e-20 1.08699e-07 -2.27309e-21 9.86176e-08)
(9.49904e-08 9.42477e-09 3.0103e-20 1.1143e-07 3.76213e-21 9.93159e-08)
(9.65824e-08 8.17447e-09 5.04199e-21 1.16234e-07 6.83863e-22 1.02088e-07)
(1.00965e-07 7.03377e-09 -9.76623e-21 1.2339e-07 -1.32241e-21 1.07035e-07)
(1.13107e-07 6.9487e-09 2.53902e-20 1.38422e-07 3.18609e-21 1.19144e-07)
(1.30613e-07 6.81273e-09 -3.82801e-20 1.6052e-07 -4.74834e-21 1.37366e-07)
(1.22632e-07 4.55711e-09 1.41024e-20 1.01742e-07 1.77355e-21 1.21658e-07)
(1.21491e-07 3.92954e-09 4.75579e-21 1.01327e-07 6.47761e-22 1.2142e-07)
(1.20177e-07 3.39182e-09 -2.08747e-20 1.0085e-07 -2.572e-21 1.20984e-07)
(1.18391e-07 2.85022e-09 -1.43031e-20 1.00223e-07 -1.89009e-21 1.20261e-07)
(1.16411e-07 2.00454e-09 5.48962e-21 1.00072e-07 7.70557e-22 1.1994e-07)
(1.17635e-07 3.77152e-10 6.55019e-21 1.04425e-07 7.284e-22 1.2431e-07)