/*--------------------------------*- C++ -*----------------------------------*\
| =========                 |                                                 |
| \\      /  F ield         | OpenFOAM: The Open Source CFD Toolbox           |
|  \\    /   O peration     | Version:  2506                                  |
|   \\  /    A nd           | Website:  www.openfoam.com                      |
|    \\/     M anipulation  |                                                 |
\*---------------------------------------------------------------------------*/
FoamFile
{
    version     2.0;
    format      ascii;
    arch        "LSB;label=32;scalar=64";
    class       pointScalarField;
    location    "0";
    object      streamFunction;
}
// * * * * * * * * * * * * * * * * * * * * * * * * * * * * * * * * * * * * * //

dimensions      [0 3 -1 0 0 0 0];

internalField   nonuniform List<scalar> 
19880
(
0
-0.0954684
-0.112832
-0.130196
-0.14756
-0.164924
0
-0.00174322
-0.00348654
-0.00522934
-0.00697296
-0.00871657
0
0.0139201
0.0278409
0.0417608
0.0556817
0.0696025
0
0.0292417
0.0584832
0.0877249
0.116966
0.146207
0
0.043842
0.0876833
0.131525
0.175368
0.21921
0
0.0573635
0.114726
0.17209
0.229452
0.286816
0
-0.0954684
-0.112832
-0.130196
-0.14756
-0.164924
0
-0.00174322
-0.00348654
-0.00522934
-0.00697296
-0.00871657
0
0.0139201
0.0278409
0.0417608
0.0556817
0.0696025
0
0.0292417
0.0584832
0.0877249
0.116966
0.146207
0
0.043842
0.0876833
0.131525
0.175368
0.21921
0
0.0573635
0.114726
0.17209
0.229452
0.286816
0.144325
0.125436
0.0941505
0.0519927
0
0.24357
0.219996
0.182453
0.131863
0.0694734
0.342059
0.314557
0.270756
0.211735
0.138946
0.440548
0.409118
0.359059
0.291606
0.208418
0.539037
0.503678
0.447362
0.371477
0.277891
0.638281
0.598239
0.535665
0.451348
0.347363
0.144325
0.125436
0.0941505
0.0519927
0
0.24357
0.219996
0.182453
0.131863
0.0694734
0.342059
0.314557
0.270756
0.211735
0.138946
0.440548
0.409118
0.359059
0.291606
0.208418
0.539037
0.503678
0.447362
0.371477
0.277891
0.638281
0.598239
0.535665
0.451348
0.347363
-0.0028773
0.0480777
0.0890737
0.119099
0.137414
0.0678327
0.12898
0.178174
0.214204
0.236183
0.137031
0.20837
0.265764
0.307799
0.333441
0.20623
0.28776
0.353353
0.401394
0.4307
0.275428
0.36715
0.440943
0.494989
0.527958
0.345382
0.447295
0.529287
0.589339
0.625971
-0.0028773
0.0480777
0.0890737
0.119099
0.137414
0.0678327
0.12898
0.178174
0.214204
0.236183
0.137031
0.20837
0.265764
0.307799
0.333441
0.20623
0.28776
0.353353
0.401394
0.4307
0.275428
0.36715
0.440943
0.494989
0.527958
0.345382
0.447295
0.529287
0.589339
0.625971
-0.361719
-0.360963
-0.359452
-0.357941
-0.35643
-0.278213
-0.205285
-0.220172
-0.234304
-0.248437
-0.26257
-0.278213
-0.0527018
-0.0828483
-0.112239
-0.141629
-0.17102
-0.201921
0.0922702
0.0476277
0.0037397
-0.0401483
-0.0840363
-0.129435
0.226063
0.168041
0.110774
0.0535067
-0.0037593
-0.0625373
-0.361719
-0.360963
-0.359452
-0.357941
-0.35643
-0.278213
-0.205285
-0.220172
-0.234304
-0.248437
-0.26257
-0.278213
-0.0527018
-0.0828483
-0.112239
-0.141629
-0.17102
-0.201921
0.0922702
0.0476277
0.0037397
-0.0401483
-0.0840363
-0.129435
0.226063
0.168041
0.110774
0.0535067
-0.0037593
-0.0625373
-1.06882
-0.997354
-0.926645
-0.855935
-0.785226
-0.714516
-0.949501
-0.889967
-0.829678
-0.769389
-0.709101
-0.650323
-0.815708
-0.769554
-0.722644
-0.675734
-0.628824
-0.583425
-0.670736
-0.639078
-0.606665
-0.574253
-0.54184
-0.510939
-0.518153
-0.501754
-0.4846
-0.467445
-0.450291
-0.434648
-1.06882
-0.997354
-0.926645
-0.855935
-0.785226
-0.714516
-0.949501
-0.889967
-0.829678
-0.769389
-0.709101
-0.650323
-0.815708
-0.769554
-0.722644
-0.675734
-0.628824
-0.583425
-0.670736
-0.639078
-0.606665
-0.574253
-0.54184
-0.510939
-0.518153
-0.501754
-0.4846
-0.467445
-0.450291
-0.434648
-1.17073
-1.25272
-1.31278
-1.34941
-0.822103
-1.08908
-1.16287
-1.21692
-0.712535
-0.723614
-1.00818
-1.07377
-1.12181
-0.615277
-0.625125
-0.927274
-0.984668
-1.0267
-0.518018
-0.526636
-0.846373
-0.895567
-0.931597
-0.42076
-0.428147
-0.765471
-0.806467
-0.836492
-0.836492
-0.836492
-1.17073
-1.25272
-1.31278
-1.34941
-0.822103
-1.08908
-1.16287
-1.21692
-0.712535
-0.723614
-1.00818
-1.07377
-1.12181
-0.615277
-0.625125
-0.927274
-0.984668
-1.0267
-0.518018
-0.526636
-0.846373
-0.895567
-0.931597
-0.42076
-0.428147
-0.765471
-0.806467
-0.836492
-0.836492
-0.836492
-0.837143
-0.827559
-0.793587
-0.736066
-0.656411
-0.73715
-0.728524
-0.69795
-0.646181
-0.574492
-0.637157
-0.629489
-0.602313
-0.556296
-0.492573
-0.537163
-0.530455
-0.506676
-0.466411
-0.410653
-0.43717
-0.43142
-0.411038
-0.376527
-0.328735
-0.836492
-0.836492
-0.836492
-0.836492
-0.836492
-0.837143
-0.827559
-0.793587
-0.736066
-0.656411
-0.73715
-0.728524
-0.69795
-0.646181
-0.574492
-0.637157
-0.629489
-0.602313
-0.556296
-0.492573
-0.537163
-0.530455
-0.506676
-0.466411
-0.410653
-0.43717
-0.43142
-0.411038
-0.376527
-0.328735
-0.836492
-0.836492
-0.836492
-0.836492
-0.836492
-0.836492
-0.268842
-0.340779
-0.412716
-0.484654
-0.556591
-0.836492
-0.19832
-0.258505
-0.318689
-0.378874
-0.439057
-0.836492
-0.118907
-0.165856
-0.212804
-0.259754
-0.306703
0
-0.0325573
-0.0651145
-0.0976725
-0.130229
-0.162786
-0.836492
-0.268842
-0.340779
-0.412716
-0.484654
-0.556591
-0.836492
-0.19832
-0.258505
-0.318689
-0.378874
-0.439057
-0.836492
-0.118907
-0.165856
-0.212804
-0.259754
-0.306703
0
-0.0325573
-0.0651145
-0.0976725
-0.130229
-0.162786
-0.197916
-0.230908
-0.263899
-0.296891
-0.329882
-0.362874
-0.395866
-0.428857
-0.461849
-0.49484
-0.527832
-0.560824
-0.593815
-0.626807
-0.659798
-0.69279
-0.725782
-0.758773
-0.791765
-0.824756
-0.857748
-0.89074
-0.923731
-0.956723
-0.989714
-1.02271
-1.0557
-1.08869
-1.12168
-1.15467
-1.18766
-1.22066
-1.25365
-1.28664
-1.31963
-1.35262
-1.38561
-1.41861
-1.4516
-1.48459
-1.51758
-1.55057
-1.58356
-1.61655
-1.64955
-1.68254
-1.71553
-1.74852
-1.78151
-1.8145
-1.8475
-1.88049
-1.91348
-1.94647
-1.97946
-2.01245
-2.04545
-2.07844
-2.11143
-2.14442
-2.17741
-2.2104
-2.2434
-2.27639
-2.30938
-2.34237
-2.37536
-2.40835
-2.44134
-2.47434
-2.50733
-2.54032
-2.57331
-2.6063
-2.63929
-2.67229
-2.70528
-2.73827
-2.77126
-2.80425
-2.83724
-2.87024
-2.90323
-2.93622
-2.96921
-3.0022
-3.03519
-3.06819
-3.10118
-3.13417
-3.16716
-3.20015
-3.23314
-3.26613
-3.29913
-3.33212
-3.36511
-3.3981
-3.43109
-3.18552
-0.0418767
-0.0750387
-0.108199
-0.141359
-0.174521
-0.207681
-0.240842
-0.274002
-0.307164
-0.340324
-0.373485
-0.406647
-0.439807
-0.472968
-0.50613
-0.53929
-0.57245
-0.605612
-0.638772
-0.671932
-0.705094
-0.738255
-0.771416
-0.804576
-0.837738
-0.870898
-0.904058
-0.937221
-0.970381
-1.00354
-1.0367
-1.06986
-1.10302
-1.13619
-1.16935
-1.20251
-1.23567
-1.26883
-1.30199
-1.33515
-1.36831
-1.40147
-1.43463
-1.46779
-1.50095
-1.53411
-1.56728
-1.60044
-1.63359
-1.66675
-1.69993
-1.73308
-1.76624
-1.7994
-1.83257
-1.86573
-1.89888
-1.93204
-1.96521
-1.99837
-2.03153
-2.06468
-2.09784
-2.13102
-2.16417
-2.19733
-2.23049
-2.26366
-2.29682
-2.32997
-2.36313
-2.39631
-2.42946
-2.46262
-2.49578
-2.52893
-2.56211
-2.59526
-2.62842
-2.66158
-2.69475
-2.72791
-2.76106
-2.79422
-2.8274
-2.86055
-2.89371
-2.92687
-2.96002
-2.9932
-3.02636
-3.05951
-3.09267
-3.12584
-3.159
-3.19216
-3.22531
-3.25849
-3.29164
-3.3248
0.0362675
0.00293273
-0.030402
-0.0637357
-0.0970687
-0.130403
-0.163738
-0.197072
-0.230407
-0.263741
-0.297076
-0.330411
-0.363745
-0.397079
-0.430414
-0.463749
-0.497082
-0.530417
-0.563752
-0.597087
-0.63042
-0.663753
-0.697088
-0.730423
-0.763757
-0.797091
-0.830426
-0.863761
-0.897094
-0.930429
-0.963764
-0.997099
-1.03043
-1.06377
-1.0971
-1.13044
-1.16377
-1.19711
-1.23044
-1.26377
-1.29711
-1.33044
-1.36378
-1.39711
-1.43045
-1.46378
-1.49711
-1.53044
-1.56378
-1.59711
-1.63045
-1.66378
-1.69712
-1.73046
-1.76379
-1.79713
-1.83047
-1.86379
-1.89712
-1.93046
-1.96379
-1.99713
-2.03047
-2.0638
-2.09714
-2.13047
-2.16379
-2.19713
-2.23047
-2.2638
-2.29714
-2.33047
-2.36381
-2.39715
-2.43048
-2.46382
-2.49714
-2.53047
-2.56381
-2.59715
-2.63048
-2.66382
-2.69716
-2.73049
-2.76383
-2.79715
-2.83048
-2.86382
-2.89716
-2.93049
-2.96383
-2.99716
-3.0305
-3.06384
-3.09717
-3.13049
-3.16383
-3.19716
-3.2305
-3.26384
0.112733
0.0792597
0.0457863
0.012312
-0.0211614
-0.0546348
-0.0881092
-0.121583
-0.155056
-0.18853
-0.222004
-0.255477
-0.28895
-0.322425
-0.355898
-0.389372
-0.422846
-0.456319
-0.489793
-0.523266
-0.556739
-0.590212
-0.623685
-0.65716
-0.690633
-0.724107
-0.75758
-0.791054
-0.824528
-0.858001
-0.891475
-0.924949
-0.958422
-0.991896
-1.02537
-1.05884
-1.09232
-1.12579
-1.15926
-1.19274
-1.22621
-1.25969
-1.29316
-1.32663
-1.36011
-1.39358
-1.42705
-1.46052
-1.494
-1.52747
-1.56095
-1.59443
-1.6279
-1.66138
-1.69485
-1.72831
-1.76179
-1.79526
-1.82874
-1.86221
-1.89569
-1.92916
-1.96264
-1.99611
-2.02959
-2.06305
-2.09652
-2.13
-2.16347
-2.19695
-2.23042
-2.2639
-2.29737
-2.33085
-2.36432
-2.39778
-2.43126
-2.46473
-2.49821
-2.53168
-2.56516
-2.59864
-2.63211
-2.66559
-2.69906
-2.73252
-2.766
-2.79947
-2.83295
-2.86642
-2.8999
-2.93337
-2.96685
-3.00032
-3.0338
-3.06726
-3.10073
-3.13421
-3.16768
-3.20116
0.18567
0.152129
0.118588
0.085047
0.051506
0.0179651
-0.0155758
-0.0491167
-0.0826576
-0.116199
-0.149739
-0.18328
-0.216821
-0.250362
-0.283903
-0.317444
-0.350985
-0.384526
-0.418067
-0.451608
-0.485149
-0.518689
-0.55223
-0.585771
-0.619312
-0.652853
-0.686394
-0.719935
-0.753476
-0.787017
-0.820558
-0.854099
-0.88764
-0.92118
-0.954721
-0.988262
-1.0218
-1.05534
-1.08889
-1.12243
-1.15597
-1.18951
-1.22305
-1.25659
-1.29013
-1.32367
-1.35721
-1.39075
-1.42429
-1.45783
-1.49137
-1.52491
-1.55845
-1.59199
-1.62555
-1.65909
-1.69263
-1.72617
-1.7597
-1.79324
-1.82678
-1.86032
-1.89386
-1.9274
-1.96096
-1.9945
-2.02804
-2.06157
-2.09511
-2.12865
-2.16219
-2.19573
-2.22927
-2.26281
-2.29637
-2.3299
-2.36344
-2.39698
-2.43052
-2.46406
-2.4976
-2.53114
-2.56468
-2.59822
-2.63177
-2.66531
-2.69885
-2.73239
-2.76593
-2.79947
-2.83301
-2.86655
-2.90009
-2.93363
-2.96718
-3.00072
-3.03426
-3.0678
-3.10134
-3.13488
0.320922
0.287422
0.253921
0.220421
0.186921
0.153422
0.119922
0.0864212
0.0529208
0.0194204
-0.0140799
-0.0475803
-0.0810807
-0.114581
-0.148081
-0.18158
-0.21508
-0.248581
-0.282081
-0.315581
-0.349082
-0.382582
-0.416083
-0.449583
-0.483083
-0.516582
-0.550082
-0.583583
-0.617083
-0.650583
-0.684084
-0.717584
-0.751084
-0.784585
-0.818085
-0.851584
-0.885084
-0.918585
-0.952085
-0.985585
-1.01909
-1.05259
-1.08609
-1.11959
-1.15309
-1.18659
-1.22009
-1.25359
-1.28708
-1.3206
-1.35409
-1.38759
-1.42108
-1.45459
-1.48809
-1.52158
-1.5551
-1.58859
-1.62209
-1.65558
-1.68909
-1.72259
-1.75609
-1.7896
-1.82309
-1.85659
-1.89008
-1.9236
-1.95709
-1.99059
-2.0241
-2.05759
-2.09109
-2.12458
-2.1581
-2.19159
-2.22509
-2.2586
-2.29209
-2.32559
-2.35908
-2.3926
-2.42609
-2.45959
-2.4931
-2.5266
-2.56009
-2.5936
-2.6271
-2.66059
-2.69409
-2.7276
-2.7611
-2.79459
-2.8281
-2.8616
-2.89509
-2.92859
-2.9621
-3.27416
-0.197916
-0.230908
-0.263899
-0.296891
-0.329882
-0.362874
-0.395866
-0.428857
-0.461849
-0.49484
-0.527832
-0.560824
-0.593815
-0.626807
-0.659798
-0.69279
-0.725782
-0.758773
-0.791765
-0.824756
-0.857748
-0.89074
-0.923731
-0.956723
-0.989714
-1.02271
-1.0557
-1.08869
-1.12168
-1.15467
-1.18766
-1.22066
-1.25365
-1.28664
-1.31963
-1.35262
-1.38561
-1.41861
-1.4516
-1.48459
-1.51758
-1.55057
-1.58356
-1.61655
-1.64955
-1.68254
-1.71553
-1.74852
-1.78151
-1.8145
-1.8475
-1.88049
-1.91348
-1.94647
-1.97946
-2.01245
-2.04545
-2.07844
-2.11143
-2.14442
-2.17741
-2.2104
-2.2434
-2.27639
-2.30938
-2.34237
-2.37536
-2.40835
-2.44134
-2.47434
-2.50733
-2.54032
-2.57331
-2.6063
-2.63929
-2.67229
-2.70528
-2.73827
-2.77126
-2.80425
-2.83724
-2.87024
-2.90323
-2.93622
-2.96921
-3.0022
-3.03519
-3.06819
-3.10118
-3.13417
-3.16716
-3.20015
-3.23314
-3.26613
-3.29913
-3.33212
-3.36511
-3.3981
-3.43109
-3.18552
-0.0418767
-0.0750387
-0.108199
-0.141359
-0.174521
-0.207681
-0.240842
-0.274002
-0.307164
-0.340324
-0.373485
-0.406647
-0.439807
-0.472968
-0.50613
-0.53929
-0.57245
-0.605612
-0.638772
-0.671932
-0.705094
-0.738255
-0.771416
-0.804576
-0.837738
-0.870898
-0.904058
-0.937221
-0.970381
-1.00354
-1.0367
-1.06986
-1.10302
-1.13619
-1.16935
-1.20251
-1.23567
-1.26883
-1.30199
-1.33515
-1.36831
-1.40147
-1.43463
-1.46779
-1.50095
-1.53411
-1.56728
-1.60044
-1.63359
-1.66675
-1.69993
-1.73308
-1.76624
-1.7994
-1.83257
-1.86573
-1.89888
-1.93204
-1.96521
-1.99837
-2.03153
-2.06468
-2.09784
-2.13102
-2.16417
-2.19733
-2.23049
-2.26366
-2.29682
-2.32997
-2.36313
-2.39631
-2.42946
-2.46262
-2.49578
-2.52893
-2.56211
-2.59526
-2.62842
-2.66158
-2.69475
-2.72791
-2.76106
-2.79422
-2.8274
-2.86055
-2.89371
-2.92687
-2.96002
-2.9932
-3.02636
-3.05951
-3.09267
-3.12584
-3.159
-3.19216
-3.22531
-3.25849
-3.29164
-3.3248
0.0362675
0.00293273
-0.030402
-0.0637357
-0.0970687
-0.130403
-0.163738
-0.197072
-0.230407
-0.263741
-0.297076
-0.330411
-0.363745
-0.397079
-0.430414
-0.463749
-0.497082
-0.530417
-0.563752
-0.597087
-0.63042
-0.663753
-0.697088
-0.730423
-0.763757
-0.797091
-0.830426
-0.863761
-0.897094
-0.930429
-0.963764
-0.997099
-1.03043
-1.06377
-1.0971
-1.13044
-1.16377
-1.19711
-1.23044
-1.26377
-1.29711
-1.33044
-1.36378
-1.39711
-1.43045
-1.46378
-1.49711
-1.53044
-1.56378
-1.59711
-1.63045
-1.66378
-1.69712
-1.73046
-1.76379
-1.79713
-1.83047
-1.86379
-1.89712
-1.93046
-1.96379
-1.99713
-2.03047
-2.0638
-2.09714
-2.13047
-2.16379
-2.19713
-2.23047
-2.2638
-2.29714
-2.33047
-2.36381
-2.39715
-2.43048
-2.46382
-2.49714
-2.53047
-2.56381
-2.59715
-2.63048
-2.66382
-2.69716
-2.73049
-2.76383
-2.79715
-2.83048
-2.86382
-2.89716
-2.93049
-2.96383
-2.99716
-3.0305
-3.06384
-3.09717
-3.13049
-3.16383
-3.19716
-3.2305
-3.26384
0.112733
0.0792597
0.0457863
0.012312
-0.0211614
-0.0546348
-0.0881092
-0.121583
-0.155056
-0.18853
-0.222004
-0.255477
-0.28895
-0.322425
-0.355898
-0.389372
-0.422846
-0.456319
-0.489793
-0.523266
-0.556739
-0.590212
-0.623685
-0.65716
-0.690633
-0.724107
-0.75758
-0.791054
-0.824528
-0.858001
-0.891475
-0.924949
-0.958422
-0.991896
-1.02537
-1.05884
-1.09232
-1.12579
-1.15926
-1.19274
-1.22621
-1.25969
-1.29316
-1.32663
-1.36011
-1.39358
-1.42705
-1.46052
-1.494
-1.52747
-1.56095
-1.59443
-1.6279
-1.66138
-1.69485
-1.72831
-1.76179
-1.79526
-1.82874
-1.86221
-1.89569
-1.92916
-1.96264
-1.99611
-2.02959
-2.06305
-2.09652
-2.13
-2.16347
-2.19695
-2.23042
-2.2639
-2.29737
-2.33085
-2.36432
-2.39778
-2.43126
-2.46473
-2.49821
-2.53168
-2.56516
-2.59864
-2.63211
-2.66559
-2.69906
-2.73252
-2.766
-2.79947
-2.83295
-2.86642
-2.8999
-2.93337
-2.96685
-3.00032
-3.0338
-3.06726
-3.10073
-3.13421
-3.16768
-3.20116
0.18567
0.152129
0.118588
0.085047
0.051506
0.0179651
-0.0155758
-0.0491167
-0.0826576
-0.116199
-0.149739
-0.18328
-0.216821
-0.250362
-0.283903
-0.317444
-0.350985
-0.384526
-0.418067
-0.451608
-0.485149
-0.518689
-0.55223
-0.585771
-0.619312
-0.652853
-0.686394
-0.719935
-0.753476
-0.787017
-0.820558
-0.854099
-0.88764
-0.92118
-0.954721
-0.988262
-1.0218
-1.05534
-1.08889
-1.12243
-1.15597
-1.18951
-1.22305
-1.25659
-1.29013
-1.32367
-1.35721
-1.39075
-1.42429
-1.45783
-1.49137
-1.52491
-1.55845
-1.59199
-1.62555
-1.65909
-1.69263
-1.72617
-1.7597
-1.79324
-1.82678
-1.86032
-1.89386
-1.9274
-1.96096
-1.9945
-2.02804
-2.06157
-2.09511
-2.12865
-2.16219
-2.19573
-2.22927
-2.26281
-2.29637
-2.3299
-2.36344
-2.39698
-2.43052
-2.46406
-2.4976
-2.53114
-2.56468
-2.59822
-2.63177
-2.66531
-2.69885
-2.73239
-2.76593
-2.79947
-2.83301
-2.86655
-2.90009
-2.93363
-2.96718
-3.00072
-3.03426
-3.0678
-3.10134
-3.13488
0.320922
0.287422
0.253921
0.220421
0.186921
0.153422
0.119922
0.0864212
0.0529208
0.0194204
-0.0140799
-0.0475803
-0.0810807
-0.114581
-0.148081
-0.18158
-0.21508
-0.248581
-0.282081
-0.315581
-0.349082
-0.382582
-0.416083
-0.449583
-0.483083
-0.516582
-0.550082
-0.583583
-0.617083
-0.650583
-0.684084
-0.717584
-0.751084
-0.784585
-0.818085
-0.851584
-0.885084
-0.918585
-0.952085
-0.985585
-1.01909
-1.05259
-1.08609
-1.11959
-1.15309
-1.18659
-1.22009
-1.25359
-1.28708
-1.3206
-1.35409
-1.38759
-1.42108
-1.45459
-1.48809
-1.52158
-1.5551
-1.58859
-1.62209
-1.65558
-1.68909
-1.72259
-1.75609
-1.7896
-1.82309
-1.85659
-1.89008
-1.9236
-1.95709
-1.99059
-2.0241
-2.05759
-2.09109
-2.12458
-2.1581
-2.19159
-2.22509
-2.2586
-2.29209
-2.32559
-2.35908
-2.3926
-2.42609
-2.45959
-2.4931
-2.5266
-2.56009
-2.5936
-2.6271
-2.66059
-2.69409
-2.7276
-2.7611
-2.79459
-2.8281
-2.8616
-2.89509
-2.92859
-2.9621
-3.27416
0.495333
0.529439
0.495939
0.462438
0.428938
0.395437
0.361939
0.328439
0.294938
0.261438
0.227937
0.194437
0.160937
0.127436
0.0939359
0.0604356
0.026937
-0.00656341
-0.0400638
-0.0735641
-0.107065
-0.140565
-0.174065
-0.207566
-0.241066
-0.274566
-0.308065
-0.341565
-0.375066
-0.408566
-0.442066
-0.475567
-0.509067
-0.542568
-0.576068
-0.609568
-0.643067
-0.676567
-0.710068
-0.743568
-0.777068
-0.810569
-0.844069
-0.877569
-0.91107
-0.94457
-0.978069
-1.01157
-1.04507
-1.07857
-1.11208
-1.14557
-1.17907
-1.21256
-1.24608
-1.27957
-1.31307
-1.34658
-1.38007
-1.41357
-1.44707
-1.48058
-1.51407
-1.54757
-1.58108
-1.61458
-1.64807
-1.68157
-1.71508
-1.74857
-1.78207
-1.81558
-1.84908
-1.88257
-1.91607
-1.94958
-1.98307
-2.01657
-2.05008
-2.08358
-2.11707
-2.15057
-2.18408
-2.21758
-2.25107
-2.28458
-2.31808
-2.35157
-2.38509
-2.41858
-2.45208
-2.48557
-2.51908
-2.55258
-2.58607
-2.61959
-2.65308
-2.68658
-2.72007
-2.75358
-3.06565
0.703847
0.737953
0.704453
0.670952
0.637452
0.603952
0.570453
0.536953
0.503452
0.469952
0.436451
0.402951
0.369451
0.33595
0.30245
0.26895
0.235451
0.201951
0.16845
0.13495
0.10145
0.0679491
0.0344488
0.000948413
-0.032552
-0.0660523
-0.0995509
-0.133051
-0.166552
-0.200052
-0.233552
-0.267053
-0.300553
-0.334054
-0.367554
-0.401054
-0.434553
-0.468053
-0.501554
-0.535054
-0.568554
-0.602055
-0.635555
-0.669055
-0.702556
-0.736056
-0.769555
-0.803055
-0.836556
-0.870052
-0.903565
-0.93706
-0.970555
-1.00405
-1.03756
-1.07106
-1.10455
-1.13807
-1.17156
-1.20506
-1.23855
-1.27206
-1.30556
-1.33905
-1.37257
-1.40606
-1.43956
-1.47305
-1.50656
-1.54006
-1.57355
-1.60707
-1.64056
-1.67406
-1.70755
-1.74107
-1.77456
-1.80806
-1.84157
-1.87506
-1.90856
-1.94205
-1.97557
-2.00906
-2.04256
-2.07607
-2.10956
-2.14306
-2.17657
-2.21007
-2.24356
-2.27706
-2.31057
-2.34406
-2.37756
-2.41107
-2.44457
-2.47806
-2.51156
-2.54507
-3.27416
0.912368
0.946474
0.912974
0.879473
0.845973
0.812472
0.778974
0.745473
0.711973
0.678473
0.644972
0.611472
0.577972
0.544471
0.510971
0.477471
0.443972
0.410472
0.376971
0.343471
0.30997
0.27647
0.24297
0.209469
0.175969
0.142469
0.10897
0.0754696
0.0419692
0.00846887
-0.0250315
-0.0585319
-0.0920322
-0.125533
-0.159033
-0.192533
-0.226032
-0.259532
-0.293033
-0.326533
-0.360033
-0.393534
-0.427034
-0.460535
-0.494035
-0.527535
-0.561034
-0.594534
-0.628035
-0.661531
-0.695044
-0.728539
-0.762034
-0.795529
-0.829042
-0.862537
-0.896032
-0.929545
-0.96304
-0.996535
-1.03003
-1.06354
-1.09704
-1.13053
-1.16405
-1.19754
-1.23104
-1.26453
-1.29804
-1.33154
-1.36503
-1.39855
-1.43204
-1.46554
-1.49903
-1.53254
-1.56604
-1.59953
-1.63305
-1.66654
-1.70004
-1.73353
-1.76705
-1.80054
-1.83404
-1.86755
-1.90104
-1.93454
-1.96805
-2.00155
-2.03504
-2.06854
-2.10205
-2.13554
-2.16904
-2.20255
-2.23605
-2.26954
-2.30304
-2.33655
-3.06564
1.12088
1.15498
1.12148
1.08798
1.05448
1.02098
0.987485
0.953984
0.920484
0.886984
0.853483
0.819983
0.786483
0.752982
0.719482
0.685982
0.652483
0.618983
0.585482
0.551982
0.518481
0.484981
0.451481
0.41798
0.38448
0.35098
0.317481
0.283981
0.25048
0.21698
0.18348
0.149979
0.116479
0.0829785
0.0494781
0.0159777
-0.0175209
-0.0510213
-0.0845216
-0.118022
-0.151522
-0.185023
-0.218523
-0.252023
-0.285524
-0.319024
-0.352523
-0.386023
-0.419524
-0.45302
-0.486533
-0.520028
-0.553523
-0.587018
-0.620531
-0.654026
-0.687521
-0.721034
-0.754529
-0.788024
-0.821519
-0.855032
-0.888527
-0.922022
-0.955535
-0.98903
-1.02252
-1.05602
-1.08953
-1.12303
-1.15652
-1.19004
-1.22353
-1.25703
-1.29052
-1.32403
-1.35753
-1.39102
-1.42454
-1.45803
-1.49153
-1.52502
-1.55853
-1.59203
-1.62552
-1.65904
-1.69253
-1.72603
-1.75954
-1.79304
-1.82653
-1.86003
-1.89354
-1.92703
-1.96053
-1.99404
-2.02754
-2.06103
-2.09453
-2.12804
-3.27415
1.3294
1.36351
1.33001
1.29651
1.263
1.2295
1.19601
1.16251
1.12901
1.0955
1.062
1.0285
0.995004
0.961503
0.928003
0.894502
0.861004
0.827503
0.794003
0.760503
0.727002
0.693502
0.660002
0.626501
0.593001
0.559501
0.526002
0.492502
0.459001
0.425501
0.392
0.3585
0.325
0.291499
0.257999
0.224499
0.191
0.1575
0.123999
0.0904989
0.0569986
0.0234982
-0.0100022
-0.0435025
-0.0770029
-0.110503
-0.144002
-0.177502
-0.211003
-0.2445
-0.278012
-0.311507
-0.345002
-0.378498
-0.41201
-0.445505
-0.479
-0.512513
-0.546008
-0.579503
-0.612998
-0.646511
-0.680006
-0.713501
-0.747014
-0.780509
-0.814004
-0.847499
-0.881012
-0.914507
-0.948002
-0.981514
-1.01501
-1.0485
-1.082
-1.11551
-1.14901
-1.1825
-1.21602
-1.24951
-1.28301
-1.3165
-1.35001
-1.38351
-1.417
-1.45052
-1.48401
-1.51751
-1.55102
-1.58451
-1.61801
-1.6515
-1.68502
-1.71851
-1.75201
-1.78552
-1.81901
-1.85251
-1.88601
-1.91952
-3.06563
1.53792
1.57203
1.53853
1.50503
1.47153
1.43803
1.40453
1.37103
1.33753
1.30403
1.27053
1.23702
1.20352
1.17002
1.13652
1.10302
1.06952
1.03602
1.00252
0.969024
0.935523
0.902023
0.868523
0.835022
0.801522
0.768021
0.734523
0.701022
0.667522
0.634022
0.600521
0.567021
0.533521
0.50002
0.46652
0.43302
0.399521
0.366021
0.33252
0.29902
0.265519
0.232019
0.198519
0.165018
0.131518
0.0980176
0.064519
0.0310187
-0.00248171
-0.0359786
-0.0694911
-0.102986
-0.136481
-0.169977
-0.203489
-0.236984
-0.270479
-0.303992
-0.337487
-0.370982
-0.404477
-0.43799
-0.471485
-0.50498
-0.538493
-0.571988
-0.605483
-0.638978
-0.672491
-0.705986
-0.739481
-0.772994
-0.806489
-0.839984
-0.873479
-0.906992
-0.940487
-0.973982
-1.00749
-1.04099
-1.07448
-1.10798
-1.14149
-1.17499
-1.20848
-1.242
-1.27549
-1.30899
-1.3425
-1.37599
-1.40949
-1.44298
-1.4765
-1.50999
-1.54349
-1.577
-1.61049
-1.64399
-1.67748
-1.711
-3.27415
1.74643
1.78054
1.74704
1.71354
1.68004
1.64654
1.61304
1.57954
1.54604
1.51254
1.47904
1.44554
1.41204
1.37854
1.34503
1.31153
1.27804
1.24454
1.21104
1.17753
1.14403
1.11053
1.07703
1.04353
1.01003
0.976533
0.943034
0.909534
0.876033
0.842533
0.809032
0.775532
0.742032
0.708531
0.675031
0.641531
0.608032
0.574532
0.541031
0.507531
0.474031
0.44053
0.40703
0.373529
0.340029
0.306529
0.27303
0.23953
0.206029
0.172532
0.13902
0.105525
0.0720296
0.0385345
0.00502195
-0.0284732
-0.0619684
-0.0954809
-0.128976
-0.162471
-0.195966
-0.229479
-0.262974
-0.296469
-0.329982
-0.363477
-0.396972
-0.430467
-0.46398
-0.497475
-0.53097
-0.564483
-0.597978
-0.631473
-0.664968
-0.698481
-0.731976
-0.765471
-0.798983
-0.832478
-0.865974
-0.899469
-0.932981
-0.966476
-0.999972
-1.03348
-1.06698
-1.10047
-1.13399
-1.16748
-1.20098
-1.23447
-1.26798
-1.30148
-1.33498
-1.36849
-1.40198
-1.43548
-1.46897
-1.50249
-3.06564
1.95495
1.98906
1.95556
1.92206
1.88856
1.85506
1.82156
1.78806
1.75456
1.72106
1.68756
1.65406
1.62056
1.58706
1.55356
1.52006
1.48656
1.45306
1.41956
1.38606
1.35256
1.31905
1.28555
1.25205
1.21855
1.18505
1.15155
1.11805
1.08455
1.05105
1.01755
0.984053
0.950553
0.917052
0.883552
0.850052
0.816553
0.783053
0.749552
0.716052
0.682551
0.649051
0.615551
0.58205
0.54855
0.51505
0.481551
0.448051
0.41455
0.381053
0.347541
0.314046
0.280551
0.247055
0.213543
0.180048
0.146553
0.11304
0.0795449
0.0460497
0.0125546
-0.020958
-0.0544531
-0.0879483
-0.121461
-0.154956
-0.188451
-0.221946
-0.255459
-0.288954
-0.322449
-0.355962
-0.389457
-0.422952
-0.456447
-0.48996
-0.523455
-0.55695
-0.590462
-0.623958
-0.657453
-0.690948
-0.72446
-0.757956
-0.791451
-0.824963
-0.858458
-0.891954
-0.925466
-0.958961
-0.992456
-1.02595
-1.05946
-1.09296
-1.12645
-1.15997
-1.19346
-1.22696
-1.26045
-1.29396
-3.27416
2.16346
2.19757
2.16407
2.13057
2.09707
2.06357
2.03007
1.99657
1.96307
1.92957
1.89607
1.86257
1.82907
1.79557
1.76207
1.72857
1.69507
1.66157
1.62807
1.59457
1.56107
1.52757
1.49407
1.46057
1.42706
1.39356
1.36007
1.32657
1.29307
1.25956
1.22606
1.19256
1.15906
1.12556
1.09206
1.05856
1.02506
0.991564
0.958063
0.924563
0.891063
0.857562
0.824062
0.790561
0.757061
0.723561
0.690062
0.656562
0.623061
0.589564
0.556052
0.522557
0.489062
0.455566
0.422054
0.388559
0.355064
0.321551
0.288056
0.254561
0.221066
0.187553
0.154058
0.120563
0.0870503
0.0535551
0.02006
-0.0134352
-0.0469477
-0.0804429
-0.113938
-0.147451
-0.180946
-0.214441
-0.247936
-0.281449
-0.314944
-0.348439
-0.381951
-0.415447
-0.448942
-0.482437
-0.515949
-0.549445
-0.58294
-0.616452
-0.649947
-0.683443
-0.716955
-0.75045
-0.783945
-0.81744
-0.850953
-0.884448
-0.917943
-0.951456
-0.984951
-1.01845
-1.05194
-1.08545
-3.06565
2.37198
2.40609
2.37259
2.33909
2.30559
2.27209
2.23859
2.20509
2.17159
2.13809
2.10459
2.07109
2.03759
2.00409
1.97059
1.93709
1.90359
1.87009
1.83659
1.80309
1.76959
1.73609
1.70259
1.66909
1.63559
1.60209
1.56859
1.53509
1.50159
1.46809
1.43459
1.40108
1.36758
1.33408
1.30058
1.26708
1.23358
1.20008
1.16658
1.13308
1.09958
1.06608
1.03258
0.999082
0.965582
0.932082
0.898583
0.865083
0.831582
0.798085
0.764573
0.731078
0.697583
0.664087
0.630575
0.59708
0.563585
0.530072
0.496577
0.463082
0.429587
0.396074
0.362579
0.329084
0.295571
0.262076
0.228581
0.195086
0.161573
0.128078
0.0945829
0.0610704
0.0275752
-0.00591995
-0.0394151
-0.0729276
-0.106423
-0.139918
-0.17343
-0.206926
-0.240421
-0.273916
-0.307428
-0.340924
-0.374419
-0.407931
-0.441426
-0.474922
-0.508434
-0.541929
-0.575424
-0.60892
-0.642432
-0.675927
-0.709422
-0.742935
-0.77643
-0.809925
-0.84342
-0.876933
-3.27417
2.58051
2.61461
2.58111
2.54761
2.51411
2.48061
2.44711
2.41361
2.38011
2.34661
2.31311
2.27961
2.24611
2.21261
2.17911
2.14561
2.11211
2.07861
2.04511
2.01161
1.97811
1.94461
1.91111
1.87761
1.84411
1.81061
1.77711
1.74361
1.71011
1.67661
1.64311
1.60961
1.57611
1.54261
1.5091
1.4756
1.44211
1.40861
1.37511
1.3416
1.3081
1.2746
1.2411
1.2076
1.1741
1.1406
1.1071
1.0736
1.0401
1.00661
0.973094
0.939599
0.906103
0.872608
0.839096
0.805601
0.772105
0.738593
0.705098
0.671603
0.638107
0.604595
0.5711
0.537605
0.504092
0.470597
0.437102
0.403607
0.370094
0.336599
0.303104
0.269591
0.236096
0.202601
0.169106
0.135593
0.102098
0.068603
0.0350905
0.00159529
-0.0318999
-0.065395
-0.0989075
-0.132403
-0.165898
-0.19941
-0.232906
-0.266401
-0.299913
-0.333408
-0.366904
-0.400399
-0.433911
-0.467406
-0.500902
-0.534414
-0.567909
-0.601404
-0.634899
-0.668412
-3.06565
2.78902
2.82312
2.78962
2.75612
2.72262
2.68912
2.65562
2.62212
2.58862
2.55512
2.52162
2.48812
2.45462
2.42112
2.38762
2.35412
2.32062
2.28712
2.25362
2.22012
2.18662
2.15312
2.11962
2.08612
2.05262
2.01912
1.98562
1.95212
1.91862
1.88512
1.85162
1.81812
1.78462
1.75112
1.71762
1.68412
1.65062
1.61712
1.58362
1.55012
1.51662
1.48312
1.44961
1.41611
1.38261
1.34911
1.31561
1.28211
1.24861
1.21512
1.1816
1.14811
1.11461
1.08112
1.04761
1.01411
0.980616
0.947104
0.913609
0.880114
0.846619
0.813106
0.779611
0.746116
0.712603
0.679108
0.645613
0.612118
0.578605
0.54511
0.511615
0.478102
0.444607
0.411112
0.377617
0.344104
0.310609
0.277114
0.243602
0.210106
0.176611
0.143116
0.109604
0.0761084
0.0426132
0.00910069
-0.0243945
-0.0578896
-0.0914021
-0.124897
-0.158392
-0.191888
-0.2254
-0.258895
-0.29239
-0.325903
-0.359398
-0.392893
-0.426388
-0.459901
-3.27416
2.99754
3.03164
2.99814
2.96464
2.93114
2.89764
2.86414
2.83064
2.79714
2.76364
2.73014
2.69664
2.66314
2.62964
2.59614
2.56264
2.52914
2.49564
2.46214
2.42864
2.39514
2.36164
2.32814
2.29464
2.26114
2.22764
2.19414
2.16064
2.12714
2.09364
2.06014
2.02664
1.99314
1.95964
1.92614
1.89264
1.85914
1.82564
1.79214
1.75864
1.72514
1.69164
1.65814
1.62464
1.59113
1.55763
1.52414
1.49064
1.45714
1.42364
1.39013
1.35663
1.32314
1.28964
1.25613
1.22263
1.18914
1.15562
1.12213
1.08863
1.05514
1.02163
0.988132
0.954637
0.921124
0.887629
0.854134
0.820639
0.787126
0.753631
0.720136
0.686623
0.653128
0.619633
0.586138
0.552625
0.51913
0.485635
0.452122
0.418627
0.385132
0.351637
0.318124
0.284629
0.251134
0.217622
0.184126
0.150631
0.117119
0.0836236
0.0501285
0.0166333
-0.0168792
-0.0503744
-0.0838695
-0.117382
-0.150877
-0.184372
-0.217868
-0.25138
-3.06564
3.20605
3.24015
3.20665
3.17315
3.13965
3.10615
3.07265
3.03915
3.00565
2.97215
2.93865
2.90515
2.87165
2.83815
2.80465
2.77115
2.73765
2.70415
2.67065
2.63715
2.60365
2.57015
2.53665
2.50315
2.46965
2.43615
2.40265
2.36915
2.33565
2.30215
2.26865
2.23515
2.20165
2.16815
2.13465
2.10115
2.06765
2.03415
2.00065
1.96715
1.93365
1.90015
1.86665
1.83315
1.79965
1.76615
1.73265
1.69915
1.66565
1.63215
1.59864
1.56514
1.53165
1.49815
1.46464
1.43114
1.39765
1.36414
1.33064
1.29715
1.26365
1.23014
1.19664
1.16315
1.12964
1.09614
1.06264
1.02915
0.995637
0.962142
0.928647
0.895134
0.861639
0.828144
0.794649
0.761136
0.727641
0.694146
0.660633
0.627138
0.593643
0.560148
0.526635
0.49314
0.459645
0.426133
0.392638
0.359142
0.32563
0.292135
0.25864
0.225144
0.191632
0.158137
0.124642
0.091129
0.0576339
0.0241387
-0.00935645
-0.042869
-3.27415
3.41457
3.44868
3.41518
3.38167
3.34817
3.31467
3.28118
3.24768
3.21417
3.18067
3.14717
3.11367
3.08017
3.04667
3.01317
2.97967
2.94617
2.91267
2.87917
2.84567
2.81217
2.77867
2.74517
2.71167
2.67817
2.64467
2.61117
2.57767
2.54417
2.51067
2.47717
2.44367
2.41017
2.37667
2.34317
2.30967
2.27617
2.24267
2.20917
2.17567
2.14217
2.10867
2.07517
2.04167
2.00817
1.97467
1.94117
1.90767
1.87417
1.84067
1.80716
1.77366
1.74017
1.70667
1.67316
1.63966
1.60617
1.57266
1.53916
1.50567
1.47217
1.43866
1.40516
1.37167
1.33816
1.30466
1.27117
1.23767
1.20416
1.17066
1.13717
1.10366
1.07016
1.03666
1.00317
0.969657
0.936162
0.902667
0.869154
0.835659
0.802164
0.768669
0.735156
0.701661
0.668166
0.634654
0.601158
0.567663
0.534151
0.500656
0.46716
0.433665
0.400153
0.366658
0.333162
0.29965
0.266155
0.23266
0.199164
0.165652
-3.06563
3.62309
3.6572
3.6237
3.5902
3.5567
3.5232
3.4897
3.4562
3.4227
3.3892
3.35569