/*--------------------------------*- C++ -*----------------------------------*\
| =========                 |                                                 |
| \\      /  F ield         | OpenFOAM: The Open Source CFD Toolbox           |
|  \\    /   O peration     | Version:  2506                                  |
|   \\  /    A nd           | Website:  www.openfoam.com                      |
|    \\/     M anipulation  |                                                 |
\*---------------------------------------------------------------------------*/
FoamFile
{
    version     2.0;
    format      ascii;
    arch        "LSB;label=32;scalar=64";
    class       surfaceScalarField;
    location    "180.017606233241935";
    object      phi;
}
// * * * * * * * * * * * * * * * * * * * * * * * * * * * * * * * * * * * * * //

dimensions      [0 3 -1 0 0 0 0];

oriented        oriented;

internalField   nonuniform List<scalar> 
19160
(
-0.000597572
-0.236029
-0.00120397
-0.236024
-0.000606773
-0.235423
-0.00181946
-0.236047
-0.00122193
-0.235409
-0.000604389
-0.234818
-0.00245646
-0.236053
-0.00184733
-0.235422
-0.00121575
-0.234798
-0.00059833
-0.23422
-0.00311876
-0.236086
-0.0024937
-0.235406
-0.00183738
-0.2348
-0.00120261
-0.234193
-0.000587326
-0.233633
-0.00382032
-0.236113
-0.00316701
-0.235413
-0.00247757
-0.234766
-0.00181592
-0.234187
-0.00117923
-0.233602
-0.000572841
-0.23306
-0.00457119
-0.236132
-0.00387976
-0.2354
-0.00314322
-0.234747
-0.00244528
-0.234137
-0.0017783
-0.233588
-0.00114869
-0.233026
-0.000554967
-0.232505
-0.00539038
-0.236175
-0.00464393
-0.235368
-0.00384459
-0.234698
-0.00309681
-0.234096
-0.00238989
-0.233525
-0.00172939
-0.233007
-0.00111122
-0.232469
-0.000535808
-0.231969
-0.00629916
-0.236201
-0.00547767
-0.235342
-0.00459357
-0.234619
-0.00377927
-0.234016
-0.00301894
-0.233466
-0.00231843
-0.232936
-0.00166973
-0.232448
-0.00107113
-0.231934
-0.000516601
-0.231452
-0.00732903
-0.236256
-0.00640377
-0.235275
-0.00540586
-0.234529
-0.00450305
-0.233895
-0.00367209
-0.233363
-0.00291915
-0.232866
-0.00223191
-0.232374
-0.00160604
-0.231913
-0.00103104
-0.23142
-0.000497815
-0.230955
-0.00850744
-0.23627
-0.00745414
-0.235205
-0.00630223
-0.234378
-0.00528149
-0.233751
-0.00435759
-0.233209
-0.00353581
-0.232746
-0.00279929
-0.232298
-0.0021398
-0.23184
-0.00154247
-0.231402
-0.000991992
-0.230925
-0.000481423
-0.230473
-0.00986462
-0.236082
-0.00865247
-0.235072
-0.00731069
-0.234197
-0.00613235
-0.233528
-0.00508563
-0.233023
-0.00417393
-0.232571
-0.00337346
-0.232172
-0.00267201
-0.231766
-0.0020481
-0.231335
-0.00148089
-0.230913
-0.000958067
-0.230449
-0.000468114
-0.230005
-0.0115315
-0.235717
-0.0099983
-0.234737
-0.00845613
-0.233927
-0.00707936
-0.23325
-0.00587003
-0.232743
-0.00484008
-0.232357
-0.00395682
-0.231988
-0.00320146
-0.231642
-0.0025456
-0.231269
-0.00195986
-0.230856
-0.00142764
-0.230444
-0.000930753
-0.229986
-0.000458801
-0.229546
-0.0138696
-0.23619
-0.0115831
-0.234132
-0.00973288
-0.23346
-0.00814655
-0.232859
-0.00672889
-0.232391
-0.00554361
-0.23204
-0.00455191
-0.231762
-0.0037272
-0.231462
-0.00303101
-0.231157
-0.00242478
-0.230804
-0.00188403
-0.230399
-0.00138519
-0.229989
-0.000911955
-0.229533
-0.000453081
-0.229093
-0.0172313
-0.239813
-0.0138747
-0.233898
-0.0111747
-0.23269
-0.00932895
-0.232277
-0.00768387
-0.231904
-0.00629624
-0.231638
-0.00516304
-0.231428
-0.00424742
-0.231242
-0.00349987
-0.230993
-0.00286916
-0.230713
-0.00232162
-0.230366
-0.0018244
-0.22996
-0.00135658
-0.229544
-0.000900936
-0.229085
-0.000451573
-0.228642
-0.0213461
-0.247842
-0.0176468
-0.236041
-0.0131431
-0.23193
-0.0106257
-0.231393
-0.00873489
-0.231226
-0.00711498
-0.231086
-0.0057951
-0.231006
-0.00476096
-0.230915
-0.00394598
-0.230795
-0.00328518
-0.230577
-0.0027318
-0.230303
-0.00224167
-0.229949
-0.00178536
-0.229531
-0.00134082
-0.229105
-0.000898919
-0.228638
-0.000453754
-0.228188
-0.024886
-0.258411
-0.0231763
-0.242313
-0.0164582
-0.232726
-0.01229
-0.230265
-0.00986141
-0.230267
-0.00800464
-0.230337
-0.00645814
-0.230423
-0.0052656
-0.230502
-0.00436225
-0.230499
-0.00366237
-0.230418
-0.00310374
-0.230205
-0.00262692
-0.229917
-0.0021911
-0.229543
-0.00176587
-0.229106
-0.00133974
-0.228664
-0.000904802
-0.228187
-0.000458005
-0.22773
-0.0259623
-0.266688
-0.0294585
-0.252128
-0.0217782
-0.236993
-0.0151095
-0.229907
-0.011189
-0.228938
-0.00894637
-0.229325
-0.00715675
-0.229638
-0.0057627
-0.229926
-0.00473911
-0.230125
-0.00398752
-0.230173
-0.00342316
-0.230099
-0.00296702
-0.229865
-0.00256305
-0.229545
-0.00216909
-0.22914
-0.00176834
-0.228678
-0.00135156
-0.228217
-0.000915235
-0.22773
-0.000463802
-0.227266
-0.0239462
-0.268753
-0.0341982
-0.261948
-0.0287729
-0.245134
-0.0200552
-0.232047
-0.0133349
-0.227761
-0.00997355
-0.227911
-0.00788192
-0.2286
-0.00625092
-0.22915
-0.00506793
-0.229597
-0.00424361
-0.229869
-0.00367097
-0.229926
-0.00324468
-0.229821
-0.00288679
-0.229542
-0.00254008
-0.229174
-0.00217869
-0.22873
-0.0017902
-0.228239
-0.00137104
-0.227761
-0.000928984
-0.227264
-0.000469718
-0.226796
-0.0187599
-0.261077
-0.0358251
-0.267126
-0.0357582
-0.254963
-0.0273709
-0.237818
-0.017381
-0.228001
-0.0114741
-0.22626
-0.0086202
-0.227172
-0.00672791
-0.228123
-0.00533683
-0.228881
-0.00441101
-0.229429
-0.00382295
-0.229717
-0.00343578
-0.229735
-0.00314324
-0.229565
-0.00286446
-0.229217
-0.0025618
-0.228791
-0.00221636
-0.228303
-0.001824
-0.227786
-0.00139598
-0.227294
-0.000942982
-0.226791
-0.000473511
-0.226323
-0.0108146
-0.242897
-0.0336224
-0.26328
-0.0406609
-0.262223
-0.0359889
-0.246345
-0.0241593
-0.23104
-0.014382
-0.225093
-0.00955766
-0.225323
-0.00716746
-0.226733
-0.00553938
-0.22792
-0.00446483
-0.228827
-0.00384782
-0.229404
-0.00350973
-0.229643
-0.00330485
-0.229573
-0.00312299
-0.229306
-0.00290482
-0.228874
-0.00262354
-0.228384
-0.00227204
-0.227855
-0.00186609
-0.227316
-0.00142135
-0.226816
-0.000952519
-0.226312
-0.000474493
-0.225848
-0.000714745
-0.215754
-0.0280227
-0.248497
-0.0415048
-0.262436
-0.0438846
-0.254327
-0.033356
-0.237148
-0.0198652
-0.225557
-0.0113237
-0.223327
-0.00763083
-0.224859
-0.00564726
-0.226625
-0.00438325
-0.228002
-0.00370685
-0.228968
-0.00342407
-0.22949
-0.00333637
-0.229611
-0.00328716
-0.229409
-0.00319033
-0.229021
-0.00300191
-0.228496
-0.00271203
-0.227944
-0.0023399
-0.227382
-0.00190891
-0.226828
-0.00143964
-0.226329
-0.000956004
-0.225831
-0.000471235
-0.225377
0.00974453
-0.183085
-0.0191334
-0.224643
-0.0387816
-0.25122
-0.0487547
-0.257566
-0.0432709
-0.244413
-0.0284422
-0.228571
-0.0150573
-0.221823
-0.00843632
-0.222521
-0.00566653
-0.22484
-0.00412947
-0.226879
-0.00335489
-0.228354
-0.00312649
-0.229266
-0.00318614
-0.22964
-0.00331972
-0.229579
-0.00339179
-0.229207
-0.00333797
-0.228685
-0.00313857
-0.228069
-0.00281829
-0.227466
-0.00240903
-0.226881
-0.00194146
-0.226326
-0.00144803
-0.225837
-0.000950414
-0.225351
-0.000463151
-0.224914
0.0182189
-0.148434
-0.00813567
-0.194083
-0.0325133
-0.230912
-0.0494017
-0.250573
-0.0518274
-0.249009
-0.039259
-0.233596
-0.0218309
-0.221798
-0.0104169
-0.219843
-0.00570335
-0.222485
-0.00368408
-0.225286
-0.00273622
-0.227497
-0.00254539
-0.228935
-0.00278987
-0.229662
-0.00316398
-0.229796
-0.00347367
-0.229497
-0.00361045
-0.228935
-0.00354399
-0.228279
-0.0033012
-0.227586
-0.00292678
-0.226948
-0.00246398
-0.226359
-0.00195913
-0.225815
-0.00144163
-0.225345
-0.000934471
-0.22488
-0.000449145
-0.224465
0.0224484
-0.117226
0.00359241
-0.160162
-0.0236715
-0.202925
-0.0461115
-0.234202
-0.0562545
-0.246146
-0.0501255
-0.238143
-0.0318187
-0.223608
-0.0147323
-0.217482
-0.00621295
-0.219333
-0.00304879
-0.22312
-0.00180116
-0.226221
-0.00160031
-0.228442
-0.00205199
-0.229673
-0.00274752
-0.230079
-0.00338012
-0.22989
-0.00378986
-0.229317
-0.00391541
-0.228563
-0.00378828
-0.227792
-0.00346779
-0.227045
-0.00301612
-0.226396
-0.00249742
-0.225821
-0.00195466
-0.225302
-0.00141831
-0.224862
-0.000905943
-0.224423
-0.000430054
-0.224035
0.0222544
-0.0650418
0.0143304
-0.127964
-0.0128904
-0.170943
-0.0394042
-0.209632
-0.0566453
-0.233811
-0.0582344
-0.238037
-0.0436808
-0.226281
-0.0223387
-0.216002
-0.00805724
-0.215638
-0.00238636
-0.219995
-0.000498657
-0.224422
-0.000193444
-0.227627
-0.000867694
-0.229627
-0.00195991
-0.230461
-0.00303745
-0.230421
-0.00382832
-0.229851
-0.00423391
-0.228999
-0.00427728
-0.228074
-0.00403971
-0.22722
-0.00360891
-0.226453
-0.00307495
-0.225818
-0.002499
-0.225276
-0.00192475
-0.224796
-0.0013746
-0.224393
-0.000866557
-0.223987
-0.000406428
-0.223628
0.0201687
-0.0581621
0.0196997
-0.0704111
-0.0016072
-0.139248
-0.0299091
-0.180438
-0.0531705
-0.213107
-0.0622817
-0.229764
-0.0547293
-0.226989
-0.0331447
-0.215475
-0.012388
-0.211671
-0.00214412
-0.21588
0.00118886
-0.221683
0.0017892
-0.226405
0.000924805
-0.22942
-0.000677508
-0.230909
-0.00233581
-0.231162
-0.00366079
-0.230589
-0.00446692
-0.229618
-0.00476366
-0.228512
-0.00465193
-0.227462
-0.00425755
-0.226571
-0.0037071
-0.22582
-0.00308865
-0.225229
-0.00246379
-0.224737
-0.00186457
-0.224306
-0.00131321
-0.223946
-0.000817524
-0.223576
-0.000378641
-0.22325
0.0175548
-0.0541776
0.0230844
-0.0615468
0.00556404
-0.0775823
-0.0191128
-0.150044
-0.0465671
-0.187042
-0.0625659
-0.212823
-0.0623189
-0.222174
-0.0453965
-0.214737
-0.0201007
-0.207762
-0.00320687
-0.210608
0.00312099
-0.217812
0.00449347
-0.224387
0.00354203
-0.229022
0.00133479
-0.231432
-0.0011422
-0.232103
-0.00319733
-0.231626
-0.00456966
-0.230486
-0.00523618
-0.229146
-0.00531639
-0.227848
-0.00498256
-0.226737
-0.00441524
-0.225863
-0.00374185
-0.225167
-0.00305
-0.224642
-0.0023854
-0.224216
-0.00177794
-0.223841
-0.00123615
-0.223528
-0.000759758
-0.223195
-0.000348658
-0.222901
0.0159878
-0.0534367
0.0248594
-0.0559526
0.0120878
-0.0680706
-0.0116846
-0.0850105
-0.0376692
-0.158942
-0.0596671
-0.189941
-0.0655801
-0.209562
-0.0563683
-0.211202
-0.0309437
-0.203894
-0.00674295
-0.204226
0.00475616
-0.212243
0.00792211
-0.221241
0.00726026
-0.228105
0.00442859
-0.232116
0.000851735
-0.233426
-0.00230999
-0.23299
-0.00449089
-0.231704
-0.00568071
-0.230041
-0.00604666
-0.228415
-0.00581198
-0.227019
-0.0052289
-0.225924
-0.00448384
-0.225121
-0.00370262
-0.224515
-0.00295077
-0.224077
-0.002269
-0.223725
-0.001668
-0.223409
-0.0011451
-0.223142
-0.000697396
-0.222846
-0.000317787
-0.222583
0.0160618
-0.054306
0.0256475
-0.0542248
0.017502
-0.0613667
-0.00460342
-0.0751518
-0.0308096
-0.0918701
-0.0538888
-0.16472
-0.0657807
-0.18974
-0.0636246
-0.202305
-0.0431462
-0.199
-0.0136359
-0.197001
0.0051838
-0.204654
0.011689
-0.21601
0.0121012
-0.226082
0.00900899
-0.232686
0.00413554
-0.2354
-0.000634052
-0.235102
-0.00412887
-0.233352
-0.00609761
-0.231288
-0.00686466
-0.229223
-0.00678382
-0.227444
-0.00618935
-0.226058
-0.00534988
-0.225058
-0.00444801
-0.224376
-0.00357895
-0.223886
-0.00279782
-0.223548
-0.00211928
-0.223274
-0.00153765
-0.223017
-0.00104668
-0.222793
-0.000633265
-0.22253
-0.000287765
-0.222295
0.0177809
-0.0575337
0.0267034
-0.0553619
0.0211523
-0.0578752
0.00171146
-0.0676816
-0.0240341
-0.0819273
-0.0486935
-0.0970653
-0.0640311
-0.16647
-0.0665489
-0.186816
-0.0540566
-0.191395
-0.0235705
-0.189065
0.00323447
-0.195052
0.0151813
-0.208146
0.0176276
-0.221537
0.0150329
-0.232106
0.00919143
-0.237742
0.00241959
-0.238453
-0.00310574
-0.236125
-0.00643987
-0.23301
-0.00782569
-0.230327
-0.00795421
-0.228053
-0.0073548
-0.226278
-0.0063895
-0.225019
-0.00532322
-0.224182
-0.00429457
-0.22366
-0.00338
-0.223304
-0.00259816
-0.223069
-0.00194099
-0.222871
-0.00139654
-0.222667
-0.000945553
-0.222481
-0.000571033
-0.222247
-0.000259681
-0.222036
0.0211498
-0.0627778
0.0282294
-0.0590598
0.0236825
-0.057892
0.0069619
-0.0631256
-0.0178515
-0.0738643
-0.0432298
-0.0873909
-0.0615131
-0.0995833
-0.0667967
-0.166222
-0.0614777
-0.179395
-0.0346276
-0.180338
-0.00183283
-0.183998
0.0175294
-0.1974
0.0233525
-0.213871
0.0219231
-0.228427
0.0158676
-0.238782
0.00731082
-0.242633
-0.000803054
-0.240756
-0.00638962
-0.236175
-0.00896697
-0.231869
-0.00942424
-0.228856
-0.00880745
-0.2266
-0.00767387
-0.224994
-0.00637998
-0.223962
-0.00513247
-0.223344
-0.00403594
-0.223004
-0.00311615
-0.222786
-0.00235936
-0.222651
-0.00174768
-0.22252
-0.00125174
-0.222361
-0.000847631
-0.222204
-0.000513067
-0.221994
-0.000235332
-0.2218
0.0256284
-0.0700479
0.03031
-0.0648585
0.025439
-0.0608162
0.0107313
-0.0616614
-0.0126393
-0.0683378
-0.0381022
-0.078992
-0.0583536
-0.0905505
-0.0661415
-0.100239
-0.065015
-0.162684
-0.0442074
-0.169815
-0.00958823
-0.172582
0.0178693
-0.184338
0.0287068
-0.202754
0.0292376
-0.221185
0.0234948
-0.236054
0.0138033
-0.245274
0.00313114
-0.246567
-0.00539925
-0.241747
-0.0101214
-0.235021
-0.0113292
-0.229964
-0.0106756
-0.226988
-0.0092999
-0.224974
-0.0076933
-0.22368
-0.00614025
-0.222954
-0.00479484
-0.222586
-0.00368755
-0.222433
-0.00279924
-0.222346
-0.00210008
-0.222299
-0.00154963
-0.222222
-0.00111197
-0.222096
-0.000756857
-0.22196
-0.000463085
-0.221766
-0.000215708
-0.221585
0.0303685
-0.0791004
0.0325762
-0.0723141
0.0265068
-0.0659263
0.0129266
-0.0630116
-0.00889931
-0.0654014
-0.0338694
-0.0725706
-0.0551304
-0.0822152
-0.0650727
-0.0916193
-0.0657537
-0.0994998
-0.050899
-0.155993
-0.0181428
-0.16126
0.0154567
-0.17017
0.0331554
-0.188786
0.0365349
-0.210052
0.0317356
-0.229426
0.0213021
-0.243553
0.00845235
-0.250596
-0.00317892
-0.248787
-0.0109188
-0.240949
-0.0137201
-0.23263
-0.013179
-0.22746
-0.0114013
-0.224887
-0.00936286
-0.223305
-0.00738754
-0.222433
-0.00569502
-0.222054
-0.00433347
-0.22194
-0.00326774
-0.221964
-0.00245479
-0.221992
-0.00183502
-0.222013
-0.00135914
-0.221975
-0.00098328
-0.22187
-0.000679111
-0.221744
-0.000423159
-0.221558
-0.000201135
-0.221384
0.0345766
-0.0893489
0.0344729
-0.080997
0.0267132
-0.0725205
0.0135144
-0.0665141
-0.00700715
-0.0649037
-0.0310437
-0.0682271
-0.0524776
-0.0752234
-0.0637575
-0.0835304
-0.0654981
-0.0918749
-0.0540999
-0.0962989
-0.0254532
-0.148682
0.0108158
-0.156619
0.0358887
-0.172903
0.0435189
-0.19577
0.0402253
-0.218541
0.0296416
-0.237766
0.0148689
-0.249969
0.000174845
-0.253949
-0.0110652
-0.248641
-0.0164496
-0.23822
-0.016602
-0.229207
-0.014241
-0.22462
-0.0115088
-0.222741
-0.00896514
-0.221727
-0.00679319
-0.221335
-0.00507944
-0.221308
-0.00377637
-0.221431
-0.00281142
-0.221608
-0.00210356
-0.221723
-0.0015812
-0.221791
-0.00118511
-0.221773
-0.000874095
-0.221675
-0.000617726
-0.22155
-0.000394004
-0.221366
-0.000192166
-0.221191
0.0388934
-0.154371
0.0352798
-0.0901558
0.0255989
-0.0798827
0.0123065
-0.0713126
-0.00726562
-0.0662556
-0.0299816
-0.0659658
-0.0507582
-0.0699464
-0.0624035
-0.0765774
-0.0646733
-0.0843552
-0.0554852
-0.0904896
-0.0301113
-0.0916408
0.00548436
-0.143351
0.0364634
-0.157194
0.0497336
-0.179118
0.0486891
-0.204234
0.0385576
-0.227457
0.0223824
-0.245279
0.00467125
-0.254466
-0.0101485
-0.254866
-0.0191809
-0.24591
-0.0210213
-0.2338
-0.0183002
-0.225148
-0.0143778
-0.221751
-0.0109678
-0.220738
-0.00816142
-0.220359
-0.00596465
-0.22045
-0.00433635
-0.220748
-0.00317142
-0.221071
-0.00234773
-0.221364
-0.0017688
-0.221535
-0.00135138
-0.221625
-0.00103909
-0.221608
-0.000789294
-0.221503
-0.000573924
-0.22137
-0.00037672
-0.221181
-0.000188442
-0.221003
0.0383276
-0.17572
0.0323802
-0.151472
0.0224242
-0.0869811
0.00899796
-0.0765742
-0.00973276
-0.0688455
-0.0308596
-0.0653777
-0.0502166
-0.0665074
-0.0612059
-0.071144
-0.0634477
-0.0778031
-0.0553668
-0.0844735
-0.0327093
-0.0878916
0.000541428
-0.0866979
0.035421
-0.142309
0.0546474
-0.162108
0.0567959
-0.187225
0.0477371
-0.213414
0.0307907
-0.235866
0.010501
-0.251109
-0.00800188
-0.256612
-0.0211551
-0.252892
-0.0260439
-0.240887
-0.0239274
-0.228173
-0.0185538
-0.220972
-0.0135719
-0.219147
-0.00986671
-0.219033
-0.00703511
-0.219289
-0.00496769
-0.219818
-0.00353189
-0.220387
-0.00255923
-0.220859
-0.00190818
-0.221224
-0.00146853
-0.221418
-0.00116099
-0.221503
-0.000927925
-0.221469
-0.000730812
-0.221347
-0.000549342
-0.221197
-0.000370551
-0.220999
-0.000189383
-0.220814
0.0314439
-0.190104
0.0230518
-0.166391
0.0142548
-0.143302
0.00348598
-0.0814692
-0.0141946
-0.0721124
-0.033408
-0.0662971
-0.0505697
-0.0650246
-0.0601229
-0.0675904
-0.0618231
-0.0727686
-0.053938
-0.0792319
-0.0333906
-0.0837923
-0.00285808
-0.0844921
0.0320713
-0.0833481
0.058199
-0.14586
0.0642602
-0.169572
0.0567824
-0.19627
0.0397793
-0.222402
0.0174073
-0.242772
-0.00465861
-0.254452
-0.0216341
-0.256133
-0.0309472
-0.247989
-0.0308127
-0.234002
-0.0246989
-0.222028
-0.0173226
-0.217221
-0.011992
-0.217022
-0.00833277
-0.217735
-0.00568678
-0.218569
-0.00389425
-0.219456
-0.00272245
-0.220224
-0.00198215
-0.220785
-0.00151785
-0.221175
-0.00122312
-0.221356
-0.00101944
-0.221411
-0.000854571
-0.221345
-0.000700798
-0.221195
-0.000542743
-0.221025
-0.000374243
-0.220814
-0.000193642
-0.22062
0.0212094
-0.198907
0.0107781
-0.17783
0.00358922
-0.155726
-0.0062341
-0.133582
-0.0198036
-0.0758602
-0.0367977
-0.0687226
-0.0511194
-0.0657474
-0.0589119
-0.0662356
-0.0595741
-0.0698393
-0.0513477
-0.075359
-0.0323589
-0.0802636
-0.0043765
-0.0822739
0.0291069
-0.0815277
0.0578951
-0.0830442
0.0707623
-0.152363
0.0655605
-0.17835
0.0490195
-0.20551
0.0251557
-0.230151
-0.000197994
-0.247233
-0.0213505
-0.254736
-0.0347853
-0.252295
-0.0382121
-0.240589
-0.0327895
-0.225911
-0.0231134
-0.216237
-0.0149167
-0.214297
-0.00985989
-0.215495
-0.00651299
-0.216909
-0.00424645
-0.218217
-0.00282177
-0.219357
-0.0019646
-0.220242
-0.00147461
-0.220829
-0.00120328
-0.221195
-0.00104529
-0.22133
-0.000931079
-0.221335
-0.000821683
-0.221224
-0.000697404
-0.22104
-0.000552015
-0.220847
-0.000384959
-0.220623
-0.000200185
-0.22042
0.0123321
-0.206579
0.00114582
-0.189274
-0.00521621
-0.169025
-0.0145741
-0.147386
-0.0264952
-0.126891
-0.0397217
-0.0729361
-0.0511764
-0.0686656
-0.0570829
-0.0675763
-0.0564334
-0.0693764
-0.0476682
-0.0735188
-0.0297854
-0.0779324
-0.00405539
-0.0805847
0.0273032
-0.0804702
0.0570778
-0.0807104
0.0732143
-0.0854961
0.0734588
-0.160261
0.0583745
-0.187705
0.0336932
-0.214048
0.00531652
-0.235665
-0.0200054
-0.248578
-0.0377366
-0.251784
-0.0453558
-0.245152
-0.0420748
-0.231304
-0.0313415
-0.217683
-0.019557
-0.211597
-0.0117822
-0.212374
-0.00739621
-0.214612
-0.00458539
-0.21657
-0.00282186
-0.218217
-0.00182458
-0.219497
-0.00130475
-0.220412
-0.00107103
-0.220961
-0.000981519
-0.221259
-0.00094148
-0.22132
-0.000899078
-0.221257
-0.000826639
-0.221095
-0.000717358
-0.220875
-0.000572586
-0.22066
-0.000400419
-0.220423
-0.000207541
-0.220212
0.0073336
-0.214781
-0.00331058
-0.202123
-0.0092712
-0.185219
-0.018666
-0.164933
-0.0293901
-0.144491
-0.0404951
-0.126117
-0.0502162
-0.0738963
-0.0544081
-0.0713404
-0.052431
-0.0715787
-0.0430489
-0.0739957
-0.0259465
-0.0773578
-0.0020399
-0.0799479
0.0269994
-0.0802808
0.0563379
-0.0797304
0.0750671
-0.0825631
0.0775445
-0.0895818
0.0667822
-0.168669
0.0425971
-0.196609
0.0120374
-0.220769
-0.0174425
-0.238228
-0.0396059
-0.246708
-0.0514394
-0.245701
-0.0515629
-0.235663
-0.0414786
-0.221167
-0.0267327
-0.210508
-0.0147939
-0.208585
-0.00833652
-0.211434
-0.00483126
-0.214366
-0.00269565
-0.216696
-0.00151036
-0.218531
-0.000964032
-0.219837
-0.000786851
-0.220696
-0.000794114
-0.221148
-0.000861803
-0.221338
-0.000915384
-0.221304
-0.00091982
-0.221164
-0.000864587
-0.220948
-0.000753931
-0.220694
-0.000600617
-0.220459
-0.000417452
-0.220213
-0.000213886
-0.219998
0.00528391
-0.222762
-0.00353897
-0.214553
-0.00972873
-0.201666
-0.0186818
-0.185204
-0.0283589
-0.165964
-0.0379243
-0.147062
-0.0459336
-0.1304
-0.0507661
-0.0775384
-0.0475835
-0.0761879
-0.0376414
-0.0769862
-0.0210061
-0.0789361
0.00144528
-0.0808429
0.0283125
-0.081261
0.0562491
-0.080192
0.0764523
-0.0811155
0.0810154
-0.086034
0.0720354
-0.0948351
0.0505867
-0.176658
0.0190055
-0.203577
-0.0137099
-0.224501
-0.0403126
-0.237521
-0.0564071
-0.241741
-0.060382
-0.236882
-0.0524649
-0.224677
-0.0364207
-0.211479
-0.0199386
-0.205363
-0.00965312
-0.207269
-0.0049105
-0.211355
-0.00234608
-0.214715
-0.000969407
-0.217237
-0.000390462
-0.219105
-0.000295831
-0.220328
-0.000440642
-0.221049
-0.000657131
-0.221353
-0.000848479
-0.221405
-0.00096217
-0.221261
-0.000986304
-0.221043
-0.00092603
-0.220776
-0.000801138
-0.220493
-0.000630912
-0.220246
-0.000432173
-0.219994
-0.000218161
-0.21978
0.00493932
-0.228637
-0.0020187
-0.224282
-0.00794396
-0.216338
-0.0163118
-0.204035
-0.0249027
-0.18866
-0.0330768
-0.170811
-0.0396706
-0.153325
-0.0433566
-0.137809
-0.042086
-0.0830359
-0.0315586
-0.0822706
-0.01517
-0.0828223
0.00613719
-0.083628
0.0311081
-0.0836385
0.05721
-0.082222
0.0776695
-0.0814092
0.0838538
-0.0839539
0.076746
-0.0907446
0.0566728
-0.100921
0.0257087
-0.183361
-0.00986297
-0.207424
-0.0401821
-0.224632
-0.0603671
-0.233561
-0.0681828
-0.23394
-0.0632854
-0.226061
-0.0477549
-0.213343
-0.0277669
-0.203651
-0.0122918
-0.202724
-0.00479125
-0.207388
-0.00168703
-0.212014
-9.69729e-05
-0.215588
0.000493714
-0.218122
0.000470372
-0.219871
0.000140852
-0.22091
-0.000284802
-0.221422
-0.000665394
-0.221536
-0.00093526
-0.221432
-0.00107194
-0.221176
-0.00108543
-0.220883
-0.00100201
-0.220575
-0.00085115
-0.220273
-0.000657184
-0.220021
-0.000442269
-0.21977
-0.000219137
-0.219561
0.00515323
-0.232049
0.000229544
-0.230886
-0.00503424
-0.227192
-0.0124784
-0.220171
-0.0199985
-0.20894
-0.0270326
-0.194704
-0.0322862
-0.178196
-0.0347056
-0.161976
-0.0330352
-0.14686
-0.0250381
-0.0895564
-0.00862435
-0.0888163
0.0117454
-0.0884305
0.0351386
-0.0876586
0.0592631
-0.0856916
0.0789744
-0.0835269
0.0860285
-0.0835839
0.0808407
-0.0880486
0.0622365
-0.0963082
0.0323985
-0.107611
-0.00473389
-0.18849
-0.0391657
-0.20844
-0.0633934
-0.221605
-0.07492
-0.226824
-0.0732706
-0.223955
-0.0595765
-0.21424
-0.0378968
-0.203213
-0.0171436
-0.198799
-0.0050805
-0.202435
-0.000496738
-0.208578
0.00120465
-0.213315
0.0017932
-0.216887
0.00161044
-0.219262
0.00102358
-0.220754
0.000319908
-0.221515
-0.000326171
-0.221761
-0.000811065
-0.22166
-0.00110847
-0.221396
-0.00122682
-0.221034
-0.00120406
-0.220681
-0.00108117
-0.220345
-0.000894651
-0.220036
-0.000675578
-0.219788
-0.000445137
-0.219544
-0.000216153
-0.219345
0.00538799
-0.233979
0.00225257
-0.234072
-0.00169574
-0.234224
-0.00794154
-0.231729
-0.0144112
-0.225758
-0.0202462
-0.215726
-0.0243787
-0.202611
-0.0257021
-0.187199
-0.0232433
-0.171768
-0.0156974
-0.156201
-0.00176676
-0.096414
0.018047
-0.0951178
0.039997
-0.0932889
0.0622618
-0.0906572
0.080489
-0.0872061
0.0875143
-0.0850127
0.0841739
-0.0869171
0.0670959
-0.092908
0.0385748
-0.102485
0.00207903
-0.114424
-0.0361014
-0.191555
-0.064886
-0.206948
-0.08049
-0.216035
-0.0820932
-0.218001
-0.0709241
-0.212607
-0.0493283
-0.202808
-0.0244475
-0.195909
-0.00659859
-0.197281
0.0010038
-0.203935
0.00317173
-0.210545
0.00363983
-0.215162
0.00323076
-0.218508
0.00231997
-0.220558
0.0012322
-0.221666
0.000231626
-0.222072
-0.000555538
-0.222016
-0.00107563
-0.221693
-0.001344
-0.221278
-0.0014078
-0.22083
-0.00132602
-0.220436
-0.00115022
-0.220089
-0.000925697
-0.219785
-0.000681884
-0.219551
-0.000439396
-0.219321
-0.00020853
-0.219136
0.00550396
-0.235091
0.00362596
-0.235353
0.00120835
-0.236976
-0.00338388
-0.238782
-0.00869867
-0.237441
-0.0134052
-0.232599
-0.0164177
-0.223687
-0.0168382
-0.211475
-0.0136758
-0.196767
-0.0061841
-0.181281
0.00673338
-0.164701
0.0245682
-0.102935
0.0452393
-0.10036
0.065773
-0.0968001
0.0821593
-0.0923276
0.088571
-0.0882629
0.086679
-0.0875179
0.071101
-0.0909222
0.0438179
-0.0981511
0.00826542
-0.108671
-0.0304582
-0.120067
-0.0650127
-0.191428
-0.0847137
-0.202724
-0.0895422
-0.208586
-0.0811815
-0.207744
-0.0609428
-0.200993
-0.0337281
-0.193527
-0.0100014
-0.192506
0.00235404
-0.198631
0.00587201
-0.206636
0.00620489
-0.21311
0.00550277
-0.217434
0.0041444
-0.220332
0.00257043
-0.221896
0.00108106
-0.222516
-0.000114074
-0.222514
-0.000948618
-0.222143
-0.00142677
-0.22161
-0.0016147
-0.221071
-0.001592
-0.220565
-0.00143267
-0.220154
-0.00120034
-0.219815
-0.000938062
-0.219529
-0.000673864
-0.219316
-0.000423681
-0.219106
-0.000196708
-0.21894
0.00549686
-0.235773
0.00442196
-0.235887
0.00316603
-0.237311
0.000458145
-0.240818
-0.00343431
-0.244046
-0.00705085
-0.243796
-0.00904558
-0.239971
-0.00861082
-0.231915
-0.00496207
-0.220189
0.00269119
-0.205642
0.0147337
-0.189281
0.0314279
-0.171561
0.0504863
-0.108182
0.0692685
-0.103856
0.0837585
-0.0983993
0.0891686
-0.0929252
0.0882492
-0.089833
0.0741811
-0.090598
0.0479231
-0.0950274
0.0135051
-0.103391
-0.0251762
-0.113953
-0.0615513
-0.123529
-0.0879522
-0.188189
-0.095451
-0.196815
-0.0899361
-0.199832
-0.0718686
-0.196818
-0.0440098
-0.190711
-0.0154768
-0.188052
0.00289275
-0.193045
0.00921814
-0.201977
0.00971578
-0.210147
0.00855671
-0.216164
0.0066966
-0.219986
0.00446191
-0.222224
0.00233906
-0.223154
0.000577918
-0.223208
-0.000686539
-0.222776
-0.00146271
-0.222107
-0.00182589
-0.221399
-0.00188833
-0.220775
-0.00175343
-0.220244
-0.0015111
-0.219843
-0.00122267
-0.21953
-0.000928436
-0.219275
-0.000649418
-0.219091
-0.000398954
-0.218904
-0.000181189
-0.218758
0.00538327
-0.236158
0.0048223
-0.236173
0.00426169
-0.236982
0.00301015
-0.239863
0.000859903
-0.245112
-0.00166062
-0.249436
-0.00273299
-0.250108
-0.00157357
-0.247009
0.00251621
-0.239393
0.0101167
-0.227615
0.0216774
-0.212586
0.036998
-0.194851
0.0550151
-0.17609
0.0722696
-0.111183
0.0849638
-0.105061
0.0894385
-0.0986691
0.0889175
-0.0935935
0.0761585
-0.0918104
0.0508457
-0.0935206
0.0175405
-0.0990628
-0.0205278
-0.108039
-0.0577804
-0.117724
-0.086825
-0.124656
-0.100029
-0.183611
-0.0969923
-0.189759
-0.0814824
-0.190218
-0.0543267
-0.186501
-0.0225495
-0.183638
0.00204736
-0.187207
0.0128022
-0.196629
0.0142853
-0.206547
0.012685
-0.214275
0.0101246
-0.219592
0.00712318
-0.222648
0.00414182
-0.224026
0.00162845
-0.224205
-0.000239763
-0.223654
-0.00143015
-0.222809
-0.00204356
-0.22189
-0.00222759
-0.22106
-0.00212864
-0.2204
-0.00187333
-0.219882
-0.00154888
-0.219517
-0.00121248
-0.219246
-0.000893936
-0.21903
-0.000610132
-0.21888
-0.000366334
-0.218718
-0.000162573
-0.218596
0.00516734
-0.23634
0.00496716
-0.236303
0.00478361
-0.236695
0.00436738
-0.23834
0.00366046
-0.242663
0.00251713
-0.24929
0.0020992
-0.254268
0.00392026
-0.255602
0.00834533
-0.252838
0.0158004
-0.245077
0.0268342
-0.232771
0.0410811
-0.216669
0.0575798
-0.197416
0.0735865
-0.177407
0.0854853
-0.111705
0.089362
-0.104984
0.0886694
-0.098421
0.0768906
-0.0943257
0.052489
-0.0934537
0.0202093
-0.0961895
-0.0168827
-0.102708
-0.0542052
-0.111614
-0.0849801
-0.119569
-0.100937
-0.123748
-0.102127
-0.178477
-0.0896606
-0.181581
-0.0637845
-0.18076
-0.0304476
-0.178603
-0.000354287
-0.181237
0.0161173
-0.190522
0.0197671
-0.202111
0.0180453
-0.211907
0.0147362
-0.218887
0.0107493
-0.223218
0.0067146
-0.22522
0.00316868
-0.225567
0.000477843
-0.224922
-0.00130208
-0.223782
-0.00226869
-0.222583
-0.00262721
-0.22149
-0.00258105
-0.220608
-0.00230844
-0.219965
-0.00193437
-0.219496
-0.00153942
-0.21919
-0.00116604
-0.218974
-0.000836986
-0.218803
-0.000557928
-0.218688
-0.000327168
-0.218554
-0.000142276
-0.218454
0.00487399
-0.236434
0.00491669
-0.23629
0.00498494
-0.236504
0.00495602
-0.237284
0.00503489
-0.239714
0.00512483
-0.245271
0.0055126
-0.252703
0.00752683
-0.257875
0.012189
-0.259446
0.0195273
-0.256565
0.0299374
-0.24818
0.0432505
-0.234941
0.0583098
-0.217399
0.0730516
-0.196881
0.0839209
-0.175842
0.0886748
-0.111018
0.0874502
-0.103765
0.0761324
-0.0976627
0.0527323
-0.094569
0.0214538
-0.0946982
-0.0145312
-0.098541
-0.0512013
-0.105712
-0.0828118
-0.113783
-0.101143
-0.119362
-0.10415
-0.121725
-0.0960953
-0.172042
-0.0721605
-0.173205
-0.0381844
-0.173023
-0.00395348
-0.175004
0.0186339
-0.183753
0.0259394
-0.196694
0.0246611
-0.208727
0.0207181
-0.217889
0.0156626
-0.2238
0.0102892
-0.226793
0.00541462
-0.227466
0.00157587
-0.226665
-0.00102602
-0.225198
-0.00250256
-0.223549
-0.00311153
-0.222099
-0.00314205
-0.220929
-0.00284689
-0.220069
-0.0024035
-0.219496
-0.0019274
-0.219108
-0.00147802
-0.218878
-0.00108693
-0.218724
-0.000760653
-0.218601
-0.000495157
-0.21852
-0.000284472
-0.218412
-0.000121457
-0.218332
0.00450409
-0.236453
0.00472574
-0.236243
0.00496725
-0.236272
0.00515553
-0.236704
0.00551618
-0.237765
0.00622887
-0.240818
0.00738595
-0.247144
0.00961168
-0.254788
0.0141135
-0.2598
0.0212483
-0.261167
0.0308827
-0.25751
0.0432889
-0.248218
0.0571106
-0.233742
0.0705686
-0.214916
0.0809579
-0.193918
0.0859425
-0.17311
0.0850208
-0.108588
0.0737792
-0.101412
0.0514035
-0.0963339
0.0211333
-0.0942485
-0.0136327
-0.0955966
-0.0492036
-0.100539
-0.0806129
-0.107911
-0.100666
-0.11426
-0.105124
-0.118389
-0.100186
-0.117634
-0.0789231
-0.165279
-0.0452141
-0.166175
-0.00823927
-0.168738
0.0202931
-0.176663
0.032336
-0.19015
0.0325288
-0.204562
0.0281884
-0.216197
0.0221202
-0.224346
0.0152274
-0.228738
0.00860976
-0.229988
0.00322899
-0.229119
-0.000534953
-0.227156
-0.0027379
-0.224963
-0.00371305
-0.222947
-0.0038569
-0.221384
-0.00353071
-0.220245
-0.00299105
-0.219482
-0.00240109
-0.219022
-0.00184667
-0.218739
-0.00136992
-0.218595
-0.000979867
-0.218505
-0.000668753
-0.218427
-0.000426754
-0.218378
-0.000240757
-0.218292
-0.000101426
-0.218231
0.00408567
-0.236422
0.00442262
-0.236149
0.00478052
-0.236056
0.005122
-0.236239
0.00559038
-0.236778
0.0064244
-0.237961
0.00788346
-0.241315
0.0102458
-0.247778
0.0143624
-0.255037
0.0210619
-0.259613
0.0300434
-0.260327
0.0411398
-0.255361
0.0537903
-0.244898
0.0661043
-0.229277
0.0759956
-0.209954
0.0811252
-0.189101
0.0800589
-0.168148
0.0697281
-0.104537
0.048299
-0.0983075
0.0192149
-0.0944155
-0.0142843
-0.093597
-0.0484061
-0.0963941
-0.0788437
-0.102308
-0.0997363
-0.10884
-0.105511
-0.113873
-0.102782
-0.115793
-0.0846362
-0.111921
-0.0512087
-0.159285
-0.0122364
-0.162178
0.0208498
-0.169294
0.03862
-0.182947
0.0413412
-0.198962
0.0371848
-0.213558
0.0303158
-0.224393
0.0218905