/*--------------------------------*- C++ -*----------------------------------*\
| =========                 |                                                 |
| \\      /  F ield         | OpenFOAM: The Open Source CFD Toolbox           |
|  \\    /   O peration     | Version:  2506                                  |
|   \\  /    A nd           | Website:  www.openfoam.com                      |
|    \\/     M anipulation  |                                                 |
\*---------------------------------------------------------------------------*/
FoamFile
{
    version     2.0;
    format      ascii;
    arch        "LSB;label=32;scalar=64";
    class       pointScalarField;
    location    "180.017606233241935";
    object      streamFunction;
}
// * * * * * * * * * * * * * * * * * * * * * * * * * * * * * * * * * * * * * //

dimensions      [0 3 -1 0 0 0 0];

internalField   nonuniform List<scalar> 
19880
(
0
-0.0111958
-0.0581031
-0.141335
-0.246062
-0.355823
0
-0.0310788
-0.0865813
-0.168745
-0.264067
-0.35619
0
-0.0389055
-0.0919852
-0.160063
-0.230426
-0.288296
0
-0.0332299
-0.0749267
-0.11861
-0.153783
-0.171156
0
-0.0166187
-0.0418127
-0.0620191
-0.0642865
-0.0408168
0
-0.0110804
-0.0232116
-0.0116237
0.0343257
0.10967
0
-0.0111958
-0.0581031
-0.141335
-0.246062
-0.355823
0
-0.0310788
-0.0865813
-0.168745
-0.264067
-0.35619
0
-0.0389055
-0.0919852
-0.160063
-0.230426
-0.288296
0
-0.0332299
-0.0749267
-0.11861
-0.153783
-0.171156
0
-0.0166187
-0.0418127
-0.0620191
-0.0642865
-0.0408168
0
-0.0110804
-0.0232116
-0.0116237
0.0343257
0.10967
-2e-07
-1e-07
6.93889e-18
-1e-08
0
0.130397
0.0911991
0.040336
-0.0023107
-0.0170925
0.264061
0.221074
0.152802
0.0709939
0.0044422
0.386567
0.343733
0.274652
0.17908
0.0717814
0.509091
0.464747
0.393927
0.29428
0.16661
0.630152
0.584939
0.511693
0.408291
0.272331
-2e-07
-1e-07
6.93889e-18
-1e-08
0
0.130397
0.0911991
0.040336
-0.0023107
-0.0170925
0.264061
0.221074
0.152802
0.0709939
0.0044422
0.386567
0.343733
0.274652
0.17908
0.0717814
0.509091
0.464747
0.393927
0.29428
0.16661
0.630152
0.584939
0.511693
0.408291
0.272331
2e-07
-4e-07
-1e-07
-2.8e-07
-3e-07
0.122672
0.138277
0.151398
0.157787
0.152546
0.223407
0.252284
0.274325
0.286666
0.284938
0.318172
0.360491
0.391555
0.40844
0.40735
0.407704
0.46289
0.503428
0.526413
0.529235
0.494129
0.562115
0.612388
0.642132
0.648683
2e-07
-4e-07
-1e-07
-2.8e-07
-3e-07
0.122672
0.138277
0.151398
0.157787
0.152546
0.223407
0.252284
0.274325
0.286666
0.284938
0.318172
0.360491
0.391555
0.40844
0.40735
0.407704
0.46289
0.503428
0.526413
0.529235
0.494129
0.562115
0.612388
0.642132
0.648683
-0.00840225
-0.00736633
-0.00607953
-0.00449562
-0.0025972
-2e-07
0.104682
0.0861736
0.0670175
0.0467023
0.0239907
-2e-07
0.214464
0.176965
0.138102
0.0967738
0.0522036
-2e-07
0.31799
0.262532
0.205114
0.14416
0.0793541
-2e-07
0.412425
0.340437
0.265928
0.186975
0.103033
1e-07
-0.00840225
-0.00736633
-0.00607953
-0.00449562
-0.0025972
-2e-07
0.104682
0.0861736
0.0670175
0.0467023
0.0239907
-2e-07
0.214464
0.176965
0.138102
0.0967738
0.0522036
-2e-07
0.31799
0.262532
0.205114
0.14416
0.0793541
-2e-07
0.412425
0.340437
0.265928
0.186975
0.103033
1e-07
-0.517778
-0.428956
-0.336041
-0.236712
-0.130066
5.7e-07
-0.43344
-0.359111
-0.28152
-0.198548
-0.109423
-3e-07
-0.337067
-0.279368
-0.21909
-0.154522
-0.0849622
-1e-07
-0.23225
-0.1926
-0.151024
-0.106308
-0.0572672
-2e-07
-0.12172
-0.101121
-0.0793464
-0.0557792
-0.0288127
-1e-07
-0.517778
-0.428956
-0.336041
-0.236712
-0.130066
5.7e-07
-0.43344
-0.359111
-0.28152
-0.198548
-0.109423
-3e-07
-0.337067
-0.279368
-0.21909
-0.154522
-0.0849622
-1e-07
-0.23225
-0.1926
-0.151024
-0.106308
-0.0572672
-2e-07
-0.12172
-0.101121
-0.0793464
-0.0557792
-0.0288127
-1e-07
-0.590059
-0.646181
-0.683732
-0.701232
-0.697696
-0.488058
-0.533967
-0.56426
-0.577199
-0.571601
-0.381652
-0.417096
-0.440197
-0.448398
-0.440356
-0.268201
-0.292822
-0.308892
-0.314252
-0.30665
-0.147061
-0.161026
-0.169466
-0.170974
-0.161813
-1.23e-06
-1.33e-06
-1.52e-06
-1.52e-06
-1.52e-06
-0.590059
-0.646181
-0.683732
-0.701232
-0.697696
-0.488058
-0.533967
-0.56426
-0.577199
-0.571601
-0.381652
-0.417096
-0.440197
-0.448398
-0.440356
-0.268201
-0.292822
-0.308892
-0.314252
-0.30665
-0.147061
-0.161026
-0.169466
-0.170974
-0.161813
-1.23e-06
-1.33e-06
-1.52e-06
-1.52e-06
-1.52e-06
-0.672938
-0.627446
-0.563236
-0.483023
-0.392346
-0.546177
-0.501033
-0.437307
-0.356943
-0.267839
-0.414363
-0.368812
-0.303791
-0.222981
-0.139183
-0.280713
-0.233412
-0.165643
-0.0927874
-0.0305538
-0.135975
-0.0929721
-0.0418042
-0.00592298
0.0163643
-1.52e-06
-1.52e-06
-1.52e-06
-1.52e-06
-1.52e-06
-0.672938
-0.627446
-0.563236
-0.483023
-0.392346
-0.546177
-0.501033
-0.437307
-0.356943
-0.267839
-0.414363
-0.368812
-0.303791
-0.222981
-0.139183
-0.280713
-0.233412
-0.165643
-0.0927874
-0.0305538
-0.135975
-0.0929721
-0.0418042
-0.00592298
0.0163643
-1.52e-06
-1.52e-06
-1.52e-06
-1.52e-06
-1.52e-06
-1.52e-06
0.0333781
0.00994398
-0.0727595
-0.188241
-0.30882
-1.52e-06
0.0367357
0.0250112
-0.03811
-0.140369
-0.253642
-1.52e-06
0.0323284
0.0200989
-0.0415502
-0.140014
-0.251071
0
0.0135571
-0.0154537
-0.0887064
-0.192429
-0.306558
-1.52e-06
0.0333781
0.00994398
-0.0727595
-0.188241
-0.30882
-1.52e-06
0.0367357
0.0250112
-0.03811
-0.140369
-0.253642
-1.52e-06
0.0323284
0.0200989
-0.0415502
-0.140014
-0.251071
0
0.0135571
-0.0154537
-0.0887064
-0.192429
-0.306558
-0.519758
-0.564491
-0.477868
-0.300273
-0.10236
0.08781
0.266112
0.436843
0.57882
0.641454
0.59845
0.467613
0.300967
0.133387
-0.0285463
-0.187481
-0.344635
-0.488485
-0.588146
-0.619354
-0.576949
-0.472667
-0.328883
-0.171868
-0.0146075
0.140577
0.290861
0.42452
0.520054
0.559602
0.537516
0.460892
0.344788
0.205539
0.0579939
-0.0898791
-0.233706
-0.362985
-0.460928
-0.51194
-0.508776
-0.454622
-0.360521
-0.240198
-0.106114
0.0311373
0.165898
0.28902
0.385656
0.442089
0.450647
0.412079
0.334412
0.22911
0.107529
-0.0191727
-0.144155
-0.258833
-0.349385
-0.403896
-0.415629
-0.384688
-0.317239
-0.222791
-0.111641
0.0046727
0.118821
0.221083
0.298194
0.340577
0.343836
0.309202
0.242556
0.152467
0.0495379
-0.0548891
-0.153122
-0.231966
-0.28117
-0.295701
-0.275491
-0.224646
-0.150465
-0.0637855
0.0237288
0.102703
0.159913
0.188226
0.186186
0.1564
0.105053
0.0432297
-0.0179762
-0.0687345
-0.0997782
-0.108678
-0.0979462
-0.0742638
-0.0475604
0.0769653
-0.476205
-0.482667
-0.373612
-0.185856
0.011766
0.195995
0.366218
0.531671
0.676322
0.750311
0.721122
0.602303
0.442831
0.277643
0.115482
-0.0439163
-0.200018
-0.341696
-0.440481
-0.47435
-0.435571
-0.335766
-0.196451
-0.0420915
0.112487
0.263946
0.411174
0.544707
0.643341
0.687234
0.669139
0.595453
0.480957
0.342309
0.194661
0.0462379
-0.0983611
-0.22788
-0.325304
-0.376034
-0.373587
-0.321091
-0.229342
-0.111789
0.0191233
0.153552
0.285501
0.40688
0.503922
0.562287
0.573314
0.536969
0.460792
0.355934
0.233713
0.10628
-0.0197177
-0.135742
-0.227286
-0.282529
-0.295197
-0.265571
-0.199743
-0.107178
0.0015797
0.115908
0.228047
0.328724
0.405266
0.447735
0.451223
0.416583
0.349486
0.258321
0.154176
0.0489219
-0.0508144
-0.131427
-0.182629
-0.199511
-0.181971
-0.134048
-0.0629467
0.0212272
0.107256
0.184925
0.241174
0.268174
0.264118
0.231759
0.177821
0.114374
0.0519702
-0.00050741
-0.0343768
-0.0470161
-0.0400542
-0.0189019
0.00674559
0.0227334
-0.371372
-0.359825
-0.246863
-0.0682324
0.117052
0.288329
0.446404
0.601174
0.744434
0.83261
0.826813
0.731919
0.588357
0.430937
0.272981
0.117049
-0.0352077
-0.173704
-0.274451
-0.315194
-0.287191
-0.199208
-0.0704562
0.0766008
0.225359
0.370279
0.511499
0.642867
0.745252
0.797399
0.789298
0.724867
0.617622
0.484153
0.339717
0.193109
0.0499239
-0.0790181
-0.177205
-0.230737
-0.232814
-0.185998
-0.100439
0.0112365
0.136846
0.266534
0.394064
0.512791
0.610701
0.672864
0.689216
0.658435
0.58691
0.485173
0.364813
0.23813
0.112315
-0.00433565
-0.0973123
-0.154818
-0.170661
-0.144782
-0.0828196
0.00600805
0.111158
0.222327
0.331538
0.430397
0.50713
0.551128
0.556689
0.523979
0.458118
0.367385
0.263271
0.15776
0.0570942
-0.0257176
-0.0799228
-0.100451
-0.0869455
-0.0431276
0.0239683
0.104809
0.188663
0.265115
0.321453
0.348756
0.34438
0.310989
0.255622
0.190949
0.127192
0.0720611
0.0339589
0.0161074
0.0178189
0.0353209
0.0601803
0.0777351
-0.227523
-0.209024
-0.105536
0.0495239
0.213347
0.367802
0.512017
0.652026
0.788286
0.889578
0.912553
0.85008
0.730919
0.587546
0.437977
0.288504
0.142009
0.0072409
-0.0961011
-0.146894
-0.134917
-0.0649873
0.0482607
0.184503
0.325192
0.461946
0.594801
0.721334
0.826889
0.889626
0.895866
0.846109
0.751516
0.627766
0.489867
0.347492
0.207454
0.079849
-0.0200556
-0.0784075
-0.0877876
-0.0502646
0.0255673
0.128668
0.247184
0.37073
0.492624
0.607524
0.705891
0.773196
0.797362
0.775075
0.711209
0.615467
0.499408
0.375102
0.250567
0.13406
0.0394252
-0.0214633
-0.0421289
-0.0221132
0.0337938
0.117218
0.217638
0.32461
0.430202
0.526844
0.604213
0.651094
0.660381
0.631347
0.568477
0.479924
0.377142
0.272018
0.170876
0.0858954
0.028115
0.0029388
0.0112042
0.049779
0.112016
0.188762
0.269777
0.344844
0.401922
0.431029
0.428171
0.395461
0.339976
0.274478
0.209405
0.151052
0.107822
0.0837878
0.0791844
0.0912722
0.114357
0.134525
-0.0733633
-0.0490748
0.0371015
0.162866
0.301445
0.437712
0.567821
0.69244
0.815793
0.923851
0.976805
0.951051
0.863419
0.740677
0.603782
0.463088
0.323524
0.192716
0.0865256
0.0241402
0.0168655
0.0651297
0.159753
0.282576
0.413622
0.541643
0.665204
0.784281
0.890151
0.963676
0.987391
0.956624
0.879179
0.769115
0.64096
0.50523
0.369745
0.244163
0.142445
0.0782749
0.0589903
0.0842144
0.147862
0.240591
0.350658
0.467096
0.582638
0.69261
0.790071
0.862549
0.89655
0.88547
0.832063
0.744987
0.635459
0.515158
0.392983
0.277467
0.181326
0.116476
0.0896099
0.101874
0.150055
0.226814
0.321638
0.423793
0.525109
0.618811
0.696488
0.747202
0.761957
0.738418
0.680354
0.595717
0.495531
0.391381
0.290444
0.203619
0.142068
0.11161
0.113689
0.146087
0.20276
0.274796
0.35234
0.425554
0.483449
0.515521
0.516062
0.485951
0.431851
0.366097
0.299956
0.238443
0.189749
0.15894
0.147255
0.152819
0.172519
0.194773
0.0943067
0.113487
0.17427
0.269285
0.381972
0.499555
0.615713
0.727226
0.835742
0.939661
1.01367
1.02394
0.973368
0.87857
0.760247
0.631882
0.500938
0.374947
0.267207
0.193878
0.167171
0.192066
0.265643
0.372169
0.491682
0.610721
0.725529
0.83628
0.938649
1.01918
1.05982
1.05074
0.994351
0.901905
0.786953
0.660583
0.53138
0.408893
0.305999
0.235595
0.205374
0.216698
0.266735
0.347552
0.447781
0.55622
0.665044
0.769553
0.864519
0.940393
0.984035
0.986107
0.945906
0.870131
0.769548
0.655323
0.536829
0.423197
0.326218
0.257284
0.223189
0.226595
0.266198
0.335407
0.423646
0.520267
0.616953
0.707331
0.784268
0.838302
0.859603
0.843483
0.792275
0.713351
0.617256
0.515129
0.4151
0.327148
0.262135
0.226034
0.2213
0.247008
0.297595
0.364377
0.437836
0.508599
0.566798
0.602219
0.607703
0.58225
0.531351
0.466336
0.399539
0.335508
0.281619
0.24395
0.224837
0.22323
0.237561
0.129537
-0.519758
-0.564491
-0.477868
-0.300273
-0.10236
0.08781
0.266112
0.436843
0.57882
0.641454
0.59845
0.467613
0.300967
0.133387
-0.0285463
-0.187481
-0.344635
-0.488485
-0.588146
-0.619354
-0.576949
-0.472667
-0.328883
-0.171868
-0.0146075
0.140577
0.290861
0.42452
0.520054
0.559602
0.537516
0.460892
0.344788
0.205539
0.0579939
-0.0898791
-0.233706
-0.362985
-0.460928
-0.51194
-0.508776
-0.454622
-0.360521
-0.240198
-0.106114
0.0311373
0.165898
0.28902
0.385656
0.442089
0.450647
0.412079
0.334412
0.22911
0.107529
-0.0191727
-0.144155
-0.258833
-0.349385
-0.403896
-0.415629
-0.384688
-0.317239
-0.222791
-0.111641
0.0046727
0.118821
0.221083
0.298194
0.340577
0.343836
0.309202
0.242556
0.152467
0.0495379
-0.0548891
-0.153122
-0.231966
-0.28117
-0.295701
-0.275491
-0.224646
-0.150465
-0.0637855
0.0237288
0.102703
0.159913
0.188226
0.186186
0.1564
0.105053
0.0432297
-0.0179762
-0.0687345
-0.0997782
-0.108678
-0.0979462
-0.0742638
-0.0475604
0.0769653
-0.476205
-0.482667
-0.373612
-0.185856
0.011766
0.195995
0.366218
0.531671
0.676322
0.750311
0.721122
0.602303
0.442831
0.277643
0.115482
-0.0439163
-0.200018
-0.341696
-0.440481
-0.47435
-0.435571
-0.335766
-0.196451
-0.0420915
0.112487
0.263946
0.411174
0.544707
0.643341
0.687234
0.669139
0.595453
0.480957
0.342309
0.194661
0.0462379
-0.0983611
-0.22788
-0.325304
-0.376034
-0.373587
-0.321091
-0.229342
-0.111789
0.0191233
0.153552
0.285501
0.40688
0.503922
0.562287
0.573314
0.536969
0.460792
0.355934
0.233713
0.10628
-0.0197177
-0.135742
-0.227286
-0.282529
-0.295197
-0.265571
-0.199743
-0.107178
0.0015797
0.115908
0.228047
0.328724
0.405266
0.447735
0.451223
0.416583
0.349486
0.258321
0.154176
0.0489219
-0.0508144
-0.131427
-0.182629
-0.199511
-0.181971
-0.134048
-0.0629467
0.0212272
0.107256
0.184925
0.241174
0.268174
0.264118
0.231759
0.177821
0.114374
0.0519702
-0.00050741
-0.0343768
-0.0470161
-0.0400542
-0.0189019
0.00674559
0.0227334
-0.371372
-0.359825
-0.246863
-0.0682324
0.117052
0.288329
0.446404
0.601174
0.744434
0.83261
0.826813
0.731919
0.588357
0.430937
0.272981
0.117049
-0.0352077
-0.173704
-0.274451
-0.315194
-0.287191
-0.199208
-0.0704562
0.0766008
0.225359
0.370279
0.511499
0.642867
0.745252
0.797399
0.789298
0.724867
0.617622
0.484153
0.339717
0.193109
0.0499239
-0.0790181
-0.177205
-0.230737
-0.232814
-0.185998
-0.100439
0.0112365
0.136846
0.266534
0.394064
0.512791
0.610701
0.672864
0.689216
0.658435
0.58691
0.485173
0.364813
0.23813
0.112315
-0.00433565
-0.0973123
-0.154818
-0.170661
-0.144782
-0.0828196
0.00600805
0.111158
0.222327
0.331538
0.430397
0.50713
0.551128
0.556689
0.523979
0.458118
0.367385
0.263271
0.15776
0.0570942
-0.0257176
-0.0799228
-0.100451
-0.0869455
-0.0431276
0.0239683
0.104809
0.188663
0.265115
0.321453
0.348756
0.34438
0.310989
0.255622
0.190949
0.127192
0.0720611
0.0339589
0.0161074
0.0178189
0.0353209
0.0601803
0.0777351
-0.227523
-0.209024
-0.105536
0.0495239
0.213347
0.367802
0.512017
0.652026
0.788286
0.889578
0.912553
0.85008
0.730919
0.587546
0.437977
0.288504
0.142009
0.0072409
-0.0961011
-0.146894
-0.134917
-0.0649873
0.0482607
0.184503
0.325192
0.461946
0.594801
0.721334
0.826889
0.889626
0.895866
0.846109
0.751516
0.627766
0.489867
0.347492
0.207454
0.079849
-0.0200556
-0.0784075
-0.0877876
-0.0502646
0.0255673
0.128668
0.247184
0.37073
0.492624
0.607524
0.705891
0.773196
0.797362
0.775075
0.711209
0.615467
0.499408
0.375102
0.250567
0.13406
0.0394252
-0.0214633
-0.0421289
-0.0221132
0.0337938
0.117218
0.217638
0.32461
0.430202
0.526844
0.604213
0.651094
0.660381
0.631347
0.568477
0.479924
0.377142
0.272018
0.170876
0.0858954
0.028115
0.0029388
0.0112042
0.049779
0.112016
0.188762
0.269777
0.344844
0.401922
0.431029
0.428171
0.395461
0.339976
0.274478
0.209405
0.151052
0.107822
0.0837878
0.0791844
0.0912722
0.114357
0.134525
-0.0733633
-0.0490748
0.0371015
0.162866
0.301445
0.437712
0.567821
0.69244
0.815793
0.923851
0.976805
0.951051
0.863419
0.740677
0.603782
0.463088
0.323524
0.192716
0.0865256
0.0241402
0.0168655
0.0651297
0.159753
0.282576
0.413622
0.541643
0.665204
0.784281
0.890151
0.963676
0.987391
0.956624
0.879179
0.769115
0.64096
0.50523
0.369745
0.244163
0.142445
0.0782749
0.0589903
0.0842144
0.147862
0.240591
0.350658
0.467096
0.582638
0.69261
0.790071
0.862549
0.89655
0.88547
0.832063
0.744987
0.635459
0.515158
0.392983
0.277467
0.181326
0.116476
0.0896099
0.101874
0.150055
0.226814
0.321638
0.423793
0.525109
0.618811
0.696488
0.747202
0.761957
0.738418
0.680354
0.595717
0.495531
0.391381
0.290444
0.203619
0.142068
0.11161
0.113689
0.146087
0.20276
0.274796
0.35234
0.425554
0.483449
0.515521
0.516062
0.485951
0.431851
0.366097
0.299956
0.238443
0.189749
0.15894
0.147255
0.152819
0.172519
0.194773
0.0943067
0.113487
0.17427
0.269285
0.381972
0.499555
0.615713
0.727226
0.835742
0.939661
1.01367
1.02394
0.973368
0.87857
0.760247
0.631882
0.500938
0.374947
0.267207
0.193878
0.167171
0.192066
0.265643
0.372169
0.491682
0.610721
0.725529
0.83628
0.938649
1.01918
1.05982
1.05074
0.994351
0.901905
0.786953
0.660583
0.53138
0.408893
0.305999
0.235595
0.205374
0.216698
0.266735
0.347552
0.447781
0.55622
0.665044
0.769553
0.864519
0.940393
0.984035
0.986107
0.945906
0.870131
0.769548
0.655323
0.536829
0.423197
0.326218
0.257284
0.223189
0.226595
0.266198
0.335407
0.423646
0.520267
0.616953
0.707331
0.784268
0.838302
0.859603
0.843483
0.792275
0.713351
0.617256
0.515129
0.4151
0.327148
0.262135
0.226034
0.2213
0.247008
0.297595
0.364377
0.437836
0.508599
0.566798
0.602219
0.607703
0.58225
0.531351
0.466336
0.399539
0.335508
0.281619
0.24395
0.224837
0.22323
0.237561
0.129537
0.419743
0.41681
0.437202
0.483371
0.552173
0.635146
0.723887
0.813143
0.899516
0.980626
1.05406
1.10894
1.12554
1.09409
1.02385
0.928974
0.821543
0.710406
0.604159
0.513869
0.452125
0.430557
0.456035
0.522391
0.614428
0.715499
0.815243
0.910846
1.00202
1.08503
1.15046
1.18581
1.18121
1.13631
1.0589
0.959633
0.84861
0.73468
0.62738
0.537779
0.476245
0.449664
0.460733
0.506107
0.578018
0.666247
0.76103
0.855545
0.945774
1.02748
1.09329
1.13281
1.13708
1.10347
1.03679
0.946032
0.841294
0.731947
0.627522
0.538455
0.47424
0.441548
0.444031
0.480029
0.542729
0.622278
0.708995
0.795316
0.87574
0.944448
0.993711
1.015
1.00277
0.957554
0.885393
0.795733
0.69874
0.603289
0.518576
0.45369
0.414524
0.404661
0.423666
0.466264
0.524638
0.590199
0.654459
0.709107
0.74557
0.756385
0.738243
0.694035
0.632558
0.566009
0.500228
0.440561
0.393994
0.364085
0.351194
0.354787
0.242534
0.708817
0.71133
0.729961
0.765774
0.81684
0.878387
0.945137
1.01294
1.07855
1.13895
1.19037
1.22655
1.23872
1.22128
1.17361
1.10237
1.01691
0.926249
0.839267
0.765933
0.717941
0.705841
0.732098
0.789228
0.864152
0.944629
1.02409
1.10066
1.1737
1.24017
1.29257
1.32104
1.31858
1.28383
1.22107
1.13809
1.04357
0.946063
0.854562
0.778515
0.726987
0.706358
0.717523
0.756864
0.818056
0.892633
0.972397
1.05161
1.12709
1.19576
1.25176
1.28625
1.29137
1.26414
1.20722
1.12762
1.0341
0.93568
0.841671
0.761414
0.703514
0.674427
0.676745
0.70824
0.762872
0.832204
0.907675
0.982497
1.05209
1.11209
1.15633
1.17718
1.16894
1.13076
1.06697
0.985492
0.895555
0.806013
0.725524
0.66213
0.621948
0.608238
0.620275
0.653969
0.702988
0.759771
0.816567
0.866301
0.902189
0.917645
0.908058
0.87343
0.819374
0.755749
0.690169
0.627603
0.574432
0.535028
0.511356
0.503221
0.102574
0.980822
0.985585
1.00194
1.02997
1.06852
1.11481
1.1654
1.21695
1.26634
1.31062
1.34663
1.36997
1.37619
1.36272
1.32905
1.27755
1.21352
1.14401
1.07729
1.023
0.990627
0.985867
1.00926
1.05462
1.11187
1.17337
1.23506
1.29495
1.35164
1.40288
1.44386
1.46741
1.46693
1.44041
1.39052
1.32301
1.24506
1.16439
1.0891
1.0273
0.986031
0.969588
0.978877
1.01143
1.06176
1.12279
1.18784
1.25223
1.31334
1.36896
1.41501
1.44469
1.45096
1.42983
1.3826
1.31463
1.23342
1.14727
1.06486
0.994576
0.944
0.918514
0.919942
0.946281
0.992451
1.05118
1.115
1.17798
1.23634
1.28701
1.32563
1.34592
1.34197
1.31152
1.25719
1.18532
1.10414
1.02205
0.947129
0.886762
0.846449
0.829007
0.834323
0.859479
0.899258
0.946996
0.995685
1.0392
1.07236
1.09023
1.0884
1.06482
1.02168
0.965311
0.902992
0.84071
0.784064
0.737953
0.705439
0.686306
0.2752
1.24069
1.24587
1.25967
1.28188
1.31158
1.34689
1.38533
1.42432
1.46133
1.49381
1.51909
1.53426
1.53646
1.52426
1.4981
1.46008
1.41362
1.36352
1.31634
1.2798
1.26046
1.26103
1.28016
1.3134
1.35514
1.40096
1.44795
1.49399
1.5372
1.5756
1.60613
1.62423
1.625
1.60584
1.56772
1.51469
1.45259
1.38804
1.32799
1.27918
1.24676
1.23364
1.24107
1.26721
1.30713
1.3552
1.40642
1.45717
1.50527
1.54897
1.58537
1.60953
1.61584
1.60035
1.56282
1.50689
1.43869
1.36558
1.2953
1.23517
1.1918
1.16994
1.17075
1.19214
1.2299
1.27791
1.32997
1.38121
1.42861
1.46995
1.50229
1.52092
1.52057
1.49802
1.45401
1.39307
1.32214
1.24887
1.18069
1.12428
1.08468
1.06467
1.06447
1.08188
1.11267
1.15123
1.19145
1.22799
1.2567
1.27423
1.27746
1.26382
1.23288
1.18749
1.13276
1.07452
1.01827
0.968865
0.930082
0.90206
0.0695462
1.49179
1.49677
1.50822
1.52578
1.54867
1.57553
1.60458
1.63388
1.66142
1.68522
1.70328
1.71366
1.71453
1.70487
1.68512
1.6572
1.62404
1.58939
1.55801
1.53488
1.52354
1.52513
1.53871
1.56202
1.59209
1.62608
1.66159
1.69652
1.72899
1.75721
1.77915
1.7922
1.79322
1.77986
1.75198
1.71205
1.66443
1.6145
1.56797
1.53022
1.50522
1.49519
1.50072
1.52033
1.5505
1.58702
1.62615
1.66509
1.70196
1.73528
1.763
1.78179
1.78745
1.77646
1.74778
1.70354
1.6484
1.58848
1.53047
1.48074
1.44475
1.42612
1.42584
1.44232
1.47187
1.50945
1.55021
1.59039
1.62758
1.6601
1.68604
1.70216
1.70421
1.68873
1.655
1.60568
1.5461
1.48281
1.42243
1.37099
1.33325
1.3119
1.30725
1.31775
1.34013
1.36977
1.40151
1.43074
1.4541
1.46928
1.47446
1.46772
1.44762
1.41447
1.37079
1.32067
1.26884
1.22009
1.17858
1.14496
0.304498
1.73603
1.74048
1.74978
1.76355
1.78117
1.80163
1.82364
1.84571
1.86631
1.88391
1.89701
1.90429
1.90471
1.8978
1.88393
1.86448
1.84165
1.81827
1.79749
1.78228
1.77479
1.77594
1.7855
1.80223
1.82426
1.84952
1.87613
1.90235
1.92652
1.94706
1.96238
1.97083
1.97082
1.96103
1.94111
1.91229
1.8774
1.84035
1.80551
1.77699
1.75792
1.75012
1.75394
1.76817
1.79024
1.81718
1.84632
1.87552
1.90316
1.92786
1.94809
1.96171
1.96597
1.95819
1.93704
1.90348
1.86072
1.81351
1.76739
1.72775
1.6988
1.68301
1.68157
1.69343
1.71524
1.74313
1.77363
1.80395
1.83214
1.8568
1.87656
1.88937
1.89226
1.88226
1.85781
1.81992
1.77216
1.71969
1.66813
1.62278
1.58799
1.56636
1.55836
1.56303
1.5779
1.5992
1.62269
1.64461
1.66224
1.67393
1.67869
1.67548
1.66309
1.64076
1.60894
1.56968
1.52641
1.48252
1.44186
1.40603
0.0486072
1.97487
1.97866
1.98611
1.99687
2.01043
2.02605
2.04273
2.05937
2.0748
2.08789
2.09756
2.10292
2.10333
2.0986
2.08911
2.07587
2.06044
2.04473
2.03084
2.02072
2.01586
2.01698
2.02403
2.03626
2.05244
2.07115
2.09096
2.11046
2.1283
2.14322
2.15393
2.15922
2.15811
2.15007
2.13523
2.11446
2.08953
2.06296
2.03781
2.01706
2.0031
1.99729
1.99982
2.00977
2.02542
2.04481
2.06607
2.08758
2.10793
2.12587
2.14014
2.14934
2.1518
2.14582
2.13035
2.10573
2.07392
2.0383
2.00309
1.97249
1.94979
1.93691
1.93453
1.94181
1.95657
1.97614
1.99803
2.02015
2.04086
2.05891
2.07319
2.08241
2.08476
2.07817
2.06102
2.03326
1.99684
1.95536
1.91328
1.87507
1.84412
1.82297
1.81282
1.813
1.82145
1.83525
1.85112
1.86615
1.87825
1.88617
1.8893
1.88715
1.8791
1.86436
1.84253
1.81409
1.78073
1.74474
1.70899
1.67479
0.315344
2.20953
2.21265
2.21855
2.22692
2.23735
2.24927
2.26194
2.27453
2.28616
2.296
2.30328
2.30738
2.30791
2.30482
2.29843
2.2895
2.27912
2.26862
2.25943
2.25285
2.24992
2.25116
2.25655
2.26566
2.27767
2.29156
2.30627
2.32072
2.33383
2.34459
2.35204
2.35532
2.3538
2.34723
2.3359
2.3206
2.30264
2.28373
2.26595
2.25129
2.24137
2.23711
2.23862
2.24536
2.25626
2.27005
2.2854
2.30103
2.31578
2.32854
2.33827
2.34395
2.34462
2.33939
2.32773
2.30984
2.28685
2.26096
2.23505
2.21213
2.19462
2.18403
2.18087
2.18463
2.19397
2.20714
2.22237
2.23803
2.25277
2.26546
2.27517
2.28104
2.28205
2.27697
2.26468
2.24474
2.218
2.18666
2.15387
2.12306
2.09702
2.07783
2.06677
2.06359
2.06672
2.07403
2.08322
2.09223
2.09949
2.10399
2.10518
2.10279
2.09658
2.08616
2.0711
2.05124
2.02708
1.99971
1.97093
1.94147
0.0475802
2.44093
2.44343
2.44805
2.45452
2.46254
2.47165
2.48129
2.49084
2.49966
2.50713
2.51271
2.51596
2.51666
2.51479
2.51064
2.50474
2.49787
2.49096
2.485
2.48087
2.47928
2.48057
2.4848
2.49165
2.50059
2.51091
2.52182
2.53248
2.54208
2.54985
2.55508
2.55719
2.55575
2.55064
2.54214
2.53088
2.51786
2.50434
2.49171
2.48129
2.47413
2.47086
2.4716
2.47607
2.4836
2.49333
2.50427
2.51547
2.52596
2.53485
2.5413
2.54457
2.544
2.53917
2.52992
2.51651
2.49976
2.48105
2.46227
2.44537
2.43207
2.42348
2.42007
2.42161
2.42727
2.43588
2.44617
2.45692
2.46705
2.4756
2.48181
2.48498
2.48448
2.47969
2.47004
2.45525
2.43569
2.41257
2.38788
2.36395
2.34293
2.32648
2.31556
2.31016
2.30936
2.31178
2.31591
2.32034
2.32388
2.32567
2.32517
2.32212
2.31642
2.30798
2.29666
2.28228
2.2649
2.24484
2.22306
2.19989
0.309531
2.6698
2.67175
2.67533
2.68032
2.68647
2.69343
2.70078
2.70807
2.7148
2.72053
2.72488
2.72754
2.72838
2.7274
2.72483
2.72105
2.71662
2.71219
2.70844
2.70597
2.70526
2.70658
2.70995
2.71518
2.7219
2.72959
2.73769
2.74555
2.75258
2.75819
2.76186
2.7632
2.76195
2.75807
2.75179
2.74358
2.73417
2.72444
2.71535
2.7078
2.70251
2.69994
2.70021
2.70316
2.70834
2.71514
2.72286
2.73076
2.7381
2.74419
2.74838
2.75009
2.74888
2.74449
2.73693
2.72653
2.71394
2.70013
2.68634
2.67385
2.6638
2.65699
2.65377
2.65403
2.65726
2.66268
2.66939
2.67651
2.68321
2.68871
2.69235
2.69356
2.69187
2.68696
2.67862
2.66684
2.65192
2.6346
2.61605
2.59775
2.58115
2.56742
2.5573
2.55091
2.54781
2.54718
2.54803
2.54936
2.55029
2.55009
2.54829
2.54461
2.53894
2.53131
2.52175
2.51028
2.49694
2.48183
2.46537
2.44773
0.0575742
2.89668
2.89816
2.9009
2.90473
2.90944
2.91476
2.92038
2.92596
2.93113
2.93558
2.93902
2.94126
2.94218
2.94183
2.94037
2.93807
2.93533
2.9326
2.93035
2.92901
2.92889
2.93018
2.93291
2.93694
2.94202
2.94777
2.95378
2.95958
2.96472
2.96878
2.97137
2.97223
2.9712
2.96827
2.96363
2.95764
2.95081
2.94377
2.93719
2.93168
2.92775
2.92574
2.92573
2.92763
2.93114
2.93583
2.94118
2.94664
2.95165
2.95569
2.95827
2.95898
2.95752
2.95373
2.94764
2.93953
2.92993
2.91953
2.9092
2.89981
2.89212
2.88666
2.88369
2.88315
2.88473
2.8879
2.89204
2.8965
2.90064
2.90388
2.90567
2.90557
2.90322
2.89839
2.891
2.88114
2.86914
2.85557
2.8412
2.82695
2.81378
2.80245
2.79348
2.78704
2.78291
2.7806
2.77946
2.77878
2.77791
2.77631
2.77358
2.76945
2.7638
2.75663
2.74801
2.73804
2.72685
2.71456
2.70142
2.68754
0.300749
3.12197
3.12307
3.12515
3.12806
3.13166
3.13573
3.14004
3.14433
3.14833
3.15182
3.15458
3.15649
3.15746
3.15754
3.15683
3.15555
3.15397
3.1524
3.15117
3.15056
3.15082
3.15205
3.15428
3.15743
3.16129
3.16562
3.1701
3.17439
3.17816
3.1811
3.18294
3.18349
3.18265
3.18045
3.17702
3.17263
3.16765
3.16253
3.15774
3.15369
3.15076
3.14918
3.149
3.15019
3.15251
3.15568
3.15932
3.16302
3.16636
3.16894
3.1704
3.17046
3.16891
3.16565
3.16075
3.15442
3.14704
3.13913
3.13127
3.12407
3.11805
3.11358
3.11084
3.10981
3.11029
3.11192
3.11426
3.11683
3.11915
3.12076
3.12125
3.12029
3.11759
3.113
3.10649
3.09816
3.08829
3.07732
3.06582
3.05441
3.04374
3.03431
3.02649
3.02039
3.0159
3.0127
3.01037
3.00841
3.00635
3.00381
3.00046
2.99607
2.99053
2.98381
2.97592
2.96698
2.95711
2.94649
2.93531
2.92373
0.0622212
3.34602
3.34681
3.34836
3.35057
3.35331
3.35642
3.35973
3.36305
3.36617
3.36892
3.37117
3.37281
3.37379
3.37415
3.37395
3.37336
3.37256
3.37176
3.37121
3.37109
3.37157
3.37272
3.37457
3.37704
3.38
3.38327
3.38662
3.3898
3.39256
3.3947
3.39601
3.39637
3.39571
3.39406
3.39153
3.38831
3.38467
3.38093
3.37742
3.37443
3.37223
3.37096
3.37069
3.37137
3.37286
3.37495
3.37735
3.37977
3.38191
3.38345
3.38416
3.38381
3.38227
3.37948
3.37551
3.37053
3.3648
3.3587
3.35265
3.34704
3.34226
3.33854
3.33604
3.33474
3.3345
3.33508
3.33616
3.33739
3.33841
3.33888
3.33849
3.33698
3.33416
3.32991
3.32423
3.31719
3.30903
3.30006
3.2907
3.2814
3.2726
3.26464
3.25778
3.2521
3.24753
3.24387
3.24083
3.23808
3.23529
3.23216
3.22846
3.22399
3.21866
3.21241
3.20525
3.19724
3.18851
3.17918
3.16945
3.15945
0.299605
3.56906
3.56961
3.57075
3.57241
3.57449
3.57687
3.57942
3.58199
3.58443
3.58663
3.58847
3.58989
3.59085
3.59137
3.59151
3.59136
3.59108
3.5908
3.59068
3.59087
3.59147
3.59253
3.59406
3.59601
3.5983
3.60079
3.6033
3.60567
3.60771
3.60927
3.61021
3.61044
3.60993
3.60869
3.60682
3.60445
3.60178
3.59904
3.59645
3.59423
3.59256
3.59154
3.59121
3.59155
3.59246
3.59378
3.59531
3.59683
3.59812
3.59895
3.59915
3.59855
3.59707
3.59469
3.59144
3.58747
3.58298
3.57822
3.57348
3.56906
3.5652
3.56209
3.55982
3.55839
3.55771
3.55759
3.55782
3.55814
3.55829
3.55799
3.55702
3.5552
3.55238
3.54848
3.54352
3.53755
3.53076
3.52337
3.51568
3.508
3.50065
3.49386
3.48782
3.48258
3.47812
3.47429
3.47091
3.46774
3.46456
3.46113
3.45728
3.45287
3.44781
3.44204
3.43559
3.42847
3.42078
3.41264
3.40418
3.39553
0.0621652
3.79131
3.79167
3.7925
3.79374
3.79531
3.79713
3.79909
3.80109
3.80301
3.80477
3.80629
3.80752
3.80843
3.80903
3.80937
3.80951
3.80956
3.80961
3.80977
3.81013
3.81078
3.81173
3.81301
3.81457
3.81635
3.81825
3.82014
3.82191
3.82342
3.82456
3.82524
3.8254
3.825
3.82408
3.8227
3.82095
3.81899
3.81697
3.81506
3.81339
3.8121
3.81127
3.81092
3.81104
3.81154
3.81232
3.81324
3.81413
3.81483
3.81517
3.81504
3.81431
3.81294
3.8109
3.80824
3.80505
3.80148
3.79772
3.79398
3.79044
3.7873
3.78468
3.78263
3.78117
3.78022
3.77966
3.77934
3.77905
3.77861
3.77783
3.77652
3.77456
3.77183
3.7683
3.76397
3.75889
3.75319
3.74705
3.74067
3.73428
3.72809
3.72228
3.71696
3.7122
3.70797
3.70418
3.7007
3.69738
3.69405
3.69054
3.68671
3.68247
3.67773
3.67247
3.66667
3.66037
3.65364
3.64657
3.63925
3.6318
0.299614
4.01292
4.01313
4.01372
4.01464
4.01582
4.01721
4.01871
4.02027
4.02179
4.02321
4.02447
4.02552
4.02636
4.02699
4.02744
4.02776
4.028
4.02824
4.02856
4.02902
4.02966
4.03052
4.03158
4.03283
4.03422
4.03568
4.03711
4.03844
4.03956
4.0404
4.04089
4.041
4.0407
4.04001
4.03899
4.0377
4.03626
4.03476
4.03334
4.03208
4.03108
4.0304
4.03005
4.03002
4.03025
4.03066
4.03116
4.03162
4.03192
4.03195
4.03162
4.03084
4.02959
4.02784
4.02564
4.02306
4.02021
4.01721
4.01422
4.01137
4.00879
4.00657
4.00474
4.00331
4.00224
4.00142
4.00076
4.0001
3.99931
3.99824
3.99676
3.99478
3.99222
3.98905
3.98527
3.98094
3.97614
3.97101
3.96569
3.96034
3.95511
3.95013
3.94548
3.9412
3.93728
3.93367
3.93028
3.92699
3.92369
3.92025
3.91658
3.9126
3.90823
3.90347
3.89831
3.89277
3.88689
3.88076
3.87446
3.86806
0.0623282
4.23399
4.2341
4.23451
4.23518
4.23606
4.23712
4.23828
4.23949
4.24069
4.24183
4.24287
4.24378
4.24453
4.24515
4.24565
4.24604
4.2464
4.24674
4.24714
4.24763
4.24824
4.24899
4.24987
4.25088
4.25197
4.25309
4.25418
4.25518
4.25601
4.25664
4.257
4.25707
4.25684
4.25633
4.25558
4.25463
4.25356
4.25245
4.25139
4.25043
4.24966
4.24909
4.24875
4.24863
4.24868
4.24885
4.24907
4.24924
4.24929
4.24912
4.24868
4.24791
4.24679
4.2453
4.24348
4.24139
4.23909