/*--------------------------------*- C++ -*----------------------------------*\
| =========                 |                                                 |
| \\      /  F ield         | OpenFOAM: The Open Source CFD Toolbox           |
|  \\    /   O peration     | Version:  2506                                  |
|   \\  /    A nd           | Website:  www.openfoam.com                      |
|    \\/     M anipulation  |                                                 |
\*---------------------------------------------------------------------------*/
FoamFile
{
    version     2.0;
    format      ascii;
    arch        "LSB;label=32;scalar=64";
    class       surfaceScalarField;
    location    "199.976811410189782";
    object      ddtCorrDdt0(phi);
}
// * * * * * * * * * * * * * * * * * * * * * * * * * * * * * * * * * * * * * //

dimensions      [0 3 -2 0 0 0 0];

oriented        oriented;

internalField   nonuniform List<scalar> 
19160
(
-1.47598e-05
0.000248021
-3.32815e-05
0.000234542
-3.76616e-05
0.000285683
-5.92486e-05
0.000212089
-8.29952e-05
0.000279876
-4.39318e-05
0.000329614
-9.66009e-05
0.000170831
-0.000140194
0.000269288
-9.64308e-05
0.000332374
-4.70374e-05
0.000376651
-0.000151144
0.000108047
-0.000218639
0.000249276
-0.000161905
0.000334763
-0.000103058
0.000388395
-4.29405e-05
0.000419591
-0.000229185
1.358e-05
-0.000327923
0.000217331
-0.000251309
0.000338679
-0.000172746
0.000404451
-9.41925e-05
0.000439647
-3.26463e-05
0.000452238
-0.000339121
-0.000126567
-0.000481831
0.000167487
-0.000375247
0.00034127
-0.000267738
0.000433671
-0.000158244
0.000468502
-7.20371e-05
0.000479037
-1.67029e-05
0.00046894
-0.0004915
-0.000331656
-0.000698354
8.99568e-05
-0.000549873
0.000342113
-0.000399479
0.000473011
-0.000246
0.000521427
-0.000122061
0.000518526
-3.78097e-05
0.000500144
3.3923e-06
0.000465548
-0.000698842
-0.000633845
-0.00100251
-2.74955e-05
-0.00079639
0.000336474
-0.00058553
0.000528163
-0.000368373
0.000595383
-0.00019168
0.000591046
-6.61885e-05
0.000546905
5.22726e-06
0.000498309
2.58778e-05
0.000439669
-0.000975581
-0.00107664
-0.0014278
-0.000208555
-0.00114446
0.000320575
-0.00084927
0.000600214
-0.000542113
0.000701902
-0.000290113
0.000693817
-0.000107828
0.000632684
3.9746e-06
0.000548157
5.32543e-05
0.000470932
4.86401e-05
0.000391029
-0.00134552
-0.00171633
-0.00201414
-0.000490302
-0.00163569
0.000282679
-0.00122374
0.000695042
-0.000789759
0.00084786
-0.000431353
0.000843142
-0.000169196
0.000755185
-2.70786e-06
0.000639367
8.21415e-05
0.000519269
0.000101727
0.000417844
6.961e-05
0.000321418
-0.00185036
-0.00254041
-0.00283407
-0.000896392
-0.00232652
0.000200519
-0.00175621
0.000815155
-0.00114345
0.00104874
-0.00063443
0.00105094
-0.00025983
0.000933776
-1.78408e-05
0.000770318
0.000114113
0.000607395
0.000160876
0.00046012
0.000146227
0.000341227
8.68292e-05
0.000234589
-0.00250977
-0.00368672
-0.00401191
-0.00136258
-0.00330471
8.18047e-05
-0.0025151
0.000959403
-0.00164997
0.00132167
-0.000926384
0.00134069
-0.000392955
0.00118406
-4.54249e-05
0.00096136
0.000149903
0.000734528
0.000231427
0.000536843
0.000232982
0.000373364
0.000182615
0.000245441
9.87212e-05
0.000135867
-0.00299209
-0.00614007
-0.0056596
-0.00203903
-0.00471093
4.36406e-05
-0.00359996
0.00116667
-0.00237857
0.00168799
-0.00134704
0.00174233
-0.000586946
0.00153468
-9.14763e-05
0.00123011
0.000191431
0.000919831
0.000317764
0.00064819
0.000338466
0.000431359
0.000291778
0.0002642
0.0002076
0.000136561
0.000103949
3.19172e-05
-0.00269611
-0.0112396
-0.00760958
-0.00419008
-0.00669197
-5.7992e-05
-0.00514777
0.00159145
-0.00342308
0.00221118
-0.00195681
0.00229777
-0.00086904
0.00202442
-0.000163614
0.00160682
0.00024032
0.00118122
0.000427412
0.000810183
0.000470259
0.000516396
0.000425365
0.000297771
0.000331995
0.000139805
0.000218421
2.20889e-05
0.000102021
-7.01045e-05
-0.00104268
-0.0189328
-0.00942935
-0.00941988
-0.00933682
-0.00154523
-0.00736358
0.00215781
-0.00489073
0.0030591
-0.00282917
0.00308354
-0.00128118
0.00270991
-0.000273381
0.00213419
0.000300199
0.00154694
0.000569138
0.0010395
0.0006406
0.000639842
0.00059345
0.000348311
0.000484455
0.000145311
0.000349258
8.96654e-06
0.000214108
-8.99988e-05
9.28727e-05
-0.000162978
0.0013455
-0.0270485
-0.0108455
-0.0175166
-0.0126256
-0.00613107
-0.0106374
0.00172857
-0.00701247
0.00427955
-0.00402035
0.00425028
-0.0018679
0.00367027
-0.000438633
0.00287516
0.00037566
0.00205873
0.000756832
0.00135924
0.000864206
0.000815891
0.000811698
0.000421594
0.000676695
0.00015607
0.000509465
-1.48961e-05
0.000342075
-0.000119002
0.000194578
-0.000191705
7.68867e-05
-0.000239865
0.00470814
-0.0310127
-0.0125701
-0.025324
-0.0166441
-0.013498
-0.0154655
-0.0013029
-0.0104601
0.00517621
-0.00572419
0.00598338
-0.00262886
0.00501124
-0.000674085
0.00390572
0.000474177
0.00277664
0.00100925
0.00180631
0.00116315
0.0010603
0.00109918
0.00052841
0.000926345
0.000171943
0.000711464
-4.59295e-05
0.000498371
-0.000171193
0.000310372
-0.000234796
0.000160669
-0.000275488
5.52955e-05
-0.000295162
0.00987997
-0.0323694
-0.0134266
-0.0301562
-0.0212009
-0.0207673
-0.0219229
-0.00704068
-0.0161617
0.00439869
-0.00873712
0.00818914
-0.00364375
0.00699827
-0.000936918
0.00527407
0.000608053
0.00377184
0.00135641
0.00242949
0.0015668
0.00140265
0.00148345
0.000676029
0.00125512
0.00019963
0.000973347
-8.99398e-05
0.000695199
-0.000242758
0.000451205
-0.000312027
0.000255535
-0.000329662
0.000114976
-0.00033517
2.96318e-05
-0.000324795
0.0177929
-0.0303176
-0.0122108
-0.0335853
-0.0248102
-0.0265468
-0.0287851
-0.0139051
-0.0243295
0.00112708
-0.0143405
0.010002
-0.00559873
0.0101441
-0.00116164
0.00722299
0.000839051
0.00504307
0.00183455
0.00329369
0.00212169
0.0018746
0.0020005
0.000885601
0.0016933
0.000237856
0.00131783
-0.000144854
0.000949747
-0.000344488
0.000628152
-0.000419705
0.000370087
-0.000426579
0.000181743
-0.00039643
6.07053e-05
-0.000366244
1.81954e-06
-0.000326615
0.0277845
-0.0254649
-0.00799744
-0.034531
-0.0260955
-0.0322999
-0.0352999
-0.020032
-0.0332921
-0.00494241
-0.0230821
0.0098687
-0.00988458
0.0142879
-0.00171985
0.0107023
0.00134277
0.00671927
0.00250756
0.00437006
0.00288367
0.00253172
0.00270573
0.00116937
0.00227997
0.000298925
0.00177529
-0.000219608
0.00128425
-0.000479356
0.000856302
-0.000572639
0.000513391
-0.00056301
0.000261155
-0.000505992
9.41528e-05
-0.000429879
1.88328e-06
-0.000366309
-2.58787e-05
-0.000300737
0.0399474
-0.0187888
-0.00081019
-0.0326521
-0.0252985
-0.035328
-0.0398309
-0.027769
-0.0413146
-0.0120095
-0.0339693
0.00594477
-0.0174208
0.0174049
-0.00387447
0.0164425
0.00216219
0.00988292
0.00358322
0.0056436
0.00391553
0.0033382
0.00366743
0.00157002
0.00307244
0.000376905
0.00238537
-0.000311154
0.00172711
-0.000662466
0.00115602
-0.000779077
0.000697395
-0.000756644
0.000359486
-0.000661341
0.000131944
-0.000543784
-7.53445e-07
-0.000427243
-5.67392e-05
-0.00033545
-5.12115e-05
-0.000249527
0.0579152
-0.0123795
0.00838857
-0.0279876
-0.0222202
-0.0357305
-0.0426793
-0.0324795
-0.0495043
-0.0195793
-0.043658
-0.00232075
-0.0282628
0.0167867
-0.00902836
0.0225588
0.00242593
0.0161788
0.00547474
0.0079914
0.00537911
0.00418003
0.00495327
0.00205236
0.00414289
0.000499558
0.00320219
-0.000439916
0.00231672
-0.000900774
0.00155211
-0.00105856
0.000939206
-0.00102089
0.000484687
-0.000881845
0.000176911
-0.000706309
-8.04831e-06
-0.00053649
-9.5317e-05
-0.000388666
-0.00011039
-0.000276272
-7.20842e-05
-0.000177444
0.076116
0.000675733
0.016675
-0.0206659
-0.0169658
-0.033242
-0.0432895
-0.0351203
-0.055677
-0.0263069
-0.0534092
-0.00982811
-0.0409961
0.0104126
-0.0178182
0.0255766
0.000239761
0.024745
0.00802927
0.0136242
0.00785657
0.00551394
0.00664581
0.00248748
0.00556855
0.000626702
0.0042952
-0.000593445
0.00310127
-0.00122446
0.00208029
-0.00142895
0.00125874
-0.00137809
0.000649239
-0.00118544
0.000232297
-0.000937231
-2.10591e-05
-0.000693299
-0.000147568
-0.00048424
-0.000181807
-0.000317249
-0.000154578
-0.00019378
-8.65834e-05
-9.08614e-05
0.0810393
0.0178995
0.0296448
-0.0122941
-0.00931879
-0.0283128
-0.0416467
-0.0348847
-0.060221
-0.0305763
-0.0629761
-0.01674
-0.0522808
0.00145656
-0.0307444
0.0233388
-0.00585727
0.0316736
0.00950289
0.0232713
0.0119963
0.00948453
0.00924632
0.00291343
0.0073769
0.000679135
0.0057468
-0.000824901
0.00414505
-0.00163723
0.00278144
-0.00192561
0.00168728
-0.00185749
0.000867131
-0.00159599
0.00030464
-0.00125779
-4.17827e-05
-0.000916508
-0.000218592
-0.000622276
-0.000275154
-0.000390894
-0.000252918
-0.00021891
-0.000185156
-9.52083e-05
-9.35469e-05
2.68428e-06
0.0773402
0.0151381
0.0515375
-0.00399316
0.000441427
-0.0220543
-0.0373795
-0.0325801
-0.0626282
-0.0324775
-0.0713566
-0.0221957
-0.0641408
-0.00487995
-0.0453061
0.0160182
-0.0160486
0.0335301
0.00755426
0.0336223
0.017054
0.0182136
0.013861
0.0048698
0.00984954
0.000440793
0.00757811
-0.00115217
0.00552521
-0.00220506
0.00371544
-0.00257123
0.00225782
-0.00249615
0.001163
-0.00215336
0.000400957
-0.0016923
-7.0731e-05
-0.00122884
-0.00031588
-0.000819222
-0.000399372
-0.000498058
-0.000379886
-0.000263927
-0.000301868
-0.000102199
-0.000199576
1.082e-05
-9.23867e-05
9.50698e-05
0.0715219
0.0137667
0.0634737
0.0032019
0.0110193
-0.014571
-0.0311899
-0.028244
-0.062385
-0.0328232
-0.077612
-0.0262221
-0.0750529
-0.0112836
-0.0584251
0.00823906
-0.0298293
0.0297989
0.00117906
0.0399053
0.0204755
0.0302007
0.0210889
0.0109858
0.0140157
0.000703685
0.0098755
-0.0018566
0.00728955
-0.00291652
0.00494619
-0.00343581
0.00302609
-0.0033395
0.00156148
-0.00289462
0.000536547
-0.00228895
-0.000108964
-0.00165407
-0.000447654
-0.00109706
-0.000567299
-0.000651296
-0.000547673
-0.000330273
-0.000451533
-0.000114263
-0.000324469
2.26928e-05
-0.000196552
0.000114984
-8.31081e-05
0.000178177
0.065976
0.0099773
0.0701736
0.00706672
0.0194824
-0.00526118
-0.0239237
-0.0218372
-0.0602771
-0.0303519
-0.0819808
-0.0284545
-0.0845338
-0.0167412
-0.0706136
0.000904955
-0.0436681
0.0220778
-0.00893117
0.0399091
0.0197054
0.0406755
0.0292174
0.0220722
0.0214351
0.00356638
0.0132519
-0.00267268
0.00943705
-0.00400411
0.00655291
-0.00452323
0.00404209
-0.00445182
0.00211163
-0.00388965
0.000726581
-0.00308466
-0.000153327
-0.00224459
-0.000624038
-0.00147769
-0.000794865
-0.000869499
-0.000773793
-0.000425177
-0.000648586
-0.00013322
-0.000483711
4.49777e-05
-0.000318593
0.000144733
-0.000176118
0.000207992
-6.67677e-05
0.000244943
0.0617455
0.00569946
0.0719603
0.00819057
0.0279762
-0.00142707
-0.0179009
-0.0112839
-0.0572186
-0.0248957
-0.0846348
-0.0276979
-0.0927785
-0.0202098
-0.0824704
-0.00488441
-0.0567885
0.0140254
-0.0215351
0.0346818
0.0139161
0.0456985
0.0350035
0.0348893
0.0320782
0.011429
0.0193737
-0.00255551
0.0121932
-0.00542882
0.00853363
-0.00598483
0.00540366
-0.00588481
0.00285361
-0.0051938
0.00100792
-0.00417099
-0.000200386
-0.0030376
-0.000856293
-0.00201234
-0.00110179
-0.00117076
-0.00108103
-0.000562258
-0.000913897
-0.000159867
-0.00069267
7.57372e-05
-0.000473147
0.000199531
-0.000284308
0.000252922
-0.000140598
0.000281821
-4.49091e-05
0.000289851
0.0595127
0.000898795
0.0702423
0.00741752
0.0348986
0.00126819
-0.0120165
-0.00731147
-0.0532131
-0.0152894
-0.085328
-0.0242025
-0.0995916
-0.0208848
-0.093628
-0.00905226
-0.0695202
0.00784728
-0.0344377
0.026928
0.00440839
0.0441895
0.0359803
0.0447217
0.0435581
0.0234094
0.0296971
0.00110567
0.0166298
-0.00699207
0.0109613
-0.00785647
0.00714171
-0.00772287
0.00388731
-0.00691851
0.00141298
-0.00559886
-0.000232691
-0.00413869
-0.00115591
-0.00273798
-0.00151484
-0.00159929
-0.00149836
-0.000753438
-0.00127529
-0.000200871
-0.000973673
0.000121136
-0.000675005
0.000277594
-0.000419961
0.000335183
-0.000225457
0.00033778
-9.33732e-05
0.000330284
-1.96434e-05
0.000309493
0.0590498
-0.00260969
0.0670351
0.00410596
0.0393968
0.00291927
-0.00718468
-0.00356369
-0.0481534
-0.0123711
-0.0836157
-0.0170017
-0.103241
-0.0205533
-0.102546
-0.0119667
-0.0816393
0.00306678
-0.0462889
0.0196985
-0.00655906
0.0378954
0.0317209
0.048449
0.0524321
0.0358477
0.0437726
0.00933395
0.0246521
-0.00691666
0.0141976
-0.0102283
0.00935238
-0.0100671
0.00528281
-0.00911837
0.00202999
-0.00753553
-0.000229793
-0.00560175
-0.00153177
-0.00376283
-0.0020636
-0.00218922
-0.00206731
-0.00103035
-0.00176916
-0.00025956
-0.00135691
0.000182366
-0.000945657
0.000391787
-0.000595746
0.000453378
-0.000330026
0.00043975
-0.000147656
0.000392061
-3.90265e-05
0.000349666
6.65939e-06
0.000302832
0.0592656
-0.00598088
0.0633296
0.00109581
0.0400307
0.00347205
-0.00386431
-0.0004011
-0.0425136
-0.00920354
-0.0814387
-0.0145481
-0.103344
-0.0168982
-0.108446
-0.0146533
-0.0923369
-0.00126906
-0.0572366
0.0140144
-0.0168429
0.0299824
0.0239354
0.0456809
0.0560382
0.0448429
0.0588885
0.0207318
0.0375333
-0.00354729
0.0196691
-0.0123882
0.012034
-0.0129099
0.00718112
-0.0119654
0.00295521
-0.0100436
-0.000127923
-0.0076374
-0.00198433
-0.0051492
-0.00278846
-0.00303797
-0.00283729
-0.00141924
-0.00244881
-0.0003507
-0.00188292
0.000266445
-0.00131444
0.000551146
-0.000829907
0.000625947
-0.000463536
0.000586887
-0.000211978
0.000504071
-5.8498e-05
0.000411531
1.73156e-05
0.000339008
3.15401e-05
0.00027129
0.0613543
-0.00803177
0.0589662
-0.00161748
0.0376337
0.00349283
-0.00278122
0.00238896
-0.0367077
-0.006207
-0.0791475
-0.0114947
-0.102934
-0.0149586
-0.110879
-0.0144652
-0.101103
-0.00588751
-0.0676988
0.00919313
-0.0253771
0.0225486
0.0150766
0.0388412
0.0541296
0.0475894
0.0713939
0.0323374
0.0545762
0.00368897
0.0291551
-0.0130333
0.0158953
-0.0162496
0.0096062
-0.015335
0.00433562
-0.0133459
0.000157393
-0.0103289
-0.00249431
-0.00712742
-0.00372245
-0.00421521
-0.00388152
-0.00199373
-0.00338192
-0.000486141
-0.00261134
0.000377726
-0.00182142
0.000773424
-0.00114757
0.000868811
-0.000638905
0.000801316
-0.000291199
0.000666107
-7.74549e-05
0.000523027
3.35369e-05
0.000395309
7.03641e-05
0.000300182
5.28434e-05
0.000218445
0.0605333
-0.00961215
0.0541045
-0.00317007
0.0328607
0.00315548
-0.00300575
0.00371736
-0.0311507
-0.00316796
-0.0770609
-0.00829357
-0.102571
-0.0118575
-0.112736
-0.0131012
-0.106408
-0.00916018
-0.0790912
0.00550491
-0.0327226
0.0165387
0.0070623
0.0305629
0.0483551
0.0446157
0.0785976
0.0403857
0.0732953
0.0136183
0.0436971
-0.0108531
0.0222532
-0.0193912
0.01286
-0.0195034
0.00638242
-0.0173818
0.000759659
-0.0139481
-0.00304027
-0.00978295
-0.00491254
-0.00593732
-0.00527499
-0.00282174
-0.00467057
-0.000705079
-0.00362196
0.000524475
-0.00252553
0.00108184
-0.00158325
0.0012091
-0.000874188
0.00110409
-0.000391457
0.000901572
-9.5959e-05
0.00068461
6.05959e-05
0.000495967
0.00011977
0.000345901
0.000115491
0.000237533
6.8687e-05
0.000149756
0.0597349
-0.0108887
0.0482378
-0.00374538
0.0266632
0.00302749
-0.00456352
0.00471324
-0.0270603
-0.000373082
-0.0751578
-0.00507105
-0.102351
-0.00851393
-0.114024
-0.0105703
-0.110606
-0.00890283
-0.0870457
-0.00120572
-0.0403731
0.0131554
0.000567859
0.0230331
0.0410484
0.0378695
0.0799937
0.0432196
0.0898546
0.0238264
0.0630353
-0.00571988
0.0325668
-0.0211667
0.017666
-0.0241971
0.00941754
-0.0225385
0.00206792
-0.0186901
-0.00350094
-0.0134875
-0.00643478
-0.00826071
-0.00715563
-0.00405668
-0.00643748
-0.00105483
-0.00503508
0.00070804
-0.00350827
0.00150721
-0.00218757
0.00168615
-0.00119382
0.00152873
-0.000521753
0.00123439
-0.000112773
0.000918385
0.000103098
0.000642106
0.000189065
0.000426671
0.000192665
0.000268727
0.000148682
0.000157536
7.78965e-05
7.18584e-05
0.0572613
-0.0138914
0.0404963
-0.00314726
0.0194014
0.00351636
-0.0069373
0.00540127
-0.024517
0.00216995
-0.0738063
-0.00172462
-0.102424
-0.00499814
-0.11505
-0.00748812
-0.113562
-0.00761417
-0.0934017
-0.00254678
-0.048108
0.00652909
-0.00275489
0.0164782
0.0329466
0.031135
0.0780686
0.0397946
0.10164
0.0314343
0.0844519
0.00240978
0.0476431
-0.0207961
0.0248822
-0.0283829
0.013852
-0.0286316
0.00462797
-0.0250985
-0.00337736
-0.0188137
-0.00821185
-0.0117104
-0.0097073
-0.00570904
-0.00891464
-0.00157953
-0.0070129
0.000922992
-0.00489207
0.00209184
-0.00303169
0.00235133
-0.00163363
0.00212597
-0.000693314
0.00170029
-0.000127082
0.0012487
0.000169325
0.000852157
0.000286903
0.000544266
0.000296687
0.000322647
0.000245747
0.000171659
0.000167489
6.7942e-05
7.98083e-05
-7.95183e-06
0.0516498
-0.00452038
0.027159
-0.000554006
0.0117343
0.00451991
-0.00912622
0.00570528
-0.0238658
0.00475008
-0.0735957
0.00195933
-0.103087
-0.0010608
-0.11636
-0.00368804
-0.115895
-0.00515487
-0.09839
-0.00262585
-0.0559005
0.00524577
-0.00487144
0.00864564
0.0245059
0.0249188
0.0749785
0.0342251
0.10815
0.0332841
0.105131
0.0107551
0.0673421
-0.0172893
0.0350115
-0.0309254
0.019757
-0.0342879
0.00864376
-0.0326474
-0.0019899
-0.026486
-0.00972978
-0.0172957
-0.0129509
-0.00846678
-0.0123989
-0.00222478
-0.00984828
0.00125585
-0.00685358
0.00288451
-0.00422259
0.00328274
-0.00224367
0.00296137
-0.000922815
0.00235547
-0.000135741
0.00170894
0.000269404
0.00114862
0.000427469
0.000711591
0.000439299
0.000401653
0.000373935
0.000194457
0.000275171
6.39763e-05
0.000170613
-2.28642e-05
7.44442e-05
-8.23976e-05
0.0412317
0.00409277
0.0161434
0.00649518
0.00206309
0.00911718
-0.01063
0.00602364
-0.0258221
0.00766158
-0.0748214
0.00597576
-0.104337
0.00320933
-0.118044
0.000623667
-0.117904
-0.00167936
-0.101884
-0.00166087
-0.0622793
0.00375294
-0.00687633
0.00725065
0.0173972
0.0157544
0.0725833
0.027314
0.111707
0.0306685
0.12061
0.0178055
0.0896064
-0.0115092
0.0487273
-0.031005
0.0267726
-0.037941
0.0135426
-0.0391867
0.000428499
-0.0350658
-0.0104891
-0.0257267
-0.0164704
-0.0137762
-0.0170469
-0.00381876
-0.0139273
0.00185422
-0.00968091
0.00408318
-0.00591961
0.00458153
-0.00309991
0.00413898
-0.00123175
0.0032703
-0.000134909
0.00235463
0.000419888
0.00155846
0.000628632
0.000947452
0.000638881
0.000512008
0.000546883
0.000228705
0.000415353
5.42732e-05
0.000278964
-4.43763e-05
0.000158262
-0.000106684
6.22841e-05
-0.000144684
0.0292231
0.0117124
0.00779391
0.0124423
-0.00352644
0.0120847
-0.0122865
0.0107737
-0.0311454
0.0113469
-0.0776366
0.0104768
-0.106312
0.00795022
-0.12015
0.0053154
-0.119734
0.00245308
-0.103921
0.00035733
-0.0669754
0.00303523
-0.00963191
0.00650852
0.012466
0.0121819
0.0689706
0.0193672
0.11309
0.0259307
0.1318
0.0194786
0.110771
-0.00335954
0.0655547
-0.0283366
0.0348958
-0.0391282
0.0184181
-0.0428165
0.00283803
-0.0415962
-0.0113844
-0.0341705
-0.0203477
-0.0218494
-0.0228153
-0.00800784
-0.0196535
0.00190744
-0.013762
0.00593534
-0.00834493
0.00650849
-0.00431603
0.00579765
-0.00165372
0.00456095
-0.000115154
0.00325055
0.000643346
0.00213117
0.000917645
0.00126945
0.000918815
0.000667517
0.000785157
0.000273732
0.000602342
4.1715e-05
0.000418328
-8.5093e-05
0.000257608
-0.000143723
0.00013163
-0.000176032
4.45998e-05
-0.000189285
0.0169969
0.0206287
-0.000672312
0.0201786
-0.0104652
0.019381
-0.0205199
0.0203182
-0.0435306
0.0231589
-0.0818768
0.0155871
-0.108968
0.0131331
-0.122251
0.0100511
-0.120974
0.00655573
-0.104274
0.00280629
-0.0689727
0.00235465
-0.0122821
0.00568538
0.010329
0.00864552
0.0669284
0.0142241
0.110507
0.0219509
0.138582
0.0191482
0.12819
0.0020598
0.0851467
-0.0229515
0.0445872
-0.0380281
0.0230383
-0.0437484
0.00463774
-0.0446163
-0.0134551
-0.0395255
-0.0257436
-0.0287747
-0.0305294
-0.0141352
-0.0275838
-7.7533e-05
-0.0197257
0.00787108
-0.0118106
0.00940099
-0.00601438
0.00820684
-0.00223715
0.00638108
-6.39664e-05
0.00450976
0.000977047
0.00291685
0.00133162
0.0017172
0.0013133
0.000874955
0.00111512
0.000337549
0.000856897
1.91757e-05
0.000602481
-0.000142439
0.000383898
-0.000211385
0.000213149
-0.000225244
9.35339e-05
-0.000224968
2.2976e-05
-0.000212264
0.00345917
0.0320663
-0.0128163
0.0327727
-0.022691
0.0324044
-0.0351493
0.0340103
-0.0565657
0.0333533
-0.0869662
0.0282482
-0.111659
0.0182775
-0.123709
0.0145913
-0.120797
0.00987427
-0.102484
0.00476597
-0.0671761
0.00100964
-0.0141654
0.004238
0.0113641
0.00465029
0.0663645
0.00920939
0.108737
0.0159937
0.137733
0.0227997
0.141932
0.00540645
0.103726
-0.0165197
0.0566847
-0.0350489
0.027672
-0.0426618
0.00607356
-0.0451842
-0.0163289
-0.0417424
-0.0334593
-0.0318098
-0.0402827
-0.0190214
-0.0387666
-0.00295243
-0.0286228
0.00881959
-0.0170935
0.013154
-0.00836614
0.0117527
-0.00299693
0.00896662
4.17598e-05
0.00627535
0.00147405
0.00401275
0.00192841
0.00232006
0.00186867
0.00116183
0.00157384
0.000416237
0.00120596
-1.15113e-05
0.000850583
-0.000228928
0.000549291
-0.000307833
0.000315369
-0.000313606
0.000150243
-0.000281955
4.73555e-05
-0.000249349
-6.64629e-07
-0.000211601
-0.00705254
0.04019
-0.0240792
0.0433292
-0.0335724
0.0436541
-0.0469708
0.0442259
-0.0655364
0.0429811
-0.0897737
0.0361608
-0.110873
0.0274626
-0.122927
0.0174957
-0.117719
0.0115136
-0.0975144
0.00490447
-0.0617587
-0.000651394
-0.0149718
0.00181606
0.0152974
0.000304685
0.0667752
0.00423957
0.107503
0.0104429
0.13599
0.0177373
0.146979
0.0177528
0.120647
-0.0115141
0.0700446
-0.0298796
0.0325834
-0.0399604
0.00739684
-0.0439851
-0.0189649
-0.0425483
-0.0414335
-0.0337683
-0.0525077
-0.0195848
-0.0527571
-0.00503094
-0.0411827
0.00960745
-0.02543
0.0171561
-0.0121014
0.0168892
-0.00390719
0.012663
0.000278179
0.0087302
0.002221
0.00552841
0.00278908
0.00315208
0.00265416
0.00153457
0.00221147
0.0005242
0.00168573
-6.35399e-05
0.00118798
-0.000348914
0.000769891
-0.00044953
0.000447879
-0.000440344
0.000219836
-0.0003832
7.44279e-05
-0.00030903
-2.90855e-06
-0.000247107
-2.41701e-05
-0.000187433
-0.0122148
0.0391807
-0.027962
0.0440728
-0.0369218
0.0466786
-0.0507413
0.0474247
-0.0674278
0.0461173
-0.0868159
0.0400233
-0.105042
0.0303298
-0.115021
0.0195568
-0.110788
0.0105646
-0.0891327
0.00313194
-0.0544058
-0.00244842
-0.0138074
-0.00181578
0.0207652
-0.00365182
0.0673127
-0.000232828
0.106285
0.00545766
0.134597
0.0118354
0.148038
0.0166786
0.131989
0.00641027
0.0829587
-0.0244282
0.0385181
-0.0358143
0.00827146
-0.040835
-0.0211871
-0.0417629
-0.0485905
-0.0353912
-0.0645728
-0.0217032
-0.0657198
-0.00662204
-0.0563686
0.010155
-0.03672
0.0208975
-0.0185003
0.023555
-0.00536211
0.0183441
0.000864355
0.0120768
0.00335394
0.00759726
0.00404498
0.00427251
0.00376411
0.00204212
0.00309949
0.000646549
0.00234578
-0.000135847
0.00164708
-0.00052264
0.00106765
-0.000646678
0.000622606
-0.000624259
0.000308597
-0.000529107
0.000105611
-0.000414385
-7.76323e-06
-0.000304177
-5.28286e-05
-0.000218451
-4.54988e-05
-0.000141936
-0.0115171
0.0303462
-0.0244759
0.0356947
-0.032774
0.039925
-0.0456262
0.0415635
-0.0600585
0.0400554
-0.0760977
0.0353991
-0.0911269
0.0261083
-0.0998358
0.0151441
-0.0954668
0.00423528
-0.0786562
8.81202e-05
-0.0463699
-0.004904
-0.0102512
-0.00600462
0.0259143
-0.00696484
0.0678058
-0.00414492
0.105255
0.000797565
0.133267
0.00678801
0.147613
0.0122597
0.139347
0.00932036
0.0950405
-0.00567155
0.0443492
-0.0302594
0.00945893
-0.0370017
-0.0230213
-0.0390008
-0.0551794
-0.035174
-0.07567
-0.0242941
-0.0791036
-0.00831936
-0.0707591
0.0077684
-0.0498408
0.0232758
-0.0276881
0.0300853
-0.00852562
0.0267185
0.00194153
0.0172669
0.0051956
0.0102352
0.00586317
0.00577907
0.00534976
0.00268687
0.00433312
0.000808489
0.00325232
-0.000259994
0.00227339
-0.000762151
0.00146907
-0.000924061
0.000856622
-0.000880695
0.00042353
-0.000739194
0.000143379
-0.000566877
-1.7564e-05
-0.000404586
-8.91055e-05
-0.000267902
-9.81571e-05
-0.000165795
-6.28778e-05
-7.90607e-05
-0.00783064
0.0173528
-0.0168388
0.0227091
-0.0240255
0.0269461
-0.0346357
0.0289345
-0.0461818
0.0276869
-0.0589427
0.0229003
-0.0711353
0.0154075
-0.0794398
0.00571234
-0.0773884
-0.00293438
-0.0639205
-0.0105004
-0.0383142
-0.00796761
-0.00548123
-0.009674
0.02998
-0.0100703
0.0688472
-0.00800618
0.104769
-0.00365919
0.132258
0.00180651
0.146904
0.00749716
0.141915
0.00969253
0.106427
-0.00206598
0.0519761
-0.0132985
0.0103353
-0.0311357
-0.0239776
-0.0360454
-0.060182
-0.0339981
-0.0866999
-0.0241441
-0.0941432
-0.00925456
-0.0848331
0.00575472
-0.0656107
0.0235384
-0.038762
0.0343497
-0.0142602
0.0358198
0.0028359
0.0258241
0.00835532
0.0141072
0.00856016
0.00753818
0.00758862
0.00354021
0.00605862
0.00096137
0.00449411
-0.000433301
0.00312278
-0.00110939
0.00201304
-0.00130612
0.00116915
-0.00123659
0.000575696
-0.00103286
0.00018938
-0.000785196
-3.38753e-05
-0.000550568
-0.000138954
-0.000354739
-0.000162672
-0.000203389
-0.000135095
-9.35801e-05
-7.4795e-05
-4.2677e-06
-0.00465092
0.00755485
-0.0100052
0.0105191
-0.0151273
0.0138109
-0.0228834
0.0151938
-0.0311717
0.0139243
-0.040817
0.00956122
-0.0506836
0.00244859
-0.0580858
-0.00594661
-0.0589335
-0.0127425
-0.0495288
-0.0173261
-0.0295538
-0.0192608
-0.000426487
-0.0130223
0.0334688
-0.0131627
0.0706277
-0.0118508
0.105042
-0.00827918
0.131775
-0.00317654
0.146227
0.00248363
0.143105
0.00630712
0.11476
0.001359
0.0602131
-0.0103029
0.0143475
-0.0173107
-0.0253333
-0.02978
-0.0638914
-0.0323361
-0.0954446
-0.0252534
-0.108664
-0.00962323
-0.101564
0.00747655
-0.0819846
0.0221286
-0.051588
0.0363644
-0.0222114
0.0423009
0.00217368
0.0364821
0.012983
0.0211965
0.0129102
0.00975713
0.0107348
0.00439196
0.00844793
0.0011509
0.00619425
-0.000738767
0.00427406
-0.00158459
0.00274261
-0.00183895
0.00159038
-0.00172734
0.000776259
-0.00143716
0.000247854
-0.00109134
-6.05118e-05
-0.000758561
-0.000207888
-0.000481635
-0.000248243
-0.000269171
-0.000222279
-0.000116207
-0.000160288
-8.08912e-06
-8.04309e-05
7.61605e-05
-0.00303612
0.00318185
-0.00611578
0.00366546
-0.00927281
0.00466465
-0.014023
0.0049505
-0.0194441
0.00346626
-0.0261582
-0.000734447
-0.0339197
-0.00720266
-0.041141
-0.0144962
-0.0437648
-0.0211154
-0.0377585
-0.0245128
-0.0216536
-0.0252263
0.00383394
-0.0235212
0.0368982
-0.0164518
0.0729299
-0.0154649
0.10615
-0.0129589
0.13153
-0.00803439
0.145359
-0.00230807
0.143115
0.00247353
0.119152
0.00191506
0.0692733
-0.0077012
0.0177496
-0.013705
-0.022035
-0.020609
-0.0681564
-0.025515
-0.10401
-0.0237711
-0.121529
-0.0123884
-0.116806
0.00561811
-0.0961693
0.0216612
-0.0657505
0.0362911
-0.0310913
0.0452443
-0.000806263
0.0452808
0.0177179
0.0317472
0.0199371
0.0141696
0.0153836
0.00510839
0.0116973
0.0011426
0.00850773
-0.00116259
0.0058185
-0.00228321
0.00372475
-0.00256674
0.00215007
-0.00239864
0.00104499
-0.00199608
0.000321418
-0.00151072
-0.000100503
-0.00105135
-0.000304924
-0.000661527
-0.000363911
-0.000365968
-0.000336196
-0.000155255
-0.000262474
-1.40232e-05
-0.000171858
8.33355e-05
-7.94369e-05
0.000155595
-0.00216267
0.00204697
-0.00435879
0.00142486
-0.00627078
0.000663432
-0.00896779
-0.000390549
-0.0122569
-0.00223665
-0.016577
-0.00611497
-0.0221653
-0.0124889
-0.0285013
-0.0198424
-0.0325802
-0.0256808
-0.0292859
-0.029588
-0.0158264
-0.0303399
0.00781068
-0.029203
0.0383821
-0.0250052
0.0752027
-0.0187246
0.107957
-0.0172714
0.131338
-0.0127665
0.14406
-0.00673626
0.14216
-0.00135321
0.120839
0.000787142
0.0756752
-0.00448688
0.0197707
-0.00972235
-0.0192203
-0.0165198
-0.0653895
-0.0233759
-0.112149
-0.0173756
-0.134114
-0.0111866
-0.134191
0.00499671
-0.110482
0.0199307
-0.0778139
0.0337246
-0.040322
0.0455218
-0.00570419
0.0501422
0.0206264
0.0423723
0.0291081
0.0225761
0.0230273
0.00652596
0.0160774
0.000728326
0.0115887
-0.00193835
0.00788917
-0.00323326
0.00502008
-0.00357853
0.00290093
-0.00331761
0.00139897
-0.00275262
0.000418048
-0.00209271
-0.000160019
-0.00145121
-0.000440366
-0.000915909
-0.000523251
-0.000502188
-0.000488666
-0.000213501
-0.000394651
-2.308e-05
-0.000280232
9.43481e-05
-0.000169021
0.000172918
-7.19235e-05
0.000227516
-0.00158663
0.00174198
-0.00332769
0.00101587
-0.00467136
-0.000174557
-0.00646874
-0.00183562
-0.00851535
-0.00413214
-0.0111751
-0.00763852
-0.0147017
-0.0135786
-0.0195953
-0.0213948
-0.023839
-0.0285835
-0.0223425
-0.0326242
-0.0110901
-0.0343243
0.0105903
-0.0331196
0.0401805
-0.0310014
0.0734787
-0.0232812
0.109485
-0.0202528
0.130953
-0.0168867
0.141789
-0.0104949
0.139918
-0.00449461
0.120167
-0.00068129
0.0780839
-0.00162153
0.0203352
-0.00505138
-0.0162573
-0.0126853
-0.062948
-0.0189612
-0.109741
-0.0257835
-0.144984
-0.0065048
-0.153992
0.00861481
-0.125468
0.0199826
-0.090322
0.0324388
-0.0503818
0.0437843
-0.0116469
0.0514646
0.0209843
0.0497843
0.0381413
0.0333391
0.0344213
0.0111821
0.0228685
-0.000265181
0.0155108
-0.00319381
0.0105916
-0.00464079
0.00673849
-0.00495167
0.00388107
-0.00455867
0.00187381
-0.00379245
0.000542078
-0.00287665
-0.000243889
-0.00200884
-0.000629046
-0.00126253
-0.000743306
-0.000695855
-0.000696815
-0.000294041
-0.00057035
-3.78035e-05
-0.000419096
0.000115782
-0.000274326
0.000199651
-0.000152092
0.000253084
-5.8844e-05
0.000286358
-0.0011402
0.00137095
-0.00250367
0.000917961
-0.00360909
-4.64067e-05
-0.00498361
-0.00165968
-0.00644721
-0.00390376
-0.00817075
-0.00713653
-0.0102154
-0.0121248
-0.0131339
-0.02004
-0.0166431
-0.0285908
-0.0164124
-0.0345136
-0.00698684
-0.0367275
0.0127233
-0.0364573
0.0404204
-0.0333595
0.0716738
-0.0291965
0.104614
-0.01841
0.13071
-0.0200098
0.138193
-0.0132904
0.135925
-0.00650166
0.117105
-0.00143269
0.0767595
0.000643085
0.0190076
-0.000293877
-0.012712
-0.00859665
-0.0613077
-0.0143257
-0.106821
-0.0218814
-0.143403
-0.0273645
-0.157057
-0.00344001
-0.133556
0.0167034
-0.101364
0.0310244
-0.059689
0.0417461
-0.018008
0.0501454
0.0194212
0.0530277
0.0451091
0.0428165
0.0482315
0.0195288
0.0336894
0.000361173
0.0208767
-0.00563107
0.0139916
-0.00659383
0.00893541
-0.0068377
0.00517574
-0.00624634
0.00249299
-0.00517785
0.000709809
-0.00396018
-0.000361472
-0.00275907
-0.000889045
-0.00174884
-0.00104681
-0.000959026
-0.000983195
-0.000409477
-0.00080884
-5.55522e-05
-0.00060245
0.000145548
-0.000407758
0.000249212
-0.000245344
0.000292901
-0.000123256
0.000317493
-4.15101e-05
0.000327864
-0.000803616
0.000977126
-0.00183084
0.000698114
-0.00270288
1.17574e-05
-0.0038139
-0.00121612
-0.00494627
-0.00316062
-0.00614983
-0.00592468
-0.00738368
-0.00996821
-0.00872554
-0.0165332
-0.010551
-0.0261321
-0.0109399
-0.0340633
-0.00380134
-0.0376991
0.0138123
-0.0378164
0.0392346
-0.0352715