/*--------------------------------*- C++ -*----------------------------------*\
| =========                 |                                                 |
| \\      /  F ield         | OpenFOAM: The Open Source CFD Toolbox           |
|  \\    /   O peration     | Version:  2506                                  |
|   \\  /    A nd           | Website:  www.openfoam.com                      |
|    \\/     M anipulation  |                                                 |
\*---------------------------------------------------------------------------*/
FoamFile
{
    version     2.0;
    format      ascii;
    arch        "LSB;label=32;scalar=64";
    class       volScalarField;
    location    "199.976811410189782";
    object      mag(vorticity);
}
// * * * * * * * * * * * * * * * * * * * * * * * * * * * * * * * * * * * * * //

dimensions      [0 0 -1 0 0 0 0];

internalField   nonuniform List<scalar> 
9700
(
7.49124e-06
4.69833e-05
2.50618e-05
5.97669e-05
0.000103026
2.34108e-05
8.607e-05
0.000164665
6.24076e-05
1.76151e-05
8.41744e-05
0.000229125
9.32283e-05
6.17531e-05
7.27265e-06
9.78756e-06
0.000279306
0.000151998
0.000105174
1.5472e-05
1.03183e-05
0.000347125
0.000253543
0.000194862
9.91751e-05
3.85415e-05
2.43586e-06
7.9924e-06
0.00110359
0.000242501
0.000213907
0.000113968
4.70692e-05
1.45046e-05
1.65385e-06
2.54591e-06
0.00139479
0.000184589
0.000238554
0.000160993
6.10355e-05
1.70917e-05
7.10489e-06
4.06187e-05
6.14584e-06
0.00174812
8.0293e-05
0.000255209
0.000165087
5.48041e-05
9.94847e-07
1.53887e-05
1.0623e-06
1.67185e-05
1.89417e-06
0.00169976
0.000135056
0.000284611
0.000123558
2.45965e-05
2.14136e-05
1.06279e-05
1.07939e-05
1.18251e-05
1.80231e-05
2.82588e-07
0.00136804
0.000957564
0.000198515
0.000177317
6.05615e-07
1.34231e-05
6.41084e-05
4.01275e-05
1.24549e-05
1.89215e-05
8.82966e-06
8.63404e-06
0.00112743
0.00282779
0.000760415
9.09435e-05
5.49779e-05
6.43162e-05
7.78978e-05
7.3604e-05
3.38301e-05
3.79264e-06
6.29148e-05
2.41969e-05
1.96901e-05
0.00570371
0.00223691
0.002993
0.00124367
6.45265e-05
4.51351e-05
0.00012351
0.000108564
4.62408e-05
1.00586e-05
3.80167e-05
9.27229e-05
6.2054e-05
1.5229e-05
0.0126237
0.00702139
0.000495484
0.00397074
0.00168547
0.000119614
0.000114898
0.000142624
6.98818e-05
1.02217e-05
7.01385e-05
9.42892e-05
0.000156775
8.9398e-05
2.56028e-05
0.0114707
0.0215537
0.0170485
0.000374198
0.00500342
0.00188593
0.000184215
0.000122029
0.00014369
3.25188e-05
7.86274e-05
0.000132694
0.000185622
0.000192076
0.000125075
5.09212e-05
0.0211878
0.0228223
0.0407409
0.0248632
0.000642919
0.00565911
0.00183781
0.000175658
0.000149382
6.77885e-05
5.56647e-05
0.000158346
0.000219903
0.000216824
0.000238079
0.000169185
4.54113e-05
0.0965475
0.0318882
0.0309207
0.0563111
0.0313923
0.000207698
0.00593485
0.0015611
0.000140375
8.24282e-05
1.28308e-05
0.000147484
0.000231942
0.000297597
0.000294176
0.000271803
0.000179597
4.33607e-05
0.192309
0.145595
0.0495063
0.0456846
0.0722974
0.0350638
0.00137799
0.00567594
0.00111535
0.000113811
2.17762e-05
0.00012616
0.000270182
0.000372005
0.000397411
0.000371519
0.000325961
0.000213497
4.86709e-05
0.267685
0.257953
0.183228
0.0455304
0.0677219
0.0866561
0.0342565
0.00357683
0.00485763
0.000682626
4.04012e-05
0.000122674
0.000294957
0.000412196
0.000463514
0.000474961
0.00041566
0.000346865
0.000213933
5.03587e-05
0.307329
0.346249
0.323904
0.192186
0.0280926
0.0975925
0.0957973
0.0286584
0.00553451
0.00359774
0.000293805
7.49171e-05
0.000266548
0.000419751
0.000524033
0.000556957
0.000526641
0.000453066
0.000334877
0.000221598
5.3651e-05
0.313968
0.400841
0.45214
0.350734
0.181563
0.0111253
0.129149
0.096533
0.019416
0.00634862
0.00223516
5.95835e-06
0.000205324
0.000434918
0.000588005
0.000636766
0.000656907
0.000590071
0.000473475
0.000342958
0.000231908
3.21731e-05
0.278573
0.395917
0.554306
0.507797
0.354747
0.18677
0.0778325
0.153835
0.0867205
0.00903466
0.00569673
0.001048
0.000186963
0.000412929
0.000620465
0.000716831
0.000742363
0.00069703
0.00062317
0.000475299
0.000333048
0.000193331
3.76066e-05
0.183939
0.324369
0.607637
0.641626
0.540514
0.304481
0.0895021
0.140286
0.164804
0.0670242
0.000593232
0.00396263
0.000224898
0.000400493
0.000599178
0.000797602
0.00083364
0.000839541
0.000749763
0.000619766
0.000462322
0.000314632
0.000171023
4.18324e-05
0.027728
0.351515
0.596998
0.730647
0.707488
0.528301
0.256795
0.0316687
0.18937
0.156259
0.0421096
0.00391534
0.00196573
0.00021843
0.000609153
0.000797592
0.000941836
0.000934528
0.000883848
0.000739926
0.000605398
0.000439257
0.000294796
0.000156067
3.10782e-05
0.0112875
0.0814956
0.514036
0.760412
0.834898
0.725951
0.484992
0.182333
0.118666
0.219873
0.127484
0.0191757
0.00448952
0.000463792
0.000518099
0.00082817
0.000976237
0.00100582
0.000957341
0.000878207
0.000722886
0.000560513
0.000383753
0.000227985
0.000111061
2.1561e-05
0.0896522
0.231947
0.37613
0.715561
0.902915
0.885985
0.695826
0.398803
0.0424057
0.203899
0.220852
0.0857676
0.00393428
0.00289037
0.000391633
0.000746244
0.00100756
0.00108744
0.00105817
0.000993413
0.000844469
0.000663816
0.000484654
0.00031236
0.000178224
8.69267e-05
3.45403e-06
0.174106
0.510372
0.271298
0.611262
0.906522
0.990205
0.880057
0.613945
0.257747
0.0957442
0.263629
0.18677
0.0441028
0.00236816
0.00101876
0.000755935
0.000919333
0.00115545
0.00114278
0.00107279
0.000926757
0.000765268
0.000593584
0.000413192
0.000251782
0.000128139
3.34024e-05
8.45457e-07
0.214952
0.622888
0.0474276
0.467948
0.847905
1.05307
1.0166
0.812866
0.480408
0.0861178
0.220522
0.274677
0.128407
0.0144188
0.00273317
0.00017471
0.000914534
0.00108828
0.00120457
0.0011265
0.0010192
0.000845686
0.000665959
0.000480034
0.000315043
0.000164667
9.59382e-05
3.5443e-05
6.8847e-07
0.111755
0.71269
0.165651
0.316745
0.743388
1.03056
1.12221
0.981362
0.684281
0.299135
0.0914212
0.303124
0.233482
0.0675075
0.000392978
0.0011231
0.000747776
0.00101187
0.00117012
0.00119792
0.00109209
0.000942346
0.00074232
0.000552439
0.000381807
0.000228719
0.000113144
4.13111e-05
7.32165e-06
1.25833e-05
0.126262
0.783238
0.363888
0.160348
0.617373
0.962409
1.14731
1.10199
0.860024
0.501615
0.0903318
0.248487
0.319323
0.158445
0.0231935
0.00238833
0.000145319
0.000963519
0.00107658
0.00116562
0.00111557
0.000980452
0.000822905
0.000632013
0.000440272
0.000274009
0.000141497
4.66191e-05
9.04538e-06
1.12722e-06
2.4019e-05
0.247271
0.844118
0.416057
0.0183504
0.457475
0.858121
1.10423
1.16939
0.992264
0.670628
0.280137
0.122874
0.346293
0.266442
0.0813657
0.00142011
0.00100593
0.000584087
0.00104347
0.00106693
0.00105598
0.000982481
0.000826988
0.000641003
0.000478699
0.000293259
0.000161452
6.04108e-05
1.75582e-05
1.00328e-05
2.73474e-05
2.40381e-05
0.562248
0.907481
0.517514
0.117182
0.247397
0.743349
1.01997
1.13989
1.08
0.795572
0.442727
0.0374583
0.301664
0.355084
0.172733
0.0278048
0.00411027
9.97495e-05
0.000460871
0.000963996
0.000988698
0.000894953
0.000812496
0.000621841
0.000474124
0.000312194
0.000156835
5.56259e-05
6.52866e-06
2.64983e-05
4.5144e-06
2.74479e-05
3.25596e-05
0.661613
0.96109
0.574418
0.21044
0.0831135
0.618635
0.930296
1.10046
1.08606
0.878697
0.53198
0.19027
0.198288
0.399039
0.279976
0.0824235
0.00321156
0.00313377
0.000147306
2.64179e-05
0.000638923
0.000782141
0.000697368
0.000644845
0.000455299
0.000316785
0.000168331
6.31349e-05
1.81741e-05
4.2945e-05
2.45794e-05
9.32817e-06
1.70589e-05
2.14229e-05
0.74152
1.00117
0.612407
0.297756
0.0548506
0.493627
0.828612
1.03427
1.0841
0.921999
0.596855
0.308817
0.0763165
0.379185
0.384797
0.167576
0.0255649
0.00262794
0.00190761
0.00104576
0.000787046
1.03685e-05
0.000331006
0.000477446
0.00046304
0.000259975
0.000148588
4.04605e-05
2.91173e-05
8.05626e-05
6.25338e-05
3.20847e-05
1.58469e-05
1.35785e-05
8.72803e-06
0.776147
1.00184
0.63326
0.368507
0.174817
0.375497
0.729068
0.949764
1.04156
0.935938
0.624316
0.379425
0.0330053
0.32162
0.452231
0.278194
0.0735128
0.00251246
0.00250323
0.0021637
0.00160602
0.0012038
0.000920354
0.000319181
0.000178914
0.000283277
9.74247e-05
1.98386e-06
5.73636e-05
7.48372e-05
8.96695e-05
5.20554e-05
2.44371e-06
4.74594e-05
3.20733e-05
1.99382e-05
0.730784
0.872867
0.629948
0.421265
0.274709
0.276517
0.639363
0.866262
0.978409
0.920721
0.6427
0.398058
0.138486
0.249561
0.485311
0.398964
0.149005
0.0185058
0.00566509
0.00479818
0.00344837
0.000904746
0.000722197
0.00186821
0.00123301
0.000101117
0.000140801
3.44474e-05
0.000105669
0.00011001
0.000110708
6.82426e-05
9.79365e-06
2.79084e-05
7.07258e-05
8.24236e-05
1.71538e-05
0.669248
0.701771
0.576101
0.458318
0.338788
0.206436
0.564771
0.791745
0.909873
0.881757
0.64388
0.344904
0.226542
0.212314
0.474631
0.51011
0.26248
0.0479257
0.0111776
0.0195645
0.0142394
0.00583663
0.001654
0.000979494
0.00256305
0.00220853
0.000377767
1.28055e-05
0.000163549
0.000179637
0.000139162
9.14064e-05
4.35947e-05
3.62965e-05
8.40205e-05
0.000127629
9.62114e-05
3.12657e-05
0.546925
0.532468
0.488461
0.454397
0.328837
0.172273
0.511516
0.730818
0.843195
0.826158
0.616616
0.275293
0.2404
0.198541
0.497704
0.570714
0.387653
0.115023
0.013634
0.0464572
0.0526216
0.0347396
0.00998211
0.00627559
0.00444438
0.00298656
0.00310266
0.000590708
0.000130506
0.000254381
0.000194861
0.000146175
5.92824e-05
5.46827e-05
0.000126983
0.000158965
0.000198869
0.000151786
4.91189e-05
0.368498
0.363565
0.405775
0.421351
0.236035
0.176525
0.48086
0.682311
0.779685
0.756774
0.567135
0.225076
0.232585
0.210569
0.513823
0.655345
0.509746
0.204911
0.00183243
0.0761715
0.111288
0.109311
0.0674615
0.0154478
0.0129366
0.00893617
0.00353648
0.00368732
0.000657193
0.000231334
0.000290587
0.000183193
6.05099e-05
5.51312e-05
0.00013949
0.000207094
0.000236985
0.000250122
0.000166458
5.89932e-05
0.0664665
0.134992
0.143181
0.138369
0.00827198
0.227893
0.473938
0.64651
0.714138
0.671313
0.491814
0.161374
0.178733
0.248684
0.532894
0.721898
0.631245
0.334562
0.0404666
0.0954837
0.172586
0.207764
0.182533
0.106786
0.0186767
0.0216529
0.0126984
0.00448907
0.00382367
0.000607292
0.000305617
0.000259121
9.74487e-05
1.5067e-05
0.000155159
0.000250117
0.000289908
0.00031571
0.000278151
0.000202341
3.45541e-05
0.0566059
0.135449
0.113306
0.117783
0.181188
0.318227
0.467868
0.606386
0.642744
0.568241
0.391187
0.104615
0.0635539
0.313938
0.572034
0.746739
0.767636
0.454823
0.12507
0.0977656
0.220237
0.304079
0.31698
0.253303
0.139859
0.0128351
0.0323717
0.0140865
0.00586314
0.00343014
0.00051716
0.000340226
0.000206698
7.01456e-06
0.000162327
0.000283438
0.000360985
0.000407443
0.000380489
0.000308934
0.000205422
6.01371e-05
0.221887
0.293024
0.269481
0.273336
0.309179
0.376118
0.459538
0.524562
0.540923
0.446829
0.268331
0.0503461
0.0840555
0.395127
0.624149
0.778837
0.837081
0.617633
0.21901
0.0657786
0.252349
0.383716
0.445287
0.408881
0.31206
0.129818
0.00654287
0.0439677
0.0120629
0.00700105
0.00259535
0.000455032
0.000275465
7.8194e-05
0.000140039
0.000289323
0.000428352
0.000472099
0.000489305
0.000424821
0.000371866
0.000240427
4.63558e-05
0.21067
0.304758
0.296772
0.316077
0.338329
0.3681
0.413071
0.418555
0.393808
0.304529
0.135262
0.0647566
0.226113
0.481297
0.685341
0.823151
0.87585
0.749577
0.350092
0.00989063
0.254477
0.446388
0.559996
0.561871
0.443687
0.337307
0.0826605
0.0376523
0.0526377
0.006764
0.0071121
0.00164445
0.000401684
0.000146771
8.81382e-05
0.000317953
0.000475538
0.000564748
0.000604912
0.000571004
0.000471178
0.000355857
0.000205987
4.41064e-05
0.123486
0.211605
0.227907
0.259591
0.279503
0.289017
0.295594
0.299396
0.244032
0.148717
0.00847539
0.178244
0.359367
0.570748
0.754051
0.880606
0.923023
0.82893
0.485385
0.077166
0.230916
0.470977
0.655639
0.710466
0.626246
0.433261
0.230487
0.032427
0.07506
0.0531166
3.30303e-05
0.00589769
0.000902381
0.000307514
3.43455e-05
0.00029945
0.000500315
0.000631174
0.000694934
0.000701633
0.000600804
0.000496559
0.000360719
0.000211195
5.53315e-05
0.0413075
0.0992166
0.128131
0.159698
0.176413
0.18303
0.174491
0.152024
0.105898
0.0137581
0.115975
0.279297
0.468631
0.659715
0.830818
0.949321
0.982551
0.896217
0.631437
0.179732
0.174179
0.476831
0.706042
0.83293
0.802795
0.64116
0.417136
0.157967
0.0398185
0.105747
0.0429007
0.00517494
0.00389776
0.000435601
0.000120788
0.000274495
0.000507541
0.000666105
0.000771766
0.000793117
0.000738192
0.000647605
0.000499243
0.000364238
0.000196457
4.90738e-05
0.000704768
0.0353845
0.049147
0.0709319
0.0831055
0.0885974
0.0836784
0.0575463
5.49564e-05
0.0862857
0.210326
0.36792
0.554795
0.744131
0.909116
1.02241
1.05108
0.964261
0.723553
0.292406
0.100741
0.439967
0.758328
0.922718
0.941068
0.818172
0.605469
0.318226
0.0510798
0.117356
0.116295
0.0250737
0.00686238
0.00203215
0.000148481
0.000144039
0.00052106
0.000724095
0.00085766
0.00089024
0.00087031
0.000765123
0.0006354
0.00047146
0.000314577
0.000168349
2.49355e-05
0.00937489
0.00493848
0.00833304
0.0184881
0.0248943
0.0295505
0.0292383
0.0131831
0.0362312
0.129504
0.263012
0.427403
0.621152
0.823795
0.977805
1.09238
1.11928
1.03177
0.804096
0.403728
0.0188406
0.37831
0.73656
1.03685
1.08159
0.966885
0.75492
0.477938
0.174278
0.0727038
0.174304
0.101259
0.00722397
0.00536126
0.000843011
6.4232e-05
0.000430505
0.000761874
0.000911227
0.00097992
0.000997382
0.000895691
0.000781643
0.00059764
0.000443124
0.00026983
0.000127994
1.33167e-05
0.00572164
0.000424931
0.0037088
0.000469146
0.00188504
0.00240837
0.00480558
0.000984359
0.0373268
0.126086
0.265884
0.449655
0.647078
0.879171
1.0402
1.14186
1.17476
1.09361
0.871164
0.494056
0.0501738
0.307874
0.673443
1.01175
1.2202
1.1362
0.906039
0.62339
0.310861
0.0142827
0.184652
0.191793
0.0678043
0.00374009
0.00276253
0.000215373
0.000354625
0.000728133
0.000948894
0.001088
0.00110178
0.00101828
0.000904449
0.000751873
0.000554236
0.000384049
0.000208048
9.44804e-05
3.39907e-06
0.000953087
0.000868711
0.00250765
0.00238249
0.00212773
0.00261722
0.0038295
0.00245027
0.0223528
0.0963749
0.236763
0.425087
0.644546
0.854028
1.10521
1.16152
1.20493
1.12938
0.921913
0.555493
0.0715059
0.230882
0.606112
0.946393
1.18181
1.21499
1.05729
0.757533
0.439159
0.120171
0.146414
0.258098
0.165182
0.0317844
0.00625383
0.000908477
0.000208396
0.000640891
0.000983474
0.0011518
0.00118553
0.00113978
0.00101524
0.000869583
0.000667813
0.000458953
0.000296259
0.000168697
5.80398e-05
1.21918e-05
0.000903306
0.00167113
0.000375247
0.000324445
0.000779888
0.00119392
0.00231718
0.00325329
0.00715866
0.0565331
0.180492
0.368436
0.589317
0.816454
1.02238
1.21883
1.19759
1.13844
0.943066
0.592469
0.133215
0.102408
0.53753
0.894774
1.14698
1.22812
1.09627
0.867498
0.547889
0.221715
0.081075
0.279863
0.271882
0.109512
0.00644959
0.00339634
0.00011605
0.000570389
0.000937557
0.00116863
0.00124116
0.00125186
0.00112685
0.00096185
0.000761833
0.00056499
0.000385462
0.000237295
0.000111359
2.84928e-05
1.65885e-05
0.00125101
0.00137552
0.00034848
0.000578139
0.000570056
0.000387423
0.000351803
0.00149619
0.00199749
0.0203265
0.112936
0.283284
0.499717
0.728792
0.934561
1.1213
1.16389
1.12748
0.940116
0.610044
0.177316
0.0423526
0.471321
0.834429
1.13598
1.27714
1.19463
0.931416
0.633016
0.306737
0.0110342
0.267529
0.352148
0.223929
0.053778
0.00432392
0.000775914
0.000241173
0.000894494
0.00113217
0.00132196
0.00131697
0.00122352
0.00105238
0.000868769
0.000679672
0.000470512
0.000290328
0.000156079
5.95115e-05
1.32484e-05
2.07448e-05
0.00130426
0.00105346
0.000456488
0.000763262
0.000853213
0.000983892
0.000845937
0.000494114
0.000953039
0.00253478
0.0469713
0.186196
0.383682
0.605317
0.819249
0.984205
1.1093
1.02827
0.917586
0.612383
0.222322
0.108613
0.407173
0.774551
1.08069
1.28338
1.27329
1.0417
0.692923
0.367439
0.0480105
0.237996
0.402965
0.340533
0.140039
0.0175
0.00496033
0.000219445
0.00049713
0.00113254
0.00125513
0.00135526
0.00128953
0.00113813
0.00095735
0.000740489
0.000534303
0.000330575
0.000179566
8.47701e-05
8.50738e-06
4.71749e-06
1.33003e-05
0.00116438
0.000862628
0.000487507
0.000750428
0.000937305
0.00097612
0.0011112
0.000762103
0.00102637
0.000308977
0.00598827
0.0860191
0.259662
0.459504
0.666994
0.845838
0.960184
0.980771
0.845668
0.59322
0.290412
0.125566
0.34431
0.723944
1.01854
1.23134
1.26597
1.10322
0.739851
0.398139
0.0869314
0.210211
0.425797
0.44895
0.255419
0.0605418
0.00167735
0.00210075
0.000574374
0.000741915
0.00122351
0.00130131
0.00131793
0.0012064
0.00100618
0.000812216
0.000585867
0.000377037
0.000225307
8.99148e-05
1.54348e-06
2.42045e-05
1.7761e-05
2.97195e-05
0.000974089
0.000722253
0.000476095
0.000740306
0.000898749
0.00105245
0.00106861
0.00111962
0.000343153
0.00110376
0.00319784
0.0130605
0.129348
0.313294
0.496052
0.674912
0.803733
0.85204
0.773049
0.569878
0.317978
0.109509
0.301259
0.680182
0.962448
1.17432
1.24414
1.11159
0.777381
0.343395
0.108045
0.192113
0.441959
0.530313
0.389117
0.142884
0.0137421
0.00175985
0.000217224
0.000848675
0.000936645
0.00122034
0.00127325
0.00119687
0.0010807
0.000859908
0.000635815
0.000436627
0.000260371
9.27243e-05
2.45541e-05
4.65442e-05
4.30397e-05
3.9236e-05
2.55682e-05
0.000741959
0.000568236
0.000468328
0.000676597
0.000862571
0.00102363
0.00112872
0.00106913
0.000971999
0.000306007
0.000219841
0.00785213
0.0228439
0.163089
0.329143
0.46882
0.631334
0.695716
0.667913
0.531608
0.306585
0.0767466
0.28139
0.642096
0.911983
1.11397
1.19623
1.103
0.800239
0.355799
0.128077
0.188215
0.454819
0.605768
0.516089
0.256472
0.0541944
0.00150753
0.000359772
0.000588169
0.00114111
0.00106833
0.00114885
0.00114766
0.00101483
0.000874915
0.000664273
0.000460248
0.000256731
0.000106837
2.18059e-05
3.96856e-05
5.65775e-05
2.43328e-05
3.16705e-05
1.75996e-05
0.00054
0.000442286
0.000437146
0.000624567
0.00081526
0.00095541
0.0011009
0.00114101
0.00102228
0.000657274
0.000931723
0.00371101
0.0139839
0.0309743
0.200773
0.316887
0.436728
0.52672
0.529284
0.441078
0.264969
0.0269153
0.275601
0.612803
0.876575
1.03839
1.13109
1.06026
0.798717
0.360884
0.136568
0.175651
0.50079
0.654727
0.648045
0.391767
0.121342
0.0106314
0.00209075
0.000556023
0.000505236
0.00115796
0.00111671
0.001011
0.000988217
0.0008011
0.000668015
0.000439057
0.000264102
0.000123872
1.61773e-05
4.31922e-05
7.36084e-05
4.17415e-05
8.67382e-06
5.20309e-07
5.10698e-06
0.000363683
0.000324232
0.000365334
0.000554816
0.000737274
0.000876771
0.00104597
0.00111449
0.00110688
0.000906553
0.000115384
0.00107738
0.0096599
0.02202
0.0315919
0.165265
0.279922
0.348333
0.368564
0.320084
0.189998
0.0116958
0.280416
0.595976
0.851766
1.00186
1.04159
0.98986
0.768097
0.339021
0.138711
0.129483
0.51132
0.776298
0.737868
0.543556
0.222904
0.0363803
0.00108229
0.00252255
0.00168734
0.00103442
0.000446983
0.00092865
0.000872966
0.000826315
0.000569749
0.000419818
0.00024224
0.000113416
3.13655e-05
9.1889e-05
0.000102228
8.33822e-05
2.80909e-05
5.16013e-06
2.96508e-05
2.25993e-06
0.000202968
0.00026243
0.000283535
0.000449615
0.000635802
0.000806905
0.000940088
0.00105038
0.00108625
0.00101298
0.0006609
0.000696769
0.000189668
0.0180276
0.0335618
0.00699543
0.0744
0.159197
0.197296
0.17776
0.087077
0.0721937
0.286457
0.573365
0.836454
0.977966
0.971465
0.905022
0.703135
0.329675
0.0970365
0.0732057
0.514732
0.823064
0.914958
0.683895
0.345394
0.088254
0.00206024
0.00664455
0.0100703
0.00795816
0.00428708
0.00116744
0.0002499
0.000601019
0.00066166
0.000348698
0.000214175
6.39864e-05
4.00437e-05
0.000116154
0.00013674
0.000113201
5.89323e-05
2.9172e-05
5.62344e-05
3.88074e-05
8.04642e-06
7.26114e-05
0.000106564
0.000212318
0.000341416
0.00053493
0.000701082
0.000863158
0.000989553
0.00103414
0.00098308
0.000832678
0.00029045
0.00168292
0.00181086
0.027752
0.0501369
0.0362879
0.000262668
0.037538
0.0296453
0.0301004
0.149488
0.320505
0.52042
0.76572
0.941515
0.938527
0.804964
0.611919
0.311767
0.038711
0.0599585
0.519879
0.829865
1.03789
0.889586
0.496044
0.156992
0.01571
0.0169441
0.025221
0.0268672
0.0179719
0.00843719
0.00342083
0.0010463
0.000177748
0.000499747
0.000137554
8.76984e-07
9.66061e-05
0.000150981
0.000179666
0.000138796
8.02926e-05
4.96239e-06
4.877e-05
8.79048e-05
8.19742e-05
2.66547e-05
4.67303e-05
9.63279e-05
0.000275521
0.000404816
0.000587561
0.000745228
0.000867585
0.000946091
0.000950304
0.000853306
0.000652164
0.000248294
0.00269048
0.00448753
0.037117
0.070823
0.0847622
0.0817898
0.0959198
0.140693
0.229042
0.356538
0.513095
0.650304
0.781292
0.854671
0.715952
0.49601
0.248931
0.0154118
0.103093
0.544223
0.843222
1.05279
1.03438
0.608998
0.268582
0.0358505
0.0295648
0.0570136
0.066316
0.0528959
0.0297737
0.0113501
0.00525155
0.00288607
0.000357507
0.000306766
8.40601e-05
0.000153285
0.000214454
0.000230163
0.000180189
0.000120142
3.73853e-06
6.17065e-05
0.000122893
0.00015056
0.000123025
3.89672e-05
4.55001e-05
0.000142048
0.000307039
0.000446509
0.0006114
0.000733863
0.000832922
0.000876253
0.000847053
0.000691599
0.000468639
0.000922439
0.00362245
0.00665524
0.0442367
0.0915053
0.131551
0.167727
0.21635
0.285558
0.380779
0.48697
0.593595
0.63775
0.618341
0.525814
0.359749
0.161905
0.0489588
0.200809
0.578886
0.866578
1.07436
1.1255
0.846992
0.34155
0.0856479
0.0448849
0.100211
0.136638
0.132079
0.0864226
0.0399173
0.010545
0.00583031
0.00486972
0.000905495
0.000109862
0.000239575
0.000288982
0.000270874
0.00022076
0.000139084
3.90443e-05
7.31208e-05
0.000176862
0.000191588
0.000215425
0.000150916
4.92627e-05
4.84152e-05
0.00017316
0.000343199
0.000476477
0.000626672
0.000730732
0.000785134
0.000783589
0.000711697
0.000532957
0.000244212
0.00165363
0.00452029
0.00713708
0.0469757
0.105149
0.166905
0.22936
0.29568
0.367934
0.443192
0.499311
0.528069
0.494435
0.36854
0.234468
0.0785078
0.1107
0.285557
0.61097
0.893119
1.11357
1.1748
1.01013
0.494198
0.130823
0.0465641
0.151172
0.22352
0.253153
0.215789
0.125237
0.0444614
0.00491227
0.0055131
0.00654736
0.00118233
0.000109462
0.000411877
0.000339343
0.000283652
0.000171463
6.66409e-05
6.71792e-05
0.000179042
0.000265618
0.000284713
0.00028058
0.000177906
4.86329e-05
5.68189e-05
0.000198144
0.000350999
0.000478713
0.000608474
0.00068237
0.000722291
0.000667294
0.000534013
0.00036853
1.90917e-05
0.00231355
0.00540123
0.00530402
0.0433116
0.104567
0.175992
0.244818
0.309873
0.362112
0.396096
0.394992
0.355262
0.285248
0.149015
0.00607541
0.167521
0.384402
0.651463
0.927619
1.15313
1.24576
1.09839
0.685597
0.207344
0.0392635
0.191411
0.319411
0.389272
0.383893
0.323842
0.149371
0.0396794
0.00444225
0.00553907
0.00742409
0.0012013
0.000331888
0.000480633
0.00037409
0.000239891
9.34667e-05
5.7943e-05
0.000195584
0.00031627
0.000372347
0.000366528
0.000299519
0.000218967
5.42777e-05
5.14878e-05
0.000211847
0.000351022
0.000462184
0.00057343
0.00061895
0.000604127
0.000520567
0.00038595
0.000211917
0.000158536
0.00270496
0.00612725
0.00153682
0.0328713
0.087062
0.152283
0.209612
0.255869
0.276908
0.269325
0.234642
0.169822
0.0914536
0.0440472
0.218888
0.444729
0.701476
0.969027
1.19958
1.30292
1.19687
0.83186
0.327924
0.00132399
0.225743
0.399088
0.53292
0.559059
0.487315
0.35592
0.151487
0.0218675
0.0146559
0.00693092
0.00721531
0.0010346
0.00052223
0.000503804
0.000317908
0.000122059
5.49568e-05
0.00023142
0.00037089
0.000431824
0.000453579
0.000429321
0.000363483
0.000215162
5.32902e-05
6.26567e-05
0.000226135
0.000364235
0.000447882
0.000497377
0.000528502
0.000478017
0.000375709
0.000206901
8.18962e-05
0.000298539
0.00274725
0.00645469
0.00275544
0.0184939
0.0574637
0.104963
0.141197
0.162097
0.159244
0.133069
0.096569
0.0333222
0.0668678
0.248344
0.494719
0.755845
1.00645
1.24267
1.35446
1.27579
0.958915
0.46497
0.0615333
0.210073
0.482225
0.659872
0.741373
0.678033
0.526833
0.310935
0.126111
0.00817647
0.0214888
0.00945971
0.00583271
0.000900625
0.000587435
0.000435181
0.000176056
2.67786e-05
0.00023557
0.000392683
0.00049649
0.0005533
0.000563772
0.000484725
0.000373814
0.000245271
4.64192e-05
6.25439e-05
0.000206015
0.000324967
0.000390548
0.000430404
0.000414659
0.000344206
0.000228788
7.33413e-05
2.95563e-05
0.000369729
0.00244061
0.00597624
0.00576854
0.00525892
0.0267719
0.0536466
0.0713177
0.0749255
0.0630758
0.0425091
0.0101922
0.0734324
0.236376
0.50561
0.814786
1.03866
1.25866
1.39827
1.3319
1.05591
0.590372
0.139599
0.166949
0.48771
0.80477
0.921981
0.891284
0.754685
0.526734
0.275775
0.0690516
0.0425541
0.0213374
0.0116003
0.00380024
0.000866723
0.000546369
0.000300077
2.58575e-06
0.000220052
0.000432491
0.000577646
0.000653983
0.000663866
0.000617196
0.000517427
0.000374577
0.000245532
5.01365e-05
3.88452e-05
0.000191829
0.000311832
0.000340753
0.000369455
0.000311651
0.000231007
0.000110909
5.41102e-05
0.000140526
0.00033928
0.0018501
0.00471338
0.00641795
0.00265844
0.00544163
0.0158984
0.023768
0.021836
0.0143168
0.00165847
0.0586181
0.208404
0.455639
0.815377
1.09035
1.24554
1.40911
1.35809
1.122
0.692743
0.209157
0.119397
0.44299
0.824185
1.11465
1.11913
0.948447
0.736698
0.438208
0.184731
0.00955138
0.0678845
0.0137363
0.0116012
0.00198609
0.000851428
0.000410488
7.35117e-05
0.000223442
0.000457887
0.000637687
0.000767323
0.000788051
0.000745613
0.00066024
0.000506325
0.000377956
0.000217142
3.00043e-05
4.32553e-05
0.000178239
0.000262435
0.00029746
0.000275205
0.000222847
0.000111151
1.6072e-05
0.000132868
0.000194808
0.000315668
0.00122522
0.00304489
0.004967
0.00457266
0.00323293
0.00217347
0.0033483
0.00143856
0.00260394
0.0382806
0.160016
0.398248
0.709206
1.11334
1.22961
1.34762
1.36934
1.15387
0.75625
0.269083
0.0694766
0.39609
0.766669
1.11737
1.28501
1.18232
0.893175
0.594714
0.296904
0.0598262
0.0873887
0.0721916
0.0021562
0.00877585
0.000979605
0.000685038
0.000203295
0.000177095
0.00045669
0.000683497
0.000838724
0.000901775
0.000887627
0.000820035
0.000680944
0.000512383
0.000337302
0.000180687
1.73157e-05
3.33168e-05
0.000160266
0.00020589
0.000226854
0.000181997
8.90721e-05
1.28896e-05
8.62286e-05
0.000213289
0.000248181
0.000271213
0.000673184
0.00149592
0.00274707
0.00306949
0.00328987
0.00504207
0.00119313
0.00277356
0.0171016
0.106418
0.312094
0.616786
0.948536
1.27734
1.25214
1.32059
1.14464
0.777137
0.28034
0.0191711
0.328526
0.721617
1.06376
1.27097
1.26227
1.07457
0.731192
0.405009
0.128734
0.0679315
0.14109
0.0560578
0.00835786
0.00444242
0.000726151
0.000399493
7.36339e-05
0.000449456
0.000729327
0.000884715
0.000984084
0.00101191
0.000954076
0.000822432
0.000657441
0.000470803
0.000293685
0.00015479
1.17078e-05
2.9463e-05
0.000131134
0.000141721
0.000128047
9.76157e-05
2.32126e-05
4.5423e-05
0.000144158
0.000204861
0.000219276
0.000179977
0.000295648
0.000461251
0.000989108
0.00112674
0.000856799
0.0031268
0.000966184
0.00653164
0.0537251
0.219313
0.492271
0.811045
1.11911
1.23363
1.21241
1.09617
0.762646
0.281499
0.00709237
0.248563
0.683278
1.06001
1.29533
1.30972
1.13179
0.852196
0.502589
0.192793
0.0451197
0.17333
0.153885
0.03298
0.0118848
0.00191437
0.000624411
3.7694e-05
0.00041884
0.000748518
0.000974321
0.001083
0.00111275
0.00106673
0.000945569
0.000787387
0.000597511
0.000423891
0.000239941
0.000131686
1.88609e-06
3.56725e-05
8.07537e-05
0.000107805
0.00010075
4.94808e-05
4.27282e-05
8.8726e-05
0.00012678
0.000152752
0.000146683
8.05416e-05
7.98598e-05
0.000130047
3.39021e-06
2.90567e-05
0.000672797
0.00092488
0.00269618
0.020895
0.124026
0.359984
0.657462
0.934501
1.16366
1.08288
1.01653
0.723346
0.293284
0.0583758
0.163882
0.655451
1.03786
1.36077
1.45712
1.26919
0.927236
0.576867
0.245621
0.0268253
0.201892
0.232274
0.122926
0.0130622
0.00830149
0.000861381
0.000317105
0.000328247
0.000737841
0.00102157
0.00118604
0.0012267
0.001175
0.00110365
0.000934647
0.000726647
0.000539271
0.000354993
0.000164313
0.000100522
2.68467e-06
2.35473e-05
8.82158e-05
6.02064e-05
3.73152e-05
8.44233e-06
6.51471e-05
9.59631e-05
0.000113078
9.58605e-05
3.10409e-05
0.000107885
0.000157343
0.000423593
0.000507513
0.000435381
0.000970663
0.000639802
0.00747276
0.0525014
0.223344
0.491444
0.765381
0.964435
1.05149
0.897359
0.672666
0.272508
0.0695098
0.139698
0.642651
1.01624
1.35312
1.53045
1.45222
1.05961
0.625157
0.277111
0.0161312
0.23258
0.313254
0.22876
0.0679694
0.000689222
0.00356167
0.000448564
0.000108548
0.000692885
0.00104319
0.00125511
0.00133752
0.00131565
0.00122916
0.00105215
0.000867522
0.000650471
0.000435195
0.000239765
0.000139921
4.91887e-05
2.15989e-05
2.63051e-05
3.74354e-05
1.43788e-05
1.65822e-06
2.38919e-05
8.78983e-05
7.08798e-05
5.54248e-05
5.5799e-05
0.000147633
0.000309658
0.000427509
0.000657798
0.000796171
0.000667695
0.000657184
0.00229188
0.0166184
0.104013
0.328687
0.555344
0.80107
0.893048
0.833417
0.623828
0.325331
0.0487383
0.181713
0.6274
0.999669
1.3497
1.54857
1.5014
1.18432
0.68948
0.290315
0.0176769
0.26516
0.395326
0.351354
0.169942
0.0205905
0.00315312
0.0012762
3.83162e-05
0.000565192
0.00103175
0.00128077
0.00142758
0.0014323
0.00133045
0.00116508
0.000983515
0.000748914
0.000521644
0.000342494
0.000165423
6.84511e-05
1.12316e-05
3.16532e-05
1.26732e-05
5.21568e-06
1.46008e-06
2.67116e-05
2.78096e-05
3.99697e-05
3.30896e-07
7.35723e-05
0.000176882
0.000341428
0.000567863
0.000704313
0.000867004
0.000963241
0.000838768
8.8079e-05
0.0048236
0.0312843
0.168858
0.40972
0.594087
0.742361
0.72636
0.573575
0.307207
0.0286276
0.267462
0.620752
0.988386
1.32086
1.55444
1.5331
1.24407
0.762856
0.318493
0.0219308
0.299143
0.481956
0.478854
0.304409
0.0894174
0.00278296
0.00192765
0.000561623
0.000457695
0.000923443
0.00130828
0.00146238
0.00151462
0.0014248
0.00127756
0.00106563
0.000847302
0.000619303
0.000401997
0.000213445
7.16646e-05
2.4306e-05
2.25981e-06
4.55981e-05
2.92291e-06
3.2308e-06
1.47949e-05
2.95601e-05
3.09957e-05
1.80556e-05
6.7373e-05
0.000196307
0.000371487
0.000547192
0.000765467
0.000957072
0.00104351
0.00108668
0.000820617
0.00129905
0.00723915
0.0514412
0.245484
0.435801
0.585463
0.599342
0.499801
0.288116
0.00732315
0.288901
0.633778
0.976729
1.28679
1.51095
1.51834
1.29254
0.827854
0.289606
0.000860291
0.335816
0.558883
0.629874
0.456737
0.196868
0.0265254
0.00667591
0.000626255
0.000189751
0.000890743
0.00121114
0.00147279
0.00156144
0.00151591
0.00136815
0.00116997
0.000916625
0.00068471
0.00044395
0.000244923
0.000113315
1.79839e-05
2.91127e-05