/*--------------------------------*- C++ -*----------------------------------*\
| =========                 |                                                 |
| \\      /  F ield         | OpenFOAM: The Open Source CFD Toolbox           |
|  \\    /   O peration     | Version:  2506                                  |
|   \\  /    A nd           | Website:  www.openfoam.com                      |
|    \\/     M anipulation  |                                                 |
\*---------------------------------------------------------------------------*/
FoamFile
{
    version     2.0;
    format      ascii;
    arch        "LSB;label=32;scalar=64";
    class       surfaceScalarField;
    location    "79.990692747563429";
    object      ddtCorrDdt0(phi);
}
// * * * * * * * * * * * * * * * * * * * * * * * * * * * * * * * * * * * * * //

dimensions      [0 3 -2 0 0 0 0];

oriented        oriented;

internalField   nonuniform List<scalar> 
19160
(
-1.59485e-06
-0.000613059
1.15242e-06
-0.000612558
-5.77943e-06
-0.000607279
1.36675e-05
-0.000620974
-6.18247e-06
-0.000612154
-1.3954e-05
-0.000593325
4.22454e-05
-0.000627076
4.67666e-06
-0.000631833
-2.24789e-05
-0.00060363
-2.71263e-05
-0.000566199
9.4836e-05
-0.000634026
3.53018e-05
-0.000657701
-1.99563e-05
-0.000634356
-4.91016e-05
-0.000581654
-4.46611e-05
-0.000521538
0.0001801
-0.000637256
9.47275e-05
-0.000693452
2.26621e-06
-0.000679923
-6.09578e-05
-0.0006225
-8.49318e-05
-0.000541384
-6.58096e-05
-0.000455728
0.000309954
-0.000632676
0.000194445
-0.000736973
5.30786e-05
-0.000744264
-5.43197e-05
-0.000686561
-0.000117067
-0.000590365
-0.000128474
-0.000478719
-8.91849e-05
-0.000366544
0.000498388
-0.000614029
0.00034933
-0.000787561
0.000144617
-0.000828511
-2.07298e-05
-0.000777854
-0.000133718
-0.000669911
-0.000185903
-0.000532936
-0.000176921
-0.000390983
-0.00011327
-0.000253274
0.000760634
-0.000571324
0.000578225
-0.000842925
0.00029235
-0.000935294
5.18787e-05
-0.000901119
-0.000127636
-0.000783936
-0.000232487
-0.000623327
-0.000263126
-0.000446732
-0.00022717
-0.000277083
-0.00013625
-0.000117025
0.00112287
-0.000486702
0.00090371
-0.000896809
0.000516454
-0.00106703
0.000179114
-0.00106253
-8.79137e-05
-0.000940842
-0.000262903
-0.00075352
-0.000344609
-0.000541844
-0.00034379
-0.000330112
-0.00027547
-0.000137864
-0.000155949
3.89241e-05
0.00160582
-0.000340811
0.00136169
-0.000944679
0.000844938
-0.00122529
0.000382063
-0.00126998
-1.5018e-07
-0.00115029
-0.000268479
-0.000935266
-0.000418661
-0.000679469
-0.000462919
-0.000422715
-0.000421894
-0.000183688
-0.000317259
2.34463e-05
-0.000170676
0.0002096
0.00223674
-0.0001104
0.00198995
-0.000969072
0.00131123
-0.00141097
0.000689699
-0.00153293
0.000155713
-0.00142584
-0.0002374
-0.00118137
-0.000479924
-0.000874003
-0.000584998
-0.00055739
-0.000578668
-0.000265941
-0.000490109
-1.08378e-05
-0.00034891
0.00020168
-0.000178708
0.000388307
0.00307675
0.000230672
0.00283183
-0.000952279
0.00196333
-0.00162118
0.0011391
-0.00186037
0.000407584
-0.0017848
-0.000152483
-0.00151076
-0.000520598
-0.0011407
-0.000708909
-0.000750091
-0.000749712
-0.000386346
-0.000681085
-7.4965e-05
-0.000542482
0.000182734
-0.000366703
0.000389676
-0.000178872
0.000567179
0.00430505
0.000737209
0.00393434
-0.000871838
0.00285955
-0.0018485
0.00178288
-0.00226496
0.000793408
-0.00224619
1.08845e-05
-0.00194817
-0.000528414
-0.00150294
-0.000832127
-0.00101748
-0.000938811
-0.000560993
-0.000897634
-0.000169798
-0.000761172
0.000143725
-0.000572913
0.000388943
-0.000368073
0.000578876
-0.000170172
0.000737351
0.00628513
0.00166982
0.00537353
-0.00070198
0.00407165
-0.00208394
0.00268818
-0.00275379
0.00136767
-0.00283922
0.000287971
-0.00252328
-0.000484905
-0.00199168
-0.00094924
-0.00138583
-0.00114968
-0.000806615
-0.00114868
-0.000309945
-0.00101567
8.46979e-05
-0.000809704
0.000380515
-0.000577116
0.000597986
-0.000350858
0.000759562
-0.000152824
0.000890174
0.00971059
0.00389443
0.00734202
-0.000298674
0.00565688
-0.00228721
0.00394262
-0.00333838
0.00220273
-0.00358885
0.000730582
-0.00328183
-0.000361206
-0.00264698
-0.00105062
-0.0018903
-0.00138537
-0.00115014
-0.00144464
-0.000510657
-0.00131978
-5.83716e-06
-0.00109037
0.000365364
-0.000820041
0.00062344
-0.000551491
0.000798619
-0.000315454
0.000922191
-0.000127432
0.00101761
0.0148809
0.00864605
0.0104701
0.000766315
0.00771226
-0.00235405
0.00562242
-0.00396701
0.00339112
-0.00452677
0.00140867
-0.00426694
-0.000113896
-0.00352914
-0.00111791
-0.00257968
-0.00164741
-0.00162825
-0.00179795
-0.000796833
-0.00169039
-0.00014004
-0.00143276
0.000336556
-0.00111179
0.000657114
-0.000786627
0.000858575
-0.00049654
0.000979705
-0.000263117
0.00105788
-9.51219e-05
0.00111273
0.0220896
0.0177279
0.015457
0.00365923
0.0105171
-0.00203848
0.00780789
-0.00453952
0.00501667
-0.00559256
0.002404
-0.0055221
0.000315119
-0.00469595
-0.00112272
-0.00352434
-0.00193215
-0.00229495
-0.00222284
-0.00120336
-0.00214929
-0.000337935
-0.0018593
0.000286491
-0.0014729
0.000697666
-0.00107162
0.000942104
-0.000709925
0.00107196
-0.000414224
0.00113081
-0.000196217
0.00115897
-5.80026e-05
0.00117073
0.0274108
0.0306962
0.0239499
0.00923496
0.0149935
-0.000817259
0.0106648
-0.00489535
0.00719683
-0.00671968
0.00380975
-0.00699831
0.000982437
-0.00618942
-0.00103089
-0.00478778
-0.00223336
-0.00322312
-0.00273365
-0.00178413
-0.00272372
-0.000628933
-0.00239987
0.000202635
-0.00192956
0.000743146
-0.00142786
0.00105391
-0.00097002
0.0012022
-0.000592701
0.00125044
-0.000308361
0.00124295
-0.000119183
0.00122015
-1.83285e-05
0.00118906
0.0268722
0.0406443
0.0349254
0.0197207
0.0219013
0.00232716
0.014677
-0.00482951
0.0101234
-0.00782191
0.00581273
-0.00872266
0.00200006
-0.00801594
-0.000814476
-0.00640583
-0.00255401
-0.00446713
-0.00335235
-0.00260443
-0.00344757
-0.00106028
-0.00309354
6.47404e-05
-0.00251742
0.000790497
-0.00188291
0.00119819
-0.00129712
0.00138101
-0.000810711
0.00142021
-0.000440578
0.00138265
-0.000186092
0.00130986
-3.67549e-05
0.00123858
2.13652e-05
0.00116769
0.0180006
0.03755
0.0434214
0.0321484
0.0324002
0.00922181
0.0207285
-0.00372431
0.0140994
-0.00880556
0.00871257
-0.0107218
0.00364191
-0.0103645
-0.000343295
-0.00848712
-0.00289882
-0.00606103
-0.00412663
-0.00369285
-0.00437393
-0.00167807
-0.00399286
-0.000160959
-0.00328441
0.000831735
-0.00247471
0.00138229
-0.00171742
0.00161849
-0.00108552
0.00165582
-0.00060165
0.00158128
-0.000264089
0.00146065
-5.50961e-05
0.0013282
4.57444e-05
0.0012142
5.8477e-05
0.00110921
0.00712736
0.0266266
0.0412188
0.0397526
0.0443706
0.020178
0.0300435
-9.31746e-05
0.0194619
-0.00908682
0.0127811
-0.0128741
0.00634215
-0.013422
0.000776721
-0.0114845
-0.00308489
-0.00830105
-0.0050849
-0.00510276
-0.00559403
-0.00247274
-0.00517989
-0.000491049
-0.00429792
0.000852546
-0.00325527
0.0016123
-0.00226721
0.00193208
-0.00143939
0.00197236
-0.000804195
0.00185837
-0.000357797
0.00167499
-7.46321e-05
0.00148019
7.60125e-05
0.00129793
0.000122871
0.0011498
9.06672e-05
0.00101855
-0.00135483
0.0123843
0.029868
0.0379774
0.0521418
0.0319813
0.042789
0.00743243
0.0269863
-0.00761758
0.0179758
-0.0142816
0.01031
-0.016842
0.00305113
-0.0156964
-0.00265146
-0.0119179
-0.00601383
-0.00737212
-0.00715535
-0.00354144
-0.00677731
-0.000875316
-0.00566018
0.000871214
-0.00429948
0.00189675
-0.00299683
0.00234192
-0.00190311
0.0023958
-0.0010643
0.00223246
-0.000474073
0.00197464
-9.54565e-05
0.00169581
0.000115032
0.00144117
0.000198467
0.00122234
0.000189732
0.00105074
0.000116021
0.000902524
-0.00822511
0.00339115
0.0162126
0.0260398
0.0518263
0.0382928
0.0558419
0.0189285
0.0378396
-0.00342078
0.024376
-0.0140177
0.0152652
-0.0192368
0.00651401
-0.0203048
-0.00113641
-0.0172115
-0.0064594
-0.0114724
-0.00886435
-0.00566312
-0.00885605
-0.00146271
-0.00750704
0.000971543
-0.0057146
0.00228634
-0.00397918
0.00287911
-0.0025197
0.00295851
-0.00140414
0.00273564
-0.000621378
0.00237977
-0.000118156
0.00199734
0.000167165
0.00164368
0.000291995
0.00134764
0.000304418
0.00110765
0.000242326
0.00092443
0.000132883
0.00076964
-0.014715
-0.00168712
0.00799942
0.0116043
0.0435553
0.0343109
0.0640953
0.0300395
0.0519191
0.00484897
0.0325951
-0.0116399
0.0209532
-0.0197056
0.0106945
-0.0234172
0.00122026
-0.0226615
-0.0061777
-0.0174932
-0.0103896
-0.00994709
-0.0113285
-0.00319065
-0.00994801
0.000978265
-0.00762931
0.00288625
-0.00531001
0.00361716
-0.00335105
0.00371045
-0.0018546
0.00340897
-0.000811155
0.00292542
-0.000142949
0.00240456
0.000237974
0.00192653
0.000411804
0.00152387
0.00044477
0.00120728
0.000387496
0.00096248
0.000277194
0.000780118
0.000140558
0.000629081
-0.0181766
-0.00353964
0.0042784
0.00203389
0.0319366
0.023223
0.0634988
0.0349073
0.0660306
0.0159279
0.0440323
-0.00658821
0.0273715
-0.0180583
0.0154284
-0.0244396
0.00384321
-0.0260402
-0.00561945
-0.0232197
-0.0118519
-0.0160309
-0.0141441
-0.00713148
-0.0130832
-5.54296e-05
-0.010201
0.00354992
-0.00709161
0.00466785
-0.00447024
0.00473635
-0.00245951
0.00431536
-0.00105895
0.00365677
-0.000169776
0.00295225
0.000335183
0.00230735
0.000568924
0.00176941
0.000622348
0.00134629
0.000564122
0.00103066
0.000442235
0.000797438
0.000292881
0.000627795
0.000138819
0.000490261
-0.0219361
-0.00444461
0.00167573
-0.000936967
0.0217393
0.0122312
0.0561869
0.0305349
0.0740123
0.0269256
0.0583682
0.00159197
0.0354295
-0.0146462
0.0205625
-0.0231924
0.0069388
-0.0275352
-0.0052477
-0.0264119
-0.0136842
-0.0213874
-0.0176082
-0.0125668
-0.0172044
-0.00301031
-0.013766
0.00350962
-0.00950763
0.00596593
-0.00594303
0.00614064
-0.00326484
0.00554169
-0.001386
0.00464241
-0.000197701
0.00368469
0.000469749
0.00281768
0.000777955
0.00209832
0.000852566
0.00153919
0.000786025
0.00112438
0.000642209
0.000830682
0.00046639
0.000623928
0.000288911
0.000477702
0.000127823
0.000362436
-0.0263463
-0.00451076
-0.00097577
-0.00179311
0.016763
0.00403939
0.0470384
0.0213797
0.0735961
0.0309511
0.0722619
0.0130319
0.046204
-0.0091825
0.0262254
-0.0203092
0.0105517
-0.0268053
-0.00444091
-0.028342
-0.0158891
-0.024207
-0.0220055
-0.0169902
-0.0227974
-0.00697385
-0.0189826
0.00220626
-0.0130708
0.00707284
-0.00794269
0.00796558
-0.00429946
0.00717526
-0.00180998
0.00596567
-0.000223967
0.00466868
0.000657882
0.00349656
0.00105903
0.0025366
0.00115532
0.00179557
0.00107169
0.00125353
0.00089215
0.000874442
0.000675912
0.000621159
0.000459276
0.000453562
0.000265626
0.000339898
0.000108745
0.00025369
-0.0305614
-0.00450582
-0.00317102
-0.00231551
0.0135785
0.00139133
0.0408433
0.0102345
0.0678453
0.0271306
0.0804534
0.0227596
0.0601104
-0.00087444
0.0331956
-0.0161527
0.0145842
-0.0243416
-0.00294093
-0.0283053
-0.0176866
-0.0265446
-0.0266876
-0.0195248
-0.029199
-0.0105885
-0.0262761
0.000319699
-0.0185796
0.00771505
-0.0110408
0.0101709
-0.00568764
0.00935377
-0.00232507
0.00769034
-0.00023846
0.00598016
0.000924162
0.0044024
0.00144064
0.00311495
0.00155753
0.00213439
0.00144449
0.00142277
0.00121219
0.000933483
0.000936677
0.000613676
0.00066436
0.000416074
0.00042149
0.000297697
0.000225498
0.000223144
8.29806e-05
0.000170708
-0.0338603
-0.00362124
-0.00540682
-0.00227002
0.0113974
-0.000134379
0.0353963
0.00683834
0.0625318
0.015548
0.0814779
0.026106
0.0735622
0.00930781
0.0430264
-0.0107052
0.0191298
-0.0206983
-0.000686056
-0.0265965
-0.0187403
-0.0272515
-0.0311657
-0.0220665
-0.0360794
-0.0126445
-0.0346406
-0.002224
-0.0262467
0.00798674
-0.0159904
0.0126647
-0.00794033
0.0124236
-0.00296613
0.00999483
-0.000206096
0.00765798
0.00130367
0.00560065
0.00196423
0.0038788
0.00209613
0.00257635
0.00193559
0.00164329
0.00162735
0.00100761
0.00126911
0.000601046
0.000918652
0.000359384
0.00060851
0.000229053
0.000356986
0.000166208
0.000171477
0.000134645
5.24493e-05
0.000118257
-0.0363079
-0.00217925
-0.00746995
-0.00155811
0.00963402
-0.000506643
0.0307687
0.00449325
0.0580652
0.0113049
0.078652
0.0183739
0.0823028
0.0173653
0.0555789
-0.00324469
0.0247943
-0.0163697
0.00217466
-0.023559
-0.0187364
-0.0266004
-0.0348166
-0.0236007
-0.0426853
-0.0154606
-0.0421075
-0.00517762
-0.0356975
0.00722688
-0.0228392
0.0148356
-0.011822
0.0165463
-0.00405035
0.0135078
-6.05235e-05
0.00984926
0.00185089
0.00711075
0.00268521
0.00487968
0.00282317
0.00315177
0.00258649
0.00192545
0.00217051
0.00110013
0.00169823
0.000578487
0.00124162
0.000278074
0.000839562
0.000128331
0.000514106
7.19317e-05
0.00027044
6.72447e-05
0.000107597
7.94964e-05
1.93057e-05
9.89498e-05
-0.0379968
-0.000391082
-0.00877763
-0.000871576
0.0084101
-0.00033419
0.0276506
0.00261141
0.0548564
0.00770205
0.0750423
0.0149146
0.0842295
0.0164472
0.068052
0.00489226
0.0328301
-0.0112805
0.00539434
-0.0195894
-0.0177727
-0.0245227
-0.0373598
-0.0240571
-0.0486973
-0.0175887
-0.0500131
-0.00755504
-0.0443837
0.00350852
-0.0314316
0.0158193
-0.0176616
0.0206752
-0.00630248
0.0187985
0.00016922
0.0132781
0.00269802
0.00900213
0.00366943
0.00612654
0.003808
0.00389484
0.00345379
0.00228446
0.00288442
0.00121154
0.00225655
0.000541807
0.00165686
0.000163244
0.00113203
-1.43918e-05
0.00070739
-6.49546e-05
0.000387877
-4.55074e-05
0.000168226
6.61444e-06
3.83635e-05
6.0437e-05
-1.39329e-05
0.000112881
-0.0387657
0.000875301
-0.00885899
-0.000309719
0.00782976
-0.000291241
0.0263476
0.000968786
0.0528273
0.00464056
0.0719662
0.0107781
0.0834459
0.0156983
0.0748395
0.00965975
0.0435384
-0.00581603
0.00942839
-0.0153146
-0.0160742
-0.0212879
-0.038791
-0.0230915
-0.0539146
-0.0188398
-0.058349
-0.00925279
-0.0534713
0.00153258
-0.0421839
0.0142608
-0.025197
0.0233547
-0.0104446
0.0248173
3.32065e-05
0.0189345
0.00408109
0.011895
0.00506147
0.00761009
0.0051246
0.00480994
0.00461315
0.00273548
0.00382541
0.00134347
0.00298549
0.000482598
0.00219483
3.84085e-06
0.00150685
-0.000211581
0.000951166
-0.000258169
0.000531346
-0.000208424
0.000238963
-0.000116246
5.74749e-05
-1.24984e-05
-3.10031e-05
7.75056e-05
-4.48659e-05
0.000157745
-0.0380515
0.00119463
-0.00771656
-0.00026713
0.00811518
-0.000595134
0.0267359
-0.000679538
0.0519021
0.00189397
0.0696573
0.00694947
0.0814732
0.0127507
0.0788207
0.0117171
0.0518248
0.00137335
0.0141255
-0.0105131
-0.0137566
-0.0176322
-0.0389068
-0.0211722
-0.0579903
-0.0190158
-0.0660462
-0.0111426
-0.0632314
0.000507336
-0.0529372
0.0122859
-0.034829
0.0238928
-0.016425
0.0293351
-0.00134607
0.0261966
0.0059811
0.0170345
0.00724023
0.00971625
0.00689416
0.00584053
0.00614493
0.00327816
0.00506797
0.00149293
0.00393816
0.000390795
0.00289378
-0.00021635
0.001991
-0.000480308
0.00126272
-0.000523138
0.000711304
-0.000438128
0.000323887
-0.00029335
7.75964e-05
-0.000136369
-5.35369e-05
1.00337e-05
-9.55479e-05
0.000128186
-7.10884e-05
0.000228832
-0.0347162
-2.88791e-05
-0.00564479
-0.000877142
0.00945724
-0.00160919
0.0287302
-0.00258941
0.0519142
-0.000691658
0.0682459
0.00330545
0.0793315
0.0090912
0.0799689
0.0116025
0.0589023
0.00463951
0.0195259
-0.00402707
-0.0109619
-0.0133078
-0.0380884
-0.0184506
-0.0604804
-0.018682
-0.0725557
-0.0125063
-0.072404
-0.00197008
-0.0623766
0.00994666
-0.0450075
0.0224644
-0.0235877
0.0310555
-0.00455742
0.0325464
0.00761423
0.0245635
0.0106237
0.0136509
0.00948781
0.0071226
0.00814182
0.00384364
0.00669491
0.00165122
0.00518282
0.000248275
0.00380195
-0.000517375
0.0026182
-0.000843553
0.00166439
-0.000881972
0.000940468
-0.000752303
0.000428919
-0.000543162
9.89964e-05
-0.000314751
-8.43089e-05
-0.000105598
-0.000156908
7.13925e-05
-0.000150296
0.000207392
-9.06634e-05
0.000319493
-0.0264743
-0.00359852
-0.00338835
-0.00228532
0.0122279
-0.00364781
0.0319325
-0.00481149
0.052562
-0.00323713
0.0675679
-1.36597e-05
0.0774614
0.00517559
0.0794186
0.00964147
0.0639737
0.00653113
0.0256987
-0.00153333
-0.0074658
-0.00752313
-0.0368222
-0.014574
-0.0621043
-0.0168267
-0.0776993
-0.0135385
-0.0806398
-0.00427041
-0.0718735
0.00752682
-0.0542222
0.0191614
-0.0314626
0.0303394
-0.00950508
0.0360031
0.00778935
0.0323713
0.0148666
0.0203206
0.0136016
0.00953719
0.0108653
0.0043991
0.00878379
0.00175476
0.00679909
3.49401e-05
0.00497929
-0.000929073
0.00343081
-0.00132998
0.00218431
-0.00136348
0.00123548
-0.00117698
0.000561397
-0.000884782
0.000122545
-0.000566712
-0.00012699
-0.000272072
-0.000235304
-2.72038e-05
-0.000244649
0.000165743
-0.000191213
0.000307939
-0.000102065
0.000421557
-0.0186427
-0.00832925
0.000699388
-0.00768625
0.0162522
-0.00630963
0.0353046
-0.00701991
0.0535259
-0.00577547
0.0673234
-0.0029927
0.0760614
0.00138628
0.0783268
0.00626735
0.0662885
0.0073267
0.0316864
0.000543507
-0.00410646
-0.00489267
-0.0338147
-0.0105306
-0.0629139
-0.0137645
-0.0821316
-0.0123944
-0.0880796
-0.00609868
-0.0811031
0.00495926
-0.0636032
0.0169079
-0.0401859
0.0278847
-0.0155897
0.036424
0.00589977
0.0378927
0.0186547
0.0285832
0.0195398
0.0143824
0.0150248
0.00537768
0.0114726
0.00171032
0.00886126
-0.000307407
0.00649796
-0.00148373
0.00448042
-0.00197869
0.00285812
-0.00200379
0.00161784
-0.00174584
0.00073127
-0.00134686
0.000149511
-0.000911748
-0.000185991
-0.000507712
-0.000338242
-0.000169136
-0.000363691
9.18371e-05
-0.000310246
0.000284774
-0.000215066
0.000420938
-0.000104445
0.000526
-0.0110189
-0.0146477
0.00724449
-0.0148743
0.0217355
-0.0131695
0.0382358
-0.00924087
0.0546565
-0.00815045
0.0671572
-0.00560921
0.0748991
-0.00183031
0.0765777
0.00313543
0.0668363
0.00571961
0.0366892
0.00232383
-0.00131804
-0.00224492
-0.0302467
-0.00846066
-0.0610804
-0.012364
-0.0848938
-0.0110022
-0.0942444
-0.0062296
-0.0898959
0.00269405
-0.0728872
0.0142432
-0.0485532
0.0252752
-0.0223084
0.0346034
0.00237416
0.0399496
0.0206994
0.035848
0.0264455
0.0216775
0.0214417
0.00796548
0.0152674
0.00158286
0.0114347
-0.000863103
0.00843018
-0.00223962
0.00583029
-0.0028336
0.00372967
-0.00285024
0.00211531
-0.00250126
0.000952129
-0.0019667
0.000182222
-0.00137957
-0.000266589
-0.000831151
-0.000475309
-0.000370646
-0.000518316
-1.45128e-05
-0.000459873
0.000241462
-0.000348446
0.000418152
-0.000220013
0.000536504
-9.74203e-05
0.000623418
-0.00393706
-0.0202245
0.0134425
-0.0208457
0.0257042
-0.0188431
0.0406832
-0.0156169
0.0556293
-0.0102137
0.0670973
-0.00809062
0.073787
-0.00449718
0.0746461
0.000101279
0.0658368
0.00413485
0.0387833
0.00362553
0.000952818
5.29789e-05
-0.0261421
-0.00634956
-0.059222
-0.0103191
-0.0837027
-0.0135551
-0.0980882
-0.00715838
-0.0964987
0.000373267
-0.08155
0.0113568
-0.0565322
0.0222222
-0.0286809
0.0316476
-0.00193603
0.0389135
0.0207082
0.0399409
0.0326487
0.0296447
0.0301196
0.0129996
0.0211081
0.00212473
0.0147691
-0.00175156
0.0108266
-0.00325949
0.00754693
-0.00395626
0.00485385
-0.00395778
0.0027638
-0.00349873
0.00124233
-0.00279146
0.000224843
-0.00200932
-0.000374831
-0.00127133
-0.000658425
-0.000648036
-0.0007229
-0.000166064
-0.000653662
0.000179275
-0.000516013
0.000409027
-0.00035624
0.000554377
-0.000205201
0.000644282
-8.16489e-05
0.000705065
0.00149265
-0.0236778
0.0172846
-0.0240665
0.0279899
-0.0231313
0.0416188
-0.0197787
0.0556623
-0.0156498
0.066551
-0.00966741
0.0723692
-0.00667276
0.072476
-0.00232706
0.0636326
0.00230547
0.0387773
0.00414084
0.00152105
0.00305729
-0.0214287
-0.00466041
-0.0573957
-0.00817585
-0.0822648
-0.0117571
-0.098037
-0.0136064
-0.100618
-0.00303962
-0.0883337
0.00715703
-0.0638731
0.0186977
-0.0345368
0.0280781
-0.00621323
0.0359248
0.0191659
0.0404559
0.03696
0.0356296
0.0397296
0.0200347
0.0297722
0.00433561
0.0195629
-0.00266908
0.0137636
-0.00468863
0.00969357
-0.00540613
0.00629106
-0.00539347
0.00360972
-0.00480371
0.00162823
-0.00388463
0.000284424
-0.00285104
-0.000517399
-0.00186675
-0.000902455
-0.0010273
-0.000995533
-0.000375405
-0.000909869
9.0141e-05
-0.000733021
0.000396281
-0.000527567
0.000580352
-0.000332234
0.000681409
-0.000172003
0.000734634
-5.82866e-05
0.000763349
0.00474169
-0.0247965
0.0190651
-0.0254583
0.0286285
-0.0247051
0.0411409
-0.0226535
0.053953
-0.0180694
0.0646161
-0.0137149
0.0706411
-0.00793929
0.0697754
-0.0039722
0.0605134
0.000792184
0.0370289
0.00405387
0.00157329
0.0040886
-0.0163129
-0.00205849
-0.0560786
-0.00597749
-0.0810439
-0.0093967
-0.0976542
-0.0121398
-0.102695
-0.0115285
-0.0937411
0.00236772
-0.0707946
0.0140785
-0.0399297
0.0240906
-0.0100093
0.0318742
0.0169341
0.0381566
0.039068
0.0383478
0.0485268
0.0268325
0.0409556
0.00885123
0.0268407
-0.00294214
0.0176043
-0.00650977
0.0122901
-0.00728511
0.00811656
-0.00723163
0.00471037
-0.00649412
0.00214583
-0.00532131
0.000374212
-0.00397442
-0.000700628
-0.00266782
-0.00122587
-0.00154334
-0.00135957
-0.000663266
-0.00125171
-3.35649e-05
-0.00102025
0.000377369
-0.000749735
0.000618448
-0.000492394
0.00074051
-0.000278669
0.000788072
-0.000122876
0.000799221
-2.90461e-05
0.000792393
0.00614668
-0.0234085
0.0188566
-0.024588
0.0277034
-0.0245332
0.0394343
-0.0229984
0.0506938
-0.0193944
0.0612094
-0.0146627
0.0664472
-0.00952098
0.0667539
-0.00491782
0.0566406
-9.93781e-05
0.0338675
0.00395362
0.00128509
0.00434207
-0.0131556
0.00093128
-0.0543481
-0.00378901
-0.080145
-0.00687635
-0.0974006
-0.0096503
-0.104321
-0.010514
-0.097713
-0.0075566
-0.0778656
0.00943879
-0.045724
0.0198728
-0.0129298
0.027011
0.0146919
0.0341164
0.0395217
0.0377029
0.0552439
0.0316307
0.0531123
0.0146758
0.0373398
-0.00164788
0.0231113
-0.00844913
0.0154822
-0.00970191
0.010374
-0.0095425
0.00614512
-0.00866638
0.00284856
-0.00719686
0.000515664
-0.00546276
-0.000928833
-0.00374622
-0.00165039
-0.0022433
-0.00184527
-0.00105764
-0.0017099
-0.000205078
-0.00140437
0.000350556
-0.00104437
0.000672003
-0.000700584
0.000826636
-0.000413775
0.000875614
-0.00019955
0.000864743
-6.14632e-05
0.000831636
3.70468e-06
0.000788685
0.00631024
-0.0192331
0.0171312
-0.0216831
0.0255038
-0.0223884
0.0362524
-0.0213514
0.0463298
-0.0186344
0.0556471
-0.013832
0.0610285
-0.00924401
0.0608945
-0.00366152
0.0519831
-0.000260302
0.029572
0.00419616
0.00071361
0.0045251
-0.0122144
0.00340089
-0.0523551
-0.00106171
-0.0796091
-0.00432497
-0.0970006
-0.0072763
-0.104937
-0.0090342
-0.100436
-0.007791
-0.0830946
-0.00232762
-0.0516932
0.015408
-0.0142109
0.0211539
0.0126484
0.0290546
0.0390272
0.034611
0.059656
0.0332908
0.0644947
0.0202483
0.050383
0.00163266
0.0313699
-0.00990646
0.0196161
-0.012583
0.0131461
-0.0124741
0.00800754
-0.0114049
0.003816
-0.00963382
0.000752099
-0.00743329
-0.00120057
-0.00519102
-0.00220179
-0.00319482
-0.00249076
-0.00159781
-0.0023252
-0.00044234
-0.00192129
0.000311838
-0.00143939
0.000745572
-0.000977363
0.000948781
-0.000590113
0.00100297
-0.000297647
0.00097371
-0.000100803
0.000904081
7.21965e-06
0.000828118
3.74554e-05
0.000751227
0.00525049
-0.0146669
0.0145626
-0.0166645
0.0218125
-0.0179918
0.031177
-0.0173131
0.040299
-0.0153206
0.048902
-0.0118894
0.0541953
-0.00699882
0.0532558
-0.00160539
0.0452081
0.00311347
0.0249489
0.0043628
7.77209e-05
0.00483205
-0.0132965
0.00560721
-0.0509213
0.00196711
-0.0790655
-0.00160534
-0.0967539
-0.00457168
-0.105243
-0.00697058
-0.102253
-0.00721736
-0.0867635
-0.00412209
-0.0574654
0.00344458
-0.0142307
0.0154278
0.0102118
0.0235905
0.0379032
0.0301786
0.0621645
0.0321025
0.0739019
0.0238836
0.064744
0.00588726
0.0427433
-0.00974076
0.0253967
-0.0156871
0.0164967
-0.0159336
0.0103817
-0.0148482
0.00517329
-0.0127622
0.0011559
-0.0100376
-0.0014948
-0.00713907
-0.00290486
-0.00448795
-0.00334521
-0.00234036
-0.00315128
-0.000771738
-0.00261937
0.000255734
-0.00197283
0.000845274
-0.00134934
0.00111755
-0.000825331
0.001184
-0.000426746
0.00113207
-0.000152813
0.00102572
9.44344e-06
0.000901855
7.78786e-05
0.000787693
6.96457e-05
0.000681579
0.00392601
-0.00972979
0.0107968
-0.010901
0.0172278
-0.0120798
0.0252005
-0.0120152
0.0332907
-0.0103047
0.0412819
-0.0077005
0.0458379
-0.00353199
0.0453131
0.00094395
0.0379072
0.00569549
0.0202711
0.00779121
-0.0011386
0.00557913
-0.0159792
0.00751465
-0.0505413
0.00522717
-0.0786451
0.00154675
-0.0967031
-0.00165619
-0.105434
-0.00438098
-0.103369
-0.00585423
-0.0891624
-0.00481845
-0.0623118
0.000724315
-0.0177085
0.00692243
0.00780465
0.017835
0.0357346
0.0257591
0.0635951
0.028748
0.0808317
0.0251727
0.0786265
0.0100011
0.0569008
-0.00827025
0.0338148
-0.0181588
0.0207054
-0.0198958
0.0132699
-0.0188218
0.00699896
-0.0166739
0.00183826
-0.0134446
-0.00176509
-0.00976732
-0.00377418
-0.00626975
-0.0044642
-0.00336897
-0.0042601
-0.00123155
-0.00356414
0.000173029
-0.00269637
0.000979273
-0.00185304
0.00134898
-0.00114226
0.00143447
-0.000599985
0.00135723
-0.000223037
0.00120229
8.67477e-06
0.00102648
0.000122654
0.000857077
0.000145143
0.000712193
9.77184e-05
0.000583858
0.00272943
-0.00504248
0.00738295
-0.00631598
0.0126978
-0.00637104
0.0194077
-0.00628706
0.0261081
-0.0048327
0.0328026
-0.00182538
0.036973
0.00116436
0.0364812
0.00529986
0.0299008
0.00895031
0.015708
0.0102586
-0.00312359
0.0097762
-0.0200076
0.00960759
-0.0513513
0.00832469
-0.0784017
0.00498373
-0.0967566
0.00160026
-0.105593
-0.00149674
-0.103848
-0.00390177
-0.0904844
-0.00453222
-0.0653439
-0.00178641
-0.0221006
0.00511632
0.00430062
0.0104265
0.0326601
0.0209095
0.0643344
0.0250197
0.0858911
0.0236886
0.0906547
0.0131444
0.0724182
-0.0055163
0.0449389
-0.0193944
0.0263418
-0.0237952
0.0166705
-0.0232964
0.00932453
-0.0211473
0.00283313
-0.0176688
-0.001974
-0.0132357
-0.00482233
-0.00871917
-0.00591144
-0.00482252
-0.00574052
-0.00188855
-0.00484489
4.92097e-05
-0.00368141
0.00115807
-0.00253827
0.0016645
-0.00157226
0.00177898
-0.000834273
0.00166876
-0.000318953
0.00145315
3.80738e-06
0.00120716
0.000174205
0.00097493
0.000230209
0.000772008
0.000203673
0.000606236
0.000119692
0.000464162
0.00179174
-0.00179537
0.00478655
-0.00244609
0.00830777
-0.001926
0.0138553
-0.000818643
0.0194493
0.000371808
0.0242876
0.00368231
0.0279042
0.00724351
0.0268824
0.0107632
0.0214625
0.0137382
0.00970258
0.0149557
-0.00709158
0.0142266
-0.0251784
0.014947
-0.0532406
0.0114968
-0.0786386
0.00856163
-0.0967335
0.00496067
-0.105444
0.00145144
-0.103647
-0.00169773
-0.0906517
-0.00373454
-0.0664423
-0.00343379
-0.0270945
0.00320752
0.00214755
0.0072694
0.0271971
0.0158895
0.0650515
0.0201924
0.0898123
0.0210985
0.100056
0.0142871
0.0880922
-0.00252955
0.0585169
-0.0190943
0.0337841
-0.0268367
0.0206748
-0.0277995
0.0120557
-0.0260276
0.00418564
-0.0224998
-0.00216739
-0.0174754
-0.00614076
-0.0119172
-0.00779247
-0.00683814
-0.00770755
-0.00285549
-0.00657823
-0.00015521
-0.00502622
0.00139402
-0.0034745
0.0020943
-0.00215808
0.00225032
-0.00115268
0.00209738
-0.00045002
0.00179982
-6.43341e-06
0.00146339
0.000235847
0.00114551
0.000331105
0.000874032
0.000323584
0.000652094
0.000249356
0.000476569
0.000134027
0.000330132
0.00109599
-0.000206423
0.00309661
-0.000105429
0.00512519
0.000736491
0.00860085
0.00332847
0.0123143
0.0063163
0.0153272
0.00933217
0.0178083
0.0137782
0.0173225
0.0168033
0.012434
0.0197917
0.00254128
0.0208995
-0.0123304
0.0201946
-0.0304263
0.0194745
-0.0539835
0.0156899
-0.0794628
0.012321
-0.0967246
0.00855268
-0.104856
0.00437247
-0.102556
0.00035994
-0.0894744
-0.00287504
-0.0660338
-0.00414302
-0.030997
0.000468754
0.000593279
0.00476179
0.0225406
0.0119258
0.0621327
0.0188083
0.0921958
0.017809
0.107971
0.0131839
0.101651
0.000727814
0.0738868
-0.0178995
0.0434481
-0.0287583
0.0255475
-0.0317095
0.0152186
-0.0309624
0.00594625
-0.0277882
-0.00226325
-0.022404
-0.00784611
-0.01577
-0.0103497
-0.00935997
-0.0103887
-0.00415697
-0.00894142
-0.000492299
-0.00686588
0.00168445
-0.00475776
0.00267728
-0.00295938
0.0028956
-0.00158637
0.00268401
-0.000628777
0.00227613
-2.33806e-05
0.00181677
0.000312432
0.0013868
0.000455154
0.00102146
0.000466937
0.000730676
0.000396245
0.000505202
0.000279031
0.000331563
0.000139526
0.000190603
0.000575378
0.000402141
0.00199859
0.000891595
0.00321312
0.00180663
0.00508827
0.00424907
0.00717283
0.00846997
0.00848789
0.0131556
0.0090586
0.0180818
0.00844109
0.0226597
0.00378907
0.0254482
-0.00470608
0.0270391
-0.017983
0.0265521
-0.0348145
0.0245828
-0.0551243
0.0206152
-0.077525
0.0137521
-0.096319
0.0119154
-0.103482
0.00717862
-0.100293
0.00210944
-0.0868016
-0.00231277
-0.0640557
-0.00485314
-0.0326544
-0.00248559
-0.00123167
0.0022937
0.0197223
0.00758012
0.0597129
0.0143457
0.0899595
0.0210445
0.113074
0.0127054
0.113709
0.00112652
0.089521
-0.0149063
0.055016
-0.0294673
0.0315689
-0.0347798
0.0188021
-0.035293
0.00821551
-0.0332317
-0.00194166
-0.0281098
-0.00971337
-0.0205367
-0.0136878
-0.012432
-0.0141466
-0.00560204
-0.0122619
-0.000836456
-0.00941494
0.00205676
-0.00652624
0.00345293
-0.00405893
0.00377682
-0.0021784
0.00348763
-0.000871743
0.00292697
-4.81359e-05
0.00230089
0.000410567
0.00171863
0.000612702
0.00122925
0.000644322
0.000844074
0.000572242
0.000554677
0.000443212
0.000341019
0.000290263
0.000180822
0.000136104
5.44966e-05
0.000210365
0.000698728
0.00122137
0.00117936
0.00205199
0.00205272
0.00308773
0.00380717
0.00407739
0.00734452
0.0045381
0.0124198
0.00401809
0.0181961
0.00246232
0.0240606
-0.00218611
0.0286348
-0.0105402
0.0312823
-0.0224498
0.0315058
-0.0377919
0.0295296
-0.0555781
0.0250366
-0.074495
0.0175852
-0.0911264
0.0085596
-0.100091
0.00852478
-0.0960752
0.00296093
-0.0823233
-0.00236887
-0.0605672
-0.00580132
-0.0324718
-0.00503576
-0.00320652
-0.000510739
0.0186957
0.00332034
0.0574593
0.00983371
0.0880251
0.0162801
0.112011
0.0221082
0.123484
0.00293067
0.103436
-0.0127882
0.0684208
-0.0283112
0.038596
-0.0364943
0.0226158
-0.0385935
0.0107472
-0.0378247
-0.00109878
-0.0340745
-0.0112362
-0.026587
-0.0173492
-0.0168753
-0.0189596
-0.00761903
-0.0169169
-0.000947087
-0.0130434
0.00279201
-0.00900084
0.00453136
-0.00558101
0.004975
-0.00298852
0.00458693
-0.00120069
0.00381658
-8.14189e-05
0.00296025
0.000540174
0.00217128
0.000817342
0.00151399
0.000870475
0.00100309
0.000790255
0.000626058
0.000639895
0.000357991
0.000460679
0.0001706
0.000282813
3.41103e-05
0.000123985
-6.94921e-05
-2.37611e-05
0.000935645
0.000664563
0.00125554
0.00125625
0.0019751
0.00192762
0.00321283
0.00239543
0.00548913
0.00241495
0.00946767
0.00150337
0.0149345
-0.000673549
0.021332
-0.00532643
0.0272009
-0.0132526
0.0313472
-0.0241385
0.032971
-0.0378932
0.0316071
-0.0536398
0.0275912