/*--------------------------------*- C++ -*----------------------------------*\
| =========                 |                                                 |
| \\      /  F ield         | OpenFOAM: The Open Source CFD Toolbox           |
|  \\    /   O peration     | Version:  2506                                  |
|   \\  /    A nd           | Website:  www.openfoam.com                      |
|    \\/     M anipulation  |                                                 |
\*---------------------------------------------------------------------------*/
FoamFile
{
    version     2.0;
    format      ascii;
    arch        "LSB;label=32;scalar=64";
    class       surfaceScalarField;
    location    "79.990692747563429";
    object      phi_0;
}
// * * * * * * * * * * * * * * * * * * * * * * * * * * * * * * * * * * * * * //

dimensions      [0 3 -1 0 0 0 0];

oriented        oriented;

internalField   nonuniform List<scalar> 
19160
(
-0.000281911
-0.235584
-0.000567225
-0.235585
-0.000281467
-0.235303
-0.000853113
-0.235602
-0.000564015
-0.235303
-0.000281435
-0.235021
-0.00114526
-0.235598
-0.000844893
-0.235321
-0.000562637
-0.235021
-0.000282583
-0.234739
-0.00144435
-0.235611
-0.00112613
-0.235317
-0.000840766
-0.235043
-0.000563605
-0.23474
-0.000286032
-0.234453
-0.00175611
-0.235603
-0.00140692
-0.23533
-0.00111514
-0.235043
-0.000839343
-0.234767
-0.000569392
-0.234457
-0.000292756
-0.23416
-0.00208594
-0.235564
-0.00168911
-0.235321
-0.00138422
-0.235061
-0.00110714
-0.234775
-0.000845502
-0.234491
-0.000581893
-0.234168
-0.000303033
-0.233857
-0.00244336
-0.235517
-0.00197455
-0.235279
-0.00164707
-0.235058
-0.00136362
-0.234805
-0.00110989
-0.234511
-0.000862193
-0.234211
-0.000601814
-0.233869
-0.000317728
-0.233539
-0.00284113
-0.235399
-0.00226738
-0.235224
-0.00190292
-0.235023
-0.00160508
-0.234817
-0.00135747
-0.234557
-0.00112766
-0.234245
-0.000890822
-0.233922
-0.000630954
-0.233556
-0.000336937
-0.233202
-0.00329887
-0.235235
-0.00257391
-0.235092
-0.00215177
-0.234975
-0.00182724
-0.234801
-0.00158191
-0.234592
-0.00137174
-0.234313
-0.00116297
-0.233973
-0.000934274
-0.233619
-0.000669592
-0.233223
-0.000359795
-0.232842
-0.00384377
-0.234959
-0.00290452
-0.234904
-0.00239499
-0.234849
-0.00202531
-0.234777
-0.00177552
-0.234607
-0.00158575
-0.234378
-0.00141066
-0.234065
-0.00122006
-0.233687
-0.000993116
-0.233295
-0.000716044
-0.232867
-0.000386071
-0.232456
-0.00451481
-0.234536
-0.00327529
-0.234588
-0.00263548
-0.234663
-0.00219392
-0.23468
-0.00192868
-0.234624
-0.00175886
-0.234434
-0.00162347
-0.234165
-0.00148028
-0.233805
-0.00130001
-0.23338
-0.00106489
-0.232946
-0.000769835
-0.232483
-0.000414461
-0.232042
-0.00537295
-0.233936
-0.00370897
-0.234102
-0.00288016
-0.234344
-0.00232753
-0.23453
-0.00202942
-0.23458
-0.00187703
-0.234505
-0.00178814
-0.234269
-0.00170356
-0.233942
-0.00158252
-0.233523
-0.0013997
-0.233046
-0.0011488
-0.232567
-0.000828291
-0.232069
-0.000443741
-0.231598
-0.00651504
-0.233046
-0.00423614
-0.233409
-0.00314055
-0.233842
-0.00242063
-0.234251
-0.00206321
-0.234496
-0.00192195
-0.234535
-0.00188699
-0.234407
-0.00187516
-0.234098
-0.00182926
-0.233695
-0.00171376
-0.233209
-0.00151793
-0.232676
-0.00124066
-0.232155
-0.000888849
-0.231624
-0.000471529
-0.231126
-0.00811948
-0.231796
-0.0048989
-0.232383
-0.00343511
-0.233115
-0.00246851
-0.233794
-0.00201188
-0.234302
-0.00187031
-0.234548
-0.00189646
-0.234525
-0.00197508
-0.234307
-0.00202533
-0.233901
-0.0019968
-0.233412
-0.00187226
-0.232854
-0.00164877
-0.232268
-0.00133635
-0.231708
-0.000946577
-0.231149
-0.000496725
-0.23063
-0.0106753
-0.230221
-0.00574698
-0.230947
-0.00378829
-0.23203
-0.0024681
-0.233115
-0.00185407
-0.233952
-0.00169121
-0.234481
-0.00178555
-0.234659
-0.00197613
-0.234524
-0.00215001
-0.234182
-0.00223515
-0.233663
-0.00220378
-0.233081
-0.00205007
-0.232453
-0.00178616
-0.231818
-0.00142809
-0.231226
-0.000999087
-0.230647
-0.000517642
-0.230112
-0.0149025
-0.228499
-0.00701259
-0.228956
-0.00425579
-0.23048
-0.00242401
-0.232074
-0.00156457
-0.233405
-0.00134613
-0.234297
-0.00151205
-0.234755
-0.00184153
-0.234793
-0.00217472
-0.2345
-0.00240943
-0.234008
-0.00250147
-0.233365
-0.00243976
-0.232691
-0.00223861
-0.232
-0.00191895
-0.231328
-0.00151187
-0.230713
-0.00104282
-0.230122
-0.000531924
-0.22958
-0.0214063
-0.227134
-0.00917185
-0.226339
-0.00494844
-0.228263
-0.00235893
-0.230545
-0.00112601
-0.232513
-0.000788046
-0.233963
-0.00102204
-0.234787
-0.00152041
-0.235076
-0.00205974
-0.234908
-0.00249232
-0.234417
-0.00274934
-0.23376
-0.00281085
-0.232994
-0.00269289
-0.232237
-0.00242262
-0.231497
-0.00204092
-0.230799
-0.00158193
-0.230174
-0.00107288
-0.229581
-0.000539161
-0.229041
-0.0303663
-0.22692
-0.0129516
-0.223354
-0.00612173
-0.225166
-0.00233503
-0.228287
-0.000536437
-0.231135
2.38869e-05
-0.233325
-0.00025018
-0.234735
-0.000947425
-0.23536
-0.00174954
-0.235386
-0.00244487
-0.234956
-0.00292422
-0.234242
-0.00315267
-0.233418
-0.00314708
-0.23254
-0.00294271
-0.231717
-0.00259283
-0.230945
-0.00214353
-0.230237
-0.0016305
-0.229616
-0.00108832
-0.229032
-0.000538597
-0.228502
-0.0402972
-0.227485
-0.0194779
-0.220394
-0.00832089
-0.221155
-0.00248163
-0.22502
0.000186448
-0.22901
0.00112853
-0.232239
0.000868643
-0.234444
-4.53058e-05
-0.235637
-0.00117347
-0.235936
-0.00221236
-0.235618
-0.00299204
-0.234888
-0.00344898
-0.233945
-0.00359739
-0.232968
-0.00348294
-0.232
-0.00317558
-0.231134
-0.00273701
-0.230351
-0.00221555
-0.229652
-0.00165587
-0.229049
-0.00108754
-0.228483
-0.000529134
-0.227973
-0.0480139
-0.225566
-0.0289969
-0.217966
-0.012347
-0.216368
-0.00310179
-0.220535
0.000997217
-0.22583
0.00256188
-0.230443
0.00242392
-0.233795
0.00128061
-0.235769
-0.000248292
-0.236562
-0.00172741
-0.236421
-0.00290519
-0.235705
-0.00367476
-0.234662
-0.0040368
-0.233506
-0.00404734
-0.232403
-0.00379862
-0.231377
-0.00337434
-0.230497
-0.00283961
-0.229727
-0.0022541
-0.229054
-0.00165544
-0.228481
-0.00106829
-0.227944
-0.000511894
-0.227461
-0.0512611
-0.217626
-0.0394439
-0.215119
-0.0189946
-0.211319
-0.00484045
-0.214629
0.00174293
-0.22128
0.00434132
-0.22761
0.00452857
-0.232548
0.0031844
-0.235698
0.00114951
-0.237167
-0.000909077
-0.23738
-0.00260892
-0.236717
-0.00379591
-0.235584
-0.00445305
-0.234246
-0.00463962
-0.232914
-0.0044739
-0.231728
-0.00407015
-0.230681
-0.00351785
-0.229818
-0.00289598
-0.229085
-0.00225528
-0.228454
-0.00162573
-0.227924
-0.00103285
-0.227423
-0.0004874
-0.226974
-0.0506096
-0.202786
-0.047569
-0.209501
-0.0278936
-0.20622
-0.00860357
-0.207555
0.00202364
-0.21491
0.0063535
-0.223292
0.00725983
-0.230341
0.00587598
-0.235239
0.00325874
-0.237808
0.000401224
-0.238478
-0.00203118
-0.237958
-0.00377856
-0.236734
-0.0048308
-0.235206
-0.0052627
-0.233623
-0.00521614
-0.232172
-0.0048436
-0.230955
-0.00426898
-0.22993
-0.00359878
-0.229116
-0.00290055
-0.22844
-0.00221423
-0.227865
-0.00157024
-0.227386
-0.000982328
-0.226928
-0.000457142
-0.226517
-0.0472382
-0.183308
-0.051315
-0.19904
-0.0370655
-0.200329
-0.014958
-0.199865
0.00114709
-0.206679
0.00829512
-0.216851
0.010489
-0.226522
0.00947405
-0.233939
0.00638907
-0.23837
0.00252773
-0.239934
-0.000981678
-0.239527
-0.00356635
-0.23817
-0.00516245
-0.236403
-0.00592292
-0.234546
-0.00604408
-0.232795
-0.00571947
-0.231296
-0.00511786
-0.230106
-0.00438387
-0.229145
-0.00360931
-0.228407
-0.00284682
-0.227808
-0.00213581
-0.2273
-0.0014908
-0.226878
-0.000919809
-0.226465
-0.000422044
-0.226095
-0.041915
-0.162877
-0.0513422
-0.183281
-0.0439085
-0.192197
-0.0232403
-0.192046
-0.00182235
-0.196896
0.0097075
-0.208091
0.0139014
-0.220264
0.0137965
-0.230844
0.0106615
-0.238212
0.00585765
-0.2417
0.00093244
-0.241848
-0.00295302
-0.24014
-0.00541629
-0.237916
-0.0066405
-0.235685
-0.00698535
-0.233605
-0.00673102
-0.231783
-0.00609726
-0.230316
-0.00527974
-0.22921
-0.0044039
-0.22835
-0.00354103
-0.227713
-0.0027412
-0.227202
-0.00202276
-0.226768
-0.00139232
-0.226405
-0.000847283
-0.22604
-0.000384705
-0.22571
-0.0378047
-0.0980607
-0.0493443
-0.164875
-0.0470604
-0.180129
-0.0314651
-0.183972
-0.00728775
-0.186581
0.00987949
-0.197068
0.0171084
-0.211298
0.0184885
-0.224956
0.0158117
-0.235994
0.0104679
-0.242822
0.00412668
-0.244894
-0.00151341
-0.243288
-0.00540316
-0.240154
-0.00741896
-0.237138
-0.00808513
-0.234585
-0.00792389
-0.232412
-0.00725183
-0.230629
-0.0063242
-0.229272
-0.00531411
-0.2283
-0.0043184
-0.227573
-0.0034022
-0.227052
-0.00258773
-0.226637
-0.0018822
-0.226278
-0.00127812
-0.225974
-0.000770119
-0.225654
-0.000347046
-0.225363
-0.0335355
-0.0906437
-0.0471108
-0.100294
-0.0472337
-0.164702
-0.0375161
-0.174078
-0.0145821
-0.176678
0.00804107
-0.184743
0.0196787
-0.199638
0.0231471
-0.215957
0.0214877
-0.230632
0.0160077
-0.241534
0.00861005
-0.247305
0.0011247
-0.247532
-0.00473077
-0.24396
-0.0081302
-0.239442
-0.00938928
-0.235834
-0.009362
-0.233147
-0.00864042
-0.231023
-0.00756902
-0.229384
-0.00637937
-0.228207
-0.00520759
-0.22741
-0.00413797
-0.226837
-0.00319865
-0.226441
-0.00239626
-0.226123
-0.00171919
-0.225837
-0.00115664
-0.225588
-0.00069233
-0.225309
-0.000310518
-0.225053
-0.0293304
-0.0844658
-0.0445583
-0.0931962
-0.0463402
-0.101188
-0.0407221
-0.161496
-0.0217196
-0.16694
0.00359261
-0.172229
0.0209755
-0.186039
0.0274475
-0.203938
0.0272799
-0.221749
0.0222071
-0.236831
0.0139933
-0.246917
0.00493337
-0.251114
-0.00308564
-0.249177
-0.00848756
-0.243603
-0.01087
-0.237962
-0.0111324
-0.234063
-0.0103381
-0.23145
-0.0090808
-0.229512
-0.0076536
-0.22811
-0.00624617
-0.227168
-0.00497388
-0.226575
-0.00387102
-0.226165
-0.0029438
-0.225893
-0.00217422
-0.225668
-0.0015458
-0.225448
-0.00103428
-0.225246
-0.000616996
-0.225003
-0.000277506
-0.224775
-0.025486
-0.0797954
-0.0419609
-0.0870632
-0.0449457
-0.0945907
-0.0416187
-0.100291
-0.0270544
-0.156161
-0.00249809
-0.16085
0.0202145
-0.171468
0.0310147
-0.189607
0.0328567
-0.209515
0.0286944
-0.228236
0.0201513
-0.242989
0.0095721
-0.251556
-0.000459475
-0.25374
-0.00826395
-0.249401
-0.0123996
-0.242073
-0.0133261
-0.235768
-0.0124635
-0.231938
-0.0109384
-0.229592
-0.00920542
-0.22796
-0.00748526
-0.226871
-0.00594273
-0.226199
-0.00462518
-0.22582
-0.00353571
-0.225573
-0.00264837
-0.225419
-0.00193807
-0.225276
-0.0013713
-0.225111
-0.00091604
-0.224947
-0.000549044
-0.224731
-0.000249397
-0.224526
-0.0224665
-0.0768102
-0.0395757
-0.0821806
-0.0433504
-0.0886586
-0.0416102
-0.0945992
-0.0296252
-0.0977202
-0.0084803
-0.150179
0.0171363
-0.157772
0.0333392
-0.173793
0.0379456
-0.194696
0.035136
-0.215957
0.0267759
-0.234861
0.0150722
-0.248489
0.00289932
-0.254915
-0.00726388
-0.25474
-0.0138266
-0.247974
-0.0159798
-0.23942
-0.015221
-0.23301
-0.0132747
-0.229602
-0.0111108
-0.227687
-0.00898964
-0.226455
-0.00708862
-0.225725
-0.00548694
-0.225337
-0.00418612
-0.22517
-0.00314734
-0.225074
-0.00233427
-0.225023
-0.00170067
-0.224947
-0.00120312
-0.224824
-0.000809651
-0.224686
-0.000491377
-0.224489
-0.000227517
-0.224298
-0.0204499
-0.0752843
-0.0377208
-0.0786651
-0.0417955
-0.0837354
-0.0410175
-0.0892512
-0.0309845
-0.0932398
-0.0122493
-0.0939512
0.0125941
-0.145637
0.0337932
-0.158226
0.0423001
-0.178147
0.0412497
-0.200809
0.0335829
-0.222764
0.0212091
-0.240998
0.007149
-0.252739
-0.00550081
-0.256678
-0.0148362
-0.253731
-0.0189733
-0.24498
-0.0188104
-0.23583
-0.0163759
-0.229909
-0.0134946
-0.227218
-0.0108274
-0.225849
-0.00846749
-0.225077
-0.0064904
-0.224721
-0.00491246
-0.224611
-0.00367837
-0.224639
-0.00273473
-0.224673
-0.00201895
-0.224704
-0.0014726
-0.224677
-0.00105224
-0.224581
-0.000719749
-0.224458
-0.000446736
-0.22427
-0.00021229
-0.224086
-0.0195568
-0.0751655
-0.0363773
-0.0766278
-0.0404071
-0.0800535
-0.0400855
-0.0846675
-0.0314577
-0.088778
-0.0147817
-0.0907075
0.00863966
-0.0899967
0.0323137
-0.144157
0.0455188
-0.161444
0.0468051
-0.183703
0.0402686
-0.207495
0.0277803
-0.229335
0.0121974
-0.246046
-0.00293033
-0.255309
-0.0148414
-0.256673
-0.0219875
-0.250716
-0.0231654
-0.240625
-0.0206088
-0.231597
-0.0166686
-0.226735
-0.0130971
-0.224948
-0.0101362
-0.22418
-0.00767862
-0.223888
-0.00573715
-0.223896
-0.00424985
-0.22404
-0.00313967
-0.224234
-0.00232122
-0.224371
-0.00171707
-0.22446
-0.00126868
-0.224461
-0.000925427
-0.224375
-0.000650658
-0.224254
-0.000416031
-0.224066
-0.000204347
-0.223881
-0.0197023
-0.0763626
-0.0355597
-0.0759831
-0.0392672
-0.0777678
-0.0389713
-0.0811677
-0.0312341
-0.0848911
-0.0161487
-0.087411
0.00543768
-0.0875055
0.0295449
-0.087228
0.0472637
-0.145902
0.0516187
-0.166258
0.0465346
-0.189969
0.0344783
-0.214193
0.0178846
-0.235022
0.000446243
-0.249423
-0.0142303
-0.255921
-0.024281
-0.254379
-0.0279412
-0.245941
-0.0260494
-0.235185
-0.0211298
-0.227136
-0.0160733
-0.223759
-0.0121608
-0.222924
-0.00909506
-0.222764
-0.00668793
-0.222938
-0.00487205
-0.223274
-0.00354843
-0.223631
-0.00260095
-0.223954
-0.00192685
-0.224161
-0.00144816
-0.22428
-0.00109834
-0.224288
-0.000828869
-0.224197
-0.000603921
-0.224066
-0.000400518
-0.22387
-0.000203422
-0.223678
-0.0206424
-0.0787316
-0.0350961
-0.0768262
-0.0382432
-0.0770071
-0.0376912
-0.0790479
-0.0303998
-0.082002
-0.0165027
-0.0845371
0.0033381
-0.0853114
0.0267484
-0.084709
0.0465436
-0.0865078
0.0554572
-0.149741
0.0522456
-0.171969
0.0410092
-0.1965
0.0239452
-0.220253
0.00458856
-0.239165
-0.0130201
-0.250633
-0.0259818
-0.25422
-0.0326458
-0.249675
-0.0323413
-0.239649
-0.0271521
-0.229162
-0.0202982
-0.222911
-0.0147348
-0.221185
-0.0107763
-0.221242
-0.00779274
-0.221659
-0.00555658
-0.222253
-0.00395949
-0.222863
-0.00284888
-0.223383
-0.00208923
-0.223792
-0.00157693
-0.224033
-0.00122507
-0.224154
-0.000970064
-0.224147
-0.000764989
-0.224036
-0.000581447
-0.223885
-0.000399635
-0.223674
-0.00020844
-0.22347
-0.0219457
-0.0822926
-0.0347308
-0.0790968
-0.03723
-0.0778394
-0.0361716
-0.0785266
-0.0289912
-0.0804565
-0.0159565
-0.0825483
0.00234368
-0.0835426
0.0245067
-0.0830697
0.0453088
-0.0834743
0.0566522
-0.0877028
0.0571289
-0.154624
0.0471863
-0.178146
0.0301821
-0.202737
0.00934919
-0.225014
-0.0109366
-0.241248
-0.0270601
-0.249555
-0.0367991
-0.250066
-0.0389088
-0.243107
-0.0344567
-0.232344
-0.0262446
-0.223216
-0.018345
-0.219301
-0.012824
-0.219137
-0.00906569
-0.219969
-0.00631424
-0.220901
-0.00436903
-0.221844
-0.00305253
-0.22266
-0.0021872
-0.223285
-0.00163696
-0.223732
-0.00128863
-0.223969
-0.00105909
-0.224065
-0.000887495
-0.224024
-0.000736399
-0.223881
-0.000582352
-0.223702
-0.00041118
-0.223471
-0.000218498
-0.223251
-0.0229036
-0.133201
-0.0342534
-0.0827701
-0.0359762
-0.0803506
-0.0342473
-0.0797637
-0.0270106
-0.0805073
-0.0145985
-0.0818145
0.0024463
-0.0826509
0.0231095
-0.0821454
0.0439392
-0.0817001
0.0573604
-0.0841825
0.0593876
-0.0899616
0.0526221
-0.16006
0.0362948
-0.184259
0.0146301
-0.208018
-0.00802026
-0.22793
-0.0272664
-0.241042
-0.0401133
-0.24624
-0.0451732
-0.243802
-0.0423913
-0.235172
-0.0338549
-0.224734
-0.0235957
-0.217965
-0.015588
-0.216537
-0.0105345
-0.217668
-0.00714165
-0.219142
-0.00477038
-0.2205
-0.00319421
-0.221702
-0.00219848
-0.222648
-0.0016046
-0.223317
-0.00126685
-0.223754
-0.00107685
-0.223951
-0.000955612
-0.223997
-0.000854028
-0.223906
-0.000741853
-0.223722
-0.000603209
-0.22351
-0.000433238
-0.223256
-0.000231907
-0.223019
-0.0224226
-0.147881
-0.0321135
-0.135341
-0.034239
-0.0845072
-0.0318331
-0.0827649
-0.0244739
-0.0823003
-0.0125243
-0.0825815
0.00352922
-0.0828974
0.0228048
-0.0823462
0.0428129
-0.0810191
0.0576456
-0.0819853
0.0611731
-0.085968
0.0557323
-0.0930718
0.0417862
-0.165551
0.0199428
-0.189571
-0.00433086
-0.211707
-0.0265515
-0.228645
-0.0426519
-0.238503
-0.050675
-0.240739
-0.050296
-0.235897
-0.0425533
-0.226474
-0.0307245
-0.217605
-0.0196717
-0.213881
-0.0123814
-0.21469
-0.00802183
-0.216788
-0.00514406
-0.218768
-0.00325066
-0.220443
-0.00209333
-0.221807
-0.00144911
-0.222804
-0.00113076
-0.223453
-0.000998329
-0.223832
-0.00094938
-0.223957
-0.000918941
-0.223932
-0.000868013
-0.22378
-0.00077656
-0.223548
-0.000640865
-0.223303
-0.000462295
-0.223026
-0.000246964
-0.222772
-0.020301
-0.165358
-0.0283741
-0.15162
-0.0300066
-0.139574
-0.0289165
-0.0874239
-0.0214349
-0.0858038
-0.00981457
-0.08501
0.00543267
-0.0844849
0.0234607
-0.0835532
0.0424583
-0.0819917
0.0575423
-0.0809158
0.06245
-0.0832622
0.0584679
-0.0887036
0.0454525
-0.0967381
0.02494
-0.170548
-0.000421008
-0.193481
-0.0249817
-0.213277
-0.0442968
-0.227
-0.0554244
-0.233754
-0.0576658
-0.233369
-0.0515822
-0.226869
-0.0393815
-0.217817
-0.0255614
-0.211715
-0.0150724
-0.211191
-0.00899544
-0.213716
-0.00545153
-0.216481
-0.00318631
-0.218833
-0.00183359
-0.220703
-0.00113043
-0.222126
-0.000842778
-0.223092
-0.000790827
-0.223661
-0.000842551
-0.223939
-0.000911667
-0.223965
-0.000946993
-0.223853
-0.000923103
-0.223634
-0.000835767
-0.223353
-0.000689709
-0.223075
-0.000494776
-0.222778
-0.000261338
-0.222511
-0.0166333
-0.18424
-0.0230365
-0.170696
-0.0243929
-0.157234
-0.0234872
-0.145003
-0.0179415
-0.0909173
-0.00656939
-0.089049
0.00799074
-0.0875681
0.0249546
-0.0859789
0.0427356
-0.0838306
0.0575429
-0.0819922
0.0633062
-0.081772
0.0607354
-0.0855298
0.0488035
-0.0920546
0.0290075
-0.100806
0.00359682
-0.174566
-0.0228219
-0.195641
-0.0450351
-0.212539
-0.059275
-0.22315
-0.0642538
-0.227166
-0.0602732
-0.224678
-0.0488157
-0.217434
-0.0332483
-0.21013
-0.0191839
-0.207604
-0.01032
-0.209866
-0.00564758
-0.21352
-0.00295026
-0.216717
-0.00136831
-0.219298
-0.000597434
-0.221236
-0.000354253
-0.222614
-0.000411838
-0.223471
-0.000600622
-0.223903
-0.00080646
-0.224044
-0.000961224
-0.223951
-0.00103163
-0.223744
-0.00101245
-0.223457
-0.00091134
-0.223132
-0.00074397
-0.222826
-0.000525824
-0.222514
-0.000273505
-0.222237
-0.0119383
-0.202459
-0.0167779
-0.190499
-0.0179483
-0.177141
-0.0171476
-0.163573
-0.012165
-0.150779
-0.00297926
-0.0945074
0.0110826
-0.0921409
0.0270865
-0.0897
0.043671
-0.0869142
0.0576947
-0.0839824
0.0636018
-0.0822878
0.0626178
-0.0836543
0.0517681
-0.0884943
0.0327705
-0.0958176
0.00785576
-0.105065
-0.019944
-0.177444
-0.0447158
-0.19596
-0.0621185
-0.209695
-0.0698813
-0.217522
-0.0681904
-0.219249
-0.0582184
-0.215275
-0.0421743
-0.208508
-0.025045
-0.204269
-0.0124703
-0.205453
-0.00580217
-0.209711
-0.00246104
-0.214009
-0.000633685
-0.217451
0.000214849
-0.22011
0.000397006
-0.221987
0.000193958
-0.22322
-0.000178511
-0.223893
-0.000569213
-0.22414
-0.000887305
-0.224118
-0.00108787
-0.223894
-0.00116323
-0.223593
-0.00112477
-0.223244
-0.000994766
-0.222881
-0.000795903
-0.222556
-0.000552193
-0.222235
-0.000281773
-0.221956
-0.00691937
-0.21821
-0.0103174
-0.208919
-0.0113465
-0.197101
-0.0103916
-0.183897
-0.00590427
-0.169834
0.00247532
-0.156234
0.0143887
-0.0978135
0.0296314
-0.0946858
0.0450848
-0.0911138
0.0581008
-0.0873203
0.0638562
-0.0842368
0.0636886
-0.0833587
0.054343
-0.0862293
0.0360866
-0.0918104
0.0118485
-0.0998103
-0.015829
-0.10918
-0.043132
-0.179028
-0.0636495
-0.194429
-0.0744117
-0.205165
-0.0750734
-0.210639
-0.06697
-0.210497
-0.0515284
-0.205921
-0.0324497
-0.201104
-0.0159478
-0.200792
-0.00617316
-0.205082
-0.00167219
-0.2105
0.000462419
-0.215106
0.00138625
-0.218623
0.0014888
-0.221202
0.00109765
-0.222891
0.000483207
-0.223882
-0.000154959
-0.224307
-0.000693963
-0.224333
-0.00107263
-0.224133
-0.00127834
-0.223779
-0.00132654
-0.223392
-0.00124804
-0.22299
-0.00107482
-0.222602
-0.000840206
-0.222268
-0.000570329
-0.221946
-0.00028431
-0.221671
-0.00220692
-0.22988
-0.00433995
-0.224188
-0.00503492
-0.215231
-0.00386641
-0.203626
0.000377207
-0.190178
0.00804496
-0.175404
0.0188738
-0.160719
0.0323086
-0.100491
0.0467242
-0.0963252
0.0586537
-0.0916667
0.0639547
-0.0874188
0.0642104
-0.0847585
0.0563878
-0.0854035
0.0388611
-0.0890037
0.0153589
-0.0953208
-0.0119023
-0.103737
-0.0397319
-0.11258
-0.0637985
-0.178879
-0.0776733
-0.191168
-0.0807239
-0.199514
-0.0746742
-0.202935
-0.0605427
-0.201483
-0.0407845
-0.197586
-0.0209253
-0.196126
-0.00719718
-0.199767
-0.00063081
-0.206124
0.00201998
-0.212058
0.00301591
-0.216735
0.00301849
-0.220152
0.00238909
-0.222494
0.00146158
-0.223869
0.000496465
-0.224533
-0.000339468
-0.224662
-0.000960064
-0.224446
-0.00134447
-0.224067
-0.00151221
-0.223594
-0.00150488
-0.223135
-0.00136668
-0.222698
-0.00114354
-0.222299
-0.00087117
-0.221967
-0.000576424
-0.221654
-0.000280599
-0.221391
0.00175407
-0.236676
0.000719871
-0.234939
0.000479955
-0.229702
0.00198695
-0.221084
0.00610457
-0.209353
0.0131246
-0.195258
0.0231808
-0.179711
0.035298
-0.163708
0.0483813
-0.102148
0.0591836
-0.0968551
0.0639658
-0.0916778
0.0643484
-0.0875568
0.057668
-0.0860387
0.0410633
-0.0876058
0.018268
-0.0919129
-0.00848277
-0.0987403
-0.0363599
-0.107109
-0.0615542
-0.114824
-0.0796644
-0.176888
-0.0849318
-0.18696
-0.0810556
-0.193133
-0.0686676
-0.19481
-0.0492645
-0.193003
-0.0271445
-0.191367
-0.00928528
-0.194038
0.000439539
-0.200838
0.00411831
-0.208222
0.0052284
-0.21427
0.00510015
-0.218817
0.00418286
-0.221946
0.00285656
-0.223889
0.00146417
-0.224837
0.000232831
-0.225105
-0.000715128
-0.224907
-0.00134351
-0.224447
-0.00167572
-0.223904
-0.00176669
-0.223332
-0.00167706
-0.222824
-0.00146921
-0.222373
-0.00119255
-0.221977
-0.000882758
-0.221661
-0.000569373
-0.221365
-0.000270055
-0.221121
0.0047662
-0.239667
0.00451993
-0.240476
0.004849
-0.239309
0.00668681
-0.234402
0.0107385
-0.225718
0.0173898
-0.213619
0.0265855
-0.198662
0.0376765
-0.18209
0.0495113
-0.164838
0.059511
-0.102475
0.0638039
-0.0966932
0.0641415
-0.091471
0.0581363
-0.0880251
0.0425332
-0.0875086
0.0204785
-0.0898163
-0.00562267
-0.094773
-0.0332334
-0.101867
-0.0589809
-0.109682
-0.0787507
-0.115738
-0.087816
-0.174004
-0.0859423
-0.182073
-0.0755713
-0.186229
-0.0572234
-0.186851
-0.0340137
-0.186134
-0.0125044
-0.188148
0.00111915
-0.194718
0.00672777
-0.203447
0.00814651
-0.21114
0.00787888
-0.217049
0.00661678
-0.221251
0.00479848
-0.223888
0.00285448
-0.225279
0.001099
-0.225703
-0.000289618
-0.225531
-0.00125052
-0.225
-0.0018086
-0.224314
-0.00203532
-0.223635
-0.00201314
-0.222996
-0.0018268
-0.222467
-0.00154379
-0.222022
-0.00121312
-0.221647
-0.000873159
-0.221357
-0.000547979
-0.221087
-0.000252902
-0.220868
0.00669489
-0.239253
0.0070049
-0.242152
0.00777382
-0.243401
0.00994046
-0.242562
0.0139784
-0.237642
0.0203018
-0.22863
0.0288458
-0.215879
0.0390437
-0.20003
0.0496855
-0.182264
0.0587885
-0.164116
0.0633784
-0.10205
0.0635255
-0.0960771
0.0577467
-0.0910814
0.0431357
-0.0886276
0.0219037
-0.0889338
-0.00348295
-0.091956
-0.0305851
-0.0974213
-0.0563856
-0.104462
-0.0772248
-0.111208
-0.088213
-0.115341
-0.0892119
-0.170734
-0.0811837
-0.176461
-0.0641815
-0.179271
-0.0408988
-0.179966
-0.0166523
-0.181986
0.00118614
-0.188215
0.00962926
-0.197619
0.0118432
-0.207144
0.0114823
-0.214744
0.00985691
-0.220289
0.00745075
-0.223903
0.00480951
-0.225843
0.00236526
-0.226545
0.00038303
-0.226376
-0.00103058
-0.225751
-0.00189883
-0.224909
-0.00231304
-0.224036
-0.00238472
-0.223264
-0.00222872
-0.222594
-0.00193771
-0.222073
-0.00157837
-0.221656
-0.00120251
-0.221318
-0.000840515
-0.221065
-0.00051273
-0.220828
-0.000229376
-0.220638
0.00758482
-0.237394
0.00831134
-0.240559
0.00929592
-0.243674
0.0117057
-0.245166
0.0156591
-0.244243
0.0215838
-0.238924
0.0296533
-0.229438
0.0390134
-0.215849
0.0487741
-0.199118
0.0571329
-0.180608
0.06182
-0.162557
0.0623181
-0.100842
0.056513
-0.0948433
0.0427331
-0.0906788
0.0224057
-0.0891297
-0.00217324
-0.0902435
-0.0285962
-0.0939449
-0.054053
-0.0997539
-0.0753192
-0.106368
-0.0879847
-0.111436
-0.0902817
-0.114271
-0.0853994
-0.166518
-0.0700382
-0.170604
-0.0471423
-0.173027
-0.0213297
-0.175289
0.000464065
-0.181264
0.0125655
-0.191151
0.0163066
-0.202083
0.0160257
-0.211687
0.0140366
-0.218923
0.0109953
-0.223834
0.00750966
-0.226603
0.00417649
-0.227654
0.00139984
-0.227562
-0.000633245
-0.226773
-0.00192912
-0.225721
-0.0026026
-0.22462
-0.00280486
-0.223616
-0.00269188
-0.2228
-0.00239084
-0.222141
-0.00199342
-0.221658
-0.0015689
-0.22129
-0.00115809
-0.221
-0.000785639
-0.220792
-0.000464175
-0.220593
-0.000200972
-0.220437
0.00775594
-0.235922
0.00866428
-0.237747
0.00978007
-0.241043
0.0121466
-0.244115
0.0160276
-0.245535
0.0214813
-0.24414
0.0287744
-0.238045
0.0374411
-0.227865
0.0464183
-0.213493
0.0542268
-0.196212
0.0590323
-0.17782
0.059552
-0.159791
0.0544001
-0.0987294
0.0412776
-0.0933879
0.0218998
-0.0901728
-0.00178117
-0.0895217
-0.0273659
-0.0914738
-0.0521961
-0.0958018
-0.0733104
-0.101763
-0.0871444
-0.107208
-0.0906494
-0.111069
-0.0877898
-0.111881
-0.0745355
-0.162021
-0.0525225
-0.165224
-0.0259097
-0.168447
-0.000962094
-0.173863
0.0151941
-0.183892
0.0213222
-0.196167
0.0215493
-0.207606
0.0192716
-0.216922
0.0155787
-0.223507
0.0111399
-0.227464
0.00670977
-0.229137
0.00289245
-0.229147
1.73474e-05
-0.228212
-0.00187194
-0.22683
-0.00290701
-0.225416
-0.00329131
-0.224133
-0.00323913
-0.223069
-0.00292577
-0.222265
-0.00247745
-0.221657
-0.00198807
-0.221239
-0.00151185
-0.220936
-0.00108108
-0.220705
-0.000709513
-0.220546
-0.000405434
-0.220388
-0.000169102
-0.220268
0.00755998
-0.235342
0.00843416
-0.235692
0.00955286
-0.23752
0.011585
-0.240481
0.0150214
-0.243109
0.0199665
-0.24402
0.026379
-0.241745
0.0342647
-0.234869
0.0424378
-0.223885
0.049776
-0.209042
0.0545918
-0.191772
0.0553395
-0.173608
0.0507201
-0.156111
0.0386914
-0.0961432
0.0202933
-0.0917814
-0.00235286
-0.0896011
-0.0269347
-0.0899529
-0.0508578
-0.0928121
-0.0714453
-0.0976669
-0.0857826
-0.103124
-0.0905036
-0.107354
-0.0891789
-0.10968
-0.0779084
-0.108508
-0.0567506
-0.157793
-0.0299702
-0.161163
-0.00286462
-0.166545
0.0174021
-0.176071
0.0265851
-0.189155
0.0279266
-0.202544
0.0256004
-0.213935
0.0213148
-0.222658
0.0158626
-0.228229
0.0101354
-0.23089
0.00500585
-0.23125
0.00101909
-0.230149
-0.00168274
-0.228402
-0.00322628
-0.226511
-0.0038679
-0.22484
-0.00390178
-0.223471
-0.00357302
-0.222422
-0.00305664
-0.221686
-0.00248022
-0.221164
-0.00191708
-0.220833
-0.00140904
-0.220608
-0.000973129
-0.220441
-0.000617122
-0.220335
-0.000339477
-0.220218
-0.000135239
-0.220133
0.00718998
-0.235199
0.00796638
-0.234874
0.00899124
-0.23513
0.0106273
-0.236562
0.0132861
-0.238746
0.0173393
-0.240481
0.0227402
-0.240381
0.0294953
-0.236976
0.0369695
-0.229401
0.0437133
-0.217822
0.0484433
-0.202894
0.0495409
-0.185973
0.045604
-0.168492
0.0351171
-0.152537
0.0175148
-0.0933648
-0.00395198
-0.0901823
-0.0272776
-0.0892582
-0.050033
-0.0907777
-0.0697311
-0.0945263
-0.0839573
-0.0994922
-0.0898612
-0.103767
-0.0896469
-0.106886
-0.0801646
-0.107423
-0.0609139
-0.104344
-0.0334362
-0.154327
-0.00461286
-0.159415
0.0189263
-0.168069
0.0318968
-0.181383
0.0349523
-0.196181
0.0329282
-0.209872
0.028254
-0.220874
0.021828
-0.228624
0.0146437
-0.232738
0.00788406
-0.233768
0.00245664
-0.232687
-0.00132014
-0.230511
-0.00355765
-0.22807
-0.00456416
-0.225815
-0.00472261
-0.224019
-0.00437455
-0.222669
-0.00376631
-0.221712
-0.00307277
-0.221094
-0.00239327
-0.220688
-0.00178308
-0.220459
-0.00126305
-0.220318
-0.000841476
-0.220217
-0.00051325
-0.220161
-0.000269401
-0.220084
-0.000101501
-0.220032
0.00671345
-0.235127
0.00740876
-0.234642
0.00832283
-0.234206
0.00964313
-0.234146
0.0116049
-0.234881
0.0145892
-0.235996
0.0187656
-0.236507
0.0241851
-0.235071
0.0304634
-0.230469
0.0364541
-0.222141
0.0408843
-0.210263
0.0422409
-0.195594
0.0391424
-0.179512
0.0302213
-0.163596
0.0148003
-0.149822
-0.00641518
-0.0909016
-0.0283083
-0.0891515
-0.049607
-0.0896842
-0.0681571
-0.0923517
-0.0819299
-0.0965537
-0.0886971
-0.100656
-0.0892067
-0.104207
-0.0812937
-0.105757
-0.0638155
-0.104522
-0.0381806
-0.0996001
-0.0063722
-0.152567
0.0202545
-0.160743
0.0368321
-0.173004
0.0423755
-0.188806
0.0410724
-0.204325
0.0362829
-0.217901
0.0291142
-0.22816
0.0204659
-0.234446
0.0117743
-0.236628
0.00445244
-0.235764
-0.000780829
-0.233227
-0.0039306
-0.230138
-0.00542264
-0.227212
-0.00575901
-0.224779
-0.005388
-0.223005
-0.0046549
-0.221781
-0.00380255
-0.220982
-0.00296668
-0.22052
-0.00222043
-0.220251
-0.00159011
-0.220132
-0.00108401
-0.220076
-0.000693169
-0.220037
-0.000402913
-0.220027
-0.00019961
-0.219986
-6.96004e-05
-0.219962
0.00615677
-0.235034
0.00680279
-0.234521
0.00762423
-0.233943
0.00872346
-0.233286
0.0102199
-0.232761
0.0123307
-0.232622
0.0152878
-0.232518
0.0192439
-0.231565
0.0240484
-0.228656
0.0288903
-0.222906
0.0326878
-0.213945
0.0340845
-0.202107
0.0316866
-0.188138
0.0243385
-0.173629
0.0112368
-0.160032
-0.00736898
-0.148869
-0.0296512
-0.0895587
-0.0493576
-0.0894009
-0.0665755
-0.0912659
-0.0796273
-0.0946543
-0.0868859
-0.0983649
-0.0879938
-0.101869
-0.0813571
-0.104144
-0.0655452
-0.104027
-0.0415721
-0.10113
-0.0112212
-0.094751
0.0212158
-0.153529
0.0413104
-0.165221
0.0498318
-0.180461
0.0497435
-0.197477
0.0451536
-0.213195
0.0375387
-0.226325
0.027693
-0.235388
0.0169956
-0.239667
0.00734194
-0.239517
5.07509e-05
-0.236595
-0.00442188
-0.232735
-0.00654195
-0.229019
-0.00709512
-0.225876
-0.00669333
-0.223473
-0.00578897
-0.221871
-0.00471976
-0.220863
-0.00367243
-0.220276
-0.0027441
-0.219997
-0.00196798
-0.219873
-0.00135208
-0.219864
-0.000881891
-0.219887
-0.000535637
-0.219904
-0.000293101
-0.219934
-0.000133753
-0.219922
-4.12174e-05
-0.219921
0.00554256
-0.234971
0.00616163
-0.234393
0.00691531
-0.233812
0.00785656
-0.233076
0.00906762
-0.232134
0.0106339
-0.231064
0.0126708
-0.230005
0.0153466
-0.228621
0.0186568
-0.226174
0.0221433
-0.221909
0.0249922
-0.21521
0.0260959
-0.205956
0.0242056
-0.194626
0.0181527
-0.181952
0.0072865
-0.169679
-0.00853094
-0.15887
-0.0280594
-0.15046
-0.0490125
-0.0899038
-0.0648493
-0.0911271
-0.0771273
-0.0937659
-0.0845308
-0.0970093
-0.0860947
-0.100264
-0.0805116
-0.102715
-0.0662987
-0.10339
-0.0438274
-0.101772
-0.0148428
-0.0975088
0.0174341
-0.0909694
0.0454705
-0.157689
0.0568803
-0.17227
0.0586147
-0.189332
0.0545321
-0.206855
0.0467807
-0.222437
0.0360134
-0.234646
0.0235924
-0.241984
0.0114749
-0.2438
0.00158327
-0.24105