/*--------------------------------*- C++ -*----------------------------------*\
| =========                 |                                                 |
| \\      /  F ield         | OpenFOAM: The Open Source CFD Toolbox           |
|  \\    /   O peration     | Version:  2506                                  |
|   \\  /    A nd           | Website:  www.openfoam.com                      |
|    \\/     M anipulation  |                                                 |
\*---------------------------------------------------------------------------*/
FoamFile
{
    version     2.0;
    format      ascii;
    arch        "LSB;label=32;scalar=64";
    class       volVectorField;
    location    "79.990692747563429";
    object      U;
}
// * * * * * * * * * * * * * * * * * * * * * * * * * * * * * * * * * * * * * //

dimensions      [0 1 -1 0 0 0 0];

internalField   nonuniform List<vector> 
9700
(
(1.1141 0.000686434 4.40398e-22)
(1.11417 0.00223299 -8.89063e-25)
(1.11198 0.000682136 2.97242e-28)
(1.1142 0.00365294 -5.77313e-22)
(1.11204 0.00223011 -1.43767e-24)
(1.11094 0.000683091 -4.35964e-22)
(1.11426 0.00517944 -5.12055e-24)
(1.11207 0.00362827 -4.52168e-35)
(1.111 0.00223345 -4.36445e-22)
(1.10952 0.000688384 0)
(1.11429 0.00667253 4.50666e-22)
(1.1121 0.00511888 4.03601e-24)
(1.11104 0.00362648 -3.24324e-21)
(1.10958 0.00224705 -2.26736e-23)
(1.1082 0.000701357 4.27115e-22)
(1.11429 0.00824314 4.68594e-22)
(1.1121 0.00653698 -1.99283e-27)
(1.11109 0.00509717 -4.52124e-22)
(1.10965 0.00364032 1.01747e-34)
(1.10827 0.00227996 4.32031e-22)
(1.10681 0.00072361 5.45719e-28)
(1.11422 0.00985607 6.90162e-23)
(1.11204 0.00798568 2.93507e-27)
(1.11113 0.00647395 -4.55658e-22)
(1.10973 0.00509414 6.27659e-23)
(1.10837 0.00368969 3.14911e-21)
(1.1069 0.00233833 -3.72532e-24)
(1.10539 0.000756478 -4.16745e-22)
(1.11404 0.0115817 6.96426e-22)
(1.11188 0.00940717 1.09518e-22)
(1.11111 0.00784887 -4.36904e-22)
(1.1098 0.00643009 0)
(1.1085 0.00514311 4.15991e-22)
(1.10704 0.003784 -1.50468e-35)
(1.1055 0.00242759 -4.14669e-22)
(1.1039 0.000800348 -3.47426e-21)
(1.11367 0.0134473 -1.2666e-22)
(1.11155 0.0108487 -9.56177e-22)
(1.11099 0.00915234 -3.14328e-22)
(1.10984 0.00772641 0)
(1.10865 0.00645863 4.15716e-22)
(1.10724 0.00525892 9.90467e-24)
(1.10569 0.003933 -2.82269e-25)
(1.10403 0.0025505 -4.01538e-21)
(1.10232 0.000854696 -3.71616e-25)
(1.11305 0.0155447 -7.17957e-22)
(1.11096 0.0123069 -2.4058e-22)
(1.11072 0.0104125 -5.15824e-21)
(1.10979 0.00889957 -2.66343e-37)
(1.1088 0.00770052 4.49538e-22)
(1.10749 0.00658074 -5.00114e-27)
(1.10596 0.00545767 -4.30782e-22)
(1.10426 0.00414127 -5.39648e-22)
(1.10247 0.00270716 4.40581e-22)
(1.10064 0.00091794 3.42027e-21)
(1.11204 0.0179714 5.93369e-22)
(1.10998 0.0138293 3.12287e-23)
(1.11018 0.011604 1.01536e-21)
(1.1096 0.00995502 8.78864e-23)
(1.10889 0.00877261 6.27309e-22)
(1.10776 0.00780122 7.08958e-27)
(1.10632 0.00682093 -4.2974e-22)
(1.10462 0.00574754 -3.99925e-21)
(1.10275 0.0044089 5.35235e-22)
(1.10081 0.00289434 3.54445e-21)
(1.09884 0.000987537 0)
(1.11052 0.0208978 4.44598e-23)
(1.10846 0.0154595 4.47202e-23)
(1.10926 0.0127398 4.19993e-21)
(1.10916 0.0108398 3.98665e-22)
(1.10887 0.00965837 4.7143e-21)
(1.10804 0.0088133 2.62689e-22)
(1.10676 0.00806535 -3.96854e-22)
(1.10511 0.00719236 -3.56754e-21)
(1.1032 0.00612991 3.47991e-22)
(1.10113 0.00473009 -2.75217e-25)
(1.09902 0.00310554 -2.55856e-36)
(1.0969 0.00106017 4.02582e-22)
(1.10827 0.0245428 4.74699e-21)
(1.10617 0.0172921 3.89577e-22)
(1.10778 0.0138244 -5.53584e-22)
(1.10834 0.0115256 -1.75565e-22)
(1.10865 0.0102782 -1.44843e-21)
(1.10826 0.00958103 -3.6617e-23)
(1.10726 0.00907586 -2.36063e-22)
(1.10572 0.00851389 -3.53991e-21)
(1.10379 0.00769855 5.6312e-28)
(1.10164 0.00659707 3.51862e-21)
(1.09936 0.00509336 6.47556e-36)
(1.09709 0.00333132 4.06424e-22)
(1.09483 0.00113193 4.72519e-28)
(1.10506 0.0293215 -1.22286e-22)
(1.10278 0.0194512 2.17893e-34)
(1.1055 0.0148907 -4.55002e-22)
(1.10695 0.0119669 -8.01742e-22)
(1.10813 0.010562 -3.66126e-21)
(1.10837 0.00999989 -5.56508e-22)
(1.10778 0.00980217 -4.47833e-21)
(1.10646 0.00959294 -3.90057e-21)
(1.10458 0.00915449 -7.15507e-28)
(1.10234 0.00832994 3.50321e-21)
(1.09993 0.00713241 -2.43104e-36)
(1.09744 0.0054821 2.71392e-25)
(1.09501 0.00355975 -3.04566e-24)
(1.09262 0.00119853 -3.91733e-22)
(1.09987 0.0354712 -3.24059e-22)
(1.09788 0.0220945 -8.60052e-22)
(1.10209 0.0159949 -9.0174e-21)
(1.10476 0.0121161 -1.00118e-21)
(1.10711 0.0104133 4.09107e-22)
(1.10827 0.00996162 7.09292e-23)
(1.1083 0.0101195 -3.70395e-21)
(1.10732 0.010372 -3.12852e-21)
(1.10556 0.0103792 5.21315e-22)
(1.10328 0.00997646 3.48908e-21)
(1.10071 0.00906401 0)
(1.09803 0.00771114 3.96605e-22)
(1.09536 0.00587541 -1.91165e-35)
(1.09278 0.00377717 -3.90536e-22)
(1.09028 0.00125566 -5.04101e-22)
(1.09455 0.0444943 6.10299e-21)
(1.09096 0.0253851 -4.47087e-22)
(1.09715 0.0172171 -9.35207e-22)
(1.1014 0.0119356 2.83042e-34)
(1.10536 0.00970357 5.89703e-22)
(1.1078 0.00931877 9.93266e-23)
(1.10874 0.00988906 3.20344e-21)
(1.1083 0.0107133 -3.91506e-21)
(1.10677 0.0113165 2.82301e-21)
(1.10448 0.0114239 3.49093e-21)
(1.10177 0.0109505 0)
(1.09886 0.00986614 3.97973e-22)
(1.09594 0.00830167 5.4344e-24)
(1.0931 0.00624942 -2.91821e-21)
(1.09042 0.00396934 -9.33514e-22)
(1.08784 0.00129936 -1.27332e-28)
(1.09139 0.0596158 3.35187e-21)
(1.08114 0.029792 -2.33495e-22)
(1.08996 0.0187074 -3.54903e-21)
(1.09641 0.0113735 1.99116e-21)
(1.10255 0.0083002 6.41125e-21)
(1.10677 0.00786472 8.43985e-22)
(1.10901 0.00891829 -3.86899e-22)
(1.10937 0.0104589 -8.32663e-23)
(1.10822 0.0118255 3.2461e-21)
(1.10601 0.0126271 -9.07886e-24)
(1.10314 0.0126901 -1.71265e-35)
(1.09998 0.0120298 4.04571e-22)
(1.09676 0.0106915 -1.72904e-27)
(1.09365 0.00886742 -4.07293e-22)
(1.0907 0.00657932 -5.11069e-22)
(1.08795 0.00412282 3.93895e-22)
(1.08533 0.0013263 4.88847e-22)
(1.08777 0.0838011 1.08323e-20)
(1.06812 0.0366018 2.79206e-21)
(1.0799 0.0208211 1.68259e-21)
(1.089 0.0104796 0)
(1.09817 0.00601698 1.57555e-22)
(1.10486 0.00536902 6.45887e-35)
(1.10896 0.00693459 -2.1415e-22)
(1.1105 0.00938227 -3.39943e-21)
(1.10996 0.0117437 -2.43403e-21)
(1.10791 0.0134532 8.19652e-22)
(1.10492 0.0142582 7.75197e-24)
(1.10146 0.0141159 3.94027e-22)
(1.0979 0.0131525 1.01968e-27)
(1.09443 0.0114878 -4.06879e-22)
(1.09118 0.0093702 -8.42641e-22)
(1.08817 0.00684172 3.34809e-21)
(1.08539 0.0042258 4.99392e-22)
(1.08277 0.00133408 -4.75062e-22)
(1.08917 0.122593 -3.10992e-21)
(1.05457 0.0489067 -7.52099e-21)
(1.06594 0.0241889 3.9209e-21)
(1.07819 0.00940451 -2.46116e-34)
(1.09136 0.00280742 -2.86357e-21)
(1.10154 0.00152536 -1.63368e-21)
(1.10831 0.00362002 -2.02139e-21)
(1.11161 0.00716466 -2.81892e-21)
(1.11202 0.0108277 -2.58265e-22)
(1.11028 0.0137522 2.92918e-21)
(1.1072 0.0155422 -6.39373e-23)
(1.10341 0.0161285 4.33149e-21)
(1.0994 0.015617 -2.09094e-23)
(1.0955 0.0142454 -3.99272e-22)
(1.09185 0.0122 -5.17944e-22)
(1.08854 0.00977379 3.76079e-22)
(1.08553 0.00701624 -2.79494e-21)
(1.08279 0.00426933 -9.17391e-22)
(1.08021 0.0013215 -2.08501e-28)
(1.09856 0.175296 -2.271e-21)
(1.04166 0.071126 -4.8443e-21)
(1.04772 0.0304577 -1.00029e-20)
(1.06268 0.00850343 2.55931e-35)
(1.08104 -0.00137363 -3.63733e-23)
(1.09591 -0.00384307 -8.46496e-22)
(1.10654 -0.00141578 -4.44413e-22)
(1.11249 0.00342832 -2.98429e-22)
(1.11439 0.00874148 5.77354e-22)
(1.11324 0.0132869 2.73488e-21)
(1.11011 0.0164218 -1.58767e-22)
(1.10593 0.0179863 3.45523e-21)
(1.10139 0.0181241 1.04143e-23)
(1.09693 0.0170927 -4.12554e-22)
(1.09279 0.0152311 -5.24729e-22)
(1.08907 0.0127757 8.29238e-28)
(1.08578 0.0100465 4.77476e-22)
(1.08284 0.00708759 -4.83968e-22)
(1.08018 0.00424818 1.44905e-23)
(1.07768 0.00128866 4.47632e-22)
(1.09126 0.226645 7.63317e-20)
(1.03263 0.110034 1.24406e-20)
(1.0269 0.0426971 1.90685e-20)
(1.04147 0.00855356 4.23944e-35)
(1.06578 -0.00645256 6.26276e-21)
(1.08685 -0.0110729 2.35967e-25)
(1.10281 -0.00853144 -2.65382e-21)
(1.11264 -0.00226422 -1.32731e-21)
(1.11691 0.00509469 1.9551e-22)
(1.11684 0.0117403 2.27385e-21)
(1.11385 0.0166924 2.93623e-22)
(1.10923 0.0196157 -3.11263e-21)
(1.10401 0.0206326 2.65996e-22)
(1.09883 0.0201067 -4.49318e-21)
(1.09405 0.018435 -9.45499e-22)
(1.08982 0.0160353 -8.37539e-28)
(1.08614 0.0131691 4.87753e-22)
(1.08295 0.0101644 -7.1431e-22)
(1.08014 0.00704702 9.84133e-35)
(1.0776 0.00416119 7.04573e-22)
(1.07523 0.00123695 4.24495e-24)
(1.03865 0.259436 -3.92608e-21)
(1.02446 0.163918 8.31717e-22)
(1.00566 0.0662092 -4.4874e-21)
(1.01403 0.0113078 0)
(1.04402 -0.0121578 1.9726e-21)
(1.07285 -0.0204318 5.37175e-21)
(1.09608 -0.0184632 3.99574e-22)
(1.11148 -0.0105289 -6.25353e-23)
(1.11927 -0.000574408 -3.72327e-22)
(1.12098 0.00876377 5.58447e-23)
(1.11851 0.0160961 -1.31554e-36)
(1.11353 0.0208709 3.67176e-22)
(1.10748 0.0231289 -4.59624e-23)
(1.10136 0.0232909 1.22641e-21)
(1.09574 0.0219264 -3.08842e-21)
(1.09082 0.0195404 4.27661e-22)
(1.08663 0.0165928 5.38786e-22)
(1.0831 0.0133454 -4.96999e-22)
(1.0801 0.0101137 -3.27512e-23)
(1.07747 0.00689299 4.56036e-22)
(1.0751 0.00401153 1.88277e-23)
(1.07288 0.00116898 -3.92045e-21)
(0.953533 0.266771 1.681e-21)
(1.00101 0.218039 -5.26453e-21)
(0.98412 0.104081 -2.80731e-20)
(0.98196 0.0212556 1.35457e-35)
(1.01401 -0.0174547 -4.66823e-21)
(1.0518 -0.0319319 -1.09106e-20)
(1.08471 -0.0319542 4.49274e-21)
(1.10821 -0.0226004 2.32269e-22)
(1.12136 -0.00921718 3.78163e-27)
(1.12568 0.00388656 6.92597e-22)
(1.12406 0.0143823 -7.14764e-36)
(1.11894 0.0215901 2.1055e-22)
(1.11204 0.0255473 -7.95762e-23)
(1.10475 0.0266993 3.48755e-21)
(1.09799 0.025753 -1.59366e-22)
(1.09216 0.0234386 3.12124e-21)
(1.0873 0.0203174 6.80966e-22)
(1.08331 0.0168545 -5.09269e-22)
(1.08003 0.0132847 1.9308e-27)
(1.07728 0.00989165 1.03448e-21)
(1.07489 0.00663149 1.06709e-21)
(1.07272 0.00380635 -4.42292e-21)
(1.07067 0.0010883 -1.35064e-24)
(0.851139 0.258061 3.31388e-21)
(0.949288 0.255197 1.30517e-22)
(0.957212 0.153224 1.80755e-21)
(0.9485 0.0424576 1.75981e-35)
(0.97551 -0.0193498 -9.05653e-21)
(1.02109 -0.0444549 -7.94324e-21)
(1.06572 -0.049101 2.44709e-21)
(1.10082 -0.0397573 4.30022e-21)
(1.12271 -0.022611 2.21253e-21)
(1.13158 -0.00421521 -2.39743e-24)
(1.13108 0.0110789 -3.52363e-36)
(1.12554 0.0216618 1.80679e-21)
(1.11777 0.0278503 -7.91148e-22)
(1.10921 0.0303597 -3.92393e-22)
(1.10103 0.0300363 -4.59743e-22)
(1.09396 0.0278167 -1.14242e-21)
(1.0882 0.0245157 -1.84584e-23)
(1.08359 0.0206969 -9.32429e-22)
(1.07994 0.0167918 -2.33231e-27)
(1.077 0.0129829 4.68526e-22)
(1.07456 0.00950706 -4.38987e-23)
(1.07244 0.0062754 -4.2086e-22)
(1.07048 0.00355627 2.06052e-22)
(1.06863 0.000999261 3.58471e-21)
(0.747597 0.236853 2.95159e-23)
(0.870703 0.26534 6.87788e-22)
(0.917107 0.198777 -3.446e-21)
(0.915066 0.0795457 4.61539e-35)
(0.930551 -0.0149458 3.01091e-21)
(0.979678 -0.05574 2.61913e-20)
(1.03561 -0.0684053 -9.54432e-21)
(1.085 -0.0618475 1.06286e-21)
(1.12052 -0.0424794 -3.83897e-22)
(1.13852 -0.0178039 -3.20657e-21)
(1.14111 0.00455145 0)
(1.13461 0.0206414 4.24452e-22)
(1.1249 0.0300819 1.06648e-34)
(1.11479 0.0343672 -5.58533e-22)
(1.10504 0.0348987 7.42589e-23)
(1.0964 0.0328561 -3.20965e-21)
(1.0894 0.0293041 1.10692e-21)
(1.08397 0.0250613 -3.01928e-21)
(1.07981 0.0206392 5.61831e-23)
(1.07661 0.0163988 4.80415e-22)
(1.07409 0.0124527 -4.37486e-23)
(1.07199 0.00897937 -4.26707e-21)
(1.07016 0.00584352 3.47636e-21)
(1.06842 0.00327475 3.80185e-21)
(1.06676 0.000906605 3.61514e-22)
(0.669252 0.212057 4.82155e-21)
(0.781144 0.260267 -1.41241e-20)
(0.855348 0.229081 3.73365e-20)
(0.878828 0.12228 3.64956e-21)
(0.884268 0.00391791 8.54736e-21)
(0.928082 -0.0641079 2.34688e-21)
(0.992966 -0.0877531 -7.40424e-21)
(1.0564 -0.0869809 1.61303e-20)
(1.10873 -0.0680555 -1.11211e-21)
(1.14235 -0.0387656 -8.95868e-21)
(1.15417 -0.00775005 -2.50064e-35)
(1.14873 0.0167868 3.49896e-21)
(1.13546 0.0319072 1.98797e-21)
(1.12179 0.0389137 -5.90828e-21)
(1.10996 0.0405535 -8.66029e-23)
(1.09962 0.0387624 7.96858e-23)
(1.09104 0.0349087 3.9475e-21)
(1.08449 0.0300808 2.35751e-22)
(1.07965 0.0250202 6.17908e-23)
(1.07609 0.0201362 8.80749e-22)
(1.07343 0.0156931 5.4912e-23)
(1.07135 0.011722 -4.15246e-21)
(1.06962 0.00833701 -4.98987e-22)
(1.06806 0.00535946 2.07454e-21)
(1.06654 0.00297709 4.85735e-22)
(1.06507 0.000815102 2.93076e-28)
(0.616952 0.191078 1.99248e-21)
(0.708472 0.249652 -7.64233e-21)
(0.777384 0.237964 1.50367e-22)
(0.831305 0.165278 1.25346e-25)
(0.839621 0.0308673 0)
(0.871223 -0.0633722 -9.53713e-21)
(0.937938 -0.105551 1.94028e-20)
(1.01339 -0.113129 2.25416e-20)
(1.08242 -0.097236 3.82004e-22)
(1.13496 -0.0655738 7.42374e-23)
(1.16416 -0.0274926 3.12717e-35)
(1.16772 0.00752807 -4.18148e-22)
(1.15306 0.031791 1.23924e-21)
(1.13296 0.0439011 -3.25289e-23)
(1.11615 0.0473136 -6.42031e-22)
(1.10345 0.045838 4.08932e-22)
(1.09319 0.0415984 6.68417e-22)
(1.08519 0.0360068 -6.6668e-22)
(1.07942 0.0300709 -1.3017e-35)
(1.07538 0.0243818 3.10026e-21)
(1.07253 0.0192124 4.84052e-22)
(1.07046 0.0147136 -4.23251e-21)
(1.06885 0.0108313 1.27772e-26)
(1.06747 0.00761572 3.40671e-21)
(1.06618 0.00484972 -5.10719e-21)
(1.06486 0.00267906 -2.16269e-22)
(1.06356 0.000729374 -3.27259e-22)
(0.574503 0.170315 6.7744e-23)
(0.656868 0.237955 -4.71488e-22)
(0.710549 0.23718 2.66015e-20)
(0.768924 0.189103 -9.00622e-21)
(0.795435 0.0764744 2.55249e-24)
(0.815776 -0.0549252 -3.93548e-22)
(0.874276 -0.118704 7.04595e-21)
(0.956498 -0.138334 2.98305e-20)
(1.03971 -0.128429 -2.02319e-21)
(1.11161 -0.0962079 -2.47674e-20)
(1.16101 -0.0527179 2.30854e-38)
(1.18345 -0.00827259 -9.31983e-21)
(1.17705 0.027451 -4.30425e-25)
(1.15268 0.048345 4.62662e-21)
(1.12677 0.0554151 -3.80931e-21)
(1.10819 0.0544774 4.71649e-21)
(1.09561 0.0497324 6.45038e-22)
(1.08609 0.0431441 -6.92171e-22)
(1.07913 0.0360458 -6.28849e-23)
(1.07443 0.0292613 5.93412e-22)
(1.07133 0.0231806 -4.86055e-21)
(1.06926 0.0179214 -5.63261e-21)
(1.06779 0.0135163 -1.63049e-26)
(1.06662 0.00983127 3.71648e-21)
(1.06556 0.00685565 6.77035e-23)
(1.0645 0.00434152 1.71626e-34)
(1.06336 0.00239635 -2.09973e-22)
(1.0622 0.000653558 0)
(0.543942 0.15069 2.67533e-22)
(0.612834 0.225961 2.69671e-20)
(0.661505 0.232919 -4.3508e-20)
(0.711256 0.201095 2.08306e-20)
(0.744733 0.105589 3.78406e-20)
(0.765333 -0.0240036 3.82486e-22)
(0.806636 -0.125537 2.54457e-21)
(0.889025 -0.160835 2.88233e-20)
(0.981565 -0.159304 2.31425e-20)
(1.07001 -0.129951 -2.68036e-20)
(1.14121 -0.0817586 0)
(1.18425 -0.0289694 -7.16956e-21)
(1.19772 0.0183319 -1.20387e-20)
(1.17994 0.0506291 -6.13437e-22)
(1.14675 0.0646614 -7.05504e-22)
(1.11706 0.0652565 9.44013e-22)
(1.09839 0.0597436 -4.37154e-21)
(1.0869 0.0518783 -1.12326e-21)
(1.07872 0.0432557 -5.42014e-23)
(1.07317 0.0350112 3.86187e-22)
(1.06973 0.0277016 -1.5913e-21)
(1.06765 0.0214909 -2.63329e-21)
(1.06635 0.0163403 1.02869e-21)
(1.06545 0.0121714 3.74205e-21)
(1.06469 0.00877866 3.61403e-22)
(1.0639 0.00609801 5.1405e-22)
(1.06304 0.00386172 1.76638e-21)
(1.06204 0.00214326 1.75134e-22)
(1.06099 0.000591028 -2.80251e-21)
(0.527668 0.133623 0)
(0.578129 0.214037 -2.59113e-21)
(0.61855 0.226386 -3.24018e-20)
(0.666834 0.205179 3.27429e-20)
(0.697473 0.128601 8.21847e-21)
(0.71557 0.00319339 6.47452e-21)
(0.74442 -0.118026 -3.0713e-20)
(0.814734 -0.179469 1.71976e-20)
(0.911577 -0.188447 -5.68519e-21)
(1.01135 -0.164181 -7.2012e-20)
(1.10168 -0.11501 -3.47495e-36)
(1.16845 -0.0533348 2.36125e-20)
(1.20263 0.00469426 2.59468e-20)
(1.20447 0.0506116 -1.35558e-20)
(1.17502 0.0743699 8.18274e-21)
(1.13529 0.0788709 -4.61638e-21)
(1.10443 0.0724655 1.16737e-21)
(1.08742 0.0626378 -8.48256e-22)
(1.07784 0.0520828 2.66006e-23)
(1.07147 0.0419199 -3.38697e-23)
(1.0676 0.0329766 -3.15286e-21)
(1.0655 0.0254954 -1.29602e-21)
(1.06444 0.019418 4.26243e-21)
(1.06388 0.0145644 3.66724e-21)
(1.06348 0.0107567 3.60983e-22)
(1.06306 0.00773148 -3.30933e-27)
(1.06249 0.00538344 -5.98896e-22)
(1.06176 0.00343467 -1.36935e-21)
(1.06086 0.00193165 -2.84173e-21)
(1.05989 0.000544252 -1.00699e-24)
(0.521862 0.121761 -3.86217e-22)
(0.554131 0.203816 -2.21033e-21)
(0.583962 0.219316 3.54368e-21)
(0.626357 0.205252 -5.01548e-20)
(0.660034 0.140227 -3.50104e-20)
(0.67641 0.0304386 -2.15506e-20)
(0.689878 -0.102315 8.68207e-23)
(0.742394 -0.189979 -3.53109e-20)
(0.833626 -0.214759 -8.23876e-21)
(0.93954 -0.197896 -4.35729e-20)
(1.04359 -0.149647 -7.87483e-34)
(1.13181 -0.0827911 1.81494e-20)
(1.19097 -0.0126087 1.88257e-20)
(1.21206 0.0458216 8.82605e-22)
(1.20211 0.0842725 -1.40662e-21)
(1.16244 0.0954884 -5.91081e-21)
(1.11908 0.0894547 4.86522e-21)
(1.08988 0.0763532 -2.88968e-21)
(1.07605 0.0629156 3.44495e-35)
(1.06898 0.050337 6.83402e-22)
(1.06475 0.0392486 -3.4513e-23)
(1.06266 0.0300886 -5.14803e-22)
(1.0619 0.0227872 -3.87022e-21)
(1.06178 0.0170907 2.55621e-21)
(1.06187 0.0126986 1.43207e-21)
(1.06189 0.0093515 4.24161e-27)
(1.06172 0.00674675 -3.17693e-22)
(1.06129 0.00474886 3.88862e-22)
(1.06065 0.00308047 9.47341e-22)
(1.0598 0.00177033 -6.07649e-23)
(1.05887 0.000514631 2.57181e-21)
(0.526107 0.115013 2.13332e-21)
(0.540193 0.196348 1.26389e-20)
(0.558695 0.212721 4.89538e-21)
(0.592648 0.203169 2.24334e-20)
(0.624565 0.146348 -5.65192e-20)
(0.646925 0.0483037 -1.36551e-20)
(0.652481 -0.0804502 9.45666e-21)
(0.677951 -0.191779 1.33523e-20)
(0.755252 -0.236547 6.10549e-20)
(0.858799 -0.229195 -1.8647e-20)
(0.970904 -0.185372 -1.40995e-34)
(1.07553 -0.114624 -4.31104e-20)
(1.15756 -0.0350351 -6.3492e-20)
(1.20489 0.0366553 -2.72164e-21)
(1.21393 0.0899238 4.03198e-21)
(1.19009 0.114116 9.54234e-22)
(1.14311 0.111733 -7.9601e-21)
(1.09938 0.0952083 -1.17081e-21)
(1.07467 0.0765846 5.52354e-23)
(1.06507 0.060594 8.20303e-22)
(1.06082 0.0468071 1.2865e-22)
(1.05887 0.0354534 -5.49022e-21)
(1.05853 0.0265468 3.29788e-21)
(1.05901 0.0197505 3.93036e-21)
(1.05972 0.0146497 3.30853e-22)
(1.06033 0.0108495 -1.11551e-22)
(1.06065 0.00803367 -3.11664e-22)
(1.06063 0.00587616 0)
(1.06028 0.00422475 -2.82821e-21)
(1.05965 0.00281395 -1.18348e-21)
(1.05882 0.00166453 2.57114e-21)
(1.05789 0.000502329 -2.47443e-21)
(0.540576 0.113466 -3.33956e-23)
(0.535891 0.191117 -6.45162e-21)
(0.543901 0.206789 -6.11114e-21)
(0.56766 0.198922 -1.02453e-20)
(0.594759 0.14832 5.64224e-20)
(0.618342 0.0591421 4.65592e-20)
(0.628525 -0.0608067 1.64476e-20)
(0.635451 -0.183162 7.85889e-21)
(0.682803 -0.252647 1.04206e-20)
(0.776738 -0.257373 -2.04461e-20)
(0.887893 -0.219348 -1.00151e-20)
(1.00316 -0.149219 -1.85898e-20)
(1.10411 -0.0608195 -5.97551e-21)
(1.17593 0.0239237 2.13154e-20)
(1.2095 0.0906825 7.82738e-22)
(1.20796 0.131299 -4.70044e-21)
(1.16913 0.137996 -9.81834e-21)
(1.11817 0.121271 1.62619e-20)
(1.07807 0.09547 -1.36513e-21)
(1.06016 0.0732766 2.00945e-21)
(1.05513 0.0559256 4.28204e-21)
(1.05378 0.0417959 -6.30994e-21)
(1.05408 0.0308131 -2.13308e-21)
(1.05535 0.0225856 5.639e-21)
(1.05689 0.0165726 3.12536e-21)
(1.05826 0.0122365 -1.36974e-22)
(1.05923 0.00912088 6.97064e-22)
(1.05973 0.0068736 0)
(1.05977 0.00516237 -2.76202e-21)
(1.05941 0.00383373 -5.85496e-22)
(1.05875 0.00264378 1.45802e-21)
(1.05788 0.00161542 -2.45019e-21)
(1.05693 0.000506199 -6.95203e-25)
(0.561859 0.116207 -7.15455e-21)
(0.541655 0.187664 -1.80136e-20)
(0.539985 0.201362 4.60905e-22)
(0.553035 0.193308 -7.30794e-21)
(0.573138 0.146489 6.67845e-20)
(0.594307 0.0650022 3.6914e-21)
(0.607097 -0.0472574 -2.27165e-20)
(0.611125 -0.169327 -1.3738e-20)
(0.633119 -0.25891 1.61756e-20)
(0.699372 -0.281394 2.49261e-21)
(0.80295 -0.251504 1.0704e-25)
(0.918937 -0.182915 -3.87769e-21)
(1.03323 -0.0908152 2.48766e-20)
(1.12605 0.00737809 1.76829e-20)
(1.18438 0.0891815 -3.19858e-22)
(1.20631 0.145094 2.05458e-20)
(1.18668 0.165814 -9.16755e-21)
(1.14074 0.153811 -3.39567e-21)
(1.08973 0.122582 1.70104e-25)
(1.0574 0.0904841 1.13462e-21)
(1.0474 0.0669064 -1.3381e-22)
(1.04674 0.0493327 1.52727e-22)
(1.04818 0.0356938 2.76011e-21)
(1.05053 0.0256455 1.87928e-21)
(1.05317 0.0184536 -3.35927e-21)
(1.05554 0.0134397 3.79754e-36)
(1.05736 0.00998796 1.95759e-22)
(1.05854 0.00760668 2.91341e-22)
(1.05908 0.00592949 -2.56897e-21)
(1.05907 0.0046371 9.40536e-27)
(1.05863 0.00358911 2.64531e-21)
(1.05789 0.00257168 8.33893e-22)
(1.05695 0.00161999 1.06265e-22)
(1.05594 0.000523855 2.31338e-21)
(0.588946 0.121357 4.97274e-21)
(0.557425 0.184592 7.77098e-22)
(0.54741 0.195779 -1.24438e-20)
(0.550017 0.185926 -3.56712e-20)
(0.561902 0.14119 1.49931e-21)
(0.577862 0.0653916 -5.3734e-20)
(0.589748 -0.038021 -4.61073e-21)
(0.593509 -0.157581 3.61737e-20)
(0.603678 -0.256356 7.85745e-21)
(0.644568 -0.296562 -1.02455e-20)
(0.721647 -0.279548 4.17696e-22)
(0.832003 -0.217159 6.75781e-20)
(0.949386 -0.120811 1.58459e-21)
(1.05784 -0.0144987 -2.13274e-20)
(1.13862 0.0839121 1.20781e-21)
(1.18201 0.155469 -3.6806e-20)
(1.18816 0.192408 -2.56188e-21)
(1.15761 0.18993 1.1915e-20)
(1.10676 0.158344 -5.53253e-34)
(1.06087 0.115697 -1.56251e-20)
(1.03936 0.0812338 -9.04551e-22)
(1.03708 0.0581322 -7.99322e-21)
(1.04024 0.0413435 -3.26905e-21)
(1.04419 0.0289362 2.71534e-21)
(1.04829 0.0202788 -1.95927e-21)
(1.05198 0.014394 2.00897e-22)
(1.05492 0.0105308 2.36035e-21)
(1.05698 0.00802778 -1.38142e-24)
(1.05818 0.00638448 -2.00686e-21)
(1.05863 0.00524481 -1.17152e-26)
(1.05848 0.0043191 2.46361e-21)
(1.05789 0.00349373 -2.60026e-21)
(1.05702 0.00259215 4.39933e-35)
(1.05599 0.00167135 2.41501e-21)
(1.05492 0.000551831 0)
(0.631478 0.126166 7.80359e-22)
(0.583835 0.180673 2.76115e-20)
(0.566563 0.188638 2.6958e-20)
(0.559593 0.176027 -4.16412e-21)
(0.562687 0.132473 -4.58476e-20)
(0.57136 0.0610961 3.37102e-20)
(0.579649 -0.034858 2.26427e-20)
(0.581474 -0.147806 5.87522e-20)
(0.584318 -0.252092 2.93261e-20)
(0.6099 -0.304283 -3.66082e-20)
(0.663017 -0.300026 -1.80287e-20)
(0.74711 -0.246682 3.48633e-22)
(0.86164 -0.154381 8.86684e-22)
(0.976185 -0.0376522 8.11135e-21)
(1.07424 0.0730698 6.92995e-22)
(1.14049 0.161738 -6.80828e-21)
(1.16899 0.21469 2.26814e-20)
(1.1607 0.226219 3.32997e-21)
(1.12131 0.199936 -3.14531e-21)
(1.07036 0.150817 3.23694e-21)
(1.03472 0.102168 8.12669e-21)
(1.02523 0.0689866 -6.85195e-21)
(1.02949 0.0476727 -3.60464e-21)
(1.03582 0.0325402 -1.05747e-22)
(1.0419 0.021959 5.8987e-22)
(1.04733 0.0150272 2.41477e-22)
(1.05173 0.0106384 2.44077e-22)
(1.05494 0.00800682 5.58791e-23)
(1.05701 0.00645835 -2.66036e-22)
(1.05806 0.00551258 5.32124e-22)
(1.05829 0.00484552 2.36005e-21)
(1.05792 0.00421245 -2.37502e-21)
(1.05714 0.00353951 -2.36784e-22)
(1.05612 0.00269295 -7.83612e-22)
(1.05499 0.00175915 -2.86666e-23)
(1.05383 0.000585897 -2.30891e-22)
(0.695687 0.125573 -1.30694e-21)
(0.632512 0.173483 -2.69113e-21)
(0.597386 0.178719 6.57304e-22)
(0.582064 0.163312 5.30948e-20)
(0.57646 0.12028 -6.97485e-20)
(0.576549 0.0525173 -1.80673e-20)
(0.578822 -0.0372448 1.06126e-20)
(0.577891 -0.14283 -6.75705e-21)
(0.573783 -0.246539 -3.88839e-20)
(0.586095 -0.30955 4.58135e-21)
(0.624328 -0.313746 -7.49858e-21)
(0.684838 -0.270382 1.53588e-20)
(0.773521 -0.182095 -5.49165e-21)
(0.888601 -0.0667663 -3.73112e-20)
(0.996132 0.0590889 -3.55515e-20)
(1.08051 0.16337 6.79024e-21)
(1.13127 0.232604 -3.55438e-20)
(1.14544 0.259373 -3.12851e-21)
(1.12507 0.243426 1.22977e-20)
(1.08033 0.194172 -1.13805e-20)
(1.03533 0.132875 -9.43796e-22)
(1.01379 0.0842836 1.19934e-20)
(1.01551 0.0549398 5.58319e-21)
(1.02469 0.0362601 7.06585e-21)
(1.03355 0.0234978 -3.65472e-22)
(1.04127 0.0151678 -2.20377e-21)
(1.04758 0.0101862 -2.37339e-21)
(1.0523 0.00739406 -3.29406e-21)
(1.05549 0.00600142 -3.64575e-21)
(1.05733 0.00535718 -7.36498e-22)
(1.05807 0.00502625 2.26738e-21)
(1.05799 0.00473767 -2.278e-21)
(1.05734 0.00430591 5.63862e-27)
(1.05634 0.00370806 2.19589e-21)
(1.05515 0.00285581 3.77083e-35)
(1.05391 0.00187029 -1.85933e-22)
(1.05267 0.000621421 -1.15364e-28)
(0.772644 0.116846 -4.84745e-20)
(0.708583 0.15757 -3.21444e-21)
(0.651127 0.161629 -8.35461e-21)
(0.617091 0.147022 1.05541e-23)
(0.603033 0.105219 2.38491e-20)
(0.594384 0.0398188 -4.46117e-20)
(0.588769 -0.0442125 -2.80583e-20)
(0.582959 -0.143147 4.20783e-20)
(0.57475 -0.242623 -6.03546e-20)
(0.572237 -0.311974 -1.16841e-20)
(0.596156 -0.323851 1.2593e-20)
(0.642755 -0.289009 2.5512e-21)
(0.708029 -0.20716 2.42106e-20)
(0.798269 -0.0889907 3.92986e-22)
(0.909479 0.0386987 6.34487e-21)
(1.00636 0.160262 1.664e-20)
(1.07557 0.246628 -2.25728e-20)
(1.11125 0.288567 7.36195e-20)
(1.11246 0.285361 -2.49844e-20)
(1.08309 0.241871 -3.25484e-21)
(1.03849 0.173483 3.68887e-22)
(1.00544 0.107652 -1.44669e-20)
(0.999461 0.0643513 -4.75514e-21)
(1.01002 0.0400748 5.67736e-21)
(1.02262 0.0246043 6.35841e-23)
(1.0334 0.0147379 8.92789e-35)
(1.04218 0.00893462 -1.94767e-24)
(1.04888 0.00601911 -1.55707e-22)
(1.05355 0.00483358 -1.44409e-22)
(1.05642 0.0046169 1.66269e-21)
(1.05783 0.00477217 3.81618e-22)
(1.05812 0.00493443 -2.1949e-21)
(1.05764 0.00490641 -6.51115e-27)
(1.05667 0.00457359 2.26384e-21)
(1.05544 0.00397169 5.94367e-23)
(1.05409 0.00305779 7.45622e-22)
(1.05275 0.00198998 8.22602e-24)
(1.05144 0.0006537 2.17508e-22)
(0.856847 0.098925 -9.23672e-22)
(0.798474 0.130739 9.73282e-22)
(0.733282 0.134973 -3.98802e-20)
(0.675515 0.124323 -1.25388e-20)
(0.641799 0.0857087 2.01154e-21)
(0.624584 0.0249509 -2.13029e-20)
(0.61052 -0.0558861 -2.91014e-20)
(0.597806 -0.147622 -3.48218e-20)
(0.583514 -0.24193 -1.51744e-20)
(0.574125 -0.312406 -2.55087e-21)
(0.576806 -0.330894 8.3508e-21)
(0.610682 -0.304168 -2.53597e-20)
(0.663594 -0.22908 1.49955e-20)
(0.730251 -0.113667 -2.87204e-21)
(0.819785 0.0232061 -4.22112e-21)
(0.921496 0.151233 -1.58478e-21)
(1.0056 0.25529 -3.04644e-20)
(1.05975 0.313613 -9.65437e-21)
(1.082 0.323743 3.2974e-21)
(1.0725 0.289681 3.23561e-21)
(1.0382 0.221045 6.26732e-35)
(1.00014 0.14099 1.47928e-20)
(0.983682 0.0789978 1.28068e-21)
(0.99183 0.0441423 -6.97131e-21)
(1.00832 0.0251719 -2.14668e-21)
(1.02316 0.0133567 3.01388e-21)
(1.03519 0.00672537 2.24996e-21)
(1.04444 0.00358742 1.63508e-21)
(1.05104 0.00274716 -1.45697e-21)
(1.05527 0.00309103 -5.01615e-22)
(1.05756 0.00391806 -5.53562e-22)
(1.05835 0.00471692 -6.16414e-22)
(1.05809 0.0052181 3.58094e-22)
(1.05716 0.00531657 2.19934e-21)
(1.05586 0.00497631 0)
(1.05441 0.00429548 -3.22281e-22)
(1.05293 0.003273 -1.95234e-21)
(1.05151 0.00210267 1.91054e-22)
(1.05015 0.000678335 2.10288e-22)
(0.940158 0.0744624 -7.26177e-22)
(0.893059 0.0983683 -4.3773e-21)
(0.826864 0.101386 4.02926e-20)
(0.762896 0.0935859 -4.97903e-26)
(0.703277 0.0622164 -1.17345e-20)
(0.666122 0.00389258 -1.11305e-20)
(0.644172 -0.0690145 1.52335e-20)
(0.623216 -0.15644 -5.18011e-20)
(0.602284 -0.243983 1.88861e-20)
(0.58307 -0.312384 -2.96556e-21)
(0.574861 -0.33406 -8.6625e-22)
(0.589168 -0.316872 -9.63801e-21)
(0.62896 -0.246771 -3.12523e-20)
(0.684424 -0.138211 5.60423e-20)
(0.750618 0.00111324 4.58454e-21)
(0.83364 0.142688 0)
(0.925265 0.258199 6.52302e-20)
(0.994479 0.332994 1.57769e-20)
(1.03499 0.357435 4.07881e-21)
(1.04588 0.334475 -7.87212e-20)
(1.02836 0.270998 3.17116e-20)
(0.994461 0.183263 -9.6391e-22)
(0.969648 0.101734 -4.83351e-21)
(0.971374 0.0503828 4.07508e-21)
(0.990017 0.0247015 -3.07158e-22)
(1.00994 0.0108951 -4.39962e-22)
(1.02613 0.00309952 -4.04592e-22)
(1.0387 -0.000136646 2.94685e-35)
(1.0478 -0.000596571 -7.56132e-22)
(1.05382 0.000545656 -1.26561e-21)
(1.05726 0.0022545 6.88069e-22)
(1.05871 0.00392576 -1.94776e-21)
(1.05875 0.00516803 1.4946e-22)
(1.05788 0.00583064 2.08406e-21)
(1.05649 0.00591429 0)
(1.05489 0.0054644 -2.28394e-22)
(1.05325 0.00463982 -1.68548e-23)
(1.05167 0.0034744 1.19388e-21)
(1.05019 0.00219341 2.61922e-22)
(1.04881 0.000691567 1.41489e-28)
(1.01649 0.0472389 2.57382e-21)
(0.981519 0.0636731 -1.25399e-21)
(0.921559 0.0667374 8.64557e-21)
(0.859463 0.0584481 -6.33916e-21)
(0.793558 0.0298231 2.69172e-20)
(0.730646 -0.0152774 5.17313e-21)
(0.687424 -0.0886032 5.61284e-21)
(0.659499 -0.166901 7.12048e-21)
(0.630563 -0.248815 -7.6582e-21)
(0.602811 -0.312868 1.15541e-20)
(0.582892 -0.334824 1.55729e-21)
(0.580054 -0.326662 -3.26003e-20)
(0.605041 -0.261917 -1.33596e-20)
(0.647885 -0.157111 2.13353e-20)
(0.704424 -0.0247366 -3.18086e-20)
(0.768221 0.124404 2.55805e-21)
(0.842801 0.258624 -1.35094e-21)
(0.920533 0.346426 -2.73964e-20)
(0.974832 0.385136 1.37389e-20)
(1.00377 0.374263 1.05886e-20)
(1.00519 0.319288 -1.15702e-24)
(0.983281 0.230607 -2.18229e-21)
(0.956739 0.133724 4.35888e-22)
(0.950235 0.0614282 -7.1085e-21)
(0.967945 0.0239482 3.39393e-21)
(0.992867 0.0065752 4.49979e-26)
(1.0145 -0.00212784 -2.3553e-21)
(1.03124 -0.00567276 -1.99042e-21)
(1.04361 -0.00550348 -2.55217e-23)
(1.05196 -0.00339134 2.13676e-21)
(1.05694 -0.000465082 9.16529e-22)
(1.05927 0.00235716 3.56397e-22)
(1.0597 0.00461265 1.98682e-35)
(1.0589 0.0060648 -2.2064e-21)
(1.0574 0.00669971 -2.01934e-22)
(1.05559 0.0066309 -2.2674e-22)
(1.05373 0.00598136 9.035e-28)
(1.05195 0.00496326 2.78281e-22)
(1.05031 0.0036361 -1.15681e-21)
(1.04883 0.00224906 -9.85506e-23)
(1.04746 0.000690521 -1.93792e-22)
(1.0741 0.0201512 -1.08998e-21)
(1.05518 0.0307961 -1.83532e-22)
(1.00814 0.0326047 2.8759e-21)
(0.953855 0.0237067 -7.45792e-35)
(0.890355 -0.00166511 -1.67041e-20)
(0.822415 -0.0489124 0)
(0.75256 -0.102861 -1.5952e-24)
(0.703798 -0.181327 7.45912e-22)
(0.668164 -0.254954 -2.32198e-20)
(0.631919 -0.313733 1.11189e-20)
(0.601777 -0.334816 -1.75546e-20)
(0.584765 -0.331205 -6.0476e-20)
(0.592619 -0.274741 -3.14639e-20)
(0.621787 -0.173496 -6.37086e-20)
(0.666083 -0.0434853 1.32218e-19)
(0.722078 0.100586 -3.37637e-21)
(0.780569 0.244417 -2.91525e-20)
(0.845235 0.355576 5.27562e-21)
(0.906908 0.406919 1.98288e-20)
(0.949322 0.40775 -7.61015e-20)
(0.968223 0.362907 -1.5251e-20)
(0.962364 0.278681 -1.81112e-21)
(0.941676 0.172915 -7.13379e-21)
(0.929767 0.0796708 2.63272e-22)
(0.942851 0.0245441 4.16619e-21)
(0.971639 0.000416079 1.80461e-21)
(0.999473 -0.00979148 1.00908e-25)
(1.02167 -0.0133187 0)
(1.03815 -0.0125466 4.2906e-22)
(1.04957 -0.00908314 -1.15961e-22)
(1.05658 -0.00463224 9.56497e-22)
(1.06009 -0.000232672 -1.42081e-21)