/*--------------------------------*- C++ -*----------------------------------*\
| =========                 |                                                 |
| \\      /  F ield         | OpenFOAM: The Open Source CFD Toolbox           |
|  \\    /   O peration     | Version:  2506                                  |
|   \\  /    A nd           | Website:  www.openfoam.com                      |
|    \\/     M anipulation  |                                                 |
\*---------------------------------------------------------------------------*/
FoamFile
{
    version     2.0;
    format      ascii;
    arch        "LSB;label=32;scalar=64";
    class       volVectorField;
    location    "79.990692747563429";
    object      vorticity;
}
// * * * * * * * * * * * * * * * * * * * * * * * * * * * * * * * * * * * * * //

dimensions      [0 0 -1 0 0 0 0];

internalField   nonuniform List<vector> 
9700
(
(8.76343e-21 2.96037e-22 2.89674e-05)
(1.37004e-20 -3.50203e-23 2.49409e-05)
(5.20889e-24 -2.271e-21 0.000102759)
(9.27223e-23 -2.10582e-22 7.85511e-05)
(-8.63516e-21 -8.64885e-22 0.000211358)
(8.01754e-21 -9.63943e-21 7.8969e-05)
(-1.39262e-20 4.25119e-23 0.000122323)
(-1.2927e-23 -6.90834e-21 0.000210267)
(1.77731e-20 -9.96561e-21 0.000192257)
(3.56989e-23 2.23712e-21 4.91199e-05)
(-1.04834e-20 -7.78423e-22 0.000234131)
(8.52547e-21 -1.24627e-21 0.00028404)
(-3.06668e-22 -6.89996e-20 0.00018131)
(-6.36629e-20 5.05475e-21 0.000186462)
(8.37805e-21 1.03528e-20 2.25878e-05)
(9.6048e-21 -8.09381e-22 0.000444702)
(6.43077e-24 -2.34866e-21 0.000372894)
(-1.73311e-20 -8.68605e-21 0.000276656)
(-2.0178e-22 1.65691e-20 0.000190408)
(5.30516e-21 9.78448e-21 0.000164932)
(8.99017e-24 -2.1868e-21 4.17181e-06)
(9.26166e-20 1.3181e-21 0.000669351)
(-2.55555e-22 -2.34622e-21 0.000502124)
(-7.71914e-21 -8.84351e-21 0.000324248)
(6.01656e-20 -9.84808e-22 0.000235173)
(4.13429e-21 7.44226e-20 0.000170841)
(-8.97004e-21 -1.51996e-21 0.000160623)
(8.61338e-21 -2.04856e-20 -1.89977e-05)
(-1.28208e-20 4.46104e-22 0.000702456)
(8.58411e-20 1.33117e-20 0.000666391)
(8.55097e-21 -8.10335e-21 0.000341301)
(1.48234e-22 2.25862e-21 0.000299491)
(-3.45088e-21 1.05759e-20 0.000234254)
(-3.21895e-23 -8.16116e-21 0.000172466)
(1.02911e-20 -2.26599e-20 0.0001586)
(-2.23685e-21 -9.84804e-20 -4.21765e-05)
(-9.21407e-20 -1.97446e-20 5.36433e-05)
(2.17185e-21 -4.58242e-20 0.000857631)
(6.83095e-20 1.61467e-23 0.000394486)
(6.29931e-37 2.29767e-21 0.000360904)
(-7.02142e-21 9.82462e-21 0.000318117)
(8.19729e-21 -3.51324e-21 0.000247616)
(3.71214e-23 -1.40621e-21 0.000160396)
(-1.73898e-20 -1.11149e-19 0.000125666)
(-3.53223e-21 1.79491e-20 -6.02778e-05)
(4.05293e-21 -9.00067e-21 -0.000886497)
(-9.80837e-20 -4.74769e-20 0.00106881)
(2.75728e-20 -8.24307e-20 0.000403199)
(-2.07558e-22 2.44074e-21 0.000417467)
(6.59864e-21 7.34549e-21 0.000372991)
(2.06312e-23 -2.19031e-21 0.000289206)
(-1.18764e-20 -1.81433e-20 0.000221441)
(-2.43382e-21 -1.34138e-20 0.000160042)
(8.73491e-20 2.1554e-20 0.000124508)
(1.48093e-20 1.12515e-19 -6.80577e-05)
(-1.29139e-20 6.09768e-21 -0.00163626)
(8.5664e-21 2.00713e-20 0.0013644)
(-7.81147e-20 -6.09326e-21 0.000354265)
(1.38372e-20 3.03885e-20 0.000466868)
(3.17446e-20 5.95391e-21 0.000389013)
(-6.17993e-22 -2.19389e-21 0.000353501)
(-1.01208e-20 -1.6106e-20 0.000304094)
(-1.79987e-20 -1.01246e-19 0.000265246)
(3.18256e-21 1.71529e-20 0.00019818)
(3.59498e-20 1.12637e-19 0.000124726)
(4.77812e-35 -7.8219e-21 -7.65716e-05)
(9.5568e-21 1.16396e-20 -0.00267548)
(9.30683e-21 8.19904e-21 0.00174843)
(-7.09267e-20 5.259e-20 0.00030264)
(3.91137e-20 2.44937e-20 0.000460797)
(-1.54023e-20 5.58471e-20 0.00040261)
(5.20462e-20 -1.68343e-20 0.000395007)
(3.41903e-21 -1.98384e-20 0.000372806)
(-3.05055e-20 -8.37071e-20 0.000323374)
(-7.89426e-20 5.74722e-20 0.000254707)
(5.92162e-23 -1.39564e-21 0.000186252)
(1.21706e-36 -8.13382e-21 9.54066e-05)
(1.3018e-20 1.51492e-20 -6.64023e-05)
(-7.91838e-20 7.76049e-20 -0.00410015)
(7.10363e-20 9.96367e-20 0.00215221)
(2.26502e-20 -1.12931e-20 0.000172052)
(-5.74885e-21 -3.72071e-20 0.000425707)
(1.22244e-20 -2.35456e-20 0.000429336)
(-1.54469e-21 -2.28536e-20 0.000406714)
(4.40108e-20 -3.88726e-20 0.00038815)
(-3.57248e-20 -7.20587e-20 0.000365644)
(8.22394e-22 1.83225e-20 0.000311187)
(1.16228e-20 1.13317e-19 0.000259409)
(3.00747e-34 1.41682e-24 0.000199893)
(1.95491e-20 1.34707e-20 9.81338e-05)
(9.68271e-24 -2.05847e-21 -6.66795e-05)
(-2.00926e-20 -2.60564e-20 -0.00735505)
(2.95121e-21 -3.56683e-20 0.00257235)
(4.64249e-20 7.66963e-21 -2.30859e-05)
(-1.25218e-20 -8.52422e-20 0.000386921)
(4.62834e-20 -1.6364e-21 0.000416687)
(-1.24804e-20 -5.52358e-21 0.000434863)
(-2.84529e-20 -4.48416e-20 0.000405956)
(-4.97306e-20 -6.16434e-20 0.000401004)
(-1.23167e-21 1.82149e-20 0.000390086)
(3.59032e-20 1.08078e-19 0.000334167)
(-4.94473e-35 -8.09231e-21 0.00030056)
(2.52294e-23 1.04353e-23 0.000193145)
(-1.39032e-20 -5.11762e-22 9.63316e-05)
(1.36376e-20 -1.9232e-20 -6.08472e-05)
(-4e-19 -2.26097e-19 -0.00739944)
(-1.04387e-19 -2.12143e-19 0.00345179)
(4.20886e-19 -7.70603e-20 -0.000241465)
(-1.21841e-21 -1.16986e-19 0.000337884)
(-1.95465e-20 -3.35095e-21 0.000321639)
(-3.54518e-21 1.94594e-20 0.000397707)
(-4.36158e-20 5.96245e-21 0.000417949)
(-7.14926e-20 3.68666e-20 0.000421056)
(5.53382e-20 -2.87406e-20 0.000427398)
(6.93449e-20 8.79043e-20 0.000399132)
(-9.88247e-35 -8.04883e-21 0.000363542)
(-1.31046e-20 2.08791e-20 0.000323224)
(-2.00271e-23 -7.56279e-21 0.000207958)
(2.36145e-20 -2.20211e-20 7.20898e-05)
(1.82269e-22 -2.30239e-20 -3.40648e-05)
(-1.5681e-19 2.13948e-19 0.0053682)
(-5.33619e-20 -1.21187e-19 0.00390714)
(2.06409e-20 -3.39817e-20 -0.000860943)
(-7.06691e-21 3.99913e-20 0.000224884)
(-3.68606e-20 1.04096e-20 0.000249411)
(-7.974e-21 2.3354e-21 0.000331599)
(8.28084e-21 -3.60411e-20 0.00038755)
(-7.74619e-20 -3.56282e-20 0.000420355)
(4.79899e-20 6.3293e-20 0.000438288)
(1.42794e-19 2.09936e-20 0.000458083)
(-1.05545e-35 -7.9951e-21 0.000416505)
(-6.42703e-21 2.10274e-20 0.000387258)
(1.4116e-20 -6.18659e-21 0.000310011)
(-2.00306e-20 -1.34192e-19 0.000230369)
(-1.17879e-19 -3.19872e-20 9.6059e-05)
(-6.2111e-22 2.57308e-21 -4.73051e-06)
(9.19791e-19 1.29696e-19 0.0266993)
(1.83213e-20 -2.74853e-20 0.00740545)
(-3.68148e-20 -4.29198e-19 -0.00210675)
(-3.14008e-20 2.70257e-19 -0.000253755)
(-3.6573e-19 -1.93214e-19 3.85777e-05)
(-6.99507e-20 5.01594e-20 0.000232086)
(1.03816e-20 1.57225e-21 0.00035439)
(-4.42997e-20 -6.43189e-20 0.000389445)
(1.04309e-19 2.53494e-20 0.000433687)
(2.93959e-22 2.77133e-21 0.00047635)
(-1.83076e-23 -8.02722e-21 0.000461537)
(2.10375e-20 7.32931e-21 0.000433426)
(7.59652e-24 -2.08353e-21 0.000426511)
(-3.00188e-20 -1.55734e-20 0.000371769)
(-3.20525e-21 -8.65232e-21 0.000259768)
(1.41964e-20 2.20186e-20 0.000114773)
(1.57632e-20 2.41475e-20 7.20602e-06)
(-7.15424e-19 3.03636e-19 0.0568404)
(4.85687e-19 6.52671e-19 0.0290539)
(-1.0434e-19 8.61866e-20 -0.00388724)
(4.70251e-21 1.77672e-21 -0.00181583)
(-9.2071e-23 -6.21798e-20 -0.00090322)
(5.85142e-21 -2.18519e-20 -0.00022355)
(-9.01301e-21 1.13153e-20 0.000160387)
(2.31911e-20 1.56135e-19 0.000342145)
(-8.85582e-20 7.085e-21 0.000440129)
(6.13198e-21 7.61508e-20 0.000451502)
(-7.2224e-20 1.14278e-19 0.000512675)
(9.03062e-20 -5.94105e-20 0.000514973)
(5.46936e-23 -2.08588e-21 0.000493359)
(-2.16826e-20 -1.49039e-20 0.000459519)
(1.13151e-19 -6.83463e-20 0.000366827)
(1.46965e-20 1.67485e-19 0.000261172)
(3.01598e-20 2.17785e-20 9.26659e-05)
(7.19767e-22 -2.70166e-20 4.35144e-05)
(1.69833e-18 -1.54218e-18 0.11438)
(-1.35413e-18 -1.10564e-18 0.0757415)
(3.72625e-19 7.60347e-19 -0.00317419)
(3.1851e-32 -4.45558e-21 -0.00462945)
(1.26153e-19 -4.48775e-19 -0.00333418)
(1.65694e-19 -1.60597e-19 -0.00187606)
(5.359e-20 2.07833e-19 -0.000686601)
(-7.49114e-20 2.05198e-19 1.77367e-05)
(6.91025e-20 1.28355e-19 0.000343829)
(1.47034e-19 1.03482e-21 0.000462909)
(5.34184e-20 -1.20364e-19 0.000507173)
(1.45446e-19 1.6297e-19 0.00053755)
(1.45116e-19 -1.03977e-19 0.000528297)
(8.46038e-21 -2.84957e-20 0.000517118)
(-7.2279e-21 -2.59014e-20 0.000464304)
(-1.20602e-20 2.78493e-20 0.000372972)
(-6.95796e-21 -1.619e-19 0.000283902)
(-1.24262e-19 -4.62148e-20 0.000107271)
(-2.3766e-23 2.39101e-21 6.63983e-05)
(-1.95752e-18 2.54108e-20 0.112725)
(-1.54529e-18 -4.52225e-19 0.157923)
(1.01301e-18 -4.53516e-19 0.0123854)
(-5.08671e-33 6.07014e-21 -0.00729718)
(5.44754e-20 1.18972e-19 -0.00733933)
(8.10553e-20 -9.84688e-20 -0.00530937)
(5.19137e-20 2.76174e-20 -0.00316918)
(-1.09625e-20 4.91477e-20 -0.00138811)
(-1.23785e-19 -1.2699e-19 -0.000308517)
(1.99909e-19 -5.42398e-20 0.000292312)
(2.83445e-20 -1.84416e-19 0.000506554)
(1.26531e-19 2.10993e-19 0.000552337)
(-1.53845e-20 -9.35018e-21 0.000578389)
(1.24941e-19 -9.48146e-20 0.000561079)
(-7.99198e-21 -2.75303e-20 0.000556649)
(8.89312e-22 2.60588e-21 0.000511611)
(-2.92202e-20 2.75974e-20 0.000428383)
(-6.35165e-22 -1.99695e-20 0.000298019)
(2.18036e-20 4.46964e-21 0.000114911)
(-8.14134e-22 2.5055e-20 8.51208e-05)
(-3.12515e-18 1.49383e-18 0.0393871)
(6.73671e-18 1.24547e-18 0.242061)
(-2.92085e-18 1.35561e-18 0.0557)
(-7.99206e-33 3.10407e-20 -0.00443494)
(-3.81136e-19 8.81813e-19 -0.0124373)
(-1.47087e-20 1.16192e-21 -0.0101747)
(4.41693e-19 -1.94057e-19 -0.00737683)
(-3.20106e-20 4.76446e-19 -0.00456414)
(2.29863e-20 -3.20899e-20 -0.00230106)
(2.39571e-19 -1.62366e-19 -0.000782448)
(7.6077e-21 1.99727e-19 0.000179953)
(-2.09987e-19 -8.49075e-20 0.000565942)
(-1.60646e-19 1.89866e-19 0.000636494)
(-1.83474e-19 -2.34779e-19 0.000607939)
(-1.57762e-20 -5.23159e-20 0.000623097)
(-1.01122e-21 2.75625e-21 0.000604245)
(-1.65426e-20 3.12356e-20 0.00053105)
(1.3439e-19 -5.75888e-20 0.000439759)
(1.11569e-22 2.43587e-21 0.000315342)
(-1.22996e-19 4.07879e-20 0.000117414)
(1.45358e-20 -1.10671e-20 9.34504e-05)
(8.71355e-19 3.25845e-18 -0.272981)
(9.03996e-19 -1.74941e-19 0.24293)
(-1.65877e-18 -7.0011e-19 0.129055)
(-1.01147e-33 -6.1526e-20 0.0153718)
(-1.04866e-18 -4.6298e-19 -0.0173374)
(-4.85459e-19 8.54443e-19 -0.0166928)
(-1.43962e-19 -5.38606e-20 -0.0128725)
(1.93347e-20 6.2875e-19 -0.00868249)
(3.75148e-19 6.35841e-20 -0.00542938)
(1.44745e-20 -8.77411e-21 -0.00319471)
(6.93439e-22 -5.34811e-21 -0.00141824)
(2.47173e-20 1.44428e-20 -1.71772e-05)
(1.5221e-20 -6.43233e-21 0.000607838)
(-8.41211e-20 1.64419e-19 0.000710749)
(-4.09467e-20 -2.00111e-19 0.000669534)
(2.81424e-20 2.15551e-20 0.000648349)
(2.46971e-20 2.8005e-20 0.000616603)
(-1.06591e-21 -3.19925e-20 0.000550429)
(-2.3754e-20 4.11282e-21 0.000447006)
(-2.8773e-21 2.9273e-20 0.00032126)
(1.80331e-20 -1.19958e-20 0.000116785)
(7.56496e-21 -2.16693e-19 0.000117554)
(-1.70984e-20 -1.26531e-18 -0.442836)
(-2.93068e-18 -2.40004e-18 0.0977008)
(5.74726e-18 -3.60539e-18 0.200371)
(-3.89327e-33 -1.18433e-20 0.0670123)
(2.73672e-18 3.22513e-19 -0.0172774)
(9.86243e-19 -2.05597e-18 -0.0265072)
(-6.80839e-19 8.4964e-19 -0.0216171)
(1.05001e-20 1.38224e-19 -0.0144227)
(-6.10836e-21 1.55219e-22 -0.00823687)
(4.2897e-19 -3.63735e-19 -0.00516984)
(-1.75232e-33 4.53848e-21 -0.00374577)
(4.4461e-20 -3.45099e-20 -0.00209902)
(1.56033e-20 -3.21393e-20 -0.000287438)
(2.27595e-19 2.07884e-19 0.000637176)
(1.92572e-19 -1.35747e-19 0.000763514)
(1.08913e-19 2.10565e-19 0.00070586)
(1.77703e-19 -9.81277e-22 0.000710803)
(2.71472e-23 -3.50417e-20 0.000641244)
(-7.61415e-23 2.50204e-21 0.000561502)
(1.25898e-19 5.9515e-20 0.000462344)
(-7.4255e-21 5.94111e-20 0.000325504)
(-4.71286e-20 -2.47481e-19 0.000140726)
(-3.94254e-21 1.93432e-20 0.000121861)
(1.16307e-19 -6.75852e-19 -0.498924)
(-1.08468e-19 -3.95367e-19 -0.187802)
(2.79916e-18 1.32304e-18 0.200674)
(-2.02377e-32 8.05703e-20 0.15054)
(3.14827e-19 -1.74352e-18 0.0024513)
(4.95883e-19 -1.78025e-18 -0.0382975)
(9.58248e-19 7.94243e-19 -0.0384291)
(3.91866e-19 1.32708e-18 -0.0275329)
(-1.35819e-19 8.55125e-19 -0.0144134)
(1.00243e-18 -3.47413e-19 -0.00536305)
(-2.6614e-33 -6.95036e-22 -0.00316243)
(4.28702e-19 -2.29775e-20 -0.00368029)
(8.03898e-20 -2.30509e-19 -0.00273886)
(-3.32783e-20 -1.80066e-20 -0.000524757)
(-1.01095e-19 -5.56158e-21 0.000692683)
(-2.07983e-20 -8.31961e-20 0.000811337)
(-2.74737e-20 -9.85561e-21 0.000754334)
(3.05677e-21 -6.84215e-20 0.000724403)
(-1.34006e-22 2.56457e-21 0.000661313)
(-2.87593e-21 2.97583e-20 0.000574141)
(-1.95446e-20 -1.67882e-20 0.000475313)
(3.60532e-21 -1.76117e-20 0.0003181)
(1.62881e-19 3.96632e-20 0.00017311)
(-8.59401e-21 1.8672e-19 0.000119463)
(8.3731e-21 -8.54627e-20 -0.50489)
(3.36649e-20 -5.52151e-19 -0.397099)
(7.27312e-20 -1.03304e-18 0.103924)
(-8.61904e-21 1.74697e-20 0.222462)
(-5.09694e-18 9.75081e-19 0.0607087)
(-1.45396e-18 6.77012e-18 -0.0423941)
(-2.04387e-18 -1.6541e-18 -0.0616104)
(6.77277e-20 2.07829e-19 -0.0557768)
(-1.10208e-18 1.46759e-19 -0.0355859)
(4.17924e-19 -1.09258e-18 -0.0130837)
(3.92828e-35 9.07558e-21 9.2484e-05)
(9.1029e-20 5.63903e-20 0.000787861)
(-6.56335e-21 -1.99924e-20 -0.00292776)
(-1.10245e-20 -6.54333e-20 -0.00321267)
(-3.00891e-19 1.7185e-19 -0.000688096)
(-1.77881e-19 -2.40361e-19 0.000740756)
(-1.70747e-19 1.49247e-19 0.000839783)
(5.43555e-20 -2.49992e-19 0.000817602)
(3.1189e-20 5.80293e-21 0.000768084)
(-6.49937e-21 3.28806e-20 0.000698592)
(-1.84359e-20 -1.53027e-20 0.000599634)
(1.37184e-19 -2.4714e-19 0.000458104)
(-3.82768e-20 1.97467e-19 0.000342484)
(6.56669e-20 2.04042e-19 0.000154911)
(-1.07989e-21 8.6113e-21 0.000109341)
(8.30067e-19 -7.27755e-19 -0.467878)
(-1.0234e-18 9.87487e-18 -0.419804)
(-4.87744e-18 1.45888e-18 -0.0706313)
(3.08074e-18 3.01884e-18 0.23741)
(5.76224e-19 2.37366e-18 0.155657)
(3.2948e-20 7.73313e-19 -0.0213424)
(4.4424e-19 -2.2853e-18 -0.0819357)
(1.35085e-18 2.30114e-18 -0.0943933)
(6.09326e-19 -6.32111e-19 -0.0803233)
(-6.76043e-19 -1.37461e-18 -0.0472536)
(-1.6458e-33 7.22764e-21 -0.0112253)
(4.28811e-19 7.6844e-19 0.00759919)
(-3.32966e-20 4.99206e-19 0.00623059)
(-9.63619e-19 -4.90377e-19 -0.00174731)
(-3.68361e-19 1.40978e-19 -0.00349115)
(-5.79844e-20 2.83881e-20 -0.000711655)
(1.031e-19 3.69746e-19 0.00078561)
(2.62699e-19 -3.27167e-20 0.000893403)
(3.60534e-20 1.73432e-20 0.000839769)
(-1.89133e-20 6.60355e-20 0.000793244)
(1.86441e-20 -7.62564e-21 0.000683898)
(7.87355e-20 -2.54621e-19 0.000588752)
(-1.75392e-19 -2.8336e-20 0.000439906)
(-2.62477e-20 8.66027e-20 0.000332047)
(9.15408e-20 1.94941e-20 0.000174072)
(3.41096e-22 -1.78482e-21 0.000107674)
(5.96593e-19 -1.22306e-19 -0.416513)
(-7.93336e-19 4.04609e-18 -0.450789)
(-6.83397e-21 -3.96542e-20 -0.190019)
(2.98434e-20 -9.68448e-20 0.136003)
(-1.36118e-18 -2.92943e-19 0.24947)
(-2.88522e-19 -3.61172e-18 0.0525265)
(3.48689e-18 1.41961e-18 -0.0879387)
(1.8987e-18 2.2329e-18 -0.130506)
(1.94165e-18 -2.32325e-18 -0.139092)
(2.241e-19 -1.48026e-19 -0.112355)
(-5.18516e-33 -9.36107e-22 -0.0628846)
(-2.21032e-19 1.32072e-20 -0.00923089)
(3.47307e-20 2.83244e-19 0.016442)
(-1.43689e-19 4.21635e-20 0.0120272)
(-6.99852e-20 -4.12971e-20 -0.000637376)
(7.08079e-20 3.25857e-20 -0.00354622)
(1.70019e-20 6.99979e-20 -0.000562402)
(-1.03002e-19 -5.79698e-20 0.000830897)
(2.94442e-22 9.26823e-22 0.000895541)
(1.78236e-20 2.36673e-19 0.000847669)
(1.72808e-19 2.83285e-20 0.000781301)
(1.09311e-19 -2.74322e-19 0.000705585)
(-1.17469e-21 2.03925e-20 0.000577753)
(-1.68453e-19 1.69011e-19 0.00043844)
(7.31928e-20 -2.5791e-19 0.000323744)
(-1.29808e-19 -2.27847e-20 0.000158748)
(5.9083e-22 -1.44327e-20 8.47506e-05)
(1.58412e-19 -2.28368e-19 -0.355239)
(5.65119e-19 -6.92193e-18 -0.446643)
(6.12765e-19 -7.95594e-18 -0.235557)
(7.47105e-19 2.74658e-18 0.0299716)
(8.68235e-18 -3.41211e-18 0.266456)
(-1.38862e-19 -3.03893e-19 0.155222)
(-7.24463e-20 3.38633e-18 -0.0575078)
(2.53528e-18 2.07923e-18 -0.154387)
(1.16562e-18 -2.43563e-18 -0.19459)
(8.16008e-19 -2.85877e-18 -0.193512)
(2.28841e-34 -1.8776e-20 -0.149079)
(-7.01015e-19 -5.66335e-19 -0.0797192)
(3.13395e-20 -5.68478e-22 -0.00621909)
(-2.90756e-19 1.12194e-18 0.0257599)
(1.83816e-19 -7.99208e-19 0.0169195)
(4.014e-19 5.65662e-19 -6.81505e-05)
(9.56363e-20 6.39313e-20 -0.00337269)
(-3.96231e-19 -3.27363e-20 -0.000257761)
(-5.00809e-20 6.26814e-23 0.000926803)
(2.66926e-19 4.99858e-20 0.000921692)
(1.20574e-19 -3.99194e-19 0.000880598)
(-1.02394e-19 -4.26457e-19 0.000807092)
(-2.43338e-21 2.0663e-20 0.000683602)
(-1.00575e-19 2.03153e-19 0.000549333)
(-1.01875e-19 -2.03879e-20 0.00041454)
(-1.72477e-21 1.78118e-20 0.00029305)
(6.25887e-20 -2.4032e-21 0.000160537)
(-2.75743e-22 -6.41589e-21 9.07229e-05)
(1.20429e-19 -4.14966e-19 -0.276495)
(2.40441e-18 -7.73343e-18 -0.403279)
(1.17981e-18 3.74198e-18 -0.272796)
(3.83857e-18 -1.08453e-17 -0.0393154)
(-4.85808e-18 -9.00031e-18 0.225436)
(-2.37544e-19 -4.61193e-19 0.267365)
(7.11163e-19 -8.36264e-19 0.0160911)
(2.63926e-18 1.3625e-18 -0.154038)
(2.88273e-19 2.2758e-18 -0.235626)
(2.16248e-18 -4.85764e-18 -0.271566)
(-1.03633e-33 1.25402e-19 -0.251245)
(1.62436e-18 -1.11481e-18 -0.184212)
(-6.19017e-19 -6.37909e-19 -0.0921778)
(2.86264e-19 -1.20982e-19 0.000709867)
(-1.8184e-19 -1.11404e-19 0.0348337)
(1.68542e-20 1.79209e-19 0.0198177)
(-2.24436e-19 -5.82564e-19 -0.000317669)
(-4.41009e-19 -1.31405e-19 -0.00295178)
(-6.12849e-20 -3.20684e-21 0.000125786)
(-1.10324e-19 2.72975e-20 0.000964636)
(-1.39706e-19 -1.6092e-19 0.000952263)
(9.69377e-20 -1.72633e-19 0.000871339)
(2.07177e-19 1.47414e-19 0.000787566)
(-1.34034e-19 2.10443e-19 0.00068114)
(-1.12526e-20 8.26986e-21 0.000529802)
(1.24785e-19 5.12794e-20 0.000414206)
(-2.38561e-20 7.13028e-20 0.000295581)
(-3.27571e-20 -2.50444e-21 0.000165377)
(1.19897e-20 -1.09514e-19 6.64881e-05)
(2.12909e-18 -1.37561e-18 -0.201199)
(1.09098e-19 9.58648e-19 -0.33223)
(-1.58026e-18 6.9279e-18 -0.219364)
(-8.61407e-20 -5.89404e-18 -0.0588497)
(6.91049e-18 -4.11608e-18 0.173959)
(-8.96755e-19 -1.60073e-18 0.309311)
(-7.94673e-18 6.53559e-19 0.154398)
(7.9731e-19 5.75328e-18 -0.115045)
(-2.62574e-18 6.43391e-18 -0.253345)
(7.73411e-19 -4.77127e-18 -0.333164)
(3.2761e-33 1.16519e-19 -0.352781)
(-3.42104e-18 2.46772e-18 -0.303052)
(1.15684e-18 -2.47413e-19 -0.209751)
(-3.76807e-19 -7.00445e-19 -0.0991961)
(2.50698e-18 9.63507e-19 0.0144774)
(7.57128e-19 -1.09776e-18 0.0429226)
(-5.34252e-20 1.87555e-19 0.020106)
(-1.18868e-20 -1.01742e-19 -0.00118481)
(5.74954e-20 1.25075e-20 -0.00231161)
(-3.96454e-19 -3.2381e-20 0.000490716)
(1.36689e-19 -3.02017e-19 0.000998546)
(4.76701e-19 -3.07139e-20 0.000951508)
(-8.20998e-20 3.37215e-19 0.000893025)
(-1.92959e-19 2.04835e-19 0.000770872)
(-1.671e-20 8.20369e-21 0.000648447)
(1.21343e-21 -1.76013e-21 0.000518507)
(-4.80125e-20 -4.07722e-20 0.000379114)
(1.69429e-20 -5.5499e-20 0.000253764)
(1.87524e-20 -1.08205e-19 0.000163583)
(-1.71425e-21 1.38769e-20 4.82639e-05)
(7.37692e-19 2.28615e-20 -0.0710168)
(3.49056e-19 3.55746e-19 -0.241385)
(-1.46668e-19 -3.19857e-19 -0.182408)
(2.80088e-18 5.65832e-18 -0.0520997)
(-4.31873e-18 6.0262e-18 0.149784)
(-9.666e-18 3.58666e-18 0.324184)
(-1.27699e-19 -1.59721e-20 0.271375)
(-4.42682e-18 -1.67572e-19 -0.0158491)
(-2.751e-18 7.53597e-18 -0.240329)
(-1.61611e-18 1.76474e-18 -0.368259)
(4.51673e-32 7.49134e-20 -0.437299)
(1.07732e-18 -1.88748e-18 -0.426701)
(1.18494e-18 -1.17285e-18 -0.339636)
(-2.31465e-18 1.48565e-19 -0.220233)
(-5.5658e-19 -9.0616e-20 -0.0726933)
(-1.0783e-18 -9.51405e-19 0.0325971)
(-8.58685e-19 1.13751e-18 0.0490095)
(6.66448e-19 -5.2624e-19 0.0175677)
(-6.76258e-23 4.32381e-21 -0.00219029)
(-4.51809e-19 1.40319e-20 -0.00144053)
(-1.97211e-20 -2.00116e-20 0.000749312)
(4.22618e-20 -2.89252e-20 0.00100595)
(2.52791e-19 -2.6946e-19 0.000929575)
(-3.98242e-19 5.33461e-20 0.000856677)
(1.21273e-19 1.43165e-19 0.000747984)
(2.64002e-22 -1.74257e-21 0.000609018)
(8.65199e-21 -1.22198e-20 0.000462924)
(2.22676e-20 1.67078e-20 0.000334662)
(-1.01198e-20 3.47754e-20 0.000239001)
(8.5496e-20 1.47281e-20 0.0001254)
(-1.91583e-21 8.86156e-20 2.58302e-05)
(-1.0742e-19 -8.97057e-19 0.0437033)
(1.28607e-18 -1.73321e-18 -0.174354)
(3.62803e-19 -5.29816e-19 -0.128318)
(1.10623e-19 -2.30638e-18 -0.0370837)
(1.85611e-18 6.187e-18 0.151991)
(-3.22829e-18 1.73293e-18 0.316249)
(-2.88229e-18 -1.48706e-18 0.362213)
(-4.13728e-19 -4.56742e-18 0.11942)
(3.06324e-18 3.56556e-18 -0.181551)
(2.77774e-19 -1.92229e-18 -0.372606)
(2.36523e-20 6.47566e-20 -0.493876)
(4.30024e-18 -2.88628e-18 -0.534025)
(-3.4485e-18 6.32679e-18 -0.481666)
(4.97283e-18 -7.61685e-19 -0.335435)
(1.99919e-18 -1.44615e-20 -0.221532)
(2.06078e-19 1.06465e-19 -0.0317131)
(-5.26836e-19 -1.29945e-18 0.0513843)
(-7.54866e-20 -2.2239e-19 0.0512168)
(-9.21934e-20 1.8616e-20 0.0127431)
(-3.85145e-20 1.16984e-19 -0.00271246)
(3.88584e-20 1.01688e-20 -0.000580549)
(3.89305e-19 -5.50265e-19 0.000890142)
(-4.53535e-19 2.15608e-19 0.000974915)
(4.09812e-20 4.10784e-19 0.000920845)
(-3.19105e-20 6.51454e-21 0.000819462)
(-1.0663e-20 -1.57282e-20 0.000698261)
(1.00647e-20 -1.08619e-20 0.000541323)
(9.18373e-22 -6.33574e-21 0.000422598)
(4.53168e-20 -9.72656e-20 0.000293549)
(1.05321e-20 -3.9109e-20 0.000210565)
(-3.1069e-20 8.56588e-20 0.000118039)
(3.48763e-22 -9.8853e-20 5.35977e-06)
(3.28259e-20 -1.08047e-18 0.126412)
(1.26847e-18 -4.06271e-19 -0.102631)
(-1.93279e-19 1.80409e-19 -0.0472992)
(3.86352e-18 1.65299e-18 0.00574424)
(2.8115e-18 -4.37091e-18 0.181928)
(-3.72744e-18 -3.62206e-18 0.320476)
(9.53872e-19 -1.38e-18 0.403519)
(1.38118e-18 -3.69967e-19 0.258264)
(1.05023e-18 -5.45211e-18 -0.0766639)
(-1.22707e-19 -1.34914e-18 -0.337766)
(-2.37642e-18 6.07362e-18 -0.516608)
(-1.40003e-18 3.66074e-18 -0.614866)
(-5.84574e-19 9.95349e-19 -0.609773)
(1.20765e-18 -1.67142e-18 -0.508124)
(5.55621e-19 5.60023e-20 -0.322888)
(4.84741e-19 -4.96273e-20 -0.163097)
(1.5278e-18 -8.30975e-19 2.64116e-05)
(6.11265e-19 3.00175e-18 0.0695549)
(1.12746e-18 -3.6312e-19 0.0478078)
(5.57559e-19 4.0813e-19 0.00697089)
(-3.20485e-19 5.20932e-19 -0.00250407)
(5.70107e-19 -6.5681e-19 0.000154392)
(-3.35437e-19 -3.61894e-19 0.000972622)
(-1.84897e-19 5.16994e-19 0.000948484)
(-2.66507e-19 1.41155e-19 0.000886701)
(-1.01282e-20 -1.85928e-20 0.000767799)
(8.53318e-20 1.10259e-19 0.000634331)
(-6.88058e-22 -5.85097e-21 0.000518231)
(5.46068e-20 -7.9371e-20 0.00037742)
(-6.74336e-20 -1.35832e-20 0.000277397)
(-6.80609e-21 5.34021e-20 0.000179104)
(3.71876e-20 -9.72948e-20 0.00011547)
(-1.8503e-21 1.24179e-20 -2.24894e-05)
(3.7543e-19 -8.62814e-19 0.142486)
(-6.74709e-19 -2.75889e-18 -0.00901051)
(1.1694e-19 -2.83182e-19 0.0258136)
(1.64409e-18 9.8059e-19 0.0795491)
(-6.16198e-21 -3.38012e-18 0.235832)
(1.42693e-18 -3.1977e-19 0.346891)
(2.57485e-19 1.3414e-18 0.429151)
(-2.82929e-18 6.16651e-19 0.358568)
(2.0017e-18 7.45849e-19 0.0535371)
(1.17924e-18 -4.1422e-18 -0.265019)
(-2.45976e-20 2.28047e-19 -0.496852)
(7.50869e-19 -1.43477e-18 -0.659573)
(1.90937e-18 -4.9776e-18 -0.714513)
(-6.76535e-18 1.65585e-18 -0.653991)
(-5.12498e-19 -1.2697e-19 -0.508314)
(-4.2451e-19 -2.72812e-19 -0.293741)
(-1.7801e-18 -1.27751e-18 -0.107003)
(-1.71237e-19 -5.30795e-19 0.040401)
(-3.30796e-21 -8.25918e-20 0.0821998)
(-2.99546e-20 1.95862e-19 0.038575)
(-6.21908e-20 -7.23119e-20 0.00201107)
(-1.26579e-20 -2.58509e-21 -0.0016486)
(4.30411e-19 5.85547e-19 0.000638468)
(-7.33378e-19 -1.1911e-19 0.000945717)
(4.04137e-19 -1.6665e-19 0.000920043)
(-7.97938e-22 -1.9824e-21 0.000825129)
(-2.14102e-20 1.56386e-21 0.000728687)
(-7.2468e-21 5.16466e-21 0.000598214)
(8.09942e-20 -4.88003e-20 0.000466463)
(-1.38172e-21 1.3542e-20 0.000343132)
(1.69126e-21 7.19786e-20 0.000243422)
(-4.85627e-22 2.43562e-20 0.000157487)
(7.50516e-20 9.36918e-21 6.7616e-05)
(1.94161e-21 9.55058e-20 -3.59069e-05)
(-3.75821e-19 -4.53732e-19 0.160133)
(-4.23583e-20 1.16487e-18 0.106989)
(-3.03908e-19 -9.56126e-20 0.123987)
(2.99296e-18 8.90197e-19 0.184813)
(1.26465e-18 2.27905e-19 0.310959)
(-9.50592e-18 7.49501e-19 0.396549)
(-4.28089e-20 3.1978e-19 0.461956)
(7.49795e-19 -1.74439e-18 0.430045)
(-2.27993e-19 -1.51375e-18 0.178424)
(-2.87494e-19 6.23422e-19 -0.192593)
(2.01433e-18 -5.67684e-18 -0.444641)
(-4.43581e-18 2.28501e-18 -0.65749)
(2.43042e-19 -4.72063e-19 -0.781663)
(-1.71589e-18 3.7691e-18 -0.778676)
(1.19021e-17 -1.17734e-18 -0.660163)
(1.10184e-18 2.29158e-18 -0.480678)
(-4.83181e-19 -2.73986e-19 -0.252019)
(7.84324e-19 1.54844e-18 -0.041304)
(7.42857e-21 1.71874e-20 0.0823399)
(1.1352e-18 -3.05105e-18 0.0835182)
(-8.83722e-19 -3.31474e-19 0.0257761)
(1.02629e-18 -9.49316e-19 -0.000952945)
(4.93729e-19 -3.11962e-19 -0.000624368)
(-8.11664e-19 -1.76173e-20 0.000856266)
(-1.88682e-19 -3.93107e-19 0.000903582)
(5.4751e-21 4.06019e-20 0.000862895)
(-2.30832e-19 2.56153e-20 0.000783856)
(8.06257e-20 1.07795e-19 0.000646812)
(1.07742e-19 2.18511e-20 0.000538827)
(-1.25732e-21 1.27721e-20 0.000423679)
(-1.99666e-20 4.97429e-20 0.000297461)
(-2.39722e-20 -7.9283e-20 0.000199492)
(8.10167e-22 -4.19151e-21 0.000134464)
(5.89787e-20 9.11981e-20 6.4417e-05)
(4.51347e-23 -6.59479e-21 -4.5718e-05)
(-4.15199e-20 1.9051e-18 0.219472)
(-2.33222e-19 5.98156e-18 0.18582)
(1.09114e-18 2.23627e-18 0.231673)
(-8.64779e-19 -4.11246e-19 0.310091)
(1.76089e-18 -4.78881e-19 0.401163)
(-4.00189e-18 -4.80736e-19 0.464693)
(3.90614e-18 -2.34752e-20 0.522771)
(9.58205e-18 -1.7364e-18 0.49207)
(-4.3056e-18 -3.59603e-18 0.291726)
(-1.86468e-18 5.52137e-18 -0.106433)
(-1.37628e-18 4.61985e-18 -0.364667)
(-1.16315e-19 5.83755e-19 -0.626017)
(2.50089e-19 -9.41522e-19 -0.805053)
(-5.14506e-19 -1.00362e-18 -0.865937)
(-1.49953e-18 2.75092e-19 -0.797486)
(-4.37177e-18 -6.91497e-19 -0.625019)
(-7.89196e-19 -1.13974e-18 -0.403629)
(2.92121e-19 3.55781e-19 -0.160975)
(6.19028e-19 -1.99834e-19 0.0322496)
(-2.37198e-19 6.34605e-19 0.111973)
(-8.65783e-19 1.60898e-18 0.0719069)
(1.87188e-18 -5.71863e-19 0.0131419)
(-5.73166e-19 -9.6547e-19 -0.00172583)
(9.81834e-21 -8.88775e-24 0.000198042)
(-6.35381e-20 4.52939e-20 0.000872474)
(8.62589e-21 3.97137e-20 0.000860191)
(-1.61651e-20 -3.92897e-21 0.0008069)
(2.59093e-21 -1.62205e-20 0.000687634)
(1.5343e-20 -8.46504e-21 0.000568777)
(1.1158e-20 5.85016e-20 0.000449477)
(-2.41859e-20 2.52025e-20 0.000345876)
(-1.17358e-22 -6.18069e-20 0.00027048)
(-6.3084e-20 2.42078e-20 0.00020033)
(-3.77064e-21 -3.04108e-20 0.000143219)
(-2.83188e-20 -3.9147e-21 2.75273e-05)
(-4.0989e-22 -1.13156e-20 -4.87975e-05)
(4.16889e-19 2.88082e-18 0.278119)
(-2.23903e-19 -2.22062e-18 0.23925)
(4.94593e-19 1.79004e-18 0.343258)
(3.81541e-18 6.97542e-18 0.419729)
(2.71918e-18 -4.23443e-18 0.497918)
(-8.35752e-18 -1.29567e-18 0.544472)
(4.16022e-18 3.0351e-19 0.569275)
(-1.41581e-18 -1.89451e-19 0.551782)
(-4.5762e-18 3.03255e-19 0.409266)
(3.86144e-19 8.66755e-19 0.0180428)
(1.68411e-18 -4.961e-18 -0.272935)
(-9.88293e-19 1.15771e-19 -0.55981)
(1.40393e-18 -4.06296e-18 -0.799086)
(9.34151e-18 -2.78157e-18 -0.92059)
(6.37832e-18 4.77972e-18 -0.902036)
(6.26524e-19 -6.93899e-19 -0.766519)
(-6.05638e-18 -1.21237e-18 -0.549315)
(-4.40807e-19 -3.43337e-19 -0.299951)
(-1.71677e-18 -2.00263e-19 -0.0614605)
(6.35715e-19 -1.93292e-18 0.0986318)
(1.7661e-18 -1.38283e-19 0.120788)
(-2.13844e-18 1.97727e-18 0.0512708)
(9.76543e-19 1.7858e-18 0.00400295)
(-9.7253e-19 8.9983e-19 -0.00114488)
(9.0473e-20 -1.18588e-20 0.000605159)
(9.01611e-21 -4.08206e-19 0.000852661)
(1.07103e-19 -3.3638e-19 0.000791933)
(3.10904e-19 -1.18393e-19 0.00073471)
(2.6907e-19 4.78593e-20 0.000614645)
(2.51137e-20 4.6809e-20 0.000496343)
(-2.36425e-20 -8.63585e-21 0.000411749)
(-3.38186e-21 -3.77182e-20 0.000314709)
(-5.58212e-22 1.20205e-20 0.000244975)
(-2.51161e-20 9.47884e-20 0.00017878)
(-2.08071e-22 3.9638e-21 0.000117078)
(4.77004e-20 -1.65515e-20 1.58011e-05)
(-1.33989e-23 1.16197e-21 -4.4011e-05)
(5.12265e-19 -2.2912e-18 0.356608)
(-1.54457e-18 -6.06347e-18 0.367587)
(-1.23164e-18 -4.14024e-18 0.469609)
(2.42095e-19 3.18464e-21 0.525192)
(1.43724e-18 2.71835e-18 0.590174)
(-3.66166e-18 -3.12123e-18 0.629378)
(4.2517e-18 -9.75038e-19 0.636558)
(-1.29289e-18 1.20733e-18 0.608387)
(-2.90358e-18 -4.12808e-19 0.459707)
(-3.27916e-18 1.25016e-19 0.198882)
(1.08644e-18 -2.99133e-18 -0.179204)
(1.03e-19 -6.80479e-19 -0.478591)
(-3.03953e-18 5.93325e-18 -0.742985)
(-1.5388e-19 3.54028e-19 -0.935516)
(-5.1829e-18 8.63479e-19 -0.981452)
(9.98246e-19 -2.84921e-18 -0.883961)
(1.29924e-18 3.14168e-18 -0.686161)
(7.04467e-18 3.90041e-18 -0.438587)
(2.67183e-18 1.43785e-18 -0.180253)
(7.80619e-20 -4.68736e-19 0.0395255)
(-2.61674e-19 7.62867e-20 0.144627)
(1.43214e-18 -3.04042e-18 0.107393)
(1.15437e-18 -6.7526e-19 0.0288538)
(-1.39074e-18 4.26083e-19 -0.000454294)
(-1.159e-19 -7.70201e-20 -0.000226243)
(-1.23223e-20 6.77749e-21 0.00069339)
(3.71389e-20 6.23357e-20 0.000751018)
(-4.44231e-22 -2.07433e-20 0.000719587)
(1.15514e-20 1.87805e-20 0.000643374)
(-8.90175e-20 -7.98826e-20 0.000533674)
(-2.5717e-20 2.18316e-20 0.000454544)
(-1.31663e-20 -2.60882e-21 0.000353238)
(-8.46351e-22 1.16029e-20 0.000271107)
(3.25829e-20 7.19441e-20 0.00019898)
(2.60636e-20 -1.52539e-20 0.00015418)
(7.10666e-21 3.10456e-20 9.96183e-05)
(1.47084e-20 -1.32147e-23 1.18563e-05)
(3.17891e-22 1.32181e-20 -3.21453e-05)
(-1.11633e-18 -3.97204e-18 0.396574)
(-1.53865e-19 -2.51357e-19 0.475731)
(-1.85539e-18 1.21827e-18 0.58087)
(-2.03958e-18 -5.60473e-18 0.625382)
(-6.79173e-19 1.01761e-18 0.67731)
(-2.39277e-18 -2.72991e-18 0.706136)
(-1.71914e-18 -2.55092e-18 0.707983)
(-4.55974e-18 -2.39914e-18 0.665902)
(-7.47691e-18 -7.85533e-19 0.541838)
(1.00389e-18 -7.56102e-20 0.254358)
(-3.62573e-19 8.90148e-19 -0.0503012)
(2.21242e-18 -7.78357e-19 -0.387135)
(-1.03367e-18 2.68916e-18 -0.667893)
(3.85544e-19 -3.52873e-19 -0.889362)
(2.30489e-18 -9.66213e-18 -1.00683)
(-1.09262e-17 -4.56673e-18 -0.976707)
(-7.61368e-18 -1.52105e-18 -0.802623)
(-8.51698e-19 -2.92826e-19 -0.562966)
(-3.43251e-19 -6.89945e-19 -0.30192)
(1.22348e-19 4.73953e-19 -0.0506359)
(-7.4021e-20 5.93813e-21 0.127989)
(-3.24067e-18 3.06548e-18 0.160017)
(5.6962e-19 5.02178e-19 0.0779959)
(2.26412e-18 -5.26768e-19 0.0114911)
(-1.47968e-19 -7.18576e-19 -0.00137136)
(-1.11148e-19 6.83678e-19 0.000321631)