/*--------------------------------*- C++ -*----------------------------------*\
| =========                 |                                                 |
| \\      /  F ield         | OpenFOAM: The Open Source CFD Toolbox           |
|  \\    /   O peration     | Version:  2506                                  |
|   \\  /    A nd           | Website:  www.openfoam.com                      |
|    \\/     M anipulation  |                                                 |
\*---------------------------------------------------------------------------*/
FoamFile
{
    version     2.0;
    format      ascii;
    arch        "LSB;label=32;scalar=64";
    class       volScalarField;
    location    "150";
    object      nuTilda;
}
// * * * * * * * * * * * * * * * * * * * * * * * * * * * * * * * * * * * * * //

dimensions      [0 2 -1 0 0 0 0];

internalField   nonuniform List<scalar> 
1340
(
4.00562e-05
4.00548e-05
4.00565e-05
4.00571e-05
4.00584e-05
4.00534e-05
4.0052e-05
4.00535e-05
4.00545e-05
4.00562e-05
4.00534e-05
4.0051e-05
4.00495e-05
4.00507e-05
4.00521e-05
4.00541e-05
4.00518e-05
4.00515e-05
4.0049e-05
4.00473e-05
4.00483e-05
4.00498e-05
4.0052e-05
4.00501e-05
4.00499e-05
4.00515e-05
4.00473e-05
4.00455e-05
4.00461e-05
4.00477e-05
4.005e-05
4.00485e-05
4.00484e-05
4.00498e-05
4.00519e-05
4.00458e-05
4.00439e-05
4.00443e-05
4.00457e-05
4.00482e-05
4.0047e-05
4.00469e-05
4.00482e-05
4.00501e-05
4.00521e-05
4.00444e-05
4.00425e-05
4.00426e-05
4.0044e-05
4.00464e-05
4.00455e-05
4.00455e-05
4.00466e-05
4.00484e-05
4.00502e-05
4.00433e-05
4.00413e-05
4.00412e-05
4.00425e-05
4.00448e-05
4.00441e-05
4.00441e-05
4.00451e-05
4.00467e-05
4.00484e-05
4.005e-05
4.00422e-05
4.00403e-05
4.00399e-05
4.0041e-05
4.00433e-05
4.00428e-05
4.00428e-05
4.00437e-05
4.00452e-05
4.00467e-05
4.00483e-05
4.00412e-05
4.00394e-05
4.00388e-05
4.00398e-05
4.00419e-05
4.00416e-05
4.00416e-05
4.00424e-05
4.00437e-05
4.00451e-05
4.00465e-05
4.00479e-05
4.00403e-05
4.00385e-05
4.00378e-05
4.00386e-05
4.00406e-05
4.00404e-05
4.00404e-05
4.00411e-05
4.00423e-05
4.00436e-05
4.00448e-05
4.00462e-05
4.00393e-05
4.00377e-05
4.00369e-05
4.00375e-05
4.00394e-05
4.00393e-05
4.00393e-05
4.00399e-05
4.0041e-05
4.00421e-05
4.00433e-05
4.00445e-05
4.00384e-05
4.0037e-05
4.00361e-05
4.00366e-05
4.00384e-05
4.00383e-05
4.00383e-05
4.00388e-05
4.00397e-05
4.00407e-05
4.00418e-05
4.0043e-05
4.00441e-05
4.00376e-05
4.00364e-05
4.00356e-05
4.0036e-05
4.00375e-05
4.00375e-05
4.00374e-05
4.00378e-05
4.00386e-05
4.00395e-05
4.00404e-05
4.00415e-05
4.00426e-05
4.0037e-05
4.0036e-05
4.00354e-05
4.00357e-05
4.0037e-05
4.00368e-05
4.00366e-05
4.00369e-05
4.00376e-05
4.00383e-05
4.00392e-05
4.00401e-05
4.00411e-05
4.0042e-05
4.00368e-05
4.0036e-05
4.00355e-05
4.00357e-05
4.00367e-05
4.00364e-05
4.00361e-05
4.00362e-05
4.00367e-05
4.00373e-05
4.0038e-05
4.00389e-05
4.00397e-05
4.00406e-05
4.00368e-05
4.00363e-05
4.00358e-05
4.00359e-05
4.00366e-05
4.00362e-05
4.00357e-05
4.00356e-05
4.0036e-05
4.00365e-05
4.0037e-05
4.00377e-05
4.00385e-05
4.00393e-05
4.00371e-05
4.00367e-05
4.00362e-05
4.00362e-05
4.00366e-05
4.00361e-05
4.00355e-05
4.00353e-05
4.00354e-05
4.00358e-05
4.00362e-05
4.00368e-05
4.00374e-05
4.00381e-05
4.00387e-05
4.00375e-05
4.00373e-05
4.00368e-05
4.00366e-05
4.00368e-05
4.00361e-05
4.00354e-05
4.0035e-05
4.00351e-05
4.00353e-05
4.00355e-05
4.0036e-05
4.00365e-05
4.0037e-05
4.00376e-05
4.0038e-05
4.00378e-05
4.00374e-05
4.00371e-05
4.00369e-05
4.00362e-05
4.00353e-05
4.00349e-05
4.00348e-05
4.00349e-05
4.00351e-05
4.00354e-05
4.00357e-05
4.00362e-05
4.00367e-05
4.00384e-05
4.00384e-05
4.00381e-05
4.00376e-05
4.00372e-05
4.00363e-05
4.00354e-05
4.00349e-05
4.00347e-05
4.00346e-05
4.00347e-05
4.00349e-05
4.00351e-05
4.00355e-05
4.00359e-05
4.00363e-05
4.00389e-05
4.00391e-05
4.00389e-05
4.00383e-05
4.00375e-05
4.00365e-05
4.00355e-05
4.00349e-05
4.00346e-05
4.00345e-05
4.00345e-05
4.00345e-05
4.00347e-05
4.00349e-05
4.00352e-05
4.00355e-05
4.00398e-05
4.00398e-05
4.0039e-05
4.00379e-05
4.00368e-05
4.00357e-05
4.00351e-05
4.00347e-05
4.00345e-05
4.00343e-05
4.00343e-05
4.00343e-05
4.00344e-05
4.00346e-05
4.00348e-05
4.00351e-05
4.00405e-05
4.00406e-05
4.00398e-05
4.00384e-05
4.00371e-05
4.00361e-05
4.00353e-05
4.00348e-05
4.00345e-05
4.00342e-05
4.0034e-05
4.0034e-05
4.0034e-05
4.00341e-05
4.00342e-05
4.00344e-05
4.00413e-05
4.00413e-05
4.00405e-05
4.00389e-05
4.00376e-05
4.00365e-05
4.00356e-05
4.0035e-05
4.00345e-05
4.00341e-05
4.00339e-05
4.00337e-05
4.00336e-05
4.00336e-05
4.00337e-05
4.00338e-05
4.0042e-05
4.0042e-05
4.00411e-05
4.00394e-05
4.00381e-05
4.00369e-05
4.00359e-05
4.00352e-05
4.00346e-05
4.00341e-05
4.00337e-05
4.00334e-05
4.00333e-05
4.00332e-05
4.00331e-05
4.00332e-05
4.00333e-05
4.00426e-05
4.00425e-05
4.00416e-05
4.004e-05
4.00387e-05
4.00374e-05
4.00363e-05
4.00354e-05
4.00347e-05
4.0034e-05
4.00336e-05
4.00332e-05
4.0033e-05
4.00328e-05
4.00327e-05
4.00326e-05
4.00327e-05
4.00431e-05
4.00431e-05
4.00421e-05
4.00405e-05
4.00391e-05
4.00379e-05
4.00367e-05
4.00356e-05
4.00348e-05
4.0034e-05
4.00335e-05
4.0033e-05
4.00327e-05
4.00324e-05
4.00323e-05
4.00321e-05
4.00321e-05
4.00437e-05
4.00435e-05
4.00426e-05
4.00409e-05
4.00395e-05
4.00383e-05
4.0037e-05
4.00359e-05
4.00349e-05
4.00341e-05
4.00334e-05
4.00329e-05
4.00325e-05
4.00321e-05
4.00319e-05
4.00317e-05
4.00316e-05
4.00315e-05
4.00441e-05
4.00439e-05
4.00429e-05
4.00413e-05
4.00398e-05
4.00386e-05
4.00373e-05
4.00361e-05
4.00351e-05
4.00342e-05
4.00334e-05
4.00328e-05
4.00323e-05
4.00319e-05
4.00315e-05
4.00313e-05
4.00311e-05
4.00309e-05
4.00445e-05
4.00443e-05
4.00432e-05
4.00415e-05
4.00401e-05
4.00388e-05
4.00376e-05
4.00364e-05
4.00353e-05
4.00343e-05
4.00334e-05
4.00327e-05
4.00321e-05
4.00316e-05
4.00312e-05
4.00308e-05
4.00306e-05
4.00304e-05
4.00449e-05
4.00446e-05
4.00435e-05
4.00418e-05
4.00403e-05
4.0039e-05
4.00377e-05
4.00365e-05
4.00354e-05
4.00344e-05
4.00334e-05
4.00326e-05
4.00319e-05
4.00313e-05
4.00308e-05
4.00304e-05
4.00301e-05
4.00298e-05
4.00296e-05
4.00451e-05
4.00448e-05
4.00437e-05
4.00419e-05
4.00404e-05
4.00391e-05
4.00378e-05
4.00366e-05
4.00355e-05
4.00344e-05
4.00334e-05
4.00324e-05
4.00316e-05
4.00309e-05
4.00304e-05
4.00299e-05
4.00295e-05
4.00291e-05
4.00289e-05
4.00453e-05
4.0045e-05
4.00438e-05
4.0042e-05
4.00404e-05
4.00391e-05
4.00378e-05
4.00366e-05
4.00354e-05
4.00343e-05
4.00332e-05
4.00322e-05
4.00313e-05
4.00305e-05
4.00299e-05
4.00293e-05
4.00289e-05
4.00285e-05
4.00281e-05
4.00455e-05
4.00451e-05
4.00439e-05
4.0042e-05
4.00404e-05
4.00391e-05
4.00378e-05
4.00365e-05
4.00352e-05
4.0034e-05
4.00329e-05
4.00319e-05
4.00309e-05
4.00301e-05
4.00293e-05
4.00287e-05
4.00282e-05
4.00278e-05
4.00273e-05
4.0027e-05
4.00456e-05
4.00451e-05
4.00439e-05
4.0042e-05
4.00404e-05
4.0039e-05
4.00377e-05
4.00363e-05
4.00349e-05
4.00337e-05
4.00324e-05
4.00314e-05
4.00304e-05
4.00295e-05
4.00287e-05
4.0028e-05
4.00275e-05
4.0027e-05
4.00265e-05
4.00261e-05
4.00457e-05
4.00451e-05
4.00438e-05
4.00419e-05
4.00403e-05
4.00389e-05
4.00374e-05
4.0036e-05
4.00345e-05
4.00331e-05
4.00319e-05
4.00307e-05
4.00297e-05
4.00288e-05
4.0028e-05
4.00272e-05
4.00266e-05
4.00261e-05
4.00256e-05
4.00252e-05
4.00457e-05
4.00451e-05
4.00437e-05
4.00418e-05
4.00401e-05
4.00386e-05
4.00371e-05
4.00356e-05
4.0034e-05
4.00325e-05
4.00311e-05
4.00299e-05
4.00289e-05
4.0028e-05
4.00271e-05
4.00264e-05
4.00257e-05
4.00252e-05
4.00247e-05
4.00242e-05
4.00238e-05
4.00457e-05
4.0045e-05
4.00436e-05
4.00416e-05
4.00399e-05
4.00384e-05
4.00368e-05
4.0035e-05
4.00333e-05
4.00317e-05
4.00302e-05
4.0029e-05
4.00279e-05
4.0027e-05
4.00262e-05
4.00255e-05
4.00248e-05
4.00242e-05
4.00237e-05
4.00232e-05
4.00228e-05
4.00456e-05
4.00448e-05
4.00434e-05
4.00413e-05
4.00396e-05
4.0038e-05
4.00363e-05
4.00344e-05
4.00325e-05
4.00308e-05
4.00292e-05
4.0028e-05
4.00269e-05
4.00259e-05
4.00252e-05
4.00244e-05
4.00238e-05
4.00232e-05
4.00226e-05
4.00222e-05
4.00217e-05
4.00454e-05
4.00446e-05
4.00431e-05
4.0041e-05
4.00392e-05
4.00376e-05
4.00357e-05
4.00337e-05
4.00316e-05
4.00298e-05
4.00281e-05
4.00268e-05
4.00257e-05
4.00248e-05
4.00241e-05
4.00234e-05
4.00228e-05
4.00222e-05
4.00216e-05
4.00211e-05
4.00207e-05
4.00452e-05
4.00443e-05
4.00427e-05
4.00406e-05
4.00388e-05
4.00371e-05
4.0035e-05
4.00328e-05
4.00306e-05
4.00286e-05
4.0027e-05
4.00256e-05
4.00246e-05
4.00237e-05
4.00229e-05
4.00223e-05
4.00217e-05
4.00212e-05
4.00206e-05
4.00201e-05
4.00196e-05
4.00192e-05
4.00449e-05
4.0044e-05
4.00423e-05
4.00401e-05
4.00383e-05
4.00365e-05
4.00342e-05
4.00318e-05
4.00294e-05
4.00274e-05
4.00257e-05
4.00244e-05
4.00233e-05
4.00225e-05
4.00218e-05
4.00211e-05
4.00206e-05
4.00201e-05
4.00196e-05
4.00191e-05
4.00186e-05
4.00181e-05
4.00445e-05
4.00436e-05
4.00419e-05
4.00396e-05
4.00378e-05
4.00358e-05
4.00333e-05
4.00307e-05
4.00282e-05
4.00261e-05
4.00244e-05
4.00231e-05
4.00221e-05
4.00212e-05
4.00205e-05
4.00199e-05
4.00194e-05
4.00189e-05
4.00184e-05
4.00179e-05
4.00174e-05
4.0017e-05
4.00441e-05
4.00431e-05
4.00413e-05
4.0039e-05
4.00371e-05
4.0035e-05
4.00323e-05
4.00294e-05
4.00269e-05
4.00248e-05
4.00231e-05
4.00218e-05
4.00208e-05
4.00199e-05
4.00192e-05
4.00186e-05
4.0018e-05
4.00175e-05
4.0017e-05
4.00165e-05
4.0016e-05
4.00155e-05
4.00436e-05
4.00426e-05
4.00407e-05
4.00384e-05
4.00364e-05
4.00341e-05
4.00312e-05
4.00281e-05
4.00255e-05
4.00234e-05
4.00217e-05
4.00204e-05
4.00194e-05
4.00185e-05
4.00178e-05
4.00171e-05
4.00165e-05
4.00159e-05
4.00154e-05
4.00148e-05
4.00143e-05
4.00137e-05
4.00132e-05
4.0043e-05
4.00419e-05
4.004e-05
4.00377e-05
4.00357e-05
4.00331e-05
4.00299e-05
4.00268e-05
4.00241e-05
4.0022e-05
4.00203e-05
4.0019e-05
4.00179e-05
4.00169e-05
4.00161e-05
4.00153e-05
4.00147e-05
4.0014e-05
4.00134e-05
4.00129e-05
4.00123e-05
4.00117e-05
4.00112e-05
4.00424e-05
4.00412e-05
4.00393e-05
4.00369e-05
4.00348e-05
4.0032e-05
4.00286e-05
4.00253e-05
4.00226e-05
4.00205e-05
4.00188e-05
4.00173e-05
4.00161e-05
4.00151e-05
4.00142e-05
4.00133e-05
4.00126e-05
4.00119e-05
4.00113e-05
4.00108e-05
4.00102e-05
4.00098e-05
4.00094e-05
4.00416e-05
4.00404e-05
4.00384e-05
4.0036e-05
4.00338e-05
4.00308e-05
4.00272e-05
4.00238e-05
4.00211e-05
4.0019e-05
4.00171e-05
4.00155e-05
4.00142e-05
4.0013e-05
4.0012e-05
4.00112e-05
4.00105e-05
4.00098e-05
4.00093e-05
4.00089e-05
4.00086e-05
4.00084e-05
4.00083e-05
4.00409e-05
4.00396e-05
4.00376e-05
4.00351e-05
4.00328e-05
4.00295e-05
4.00257e-05
4.00223e-05
4.00196e-05
4.00173e-05
4.00153e-05
4.00136e-05
4.00121e-05
4.00109e-05
4.00099e-05
4.00092e-05
4.00086e-05
4.00082e-05
4.0008e-05
4.00078e-05
4.00078e-05
4.00078e-05
4.00079e-05
4.004e-05
4.00387e-05
4.00366e-05
4.00341e-05
4.00317e-05
4.00282e-05
4.00242e-05
4.00208e-05
4.0018e-05
4.00155e-05
4.00133e-05
4.00115e-05
4.001e-05
4.0009e-05
4.00082e-05
4.00078e-05
4.00075e-05
4.00075e-05
4.00075e-05
4.00077e-05
4.00078e-05
4.0008e-05
4.00083e-05
4.00086e-05
4.00391e-05
4.00378e-05
4.00356e-05
4.00331e-05
4.00305e-05
4.00267e-05
4.00226e-05
4.00192e-05
4.00162e-05
4.00136e-05
4.00113e-05
4.00095e-05
4.00083e-05
4.00076e-05
4.00073e-05
4.00073e-05
4.00074e-05
4.00076e-05
4.00079e-05
4.00082e-05
4.00086e-05
4.00089e-05
4.00094e-05
4.00098e-05
4.00381e-05
4.00367e-05
4.00345e-05
4.00319e-05
4.00292e-05
4.00251e-05
4.0021e-05
4.00175e-05
4.00144e-05
4.00116e-05
4.00093e-05
4.00079e-05
4.00072e-05
4.00071e-05
4.00073e-05
4.00077e-05
4.00081e-05
4.00085e-05
4.0009e-05
4.00094e-05
4.00099e-05
4.00104e-05
4.0011e-05
4.00116e-05
4.0037e-05
4.00356e-05
4.00333e-05
4.00307e-05
4.00278e-05
4.00235e-05
4.00193e-05
4.00157e-05
4.00124e-05
4.00096e-05
4.00078e-05
4.00071e-05
4.00071e-05
4.00076e-05
4.00082e-05
4.00088e-05
4.00095e-05
4.00101e-05
4.00108e-05
4.00114e-05
4.00121e-05
4.00128e-05
4.00135e-05
4.00143e-05
4.00357e-05
4.00343e-05
4.0032e-05
4.00294e-05
4.00263e-05
4.00218e-05
4.00177e-05
4.00139e-05
4.00105e-05
4.00081e-05
4.0007e-05
4.00071e-05
4.00078e-05
4.00088e-05
4.00098e-05
4.00107e-05
4.00117e-05
4.00126e-05
4.00134e-05
4.00143e-05
4.00152e-05
4.00161e-05
4.0017e-05
4.00181e-05
4.00344e-05
4.0033e-05
4.00307e-05
4.0028e-05
4.00248e-05
4.00201e-05
4.00159e-05
4.0012e-05
4.00087e-05
4.00071e-05
4.0007e-05
4.0008e-05
4.00093e-05
4.00108e-05
4.00122e-05
4.00136e-05
4.00148e-05
4.0016e-05
4.00171e-05
4.00182e-05
4.00193e-05
4.00204e-05
4.00216e-05
4.00229e-05
4.0033e-05
4.00315e-05
4.00293e-05
4.00265e-05
4.00231e-05
4.00183e-05
4.00141e-05
4.00101e-05
4.00074e-05
4.00068e-05
4.00078e-05
4.00095e-05
4.00116e-05
4.00136e-05
4.00155e-05
4.00173e-05
4.00189e-05
4.00203e-05
4.00217e-05
4.0023e-05
4.00243e-05
4.00256e-05
4.0027e-05
4.00284e-05
4.00299e-05
4.00314e-05
4.003e-05
4.00277e-05
4.0025e-05
4.00214e-05
4.00165e-05
4.00123e-05
4.00084e-05
4.00067e-05
4.00073e-05
4.00093e-05
4.00119e-05
4.00146e-05
4.00173e-05
4.00197e-05
4.00218e-05
4.00237e-05
4.00254e-05
4.0027e-05
4.00284e-05
4.00299e-05
4.00313e-05
4.00328e-05
4.00344e-05
4.00361e-05
4.003e-05
4.00286e-05
4.00263e-05
4.00235e-05
4.00197e-05
4.00148e-05
4.00103e-05
4.0007e-05
4.00067e-05
4.00084e-05
4.00114e-05
4.00148e-05
4.00181e-05
4.00212e-05
4.0024e-05
4.00263e-05
4.00284e-05
4.00302e-05
4.00318e-05
4.00333e-05
4.00348e-05
4.00363e-05
4.00379e-05
4.00395e-05
4.00412e-05
4.00288e-05
4.00274e-05
4.00251e-05
4.00222e-05
4.00183e-05
4.00132e-05
4.00084e-05
4.00063e-05
4.00073e-05
4.00102e-05
4.00141e-05
4.0018e-05
4.00218e-05
4.00251e-05
4.00279e-05
4.00303e-05
4.00324e-05
4.00342e-05
4.00358e-05
4.00373e-05
4.00388e-05
4.00402e-05
4.00417e-05
4.00433e-05
4.00449e-05
4.00275e-05
4.0026e-05
4.00238e-05
4.00208e-05
4.00167e-05
4.00115e-05
4.00065e-05
4.00063e-05
4.00087e-05
4.00128e-05
4.00174e-05
4.00218e-05
4.00257e-05
4.00291e-05
4.0032e-05
4.00344e-05
4.00364e-05
4.00381e-05
4.00396e-05
4.0041e-05
4.00424e-05
4.00437e-05
4.00451e-05
4.00466e-05
4.00481e-05
4.0026e-05
4.00246e-05
4.00223e-05
4.00193e-05
4.0015e-05
4.00097e-05
4.00048e-05
4.00067e-05
4.00106e-05
4.00159e-05
4.00211e-05
4.00258e-05
4.00298e-05
4.00331e-05
4.00359e-05
4.00381e-05
4.00399e-05
4.00415e-05
4.00429e-05
4.00442e-05
4.00454e-05
4.00466e-05
4.00479e-05
4.00492e-05
4.00506e-05
4.00243e-05
4.00229e-05
4.00207e-05
4.00176e-05
4.00133e-05
4.0008e-05
4.00035e-05
4.00078e-05
4.00131e-05
4.00194e-05
4.0025e-05
4.00297e-05
4.00335e-05
4.00366e-05
4.00391e-05
4.00411e-05
4.00427e-05
4.00442e-05
4.00454e-05
4.00465e-05
4.00476e-05
4.00487e-05
4.00499e-05
4.00511e-05
4.00524e-05
4.00225e-05
4.00211e-05
4.00189e-05
4.00158e-05
4.00115e-05
4.00062e-05
4.00026e-05
4.00093e-05
4.0016e-05
4.00229e-05
4.00285e-05
4.0033e-05
4.00364e-05
4.00392e-05
4.00414e-05
4.00432e-05
4.00447e-05
4.0046e-05
4.00471e-05
4.00482e-05
4.00493e-05
4.00504e-05
4.00516e-05
4.0053e-05
4.00544e-05
4.00204e-05
4.00191e-05
4.0017e-05
4.00139e-05
4.00096e-05
4.00046e-05
4.00024e-05
4.00111e-05
4.00187e-05
4.00258e-05
4.00311e-05
4.00351e-05
4.00383e-05
4.00408e-05
4.00429e-05
4.00447e-05
4.00463e-05
4.00477e-05
4.00491e-05
4.00504e-05
4.00517e-05
4.0053e-05
4.00545e-05
4.00562e-05
4.00581e-05
4.00181e-05
4.00169e-05
4.00149e-05
4.00119e-05
4.00078e-05
4.00032e-05
4.00029e-05
4.00126e-05
4.00206e-05
4.00275e-05
4.00324e-05
4.00363e-05
4.00395e-05
4.00423e-05
4.00448e-05
4.0047e-05
4.00491e-05
4.0051e-05
4.00528e-05
4.00545e-05
4.00562e-05
4.0058e-05
4.00601e-05
4.00623e-05
4.00648e-05
4.00673e-05
4.00155e-05
4.00145e-05
4.00126e-05
4.00098e-05
4.00059e-05
4.00021e-05
4.00039e-05
4.00134e-05
4.00212e-05
4.00278e-05
4.00329e-05
4.00373e-05
4.00414e-05
4.00451e-05
4.00485e-05
4.00515e-05
4.00542e-05
4.00566e-05
4.00588e-05
4.00609e-05
4.0063e-05
4.00652e-05
4.00675e-05
4.00701e-05
4.00728e-05
4.00755e-05
4.00127e-05
4.00118e-05
4.00101e-05
4.00077e-05
4.00042e-05
4.00014e-05
4.00046e-05
4.00129e-05
4.00202e-05
4.00275e-05
4.00338e-05
4.00396e-05
4.00448e-05
4.00493e-05
4.00531e-05
4.00563e-05
4.0059e-05
4.00613e-05
4.00633e-05
4.00652e-05
4.0067e-05
4.00687e-05
4.00706e-05
4.00725e-05
4.00745e-05
4.00763e-05
4.00095e-05
4.00088e-05
4.00075e-05
4.00055e-05
4.00027e-05
4.00012e-05
4.00048e-05
4.00108e-05
4.00184e-05
4.00274e-05
4.00351e-05
4.00412e-05
4.00458e-05
4.00491e-05
4.00516e-05
4.00535e-05
4.00549e-05
4.0056e-05
4.0057e-05
4.00578e-05
4.00586e-05
4.00593e-05
4.00601e-05
4.0061e-05
4.0062e-05
4.00631e-05
4.0006e-05
4.00055e-05
4.00046e-05
4.00033e-05
4.00014e-05
4.0001e-05
4.00039e-05
4.00072e-05
4.00159e-05
4.00252e-05
4.00301e-05
4.00325e-05
4.00338e-05
4.00348e-05
4.00357e-05
4.00367e-05
4.00376e-05
4.00385e-05
4.00393e-05
4.00401e-05
4.0041e-05
4.00423e-05
4.00442e-05
4.00468e-05
4.00502e-05
4.00541e-05
4.00021e-05
4.00019e-05
4.00016e-05
4.00011e-05
4.00004e-05
4.00005e-05
4.00017e-05
4.00024e-05
4.00093e-05
4.00117e-05
4.00084e-05
4.00078e-05
4.00099e-05
4.00135e-05
4.00178e-05
4.00222e-05
4.00265e-05
4.00304e-05
4.00341e-05
4.00375e-05
4.00409e-05
4.00442e-05
4.00476e-05
4.00512e-05
4.00549e-05
4.00585e-05
)
;

boundaryField
{
    inlet
    {
        type            freestream;
        freestreamValue uniform 4e-05;
        value           uniform 4e-05;
    }
    outlet
    {
        type            freestream;
        freestreamValue nonuniform List<scalar> 0();
        value           nonuniform List<scalar> 0();
    }
    walls
    {
        type            fixedValue;
        value           nonuniform List<scalar> 0();
    }
    frontAndBack
    {
        type            empty;
    }
    procBoundary0to1
    {
        type            processor;
        value           nonuniform List<scalar> 
94
(
4.00604e-05
4.0055e-05
4.0055e-05
4.00531e-05
4.00531e-05
4.00532e-05
4.00532e-05
4.00539e-05
4.00539e-05
4.00541e-05
4.00541e-05
4.00543e-05
4.0052e-05
4.0052e-05
4.00522e-05
4.00499e-05
4.00499e-05
4.00498e-05
4.00479e-05
4.00459e-05
4.00459e-05
4.00456e-05
4.00437e-05
4.00437e-05
4.00433e-05
4.00417e-05
4.00401e-05
4.00401e-05
4.00397e-05
4.00384e-05
4.00372e-05
4.00372e-05
4.00368e-05
4.00358e-05
4.00358e-05
4.00354e-05
4.00346e-05
4.00339e-05
4.00339e-05
4.00334e-05
4.00326e-05
4.0032e-05
4.0032e-05
4.00314e-05
4.00307e-05
4.00301e-05
4.00301e-05
4.00293e-05
4.00285e-05
4.00277e-05
4.00277e-05
4.00266e-05
4.00256e-05
4.00247e-05
4.00247e-05
4.00233e-05
4.00222e-05
4.00212e-05
4.00201e-05
4.00201e-05
4.00186e-05
4.00175e-05
4.00163e-05
4.00149e-05
4.00149e-05
4.00125e-05
4.00106e-05
4.00091e-05
4.00082e-05
4.00081e-05
4.00081e-05
4.00091e-05
4.00104e-05
4.00123e-05
4.00153e-05
4.00192e-05
4.00242e-05
4.00242e-05
4.00315e-05
4.00377e-05
4.00429e-05
4.00465e-05
4.00496e-05
4.0052e-05
4.00537e-05
4.00559e-05
4.006e-05
4.006e-05
4.00697e-05
4.00781e-05
4.00781e-05
4.00643e-05
4.00583e-05
4.00619e-05
)
;
    }
    procBoundary0to4
    {
        type            processor;
        value           nonuniform List<scalar> 
72
(
4.0058e-05
4.00553e-05
4.00532e-05
4.00513e-05
4.00497e-05
4.00483e-05
4.00469e-05
4.00457e-05
4.00444e-05
4.00433e-05
4.00422e-05
4.00411e-05
4.00401e-05
4.00392e-05
4.00384e-05
4.00378e-05
4.00376e-05
4.00377e-05
4.0038e-05
4.00384e-05
4.00388e-05
4.00393e-05
4.00395e-05
4.00395e-05
4.00402e-05
4.00409e-05
4.00417e-05
4.00424e-05
4.0043e-05
4.00436e-05
4.00441e-05
4.00446e-05
4.0045e-05
4.00454e-05
4.00456e-05
4.00459e-05
4.0046e-05
4.00462e-05
4.00462e-05
4.00463e-05
4.00462e-05
4.00461e-05
4.0046e-05
4.00457e-05
4.00454e-05
4.00451e-05
4.00446e-05
4.00441e-05
4.00435e-05
4.00428e-05
4.0042e-05
4.00412e-05
4.00403e-05
4.00393e-05
4.00382e-05
4.0037e-05
4.00357e-05
4.00342e-05
4.00326e-05
4.00312e-05
4.003e-05
4.00286e-05
4.00271e-05
4.00253e-05
4.00234e-05
4.00213e-05
4.00189e-05
4.00162e-05
4.00132e-05
4.00099e-05
4.00062e-05
4.00021e-05
)
;
    }
    procBoundary0to5
    {
        type            processor;
        value           nonuniform List<scalar> 4(4.00596e-05 4.0058e-05 4.00598e-05 4.00598e-05);
    }
}


// ************************************************************************* //
