/*--------------------------------*- C++ -*----------------------------------*\
| =========                 |                                                 |
| \\      /  F ield         | OpenFOAM: The Open Source CFD Toolbox           |
|  \\    /   O peration     | Version:  2506                                  |
|   \\  /    A nd           | Website:  www.openfoam.com                      |
|    \\/     M anipulation  |                                                 |
\*---------------------------------------------------------------------------*/
FoamFile
{
    version     2.0;
    format      ascii;
    arch        "LSB;label=32;scalar=64";
    class       volScalarField;
    location    "150";
    object      p;
}
// * * * * * * * * * * * * * * * * * * * * * * * * * * * * * * * * * * * * * //

dimensions      [0 2 -2 0 0 0 0];

internalField   nonuniform List<scalar> 
1340
(
88.5942
107.891
126.015
144.638
162.886
83.8526
101.76
118.568
135.919
152.981
168.089
79.047
95.7415
111.399
127.633
143.645
157.887
170.454
74.2874
89.9043
104.552
119.79
134.869
148.335
160.307
170.206
69.641
84.2962
98.0407
112.389
126.627
139.391
150.812
160.338
167.368
65.152
78.9408
91.8733
105.417
118.892
131.014
141.923
151.091
157.942
162.459
60.8445
73.8501
86.0469
98.8575
111.635
123.168
133.595
142.421
149.086
153.573
56.7366
69.0255
80.553
92.6896
104.826
115.814
125.79
134.284
140.761
145.195
147.814
52.8341
64.4655
75.3781
86.8936
98.4376
108.919
118.467
126.645
132.929
137.295
139.963
49.1394
60.1632
70.5088
81.4496
92.4445
102.449
111.596
119.467
125.558
129.843
132.534
133.817
45.65
56.1109
65.9313
76.3381
86.8196
96.3777
105.141
112.719
118.618
122.812
125.507
126.881
42.3623
52.2995
61.6309
71.5391
81.5402
90.6768
99.0777
106.372
112.083
116.179
118.862
120.303
39.2702
48.7187
57.5932
67.034
76.5828
85.3225
93.3784
100.4
105.923
109.918
112.578
114.066
114.583
36.3675
45.3568
53.8047
62.8062
71.9285
80.2921
88.0202
94.7787
100.118
104.006
106.634
108.154
108.76
33.6459
42.2045
50.2509
58.8391
67.5585
75.566
82.9799
89.4853
94.6446
98.4263
101.014
102.554
103.23
103.223
31.0975
39.2505
46.9195
55.117
63.4549
71.1232
78.2377
84.4992
89.4836
93.1575
95.6993
97.2488
97.9811
98.0737
28.7144
36.4852
43.7972
51.6253
59.6005
66.9469
73.7748
79.8015
84.6155
88.1821
90.6741
92.2249
93.0021
93.1789
26.4892
33.8976
40.8721
48.35
55.9817
63.0201
69.5749
75.3749
80.0231
83.4832
85.9227
87.4684
88.2807
88.5274
88.3215
24.4127
31.4784
38.1331
45.2793
52.5832
59.3284
65.6214
71.2034
75.6903
79.0454
81.4303
82.9659
83.8054
84.1117
83.9945
22.4776
29.2182
35.5696
42.4002
49.3921
55.8568
61.8993
67.2714
71.602
74.8537
77.1829
78.7045
79.5645
79.9211
79.8821
20.6764
27.1081
33.1712
39.7017
46.3958
52.5928
58.3947
63.5652
67.7439
70.8946
73.1672
74.6716
75.5469
75.9459
75.9737
75.7088
19.0018
25.1397
30.9287
37.173
43.5831
49.5234
55.095
60.0707
64.1034
67.1552
69.3712
70.8556
71.7414
72.1765
72.2624
72.076
23.3049
28.8332
34.8043
40.9422
46.6375
51.9878
56.7764
60.6676
63.6228
65.7825
67.2452
68.1381
68.6035
68.7397
68.6214
68.2948
21.5959
26.8756
32.5859
38.4638
43.924
49.0622
53.6707
57.4247
60.2863
62.3901
63.8297
64.7261
65.2167
65.3972
65.3387
65.0881
20.0055
25.048
30.5091
36.138
41.373
46.3074
50.7423
54.3641
57.1345
59.1829
60.5983
61.4957
62.0073
62.226
62.2207
62.0378
18.5262
23.3424
28.5652
33.9557
38.9746
43.7134
47.9812
51.4753
54.157
56.1507
57.5414
58.4372
58.9666
59.2186
59.2601
59.1358
58.8712
17.1517
21.7517
26.7464
31.9084
36.7203
41.2709
45.3777
48.7482
51.3441
53.2842
54.6493
55.542
56.0856
56.3663
56.4487
56.3765
56.1754
15.8756
20.2687
25.0452
29.9882
34.6012
38.971
42.9227
46.1741
48.6863
50.5737
51.9129
52.8007
53.356
53.6616
53.7798
53.7536
53.6088
14.6916
18.8872
23.4543
28.1872
32.6095
36.8054
40.6076
43.7438
46.175
48.0108
49.3235
50.205
50.7694
51.0964
51.2459
51.2603
51.1645
50.9722
13.5939
17.6004
21.9672
26.4985
30.7376
34.7663
38.4243
41.4492
43.8018
45.5869
46.873
47.747
48.3181
48.6634
48.8401
48.8897
48.8372
48.6961
12.5773
16.403
20.5776
24.9154
28.9785
32.8463
36.3654
39.2825
41.5587
43.2941
44.5534
45.4186
45.9945
46.3552
46.5555
46.6361
46.6213
46.5257
11.6366
15.2889
19.2796
23.4316
27.3255
31.0383
34.4233
37.2363
39.4384
41.125
42.3573
43.2127
43.7915
44.165
44.3856
44.4928
44.5113
44.4549
44.3297
10.7668
14.2532
18.0672
22.0408
25.7721
29.3357
32.5914
35.3037
37.4336
39.0723
40.2775
41.1221
41.7023
42.086
42.3239
42.4543
42.5013
42.479
42.3941
9.96314
13.2906
16.9352
20.7377
24.3125
27.7324
30.8633
33.4778
35.5376
37.1293
38.3074
39.1402
39.72
40.1119
40.3644
40.5145
40.5863
40.5935
40.544
9.22142
12.3966
15.8787
19.5164
22.9409
26.2223
29.2326
31.7527
33.7441
35.2896
36.4403
37.2606
37.8385
38.2366
38.5011
38.6682
38.7609
38.7939
38.7742
38.7039
8.53734
11.5666
14.8928
18.3723
21.652
24.8001
27.6938
30.1222
32.047
33.5471
34.6704
35.4772
36.0519
36.4543
36.7285
36.9097
37.0206
37.0749
37.0811
37.0414
7.90707
10.7964
13.973
17.3005
20.4409
23.4602
26.2413
28.5809
30.4408
31.8962
32.9918
33.7845
34.3546
34.7596
35.0414
35.2343
35.3601
35.433
35.4611
35.448
7.32676
10.0821
13.115
16.2965
19.3026
22.1979
24.87
27.1234
28.92
30.3313
31.3992
32.177
32.7414
33.1473
33.4348
33.637
33.7754
33.8635
33.9105
33.9195
33.8903
6.79302
9.41979
12.3147
15.3558
18.2329
21.0083
23.5751
25.7447
27.4795
28.8474
29.8875
30.6497
31.2072
31.6125
31.904
32.1135
32.2619
32.3629
32.4253
32.4531
32.4464
6.30243
8.80606
11.5686
14.4746
17.2273
19.8872
22.352
24.4403
26.1147
27.4397
28.4519
29.1977
29.7473
30.1508
30.4446
30.6594
30.816
30.9271
31.0024
31.0458
31.0583
5.85203
8.23756
10.8729
13.649
16.2819
18.8303
21.1963
23.2056
24.821
26.1037
27.0878
27.8168
28.3574
28.7577
29.0523
29.271
29.4336
29.5532
29.6387
29.695
29.7236
5.43879
7.71107
10.2243
12.8756
15.393
17.8338
20.1041
22.0365
23.5943
24.8351
25.7911
26.5026
27.0334
27.4293
27.7235
27.9444
28.1115
28.2374
28.3312
28.3981
28.4397
28.4552
5.06
7.22371
9.61964
12.1508
14.5571
16.8938
19.0715
20.9291
22.4304
23.63
24.5577
25.2513
25.7715
26.162
26.4544
26.6763
26.8463
26.9769
27.0771
27.1522
27.2045
27.2334
4.71304
6.77265
9.05596
11.4716
13.7706
16.0069
18.0948
19.8797
21.3257
22.4846
23.384
24.0592
24.568
24.9522
25.2418
25.4634
25.635
25.7687
25.8737
25.9553
26.016
26.0559
4.39556
6.35526
8.53044
10.8348
13.0306
15.1698
17.1706
18.8848
20.2768
21.3954
22.2665
22.9229
23.4197
23.7967
24.0825
24.3026
24.4747
24.6104
24.7186
24.8052
24.8725
24.9214
4.10514
5.9691
8.04045
10.2379
12.334
14.3795
16.2958
17.9412
19.2801
20.359
21.2018
21.8392
22.3234
22.6924
22.9736
23.1915
23.3629
23.4994
23.6099
23.6997
23.7722
23.8279
23.8655
3.83975
5.61185
7.58349
9.67802
11.6782
13.6329
15.4673
17.0457
18.3326
19.3723
20.187
20.8051
21.2762
21.6367
21.9124
22.1271
22.2971
22.4335
22.5449
22.6371
22.7131
22.7741
22.8192
3.59733
5.28138
7.15729
9.15281
11.0602
12.9274
14.6824
16.1954
17.4314
18.4324
19.2192
19.8178
20.2754
20.6268
20.8965
21.1074
21.2751
21.4105
21.5221
21.6153
21.6938
21.7587
21.8097
3.37609
4.97565
6.75966
8.65989
10.478
12.2604
13.9382
15.3877
16.5735
17.5364
18.2956
18.8746
19.3185
19.6602
19.9234
20.1299
20.2947
20.4284
20.5393
20.633
20.7128
20.7804
20.8358
3.1742
4.69283
6.38864
8.19721
9.92907
11.6296
13.2324
14.6198
15.7564
16.6819
17.4137
17.9733
18.4031
18.7349
18.991
19.1926
19.354
19.4854
19.595
19.6882
19.7687
19.8381
19.8969
2.9901
4.43114
6.04236
7.76267
9.41145
11.0328
12.5626
13.8896
14.9774
15.8662
16.5713
17.1113
17.5269
17.8484
18.0973
18.2935
18.451
18.5798
18.6875
18.7798
18.8601
18.9306
18.9915
19.0403
2.82227
4.18896
5.71904
7.35442
8.92295
10.4677
11.9265
13.1946
14.2342
15.0871
15.766
16.2866
16.6878
16.9988
17.2401
17.4307
17.5841
17.7097
17.8153
17.9061
17.9858
18.0564
18.1189
18.1705
2.66939
3.96477
5.417
6.97049
8.46167
9.93209
11.3217
12.5324
13.5244
14.3428
14.9962
15.4972
15.8838
16.1842
16.4177
16.6025
16.7515
16.8738
16.9768
17.0659
17.1444
17.2148
17.2779
17.3316
2.52999
3.75723
5.13501
6.60961
8.02604
9.42441
10.7462
11.9008
12.8452
13.6309
14.26
14.7413
15.113
15.4027
15.6284
15.8072
15.9517
16.0704
16.1707
16.2577
16.3348
16.4045
16.4678
16.5228
2.40287
3.56515
4.87187
6.27078
7.61558
8.94416
10.1998
11.2988
12.1929
12.9481
13.5546
14.0164
14.3731
14.6523
14.8703
15.0432
15.183
15.2981
15.3956
15.4804
15.5558
15.6245
15.6875
15.7433
2.28694
3.38721
4.62625
5.95245
7.22852
8.48982
9.68189
10.7264
11.5662
12.2924
12.8779
13.3201
13.6619
13.9308
14.1413
14.3083
14.4435
14.5551
14.6497
14.7322
14.806
14.8735
14.9361
14.9924
2.18165
3.2223
4.39534
5.65056
6.85972
8.05471
9.18569
10.1779
10.9687
11.6699
12.2331
12.6536
12.9799
13.2385
13.4411
13.6019
13.7323
13.8402
13.9319
14.0122
14.0842
14.1504
14.2125
14.2689
14.315
2.08644
3.06947
4.17801
5.36292
6.50536
7.63294
8.70285
9.6404
10.3927
11.0835
11.6232
12.0169
12.3268
12.5755
12.7703
12.9246
13.05
13.154
13.2428
13.3207
13.3909
13.4558
13.5171
13.5734
13.6203
2.01381
2.95031
4.00805
5.12951
6.20676
7.2568
8.23816
9.06826
9.73173
10.492
11.0486
11.4339
11.7437
11.9969
12.1944
12.3497
12.4759
12.5809
12.6707
12.7495
12.8208
12.887
12.9498
13.0082
13.0575
1.95524
2.8528
3.86474
4.92647
5.93699
6.90025
7.77501
8.47655
9.02888
9.8973
10.5004
10.892
11.2118
11.4785
11.6858
11.8476
11.9788
12.088
12.1814
12.2635
12.3378
12.4071
12.4734
12.5353
12.5883
1.89754
2.75596
3.72151
4.72329
5.66822
6.54441
7.3167
7.89744
8.3408
9.29513
9.94626
10.3448
10.6711
10.949
11.1659
11.3339
11.4696
11.5827
11.6794
11.7645
11.8417
11.9141
11.9836
12.0493
12.106
1.84097
2.66052
3.57945
4.5218
5.40237
6.19148
6.86632
7.33082
7.67159
8.68624
9.38452
9.79323
10.1238
10.4105
10.6359
10.81
10.9502
11.0669
11.1667
11.2547
11.3346
11.4098
11.4826
11.5519
11.6124
1.78609
2.56726
3.43976
4.32361
5.14155
5.84334
6.4263
6.77464
7.02021
8.07149
8.813
9.23576
9.57084
9.86485
10.0976
10.2768
10.4207
10.5408
10.6438
10.7348
10.8176
10.8957
10.9717
11.0448
11.1094
1.73359
2.47746
3.30404
4.13122
4.88777
5.50219
5.99838
6.22701
6.38249
7.45151
8.23039
8.66918
9.00993
9.31223
9.55377
9.73868
9.88527
10.007
10.1119
10.2051
10.2904
10.3714
10.4507
10.5278
10.5967
1.68472
2.39321
3.17523
3.94802
4.64302
5.16788
5.58031
5.68117
5.74874
6.82539
7.63895
8.09355
8.437
8.74491
8.997
9.19259
9.34701
9.47317
9.58008
9.67419
9.76052
9.84304
9.92486
10.0053
10.0781
1.64025
2.31608
3.05603
3.77772
4.40898
4.84118
5.17061
5.12986
5.10278
6.18372
7.03917
7.51958
7.86736
8.17141
8.42041
8.6182
8.7805
8.91762
9.03505
9.13741
9.22959
9.31653
9.40247
9.48798
9.56738
9.63434
1.59928
2.24474
2.94585
3.6214
4.18921
4.53476
4.78681
4.57596
4.43034
5.50458
6.40425
6.93171
7.31699
7.64266
7.89133
8.0712
8.21016
8.32953
8.43876
8.54069
8.637
8.73001
8.82251
8.91422
8.99951
9.07361
1.56191
2.17938
2.84543
3.48075
3.99024
4.27136
4.45191
4.01935
3.73038
4.78567
5.69301
6.23689
6.66393
7.06105
7.39186
7.63701
7.80851
7.928
8.01728
8.09265
8.16468
8.2401
8.32324
8.41221
8.49561
8.56352
1.53732
2.13589
2.77533
3.37327
3.82281
4.04305
4.1019
3.38039
2.9892
4.09324
5.01192
5.50998
5.84977
6.15828
6.45381
6.74012
7.01446
7.26321
7.47488
7.64713
7.78537
7.89858
7.99993
8.10807
8.23669
8.37503
1.54001
2.14263
2.77353
3.33564
3.70441
3.79993
3.56893
2.50781
2.11012
3.40349
4.55205
5.28694
5.74325
5.97863
6.02006
5.94189
5.82445
5.73245
5.69309
5.70844
5.77011
5.86936
5.9902
6.0937
6.13735
6.13925
1.55779
2.18106
2.82006
3.35627
3.64279
3.57023
2.95047
1.58876
0.964204
2.12959
3.41617
4.68335
5.9126
7.07641
8.06296
8.81642
9.35504
9.69689
9.88852
9.98196
10.0224
10.0462
10.1069
10.2897
10.6278
10.9963
)
;

boundaryField
{
    inlet
    {
        type            freestreamPressure;
        freestreamValue uniform 0;
        value           nonuniform List<scalar> 
26
(
1.55021
2.17044
2.80633
3.33993
3.62506
3.55285
2.9361
1.58102
0.54874
1.21113
1.94139
2.65963
3.3556
4.01401
4.57167
4.9971
5.30079
5.493
5.60016
5.6517
5.67321
5.68528
5.71806
5.81979
6.00932
6.21601
)
;
    }
    outlet
    {
        type            freestreamPressure;
        freestreamValue nonuniform List<scalar> 0();
        value           nonuniform List<scalar> 0();
    }
    walls
    {
        type            zeroGradient;
    }
    frontAndBack
    {
        type            empty;
    }
    procBoundary0to1
    {
        type            processor;
        value           nonuniform List<scalar> 
94
(
173.361
178.981
178.981
181.306
181.306
180.742
180.742
177.402
177.402
171.886
171.886
164.883
156.112
156.112
148.829
141.128
141.128
133.933
127.157
120.71
120.71
114.323
108.636
108.636
102.66
97.646
92.8687
92.8687
87.7515
83.5389
79.5259
79.5259
75.1974
71.6608
71.6608
67.7837
64.6685
61.699
61.699
58.4774
55.8565
53.3561
53.3561
50.6859
48.4701
46.3525
46.3525
44.1336
42.2454
40.4364
40.4364
38.5786
36.9528
35.3908
35.3908
33.8175
32.4015
31.0368
29.7217
29.7217
28.4391
27.2347
26.0717
24.9487
24.9487
23.8792
22.8433
21.8422
20.875
19.9412
19.9412
19.0707
18.2054
17.3701
16.564
15.7865
15.037
15.037
14.3471
13.6541
13.0938
12.628
12.1492
11.6592
11.1603
10.6521
10.1374
10.1374
9.68688
9.13602
8.61351
8.5072
6.13247
11.2982
)
;
    }
    procBoundary0to4
    {
        type            processor;
        value           nonuniform List<scalar> 
72
(
67.1576
63.9932
60.5718
57.0337
53.4761
49.9667
46.5485
43.2503
40.0889
37.0773
34.2206
31.5207
28.9765
26.5856
24.344
22.2477
20.2905
18.4669
16.7709
15.1967
13.7378
12.3882
17.447
17.447
16.005
14.6689
13.433
12.2904
11.236
10.2639
9.36923
8.54659
7.79156
7.09929
6.46589
5.88698
5.35897
4.87798
4.44085
4.04412
3.68496
3.36025
3.06757
2.80414
2.56777
2.35605
2.16708
1.99872
1.84932
1.71699
1.60032
1.4977
1.40789
1.3295
1.26141
1.20222
1.15114
1.10803
1.07258
1.04617
1.02605
1.00737
0.990094
0.974292
0.960037
0.947268
0.93577
0.92525
0.916223
0.909694
0.904005
0.893651
)
;
    }
    procBoundary0to5
    {
        type            processor;
        value           nonuniform List<scalar> 4(93.1027 114.007 133.66 153.753);
    }
}


// ************************************************************************* //
