/*--------------------------------*- C++ -*----------------------------------*\
| =========                 |                                                 |
| \\      /  F ield         | OpenFOAM: The Open Source CFD Toolbox           |
|  \\    /   O peration     | Version:  2506                                  |
|   \\  /    A nd           | Website:  www.openfoam.com                      |
|    \\/     M anipulation  |                                                 |
\*---------------------------------------------------------------------------*/
FoamFile
{
    version     2.0;
    format      ascii;
    arch        "LSB;label=32;scalar=64";
    class       volScalarField;
    location    "150";
    object      turbulenceProperties:I;
}
// * * * * * * * * * * * * * * * * * * * * * * * * * * * * * * * * * * * * * //

dimensions      [0 0 0 0 0 0 0];

internalField   nonuniform List<scalar> 
1340
(
0.000812579
0.000840447
0.000869129
0.000901534
0.000935517
0.000741455
0.000763786
0.000786553
0.000812137
0.000838485
0.000862413
0.000678873
0.000696883
0.000715068
0.000735458
0.000756174
0.000774774
0.000791058
0.000623492
0.00063811
0.000652737
0.000669121
0.000685589
0.000700257
0.000713054
0.000722138
0.000574274
0.000586179
0.000598022
0.000611273
0.000624488
0.000636194
0.000646355
0.000653495
0.000656042
0.000530326
0.000540041
0.00054968
0.000560462
0.000571138
0.000580564
0.000588691
0.000594357
0.000596392
0.000594506
0.000490896
0.000498858
0.000506712
0.000515535
0.000524208
0.00053185
0.000538381
0.000542894
0.000544531
0.000542992
0.000455372
0.000461918
0.000468327
0.000475566
0.00048265
0.000488865
0.00049413
0.000497741
0.000499041
0.00049781
0.000494177
0.000423242
0.000428627
0.000433858
0.000439809
0.000445616
0.000450683
0.000454931
0.000457826
0.000458844
0.000457826
0.000454808
0.000394078
0.000398502
0.000402768
0.000407661
0.000412436
0.000416564
0.000419992
0.000422305
0.000423092
0.000422208
0.000419722
0.000415848
0.000367507
0.000371141
0.000374612
0.000378634
0.000382566
0.000385918
0.000388677
0.000390514
0.000391096
0.000390307
0.000388224
0.000384959
0.000343224
0.000346203
0.000349018
0.000352319
0.000355554
0.000358265
0.000360471
0.000361916
0.000362326
0.000361603
0.000359824
0.000357041
0.000320966
0.000323406
0.000325671
0.000328372
0.000331025
0.000333207
0.000334957
0.000336075
0.000336335
0.000335655
0.000334099
0.000331745
0.000328732
0.000300513
0.000302501
0.000304312
0.00030651
0.000308674
0.000310414
0.000311787
0.000312628
0.000312758
0.000312105
0.000310725
0.000308704
0.000306075
0.000281673
0.000283277
0.000284718
0.00028649
0.000288243
0.000289615
0.000290671
0.000291279
0.000291293
0.000290653
0.000289413
0.000287641
0.000285385
0.000282771
0.000264279
0.000265559
0.000266691
0.000268106
0.000269512
0.000270575
0.000271362
0.000271776
0.000271691
0.000271056
0.000269923
0.000268348
0.000266384
0.000264077
0.000248184
0.000249193
0.000250067
0.00025118
0.000252292
0.000253094
0.000253656
0.000253907
0.000253735
0.0002531
0.00025205
0.000250634
0.000248902
0.000246855
0.000233267
0.000234042
0.000234702
0.00023556
0.000236421
0.000237006
0.000237379
0.00023749
0.000237245
0.000236609
0.000235622
0.000234334
0.000232783
0.000230986
0.000229011
0.000219416
0.000219987
0.000220469
0.000221116
0.000221763
0.000222166
0.000222382
0.000222374
0.000222066
0.000221425
0.000220489
0.000219305
0.000217899
0.000216305
0.000214526
0.000206529
0.000206929
0.000207262
0.000207732
0.000208197
0.000208446
0.000208533
0.000208425
0.000208064
0.000207418
0.000206524
0.000205425
0.000204139
0.000202705
0.000201092
0.00019452
0.000194778
0.000194986
0.000195309
0.000195618
0.00019574
0.000195718
0.000195528
0.000195121
0.000194472
0.000193612
0.000192581
0.000191401
0.000190094
0.000188654
0.000187113
0.000183315
0.000183454
0.000183555
0.000183756
0.000183937
0.000183952
0.000183839
0.000183581
0.000183138
0.000182486
0.000181656
0.000180685
0.000179589
0.000178386
0.000177101
0.00017567
0.000172885
0.000172899
0.000172996
0.00017307
0.000172997
0.00017281
0.000172497
0.000172025
0.000171374
0.00017057
0.000169648
0.000168626
0.000167518
0.000166338
0.000165054
0.000163694
0.000163006
0.000162949
0.000162961
0.000162946
0.000162802
0.000162556
0.000162199
0.000161705
0.000161056
0.000160277
0.0001594
0.000158439
0.000157412
0.000156322
0.000155164
0.000153902
0.000153764
0.000153648
0.00015359
0.000153503
0.000153301
0.000153008
0.000152617
0.000152108
0.000151464
0.000150708
0.00014987
0.000148965
0.000148008
0.000146998
0.000145936
0.000144773
0.000145106
0.000144942
0.000144828
0.000144683
0.000144436
0.000144106
0.000143691
0.000143172
0.000142536
0.000141804
0.000141003
0.000140148
0.00013925
0.000138313
0.000137335
0.000136282
0.000135172
0.000136988
0.000136786
0.000136626
0.000136435
0.000136154
0.000135798
0.000135365
0.000134843
0.000134218
0.000133511
0.000132745
0.000131935
0.000131092
0.000130221
0.000129312
0.000128357
0.000127324
0.000129369
0.000129137
0.000128941
0.000128715
0.000128408
0.000128034
0.000127592
0.000127071
0.000126461
0.000125779
0.000125048
0.000124281
0.000123487
0.000122674
0.000121832
0.000120955
0.000119997
0.000122212
0.000121956
0.000121732
0.00012148
0.000121156
0.000120771
0.000120326
0.000119813
0.00011922
0.000118564
0.000117867
0.000117141
0.000116395
0.000115635
0.000114855
0.000114045
0.000113178
0.000112263
0.000115482
0.000115209
0.000114965
0.000114695
0.000114361
0.000113971
0.000113529
0.000113027
0.000112455
0.000111827
0.000111164
0.000110477
0.000109776
0.000109066
0.000108344
0.000107595
0.000106812
0.000105958
0.000109149
0.000108864
0.000108606
0.000108325
0.000107987
0.000107599
0.000107165
0.000106678
0.000106129
0.000105531
0.000104903
0.000104254
0.000103596
0.000102934
0.000102263
0.000101572
0.000100856
0.000100067
0.000103186
0.000102893
0.000102626
0.00010234
0.000102003
0.000101622
0.0001012
0.000100733
0.00010021
9.96424e-05
9.90489e-05
9.84395e-05
9.7823e-05
9.72059e-05
9.6585e-05
9.59502e-05
9.52929e-05
9.45832e-05
9.38252e-05
9.7566e-05
9.72697e-05
9.69984e-05
9.67121e-05
9.63817e-05
9.60112e-05
9.56059e-05
9.5161e-05
9.46667e-05
9.41312e-05
9.35731e-05
9.30019e-05
9.2426e-05
9.18529e-05
9.12787e-05
9.06965e-05
9.00942e-05
8.94592e-05
8.87587e-05
9.22664e-05
9.19695e-05
9.16981e-05
9.14167e-05
9.10964e-05
9.07403e-05
9.0355e-05
8.99351e-05
8.94705e-05
8.8969e-05
8.84468e-05
8.7914e-05
8.73779e-05
8.68468e-05
8.63177e-05
8.57843e-05
8.52345e-05
8.46594e-05
8.40184e-05
8.72651e-05
8.69711e-05
8.67029e-05
8.64302e-05
8.6123e-05
8.57847e-05
8.54223e-05
8.503e-05
8.45975e-05
8.41302e-05
8.36439e-05
8.31488e-05
8.26525e-05
8.21626e-05
8.16772e-05
8.11895e-05
8.0691e-05
8.01708e-05
7.96012e-05
7.89836e-05
8.25426e-05
8.22537e-05
8.19924e-05
8.17309e-05
8.14401e-05
8.11224e-05
8.07859e-05
8.04233e-05
8.00232e-05
7.95907e-05
7.91411e-05
7.86834e-05
7.82258e-05
7.77758e-05
7.73321e-05
7.68884e-05
7.64393e-05
7.59699e-05
7.54664e-05
7.49009e-05
7.80807e-05
7.77988e-05
7.75472e-05
7.73e-05
7.70279e-05
7.67332e-05
7.64246e-05
7.60932e-05
7.57268e-05
7.53296e-05
7.4916e-05
7.44954e-05
7.40758e-05
7.36646e-05
7.32611e-05
7.28598e-05
7.24554e-05
7.20338e-05
7.15839e-05
7.10746e-05
7.38625e-05
7.35895e-05
7.33497e-05
7.31193e-05
7.28675e-05
7.2598e-05
7.23194e-05
7.20205e-05
7.16884e-05
7.13263e-05
7.09486e-05
7.05646e-05
7.01822e-05
6.98087e-05
6.94437e-05
6.90827e-05
6.8721e-05
6.83462e-05
6.79469e-05
6.75021e-05
6.70094e-05
6.98723e-05
6.96098e-05
6.93835e-05
6.91722e-05
6.89425e-05
6.87e-05
6.84529e-05
6.81873e-05
6.78895e-05
6.75625e-05
6.72201e-05
6.68721e-05
6.65261e-05
6.61892e-05
6.58613e-05
6.55393e-05
6.52178e-05
6.48871e-05
6.45348e-05
6.4149e-05
6.37081e-05
6.60956e-05
6.58449e-05
6.56339e-05
6.54433e-05
6.52372e-05
6.50231e-05
6.48092e-05
6.45772e-05
6.43134e-05
6.40212e-05
6.37137e-05
6.34008e-05
6.30903e-05
6.27891e-05
6.24972e-05
6.22114e-05
6.19278e-05
6.16371e-05
6.13286e-05
6.09899e-05
6.06026e-05
6.25189e-05
6.22813e-05
6.20872e-05
6.19187e-05
6.17368e-05
6.15529e-05
6.13732e-05
6.11751e-05
6.0945e-05
6.06868e-05
6.04136e-05
6.01353e-05
5.98596e-05
5.95928e-05
5.93352e-05
5.90843e-05
5.88359e-05
5.85831e-05
5.83141e-05
5.802e-05
5.76783e-05
5.91299e-05
5.89063e-05
5.87306e-05
5.8585e-05
5.84284e-05
5.82762e-05
5.81312e-05
5.7967e-05
5.777e-05
5.75453e-05
5.7306e-05
5.70616e-05
5.68195e-05
5.6586e-05
5.63614e-05
5.61432e-05
5.59289e-05
5.57109e-05
5.54784e-05
5.5224e-05
5.49311e-05
5.45981e-05
5.5917e-05
5.5708e-05
5.5552e-05
5.543e-05
5.52997e-05
5.51805e-05
5.5071e-05
5.49398e-05
5.47756e-05
5.45838e-05
5.43777e-05
5.41665e-05
5.39571e-05
5.37555e-05
5.35616e-05
5.33742e-05
5.31906e-05
5.30033e-05
5.28048e-05
5.25857e-05
5.23382e-05
5.20459e-05
5.28693e-05
5.26755e-05
5.25403e-05
5.24426e-05
5.23392e-05
5.22545e-05
5.21806e-05
5.20818e-05
5.19497e-05
5.17905e-05
5.16171e-05
5.14381e-05
5.12598e-05
5.10875e-05
5.09223e-05
5.07627e-05
5.06058e-05
5.04462e-05
5.02762e-05
5.00885e-05
4.98755e-05
4.96225e-05
4.99767e-05
4.97985e-05
4.96853e-05
4.96121e-05
4.95364e-05
4.94875e-05
4.94494e-05
4.9382e-05
4.92816e-05
4.91548e-05
4.90132e-05
4.88647e-05
4.87153e-05
4.85699e-05
4.84299e-05
4.82939e-05
4.81604e-05
4.80241e-05
4.78794e-05
4.77184e-05
4.75359e-05
4.73137e-05
4.72298e-05
4.70674e-05
4.69774e-05
4.69287e-05
4.68817e-05
4.68701e-05
4.6867e-05
4.68301e-05
4.67615e-05
4.66669e-05
4.65557e-05
4.64354e-05
4.63114e-05
4.61891e-05
4.60699e-05
4.59538e-05
4.58394e-05
4.57228e-05
4.55986e-05
4.54604e-05
4.53026e-05
4.51113e-05
4.4889e-05
4.46195e-05
4.44735e-05
4.44075e-05
4.43832e-05
4.43661e-05
4.43932e-05
4.44241e-05
4.44166e-05
4.43805e-05
4.43175e-05
4.42344e-05
4.41385e-05
4.40354e-05
4.39312e-05
4.38282e-05
4.37271e-05
4.36276e-05
4.35263e-05
4.34183e-05
4.32985e-05
4.31605e-05
4.29965e-05
4.27969e-05
4.21376e-05
4.20083e-05
4.19672e-05
4.19671e-05
4.19812e-05
4.20485e-05
4.21116e-05
4.2133e-05
4.21304e-05
4.20979e-05
4.20391e-05
4.19622e-05
4.18744e-05
4.17827e-05
4.16907e-05
4.16004e-05
4.15117e-05
4.14219e-05
4.13268e-05
4.12213e-05
4.10999e-05
4.0955e-05
4.07794e-05
3.97765e-05
3.96639e-05
3.96486e-05
3.96723e-05
3.97196e-05
3.9828e-05
3.9921e-05
3.99713e-05
4.00042e-05
3.99994e-05
3.99588e-05
3.98945e-05
3.9816e-05
3.97318e-05
3.9647e-05
3.95641e-05
3.94837e-05
3.94033e-05
3.93188e-05
3.92257e-05
3.91188e-05
3.89913e-05
3.88367e-05
3.75288e-05
3.74333e-05
3.74444e-05
3.74916e-05
3.75742e-05
3.77241e-05
3.78439e-05
3.79245e-05
3.79951e-05
3.80134e-05
3.7983e-05
3.79244e-05
3.78505e-05
3.77706e-05
3.76911e-05
3.76148e-05
3.75422e-05
3.74708e-05
3.73968e-05
3.73161e-05
3.72231e-05
3.7113e-05
3.69765e-05
3.53877e-05
3.531e-05
3.53478e-05
3.54181e-05
3.5539e-05
3.57298e-05
3.58729e-05
3.59864e-05
3.60967e-05
3.61304e-05
3.61014e-05
3.60436e-05
3.59724e-05
3.5897e-05
3.58238e-05
3.57556e-05
3.56922e-05
3.56312e-05
3.55684e-05
3.55003e-05
3.54219e-05
3.53285e-05
3.52132e-05
3.50886e-05
3.33466e-05
3.3287e-05
3.33521e-05
3.34455e-05
3.36081e-05
3.38381e-05
3.40012e-05
3.41526e-05
3.43033e-05
3.43411e-05
3.43054e-05
3.42477e-05
3.4182e-05
3.41145e-05
3.40509e-05
3.39931e-05
3.39403e-05
3.38899e-05
3.38383e-05
3.37817e-05
3.37166e-05
3.36372e-05
3.35409e-05
3.34303e-05
3.13997e-05
3.13587e-05
3.14509e-05
3.15672e-05
3.17753e-05
3.20412e-05
3.22223e-05
3.242e-05
3.26109e-05
3.26377e-05
3.25899e-05
3.25373e-05
3.24834e-05
3.2428e-05
3.2376e-05
3.23289e-05
3.22857e-05
3.2244e-05
3.22005e-05
3.21522e-05
3.20956e-05
3.20259e-05
3.19402e-05
3.18413e-05
2.95418e-05
2.95199e-05
2.96387e-05
2.97776e-05
3.00346e-05
3.03305e-05
3.05282e-05
3.07818e-05
3.10142e-05
3.10168e-05
3.09567e-05
3.09176e-05
3.08811e-05
3.0838e-05
3.07946e-05
3.07539e-05
3.07155e-05
3.0677e-05
3.06361e-05
3.05901e-05
3.0536e-05
3.04696e-05
3.03878e-05
3.02936e-05
2.77685e-05
2.77676e-05
2.79122e-05
2.80744e-05
2.83837e-05
2.87017e-05
2.89134e-05
2.92252e-05
2.94993e-05
2.94751e-05
2.9412e-05
2.93942e-05
2.93735e-05
2.93356e-05
2.92922e-05
2.92495e-05
2.92076e-05
2.91649e-05
2.91197e-05
2.90697e-05
2.90125e-05
2.89435e-05
2.88597e-05
2.87641e-05
2.60755e-05
2.60969e-05
2.62676e-05
2.64563e-05
2.68224e-05
2.71563e-05
2.73819e-05
2.77495e-05
2.8059e-05
2.80052e-05
2.79515e-05
2.79585e-05
2.7943e-05
2.78972e-05
2.78439e-05
2.77917e-05
2.77401e-05
2.76883e-05
2.76346e-05
2.7577e-05
2.75133e-05
2.74387e-05
2.73507e-05
2.72499e-05
2.44597e-05
2.45023e-05
2.46972e-05
2.49167e-05
2.53423e-05
2.56885e-05
2.59342e-05
2.63867e-05
2.67369e-05
2.66053e-05
2.65495e-05
2.65841e-05
2.65636e-05
2.64975e-05
2.64281e-05
2.6364e-05
2.6302e-05
2.62407e-05
2.61788e-05
2.61146e-05
2.60449e-05
2.5965e-05
2.58727e-05
2.57694e-05
2.5668e-05
2.29416e-05
2.30019e-05
2.32107e-05
2.34569e-05
2.39305e-05
2.42708e-05
2.45288e-05
2.51087e-05
2.55818e-05
2.52994e-05
2.51944e-05
2.5267e-05
2.52469e-05
2.51586e-05
2.50728e-05
2.49993e-05
2.49295e-05
2.48602e-05
2.47917e-05
2.4722e-05
2.4647e-05
2.45628e-05
2.44665e-05
2.43615e-05
2.42542e-05
2.16324e-05
2.17015e-05
2.19026e-05
2.21504e-05
2.26304e-05
2.29062e-05
2.31165e-05
2.38363e-05
2.44611e-05
2.40466e-05
2.39039e-05
2.40334e-05
2.40417e-05
2.39531e-05
2.38638e-05
2.379e-05
2.37198e-05
2.3649e-05
2.35784e-05
2.3506e-05
2.34288e-05
2.33421e-05
2.32431e-05
2.31346e-05
2.30237e-05
2.05411e-05
2.06098e-05
2.07865e-05
2.10123e-05
2.14513e-05
2.1612e-05
2.17661e-05
2.24584e-05
2.32017e-05
2.27992e-05
2.26907e-05
2.28731e-05
2.29333e-05
2.28748e-05
2.27989e-05
2.27344e-05
2.26726e-05
2.26092e-05
2.25439e-05
2.24759e-05
2.24024e-05
2.23193e-05
2.22229e-05
2.21157e-05
2.20051e-05
1.94991e-05
1.95664e-05
1.97173e-05
1.99269e-05
2.03172e-05
2.0371e-05
2.05172e-05
2.1082e-05
2.1868e-05
2.15823e-05
2.15374e-05
2.17447e-05
2.1852e-05
2.18335e-05
2.17782e-05
2.17253e-05
2.16736e-05
2.16193e-05
2.15624e-05
2.15021e-05
2.14361e-05
2.13603e-05
2.12708e-05
2.11691e-05
2.10631e-05
1.84202e-05
1.84856e-05
1.861e-05
1.88137e-05
1.91464e-05
1.91244e-05
1.92954e-05
1.97257e-05
2.05695e-05
2.04289e-05
2.04433e-05
2.06492e-05
2.07826e-05
2.07966e-05
2.07615e-05
2.07216e-05
2.06812e-05
2.06357e-05
2.05855e-05
2.05313e-05
2.04717e-05
2.04022e-05
2.03195e-05
2.02229e-05
2.01195e-05
1.73316e-05
1.73927e-05
1.74904e-05
1.76946e-05
1.79572e-05
1.78989e-05
1.80988e-05
1.83975e-05
1.93185e-05
1.93285e-05
1.94075e-05
1.96091e-05
1.97581e-05
1.97943e-05
1.97723e-05
1.97432e-05
1.9717e-05
1.96863e-05
1.96472e-05
1.96007e-05
1.95463e-05
1.94817e-05
1.94028e-05
1.93084e-05
1.92045e-05
1.6236e-05
1.62871e-05
1.63562e-05
1.65612e-05
1.67411e-05
1.67013e-05
1.69106e-05
1.71082e-05
1.81415e-05
1.8297e-05
1.84345e-05
1.86341e-05
1.88023e-05
1.88629e-05
1.88464e-05
1.88081e-05
1.8774e-05
1.87449e-05
1.87146e-05
1.86778e-05
1.86307e-05
1.85694e-05
1.84884e-05
1.83877e-05
1.82726e-05
1.51476e-05
1.51785e-05
1.52132e-05
1.54049e-05
1.54882e-05
1.5531e-05
1.57031e-05
1.58719e-05
1.70614e-05
1.73572e-05
1.75466e-05
1.77283e-05
1.78934e-05
1.79808e-05
1.79964e-05
1.79655e-05
1.79091e-05
1.78424e-05
1.77764e-05
1.77148e-05
1.7653e-05
1.75809e-05
1.74852e-05
1.7356e-05
1.71933e-05
1.40798e-05
1.40798e-05
1.4072e-05
1.42176e-05
1.41841e-05
1.43529e-05
1.43942e-05
1.46782e-05
1.60913e-05
1.65137e-05
1.67866e-05
1.69487e-05
1.70305e-05
1.70365e-05
1.70263e-05
1.70258e-05
1.70167e-05
1.697e-05
1.68805e-05
1.67625e-05
1.66289e-05
1.64826e-05
1.63152e-05
1.61171e-05
1.58841e-05
1.56247e-05
1.30357e-05
1.29966e-05
1.29378e-05
1.29941e-05
1.28337e-05
1.3121e-05
1.28817e-05
1.35561e-05
1.52525e-05
1.5692e-05
1.60827e-05
1.62889e-05
1.63043e-05
1.61467e-05
1.59125e-05
1.57128e-05
1.56019e-05
1.55587e-05
1.55262e-05
1.54589e-05
1.53348e-05
1.51486e-05
1.48972e-05
1.45884e-05
1.42396e-05
1.38742e-05
1.20258e-05
1.19246e-05
1.17803e-05
1.16985e-05
1.14461e-05
1.18357e-05
1.12555e-05
1.28395e-05
1.46514e-05
1.49282e-05
1.53523e-05
1.54987e-05
1.5538e-05
1.55018e-05
1.52622e-05
1.48116e-05
1.43073e-05
1.39295e-05
1.37691e-05
1.38092e-05
1.39708e-05
1.41623e-05
1.42745e-05
1.42068e-05
1.39641e-05
1.36518e-05
1.11426e-05
1.09186e-05
1.05736e-05
1.02304e-05
9.90496e-06
1.04341e-05
9.95281e-06
1.29405e-05
1.43892e-05
1.49001e-05
1.59422e-05
1.61975e-05
1.58797e-05
1.53434e-05
1.49764e-05
1.50399e-05
1.53894e-05
1.57154e-05
1.58792e-05
1.59134e-05
1.58914e-05
1.58894e-05
1.60213e-05
1.64216e-05
1.70781e-05
1.78328e-05
1.05682e-05
1.01791e-05
9.49259e-06
8.59987e-06
7.90287e-06
8.52221e-06
9.08647e-06
1.30449e-05
1.36051e-05
1.46792e-05
1.65927e-05
1.80983e-05
1.95128e-05
2.08646e-05
2.20203e-05
2.29234e-05
2.35822e-05
2.40985e-05
2.45877e-05
2.51138e-05
2.56931e-05
2.63119e-05
2.69383e-05
2.74949e-05
2.79067e-05
2.82165e-05
1.02956e-05
9.81809e-06
8.88172e-06
7.33897e-06
5.35285e-06
6.09138e-06
8.63907e-06
1.13467e-05
1.36585e-05
2.02187e-05
2.49944e-05
2.86267e-05
3.12222e-05
3.29794e-05
3.41019e-05
3.48292e-05
3.53684e-05
3.58606e-05
3.6353e-05
3.68397e-05
3.72978e-05
3.77258e-05
3.81458e-05
3.86248e-05
3.91133e-05
3.9522e-05
)
;

boundaryField
{
    inlet
    {
        type            calculated;
        value           nonuniform List<scalar> 
26
(
1.02877e-05
9.82219e-06
8.88677e-06
7.27422e-06
4.90919e-06
6.16221e-06
9.3634e-06
9.66326e-06
2.0463e-05
2.92763e-05
3.67924e-05
4.29958e-05
4.79489e-05
5.18332e-05
5.47961e-05
5.70486e-05
5.87828e-05
6.01597e-05
6.1311e-05
6.23354e-05
6.33034e-05
6.42853e-05
6.53592e-05
6.65774e-05
6.78485e-05
6.90366e-05
)
;
    }
    outlet
    {
        type            calculated;
        value           nonuniform List<scalar> 0();
    }
    walls
    {
        type            calculated;
        value           nonuniform List<scalar> 0();
    }
    frontAndBack
    {
        type            empty;
    }
    procBoundary0to1
    {
        type            processor;
        value           nonuniform List<scalar> 
94
(
0.00105129
0.000966862
0.000966862
0.000883445
0.000883445
0.000802714
0.000802714
0.000725339
0.000725339
0.000653601
0.000653601
0.000588705
0.000538516
0.000538516
0.000488236
0.000450105
0.000450105
0.000410622
0.000380674
0.000353511
0.000353511
0.000325057
0.000303052
0.000303052
0.000279701
0.000261474
0.000244623
0.000244623
0.000226764
0.000212595
0.000199406
0.000199406
0.000185388
0.000174195
0.000174195
0.000162169
0.000152568
0.000143578
0.000143578
0.000133929
0.000126233
0.000119014
0.000119014
0.000111227
0.000105048
9.92497e-05
9.92497e-05
9.29577e-05
8.8002e-05
8.33435e-05
8.33435e-05
7.8262e-05
7.42775e-05
7.0528e-05
7.0528e-05
6.64194e-05
6.32046e-05
6.01605e-05
5.72987e-05
5.72987e-05
5.41895e-05
5.17036e-05
4.93259e-05
4.70615e-05
4.70615e-05
4.46211e-05
4.25715e-05
4.05805e-05
3.86635e-05
3.68316e-05
3.68316e-05
3.49473e-05
3.33152e-05
3.17375e-05
3.01945e-05
2.86655e-05
2.71519e-05
2.71519e-05
2.5562e-05
2.41511e-05
2.29166e-05
2.1898e-05
2.09592e-05
2.00152e-05
1.90951e-05
1.81492e-05
1.7013e-05
1.7013e-05
1.53317e-05
1.35061e-05
1.33542e-05
1.85667e-05
2.84853e-05
3.98398e-05
)
;
    }
    procBoundary0to4
    {
        type            processor;
        value           nonuniform List<scalar> 
72
(
0.000783878
0.000718202
0.000659954
0.000608022
0.000561571
0.000519851
0.000482243
0.000448215
0.000417317
0.000389165
0.000363439
0.000339867
0.000318207
0.00029826
0.000279847
0.000262815
0.000247032
0.000232374
0.00021874
0.000206041
0.000194189
0.000183118
0.000172841
0.000172841
0.000163044
0.000153869
0.000145267
0.000137195
0.000129612
0.000122482
0.000115773
0.000109456
0.000103502
9.78874e-05
9.25888e-05
8.75854e-05
8.28583e-05
7.8389e-05
7.41615e-05
7.01601e-05
6.63713e-05
6.27816e-05
5.93789e-05
5.61517e-05
5.30894e-05
5.0182e-05
4.74202e-05
4.47949e-05
4.22984e-05
3.99226e-05
3.76605e-05
3.55052e-05
3.34504e-05
3.14901e-05
2.96188e-05
2.78321e-05
2.61261e-05
2.44984e-05
2.29712e-05
2.16587e-05
2.0566e-05
1.95214e-05
1.844e-05
1.73492e-05
1.62533e-05
1.5168e-05
1.41077e-05
1.30774e-05
1.20926e-05
1.12518e-05
1.07244e-05
1.04744e-05
)
;
    }
    procBoundary0to5
    {
        type            processor;
        value           nonuniform List<scalar> 4(0.000893541 0.000928629 0.000965127 0.00100672);
    }
}


// ************************************************************************* //
