/*--------------------------------*- C++ -*----------------------------------*\
| =========                 |                                                 |
| \\      /  F ield         | OpenFOAM: The Open Source CFD Toolbox           |
|  \\    /   O peration     | Version:  2506                                  |
|   \\  /    A nd           | Website:  www.openfoam.com                      |
|    \\/     M anipulation  |                                                 |
\*---------------------------------------------------------------------------*/
FoamFile
{
    version     2.0;
    format      ascii;
    arch        "LSB;label=32;scalar=64";
    class       volScalarField;
    location    "150";
    object      turbulenceProperties:k;
}
// * * * * * * * * * * * * * * * * * * * * * * * * * * * * * * * * * * * * * //

dimensions      [0 2 -2 0 0 0 0];

internalField   nonuniform List<scalar> 
1340
(
0.000495944
0.000490185
0.000483941
0.000476254
0.000465655
0.000420858
0.000415676
0.00041024
0.000403787
0.000394959
0.00038468
0.000359547
0.000354896
0.00035011
0.00034462
0.000337236
0.000328814
0.000319739
0.000308899
0.000304751
0.000300527
0.000295814
0.000289594
0.000282642
0.000275241
0.000267235
0.000266709
0.000262995
0.000259274
0.00025519
0.000249921
0.000244142
0.000238035
0.000231453
0.000224439
0.000231284
0.000227949
0.000224665
0.000221112
0.000216615
0.000211776
0.000206684
0.000201231
0.000195504
0.000189661
0.00020132
0.00019834
0.000195423
0.000192325
0.000188465
0.000184383
0.000180095
0.000175538
0.000170833
0.000166044
0.000175822
0.000173166
0.000170568
0.000167852
0.000164527
0.000161053
0.000157415
0.000153585
0.000149682
0.000145764
0.000141835
0.000154007
0.000151638
0.00014932
0.000146929
0.000144054
0.000141079
0.00013797
0.000134731
0.00013147
0.000128237
0.000124986
0.000135255
0.000133138
0.000131067
0.000128954
0.000126461
0.000123894
0.000121222
0.000118466
0.000115726
0.00011303
0.000110352
0.000107717
0.000119061
0.000117171
0.000115319
0.000113446
0.000111278
0.000109047
0.00010674
0.000104381
0.000102059
9.97944e-05
9.75733e-05
9.5377e-05
0.000105022
0.000103336
0.000101678
0.000100015
9.8123e-05
9.61745e-05
9.41705e-05
9.2141e-05
9.01617e-05
8.8248e-05
8.63889e-05
8.45473e-05
9.28091e-05
9.13078e-05
8.98211e-05
8.83414e-05
8.66826e-05
8.49754e-05
8.32277e-05
8.1472e-05
7.97739e-05
7.81456e-05
7.65732e-05
7.50397e-05
7.35468e-05
8.21535e-05
8.08152e-05
7.94834e-05
7.81638e-05
7.67039e-05
7.52019e-05
7.36725e-05
7.21446e-05
7.06803e-05
6.92859e-05
6.79476e-05
6.66597e-05
6.53847e-05
7.28305e-05
7.16353e-05
7.04461e-05
6.92656e-05
6.79768e-05
6.66515e-05
6.53076e-05
6.39724e-05
6.27008e-05
6.1498e-05
6.03524e-05
5.92571e-05
5.81869e-05
5.71487e-05
6.46535e-05
6.35847e-05
6.25226e-05
6.14654e-05
6.03247e-05
5.91518e-05
5.79658e-05
5.67952e-05
5.56862e-05
5.4642e-05
5.36546e-05
5.27148e-05
5.18081e-05
5.09133e-05
5.74635e-05
5.65086e-05
5.55598e-05
5.46117e-05
5.35994e-05
5.25589e-05
5.15092e-05
5.04792e-05
4.95065e-05
4.85955e-05
4.77383e-05
4.69274e-05
4.61516e-05
4.53787e-05
5.11305e-05
5.02746e-05
4.94279e-05
4.85775e-05
4.76759e-05
4.67515e-05
4.58201e-05
4.49105e-05
4.40548e-05
4.32559e-05
4.25067e-05
4.18024e-05
4.11315e-05
4.04717e-05
3.98271e-05
4.55419e-05
4.47722e-05
4.40166e-05
4.32542e-05
4.24496e-05
4.16272e-05
4.07999e-05
3.99934e-05
3.92376e-05
3.85335e-05
3.78751e-05
3.72595e-05
3.66742e-05
3.61072e-05
3.5542e-05
4.05998e-05
3.99075e-05
3.92334e-05
3.85502e-05
3.78307e-05
3.70977e-05
3.63619e-05
3.56452e-05
3.49752e-05
3.4352e-05
3.37711e-05
3.32298e-05
3.27165e-05
3.22235e-05
3.1726e-05
3.62224e-05
3.56006e-05
3.49985e-05
3.43868e-05
3.37423e-05
3.30887e-05
3.24329e-05
3.1795e-05
3.11992e-05
3.0646e-05
3.01308e-05
2.96517e-05
2.92008e-05
2.87677e-05
2.83376e-05
2.79115e-05
3.23401e-05
3.17819e-05
3.12435e-05
3.0696e-05
3.01191e-05
2.95352e-05
2.89502e-05
2.83816e-05
2.78506e-05
2.73578e-05
2.68993e-05
2.64744e-05
2.6075e-05
2.56917e-05
2.53207e-05
2.49364e-05
2.83912e-05
2.79101e-05
2.74199e-05
2.69034e-05
2.63818e-05
2.58595e-05
2.5352e-05
2.48782e-05
2.44382e-05
2.40288e-05
2.365e-05
2.32951e-05
2.29564e-05
2.26278e-05
2.22946e-05
2.19599e-05
2.53767e-05
2.49474e-05
2.45085e-05
2.4046e-05
2.35802e-05
2.31137e-05
2.26603e-05
2.2237e-05
2.18436e-05
2.14775e-05
2.11388e-05
2.0822e-05
2.0521e-05
2.0229e-05
1.99389e-05
1.9638e-05
2.26943e-05
2.23109e-05
2.19184e-05
2.15046e-05
2.10887e-05
2.0672e-05
2.0267e-05
1.98883e-05
1.9536e-05
1.92081e-05
1.89044e-05
1.86211e-05
1.8353e-05
1.80928e-05
1.78364e-05
1.75683e-05
2.03049e-05
1.99625e-05
1.96117e-05
1.9242e-05
1.88707e-05
1.84987e-05
1.81369e-05
1.7798e-05
1.74825e-05
1.71884e-05
1.6916e-05
1.66622e-05
1.64218e-05
1.61905e-05
1.59629e-05
1.5729e-05
1.54913e-05
1.81745e-05
1.78689e-05
1.75557e-05
1.72255e-05
1.68944e-05
1.65626e-05
1.62393e-05
1.59365e-05
1.56539e-05
1.53901e-05
1.51455e-05
1.49177e-05
1.47026e-05
1.44963e-05
1.42932e-05
1.4089e-05
1.38755e-05
1.62736e-05
1.60009e-05
1.57215e-05
1.54271e-05
1.51321e-05
1.48363e-05
1.4548e-05
1.42773e-05
1.40246e-05
1.3788e-05
1.35686e-05
1.33641e-05
1.31711e-05
1.2987e-05
1.28061e-05
1.26258e-05
1.24351e-05
1.45763e-05
1.43329e-05
1.40839e-05
1.38219e-05
1.35594e-05
1.32961e-05
1.30393e-05
1.27979e-05
1.25719e-05
1.23599e-05
1.21632e-05
1.19799e-05
1.1807e-05
1.16424e-05
1.14817e-05
1.13218e-05
1.11558e-05
1.09851e-05
1.30594e-05
1.28425e-05
1.26207e-05
1.23879e-05
1.21548e-05
1.19208e-05
1.16925e-05
1.14777e-05
1.1276e-05
1.10865e-05
1.09103e-05
1.0746e-05
1.05913e-05
1.04442e-05
1.03017e-05
1.01597e-05
1.00157e-05
9.86253e-06
1.1703e-05
1.15099e-05
1.13126e-05
1.11062e-05
1.08996e-05
1.06921e-05
1.04896e-05
1.02988e-05
1.01193e-05
9.95033e-06
9.79277e-06
9.64579e-06
9.50754e-06
9.37641e-06
9.2498e-06
9.12407e-06
8.9976e-06
8.86172e-06
1.04894e-05
1.03176e-05
1.01425e-05
9.9598e-06
9.77711e-06
9.59365e-06
9.41451e-06
9.24555e-06
9.08627e-06
8.93587e-06
8.79543e-06
8.66429e-06
8.54099e-06
8.42432e-06
8.31213e-06
8.20146e-06
8.09012e-06
7.97269e-06
7.84983e-06
9.40301e-06
9.25024e-06
9.09513e-06
8.93389e-06
8.7728e-06
8.61096e-06
8.45302e-06
8.30392e-06
8.16314e-06
8.02971e-06
7.90487e-06
7.78819e-06
7.67849e-06
7.57502e-06
7.47574e-06
7.37849e-06
7.28067e-06
7.17988e-06
7.07084e-06
8.4299e-06
8.29423e-06
8.1571e-06
8.0153e-06
7.87369e-06
7.73141e-06
7.5927e-06
7.46164e-06
7.33756e-06
7.21972e-06
7.10915e-06
7.00573e-06
6.90843e-06
6.81687e-06
6.72935e-06
6.64401e-06
6.55841e-06
6.47086e-06
6.37511e-06
7.55785e-06
7.43762e-06
7.31662e-06
7.19235e-06
7.06827e-06
6.94368e-06
6.82239e-06
6.70774e-06
6.59898e-06
6.49526e-06
6.39764e-06
6.30625e-06
6.22038e-06
6.13969e-06
6.06289e-06
5.98816e-06
5.91376e-06
5.83783e-06
5.75623e-06
5.66926e-06
6.77603e-06
6.66962e-06
6.56327e-06
6.45469e-06
6.34643e-06
6.23784e-06
6.13239e-06
6.03265e-06
5.93767e-06
5.84676e-06
5.76106e-06
5.68064e-06
5.60512e-06
5.53429e-06
5.46711e-06
5.40201e-06
5.33777e-06
5.27207e-06
5.2029e-06
5.12648e-06
6.07486e-06
5.98083e-06
5.88768e-06
5.79323e-06
5.69923e-06
5.60508e-06
5.51394e-06
5.42769e-06
5.34524e-06
5.26599e-06
5.19101e-06
5.1206e-06
5.05448e-06
4.99261e-06
4.93416e-06
4.87775e-06
4.82231e-06
4.76573e-06
4.70646e-06
4.64043e-06
5.44575e-06
5.36284e-06
5.28154e-06
5.19985e-06
5.1186e-06
5.0375e-06
4.95935e-06
4.88529e-06
4.81418e-06
4.74543e-06
4.6802e-06
4.61887e-06
4.56129e-06
4.50755e-06
4.4569e-06
4.40829e-06
4.36075e-06
4.31253e-06
4.26207e-06
4.20675e-06
4.14639e-06
4.88111e-06
4.80819e-06
4.73751e-06
4.66731e-06
4.59753e-06
4.5282e-06
4.46176e-06
4.39869e-06
4.33776e-06
4.27852e-06
4.22207e-06
4.16896e-06
4.11915e-06
4.07273e-06
4.02916e-06
3.98758e-06
3.94707e-06
3.90625e-06
3.86354e-06
3.8175e-06
3.76566e-06
4.37414e-06
4.31019e-06
4.24906e-06
4.18918e-06
4.12969e-06
4.07096e-06
4.01513e-06
3.96192e-06
3.91011e-06
3.85942e-06
3.81092e-06
3.76522e-06
3.72242e-06
3.68265e-06
3.64545e-06
3.61007e-06
3.57577e-06
3.54134e-06
3.50545e-06
3.46667e-06
3.42296e-06
3.91884e-06
3.86295e-06
3.81041e-06
3.75976e-06
3.70945e-06
3.66032e-06
3.61404e-06
3.56965e-06
3.526e-06
3.48296e-06
3.44163e-06
3.40265e-06
3.36618e-06
3.33238e-06
3.30088e-06
3.27106e-06
3.24222e-06
3.21348e-06
3.18344e-06
3.15111e-06
3.11409e-06
3.50982e-06
3.46115e-06
3.41636e-06
3.37393e-06
3.33183e-06
3.29139e-06
3.25367e-06
3.21716e-06
3.18078e-06
3.14461e-06
3.10973e-06
3.07682e-06
3.04604e-06
3.01762e-06
2.99122e-06
2.9663e-06
2.94239e-06
2.91858e-06
2.89364e-06
2.86679e-06
2.83632e-06
2.80214e-06
3.1423e-06
3.10009e-06
3.06226e-06
3.02715e-06
2.99243e-06
2.95982e-06
2.92978e-06
2.90024e-06
2.87035e-06
2.84032e-06
2.81125e-06
2.7838e-06
2.75816e-06
2.73451e-06
2.71258e-06
2.69199e-06
2.67228e-06
2.65262e-06
2.63216e-06
2.60994e-06
2.58521e-06
2.55639e-06
2.81199e-06
2.77555e-06
2.74398e-06
2.71539e-06
2.68725e-06
2.66174e-06
2.63856e-06
2.61515e-06
2.59103e-06
2.56653e-06
2.54269e-06
2.52013e-06
2.49901e-06
2.47952e-06
2.4615e-06
2.44461e-06
2.42841e-06
2.41228e-06
2.39544e-06
2.37715e-06
2.3567e-06
2.33273e-06
2.51506e-06
2.48378e-06
2.45785e-06
2.43502e-06
2.41278e-06
2.39368e-06
2.37659e-06
2.35857e-06
2.33961e-06
2.32008e-06
2.30092e-06
2.28266e-06
2.26548e-06
2.24956e-06
2.23482e-06
2.22094e-06
2.20766e-06
2.19442e-06
2.18062e-06
2.16555e-06
2.14871e-06
2.1285e-06
2.2481e-06
2.2214e-06
2.20055e-06
2.18279e-06
2.16585e-06
2.15259e-06
2.14084e-06
2.12754e-06
2.11321e-06
2.09816e-06
2.08311e-06
2.06856e-06
2.05468e-06
2.04171e-06
2.02959e-06
2.01816e-06
2.00721e-06
1.99629e-06
1.98492e-06
1.97248e-06
1.9585e-06
1.94178e-06
1.9226e-06
2.00803e-06
1.98544e-06
1.96915e-06
1.95584e-06
1.94369e-06
1.9357e-06
1.92858e-06
1.91941e-06
1.90929e-06
1.89823e-06
1.88672e-06
1.87523e-06
1.86399e-06
1.85328e-06
1.84319e-06
1.83361e-06
1.82444e-06
1.81533e-06
1.80582e-06
1.79546e-06
1.78372e-06
1.76996e-06
1.75344e-06
1.79212e-06
1.77319e-06
1.76099e-06
1.75157e-06
1.74376e-06
1.74055e-06
1.73739e-06
1.73183e-06
1.72558e-06
1.71804e-06
1.70942e-06
1.70027e-06
1.69098e-06
1.68191e-06
1.67326e-06
1.66504e-06
1.6572e-06
1.64944e-06
1.6414e-06
1.63264e-06
1.62273e-06
1.61108e-06
1.59713e-06
1.59793e-06
1.58226e-06
1.57371e-06
1.56768e-06
1.56383e-06
1.56492e-06
1.56506e-06
1.56272e-06
1.5601e-06
1.55551e-06
1.54903e-06
1.54151e-06
1.53353e-06
1.52558e-06
1.51795e-06
1.51075e-06
1.50392e-06
1.49727e-06
1.49041e-06
1.483e-06
1.47464e-06
1.4648e-06
1.45303e-06
1.42326e-06
1.4105e-06
1.40521e-06
1.40212e-06
1.40192e-06
1.4068e-06
1.40963e-06
1.41025e-06
1.41103e-06
1.40875e-06
1.4036e-06
1.39706e-06
1.38993e-06
1.38276e-06
1.37595e-06
1.3696e-06
1.36371e-06
1.35803e-06
1.35227e-06
1.34611e-06
1.33912e-06
1.33098e-06
1.32102e-06
1.26615e-06
1.256e-06
1.2536e-06
1.25304e-06
1.25624e-06
1.26442e-06
1.26934e-06
1.27278e-06
1.27675e-06
1.27599e-06
1.27142e-06
1.26541e-06
1.25892e-06
1.25249e-06
1.24649e-06
1.24105e-06
1.2361e-06
1.23142e-06
1.22673e-06
1.22172e-06
1.21607e-06
1.20944e-06
1.20137e-06
1.19275e-06
1.12484e-06
1.11703e-06
1.11717e-06
1.1188e-06
1.12521e-06
1.13615e-06
1.14267e-06
1.14893e-06
1.1558e-06
1.15562e-06
1.15101e-06
1.14544e-06
1.13972e-06
1.13419e-06
1.12917e-06
1.12471e-06
1.12072e-06
1.11699e-06
1.11326e-06
1.10926e-06
1.10474e-06
1.09934e-06
1.09287e-06
1.08554e-06
9.97754e-07
9.92022e-07
9.94375e-07
9.97882e-07
1.00734e-06
1.02046e-06
1.02823e-06
1.03753e-06
1.04696e-06
1.04631e-06
1.04131e-06
1.03643e-06
1.03183e-06
1.0274e-06
1.02339e-06
1.01986e-06
1.01669e-06
1.0137e-06
1.01067e-06
1.00739e-06
1.00362e-06
9.99071e-07
9.93562e-07
9.8728e-07
8.83506e-07
8.79642e-07
8.83866e-07
8.88978e-07
9.01275e-07
9.15912e-07
9.2466e-07
9.37251e-07
9.49016e-07
9.47091e-07
9.41713e-07
9.38001e-07
9.34744e-07
9.31324e-07
9.2807e-07
9.25129e-07
9.2242e-07
9.19787e-07
9.17066e-07
9.14084e-07
9.10656e-07
9.06521e-07
9.01498e-07
8.95781e-07
7.80887e-07
7.78754e-07
7.84544e-07
7.91057e-07
8.06003e-07
8.21462e-07
8.30888e-07
8.46512e-07
8.60356e-07
8.57105e-07
8.51921e-07
8.49711e-07
8.47594e-07
8.44687e-07
8.41631e-07
8.38741e-07
8.35987e-07
8.33258e-07
8.3043e-07
8.27377e-07
8.23936e-07
8.19857e-07
8.1497e-07
8.09446e-07
6.88781e-07
6.8823e-07
6.95354e-07
7.03228e-07
7.20695e-07
7.36477e-07
7.4645e-07
7.6462e-07
7.79923e-07
7.75301e-07
7.7099e-07
7.70339e-07
7.68678e-07
7.6552e-07
7.62102e-07
7.58853e-07
7.55724e-07
7.5264e-07
7.49505e-07
7.46193e-07
7.42582e-07
7.38408e-07
7.33534e-07
7.28009e-07
6.06227e-07
6.06995e-07
6.1515e-07
6.24378e-07
6.44143e-07
6.59945e-07
6.70687e-07
6.92606e-07
7.09464e-07
7.01045e-07
6.96936e-07
6.97844e-07
6.96052e-07
6.92026e-07
6.87958e-07
6.84271e-07
6.80769e-07
6.77364e-07
6.73969e-07
6.70491e-07
6.66763e-07
6.62535e-07
6.577e-07
6.52331e-07
6.47107e-07
5.33438e-07
5.35175e-07
5.43704e-07
5.53882e-07
5.75049e-07
5.89916e-07
6.009e-07
6.28228e-07
6.50616e-07
6.35035e-07
6.28751e-07
6.31584e-07
6.29943e-07
6.2503e-07
6.20371e-07
6.16414e-07
6.12715e-07
6.09097e-07
6.05563e-07
6.01999e-07
5.98207e-07
5.93993e-07
5.89219e-07
5.84054e-07
5.78822e-07
4.74379e-07
4.76546e-07
4.84418e-07
4.94288e-07
5.14784e-07
5.26087e-07
5.34499e-07
5.67193e-07
5.95981e-07
5.74703e-07
5.66944e-07
5.72366e-07
5.72157e-07
5.67458e-07
5.62851e-07
5.5907e-07
5.55524e-07
5.52009e-07
5.48542e-07
5.45027e-07
5.41317e-07
5.37189e-07
5.32517e-07
5.27444e-07
5.223e-07
4.27782e-07
4.29931e-07
4.36509e-07
4.45099e-07
4.62956e-07
4.68857e-07
4.74594e-07
5.04467e-07
5.37253e-07
5.1752e-07
5.11659e-07
5.19201e-07
5.21347e-07
5.1821e-07
5.14397e-07
5.11192e-07
5.08173e-07
5.05137e-07
5.02055e-07
4.98879e-07
4.95491e-07
4.91693e-07
4.87335e-07
4.82532e-07
4.77617e-07
3.85532e-07
3.87613e-07
3.92944e-07
4.00578e-07
4.15677e-07
4.17037e-07
4.22328e-07
4.45324e-07
4.78164e-07
4.64526e-07
4.61657e-07
4.699e-07
4.73984e-07
4.72715e-07
4.69954e-07
4.67385e-07
4.6493e-07
4.62411e-07
4.59816e-07
4.57107e-07
4.54175e-07
4.50845e-07
4.46959e-07
4.42585e-07
4.38065e-07
3.44093e-07
3.46073e-07
3.5021e-07
3.5732e-07
3.69486e-07
3.67979e-07
3.74082e-07
3.90527e-07
4.23815e-07
4.16862e-07
4.16538e-07
4.24314e-07
4.29279e-07
4.29409e-07
4.27612e-07
4.25693e-07
4.23811e-07
4.21765e-07
4.19558e-07
4.17218e-07
4.14673e-07
4.11747e-07
4.08304e-07
4.04324e-07
4.00107e-07
3.04657e-07
3.06449e-07
3.09484e-07
3.16291e-07
3.25303e-07
3.22691e-07
3.29597e-07
3.40235e-07
3.74442e-07
3.73717e-07
3.75902e-07
3.83123e-07
3.88466e-07
3.8947e-07
3.88273e-07
3.8687e-07
3.85637e-07
3.84264e-07
3.82593e-07
3.80654e-07
3.78429e-07
3.75822e-07
3.72678e-07
3.68958e-07
3.64906e-07
2.67384e-07
2.68799e-07
2.70773e-07
2.77257e-07
2.82982e-07
2.81267e-07
2.88142e-07
2.94636e-07
3.30694e-07
3.35351e-07
3.39576e-07
3.46376e-07
3.52187e-07
3.54069e-07
3.53139e-07
3.51462e-07
3.49996e-07
3.48753e-07
3.4749e-07
3.46009e-07
3.44155e-07
3.41792e-07
3.38717e-07
3.34943e-07
3.30675e-07
2.32758e-07
2.33509e-07
2.34354e-07
2.4005e-07
2.42413e-07
2.4349e-07
2.48785e-07
2.53916e-07
2.92879e-07
3.02161e-07
3.08001e-07
3.13859e-07
3.19302e-07
3.22065e-07
3.22334e-07
3.21001e-07
3.1881e-07
3.16291e-07
3.13831e-07
3.11551e-07
3.09282e-07
3.0667e-07
3.03246e-07
2.98691e-07
2.93036e-07
2.01111e-07
2.00975e-07
2.00596e-07
2.04599e-07
2.03475e-07
2.08171e-07
2.09293e-07
2.17402e-07
2.60832e-07
2.73822e-07
2.82199e-07
2.87152e-07
2.89535e-07
2.89416e-07
2.88809e-07
2.88586e-07
2.88107e-07
2.86386e-07
2.83254e-07
2.79205e-07
2.74681e-07
2.69782e-07
2.64243e-07
2.57779e-07
2.50303e-07
2.42128e-07
1.72398e-07
1.71278e-07
1.69631e-07
1.71002e-07
1.66701e-07
1.7414e-07
1.67796e-07
1.85613e-07
2.34608e-07
2.47529e-07
2.59304e-07
2.65489e-07
2.65602e-07
2.60186e-07
2.52458e-07
2.45988e-07
2.42389e-07
2.40932e-07
2.39821e-07
2.37651e-07
2.33764e-07
2.28036e-07
2.2045e-07
2.11326e-07
2.01266e-07
1.91006e-07
1.46725e-07
1.44213e-07
1.40685e-07
1.38676e-07
1.32694e-07
1.41816e-07
1.28212e-07
1.6665e-07
2.16711e-07
2.24275e-07
2.36548e-07
2.40601e-07
2.41436e-07
2.39977e-07
2.32354e-07
2.1864e-07
2.03867e-07
1.9314e-07
1.88634e-07
1.89662e-07
1.94054e-07
1.99335e-07
2.02422e-07
2.0042e-07
1.9355e-07
1.84918e-07
1.25962e-07
1.20923e-07
1.13371e-07
1.061e-07
9.94251e-08
1.10298e-07
1.00321e-07
1.69438e-07
2.09248e-07
2.23643e-07
2.55278e-07
2.62973e-07
2.52351e-07
2.35277e-07
2.23892e-07
2.25559e-07
2.35943e-07
2.45846e-07
2.50829e-07
2.51767e-07
2.50953e-07
2.50787e-07
2.54862e-07
2.67636e-07
2.89316e-07
3.15295e-07
1.13299e-07
1.05098e-07
9.13874e-08
7.49955e-08
6.33224e-08
7.36268e-08
8.36845e-08
1.72396e-07
1.87299e-07
2.17231e-07
2.76563e-07
3.28128e-07
3.80673e-07
4.34673e-07
4.83793e-07
5.24086e-07
5.5451e-07
5.78927e-07
6.02488e-07
6.28307e-07
6.57328e-07
6.89018e-07
7.21836e-07
7.51654e-07
7.74131e-07
7.91301e-07
1.07516e-07
9.77689e-08
8.00055e-08
5.46237e-08
2.90589e-08
3.76325e-08
7.57027e-08
1.30589e-07
1.89072e-07
4.12964e-07
6.28855e-07
8.22182e-07
9.75075e-07
1.08505e-06
1.15778e-06
1.20598e-06
1.24259e-06
1.27702e-06
1.31241e-06
1.3482e-06
1.38254e-06
1.41512e-06
1.44732e-06
1.48395e-06
1.52126e-06
1.55266e-06
)
;

boundaryField
{
    inlet
    {
        type            calculated;
        value           nonuniform List<scalar> 
26
(
1.07345e-07
9.78502e-08
8.01e-08
5.36683e-08
2.44436e-08
3.8514e-08
8.89227e-08
9.47093e-08
4.24566e-07
8.6781e-07
1.3685e-06
1.86618e-06
2.31786e-06
2.70549e-06
3.02093e-06
3.27238e-06
3.47309e-06
3.63718e-06
3.77779e-06
3.90556e-06
4.02854e-06
4.15529e-06
4.29591e-06
4.45755e-06
4.62874e-06
4.79147e-06
)
;
    }
    outlet
    {
        type            calculated;
        value           nonuniform List<scalar> 0();
    }
    walls
    {
        type            calculated;
        value           nonuniform List<scalar> 0();
    }
    frontAndBack
    {
        type            empty;
    }
    procBoundary0to1
    {
        type            processor;
        value           nonuniform List<scalar> 
94
(
0.000553305
0.00045301
0.00045301
0.000373428
0.000373428
0.000309888
0.000309888
0.000258571
0.000258571
0.000217203
0.000217203
0.000183621
0.00016124
0.00016124
0.000137807
0.000121775
0.000121775
0.000105027
9.31904e-05
8.27663e-05
8.27663e-05
7.2024e-05
6.41579e-05
6.41579e-05
5.60679e-05
5.00188e-05
4.46306e-05
4.46306e-05
3.91491e-05
3.49764e-05
3.12465e-05
3.12465e-05
2.74586e-05
2.45627e-05
2.45627e-05
2.15979e-05
1.93323e-05
1.73037e-05
1.73037e-05
1.52318e-05
1.36562e-05
1.22449e-05
1.22449e-05
1.07957e-05
9.7028e-06
8.72381e-06
8.72381e-06
7.71148e-06
6.95512e-06
6.27609e-06
6.27609e-06
5.56909e-06
5.04351e-06
4.57065e-06
4.57065e-06
4.07507e-06
3.70727e-06
3.37374e-06
3.07352e-06
3.07352e-06
2.76073e-06
2.52307e-06
2.305e-06
2.10584e-06
2.10584e-06
1.89977e-06
1.73499e-06
1.58151e-06
1.43999e-06
1.31056e-06
1.31056e-06
1.18309e-06
1.07799e-06
9.80761e-07
8.8983e-07
8.03807e-07
7.22682e-07
7.22682e-07
6.41704e-07
5.73837e-07
5.17378e-07
4.72902e-07
4.33676e-07
3.95892e-07
3.60686e-07
3.26154e-07
2.86854e-07
2.86854e-07
2.33081e-07
1.80954e-07
1.76887e-07
3.41625e-07
8.06383e-07
1.57736e-06
)
;
    }
    procBoundary0to4
    {
        type            processor;
        value           nonuniform List<scalar> 
72
(
0.000500399
0.000425092
0.000363519
0.000312571
0.000270071
0.000234335
0.000204087
0.000178327
0.000156269
0.000137289
0.00012089
0.000106669
9.42923e-05
8.34903e-05
7.40353e-05
6.57393e-05
5.84448e-05
5.20153e-05
4.63382e-05
4.13177e-05
3.68691e-05
3.29229e-05
2.88909e-05
2.88909e-05
2.58249e-05
2.3096e-05
2.0665e-05
1.84974e-05
1.65629e-05
1.48349e-05
1.32906e-05
1.19095e-05
1.06736e-05
9.56702e-06
8.57574e-06
7.68732e-06
6.89082e-06
6.17637e-06
5.53535e-06
4.95997e-06
4.44344e-06
3.97957e-06
3.56292e-06
3.18857e-06
2.8522e-06
2.54988e-06
2.27813e-06
2.03381e-06
1.81415e-06
1.61664e-06
1.43905e-06
1.27936e-06
1.1358e-06
1.00674e-06
8.90761e-07
7.86614e-07
6.93185e-07
6.09522e-07
5.35907e-07
4.76413e-07
4.29546e-07
3.87009e-07
3.45304e-07
3.05645e-07
2.68231e-07
2.33585e-07
2.0205e-07
1.73593e-07
1.48412e-07
1.28471e-07
1.16688e-07
1.11288e-07
)
;
    }
    procBoundary0to5
    {
        type            processor;
        value           nonuniform List<scalar> 4(0.000588688 0.00058243 0.000575267 0.000566074);
    }
}


// ************************************************************************* //
