/*--------------------------------*- C++ -*----------------------------------*\
| =========                 |                                                 |
| \\      /  F ield         | OpenFOAM: The Open Source CFD Toolbox           |
|  \\    /   O peration     | Version:  2506                                  |
|   \\  /    A nd           | Website:  www.openfoam.com                      |
|    \\/     M anipulation  |                                                 |
\*---------------------------------------------------------------------------*/
FoamFile
{
    version     2.0;
    format      ascii;
    arch        "LSB;label=32;scalar=64";
    class       volVectorField;
    location    "150";
    object      U;
}
// * * * * * * * * * * * * * * * * * * * * * * * * * * * * * * * * * * * * * //

dimensions      [0 1 -1 0 0 0 0];

internalField   nonuniform List<vector> 
1340
(
(17.8596 13.4823 -4.74195e-18)
(17.301 12.7797 6.31562e-17)
(16.7932 12.0454 1.89922e-16)
(16.3048 11.1714 -4.03166e-16)
(15.8451 10.1804 -8.1758e-16)
(18.5678 12.8683 1.74741e-17)
(18.0437 12.2251 7.27189e-17)
(17.5661 11.5542 -2.14732e-16)
(17.102 10.7543 -7.52467e-18)
(16.6605 9.84605 4.61664e-16)
(16.3063 8.88321 -9.01443e-16)
(19.1983 12.3095 -1.16444e-17)
(18.7044 11.7186 -5.1236e-17)
(18.2536 11.1033 -2.7303e-17)
(17.8115 10.3682 1.83096e-16)
(17.3873 9.5326 -4.7257e-17)
(17.0415 8.64697 5.50817e-16)
(16.7743 7.6979 9.14825e-16)
(19.7624 11.7978 1.12337e-17)
(19.2955 11.2534 1.86026e-17)
(18.8686 10.687 7.77208e-17)
(18.4468 10.0094 -2.83259e-16)
(18.039 9.23793 -2.28145e-16)
(17.702 8.42047 -5.0317e-16)
(17.4357 7.54236 -6.93248e-16)
(17.2567 6.62129 6.2393e-16)
(20.2695 11.3268 1.06569e-17)
(19.8271 10.8237 7.87113e-18)
(19.4217 10.3012 -4.22383e-17)
(19.0186 9.6747 2.43422e-16)
(18.6264 8.96042 5.18933e-16)
(18.2986 8.20352 3.48481e-17)
(18.0347 7.3887 1.28586e-15)
(17.8503 6.53305 -4.90494e-16)
(17.7562 5.68918 -7.49284e-16)
(20.7272 10.8911 1.38326e-17)
(20.307 10.4255 -2.72994e-17)
(19.9215 9.94194 -2.14425e-17)
(19.5356 9.36154 -3.38706e-17)
(19.1583 8.69854 4.29362e-16)
(18.8399 7.99597 -5.69949e-16)
(18.5796 7.23811 1.81954e-16)
(18.3921 6.44132 1.12189e-17)
(18.2881 5.65522 -1.79836e-15)
(18.2656 4.91043 5.56045e-16)
(21.1419 10.4866 -1.22699e-17)
(20.742 10.0549 2.20287e-17)
(20.3746 9.60661 1.61412e-16)
(20.005 9.06769 4.32478e-17)
(19.6419 8.45107 -2.65426e-16)
(19.3329 7.79743 2.47779e-16)
(19.0771 7.09111 -6.37947e-18)
(18.8881 6.34777 9.20998e-16)
(18.777 5.61403 1.34914e-16)
(18.7416 4.9189 -1.56781e-16)
(21.5187 10.1097 -3.09104e-18)
(21.1375 9.70883 -6.2176e-18)
(20.787 9.29257 -1.34479e-16)
(20.4326 8.79141 -2.87665e-16)
(20.0831 8.21684 -4.22536e-16)
(19.7835 7.60754 7.39612e-16)
(19.5328 6.94818 -7.7196e-16)
(19.3437 6.2535 1.97687e-16)
(19.2273 5.56752 4.93902e-16)
(19.182 4.91774 2.42957e-16)
(19.2002 4.3065 3.36574e-16)
(21.862 9.75754 2.00993e-17)
(21.4982 9.38486 4.46348e-17)
(21.1634 8.99776 1.42259e-16)
(20.8234 8.53107 -3.69168e-17)
(20.4868 7.99492 1.59732e-16)
(20.1966 7.42601 -7.45566e-16)
(19.9514 6.80958 6.51459e-16)
(19.7632 6.1594 9.22277e-16)
(19.6433 5.51717 1.71422e-17)
(19.5901 4.90894 5.60999e-16)
(19.5963 4.33685 2.76895e-16)
(22.1754 9.4276 -2.28296e-17)
(21.828 9.0808 3.78242e-17)
(21.5078 8.72037 -1.27189e-16)
(21.1815 8.28531 -1.34674e-16)
(20.8573 7.78438 -1.4983e-17)
(20.5764 7.25242 6.72712e-16)
(20.3369 6.67541 -9.39099e-17)
(20.1506 6.06615 -6.12201e-16)
(20.0284 5.46408 -6.07922e-16)
(19.969 4.89408 -1.89831e-15)
(19.9653 4.35814 4.4187e-16)
(20.0085 3.86351 1.22004e-15)
(22.4623 9.11781 1.26655e-17)
(22.1301 8.79483 9.5327e-18)
(21.8237 8.45889 1.38318e-16)
(21.5103 8.05291 2.93179e-16)
(21.1981 7.58441 -1.4235e-16)
(20.9263 7.08644 -5.13221e-16)
(20.6928 6.54572 7.65888e-17)
(20.5089 5.97416 -7.60436e-16)
(20.3855 5.40917 3.85927e-16)
(20.3214 4.87446 7.13498e-16)
(20.3096 4.37192 -6.15232e-16)
(20.3418 3.9084 -6.73176e-16)
(22.7252 8.82637 -1.36462e-17)
(22.4074 8.52538 6.58907e-17)
(22.1141 8.21201 -4.22785e-17)
(21.813 7.83284 -3.93004e-17)
(21.5122 7.39424 -1.34671e-16)
(21.2494 6.92769 -4.05281e-16)
(21.0221 6.42048 -2.16392e-16)
(20.8411 5.88379 -6.42675e-17)
(20.7172 5.3531 2.94067e-16)
(20.6495 4.85102 4.27079e-16)
(20.6311 4.37941 8.03635e-16)
(20.6541 3.94473 -2.14454e-16)
(22.9666 8.55171 -1.18089e-17)
(22.6624 8.27107 -9.11497e-17)
(22.3814 7.97855 -7.19208e-17)
(22.0921 7.62415 -6.47915e-17)
(21.8024 7.21326 -5.02406e-17)
(21.5482 6.77578 2.37672e-16)
(21.3272 6.29963 -1.21001e-15)
(21.1495 5.79527 1.03681e-16)
(21.0259 5.29639 1.7929e-15)
(20.9555 4.8246 4.028e-16)
(20.9317 4.38168 -1.41049e-15)
(20.9468 3.97386 -9.75053e-16)
(20.9931 3.60702 2.14145e-16)
(23.1884 8.29245 1.39398e-17)
(22.8972 8.03068 -2.44451e-17)
(22.6279 7.75751 1.23088e-16)
(22.3498 7.42604 -4.21813e-16)
(22.0708 7.04087 -3.70631e-16)
(21.8252 6.63039 -1.91541e-16)
(21.6104 6.18309 4.55429e-16)
(21.4363 5.7088 7.71969e-16)
(21.3135 5.2395 -7.88314e-16)
(21.2412 4.79586 7.2294e-16)
(21.2129 4.37958 -4.61072e-18)
(21.2214 3.99674 -2.62199e-16)
(21.2592 3.65287 8.93924e-16)
(23.3925 8.0474 -1.1089e-17)
(23.1137 7.80318 -3.45189e-17)
(22.8554 7.54796 8.90702e-17)
(22.5881 7.23781 1.87389e-16)
(22.3195 6.87656 3.63423e-16)
(22.0821 6.4912 2.63649e-16)
(21.8736 6.07074 8.76802e-16)
(21.7034 5.62445 -1.46902e-15)
(21.5817 5.18275 1.28324e-16)
(21.5082 4.76531 -3.01759e-16)
(21.4763 4.37389 6.84624e-16)
(21.4792 4.01426 2.06404e-16)
(21.5096 3.69184 5.01964e-16)
(21.5618 3.4015 1.81173e-16)
(23.5806 7.8155 1.21553e-17)
(23.3135 7.58764 5.44845e-17)
(23.0658 7.34911 -1.59663e-16)
(22.8088 7.05878 8.01909e-17)
(22.5501 6.71984 3.44884e-16)
(22.3209 6.35789 -1.00755e-16)
(22.1187 5.96249 -4.52912e-16)
(21.9523 5.54236 1.09586e-15)
(21.8322 5.12637 -9.80004e-16)
(21.7579 4.73339 8.26201e-16)
(21.7231 4.36513 -3.16399e-16)
(21.7212 4.02716 -4.20216e-16)
(21.7453 3.72471 -7.32956e-16)
(21.7898 3.45285 9.86512e-17)
(23.7539 7.59582 -9.12641e-19)
(23.498 7.38322 1.50455e-17)
(23.2605 7.16024 -9.78042e-17)
(23.0134 6.88838 2.14274e-16)
(22.7644 6.57025 -3.31359e-16)
(22.543 6.23017 4.46834e-16)
(22.347 5.85818 4.56481e-16)
(22.1847 5.4625 -4.71011e-16)
(22.0664 5.07059 -7.75506e-17)
(21.9917 4.70046 9.83328e-17)
(21.9546 4.35384 -3.76712e-16)
(21.9486 4.03608 5.17471e-16)
(21.9672 3.75224 3.14922e-16)
(22.0049 3.49758 4.41607e-17)
(23.9138 7.38754 -1.80945e-18)
(23.6686 7.18916 1.39399e-17)
(23.4408 6.98071 -4.61405e-18)
(23.2033 6.72609 -1.20438e-16)
(22.9636 6.4274 -3.63129e-16)
(22.7499 6.10778 -2.85915e-16)
(22.5599 5.75771 -4.66692e-16)
(22.4019 5.38492 2.19072e-16)
(22.2856 5.01555 7.46488e-17)
(22.2108 4.6668 -1.25693e-15)
(22.1718 4.34041 -2.16745e-16)
(22.1624 4.04154 -4.74727e-16)
(22.1762 3.77504 8.83908e-16)
(22.2079 3.53645 -9.38422e-16)
(22.2537 3.32122 -3.08439e-16)
(24.0614 7.1899 1.27619e-17)
(23.8265 7.00482 5.20554e-17)
(23.608 6.80993 1.23015e-16)
(23.3796 6.57143 1.56665e-16)
(23.1489 6.29094 2.8699e-16)
(22.9427 5.99047 2.78747e-16)
(22.7587 5.66093 -8.82063e-16)
(22.6049 5.30962 -4.28063e-16)
(22.4908 4.96137 7.41344e-16)
(22.4163 4.63266 1.35226e-15)
(22.3758 4.3252 6.85208e-16)
(22.3634 4.04398 -1.61459e-16)
(22.373 3.79367 -2.22503e-16)
(22.3994 3.57005 1.04216e-15)
(22.4391 3.36872 -2.18664e-16)
(24.1977 7.00222 9.98849e-18)
(23.9726 6.82957 -1.63572e-17)
(23.763 6.64738 -5.1359e-17)
(23.5435 6.42396 -7.982e-17)
(23.3215 6.16052 -7.51823e-16)
(23.1226 5.878 -1.50432e-16)
(22.9445 5.56772 4.52824e-16)
(22.7949 5.23655 4.033e-16)
(22.6831 4.90815 -1.12131e-15)
(22.6091 4.59822 2.16929e-16)
(22.5674 4.30851 -1.10636e-16)
(22.5525 4.04379 9.30152e-18)
(22.5585 3.80858 -3.6459e-16)
(22.5802 3.5989 -5.66088e-16)
(22.6143 3.41051 2.04855e-17)
(24.3235 6.82391 -4.63426e-18)
(24.1079 6.66288 2.81475e-17)
(23.9069 6.49256 4.32776e-17)
(23.6959 6.28326 1.85839e-17)
(23.4823 6.03584 1.07561e-16)
(23.2905 5.77015 6.69515e-16)
(23.1182 5.47795 -4.23488e-16)
(22.9728 5.16572 3.22173e-16)
(22.8635 4.85595 1.15161e-15)
(22.7901 4.56366 -9.32662e-16)
(22.7476 4.29057 8.07416e-16)
(22.7305 4.0413 5.62296e-16)
(22.7332 3.82021 8.83346e-16)
(22.7509 3.62349 -1.42499e-16)
(22.78 3.44717 -3.59996e-16)
(22.818 3.28869 -3.85542e-16)
(24.4398 6.65441 1.91168e-19)
(24.2332 6.50424 -9.04642e-17)
(24.0406 6.34504 1.36574e-16)
(23.8378 6.14898 -5.52244e-17)
(23.6323 5.91659 5.54177e-16)
(23.4473 5.66671 -3.92942e-16)
(23.2808 5.39149 7.69034e-17)
(23.1396 5.09707 1.15229e-15)
(23.0327 4.80481 -1.40149e-15)
(22.9602 4.52908 5.90196e-16)
(22.917 4.2716 -9.59382e-16)
(22.8981 4.03681 -1.15796e-15)
(22.898 3.8289 -5.42877e-16)
(22.9121 3.64428 2.30543e-16)
(22.9367 3.47917 5.5967e-16)
(22.9697 3.33105 2.23314e-16)
(24.3493 6.3532 -3.26058e-17)
(24.1647 6.20442 -4.65412e-17)
(23.9699 6.02076 -3.05756e-17)
(23.7722 5.8025 -3.74056e-16)
(23.594 5.56748 6.64592e-16)
(23.433 5.30823 -3.52921e-16)
(23.296 5.03056 -1.44383e-15)
(23.1916 4.75477 1.3705e-15)
(23.1201 4.49461 1.93553e-16)
(23.0765 4.25178 4.31497e-16)
(23.056 4.03054 5.16279e-16)
(23.0534 3.83496 -8.3095e-17)
(23.0642 3.66162 9.29609e-17)
(23.085 3.50692 -5.59288e-16)
(23.1134 3.36849 2.98513e-16)
(23.1482 3.24246 -5.58833e-16)
(24.457 6.20934 -2.06816e-17)
(24.28 6.07033 6.65355e-17)
(24.0929 5.89832 -2.61689e-16)
(23.9028 5.69332 7.95886e-17)
(23.7311 5.47226 -6.37735e-16)
(23.5756 5.22804 1.55045e-16)
(23.4427 4.96614 3.81567e-17)
(23.3409 4.70587 -4.83529e-17)
(23.2705 4.46034 -2.21971e-16)
(23.2266 4.23125 1.1535e-15)
(23.2048 4.02272 -1.23504e-16)
(23.2 3.83866 1.00222e-15)
(23.2079 3.67584 -3.3076e-16)
(23.2252 3.53083 3.223e-16)
(23.2496 3.40139 -2.41053e-16)
(23.2798 3.28377 4.19453e-16)
(24.5568 6.07229 -9.59635e-17)
(24.3871 5.94243 -1.2516e-17)
(24.2075 5.78134 4.20325e-16)
(24.0248 5.58883 1.50681e-17)
(23.8595 5.38089 3.82108e-16)
(23.7093 5.15082 -5.1409e-16)
(23.5804 4.90377 8.53963e-17)
(23.4812 4.65809 -2.5996e-16)
(23.412 4.42633 2.0596e-16)
(23.368 4.21016 -6.24655e-16)
(23.345 4.01355 -3.49692e-16)
(23.3384 3.84027 -1.09511e-15)
(23.3438 3.68725 3.36034e-16)
(23.3579 3.55126 1.28277e-16)
(23.3786 3.43016 -1.12394e-16)
(23.4048 3.32034 -1.18098e-16)
(24.6493 5.94166 7.04344e-17)
(24.4868 5.82039 1.53741e-16)
(24.3144 5.66957 -1.78255e-16)
(24.1388 5.48879 -5.39275e-16)
(23.9796 5.29321 7.85504e-17)
(23.8346 5.07645 -1.39953e-16)
(23.7098 4.84339 4.71455e-16)
(23.6132 4.61147 6.8074e-16)
(23.5452 4.39266 -4.79301e-16)
(23.5013 4.18863 -7.17458e-16)
(23.4774 4.00321 1.40363e-15)
(23.4691 3.83999 6.36765e-16)
(23.4721 3.69612 -2.02574e-16)
(23.4835 3.56851 9.88866e-17)
(23.501 3.45513 5.26539e-16)
(23.5234 3.35255 4.25737e-16)
(23.5503 3.25803 6.19427e-17)
(24.7351 5.81716 -1.56861e-17)
(24.5794 5.70393 -1.70604e-16)
(24.414 5.56274 2.21939e-17)
(24.2453 5.39301 8.1608e-16)
(24.0921 5.20905 -6.81859e-16)
(23.9523 5.00484 8.07723e-17)
(23.8314 4.78496 -4.29374e-17)
(23.7374 4.566 -4.51964e-16)
(23.6707 4.35938 1.32908e-15)
(23.6269 4.16676 2.71092e-17)
(23.6022 3.99182 -1.33184e-15)
(23.5925 3.83803 3.52944e-16)
(23.5935 3.70268 -6.10547e-16)
(23.6024 3.58287 -5.12148e-16)
(23.617 3.47665 -2.0632e-16)
(23.6361 3.38076 8.81583e-17)
(23.6593 3.29254 5.79632e-17)
(24.8146 5.69846 -4.23591e-17)
(24.6656 5.59278 1.08726e-16)
(24.5069 5.46064 1.02443e-16)
(24.3449 5.3013 -8.47871e-16)
(24.1976 5.12828 6.90067e-16)
(24.0627 4.93588 -2.69795e-16)
(23.9457 4.72843 9.78484e-16)
(23.8543 4.52167 6.69627e-16)
(23.7889 4.32653 -1.92458e-15)
(23.7455 4.14463 -8.78444e-16)
(23.7202 3.97953 3.70103e-16)
(23.7091 3.83455 -1.31947e-16)
(23.7083 3.70716 4.11083e-16)
(23.7149 3.5946 -3.31411e-16)
(23.727 3.49501 -8.59307e-17)
(23.7432 3.40532 -6.75576e-17)
(23.7631 3.32294 -7.07092e-17)
(24.8883 5.58529 1.68477e-18)
(24.7457 5.48668 1.17502e-16)
(24.5936 5.36303 -1.72132e-16)
(24.4381 5.21347 4.38337e-16)
(24.2964 5.05075 -2.63073e-16)
(24.1663 4.86948 4.73178e-16)
(24.0532 4.67373 -9.23009e-16)
(23.9644 4.47848 -1.07654e-16)
(23.9004 4.29415 1.58616e-15)
(23.8573 4.12233 -1.14012e-16)
(23.8315 3.96646 -2.38786e-16)
(23.8193 3.82974 -6.08847e-17)
(23.8169 3.70976 5.62076e-16)
(23.8216 3.60393 2.99983e-16)
(23.8313 3.51051 -3.06956e-16)
(23.845 3.42653 4.64196e-16)
(23.8619 3.34956 5.1658e-17)
(23.8819 3.27779 -3.76625e-16)
(24.9567 5.47736 -1.15302e-17)
(24.8202 5.38539 -1.87742e-16)
(24.6744 5.26972 4.40155e-17)
(24.5252 5.12936 3.63754e-17)
(24.389 4.97633 -3.06863e-16)
(24.2637 4.80555 -3.48851e-16)
(24.1544 4.62085 -4.553e-16)
(24.0681 4.43643 -1.11932e-15)
(24.0056 4.26227 6.02277e-16)
(23.9629 4.09994 1.19426e-15)
(23.9368 3.95272 4.16098e-16)
(23.9236 3.82372 4.4517e-17)
(23.9198 3.71067 1.89724e-16)
(23.9227 3.61111 2.89053e-16)
(23.9304 3.5234 -3.69011e-16)
(23.9417 3.4447 -9.14345e-17)
(23.956 3.37272 3.57844e-16)
(23.9732 3.30567 -1.22467e-17)
(25.02 5.37445 4.37754e-17)
(24.8895 5.28869 -5.98329e-17)
(24.7499 5.18051 9.912e-18)
(24.6068 5.04881 -1.88344e-16)
(24.4759 4.90491 6.67262e-16)
(24.3552 4.744 1.05424e-15)
(24.2496 4.56971 -4.16927e-16)
(24.166 4.39552 1.72129e-16)
(24.1049 4.23093 -4.4103e-16)
(24.0627 4.07751 -1.07367e-15)
(24.0363 3.93841 -4.8774e-16)
(24.0223 3.81664 -3.0086e-16)
(24.0173 3.71005 -5.43249e-16)
(24.0186 3.61632 1.69181e-16)
(24.0244 3.5339 2.60648e-16)
(24.0337 3.4601 4.43345e-17)
(24.0457 3.39271 -1.86241e-16)
(24.0603 3.33005 -3.96141e-16)
(25.0787 5.2763 -4.98279e-17)
(24.9539 5.19638 1.10424e-16)
(24.8203 5.09523 -1.7544e-16)
(24.6831 4.97167 -2.16982e-16)
(24.5574 4.83636 -4.24967e-16)
(24.4413 4.68477 2.81734e-17)
(24.3393 4.52028 1.08647e-15)
(24.2582 4.35572 -4.98422e-16)
(24.1986 4.20015 1.56965e-17)
(24.1571 4.0551 -2.59455e-16)
(24.1305 3.92364 5.74148e-16)
(24.1158 3.80863 1.05294e-16)
(24.1096 3.70807 -4.48244e-16)
(24.1095 3.61976 5.08421e-16)
(24.1138 3.54225 1.03312e-16)
(24.1212 3.47297 -2.94043e-16)
(24.1312 3.40982 5.65109e-16)
(24.1434 3.3512 -4.89935e-16)
(24.158 3.29544 7.96073e-17)
(25.1331 5.18271 -9.50593e-17)
(25.0139 5.10825 7.11618e-17)
(24.886 5.0137 2.15827e-16)
(24.7546 4.8978 1.52193e-16)
(24.6339 4.77058 4.26383e-16)
(24.5222 4.62775 -6.20966e-16)
(24.4238 4.47252 -1.65417e-15)
(24.3453 4.31703 1.35877e-16)
(24.2872 4.16995 -1.21858e-16)
(24.2463 4.03278 8.53938e-16)
(24.2197 3.90848 9.98127e-16)
(24.2044 3.79979 -2.40418e-16)
(24.1973 3.70486 4.42107e-16)
(24.1959 3.6216 -4.00987e-16)
(24.1987 3.54864 -6.30987e-16)
(24.2045 3.48355 -1.85317e-16)
(24.2127 3.42432 -2.42385e-17)
(24.2229 3.36942 5.48279e-16)
(24.2353 3.31723 -7.22383e-18)
(25.1835 5.09347 5.71645e-17)
(25.0696 5.02412 -1.65518e-16)
(24.9473 4.93577 -2.1706e-17)
(24.8215 4.82707 -2.50891e-16)
(24.7058 4.70746 1.84481e-16)
(24.5983 4.57289 6.38235e-16)
(24.5035 4.42637 1.29857e-15)
(24.4274 4.27944 -3.7448e-16)
(24.3709 4.14036 -6.02658e-17)
(24.3307 4.0106 -8.24828e-16)
(24.3041 3.89301 -2.5194e-16)
(24.2884 3.79025 3.86016e-17)
(24.2804 3.70057 -7.44924e-16)
(24.278 3.62201 -5.1831e-17)
(24.2795 3.55327 4.54341e-16)
(24.2838 3.49205 4.26112e-16)
(24.2904 3.43644 -3.0107e-16)
(24.2989 3.38498 -3.01842e-16)
(24.3093 3.3361 1.63025e-16)
(25.2302 5.00837 -1.28553e-17)
(25.1215 4.94382 7.628e-17)
(25.0046 4.86127 -2.67847e-16)
(24.8842 4.75935 -7.98517e-17)
(24.7732 4.64691 2.09944e-16)
(24.67 4.52012 -4.31574e-16)
(24.5786 4.38182 -5.34002e-16)
(24.5051 4.24294 -1.19161e-16)
(24.4501 4.11139 8.21898e-16)
(24.4106 3.98859 -2.77129e-16)
(24.3842 3.87731 6.66384e-17)
(24.368 3.7801 -5.78846e-16)
(24.3594 3.69532 3.43838e-16)
(24.356 3.62114 2.76124e-16)
(24.3564 3.55632 -2.62826e-16)
(24.3594 3.49869 2.6131e-16)
(24.3646 3.44642 1.17074e-16)
(24.3715 3.39812 -3.55045e-16)
(24.3802 3.35229 3.2202e-16)
(24.3907 3.30765 5.43359e-17)
(25.2734 4.92724 4.16877e-18)
(25.1697 4.86718 -1.38732e-17)
(25.0581 4.79008 6.67483e-17)
(24.9429 4.69453 2.02682e-16)
(24.8366 4.58882 -2.93646e-16)
(24.7375 4.46936 -4.64998e-16)
(24.6495 4.3388 9.80136e-16)
(24.5785 4.20752 1.05468e-15)
(24.525 4.08305 2.81868e-16)
(24.4864 3.96681 -2.92053e-16)
(24.4601 3.86145 3.0824e-16)
(24.4437 3.76944 6.15798e-16)
(24.4344 3.68924 -6.84597e-16)
(24.4302 3.61913 2.09799e-16)
(24.4296 3.55795 7.78398e-16)
(24.4315 3.50364 -5.89987e-16)
(24.4355 3.45446 -1.90249e-16)
(24.441 3.40908 1.69359e-16)
(24.4481 3.36608 -1.2567e-16)
(24.4569 3.32418 3.05166e-16)
(25.3134 4.8499 -3.62268e-18)
(25.2145 4.79404 -3.91725e-17)
(25.108 4.72205 2.27826e-16)
(24.9979 4.63248 5.18939e-17)
(24.8961 4.53312 3.20548e-16)
(24.8011 4.42056 -3.30088e-16)
(24.7164 4.2973 -3.47309e-16)
(24.6478 4.17317 -3.3316e-16)
(24.596 4.05537 -1.24836e-15)
(24.5582 3.94529 7.55856e-16)
(24.5321 3.84549 -8.62552e-16)
(24.5155 3.75834 -5.47874e-16)
(24.5057 3.68243 3.94234e-16)
(24.5008 3.61612 -1.03087e-16)
(24.4993 3.55832 -2.24689e-17)
(24.5003 3.50709 -5.0607e-17)
(24.5032 3.46077 -1.47605e-16)
(24.5075 3.41809 -2.69205e-16)
(24.5133 3.3777 3.52685e-16)
(24.5206 3.33835 -3.87576e-16)
(25.3504 4.77618 -2.15913e-17)
(25.2562 4.72425 1.21175e-16)
(25.1546 4.65705 3.13136e-17)
(25.0495 4.57311 -4.14894e-16)
(24.9521 4.47971 2.24402e-16)
(24.861 4.37365 8.27277e-16)
(24.7796 4.25726 -6.12068e-16)
(24.7135 4.13988 4.92817e-16)
(24.6632 4.02836 1.76752e-15)
(24.6262 3.92408 2.88749e-17)
(24.6005 3.82949 4.65915e-16)
(24.5838 3.74691 -1.58977e-16)
(24.5736 3.67499 -2.63858e-16)
(24.568 3.61222 -4.28089e-17)
(24.5658 3.55758 1.13995e-16)
(24.566 3.5092 7.94668e-16)
(24.5679 3.46553 -2.27485e-17)
(24.5712 3.42535 -3.32261e-16)
(24.5758 3.38736 2.67564e-16)
(24.5818 3.35037 -1.22004e-16)
(24.5893 3.31337 6.40244e-17)
(25.3846 4.70593 1.60608e-17)
(25.295 4.65768 -7.49121e-17)
(25.1982 4.59496 -7.43186e-17)
(25.0978 4.51631 5.95148e-16)
(25.0048 4.42852 -2.17394e-16)
(24.9175 4.32858 1.94371e-16)
(24.8394 4.21867 -1.19737e-16)
(24.7756 4.10763 -1.82535e-15)
(24.7269 4.00203 -1.55175e-16)
(24.6908 3.9032 6.64632e-16)
(24.6654 3.81351 4.10668e-16)
(24.6487 3.7352 -4.5425e-16)
(24.6382 3.66703 1.88466e-16)
(24.6321 3.60757 -3.16506e-17)
(24.6293 3.55586 -1.82106e-16)
(24.6287 3.51013 2.69554e-16)
(24.6298 3.46891 -1.84831e-16)
(24.6322 3.43104 5.02508e-16)
(24.6358 3.39528 -3.48829e-16)
(24.6407 3.36048 1.26984e-16)
(24.6469 3.32564 -7.75428e-17)
(25.4163 4.639 -2.3782e-17)
(25.331 4.59419 6.29197e-17)
(25.2389 4.53567 -4.39882e-17)
(25.1432 4.46198 -4.84176e-16)
(25.0543 4.37946 -4.67396e-16)
(24.9708 4.28529 -1.19785e-15)
(24.8958 4.18147 1.40766e-15)
(24.8345 4.07642 6.06929e-16)
(24.7873 3.97639 3.82734e-16)
(24.7522 3.88268 -1.39108e-15)
(24.7272 3.7976 -5.99423e-16)
(24.7104 3.7233 -5.80962e-16)
(24.6997 3.65864 3.01642e-16)
(24.6932 3.60226 -1.30986e-16)
(24.6898 3.55328 -1.71217e-16)
(24.6886 3.51003 1.87214e-16)
(24.689 3.47108 -4.18184e-16)
(24.6907 3.43536 1.11275e-16)
(24.6934 3.40166 -1.50918e-16)
(24.6973 3.36889 -1.47393e-16)
(24.7024 3.33607 3.06855e-16)
(25.4456 4.57524 -2.31683e-17)
(25.3645 4.53364 8.72636e-17)
(25.2769 4.47906 7.49262e-17)
(25.1858 4.41003 2.20932e-16)
(25.1009 4.33247 7.30731e-16)
(25.0211 4.24372 6.71584e-16)
(24.9493 4.14565 -2.55323e-16)
(24.8902 4.04623 2.90031e-16)
(24.8446 3.95144 -4.13674e-16)
(24.8104 3.86256 1.06353e-16)
(24.7858 3.7818 8.85882e-16)
(24.7692 3.71127 5.78972e-16)
(24.7583 3.64989 -1.28649e-16)
(24.7515 3.5964 -3.3943e-16)
(24.7476 3.54997 -4.43499e-17)
(24.7459 3.50901 1.77043e-16)
(24.7457 3.47219 -2.56152e-16)
(24.7467 3.43845 2.79173e-17)
(24.7487 3.40667 -2.03867e-16)
(24.7518 3.37578 -6.84508e-17)
(24.7559 3.34485 8.68738e-17)
(25.4726 4.51451 -1.68766e-17)
(25.3957 4.47593 3.18597e-18)
(25.3125 4.42502 -8.23759e-17)
(25.2257 4.36037 -3.49757e-17)
(25.1448 4.28748 -1.95592e-16)
(25.0686 4.20383 4.02021e-16)
(24.9999 4.11116 -1.03386e-15)
(24.9431 4.01705 8.61887e-16)
(24.8991 3.9272 2.11609e-16)
(24.8658 3.84285 -5.89648e-16)
(24.8417 3.76617 6.96664e-16)
(24.8252 3.69918 -3.48254e-16)
(24.8142 3.64088 1.25294e-16)
(24.8071 3.59009 3.51475e-16)
(24.8029 3.54604 1.24977e-16)
(24.8008 3.50722 -8.26178e-17)
(24.8001 3.47237 3.25311e-16)
(24.8005 3.44048 -4.56169e-16)
(24.8019 3.41047 2.77441e-16)
(24.8043 3.38133 -1.50665e-17)
(24.8076 3.35215 2.11156e-16)
(24.8121 3.322 -2.20095e-16)
(25.4976 4.4567 -1.21639e-17)
(25.4247 4.42092 5.21219e-17)
(25.3457 4.37346 3.44325e-17)
(25.2632 4.31292 1.29546e-16)
(25.1862 4.24441 -1.93738e-16)
(25.1135 4.16556 -6.40675e-16)
(25.0477 4.07799 8.43485e-16)
(24.9932 3.98887 -4.42541e-16)
(24.9507 3.90367 -4.67786e-16)
(24.9184 3.82359 1.25325e-15)
(24.8949 3.75074 -1.07309e-15)
(24.8785 3.68707 -2.07104e-16)
(24.8675 3.63166 6.73096e-16)
(24.8603 3.58341 -7.52838e-16)
(24.8558 3.54158 1.63329e-16)
(24.8533 3.50477 -2.55734e-16)
(24.8522 3.47175 5.57693e-17)
(24.8522 3.44158 7.55362e-17)
(24.853 3.41322 -4.32547e-17)
(24.8548 3.38571 -1.50767e-16)
(24.8574 3.35817 -8.62314e-18)
(24.8611 3.32967 2.68459e-16)
(25.5207 4.40166 3.58355e-17)
(25.4516 4.36851 -3.1318e-17)
(25.3768 4.32427 8.37432e-17)
(25.2984 4.26759 1.42408e-16)
(25.2252 4.2032 9.05193e-17)
(25.156 4.12887 8.92955e-16)
(25.0931 4.04609 -1.20005e-16)
(25.0408 3.96168 -3.02385e-16)
(24.9998 3.88085 4.64639e-16)
(24.9685 3.8048 -1.69224e-15)
(24.9455 3.73555 8.9952e-16)
(24.9294 3.675 5.55048e-16)
(24.9185 3.62231 -1.06616e-16)
(24.9111 3.57643 7.26371e-16)
(24.9064 3.5367 -6.66226e-16)
(24.9036 3.50175 3.97132e-16)
(24.9022 3.47045 4.89678e-16)
(24.9018 3.44189 -4.04187e-16)
(24.9022 3.41507 -3.52902e-17)
(24.9035 3.38908 -9.13736e-17)
(24.9055 3.36306 1.65842e-16)
(24.9085 3.33613 -7.42052e-17)
(25.542 4.34929 3.6486e-17)
(25.4767 4.3186 -2.60312e-17)
(25.4059 4.27737 -5.79706e-17)
(25.3315 4.22431 -3.31147e-16)
(25.262 4.16379 3.30313e-17)
(25.1962 4.09371 -7.13404e-16)
(25.1361 4.01543 -7.42754e-16)
(25.086 3.93546 -3.72074e-16)
(25.0465 3.85876 -7.29771e-16)
(25.0162 3.78649 -1.11121e-17)
(24.9938 3.72063 -3.90927e-16)
(24.978 3.66303 -3.33949e-16)
(24.9671 3.61289 -9.94854e-17)
(24.9598 3.56925 -4.83787e-16)
(24.9549 3.53147 4.13112e-17)
(24.9519 3.49828 1.37508e-16)
(24.9502 3.46857 -3.1793e-16)
(24.9495 3.44151 -1.02315e-16)
(24.9496 3.41614 3.41511e-16)
(24.9504 3.39156 -1.04841e-16)
(24.9519 3.36697 1.92977e-16)
(24.9543 3.34149 7.32626e-17)
(25.5616 4.29948 -1.81757e-17)
(25.5 4.27107 -3.71029e-18)
(25.4331 4.23267 -7.86502e-17)
(25.3626 4.183 -2.08058e-16)
(25.2967 4.12612 -2.42099e-16)
(25.2342 4.06004 9.09041e-17)
(25.1769 3.986 6.82595e-16)
(25.1289 3.91021 1.70268e-15)
(25.0909 3.83738 -7.08593e-16)
(25.0616 3.76868 -4.12976e-17)
(25.0399 3.70602 2.42367e-16)
(25.0245 3.65119 -4.23945e-17)
(25.0137 3.60346 -6.83083e-17)
(25.0063 3.56192 -4.22631e-16)
(25.0014 3.52598 -2.73386e-16)
(24.9982 3.49442 4.87596e-16)
(24.9963 3.46622 -1.40534e-16)
(24.9953 3.44056 -4.58003e-17)
(24.9951 3.41653 1.27039e-18)
(24.9955 3.39327 -2.66471e-18)
(24.9966 3.37 -7.86929e-17)
(24.9985 3.34589 -2.96064e-16)
(25.0013 3.31995 8.5043e-17)
(25.5797 4.2521 -1.63188e-17)
(25.5216 4.22584 6.1464e-17)
(25.4585 4.19007 1.95097e-16)
(25.3919 4.14359 1.14627e-16)
(25.3295 4.09014 -1.9755e-16)
(25.2702 4.0278 -4.21094e-16)
(25.2157 3.95775 3.71099e-16)
(25.1696 3.8859 -1.1977e-15)
(25.1332 3.81673 1.93074e-15)
(25.1049 3.75139 5.01421e-16)
(25.0839 3.69174 -5.98121e-16)
(25.0689 3.63953 1.36394e-16)
(25.0583 3.59406 9.34269e-16)
(25.0509 3.55449 -6.63371e-16)
(25.046 3.52028 2.04249e-17)
(25.0426 3.49026 1.59415e-16)
(25.0405 3.46346 2.14965e-16)
(25.0393 3.43911 -2.31617e-17)
(25.0388 3.41633 -3.27337e-16)
(25.0389 3.39431 5.02132e-16)
(25.0396 3.37228 -3.9253e-16)
(25.041 3.34945 3.13865e-16)
(25.0434 3.32484 4.06894e-18)
(25.5964 4.20707 -4.27667e-17)
(25.5418 4.18281 9.81996e-17)
(25.4823 4.1495 -6.18186e-18)
(25.4195 4.10602 -8.56676e-17)
(25.3605 4.05577 -5.1179e-17)
(25.3044 3.99697 8.51046e-16)
(25.2524 3.93067 -2.29975e-16)
(25.2084 3.86253 5.74909e-16)
(25.1734 3.7968 -1.97701e-15)
(25.1463 3.73463 -3.90792e-16)
(25.1259 3.67782 8.89853e-16)
(25.1113 3.62807 5.42833e-17)
(25.1009 3.58473 -1.7791e-16)
(25.0936 3.54702 -7.32658e-16)
(25.0886 3.51443 8.15235e-16)
(25.0851 3.48586 -2.60017e-17)
(25.0828 3.46037 -2.91057e-16)
(25.0814 3.43724 -2.92666e-17)
(25.0807 3.41563 7.0286e-17)
(25.0805 3.39476 -9.37995e-17)
(25.0809 3.37389 3.20203e-16)
(25.0819 3.35226 -4.0009e-16)
(25.0837 3.32892 2.18417e-16)
(25.6118 4.16429 -5.62853e-18)
(25.5605 4.14189 8.18242e-18)
(25.5047 4.11088 -1.10793e-16)
(25.4454 4.07021 -2.44825e-16)
(25.3898 4.02299 2.3535e-16)
(25.3367 3.9675 -1.07473e-15)
(25.2873 3.90473 5.30273e-16)
(25.2453 3.84009 -4.55101e-17)
(25.2118 3.7776 4.7993e-16)
(25.1857 3.7184 -1.4943e-16)
(25.1661 3.66428 5.87971e-16)
(25.1519 3.61684 -2.74881e-16)
(25.1417 3.57551 4.07512e-16)
(25.1344 3.53954 7.8471e-17)
(25.1293 3.50847 3.44253e-16)
(25.1258 3.48125 -2.30013e-16)
(25.1233 3.45699 -2.51344e-16)
(25.1217 3.435 1.9497e-16)
(25.1207 3.41449 -1.74213e-16)
(25.1203 3.39469 1.11024e-16)
(25.1204 3.37492 -1.49358e-16)
(25.1211 3.35441 3.24421e-16)
(25.1224 3.33226 -1.70367e-16)
(25.626 4.12365 -5.62251e-18)
(25.5779 4.103 1.25067e-17)
(25.5256 4.07413 -1.2845e-16)
(25.4699 4.03611 5.36475e-16)
(25.4176 3.99172 -1.94084e-16)
(25.3675 3.93935 1.13572e-15)
(25.3204 3.8799 7.22168e-16)
(25.2804 3.81857 1.22762e-16)
(25.2484 3.75912 9.80281e-16)
(25.2235 3.70272 3.17512e-17)
(25.2045 3.65112 -8.19982e-16)
(25.1907 3.60586 -6.41986e-16)
(25.1806 3.56641 -4.03473e-16)
(25.1734 3.53208 4.74305e-16)
(25.1682 3.50243 -1.84643e-17)
(25.1645 3.47647 4.84076e-16)
(25.1619 3.45336 -4.63454e-16)
(25.1601 3.43245 6.05061e-18)
(25.1589 3.41296 -8.78036e-17)
(25.1583 3.39417 -1.38782e-16)
(25.1581 3.37542 6.00897e-18)
(25.1585 3.35597 -9.16154e-17)
(25.1595 3.33495 1.11751e-16)
(25.639 4.08507 4.52895e-17)
(25.5941 4.06605 -7.32059e-17)
(25.5452 4.03918 2.89949e-16)
(25.4929 4.00366 -5.43716e-16)
(25.4439 3.96193 1.96146e-16)
(25.3966 3.91248 -1.33637e-15)
(25.3519 3.85616 -6.54121e-16)
(25.3138 3.79796 4.97144e-16)
(25.2835 3.74136 -1.07766e-15)
(25.2595 3.68759 4.45615e-16)
(25.2412 3.63835 7.95115e-17)
(25.2276 3.59514 4.92817e-17)
(25.2176 3.55745 -2.3257e-16)
(25.2104 3.52465 -2.61909e-16)
(25.2051 3.49633 8.23865e-17)
(25.2013 3.47156 3.44426e-16)
(25.1985 3.44954 -2.95387e-16)
(25.1966 3.42963 3.9337e-16)
(25.1953 3.4111 -1.59953e-16)
(25.1944 3.39326 9.70307e-17)
(25.1941 3.37547 -2.37611e-16)
(25.1942 3.35702 2.92628e-16)
(25.1948 3.33706 -4.94049e-17)
(25.1963 3.3151 -1.47365e-16)
(25.651 4.04846 -2.55759e-17)
(25.6092 4.03096 4.22892e-17)
(25.5636 4.00597 -4.34364e-17)
(25.5147 3.97281 -1.84326e-16)
(25.4688 3.93356 -4.07054e-17)
(25.4243 3.88686 8.39835e-16)
(25.3819 3.8335 3.50951e-16)
(25.3458 3.77826 -1.27153e-15)
(25.3169 3.7243 -5.83958e-16)
(25.2939 3.67298 3.6546e-16)
(25.2761 3.62597 -5.19891e-16)
(25.2627 3.58468 8.22657e-16)
(25.2528 3.54864 1.19451e-16)
(25.2455 3.51727 1.01678e-16)
(25.2401 3.49021 -1.32102e-17)
(25.2362 3.46656 7.27024e-17)
(25.2334 3.44556 -7.0388e-16)
(25.2313 3.42659 2.02497e-16)
(25.2299 3.40897 7.88655e-17)
(25.2289 3.39203 8.7367e-17)
(25.2284 3.37514 -1.721e-16)
(25.2283 3.35763 1.82474e-16)
(25.2287 3.33868 6.47812e-17)
(25.2298 3.3178 -5.63325e-17)
(25.6621 4.01374 -1.19909e-17)
(25.6233 3.99767 -2.92803e-17)
(25.5809 3.97442 1.09799e-16)
(25.5353 3.94348 1.68331e-16)
(25.4925 3.90657 2.95782e-16)
(25.4506 3.86247 7.53232e-17)
(25.4103 3.81189 5.05277e-17)
(25.3763 3.75946 2.81335e-16)
(25.3489 3.70793 1.63103e-15)
(25.3267 3.6589 8.12671e-17)
(25.3092 3.61398 6.6562e-16)
(25.296 3.57448 -6.97351e-16)
(25.2861 3.53999 -1.31977e-16)
(25.2788 3.50998 1.13906e-16)
(25.2734 3.4841 -3.61067e-17)
(25.2695 3.46151 1.41587e-16)
(25.2666 3.44147 -6.50732e-17)
(25.2644 3.42341 4.52837e-16)
(25.2629 3.40664 -4.82126e-16)
(25.2618 3.39054 3.0366e-16)
(25.2611 3.37451 -4.8948e-16)
(25.2608 3.35789 3.23505e-16)
(25.261 3.33989 -2.48934e-16)
(25.2618 3.32003 -9.29489e-17)
(25.6722 3.98083 2.20332e-17)
(25.6363 3.96609 -1.03175e-17)
(25.5972 3.94448 -2.70213e-16)
(25.5547 3.91565 1.37461e-16)
(25.5149 3.8809 -5.68918e-16)
(25.4756 3.83927 1.65946e-16)
(25.4374 3.79133 -1.56667e-17)
(25.4055 3.74156 1.23039e-15)
(25.3795 3.69223 -1.96594e-15)
(25.3578 3.64531 3.61881e-16)
(25.3405 3.60236 -6.93531e-16)
(25.3274 3.56456 5.29631e-16)
(25.3176 3.53153 -2.57043e-16)
(25.3104 3.5028 -2.54677e-16)
(25.305 3.47805 1.49749e-16)
(25.3011 3.45646 -2.34181e-17)
(25.2982 3.43733 -1.10591e-18)
(25.296 3.42011 1.45548e-17)
(25.2944 3.40415 3.07017e-16)
(25.2932 3.38884 -2.46516e-19)
(25.2924 3.37361 -2.84126e-17)
(25.2919 3.35783 -1.77437e-16)
(25.2919 3.34073 2.31988e-17)
(25.2925 3.32184 3.36821e-17)
(25.6815 3.94965 -5.03791e-17)
(25.6485 3.93614 -3.58598e-17)
(25.6124 3.91607 2.88536e-17)
(25.573 3.88924 -4.79655e-16)
(25.5363 3.85652 3.47003e-16)
(25.4993 3.81722 -5.49742e-16)
(25.4633 3.77176 -7.26035e-16)
(25.4335 3.72454 -7.79021e-16)
(25.4086 3.67717 1.10233e-15)
(25.3872 3.63223 -9.24098e-16)
(25.3701 3.59115 5.37305e-16)
(25.3572 3.55494 3.46282e-16)
(25.3476 3.52329 -3.91157e-17)
(25.3404 3.49577 1.60768e-16)
(25.3351 3.47208 -3.59347e-19)
(25.3312 3.45144 2.10272e-16)
(25.3282 3.43317 -1.16979e-17)
(25.326 3.41674 -3.18666e-16)
(25.3243 3.40153 -4.66603e-17)
(25.323 3.38696 8.42892e-17)
(25.322 3.37248 -6.32186e-17)
(25.3214 3.35748 -5.34378e-18)
(25.3212 3.34121 5.55021e-17)
(25.3215 3.32325 4.50009e-17)
(25.69 3.92011 2.55687e-17)
(25.6598 3.90776 -2.72621e-17)
(25.6267 3.88913 6.40735e-17)
(25.5904 3.8642 5.5118e-16)
(25.5565 3.83336 8.13702e-16)
(25.5218 3.79631 1.87428e-16)
(25.4878 3.75317 4.02403e-16)
(25.4603 3.70842 -2.00009e-16)
(25.4362 3.66272 9.32849e-16)
(25.415 3.61963 -8.50928e-16)
(25.3981 3.58036 1.8084e-16)
(25.3855 3.54566 -9.99865e-17)
(25.3761 3.5153 -1.83722e-16)
(25.369 3.48892 -1.56078e-16)
(25.3637 3.46623 -1.99101e-16)
(25.3597 3.44646 1.41588e-16)
(25.3567 3.42898 -1.0673e-16)
(25.3543 3.41328 -3.16606e-17)
(25.3525 3.39877 -8.67458e-17)
(25.3511 3.38489 2.53009e-16)
(25.35 3.3711 2.12698e-16)
(25.3492 3.35683 -2.03931e-17)
(25.3487 3.34135 -5.64011e-17)
(25.3487 3.32424 -1.1689e-16)
(25.6978 3.89213 -2.46392e-18)
(25.6704 3.88086 -7.69048e-17)
(25.6402 3.8636 1.33819e-16)
(25.6069 3.84049 -3.9392e-16)