/*--------------------------------*- C++ -*----------------------------------*\
| =========                 |                                                 |
| \\      /  F ield         | OpenFOAM: The Open Source CFD Toolbox           |
|  \\    /   O peration     | Version:  2506                                  |
|   \\  /    A nd           | Website:  www.openfoam.com                      |
|    \\/     M anipulation  |                                                 |
\*---------------------------------------------------------------------------*/
FoamFile
{
    version     2.0;
    format      ascii;
    arch        "LSB;label=32;scalar=64";
    class       volScalarField;
    location    "400";
    object      p;
}
// * * * * * * * * * * * * * * * * * * * * * * * * * * * * * * * * * * * * * //

dimensions      [0 2 -2 0 0 0 0];

internalField   nonuniform List<scalar> 
1340
(
81.3075
101.369
120.305
139.881
159.228
77.3744
95.981
113.528
131.747
149.817
166.003
73.2594
90.5952
106.93
123.959
140.903
156.125
169.714
69.0923
85.301
100.571
116.542
132.482
146.845
159.753
170.585
64.959
80.1613
94.4804
109.509
124.542
138.134
150.414
160.796
168.62
60.9154
75.2131
88.6775
102.852
117.067
129.955
141.654
151.61
159.194
164.368
56.9985
70.4773
83.1683
96.566
110.033
122.275
133.435
142.987
150.33
155.424
53.2333
65.9645
77.9521
90.6382
103.418
115.064
125.718
134.887
141.991
146.987
150.108
49.6338
61.6785
73.0214
85.0523
97.1973
108.291
118.471
127.274
134.141
139.03
142.163
46.2069
57.6189
68.3675
79.7922
91.3489
101.925
111.66
120.114
126.749
131.52
134.644
136.309
42.9562
53.7815
63.9803
74.8419
85.8507
95.9419
105.255
113.376
119.784
124.432
127.532
129.261
39.8811
50.1616
59.8485
70.185
80.681
90.3169
99.2309
107.034
113.22
117.741
120.803
122.575
36.9795
46.7514
55.9607
65.8051
75.8198
85.0268
93.5636
101.062
107.031
111.423
114.438
116.236
117.017
34.2475
43.5424
52.3059
61.6882
71.2492
80.0516
88.2302
95.4372
101.195
105.456
108.417
110.228
111.079
31.6799
40.5269
48.8713
57.8193
66.9526
75.372
83.2093
90.1364
95.6892
99.8215
102.722
104.534
105.44
105.629
29.2702
37.6961
45.6465
54.1843
62.9127
70.9689
78.4812
85.1404
90.4951
94.4991
97.3346
99.1403
100.089
100.364
27.0128
35.0416
42.6203
50.7701
59.1143
66.8259
74.0287
80.4302
85.5936
89.4711
92.2397
94.0315
95.0114
95.3588
24.9011
32.5544
39.7818
47.5643
55.5443
62.9275
69.8354
75.9895
80.9674
84.7209
87.4211
89.1937
90.1963
90.6032
90.5335
22.9285
30.226
37.1209
44.5553
52.1885
59.2591
65.8858
71.8022
76.6009
80.2329
82.8639
84.6134
85.6318
86.0884
86.0987
21.0881
28.0485
34.6279
41.7315
49.0345
55.8072
62.1648
67.8535
72.4788
75.9924
78.554
80.2773
81.3056
81.8034
81.8829
19.3735
26.0137
32.2933
39.0826
46.0711
52.5591
58.6594
64.1295
68.5873
71.9857
74.4781
76.173
77.2068
77.7381
77.8773
77.7053
17.7783
24.1139
30.1087
36.5983
43.287
49.503
55.3571
60.6168
64.9138
68.2001
70.6241
72.2884
73.3237
73.8831
74.0733
73.9734
22.3417
28.0655
34.2696
40.6715
46.6277
52.2459
57.3037
61.4456
64.623
66.9795
68.6125
69.6463
70.2285
70.4626
70.4254
70.1669
20.69
26.1556
32.0872
38.2151
43.9228
49.315
54.1789
58.1709
61.2432
63.5335
65.1341
66.1635
66.7642
67.0364
67.0541
66.8671
19.1519
24.3714
30.0427
35.9088
41.3784
46.554
51.2314
55.0791
58.0494
60.2746
61.8425
62.8656
63.4809
63.7858
63.8516
63.7275
17.7209
22.7054
28.1281
33.7435
38.9852
43.953
48.4512
52.1599
55.0314
57.1929
58.728
59.7426
60.3697
60.7028
60.8106
60.7414
60.5234
16.3908
21.1509
26.3357
31.7113
36.7346
41.5029
45.8287
49.4032
52.1793
54.2787
55.7808
56.7857
57.4217
57.7786
57.9231
57.9024
57.7448
15.1556
19.7013
24.6585
29.8043
34.6183
39.1949
43.3549
46.8002
49.4838
51.5225
52.9915
53.9857
54.6281
55.0055
55.1817
55.2036
55.0989
14.0094
18.3503
23.0894
28.0151
32.6283
37.021
41.0213
44.342
46.9361
48.9156
50.3516
51.3339
51.9806
52.3752
52.5792
52.6382
52.5799
52.4194
12.9469
17.0918
21.6223
26.3367
30.7574
34.9732
38.8199
42.0202
44.5278
46.4496
47.8527
48.8222
49.4712
49.8802
50.1081
50.1994
50.1818
50.0705
11.9629
15.9203
20.2509
24.7629
28.9986
33.0445
36.7432
39.8273
42.2511
44.1163
45.4868
46.4426
47.0922
47.5131
47.7615
47.881
47.8988
47.8304
11.0525
14.8304
18.9695
23.2871
27.3453
31.2277
34.7837
37.7559
40.0983
41.9085
43.2464
44.1878
44.8365
45.2667
45.5326
45.6763
45.7249
45.694
45.591
10.211
13.8171
17.7724
21.9037
25.7912
29.5164
32.935
35.7988
38.0623
39.8187
41.1243
42.0506
42.6968
43.1343
43.4148
43.5794
43.6546
43.6561
43.5919
9.43387
12.8754
16.6546
20.6069
24.3306
27.9045
31.1905
33.9494
36.1365
37.8401
39.1137
40.0241
40.6666
41.1093
41.402
41.5843
41.6823
41.7116
41.681
8.71698
12.0009
15.6112
19.3916
22.9577
26.3858
29.544
32.2016
34.3143
35.9663
37.208
38.1019
38.7393
39.1855
39.4879
39.6852
39.8026
39.8558
39.854
39.7999
8.05629
11.1891
14.6374
18.2527
21.6674
24.9552
27.9898
30.5494
32.5897
34.1913
35.4011
36.2779
36.9091
37.357
37.6671
37.8767
38.0106
38.084
38.1068
38.0823
7.44795
10.436
13.7288
17.1857
20.4546
23.6071
26.5226
28.9871
30.9571
32.5092
33.6872
34.5465
35.1702
35.6183
35.934
36.1537
36.3012
36.3917
36.4353
36.4362
6.88843
9.73775
12.8813
16.186
19.3146
22.3368
25.137
27.5096
29.4111
30.9145
32.0608
32.902
33.5173
33.9641
34.2837
34.5112
34.6698
34.7746
34.8358
34.8579
34.8415
6.3743
9.09064
12.0909
15.2492
18.243
21.1395
23.8284
26.1117
27.9465
29.4022
30.5169
31.3393
31.9453
32.3895
32.7113
32.9446
33.1122
33.2286
33.3043
33.3443
33.3499
5.90231
8.4912
11.354
14.3717
17.2356
20.0109
22.5922
24.7888
26.5586
27.9672
29.0505
29.8537
30.4494
30.8897
31.2123
31.4497
31.6242
31.75
31.8376
31.8924
31.9163
5.46946
7.9362
10.667
13.5495
16.2883
18.9468
21.4239
23.5365
25.2428
26.6053
27.6571
28.4407
29.0251
29.4604
29.7823
30.0223
30.2019
30.3351
30.4322
30.4992
30.5382
5.07295
7.42251
10.0265
12.7791
15.3976
17.9432
20.3195
22.3505
23.9949
25.3119
26.3323
27.0959
27.6684
28.0976
28.4176
28.6588
28.8418
28.9805
29.0851
29.1618
29.2133
29.239
4.70999
6.94728
9.42963
12.0572
14.5597
16.9965
19.2752
21.2268
22.8109
24.083
25.0722
25.8154
26.3753
26.7974
27.1144
27.3554
27.5405
27.6832
27.7935
27.8778
27.9392
27.9779
4.37813
6.50773
8.87326
11.3807
13.7715
16.103
18.2873
20.1619
21.6869
22.9149
23.8729
24.5954
25.142
25.5563
25.8692
26.1089
26.2948
26.44
26.5545
26.6447
26.7139
26.7631
4.07497
6.10129
8.35468
10.7465
13.0296
15.2597
17.3524
19.1522
20.6193
21.8039
22.731
23.4325
23.9653
24.3709
24.6789
24.9163
25.1019
25.2484
25.3656
25.46
25.5354
25.5928
3.79827
5.72557
7.87128
10.1519
12.3313
14.4634
16.4673
18.1943
19.605
20.7468
21.643
22.3233
22.8418
23.2382
23.5404
23.7747
23.959
24.1057
24.2245
24.3218
24.4016
24.4654
24.5126
3.54594
5.37828
7.42062
9.59434
11.6737
13.7111
15.629
17.2852
18.6405
19.7402
20.6058
21.2648
21.7687
22.1552
22.4511
22.6814
22.8636
23.0095
23.1289
23.228
23.3109
23.3795
23.4337
3.31604
5.05732
7.00042
9.07126
11.0542
13.0001
14.8347
16.4218
17.7231
18.7813
19.6166
20.2542
20.7431
21.1193
21.4082
21.6339
21.8133
21.9577
22.0767
22.1766
22.2615
22.3336
22.3932
3.10671
4.76068
6.60854
8.58043
10.4704
12.3278
14.0814
15.6016
16.8496
17.8671
18.6725
19.2888
19.7625
20.1279
20.4093
20.6299
20.8059
20.9482
21.0661
21.166
21.2519
21.3263
21.3899
2.91626
4.48654
6.243
8.11968
9.91996
11.6919
13.3669
14.8217
16.0176
16.9952
17.7712
18.3662
18.8244
19.1787
19.4523
19.6673
19.8393
19.979
20.0952
20.1944
20.2805
20.3563
20.4226
2.74306
4.23314
5.90194
7.68701
9.40083
11.0901
12.6887
14.08
15.2243
16.1628
16.91
17.4838
17.9265
18.2695
18.535
18.7441
18.9117
19.0483
19.1624
19.2603
19.346
19.4223
19.4905
19.5482
2.58566
3.99887
5.58358
7.28046
8.9109
10.5203
12.0446
13.3739
14.4674
15.3677
16.0868
16.6397
17.0666
17.3982
17.6553
17.8582
18.0212
18.1543
18.2659
18.3621
18.4469
18.5232
18.5924
18.6525
2.44272
3.78223
5.28627
6.89819
8.44814
9.98009
11.4321
12.7011
13.7444
14.608
15.2998
15.8316
16.2428
16.5628
16.8114
17.0079
17.166
17.2955
17.4043
17.4985
17.5819
17.6576
17.7273
17.789
2.31286
3.5819
5.00877
6.53879
8.0111
9.46796
10.8491
12.0593
13.0525
13.8814
14.5472
15.0579
15.453
15.7614
16.0015
16.1915
16.3447
16.4703
16.5761
16.6679
16.7498
16.8245
16.894
16.9567
2.1948
3.39666
4.74989
6.20144
7.59925
8.9835
10.2956
11.4475
12.388
13.1845
13.8261
14.3159
14.695
14.9921
15.2239
15.4074
15.5555
15.6771
15.7798
15.8692
15.9492
16.0226
16.0916
16.1548
2.0875
3.22525
4.50835
5.88451
7.21099
8.52524
9.77098
10.8659
11.7494
12.5152
13.1343
13.6033
13.9665
14.2525
14.4761
14.6534
14.7965
14.9142
15.0138
15.1007
15.1787
15.2507
15.319
15.3823
1.99048
3.06661
4.28136
5.58401
6.84096
8.08634
9.26829
10.3083
11.1405
11.8797
12.4751
12.9212
13.2679
13.5429
13.7582
13.9287
14.0666
14.1803
14.2767
14.361
14.437
14.5076
14.575
14.6381
14.6915
1.90322
2.91972
4.0676
5.29738
6.48509
7.66041
8.77865
9.76149
10.5538
11.2814
11.8518
12.2696
12.5991
12.8635
13.0705
13.2342
13.3668
13.4764
13.5696
13.6512
13.725
13.7939
13.8602
13.923
13.977
1.83654
2.80504
3.90044
5.06485
6.18514
7.28068
8.30717
9.1793
9.87924
10.6778
11.2644
11.6728
12.0017
12.2705
12.4799
12.6446
12.7779
12.8885
12.9825
13.0649
13.1396
13.2095
13.2772
13.3417
13.3979
1.78256
2.71097
3.75929
4.86238
5.9141
6.92064
7.83733
8.57758
9.16149
10.0707
10.7039
11.1179
11.4566
11.7389
11.9583
12.1295
12.268
12.3828
12.4805
12.5661
12.6437
12.7167
12.7874
12.8554
12.9151
1.72968
2.61779
3.61838
4.65992
5.64411
6.56147
7.37245
7.98896
8.45886
9.45591
10.1375
10.5576
10.9024
11.196
11.4251
11.6026
11.7458
11.8646
11.9657
12.0544
12.1348
12.2106
12.2845
12.3558
12.4191
1.67804
2.5261
3.47872
4.45917
5.37724
6.20531
6.91592
7.41321
7.77592
8.83417
9.56323
9.99288
10.3415
10.6438
10.8815
11.0652
11.213
11.3356
11.44
11.5316
11.6147
11.6932
11.77
11.8448
11.9116
1.62815
2.43664
3.34149
4.26186
5.11554
5.85416
6.47
6.84826
7.11163
8.2064
8.97896
9.42224
9.77489
10.0842
10.3292
10.5181
10.6697
10.7959
10.9037
10.9985
11.0846
11.166
11.2458
11.3241
11.3947
1.58064
2.35065
3.20825
4.07036
4.86105
5.51005
6.03655
6.29209
6.46183
7.57328
8.38327
8.84237
9.20028
9.51757
9.77115
9.96563
10.12
10.2481
10.3581
10.4552
10.544
10.6283
10.7115
10.7935
10.868
1.53663
2.27016
3.08194
3.88818
4.61567
5.17294
5.6133
5.73812
5.81674
6.93396
7.77829
8.25313
8.61344
8.93617
9.20017
9.40518
9.56725
9.69972
9.81187
9.91035
10.0004
10.0864
10.1721
10.2573
10.3354
1.49689
2.19675
2.96537
3.71911
4.3814
4.84385
5.19912
5.17895
5.16005
6.27911
7.16478
7.66529
8.02962
8.34819
8.60907
8.81624
8.98615
9.12949
9.25224
9.3592
9.45552
9.54635
9.63642
9.72674
9.81139
9.88333
1.46044
2.12907
2.85787
3.56433
4.16182
4.53572
4.81145
4.61752
4.47718
5.5865
6.51554
7.06333
7.46513
7.80513
8.0654
8.25442
8.40067
8.52603
8.64038
8.74695
8.84765
8.94498
9.0421
9.13903
9.22983
9.30912
1.42717
2.06689
2.75974
3.42481
3.96289
4.27067
4.47312
4.05356
3.76716
4.85371
5.78887
6.35284
6.79654
7.20848
7.55173
7.8068
7.98591
8.1112
8.20508
8.28449
8.36041
8.43991
8.52769
8.62193
8.71071
8.78325
1.40588
2.02618
2.69162
3.3185
3.79559
4.04104
4.11999
3.40734
3.01611
4.14771
5.09258
5.60994
5.96467
6.2858
6.59257
6.88927
7.17313
7.43024
7.64904
7.82742
7.9711
8.0895
8.19633
8.31106
8.44723
8.59324
1.41156
2.0363
2.6937
3.28488
3.68064
3.79968
3.58526
2.52696
2.12668
3.4434
4.61839
5.37621
5.85028
6.09767
6.14555
6.07021
5.95376
5.86249
5.82426
5.84153
5.90596
6.00888
6.13429
6.24231
6.28938
6.29339
1.43229
2.07914
2.74617
3.31264
3.62627
3.57546
2.96714
1.60132
0.970276
2.14909
3.45654
4.7496
6.00729
7.19992
8.21245
8.98722
9.54255
9.89655
10.0969
10.1966
10.2422
10.2712
10.3384
10.5315
10.8842
11.268
)
;

boundaryField
{
    inlet
    {
        type            freestreamPressure;
        freestreamValue uniform 0;
        value           nonuniform List<scalar> 
26
(
1.42532
2.06901
2.7328
3.29651
3.60862
3.55805
2.9527
1.59352
0.552192
1.2222
1.96429
2.69716
3.40918
4.08382
4.65609
5.09349
5.40652
5.60553
5.7175
5.77254
5.79689
5.81174
5.84812
5.9556
6.15323
6.36837
)
;
    }
    outlet
    {
        type            freestreamPressure;
        freestreamValue nonuniform List<scalar> 0();
        value           nonuniform List<scalar> 0();
    }
    walls
    {
        type            zeroGradient;
    }
    frontAndBack
    {
        type            empty;
    }
    procBoundary0to1
    {
        type            processor;
        value           nonuniform List<scalar> 
94
(
169.117
176.509
176.509
180.341
180.341
181.02
181.02
178.646
178.646
173.852
173.852
167.375
158.504
158.504
151.56
143.737
143.737
136.744
129.837
123.265
123.265
116.978
111.165
111.165
105.23
100.092
95.1957
95.1957
90.0757
85.7498
81.6284
81.6284
77.2723
73.6332
73.6332
69.7133
66.5024
63.4408
63.4408
60.1695
57.4639
54.8822
54.8822
52.1611
49.8713
47.6826
47.6826
45.4153
43.4628
41.5922
41.5922
39.6907
38.0092
36.3937
36.3937
34.7823
33.3178
31.9071
30.5482
30.5482
29.2353
27.9911
26.7901
25.631
25.631
24.5383
23.4693
22.4366
21.4394
20.4769
20.4769
19.5887
18.6971
17.8366
17.0065
16.2062
15.4348
15.4348
14.7307
14.0177
13.4411
12.9616
12.4689
11.9648
11.4517
10.9292
10.4001
10.4001
9.94056
9.37642
8.83727
8.73264
6.28838
11.5833
)
;
    }
    procBoundary0to4
    {
        type            processor;
        value           nonuniform List<scalar> 
72
(
59.096
56.8086
54.1364
51.2422
48.243
45.2195
42.2276
39.3041
36.4748
33.7576
31.1635
28.698
26.3646
24.163
22.0924
20.1504
18.3336
16.6374
15.0579
13.5898
12.2281
10.9681
16.296
16.296
14.9205
13.6457
12.466
11.3757
10.3695
9.44236
8.5893
7.80562
7.08686
6.42869
5.82715
5.27829
4.77848
4.32422
3.91222
3.53939
3.2028
2.89962
2.62727
2.38329
2.16535
1.9713
1.79908
1.64682
1.51273
1.39514
1.29249
1.20333
1.12634
1.0603
1.00394
0.955998
0.91557
0.882764
0.857161
0.838196
0.823797
0.811108
0.799904
0.790274
0.78214
0.775376
0.769605
0.764505
0.760478
0.758093
0.75497
0.746337
)
;
    }
    procBoundary0to5
    {
        type            processor;
        value           nonuniform List<scalar> 4(84.8554 106.601 127.152 148.298);
    }
}


// ************************************************************************* //
