/*--------------------------------*- C++ -*----------------------------------*\
| =========                 |                                                 |
| \\      /  F ield         | OpenFOAM: The Open Source CFD Toolbox           |
|  \\    /   O peration     | Version:  2506                                  |
|   \\  /    A nd           | Website:  www.openfoam.com                      |
|    \\/     M anipulation  |                                                 |
\*---------------------------------------------------------------------------*/
FoamFile
{
    version     2.0;
    format      ascii;
    arch        "LSB;label=32;scalar=64";
    class       surfaceScalarField;
    location    "400";
    object      phi;
}
// * * * * * * * * * * * * * * * * * * * * * * * * * * * * * * * * * * * * * //

dimensions      [0 3 -1 0 0 0 0];

oriented        oriented;

internalField   nonuniform List<scalar> 
2582
(
-0.189085
-0.245263
-0.159367
-0.24767
-0.128727
-0.259938
-0.0901197
-0.319985
-0.325991
-0.189793
-0.277003
-0.1584
-0.279064
-0.126249
-0.292089
-0.0855635
-0.36067
-0.0454716
-0.366083
-0.378489
-0.190813
-0.310544
-0.157779
-0.312098
-0.123897
-0.32597
-0.0810745
-0.403493
-0.0388862
-0.408271
0.00401627
-0.421392
-0.434784
-0.192323
-0.345799
-0.157369
-0.347051
-0.121823
-0.361517
-0.0766305
-0.448685
-0.0322471
-0.452654
0.0129035
-0.466543
0.059115
-0.480995
-0.464939
-0.19407
-0.383002
-0.157332
-0.383789
-0.119742
-0.399107
-0.0721651
-0.496262
-0.0254026
-0.499417
0.0220664
-0.514012
0.0706158
-0.529545
0.116733
-0.511057
-0.459136
-0.196126
-0.422313
-0.157382
-0.422532
-0.117909
-0.43858
-0.0676694
-0.546502
-0.0184187
-0.548668
0.0315455
-0.563976
0.0826674
-0.580667
0.131082
-0.559471
0.173153
-0.501207
-0.442581
-0.198543
-0.463786
-0.157633
-0.463443
-0.116011
-0.480202
-0.0630649
-0.599448
-0.011181
-0.600551
0.0414331
-0.61659
0.0952473
-0.634481
0.146166
-0.61039
0.190316
-0.545357
-0.4802
-0.201169
-0.507482
-0.158034
-0.506578
-0.114199
-0.524037
-0.0583808
-0.655265
-0.00365964
-0.655273
0.0517339
-0.671983
0.108362
-0.691109
0.161991
-0.664019
0.208332
-0.591699
0.24779
-0.519658
-0.455095
-0.204117
-0.553583
-0.158637
-0.552058
-0.112418
-0.570256
-0.0535139
-0.714169
0.00411831
-0.712905
0.0625077
-0.730373
0.122152
-0.750752
0.178527
-0.720395
0.2273
-0.640471
0.268671
-0.561028
-0.490179
-0.207294
-0.602215
-0.159343
-0.60001
-0.110618
-0.618981
-0.0484943
-0.776293
0.0122094
-0.773608
0.0737419
-0.791905
0.136579
-0.81359
0.195964
-0.77978
0.247218
-0.691725
0.290665
-0.604476
0.327409
-0.526923
-0.443542
-0.21076
-0.653467
-0.160161
-0.650608
-0.108804
-0.670338
-0.0432798
-0.841817
0.0207244
-0.837613
0.0855206
-0.856702
0.151723
-0.879792
0.214257
-0.842314
0.268187
-0.745655
0.313844
-0.650134
0.3524
-0.565478
-0.474499
-0.214388
-0.707574
-0.161094
-0.703902
-0.106956
-0.724476
-0.0378879
-0.910885
0.0295991
-0.9051
0.0979073
-0.92501
0.167661
-0.949546
0.23355
-0.908202
0.290297
-0.802402
0.338269
-0.698105
0.378711
-0.605921
-0.506925
-0.218368
-0.764595
-0.162143
-0.760127
-0.105096
-0.781523
-0.0322444
-0.983737
0.0388756
-0.97622
0.110908
-0.997042
0.184419
-1.02306
0.253793
-0.977577
0.313537
-0.862145
0.363993
-0.748561
0.406507
-0.648435
0.440443
-0.54086
-0.451366
-0.222576
-0.824691
-0.16323
-0.819473
-0.103106
-0.841647
-0.0263374
-1.06051
0.0486925
-1.05125
0.124585
-1.07293
0.202054
-1.10053
0.27516
-1.05068
0.338019
-0.925004
0.391124
-0.801667
0.435762
-0.693073
0.471378
-0.576476
-0.479495
-0.227023
-0.888075
-0.164516
-0.881981
-0.101076
-0.905087
-0.0200701
-1.14151
0.0589926
-1.13031
0.138962
-1.1529
0.220594
-1.18216
0.297598
-1.12769
0.363861
-0.991267
0.419713
-0.857518
0.466665
-0.740025
0.50403
-0.613841
0.533478
-0.508943
-0.432756
-0.231719
-0.954958
-0.165763
-0.947936
-0.0989667
-0.971883
-0.0135754
-1.2269
0.0697779
-1.21367
0.154079
-1.23721
0.24015
-1.26823
0.321324
-1.20886
0.391077
-1.06102
0.449863
-0.916304
0.499213
-0.789376
0.538464
-0.653092
0.56931
-0.539789
-0.457592
-0.236713
-1.02545
-0.167205
-1.01744
-0.0967414
-1.04235
-0.00671727
-1.31693
0.0811565
-1.30154
0.170037
-1.32609
0.260723
-1.35892
0.346261
-1.2944
0.419767
-1.13453
0.48166
-0.978197
0.533578
-0.841294
0.574784
-0.694298
0.607151
-0.572156
-0.483586
-0.241971
-1.09974
-0.168684
-1.09073
-0.0944209
-1.11661
0.000539277
-1.41189
0.0931542
-1.39415
0.186852
-1.41978
0.282448
-1.45451
0.372587
-1.38454
0.450008
-1.21195
0.515191
-1.04338
0.569801
-0.895904
0.613127
-0.737624
0.647041
-0.60607
0.674242
-0.510786
-0.432177
-0.247538
-1.17808
-0.170235
-1.16803
-0.0919331
-1.19491
0.0081524
-1.51197
0.105806
-1.49181
0.204575
-1.51855
0.305347
-1.55528
0.400354
-1.47954
0.481908
-1.2935
0.55053
-1.112
0.608012
-0.953386
0.653616
-0.783228
0.689169
-0.641623
0.717638
-0.539256
-0.45475
-0.253348
-1.26068
-0.171888
-1.24949
-0.0893668
-1.27743
0.0161627
-1.6175
0.119136
-1.59478
0.223241
-1.62266
0.329485
-1.66153
0.4296
-1.57966
0.515533
-1.37943
0.587856
-1.18432
0.648379
-1.01391
0.696182
-0.83103
0.733689
-0.679129
0.763473
-0.56904
-0.478382
-0.259513
-1.34775
-0.173644
-1.33536
-0.0866028
-1.36447
0.0246734
-1.72878
0.133223
-1.70333
0.242962
-1.7324
0.354964
-1.77353
0.460461
-1.68516
0.551039
-1.47001
0.627145
-1.26043
0.690845
-1.07761
0.741369
-0.881554
0.780617
-0.718377
0.811821
-0.600245
0.836465
-0.503026
-0.431198
-0.265967
-0.175414
-1.42592
-0.0837164
-1.45617
0.0336283
-1.84612
0.148046
-1.81775
0.26376
-1.84811
0.38178
-1.89155
0.493053
-1.79643
0.588495
-1.56545
0.668643
-1.34058
0.735791
-1.14476
0.788687
-0.93445
0.829989
-0.759679
0.862983
-0.63324
0.888744
-0.528786
-0.451778
-0.177306
-1.52139
-0.0805984
-1.55288
0.0430594
-1.96978
0.163726
-1.93842
0.285697
-1.97008
0.410148
-2.016
0.527367
-1.91365
0.628
-1.66609
0.712526
-1.4251
0.783197
-1.21543
0.838991
-0.990244
0.882357
-0.803045
0.916731
-0.667614
0.943864
-0.555919
0.96528
-0.473194
-0.416398
-0.179287
-1.62203
-0.0773543
-1.65481
0.0530693
-2.1002
0.180264
-2.06561
0.308868
-2.09869
0.440069
-2.1472
0.563728
-2.03731
0.669659
-1.77202
0.758652
-1.5141
0.833085
-1.28986
0.891807
-1.04897
0.937475
-0.848713
0.973735
-0.703875
1.00206
-0.58424
1.02453
-0.495668
-0.434787
-0.18132
-1.72814
-0.0738621
-1.76227
0.0636392
-2.23771
0.197743
-2.19971
0.333315
-2.23426
0.471621
-2.28551
0.601859
-2.16755
0.713644
-1.8838
0.807486
-1.60794
0.885852
-1.36823
0.94769
-1.1108
0.995749
-0.896772
1.03365
-0.741779
1.06342
-0.614008
1.08692
-0.519166
-0.454061
-0.183491
-1.84001
-0.0701867
-1.87557
0.0747802
-2.38267
0.216158
-2.34109
0.359098
-2.3772
0.504982
-2.43139
0.642255
-2.30482
0.760026
-2.00158
0.858889
-1.7068
0.941395
-1.45073
1.00657
-1.17598
1.05704
-0.947246
1.09714
-0.781874
1.12826
-0.64513
1.15299
-0.543891
1.17286
-0.47393
-0.421968
-0.185702
-1.95794
-0.0662665
-1.99501
0.0866104
-2.53555
0.235674
-2.49016
0.386391
-2.52792
0.540053
-2.58505
0.684945
-2.44971
0.808971
-2.1256
0.913188
-1.81102
1.0002
-1.53774
1.0687
-1.24448
1.12197
-1.00051
1.16389
-0.823798
1.19674
-0.677984
1.22254
-0.569691
1.2435
-0.494886
-0.439158
-0.188017
-2.08227
-0.0620871
-2.12094
0.0990615
-2.6967
0.256238
-2.64733
0.415096
-2.68677
0.577237
-2.74719
0.729857
-2.60233
0.860761
-2.2565
0.970601
-1.92086
1.06218
-1.62932
1.13439
-1.31669
1.19026
-1.05639
1.23457
-0.868103
1.26895
-0.712359
1.29592
-0.596668
1.318
-0.516958
-0.457029
-0.190433
-2.2134
-0.0577116
-2.25366
0.112244
-2.86665
0.277949
-2.81304
0.44552
-2.85434
0.616392
-2.91806
0.777371
-2.76331
0.915281
-2.39441
1.03093
-2.03651
1.12759
-1.72598
1.20368
-1.39277
1.26253
-1.11525
1.30901
-0.91458
1.34519
-0.748536
1.37362
-0.625105
1.39648
-0.539814
1.41541
-0.475962
-0.432513
-0.192989
-2.35158
-0.0529979
-2.39365
0.126151
-3.0458
0.300899
-2.98779
0.47756
-3.031
0.657658
-3.09816
0.827394
-2.93304
0.972843
-2.53986
1.09482
-2.15849
1.19669
-1.82785
1.27669
-1.47278
1.33884
-1.17739
1.38773
-0.963469
1.42575
-0.786556
1.45555
-0.654905
1.47955
-0.563818
1.49911
-0.495525
-0.449141
-0.195569
-2.49731
-0.0480101
-2.54121
0.14093
-3.23474
0.32516
-3.17201
0.511372
-3.21722
0.701448
-3.28824
0.880308
-3.11191
1.03359
-2.69315
1.16222
-2.28712
1.26941
-1.93503
1.35388
-1.55725
1.41912
-1.24263
1.47062
-1.01497
1.51061
-0.826544
1.54193
-0.68623
1.56726
-0.589148
1.5878
-0.516064
-0.466331
-0.198313
-2.65095
-0.0426989
-2.69682
0.156473
-3.43392
0.350776
-3.36632
0.547139
-3.41358
0.7474
-3.4885
0.936193
-3.3007
1.09772
-2.85468
1.23335
-2.42275
1.34642
-2.0481
1.43528
-1.64611
1.50414
-1.31148
1.55826
-1.06909
1.6003
-0.86858
1.63327
-0.719207
1.6597
-0.615571
1.68113
-0.537501
1.69918
-0.484381
-0.450671
-0.201157
-2.81294
-0.0371225
-2.86086
0.172966
-3.644
0.377747
-3.5711
0.584862
-3.62069
0.796144
-3.69978
0.995025
-3.49958
1.16553
-3.02519
1.30828
-2.5655
1.42745
-2.16727
1.52123
-1.73989
1.59367
-1.38392
1.65083
-1.12626
1.69502
-0.91277
1.72959
-0.753773
1.75737
-0.643351
1.77999
-0.560119
1.79877
-0.503162
-0.466939
-0.20412
-2.98375
-0.0311412
-3.03384
0.190344
-3.86549
0.406406
-3.78716
0.624785
-3.83907
0.847614
-3.92261
1.05727
-3.70924
1.23681
-3.20473
1.38767
-2.71635
1.51322
-2.29283
1.61201
-1.83868
1.68825
-1.46016
1.7484
-1.18641
1.79494
-0.959313
1.83137
-0.790195
1.86054
-0.67253
1.88411
-0.583682
1.90389
-0.522939
-0.484049
-0.207217
-3.16384
-0.0248105
-3.21624
0.208731
-4.09903
0.436519
-4.01495
0.666816
-4.06937
0.901643
-4.15744
1.12284
-3.93043
1.31246
-3.39435
1.47123
-2.87512
1.6036
-2.4252
1.70771
-1.94279
1.78822
-1.54068
1.85138
-1.24956
1.90054
-1.00848
1.9386
-0.828252
1.96934
-0.703268
1.99423
-0.608577
2.01494
-0.543651
2.0328
-0.501903
-0.478017
-0.210448
-3.35373
-0.0181177
-3.40857
0.228177
-4.34533
0.46838
-4.25515
0.71127
-4.31226
0.959014
-4.40518
1.19227
-4.16368
1.39197
-3.59405
1.55945
-3.04261
1.69913
-2.56488
1.80869
-2.05235
1.89354
-1.62553
1.96023
-1.31625
2.01181
-1.06006
2.05205
-0.868488
2.08425
-0.735469
2.1104
-0.634725
2.13205
-0.565303
2.15078
-0.520631
-0.494838
-0.213828
-3.55396
-0.0110373
-3.61137
0.248719
-4.60508
0.502073
-4.50851
0.758111
-4.5683
1.01929
-4.66636
1.26532
-4.40971
1.47601
-3.80474
1.6526
-3.2192
1.79984
-2.71212
1.91549
-2.16801
2.00481
-1.71484
2.07501
-1.38645
2.12942
-1.11447
2.17174
-0.910806
2.20565
-0.769381
2.23297
-0.662044
2.25569
-0.588024
2.27537
-0.540309
-0.512542
-0.217343
-3.7651
-0.00348203
-3.82523
0.270461
-4.87902
0.537521
-4.77557
0.807681
-4.83846
1.08316
-4.94184
1.34258
-4.66913
1.56477
-4.02693
1.75097
-3.4054
1.90615
-2.8673
2.02815
-2.29001
2.12219
-1.80888
2.19628
-1.46054
2.25345
-1.17164
2.29812
-0.955474
2.3337
-0.804958
2.36258
-0.690924
2.38642
-0.611871
2.40701
-0.560892
2.42539
-0.530928
-0.516995
-0.221041
-3.98773
0.00446615
-4.05073
0.293333
-5.16789
0.57503
-5.05726
0.859948
-5.12338
1.15053
-5.23242
1.42414
-4.94274
1.6585
-4.26128
1.85482
-3.60172
2.01842
-3.0309
2.147
-2.41859
2.24626
-1.90814
2.32418
-1.53846
2.38441
-1.23186
2.43138
-1.00245
2.46899
-0.842573
2.49921
-0.721142
2.52433
-0.636991
2.54591
-0.582473
2.56534
-0.550353
-0.535145
-0.224894
-4.22253
0.0129318
-4.28856
0.317495
-5.47245
0.614783
-5.35455
0.915105
-5.4237
1.2217
-5.53902
1.51025
-5.23129
1.75728
-4.50831
1.96443
-3.80887
2.13696
-3.20343
2.27244
-2.55406
2.37703
-2.01273
2.45922
-1.62066
2.52278
-1.29542
2.57222
-1.05189
2.61169
-0.882039
2.64351
-0.752968
2.66993
-0.663407
2.69252
-0.605057
2.7129
-0.570736
-0.554276
-0.228914
-4.47014
0.0218841
-4.53936
0.343128
-5.7937
0.656532
-5.66795
0.973295
-5.74046
1.29661
-5.86233
1.60097
-5.53565
1.86164
-4.76898
2.07998
-4.02721
2.26195
-3.38541
2.40479
-2.6969
2.51525
-2.12319
2.60176
-1.70718
2.66874
-1.36239
2.72077
-1.10392
2.76252
-0.923784
2.79589
-0.786335
2.82376
-0.691285
2.8476
-0.628898
2.86888
-0.592013
-0.574113
-0.233187
-4.7312
0.0312988
-4.80384
0.370154
-6.13255
0.70069
-5.99849
1.03498
-6.07475
1.37578
-6.20313
1.69691
-5.85679
1.97171
-5.04378
2.20219
-4.25769
2.39408
-3.57729
2.54472
-2.84754
2.6609
-2.23937
2.75232
-1.7986
2.82288
-1.43295
2.87773
-1.15877
2.92149
-0.967549
2.9568
-0.821639
2.98591
-0.720398
3.01096
-0.653948
3.03337
-0.614419
3.05446
-0.595212
-0.595015
-0.237581
-5.00658
0.041345
-5.08277
0.398712
-6.48992
0.747215
-6.347
1.09975
-6.42729
1.45952
-6.5629
1.79802
-6.19529
2.08808
-5.33384
2.33094
-4.50055
2.53334
-3.7797
2.69228
-3.00648
2.81487
-2.36196
2.91113
-1.89486
2.98544
-1.50726
3.04325
-1.21659
3.08949
-1.01378
3.12666
-0.858813
3.15732
-0.751054
3.18367
-0.680301
3.20728
-0.63803
3.22919
-0.617116
-0.61677
-0.242273
-5.29693
0.0519105
-5.37695
0.428886
-6.86689
0.796549
-6.71466
1.16841
-6.79914
1.54774
-6.94223
1.90491
-6.55246
2.21069
-5.63962
2.46694
-4.75679
2.68036
-3.99312
2.84792
-3.17403
2.97726
-2.49129
3.07868
-1.99629
3.15718
-1.58576
3.21814
-1.27755
3.26666
-1.06229
3.30585
-0.898006
3.33828
-0.783487
3.36593
-0.707944
3.39073
-0.662835
3.41382
-0.640205
-0.639643
-0.247173
-5.60315
0.0631074
-5.68723
0.460695
-7.26448
0.848481
-7.10244
1.2407
-7.19136
1.64081
-7.34234
2.01766
-6.9293
2.3403
-5.96226
2.61057
-5.02707
2.83571
-4.21826
3.01239
-3.35071
3.1487
-2.6276
3.25584
-2.10343
3.33839
-1.66831
3.40266
-1.34182
3.45399
-1.11362
3.4951
-0.939114
3.52915
-0.817543
3.55843
-0.737219
3.58438
-0.688783
3.60883
-0.664659
-0.663483
-0.252274
-5.92615
0.0749535
-6.01446
0.494245
-7.68377
0.903392
-7.51159
1.31713
-7.6051
1.73921
-7.76443
2.13659
-7.32669
2.47688
-6.30254
2.76213
-5.31232
2.99954
-4.45566
3.18592
-3.53709
3.32977
-2.77145
3.44251
-2.21617
3.52974
-1.75554
3.59744
-1.40952
3.65148
-1.16766
3.69497
-0.982603
3.73077
-0.853347
3.76149
-0.767934
3.78896
-0.716251
3.81453
-0.690235
3.83982
-0.688768
-0.708232
-0.257725
-6.26675
0.0873885
-6.35957
0.529706
-8.12609
0.961263
-7.94315
1.39767
-8.04151
1.84296
-8.20972
2.26228
-7.74601
2.6212
-6.66146
2.92187
-5.613
3.17241
-4.7062
3.36914
-3.73382
3.52064
-2.92296
3.63978
-2.33531
3.73169
-1.84745
3.80305
-1.48088
3.86
-1.22462
3.90577
-1.02837
3.94361
-0.891187
3.97594
-0.800266
4.00483
-0.745136
4.03174
-0.717145
4.05819
-0.71522
-0.735862
-0.263385
-6.62601
0.100672
-6.72363
0.567079
-8.5925
1.02231
-8.39838
1.48265
-8.50185
1.95255
-8.67961
2.3948
-8.18826
2.77355
-7.04022
3.09079
-5.93023
3.35507
-4.97048
3.5624
-3.94115
3.72241
-3.08296
3.84791
-2.46081
3.94477
-1.94432
4.02016
-1.55627
4.08008
-1.28453
4.12839
-1.07668
4.16821
-0.931009
4.20231
-0.834359
4.23268
-0.775505
4.26101
-0.745481
4.28895
-0.743158
-0.764676
-0.269401
-7.0049
0.114499
-7.10753
0.606747
-9.08475
1.08685
-8.87848
1.57257
-8.98757
2.06809
-9.17513
2.53464
-8.65482
2.93421
-7.43979
3.26892
-6.26493
3.54763
-5.2492
3.76641
-4.15993
3.93516
-3.25172
4.0676
-2.59325
4.16979
-2.04651
4.24911
-1.63559
4.31242
-1.34784
4.36323
-1.12749
4.40529
-0.973062
4.44105
-0.870122
4.47317
-0.807629
4.50301
-0.775314
4.53234
-0.772493
-0.795054
-0.27569
-7.40452
0.129381
-7.5126
0.648289
-9.60366
1.15491
-9.38509
1.6672
-9.49986
2.18998
-9.69792
2.68232
-9.14715
3.10382
-7.86129
3.45703
-6.61814
3.75107
-5.54324
3.98179
-4.39065
4.15977
-3.4297
4.2994
-2.73287
4.4072
-2.15431
4.49088
-1.71928
4.55764
-1.4146
4.6111
-1.18095
4.65532
-1.01729
4.69317
-0.907967
4.72696
-0.841418
4.75832
-0.806678
4.7892
-0.803369
-0.82721
-0.282378
-7.82603
0.144747
-7.93973
0.69239
-10.1513
1.22675
-9.91945
1.76735
-10.0405
2.31886
-10.2494
2.83822
-9.66651
3.2828
-8.30587
3.65531
-6.99065
3.96556
-5.85348
4.20901
-4.63411
4.39681
-3.6175
4.54406
-2.88013
4.65757
-2.26782
4.74582
-1.80753
4.81619
-1.48497
4.87274
-1.23751
4.91933
-1.06387
4.95929
-0.94793
4.99467
-0.876799
5.02785
-0.839863
5.06035
-0.835859
5.09403
-0.860896
-0.867522
-0.2894
-8.2706
0.161218
-8.39034
0.738861
-10.7289
1.30246
-10.483
1.87278
-10.6108
2.45479
-10.8314
3.00258
-10.2143
3.47185
-8.77514
3.86486
-7.38367
4.19212
-6.18074
4.44891
-4.8909
4.64688
-3.81546
4.80211
-3.03536
4.92203
-2.38774
5.01508
-1.90057
5.08925
-1.55914
5.1487
-1.29696
5.19789
-1.11306
5.23979
-0.989833
5.27742
-0.914423
5.31208
-0.874531
5.34648
-0.870254
5.38191
-0.896329
-0.903456
-0.296814
-8.73946
0.178419
-8.86558
0.787688
-11.3382
1.38254
-11.0779
1.98413
-11.2124
2.59806
-11.4454
3.17613
-10.7924
3.67116
-9.27018
4.08587
-7.79837
4.43115
-6.52602
4.70193
-5.16168
4.9107
-4.02423
5.07453
-3.19919
5.20083
-2.51403
5.29894
-1.99868
5.37717
-1.63737
5.44004
-1.35983
5.49182
-1.16484
5.53608
-1.03409
5.5755
-0.953842
5.61221
-0.911238
5.64827
-0.906321
5.68576
-0.933813
-0.941391
-0.304574
-9.23417
0.196829
-9.36698
0.839536
-11.9809
1.46689
-11.7053
2.10165
-11.8471
2.74923
-12.093
3.3592
-11.4023
3.88162
-9.7926
4.31915
-8.2359
4.68326
-6.89013
4.96902
-5.44744
5.18911
-4.24432
5.3619
-3.37198
5.49519
-2.64732
5.59863
-2.10213
5.68102
-1.71976
5.74721
-1.42602
5.80186
-1.21949
5.84849
-1.08072
5.89013
-0.995484
5.92893
-0.950037
5.96699
-0.94438
6.00629
-0.973111
-0.98128
-0.312889
-9.75587
0.215883
-9.89575
0.894091
-12.6591
1.55598
-12.3671
2.22558
-12.5167
2.90896
-12.7763
3.5524
-12.0458
4.10358
-10.3438
4.5653
-8.69762
4.94935
-7.27418
5.25055
-5.74864
5.48299
-4.47676
5.66511
-3.5541
5.80561
-2.78783
5.91472
-2.21123
6.00178
-1.80682
6.07151
-1.49575
6.12908
-1.27706
6.17831
-1.12995
6.22207
-1.03925
6.26285
-0.99081
6.30294
-0.984473
6.34451
-1.01468
-1.0234
-0.321714
-10.3061
0.236331
-10.4538
0.951532
-13.3743
1.64978
-13.0654
2.35625
-13.2232
3.07743
-13.4975
3.75636
-12.7247
4.33804
-10.9255
4.82481
-9.18439
5.23005
-7.67942
5.54784
-6.06644
5.79278
-4.7217
5.98503
-3.74634
6.13335
-2.93616
6.24829
-2.32617
6.33996
-1.89849
6.41358
-1.56937
6.47436
-1.33785
6.52605
-1.18164
6.57276
-1.08596
6.61556
-1.03361
6.65735
-1.02626
6.7007
-1.05803
-1.0687
-0.330965
-10.8865
0.257404
-11.0422
1.01212
-14.129
1.74893
-13.8022
2.49452
-13.9688
3.25503
-14.258
3.97154
-13.4412
4.58534
-11.5393
5.09891
-9.69796
5.52616
-8.10667
5.86141
-6.40168
6.11989
-4.98018
6.32258
-3.94903
6.4792
-3.09278
6.60081
-2.44778
6.69651
-1.99418
6.77469
-1.64756
6.83785
-1.401
6.89307
-1.23687
6.9415
-1.13438
6.98713
-1.07925
7.03114
-1.07027
7.07747
-1.10436
7.12372
-1.11495
-1.02805
-0.340627
-11.4989
0.280164
-11.663
1.07625
-14.9251
1.85351
-14.5795
2.63996
-14.7552
3.44272
-15.0608
4.19842
-14.1969
4.8462
-12.187
5.38781
-10.2396
5.83855
-8.55741
6.19227
-6.7554
6.46507
-5.25297
6.67795
-4.16191
6.84241
-3.25724
6.97017
-2.57554
7.07372
-2.09773
7.15514
-1.72897
7.22312
-1.46898
7.28004
-1.29379
7.33069
-1.18503
7.37858
-1.12714
7.42616
-1.11784
7.4749
-1.1531
7.52367
-1.16372
-1.07329
-0.244846
-11.9386
0.212032
-12.1198
0.841201
-15.5543
1.54012
-15.2784
2.38619
-15.6013
3.47749
-16.1521
4.84545
-15.5649
6.22037
-13.562
6.11913
-10.1383
5.98878
-8.42707
5.88094
-6.64756
5.79645
-5.16848
5.73105
-4.09652
5.68234
-3.20852
5.6444
-2.53761
5.61564
-2.06898
5.59272
-1.70604
5.57605
-1.45231
5.56183
-1.27957
5.54986
-1.17306
5.53848
-1.11577
5.53002
-1.10939
5.5243
-1.14738
5.52136
-1.16078
-1.07393
-0.264781
-12.4227
0.238089
-12.6227
0.930502
-16.2467
1.69973
-16.0476
2.63139
-16.533
3.83352
-17.3542
5.34127
-17.0726
6.85644
-15.0771
6.74219
-10.0241
6.59718
-8.28206
6.47749
-6.52787
6.38242
-5.07341
6.3101
-4.0242
6.25436
-3.15278
6.21483
-2.49808
6.18256
-2.03671
6.15816
-1.68164
6.13708
-1.43124
6.1208
-1.26328
6.10789
-1.16016
6.09681
-1.10468
6.08738
-1.09995
6.08084
-1.14084
6.07725
-1.1572
-1.07645
-0.286558
-12.955
0.266651
-13.1759
1.02888
-17.0089
1.87612
-16.8949
2.902
-17.5588
4.22625
-18.6785
5.88723
-18.7336
7.55646
-16.7464
7.4263
-9.89392
7.2662
-8.12196
7.131
-6.39267
7.02761
-4.97003
6.94759
-3.94417
6.88655
-3.09174
6.84067
-2.4522
6.80515
-2.00118
6.7782
-1.6547
6.75677
-1.4098
6.73855
-1.24506
6.7236
-1.14521
6.71168
-1.09276
6.70016
-1.08843
6.69174
-1.13242
6.68892
-1.15438
-1.0785
-0.309567
-13.5407
0.299093
-13.7846
1.13797
-17.8478
2.07035
-17.8272
3.20012
-18.6886
4.65864
-20.137
6.48849
-20.5634
8.32843
-18.5863
8.18253
-9.74802
8.00236
-7.94179
7.85402
-6.24432
7.73801
-4.85402
7.64838
-3.85454
7.5812
-3.02457
7.52934
-2.40034
7.49086
-1.96269
7.46036
-1.6242
7.43748
-1.38692
7.41757
-1.22515
7.40072
-1.12835
7.38554
-1.07759
7.37596
-1.07885
7.36704
-1.1235
7.36271
-1.15004
-1.08025
-0.334614
-14.1848
0.335249
-14.4544
1.25824
-18.7708
2.28506
-18.8541
3.5287
-19.9322
5.13498
-21.7433
7.14997
-22.5784
9.1751
-20.6114
9.01216
-9.58508
8.81274
-7.74237
8.64856
-6.08014
8.52084
-4.7263
8.41972
-3.75342
8.3457
-2.95054
8.28953
-2.34417
8.24714
-1.92031
8.21337
-1.59044
8.18549
-1.35904
8.16402
-1.20367
8.1455
-1.10983
8.12983
-1.06192
8.11724
-1.06626
8.10682
-1.11308
8.1037
-1.14692
-1.08063
-0.361169
-14.8935
0.375402
-15.191
1.39152
-19.7869
2.52143
-19.984
3.8907
-21.3015
5.65948
-23.512
7.87947
-24.7984
10.1095
-22.8415
9.92622
-9.40179
9.70412
-7.52027
9.5218
-5.89782
9.37954
-4.58404
9.27025
-3.64413
9.18738
-2.86768
9.12484
-2.28163
9.0764
-1.87187
9.03966
-1.5537
9.01081
-1.33019
8.98683
-1.1797
8.96551
-1.08851
8.94956
-1.04597
8.93292
-1.04962
8.92372
-1.10388
8.91823
-1.14143
-1.08248
-0.390262
-15.673
0.420554
-16.0018
1.53858
-20.905
2.78212
-21.2275
4.28943
-22.8088
6.23649
-25.4591
8.68025
-27.2422
11.1343
-25.2955
10.9311
-9.19855
10.6861
-7.27527
10.4834
-5.69512
10.3264
-4.42712
10.2047
-3.52242
10.1124
-2.77537
10.0452
-2.21443
9.99113
-1.81777
9.95046
-1.51303
9.91716
-1.29689
9.88956
-1.1521
9.86829
-1.06724
9.84841
-1.02609
9.833
-1.03422
9.82147
-1.09235
9.81513
-1.1351
-1.08472
-0.421187
-16.5303
0.470632
-16.8936
1.70077
-22.1351
3.06927
-22.596
4.72802
-24.4676
6.87179
-27.6029
9.56096
-29.9313
12.2608
-27.9954
12.037
-8.97475
11.7655
-7.00376
11.5416
-5.47121
11.3675
-4.25298
11.2331
-3.388
11.1333
-2.67561
11.0557
-2.13679
10.9988
-1.76093
10.952
-1.46618
10.9157
-1.26058
10.8873
-1.12369
10.8611
-1.04104
10.84
-1.00506
10.8222
-1.01642
10.8085
-1.07865
10.8028
-1.1294
10.8044
-1.08627
-1.00049
-0.454599
-17.4735
0.526317
-17.8746
1.8797
-23.4885
3.38555
-24.1019
5.21093
-26.293
7.57038
-29.9623
10.5275
-32.8885
13.5009
-30.9689
13.2535
-8.72727
12.9536
-6.70391
12.7077
-5.22532
12.5136
-4.05883
12.3658
-3.24026
12.2528
-2.56258
12.1691
-2.05309
12.1037
-1.69554
12.055
-1.41742
12.0147
-1.22034
11.9805
-1.08952
11.9521
-1.01263
11.9287
-0.98168
11.9086
-0.996311
11.8942
-1.06419
11.8854
-1.12065
11.8877
-1.08858
-1.01062
-0.490425
-18.5108
0.588613
-18.9536
2.07735
-24.9772
3.73371
-25.7582
5.74182
-28.3011
8.33614
-32.5566
11.5907
-36.143
14.8598
-34.238
14.5915
-8.45895
14.2605
-6.3729
13.9887
-4.95356
13.7757
-3.84583
13.61
-3.07453
13.4849
-2.43752
13.3911
-1.95926
13.3196
-1.62403
13.2627
-1.36054
13.2176
-1.17523
13.182
-1.05389
13.1505
-0.98115
13.1238
-0.955008
13.1029
-0.975445
13.0854
-1.04662
13.0763
-1.1116
13.077
-1.08929
-1.02025
-0.529153
-19.6517
0.657849
-20.1406
2.29515
-26.6145
4.11683
-27.5799
6.32511
-30.5094
9.17777
-35.4093
12.7555
-39.7208
16.3536
-37.8361
16.0618
-8.16712
15.6995
-6.01059
15.398
-4.65201
15.1624
-3.61028
14.9779
-2.88998
14.8396
-2.29925
14.7351
-1.85474
14.6535
-1.54247
14.5904
-1.29747
14.5412
-1.12595
14.4986
-1.01137
14.4655
-0.947975
14.4361
-0.925602
14.4102
-0.94958
14.3916
-1.02804
14.3827
-1.10265
14.3818
-1.08839
-1.03177
-0.570277
-20.9062
0.73459
-21.4455
2.53493
-28.4148
4.53748
-29.5825
6.9656
-32.9375
10.1022
-38.5459
14.0342
-43.6527
17.9957
-41.7976
17.68
-7.85144
17.2849
-5.61547
16.9494
-4.3165
16.685
-3.34583
16.4795
-2.6845
16.3278
-2.14758
16.2131
-1.74007
16.1259
-1.45521
16.0594
-1.23097
16.0035
-1.07012
15.9592
-0.96705
15.9192
-0.907938
15.886
-0.892392
15.8576
-0.921238
15.8367
-1.00713
15.8265
-1.09248
15.8307
-1.09253
-1.04575
-0.613778
0.820822
2.79891
4.99922
7.66538
11.11
15.4348
19.7871
19.4572
19.0313
18.6688
18.3804
18.1529
17.978
17.8479
17.7488
17.6737
17.6179
17.5729
17.5386
17.509
17.4863
17.4668
17.4543
17.4533
)
;

boundaryField
{
    inlet
    {
        type            calculated;
        value           nonuniform List<scalar> 
26
(
-22.2858
-22.8801
-30.3929
-31.7828
-35.6036
-41.9905
-47.9776
-46.1499
-7.52157
-5.18955
-3.95399
-3.05747
-2.45696
-1.97269
-1.60995
-1.3561
-1.15589
-1.01435
-0.922057
-0.873565
-0.862835
-0.898529
-0.987599
-1.07997
-1.09161
-1.0581
)
;
    }
    outlet
    {
        type            calculated;
        value           nonuniform List<scalar> 0();
    }
    walls
    {
        type            calculated;
        value           nonuniform List<scalar> 0();
    }
    frontAndBack
    {
        type            empty;
    }
    procBoundary0to1
    {
        type            processor;
        value           nonuniform List<scalar> 
94
(
0.287834
-0.0519628
0.337634
-0.00461583
0.390842
0.047958
0.42109
0.102964
0.419051
0.156818
0.406667
0.209066
0.227935
0.421606
0.281279
0.303755
0.413952
0.356999
0.383357
0.411137
0.424454
0.467355
0.499507
0.408987
0.557246
0.594147
0.633144
0.410631
0.695788
0.740212
0.787105
0.411429
0.856234
0.909323
0.398721
0.982958
1.04292
1.10619
0.405317
1.18951
1.26069
1.33587
0.416798
1.43113
1.51574
1.60499
0.434856
1.715
1.81504
1.92099
0.46195
2.04886
2.1676
2.29307
0.499644
2.44274
2.58349
2.73203
2.88872
0.574411
3.07507
3.25094
3.43669
3.63267
0.682252
3.8658
4.08582
4.31776
4.56272
4.82135
0.833266
5.12829
5.41785
5.72369
6.04617
6.38663
6.746
0.985346
7.16643
7.56891
5.522
6.07977
6.69096
7.36446
8.10409
8.92008
9.81737
0.990902
10.814
11.8979
13.0867
14.3933
15.8447
17.4657
)
;
    }
    procBoundary0to4
    {
        type            processor;
        value           nonuniform List<scalar> 
72
(
0.219252
0.221534
0.224354
0.227577
0.231273
0.235437
0.240016
0.244866
0.250218
0.255926
0.262012
0.268494
0.275389
0.282673
0.290406
0.298602
0.307202
0.316263
0.325879
0.33595
0.346584
0.357768
-1.43955
0.27278
0.279924
0.28743
0.295364
0.30363
0.312352
0.321554
0.331176
0.341299
0.351948
0.363144
0.374932
0.387306
0.400338
0.414065
0.42848
0.44367
0.459695
0.476518
0.494247
0.512963
0.53263
0.553391
0.57527
0.598329
0.622641
0.648288
0.675318
0.703888
0.733966
0.765677
0.799278
0.83459
0.871932
0.911399
0.95296
0.684642
0.748871
0.818831
0.895239
0.978717
1.06989
1.16972
1.27854
1.39774
1.52775
1.67003
1.82477
1.99343
)
;
    }
    procBoundary0to5
    {
        type            processor;
        value           nonuniform List<scalar> 4(0.215096 0.217952 0.229298 0.281378);
    }
}


// ************************************************************************* //
