/*--------------------------------*- C++ -*----------------------------------*\
| =========                 |                                                 |
| \\      /  F ield         | OpenFOAM: The Open Source CFD Toolbox           |
|  \\    /   O peration     | Version:  2506                                  |
|   \\  /    A nd           | Website:  www.openfoam.com                      |
|    \\/     M anipulation  |                                                 |
\*---------------------------------------------------------------------------*/
FoamFile
{
    version     2.0;
    format      ascii;
    arch        "LSB;label=32;scalar=64";
    class       volScalarField;
    location    "400";
    object      turbulenceProperties:L;
}
// * * * * * * * * * * * * * * * * * * * * * * * * * * * * * * * * * * * * * //

dimensions      [0 1 0 0 0 0 0];

internalField   nonuniform List<scalar> 
1340
(
0.00956367
0.00962026
0.00968375
0.00976468
0.00987418
0.0103792
0.010444
0.0105144
0.0106013
0.0107185
0.0108587
0.0112264
0.0112998
0.0113779
0.0114712
0.0115963
0.0117424
0.0119099
0.0121089
0.0121909
0.0122771
0.0123772
0.0125101
0.0126625
0.0128331
0.0130256
0.0130284
0.0131198
0.0132141
0.0133219
0.0134625
0.0136212
0.0137962
0.0139928
0.0142138
0.0139876
0.014089
0.0141917
0.0143075
0.0144565
0.0146218
0.0148021
0.0150034
0.0152261
0.0154653
0.0149893
0.0151007
0.0152128
0.015337
0.0154946
0.0156667
0.0158536
0.0160603
0.0162854
0.0165241
0.0160361
0.0161577
0.0162795
0.016413
0.0165797
0.0167591
0.0169534
0.0171663
0.0173945
0.0176334
0.0178852
0.0171307
0.017263
0.017395
0.0175385
0.0177149
0.017902
0.0181047
0.0183246
0.0185567
0.0187969
0.0190474
0.0182761
0.0184197
0.0185625
0.0187165
0.018903
0.0190989
0.0193106
0.0195384
0.0197752
0.0200179
0.0202681
0.0205282
0.0194755
0.0196309
0.0197852
0.0199503
0.0201472
0.0203534
0.0205748
0.0208111
0.0210539
0.0213
0.0215512
0.0218097
0.0207323
0.0209
0.0210663
0.021243
0.021451
0.0216684
0.0219007
0.0221462
0.0223959
0.0226466
0.0228999
0.0231586
0.0220498
0.02223
0.0224095
0.0225985
0.0228182
0.0230479
0.0232917
0.0235475
0.0238051
0.0240617
0.0243189
0.0245787
0.0248434
0.0234316
0.0236249
0.0238182
0.0240202
0.0242526
0.0244955
0.0247517
0.025019
0.0252857
0.0255493
0.0258116
0.0260746
0.0263402
0.0248814
0.0250889
0.0252959
0.0255121
0.0257579
0.0260149
0.0262847
0.0265645
0.0268418
0.027114
0.0273829
0.0276501
0.027918
0.0281921
0.0264034
0.0266256
0.0268472
0.0270784
0.0273384
0.0276104
0.0278952
0.0281884
0.0284774
0.0287596
0.0290365
0.0293098
0.0295822
0.0298591
0.0280018
0.0282392
0.0284762
0.0287234
0.0289984
0.0292865
0.0295873
0.029895
0.0301973
0.0304909
0.0307775
0.0310584
0.0313368
0.031618
0.0296812
0.0299341
0.0301873
0.0304515
0.0307424
0.0310475
0.0313658
0.0316894
0.0320059
0.0323123
0.0326103
0.032901
0.0331871
0.0334744
0.0337704
0.0314458
0.0317154
0.0319852
0.0322672
0.0325751
0.0328983
0.0332348
0.0335758
0.0339081
0.034229
0.0345401
0.0348421
0.035138
0.0354337
0.035736
0.033301
0.0335881
0.0338751
0.0341755
0.034502
0.0348441
0.0351998
0.0355595
0.035909
0.036246
0.0365717
0.0368867
0.0371943
0.0375001
0.0378113
0.0352521
0.0355573
0.0358622
0.0361818
0.036528
0.0368899
0.0372659
0.0376456
0.0380139
0.0383684
0.0387106
0.0390407
0.0393614
0.0396789
0.0400009
0.040334
0.0373042
0.0376285
0.0379522
0.0382916
0.0386584
0.0390413
0.0394387
0.0398394
0.040228
0.0406017
0.040962
0.0413085
0.0416449
0.0419765
0.0423104
0.0426543
0.0398076
0.0401508
0.040511
0.0408993
0.0413041
0.041724
0.0421469
0.042557
0.0429512
0.0433313
0.0436964
0.0440496
0.0443969
0.0447453
0.0451023
0.0454777
0.042101
0.0424639
0.0428461
0.0432569
0.0436843
0.0441276
0.044574
0.0450066
0.0454228
0.045824
0.0462092
0.0465812
0.0469462
0.0473107
0.0476822
0.0480712
0.044515
0.0448987
0.0453033
0.0457375
0.0461882
0.0466558
0.0471264
0.047583
0.0480225
0.0484461
0.0488532
0.0492455
0.0496291
0.0500117
0.0503996
0.0508028
0.0470568
0.0474619
0.0478897
0.0483479
0.0488229
0.0493153
0.049811
0.0502925
0.0507561
0.0512035
0.0516335
0.0520476
0.0524523
0.0528537
0.0532591
0.0536786
0.0541246
0.0497339
0.0501612
0.0506127
0.0510955
0.0515952
0.0521129
0.0526346
0.0531412
0.05363
0.0541022
0.0545562
0.0549933
0.0554196
0.0558416
0.056266
0.056703
0.0571643
0.0525538
0.0530041
0.0534799
0.0539877
0.0545125
0.0550562
0.055604
0.0561366
0.0566508
0.0571484
0.0576271
0.0580882
0.0585376
0.0589805
0.0594242
0.0598795
0.0603574
0.0555252
0.0559993
0.0565
0.0570329
0.0575829
0.0581526
0.0587266
0.0592851
0.0598252
0.0603489
0.0608528
0.0613381
0.0618106
0.0622756
0.0627398
0.0632135
0.0637084
0.0642385
0.0586572
0.0591555
0.0596817
0.0602396
0.0608147
0.0614105
0.0620105
0.0625944
0.0631603
0.0637096
0.0642389
0.0647492
0.065245
0.0657322
0.0662165
0.0667086
0.0672204
0.0677657
0.0619593
0.0624823
0.0630342
0.063617
0.0642169
0.0648381
0.0654634
0.0660725
0.0666633
0.0672376
0.0677922
0.0683268
0.0688461
0.069355
0.0698597
0.07037
0.0708976
0.0714572
0.0654418
0.06599
0.0665674
0.067175
0.0677989
0.0684445
0.0690942
0.069727
0.0703418
0.0709406
0.0715194
0.0720777
0.0726196
0.0731498
0.0736734
0.0742008
0.074744
0.0753174
0.0759392
0.0691156
0.0696897
0.0702925
0.0709238
0.0715707
0.0722397
0.0729121
0.073567
0.0742036
0.0748255
0.0754274
0.0760082
0.0765719
0.0771218
0.0776638
0.0782074
0.0787643
0.0793482
0.0799789
0.0729927
0.0735931
0.074221
0.0748746
0.075543
0.0762336
0.0769265
0.0776011
0.078258
0.0789004
0.0795236
0.080125
0.080709
0.0812775
0.0818358
0.0823936
0.0829622
0.0835555
0.0841933
0.077086
0.0777126
0.0783651
0.0790392
0.0797276
0.0804375
0.0811479
0.0818391
0.0825128
0.0831736
0.0838161
0.0844366
0.0850381
0.0856229
0.086195
0.0867654
0.0873437
0.0879436
0.0885844
0.0892904
0.0814092
0.0820623
0.0827378
0.0834311
0.0841367
0.0848628
0.0855867
0.0862906
0.0869783
0.0876547
0.0883129
0.0889497
0.0895667
0.0901653
0.0907491
0.0913286
0.0919131
0.0925163
0.0931584
0.0938624
0.0859773
0.0866568
0.0873537
0.0880633
0.0887831
0.0895218
0.0902548
0.0909667
0.091664
0.092352
0.0930233
0.0936732
0.0943026
0.0949118
0.0955041
0.0960893
0.0966772
0.0972813
0.0979208
0.0986174
0.0908063
0.0915122
0.0922286
0.0929508
0.0936818
0.094428
0.0951641
0.0958787
0.0965807
0.0972763
0.0979568
0.0986159
0.0992539
0.0998703
0.100468
0.101056
0.101643
0.102244
0.102876
0.103562
0.104332
0.095914
0.0966459
0.0973791
0.0981098
0.0988473
0.0995954
0.100328
0.101039
0.10174
0.102438
0.103124
0.103788
0.10443
0.105049
0.105648
0.106234
0.106817
0.10741
0.108032
0.108704
0.109453
0.10132
0.102077
0.102824
0.103558
0.104296
0.105039
0.105759
0.106459
0.107154
0.107849
0.108534
0.109199
0.10984
0.110457
0.111052
0.111632
0.112207
0.112789
0.113395
0.114048
0.114774
0.107045
0.107825
0.108582
0.109313
0.110047
0.110776
0.111473
0.112154
0.112835
0.113522
0.1142
0.114858
0.115494
0.116103
0.116689
0.117258
0.11782
0.118386
0.118974
0.119604
0.120302
0.113112
0.113914
0.114676
0.115397
0.116118
0.116821
0.117486
0.118138
0.118798
0.119467
0.120132
0.120778
0.1214
0.121996
0.122567
0.123121
0.123665
0.124212
0.124778
0.125382
0.126049
0.126814
0.119547
0.120369
0.121129
0.121832
0.122531
0.123195
0.123812
0.124426
0.125055
0.1257
0.126343
0.126968
0.12757
0.128146
0.128698
0.129231
0.129755
0.130279
0.130819
0.131395
0.13203
0.132755
0.126378
0.127216
0.127967
0.128642
0.129308
0.129917
0.130471
0.131035
0.131623
0.132233
0.132843
0.133439
0.134014
0.134566
0.135093
0.135603
0.136103
0.136603
0.137118
0.137665
0.138267
0.138955
0.133636
0.134488
0.135218
0.135854
0.136473
0.137007
0.137481
0.137982
0.138517
0.139079
0.139647
0.140205
0.140747
0.14127
0.141771
0.142258
0.142735
0.143212
0.143702
0.144222
0.144795
0.145447
0.141356
0.142218
0.142915
0.143499
0.144054
0.144487
0.144862
0.145288
0.145752
0.146252
0.146767
0.147281
0.147787
0.148281
0.148759
0.149224
0.149682
0.150139
0.150609
0.151108
0.151655
0.152279
0.153014
0.149577
0.150442
0.151091
0.151609
0.152078
0.152381
0.152637
0.152971
0.153346
0.153766
0.15422
0.154687
0.15516
0.155631
0.156091
0.156543
0.156988
0.157433
0.157889
0.158373
0.158901
0.159503
0.16021
0.158342
0.159205
0.159787
0.16022
0.160577
0.160713
0.16083
0.161054
0.161312
0.161637
0.162026
0.162453
0.162902
0.16336
0.163815
0.164262
0.164703
0.165143
0.165592
0.166065
0.166581
0.167165
0.167849
0.167702
0.168553
0.169045
0.169375
0.169584
0.169512
0.169468
0.169558
0.169665
0.169883
0.170214
0.170614
0.171056
0.171517
0.171977
0.172429
0.172873
0.173312
0.173756
0.174222
0.174726
0.175293
0.175953
0.17771
0.178538
0.178914
0.179117
0.179133
0.178807
0.178585
0.178506
0.178418
0.178525
0.17882
0.179217
0.179668
0.180144
0.180617
0.181077
0.181522
0.181958
0.182395
0.182848
0.183334
0.183878
0.184509
0.188431
0.189222
0.189448
0.189497
0.189263
0.18863
0.188216
0.18792
0.187585
0.187594
0.187889
0.188305
0.188776
0.189267
0.189748
0.190206
0.190643
0.191065
0.191485
0.191916
0.192377
0.192891
0.193485
0.19417
0.199939
0.200673
0.200711
0.200571
0.200012
0.199021
0.198396
0.197815
0.197176
0.197132
0.197472
0.197914
0.198392
0.19888
0.199349
0.199789
0.200203
0.200601
0.200996
0.201401
0.201833
0.202317
0.202878
0.203528
0.212315
0.21297
0.212776
0.212408
0.211429
0.210028
0.209172
0.208193
0.207192
0.207178
0.207609
0.208054
0.208499
0.208955
0.209393
0.209802
0.21019
0.210565
0.210941
0.21133
0.211749
0.212221
0.212772
0.213413
0.225652
0.226197
0.22572
0.225078
0.223567
0.22172
0.220606
0.219082
0.217638
0.21776
0.218306
0.218695
0.219059
0.21947
0.219884
0.22028
0.220665
0.221046
0.221434
0.221841
0.222281
0.222778
0.223361
0.22404
0.240048
0.240438
0.239621
0.238643
0.236459
0.234151
0.232759
0.230561
0.228588
0.228903
0.229522
0.229781
0.230052
0.230455
0.2309
0.231343
0.231783
0.232226
0.232679
0.233151
0.233659
0.234227
0.234889
0.235654
0.255627
0.255803
0.254569
0.253155
0.250117
0.247326
0.245622
0.242636
0.240093
0.24067
0.241271
0.241337
0.241577
0.242075
0.242639
0.2432
0.243759
0.244318
0.244884
0.245466
0.24608
0.246756
0.247535
0.24842
0.272511
0.272428
0.270704
0.26872
0.264626
0.261315
0.259195
0.254982
0.251744
0.253098
0.25377
0.253562
0.253854
0.254578
0.255343
0.256067
0.256777
0.257481
0.25818
0.258886
0.259623
0.260425
0.261334
0.262358
0.263457
0.290542
0.29018
0.287989
0.285369
0.280134
0.276433
0.273912
0.267753
0.262921
0.26596
0.267192
0.266525
0.266808
0.267816
0.268816
0.269704
0.270564
0.271419
0.272257
0.273092
0.273959
0.274896
0.275946
0.277127
0.278392
0.308002
0.307438
0.305039
0.302064
0.296078
0.292753
0.290515
0.281853
0.27481
0.279632
0.28139
0.279936
0.279873
0.280943
0.282052
0.283005
0.283935
0.284878
0.285813
0.28675
0.287719
0.28877
0.289953
0.291286
0.292714
0.324318
0.323667
0.321348
0.318369
0.312267
0.310203
0.308423
0.298989
0.289548
0.294709
0.296201
0.293892
0.293136
0.293905
0.294929
0.295835
0.296729
0.297655
0.298603
0.29957
0.300578
0.301678
0.302935
0.304366
0.305908
0.341772
0.341034
0.338846
0.335765
0.32968
0.329062
0.327074
0.31835
0.306997
0.311086
0.311848
0.308943
0.307443
0.307726
0.308558
0.309383
0.310213
0.311095
0.312017
0.312973
0.313981
0.315093
0.316378
0.317869
0.319489
0.361866
0.361031
0.359036
0.355648
0.349783
0.350469
0.347653
0.3401
0.326195
0.328429
0.32832
0.325123
0.323042
0.322834
0.323422
0.324118
0.324842
0.32566
0.326561
0.327513
0.328528
0.32966
0.330976
0.332536
0.334269
0.384678
0.383774
0.38204
0.378148
0.372879
0.374437
0.370496
0.364533
0.347161
0.346928
0.345634
0.342171
0.339594
0.338963
0.339362
0.339919
0.340454
0.341088
0.341878
0.342792
0.343821
0.344993
0.346388
0.34807
0.349983
0.410711
0.409866
0.408528
0.404007
0.399873
0.401275
0.396373
0.391926
0.369581
0.366336
0.36369
0.359888
0.356686
0.355529
0.355837
0.356574
0.357255
0.357876
0.358552
0.359364
0.360366
0.361609
0.363202
0.365184
0.367501
0.440295
0.439821
0.439195
0.434284
0.432118
0.431546
0.426697
0.422462
0.392964
0.386114
0.381968
0.378108
0.374618
0.372788
0.372477
0.37312
0.37427
0.375644
0.377043
0.378396
0.379781
0.381382
0.383476
0.386311
0.38991
0.473746
0.474116
0.47474
0.470448
0.471714
0.467025
0.465299
0.456972
0.416779
0.405897
0.399255
0.395417
0.393393
0.3931
0.393267
0.393277
0.393488
0.394531
0.396556
0.399287
0.402449
0.405985
0.410095
0.415065
0.421031
0.428007
0.511672
0.513482
0.516119
0.514437
0.521067
0.510845
0.519578
0.495228
0.439997
0.427274
0.416788
0.411456
0.410835
0.414452
0.420141
0.425136
0.427909
0.428913
0.42965
0.431357
0.434668
0.439817
0.446989
0.456112
0.466861
0.478771
0.554531
0.559296
0.566301
0.570773
0.58375
0.566228
0.594356
0.523868
0.45856
0.44925
0.436543
0.432254
0.430977
0.431743
0.438096
0.450746
0.465777
0.477593
0.482583
0.480888
0.475231
0.468791
0.465039
0.466957
0.474453
0.48454
0.598306
0.6102
0.629911
0.651523
0.674159
0.64278
0.673757
0.521006
0.467608
0.450706
0.421232
0.414511
0.422432
0.436525
0.446575
0.444617
0.434994
0.426589
0.422786
0.422493
0.423736
0.424482
0.421607
0.41177
0.396279
0.379866
0.630568
0.653635
0.699727
0.771969
0.844055
0.790148
0.743392
0.517584
0.495214
0.458234
0.405573
0.372322
0.345854
0.323806
0.306965
0.294873
0.28655
0.280282
0.27458
0.268728
0.262609
0.256415
0.250469
0.245413
0.241767
0.239048
0.647277
0.677255
0.746191
0.897978
1.23042
1.12475
0.786529
0.595542
0.494861
0.33447
0.270708
0.236519
0.217014
0.205593
0.198932
0.194842
0.191889
0.189231
0.186611
0.184066
0.181711
0.179549
0.177475
0.175204
0.172978
0.171163
)
;

boundaryField
{
    inlet
    {
        type            calculated;
        value           nonuniform List<scalar> 
26
(
0.703322
0.735024
0.809647
0.982637
1.44515
1.21021
0.786861
0.758698
0.358423
0.250478
0.199256
0.170472
0.15284
0.141372
0.133714
0.128416
0.124602
0.121719
0.119397
0.117396
0.11556
0.113753
0.111844
0.109763
0.107678
0.105798
)
;
    }
    outlet
    {
        type            calculated;
        value           nonuniform List<scalar> 0();
    }
    walls
    {
        type            calculated;
        value           nonuniform List<scalar> 0();
    }
    frontAndBack
    {
        type            empty;
    }
    procBoundary0to1
    {
        type            processor;
        value           nonuniform List<scalar> 
94
(
0.00906132
0.0100086
0.0100086
0.011024
0.011024
0.0120995
0.0120995
0.0132455
0.0132455
0.0144546
0.0144546
0.0157233
0.0167783
0.0167783
0.0181526
0.0193105
0.0193105
0.0208002
0.0220776
0.0234243
0.0234243
0.0251181
0.0266138
0.0266138
0.0284802
0.0301476
0.0319095
0.0319095
0.0340826
0.036053
0.0381351
0.0381351
0.0406883
0.0430183
0.0430183
0.045883
0.048488
0.0512336
0.0512336
0.0546093
0.0576636
0.0608724
0.0608724
0.0648228
0.0683637
0.0720681
0.0720681
0.0766335
0.0806805
0.0848993
0.0848993
0.0900928
0.0946579
0.0994017
0.0994017
0.105224
0.110319
0.11561
0.121103
0.121103
0.127718
0.133613
0.139767
0.146217
0.146217
0.15388
0.16104
0.168648
0.17672
0.185237
0.185237
0.194932
0.204251
0.21413
0.224796
0.236494
0.249376
0.249376
0.264579
0.279669
0.294155
0.307465
0.321143
0.33608
0.352051
0.370049
0.394061
0.394061
0.436023
0.491453
0.494418
0.36517
0.236708
0.169765
)
;
    }
    procBoundary0to4
    {
        type            processor;
        value           nonuniform List<scalar> 
72
(
0.00952016
0.0103272
0.0111651
0.0120381
0.0129479
0.0138974
0.0148886
0.0159244
0.0170077
0.0181416
0.0193289
0.0205728
0.0218771
0.0232448
0.0246801
0.0261868
0.0277691
0.0294314
0.0311786
0.0330151
0.0349463
0.036978
0.0394634
0.0394634
0.0417358
0.0441282
0.0466475
0.0493009
0.0520967
0.0550434
0.0581499
0.0614257
0.0648812
0.0685278
0.0723772
0.0764423
0.080737
0.0852767
0.0900774
0.095157
0.100535
0.106233
0.112273
0.118683
0.125489
0.132724
0.140423
0.148626
0.157376
0.166724
0.176725
0.187444
0.198955
0.211342
0.224701
0.239134
0.254764
0.27171
0.289794
0.307255
0.323549
0.340998
0.361088
0.383892
0.409879
0.439326
0.472472
0.509809
0.551452
0.592897
0.62234
0.637519
)
;
    }
    procBoundary0to5
    {
        type            processor;
        value           nonuniform List<scalar> 4(0.00878105 0.00882884 0.00888514 0.00895955);
    }
}


// ************************************************************************* //
