/*--------------------------------*- C++ -*----------------------------------*\
| =========                 |                                                 |
| \\      /  F ield         | OpenFOAM: The Open Source CFD Toolbox           |
|  \\    /   O peration     | Version:  2506                                  |
|   \\  /    A nd           | Website:  www.openfoam.com                      |
|    \\/     M anipulation  |                                                 |
\*---------------------------------------------------------------------------*/
FoamFile
{
    version     2.0;
    format      ascii;
    arch        "LSB;label=32;scalar=64";
    class       volScalarField;
    location    "400";
    object      turbulenceProperties:nut;
}
// * * * * * * * * * * * * * * * * * * * * * * * * * * * * * * * * * * * * * //

dimensions      [0 2 -1 0 0 0 0];

internalField   nonuniform List<scalar> 
1340
(
6.10473e-06
6.10424e-06
6.10296e-06
6.10231e-06
6.10154e-06
6.10461e-06
6.10425e-06
6.103e-06
6.10214e-06
6.1012e-06
6.10245e-06
6.10444e-06
6.10424e-06
6.10306e-06
6.10205e-06
6.10096e-06
6.10207e-06
6.10244e-06
6.10419e-06
6.10416e-06
6.10311e-06
6.10202e-06
6.1008e-06
6.10176e-06
6.10212e-06
6.10176e-06
6.1039e-06
6.10403e-06
6.10312e-06
6.102e-06
6.1007e-06
6.1015e-06
6.10183e-06
6.1015e-06
6.10089e-06
6.10356e-06
6.10383e-06
6.10309e-06
6.10198e-06
6.10063e-06
6.10129e-06
6.10157e-06
6.10126e-06
6.10071e-06
6.10032e-06
6.10324e-06
6.10361e-06
6.10301e-06
6.10195e-06
6.10058e-06
6.1011e-06
6.10134e-06
6.10105e-06
6.10053e-06
6.10015e-06
6.10293e-06
6.10336e-06
6.10291e-06
6.1019e-06
6.10055e-06
6.10093e-06
6.10112e-06
6.10084e-06
6.10036e-06
6.09998e-06
6.09969e-06
6.10263e-06
6.10309e-06
6.10277e-06
6.10183e-06
6.10051e-06
6.10078e-06
6.10091e-06
6.10065e-06
6.10019e-06
6.09981e-06
6.09952e-06
6.10235e-06
6.10282e-06
6.10261e-06
6.10174e-06
6.10046e-06
6.10063e-06
6.10072e-06
6.10046e-06
6.10002e-06
6.09964e-06
6.09936e-06
6.09918e-06
6.10208e-06
6.10255e-06
6.10244e-06
6.10164e-06
6.10041e-06
6.10049e-06
6.10054e-06
6.10027e-06
6.09985e-06
6.09948e-06
6.09921e-06
6.09902e-06
6.10183e-06
6.10228e-06
6.10225e-06
6.10152e-06
6.10035e-06
6.10035e-06
6.10036e-06
6.10009e-06
6.09968e-06
6.09933e-06
6.09906e-06
6.09886e-06
6.1016e-06
6.10203e-06
6.10205e-06
6.1014e-06
6.10028e-06
6.10021e-06
6.10018e-06
6.09991e-06
6.09951e-06
6.09917e-06
6.09891e-06
6.0987e-06
6.09854e-06
6.10139e-06
6.10178e-06
6.10185e-06
6.10126e-06
6.10019e-06
6.10007e-06
6.1e-06
6.09972e-06
6.09933e-06
6.099e-06
6.09875e-06
6.09854e-06
6.09839e-06
6.10119e-06
6.10155e-06
6.10165e-06
6.10111e-06
6.1001e-06
6.09993e-06
6.09982e-06
6.09953e-06
6.09915e-06
6.09883e-06
6.09859e-06
6.09839e-06
6.09824e-06
6.09815e-06
6.10101e-06
6.10133e-06
6.10144e-06
6.10095e-06
6.09999e-06
6.09978e-06
6.09964e-06
6.09934e-06
6.09897e-06
6.09865e-06
6.09842e-06
6.09822e-06
6.09809e-06
6.098e-06
6.10085e-06
6.10112e-06
6.10124e-06
6.10078e-06
6.09988e-06
6.09962e-06
6.09945e-06
6.09915e-06
6.09877e-06
6.09846e-06
6.09824e-06
6.09805e-06
6.09793e-06
6.09784e-06
6.10069e-06
6.10092e-06
6.10104e-06
6.10061e-06
6.09975e-06
6.09946e-06
6.09926e-06
6.09894e-06
6.09857e-06
6.09827e-06
6.09805e-06
6.09787e-06
6.09775e-06
6.09768e-06
6.09764e-06
6.10054e-06
6.10073e-06
6.10084e-06
6.10044e-06
6.09962e-06
6.09929e-06
6.09906e-06
6.09874e-06
6.09837e-06
6.09807e-06
6.09786e-06
6.09769e-06
6.09757e-06
6.0975e-06
6.09746e-06
6.10039e-06
6.10054e-06
6.10064e-06
6.10026e-06
6.09947e-06
6.09911e-06
6.09886e-06
6.09852e-06
6.09815e-06
6.09786e-06
6.09765e-06
6.09749e-06
6.09738e-06
6.09731e-06
6.09728e-06
6.10025e-06
6.10036e-06
6.10044e-06
6.10007e-06
6.09931e-06
6.09893e-06
6.09865e-06
6.0983e-06
6.09793e-06
6.09764e-06
6.09744e-06
6.09728e-06
6.09718e-06
6.09712e-06
6.09709e-06
6.09708e-06
6.1001e-06
6.10018e-06
6.10025e-06
6.09989e-06
6.09914e-06
6.09874e-06
6.09843e-06
6.09807e-06
6.0977e-06
6.09742e-06
6.09722e-06
6.09707e-06
6.09697e-06
6.09691e-06
6.09688e-06
6.09687e-06
6.1e-06
6.10005e-06
6.09969e-06
6.09896e-06
6.09853e-06
6.0982e-06
6.09783e-06
6.09746e-06
6.09718e-06
6.09698e-06
6.09684e-06
6.09674e-06
6.09669e-06
6.09666e-06
6.09665e-06
6.09666e-06
6.09982e-06
6.09985e-06
6.09949e-06
6.09878e-06
6.09832e-06
6.09796e-06
6.09758e-06
6.09721e-06
6.09694e-06
6.09674e-06
6.0966e-06
6.0965e-06
6.09645e-06
6.09642e-06
6.09641e-06
6.09642e-06
6.09965e-06
6.09965e-06
6.09929e-06
6.09858e-06
6.09809e-06
6.09771e-06
6.09732e-06
6.09695e-06
6.09668e-06
6.09649e-06
6.09634e-06
6.09625e-06
6.09619e-06
6.09616e-06
6.09615e-06
6.09616e-06
6.09946e-06
6.09944e-06
6.09908e-06
6.09837e-06
6.09786e-06
6.09745e-06
6.09705e-06
6.09668e-06
6.09641e-06
6.09622e-06
6.09607e-06
6.09597e-06
6.09592e-06
6.09588e-06
6.09587e-06
6.09587e-06
6.09589e-06
6.09928e-06
6.09924e-06
6.09886e-06
6.09814e-06
6.09761e-06
6.09719e-06
6.09677e-06
6.0964e-06
6.09613e-06
6.09593e-06
6.09578e-06
6.09568e-06
6.09561e-06
6.09558e-06
6.09556e-06
6.09556e-06
6.09556e-06
6.09909e-06
6.09902e-06
6.09863e-06
6.09791e-06
6.09736e-06
6.09691e-06
6.09648e-06
6.09611e-06
6.09583e-06
6.09563e-06
6.09547e-06
6.09536e-06
6.09529e-06
6.09524e-06
6.09521e-06
6.0952e-06
6.09521e-06
6.09889e-06
6.0988e-06
6.0984e-06
6.09766e-06
6.09709e-06
6.09662e-06
6.09618e-06
6.0958e-06
6.09552e-06
6.0953e-06
6.09513e-06
6.09501e-06
6.09493e-06
6.09487e-06
6.09483e-06
6.09481e-06
6.09481e-06
6.09481e-06
6.09869e-06
6.09857e-06
6.09815e-06
6.09741e-06
6.0968e-06
6.09631e-06
6.09587e-06
6.09548e-06
6.09518e-06
6.09495e-06
6.09477e-06
6.09463e-06
6.09453e-06
6.09446e-06
6.09441e-06
6.09438e-06
6.09436e-06
6.09435e-06
6.09848e-06
6.09834e-06
6.0979e-06
6.09713e-06
6.09651e-06
6.096e-06
6.09554e-06
6.09514e-06
6.09483e-06
6.09457e-06
6.09437e-06
6.09421e-06
6.09409e-06
6.094e-06
6.09393e-06
6.09389e-06
6.09386e-06
6.09384e-06
6.09826e-06
6.09809e-06
6.09763e-06
6.09685e-06
6.0962e-06
6.09567e-06
6.0952e-06
6.09478e-06
6.09444e-06
6.09416e-06
6.09393e-06
6.09374e-06
6.0936e-06
6.09349e-06
6.09341e-06
6.09335e-06
6.0933e-06
6.09327e-06
6.09325e-06
6.09803e-06
6.09784e-06
6.09736e-06
6.09655e-06
6.09587e-06
6.09533e-06
6.09484e-06
6.0944e-06
6.09403e-06
6.09372e-06
6.09345e-06
6.09323e-06
6.09306e-06
6.09292e-06
6.09282e-06
6.09274e-06
6.09268e-06
6.09264e-06
6.0926e-06
6.09779e-06
6.09757e-06
6.09706e-06
6.09623e-06
6.09554e-06
6.09497e-06
6.09446e-06
6.094e-06
6.09359e-06
6.09323e-06
6.09292e-06
6.09266e-06
6.09246e-06
6.0923e-06
6.09218e-06
6.09208e-06
6.092e-06
6.09195e-06
6.0919e-06
6.09754e-06
6.09729e-06
6.09676e-06
6.0959e-06
6.09518e-06
6.0946e-06
6.09407e-06
6.09356e-06
6.0931e-06
6.09269e-06
6.09233e-06
6.09204e-06
6.0918e-06
6.09161e-06
6.09147e-06
6.09135e-06
6.09126e-06
6.09119e-06
6.09113e-06
6.09108e-06
6.09727e-06
6.097e-06
6.09644e-06
6.09556e-06
6.09482e-06
6.09421e-06
6.09364e-06
6.09309e-06
6.09258e-06
6.09211e-06
6.09169e-06
6.09135e-06
6.09108e-06
6.09087e-06
6.0907e-06
6.09057e-06
6.09046e-06
6.09038e-06
6.09031e-06
6.09025e-06
6.097e-06
6.0967e-06
6.09611e-06
6.09519e-06
6.09443e-06
6.0938e-06
6.0932e-06
6.09259e-06
6.09201e-06
6.09147e-06
6.091e-06
6.09061e-06
6.09031e-06
6.09006e-06
6.08988e-06
6.08973e-06
6.08961e-06
6.08952e-06
6.08944e-06
6.08938e-06
6.0967e-06
6.09638e-06
6.09575e-06
6.09481e-06
6.09403e-06
6.09338e-06
6.09272e-06
6.09204e-06
6.09138e-06
6.09077e-06
6.09024e-06
6.08981e-06
6.08947e-06
6.08921e-06
6.089e-06
6.08885e-06
6.08872e-06
6.08862e-06
6.08854e-06
6.08847e-06
6.08841e-06
6.0964e-06
6.09604e-06
6.09538e-06
6.09441e-06
6.09361e-06
6.09293e-06
6.09221e-06
6.09145e-06
6.09071e-06
6.09002e-06
6.08943e-06
6.08896e-06
6.08859e-06
6.08831e-06
6.0881e-06
6.08793e-06
6.0878e-06
6.0877e-06
6.08762e-06
6.08755e-06
6.08749e-06
6.09607e-06
6.09569e-06
6.095e-06
6.094e-06
6.09317e-06
6.09245e-06
6.09167e-06
6.09081e-06
6.08998e-06
6.08922e-06
6.08857e-06
6.08807e-06
6.08768e-06
6.08739e-06
6.08717e-06
6.087e-06
6.08687e-06
6.08677e-06
6.08668e-06
6.08662e-06
6.08656e-06
6.09573e-06
6.09532e-06
6.09459e-06
6.09356e-06
6.09272e-06
6.09195e-06
6.09108e-06
6.09012e-06
6.08919e-06
6.08836e-06
6.08767e-06
6.08714e-06
6.08674e-06
6.08644e-06
6.08622e-06
6.08606e-06
6.08593e-06
6.08583e-06
6.08575e-06
6.08569e-06
6.08564e-06
6.09537e-06
6.09493e-06
6.09416e-06
6.0931e-06
6.09224e-06
6.09142e-06
6.09045e-06
6.08938e-06
6.08836e-06
6.08746e-06
6.08674e-06
6.08619e-06
6.08579e-06
6.08549e-06
6.08528e-06
6.08512e-06
6.08499e-06
6.0849e-06
6.08482e-06
6.08476e-06
6.08471e-06
6.08467e-06
6.09498e-06
6.09452e-06
6.09371e-06
6.09262e-06
6.09173e-06
6.09085e-06
6.08977e-06
6.08859e-06
6.08748e-06
6.08653e-06
6.08579e-06
6.08523e-06
6.08483e-06
6.08454e-06
6.08433e-06
6.08417e-06
6.08405e-06
6.08395e-06
6.08387e-06
6.08381e-06
6.08375e-06
6.08371e-06
6.09458e-06
6.09408e-06
6.09324e-06
6.09212e-06
6.09121e-06
6.09025e-06
6.08905e-06
6.08775e-06
6.08656e-06
6.08558e-06
6.08482e-06
6.08427e-06
6.08387e-06
6.08358e-06
6.08336e-06
6.08319e-06
6.08306e-06
6.08296e-06
6.08287e-06
6.08279e-06
6.08273e-06
6.08266e-06
6.09415e-06
6.09362e-06
6.09275e-06
6.0916e-06
6.09066e-06
6.08961e-06
6.08827e-06
6.08686e-06
6.08561e-06
6.08461e-06
6.08385e-06
6.08329e-06
6.08289e-06
6.08258e-06
6.08235e-06
6.08216e-06
6.08201e-06
6.08188e-06
6.08177e-06
6.08167e-06
6.08157e-06
6.08148e-06
6.09369e-06
6.09314e-06
6.09223e-06
6.09105e-06
6.09008e-06
6.08893e-06
6.08745e-06
6.08593e-06
6.08464e-06
6.08363e-06
6.08286e-06
6.08229e-06
6.08186e-06
6.08152e-06
6.08125e-06
6.08102e-06
6.08083e-06
6.08066e-06
6.08052e-06
6.08038e-06
6.08024e-06
6.08011e-06
6.07998e-06
6.09321e-06
6.09263e-06
6.09168e-06
6.09048e-06
6.08946e-06
6.0882e-06
6.08658e-06
6.08498e-06
6.08366e-06
6.08264e-06
6.08185e-06
6.08124e-06
6.08076e-06
6.08035e-06
6.08002e-06
6.07973e-06
6.07949e-06
6.07927e-06
6.07907e-06
6.07889e-06
6.07871e-06
6.07854e-06
6.07836e-06
6.0927e-06
6.0921e-06
6.09111e-06
6.08988e-06
6.08882e-06
6.08742e-06
6.08567e-06
6.084e-06
6.08267e-06
6.08163e-06
6.08079e-06
6.08011e-06
6.07953e-06
6.07904e-06
6.07862e-06
6.07827e-06
6.07796e-06
6.07769e-06
6.07745e-06
6.07723e-06
6.07701e-06
6.0768e-06
6.07659e-06
6.09216e-06
6.09153e-06
6.09051e-06
6.08925e-06
6.08814e-06
6.0866e-06
6.08472e-06
6.08301e-06
6.08166e-06
6.08057e-06
6.07965e-06
6.07885e-06
6.07816e-06
6.07757e-06
6.07708e-06
6.07666e-06
6.0763e-06
6.076e-06
6.07573e-06
6.07548e-06
6.07525e-06
6.07502e-06
6.07479e-06
6.09159e-06
6.09094e-06
6.08988e-06
6.08859e-06
6.08743e-06
6.08573e-06
6.08375e-06
6.08201e-06
6.08063e-06
6.07945e-06
6.07839e-06
6.07746e-06
6.07666e-06
6.07599e-06
6.07544e-06
6.07499e-06
6.07462e-06
6.07431e-06
6.07405e-06
6.07381e-06
6.07359e-06
6.07339e-06
6.07319e-06
6.09098e-06
6.09031e-06
6.08922e-06
6.08791e-06
6.08667e-06
6.08482e-06
6.08275e-06
6.081e-06
6.07956e-06
6.07824e-06
6.07703e-06
6.07598e-06
6.0751e-06
6.07441e-06
6.07387e-06
6.07344e-06
6.07311e-06
6.07285e-06
6.07264e-06
6.07245e-06
6.07229e-06
6.07215e-06
6.07203e-06
6.07191e-06
6.09034e-06
6.08964e-06
6.08853e-06
6.08719e-06
6.08588e-06
6.08387e-06
6.08174e-06
6.07997e-06
6.07842e-06
6.07694e-06
6.07559e-06
6.07448e-06
6.07362e-06
6.07299e-06
6.07254e-06
6.07223e-06
6.072e-06
6.07184e-06
6.07173e-06
6.07165e-06
6.0716e-06
6.07156e-06
6.07155e-06
6.07156e-06
6.08965e-06
6.08894e-06
6.0878e-06
6.08644e-06
6.08504e-06
6.08289e-06
6.08072e-06
6.0789e-06
6.0772e-06
6.07556e-06
6.07416e-06
6.07311e-06
6.0724e-06
6.07195e-06
6.07169e-06
6.07156e-06
6.07151e-06
6.07151e-06
6.07155e-06
6.07162e-06
6.07171e-06
6.07182e-06
6.07196e-06
6.07213e-06
6.08893e-06
6.0882e-06
6.08704e-06
6.08566e-06
6.08416e-06
6.08187e-06
6.0797e-06
6.07779e-06
6.07591e-06
6.0742e-06
6.07289e-06
6.07207e-06
6.07164e-06
6.07149e-06
6.07151e-06
6.07164e-06
6.07181e-06
6.072e-06
6.0722e-06
6.07242e-06
6.07264e-06
6.07289e-06
6.07317e-06
6.07348e-06
6.08816e-06
6.08742e-06
6.08625e-06
6.08484e-06
6.08324e-06
6.08084e-06
6.07866e-06
6.07662e-06
6.0746e-06
6.07296e-06
6.07194e-06
6.07151e-06
6.07151e-06
6.07174e-06
6.07208e-06
6.07245e-06
6.07283e-06
6.07319e-06
6.07355e-06
6.0739e-06
6.07426e-06
6.07464e-06
6.07505e-06
6.0755e-06
6.08735e-06
6.0866e-06
6.08541e-06
6.08398e-06
6.08229e-06
6.07979e-06
6.0776e-06
6.0754e-06
6.07336e-06
6.07201e-06
6.07148e-06
6.07158e-06
6.07204e-06
6.07264e-06
6.07327e-06
6.07389e-06
6.07447e-06
6.075e-06
6.07551e-06
6.076e-06
6.07649e-06
6.077e-06
6.07754e-06
6.07813e-06
6.08648e-06
6.08573e-06
6.08453e-06
6.08308e-06
6.0813e-06
6.07873e-06
6.07651e-06
6.07417e-06
6.07231e-06
6.07148e-06
6.07158e-06
6.07224e-06
6.07315e-06
6.07411e-06
6.07504e-06
6.07589e-06
6.07666e-06
6.07736e-06
6.07801e-06
6.07863e-06
6.07923e-06
6.07985e-06
6.08051e-06
6.08122e-06
6.08195e-06
6.08555e-06
6.0848e-06
6.08361e-06
6.08214e-06
6.08026e-06
6.07766e-06
6.07538e-06
6.07303e-06
6.07162e-06
6.07147e-06
6.07222e-06
6.07342e-06
6.07476e-06
6.07608e-06
6.07729e-06
6.07836e-06
6.0793e-06
6.08015e-06
6.08091e-06
6.08163e-06
6.08233e-06
6.08304e-06
6.08379e-06
6.08459e-06
6.0854e-06
6.08471e-06
6.08396e-06
6.08277e-06
6.08126e-06
6.07928e-06
6.07661e-06
6.07418e-06
6.07201e-06
6.07136e-06
6.07192e-06
6.07326e-06
6.07493e-06
6.07663e-06
6.07821e-06
6.07961e-06
6.08082e-06
6.08187e-06
6.08279e-06
6.08362e-06
6.0844e-06
6.08514e-06
6.08589e-06
6.08667e-06
6.08751e-06
6.08836e-06
6.08399e-06
6.08324e-06
6.08203e-06
6.08048e-06
6.07839e-06
6.07564e-06
6.07298e-06
6.07135e-06
6.07152e-06
6.07282e-06
6.07468e-06
6.0767e-06
6.07862e-06
6.08034e-06
6.08182e-06
6.08308e-06
6.08416e-06
6.08509e-06
6.08593e-06
6.0867e-06
6.08743e-06
6.08817e-06
6.08894e-06
6.08976e-06
6.09059e-06
6.0832e-06
6.08245e-06
6.08123e-06
6.07964e-06
6.07745e-06
6.07463e-06
6.07181e-06
6.07116e-06
6.07213e-06
6.07411e-06
6.07644e-06
6.07873e-06
6.08081e-06
6.08261e-06
6.08411e-06
6.08536e-06
6.08642e-06
6.08733e-06
6.08813e-06
6.08886e-06
6.08956e-06
6.09026e-06
6.09098e-06
6.09175e-06
6.09253e-06
6.08232e-06
6.08157e-06
6.08036e-06
6.07873e-06
6.07647e-06
6.07358e-06
6.07072e-06
6.07126e-06
6.07308e-06
6.07575e-06
6.07847e-06
6.08095e-06
6.08309e-06
6.08487e-06
6.08632e-06
6.08751e-06
6.0885e-06
6.08934e-06
6.09007e-06
6.09074e-06
6.09138e-06
6.09201e-06
6.09267e-06
6.09337e-06
6.09409e-06
6.08135e-06
6.08062e-06
6.07941e-06
6.07775e-06
6.07545e-06
6.07252e-06
6.06981e-06
6.0717e-06
6.07439e-06
6.07765e-06
6.08062e-06
6.08315e-06
6.08522e-06
6.08689e-06
6.08821e-06
6.08928e-06
6.09016e-06
6.09091e-06
6.09156e-06
6.09216e-06
6.09274e-06
6.09331e-06
6.09392e-06
6.09458e-06
6.09527e-06
6.08027e-06
6.07957e-06
6.07838e-06
6.07672e-06
6.07439e-06
6.07147e-06
6.06917e-06
6.07245e-06
6.07593e-06
6.0796e-06
6.08263e-06
6.08503e-06
6.08692e-06
6.08841e-06
6.08958e-06
6.09054e-06
6.09134e-06
6.09204e-06
6.09266e-06
6.09324e-06
6.09381e-06
6.0944e-06
6.09504e-06
6.09574e-06
6.0965e-06
6.07909e-06
6.07841e-06
6.07727e-06
6.07562e-06
6.07331e-06
6.07048e-06
6.06889e-06
6.07337e-06
6.07745e-06
6.08128e-06
6.08415e-06
6.08633e-06
6.08803e-06
6.08941e-06
6.09054e-06
6.09151e-06
6.09236e-06
6.09312e-06
6.09384e-06
6.09452e-06
6.09521e-06
6.09593e-06
6.09674e-06
6.09765e-06
6.09863e-06
6.07777e-06
6.07715e-06
6.07606e-06
6.07447e-06
6.07223e-06
6.06959e-06
6.06906e-06
6.07423e-06
6.07857e-06
6.0823e-06
6.08498e-06
6.08705e-06
6.08879e-06
6.09031e-06
6.09166e-06
6.09287e-06
6.09398e-06
6.09499e-06
6.09594e-06
6.09687e-06
6.0978e-06
6.09878e-06
6.09986e-06
6.10109e-06
6.10241e-06
6.10375e-06
6.07632e-06
6.07575e-06
6.07476e-06
6.07326e-06
6.07117e-06
6.06889e-06
6.06958e-06
6.07471e-06
6.07895e-06
6.08256e-06
6.08531e-06
6.08771e-06
6.08991e-06
6.09193e-06
6.09375e-06
6.09537e-06
6.09682e-06
6.09812e-06
6.09932e-06
6.10046e-06
6.10159e-06
6.10276e-06
6.10402e-06
6.10541e-06
6.10689e-06
6.10835e-06
6.07472e-06
6.07423e-06
6.07335e-06
6.07203e-06
6.07017e-06
6.06842e-06
6.06999e-06
6.07448e-06
6.0785e-06
6.08242e-06
6.08585e-06
6.089e-06
6.09182e-06
6.09426e-06
6.09631e-06
6.09803e-06
6.09949e-06
6.10075e-06
6.10185e-06
6.10287e-06
6.10384e-06
6.1048e-06
6.1058e-06
6.10687e-06
6.10795e-06
6.10899e-06
6.07294e-06
6.07255e-06
6.07185e-06
6.07077e-06
6.06925e-06
6.06821e-06
6.07012e-06
6.07342e-06
6.07753e-06
6.0824e-06
6.08657e-06
6.08988e-06
6.09237e-06
6.09421e-06
6.09556e-06
6.09657e-06
6.09737e-06
6.098e-06
6.09854e-06
6.09901e-06
6.09944e-06
6.09985e-06
6.1003e-06
6.10081e-06
6.1014e-06
6.10204e-06
6.07097e-06
6.07071e-06
6.07024e-06
6.0695e-06
6.06848e-06
6.06814e-06
6.0697e-06
6.07149e-06
6.07623e-06
6.08125e-06
6.0839e-06
6.0852e-06
6.08593e-06
6.0865e-06
6.08704e-06
6.08757e-06
6.0881e-06
6.08861e-06
6.0891e-06
6.08957e-06
6.09009e-06
6.09083e-06
6.09189e-06
6.09337e-06
6.09527e-06
6.09744e-06
6.06878e-06
6.06869e-06
6.06851e-06
6.06824e-06
6.06786e-06
6.06787e-06
6.06852e-06
6.06894e-06
6.07264e-06
6.07398e-06
6.07221e-06
6.07191e-06
6.07306e-06
6.07507e-06
6.07743e-06
6.07986e-06
6.08221e-06
6.0844e-06
6.08644e-06
6.08836e-06
6.0902e-06
6.09204e-06
6.09395e-06
6.09599e-06
6.09809e-06
6.10014e-06
)
;

boundaryField
{
    inlet
    {
        type            freestream;
        freestreamValue uniform 1e-05;
        value           uniform 1e-05;
    }
    outlet
    {
        type            freestream;
        freestreamValue nonuniform List<scalar> 0();
        value           nonuniform List<scalar> 0();
    }
    walls
    {
        type            nutUSpaldingWallFunction;
        value           nonuniform List<scalar> 0();
    }
    frontAndBack
    {
        type            empty;
    }
    procBoundary0to1
    {
        type            processor;
        value           nonuniform List<scalar> 
94
(
6.10205e-06
6.10294e-06
6.10294e-06
6.10283e-06
6.10283e-06
6.10204e-06
6.10204e-06
6.1011e-06
6.1011e-06
6.1005e-06
6.1005e-06
6.10004e-06
6.09987e-06
6.09987e-06
6.09952e-06
6.09935e-06
6.09935e-06
6.09902e-06
6.09886e-06
6.09869e-06
6.09869e-06
6.09843e-06
6.0983e-06
6.0983e-06
6.09811e-06
6.09796e-06
6.0978e-06
6.0978e-06
6.09762e-06
6.09745e-06
6.09727e-06
6.09727e-06
6.09709e-06
6.09689e-06
6.09689e-06
6.09669e-06
6.09645e-06
6.09618e-06
6.09618e-06
6.09591e-06
6.09559e-06
6.09522e-06
6.09522e-06
6.09482e-06
6.09435e-06
6.09383e-06
6.09383e-06
6.09324e-06
6.09258e-06
6.09186e-06
6.09186e-06
6.09104e-06
6.0902e-06
6.08932e-06
6.08932e-06
6.08837e-06
6.08744e-06
6.08652e-06
6.0856e-06
6.0856e-06
6.08464e-06
6.08367e-06
6.08261e-06
6.08139e-06
6.08139e-06
6.07985e-06
6.07818e-06
6.07637e-06
6.07457e-06
6.073e-06
6.073e-06
6.07182e-06
6.0716e-06
6.07232e-06
6.07381e-06
6.07598e-06
6.07874e-06
6.07874e-06
6.08265e-06
6.08618e-06
6.08917e-06
6.09139e-06
6.09328e-06
6.09479e-06
6.09595e-06
6.09727e-06
6.09964e-06
6.09964e-06
6.10508e-06
6.10977e-06
6.10996e-06
6.10273e-06
6.09982e-06
6.10209e-06
)
;
    }
    procBoundary0to4
    {
        type            processor;
        value           nonuniform List<scalar> 
72
(
6.10474e-06
6.10448e-06
6.10415e-06
6.10378e-06
6.1034e-06
6.10304e-06
6.10271e-06
6.10239e-06
6.1021e-06
6.10182e-06
6.10157e-06
6.10134e-06
6.10114e-06
6.10096e-06
6.10082e-06
6.10068e-06
6.10055e-06
6.10043e-06
6.10032e-06
6.10021e-06
6.1001e-06
6.09999e-06
6.09996e-06
6.09996e-06
6.09982e-06
6.09967e-06
6.09952e-06
6.09936e-06
6.0992e-06
6.09903e-06
6.09886e-06
6.09868e-06
6.09848e-06
6.09828e-06
6.09807e-06
6.09785e-06
6.09761e-06
6.09736e-06
6.09709e-06
6.09681e-06
6.09651e-06
6.09619e-06
6.09585e-06
6.09549e-06
6.09511e-06
6.0947e-06
6.09427e-06
6.0938e-06
6.09331e-06
6.09278e-06
6.09222e-06
6.09163e-06
6.09099e-06
6.09031e-06
6.08959e-06
6.08882e-06
6.088e-06
6.08712e-06
6.08618e-06
6.08533e-06
6.08458e-06
6.08377e-06
6.08287e-06
6.08187e-06
6.08076e-06
6.07953e-06
6.07817e-06
6.07666e-06
6.07498e-06
6.07313e-06
6.07109e-06
6.06882e-06
)
;
    }
    procBoundary0to5
    {
        type            processor;
        value           nonuniform List<scalar> 4(6.10482e-06 6.10424e-06 6.10299e-06 6.10264e-06);
    }
}


// ************************************************************************* //
