/*--------------------------------*- C++ -*----------------------------------*\
| =========                 |                                                 |
| \\      /  F ield         | OpenFOAM: The Open Source CFD Toolbox           |
|  \\    /   O peration     | Version:  2506                                  |
|   \\  /    A nd           | Website:  www.openfoam.com                      |
|    \\/     M anipulation  |                                                 |
\*---------------------------------------------------------------------------*/
FoamFile
{
    version     2.0;
    format      ascii;
    arch        "LSB;label=32;scalar=64";
    class       volScalarField;
    location    "400";
    object      turbulenceProperties:k;
}
// * * * * * * * * * * * * * * * * * * * * * * * * * * * * * * * * * * * * * //

dimensions      [0 2 -2 0 0 0 0];

internalField   nonuniform List<scalar> 
1340
(
0.000509985
0.000504002
0.000497411
0.000489197
0.000478406
0.00043299
0.000427632
0.000421926
0.000415033
0.000406001
0.000395593
0.000370105
0.00036531
0.000360311
0.000354474
0.000346864
0.000338285
0.00032884
0.000318123
0.000313856
0.000309465
0.000304476
0.000298042
0.000290913
0.00028323
0.000274917
0.000274802
0.000270988
0.000267134
0.000262826
0.000257362
0.0002514
0.000245065
0.000238226
0.000230876
0.000238405
0.000234988
0.000231598
0.000227861
0.000223188
0.000218172
0.000212887
0.000207214
0.000201195
0.000195019
0.000207607
0.000204555
0.000201551
0.000198299
0.000194282
0.000190038
0.000185586
0.000180838
0.000175872
0.000170829
0.000181386
0.000178668
0.000176003
0.00017315
0.000169684
0.000166071
0.000162288
0.000158285
0.000154159
0.00015001
0.000145816
0.000158946
0.00015652
0.000154153
0.000151641
0.000148634
0.000145544
0.000142304
0.000138908
0.000135454
0.000132014
0.000128564
0.000139648
0.000137479
0.000135372
0.000133152
0.000130537
0.000127873
0.000125085
0.000122185
0.000119275
0.000116401
0.000113545
0.000110686
0.000122976
0.000121037
0.000119157
0.000117192
0.000114912
0.000112596
0.000110186
0.000107698
0.000105227
0.000102809
0.000100427
9.806e-05
0.000108519
0.000106785
0.000105105
0.000103363
0.000101368
9.93435e-05
9.7248e-05
9.51032e-05
9.29945e-05
9.0947e-05
8.89454e-05
8.69694e-05
9.59379e-05
9.43887e-05
9.28825e-05
9.13352e-05
8.95844e-05
8.7808e-05
8.5979e-05
8.41212e-05
8.23098e-05
8.05638e-05
7.88683e-05
7.72099e-05
7.55731e-05
8.49559e-05
8.35713e-05
8.22208e-05
8.0843e-05
7.93008e-05
7.77362e-05
7.61347e-05
7.45165e-05
7.29528e-05
7.1455e-05
7.001e-05
6.8605e-05
6.72285e-05
7.53436e-05
7.41028e-05
7.28949e-05
7.16646e-05
7.03028e-05
6.89208e-05
6.75128e-05
6.60981e-05
6.47393e-05
6.34461e-05
6.22059e-05
6.10095e-05
5.98441e-05
5.86861e-05
6.69081e-05
6.57957e-05
6.47142e-05
6.36139e-05
6.24091e-05
6.11854e-05
5.99425e-05
5.87019e-05
5.75165e-05
5.63932e-05
5.53225e-05
5.42955e-05
5.33002e-05
5.23163e-05
5.94871e-05
5.84916e-05
5.75218e-05
5.65358e-05
5.54685e-05
5.43826e-05
5.32822e-05
5.21908e-05
5.11511e-05
5.01708e-05
4.92406e-05
4.83538e-05
4.74985e-05
4.66572e-05
5.29461e-05
5.20553e-05
5.11858e-05
5.03012e-05
4.93536e-05
4.83881e-05
4.74111e-05
4.64477e-05
4.55335e-05
4.46739e-05
4.3861e-05
4.30895e-05
4.23497e-05
4.16258e-05
4.08993e-05
4.71705e-05
4.6372e-05
4.55929e-05
4.47994e-05
4.39563e-05
4.30968e-05
4.22285e-05
4.1375e-05
4.05679e-05
3.98108e-05
3.90968e-05
3.84219e-05
3.77776e-05
3.71497e-05
3.65237e-05
4.20611e-05
4.13451e-05
4.06477e-05
3.9936e-05
3.91837e-05
3.8418e-05
3.76454e-05
3.68875e-05
3.61728e-05
3.55032e-05
3.48737e-05
3.42805e-05
3.37159e-05
3.31683e-05
3.26246e-05
3.75341e-05
3.68924e-05
3.62679e-05
3.563e-05
3.49575e-05
3.4275e-05
3.35867e-05
3.29126e-05
3.22778e-05
3.1684e-05
3.11263e-05
3.06021e-05
3.01056e-05
2.96257e-05
2.91506e-05
2.86711e-05
3.35182e-05
3.29428e-05
3.23833e-05
3.18117e-05
3.12107e-05
3.06015e-05
2.99878e-05
2.93875e-05
2.88224e-05
2.82943e-05
2.77987e-05
2.73344e-05
2.68945e-05
2.64712e-05
2.60551e-05
2.56366e-05
2.94349e-05
2.89339e-05
2.84215e-05
2.78842e-05
2.73403e-05
2.67928e-05
2.62577e-05
2.57541e-05
2.52834e-05
2.48418e-05
2.44284e-05
2.40382e-05
2.36636e-05
2.32965e-05
2.29292e-05
2.25521e-05
2.63154e-05
2.58674e-05
2.5408e-05
2.49276e-05
2.44422e-05
2.39535e-05
2.3476e-05
2.30269e-05
2.26068e-05
2.22126e-05
2.18438e-05
2.14963e-05
2.11633e-05
2.08385e-05
2.0515e-05
2.01843e-05
2.35386e-05
2.3138e-05
2.27265e-05
2.2297e-05
2.18639e-05
2.14278e-05
2.10019e-05
2.06008e-05
2.02254e-05
1.98732e-05
1.95433e-05
1.92332e-05
1.8937e-05
1.86484e-05
1.83624e-05
1.80721e-05
2.10643e-05
2.07063e-05
2.0338e-05
1.99542e-05
1.95678e-05
1.91789e-05
1.87991e-05
1.84408e-05
1.81054e-05
1.77904e-05
1.74953e-05
1.7218e-05
1.69533e-05
1.66968e-05
1.64436e-05
1.61875e-05
1.59219e-05
1.88576e-05
1.85378e-05
1.82085e-05
1.78659e-05
1.75215e-05
1.7175e-05
1.68362e-05
1.65166e-05
1.62169e-05
1.59351e-05
1.56709e-05
1.54228e-05
1.51865e-05
1.49578e-05
1.4733e-05
1.45068e-05
1.42736e-05
1.68882e-05
1.66025e-05
1.63084e-05
1.60029e-05
1.56962e-05
1.53877e-05
1.5086e-05
1.4801e-05
1.45336e-05
1.42815e-05
1.40452e-05
1.38232e-05
1.36117e-05
1.3408e-05
1.32085e-05
1.30084e-05
1.28033e-05
1.5129e-05
1.48739e-05
1.46115e-05
1.43396e-05
1.40669e-05
1.37926e-05
1.35243e-05
1.32707e-05
1.30321e-05
1.28069e-05
1.25957e-05
1.23971e-05
1.22083e-05
1.20267e-05
1.18494e-05
1.16724e-05
1.14918e-05
1.13029e-05
1.35565e-05
1.33291e-05
1.30951e-05
1.28536e-05
1.26116e-05
1.2368e-05
1.21298e-05
1.19045e-05
1.16921e-05
1.14914e-05
1.13028e-05
1.11253e-05
1.09569e-05
1.0795e-05
1.06377e-05
1.04813e-05
1.03223e-05
1.01569e-05
1.215e-05
1.19475e-05
1.17391e-05
1.1525e-05
1.13106e-05
1.10949e-05
1.08839e-05
1.06842e-05
1.04956e-05
1.03171e-05
1.01489e-05
9.99072e-06
9.84058e-06
9.69669e-06
9.55709e-06
9.41897e-06
9.2793e-06
9.13453e-06
1.08913e-05
1.07111e-05
1.0526e-05
1.03364e-05
1.0147e-05
9.9565e-06
9.77009e-06
9.59353e-06
9.42654e-06
9.26806e-06
9.11865e-06
8.97794e-06
8.84443e-06
8.71669e-06
8.59321e-06
8.47149e-06
8.34881e-06
8.22217e-06
8.08807e-06
9.76419e-06
9.60397e-06
9.43995e-06
9.27259e-06
9.1057e-06
8.93779e-06
8.77368e-06
8.61815e-06
8.47088e-06
8.33064e-06
8.19821e-06
8.0734e-06
7.95496e-06
7.8419e-06
7.73284e-06
7.62571e-06
7.51825e-06
7.408e-06
7.29163e-06
8.75446e-06
8.6122e-06
8.46708e-06
8.31986e-06
8.17324e-06
8.02579e-06
7.88186e-06
7.74539e-06
7.61588e-06
7.49235e-06
7.37538e-06
7.26505e-06
7.1603e-06
7.06047e-06
6.96446e-06
6.87048e-06
6.77662e-06
6.68073e-06
6.57989e-06
7.8494e-06
7.72333e-06
7.59522e-06
7.46617e-06
7.33778e-06
7.2088e-06
7.08312e-06
6.96395e-06
6.85068e-06
6.74224e-06
6.63926e-06
6.54203e-06
6.44979e-06
6.36199e-06
6.2778e-06
6.19554e-06
6.11376e-06
6.03064e-06
5.9437e-06
5.85008e-06
7.03785e-06
6.92627e-06
6.8136e-06
6.70081e-06
6.58886e-06
6.47656e-06
6.36744e-06
6.26397e-06
6.16529e-06
6.07049e-06
5.98033e-06
5.89499e-06
5.81405e-06
5.73709e-06
5.6635e-06
5.59186e-06
5.52096e-06
5.4492e-06
5.37434e-06
5.29402e-06
6.30985e-06
6.21127e-06
6.11253e-06
6.0144e-06
5.91724e-06
5.81997e-06
5.7258e-06
5.6365e-06
5.55106e-06
5.46864e-06
5.38998e-06
5.31545e-06
5.24472e-06
5.17759e-06
5.11357e-06
5.05147e-06
4.99021e-06
4.92842e-06
4.86427e-06
4.79579e-06
5.65657e-06
5.56963e-06
5.48343e-06
5.39852e-06
5.31458e-06
5.23089e-06
5.15026e-06
5.07375e-06
5.00025e-06
4.92897e-06
4.86071e-06
4.79594e-06
4.73448e-06
4.67621e-06
4.62073e-06
4.56713e-06
4.51449e-06
4.46159e-06
4.40693e-06
4.34874e-06
4.28481e-06
5.07015e-06
4.99364e-06
4.91871e-06
4.84568e-06
4.77363e-06
4.70216e-06
4.63375e-06
4.56875e-06
4.50596e-06
4.44472e-06
4.38582e-06
4.32986e-06
4.27676e-06
4.22646e-06
4.17869e-06
4.13273e-06
4.08775e-06
4.04268e-06
3.99627e-06
3.94704e-06
3.89317e-06
4.54355e-06
4.47642e-06
4.41158e-06
4.34925e-06
4.28785e-06
4.22738e-06
4.17e-06
4.11532e-06
4.06211e-06
4.00989e-06
3.95942e-06
3.91138e-06
3.86581e-06
3.82272e-06
3.78188e-06
3.74269e-06
3.70444e-06
3.6663e-06
3.62718e-06
3.58577e-06
3.54056e-06
4.07054e-06
4.01184e-06
3.95607e-06
3.90332e-06
3.85141e-06
3.80089e-06
3.75344e-06
3.70799e-06
3.66333e-06
3.61915e-06
3.57628e-06
3.53537e-06
3.49659e-06
3.45995e-06
3.42531e-06
3.39213e-06
3.35987e-06
3.32778e-06
3.29498e-06
3.26036e-06
3.22266e-06
3.64556e-06
3.5944e-06
3.5468e-06
3.50258e-06
3.45918e-06
3.41765e-06
3.37909e-06
3.34188e-06
3.30483e-06
3.26785e-06
3.23178e-06
3.19731e-06
3.16459e-06
3.13374e-06
3.10461e-06
3.07676e-06
3.04974e-06
3.02293e-06
2.99558e-06
2.96679e-06
2.93546e-06
2.90016e-06
3.26366e-06
3.21924e-06
3.17896e-06
3.14235e-06
3.10657e-06
3.07314e-06
3.04257e-06
3.01262e-06
2.98236e-06
2.95181e-06
2.92185e-06
2.89315e-06
2.86589e-06
2.84016e-06
2.81587e-06
2.79266e-06
2.77017e-06
2.74793e-06
2.72527e-06
2.70142e-06
2.67553e-06
2.64636e-06
2.92038e-06
2.88199e-06
2.84829e-06
2.81845e-06
2.78947e-06
2.76336e-06
2.73991e-06
2.71637e-06
2.69213e-06
2.66735e-06
2.64287e-06
2.61932e-06
2.59688e-06
2.57563e-06
2.55555e-06
2.53637e-06
2.51777e-06
2.49936e-06
2.48062e-06
2.46094e-06
2.43956e-06
2.41546e-06
2.61176e-06
2.57875e-06
2.55097e-06
2.52713e-06
2.50423e-06
2.48475e-06
2.46762e-06
2.4497e-06
2.43081e-06
2.4112e-06
2.39161e-06
2.3726e-06
2.35435e-06
2.33696e-06
2.32045e-06
2.30461e-06
2.28923e-06
2.274e-06
2.25852e-06
2.24224e-06
2.22455e-06
2.20463e-06
2.33427e-06
2.30605e-06
2.2836e-06
2.26503e-06
2.24759e-06
2.23413e-06
2.22256e-06
2.20953e-06
2.19544e-06
2.18047e-06
2.16518e-06
2.15009e-06
2.13537e-06
2.12118e-06
2.10757e-06
2.09444e-06
2.08165e-06
2.06898e-06
2.05608e-06
2.04254e-06
2.02782e-06
2.01123e-06
1.99195e-06
2.08473e-06
2.06079e-06
2.04312e-06
2.02918e-06
2.01666e-06
2.00864e-06
2.00189e-06
1.99314e-06
1.98339e-06
1.97255e-06
1.96096e-06
1.94911e-06
1.93724e-06
1.92555e-06
1.9142e-06
1.90316e-06
1.89239e-06
1.8817e-06
1.87083e-06
1.85943e-06
1.84707e-06
1.83317e-06
1.81702e-06
1.8603e-06
1.84018e-06
1.82679e-06
1.8169e-06
1.80883e-06
1.80575e-06
1.80312e-06
1.79809e-06
1.79232e-06
1.7851e-06
1.77655e-06
1.76722e-06
1.75748e-06
1.74763e-06
1.73793e-06
1.72847e-06
1.71922e-06
1.71008e-06
1.70082e-06
1.69113e-06
1.68067e-06
1.66895e-06
1.65537e-06
1.65844e-06
1.64173e-06
1.63217e-06
1.62581e-06
1.62179e-06
1.62315e-06
1.62396e-06
1.62224e-06
1.62018e-06
1.61601e-06
1.60972e-06
1.60217e-06
1.5939e-06
1.58534e-06
1.57686e-06
1.56859e-06
1.56055e-06
1.55266e-06
1.54472e-06
1.53647e-06
1.52762e-06
1.51776e-06
1.50639e-06
1.47689e-06
1.46321e-06
1.45707e-06
1.45376e-06
1.45348e-06
1.45878e-06
1.46238e-06
1.46366e-06
1.46509e-06
1.46334e-06
1.4585e-06
1.45204e-06
1.44474e-06
1.43712e-06
1.42959e-06
1.42234e-06
1.41537e-06
1.40859e-06
1.40184e-06
1.39491e-06
1.38752e-06
1.37932e-06
1.36991e-06
1.3136e-06
1.30264e-06
1.29952e-06
1.29885e-06
1.30205e-06
1.31078e-06
1.31655e-06
1.32068e-06
1.32539e-06
1.32525e-06
1.32108e-06
1.31525e-06
1.30869e-06
1.3019e-06
1.29531e-06
1.28907e-06
1.28317e-06
1.2775e-06
1.2719e-06
1.26619e-06
1.26013e-06
1.25342e-06
1.24574e-06
1.23697e-06
1.16674e-06
1.15821e-06
1.15777e-06
1.15937e-06
1.16585e-06
1.17749e-06
1.1849e-06
1.19186e-06
1.19958e-06
1.20011e-06
1.19597e-06
1.19063e-06
1.18489e-06
1.17907e-06
1.17353e-06
1.16837e-06
1.16354e-06
1.15892e-06
1.15438e-06
1.14974e-06
1.14481e-06
1.13935e-06
1.13305e-06
1.12583e-06
1.03468e-06
1.02832e-06
1.03019e-06
1.03375e-06
1.04334e-06
1.05729e-06
1.06595e-06
1.07598e-06
1.0864e-06
1.08653e-06
1.08202e-06
1.07739e-06
1.07279e-06
1.06811e-06
1.06364e-06
1.0595e-06
1.0556e-06
1.05183e-06
1.04809e-06
1.04423e-06
1.0401e-06
1.03549e-06
1.03013e-06
1.02395e-06
9.15983e-07
9.11568e-07
9.15415e-07
9.20639e-07
9.33122e-07
9.48714e-07
9.58312e-07
9.71682e-07
9.84608e-07
9.83492e-07
9.78567e-07
9.75088e-07
9.71847e-07
9.68212e-07
9.64567e-07
9.611e-07
9.57757e-07
9.54457e-07
9.51116e-07
9.47634e-07
9.43884e-07
9.39677e-07
9.34783e-07
9.29122e-07
8.09403e-07
8.06778e-07
8.12282e-07
8.1895e-07
8.34141e-07
8.50654e-07
8.60846e-07
8.77325e-07
8.92529e-07
8.90065e-07
8.85262e-07
8.83265e-07
8.81187e-07
8.78112e-07
8.74725e-07
8.71382e-07
8.6808e-07
8.64773e-07
8.61411e-07
8.57927e-07
8.54207e-07
8.5007e-07
8.45287e-07
8.39807e-07
7.13749e-07
7.12765e-07
7.19689e-07
7.27745e-07
7.4552e-07
7.62429e-07
7.73034e-07
7.92171e-07
8.09034e-07
8.05148e-07
8.01143e-07
8.00707e-07
7.99118e-07
7.95835e-07
7.92139e-07
7.88496e-07
7.84885e-07
7.81298e-07
7.77696e-07
7.74016e-07
7.70159e-07
7.65943e-07
7.61137e-07
7.55724e-07
6.28042e-07
6.28421e-07
6.36446e-07
6.45874e-07
6.66008e-07
6.82981e-07
6.94192e-07
7.17312e-07
7.35874e-07
7.2802e-07
7.24169e-07
7.25357e-07
7.23694e-07
7.19588e-07
7.15285e-07
7.11252e-07
7.07324e-07
7.03469e-07
6.99665e-07
6.95859e-07
6.91916e-07
6.87663e-07
6.82889e-07
6.7757e-07
6.7193e-07
5.52503e-07
5.53879e-07
5.62335e-07
5.72705e-07
5.94305e-07
6.10314e-07
6.21593e-07
6.5051e-07
6.74636e-07
6.59303e-07
6.53243e-07
6.56521e-07
6.5513e-07
6.50216e-07
6.4539e-07
6.41153e-07
6.37088e-07
6.33081e-07
6.29192e-07
6.25352e-07
6.21406e-07
6.1718e-07
6.12492e-07
6.07286e-07
6.01782e-07
4.91636e-07
4.9344e-07
5.01228e-07
5.11145e-07
5.32017e-07
5.44163e-07
5.52571e-07
5.8705e-07
6.17521e-07
5.96411e-07
5.88984e-07
5.95125e-07
5.95402e-07
5.90878e-07
5.86248e-07
5.82309e-07
5.78505e-07
5.74685e-07
5.70934e-07
5.67211e-07
5.634e-07
5.59307e-07
5.54753e-07
5.49693e-07
5.44342e-07
4.43409e-07
4.45192e-07
4.51639e-07
4.60126e-07
4.7828e-07
4.84658e-07
4.90261e-07
5.21681e-07
5.56257e-07
5.3695e-07
5.31559e-07
5.39952e-07
5.42747e-07
5.39915e-07
5.36177e-07
5.32902e-07
5.297e-07
5.26413e-07
5.23078e-07
5.19709e-07
5.1623e-07
5.12473e-07
5.08234e-07
5.03467e-07
4.98407e-07
3.99273e-07
4.01003e-07
4.06194e-07
4.1368e-07
4.29088e-07
4.30692e-07
4.35937e-07
4.60156e-07
4.94822e-07
4.81907e-07
4.79561e-07
4.88627e-07
4.93413e-07
4.92513e-07
4.89864e-07
4.87257e-07
4.84657e-07
4.81915e-07
4.79073e-07
4.76155e-07
4.73103e-07
4.69772e-07
4.65964e-07
4.61606e-07
4.56938e-07
3.56159e-07
3.57806e-07
3.61792e-07
3.68715e-07
3.81178e-07
3.79681e-07
3.85852e-07
4.0318e-07
4.38292e-07
4.32358e-07
4.3265e-07
4.41209e-07
4.46916e-07
4.47499e-07
4.45875e-07
4.43967e-07
4.41993e-07
4.39775e-07
4.37356e-07
4.34818e-07
4.32137e-07
4.29176e-07
4.25772e-07
4.21788e-07
4.17428e-07
3.15167e-07
3.16651e-07
3.1953e-07
3.2614e-07
3.35418e-07
3.32626e-07
3.39735e-07
3.50945e-07
3.86953e-07
3.87481e-07
3.90395e-07
3.98344e-07
4.04418e-07
4.05928e-07
4.04977e-07
4.03653e-07
4.02389e-07
4.00896e-07
3.99047e-07
3.96921e-07
3.94551e-07
3.91875e-07
3.88726e-07
3.84981e-07
3.80785e-07
2.76475e-07
2.77615e-07
2.79434e-07
2.85721e-07
2.91656e-07
2.89617e-07
2.9682e-07
3.03601e-07
3.41432e-07
3.47515e-07
3.52596e-07
3.60092e-07
3.66589e-07
3.68984e-07
3.68346e-07
3.66827e-07
3.65431e-07
3.64167e-07
3.62796e-07
3.61159e-07
3.59155e-07
3.56692e-07
3.53571e-07
3.49744e-07
3.45348e-07
2.40565e-07
2.41084e-07
2.4177e-07
2.47266e-07
2.49749e-07
2.50406e-07
2.56128e-07
2.61297e-07
3.02008e-07
3.12826e-07
3.19659e-07
3.26224e-07
3.32334e-07
3.35609e-07
3.36171e-07
3.35015e-07
3.32961e-07
3.30532e-07
3.28084e-07
3.25743e-07
3.23373e-07
3.20665e-07
3.17175e-07
3.12538e-07
3.06796e-07
2.07787e-07
2.07463e-07
2.06917e-07
2.10707e-07
2.09575e-07
2.13802e-07
2.15391e-07
2.2332e-07
2.6848e-07
2.83076e-07
2.92578e-07
2.98289e-07
3.0137e-07
3.01821e-07
3.01568e-07
3.01554e-07
3.01234e-07
2.99645e-07
2.96593e-07
2.92552e-07
2.87973e-07
2.82981e-07
2.77339e-07
2.70738e-07
2.63121e-07
2.54615e-07
1.78121e-07
1.76866e-07
1.75063e-07
1.76208e-07
1.71749e-07
1.7869e-07
1.72733e-07
1.90146e-07
2.40891e-07
2.55458e-07
2.68479e-07
2.75487e-07
2.76323e-07
2.71525e-07
2.64223e-07
2.58053e-07
2.54722e-07
2.53532e-07
2.52664e-07
2.5067e-07
2.46867e-07
2.41122e-07
2.33448e-07
2.24203e-07
2.13999e-07
2.03485e-07
1.51645e-07
1.49071e-07
1.45404e-07
1.43133e-07
1.36837e-07
1.45438e-07
1.31995e-07
1.6992e-07
2.21781e-07
2.31074e-07
2.44729e-07
2.49615e-07
2.511e-07
2.50214e-07
2.43011e-07
2.29564e-07
2.14987e-07
2.04481e-07
2.00275e-07
2.01691e-07
2.06523e-07
2.12238e-07
2.15678e-07
2.13911e-07
2.07206e-07
1.98669e-07
1.3026e-07
1.2523e-07
1.17512e-07
1.09841e-07
1.02585e-07
1.12849e-07
1.02708e-07
1.71792e-07
2.13278e-07
2.29583e-07
2.62845e-07
2.71445e-07
2.61363e-07
2.44761e-07
2.33869e-07
2.35935e-07
2.46492e-07
2.56302e-07
2.60935e-07
2.61298e-07
2.59768e-07
2.58856e-07
2.624e-07
2.75088e-07
2.97018e-07
3.23243e-07
1.17266e-07
1.09132e-07
9.52214e-08
7.82222e-08
6.54193e-08
7.46606e-08
8.43569e-08
1.74069e-07
1.90158e-07
2.221e-07
2.83531e-07
3.3644e-07
3.8991e-07
4.4482e-07
4.94971e-07
5.36398e-07
5.68016e-07
5.93706e-07
6.18624e-07
6.45861e-07
6.76314e-07
7.09386e-07
7.4347e-07
7.74423e-07
7.97966e-07
8.16234e-07
1.11286e-07
1.01648e-07
8.37241e-08
5.77883e-08
3.0718e-08
3.67921e-08
7.535e-08
1.31469e-07
1.90426e-07
4.16876e-07
6.36381e-07
8.33662e-07
9.90263e-07
1.10335e-06
1.17849e-06
1.22851e-06
1.26662e-06
1.30247e-06
1.33932e-06
1.37663e-06
1.41255e-06
1.4468e-06
1.48082e-06
1.51949e-06
1.55887e-06
1.59212e-06
)
;

boundaryField
{
    inlet
    {
        type            calculated;
        value           nonuniform List<scalar> 
26
(
1.11033e-07
1.01657e-07
8.37707e-08
5.68447e-08
2.61958e-08
3.74331e-08
8.86965e-08
9.54083e-08
4.27622e-07
8.75625e-07
1.38368e-06
1.89041e-06
2.35173e-06
2.74874e-06
3.07261e-06
3.33138e-06
3.53841e-06
3.70803e-06
3.85365e-06
3.98617e-06
4.11384e-06
4.24554e-06
4.39169e-06
4.55981e-06
4.73813e-06
4.90801e-06
)
;
    }
    outlet
    {
        type            calculated;
        value           nonuniform List<scalar> 0();
    }
    walls
    {
        type            calculated;
        value           nonuniform List<scalar> 0();
    }
    frontAndBack
    {
        type            empty;
    }
    procBoundary0to1
    {
        type            processor;
        value           nonuniform List<scalar> 
94
(
0.00056809
0.000465646
0.000465646
0.000383815
0.000383815
0.000318614
0.000318614
0.000265866
0.000265866
0.000223247
0.000223247
0.000188671
0.00016569
0.00016569
0.000141552
0.000125085
0.000125085
0.00010781
9.56945e-05
8.50073e-05
8.50073e-05
7.39292e-05
6.5853e-05
6.5853e-05
5.75049e-05
5.13197e-05
4.58089e-05
4.58089e-05
4.01535e-05
3.58844e-05
3.20728e-05
3.20728e-05
2.8174e-05
2.52046e-05
2.52046e-05
2.21555e-05
1.98389e-05
1.77695e-05
1.77695e-05
1.56405e-05
1.40275e-05
1.25875e-05
1.25875e-05
1.11001e-05
9.97996e-06
8.98033e-06
8.98033e-06
7.94218e-06
7.16535e-06
6.4709e-06
6.4709e-06
5.74634e-06
5.20541e-06
4.72041e-06
4.72041e-06
4.21245e-06
3.83228e-06
3.48956e-06
3.18013e-06
3.18013e-06
2.85924e-06
2.6125e-06
2.38749e-06
2.18146e-06
2.18146e-06
1.9696e-06
1.79834e-06
1.63972e-06
1.49333e-06
1.35915e-06
1.35915e-06
1.22732e-06
1.11787e-06
1.01711e-06
9.22887e-07
8.33858e-07
7.49945e-07
7.49945e-07
6.6625e-07
5.96302e-07
5.39027e-07
4.93375e-07
4.52245e-07
4.12942e-07
3.76326e-07
3.40611e-07
3.00368e-07
3.00368e-07
2.45341e-07
1.93119e-07
1.9081e-07
3.49786e-07
8.32464e-07
1.61847e-06
)
;
    }
    procBoundary0to4
    {
        type            processor;
        value           nonuniform List<scalar> 
72
(
0.000514658
0.000437366
0.000374181
0.000321876
0.000278228
0.000241511
0.000210423
0.000183939
0.000161254
0.000141726
0.000124848
0.000110207
9.74585e-05
8.63263e-05
7.65777e-05
6.8019e-05
6.04885e-05
5.38484e-05
4.79825e-05
4.27927e-05
3.81937e-05
3.4112e-05
2.99506e-05
2.99506e-05
2.67778e-05
2.3953e-05
2.14356e-05
1.91903e-05
1.71859e-05
1.53951e-05
1.37941e-05
1.23621e-05
1.10803e-05
9.93245e-06
8.904e-06
7.98217e-06
7.15554e-06
6.41397e-06
5.74851e-06
5.15115e-06
4.61477e-06
4.13303e-06
3.70025e-06
3.31138e-06
2.96189e-06
2.64776e-06
2.36537e-06
2.11148e-06
1.88321e-06
1.67796e-06
1.49341e-06
1.32748e-06
1.17832e-06
1.04423e-06
9.23755e-07
8.15607e-07
7.18597e-07
6.31753e-07
5.55361e-07
4.94031e-07
4.45521e-07
4.01089e-07
3.57696e-07
3.1646e-07
2.776e-07
2.41628e-07
2.0891e-07
1.79426e-07
1.53344e-07
1.32648e-07
1.20389e-07
1.1472e-07
)
;
    }
    procBoundary0to5
    {
        type            processor;
        value           nonuniform List<scalar> 4(0.000604943 0.000598409 0.000590845 0.000581071);
    }
}


// ************************************************************************* //
