/*--------------------------------*- C++ -*----------------------------------*\
| =========                 |                                                 |
| \\      /  F ield         | OpenFOAM: The Open Source CFD Toolbox           |
|  \\    /   O peration     | Version:  2506                                  |
|   \\  /    A nd           | Website:  www.openfoam.com                      |
|    \\/     M anipulation  |                                                 |
\*---------------------------------------------------------------------------*/
FoamFile
{
    version     2.0;
    format      ascii;
    arch        "LSB;label=32;scalar=64";
    class       volSymmTensorField;
    location    "400";
    object      turbulenceProperties:devReff;
}
// * * * * * * * * * * * * * * * * * * * * * * * * * * * * * * * * * * * * * //

dimensions      [0 2 -2 0 0 0 0];

internalField   nonuniform List<symmTensor> 
1340
(
(8.38889e-05 -7.88944e-05 -3.01098e-21 -8.38202e-05 -1.16602e-21 -6.867e-08)
(9.39151e-05 -6.41752e-05 2.25994e-20 -9.40055e-05 2.24866e-20 9.04541e-08)
(0.000101278 -4.85546e-05 4.96597e-20 -0.000101244 2.8327e-20 -3.46988e-08)
(0.000106353 -2.95462e-05 -7.91496e-20 -0.000106491 -8.79519e-20 1.38841e-07)
(0.000107683 -8.56117e-06 -1.11368e-19 -0.000107663 -9.45069e-20 -2.01223e-08)
(7.04965e-05 -6.77415e-05 1.04186e-20 -7.04517e-05 9.19051e-21 -4.47807e-08)
(7.89776e-05 -5.54799e-05 2.97711e-20 -7.90425e-05 1.58061e-20 6.4851e-08)
(8.52961e-05 -4.2436e-05 -6.97718e-20 -8.52709e-05 -4.91988e-20 -2.52108e-08)
(8.97939e-05 -2.65893e-05 1.00614e-20 -8.99101e-05 1.79747e-20 1.16165e-07)
(9.12356e-05 -9.01923e-06 1.0532e-19 -9.12079e-05 4.17786e-20 -2.77119e-08)
(8.88812e-05 9.02655e-06 -7.82711e-20 -8.88323e-05 -9.30807e-20 -4.88721e-08)
(5.96089e-05 -5.85706e-05 -5.32585e-21 -5.95724e-05 -4.93923e-21 -3.65042e-08)
(6.68507e-05 -4.82721e-05 -2.22899e-20 -6.68905e-05 -1.48383e-20 3.97775e-08)
(7.231e-05 -3.72853e-05 -3.14887e-21 -7.22882e-05 4.72693e-22 -2.18247e-08)
(7.6315e-05 -2.3955e-05 4.13142e-20 -7.64085e-05 2.71665e-20 9.34725e-08)
(7.78003e-05 -9.11533e-06 -2.49303e-20 -7.77654e-05 -2.00738e-21 -3.49349e-08)
(7.61476e-05 6.17174e-06 9.11853e-20 -7.61051e-05 7.05511e-20 -4.25579e-08)
(7.11877e-05 2.11305e-05 1.51987e-19 -7.11571e-05 6.70347e-20 -3.06009e-08)
(5.06504e-05 -5.09321e-05 6.98022e-21 -5.06237e-05 4.91509e-21 -2.66125e-08)
(5.68923e-05 -4.22196e-05 9.82694e-21 -5.69189e-05 6.86594e-21 2.65384e-08)
(6.16435e-05 -3.29053e-05 2.6159e-20 -6.16241e-05 8.96251e-21 -1.93944e-08)
(6.52202e-05 -2.16055e-05 -7.14162e-20 -6.52986e-05 -4.85336e-20 7.844e-08)
(6.67093e-05 -8.9849e-06 -3.54432e-20 -6.66702e-05 -2.60631e-20 -3.91237e-08)
(6.55728e-05 4.06091e-06 -8.86536e-20 -6.55383e-05 -5.50132e-20 -3.45394e-08)
(6.16763e-05 1.69203e-05 -1.08864e-19 -6.16575e-05 -2.98334e-20 -1.8829e-08)
(5.49974e-05 2.87603e-05 9.169e-20 -5.50117e-05 1.74949e-20 1.43627e-08)
(4.32275e-05 -4.45133e-05 7.55746e-21 -4.32042e-05 3.92083e-21 -2.3274e-08)
(4.86454e-05 -3.70888e-05 1.59882e-21 -4.86654e-05 1.02163e-22 1.99727e-08)
(5.28076e-05 -2.91502e-05 -2.13533e-20 -5.27885e-05 -6.1339e-21 -1.90942e-08)
(5.60098e-05 -1.95057e-05 6.58202e-20 -5.6074e-05 4.40153e-20 6.41524e-08)
(5.74716e-05 -8.70591e-06 1.21923e-19 -5.74317e-05 5.54508e-20 -3.98816e-08)
(5.67193e-05 2.49617e-06 2.75104e-21 -5.66917e-05 1.37066e-20 -2.76196e-08)
(5.36348e-05 1.36046e-05 2.32022e-19 -5.36273e-05 9.69815e-20 -7.55691e-09)
(4.81697e-05 2.39168e-05 -6.77789e-20 -4.81823e-05 -6.58856e-20 1.25916e-08)
(4.08602e-05 3.23698e-05 -1.14658e-19 -4.08575e-05 -3.52153e-20 -2.64623e-09)
(3.7033e-05 -3.90675e-05 7.15886e-21 -3.7014e-05 3.36e-21 -1.89704e-08)
(4.17612e-05 -3.27112e-05 -1.28363e-20 -4.17735e-05 -7.55182e-21 1.22998e-08)
(4.54291e-05 -2.59002e-05 -5.04839e-21 -4.54152e-05 -3.44703e-21 -1.38365e-08)
(4.83023e-05 -1.76335e-05 -9.30815e-21 -4.83552e-05 3.47858e-21 5.28956e-08)
(4.97157e-05 -8.33701e-06 9.23538e-20 -4.9679e-05 3.51637e-20 -3.67946e-08)
(4.92518e-05 1.32967e-06 -1.00755e-19 -4.92292e-05 -5.05544e-20 -2.25886e-08)
(4.67956e-05 1.09759e-05 1.05753e-20 -4.67944e-05 7.93897e-21 -1.16838e-09)
(4.22952e-05 1.99847e-05 4.08747e-20 -4.23077e-05 -4.9038e-21 1.2458e-08)
(3.61969e-05 2.74481e-05 -2.91725e-19 -3.61947e-05 -8.16859e-20 -2.20844e-09)
(2.91598e-05 3.29971e-05 7.00385e-20 -2.91504e-05 3.98446e-20 -9.38816e-09)
(3.18315e-05 -3.44107e-05 -1.04074e-20 -3.18177e-05 -3.95894e-21 -1.38024e-08)
(3.59784e-05 -2.89497e-05 8.64464e-21 -3.59846e-05 7.40919e-21 6.26725e-09)
(3.92241e-05 -2.30778e-05 5.81444e-20 -3.92118e-05 2.97483e-20 -1.2298e-08)
(4.18104e-05 -1.59515e-05 1.64448e-20 -4.18554e-05 3.67375e-22 4.49131e-08)
(4.31628e-05 -7.91425e-06 -6.98403e-20 -4.31285e-05 -2.81652e-20 -3.42718e-08)
(4.29133e-05 4.655e-07 6.5094e-20 -4.2895e-05 3.30471e-20 -1.82194e-08)
(4.09492e-05 8.87364e-06 -1.76683e-20 -4.09525e-05 -4.7558e-21 3.21543e-09)
(3.72223e-05 1.67685e-05 1.62529e-19 -3.72325e-05 6.07356e-20 1.01471e-08)
(3.21033e-05 2.33713e-05 5.33656e-20 -3.21018e-05 2.45951e-20 -1.51236e-09)
(2.61528e-05 2.8354e-05 -3.21915e-20 -2.61438e-05 -1.22234e-20 -8.98467e-09)
(2.74378e-05 -3.04052e-05 1.0671e-21 -2.74277e-05 -1.88163e-22 -1.00659e-08)
(3.1094e-05 -2.56938e-05 -2.63809e-21 -3.10973e-05 -3.54942e-21 3.23688e-09)
(3.3976e-05 -2.06147e-05 -4.96472e-20 -3.39651e-05 -2.81997e-20 -1.09293e-08)
(3.63078e-05 -1.44442e-05 -8.1e-20 -3.63455e-05 -4.1441e-20 3.7713e-08)
(3.75923e-05 -7.46399e-06 -9.97267e-20 -3.75626e-05 -2.7898e-20 -2.96468e-08)
(3.75028e-05 -1.72395e-07 1.44264e-19 -3.74875e-05 5.32241e-20 -1.53256e-08)
(3.59273e-05 7.18177e-06 -1.3295e-19 -3.59336e-05 -5.58777e-20 6.32504e-09)
(3.28253e-05 1.41205e-05 3.19868e-20 -3.28345e-05 2.59826e-20 9.15288e-09)
(2.85081e-05 1.99712e-05 7.98639e-20 -2.8506e-05 2.49211e-20 -2.08817e-09)
(2.34502e-05 2.44424e-05 5.54859e-20 -2.34436e-05 2.10769e-20 -6.61319e-09)
(1.80068e-05 2.75629e-05 5.24592e-20 -1.80064e-05 1.46899e-20 -4.30355e-10)
(2.37088e-05 -2.69417e-05 1.32886e-20 -2.37006e-05 7.34281e-21 -8.18131e-09)
(2.69456e-05 -2.28609e-05 2.05532e-20 -2.69472e-05 1.11767e-20 1.57314e-09)
(2.95136e-05 -1.84529e-05 5.69509e-20 -2.95036e-05 2.32271e-20 -1.0013e-08)
(3.16203e-05 -1.30896e-05 -1.28513e-20 -3.16511e-05 -6.14814e-21 3.0796e-08)
(3.28322e-05 -7.00461e-06 4.83253e-20 -3.28073e-05 1.03962e-20 -2.48938e-08)
(3.28613e-05 -6.38107e-07 -1.57651e-19 -3.28486e-05 -5.53324e-20 -1.27634e-08)
(3.15958e-05 5.81433e-06 1.36039e-19 -3.1602e-05 7.35437e-20 6.18939e-09)
(2.90017e-05 1.19282e-05 1.84293e-19 -2.90103e-05 4.60731e-20 8.57199e-09)
(2.53445e-05 1.71187e-05 -1.13897e-20 -2.53425e-05 -1.69688e-20 -1.96286e-09)
(2.10252e-05 2.1131e-05 7.77225e-20 -2.10192e-05 -8.76525e-22 -5.95572e-09)
(1.63544e-05 2.39832e-05 5.51702e-20 -1.63534e-05 1.23166e-20 -9.29219e-10)
(2.05308e-05 -2.39306e-05 -1.58928e-20 -2.05245e-05 -6.64789e-21 -6.30155e-09)
(2.34057e-05 -2.03856e-05 1.88825e-20 -2.34057e-05 6.77087e-21 -4.97815e-11)
(2.57011e-05 -1.65468e-05 -5.05585e-20 -2.5692e-05 -2.45575e-20 -9.11383e-09)
(2.76071e-05 -1.18706e-05 -4.13043e-20 -2.76323e-05 -1.5612e-20 2.52025e-08)
(2.87464e-05 -6.5506e-06 -1.09988e-20 -2.87253e-05 5.80611e-21 -2.10664e-08)
(2.88596e-05 -9.72286e-07 1.63906e-19 -2.88506e-05 5.91237e-20 -8.95413e-09)
(2.78449e-05 4.70154e-06 -1.93021e-20 -2.78505e-05 -2.36603e-20 5.59832e-09)
(2.56674e-05 1.01026e-05 -1.30899e-19 -2.56743e-05 -5.95956e-20 6.96182e-09)
(2.25553e-05 1.47157e-05 -1.08879e-19 -2.25537e-05 -4.20156e-20 -1.50549e-09)
(1.88538e-05 1.83129e-05 -3.71149e-19 -1.88489e-05 -8.52506e-20 -4.91104e-09)
(1.48313e-05 2.09118e-05 5.05584e-20 -1.48309e-05 3.02916e-20 -3.45289e-10)
(1.07783e-05 2.25485e-05 2.02971e-19 -1.0776e-05 3.19488e-20 -2.38184e-09)
(1.78124e-05 -2.13e-05 9.98137e-21 -1.78077e-05 4.36613e-21 -4.6553e-09)
(2.03728e-05 -1.82133e-05 3.50498e-21 -2.03719e-05 3.22057e-21 -8.85139e-10)
(2.24296e-05 -1.48608e-05 6.01981e-20 -2.24212e-05 2.69185e-20 -8.40008e-09)
(2.41567e-05 -1.07724e-05 9.39404e-20 -2.41775e-05 3.33341e-20 2.07783e-08)
(2.52252e-05 -6.10802e-06 -3.44448e-20 -2.52069e-05 -2.26673e-20 -1.83231e-08)
(2.53969e-05 -1.20579e-06 -1.3736e-19 -2.53904e-05 -4.89247e-20 -6.47939e-09)
(2.45842e-05 3.79454e-06 2.22752e-20 -2.45897e-05 3.6665e-21 5.50638e-09)
(2.27515e-05 8.57402e-06 -1.55074e-19 -2.27578e-05 -4.07997e-20 6.26076e-09)
(2.00933e-05 1.26793e-05 7.3807e-20 -2.00923e-05 4.40085e-20 -1.03746e-09)
(1.69094e-05 1.59056e-05 1.6146e-19 -1.69055e-05 5.70566e-20 -3.9498e-09)
(1.34335e-05 1.82681e-05 -9.64543e-20 -1.34328e-05 -3.12305e-20 -6.85575e-10)
(9.91862e-06 1.97959e-05 -1.43388e-19 -9.9156e-06 -4.24556e-20 -3.01602e-09)
(1.54786e-05 -1.89938e-05 -1.14503e-20 -1.54751e-05 -3.13471e-21 -3.49306e-09)
(1.7765e-05 -1.62998e-05 3.63536e-20 -1.77634e-05 1.43026e-20 -1.52896e-09)
(1.96123e-05 -1.33647e-05 -1.89885e-20 -1.96048e-05 -8.71998e-21 -7.4806e-09)
(2.11792e-05 -9.78215e-06 -1.46521e-20 -2.11965e-05 -6.19325e-21 1.72305e-08)
(2.21784e-05 -5.68223e-06 -3.25779e-20 -2.2163e-05 -1.56072e-20 -1.53873e-08)
(2.23911e-05 -1.36414e-06 -9.96177e-20 -2.23861e-05 -3.23459e-20 -5.01769e-09)
(2.17412e-05 3.05304e-06 -5.98981e-20 -2.17462e-05 -2.15788e-20 5.01441e-09)
(2.01946e-05 7.29107e-06 -5.79808e-21 -2.01997e-05 1.06063e-20 5.03308e-09)
(1.79169e-05 1.09493e-05 6.85573e-20 -1.79153e-05 3.50909e-20 -1.60142e-09)
(1.51693e-05 1.3843e-05 7.15391e-20 -1.51656e-05 1.81453e-20 -3.70058e-09)
(1.21575e-05 1.59852e-05 1.59504e-19 -1.21573e-05 2.11061e-20 -2.32578e-10)
(9.10215e-06 1.74006e-05 -3.32426e-20 -9.10008e-06 -1.76927e-20 -2.07159e-09)
(1.3469e-05 -1.69645e-05 -8.68369e-21 -1.34669e-05 -4.57906e-21 -2.1002e-09)
(1.55157e-05 -1.46097e-05 -5.31223e-20 -1.55132e-05 -2.03696e-20 -2.46271e-09)
(1.71773e-05 -1.20338e-05 -3.32763e-20 -1.71709e-05 -1.24393e-20 -6.37683e-09)
(1.86006e-05 -8.88769e-06 -2.83836e-20 -1.86152e-05 -1.01177e-20 1.46351e-08)
(1.95331e-05 -5.27583e-06 -2.17471e-20 -1.952e-05 -4.20556e-21 -1.31009e-08)
(1.97731e-05 -1.46446e-06 6.27026e-20 -1.97699e-05 1.18159e-20 -3.26176e-09)
(1.92559e-05 2.44448e-06 -2.80429e-19 -1.92605e-05 -8.51544e-20 4.61973e-09)
(1.79477e-05 6.20843e-06 1.93682e-20 -1.79524e-05 3.76954e-20 4.63738e-09)
(1.59905e-05 9.4712e-06 3.71335e-19 -1.59896e-05 9.36946e-20 -8.66547e-10)
(1.3613e-05 1.20675e-05 1.1037e-19 -1.36098e-05 2.3247e-21 -3.1621e-09)
(1.09951e-05 1.40083e-05 -2.79683e-19 -1.09945e-05 -8.28385e-20 -5.99257e-10)
(8.33266e-06 1.53137e-05 -2.10117e-19 -8.3302e-06 -3.00469e-20 -2.45588e-09)
(5.77429e-06 1.60578e-05 4.10812e-20 -5.77103e-06 2.39404e-20 -3.26398e-09)
(1.17338e-05 -1.5174e-05 9.55639e-21 -1.17324e-05 3.14132e-21 -1.41776e-09)
(1.35702e-05 -1.31111e-05 -1.52487e-20 -1.35677e-05 -4.079e-21 -2.4824e-09)
(1.50674e-05 -1.08475e-05 5.73721e-20 -1.50612e-05 1.62342e-20 -6.14169e-09)
(1.63614e-05 -8.07842e-06 -1.4481e-19 -1.63738e-05 -5.49559e-20 1.24178e-08)
(1.72297e-05 -4.89031e-06 -1.09817e-19 -1.72185e-05 -3.28369e-20 -1.12471e-08)
(1.74869e-05 -1.51982e-06 -5.79845e-20 -1.74846e-05 -9.89166e-21 -2.32355e-09)
(1.70776e-05 1.94518e-06 1.32704e-19 -1.70818e-05 5.74746e-20 4.20036e-09)
(1.59687e-05 5.29316e-06 1.72624e-19 -1.59723e-05 2.96153e-20 3.61081e-09)
(1.42827e-05 8.20637e-06 -1.82877e-19 -1.42816e-05 -6.00089e-20 -1.06806e-09)
(1.22198e-05 1.0536e-05 1.4877e-19 -1.22174e-05 3.57085e-20 -2.42068e-09)
(9.94e-06 1.22915e-05 1.45537e-20 -9.9398e-06 1.65615e-20 -1.95569e-10)
(7.61574e-06 1.34897e-05 -5.27431e-20 -7.61386e-06 8.9528e-21 -1.87984e-09)
(5.37792e-06 1.41957e-05 1.78294e-19 -5.37507e-06 4.13612e-20 -2.84465e-09)
(1.02324e-05 -1.35899e-05 -9.79284e-21 -1.02312e-05 -4.08418e-21 -1.23744e-09)
(1.18827e-05 -1.1779e-05 -2.11133e-20 -1.18805e-05 -6.16761e-21 -2.23964e-09)
(1.32339e-05 -9.78779e-06 3.95385e-20 -1.32284e-05 1.64504e-20 -5.47637e-09)
(1.44115e-05 -7.34603e-06 7.24613e-20 -1.44218e-05 2.65244e-20 1.02953e-08)
(1.52191e-05 -4.52643e-06 1.15557e-19 -1.52094e-05 3.93996e-20 -9.70232e-09)
(1.54856e-05 -1.54187e-06 7.74812e-20 -1.54839e-05 2.90898e-20 -1.69397e-09)
(1.51641e-05 1.53481e-06 2.28972e-19 -1.5168e-05 4.98766e-20 3.91334e-09)
(1.42229e-05 4.51549e-06 -3.43233e-19 -1.42264e-05 -9.64565e-20 3.44534e-09)
(1.27672e-05 7.11909e-06 3.02331e-20 -1.27663e-05 1.55489e-20 -8.92843e-10)
(1.09728e-05 9.21111e-06 -6.47098e-20 -1.09706e-05 -1.01278e-20 -2.19168e-09)
(8.98286e-06 1.07979e-05 1.3218e-19 -8.98231e-06 2.89031e-20 -5.43581e-10)
(6.94961e-06 1.18947e-05 4.89329e-20 -6.94751e-06 6.41609e-21 -2.10353e-09)
(4.98964e-06 1.2558e-05 9.93265e-20 -4.98703e-06 -9.21978e-23 -2.61406e-09)
(3.14223e-06 1.28733e-05 4.56967e-20 -3.1408e-06 -4.03612e-22 -1.43225e-09)
(8.93086e-06 -1.21842e-05 9.68325e-21 -8.93002e-06 3.98381e-21 -8.38655e-10)
(1.04158e-05 -1.05931e-05 3.33265e-20 -1.04134e-05 9.35146e-21 -2.38694e-09)
(1.16372e-05 -8.83824e-06 -7.63641e-20 -1.16324e-05 -2.46013e-20 -4.80941e-09)
(1.27091e-05 -6.68228e-06 2.92215e-20 -1.27181e-05 1.37417e-20 8.99038e-09)
(1.34592e-05 -4.1855e-06 9.4522e-20 -1.3451e-05 2.68302e-20 -8.24616e-09)
(1.37295e-05 -1.53891e-06 -2.35106e-20 -1.37283e-05 -1.39288e-20 -1.19392e-09)
(1.34794e-05 1.1971e-06 -1.23819e-19 -1.34831e-05 -2.86004e-20 3.69257e-09)
(1.268e-05 3.85493e-06 2.71212e-19 -1.26825e-05 7.30823e-20 2.44704e-09)
(1.14203e-05 6.18388e-06 -2.28002e-19 -1.14195e-05 -5.98903e-20 -8.50363e-10)
(9.85699e-06 8.06172e-06 1.86169e-19 -9.85512e-06 4.97925e-20 -1.86646e-09)
(8.1169e-06 9.49501e-06 -7.03729e-20 -8.11666e-06 -3.24646e-20 -2.38831e-10)
(6.33535e-06 1.04963e-05 -7.79942e-20 -6.33363e-06 -1.47888e-20 -1.72905e-09)
(4.61593e-06 1.1115e-05 -1.70979e-19 -4.61367e-06 -2.93148e-20 -2.25146e-09)
(2.99434e-06 1.14272e-05 1.77291e-20 -2.99282e-06 5.54695e-21 -1.52054e-09)
(7.8002e-06 -1.0934e-05 -5.32896e-23 -7.79992e-06 -2.66895e-23 -2.85764e-10)
(9.13805e-06 -9.53522e-06 8.60613e-21 -9.13578e-06 1.87222e-21 -2.26846e-09)
(1.02432e-05 -7.98679e-06 -4.59907e-20 -1.02388e-05 -1.29923e-20 -4.41609e-09)
(1.12199e-05 -6.07991e-06 8.39618e-20 -1.12276e-05 2.44134e-20 7.67192e-09)
(1.19157e-05 -3.86635e-06 -1.0881e-19 -1.19088e-05 -3.08853e-20 -6.85408e-09)
(1.21854e-05 -1.51638e-06 1.37255e-19 -1.21844e-05 4.44509e-20 -9.43682e-10)
(1.19936e-05 9.19198e-07 1.27203e-19 -1.19971e-05 2.78006e-20 3.51442e-09)
(1.1314e-05 3.29102e-06 -1.2178e-19 -1.13165e-05 -3.91701e-20 2.46352e-09)
(1.02225e-05 5.37574e-06 -1.5604e-20 -1.02217e-05 7.70346e-21 -7.96901e-10)
(8.85785e-06 7.06272e-06 1.73313e-20 -8.85622e-06 -1.3937e-20 -1.62182e-09)
(7.33346e-06 8.35697e-06 -9.04969e-20 -7.33309e-06 -1.47624e-20 -3.7178e-10)
(5.76999e-06 9.26935e-06 1.16556e-19 -5.76834e-06 2.65063e-20 -1.65211e-09)
(4.25998e-06 9.84309e-06 7.35748e-20 -4.25794e-06 2.63185e-20 -2.03917e-09)
(2.83563e-06 1.01465e-05 1.02122e-20 -2.83413e-06 -1.18644e-20 -1.49871e-09)
(6.81636e-06 -9.82049e-06 -1.70389e-21 -6.81632e-06 -6.96978e-22 -4.73368e-11)
(8.02346e-06 -8.58934e-06 7.34018e-21 -8.02121e-06 2.14277e-21 -2.25002e-09)
(9.02441e-06 -7.22176e-06 -2.75162e-21 -9.02042e-06 -2.26438e-21 -3.99261e-09)
(9.91458e-06 -5.53343e-06 -4.84698e-20 -9.92125e-06 -1.74865e-20 6.67454e-09)
(1.05594e-05 -3.56855e-06 -1.15217e-19 -1.05536e-05 -3.38566e-20 -5.81176e-09)
(1.08252e-05 -1.47941e-06 -8.01568e-20 -1.08245e-05 -2.37261e-20 -6.95473e-10)
(1.06811e-05 6.90918e-07 -1.36901e-19 -1.06841e-05 -3.76701e-20 3.02923e-09)
(1.01029e-05 2.81013e-06 5.43083e-20 -1.0105e-05 1.737e-20 2.06379e-09)
(9.15608e-06 4.67707e-06 2.67136e-20 -9.15533e-06 2.5724e-21 -7.51961e-10)
(7.96303e-06 6.19284e-06 -2.79803e-19 -7.96164e-06 -5.41432e-20 -1.3921e-09)
(6.62581e-06 7.36089e-06 -5.33617e-20 -6.62548e-06 2.52056e-21 -3.34455e-10)
(5.25178e-06 8.19078e-06 -1.14841e-19 -5.25034e-06 -2.18144e-20 -1.44715e-09)
(3.92413e-06 8.72057e-06 2.01607e-19 -3.92241e-06 2.78331e-20 -1.72675e-09)
(2.67216e-06 9.01131e-06 -2.08612e-19 -2.67104e-06 -3.24056e-20 -1.12105e-09)
(1.50642e-06 9.11133e-06 -8.5045e-20 -1.50586e-06 -8.56561e-21 -5.59243e-10)
(5.95927e-06 -8.82696e-06 1.01158e-20 -5.95934e-06 3.79702e-21 7.32591e-11)
(7.04929e-06 -7.74223e-06 3.50478e-20 -7.04718e-06 1.14123e-20 -2.11554e-09)
(7.95687e-06 -6.53336e-06 6.29678e-20 -7.95309e-06 1.94725e-20 -3.77207e-09)
(8.76867e-06 -5.037e-06 6.26291e-20 -8.77452e-06 1.91462e-20 5.84636e-09)
(9.36566e-06 -3.29124e-06 9.70788e-20 -9.36069e-06 2.79897e-20 -4.9649e-09)
(9.62514e-06 -1.43193e-06 9.47839e-20 -9.62455e-06 1.84235e-20 -5.91959e-10)
(9.52013e-06 5.03636e-07 -2.41155e-19 -9.52281e-06 -6.2967e-20 2.67981e-09)
(9.02811e-06 2.39842e-06 -1.19795e-19 -9.02993e-06 -1.83832e-20 1.8267e-09)
(8.20565e-06 4.07173e-06 1.66152e-19 -8.2049e-06 4.10449e-20 -7.52455e-10)
(7.16131e-06 5.43396e-06 3.27279e-19 -7.16013e-06 8.04357e-20 -1.1768e-09)
(5.98674e-06 6.48792e-06 1.59163e-19 -5.98643e-06 2.46495e-20 -3.10656e-10)
(4.77792e-06 7.24182e-06 -2.87588e-20 -4.77649e-06 -6.91975e-21 -1.43646e-09)
(3.60905e-06 7.72938e-06 -6.58009e-20 -3.60741e-06 -1.62768e-20 -1.63209e-09)
(2.5076e-06 8.00498e-06 2.48966e-19 -2.50634e-06 4.52304e-20 -1.26369e-09)
(1.4818e-06 8.11284e-06 -4.371e-20 -1.48125e-06 -9.73387e-21 -5.5716e-10)
(5.2117e-06 -7.93876e-06 8.23571e-21 -5.21197e-06 2.17374e-21 2.73805e-10)
(6.1967e-06 -6.98249e-06 -6.9286e-21 -6.19473e-06 -2.86143e-21 -1.97626e-09)
(7.02029e-06 -5.91325e-06 -2.45576e-20 -7.01683e-06 -7.55088e-21 -3.4546e-09)
(7.761e-06 -4.5861e-06 -2.38492e-20 -7.76605e-06 -1.14781e-20 5.05866e-09)
(8.31295e-06 -3.03332e-06 -2.60432e-19 -8.30899e-06 -7.08063e-20 -3.96904e-09)
(8.56457e-06 -1.37751e-06 -4.85172e-20 -8.56407e-06 -4.65829e-21 -5.00726e-10)
(8.4916e-06 3.50488e-07 1.29158e-19 -8.49396e-06 3.77491e-20 2.36594e-09)
(8.07298e-06 2.04575e-06 1.12934e-19 -8.07462e-06 2.31262e-20 1.64288e-09)
(7.35794e-06 3.54624e-06 -2.68842e-19 -7.35729e-06 -5.86088e-20 -6.5336e-10)
(6.44276e-06 4.77094e-06 4.21688e-20 -6.44172e-06 -4.26928e-22 -1.04103e-09)
(5.40992e-06 5.72197e-06 -2.57051e-20 -5.40957e-06 -4.91794e-21 -3.53012e-10)
(4.34549e-06 6.40604e-06 5.8093e-21 -4.34425e-06 5.74565e-21 -1.24404e-09)
(3.31575e-06 6.85332e-06 -7.75792e-20 -3.31446e-06 -7.81044e-21 -1.29603e-09)
(2.34571e-06 7.11276e-06 -1.45055e-19 -2.34458e-06 -3.29053e-20 -1.13526e-09)
(1.44311e-06 7.22395e-06 1.12884e-21 -1.44242e-06 8.20889e-22 -6.8371e-10)
(4.55886e-06 -7.14381e-06 -2.30398e-21 -4.55925e-06 -4.96651e-22 3.95851e-10)
(5.44967e-06 -6.30042e-06 2.37867e-20 -5.44775e-06 6.74696e-21 -1.92027e-09)
(6.19749e-06 -5.35393e-06 2.26029e-20 -6.1944e-06 5.96082e-21 -3.08887e-09)
(6.87375e-06 -4.17601e-06 7.97059e-21 -6.87808e-06 1.89064e-21 4.32346e-09)
(7.38373e-06 -2.79365e-06 3.27664e-20 -7.38045e-06 1.45914e-20 -3.28382e-09)
(7.62619e-06 -1.31798e-06 2.12706e-19 -7.62566e-06 5.06596e-20 -5.23994e-10)
(7.5792e-06 2.25834e-07 -1.23636e-19 -7.58134e-06 -3.37403e-20 2.13951e-09)
(7.22342e-06 1.74344e-06 8.46124e-20 -7.22475e-06 3.14077e-20 1.32392e-09)
(6.60116e-06 3.08969e-06 2.96473e-19 -6.60061e-06 5.73123e-20 -5.55169e-10)
(5.79855e-06 4.19096e-06 -2.21518e-19 -5.79766e-06 -4.56654e-20 -8.86549e-10)
(4.88956e-06 5.04877e-06 1.79372e-19 -4.88934e-06 3.63856e-20 -2.24773e-10)
(3.95114e-06 5.66928e-06 1.25652e-19 -3.94992e-06 1.47769e-20 -1.21716e-09)
(3.04346e-06 6.07884e-06 2.1671e-19 -3.04208e-06 3.26722e-20 -1.37423e-09)
(2.1884e-06 6.32155e-06 -2.19376e-20 -2.18763e-06 -3.68928e-21 -7.61664e-10)
(1.39431e-06 6.43293e-06 -9.06151e-20 -1.39363e-06 -1.09332e-20 -6.82098e-10)
(6.64999e-07 6.43976e-06 -1.07385e-19 -6.64248e-07 -9.75847e-21 -7.5104e-10)
(3.98836e-06 -6.43149e-06 2.62089e-21 -3.98884e-06 -1.25943e-24 4.75514e-10)
(4.79454e-06 -5.68726e-06 -5.96614e-20 -4.79267e-06 -1.5561e-20 -1.86724e-09)
(5.47376e-06 -4.849e-06 7.30404e-20 -5.47103e-06 2.01248e-20 -2.73012e-09)
(6.09137e-06 -3.80289e-06 -2.32004e-20 -6.09521e-06 -4.3442e-21 3.84758e-09)
(6.56246e-06 -2.57161e-06 1.93797e-19 -6.55972e-06 4.80245e-20 -2.73867e-09)
(6.79477e-06 -1.25544e-06 -1.28808e-19 -6.79433e-06 -3.54525e-20 -4.40275e-10)
(6.76893e-06 1.24572e-07 2.02994e-20 -6.77087e-06 1.22678e-20 1.93908e-09)
(6.46691e-06 1.48408e-06 3.12803e-19 -6.46806e-06 5.67389e-20 1.15425e-09)
(5.9252e-06 2.69256e-06 -3.5764e-19 -5.92463e-06 -7.88284e-20 -5.72563e-10)
(5.22065e-06 3.68322e-06 1.46919e-19 -5.21984e-06 3.81132e-20 -8.1154e-10)
(4.42009e-06 4.45694e-06 -2.24201e-19 -4.41977e-06 -5.48011e-20 -3.18923e-10)
(3.59235e-06 5.01932e-06 -2.81168e-19 -3.59139e-06 -5.06401e-20 -9.57494e-10)
(2.79162e-06 5.39341e-06 -1.45331e-19 -2.79053e-06 -2.63149e-20 -1.09725e-09)
(2.03754e-06 5.61938e-06 5.25936e-20 -2.03674e-06 1.58071e-20 -8.01261e-10)
(1.338e-06 5.72918e-06 1.45779e-19 -1.33744e-06 2.12661e-20 -5.62538e-10)
(6.96751e-07 5.74676e-06 6.53129e-20 -6.96057e-07 1.3496e-20 -6.93634e-10)
(4.21939e-06 -5.13544e-06 -2.10818e-20 -4.21768e-06 -6.05963e-21 -1.7057e-09)
(4.83664e-06 -4.39284e-06 -2.38328e-20 -4.83414e-06 -6.19767e-21 -2.5068e-09)
(5.40082e-06 -3.46314e-06 -9.1163e-21 -5.40419e-06 -4.37597e-21 3.37017e-09)
(5.83572e-06 -2.36583e-06 -1.41314e-19 -5.83348e-06 -3.19431e-20 -2.24349e-09)
(6.05742e-06 -1.19127e-06 2.28231e-19 -6.05703e-06 5.53216e-20 -3.83554e-10)
(6.0487e-06 4.3038e-08 -9.40026e-20 -6.05036e-06 -3.14841e-20 1.65364e-09)
(5.79257e-06 1.26161e-06 -4.0443e-19 -5.79368e-06 -8.67384e-20 1.11105e-09)
(5.32103e-06 2.34659e-06 3.52084e-19 -5.32052e-06 8.82313e-20 -5.07822e-10)
(4.70221e-06 3.23803e-06 5.02993e-20 -4.70158e-06 8.78461e-22 -6.22574e-10)
(3.99673e-06 3.93593e-06 1.09117e-19 -3.99645e-06 3.5543e-20 -2.85288e-10)
(3.26586e-06 4.44558e-06 1.28548e-19 -3.26493e-06 2.83249e-20 -9.26593e-10)
(2.55899e-06 4.7871e-06 -1.23241e-20 -2.55788e-06 7.24709e-21 -1.10399e-09)
(1.89409e-06 4.99647e-06 2.8545e-20 -1.89332e-06 -1.61459e-21 -7.66212e-10)
(1.27759e-06 5.10297e-06 -1.50692e-19 -1.27711e-06 -2.45665e-20 -4.79855e-10)
(7.13127e-07 5.12818e-06 8.21625e-20 -7.12547e-07 8.71727e-21 -5.79515e-10)
(1.91373e-07 5.08875e-06 -1.54665e-19 -1.91188e-07 -2.26575e-20 -1.84551e-10)
(3.71407e-06 -4.6384e-06 -1.51425e-20 -3.71252e-06 -3.42964e-21 -1.55178e-09)
(4.27521e-06 -3.98039e-06 3.87966e-20 -4.27301e-06 8.58954e-21 -2.20535e-09)
(4.79068e-06 -3.15382e-06 -1.16003e-19 -4.79358e-06 -2.91888e-20 2.89799e-09)
(5.19201e-06 -2.17528e-06 3.03588e-20 -5.19019e-06 6.13188e-21 -1.81986e-09)
(5.40286e-06 -1.12662e-06 -2.18033e-19 -5.40251e-06 -5.23711e-20 -3.49968e-10)
(5.40782e-06 -2.20397e-08 5.00243e-20 -5.40931e-06 1.39197e-20 1.48353e-09)
(5.19114e-06 1.07068e-06 1.45794e-20 -5.19203e-06 9.04071e-21 8.99395e-10)
(4.78053e-06 2.04537e-06 -1.82777e-20 -4.78002e-06 -1.23377e-20 -5.08493e-10)
(4.23681e-06 2.84771e-06 -5.18162e-20 -4.23619e-06 -5.37452e-21 -6.19924e-10)
(3.61475e-06 3.47731e-06 2.82512e-19 -3.61445e-06 4.73103e-20 -2.99009e-10)
(2.96931e-06 3.93884e-06 -3.33279e-20 -2.96845e-06 -1.18284e-20 -8.61266e-10)
(2.34508e-06 4.25012e-06 2.52446e-19 -2.34417e-06 3.5415e-20 -9.04822e-10)
(1.75819e-06 4.44371e-06 -8.01852e-20 -1.75755e-06 -1.47081e-20 -6.45255e-10)
(1.21491e-06 4.54595e-06 8.90939e-20 -1.21434e-06 1.91629e-20 -5.73811e-10)
(7.17856e-07 4.57646e-06 -7.11665e-20 -7.17385e-07 -1.36184e-20 -4.70881e-10)
(2.59378e-07 4.55033e-06 1.17484e-19 -2.59148e-07 2.31254e-20 -2.29899e-10)
(3.26978e-06 -4.1904e-06 -7.45426e-20 -3.26832e-06 -1.8783e-20 -1.4612e-09)
(3.78016e-06 -3.60706e-06 -9.31815e-21 -3.77819e-06 4.28491e-22 -1.96711e-09)
(4.25116e-06 -2.87197e-06 1.88253e-19 -4.25368e-06 4.61319e-20 2.52432e-09)
(4.62137e-06 -1.99905e-06 1.62893e-21 -4.61983e-06 -3.38505e-22 -1.54485e-09)
(4.82128e-06 -1.06225e-06 1.36426e-19 -4.82096e-06 3.08274e-20 -3.20265e-10)
(4.83713e-06 -7.33853e-08 -1.58955e-19 -4.83844e-06 -3.79945e-20 1.31477e-09)
(4.65434e-06 9.06755e-07 2.18405e-20 -4.65512e-06 7.98307e-21 7.80582e-10)
(4.29672e-06 1.78272e-06 -6.48541e-20 -4.29632e-06 -9.0855e-21 -3.99886e-10)
(3.81892e-06 2.50494e-06 5.60433e-20 -3.81844e-06 7.49587e-21 -4.88721e-10)
(3.27024e-06 3.07302e-06 -1.50127e-19 -3.27e-06 -4.14222e-20 -2.45391e-10)
(2.69993e-06 3.49095e-06 -7.96142e-20 -2.6992e-06 -6.76835e-21 -7.31617e-10)
(2.14845e-06 3.77457e-06 -2.82261e-19 -2.14754e-06 -4.75783e-20 -9.07711e-10)
(1.63025e-06 3.95322e-06 8.07959e-20 -1.62972e-06 1.93238e-20 -5.26161e-10)
(1.15139e-06 4.0505e-06 3.8947e-20 -1.15098e-06 2.55277e-21 -4.06987e-10)
(7.1375e-07 4.08449e-06 -2.95546e-20 -7.13309e-07 -4.71187e-22 -4.40702e-10)
(3.10761e-07 4.06894e-06 -3.60692e-20 -3.10587e-07 -4.8437e-21 -1.73668e-10)
(2.87893e-06 -3.78628e-06 5.35773e-20 -2.8776e-06 1.41199e-20 -1.32922e-09)
(3.34319e-06 -3.26904e-06 8.85249e-20 -3.34147e-06 2.03886e-20 -1.71583e-09)
(3.77364e-06 -2.6151e-06 -7.95315e-20 -3.77585e-06 -2.26381e-20 2.20993e-09)
(4.11501e-06 -1.83623e-06 -2.11051e-19 -4.11376e-06 -4.69586e-20 -1.24491e-09)
(4.30403e-06 -9.99045e-07 1.8876e-20 -4.3038e-06 4.20213e-21 -2.27717e-10)
(4.32851e-06 -1.13382e-07 -4.32693e-20 -4.32967e-06 -6.44613e-21 1.15461e-09)
(4.17476e-06 7.66265e-07 1.32716e-19 -4.17546e-06 3.05502e-20 7.00734e-10)
(3.86348e-06 1.55372e-06 1.83372e-19 -3.86303e-06 3.26112e-20 -4.48743e-10)
(3.44353e-06 2.20405e-06 -1.174e-19 -3.44306e-06 -2.26081e-20 -4.67809e-10)
(2.95932e-06 2.71674e-06 -1.76478e-19 -2.95909e-06 -2.26198e-20 -2.29828e-10)
(2.4554e-06 3.09509e-06 3.44152e-19 -2.45468e-06 5.98089e-20 -7.17117e-10)
(1.96798e-06 3.35329e-06 1.75891e-19 -1.96726e-06 3.25966e-20 -7.19896e-10)
(1.5103e-06 3.51777e-06 -5.14583e-20 -1.50976e-06 -1.63804e-20 -5.31893e-10)
(1.0878e-06 3.60998e-06 2.06871e-20 -1.08732e-06 2.22888e-21 -4.77433e-10)
(7.02628e-07 3.64603e-06 1.50092e-19 -7.02189e-07 2.37508e-20 -4.39328e-10)
(3.48295e-07 3.63864e-06 1.32478e-19 -3.4818e-07 1.89602e-20 -1.14918e-10)
(2.02843e-08 3.59522e-06 2.0411e-20 -2.00758e-08 1.84492e-21 -2.08543e-10)
(2.53493e-06 -3.42148e-06 -1.28345e-20 -2.53371e-06 -3.74449e-21 -1.21699e-09)
(2.95734e-06 -2.96279e-06 -9.9875e-20 -2.95584e-06 -2.34986e-20 -1.50113e-09)
(3.35079e-06 -2.3809e-06 1.4799e-20 -3.3527e-06 7.5244e-21 1.90833e-09)
(3.66549e-06 -1.68567e-06 3.21396e-19 -3.66442e-06 7.0067e-20 -1.07263e-09)
(3.84382e-06 -9.37212e-07 -2.43538e-19 -3.84358e-06 -5.5713e-20 -2.3887e-10)
(3.87494e-06 -1.43799e-07 2.17533e-20 -3.87596e-06 6.97942e-21 1.02063e-09)
(3.74608e-06 6.45809e-07 -1.10242e-20 -3.7467e-06 -3.07822e-21 6.20388e-10)
(3.47527e-06 1.35391e-06 -1.2078e-19 -3.47493e-06 -1.94273e-20 -3.38606e-10)
(3.1062e-06 1.93962e-06 3.34281e-19 -3.1058e-06 5.88765e-20 -4.02791e-10)
(2.67878e-06 2.40252e-06 1.99969e-20 -2.67859e-06 -6.8861e-21 -1.85032e-10)
(2.23345e-06 2.74501e-06 -3.33065e-19 -2.23276e-06 -6.27165e-20 -6.88692e-10)
(1.80236e-06 2.98013e-06 8.60333e-20 -1.80169e-06 1.21331e-20 -6.67468e-10)
(1.39818e-06 3.13135e-06 -1.57361e-19 -1.39773e-06 -2.53421e-20 -4.49668e-10)
(1.02546e-06 3.21822e-06 -1.45373e-19 -1.02514e-06 -2.3746e-20 -3.20838e-10)
(6.86342e-07 3.25532e-06 -6.74851e-20 -6.8592e-07 -1.16142e-20 -4.22091e-10)
(3.74502e-07 3.25429e-06 2.44605e-20 -3.7441e-07 1.48742e-21 -9.14183e-11)
(8.66783e-08 3.22194e-06 1.86093e-20 -8.64487e-08 1.52895e-21 -2.29651e-10)
(2.23208e-06 -3.09206e-06 -3.5513e-20 -2.23092e-06 -7.67221e-21 -1.15238e-09)
(2.61644e-06 -2.68519e-06 6.4162e-20 -2.61514e-06 1.55176e-20 -1.30316e-09)
(2.97609e-06 -2.16733e-06 4.46643e-20 -2.97775e-06 6.01199e-21 1.65999e-09)
(3.26608e-06 -1.54669e-06 -3.4962e-19 -3.2652e-06 -7.58132e-20 -8.81524e-10)
(3.43395e-06 -8.77447e-07 2.53247e-19 -3.43378e-06 5.84099e-20 -1.68236e-10)
(3.47012e-06 -1.66367e-07 -9.08093e-20 -3.47104e-06 -1.6888e-20 9.17848e-10)
(3.3627e-06 5.42768e-07 2.85095e-19 -3.3632e-06 5.76166e-20 4.99459e-10)
(3.12719e-06 1.17971e-06 2.01522e-19 -3.12687e-06 3.01112e-20 -3.28746e-10)
(2.80284e-06 1.70742e-06 -5.0221e-19 -2.80246e-06 -9.73858e-20 -3.76321e-10)
(2.42558e-06 2.12529e-06 -2.30799e-19 -2.42541e-06 -3.39676e-20 -1.70728e-10)
(2.03191e-06 2.43542e-06 9.64016e-20 -2.0313e-06 2.48119e-20 -6.14767e-10)
(1.65071e-06 2.6494e-06 -3.67286e-20 -1.65012e-06 -8.24209e-21 -5.94441e-10)
(1.29351e-06 2.78833e-06 1.14483e-19 -1.29307e-06 2.44024e-20 -4.45299e-10)
(9.6461e-07 2.86997e-06 -9.02601e-20 -9.64237e-07 -1.1137e-20 -3.73753e-10)
(6.65796e-07 2.90741e-06 -3.05993e-20 -6.65463e-07 -4.25526e-21 -3.33517e-10)
(3.918e-07 2.91121e-06 -2.02345e-20 -3.9167e-07 -5.68787e-22 -1.29958e-10)
(1.38872e-07 2.88778e-06 -1.97189e-20 -1.3873e-07 -3.94257e-21 -1.42487e-10)
(1.96535e-06 -2.79438e-06 3.08109e-21 -1.9643e-06 1.35054e-21 -1.04856e-09)
(2.31509e-06 -2.43351e-06 7.49182e-20 -2.31394e-06 1.63853e-20 -1.14472e-09)
(2.64383e-06 -1.97253e-06 -8.27458e-20 -2.64529e-06 -1.73688e-20 1.46048e-09)
(2.91103e-06 -1.41839e-06 1.88852e-19 -2.91028e-06 4.17764e-20 -7.50603e-10)
(3.06881e-06 -8.19735e-07 -9.74425e-20 -3.06864e-06 -2.21158e-20 -1.7356e-10)
(3.10869e-06 -1.82305e-07 1.48276e-19 -3.10948e-06 2.88525e-20 7.89117e-10)
(3.01959e-06 4.54654e-07 -2.69718e-19 -3.02006e-06 -6.00821e-20 4.67033e-10)
(2.81504e-06 1.02771e-06 -2.94267e-20 -2.8147e-06 -4.81695e-21 -3.40436e-10)
(2.52994e-06 1.50336e-06 4.18376e-19 -2.52962e-06 8.75496e-20 -3.24063e-10)
(2.19699e-06 1.88064e-06 -2.29064e-20 -2.19683e-06 1.39113e-23 -1.60306e-10)
(1.84892e-06 2.16153e-06 -6.13876e-20 -1.84837e-06 -9.85381e-21 -5.47195e-10)
(1.51174e-06 2.35629e-06 -1.74455e-20 -1.51124e-06 9.63772e-22 -5.00554e-10)
(1.19615e-06 2.48385e-06 1.51066e-19 -1.19577e-06 2.41279e-20 -3.77266e-10)
(9.05837e-07 2.5603e-06 9.00204e-20 -9.05538e-07 1.41679e-20 -2.98516e-10)
(6.42465e-07 2.5975e-06 -9.48492e-20 -6.42173e-07 -1.54227e-20 -2.92591e-10)
(4.01519e-07 2.60503e-06 1.43553e-19 -4.01391e-07 2.24088e-20 -1.28009e-10)
(1.79343e-07 2.58879e-06 2.48579e-20 -1.79198e-07 3.02412e-21 -1.44344e-10)
(-2.81053e-08 2.55218e-06 -1.21639e-19 2.81787e-08 -1.52784e-20 -7.33584e-11)
(1.73036e-06 -2.52526e-06 -9.03642e-21 -1.72942e-06 -2.85305e-21 -9.36744e-10)
(2.04863e-06 -2.20521e-06 -1.15e-19 -2.04762e-06 -2.51154e-20 -1.00863e-09)
(2.3491e-06 -1.79482e-06 2.67617e-20 -2.35039e-06 6.8906e-21 1.28731e-09)
(2.5952e-06 -1.30002e-06 1.89345e-20 -2.59458e-06 2.07254e-21 -6.14617e-10)