/*--------------------------------*- C++ -*----------------------------------*\
| =========                 |                                                 |
| \\      /  F ield         | OpenFOAM: The Open Source CFD Toolbox           |
|  \\    /   O peration     | Version:  2506                                  |
|   \\  /    A nd           | Website:  www.openfoam.com                      |
|    \\/     M anipulation  |                                                 |
\*---------------------------------------------------------------------------*/
FoamFile
{
    version     2.0;
    format      ascii;
    arch        "LSB;label=32;scalar=64";
    class       volScalarField;
    location    "150";
    object      div(phi);
}
// * * * * * * * * * * * * * * * * * * * * * * * * * * * * * * * * * * * * * //

dimensions      [0 0 -1 0 0 0 0];

internalField   nonuniform List<scalar> 
1340
(
0.000266763
0.000689599
-0.000173246
0.000291747
-9.12136e-05
0.000272155
9.67853e-05
-0.000199521
0.000221863
0.000330356
-1.85193e-05
1.79815e-05
0.000254632
0.000134355
-0.000141296
0.00028171
-0.000105216
0.000164081
0.000146606
-1.0819e-05
7.15629e-05
0.000362506
-0.00015909
1.56018e-05
0.00021085
-4.94035e-05
-1.19027e-05
0.000169113
0.000164741
-6.18645e-05
0.000276001
4.95262e-05
0.000104673
-0.00012623
0.000114682
9.36644e-05
-3.435e-05
3.2117e-06
0.000257858
-2.95343e-05
4.74626e-06
-1.04776e-05
0.000156374
-5.33522e-05
-3.4019e-05
0.000114541
0.000105927
-0.000112177
0.000149291
0.000135818
-0.000148213
0.000100512
-9.78112e-05
7.39061e-05
6.43502e-05
-4.93254e-05
-2.50929e-05
0.000183961
-5.95443e-05
-2.02725e-05
0.000173065
-8.60481e-05
-2.71069e-05
0.000104802
-5.57843e-05
-3.20866e-05
7.57272e-05
7.19529e-05
-0.000110817
9.81788e-05
7.10716e-05
-5.90825e-05
4.18632e-05
4.19994e-05
-8.52939e-05
5.62854e-05
3.71594e-05
-4.76976e-05
-3.20334e-05
0.000127986
-5.33716e-05
-2.65922e-05
8.12015e-05
1.40545e-05
5.93127e-06
-1.747e-05
8.20357e-05
-4.51774e-05
-3.13181e-05
5.48537e-05
4.13021e-05
-9.07532e-05
6.96492e-05
4.57646e-05
-5.09369e-05
5.15883e-06
1.72388e-06
4.9753e-05
-6.07433e-05
3.95169e-05
2.63813e-05
-4.3382e-05
-2.59327e-05
9.42738e-05
-4.2946e-05
-2.37037e-05
5.46698e-05
-1.63705e-05
5.1333e-06
-1.94654e-05
-1.61472e-05
5.75106e-05
-3.93277e-05
-2.22585e-05
3.93284e-05
3.09492e-05
-7.0993e-05
5.07994e-05
2.99062e-05
-4.70863e-05
3.25238e-06
-1.4199e-05
4.52804e-06
2.33193e-05
-4.95441e-05
3.24487e-05
1.61832e-05
-3.47477e-05
-2.0391e-05
6.87182e-05
-3.53169e-05
-1.90198e-05
3.67043e-05
-1.70144e-05
-3.56257e-06
1.13655e-05
-4.64449e-05
-9.55987e-06
4.62821e-05
-2.94034e-05
-1.85596e-05
3.1473e-05
1.89e-05
-5.36209e-05
3.85913e-05
2.16709e-05
-3.84463e-05
1.17009e-06
1.05015e-06
-1.78005e-05
4.90996e-05
2.68488e-05
-3.52091e-05
2.38559e-05
1.27742e-05
-2.81017e-05
-1.38955e-05
5.36373e-05
-2.60872e-05
-1.54302e-05
2.95119e-05
-8.76903e-06
6.7804e-07
3.56941e-05
-2.24214e-05
-9.94258e-06
3.28764e-05
-2.4733e-05
-1.21795e-05
2.41693e-05
1.65311e-05
-4.10472e-05
3.06352e-05
1.85195e-05
-2.79005e-05
8.50545e-06
1.22846e-05
-8.72039e-06
9.57188e-05
9.5998e-06
1.16436e-05
-2.99894e-05
1.9728e-05
8.33902e-06
-2.15615e-05
-1.02169e-05
4.18761e-05
-1.97987e-05
-1.01983e-05
2.91684e-05
-9.76716e-07
7.07368e-06
4.90863e-05
-3.33237e-05
8.77107e-05
-7.66287e-06
2.57749e-05
-1.90019e-05
-1.01439e-05
2.01752e-05
1.1565e-05
-3.13881e-05
2.5787e-05
1.83016e-05
-1.81497e-05
1.29009e-05
1.61659e-05
-1.4058e-05
7.86705e-05
-5.2344e-05
1.00472e-05
-2.25846e-05
1.48985e-05
7.0842e-06
-1.69661e-05
-6.9534e-06
3.51673e-05
-1.42963e-05
-6.60329e-06
2.74999e-05
3.59424e-06
7.28293e-06
4.11918e-05
-4.28417e-05
6.06725e-05
-6.88359e-05
-1.36029e-06
2.11052e-05
-1.54522e-05
-6.32979e-06
1.59604e-05
1.1183e-05
-2.49135e-05
2.17099e-05
1.64292e-05
-1.29953e-05
1.24895e-05
1.37641e-05
-1.34563e-05
5.87622e-05
-4.05907e-05
3.58562e-05
9.01261e-06
-1.75596e-05
1.31677e-05
5.12773e-06
-1.30751e-05
-5.49857e-06
2.84e-05
-1.13453e-05
-5.15872e-06
2.39154e-05
3.13498e-06
5.58571e-06
3.12961e-05
-4.04585e-05
5.29009e-05
-2.38511e-05
-3.03374e-06
-2.8911e-06
1.72673e-05
-1.14374e-05
-5.32424e-06
1.33785e-05
8.06992e-06
-1.99102e-05
1.78157e-05
1.42555e-05
-1.07872e-05
1.0414e-05
1.02455e-05
-1.45776e-05
4.91265e-05
-3.92773e-05
5.42805e-05
-1.34995e-05
9.78631e-06
6.32452e-06
-1.31633e-05
1.03852e-05
4.61877e-06
-1.04816e-05
-4.16304e-06
2.37095e-05
-8.98226e-06
-4.60953e-06
1.95242e-05
2.39966e-06
2.39299e-06
2.44018e-05
-3.75651e-05
5.04654e-05
-3.64913e-05
4.64149e-05
-5.6396e-06
-2.765e-06
1.34589e-05
-9.19063e-06
-3.26325e-06
1.04872e-05
7.47708e-06
-1.64414e-05
1.43597e-05
1.13884e-05
-9.18261e-06
7.56201e-06
7.42759e-06
-1.42741e-05
3.92761e-05
-3.94416e-05
4.45621e-05
-4.02328e-05
7.16183e-06
4.8826e-06
-1.05687e-05
9.0096e-06
3.38686e-06
-8.37258e-06
-3.6454e-06
1.87645e-05
-7.60596e-06
-4.12654e-06
1.55552e-05
9.66209e-07
1.03311e-06
1.83667e-05
-2.95897e-05
3.98273e-05
-3.52036e-05
3.02284e-05
-2.91638e-05
-3.01006e-06
-1.97611e-06
1.10907e-05
-6.92395e-06
-3.01089e-06
8.59373e-06
5.11091e-06
-1.33578e-05
1.14281e-05
9.22826e-06
-7.9456e-06
5.59159e-06
5.13295e-06
-1.20304e-05
3.08879e-05
-3.22812e-05
3.19031e-05
-1.40716e-05
1.42554e-05
5.79374e-06
3.7649e-06
-7.99122e-06
7.00663e-06
2.8517e-06
-6.95519e-06
-2.96819e-06
1.53015e-05
-6.16064e-06
-3.65041e-06
1.20967e-05
3.59378e-07
-3.07626e-07
1.46086e-05
-2.56772e-05
3.10298e-05
-2.71628e-05
2.28126e-05
-1.45176e-05
-3.57662e-06
-1.3882e-06
8.76629e-06
-5.78314e-06
-1.97827e-06
6.56015e-06
4.48849e-06
-1.10482e-05
9.00411e-06
7.05072e-06
-6.74982e-06
3.69748e-06
3.5526e-06
-1.10707e-05
2.39187e-05
-2.59364e-05
2.75954e-05
-1.92518e-05
2.34934e-05
4.73312e-06
3.20274e-06
-6.51763e-06
5.93555e-06
1.95425e-06
-5.72542e-06
-2.6704e-06
1.18378e-05
-5.23734e-06
-3.18066e-06
9.29157e-06
-4.64241e-07
-9.75828e-07
1.07304e-05
-2.02691e-05
2.41524e-05
-2.2636e-05
2.70066e-05
-9.30436e-06
-1.67569e-06
-9.08658e-07
7.21774e-06
-4.48233e-06
-1.95206e-06
5.25584e-06
2.85424e-06
-8.94285e-06
7.0279e-06
5.5254e-06
-5.75654e-06
2.49484e-06
2.14305e-06
-9.3144e-06
1.81391e-05
-2.13969e-05
2.34103e-05
-1.79226e-05
1.57129e-05
2.0181e-05
4.01104e-06
2.47852e-06
-5.03003e-06
4.56592e-06
1.55582e-06
-4.83469e-06
-2.21555e-06
9.48122e-06
-4.22924e-06
-2.69763e-06
7.06135e-06
-6.90154e-07
-1.55054e-06
8.05644e-06
-1.74315e-05
1.81329e-05
-2.10972e-05
1.76818e-05
-1.36825e-06
7.31391e-06
-2.11506e-06
-6.42136e-07
5.69451e-06
-3.81747e-06
-1.35763e-06
3.92757e-06
2.43573e-06
-7.32618e-06
5.4851e-06
4.15188e-06
-4.73104e-06
1.497e-06
1.22236e-06
-8.37272e-06
1.33444e-05
-1.81719e-05
1.58566e-05
-1.80356e-05
1.40198e-05
-3.57149e-06
3.23048e-06
2.09351e-06
-4.15161e-06
3.81976e-06
9.94124e-07
-4.00834e-06
-1.96162e-06
7.23442e-06
-3.51231e-06
-2.1966e-06
5.37977e-06
-9.72574e-07
-1.67991e-06
5.43307e-06
-1.39771e-05
1.26417e-05
-1.81961e-05
1.41937e-05
-1.71797e-05
1.15482e-05
-9.84467e-07
-4.06431e-07
4.67783e-06
-2.98676e-06
-1.33776e-06
3.10601e-06
1.43087e-06
-5.8459e-06
4.27582e-06
3.25245e-06
-3.85001e-06
9.47164e-07
4.34585e-07
-6.92077e-06
9.30515e-06
-1.5035e-05
1.08988e-05
-1.84564e-05
1.00809e-05
-1.89977e-05
2.76314e-06
1.6085e-06
-3.22899e-06
2.93372e-06
7.67251e-07
-3.37629e-06
-1.60488e-06
5.73145e-06
-2.7563e-06
-1.73816e-06
4.05164e-06
-9.46198e-07
-1.7689e-06
3.68053e-06
-1.17598e-05
8.52994e-06
-1.47941e-05
9.51081e-06
-1.62647e-05
3.91326e-06
-1.80043e-05
-1.3136e-06
-2.74559e-07
3.69012e-06
-2.54371e-06
-9.52712e-07
2.28814e-06
1.2061e-06
-4.70716e-06
3.32288e-06
2.41488e-06
-3.06113e-06
4.51656e-07
-3.24257e-08
-5.95584e-06
6.27778e-06
-1.1942e-05
7.33245e-06
-1.37853e-05
5.59737e-06
-8.7281e-06
4.84714e-07
2.21479e-06
1.3648e-06
-2.66386e-06
2.44153e-06
4.49045e-07
-2.78488e-06
-1.38259e-06
4.30697e-06
-2.24321e-06
-1.35533e-06
3.01316e-06
-1.00963e-06
-1.64336e-06
2.16855e-06
-9.07074e-06
5.62588e-06
-1.09376e-05
6.3025e-06
-1.14826e-05
2.04997e-06
-8.56804e-06
-5.82137e-07
-1.43856e-07
3.03311e-06
-1.98909e-06
-9.13456e-07
1.79247e-06
6.15885e-07
-3.7019e-06
2.55807e-06
1.8427e-06
-2.43241e-06
2.03444e-07
-3.83313e-07
-4.70223e-06
4.10699e-06
-9.1302e-06
4.8422e-06
-1.02245e-05
4.63164e-06
-8.53729e-06
2.73104e-06
1.9198e-06
1.04956e-06
-2.07397e-06
1.87821e-06
3.34108e-07
-2.32996e-06
-1.11111e-06
3.35476e-06
-1.73424e-06
-1.03215e-06
2.21073e-06
-8.89754e-07
-1.48687e-06
1.30284e-06
-7.21724e-06
3.76235e-06
-8.41551e-06
4.62307e-06
-8.69558e-06
4.1547e-06
-5.80429e-06
-8.19035e-07
-7.60011e-08
2.39322e-06
-1.68781e-06
-6.5931e-07
1.30303e-06
5.08754e-07
-2.92896e-06
1.96378e-06
1.33182e-06
-1.871e-06
1.04942e-08
-5.02076e-07
-3.82673e-06
2.69857e-06
-6.96283e-06
3.4462e-06
-7.24875e-06
4.58232e-06
-5.81127e-06
2.8804e-06
-5.01583e-06
1.54121e-06
8.97182e-07
-1.70626e-06
1.55672e-06
1.62426e-07
-1.90568e-06
-9.28439e-07
2.47458e-06
-1.38113e-06
-7.56372e-07
1.62059e-06
-8.08775e-07
-1.23995e-06
6.50954e-07
-5.39197e-06
2.56169e-06
-5.94893e-06
3.57012e-06
-6.06611e-06
3.7735e-06
-3.62826e-06
5.75795e-07
-3.30564e-07
-4.83625e-09
1.96993e-06
-1.31672e-06
-6.11021e-07
1.01545e-06
1.83973e-07
-2.25847e-06
1.50444e-06
1.00811e-06
-1.41666e-06
-3.75391e-08
-5.52306e-07
-2.91643e-06
1.76879e-06
-5.16862e-06
2.561e-06
-5.11947e-06
3.81641e-06
-4.82207e-06
1.96966e-06
-3.78814e-06
1.35165e-06
6.90911e-07
-1.3271e-06
1.20179e-06
1.1459e-07
-1.57551e-06
-7.2464e-07
1.90127e-06
-1.03311e-06
-5.26079e-07
1.19356e-06
-6.40526e-07
-1.02825e-06
3.52347e-07
-4.20455e-06
1.8538e-06
-4.45499e-06
2.98085e-06
-4.23107e-06
3.32874e-06
-3.18127e-06
1.49441e-06
-5.05039e-07
2.71398e-08
1.55381e-06
-1.10923e-06
-4.40511e-07
7.32507e-07
1.53843e-07
-1.74441e-06
1.15854e-06
7.35864e-07
-1.03514e-06
-7.66898e-08
-5.02351e-07
-2.33061e-06
1.22746e-06
-3.92293e-06
2.1129e-06
-3.50087e-06
3.3588e-06
-3.27721e-06
2.02391e-06
-2.68766e-06
1.09085e-06
5.94607e-07
-1.08658e-06
9.92554e-07
2.94215e-08
-1.26922e-06
-5.85642e-07
1.38644e-06
-7.94101e-07
-3.47104e-07
8.9258e-07
-5.29915e-07
-8.21467e-07
1.31232e-07
-3.16147e-06
1.40799e-06
-3.121e-06
2.61775e-06
-2.8192e-06
3.08929e-06
-2.32867e-06
2.56188e-06
-1.73511e-07
6.4575e-08
1.28058e-06
-8.6033e-07
-3.91205e-07
5.68319e-07
-7.04829e-09
-1.31601e-06
8.94116e-07
5.75458e-07
-7.51105e-07
-5.9554e-08
-4.57195e-07
-1.79329e-06
8.34632e-07
-2.93956e-06
1.71611e-06
-2.47099e-06
2.98231e-06
-2.37531e-06
3.06024e-06
-2.32152e-06
9.65052e-07
4.59058e-07
-8.41243e-07
7.70045e-07
1.64467e-08
-1.03261e-06
-4.45049e-07
1.05726e-06
-5.6766e-07
-2.15115e-07
6.79225e-07
-4.00002e-07
-6.72478e-07
2.02969e-08
-2.50351e-06
1.02589e-06
-2.39448e-06
2.16716e-06
-2.03646e-06
3.14584e-06
-1.935e-06
2.70467e-06
-2.7858e-06
-3.03831e-07
7.82046e-08
1.00905e-06
-7.16466e-07
-2.77964e-07
4.06088e-07
1.40207e-09
-9.89992e-07
6.88952e-07
4.41346e-07
-5.2998e-07
-6.10133e-08
-4.04701e-07
-1.44544e-06
5.21616e-07
-2.27836e-06
1.30123e-06
-1.80025e-06
2.48794e-06
-1.83727e-06
2.66161e-06
-1.23433e-06
1.4091e-06
7.86647e-07
3.9651e-07
-6.82574e-07
6.33787e-07
-2.232e-08
-8.1495e-07
-3.4752e-07
7.56712e-07
-4.14529e-07
-1.27309e-07
5.17719e-07
-3.29441e-07
-5.364e-07
-1.06571e-07
-1.90986e-06
6.8064e-07
-1.75117e-06
1.64649e-06
-1.48792e-06
2.58563e-06
-1.62224e-06
1.60252e-06
-1.45992e-06
-8.54642e-08
9.56143e-08
8.31791e-07
-5.52559e-07
-2.33917e-07
3.1232e-07
-7.25263e-08
-7.22645e-07
5.15792e-07
3.52518e-07
-3.77241e-07
-5.21785e-08
-3.80512e-07
-1.12142e-06
2.86272e-07
-1.69609e-06
9.10176e-07
-1.34929e-06
1.9222e-06
-1.46298e-06
2.14205e-06
-1.12747e-06
1.22556e-06
6.96447e-07
3.06414e-07
-5.25576e-07
4.96282e-07
-2.10285e-08
-6.4451e-07
-2.5198e-07
5.47803e-07
-2.78756e-07
-7.48126e-08
3.78116e-07
-2.66218e-07
-4.43208e-07
-1.57689e-07
-1.4536e-06
4.40857e-07
-1.30416e-06
1.21816e-06
-1.17374e-06
2.04562e-06
-1.25554e-06
1.21105e-06
-1.12467e-06
-1.88077e-07
9.41619e-08
6.49425e-07
-4.49136e-07
-1.57099e-07
2.1679e-07
-6.51702e-08
-5.23534e-07
3.69304e-07
2.56334e-07
-2.69723e-07
-7.14829e-08
-3.44357e-07
-8.73672e-07
1.54888e-07
-1.24564e-06
6.7079e-07
-1.0285e-06
1.51516e-06
-1.08989e-06
1.54721e-06
-8.02157e-07
8.98845e-07
5.62117e-07
2.61606e-07
-4.16397e-07
3.99764e-07
-3.37629e-08
-5.02206e-07
-1.86907e-07
3.57208e-07
-2.00551e-07
-4.5016e-08
2.53971e-07
-2.32728e-07
-3.65141e-07
-1.78072e-07
-1.08466e-06
3.12865e-07
-9.62666e-07
9.64917e-07
-8.37867e-07
1.4764e-06
-8.55699e-07
6.90444e-07
-9.82036e-07
-4.20919e-08
9.62766e-08
5.20729e-07
-3.36497e-07
-1.35998e-07
1.66728e-07
-1.06183e-07
-3.72922e-07
2.69292e-07
1.80442e-07
-2.04221e-07
-8.27133e-08
-3.08137e-07
-6.83161e-07
5.84549e-08
-9.34832e-07
4.76344e-07
-7.33391e-07
1.1101e-06
-7.11949e-07
8.28551e-07
-8.88627e-07
6.31259e-07
4.76378e-07
1.7925e-07
-3.40765e-07
2.89143e-07
-4.64249e-08
-4.16383e-07
-1.23536e-07
2.61605e-07
-1.45692e-07
-3.17904e-08
1.61936e-07
-1.98733e-07
-3.05217e-07
-2.09043e-07
-8.44589e-07
1.10919e-07
-7.26504e-07
6.40772e-07
-5.57598e-07
8.5661e-07
-6.64171e-07
6.49844e-07
-7.3286e-07
8.86553e-07
-1.31023e-07
9.98405e-08
4.06729e-07
-2.99126e-07
-7.68561e-08
1.53518e-07
-9.39187e-08
-2.93554e-07
1.96252e-07
1.39329e-07
-1.30877e-07
-7.45298e-08
-2.94318e-07
-5.32258e-07
-1.02339e-07
-7.17128e-07
1.88778e-07
-5.16037e-07
6.30349e-07
-2.18989e-07
7.79061e-07
-6.33226e-07
7.09475e-07
-4.32774e-07
3.80913e-07
6.24236e-08
-2.92172e-07
2.64177e-07
-8.7539e-08
-3.53608e-07
-8.20485e-08
1.88656e-07
-9.97144e-08
-3.79825e-08
9.50294e-08
-1.68533e-07
-2.04171e-07
-2.39441e-07
-5.82978e-07
-1.11999e-07
-4.89304e-07
2.78563e-07
-1.06764e-07
5.37692e-07
-1.89021e-07
8.15589e-07
-6.43847e-07
8.88174e-07
-3.97142e-08
2.05799e-07
3.82366e-07
-3.18298e-07
-3.74138e-08
1.68874e-07
-1.07837e-07
-2.26411e-07
1.04725e-07
8.98514e-08
-8.01478e-08
-3.90452e-08
-2.19559e-07
-3.08466e-07
-2.47405e-07
-4.5556e-07
-8.95991e-08
-2.71904e-07
3.33379e-07
3.66228e-07
6.64699e-07
-6.90871e-07
6.81256e-07
-2.8725e-07
4.10878e-07
8.693e-08
-2.58472e-07
2.65485e-07
-4.6279e-08
-3.07846e-07
-5.34874e-08
1.34836e-07
-6.24635e-08
-1.53719e-08
3.39079e-08
-1.06075e-07
-9.30309e-08
-2.35081e-07
-2.86516e-07
-2.98962e-07
-2.4855e-07
5.73757e-08
1.56057e-07
3.38925e-07
-4.98878e-08
4.91903e-07
-4.16791e-07
6.82372e-07
2.1506e-08
1.5106e-07
2.92203e-07
-2.27522e-07
-4.27172e-08
1.45297e-07
-5.12242e-08
-1.47888e-07
7.21566e-08
2.0151e-08
-3.49065e-08
-3.77631e-09
-1.55531e-07
-7.74282e-08
-3.59453e-07
-1.28842e-07
-2.5265e-07
1.71673e-08
1.0423e-07
3.48369e-07
2.58425e-07
-4.25171e-07
3.28579e-07
-7.51674e-08
3.17639e-07
1.38528e-07
-1.71275e-07
1.93542e-07
-2.53817e-09
-2.03637e-07
-2.38062e-08
7.51168e-08
-5.47175e-08
2.15233e-08
-3.19868e-09
-6.03106e-08
5.3478e-08
-2.72882e-07
3.944e-08
-4.69094e-07
5.92145e-08
-1.73141e-07
3.78807e-07
7.58382e-08
1.67075e-07
-4.40117e-08
-7.28514e-08
4.58614e-07
1.05176e-07
1.00536e-07
2.23373e-07
-1.38661e-07
-4.85424e-08
1.22801e-07
-3.89613e-08
-7.78435e-08
4.58532e-08
-4.62834e-08
2.65258e-08
4.847e-08
-1.25484e-07
1.58459e-07
-5.1136e-07
1.82753e-07
-4.55745e-07
3.51271e-07
-1.97567e-07
7.10053e-07
-8.16727e-08
6.19934e-08
-5.82382e-08
4.74893e-07
2.61411e-07
1.47884e-07
-7.40969e-08
1.27618e-07
3.86113e-08
-1.2453e-07
9.77571e-09
2.60859e-08
-3.61284e-08
9.12052e-08
-5.22057e-08
2.85563e-09
1.7512e-07
-3.52719e-07
3.09524e-07
-6.46456e-07
3.71956e-07
-5.30072e-07
7.7218e-07
2.23496e-07
4.36722e-07
-4.5442e-07
3.5932e-07
-1.232e-07
1.23413e-07
8.2978e-08
1.58822e-07
-5.61092e-08
-3.29215e-08
9.77732e-08
-1.81692e-08
2.44836e-08
5.14311e-08
-1.04551e-07
1.40305e-07
7.8367e-08
-1.41099e-07
3.14449e-07
-6.76072e-07
4.48036e-07
-7.38531e-07
6.28257e-07
3.79718e-07
7.27084e-07
-3.9957e-07
2.14801e-07
-8.40904e-07
1.39019e-06
1.95816e-07
1.62916e-07
-1.22195e-08
7.04349e-08
4.71064e-08
-4.07669e-08
7.92312e-08
-5.23987e-09
8.37247e-09
1.75816e-07
-1.11442e-07
3.73785e-08
2.26601e-07
-4.67709e-07
5.55151e-07
-8.615e-07
6.00045e-07
2.83571e-07
8.7574e-07
-1.77701e-07
3.25784e-07
-1.32456e-06
3.71338e-07
-4.58363e-07
1.76184e-06
1.25579e-07
5.28871e-08
8.68632e-08
-1.1608e-08
-9.05557e-09
7.52786e-08
1.50635e-09
1.33606e-07
5.65682e-08
-1.32404e-07
2.73584e-07
4.14216e-08
-2.20111e-07
4.55508e-07
-9.49667e-07
7.3977e-07
1.56991e-07
1.01746e-06
-2.50137e-07
7.4098e-07
-1.76623e-06
3.3009e-07
-1.04741e-06
5.01285e-07
2.47761e-07
1.76641e-07
1.05033e-07
2.43429e-08
2.75981e-08
3.54595e-08
3.77127e-08
1.29275e-07
8.22013e-09
1.01724e-07
1.90846e-07
-1.73797e-07
5.74496e-08
1.83378e-07
-7.93993e-07
8.04046e-07
2.81305e-08
1.11905e-06
-2.89971e-07
1.04743e-06
-1.81808e-06
7.19288e-07
-1.99534e-06
7.05915e-07
-7.60156e-07
1.75637e-06
-1.8777e-07
3.77486e-08
5.73983e-08
3.89502e-08
6.45598e-08
7.35235e-08
8.60755e-08
2.90805e-07
-4.36226e-08
4.54981e-08
4.09404e-07
3.06647e-07
-1.35917e-07
7.46003e-07
1.11433e-07
1.2165e-06
1.34944e-07
1.33873e-06
-1.14807e-06
1.33441e-06
-1.33393e-06
1.48672e-06
-9.09292e-07
1.45408e-06
-1.01989e-07
2.23987e-07
7.46442e-08
6.10928e-08
7.14245e-08
5.78984e-08
1.10309e-07
2.6241e-07
-3.93804e-08
2.18684e-07
3.60331e-07
5.32611e-07
4.10814e-07
6.1683e-07
3.73357e-07
1.03235e-06
6.13486e-07
1.24109e-06
-3.54292e-08
1.59815e-06
2.21821e-07
2.29698e-06
1.77359e-07
2.87404e-06
5.35439e-07
3.83571e-06
-4.17986e-08
2.45545e-08
2.11598e-08
2.12341e-08
3.67864e-08
7.86279e-08
9.90665e-09
9.53992e-08
1.16031e-07
1.51048e-07
2.92281e-07
2.23853e-07
2.13676e-07
3.78241e-07
3.53987e-07
4.94081e-07
2.58355e-07
7.52007e-07
5.55372e-07
1.26702e-06
9.0727e-07
2.11827e-06
1.79681e-06
2.5219e-06
2.66708e-06
)
;

boundaryField
{
    inlet
    {
        type            extrapolatedCalculated;
        value           nonuniform List<scalar> 
25
(
-4.17986e-08
2.45545e-08
2.11598e-08
2.12341e-08
3.67864e-08
7.86279e-08
9.90665e-09
9.53992e-08
1.16031e-07
1.51048e-07
2.92281e-07
2.23853e-07
2.13676e-07
3.78241e-07
3.53987e-07
4.94081e-07
2.58355e-07
7.52007e-07
5.55372e-07
1.26702e-06
9.0727e-07
2.11827e-06
1.79681e-06
2.5219e-06
2.66708e-06
)
;
    }
    outlet
    {
        type            extrapolatedCalculated;
        value           nonuniform List<scalar> 0();
    }
    walls
    {
        type            extrapolatedCalculated;
        value           nonuniform List<scalar> 0();
    }
    frontAndBack
    {
        type            empty;
    }
    procBoundary4to0
    {
        type            processor;
        value           nonuniform List<scalar> 
72
(
0.000378215
0.000499054
0.000184435
0.000247725
6.43205e-05
0.000168337
-1.00503e-06
5.79528e-05
-8.08231e-06
6.70335e-05
-1.0686e-05
2.63011e-05
-7.2874e-06
3.54024e-05
-5.58891e-06
1.5526e-05
-4.8799e-06
1.57952e-05
-5.293e-06
1.31809e-06
-2.99682e-06
1.08172e-05
1.08172e-05
6.84185e-06
-3.17013e-06
7.71523e-06
-3.5883e-06
3.73505e-06
-2.57698e-06
4.74613e-06
-2.03623e-06
2.49417e-06
-1.52457e-06
3.08146e-06
-1.22601e-06
1.61914e-06
-9.88873e-07
1.99603e-06
-7.86076e-07
1.03918e-06
-6.55101e-07
1.31217e-06
-5.05226e-07
6.78428e-07
-4.26084e-07
8.86258e-07
-3.15494e-07
4.5951e-07
-2.65694e-07
6.1532e-07
-1.92448e-07
3.21291e-07
-1.73721e-07
4.22093e-07
-1.35456e-07
2.0102e-07
-9.62701e-08
2.12709e-07
-2.17764e-08
1.3041e-07
2.81109e-08
2.06153e-07
5.48366e-08
1.77916e-07
4.93242e-08
2.01731e-07
5.42349e-08
1.49781e-07
-1.59649e-07
3.59862e-07
-3.10633e-07
2.47503e-08
)
;
    }
    procBoundary4to5
    {
        type            processor;
        value           nonuniform List<scalar> 
95
(
0.000353964
-8.59851e-05
0.00034714
0.000246624
0.000246624
0.000232879
0.00024478
0.00024478
0.000253642
0.000452224
0.000452224
0.000305421
0.000305421
3.54823e-05
0.000276156
0.000276156
0.000250321
0.000250321
0.000118053
4.54016e-05
4.54016e-05
3.21981e-05
1.41176e-05
1.41176e-05
1.76091e-05
1.83772e-05
1.83772e-05
2.17923e-05
9.21549e-06
9.7825e-05
9.7825e-05
0.000107762
-2.94845e-05
7.12168e-05
7.12168e-05
2.3041e-05
-6.4309e-06
4.79609e-05
4.79609e-05
5.40333e-05
-3.30688e-05
3.84712e-05
3.84712e-05
2.36543e-05
-5.00581e-06
1.57205e-05
-1.42263e-06
1.54158e-05
1.54158e-05
8.40799e-06
1.95072e-05
1.50205e-05
-1.66916e-05
4.67601e-06
4.67601e-06
1.18093e-06
-8.70489e-06
-7.01555e-08
-8.62188e-06
1.46841e-06
1.46841e-06
5.42682e-07
-3.63287e-06
1.85417e-07
-3.13929e-06
1.14233e-06
-2.38877e-06
2.81445e-06
2.81445e-06
1.77429e-06
-1.16865e-06
8.92053e-07
-9.96678e-07
7.58818e-07
-6.8751e-07
5.62035e-07
-9.352e-07
-9.352e-07
-5.7356e-07
6.98388e-07
-2.58326e-07
7.41872e-07
6.31417e-08
6.25637e-07
4.04522e-07
3.65006e-07
1.24078e-06
-6.76481e-07
-6.76481e-07
2.02452e-07
1.25431e-06
4.78973e-07
2.14599e-06
1.88418e-06
5.42073e-06
)
;
    }
}


// ************************************************************************* //
