/*--------------------------------*- C++ -*----------------------------------*\
| =========                 |                                                 |
| \\      /  F ield         | OpenFOAM: The Open Source CFD Toolbox           |
|  \\    /   O peration     | Version:  2506                                  |
|   \\  /    A nd           | Website:  www.openfoam.com                      |
|    \\/     M anipulation  |                                                 |
\*---------------------------------------------------------------------------*/
FoamFile
{
    version     2.0;
    format      ascii;
    arch        "LSB;label=32;scalar=64";
    class       volSymmTensorField;
    location    "150";
    object      turbulenceProperties:devReff;
}
// * * * * * * * * * * * * * * * * * * * * * * * * * * * * * * * * * * * * * //

dimensions      [0 2 -2 0 0 0 0];

internalField   nonuniform List<symmTensor> 
1340
(
(7.19777e-05 -8.70725e-05 3.60325e-21 -7.20245e-05 4.15413e-22 4.68319e-08)
(5.63833e-05 -9.89037e-05 5.43302e-20 -5.6361e-05 4.24036e-20 -2.22842e-08)
(3.83445e-05 -0.000107865 -2.27599e-20 -3.83475e-05 -1.59538e-20 3.06009e-09)
(6.04652e-05 -7.4529e-05 1.57549e-20 -6.05077e-05 1.13506e-20 4.25232e-08)
(4.73579e-05 -8.44799e-05 -1.21155e-20 -4.73547e-05 -8.62305e-21 -3.15378e-09)
(3.22061e-05 -9.20814e-05 -3.52676e-20 -3.22235e-05 -2.37473e-20 1.74179e-08)
(1.59819e-05 -9.67104e-05 2.32212e-19 -1.60058e-05 1.6489e-19 2.39082e-08)
(-1.42484e-06 -9.82053e-05 -5.37123e-20 1.41475e-06 -3.9695e-20 1.00939e-08)
(5.10769e-05 -6.42469e-05 6.56213e-21 -5.11032e-05 5.08215e-21 2.63786e-08)
(3.99569e-05 -7.26713e-05 -2.66533e-20 -3.995e-05 -1.62948e-20 -6.89589e-09)
(2.71075e-05 -7.91434e-05 -1.16751e-19 -2.7117e-05 -7.56957e-20 9.46955e-09)
(1.33778e-05 -8.31529e-05 -1.17375e-20 -1.33853e-05 -1.10943e-20 7.47401e-09)
(-1.37278e-06 -8.45753e-05 -1.64904e-20 1.37697e-06 -6.38518e-21 -4.187e-09)
(-1.61913e-05 -8.31617e-05 1.51421e-19 1.61848e-05 9.44406e-20 6.51102e-09)
(-3.02865e-05 -7.89652e-05 2.32478e-20 3.0271e-05 2.33387e-20 1.55306e-08)
(4.33338e-05 -5.57061e-05 -1.48175e-20 -4.33526e-05 -7.35254e-21 1.87813e-08)
(3.3815e-05 -6.28716e-05 -8.85524e-20 -3.38106e-05 -5.44215e-20 -4.33934e-09)
(2.2836e-05 -6.83939e-05 3.56922e-20 -2.28445e-05 2.31559e-20 8.53186e-09)
(1.11282e-05 -7.18495e-05 2.61324e-20 -1.11349e-05 1.55306e-20 6.6985e-09)
(-1.46313e-06 -7.31474e-05 1.07195e-19 1.46359e-06 6.48455e-20 -4.61229e-10)
(-1.41307e-05 -7.2082e-05 -1.5503e-19 1.41231e-05 -1.02135e-19 7.64938e-09)
(-2.62448e-05 -6.86796e-05 1.98057e-19 2.62317e-05 9.92571e-20 1.31115e-08)
(-3.7498e-05 -6.30464e-05 -5.11992e-19 3.7486e-05 -2.80012e-19 1.19082e-08)
(3.69087e-05 -4.85444e-05 2.5472e-20 -3.69223e-05 1.45992e-20 1.36051e-08)
(2.87018e-05 -5.46662e-05 2.32204e-20 -2.86974e-05 1.39066e-20 -4.3643e-09)
(1.92552e-05 -5.93888e-05 7.33549e-21 -1.92625e-05 5.95707e-21 7.2294e-09)
(9.20299e-06 -6.23641e-05 -1.27465e-20 -9.20558e-06 -8.08722e-21 2.5885e-09)
(-1.60817e-06 -6.35258e-05 9.56405e-20 1.61169e-06 5.00807e-20 -3.5158e-09)
(-1.2498e-05 -6.26933e-05 -8.09466e-20 1.24934e-05 -4.4876e-20 4.61402e-09)
(-2.29479e-05 -5.98958e-05 -2.57916e-19 2.29391e-05 -1.45969e-19 8.77577e-09)
(-3.26953e-05 -5.52049e-05 2.75195e-19 3.26945e-05 1.84284e-19 7.88066e-10)
(-4.13139e-05 -4.88679e-05 9.18795e-20 4.12997e-05 5.65851e-20 1.41943e-08)
(3.15389e-05 -4.24877e-05 -4.52458e-21 -3.15498e-05 -1.06143e-21 1.09047e-08)
(2.44204e-05 -4.77359e-05 -1.2151e-20 -2.44164e-05 -5.80505e-21 -4.02666e-09)
(1.62426e-05 -5.17817e-05 -4.98064e-20 -1.625e-05 -2.60195e-20 7.43903e-09)
(7.55906e-06 -5.43404e-05 2.37479e-20 -7.56018e-06 1.01397e-20 1.12117e-09)
(-1.77241e-06 -5.53604e-05 -7.53672e-20 1.77556e-06 -4.35318e-20 -3.14798e-09)
(-1.11798e-05 -5.46868e-05 1.74287e-19 1.11749e-05 9.72899e-20 4.97486e-09)
(-2.02214e-05 -5.23497e-05 -8.64765e-21 2.02144e-05 1.64189e-20 6.93577e-09)
(-2.86936e-05 -4.84066e-05 9.45145e-20 2.86926e-05 1.94659e-20 1.05374e-09)
(-3.62229e-05 -4.30582e-05 7.45461e-20 3.62149e-05 1.91826e-20 8.0275e-09)
(2.7028e-05 -3.73276e-05 -5.29984e-20 -2.70349e-05 -2.83668e-20 6.85067e-09)
(2.08216e-05 -4.18389e-05 8.11764e-20 -2.08186e-05 4.15912e-20 -2.97139e-09)
(1.3702e-05 -4.53122e-05 -6.03011e-20 -1.37088e-05 -2.95622e-20 6.81066e-09)
(6.16563e-06 -4.75116e-05 3.42086e-20 -6.16405e-06 1.26585e-20 -1.58227e-09)
(-1.9263e-06 -4.83944e-05 -2.00139e-19 1.92867e-06 -9.69673e-20 -2.3659e-09)
(-1.00869e-05 -4.78318e-05 1.0849e-19 1.00843e-05 4.85314e-20 2.51002e-09)
(-1.79404e-05 -4.58514e-05 2.72187e-19 1.79365e-05 1.25624e-19 3.9223e-09)
(-2.53209e-05 -4.2505e-05 -3.85342e-19 2.53205e-05 -1.94052e-19 4.73295e-10)
(-3.19173e-05 -3.79461e-05 -1.89933e-19 3.19139e-05 -8.29335e-20 3.3921e-09)
(-3.75514e-05 -3.23357e-05 1.58921e-19 3.75448e-05 6.41534e-20 6.62729e-09)
(2.32188e-05 -3.2902e-05 2.71091e-20 -2.32229e-05 1.25682e-20 4.10452e-09)
(1.77808e-05 -3.67887e-05 1.37736e-20 -1.77797e-05 7.79196e-21 -1.12524e-09)
(1.1555e-05 -3.97778e-05 4.03379e-20 -1.15601e-05 1.96746e-20 5.17916e-09)
(4.98576e-06 -4.16651e-05 -1.1585e-19 -4.98492e-06 -5.58666e-20 -8.38888e-10)
(-2.06272e-06 -4.24196e-05 2.18597e-19 2.06523e-06 1.06705e-19 -2.51181e-09)
(-9.16957e-06 -4.19335e-05 -4.10126e-19 9.16721e-06 -1.92317e-19 2.3525e-09)
(-1.60092e-05 -4.0236e-05 -1.71525e-19 1.60065e-05 -7.94127e-20 2.78089e-09)
(-2.24535e-05 -3.73642e-05 2.18705e-19 2.24536e-05 1.24297e-19 -8.21018e-11)
(-2.82428e-05 -3.34542e-05 1.12386e-19 2.8239e-05 5.4525e-20 3.78397e-09)
(-3.32065e-05 -2.86343e-05 -1.03997e-19 3.32043e-05 -6.20655e-20 2.22242e-09)
(-3.72499e-05 -2.30292e-05 -2.92135e-20 3.72441e-05 -1.16276e-20 5.77971e-09)
(1.99904e-05 -2.90815e-05 -2.84364e-20 -1.99931e-05 -1.20291e-20 2.70818e-09)
(1.52044e-05 -3.244e-05 -2.15122e-20 -1.52035e-05 -1.1111e-20 -9.21792e-10)
(9.7408e-06 -3.50155e-05 6.966e-20 -9.74554e-06 3.19541e-20 4.74169e-09)
(3.98984e-06 -3.66331e-05 1.70816e-20 -3.98825e-06 8.51841e-21 -1.58883e-09)
(-2.17183e-06 -3.72727e-05 9.90969e-20 2.17381e-06 4.47244e-20 -1.98621e-09)
(-8.38067e-06 -3.68399e-05 5.82927e-19 8.37867e-06 2.76798e-19 2.00352e-09)
(-1.43575e-05 -3.53651e-05 1.00902e-19 1.43548e-05 4.5496e-20 2.68038e-09)
(-1.99959e-05 -3.28823e-05 9.71617e-20 1.99966e-05 2.87941e-20 -6.80796e-10)
(-2.5075e-05 -2.95077e-05 -7.90806e-20 2.5073e-05 -3.6221e-20 1.95895e-09)
(-2.94646e-05 -2.53411e-05 -6.91204e-20 2.94626e-05 -2.48923e-20 1.99721e-09)
(-3.30619e-05 -2.04988e-05 -5.98522e-20 3.30599e-05 -2.31919e-20 1.98766e-09)
(1.72408e-05 -2.5768e-05 2.32265e-20 -1.7243e-05 8.92356e-21 2.2648e-09)
(1.30148e-05 -2.86774e-05 7.47694e-20 -1.30132e-05 3.25722e-20 -1.57287e-09)
(8.20313e-06 -3.08974e-05 7.81202e-20 -8.20827e-06 3.4518e-20 5.13658e-09)
(3.15169e-06 -3.22849e-05 -1.16507e-19 -3.14945e-06 -5.29314e-20 -2.23594e-09)
(-2.25203e-06 -3.28194e-05 -1.94971e-19 2.25382e-06 -8.98515e-20 -1.79827e-09)
(-7.69282e-06 -3.24259e-05 -1.30024e-19 7.69158e-06 -7.12534e-20 1.23818e-09)
(-1.2929e-05 -3.1131e-05 -1.33892e-19 1.29273e-05 -5.59208e-20 1.74304e-09)
(-1.78739e-05 -2.89666e-05 -7.79334e-20 1.78747e-05 -4.0404e-20 -8.0557e-10)
(-2.23386e-05 -2.60325e-05 1.27875e-19 2.2337e-05 5.84924e-20 1.58335e-09)
(-2.62137e-05 -2.24175e-05 -5.75854e-21 2.62124e-05 -2.85075e-21 1.27241e-09)
(-2.94123e-05 -1.82049e-05 2.45862e-20 2.94112e-05 1.21885e-20 1.02882e-09)
(-3.18551e-05 -1.35236e-05 -6.65283e-20 3.18502e-05 -2.99447e-20 4.93479e-09)
(1.48912e-05 -2.28823e-05 -8.88247e-21 -1.48923e-05 -2.63872e-21 1.06505e-09)
(1.11491e-05 -2.54059e-05 -7.14541e-20 -1.11488e-05 -3.0169e-20 -3.47253e-10)
(6.89859e-06 -2.73226e-05 -8.14794e-20 -6.90293e-06 -3.55574e-20 4.33915e-09)
(2.44791e-06 -2.851e-05 -1.58455e-20 -2.44575e-06 -4.25619e-21 -2.15567e-09)
(-2.3054e-06 -2.8953e-05 6.24664e-20 2.30704e-06 2.67325e-20 -1.6404e-09)
(-7.08629e-06 -2.85864e-05 -4.86594e-20 7.08468e-06 -1.91932e-20 1.61143e-09)
(-1.16854e-05 -2.74388e-05 2.27537e-19 1.16845e-05 9.84714e-20 8.99148e-10)
(-1.60285e-05 -2.55394e-05 -1.74392e-19 1.60292e-05 -7.03745e-20 -7.50296e-10)
(-1.99559e-05 -2.29753e-05 -2.36043e-20 1.99547e-05 -1.57442e-20 1.21544e-09)
(-2.33758e-05 -1.98213e-05 -6.36014e-20 2.33755e-05 -1.14062e-20 3.96855e-10)
(-2.62215e-05 -1.61478e-05 6.63025e-20 2.62221e-05 4.85455e-21 -5.88182e-10)
(-2.84115e-05 -1.2067e-05 -1.1973e-19 2.84104e-05 -2.65526e-20 1.12902e-09)
(1.28791e-05 -2.03583e-05 -4.41421e-20 -1.28795e-05 -1.76865e-20 4.15413e-10)
(9.55628e-06 -2.25508e-05 3.87201e-20 -9.55572e-06 1.48988e-20 -5.57761e-10)
(5.79114e-06 -2.42069e-05 -1.31152e-20 -5.7955e-06 -4.92721e-21 4.35409e-09)
(1.85892e-06 -2.5222e-05 -2.93143e-20 -1.85664e-06 -1.02542e-20 -2.28343e-09)
(-2.33303e-06 -2.55836e-05 -9.76316e-20 2.33414e-06 -4.06563e-20 -1.11134e-09)
(-6.54488e-06 -2.52372e-05 -7.73093e-20 6.54354e-06 -2.82523e-20 1.34342e-09)
(-1.05922e-05 -2.42124e-05 1.00067e-19 1.05913e-05 3.8806e-20 9.08688e-10)
(-1.44143e-05 -2.25343e-05 5.07162e-20 1.44146e-05 2.53245e-20 -3.09921e-10)
(-1.78739e-05 -2.02804e-05 -8.14706e-20 1.78725e-05 -3.02804e-20 1.42762e-09)
(-2.08941e-05 -1.75164e-05 2.81548e-19 2.08934e-05 1.06352e-19 6.74456e-10)
(-2.34203e-05 -1.43022e-05 -3.55251e-19 2.34202e-05 -1.32157e-19 7.59077e-11)
(-2.53812e-05 -1.07231e-05 3.62572e-19 2.53807e-05 1.31084e-19 4.82217e-10)
(-2.67384e-05 -6.85996e-06 -3.12492e-19 2.67353e-05 -7.59246e-20 3.06069e-09)
(1.11501e-05 -1.81429e-05 -2.83414e-21 -1.11499e-05 -1.11294e-21 -1.97411e-10)
(8.19325e-06 -2.00509e-05 -5.43525e-20 -8.19298e-06 -2.05201e-20 -2.70155e-10)
(4.85055e-06 -2.14816e-05 1.02519e-20 -4.85453e-06 4.47823e-21 3.98428e-09)
(1.36839e-06 -2.23485e-05 4.26003e-20 -1.3657e-06 1.73889e-20 -2.68959e-09)
(-2.33768e-06 -2.2639e-05 3.73635e-20 2.33856e-06 1.6042e-20 -8.76999e-10)
(-6.05625e-06 -2.23086e-05 1.26324e-19 6.05509e-06 5.26542e-20 1.15686e-09)
(-9.6241e-06 -2.13869e-05 1.9653e-19 9.62366e-06 6.73537e-20 4.39222e-10)
(-1.29923e-05 -1.98967e-05 8.73813e-20 1.29931e-05 2.64484e-20 -8.70453e-10)
(-1.60425e-05 -1.7907e-05 -1.10797e-19 1.60417e-05 -3.1153e-20 8.1077e-10)
(-1.87102e-05 -1.54744e-05 -5.21314e-21 1.87099e-05 -1.55799e-20 3.70373e-10)
(-2.09501e-05 -1.26503e-05 1.68509e-20 2.09501e-05 3.59495e-20 3.18733e-11)
(-2.27049e-05 -9.50795e-06 -8.92559e-20 2.27049e-05 -5.52524e-20 -3.71309e-11)
(-2.39328e-05 -6.11523e-06 3.13951e-19 2.39312e-05 1.25346e-19 1.64242e-09)
(9.66205e-06 -1.61924e-05 1.19457e-20 -9.66139e-06 5.11723e-21 -6.54878e-10)
(7.02515e-06 -1.78541e-05 -9.18449e-20 -7.02509e-06 -3.3017e-20 -5.98656e-11)
(4.04975e-06 -1.90913e-05 9.23288e-20 -4.0535e-06 3.39289e-20 3.75161e-09)
(9.60356e-07 -1.98297e-05 -5.27436e-20 -9.58043e-07 -1.99728e-20 -2.31291e-09)
(-2.3231e-06 -2.00582e-05 -4.98398e-20 2.3238e-06 -1.90747e-20 -6.9156e-10)
(-5.61196e-06 -1.97414e-05 1.37454e-19 5.61107e-06 4.79465e-20 8.90187e-10)
(-8.76351e-06 -1.89071e-05 -1.81575e-19 8.76282e-06 -7.84499e-20 6.93725e-10)
(-1.17359e-05 -1.75769e-05 -5.40427e-20 1.17365e-05 -1.89395e-20 -5.93522e-10)
(-1.4427e-05 -1.58127e-05 2.84073e-19 1.44264e-05 9.5318e-20 5.79447e-10)
(-1.67835e-05 -1.36649e-05 -1.08395e-19 1.67836e-05 -4.01573e-20 -8.12156e-11)
(-1.87681e-05 -1.11759e-05 3.74158e-19 1.87688e-05 1.10634e-19 -6.54795e-10)
(-2.03342e-05 -8.40962e-06 -2.01354e-19 2.03341e-05 -5.97449e-20 8.71069e-11)
(-2.14411e-05 -5.41748e-06 3.00218e-20 2.14414e-05 -3.17593e-20 -2.71057e-10)
(-2.20672e-05 -2.25886e-06 4.60792e-20 2.20654e-05 1.2871e-20 1.84744e-09)
(8.37814e-06 -1.44704e-05 3.79551e-20 -8.37755e-06 1.36957e-20 -5.9319e-10)
(6.0226e-06 -1.59189e-05 -5.16658e-20 -6.02279e-06 -1.73992e-20 1.90046e-10)
(3.36972e-06 -1.69888e-05 -1.2365e-20 -3.37276e-06 -5.12113e-21 3.0385e-09)
(6.23016e-07 -1.76156e-05 -8.6329e-20 -6.21212e-07 -3.1482e-20 -1.80329e-09)
(-2.29148e-06 -1.77912e-05 -1.32515e-19 2.29217e-06 -4.39503e-20 -6.88279e-10)
(-5.20509e-06 -1.74861e-05 1.26096e-19 5.20391e-06 3.69936e-20 1.18459e-09)
(-7.99232e-06 -1.67274e-05 -2.22199e-19 7.992e-06 -7.30415e-20 3.19458e-10)
(-1.06187e-05 -1.5535e-05 -1.04378e-19 1.0619e-05 -3.62212e-20 -2.84893e-10)
(-1.2996e-05 -1.39643e-05 -2.89527e-19 1.29952e-05 -1.02076e-19 7.93629e-10)
(-1.50783e-05 -1.20601e-05 -7.89036e-20 1.50779e-05 -3.08343e-20 3.82561e-10)
(-1.68358e-05 -9.85992e-06 -3.77957e-19 1.68359e-05 -1.42792e-19 -1.18679e-10)
(-1.82279e-05 -7.41869e-06 9.80123e-20 1.82277e-05 4.89633e-20 1.66594e-10)
(-1.92246e-05 -4.77722e-06 -5.22141e-19 1.92251e-05 -1.43799e-19 -4.47266e-10)
(-1.98001e-05 -1.98984e-06 9.15074e-20 1.97998e-05 4.80217e-20 2.82438e-10)
(7.26881e-06 -1.29463e-05 -2.75448e-20 -7.26813e-06 -9.12023e-21 -6.83893e-10)
(5.16071e-06 -1.42099e-05 5.63108e-20 -5.16085e-06 1.9878e-20 1.37793e-10)
(2.79205e-06 -1.51348e-05 1.00452e-20 -2.79483e-06 3.00351e-21 2.77251e-09)
(3.45604e-07 -1.56654e-05 -1.82324e-19 -3.43774e-07 -5.98626e-20 -1.82986e-09)
(-2.24497e-06 -1.57958e-05 2.05413e-19 2.24568e-06 7.02942e-20 -7.15631e-10)
(-4.8299e-06 -1.55015e-05 -2.85608e-19 4.82908e-06 -1.01082e-19 8.2516e-10)
(-7.29873e-06 -1.48088e-05 2.46925e-19 7.29835e-06 8.82811e-20 3.85409e-10)
(-9.62191e-06 -1.37357e-05 -4.16634e-20 9.62248e-06 -1.01971e-20 -5.61079e-10)
(-1.17227e-05 -1.2333e-05 2.20317e-19 1.17221e-05 8.02701e-20 5.93476e-10)
(-1.35629e-05 -1.06405e-05 -1.66754e-19 1.3563e-05 -5.55258e-20 -1.03196e-10)
(-1.51184e-05 -8.69009e-06 -1.40692e-19 1.51187e-05 -1.53623e-20 -2.99889e-10)
(-1.63556e-05 -6.52839e-06 2.43204e-19 1.63552e-05 8.02373e-20 3.14561e-10)
(-1.72486e-05 -4.19269e-06 4.2262e-19 1.72487e-05 1.48905e-19 -1.15644e-10)
(-1.77738e-05 -1.727e-06 2.89076e-19 1.77729e-05 7.10837e-20 9.09772e-10)
(6.3088e-06 -1.15947e-05 2.74766e-20 -6.3078e-06 8.84825e-21 -1.00348e-09)
(4.4192e-06 -1.26974e-05 -2.76333e-20 -4.41944e-06 -8.20189e-21 2.44912e-10)
(2.30106e-06 -1.3496e-05 1.76222e-20 -2.30373e-06 5.89213e-21 2.66493e-09)
(1.18445e-07 -1.39439e-05 1.29543e-20 -1.167e-07 6.83588e-21 -1.74538e-09)
(-2.18725e-06 -1.40358e-05 -1.38967e-19 2.18766e-06 -4.80748e-20 -4.16499e-10)
(-4.48332e-06 -1.37519e-05 -1.58404e-19 4.48237e-06 -4.66022e-20 9.48793e-10)
(-6.67261e-06 -1.31167e-05 -1.15589e-19 6.67237e-06 -3.87016e-20 2.43996e-10)
(-8.72945e-06 -1.21484e-05 -3.4878e-20 8.72975e-06 -4.66377e-21 -3.01261e-10)
(-1.05878e-05 -1.08912e-05 1.06362e-20 1.05871e-05 3.89911e-21 7.21952e-10)
(-1.22146e-05 -9.38195e-06 -2.86693e-21 1.22144e-05 5.41751e-21 2.04474e-10)
(-1.35902e-05 -7.64893e-06 2.71004e-19 1.35903e-05 8.49381e-20 -7.28181e-11)
(-1.46867e-05 -5.73224e-06 5.04163e-20 1.4687e-05 -4.47976e-21 -3.04968e-10)
(-1.54842e-05 -3.66348e-06 -1.0064e-19 1.54839e-05 -4.33397e-20 2.84975e-10)
(-1.59586e-05 -1.4771e-06 -7.49194e-20 1.59589e-05 -3.68585e-20 -3.82853e-10)
(-1.60992e-05 7.8131e-07 -4.0769e-19 1.6097e-05 -1.00748e-19 2.22414e-09)
(5.47709e-06 -1.0393e-05 3.68396e-20 -5.47609e-06 1.14731e-20 -9.99667e-10)
(3.78091e-06 -1.13556e-05 8.63352e-20 -3.78098e-06 2.77321e-20 6.87139e-11)
(1.8843e-06 -1.20447e-05 -1.31568e-19 -1.88692e-06 -4.03366e-20 2.6184e-09)
(-6.47796e-08 -1.24216e-05 1.90837e-19 6.6452e-08 6.17541e-20 -1.67238e-09)
(-2.11963e-06 -1.2481e-05 3.21175e-20 2.12004e-06 1.24382e-20 -4.12573e-10)
(-4.16152e-06 -1.22071e-05 2.45363e-19 4.16054e-06 8.16004e-20 9.8319e-10)
(-6.10484e-06 -1.16236e-05 1.88334e-19 6.10481e-06 5.6738e-20 3.0287e-11)
(-7.92726e-06 -1.0747e-05 1.47184e-19 7.92748e-06 4.96233e-20 -2.23003e-10)
(-9.57196e-06 -9.61731e-06 2.24511e-19 9.57164e-06 6.06635e-20 3.12662e-10)
(-1.10103e-05 -8.26853e-06 -9.8083e-20 1.10102e-05 -3.22149e-20 1.35981e-10)
(-1.22267e-05 -6.72433e-06 -1.19354e-19 1.22269e-05 -4.97974e-20 -1.87302e-10)
(-1.31982e-05 -5.02041e-06 -1.57826e-19 1.3198e-05 -4.5425e-20 1.22534e-10)
(-1.39067e-05 -3.1847e-06 1.92013e-19 1.39068e-05 4.99476e-20 -2.77566e-11)
(-1.43351e-05 -1.24414e-06 7.13338e-20 1.43354e-05 1.52381e-20 -3.56071e-10)
(-1.44685e-05 7.59041e-07 1.48826e-19 1.44674e-05 6.81029e-20 1.07523e-09)
(4.75532e-06 -9.32285e-06 -7.03201e-20 -4.75448e-06 -2.09572e-20 -8.39957e-10)
(3.23086e-06 -1.01634e-05 -7.40733e-21 -3.23084e-06 -2.4278e-21 -1.51016e-11)
(1.53063e-06 -1.07574e-05 2.17638e-19 -1.53308e-06 6.70832e-20 2.44421e-09)
(-2.11613e-07 -1.10732e-05 -4.58451e-21 2.13219e-07 -2.63077e-21 -1.60631e-09)
(-2.04436e-06 -1.11057e-05 -9.64145e-20 2.04479e-06 -2.86576e-20 -4.25121e-10)
(-3.86257e-06 -1.08414e-05 -3.03068e-20 3.86165e-06 -1.55056e-20 9.25311e-10)
(-5.58917e-06 -1.0304e-05 -2.40761e-19 5.58914e-06 -7.62908e-20 2.72715e-11)
(-7.20527e-06 -9.5081e-06 6.41267e-20 7.20538e-06 2.11641e-20 -1.06226e-10)
(-8.66164e-06 -8.49077e-06 -2.85197e-19 8.66126e-06 -8.54459e-20 3.79096e-10)
(-9.93368e-06 -7.2819e-06 6.32111e-20 9.93346e-06 1.58005e-20 2.15352e-10)
(-1.10085e-05 -5.90379e-06 -1.19958e-19 1.10085e-05 -2.81624e-20 4.77537e-11)
(-1.1867e-05 -4.38668e-06 -2.34873e-20 1.18671e-05 -4.44379e-22 -6.77398e-11)
(-1.24955e-05 -2.75466e-06 -2.48964e-19 1.24954e-05 -8.50421e-20 1.03361e-10)
(-1.28787e-05 -1.03116e-06 -1.30037e-19 1.28791e-05 -2.61781e-20 -3.31829e-10)
(-1.30027e-05 7.47569e-07 1.53685e-19 1.3002e-05 2.4704e-20 6.49459e-10)
(4.12851e-06 -8.36877e-06 1.38419e-20 -4.1275e-06 4.21924e-21 -1.01359e-09)
(2.75667e-06 -9.10233e-06 -8.81829e-20 -2.75679e-06 -2.59781e-20 1.28388e-10)
(1.23132e-06 -9.61404e-06 -1.39779e-19 -1.23354e-06 -4.26158e-20 2.2248e-09)
(-3.27569e-07 -9.87716e-06 -2.91682e-20 3.28956e-07 -7.29996e-21 -1.38716e-09)
(-1.96403e-06 -9.88681e-06 1.33815e-19 1.96419e-06 3.96137e-20 -1.61855e-10)
(-3.58411e-06 -9.63252e-06 -1.54574e-19 3.58336e-06 -4.4698e-20 7.50309e-10)
(-5.11916e-06 -9.13665e-06 -1.49824e-20 5.11892e-06 4.63598e-21 2.33463e-10)
(-6.5535e-06 -8.41228e-06 2.77884e-19 6.55355e-06 7.43643e-20 -4.51075e-11)
(-7.84309e-06 -7.49437e-06 2.0251e-19 7.84257e-06 6.11426e-20 5.12155e-10)
(-8.96807e-06 -6.40905e-06 -2.49827e-19 8.96793e-06 -7.30639e-20 1.35609e-10)
(-9.91754e-06 -5.17638e-06 9.72136e-20 9.91728e-06 4.05032e-20 2.58121e-10)
(-1.06759e-05 -3.82309e-06 6.03259e-20 1.06758e-05 1.76301e-20 3.90748e-11)
(-1.12313e-05 -2.37049e-06 -1.8896e-19 1.12312e-05 -2.93625e-20 1.16412e-10)
(-1.15725e-05 -8.37612e-07 1.952e-19 1.15727e-05 5.28444e-20 -2.20964e-10)
(-1.16843e-05 7.45952e-07 -1.68123e-19 1.16843e-05 -5.46684e-20 2.7484e-12)
(-1.1562e-05 2.35496e-06 1.50095e-19 1.15614e-05 4.51329e-20 6.84009e-10)
(3.58347e-06 -7.51646e-06 6.65382e-21 -3.58248e-06 1.92385e-21 -9.92048e-10)
(2.34815e-06 -8.15649e-06 2.01103e-21 -2.34818e-06 8.52484e-22 2.55848e-11)
(9.78748e-07 -8.59699e-06 -4.49815e-20 -9.80841e-07 -1.25014e-20 2.09317e-09)
(-4.16954e-07 -8.81498e-06 3.89038e-20 4.18322e-07 1.18118e-20 -1.36841e-09)
(-1.87937e-06 -8.80572e-06 -9.64382e-20 1.87955e-06 -2.63512e-20 -1.78258e-10)
(-3.32414e-06 -8.56145e-06 2.06512e-19 3.32345e-06 6.10925e-20 6.99027e-10)
(-4.68992e-06 -8.10301e-06 1.33258e-19 4.68987e-06 2.98608e-20 4.80657e-11)
(-5.96353e-06 -7.443e-06 -4.65338e-19 5.96366e-06 -1.38201e-19 -1.29762e-10)
(-7.10604e-06 -6.61311e-06 4.78982e-20 7.10557e-06 1.84968e-20 4.73242e-10)
(-8.10096e-06 -5.63693e-06 1.80448e-20 8.10091e-06 1.0264e-20 5.37589e-11)
(-8.93934e-06 -4.53241e-06 2.38956e-19 8.93933e-06 5.81395e-20 1.05424e-11)
(-9.60806e-06 -3.32382e-06 1.56303e-19 9.60803e-06 2.6939e-20 2.86176e-11)
(-1.00979e-05 -2.02808e-06 2.87478e-19 1.00979e-05 8.51847e-20 -9.46818e-12)
(-1.03991e-05 -6.63864e-07 -8.69442e-20 1.03993e-05 -2.58309e-20 -2.57803e-10)
(-1.04997e-05 7.46561e-07 -9.89699e-20 1.05e-05 -1.66182e-20 -2.62225e-10)
(-1.03928e-05 2.1769e-06 2.20288e-19 1.03928e-05 4.32976e-20 -1.94719e-11)
(3.10882e-06 -6.75456e-06 1.97608e-20 -3.10798e-06 5.30544e-21 -8.43253e-10)
(1.99643e-06 -7.31248e-06 1.20068e-19 -1.99627e-06 3.34124e-20 -1.58858e-10)
(7.66228e-07 -7.69116e-06 8.02851e-21 -7.68196e-07 2.99178e-21 1.96809e-09)
(-4.84596e-07 -7.87038e-06 1.12036e-19 4.85787e-07 3.22143e-20 -1.19079e-09)
(-1.79256e-06 -7.84564e-06 2.249e-20 1.79278e-06 5.68449e-21 -2.20175e-10)
(-3.08172e-06 -7.61132e-06 -1.04923e-19 3.08104e-06 -3.34871e-20 6.80594e-10)
(-4.29764e-06 -7.18718e-06 -2.28168e-19 4.29758e-06 -6.5128e-20 5.34125e-11)
(-5.42883e-06 -6.58486e-06 -2.22828e-20 5.42902e-06 7.50728e-21 -1.91421e-10)
(-6.44146e-06 -5.83312e-06 1.87836e-19 6.4411e-06 5.24769e-20 3.62288e-10)
(-7.32112e-06 -4.95396e-06 -1.04109e-19 7.32106e-06 -2.91753e-20 6.27079e-11)
(-8.06098e-06 -3.96276e-06 -1.71375e-19 8.06095e-06 -5.38311e-20 3.75838e-11)
(-8.65e-06 -2.88137e-06 -3.79123e-19 8.64993e-06 -9.82618e-20 7.3841e-11)
(-9.0807e-06 -1.72506e-06 2.08863e-19 9.08068e-06 4.64772e-20 2.10234e-11)
(-9.345e-06 -5.08888e-07 2.23524e-19 9.34518e-06 4.4859e-20 -1.78381e-10)
(-9.43371e-06 7.47404e-07 -5.83985e-20 9.434e-06 -1.32655e-20 -2.90976e-10)
(-9.33899e-06 2.02082e-06 -3.91806e-20 9.33852e-06 -7.3517e-21 4.61392e-10)
(3.51389e-06 -5.49763e-06 -3.18703e-21 -3.51447e-06 -1.11381e-21 5.7695e-10)
(2.69591e-06 -6.07221e-06 6.9347e-21 -2.69511e-06 1.982e-21 -7.97554e-10)
(1.69397e-06 -6.55858e-06 -7.09436e-20 -1.69393e-06 -1.92802e-20 -3.44057e-11)
(5.87817e-07 -6.88341e-06 -5.25803e-20 -5.89602e-07 -1.37387e-20 1.78424e-09)
(-5.33922e-07 -7.0294e-06 1.34636e-19 5.35011e-07 3.53106e-20 -1.08903e-09)
(-1.7044e-06 -6.99222e-06 -2.07222e-19 1.70451e-06 -5.5556e-20 -1.12901e-10)
(-2.85551e-06 -6.7678e-06 6.38629e-21 2.85481e-06 4.19892e-21 6.96085e-10)
(-3.93862e-06 -6.3749e-06 -5.37087e-20 3.9385e-06 -7.14625e-21 1.22131e-10)
(-4.94372e-06 -5.82458e-06 1.40814e-19 4.94373e-06 3.67097e-20 -7.48561e-12)
(-5.84116e-06 -5.14287e-06 1.11298e-19 5.84065e-06 2.62306e-20 5.12509e-10)
(-6.61874e-06 -4.34986e-06 1.29539e-19 6.6186e-06 3.64596e-20 1.32461e-10)
(-7.2712e-06 -3.4593e-06 7.43355e-21 7.27113e-06 6.94516e-22 7.26713e-11)
(-7.78914e-06 -2.49095e-06 1.17424e-20 7.7891e-06 1.48714e-20 3.86143e-11)
(-8.167e-06 -1.45763e-06 -3.6818e-20 8.16709e-06 -1.79859e-20 -9.10044e-11)
(-8.39787e-06 -3.72441e-07 -2.56502e-19 8.39808e-06 -6.32661e-20 -2.18564e-10)
(-8.47456e-06 7.46751e-07 -1.06335e-20 8.47465e-06 9.04047e-21 -8.73332e-11)
(-8.38801e-06 1.88227e-06 2.48461e-19 8.38834e-06 4.79815e-20 -3.32184e-10)
(-8.13882e-06 3.01306e-06 2.60816e-20 8.13775e-06 -4.73402e-21 1.07674e-09)
(3.07609e-06 -4.95502e-06 8.99065e-21 -3.07667e-06 2.35538e-21 5.77594e-10)
(2.33682e-06 -5.46015e-06 -4.68966e-20 -2.33608e-06 -1.2088e-20 -7.46653e-10)
(1.43354e-06 -5.88427e-06 -5.75063e-20 -1.43346e-06 -1.49128e-20 -7.98064e-11)
(4.38621e-07 -6.16246e-06 4.55047e-20 -4.40252e-07 1.22975e-20 1.63084e-09)
(-5.67933e-07 -6.28004e-06 -8.99437e-20 5.68887e-07 -2.34951e-20 -9.54785e-10)
(-1.61589e-06 -6.2329e-06 1.39215e-19 1.61604e-06 3.89227e-20 -1.44544e-10)
(-2.64404e-06 -6.01861e-06 8.27388e-20 2.64346e-06 2.30052e-20 5.81823e-10)
(-3.60909e-06 -5.65468e-06 2.4239e-19 3.60907e-06 6.28144e-20 1.51671e-11)
(-4.50236e-06 -5.15128e-06 -2.06305e-19 4.50233e-06 -5.6596e-20 2.48014e-11)
(-5.2979e-06 -4.53229e-06 -1.38981e-20 5.29759e-06 -4.40155e-21 3.16923e-10)
(-5.98531e-06 -3.81622e-06 9.94899e-20 5.98512e-06 1.59976e-20 1.84286e-10)
(-6.56039e-06 -3.0149e-06 -2.10625e-19 6.56033e-06 -4.83794e-20 5.5432e-11)
(-7.01552e-06 -2.14635e-06 2.85096e-20 7.01531e-06 8.88571e-21 2.07984e-10)
(-7.34598e-06 -1.2221e-06 9.61762e-21 7.34586e-06 6.18107e-21 1.15785e-10)
(-7.54633e-06 -2.53295e-07 1.58288e-19 7.5466e-06 4.19565e-20 -2.69126e-10)
(-7.6109e-06 7.44326e-07 1.36151e-19 7.61096e-06 1.73172e-20 -5.85055e-11)
(-7.53226e-06 1.75752e-06 -2.39655e-19 7.53268e-06 -5.74703e-20 -4.20443e-10)
(-7.30888e-06 2.76397e-06 -1.33453e-19 7.3086e-06 -1.43094e-20 2.73593e-10)
(2.69271e-06 -4.46705e-06 -2.29366e-21 -2.69329e-06 -1.1449e-21 5.7733e-10)
(2.02429e-06 -4.91127e-06 4.42038e-21 -2.02357e-06 1.08345e-21 -7.19847e-10)
(1.20956e-06 -5.28074e-06 2.04104e-20 -1.20948e-06 5.60907e-21 -8.09183e-11)
(3.14283e-07 -5.51837e-06 1.52369e-19 -3.15771e-07 3.92298e-20 1.48815e-09)
(-5.89422e-07 -5.61173e-06 4.16482e-20 5.90327e-07 1.04144e-20 -9.05122e-10)
(-1.52805e-06 -5.55697e-06 5.90624e-20 1.52815e-06 1.2688e-20 -9.86958e-11)
(-2.44681e-06 -5.3526e-06 -3.43322e-20 2.44626e-06 -1.00188e-20 5.54184e-10)
(-3.30691e-06 -5.01535e-06 4.01874e-20 3.30691e-06 1.33094e-20 -4.36198e-12)
(-4.10083e-06 -4.55463e-06 1.00474e-20 4.10088e-06 5.02368e-21 -5.16727e-11)
(-4.80609e-06 -3.9922e-06 -6.43236e-20 4.80578e-06 -1.95059e-20 3.07515e-10)
(-5.41346e-06 -3.3447e-06 -1.89595e-19 5.41335e-06 -4.67499e-20 1.1458e-10)
(-5.91984e-06 -2.62338e-06 1.83754e-19 5.91985e-06 5.28465e-20 -1.23813e-11)
(-6.31902e-06 -1.84393e-06 -2.3709e-20 6.31907e-06 -3.92451e-21 -4.85476e-11)
(-6.6075e-06 -1.01635e-06 9.75635e-20 6.60752e-06 1.53232e-20 -2.26518e-11)
(-6.78074e-06 -1.50298e-07 -1.30256e-19 6.7809e-06 -3.53154e-20 -1.59148e-10)
(-6.8337e-06 7.39831e-07 -2.72395e-19 6.83374e-06 -6.90153e-20 -3.25029e-11)
(-6.76083e-06 1.64322e-06 1.63456e-19 6.76128e-06 4.59836e-20 -4.43338e-10)
(-6.55971e-06 2.53998e-06 3.19463e-19 6.55934e-06 6.45843e-20 3.70372e-10)
(2.35685e-06 -4.02794e-06 -4.57885e-21 -2.35743e-06 -8.22289e-22 5.77293e-10)
(1.75225e-06 -4.41851e-06 4.39553e-20 -1.75159e-06 1.08663e-20 -6.54219e-10)
(1.01702e-06 -4.74017e-06 3.59925e-20 -1.01692e-06 9.01134e-21 -1.00634e-10)
(2.11084e-07 -4.94258e-06 -7.2095e-20 -2.12493e-07 -1.81839e-20 1.40888e-09)
(-6.00519e-07 -5.01537e-06 -8.936e-20 6.01353e-07 -2.3492e-20 -8.34156e-10)
(-1.44152e-06 -4.95473e-06 -1.96864e-19 1.44157e-06 -4.80311e-20 -4.79352e-11)
(-2.2628e-06 -4.76028e-06 -6.02597e-20 2.26224e-06 -1.05145e-20 5.53572e-10)
(-3.02947e-06 -4.44773e-06 4.8473e-19 3.02938e-06 1.17884e-19 8.75554e-11)
(-3.73527e-06 -4.02571e-06 4.78148e-20 3.73526e-06 4.25146e-21 1.70144e-11)
(-4.36029e-06 -3.5142e-06 -6.6365e-20 4.35997e-06 -1.69243e-20 3.14865e-10)
(-4.89681e-06 -2.92838e-06 -3.80432e-20 4.8967e-06 -1.73131e-21 1.06827e-10)
(-5.34255e-06 -2.27815e-06 1.1017e-19 5.34246e-06 1.79222e-20 8.99406e-11)
(-5.69229e-06 -1.57787e-06 9.52911e-20 5.69214e-06 1.9767e-20 1.50018e-10)
(-5.94312e-06 -8.36552e-07 -1.80603e-19 5.94311e-06 -4.73017e-20 7.21179e-12)
(-6.09175e-06 -6.25404e-08 6.68918e-20 6.09201e-06 1.75953e-20 -2.59159e-10)
(-6.13414e-06 7.32276e-07 -1.88117e-19 6.13424e-06 -3.04807e-20 -1.01431e-10)
(-6.06605e-06 1.5377e-06 -5.2028e-20 6.06636e-06 -5.67512e-21 -3.1103e-10)
(-5.88315e-06 2.33775e-06 -1.70778e-19 5.88336e-06 -3.22698e-20 -2.13281e-10)
(-5.58734e-06 3.11949e-06 1.59053e-19 5.58686e-06 4.71276e-21 4.74203e-10)
(2.06252e-06 -3.63254e-06 -1.19947e-20 -2.06304e-06 -2.88271e-21 5.27245e-10)
(1.51546e-06 -3.97586e-06 -2.64515e-20 -1.51486e-06 -6.35482e-21 -6.08245e-10)
(8.51817e-07 -4.25564e-06 4.9609e-20 -8.51714e-07 1.20045e-20 -1.03212e-10)
(1.26085e-07 -4.42749e-06 5.1747e-20 -1.2735e-07 1.29722e-20 1.2655e-09)
(-6.03033e-07 -4.48283e-06 9.17265e-20 6.03827e-07 2.24672e-20 -7.93914e-10)
(-1.35672e-06 -4.41802e-06 1.96692e-19 1.35677e-06 4.98594e-20 -5.1143e-11)
(-2.09081e-06 -4.23347e-06 3.79214e-20 2.09034e-06 3.22258e-21 4.61914e-10)
(-2.77448e-06 -3.94376e-06 -1.36247e-19 2.77455e-06 -3.92062e-20 -7.56601e-11)
(-3.40194e-06 -3.55715e-06 -1.96106e-19 3.40192e-06 -4.79576e-20 2.39197e-11)
(-3.95587e-06 -3.09146e-06 -7.61886e-20 3.9556e-06 -9.00455e-21 2.69804e-10)
(-4.42962e-06 -2.56104e-06 7.88564e-20 4.42949e-06 1.56058e-20 1.22913e-10)
(-4.82144e-06 -1.97489e-06 -2.45694e-19 4.82141e-06 -5.79419e-20 2.4769e-11)
(-5.12734e-06 -1.34524e-06 -4.00474e-22 5.12728e-06 -1.62682e-21 6.21462e-11)
(-5.34509e-06 -6.80409e-07 -1.54819e-19 5.34504e-06 -2.67631e-20 5.43972e-11)
(-5.47195e-06 1.21501e-08 -4.12152e-20 5.47205e-06 -1.50712e-20 -9.86843e-11)
(-5.50467e-06 7.219e-07 3.48753e-20 5.50469e-06 1.21384e-20 -2.40937e-11)
(-5.43962e-06 1.44021e-06 2.83877e-19 5.43989e-06 6.50591e-20 -2.70768e-10)
(-5.27392e-06 2.15416e-06 3.31423e-19 5.27407e-06 6.30175e-20 -1.57485e-10)
(-5.00759e-06 2.8497e-06 -2.158e-19 5.00748e-06 -3.99274e-20 1.14429e-10)
(1.80452e-06 -3.27624e-06 2.31275e-21 -1.80506e-06 3.00021e-22 5.4808e-10)
(1.30934e-06 -3.57796e-06 1.88366e-20 -1.30878e-06 4.49336e-21 -5.61786e-10)
(7.10132e-07 -3.82109e-06 -9.66226e-20 -7.10026e-07 -2.24289e-20 -1.05757e-10)
(5.64537e-08 -3.96646e-06 6.43444e-20 -5.76558e-08 1.41965e-20 1.20201e-09)
(-5.98711e-07 -4.00703e-06 -1.58188e-19 5.99424e-07 -3.68484e-20 -7.12993e-10)
(-1.27433e-06 -3.93936e-06 1.43948e-19 1.27437e-06 3.01684e-20 -3.29875e-11)
(-1.93076e-06 -3.76448e-06 -5.24754e-19 1.93032e-06 -1.23996e-19 4.3942e-10)
(-2.54038e-06 -3.49609e-06 3.12692e-20 2.54039e-06 1.14061e-20 -3.45102e-12)
(-3.0981e-06 -3.14158e-06 -5.9582e-20 3.09799e-06 -8.61378e-21 1.15328e-10)
(-3.58874e-06 -2.71774e-06 3.91043e-19 3.58851e-06 8.59207e-20 2.33191e-10)
(-4.00689e-06 -2.23725e-06 -1.17386e-19 4.00682e-06 -3.05884e-20 6.62981e-11)
(-4.35122e-06 -1.7082e-06 2.655e-20 4.35111e-06 1.2035e-20 1.1908e-10)
(-4.6183e-06 -1.14186e-06 -2.09362e-21 4.61828e-06 2.82574e-21 1.57106e-11)
(-4.80661e-06 -5.45647e-07 1.09561e-19 4.80659e-06 2.97056e-20 2.17426e-11)
(-4.91409e-06 7.42661e-08 -2.20147e-19 4.91428e-06 -4.83117e-20 -1.91424e-10)
(-4.93818e-06 7.08337e-07 -9.91163e-20 4.93819e-06 -1.40449e-20 -9.17201e-12)
(-4.87564e-06 1.34924e-06 1.25523e-19 4.87587e-06 1.62585e-20 -2.23349e-10)
(-4.72443e-06 1.98545e-06 -1.46302e-19 4.72464e-06 -4.22938e-20 -2.14784e-10)
(-4.48424e-06 2.60555e-06 2.19875e-19 4.48398e-06 4.20918e-20 2.56814e-10)
(1.57829e-06 -2.95501e-06 -5.78464e-21 -1.57882e-06 -1.24623e-21 5.30348e-10)
(1.13007e-06 -3.22009e-06 -5.06598e-20 -1.1295e-06 -1.15222e-20 -5.62213e-10)
(5.88947e-07 -3.43113e-06 5.7326e-20 -5.88848e-07 1.32554e-20 -9.87297e-11)
(-1.30103e-11 -3.55352e-06 -1.0907e-19 -1.09578e-09 -2.47284e-20 1.10879e-09)
(-5.88775e-07 -3.58174e-06 2.01341e-19 5.89471e-07 4.64042e-20 -6.95501e-10)
(-1.19455e-06 -3.51239e-06 -2.43626e-20 1.19456e-06 -7.59438e-21 -3.04662e-12)
(-1.78153e-06 -3.34699e-06 4.20285e-20 1.7811e-06 1.45395e-20 4.32096e-10)
(-2.32498e-06 -3.09841e-06 3.40068e-20 2.325e-06 8.71696e-21 -1.67585e-11)
(-2.8207e-06 -2.77349e-06 -6.56776e-20 2.8207e-06 -1.63252e-20 -1.24176e-12)
(-3.25539e-06 -2.38748e-06 -2.43593e-19 3.25516e-06 -5.45005e-20 2.31304e-10)