/*--------------------------------*- C++ -*----------------------------------*\
| =========                 |                                                 |
| \\      /  F ield         | OpenFOAM: The Open Source CFD Toolbox           |
|  \\    /   O peration     | Version:  2506                                  |
|   \\  /    A nd           | Website:  www.openfoam.com                      |
|    \\/     M anipulation  |                                                 |
\*---------------------------------------------------------------------------*/
FoamFile
{
    version     2.0;
    format      ascii;
    arch        "LSB;label=32;scalar=64";
    class       volVectorField;
    location    "150";
    object      U;
}
// * * * * * * * * * * * * * * * * * * * * * * * * * * * * * * * * * * * * * //

dimensions      [0 1 -1 0 0 0 0];

internalField   nonuniform List<vector> 
1340
(
(18.5007 14.1646 -2.59069e-19)
(19.2715 14.863 2.85045e-17)
(20.1395 15.5309 -2.2323e-17)
(19.1663 13.4931 1.6654e-17)
(19.8851 14.1338 -6.33274e-18)
(20.6917 14.7464 1.2444e-17)
(21.5513 15.2853 -6.15433e-17)
(22.5015 15.7673 3.63393e-18)
(19.7597 12.8834 1.3173e-17)
(20.433 13.4727 -2.35578e-17)
(21.1862 14.0357 -3.48155e-17)
(21.9849 14.5301 1.02035e-17)
(22.866 14.9733 3.00556e-17)
(23.8038 15.3439 -1.20474e-16)
(24.7799 15.6256 -5.23568e-17)
(20.2909 12.3264 -2.03993e-17)
(20.924 12.8695 -6.63828e-17)
(21.6301 13.3877 1.57753e-17)
(22.3752 13.842 -2.50352e-19)
(23.1955 14.2497 -7.92814e-17)
(24.0665 14.5911 1.6751e-16)
(24.9705 14.8519 -2.9185e-16)
(25.9112 15.0293 9.5363e-16)
(20.7687 11.8147 3.05467e-17)
(21.3657 12.3161 1.79322e-17)
(22.0299 12.7937 2.12249e-17)
(22.7275 13.2114 3.02866e-17)
(23.494 13.5864 -4.30453e-17)
(24.3058 13.9005 8.11814e-17)
(25.1458 14.1408 3.92167e-16)
(26.0188 14.3058 -5.31898e-16)
(26.9119 14.3886 -2.54509e-16)
(21.1998 11.3423 3.43736e-18)
(21.7644 11.8058 -1.86291e-18)
(22.3908 12.2466 -1.98444e-17)
(23.0459 12.631 3.77617e-18)
(23.7644 12.9758 7.51078e-17)
(24.5232 13.2643 -1.67366e-16)
(25.3062 13.4851 -3.37687e-17)
(26.1184 13.6373 -1.45253e-16)
(26.9481 13.7149 -1.70689e-16)
(21.5903 10.9045 -6.11325e-17)
(22.1253 11.3335 6.12418e-17)
(22.7174 11.7407 -8.32769e-18)
(23.3342 12.0945 7.47431e-18)
(24.0093 12.4114 1.35955e-16)
(24.7205 12.6761 -8.09826e-17)
(25.4524 12.8784 -4.19408e-16)
(26.2099 13.0177 6.60949e-16)
(26.9825 13.0891 4.6583e-16)
(27.7651 13.0889 -3.65174e-16)
(21.9448 10.4972 2.72763e-17)
(22.4528 10.8948 5.07135e-18)
(23.0134 11.2711 1.17738e-17)
(23.5955 11.597 1.87591e-17)
(24.2312 11.8882 -1.38358e-16)
(24.8994 12.1307 4.06336e-16)
(25.5849 12.3153 2.79679e-16)
(26.2932 12.442 -4.05842e-16)
(27.0139 12.5065 -2.99609e-16)
(27.7431 12.5059 2.47278e-16)
(28.4808 12.4371 8.86363e-17)
(22.2676 10.1173 -2.44593e-17)
(22.7504 10.4859 -1.10713e-17)
(23.2823 10.8339 5.93921e-18)
(23.8324 11.1341 -8.12777e-18)
(24.4323 11.4016 -3.73693e-17)
(25.0612 11.6234 -5.92532e-16)
(25.7048 11.7914 -1.78741e-16)
(26.3681 11.9059 -1.53603e-16)
(27.0419 11.9633 1.51774e-16)
(27.7222 11.9612 1.52482e-16)
(28.41 11.8969 1.93701e-16)
(22.562 9.76185 2.63511e-17)
(23.0215 10.1039 5.36426e-17)
(23.5267 10.4257 1.2233e-17)
(24.0475 10.7023 9.37072e-18)
(24.6145 10.9478 1.05474e-16)
(25.2075 11.1505 1.38058e-16)
(25.8126 11.3029 1.83232e-16)
(26.4351 11.4056 1.69439e-16)
(27.0659 11.4559 -2.88546e-16)
(27.7016 11.4515 -1.95328e-17)
(28.3436 11.3903 -1.01007e-16)
(28.9873 11.2697 1.97702e-16)
(22.8309 9.4286 -6.13915e-18)
(23.2688 9.74601 -4.44344e-17)
(23.7491 10.0439 -3.45951e-18)
(24.2429 10.2985 1.6443e-17)
(24.7795 10.5238 -4.56021e-17)
(25.3394 10.7086 5.08951e-17)
(25.9093 10.8464 -3.26562e-16)
(26.4943 10.938 2.90919e-16)
(27.0857 10.9811 6.10482e-17)
(27.6806 10.9739 1.42483e-16)
(28.2805 10.9149 -1.40339e-16)
(28.8815 10.8014 3.07862e-16)
(23.0771 9.11548 -4.42855e-17)
(23.4946 9.41014 2.15549e-17)
(23.9518 9.6857 -1.54231e-17)
(24.4205 9.92025 -6.19233e-18)
(24.9289 10.1267 6.27731e-17)
(25.4582 10.2949 8.67134e-17)
(25.9956 10.4191 -1.28812e-16)
(26.546 10.5002 -1.21582e-16)
(27.1013 10.5362 2.00588e-16)
(27.6587 10.526 -7.18273e-16)
(28.2198 10.4681 1.049e-15)
(28.7815 10.3606 -1.15908e-15)
(29.3421 10.2005 1.04481e-15)
(23.3027 8.82072 -1.25977e-19)
(23.7011 9.0943 -1.96813e-17)
(24.1366 9.34927 1.07474e-17)
(24.5818 9.56516 -4.1147e-18)
(25.064 9.7542 -1.00977e-17)
(25.565 9.90703 -1.21692e-16)
(26.0723 10.0185 -2.64532e-16)
(26.5907 10.0896 -1.63739e-16)
(27.1126 10.1189 2.04416e-16)
(27.6354 10.1055 5.08219e-17)
(28.1609 10.0482 -1.0642e-16)
(28.6861 9.94554 4.04777e-16)
(29.21 9.79467 -1.1301e-15)
(23.5096 8.54285 6.20322e-18)
(23.89 8.79685 -5.19755e-17)
(24.3051 9.03272 8.24632e-18)
(24.7284 9.23134 2.00963e-17)
(25.1861 9.40421 5.85858e-17)
(25.6606 9.54275 -1.22396e-16)
(26.14 9.64232 2.8946e-16)
(26.6289 9.70414 1.23077e-16)
(27.1198 9.72699 -6.14577e-16)
(27.6106 9.71031 3.00616e-16)
(28.1031 9.65325 -1.00369e-15)
(28.5946 9.55443 6.01266e-16)
(29.0845 9.41161 5.2037e-17)
(29.5716 9.22205 -1.74858e-16)
(23.6996 8.28048 2.87696e-17)
(24.063 8.51632 -2.02142e-17)
(24.4589 8.73448 1.46794e-18)
(24.8616 8.91705 3.90643e-17)
(25.2963 9.07494 1.17662e-16)
(25.7461 9.20021 -1.06098e-16)
(26.1994 9.28876 3.1374e-16)
(26.6608 9.34184 1.74017e-16)
(27.1231 9.35861 6.26248e-16)
(27.5842 9.3387 1.99233e-16)
(28.0461 9.2815 1.13719e-15)
(28.5064 9.18592 -3.96046e-16)
(28.9646 9.05001 1.86395e-15)
(29.4199 8.87124 -3.88663e-16)
(23.8743 8.0325 -2.04024e-17)
(24.2215 8.25143 2.31137e-17)
(24.5992 8.45307 -9.10056e-18)
(24.9824 8.62079 7.30599e-17)
(25.3956 8.76477 -1.5345e-16)
(25.8222 8.87772 3.20609e-16)
(26.2511 8.95601 -3.53725e-16)
(26.6869 9.001 7.39705e-17)
(27.1225 9.01204 -4.91341e-16)
(27.5562 8.98903 3.93307e-16)
(27.9897 8.93149 3.83912e-16)
(28.4209 8.83862 -7.08341e-16)
(28.8497 8.70872 -1.57212e-15)
(29.2755 8.53953 -1.22646e-15)
(24.0349 7.79783 2.20071e-17)
(24.3667 8.00104 -5.81079e-18)
(24.7272 8.18731 -8.3563e-18)
(25.0921 8.34123 -2.94958e-17)
(25.4849 8.47229 8.32239e-17)
(25.8897 8.5738 1.53552e-16)
(26.2958 8.64262 1.69801e-16)
(26.7076 8.68005 5.96572e-17)
(27.1184 8.68574 -2.30064e-17)
(27.5264 8.65975 -8.79757e-18)
(27.9335 8.60176 -7.83942e-16)
(28.3378 8.51122 -1.63035e-16)
(28.7392 8.3866 3.96561e-16)
(29.1375 8.226 3.06124e-16)
(29.5303 8.02725 1.77534e-15)
(24.1826 7.5756 2.59891e-17)
(24.4999 7.76414 3.00289e-17)
(24.8439 7.93609 4.68264e-18)
(25.1915 8.07718 -7.57724e-17)
(25.565 8.19626 -1.56465e-17)
(25.9493 8.28717 -2.80538e-16)
(26.3341 8.34721 -2.88511e-16)
(26.7234 8.37765 -2.92764e-16)
(27.1109 8.37837 -5.26777e-16)
(27.495 8.34957 1.86723e-16)
(27.8775 8.29109 3.53092e-16)
(28.2567 8.20253 5.44759e-16)
(28.6326 8.08264 -6.47804e-16)
(29.0051 7.92966 -2.78526e-16)
(29.3723 7.74163 -7.5139e-16)
(24.3186 7.36497 -5.20507e-17)
(24.6219 7.53979 -7.9386e-18)
(24.9504 7.69841 -1.27668e-17)
(25.2815 7.82757 -3.65743e-18)
(25.6368 7.93552 5.99458e-17)
(26.0017 8.01665 3.56613e-17)
(26.3664 8.06856 4.02176e-16)
(26.7346 8.09251 -1.36339e-16)
(27.1003 8.08863 6.03251e-16)
(27.4621 8.05725 -1.5838e-16)
(27.8216 7.99825 3.03531e-16)
(28.1773 7.91148 7.32856e-18)
(28.5294 7.79581 9.18704e-16)
(28.8779 7.64973 5.82217e-16)
(29.2212 7.47146 -6.11109e-16)
(24.4439 7.16517 1.32126e-17)
(24.7338 7.32717 -1.6248e-17)
(25.0473 7.47337 2.29144e-17)
(25.3628 7.59147 1.94602e-17)
(25.7009 7.6891 -1.27673e-16)
(26.0475 7.76116 1.74314e-16)
(26.3932 7.80556 8.99241e-18)
(26.7415 7.82357 -5.17943e-16)
(27.0869 7.81544 -5.11023e-16)
(27.4276 7.78166 6.1097e-16)
(27.7657 7.7222 -3.1997e-16)
(28.0995 7.63703 -2.45868e-16)
(28.4295 7.52521 6.44937e-16)
(28.7555 7.38538 -8.00072e-16)
(29.0764 7.216 7.7358e-16)
(29.3904 7.01543 -7.71323e-16)
(24.5591 6.97551 4.82879e-18)
(24.8363 7.12555 2.49056e-18)
(25.1356 7.26018 1.17965e-17)
(25.4362 7.368 -7.6798e-18)
(25.758 7.45606 8.92806e-17)
(26.0873 7.51972 -2.72469e-16)
(26.4149 7.5572 -2.53831e-16)
(26.7446 7.56974 9.20202e-16)
(27.0707 7.55774 -1.0922e-16)
(27.3919 7.52177 -6.94574e-17)
(27.7098 7.46191 -6.77908e-16)
(28.0232 7.37822 -4.34722e-16)
(28.3323 7.26993 -1.08615e-15)
(28.6374 7.13583 3.03e-16)
(28.9373 6.97461 4.85735e-16)
(29.2305 6.78465 -1.06273e-15)
(24.6653 6.7954 1.35092e-17)
(24.9302 6.93424 2.781e-17)
(25.2159 7.05809 5.30826e-18)
(25.5024 7.15637 -6.95935e-17)
(25.8086 7.23557 -3.47777e-17)
(26.1214 7.29147 1.2912e-16)
(26.4321 7.32257 3.84003e-16)
(26.7441 7.33011 4.51162e-17)
(27.0521 7.31458 -4.60548e-16)
(27.3548 7.27665 2.58216e-16)
(27.6539 7.21646 5.08291e-16)
(27.9481 7.13418 1.30168e-15)
(28.2379 7.02918 -6.57449e-16)
(28.5233 6.90037 -8.90848e-16)
(28.8035 6.74663 2.27936e-16)
(29.0773 6.56647 2.01196e-16)
(24.5473 6.4932 -1.0038e-18)
(24.763 6.6242 7.52173e-18)
(25.0162 6.75265 -1.5485e-17)
(25.2889 6.86647 1.54211e-17)
(25.5619 6.95588 -8.61053e-17)
(25.8533 7.02687 1.86268e-16)
(26.1505 7.07561 -4.28246e-18)
(26.4451 7.10087 7.75082e-17)
(26.7404 7.10381 -2.67883e-16)
(27.0314 7.08509 -2.32631e-16)
(27.3167 7.04542 -3.41311e-16)
(27.5981 6.985 -1.76947e-17)
(27.8743 6.9041 -6.54993e-17)
(28.1459 6.80218 1.46954e-16)
(28.413 6.67829 1.07293e-15)
(28.6748 6.53146 1.34345e-16)
(28.9304 6.36041 -1.18476e-15)
(29.1778 6.164 -1.65268e-16)
(24.6466 6.33981 6.93763e-18)
(24.8529 6.46149 -2.52486e-17)
(25.0949 6.58022 -1.57047e-18)
(25.3552 6.68469 -2.03588e-17)
(25.6153 6.76588 3.93428e-17)
(25.8926 6.82927 -1.30464e-16)
(26.1749 6.87141 -9.34294e-17)
(26.4543 6.89131 -4.27199e-16)
(26.7338 6.89008 3.89798e-16)
(27.0087 6.86849 4.02562e-17)
(27.2776 6.8273 -2.54318e-16)
(27.5424 6.76675 6.16564e-16)
(27.8018 6.6872 -9.3377e-17)
(28.0562 6.58819 -9.03479e-18)
(28.3061 6.46892 -6.3849e-16)
(28.5507 6.32852 -6.21389e-16)
(28.7892 6.16589 1.11497e-15)
(29.0198 5.97993 7.14804e-16)
(24.7383 6.19383 -2.8595e-18)
(24.9356 6.30679 1.4419e-18)
(25.1668 6.41645 8.90791e-18)
(25.4153 6.51221 -4.01454e-17)
(25.6631 6.58575 -2.55036e-17)
(25.9269 6.64211 -6.15851e-17)
(26.1951 6.67817 4.27332e-17)
(26.46 6.69316 -9.85739e-17)
(26.7245 6.68816 -6.64394e-17)
(26.9841 6.66401 1.47459e-16)
(27.2377 6.62151 5.47168e-16)
(27.4868 6.56096 -5.5979e-16)
(27.7304 6.48276 4.86697e-17)
(27.9688 6.38655 -3.33915e-16)
(28.2026 6.27162 4.85589e-16)
(28.4311 6.13724 1.27957e-15)
(28.6534 5.98243 -7.34224e-16)
(28.8683 5.80621 -1.65843e-15)
(24.823 6.05486 -4.13761e-18)
(25.0118 6.15967 2.05334e-17)
(25.2326 6.26085 -4.57285e-18)
(25.4697 6.34849 9.14293e-18)
(25.7057 6.41496 5.60564e-17)
(25.9566 6.46482 2.16141e-16)
(26.2114 6.49529 1.11898e-16)
(26.4625 6.50582 -8.537e-16)
(26.7128 6.4974 -1.11567e-16)
(26.9581 6.47097 1.81344e-16)
(27.1971 6.42737 9.99207e-17)
(27.4315 6.36693 -3.1361e-16)
(27.6601 6.29009 -3.43703e-16)
(27.8836 6.19657 7.06075e-16)
(28.1023 6.08577 -2.86908e-16)
(28.3156 5.95706 7.95647e-16)
(28.5229 5.80956 2.27757e-16)
(28.723 5.64243 9.15794e-16)
(28.9139 5.45522 -8.55418e-16)
(24.9014 5.92252 -7.29123e-18)
(25.0817 6.01971 -9.18912e-18)
(25.2927 6.11299 -4.87631e-18)
(25.5188 6.19308 -2.5719e-17)
(25.7435 6.25297 -6.69632e-17)
(25.9822 6.29684 -2.44353e-16)
(26.2241 6.3222 -5.46384e-17)
(26.4621 6.32866 2.71451e-16)
(26.699 6.31716 4.32123e-16)
(26.9306 6.28873 1.60428e-16)
(27.1559 6.24425 -2.53582e-16)
(27.3764 6.18402 7.4365e-16)
(27.5911 6.10857 6.5259e-19)
(27.8004 6.01767 5.31423e-16)
(28.005 5.91081 1.7954e-16)
(28.2041 5.78743 -1.01176e-16)
(28.3973 5.64677 -1.3266e-15)
(28.5835 5.48815 -1.82691e-15)
(28.761 5.31109 1.14463e-15)
(24.9737 5.7965 1.36606e-18)
(25.1461 5.88656 7.4471e-18)
(25.3475 5.97245 -4.92711e-18)
(25.5631 6.04551 -3.26069e-17)
(25.7771 6.09933 1.0366e-16)
(26.004 6.13768 -1.76754e-16)
(26.2336 6.15834 7.79647e-16)
(26.4592 6.1611 -2.88492e-17)
(26.6833 6.14686 1.41506e-16)
(26.902 6.11669 -9.53694e-16)
(27.1143 6.07151 3.10847e-16)
(27.3217 6.01161 -9.45824e-17)
(27.5232 5.93758 -4.60705e-19)
(27.7193 5.84924 -4.42902e-16)
(27.9105 5.74615 8.7845e-16)
(28.0964 5.62784 4.90275e-16)
(28.2764 5.49366 -5.60663e-16)
(28.4496 5.34299 8.13441e-16)
(28.6144 5.17548 -1.25061e-15)
(25.0405 5.67645 -2.52276e-18)
(25.2052 5.75986 -1.48291e-17)
(25.3974 5.83887 5.57825e-18)
(25.6029 5.9054 4.14962e-17)
(25.8066 5.95359 -1.56052e-16)
(26.0223 5.98685 4.3446e-17)
(26.2402 6.00323 -5.89682e-17)
(26.4539 6.00264 -6.19135e-17)
(26.6659 5.98597 1.36671e-16)
(26.8724 5.95431 6.07569e-16)
(27.0724 5.9086 7.72667e-17)
(27.2674 5.84915 -5.75479e-17)
(27.4565 5.77657 -3.46228e-16)
(27.6402 5.69075 -7.1502e-16)
(27.819 5.59129 4.25862e-16)
(27.9924 5.47781 -5.57299e-16)
(28.16 5.34974 -6.48898e-17)
(28.321 5.20656 3.84704e-16)
(28.474 5.04799 9.63299e-16)
(25.1021 5.5621 5.68623e-18)
(25.2594 5.63929 8.44058e-18)
(25.4428 5.71187 2.31269e-19)
(25.6386 5.77234 -3.99642e-18)
(25.8324 5.81532 3.68158e-17)
(26.0374 5.84391 9.11122e-17)
(26.2442 5.85638 -5.19724e-17)
(26.4466 5.85279 -3.62712e-16)
(26.647 5.83396 2.37825e-16)
(26.8419 5.80104 -9.0471e-16)
(27.0303 5.75498 5.11665e-16)
(27.2136 5.69609 -4.4098e-16)
(27.391 5.625 -3.46911e-16)
(27.5631 5.54165 -1.06413e-15)
(27.7301 5.44569 3.66278e-16)
(27.8918 5.33683 -1.03182e-15)
(28.0479 5.21456 1.39502e-16)
(28.1975 5.07846 1.08044e-16)
(28.3394 4.92828 4.87511e-16)
(25.159 5.45317 -6.05526e-18)
(25.3092 5.52454 2.41349e-18)
(25.484 5.59114 -1.74541e-19)
(25.6706 5.64598 -4.63483e-17)
(25.8549 5.68415 3.84164e-18)
(26.0496 5.70845 7.26233e-17)
(26.2457 5.71737 1.25867e-16)
(26.4373 5.71108 4.72604e-16)
(26.6268 5.69036 -6.94314e-16)
(26.8107 5.65641 3.24069e-16)
(26.9881 5.61015 -3.1737e-16)
(27.1604 5.55192 8.23051e-16)
(27.3268 5.48237 6.95791e-16)
(27.4879 5.40145 1.09147e-15)
(27.6439 5.30889 7.45366e-16)
(27.7947 5.20445 9.1782e-16)
(27.9399 5.08769 -2.28823e-16)
(28.0789 4.95827 1.10201e-16)
(28.2105 4.81601 -1.35205e-16)
(28.3332 4.66117 -3.80165e-16)
(25.2115 5.34939 -9.11472e-18)
(25.3548 5.41533 2.80863e-17)
(25.5214 5.47636 -3.6381e-18)
(25.699 5.52598 3.09522e-17)
(25.8743 5.55972 1.25317e-16)
(26.0591 5.58009 -2.655e-16)
(26.2451 5.58578 1.91277e-17)
(26.4264 5.57708 5.09241e-16)
(26.6055 5.55473 -1.24223e-16)
(26.7789 5.51993 -2.75759e-16)
(26.9459 5.47363 7.3509e-16)
(27.1078 5.41616 -2.40153e-16)
(27.2639 5.34817 -8.03061e-17)
(27.4146 5.26967 -7.30028e-16)
(27.5603 5.18041 3.16686e-16)
(27.7009 5.08021 -1.00726e-15)
(27.836 4.9687 -1.01204e-15)
(27.9649 4.8456 5.82234e-16)
(28.0868 4.71081 -2.57878e-16)
(28.2003 4.56456 -5.40671e-16)
(25.2599 5.25053 -5.868e-18)
(25.3965 5.3114 -2.81919e-18)
(25.5553 5.36725 -2.1585e-17)
(25.7243 5.41202 2.57533e-17)
(25.8908 5.44168 -5.76879e-17)
(26.0663 5.45845 2.66416e-16)
(26.2425 5.46123 2.53994e-17)
(26.4141 5.45039 -2.95777e-16)
(26.5832 5.42663 4.78033e-16)
(26.7467 5.39118 -6.64695e-16)
(26.9039 5.34498 -3.66863e-16)
(27.056 5.28835 2.54698e-16)
(27.2022 5.22196 -3.72614e-16)
(27.3432 5.14584 -2.98757e-16)
(27.4793 5.0598 -3.89283e-16)
(27.6102 4.96368 -1.70522e-16)
(27.7358 4.85719 2.26496e-16)
(27.8555 4.74009 -9.53116e-16)
(27.9684 4.61235 -1.11055e-17)
(28.0731 4.47422 2.43185e-16)
(25.3045 5.15636 -1.12994e-17)
(25.4347 5.21249 1.02564e-18)
(25.5859 5.26352 9.77196e-18)
(25.7467 5.3038 4.13207e-17)
(25.9048 5.32972 -1.54444e-16)
(26.0712 5.34321 7.29802e-17)
(26.2381 5.34336 -3.60197e-17)
(26.4004 5.33062 -5.13043e-16)
(26.5601 5.30568 3.36435e-16)
(26.7142 5.26974 2.92138e-16)
(26.8621 5.22376 4.68959e-16)
(27.0048 5.16805 -4.13798e-16)
(27.1419 5.1033 -3.24175e-17)
(27.2738 5.02954 6.35367e-16)
(27.4007 4.94663 2.57344e-16)
(27.5227 4.85445 -5.16205e-16)
(27.6394 4.75275 3.588e-16)
(27.7504 4.64136 1.36719e-15)
(27.8548 4.52028 -3.54185e-17)
(27.9516 4.38981 3.146e-16)
(25.3455 5.06666 1.36337e-17)
(25.4696 5.11837 -6.49722e-18)
(25.6135 5.16492 -1.80667e-17)
(25.7663 5.20106 -3.55626e-17)
(25.9165 5.22352 1.37417e-16)
(26.0742 5.23402 8.90584e-17)
(26.2322 5.23181 5.04936e-17)
(26.3856 5.21742 9.87038e-17)
(26.5363 5.19147 -5.58858e-16)
(26.6815 5.15522 -3.90839e-16)
(26.8205 5.10958 -3.9532e-16)
(26.9545 5.05487 8.10729e-16)
(27.0829 4.99177 -2.1051e-16)
(27.2062 4.92035 -3.45253e-16)
(27.3246 4.84049 -8.75732e-16)
(27.4382 4.75211 6.77912e-16)
(27.5466 4.655 4.95154e-16)
(27.6495 4.54904 -1.86917e-16)
(27.746 4.43427 -7.56568e-16)
(27.8353 4.31102 2.53602e-16)
(25.3833 4.98122 -2.76866e-18)
(25.5015 5.02882 -8.98833e-18)
(25.6384 5.0712 2.36392e-17)
(25.7835 5.10351 -2.21838e-18)
(25.9259 5.12281 -3.51011e-17)
(26.0754 5.1306 1.04326e-16)
(26.2249 5.12627 -5.6274e-16)
(26.3699 5.11044 5.38313e-17)
(26.512 5.08368 1.76507e-16)
(26.6487 5.04724 4.8583e-16)
(26.7793 5.00205 3.20761e-16)
(26.9051 4.9484 -4.05285e-17)
(27.0253 4.88698 -6.74406e-16)
(27.1404 4.81788 4.64686e-16)
(27.2509 4.74098 3.41168e-16)
(27.3566 4.65627 4.03552e-16)
(27.4573 4.56356 -3.68374e-16)
(27.5526 4.46277 -1.19189e-15)
(27.6418 4.35398 3.63062e-16)
(27.7242 4.23754 -5.86674e-17)
(27.7985 4.11436 -1.10371e-16)
(25.4181 4.89986 7.10272e-19)
(25.5305 4.94362 9.24526e-18)
(25.6606 4.98214 -5.24817e-18)
(25.7984 5.01091 5.49038e-18)
(25.9335 5.02731 -5.85721e-17)
(26.075 5.03264 -3.44187e-17)
(26.2164 5.02643 1.68701e-16)
(26.3532 5.00935 -5.75854e-17)
(26.4872 4.98194 5.02716e-17)
(26.6158 4.94546 1.23698e-16)
(26.7386 4.9008 -1.24435e-16)
(26.8565 4.84827 -2.30778e-16)
(26.969 4.78855 -1.65267e-16)
(27.0766 4.72174 -5.01982e-16)
(27.1795 4.64774 3.28433e-16)
(27.2778 4.56657 4.50322e-16)
(27.3713 4.47807 3.19868e-16)
(27.4595 4.38221 7.3377e-16)
(27.542 4.27909 -2.28051e-16)
(27.6179 4.1691 3.46067e-16)
(27.6862 4.05307 -4.66265e-16)
(25.45 4.82238 -7.14598e-19)
(25.5569 4.86258 -2.57109e-18)
(25.6805 4.89751 3.00299e-18)
(25.8113 4.92302 1.80133e-17)
(25.9392 4.93677 -1.39643e-16)
(26.0732 4.93988 2.58329e-16)
(26.2068 4.932 -2.32864e-16)
(26.3359 4.91385 1.82677e-16)
(26.4621 4.88594 5.36628e-17)
(26.5831 4.84953 1.11808e-16)
(26.6983 4.8055 1.48982e-16)
(26.8088 4.75414 7.70868e-16)
(26.9141 4.69613 -3.99194e-16)
(27.0145 4.63157 5.65912e-16)
(27.1105 4.5604 -8.38088e-16)
(27.2018 4.48264 -3.66311e-16)
(27.2885 4.3982 2.85719e-16)
(27.3702 4.30704 -9.55516e-16)
(27.4464 4.2093 4.57867e-16)
(27.5163 4.10539 -4.04002e-16)
(27.5791 3.99612 -2.83509e-16)
(25.4794 4.74863 -5.17364e-18)
(25.5809 4.7855 6.66262e-19)
(25.6982 4.81711 1.49171e-17)
(25.8222 4.83962 8.93352e-17)
(25.9433 4.85095 -2.80153e-17)
(26.07 4.85205 -1.3048e-16)
(26.1961 4.84269 6.47543e-16)
(26.3179 4.82364 -3.65216e-16)
(26.4367 4.79538 -1.10936e-16)
(26.5504 4.75915 6.40943e-16)
(26.6586 4.71582 -1.27141e-15)
(26.7621 4.66567 1.47485e-15)
(26.8605 4.60937 -2.12059e-16)
(26.9542 4.54703 -3.93332e-16)
(27.0436 4.47861 -8.30947e-16)
(27.1285 4.40416 -1.66047e-16)
(27.2089 4.32359 1.79097e-16)
(27.2846 4.23692 -5.75404e-16)
(27.3549 4.14429 1.08106e-15)
(27.4193 4.04612 -6.56526e-16)
(27.4768 3.94323 2.7248e-16)
(25.5063 4.67843 -1.47707e-18)
(25.6027 4.71221 2.23127e-18)
(25.7139 4.74075 -1.88628e-17)
(25.8314 4.76049 -4.18214e-18)
(25.9459 4.76961 -5.48797e-17)
(26.0656 4.76891 -1.54817e-16)
(26.1847 4.75826 -4.91468e-16)
(26.2994 4.73846 1.29209e-16)
(26.4112 4.70997 -4.3115e-16)
(26.518 4.67401 -3.15289e-17)
(26.6195 4.63144 -5.68577e-16)
(26.7164 4.58254 -5.78782e-16)
(26.8083 4.52795 1.05576e-15)
(26.8957 4.4678 5.85551e-16)
(26.9789 4.40206 -1.48566e-16)
(27.0578 4.33079 1.19733e-15)
(27.1324 4.25394 5.38619e-16)
(27.2023 4.17155 3.84393e-16)
(27.2672 4.08377 -1.3689e-16)
(27.3265 3.99104 -4.76007e-16)
(27.3793 3.89414 6.89699e-17)
(25.531 4.61162 -1.63985e-19)
(25.6224 4.64253 -5.39278e-19)
(25.7278 4.66822 3.61438e-18)
(25.8389 4.68543 -5.13548e-17)
(25.9472 4.69253 -7.23755e-17)
(26.0602 4.69022 1.50076e-16)
(26.1725 4.67844 1.08378e-16)
(26.2804 4.65803 8.7266e-17)
(26.3856 4.62943 -9.83136e-17)
(26.4859 4.59383 -7.10484e-16)
(26.5809 4.55208 7.19594e-16)
(26.6716 4.50444 1.76979e-16)
(26.7575 4.45156 -8.08554e-16)
(26.839 4.39356 -2.2657e-16)
(26.9164 4.33042 -1.91207e-16)
(26.9897 4.26223 3.65933e-16)
(27.0588 4.18895 -7.33386e-16)
(27.1234 4.11062 3.97618e-16)
(27.1833 4.02745 3.39839e-16)
(27.2378 3.93985 1.19725e-16)
(27.2864 3.8486 3.59336e-16)
(27.3281 3.75521 2.89878e-16)
(25.5537 4.54806 -1.31165e-18)
(25.6402 4.57629 4.70761e-18)
(25.74 4.59936 1.29261e-17)
(25.845 4.61424 3.22552e-17)
(25.9473 4.61952 2.41435e-16)
(26.0538 4.61577 -2.74681e-17)
(26.1596 4.60301 -3.13193e-16)
(26.2612 4.58212 1.60246e-16)
(26.3599 4.5535 2.95086e-16)
(26.454 4.51833 4.44256e-16)
(26.5431 4.47745 7.52659e-16)
(26.6278 4.4311 9.27878e-16)
(26.708 4.37991 -8.34009e-16)
(26.7839 4.32401 -4.08705e-17)
(26.8559 4.2634 -5.09678e-16)
(26.9239 4.19817 -2.57205e-16)
(26.9879 4.1283 6.60708e-17)
(27.0477 4.05386 1.4013e-15)
(27.1029 3.97506 -1.10512e-15)
(27.1531 3.8923 -5.64087e-16)
(27.1976 3.80636 4.82737e-16)
(27.2358 3.71866 -2.69396e-16)
(25.5744 4.48759 -1.4125e-18)
(25.6563 4.51335 -5.21722e-18)
(25.7506 4.53399 -1.59256e-17)
(25.8498 4.54673 -1.91643e-18)
(25.9462 4.55037 -2.50729e-17)
(26.0466 4.54533 1.21105e-16)
(26.1461 4.53174 1.6479e-16)
(26.2416 4.51048 1.26647e-16)
(26.3343 4.48193 -3.6414e-16)
(26.4225 4.44727 -1.93662e-16)
(26.5058 4.40728 -2.27197e-16)
(26.585 4.36223 -3.04449e-16)
(26.6598 4.31272 1.01792e-15)
(26.7306 4.25888 -2.09086e-16)
(26.7975 4.20072 7.10561e-16)
(26.8606 4.13834 -1.1246e-16)
(26.9198 4.07174 7.11183e-18)
(26.9751 4.001 -9.23422e-16)
(27.026 3.92633 1.54061e-15)
(27.0721 3.84814 -8.50722e-17)
(27.113 3.76719 1.81167e-16)
(27.1479 3.68484 -1.79404e-16)
(25.5933 4.4301 3.05841e-18)
(25.6707 4.45356 -3.6535e-18)
(25.7597 4.47196 1.93635e-17)
(25.8533 4.48275 -5.96554e-17)
(25.9442 4.48489 9.35951e-17)
(26.0387 4.47871 -3.26069e-16)
(26.1322 4.46441 6.86475e-17)
(26.2219 4.44289 -5.28949e-16)
(26.3088 4.41449 5.38236e-16)
(26.3914 4.38038 -6.65696e-16)
(26.4693 4.34133 -4.28121e-16)
(26.5433 4.29758 3.56783e-16)
(26.613 4.24972 -7.04988e-16)
(26.6788 4.19789 -3.48494e-16)
(26.741 4.1421 -9.87212e-16)
(26.7995 4.08247 6.22782e-17)
(26.8544 4.01899 4.48973e-17)
(26.9054 3.95177 1.53386e-16)
(26.9523 3.88103 -4.25277e-16)
(26.9947 3.80715 -2.0953e-16)
(27.0322 3.73089 3.09065e-16)
(27.0642 3.65354 6.354e-18)
(25.6106 4.37544 -4.37585e-19)
(25.6837 4.39677 -5.74561e-18)
(25.7676 4.41311 5.5031e-18)
(25.8557 4.42211 -2.72972e-17)
(25.9412 4.4229 -4.84467e-17)
(26.03 4.41572 1.3691e-18)
(26.1179 4.40083 -2.14105e-16)
(26.202 4.37913 5.75108e-16)
(26.2834 4.35096 1.86174e-16)
(26.3606 4.31745 4.65974e-16)
(26.4335 4.27936 -3.74446e-16)
(26.5025 4.2369 3.85207e-16)
(26.5674 4.19067 -2.33526e-16)
(26.6286 4.1408 1.5144e-15)
(26.6864 4.0873 3.45176e-16)
(26.7406 4.0303 5.57226e-16)
(26.7914 3.96981 5.30775e-17)
(26.8385 3.90594 -4.90049e-16)
(26.8818 3.8389 3.81183e-16)
(26.9208 3.7691 4.28067e-18)
(26.9552 3.69724 -2.26994e-16)
(26.9844 3.62457 -2.19338e-16)
(25.6263 4.32349 -7.30719e-18)
(25.6952 4.34285 -7.20962e-19)
(25.7742 4.35728 4.30824e-17)
(25.8571 4.36465 1.05577e-16)
(25.9374 4.36423 1.75429e-17)
(26.0208 4.35618 -1.13314e-16)
(26.1032 4.3408 5.34897e-16)
(26.1819 4.31901 -5.6677e-16)
(26.2581 4.29113 -6.23138e-16)
(26.3303 4.25826 -2.35887e-16)
(26.3983 4.22114 5.27451e-16)
(26.4626 4.17997 7.74416e-17)
(26.5231 4.13534 4.82164e-16)
(26.58 4.08737 -7.43313e-16)
(26.6336 4.03608 -9.19037e-16)
(26.6839 3.9816 6.65297e-16)
(26.7308 3.92396 -1.26555e-15)
(26.7743 3.86327 3.52968e-16)
(26.8142 3.79974 -5.03391e-16)
(26.8501 3.73376 6.9577e-17)
(26.8816 3.66604 6.11971e-16)
(26.9084 3.59775 1.81499e-16)
(25.6407 4.27414 1.76203e-18)
(25.7055 4.29166 1.45847e-18)
(25.7797 4.30435 -5.10515e-17)
(25.8576 4.31024 -3.30899e-17)
(25.9329 4.30873 -9.62553e-17)
(26.011 4.29992 4.62863e-16)
(26.0882 4.28415 -9.58243e-17)
(26.1619 4.26234 -3.12033e-17)
(26.2331 4.23479 -9.38701e-17)
(26.3005 4.2026 7.5857e-16)
(26.3639 4.16645 -9.77286e-16)
(26.4238 4.12657 8.35501e-16)
(26.4801 4.0835 4.54009e-17)
(26.5329 4.03737 2.02493e-16)
(26.5826 3.98821 7.33833e-16)
(26.6292 3.93615 -5.20334e-16)
(26.6726 3.88122 9.73717e-16)
(26.7127 3.82354 -9.85302e-17)
(26.7495 3.76332 -4.42186e-16)
(26.7825 3.70096 1.23356e-16)
(26.8114 3.63711 -1.98803e-16)
(26.8359 3.57291 5.6298e-16)
(25.6537 4.22727 -3.6341e-18)
(25.7145 4.2431 -5.37837e-18)
(25.7842 4.25418 2.41891e-17)
(25.8572 4.25871 -8.40101e-17)
(25.9277 4.25624 -1.76187e-17)
(26.0008 4.24676 -1.21269e-17)
(26.0729 4.23069 -5.85856e-16)
(26.1418 4.20893 5.61092e-16)
(26.2082 4.18177 -3.70003e-16)
(26.2711 4.15027 -7.95286e-16)
(26.3302 4.11511 4.09435e-16)
(26.3859 4.07649 -9.1392e-16)
(26.4382 4.03494 7.02117e-16)
(26.4872 3.99059 -3.47554e-16)
(26.5333 3.94348 -1.25188e-15)
(26.5764 3.89373 5.36191e-16)
(26.6165 3.84138 -7.01959e-17)
(26.6536 3.78655 -1.8002e-16)
(26.6874 3.72946 -1.77237e-16)
(26.7178 3.67049 1.38557e-16)
(26.7443 3.61026 -4.11087e-16)
(26.7668 3.54989 2.2629e-17)
(26.7849 3.49076 -1.2807e-16)
(25.6655 4.18278 2.76382e-18)
(25.7225 4.19703 9.99483e-19)
(25.7878 4.20664 2.07819e-17)
(25.856 4.20994 9.4245e-17)
(25.9219 4.2066 -2.2142e-16)
(25.9902 4.19657 -1.24047e-16)
(26.0575 4.18026 4.85093e-16)
(26.1217 4.15862 -5.14746e-16)
(26.1836 4.13188 9.67365e-16)
(26.2422 4.10109 -7.01524e-16)
(26.2971 4.06691 -8.84103e-17)
(26.3489 4.02953 -6.47892e-16)
(26.3975 3.98946 -6.24978e-16)
(26.443 3.94684 3.88897e-16)
(26.4857 3.90169 -1.14318e-16)
(26.5255 3.85414 -8.59926e-16)
(26.5626 3.80424 -4.83629e-16)
(26.5968 3.75211 5.39115e-16)
(26.6279 3.69796 -1.86583e-17)
(26.6559 3.64217 -4.10259e-16)
(26.6803 3.58534 3.83473e-16)
(26.7009 3.52852 2.29047e-16)
(26.7174 3.47303 4.37871e-17)
(25.6762 4.14055 2.1883e-18)
(25.7295 4.15336 -2.3248e-18)
(25.7904 4.16161 5.3131e-18)
(25.8541 4.1638 -8.35223e-17)
(25.9155 4.15969 1.2262e-16)
(25.9792 4.14918 1.17723e-16)
(26.0419 4.13272 -5.92543e-16)
(26.1017 4.11124 3.34978e-16)
(26.1593 4.08496 -4.4728e-16)
(26.2137 4.0549 7.43144e-16)
(26.2648 4.0217 1.18734e-16)
(26.3129 3.98553 5.2061e-16)
(26.3579 3.94689 7.61698e-17)
(26.4001 3.90592 -4.89069e-16)
(26.4396 3.86265 8.49721e-16)
(26.4764 3.8172 9.63072e-17)
(26.5107 3.76962 -4.11534e-16)
(26.5422 3.72004 6.95563e-16)
(26.5709 3.66866 2.26276e-16)
(26.5966 3.61586 -5.37653e-16)
(26.619 3.5622 9.53758e-17)
(26.6379 3.50869 2.50172e-17)
(26.6531 3.45658 2.20046e-17)
(25.6859 4.1005 5.66197e-19)
(25.7356 4.11196 3.24218e-18)
(25.7923 4.11898 3.17288e-17)
(25.8515 4.12016 -9.08321e-17)
(25.9087 4.11538 -1.18672e-16)
(25.9679 4.10447 2.7281e-16)
(26.0262 4.08792 -8.49616e-17)
(26.0817 4.06664 4.42463e-16)
(26.1352 4.04085 4.71814e-16)
(26.1858 4.01152 -1.15202e-16)
(26.2331 3.97929 2.78809e-16)
(26.2777 3.9443 9.54147e-17)
(26.3195 3.90705 -4.65249e-16)
(26.3585 3.86767 7.57298e-16)
(26.395 3.82619 -7.27206e-16)
(26.4291 3.78273 1.52125e-15)
(26.4606 3.73735 -6.90932e-16)
(26.4897 3.69017 -2.57044e-16)
(26.5161 3.6414 9.60146e-16)
(26.5398 3.59139 -1.10765e-16)
(26.5604 3.54069 4.39894e-17)
(26.5777 3.49026 -6.34097e-16)
(26.5917 3.44128 2.59596e-16)
(25.6946 4.06252 1.44058e-18)
(25.7408 4.07275 -2.74308e-18)
(25.7934 4.07863 -6.81863e-17)
(25.8484 4.0789 1.11126e-16)
(25.9014 4.07354 6.67833e-17)
(25.9563 4.06231 1.03723e-16)
(26.0103 4.04572 -6.18064e-17)
(26.0618 4.0247 -7.40772e-17)
(26.1115 3.99941 -6.91931e-16)
(26.1583 3.97082 6.50406e-16)
(26.2022 3.93953 2.47241e-16)
(26.2435 3.90569 -3.83276e-17)
(26.2821 3.86978 -3.81924e-16)
(26.3181 3.83193 -5.07646e-16)
(26.3519 3.79215 8.59611e-16)
(26.3833 3.75059 -7.43394e-16)
(26.4124 3.70728 3.10189e-18)
(26.4392 3.66236 5.09391e-16)
(26.4636 3.61603 -1.96646e-16)
(26.4853 3.56863 5.21872e-16)
(26.5043 3.52069 -3.31995e-16)
(26.5203 3.47312 -8.8328e-17)
(26.5331 3.42704 2.96903e-16)
(25.7025 4.02653 -4.6995e-18)
(25.7452 4.03562 5.41141e-18)
(25.7939 4.04046 1.99239e-17)
(25.8447 4.03992 4.36975e-17)
(25.8937 4.03405 -4.63693e-17)
(25.9445 4.02257 -1.4114e-16)
(25.9945 4.00601 -2.61397e-17)
(26.0421 3.98527 1.054e-16)
(26.088 3.9605 -4.34325e-17)
(26.1313 3.93266 -6.38009e-16)
(26.1719 3.9023 4.10313e-16)
(26.21 3.86956 2.93374e-17)
(26.2457 3.83494 3.52279e-16)
(26.279 3.79854 7.27709e-16)
(26.3102 3.7604 -8.47691e-16)
(26.3392 3.72062 1.24865e-15)
(26.3661 3.67927 -1.93405e-16)
(26.3908 3.63647 4.70685e-16)
(26.4132 3.59243 -4.72522e-16)
(26.4333 3.54747 -6.97373e-16)
(26.4508 3.50209 3.8024e-16)
(26.4654 3.45717 3.91024e-16)
(26.4772 3.41378 -2.3857e-16)
(25.7095 3.99243 2.21313e-18)
(25.7489 4.00046 -2.5135e-20)
(25.7938 4.00436 1.14239e-17)
(25.8405 4.0031 5.13445e-17)
(25.8857 3.9968 -1.89706e-16)
(25.9325 3.98513 2.66673e-16)
(25.9786 3.96865 -1.8456e-16)
(26.0225 3.94824 -1.52647e-16)
(26.0648 3.92399 1.15357e-16)
(26.1048 3.89691 2.86327e-17)
(26.1422 3.86745 -1.10523e-15)
(26.1774 3.83577 9.96627e-16)
(26.2103 3.80238 -4.65921e-16)
(26.2411 3.76738 6.9245e-16)
(26.2699 3.73079 -2.06106e-16)
(26.2966 3.6927 -5.8868e-16)
(26.3215 3.6532 -2.77745e-16)
(26.3443 3.61239 2.1873e-16)
(26.3651 3.57049 2.584e-16)
(26.3836 3.52779 -1.31682e-16)
(26.3997 3.4848 1.88724e-16)
(26.4132 3.44233 -4.27615e-16)
(26.4241 3.40141 -1.51563e-16)
(25.7158 3.96014 -3.29888e-18)
(25.752 3.9672 2.36207e-18)
(25.7931 3.97025 -1.01239e-17)
(25.836 3.96835 -6.90802e-17)
(25.8774 3.96168 -4.01835e-18)
(25.9203 3.94989 -1.61305e-16)
(25.9627 3.93353 1.15082e-17)
(26.003 3.91348 3.10204e-16)
(26.042 3.88978 -1.95514e-16)
(26.0788 3.86346 4.79062e-16)
(26.1132 3.83487 1.02576e-15)
(26.1456 3.80419 -1.47559e-15)
(26.176 3.772 3.54442e-16)
(26.2044 3.73836 -1.45704e-16)
(26.2311 3.70323 -6.5226e-17)
(26.2558 3.66673 4.3952e-16)
(26.2788 3.62895 -3.22284e-16)
(26.2999 3.59001 1.37713e-16)
(26.3191 3.55009 -7.09991e-16)
(26.3362 3.5095 4.55284e-18)
(26.351 3.46871 8.23061e-17)
(26.3636 3.42851 1.64692e-16)
(26.3736 3.38987 -4.6167e-17)
(25.7213 3.92958 4.50807e-19)
(25.7544 3.93574 3.15922e-18)
(25.7918 3.93801 -3.79188e-18)
(25.831 3.93555 2.41726e-16)
(25.8688 3.9286 -2.80236e-16)
(25.908 3.91673 3.89708e-17)
(25.9469 3.90056 2.37901e-16)
(25.9838 3.8809 -1.61322e-16)
(26.0196 3.85773 3.33382e-17)
(26.0533 3.83223 -7.34584e-16)
(26.0848 3.80446 -2.51469e-16)
(26.1147 3.77473 4.98461e-16)
(26.1428 3.74371 -7.69257e-16)
(26.1692 3.71138 3.50208e-16)