/*--------------------------------*- C++ -*----------------------------------*\
| =========                 |                                                 |
| \\      /  F ield         | OpenFOAM: The Open Source CFD Toolbox           |
|  \\    /   O peration     | Version:  2506                                  |
|   \\  /    A nd           | Website:  www.openfoam.com                      |
|    \\/     M anipulation  |                                                 |
\*---------------------------------------------------------------------------*/
FoamFile
{
    version     2.0;
    format      ascii;
    arch        "LSB;label=32;scalar=64";
    class       volScalarField;
    location    "50";
    object      turbulenceProperties:k;
}
// * * * * * * * * * * * * * * * * * * * * * * * * * * * * * * * * * * * * * //

dimensions      [0 2 -2 0 0 0 0];

internalField   nonuniform List<scalar> 
1340
(
0.000423789
0.000426116
0.000427022
0.00035838
0.000360843
0.000362167
0.00036284
0.00036264
0.000305052
0.000307503
0.000309049
0.000310189
0.000310689
0.000310217
0.000308685
0.000261096
0.00026346
0.000265089
0.000266454
0.000267378
0.000267576
0.000266913
0.000265381
0.000224561
0.000226789
0.000228419
0.000229894
0.00023106
0.000231648
0.000231628
0.000230842
0.000229345
0.000193954
0.000196033
0.000197606
0.000199104
0.000200395
0.000201223
0.000201584
0.000201372
0.000200547
0.000168148
0.000170064
0.000171554
0.000173029
0.000174356
0.000175324
0.000175932
0.000176115
0.000175761
0.000174932
0.000146257
0.000148007
0.000149403
0.000150816
0.000152132
0.000153164
0.000153927
0.000154346
0.000154381
0.00015394
0.000153113
0.000127583
0.000129174
0.000130472
0.0001318
0.000133076
0.000134122
0.000134966
0.000135546
0.000135819
0.000135729
0.000135269
0.000111574
0.000113023
0.000114212
0.000115456
0.000116665
0.000117698
0.000118574
0.00011925
0.000119678
0.000119838
0.000119628
0.000119177
9.77928e-05
9.91068e-05
0.000100195
0.000101343
0.00010248
0.000103474
0.000104356
0.000105079
0.000105608
0.00010592
0.000105963
0.00010574
8.58871e-05
8.70719e-05
8.80607e-05
8.9116e-05
9.01752e-05
9.11183e-05
9.19824e-05
9.27238e-05
9.33098e-05
9.37232e-05
9.39399e-05
9.38881e-05
9.3691e-05
7.55604e-05
7.66302e-05
7.75226e-05
7.84902e-05
7.94696e-05
8.03573e-05
8.11893e-05
8.19256e-05
8.25391e-05
8.30162e-05
8.3331e-05
8.34598e-05
8.34015e-05
6.65779e-05
6.75406e-05
6.83457e-05
6.92303e-05
7.01311e-05
7.096e-05
7.17494e-05
7.24674e-05
7.30858e-05
7.35992e-05
7.39802e-05
7.42294e-05
7.4283e-05
7.42661e-05
5.87439e-05
5.961e-05
6.03364e-05
6.1139e-05
6.19657e-05
6.27339e-05
6.34769e-05
6.41634e-05
6.47735e-05
6.52989e-05
6.57206e-05
6.60336e-05
6.62072e-05
6.62811e-05
5.18967e-05
5.26733e-05
5.3328e-05
5.4055e-05
5.48101e-05
5.5518e-05
5.62124e-05
5.6864e-05
5.74521e-05
5.79759e-05
5.84162e-05
5.87698e-05
5.90201e-05
5.91588e-05
4.58985e-05
4.65934e-05
4.71796e-05
4.78375e-05
4.85252e-05
4.91764e-05
4.98198e-05
5.04323e-05
5.09928e-05
5.15034e-05
5.19469e-05
5.23208e-05
5.26244e-05
5.28081e-05
5.29741e-05
4.06333e-05
4.12519e-05
4.17749e-05
4.23701e-05
4.29954e-05
4.35915e-05
4.41871e-05
4.47573e-05
4.52855e-05
4.57747e-05
4.62112e-05
4.65929e-05
4.6918e-05
4.71609e-05
4.7361e-05
3.60015e-05
3.65477e-05
3.70141e-05
3.75537e-05
3.81235e-05
3.86674e-05
3.92154e-05
3.97424e-05
4.02371e-05
4.06997e-05
4.1121e-05
4.14989e-05
4.18335e-05
4.21099e-05
4.23275e-05
3.19175e-05
3.23992e-05
3.28177e-05
3.33067e-05
3.38239e-05
3.43195e-05
3.48212e-05
3.53061e-05
3.5764e-05
3.61983e-05
3.65989e-05
3.69674e-05
3.72999e-05
3.75975e-05
3.78236e-05
3.80617e-05
2.83122e-05
2.87372e-05
2.91151e-05
2.95585e-05
3.00263e-05
3.04761e-05
3.09328e-05
3.13773e-05
3.17995e-05
3.22034e-05
3.25803e-05
3.29325e-05
3.32573e-05
3.35543e-05
3.38064e-05
3.40449e-05
2.51284e-05
2.55028e-05
2.58444e-05
2.62456e-05
2.66674e-05
2.70736e-05
2.7489e-05
2.78944e-05
2.82806e-05
2.8654e-05
2.90054e-05
2.93375e-05
2.96495e-05
2.99389e-05
3.02009e-05
3.04314e-05
2.20076e-05
2.23148e-05
2.26458e-05
2.2951e-05
2.33127e-05
2.36929e-05
2.40589e-05
2.44343e-05
2.48031e-05
2.51556e-05
2.54979e-05
2.58228e-05
2.6133e-05
2.64284e-05
2.67056e-05
2.69693e-05
2.71886e-05
2.74296e-05
1.95484e-05
1.98226e-05
2.01157e-05
2.03892e-05
2.07146e-05
2.10561e-05
2.13857e-05
2.17252e-05
2.20584e-05
2.23783e-05
2.2691e-05
2.29892e-05
2.3276e-05
2.35522e-05
2.38144e-05
2.40655e-05
2.42925e-05
2.45183e-05
1.73695e-05
1.76131e-05
1.78744e-05
1.81189e-05
1.84111e-05
1.87182e-05
1.9014e-05
1.93194e-05
1.96203e-05
1.991e-05
2.01929e-05
2.0465e-05
2.07281e-05
2.09835e-05
2.12287e-05
2.14647e-05
2.16867e-05
2.18942e-05
1.54374e-05
1.56548e-05
1.58871e-05
1.61059e-05
1.63682e-05
1.66429e-05
1.69082e-05
1.71827e-05
1.74529e-05
1.77132e-05
1.79693e-05
1.82158e-05
1.84554e-05
1.86892e-05
1.89149e-05
1.91337e-05
1.93482e-05
1.95344e-05
1.97391e-05
1.37232e-05
1.39173e-05
1.41244e-05
1.43198e-05
1.45547e-05
1.48008e-05
1.5038e-05
1.52835e-05
1.55259e-05
1.57594e-05
1.59891e-05
1.62112e-05
1.64274e-05
1.66396e-05
1.68461e-05
1.7047e-05
1.7243e-05
1.74247e-05
1.76116e-05
1.22014e-05
1.23748e-05
1.25592e-05
1.2734e-05
1.29442e-05
1.31639e-05
1.33758e-05
1.35958e-05
1.38116e-05
1.40202e-05
1.42262e-05
1.44249e-05
1.46191e-05
1.48099e-05
1.4996e-05
1.51785e-05
1.53561e-05
1.5524e-05
1.56954e-05
1.08497e-05
1.10047e-05
1.11692e-05
1.1325e-05
1.1513e-05
1.17094e-05
1.18982e-05
1.2094e-05
1.22869e-05
1.24729e-05
1.26559e-05
1.28329e-05
1.30058e-05
1.31762e-05
1.33429e-05
1.35057e-05
1.36655e-05
1.38167e-05
1.39681e-05
9.64928e-06
9.78729e-06
9.93359e-06
1.00728e-05
1.02409e-05
1.04158e-05
1.05842e-05
1.07589e-05
1.09302e-05
1.10948e-05
1.12576e-05
1.14144e-05
1.15678e-05
1.17185e-05
1.18656e-05
1.20098e-05
1.21508e-05
1.22856e-05
1.24157e-05
8.58252e-06
8.70514e-06
8.83521e-06
8.95934e-06
9.10932e-06
9.26557e-06
9.41532e-06
9.57047e-06
9.72271e-06
9.86883e-06
1.00125e-05
1.0151e-05
1.02858e-05
1.04184e-05
1.05476e-05
1.06736e-05
1.0796e-05
1.09162e-05
1.10232e-05
1.11337e-05
7.63457e-06
7.7431e-06
7.85824e-06
7.96914e-06
8.10281e-06
8.24178e-06
8.37512e-06
8.51346e-06
8.64819e-06
8.77723e-06
8.90435e-06
9.02578e-06
9.14405e-06
9.25972e-06
9.37187e-06
9.48108e-06
9.58625e-06
9.68824e-06
9.78149e-06
9.87323e-06
6.79159e-06
6.88754e-06
6.98943e-06
7.08795e-06
7.20701e-06
7.331e-06
7.44957e-06
7.57216e-06
7.69198e-06
7.80599e-06
7.91748e-06
8.02413e-06
8.12712e-06
8.22765e-06
8.32452e-06
8.4177e-06
8.50733e-06
8.59148e-06
8.66994e-06
8.74414e-06
6.04197e-06
6.12633e-06
6.21623e-06
6.30398e-06
6.41e-06
6.51999e-06
6.62565e-06
6.7349e-06
6.84065e-06
6.9413e-06
7.03979e-06
7.13285e-06
7.22247e-06
7.30914e-06
7.39181e-06
7.471e-06
7.54555e-06
7.61516e-06
7.67772e-06
7.73358e-06
5.3745e-06
5.44878e-06
5.52825e-06
5.60602e-06
5.70037e-06
5.79838e-06
5.89221e-06
5.98905e-06
6.0832e-06
6.17219e-06
6.25848e-06
6.33998e-06
6.4176e-06
6.49219e-06
6.56259e-06
6.62889e-06
6.69017e-06
6.74586e-06
6.79409e-06
6.83367e-06
4.77994e-06
4.84542e-06
4.91561e-06
4.98487e-06
5.06867e-06
5.15561e-06
5.23925e-06
5.32555e-06
5.40881e-06
5.48745e-06
5.56378e-06
5.63489e-06
5.70232e-06
5.76617e-06
5.82553e-06
5.88059e-06
5.92999e-06
5.97325e-06
6.00928e-06
6.03278e-06
6.04914e-06
4.24982e-06
4.30789e-06
4.37014e-06
4.43166e-06
4.50615e-06
4.58368e-06
4.65795e-06
4.73457e-06
4.80882e-06
4.87854e-06
4.94555e-06
5.00806e-06
5.06639e-06
5.12129e-06
5.17134e-06
5.21645e-06
5.25562e-06
5.28787e-06
5.31202e-06
5.32478e-06
5.32833e-06
3.77728e-06
3.8288e-06
3.88413e-06
3.93912e-06
4.0054e-06
4.07422e-06
4.14053e-06
4.20894e-06
4.27464e-06
4.33646e-06
4.39598e-06
4.45067e-06
4.50163e-06
4.54869e-06
4.59073e-06
4.62773e-06
4.65825e-06
4.68172e-06
4.69576e-06
4.69892e-06
4.69178e-06
3.35586e-06
3.40186e-06
3.45124e-06
3.50032e-06
3.55942e-06
3.62091e-06
3.67996e-06
3.74078e-06
3.79954e-06
3.85453e-06
3.90701e-06
3.95539e-06
3.99979e-06
4.0405e-06
4.07612e-06
4.10627e-06
4.12989e-06
4.1457e-06
4.15232e-06
4.14734e-06
4.13028e-06
2.98046e-06
3.02152e-06
3.06556e-06
3.10964e-06
3.16238e-06
3.21717e-06
3.27013e-06
3.32459e-06
3.37685e-06
3.42586e-06
3.47264e-06
3.51522e-06
3.5543e-06
3.58951e-06
3.61977e-06
3.64463e-06
3.66274e-06
3.67282e-06
3.67347e-06
3.66178e-06
3.63829e-06
2.64634e-06
2.68291e-06
2.72219e-06
2.76163e-06
2.80881e-06
2.85804e-06
2.90548e-06
2.95428e-06
3.00132e-06
3.04511e-06
3.08657e-06
3.12443e-06
3.15875e-06
3.18957e-06
3.21558e-06
3.23611e-06
3.25009e-06
3.25583e-06
3.25237e-06
3.23606e-06
3.20756e-06
3.15089e-06
2.34942e-06
2.38157e-06
2.41645e-06
2.45187e-06
2.49408e-06
2.53823e-06
2.58118e-06
2.62528e-06
2.66749e-06
2.70685e-06
2.7441e-06
2.77768e-06
2.80814e-06
2.83507e-06
2.85749e-06
2.87487e-06
2.88579e-06
2.88887e-06
2.88244e-06
2.86375e-06
2.83233e-06
2.77513e-06
2.08551e-06
2.11357e-06
2.14436e-06
2.17598e-06
2.21386e-06
2.25376e-06
2.29266e-06
2.33261e-06
2.37111e-06
2.4068e-06
2.44026e-06
2.47047e-06
2.49749e-06
2.52132e-06
2.54093e-06
2.55568e-06
2.5645e-06
2.56582e-06
2.55819e-06
2.53876e-06
2.50653e-06
2.45069e-06
1.85107e-06
1.87522e-06
1.90212e-06
1.93042e-06
1.96435e-06
2.00036e-06
2.03596e-06
2.07257e-06
2.10773e-06
2.14046e-06
2.17109e-06
2.19841e-06
2.22282e-06
2.24401e-06
2.26126e-06
2.27411e-06
2.28137e-06
2.28179e-06
2.27377e-06
2.25485e-06
2.22362e-06
2.17028e-06
1.6426e-06
1.66313e-06
1.68648e-06
1.7116e-06
1.74206e-06
1.77479e-06
1.80738e-06
1.84105e-06
1.87373e-06
1.90408e-06
1.93235e-06
1.95765e-06
1.97994e-06
1.99923e-06
2.01476e-06
2.02608e-06
2.03235e-06
2.03234e-06
2.02479e-06
2.00704e-06
1.97806e-06
1.92856e-06
1.45698e-06
1.47409e-06
1.4942e-06
1.51654e-06
1.54386e-06
1.5736e-06
1.60371e-06
1.63495e-06
1.66534e-06
1.6939e-06
1.72057e-06
1.7443e-06
1.76528e-06
1.78323e-06
1.7976e-06
1.80808e-06
1.81378e-06
1.81385e-06
1.80699e-06
1.79126e-06
1.76506e-06
1.72076e-06
1.29121e-06
1.30538e-06
1.32258e-06
1.34232e-06
1.36693e-06
1.39408e-06
1.42187e-06
1.45094e-06
1.47963e-06
1.50671e-06
1.53208e-06
1.55493e-06
1.57511e-06
1.59248e-06
1.60641e-06
1.61654e-06
1.62226e-06
1.62277e-06
1.61705e-06
1.60352e-06
1.58039e-06
1.54241e-06
1.14303e-06
1.15464e-06
1.16926e-06
1.18673e-06
1.20884e-06
1.23356e-06
1.25937e-06
1.28656e-06
1.31359e-06
1.33952e-06
1.36403e-06
1.38628e-06
1.40626e-06
1.42355e-06
1.43762e-06
1.44814e-06
1.4544e-06
1.45582e-06
1.45147e-06
1.44035e-06
1.42048e-06
1.38854e-06
1.33598e-06
1.01042e-06
1.01989e-06
1.03229e-06
1.04766e-06
1.06756e-06
1.0901e-06
1.11395e-06
1.13938e-06
1.1651e-06
1.18996e-06
1.21368e-06
1.23567e-06
1.25565e-06
1.27334e-06
1.28809e-06
1.29944e-06
1.3068e-06
1.30959e-06
1.30709e-06
1.29838e-06
1.28202e-06
1.25519e-06
1.21253e-06
8.91664e-07
8.9927e-07
9.09796e-07
9.23387e-07
9.41278e-07
9.61746e-07
9.83867e-07
1.00771e-06
1.03205e-06
1.05596e-06
1.07904e-06
1.10072e-06
1.12089e-06
1.13907e-06
1.1547e-06
1.16728e-06
1.17614e-06
1.18074e-06
1.18046e-06
1.17462e-06
1.16197e-06
1.1403e-06
1.10591e-06
7.85288e-07
7.91444e-07
8.00383e-07
8.12383e-07
8.28511e-07
8.47125e-07
8.67566e-07
8.89906e-07
9.13078e-07
9.35975e-07
9.58299e-07
9.7969e-07
9.99867e-07
1.01851e-06
1.03502e-06
1.04889e-06
1.05947e-06
1.0662e-06
1.0685e-06
1.06571e-06
1.05697e-06
1.04048e-06
1.01368e-06
6.90477e-07
6.95459e-07
7.03071e-07
7.13724e-07
7.28195e-07
7.45061e-07
7.6403e-07
7.84966e-07
8.06892e-07
8.28738e-07
8.50238e-07
8.71092e-07
8.91126e-07
9.09937e-07
9.27133e-07
9.42215e-07
9.54525e-07
9.63495e-07
9.68527e-07
9.69048e-07
9.642e-07
9.52694e-07
9.32768e-07
6.063e-07
6.1036e-07
6.16933e-07
6.26443e-07
6.39457e-07
6.54795e-07
6.72369e-07
6.91939e-07
7.12683e-07
7.33251e-07
7.53707e-07
7.73897e-07
7.93454e-07
8.12209e-07
8.29843e-07
8.4592e-07
8.59846e-07
8.71017e-07
8.78789e-07
8.8255e-07
8.81506e-07
8.74872e-07
8.6116e-07
5.3152e-07
5.34798e-07
5.40611e-07
5.49347e-07
5.61117e-07
5.7525e-07
5.91677e-07
6.09934e-07
6.294e-07
6.4851e-07
6.67874e-07
6.87211e-07
7.06051e-07
7.24394e-07
7.42246e-07
7.59154e-07
7.74501e-07
7.87685e-07
7.98046e-07
8.04837e-07
8.07547e-07
8.05269e-07
7.97038e-07
4.65099e-07
4.67773e-07
4.72924e-07
4.81091e-07
4.91872e-07
5.05229e-07
5.20579e-07
5.37666e-07
5.55968e-07
5.73347e-07
5.917e-07
6.10317e-07
6.28127e-07
6.45756e-07
6.63549e-07
6.81052e-07
6.97583e-07
7.12518e-07
7.2512e-07
7.34764e-07
7.40869e-07
7.42209e-07
7.3874e-07
4.06701e-07
4.08792e-07
4.13295e-07
4.20929e-07
4.30789e-07
4.43586e-07
4.57748e-07
4.73987e-07
4.90941e-07
5.06345e-07
5.2437e-07
5.42614e-07
5.59217e-07
5.75731e-07
5.93136e-07
6.10906e-07
6.28276e-07
6.44566e-07
6.59017e-07
6.70906e-07
6.79307e-07
6.83556e-07
6.84176e-07
6.82204e-07
3.55869e-07
3.57292e-07
3.61088e-07
3.68091e-07
3.77035e-07
3.89331e-07
4.01986e-07
4.17999e-07
4.32502e-07
4.46638e-07
4.6614e-07
4.84026e-07
4.98621e-07
5.1378e-07
5.30472e-07
5.47981e-07
5.65726e-07
5.8297e-07
5.98761e-07
6.12016e-07
6.22198e-07
6.28481e-07
6.31764e-07
6.33492e-07
3.11697e-07
3.12335e-07
3.15425e-07
3.21811e-07
3.29863e-07
3.41568e-07
3.52547e-07
3.68853e-07
3.78766e-07
3.94697e-07
4.16786e-07
4.3322e-07
4.44716e-07
4.5869e-07
4.74846e-07
4.91732e-07
5.0936e-07
5.27242e-07
5.43921e-07
5.58236e-07
5.69612e-07
5.77518e-07
5.82307e-07
5.85344e-07
2.74782e-07
2.74667e-07
2.77143e-07
2.82795e-07
2.90068e-07
3.00789e-07
3.09741e-07
3.25343e-07
3.29428e-07
3.48423e-07
3.70185e-07
3.85606e-07
3.95976e-07
4.10843e-07
4.28015e-07
4.45256e-07
4.63434e-07
4.82513e-07
5.00958e-07
5.17346e-07
5.30812e-07
5.41116e-07
5.48154e-07
5.5305e-07
2.46224e-07
2.44958e-07
2.46105e-07
2.50236e-07
2.56184e-07
2.65018e-07
2.72055e-07
2.85136e-07
2.85802e-07
3.03726e-07
3.24139e-07
3.41059e-07
3.52621e-07
3.68895e-07
3.87377e-07
4.05292e-07
4.23831e-07
4.43584e-07
4.63181e-07
4.81044e-07
4.9634e-07
5.08599e-07
5.18239e-07
5.26014e-07
2.21906e-07
2.19536e-07
2.19148e-07
2.2151e-07
2.25825e-07
2.32554e-07
2.38051e-07
2.48458e-07
2.4813e-07
2.62383e-07
2.81154e-07
2.99017e-07
3.12365e-07
3.29573e-07
3.48915e-07
3.67387e-07
3.85896e-07
4.0545e-07
4.2522e-07
4.43604e-07
4.59682e-07
4.72872e-07
4.83977e-07
4.9337e-07
1.98124e-07
1.95039e-07
1.93539e-07
1.94483e-07
1.97429e-07
2.02373e-07
2.06875e-07
2.1493e-07
2.14428e-07
2.24543e-07
2.41327e-07
2.59481e-07
2.75039e-07
2.93458e-07
3.13873e-07
3.33272e-07
3.52054e-07
3.71455e-07
3.91184e-07
4.1003e-07
4.26767e-07
4.41073e-07
4.53301e-07
4.63557e-07
1.75409e-07
1.7186e-07
1.69526e-07
1.69328e-07
1.71083e-07
1.74429e-07
1.78159e-07
1.83958e-07
1.83532e-07
1.89459e-07
2.04144e-07
2.21888e-07
2.39824e-07
2.59897e-07
2.81523e-07
3.01961e-07
3.2107e-07
3.40082e-07
3.59345e-07
3.78077e-07
3.95088e-07
4.10338e-07
4.23929e-07
4.35624e-07
1.53739e-07
1.50174e-07
1.4749e-07
1.46541e-07
1.47271e-07
1.49147e-07
1.51991e-07
1.554e-07
1.54904e-07
1.57025e-07
1.69594e-07
1.86545e-07
2.0672e-07
2.28545e-07
2.51354e-07
2.72722e-07
2.92135e-07
3.10655e-07
3.2915e-07
3.4727e-07
3.64381e-07
3.80338e-07
3.94698e-07
4.0739e-07
1.33428e-07
1.30344e-07
1.27828e-07
1.26537e-07
1.2642e-07
1.26936e-07
1.28526e-07
1.29402e-07
1.28438e-07
1.27408e-07
1.37983e-07
1.54021e-07
1.75945e-07
1.99241e-07
2.22838e-07
2.4483e-07
2.64382e-07
2.82328e-07
2.99883e-07
3.17427e-07
3.3488e-07
3.51992e-07
3.68354e-07
3.83503e-07
1.14935e-07
1.12724e-07
1.108e-07
1.0946e-07
1.08616e-07
1.07867e-07
1.07766e-07
1.06151e-07
1.04315e-07
1.00878e-07
1.09715e-07
1.24843e-07
1.47832e-07
1.71902e-07
1.95582e-07
2.17572e-07
2.37089e-07
2.54622e-07
2.71312e-07
2.88114e-07
3.05112e-07
3.21621e-07
3.37174e-07
3.51295e-07
3.63535e-07
9.79563e-08
9.67729e-08
9.5678e-08
9.45329e-08
9.31382e-08
9.12883e-08
8.92556e-08
8.55879e-08
8.25546e-08
7.72634e-08
8.48933e-08
9.91459e-08
1.22609e-07
1.46743e-07
1.69669e-07
1.91195e-07
2.10857e-07
2.2865e-07
2.45785e-07
2.63502e-07
2.82277e-07
3.02119e-07
3.22621e-07
3.43025e-07
3.60843e-07
8.23291e-08
8.25283e-08
8.24484e-08
8.15682e-08
7.96528e-08
7.6728e-08
7.27572e-08
6.75738e-08
6.28987e-08
5.61986e-08
6.32412e-08
7.65125e-08
9.98209e-08
1.23371e-07
1.45302e-07
1.66204e-07
1.8564e-07
2.03494e-07
2.20692e-07
2.37999e-07
2.55353e-07
2.71781e-07
2.86595e-07
3.01051e-07
3.16573e-07
6.93536e-08
7.15793e-08
7.25744e-08
7.15019e-08
6.8423e-08
6.37269e-08
5.76663e-08
5.12577e-08
4.48708e-08
3.79442e-08
4.43046e-08
5.63141e-08
7.84051e-08
1.00945e-07
1.22802e-07
1.45003e-07
1.67189e-07
1.88816e-07
2.10208e-07
2.32364e-07
2.56421e-07
2.83397e-07
3.13482e-07
3.44031e-07
3.70167e-07
6.13709e-08
6.57905e-08
6.75248e-08
6.57017e-08
6.06766e-08
5.31297e-08
4.41113e-08
3.55201e-08
2.76152e-08
2.25987e-08
2.83401e-08
3.90885e-08
5.8619e-08
7.84472e-08
9.8129e-08
1.19214e-07
1.41861e-07
1.65875e-07
1.91461e-07
2.18524e-07
2.4612e-07
2.73006e-07
2.98645e-07
3.2326e-07
3.4726e-07
5.8357e-08
6.39699e-08
6.58458e-08
6.33815e-08
5.68519e-08
4.69489e-08
3.5054e-08
2.288e-08
1.18984e-08
8.73465e-09
1.05941e-08
1.9511e-08
3.86718e-08
6.33969e-08
9.33291e-08
1.2863e-07
1.68871e-07
2.13232e-07
2.6066e-07
3.10028e-07
3.59581e-07
4.06638e-07
4.47178e-07
4.77996e-07
5.03999e-07
)
;

boundaryField
{
    inlet
    {
        type            calculated;
        value           nonuniform List<scalar> 
25
(
5.90228e-08
6.46946e-08
6.65544e-08
6.40775e-08
5.73568e-08
4.69949e-08
3.43604e-08
2.09109e-08
8.16925e-09
7.02235e-09
1.3533e-08
2.85711e-08
6.0496e-08
1.09901e-07
1.77721e-07
2.65254e-07
3.73461e-07
5.02445e-07
6.51491e-07
8.18915e-07
1.00156e-06
1.19338e-06
1.38538e-06
1.56591e-06
1.72959e-06
)
;
    }
    outlet
    {
        type            calculated;
        value           nonuniform List<scalar> 0();
    }
    walls
    {
        type            calculated;
        value           nonuniform List<scalar> 0();
    }
    frontAndBack
    {
        type            empty;
    }
    procBoundary4to0
    {
        type            processor;
        value           nonuniform List<scalar> 
72
(
0.000421371
0.000355986
0.000302766
0.000258971
0.00022262
0.0001922
0.000166563
0.000144821
0.000126284
0.000110402
9.67362e-05
8.49297e-05
7.46938e-05
6.57928e-05
5.80319e-05
5.1249e-05
4.53081e-05
4.00956e-05
3.55164e-05
3.14825e-05
2.79255e-05
2.47862e-05
2.47862e-05
2.17279e-05
1.92981e-05
1.71464e-05
1.52385e-05
1.35459e-05
1.20435e-05
1.07097e-05
9.525e-06
8.47283e-06
7.53786e-06
6.7068e-06
5.96741e-06
5.30903e-06
4.72203e-06
4.19842e-06
3.73119e-06
3.31456e-06
2.94339e-06
2.61331e-06
2.32017e-06
2.06012e-06
1.82934e-06
1.62432e-06
1.44174e-06
1.27875e-06
1.13299e-06
1.00243e-06
8.85276e-07
7.8031e-07
6.86671e-07
6.03382e-07
5.2922e-07
4.63326e-07
4.05466e-07
3.5517e-07
3.11485e-07
2.75117e-07
2.47453e-07
2.23977e-07
2.00774e-07
1.78468e-07
1.5684e-07
1.36168e-07
1.16914e-07
9.88397e-08
8.16439e-08
6.61653e-08
5.49644e-08
4.99172e-08
)
;
    }
    procBoundary4to5
    {
        type            processor;
        value           nonuniform List<scalar> 
95
(
0.000504919
0.000506801
0.000506698
0.000426897
0.000426897
0.00042554
0.000361061
0.000361061
0.000358162
0.00030592
0.00030592
0.00026281
0.00026281
0.000226917
0.000199033
0.000199033
0.000173483
0.000173483
0.000151701
0.000134397
0.000134397
0.00011831
0.000105254
0.000105254
9.32071e-05
8.31822e-05
8.31822e-05
7.40378e-05
6.62156e-05
5.92225e-05
5.92225e-05
5.30416e-05
4.74991e-05
4.25197e-05
4.25197e-05
3.82596e-05
3.42621e-05
3.06613e-05
3.06613e-05
2.76596e-05
2.47413e-05
2.21052e-05
2.21052e-05
1.99469e-05
1.78002e-05
1.58594e-05
1.4111e-05
1.25404e-05
1.25404e-05
1.12521e-05
9.96857e-06
8.81469e-06
7.78348e-06
6.86404e-06
6.86404e-06
6.03675e-06
5.30205e-06
4.6537e-06
4.08217e-06
3.58365e-06
3.58365e-06
3.04952e-06
2.67591e-06
2.3557e-06
2.08085e-06
1.8473e-06
1.64846e-06
1.47935e-06
1.47935e-06
1.27084e-06
1.15911e-06
1.06391e-06
9.81177e-07
9.0861e-07
8.44069e-07
7.86038e-07
7.32343e-07
7.32343e-07
6.8115e-07
6.34511e-07
5.87274e-07
5.56209e-07
5.3187e-07
5.00905e-07
4.71571e-07
4.44945e-07
4.17626e-07
3.96382e-07
3.96382e-07
3.73878e-07
3.74215e-07
3.32249e-07
3.91119e-07
3.70799e-07
5.23034e-07
)
;
    }
}


// ************************************************************************* //
