/*--------------------------------*- C++ -*----------------------------------*\
| =========                 |                                                 |
| \\      /  F ield         | OpenFOAM: The Open Source CFD Toolbox           |
|  \\    /   O peration     | Version:  2506                                  |
|   \\  /    A nd           | Website:  www.openfoam.com                      |
|    \\/     M anipulation  |                                                 |
\*---------------------------------------------------------------------------*/
FoamFile
{
    version     2.0;
    format      ascii;
    arch        "LSB;label=32;scalar=64";
    class       volScalarField;
    location    "50";
    object      turbulenceProperties:I;
}
// * * * * * * * * * * * * * * * * * * * * * * * * * * * * * * * * * * * * * //

dimensions      [0 0 0 0 0 0 0];

internalField   nonuniform List<scalar> 
1340
(
0.000809465
0.000781408
0.0007517
0.000731543
0.000709496
0.000685769
0.000662399
0.000638345
0.000664157
0.000646695
0.000627632
0.000608796
0.000589207
0.000569407
0.000549827
0.000605416
0.000591502
0.000576091
0.000560817
0.000544813
0.000528526
0.000512273
0.00049603
0.000553874
0.000542725
0.000530206
0.000517783
0.000504673
0.000491215
0.000477773
0.000464151
0.000450637
0.000508353
0.000499393
0.000489171
0.000479036
0.000468275
0.000457142
0.000445972
0.000434617
0.000423234
0.000467924
0.000460699
0.000452326
0.000444044
0.000435191
0.000425977
0.000416696
0.000407242
0.000397657
0.000388086
0.000431819
0.00042598
0.000419109
0.000412329
0.00040504
0.000397407
0.000389707
0.000381811
0.000373824
0.000365691
0.000357534
0.000399412
0.000394691
0.00038905
0.000383489
0.000377492
0.000371168
0.00036478
0.000358208
0.000351532
0.000344729
0.000337798
0.000370185
0.000366387
0.000361739
0.000357192
0.000352257
0.000347027
0.000341733
0.000336275
0.000330704
0.000325039
0.000319139
0.000313231
0.000343723
0.000340674
0.000336851
0.000333133
0.000329083
0.000324762
0.000320392
0.000315867
0.000311239
0.000306511
0.000301607
0.000296576
0.000319677
0.000317236
0.000314093
0.000311062
0.00030775
0.00030419
0.000300596
0.000296862
0.00029303
0.000289106
0.000285047
0.000280781
0.000276514
0.000297742
0.000295808
0.000293222
0.000290768
0.000288071
0.000285153
0.000282212
0.000279146
0.000275991
0.000272752
0.000269383
0.000265875
0.000262241
0.000277673
0.000276154
0.000274036
0.000272064
0.000269882
0.000267505
0.000265112
0.000262614
0.000260032
0.000257381
0.000254607
0.000251738
0.000248675
0.000245645
0.00025926
0.000258087
0.000256364
0.000254786
0.000253039
0.000251118
0.00024919
0.000247167
0.000245075
0.000242919
0.000240658
0.000238305
0.000235813
0.000233265
0.000242329
0.000241437
0.000240046
0.000238799
0.000237417
0.000235877
0.000234344
0.000232728
0.000231046
0.000229315
0.000227488
0.000225581
0.000223567
0.000221439
0.000226721
0.000226061
0.000224941
0.000223974
0.000222897
0.000221684
0.00022048
0.00021921
0.000217878
0.000216504
0.000215048
0.000213519
0.000211921
0.00021016
0.000208459
0.000212302
0.000211827
0.000210931
0.000210202
0.000209383
0.000208444
0.000207524
0.000206542
0.000205505
0.000204434
0.000203292
0.00020209
0.000200825
0.000199448
0.000198057
0.00019895
0.000198616
0.000197911
0.000197384
0.00019679
0.000196082
0.000195399
0.000194659
0.000193874
0.000193057
0.000192181
0.000191253
0.000190275
0.000189217
0.000188089
0.000186555
0.000186337
0.000185799
0.000185446
0.000185036
0.000184524
0.00018404
0.000183504
0.000182926
0.000182327
0.000181674
0.000180982
0.000180244
0.000179464
0.000178563
0.000177752
0.000175032
0.00017491
0.000174522
0.000174314
0.000174058
0.000173709
0.000173387
0.000173024
0.000172622
0.000172203
0.000171739
0.000171243
0.000170711
0.000170142
0.0001695
0.000168875
0.000164312
0.000164268
0.000164008
0.000163921
0.00016379
0.000163574
0.000163391
0.00016317
0.000162913
0.000162646
0.000162338
0.000162006
0.000161647
0.000161255
0.000160824
0.00016035
0.000154198
0.000154331
0.000154353
0.000154189
0.0001542
0.000154175
0.000154069
0.000153997
0.000153895
0.00015376
0.000153617
0.00015344
0.000153244
0.000153029
0.000152785
0.00015253
0.000152184
0.000151943
0.000144832
0.000145013
0.000145091
0.000145011
0.000145102
0.000145161
0.000145147
0.00014517
0.000145164
0.000145127
0.000145088
0.000145018
0.000144933
0.000144835
0.000144714
0.000144584
0.000144409
0.000144268
0.00013609
0.000136305
0.000136435
0.000136423
0.000136578
0.000136709
0.00013677
0.000136867
0.00013694
0.000136986
0.000137026
0.000137043
0.000137048
0.000137045
0.000137026
0.000136997
0.000136948
0.000136883
0.000127919
0.000128165
0.000128335
0.000128381
0.000128589
0.000128773
0.000128895
0.000129054
0.000129189
0.000129297
0.000129406
0.000129491
0.000129568
0.00012964
0.000129698
0.00012975
0.000129807
0.000129796
0.000129881
0.000120278
0.000120548
0.000120752
0.000120844
0.000121092
0.000121323
0.000121493
0.000121697
0.000121883
0.000122042
0.0001222
0.000122339
0.00012247
0.000122599
0.00012272
0.000122835
0.00012295
0.000123037
0.000123172
0.000113124
0.000113413
0.000113644
0.000113775
0.000114055
0.000114319
0.000114528
0.000114771
0.000114991
0.000115188
0.000115387
0.000115566
0.000115738
0.000115909
0.000116073
0.000116236
0.000116396
0.000116538
0.00011672
0.000106422
0.000106725
0.000106977
0.000107138
0.000107443
0.000107734
0.000107972
0.000108242
0.000108492
0.000108719
0.000108944
0.000109151
0.000109352
0.000109553
0.000109749
0.00010994
0.000110133
0.000110308
0.000110508
0.000100141
0.000100451
0.000100718
0.000100905
0.000101228
0.000101538
0.000101799
0.000102091
0.00010236
0.000102605
0.000102851
0.000103078
0.000103298
0.000103517
0.000103729
0.000103939
0.000104147
0.000104344
0.000104542
9.42494e-05
9.45626e-05
9.48397e-05
9.50454e-05
9.53804e-05
9.57066e-05
9.59836e-05
9.62883e-05
9.65732e-05
9.68336e-05
9.70906e-05
9.73293e-05
9.75598e-05
9.77882e-05
9.80094e-05
9.82252e-05
9.84359e-05
9.86508e-05
9.88242e-05
9.9037e-05
8.87228e-05
8.90338e-05
8.93147e-05
8.95363e-05
8.98786e-05
9.02131e-05
9.05027e-05
9.08194e-05
9.11121e-05
9.13802e-05
9.16462e-05
9.1889e-05
9.21244e-05
9.23548e-05
9.25754e-05
9.27906e-05
9.29965e-05
9.32e-05
9.33777e-05
9.35695e-05
8.3533e-05
8.38394e-05
8.41214e-05
8.43517e-05
8.46977e-05
8.50393e-05
8.53369e-05
8.56574e-05
8.59581e-05
8.6231e-05
8.64972e-05
8.67427e-05
8.69764e-05
8.72044e-05
8.74203e-05
8.76252e-05
8.78215e-05
8.80014e-05
8.81673e-05
8.83306e-05
7.86584e-05
7.89559e-05
7.92352e-05
7.94728e-05
7.98196e-05
8.01613e-05
8.04652e-05
8.07905e-05
8.10911e-05
8.13659e-05
8.16344e-05
8.18766e-05
8.21066e-05
8.23266e-05
8.25311e-05
8.2724e-05
8.29004e-05
8.30607e-05
8.31964e-05
8.33133e-05
7.40727e-05
7.43614e-05
7.46377e-05
7.48774e-05
7.52224e-05
7.55651e-05
7.58702e-05
7.61943e-05
7.6498e-05
7.67732e-05
7.70373e-05
7.72768e-05
7.74994e-05
7.77102e-05
7.79023e-05
7.80776e-05
7.82319e-05
7.83637e-05
7.8465e-05
7.85324e-05
6.97558e-05
7.00357e-05
7.03072e-05
7.05497e-05
7.08899e-05
7.12285e-05
7.15351e-05
7.18593e-05
7.216e-05
7.24333e-05
7.26966e-05
7.29301e-05
7.31461e-05
7.3345e-05
7.35215e-05
7.36778e-05
7.38067e-05
7.39069e-05
7.39742e-05
7.39788e-05
7.39573e-05
6.56867e-05
6.59602e-05
6.62278e-05
6.64699e-05
6.68047e-05
6.71408e-05
6.74446e-05
6.7765e-05
6.80656e-05
6.83371e-05
6.85943e-05
6.88242e-05
6.90312e-05
6.92202e-05
6.9382e-05
6.95172e-05
6.96203e-05
6.96864e-05
6.97101e-05
6.9672e-05
6.95896e-05
6.18509e-05
6.21173e-05
6.23811e-05
6.26243e-05
6.29529e-05
6.32826e-05
6.35851e-05
6.39032e-05
6.41981e-05
6.44664e-05
6.47217e-05
6.4945e-05
6.51461e-05
6.53241e-05
6.54712e-05
6.55884e-05
6.56665e-05
6.57032e-05
6.56836e-05
6.55997e-05
6.54579e-05
5.82318e-05
5.84934e-05
5.87541e-05
5.89961e-05
5.93188e-05
5.96444e-05
5.99428e-05
6.0255e-05
6.05482e-05
6.08135e-05
6.10625e-05
6.12827e-05
6.14765e-05
6.16465e-05
6.17824e-05
6.18824e-05
6.19395e-05
6.19454e-05
6.18917e-05
6.1762e-05
6.15545e-05
5.482e-05
5.50758e-05
5.53322e-05
5.55745e-05
5.58906e-05
5.62096e-05
5.65062e-05
5.68149e-05
5.71025e-05
5.73644e-05
5.76106e-05
5.78248e-05
5.80142e-05
5.81761e-05
5.8302e-05
5.83895e-05
5.84285e-05
5.84104e-05
5.83252e-05
5.81513e-05
5.7894e-05
5.16051e-05
5.18538e-05
5.21052e-05
5.23452e-05
5.26551e-05
5.29705e-05
5.32635e-05
5.35679e-05
5.38541e-05
5.41124e-05
5.43526e-05
5.45636e-05
5.47471e-05
5.49039e-05
5.50231e-05
5.50997e-05
5.51258e-05
5.5088e-05
5.49794e-05
5.47701e-05
5.44665e-05
5.39318e-05
4.85796e-05
4.88166e-05
4.90608e-05
4.92989e-05
4.9602e-05
4.9912e-05
5.02048e-05
5.05075e-05
5.07897e-05
5.10458e-05
5.12841e-05
5.14901e-05
5.16702e-05
5.1821e-05
5.1934e-05
5.20049e-05
5.20221e-05
5.19738e-05
5.18461e-05
5.16149e-05
5.12762e-05
5.07101e-05
4.57313e-05
4.59546e-05
4.61893e-05
4.64227e-05
4.67197e-05
4.70268e-05
4.73182e-05
4.76192e-05
4.79029e-05
4.81587e-05
4.8394e-05
4.85986e-05
4.87745e-05
4.89218e-05
4.90312e-05
4.90971e-05
4.911e-05
4.90557e-05
4.8921e-05
4.86793e-05
4.83206e-05
4.77383e-05
4.30506e-05
4.3257e-05
4.34791e-05
4.37079e-05
4.39977e-05
4.43005e-05
4.45937e-05
4.48963e-05
4.51808e-05
4.54393e-05
4.56767e-05
4.58805e-05
4.60559e-05
4.62003e-05
4.63067e-05
4.63709e-05
4.63817e-05
4.63268e-05
4.61908e-05
4.59488e-05
4.5586e-05
4.4999e-05
4.05247e-05
4.07124e-05
4.09205e-05
4.11419e-05
4.14248e-05
4.17254e-05
4.20195e-05
4.23242e-05
4.26148e-05
4.28785e-05
4.31194e-05
4.33279e-05
4.35047e-05
4.36505e-05
4.37572e-05
4.38208e-05
4.38327e-05
4.37803e-05
4.36504e-05
4.34146e-05
4.3061e-05
4.24853e-05
3.81409e-05
3.83071e-05
3.85002e-05
3.87146e-05
3.89902e-05
3.92877e-05
3.95852e-05
3.98943e-05
4.01901e-05
4.04628e-05
4.0713e-05
4.09287e-05
4.11131e-05
4.12637e-05
4.13745e-05
4.14426e-05
4.14585e-05
4.14129e-05
4.12914e-05
4.10719e-05
4.07351e-05
4.01901e-05
3.58833e-05
3.60296e-05
3.62071e-05
3.64129e-05
3.66824e-05
3.69782e-05
3.72777e-05
3.75914e-05
3.78968e-05
3.81803e-05
3.84413e-05
3.86706e-05
3.88669e-05
3.90295e-05
3.91511e-05
3.9228e-05
3.92535e-05
3.92184e-05
3.91107e-05
3.89113e-05
3.85977e-05
3.81032e-05
3.37422e-05
3.38694e-05
3.40313e-05
3.42292e-05
3.44917e-05
3.47841e-05
3.50872e-05
3.54066e-05
3.57204e-05
3.6017e-05
3.62932e-05
3.65383e-05
3.67533e-05
3.69334e-05
3.70724e-05
3.71666e-05
3.72079e-05
3.71892e-05
3.70989e-05
3.69246e-05
3.664e-05
3.62002e-05
3.54866e-05
3.17078e-05
3.18177e-05
3.19654e-05
3.2154e-05
3.241e-05
3.26994e-05
3.30037e-05
3.33283e-05
3.3653e-05
3.39627e-05
3.42541e-05
3.45194e-05
3.47557e-05
3.49599e-05
3.51236e-05
3.52415e-05
3.53063e-05
3.53109e-05
3.52461e-05
3.50996e-05
3.48513e-05
3.4461e-05
3.38499e-05
2.97715e-05
2.98649e-05
2.99999e-05
3.0181e-05
3.04302e-05
3.07149e-05
3.10213e-05
3.13512e-05
3.16846e-05
3.20081e-05
3.23162e-05
3.2601e-05
3.28617e-05
3.3092e-05
3.32845e-05
3.3433e-05
3.35286e-05
3.35645e-05
3.35324e-05
3.34229e-05
3.32183e-05
3.28852e-05
3.23663e-05
2.79266e-05
2.80069e-05
2.81305e-05
2.83041e-05
2.85474e-05
2.88277e-05
2.91345e-05
2.94692e-05
2.98129e-05
3.01482e-05
3.04709e-05
3.07757e-05
3.10589e-05
3.13162e-05
3.15393e-05
3.17211e-05
3.1853e-05
3.19274e-05
3.19364e-05
3.18708e-05
3.17174e-05
3.14488e-05
3.1023e-05
2.61756e-05
2.62448e-05
2.63585e-05
2.65258e-05
2.6762e-05
2.70367e-05
2.7345e-05
2.76842e-05
2.80355e-05
2.8381e-05
2.87166e-05
2.90374e-05
2.93413e-05
2.96223e-05
2.98746e-05
3.00912e-05
3.02625e-05
3.03805e-05
3.04368e-05
3.04231e-05
3.03264e-05
3.0126e-05
2.97922e-05
2.45187e-05
2.45791e-05
2.46856e-05
2.48479e-05
2.50775e-05
2.53477e-05
2.56564e-05
2.59985e-05
2.63571e-05
2.67073e-05
2.7051e-05
2.73855e-05
2.77049e-05
2.80066e-05
2.82859e-05
2.85361e-05
2.87482e-05
2.8913e-05
2.9021e-05
2.90632e-05
2.90271e-05
2.89001e-05
2.86567e-05
2.29488e-05
2.30009e-05
2.31037e-05
2.32662e-05
2.34908e-05
2.37599e-05
2.40716e-05
2.44155e-05
2.47775e-05
2.51272e-05
2.54767e-05
2.58208e-05
2.61509e-05
2.64677e-05
2.67716e-05
2.7055e-05
2.73077e-05
2.75201e-05
2.7682e-05
2.77815e-05
2.78109e-05
2.77553e-05
2.75981e-05
2.14602e-05
2.15059e-05
2.16052e-05
2.17709e-05
2.19935e-05
2.22688e-05
2.25829e-05
2.29292e-05
2.32951e-05
2.36358e-05
2.39914e-05
2.43467e-05
2.46807e-05
2.50065e-05
2.5331e-05
2.56455e-05
2.59378e-05
2.61972e-05
2.64112e-05
2.65699e-05
2.66642e-05
2.66733e-05
2.65968e-05
2.00618e-05
2.00997e-05
2.01942e-05
2.03627e-05
2.05827e-05
2.0868e-05
2.11799e-05
2.15341e-05
2.18976e-05
2.22209e-05
2.25958e-05
2.29688e-05
2.33013e-05
2.36271e-05
2.39661e-05
2.43073e-05
2.46355e-05
2.49379e-05
2.52011e-05
2.54127e-05
2.55569e-05
2.56228e-05
2.56214e-05
2.55724e-05
1.87613e-05
1.87872e-05
1.88733e-05
1.90409e-05
1.92563e-05
1.95523e-05
1.98516e-05
2.02276e-05
2.05599e-05
2.0878e-05
2.13142e-05
2.17046e-05
2.20153e-05
2.23337e-05
2.26802e-05
2.30382e-05
2.33952e-05
2.37359e-05
2.40421e-05
2.42936e-05
2.44817e-05
2.45923e-05
2.46444e-05
2.46669e-05
1.75541e-05
1.75624e-05
1.76377e-05
1.78031e-05
1.80122e-05
1.8316e-05
1.85945e-05
1.90064e-05
1.92466e-05
1.96344e-05
2.01634e-05
2.05443e-05
2.08027e-05
2.11151e-05
2.14722e-05
2.18392e-05
2.22158e-05
2.25909e-05
2.29337e-05
2.32218e-05
2.34454e-05
2.35959e-05
2.36824e-05
2.37337e-05
1.64789e-05
1.64672e-05
1.65315e-05
1.66888e-05
1.68917e-05
1.71899e-05
1.74324e-05
1.78551e-05
1.79554e-05
1.84556e-05
1.90125e-05
1.9393e-05
1.96407e-05
1.99952e-05
2.03983e-05
2.07947e-05
2.12046e-05
2.16262e-05
2.2025e-05
2.23715e-05
2.26497e-05
2.28575e-05
2.29951e-05
2.30877e-05
1.55969e-05
1.55495e-05
1.55775e-05
1.56987e-05
1.58753e-05
1.61374e-05
1.63407e-05
1.67201e-05
1.67303e-05
1.72396e-05
1.78009e-05
1.8249e-05
1.85449e-05
1.89579e-05
1.94172e-05
1.98513e-05
2.02906e-05
2.07483e-05
2.11917e-05
2.15862e-05
2.19162e-05
2.21748e-05
2.23739e-05
2.25316e-05
1.48046e-05
1.47191e-05
1.46989e-05
1.47703e-05
1.4906e-05
1.51187e-05
1.52886e-05
1.56123e-05
1.55945e-05
1.60311e-05
1.6588e-05
1.70972e-05
1.74644e-05
1.79296e-05
1.84389e-05
1.89116e-05
1.93731e-05
1.98488e-05
2.03176e-05
2.07426e-05
2.11053e-05
2.13961e-05
2.16363e-05
2.18363e-05
1.39869e-05
1.38722e-05
1.38128e-05
1.38401e-05
1.39384e-05
1.41056e-05
1.42555e-05
1.45251e-05
1.45024e-05
1.48374e-05
1.53768e-05
1.5936e-05
1.63973e-05
1.69287e-05
1.7499e-05
1.80231e-05
1.85155e-05
1.90104e-05
1.95001e-05
1.99554e-05
2.03493e-05
2.06783e-05
2.0954e-05
2.11812e-05
1.3159e-05
1.30207e-05
1.2927e-05
1.29143e-05
1.29762e-05
1.30976e-05
1.32322e-05
1.34419e-05
1.34221e-05
1.36355e-05
1.41503e-05
1.47449e-05
1.53205e-05
1.59407e-05
1.65827e-05
1.71661e-05
1.76931e-05
1.82016e-05
1.8702e-05
1.91749e-05
1.95929e-05
1.99588e-05
2.02781e-05
2.05479e-05
1.23178e-05
1.21705e-05
1.20573e-05
1.20144e-05
1.20405e-05
1.21132e-05
1.22247e-05
1.23582e-05
1.23356e-05
1.24192e-05
1.29041e-05
1.35272e-05
1.4232e-05
1.49571e-05
1.56785e-05
1.6324e-05
1.68877e-05
1.74076e-05
1.79109e-05
1.83896e-05
1.88292e-05
1.9229e-05
1.95806e-05
1.98854e-05
1.14739e-05
1.13377e-05
1.12247e-05
1.11647e-05
1.11566e-05
1.11766e-05
1.1244e-05
1.12804e-05
1.12366e-05
1.11916e-05
1.16451e-05
1.22979e-05
1.31372e-05
1.39734e-05
1.47713e-05
1.54764e-05
1.60758e-05
1.66058e-05
1.71075e-05
1.75938e-05
1.80636e-05
1.85118e-05
1.89297e-05
1.93079e-05
1.06479e-05
1.05429e-05
1.04502e-05
1.03844e-05
1.03423e-05
1.03046e-05
1.02983e-05
1.02197e-05
1.013e-05
9.96231e-06
1.03884e-05
1.10771e-05
1.20483e-05
1.29866e-05
1.38466e-05
1.45984e-05
1.52331e-05
1.57803e-05
1.62831e-05
1.67733e-05
1.72542e-05
1.7708e-05
1.81244e-05
1.84937e-05
1.88075e-05
9.82906e-06
9.76799e-06
9.7109e-06
9.65098e-06
9.57811e-06
9.48128e-06
9.37422e-06
9.17901e-06
9.01461e-06
8.72158e-06
9.14139e-06
9.87571e-06
1.09777e-05
1.2005e-05
1.2904e-05
1.36931e-05
1.43746e-05
1.49634e-05
1.55084e-05
1.60517e-05
1.66074e-05
1.71748e-05
1.77415e-05
1.82878e-05
1.8751e-05
9.01025e-06
9.02015e-06
9.0147e-06
8.96541e-06
8.85866e-06
8.69379e-06
8.46539e-06
8.15805e-06
7.87083e-06
7.44033e-06
7.89239e-06
8.67877e-06
9.90947e-06
1.1013e-05
1.19479e-05
1.27742e-05
1.34959e-05
1.41253e-05
1.47052e-05
1.52659e-05
1.58074e-05
1.63027e-05
1.67362e-05
1.71485e-05
1.75809e-05
8.26933e-06
8.40038e-06
8.45795e-06
8.39465e-06
8.21148e-06
7.92436e-06
7.53797e-06
7.10675e-06
6.6494e-06
6.11497e-06
6.60749e-06
7.44793e-06
8.7858e-06
9.9664e-06
1.09895e-05
1.19382e-05
1.28151e-05
1.36145e-05
1.43605e-05
1.50934e-05
1.58501e-05
1.66573e-05
1.75132e-05
1.83409e-05
1.90195e-05
7.77866e-06
8.05356e-06
8.15869e-06
8.04752e-06
7.73346e-06
7.23647e-06
6.59376e-06
5.91699e-06
5.21733e-06
4.71985e-06
5.28552e-06
6.20663e-06
7.59922e-06
8.78935e-06
9.82837e-06
1.08307e-05
1.18122e-05
1.277e-05
1.37164e-05
1.46503e-05
1.55445e-05
1.63682e-05
1.71167e-05
1.78058e-05
1.84525e-05
7.58525e-06
7.94151e-06
8.05697e-06
7.90465e-06
7.48635e-06
6.80316e-06
5.87855e-06
4.74939e-06
3.42502e-06
2.93461e-06
3.23199e-06
4.38588e-06
6.17404e-06
7.90403e-06
9.58858e-06
1.12547e-05
1.28928e-05
1.4484e-05
1.60095e-05
1.74543e-05
1.87905e-05
1.99737e-05
2.09361e-05
2.16361e-05
2.2209e-05
)
;

boundaryField
{
    inlet
    {
        type            calculated;
        value           nonuniform List<scalar> 
25
(
7.62847e-06
7.98659e-06
8.10057e-06
7.94841e-06
7.52003e-06
6.80695e-06
5.82045e-06
4.54061e-06
2.83804e-06
2.63129e-06
3.65285e-06
5.30744e-06
7.72252e-06
1.04079e-05
1.32341e-05
1.61662e-05
1.91799e-05
2.22438e-05
2.5325e-05
2.8388e-05
3.13879e-05
3.42538e-05
3.68971e-05
3.9218e-05
4.12088e-05
)
;
    }
    outlet
    {
        type            calculated;
        value           nonuniform List<scalar> 0();
    }
    walls
    {
        type            calculated;
        value           nonuniform List<scalar> 0();
    }
    frontAndBack
    {
        type            empty;
    }
    procBoundary4to0
    {
        type            processor;
        value           nonuniform List<scalar> 
72
(
0.000834772
0.000751196
0.000679576
0.00061763
0.000563631
0.000516201
0.000474255
0.000436929
0.000403538
0.000373516
0.000346404
0.000321816
0.000299433
0.000278992
0.000260268
0.000243071
0.000227239
0.000212634
0.000199138
0.000186631
0.000175026
0.000164245
0.000164245
0.000154062
0.000144652
0.000135876
0.00012768
0.000120019
0.000112852
0.000106142
9.9857e-05
9.39678e-05
8.84453e-05
8.32639e-05
7.83968e-05
7.38199e-05
6.95091e-05
6.54452e-05
6.16114e-05
5.79956e-05
5.45871e-05
5.13786e-05
4.83618e-05
4.55276e-05
4.2864e-05
4.03575e-05
3.79927e-05
3.57553e-05
3.36337e-05
3.16172e-05
2.96952e-05
2.78645e-05
2.61264e-05
2.44796e-05
2.29163e-05
2.1434e-05
2.0044e-05
1.87536e-05
1.75573e-05
1.64968e-05
1.56427e-05
1.48795e-05
1.40852e-05
1.32774e-05
1.24448e-05
1.15938e-05
1.07413e-05
9.87475e-06
8.97364e-06
8.07757e-06
7.36176e-06
7.01544e-06
)
;
    }
    procBoundary4to5
    {
        type            processor;
        value           nonuniform List<scalar> 
95
(
0.00090024
0.000864137
0.000826456
0.000722545
0.000722545
0.000692885
0.000614151
0.000614151
0.000590485
0.000530283
0.000530283
0.000479854
0.000479854
0.000437069
0.000411812
0.000411812
0.000378353
0.000378353
0.000349151
0.000330728
0.000330728
0.000307083
0.000291431
0.000291431
0.000272033
0.000258531
0.000258531
0.000242419
0.000230599
0.000219279
0.000219279
0.000206656
0.000196616
0.000186972
0.000186972
0.000176908
0.000168251
0.000159921
0.000159921
0.000151716
0.000144159
0.000136867
0.000136867
0.000130013
0.000123347
0.000116905
0.0001107
0.000104742
0.000104742
9.93114e-05
9.38028e-05
8.84982e-05
8.3419e-05
7.8566e-05
7.8566e-05
7.37803e-05
6.933e-05
6.51157e-05
6.11287e-05
5.73996e-05
5.73996e-05
5.30178e-05
4.97599e-05
4.67719e-05
4.40328e-05
4.15537e-05
3.93118e-05
3.7293e-05
3.7293e-05
3.45929e-05
3.30788e-05
3.17294e-05
3.0506e-05
2.9389e-05
2.83567e-05
2.73936e-05
2.64687e-05
2.64687e-05
2.55418e-05
2.46765e-05
2.37633e-05
2.31445e-05
2.2648e-05
2.19943e-05
2.13558e-05
2.07592e-05
2.01269e-05
1.9623e-05
1.9623e-05
1.90679e-05
1.90901e-05
1.80069e-05
1.95457e-05
1.90649e-05
2.26181e-05
)
;
    }
}


// ************************************************************************* //
