/*--------------------------------*- C++ -*----------------------------------*\
| =========                 |                                                 |
| \\      /  F ield         | OpenFOAM: The Open Source CFD Toolbox           |
|  \\    /   O peration     | Version:  2506                                  |
|   \\  /    A nd           | Website:  www.openfoam.com                      |
|    \\/     M anipulation  |                                                 |
\*---------------------------------------------------------------------------*/
FoamFile
{
    version     2.0;
    format      ascii;
    arch        "LSB;label=32;scalar=64";
    class       volScalarField;
    location    "200";
    object      nut;
}
// * * * * * * * * * * * * * * * * * * * * * * * * * * * * * * * * * * * * * //

dimensions      [0 2 -1 0 0 0 0];

internalField   nonuniform List<scalar> 
1340
(
6.1471e-06
6.11979e-06
6.12237e-06
6.12348e-06
6.14901e-06
6.12006e-06
6.12898e-06
6.13045e-06
6.12288e-06
6.12535e-06
6.151e-06
6.12024e-06
6.10885e-06
6.11346e-06
6.12158e-06
6.13026e-06
6.13113e-06
6.12342e-06
6.12741e-06
6.15309e-06
6.12032e-06
6.09902e-06
6.10266e-06
6.1048e-06
6.10617e-06
6.10743e-06
6.10963e-06
6.11457e-06
6.12303e-06
6.13159e-06
6.13182e-06
6.12401e-06
6.12968e-06
6.15525e-06
6.12027e-06
6.07796e-06
6.08162e-06
6.08595e-06
6.09061e-06
6.09531e-06
6.09988e-06
6.10348e-06
6.10552e-06
6.10682e-06
6.10809e-06
6.11048e-06
6.11579e-06
6.12458e-06
6.13295e-06
6.1325e-06
6.12466e-06
6.13217e-06
6.1575e-06
6.1201e-06
6.07761e-06
6.07515e-06
6.07316e-06
6.07212e-06
6.07236e-06
6.07357e-06
6.07559e-06
6.07852e-06
6.08232e-06
6.08675e-06
6.09148e-06
6.09621e-06
6.1008e-06
6.10432e-06
6.10626e-06
6.1075e-06
6.1088e-06
6.11141e-06
6.11711e-06
6.12624e-06
6.13436e-06
6.13318e-06
6.12537e-06
6.13491e-06
6.1598e-06
6.11976e-06
6.09277e-06
6.09198e-06
6.09119e-06
6.09042e-06
6.08969e-06
6.08894e-06
6.08809e-06
6.08709e-06
6.08583e-06
6.08421e-06
6.0822e-06
6.07982e-06
6.07725e-06
6.07481e-06
6.07293e-06
6.0721e-06
6.07254e-06
6.07388e-06
6.07605e-06
6.07914e-06
6.08308e-06
6.08761e-06
6.0924e-06
6.09717e-06
6.10176e-06
6.1052e-06
6.10703e-06
6.10821e-06
6.10956e-06
6.11241e-06
6.11856e-06
6.128e-06
6.1358e-06
6.13385e-06
6.12616e-06
6.13791e-06
6.16215e-06
6.11925e-06
6.38668e-06
8.21533e-06
6.78686e-06
6.03867e-06
5.96849e-06
6.08269e-06
6.12541e-06
6.12291e-06
6.11798e-06
6.11264e-06
6.11022e-06
6.10833e-06
6.10635e-06
6.10466e-06
6.10324e-06
6.10195e-06
6.10081e-06
6.09979e-06
6.09886e-06
6.09803e-06
6.09728e-06
6.09662e-06
6.09607e-06
6.09563e-06
6.09533e-06
6.09519e-06
6.09525e-06
6.09551e-06
6.09588e-06
6.09622e-06
6.0965e-06
6.09675e-06
6.09695e-06
6.09708e-06
6.09712e-06
6.09704e-06
6.09683e-06
6.09649e-06
6.09605e-06
6.09553e-06
6.09492e-06
6.09424e-06
6.0935e-06
6.09272e-06
6.09194e-06
6.09117e-06
6.09044e-06
6.08972e-06
6.08897e-06
6.08811e-06
6.08706e-06
6.08573e-06
6.08403e-06
6.08192e-06
6.07946e-06
6.07687e-06
6.07447e-06
6.07273e-06
6.07213e-06
6.07275e-06
6.07424e-06
6.07657e-06
6.07982e-06
6.08389e-06
6.08853e-06
6.09338e-06
6.09818e-06
6.10276e-06
6.10612e-06
6.10782e-06
6.10895e-06
6.11037e-06
6.11352e-06
6.12014e-06
6.12987e-06
6.13727e-06
6.13451e-06
6.12704e-06
6.1412e-06
6.16453e-06
6.11853e-06
8.13217e-06
6.45202e-06
5.9909e-06
6.00313e-06
6.08807e-06
6.12625e-06
6.12193e-06
6.11507e-06
6.11115e-06
6.109e-06
6.10764e-06
6.10609e-06
6.10465e-06
6.10342e-06
6.10227e-06
6.1012e-06
6.1002e-06
6.09926e-06
6.09839e-06
6.09759e-06
6.09686e-06
6.09622e-06
6.09568e-06
6.09525e-06
6.09496e-06
6.09485e-06
6.09494e-06
6.09523e-06
6.09566e-06
6.09606e-06
6.09639e-06
6.09667e-06
6.09689e-06
6.09703e-06
6.09707e-06
6.09697e-06
6.09674e-06
6.0964e-06
6.09596e-06
6.09543e-06
6.09482e-06
6.09415e-06
6.09343e-06
6.09267e-06
6.0919e-06
6.09117e-06
6.09046e-06
6.08976e-06
6.089e-06
6.08811e-06
6.08701e-06
6.0856e-06
6.0838e-06
6.08159e-06
6.07907e-06
6.07645e-06
6.07411e-06
6.07254e-06
6.0722e-06
6.07301e-06
6.07465e-06
6.07714e-06
6.08056e-06
6.08478e-06
6.08952e-06
6.09442e-06
6.09926e-06
6.10382e-06
6.10706e-06
6.10865e-06
6.10972e-06
6.11125e-06
6.11474e-06
6.12186e-06
6.13185e-06
6.13876e-06
6.13513e-06
6.12803e-06
6.14479e-06
6.1669e-06
6.11758e-06
6.23716e-06
5.96806e-06
6.04349e-06
6.10664e-06
6.12595e-06
6.12156e-06
6.11428e-06
6.1111e-06
6.10934e-06
6.10814e-06
6.10683e-06
6.10548e-06
6.10427e-06
6.10313e-06
6.10203e-06
6.10098e-06
6.09997e-06
6.09902e-06
6.09813e-06
6.09731e-06
6.09656e-06
6.09591e-06
6.09536e-06
6.09493e-06
6.09466e-06
6.09457e-06
6.09469e-06
6.09501e-06
6.09548e-06
6.09593e-06
6.0963e-06
6.09661e-06
6.09684e-06
6.09698e-06
6.097e-06
6.09689e-06
6.09664e-06
6.09629e-06
6.09585e-06
6.09532e-06
6.09472e-06
6.09405e-06
6.09334e-06
6.0926e-06
6.09186e-06
6.09116e-06
6.09048e-06
6.08979e-06
6.08902e-06
6.0881e-06
6.08694e-06
6.08544e-06
6.08353e-06
6.08122e-06
6.07862e-06
6.076e-06
6.07376e-06
6.07239e-06
6.07232e-06
6.07331e-06
6.07511e-06
6.07778e-06
6.08137e-06
6.08574e-06
6.09057e-06
6.09553e-06
6.1004e-06
6.10493e-06
6.10804e-06
6.1095e-06
6.11054e-06
6.1122e-06
6.11608e-06
6.12373e-06
6.13395e-06
6.14026e-06
6.13573e-06
6.12915e-06
6.1487e-06
6.16924e-06
6.11636e-06
5.97005e-06
6.0819e-06
6.12395e-06
6.12783e-06
6.12124e-06
6.11559e-06
6.11272e-06
6.1112e-06
6.10988e-06
6.10854e-06
6.10713e-06
6.1058e-06
6.10453e-06
6.1033e-06
6.10212e-06
6.10098e-06
6.0999e-06
6.09889e-06
6.09795e-06
6.09709e-06
6.09631e-06
6.09562e-06
6.09505e-06
6.09462e-06
6.09437e-06
6.0943e-06
6.09445e-06
6.09482e-06
6.09534e-06
6.09584e-06
6.09624e-06
6.09656e-06
6.0968e-06
6.09693e-06
6.09693e-06
6.09679e-06
6.09653e-06
6.09618e-06
6.09573e-06
6.09521e-06
6.09461e-06
6.09394e-06
6.09325e-06
6.09253e-06
6.09183e-06
6.09116e-06
6.0905e-06
6.08982e-06
6.08903e-06
6.08806e-06
6.08682e-06
6.08522e-06
6.0832e-06
6.08078e-06
6.07813e-06
6.07553e-06
6.07341e-06
6.07231e-06
6.0725e-06
6.07367e-06
6.07563e-06
6.07849e-06
6.08227e-06
6.08678e-06
6.0917e-06
6.09672e-06
6.10161e-06
6.10608e-06
6.10905e-06
6.11037e-06
6.1114e-06
6.11325e-06
6.11757e-06
6.12578e-06
6.13615e-06
6.14176e-06
6.1363e-06
6.13043e-06
6.15295e-06
6.17149e-06
6.11487e-06
6.1098e-06
6.13684e-06
6.13053e-06
6.12296e-06
6.1186e-06
6.11628e-06
6.11454e-06
6.11292e-06
6.11129e-06
6.10965e-06
6.10807e-06
6.10657e-06
6.10512e-06
6.10373e-06
6.10241e-06
6.10116e-06
6.09998e-06
6.09889e-06
6.09787e-06
6.09694e-06
6.0961e-06
6.09537e-06
6.09478e-06
6.09435e-06
6.09411e-06
6.09407e-06
6.09425e-06
6.09464e-06
6.09516e-06
6.0957e-06
6.09614e-06
6.09647e-06
6.0967e-06
6.09681e-06
6.09678e-06
6.09663e-06
6.09637e-06
6.09601e-06
6.09557e-06
6.09505e-06
6.09445e-06
6.0938e-06
6.09313e-06
6.09245e-06
6.09178e-06
6.09115e-06
6.09051e-06
6.08983e-06
6.08901e-06
6.08799e-06
6.08666e-06
6.08495e-06
6.08281e-06
6.08029e-06
6.07759e-06
6.07503e-06
6.07309e-06
6.07229e-06
6.07273e-06
6.07407e-06
6.07623e-06
6.07928e-06
6.08325e-06
6.0879e-06
6.09291e-06
6.09797e-06
6.10288e-06
6.10729e-06
6.11008e-06
6.11128e-06
6.11232e-06
6.11438e-06
6.11921e-06
6.12801e-06
6.13847e-06
6.14325e-06
6.13682e-06
6.13186e-06
6.15756e-06
6.17361e-06
6.113e-06
6.14135e-06
6.1332e-06
6.12737e-06
6.12392e-06
6.12156e-06
6.11932e-06
6.11711e-06
6.11499e-06
6.11295e-06
6.11101e-06
6.10917e-06
6.10742e-06
6.10575e-06
6.10418e-06
6.1027e-06
6.10131e-06
6.10001e-06
6.0988e-06
6.09769e-06
6.09668e-06
6.0958e-06
6.09505e-06
6.09448e-06
6.09408e-06
6.09389e-06
6.09391e-06
6.09414e-06
6.09454e-06
6.09505e-06
6.09559e-06
6.09604e-06
6.09636e-06
6.09656e-06
6.09664e-06
6.09658e-06
6.09642e-06
6.09615e-06
6.0958e-06
6.09536e-06
6.09484e-06
6.09425e-06
6.09363e-06
6.09299e-06
6.09236e-06
6.09175e-06
6.09116e-06
6.09054e-06
6.08983e-06
6.08897e-06
6.08785e-06
6.0864e-06
6.08453e-06
6.08223e-06
6.0796e-06
6.07687e-06
6.07443e-06
6.07277e-06
6.07236e-06
6.07309e-06
6.07466e-06
6.07704e-06
6.08036e-06
6.08454e-06
6.08936e-06
6.09446e-06
6.09957e-06
6.10447e-06
6.10875e-06
6.11132e-06
6.11238e-06
6.11345e-06
6.11585e-06
6.12133e-06
6.13078e-06
6.1412e-06
6.14487e-06
6.13737e-06
6.13378e-06
6.16293e-06
6.17573e-06
6.11089e-06
6.13882e-06
6.13418e-06
6.13078e-06
6.12786e-06
6.12494e-06
6.12208e-06
6.11938e-06
6.11685e-06
6.11446e-06
6.11221e-06
6.11009e-06
6.10809e-06
6.10621e-06
6.10444e-06
6.10278e-06
6.10123e-06
6.09979e-06
6.09846e-06
6.09726e-06
6.0962e-06
6.0953e-06
6.09457e-06
6.09404e-06
6.09371e-06
6.09359e-06
6.09368e-06
6.09396e-06
6.09439e-06
6.09493e-06
6.09548e-06
6.0959e-06
6.09619e-06
6.09635e-06
6.09639e-06
6.09632e-06
6.09615e-06
6.09588e-06
6.09553e-06
6.09509e-06
6.09457e-06
6.09401e-06
6.09343e-06
6.09285e-06
6.09229e-06
6.09174e-06
6.09118e-06
6.09056e-06
6.08981e-06
6.08885e-06
6.08759e-06
6.08595e-06
6.08387e-06
6.08139e-06
6.07866e-06
6.07597e-06
6.07375e-06
6.07253e-06
6.07259e-06
6.07364e-06
6.07548e-06
6.07817e-06
6.08178e-06
6.08622e-06
6.0912e-06
6.0964e-06
6.10154e-06
6.10641e-06
6.11049e-06
6.11277e-06
6.11368e-06
6.11486e-06
6.11773e-06
6.12404e-06
6.13419e-06
6.14437e-06
6.14657e-06
6.13796e-06
6.13666e-06
6.16918e-06
6.17766e-06
6.10813e-06
6.14171e-06
6.13795e-06
6.13412e-06
6.13054e-06
6.12708e-06
6.12384e-06
6.12082e-06
6.118e-06
6.11534e-06
6.11285e-06
6.1105e-06
6.1083e-06
6.10623e-06
6.10429e-06
6.10248e-06
6.1008e-06
6.09926e-06
6.09787e-06
6.09663e-06
6.09558e-06
6.0947e-06
6.09403e-06
6.09356e-06
6.0933e-06
6.09325e-06
6.09341e-06
6.09373e-06
6.09421e-06
6.09478e-06
6.09532e-06
6.0957e-06
6.09595e-06
6.09607e-06
6.0961e-06
6.09601e-06
6.09584e-06
6.09557e-06
6.09521e-06
6.09477e-06
6.09428e-06
6.09377e-06
6.09325e-06
6.09274e-06
6.09225e-06
6.09174e-06
6.0912e-06
6.09054e-06
6.08971e-06
6.08862e-06
6.08719e-06
6.08533e-06
6.08304e-06
6.08039e-06
6.07761e-06
6.07504e-06
6.07317e-06
6.0725e-06
6.07299e-06
6.07434e-06
6.07647e-06
6.07948e-06
6.0834e-06
6.08809e-06
6.09322e-06
6.09849e-06
6.10366e-06
6.10844e-06
6.11228e-06
6.11425e-06
6.11505e-06
6.11642e-06
6.11989e-06
6.1271e-06
6.13789e-06
6.14759e-06
6.1481e-06
6.1386e-06
6.14048e-06
6.17582e-06
6.17912e-06
6.10489e-06
6.14473e-06
6.14799e-06
6.14012e-06
6.13599e-06
6.13206e-06
6.12835e-06
6.12488e-06
6.12162e-06
6.11855e-06
6.11567e-06
6.11297e-06
6.11043e-06
6.10805e-06
6.10583e-06
6.10376e-06
6.10185e-06
6.1001e-06
6.09851e-06
6.09711e-06
6.09589e-06
6.09486e-06
6.09404e-06
6.09342e-06
6.09303e-06
6.09285e-06
6.09287e-06
6.09308e-06
6.09346e-06
6.09397e-06
6.09455e-06
6.09506e-06
6.0954e-06
6.09561e-06
6.09572e-06
6.09574e-06
6.09565e-06
6.09547e-06
6.09519e-06
6.09484e-06
6.09443e-06
6.09399e-06
6.09354e-06
6.0931e-06
6.09266e-06
6.09222e-06
6.09174e-06
6.09117e-06
6.09045e-06
6.08951e-06
6.08825e-06
6.08659e-06
6.0845e-06
6.082e-06
6.07924e-06
6.07648e-06
6.07417e-06
6.0728e-06
6.07268e-06
6.07355e-06
6.0752e-06
6.07765e-06
6.081e-06
6.08524e-06
6.09015e-06
6.09541e-06
6.10074e-06
6.10591e-06
6.11057e-06
6.11409e-06
6.11575e-06
6.11649e-06
6.11817e-06
6.12237e-06
6.13056e-06
6.14189e-06
6.15082e-06
6.14943e-06
6.13937e-06
6.14537e-06
6.18278e-06
6.17998e-06
6.10113e-06
6.14515e-06
6.14836e-06
6.14045e-06
6.13634e-06
6.13236e-06
6.1286e-06
6.12503e-06
6.12165e-06
6.11846e-06
6.11545e-06
6.11262e-06
6.10996e-06
6.10748e-06
6.10516e-06
6.10302e-06
6.10106e-06
6.09928e-06
6.09769e-06
6.09629e-06
6.0951e-06
6.09411e-06
6.09334e-06
6.09279e-06
6.09247e-06
6.09236e-06
6.09246e-06
6.09272e-06
6.09312e-06
6.09365e-06
6.09421e-06
6.09469e-06
6.095e-06
6.09519e-06
6.0953e-06
6.0953e-06
6.09521e-06
6.09502e-06
6.09475e-06
6.09443e-06
6.09408e-06
6.09371e-06
6.09334e-06
6.09298e-06
6.0926e-06
6.09219e-06
6.0917e-06
6.09108e-06
6.09025e-06
6.08914e-06
6.08767e-06
6.08577e-06
6.08344e-06
6.08076e-06
6.07794e-06
6.07535e-06
6.07344e-06
6.0727e-06
6.07308e-06
6.0743e-06
6.07627e-06
6.07906e-06
6.08276e-06
6.0873e-06
6.09241e-06
6.09778e-06
6.10315e-06
6.10829e-06
6.11277e-06
6.11593e-06
6.11728e-06
6.11805e-06
6.12017e-06
6.12524e-06
6.13446e-06
6.14616e-06
6.15398e-06
6.15052e-06
6.14041e-06
6.15141e-06
6.18995e-06
6.18008e-06
6.09689e-06
6.1435e-06
6.14672e-06
6.13893e-06
6.13495e-06
6.13108e-06
6.12741e-06
6.12391e-06
6.12059e-06
6.11744e-06
6.11445e-06
6.11163e-06
6.10898e-06
6.10651e-06
6.1042e-06
6.10207e-06
6.10013e-06
6.09837e-06
6.0968e-06
6.09543e-06
6.09427e-06
6.09334e-06
6.09263e-06
6.09215e-06
6.0919e-06
6.09185e-06
6.09199e-06
6.09228e-06
6.09271e-06
6.09322e-06
6.09376e-06
6.09421e-06
6.09451e-06
6.09469e-06
6.09479e-06
6.09479e-06
6.09469e-06
6.09452e-06
6.09429e-06
6.09403e-06
6.09376e-06
6.09348e-06
6.09319e-06
6.09289e-06
6.09255e-06
6.09213e-06
6.0916e-06
6.09088e-06
6.08989e-06
6.08857e-06
6.08684e-06
6.08468e-06
6.08212e-06
6.07933e-06
6.07658e-06
6.07431e-06
6.07301e-06
6.07289e-06
6.0737e-06
6.07525e-06
6.07756e-06
6.08073e-06
6.08479e-06
6.0896e-06
6.09489e-06
6.10035e-06
6.10574e-06
6.1108e-06
6.11502e-06
6.11777e-06
6.11885e-06
6.11977e-06
6.12249e-06
6.1286e-06
6.13884e-06
6.15066e-06
6.15699e-06
6.15134e-06
6.14187e-06
6.15871e-06
6.19719e-06
6.17922e-06
6.09188e-06
6.14137e-06
6.14465e-06
6.13669e-06
6.13269e-06
6.12883e-06
6.12522e-06
6.1218e-06
6.11857e-06
6.11551e-06
6.11264e-06
6.10993e-06
6.10739e-06
6.10501e-06
6.10281e-06
6.10078e-06
6.09892e-06
6.09725e-06
6.09575e-06
6.09446e-06
6.09337e-06
6.09251e-06
6.09188e-06
6.09148e-06
6.09129e-06
6.09131e-06
6.09148e-06
6.0918e-06
6.09222e-06
6.0927e-06
6.09318e-06
6.0936e-06
6.09389e-06
6.09407e-06
6.09417e-06
6.09417e-06
6.09411e-06
6.09399e-06
6.09383e-06
6.09366e-06
6.09348e-06
6.09328e-06
6.09307e-06
6.0928e-06
6.09247e-06
6.09201e-06
6.09138e-06
6.0905e-06
6.0893e-06
6.08772e-06
6.0857e-06
6.08328e-06
6.08055e-06
6.07776e-06
6.07526e-06
6.07352e-06
6.07293e-06
6.07335e-06
6.07453e-06
6.07642e-06
6.0791e-06
6.08266e-06
6.08707e-06
6.09214e-06
6.09757e-06
6.10309e-06
6.10848e-06
6.1134e-06
6.1173e-06
6.11961e-06
6.12047e-06
6.12167e-06
6.12516e-06
6.13244e-06
6.14368e-06
6.15532e-06
6.15974e-06
6.15189e-06
6.14381e-06
6.16721e-06
6.2043e-06
6.17718e-06
6.08729e-06
6.14057e-06
6.14403e-06
6.13542e-06
6.13113e-06
6.12702e-06
6.12323e-06
6.11969e-06
6.11639e-06
6.11332e-06
6.11047e-06
6.10781e-06
6.10535e-06
6.10308e-06
6.10098e-06
6.09907e-06
6.09732e-06
6.09575e-06
6.09437e-06
6.09317e-06
6.09218e-06
6.09141e-06
6.09087e-06
6.09055e-06
6.09043e-06
6.09051e-06
6.09074e-06
6.09111e-06
6.09157e-06
6.09206e-06
6.09254e-06
6.09295e-06
6.09322e-06
6.09341e-06
6.09352e-06
6.09357e-06
6.09357e-06
6.09353e-06
6.09347e-06
6.09339e-06
6.09328e-06
6.09314e-06
6.09295e-06
6.09268e-06
6.09228e-06
6.09172e-06
6.09092e-06
6.08982e-06
6.08836e-06
6.08649e-06
6.0842e-06
6.08158e-06
6.07881e-06
6.0762e-06
6.07418e-06
6.07318e-06
6.07325e-06
6.07413e-06
6.0757e-06
6.07797e-06
6.08106e-06
6.08503e-06
6.08978e-06
6.09507e-06
6.10061e-06
6.10617e-06
6.11149e-06
6.11618e-06
6.11965e-06
6.12153e-06
6.12234e-06
6.12407e-06
6.12859e-06
6.13716e-06
6.14921e-06
6.16014e-06
6.16213e-06
6.1523e-06
6.1468e-06
6.17739e-06
6.21101e-06
6.17433e-06
6.08452e-06
6.14251e-06
6.14615e-06
6.13689e-06
6.13213e-06
6.12758e-06
6.12337e-06
6.11946e-06
6.11583e-06
6.11249e-06
6.10941e-06
6.10659e-06
6.10401e-06
6.10166e-06
6.09953e-06
6.0976e-06
6.09586e-06
6.09433e-06
6.09299e-06
6.09186e-06
6.09094e-06
6.09026e-06
6.0898e-06
6.08956e-06
6.08952e-06
6.08968e-06
6.09002e-06
6.09047e-06
6.09098e-06
6.09147e-06
6.09191e-06
6.09226e-06
6.09252e-06
6.09271e-06
6.09287e-06
6.09299e-06
6.09307e-06
6.09312e-06
6.09315e-06
6.09315e-06
6.09312e-06
6.09303e-06
6.09286e-06
6.09256e-06
6.0921e-06
6.09142e-06
6.09043e-06
6.08908e-06
6.08731e-06
6.08511e-06
6.08253e-06
6.07974e-06
6.07702e-06
6.07479e-06
6.07347e-06
6.07315e-06
6.0737e-06
6.07492e-06
6.07678e-06
6.0794e-06
6.08287e-06
6.08719e-06
6.09222e-06
6.09768e-06
6.10331e-06
6.10889e-06
6.11415e-06
6.11862e-06
6.12166e-06
6.1231e-06
6.12386e-06
6.12608e-06
6.1316e-06
6.14141e-06
6.15421e-06
6.16442e-06
6.16403e-06
6.1522e-06
6.14939e-06
6.18686e-06
6.21689e-06
6.16999e-06
6.08141e-06
6.14267e-06
6.14605e-06
6.13751e-06
6.13298e-06
6.12856e-06
6.12437e-06
6.12041e-06
6.11667e-06
6.11317e-06
6.1099e-06
6.10687e-06
6.10406e-06
6.10148e-06
6.09911e-06
6.09695e-06
6.095e-06
6.09327e-06
6.09177e-06
6.0905e-06
6.08949e-06
6.08872e-06
6.08819e-06
6.08791e-06
6.08787e-06
6.08805e-06
6.08844e-06
6.08901e-06
6.08969e-06
6.09036e-06
6.0909e-06
6.09133e-06
6.09168e-06
6.092e-06
6.09228e-06
6.09253e-06
6.09272e-06
6.09287e-06
6.09297e-06
6.09299e-06
6.09293e-06
6.09274e-06
6.09239e-06
6.09183e-06
6.09102e-06
6.08991e-06
6.08844e-06
6.0866e-06
6.0844e-06
6.08193e-06
6.07936e-06
6.07694e-06
6.075e-06
6.07382e-06
6.07357e-06
6.07416e-06
6.07539e-06
6.07723e-06
6.07977e-06
6.08311e-06
6.08728e-06
6.09217e-06
6.09756e-06
6.10322e-06
6.1089e-06
6.11437e-06
6.11925e-06
6.12299e-06
6.12521e-06
6.12632e-06
6.12784e-06
6.13183e-06
6.13968e-06
6.15144e-06
6.16414e-06
6.17097e-06
6.16554e-06
6.15339e-06
6.1617e-06
6.20652e-06
6.2234e-06
6.16446e-06
6.08376e-06
)
;

boundaryField
{
    inlet
    {
        type            freestream;
        freestreamValue uniform 1e-05;
        value           uniform 1e-05;
    }
    outlet
    {
        type            freestream;
        freestreamValue uniform 1e-05;
        value           nonuniform List<scalar> 
82
(
6.14267e-06
6.13751e-06
6.14605e-06
6.13298e-06
6.12856e-06
6.12437e-06
6.12041e-06
6.11667e-06
6.11317e-06
6.1099e-06
6.10687e-06
6.10406e-06
6.10148e-06
6.09911e-06
6.09695e-06
6.095e-06
6.09327e-06
6.09177e-06
6.0905e-06
6.08949e-06
6.08872e-06
6.08819e-06
6.08791e-06
6.08787e-06
6.08805e-06
6.08844e-06
6.08901e-06
6.08969e-06
6.09036e-06
6.0909e-06
6.09133e-06
6.09168e-06
6.092e-06
6.09228e-06
6.09253e-06
6.09272e-06
6.09287e-06
6.09297e-06
6.09299e-06
6.09293e-06
6.09274e-06
6.09239e-06
6.09183e-06
6.09102e-06
6.08991e-06
6.08844e-06
6.0866e-06
6.0844e-06
6.08193e-06
6.07936e-06
6.07694e-06
6.075e-06
6.07382e-06
6.07357e-06
6.07416e-06
6.07539e-06
6.07723e-06
6.07977e-06
6.08311e-06
6.08728e-06
6.09217e-06
6.09756e-06
6.10322e-06
6.1089e-06
6.11437e-06
6.11925e-06
6.12299e-06
6.12521e-06
6.12632e-06
6.12784e-06
6.13183e-06
6.13968e-06
6.15144e-06
6.16414e-06
6.17097e-06
6.16554e-06
6.15339e-06
6.1617e-06
6.20652e-06
6.2234e-06
6.16446e-06
6.08376e-06
)
;
    }
    walls
    {
        type            nutUSpaldingWallFunction;
        value           nonuniform List<scalar> 0();
    }
    frontAndBack
    {
        type            empty;
    }
    procBoundary3to2
    {
        type            processor;
        value           nonuniform List<scalar> 
88
(
6.14529e-06
6.11945e-06
6.12189e-06
6.12178e-06
6.12178e-06
6.12775e-06
6.12978e-06
6.12978e-06
6.10812e-06
6.11243e-06
6.12022e-06
6.12022e-06
6.09819e-06
6.10188e-06
6.10411e-06
6.10555e-06
6.1068e-06
6.1068e-06
6.07744e-06
6.08097e-06
6.0852e-06
6.0898e-06
6.09446e-06
6.09446e-06
6.07794e-06
6.07548e-06
6.07339e-06
6.07217e-06
6.07222e-06
6.07329e-06
6.07517e-06
6.07517e-06
6.09285e-06
6.09204e-06
6.09122e-06
6.09043e-06
6.08967e-06
6.08891e-06
6.08808e-06
6.08711e-06
6.0859e-06
6.08437e-06
6.08244e-06
6.08014e-06
6.08014e-06
5.51696e-06
8.66179e-06
7.05474e-06
6.05015e-06
5.96953e-06
6.08981e-06
6.11988e-06
6.12779e-06
6.12112e-06
6.11529e-06
6.11255e-06
6.10997e-06
6.10742e-06
6.10538e-06
6.10364e-06
6.10211e-06
6.10081e-06
6.0997e-06
6.09875e-06
6.09792e-06
6.09721e-06
6.09662e-06
6.09616e-06
6.09583e-06
6.09568e-06
6.09572e-06
6.09592e-06
6.09621e-06
6.09647e-06
6.0967e-06
6.09691e-06
6.09708e-06
6.09719e-06
6.09722e-06
6.09714e-06
6.09695e-06
6.09662e-06
6.09618e-06
6.09564e-06
6.09503e-06
6.09434e-06
6.09358e-06
6.09358e-06
)
;
    }
    procBoundary3to6
    {
        type            processor;
        value           uniform 1.14308e-08;
    }
    procBoundary3to7
    {
        type            processor;
        value           nonuniform List<scalar> 
16
(
7.19587e-08
6.82918e-06
7.73896e-06
6.17369e-06
6.00787e-06
6.13068e-06
6.14848e-06
6.14692e-06
6.14692e-06
6.15268e-06
6.15234e-06
6.15069e-06
6.14882e-06
6.14856e-06
6.15093e-06
6.15036e-06
)
;
    }
}


// ************************************************************************* //
