/*--------------------------------*- C++ -*----------------------------------*\
| =========                 |                                                 |
| \\      /  F ield         | OpenFOAM: The Open Source CFD Toolbox           |
|  \\    /   O peration     | Version:  2506                                  |
|   \\  /    A nd           | Website:  www.openfoam.com                      |
|    \\/     M anipulation  |                                                 |
\*---------------------------------------------------------------------------*/
FoamFile
{
    version     2.0;
    format      ascii;
    arch        "LSB;label=32;scalar=64";
    class       surfaceScalarField;
    location    "200";
    object      phi;
}
// * * * * * * * * * * * * * * * * * * * * * * * * * * * * * * * * * * * * * //

dimensions      [0 3 -1 0 0 0 0];

oriented        oriented;

internalField   nonuniform List<scalar> 
2575
(
-0.583381
17.0072
18.699
-0.606817
14.0181
-0.611145
15.4069
-0.612818
17.0088
18.7089
-0.632766
11.595
-0.635098
12.7475
-0.636809
14.0198
-0.641367
15.4114
-0.64371
17.0112
18.7189
-0.655726
8.71252
-0.658493
9.58561
-0.661219
10.5442
-0.663693
11.5974
-0.66625
12.75
-0.668286
14.0218
-0.673131
15.4163
-0.676152
17.0142
18.7289
-0.673154
7.76567
-0.67589
5.94814
-0.678703
6.54492
-0.681601
7.19946
-0.684532
7.92207
-0.687527
8.71551
-0.690529
9.58861
-0.693476
10.5471
-0.696184
11.6001
-0.698978
12.7528
-0.701362
14.0242
-0.706513
15.4214
-0.710228
17.0179
18.7389
-0.684114
5.9356
-0.68863
6.26419
-0.693075
6.61095
-0.697393
6.97658
-0.701594
7.36213
-0.705657
7.76973
-0.708563
5.95104
-0.711546
6.5479
-0.714599
7.20251
-0.717761
7.92523
-0.720955
8.71871
-0.724198
9.59185
-0.727373
10.5503
-0.730325
11.6031
-0.733322
12.7558
-0.736121
14.027
-0.741557
15.4269
-0.745975
17.0223
18.7492
-0.683704
4.07652
-0.688547
4.30147
-0.693403
4.5392
-0.698263
4.7899
-0.703128
5.05463
-0.707943
5.33416
-0.712736
5.62905
-0.717476
5.94034
-0.72216
6.26887
-0.72673
6.61552
-0.731218
6.98107
-0.735604
7.36651
-0.739893
7.77402
-0.742921
5.95407
-0.746072
6.55105
-0.749325
7.20576
-0.752674
7.92858
-0.756116
8.72215
-0.75956
9.5953
-0.762969
10.5537
-0.766171
11.6063
-0.769448
12.7591
-0.77262
14.0302
-0.778416
15.4327
-0.783595
17.0275
18.7595
-0.667679
2.14553
-0.671288
2.26349
-0.675017
2.38787
-0.678889
2.51904
-0.682888
2.65756
-0.687024
2.80383
-0.691264
2.95809
-0.695603
3.12103
-0.700058
3.2928
-0.704608
3.47431
-0.709242
3.66571
-0.713947
3.8679
-0.718714
4.08128
-0.723527
4.30628
-0.728391
4.54406
-0.733267
4.79478
-0.738141
5.0595
-0.743031
5.33905
-0.747918
5.63393
-0.752742
5.94517
-0.75753
6.27366
-0.762266
6.62026
-0.766911
6.98571
-0.771454
7.37105
-0.775916
7.77848
-0.779121
5.95728
-0.782438
6.55437
-0.785874
7.2092
-0.789411
7.93212
-0.793059
8.7258
-0.796768
9.59901
-0.800416
10.5573
-0.803877
11.6098
-0.807384
12.7626
-0.810949
14.0338
-0.817158
15.4389
-0.823036
17.0334
18.7701
-0.650882
0.217325
-0.651199
0.227788
-0.651557
0.240312
-0.651907
0.253503
-0.652287
0.26744
-0.652687
0.28213
-0.653119
0.297641
-0.653548
0.313962
-0.654013
0.33123
-0.654503
0.349411
-0.655019
0.36859
-0.655576
0.388846
-0.65614
0.410192
-0.656748
0.432716
-0.657391
0.456456
-0.658084
0.481527
-0.658792
0.507957
-0.659556
0.535831
-0.660366
0.565228
-0.661225
0.596263
-0.662137
0.628973
-0.663104
0.663486
-0.664143
0.699905
-0.665221
0.738279
-0.666391
0.778801
-0.667607
0.821509
-0.668911
0.866581
-0.670296
0.91408
-0.671764
0.964251
-0.673321
1.01721
-0.674972
1.07303
-0.676721
1.13171
-0.678572
1.19391
-0.680531
1.25948
-0.682613
1.32845
-0.684799
1.40143
-0.687105
1.4782
-0.689535
1.5594
-0.69208
1.64489
-0.694781
1.73521
-0.697603
1.83047
-0.700548
1.93095
-0.703656
2.03693
-0.70688
2.14876
-0.710255
2.26686
-0.713771
2.39138
-0.717425
2.5227
-0.721231
2.66137
-0.725144
2.80775
-0.729203
2.96215
-0.733387
3.12522
-0.737704
3.29712
-0.74212
3.47873
-0.746624
3.67021
-0.751232
3.87251
-0.755932
4.08598
-0.760688
4.31104
-0.765489
4.54886
-0.770353
4.79964
-0.775267
5.06441
-0.78019
5.34397
-0.785104
5.63885
-0.790034
5.9501
-0.794906
6.27853
-0.799747
6.6251
-0.804531
6.9905
-0.809264
7.37579
-0.813889
7.78311
-0.817221
5.96061
-0.820699
6.55785
-0.824317
7.21282
-0.828086
7.93588
-0.831942
8.72965
-0.835825
9.60289
-0.839747
10.5613
-0.84355
11.6136
-0.847351
12.7664
-0.851468
14.0379
-0.857916
15.4453
-0.864471
17.0399
18.7809
-0.698147
0.217423
-0.698432
0.228072
-0.698732
0.240612
-0.699058
0.25383
-0.699389
0.26777
-0.699736
0.282477
-0.70009
0.297994
-0.700487
0.314358
-0.70088
0.331623
-0.70132
0.34985
-0.701771
0.369041
-0.702235
0.38931
-0.702739
0.410695
-0.703272
0.433248
-0.703848
0.457032
-0.704433
0.482112
-0.705078
0.508602
-0.705738
0.53649
-0.706463
0.565953
-0.707219
0.597019
-0.708023
0.629777
-0.708864
0.664327
-0.709772
0.700812
-0.710748
0.739256
-0.711761
0.779813
-0.71285
0.822598
-0.714021
0.867751
-0.715252
0.915311
-0.71656
0.96556
-0.71795
1.0186
-0.719426
1.0745
-0.720993
1.13328
-0.722655
1.19557
-0.724418
1.26124
-0.726272
1.3303
-0.72825
1.40341
-0.730341
1.48029
-0.732552
1.56161
-0.734885
1.64723
-0.737346
1.73767
-0.739939
1.83307
-0.74268
1.93369
-0.745531
2.03979
-0.748534
2.15176
-0.751693
2.27002
-0.754982
2.39467
-0.758417
2.52613
-0.761983
2.66493
-0.765706
2.81147
-0.769571
2.96602
-0.773587
3.12923
-0.77771
3.30124
-0.781972
3.48299
-0.786365
3.6746
-0.790853
3.87699
-0.795425
4.09056
-0.8001
4.31571
-0.804856
4.55362
-0.809683
4.80447
-0.814568
5.0693
-0.8195
5.3489
-0.824475
5.64382
-0.829432
5.95505
-0.834411
6.28351
-0.839339
6.63002
-0.844246
6.99541
-0.849109
7.38065
-0.853931
7.78793
-0.85746
5.96414
-0.861063
6.56145
-0.864784
7.21654
-0.868724
7.93982
-0.872862
8.73379
-0.877123
9.60715
-0.881261
10.5654
-0.885101
11.6174
-0.889197
12.7705
-0.89371
14.0424
-0.90096
15.4526
-0.908029
17.047
18.7921
-0.747233
0.21751
-0.747494
0.228333
-0.747743
0.24086
-0.748018
0.254104
-0.748307
0.268058
-0.748611
0.28278
-0.748931
0.298314
-0.749268
0.314695
-0.749624
0.331978
-0.749999
0.350225
-0.750395
0.369437
-0.750814
0.389729
-0.751257
0.411138
-0.751726
0.433717
-0.752223
0.457529
-0.75275
0.482639
-0.753309
0.509161
-0.753902
0.537083
-0.754533
0.566583
-0.755203
0.597689
-0.755914
0.630488
-0.756671
0.665084
-0.757476
0.701617
-0.758333
0.740112
-0.759245
0.780725
-0.760228
0.823581
-0.761248
0.868771
-0.762348
0.91641
-0.763517
0.966729
-0.764762
1.01984
-0.766086
1.07583
-0.767493
1.13468
-0.768989
1.19706
-0.770579
1.26283
-0.772267
1.33199
-0.774058
1.4052
-0.775957
1.48219
-0.777969
1.56362
-0.780098
1.64936
-0.78235
1.73993
-0.78473
1.83545
-0.787241
1.9362
-0.789886
2.04243
-0.792669
2.15454
-0.795596
2.27295
-0.798667
2.39774
-0.801886
2.52935
-0.805254
2.6683
-0.808772
2.81499
-0.812439
2.96968
-0.816253
3.13305
-0.82021
3.3052
-0.824306
3.48708
-0.828533
3.67883
-0.832883
3.88134
-0.83735
4.09502
-0.841925
4.32029
-0.846615
4.55831
-0.851384
4.80923
-0.85622
5.07414
-0.861138
5.35382
-0.866109
5.64879
-0.871159
5.9601
-0.876064
6.28842
-0.881206
6.63517
-0.886162
7.00036
-0.891111
7.3856
-0.896057
7.79288
-0.899699
5.96778
-0.903484
6.56524
-0.907455
7.22051
-0.911762
7.94413
-0.915923
8.73795
-0.92033
9.61156
-0.924716
10.5698
-0.928986
11.6217
-0.933401
12.7749
-0.93838
14.0474
-0.946054
15.4602
-0.954025
17.055
18.804
-0.79823
0.21758
-0.798448
0.22855
-0.798677
0.241088
-0.798917
0.254344
-0.799171
0.268311
-0.799437
0.283046
-0.799718
0.298595
-0.800015
0.314991
-0.800341
0.332304
-0.800659
0.350543
-0.801009
0.369786
-0.801392
0.390111
-0.801784
0.41153
-0.802199
0.434132
-0.802627
0.457956
-0.803094
0.483106
-0.80359
0.509657
-0.80413
0.537622
-0.804677
0.567131
-0.805273
0.598284
-0.805907
0.631122
-0.806595
0.665771
-0.807313
0.702335
-0.808065
0.740864
-0.808879
0.781539
-0.809748
0.824449
-0.810673
0.869696
-0.811658
0.917396
-0.812708
0.967779
-0.813827
1.02096
-0.815018
1.07702
-0.816287
1.13595
-0.817638
1.19841
-0.819076
1.26427
-0.820605
1.33352
-0.822243
1.40684
-0.82397
1.48392
-0.825804
1.56545
-0.827749
1.6513
-0.829799
1.74197
-0.831997
1.83764
-0.834295
1.9385
-0.836738
2.04487
-0.83933
2.15714
-0.842037
2.27566
-0.844902
2.40061
-0.847914
2.53237
-0.851092
2.67148
-0.854409
2.81831
-0.85788
2.97315
-0.86149
3.13666
-0.865265
3.30897
-0.869174
3.49099
-0.873282
3.68294
-0.877415
3.88548
-0.881777
4.09938
-0.886265
4.32478
-0.890774
4.56282
-0.89548
4.81394
-0.900391
5.07905
-0.905191
5.35862
-0.910139
5.65374
-0.915159
5.96512
-0.920368
6.29363
-0.92531
6.64011
-0.930416
7.00547
-0.935676
7.39086
-0.94078
7.79798
-0.94435
5.97135
-0.948279
6.56917
-0.952572
7.2248
-0.956772
7.94833
-0.96146
8.74264
-0.965951
9.61605
-0.970589
10.5744
-0.975136
11.6262
-0.980064
12.7798
-0.98533
14.0526
-0.993761
15.4687
-1.0019
17.0631
18.8168
-0.851332
0.217637
-0.851522
0.22874
-0.851722
0.241288
-0.851933
0.254555
-0.852156
0.268534
-0.852391
0.283281
-0.852639
0.298842
-0.8529
0.315253
-0.853178
0.332581
-0.853471
0.350836
-0.853781
0.370097
-0.854097
0.390427
-0.854445
0.411878
-0.854828
0.434515
-0.855221
0.458348
-0.855638
0.483522
-0.856081
0.5101
-0.856552
0.538093
-0.857053
0.567631
-0.857586
0.598817
-0.858154
0.631689
-0.858758
0.666375
-0.859389
0.702966
-0.860089
0.741563
-0.86082
0.782271
-0.861548
0.825176
-0.862367
0.870514
-0.863294
0.918322
-0.864292
0.968777
-0.865314
1.02198
-0.866311
1.07802
-0.867497
1.13714
-0.86868
1.1996
-0.870075
1.26566
-0.871356
1.3348
-0.872834
1.40832
-0.874473
1.48556
-0.876185
1.56717
-0.877897
1.65301
-0.879799
1.74388
-0.881778
1.83962
-0.883918
1.94064
-0.886226
2.04718
-0.8886
2.15951
-0.891084
2.27814
-0.89382
2.40334
-0.896553
2.5351
-0.899547
2.67447
-0.902681
2.82144
-0.905931
2.9764
-0.909421
3.14015
-0.912971
3.31252
-0.91669
3.49471
-0.920589
3.68684
-0.924776
3.88966
-0.928828
4.10344
-0.933161
4.32911
-0.937773
4.56743
-0.942233
4.8184
-0.94696
5.08377
-0.951798
5.36346
-0.956735
5.65868
-0.961753
5.97014
-0.966838
6.29871
-0.971978
6.64525
-0.977309
7.0108
-0.982375
7.39592
-0.987611
7.80322
-0.991446
5.97519
-0.995517
6.57324
-0.999826
7.22911
-1.00437
7.95288
-1.00913
8.7474
-1.01401
9.62093
-1.01891
10.5793
-1.02388
11.6312
-1.02893
12.7849
-1.03487
14.0586
-1.0442
15.478
-1.05222
17.0711
18.8312
-1.44049
0.218091
-1.44044
0.228689
-1.44033
0.241171
-1.44024
0.254467
-1.44018
0.268475
-1.44001
0.283106
-1.43997
0.298805
-1.43992
0.315196
-1.43969
0.332358
-1.43971
0.350848
-1.43952
0.369906
-1.43939
0.390301
-1.43929
0.41178
-1.4392
0.434419
-1.43899
0.458138
-1.43888
0.483411
-1.43884
0.510064
-1.43861
0.537856
-1.43854
0.567568
-1.43835
0.598625
-1.43827
0.63161
-1.43814
0.666241
-1.43794
0.702764
-1.43774
0.741366
-1.43767
0.782201
-1.43759
0.825092
-1.43752
0.870447
-1.43726
0.918063
-1.43708
0.968598
-1.43699
1.02189
-1.43698
1.07801
-1.4368
1.13696
-1.43686
1.19966
-1.43663
1.26543
-1.43664
1.33481
-1.43664
1.40832
-1.4365
1.48542
-1.43649
1.56716
-1.43649
1.65301
-1.4365
1.74389
-1.43653
1.83965
-1.43659
1.9407
-1.43669
2.04728
-1.43669
2.15951
-1.43688
2.27833
-1.43685
2.40331
-1.43702
2.53527
-1.43697
2.67443
-1.43714
2.8216
-1.43709
2.97636
-1.43712
3.14017
-1.43708
3.31248
-1.43695
3.49459
-1.43675
3.68663
-1.43631
3.88923
-1.43591
4.10304
-1.43513
4.32832
-1.43423
4.56653
-1.43319
4.81737
-1.43173
5.08231
-1.4301
5.36183
-1.42813
5.65671
-1.4255
5.96751
-1.42247
6.29568
-1.41902
6.6418
-1.41483
7.00661
-1.41017
7.39126
-1.40471
7.79776
-1.39995
5.97043
-1.39457
6.56785
-1.38823
7.22278
-1.38093
7.94558
-1.37244
8.7389
-1.36262
9.61111
-1.35097
10.5677
-1.3373
11.6175
-1.32183
12.7694
-1.30524
14.042
-1.28909
15.4619
-1.27081
17.0529
18.8103
-1.54018
0.218692
-1.53999
0.228493
-1.5398
0.240986
-1.53977
0.25443
-1.53947
0.268183
-1.53946
0.283097
-1.5392
0.298543
-1.53896
0.31495
-1.53886
0.332263
-1.53852
0.350505
-1.53833
0.369716
-1.53816
0.390134
-1.53788
0.411501
-1.53762
0.434165
-1.53739
0.457908
-1.53719
0.483212
-1.53676
0.509626
-1.53662
0.537718
-1.53625
0.567197
-1.53591
0.598289
-1.53548
0.631181
-1.53523
0.665988
-1.53488
0.702421
-1.53459
0.741072
-1.53421
0.781826
-1.53376
0.824636
-1.53336
0.870052
-1.53303
0.917729
-1.53263
0.968198
-1.53217
1.02143
-1.53178
1.07762
-1.53135
1.13652
-1.53086
1.19917
-1.53047
1.26503
-1.53004
1.33438
-1.52945
1.40772
-1.5291
1.48507
-1.52846
1.56652
-1.52809
1.65264
-1.52758
1.74338
-1.52706
1.83914
-1.52657
1.9402
-1.52581
2.04652
-1.52536
2.15906
-1.5248
2.27777
-1.52415
2.40266
-1.52355
2.53466
-1.523
2.67388
-1.52223
2.82084
-1.52167
2.9758
-1.52076
3.13926
-1.52005
3.31177
-1.51913
3.49367
-1.51798
3.68549
-1.5169
3.88815
-1.5156
4.10174
-1.51421
4.32693
-1.51245
4.56476
-1.51058
4.81551
-1.50847
5.08019
-1.50608
5.35944
-1.50309
5.65373
-1.49993
5.96435
-1.49628
6.29203
-1.49211
6.63763
-1.48741
7.0019
-1.48199
7.38584
-1.47599
7.79176
-1.47086
5.96531
-1.46499
6.56198
-1.45823
7.21601
-1.45053
7.93788
-1.44153
8.7299
-1.43123
9.6008
-1.41883
10.5553
-1.40447
11.6032
-1.38848
12.7534
-1.37157
14.0251
-1.35478
15.4451
-1.33591
17.034
18.7881
-1.64179
0.219166
-1.64155
0.228259
-1.64146
0.240898
-1.64111
0.254082
-1.64104
0.268117
-1.64071
0.282772
-1.6404
0.298231
-1.6401
0.314653
-1.63995
0.332117
-1.63955
0.350102
-1.6393
0.369467
-1.63893
0.389768
-1.63872
0.411292
-1.63826
0.433704
-1.63795
0.457606
-1.63754
0.482799
-1.63715
0.509238
-1.63665
0.537222
-1.63619
0.566731
-1.63575
0.597855
-1.63535
0.630781
-1.63486
0.665491
-1.6344
0.701961
-1.63384
0.740519
-1.6332
0.781181
-1.6326
0.824039
-1.63205
0.869508
-1.63143
0.917103
-1.63072
0.967494
-1.63008
1.02079
-1.62937
1.07692
-1.6286
1.13575
-1.6279
1.19847
-1.62701
1.26414
-1.62621
1.33358
-1.6255
1.40701
-1.62447
1.48405
-1.6237
1.56574
-1.62275
1.65169
-1.62179
1.74241
-1.62082
1.83817
-1.61971
1.93909
-1.61887
2.04569
-1.61778
2.15796
-1.61656
2.27656
-1.61551
2.40161
-1.61422
2.53337
-1.61298
2.67263
-1.61164
2.8195
-1.61022
2.97438
-1.60872
3.13776
-1.60713
3.31019
-1.60547
3.49201
-1.60374
3.68375
-1.60179
3.8862
-1.59962
4.09957
-1.59739
4.3247
-1.59508
4.56246
-1.59241
4.81284
-1.58951
5.07729
-1.58622
5.35615
-1.58267
5.65017
-1.57883
5.96051
-1.5744
6.2876
-1.5695
6.63273
-1.56411
6.99652
-1.55807
7.3798
-1.5512
7.78489
-1.54569
5.9598
-1.53933
6.55562
-1.53211
7.2088
-1.52386
7.92963
-1.5145
8.72053
-1.5034
9.5897
-1.49055
10.5424
-1.4757
11.5883
-1.45906
12.7368
-1.44191
14.0079
-1.42451
15.4277
-1.4052
17.0147
18.7645
-1.74589
1.7454
0.219647
0.231802
-1.74576
0.228134
-1.74551
0.240645
-1.74513
0.2537
-1.7449
0.267884
-1.74453
0.282412
-1.74432
0.29802
-1.74399
0.314316
-1.74353
0.331658
-1.74336
0.349931
-1.74293
0.369036
-1.74251
0.389353
-1.74198
0.410757
-1.7416
0.433325
-1.7411
0.457109
-1.74063
0.482325
-1.74004
0.508648
-1.73961
0.536796
-1.73907
0.566192
-1.73856
0.597344
-1.73794
0.630164
-1.73708
0.664629
-1.73653
0.701411
-1.73574
0.739728
-1.73513
0.78057
-1.73442
0.82333
-1.73348
0.86857
-1.73273
0.916351
-1.73189
0.966656
-1.73097
1.01987
-1.72997
1.07592
-1.72904
1.13481
-1.72789
1.19733
-1.72696
1.26321
-1.72583
1.33245
-1.72464
1.40583
-1.72355
1.48295
-1.72227
1.56446
-1.72095
1.65038
-1.7196
1.74107
-1.71823
1.8368
-1.71685
1.9377
-1.71517
2.04402
-1.71364
2.15643
-1.71197
2.27489
-1.71032
2.39996
-1.70856
2.53161
-1.70668
2.67076
-1.70471
2.81753
-1.70278
2.97245
-1.70076
3.13574
-1.69851
3.30794
-1.69619
3.48968
-1.69364
3.68121
-1.69102
3.88358
-1.68834
4.09689
-1.68531
4.32167
-1.68207
4.55923
-1.67864
4.8094
-1.67485
5.0735
-1.67098
5.35228
-1.66673
5.64592
-1.66194
5.95572
-1.65688
6.28254
-1.65126
6.6271
-1.64504
6.9903
-1.63838
7.37313
-1.63109
7.7776
-1.62505
5.95375
-1.61819
6.54877
-1.61037
7.20098
-1.60156
7.92082
-1.59152
8.71049
-1.57993
9.57812
-1.56635
10.5289
-1.55074
11.5727
-1.53374
12.7198
-1.51611
13.9903
-1.49848
15.41
-1.47909
16.9953
18.7395
-1.85273
1.85211
0.220279
0.232437
-1.85245
0.227853
-1.85203
0.240233
-1.85191
0.253575
-1.85137
0.267352
-1.85113
0.282168
-1.85076
0.297648
-1.85039
0.313955
-1.85005
0.33131
-1.84957
0.349457
-1.84911
0.368575
-1.84866
0.388908
-1.84809
0.410188
-1.84768
0.432913
-1.84715
0.456575
-1.84649
0.481672
-1.846
0.508153
-1.84525
0.536046
-1.84466
0.565605
-1.84396
0.596643
-1.84315
0.62935
-1.8425
0.663983
-1.84161
0.700518
-1.84089
0.739008
-1.83992
0.779606
-1.839
0.822405
-1.83811
0.867685
-1.83713
0.915371
-1.83606
0.965582
-1.83504
1.01884
-1.83379
1.07467
-1.83273
1.13376
-1.83146
1.19606
-1.83012
1.26187
-1.82871
1.33103
-1.82737
1.40449
-1.82583
1.48141
-1.82424
1.56287
-1.8226
1.64874
-1.82092
1.73939
-1.81907
1.83495
-1.81733
1.93596
-1.81543
2.04212
-1.81338
2.15438
-1.81133
2.27284
-1.80914
2.39778
-1.80696
2.52943
-1.80453
2.66833
-1.80213
2.81512
-1.79947
2.9698
-1.79672
3.13298
-1.79388
3.3051
-1.79095
3.48675
-1.78779
3.67805
-1.78457
3.88035
-1.781
4.09331
-1.77737
4.31804
-1.77341
4.55526
-1.7694
4.80539
-1.76506
5.06915
-1.76021
5.34744
-1.75516
5.64087
-1.74973
5.9503
-1.74394
6.27674
-1.73761
6.62078
-1.73074
6.98343
-1.72316
7.36556
-1.71518
7.76962
-1.70861
5.94718
-1.70127
6.54143
-1.69301
7.19272
-1.68365
7.91146
-1.67294
8.69978
-1.66057
9.56575
-1.64644
10.5147
-1.6303
11.5566
-1.6126
12.7021
-1.59511
13.9728
-1.57739
15.3923
-1.55757
16.9755
18.7136
-1.96238
1.96162
0.221058
0.233079
-1.96194
0.227413
-1.96164
0.239941
-1.96122
0.253152
-1.96094
0.267079
-1.96054
0.281765
-1.96
0.297114
-1.95962
0.313573
-1.95911
0.3308
-1.95861
0.348959
-1.95813
0.36809
-1.95766
0.388438
-1.9572
0.409733
-1.95648
0.432193
-1.95592
0.456013
-1.95523
0.480987
-1.95457
0.507488
-1.95392
0.535401
-1.95316
0.564843
-1.95228
0.595763
-1.95157
0.628636
-1.95074
0.663156
-1.9498
0.699579
-1.94875
0.737959
-1.94788
0.778732
-1.94675
0.821283
-1.94567
0.866602
-1.94449
0.914188
-1.94335
0.964442
-1.94197
1.01747
-1.94079
1.07348
-1.93923
1.1322
-1.93788
1.1947
-1.9363
1.26029
-1.93479
1.32952
-1.93306
1.40277
-1.93127
1.47962
-1.92956
1.56116
-1.92766
1.64683
-1.92571
1.73743
-1.92357
1.83281
-1.9214
1.93379
-1.91906
2.03978
-1.9167
2.15202
-1.91433
2.27047
-1.91167
2.39512
-1.90902
2.52678
-1.90624
2.66554
-1.90334
2.81222
-1.90018
2.96663
-1.89705
3.12986
-1.89368
3.30173
-1.89008
3.48314
-1.88639
3.67437
-1.88235
3.87631
-1.8784
4.08936
-1.87396
4.3136
-1.86948
4.55078
-1.86452
4.80044
-1.85953
5.06416
-1.85406
5.34196
-1.8484
5.63521
-1.84224
5.94415
-1.83545
6.26995
-1.82846
6.61378
-1.82082
6.97579
-1.81281
7.35755
-1.804
7.76081
-1.79693
5.94011
-1.78897
6.53347
-1.78014
7.18388
-1.77025
7.90157
-1.75889
8.68842
-1.74593
9.55278
-1.731
10.4998
-1.71427
11.5398
-1.69651
12.6843
-1.67874
13.955
-1.66087
15.3745
-1.64136
16.9559
18.6875
-2.07508
2.07455
0.22157
0.233876
-2.07478
0.227105
-2.07448
0.239641
-2.07405
0.252719
-2.07363
0.266654
-2.07321
0.28135
-2.07281
0.296709
-2.07228
0.313038
-2.07175
0.330276
-2.07124
0.348448
-2.07075
0.367592
-2.07012
0.387812
-2.06951
0.409121
-2.06891
0.431597
-2.06819
0.455291
-2.06749
0.480282
-2.0668
0.506802
-2.066
0.534594
-2.06507
0.563915
-2.06431
0.594998
-2.06328
0.627612
-2.06243
0.662299
-2.06145
0.698607
-2.06037
0.736873
-2.05917
0.777536
-2.05815
0.820261
-2.05688
0.865332
-2.05551
0.912814
-2.05418
0.963108
-2.05274
1.01603
-2.05122
1.07195
-2.04974
1.13072
-2.04803
1.19299
-2.04637
1.25863
-2.04464
1.32779
-2.04269
1.40081
-2.0408
1.47774
-2.03857
1.55893
-2.03642
1.64468
-2.03422
1.73523
-2.03183
1.83042
-2.02925
1.93121
-2.02678
2.03731
-2.02415
2.14939
-2.02122
2.26753
-2.01827
2.39217
-2.01519
2.52369
-2.01196
2.66232
-2.00847
2.80872
-2.00499
2.96316
-2.00126
3.12613
-1.99729
3.29775
-1.99322
3.47907
-1.98907
3.67022
-1.98457
3.87181
-1.97972
4.08451
-1.97497
4.30886
-1.96975
4.54557
-1.96436
4.79504
-1.9585
5.0583
-1.95246
5.33593
-1.94596
5.6287
-1.93914
5.93733
-1.93185
6.26267
-1.9241
6.60603
-1.91589
6.96757
-1.90691
7.34857
-1.89763
7.75153
-1.88993
5.93241
-1.8814
6.52494
-1.87217
7.17466
-1.86162
7.89102
-1.84963
8.67643
-1.83593
9.53909
-1.82024
10.4841
-1.80302
11.5226
-1.78489
12.6662
-1.76728
13.9374
-1.74999
15.3572
-1.73069
16.9366
18.6625
-2.19044
2.18976
0.222228
0.23454
-2.19012
0.226785
-2.18967
0.239186
-2.18923
0.25227
-2.18879
0.266214
-2.18822
0.280776
-2.1878
0.296286
-2.18739
0.312625
-2.18684
0.329732
-2.18617
0.347773
-2.18551
0.36693
-2.18486
0.387163
-2.18423
0.408487
-2.18347
0.430836
-2.18272
0.454547
-2.182
0.479556
-2.18115
0.505953
-2.18032
0.533764
-2.17937
0.562964
-2.17844
0.594071
-2.17754
0.626709
-2.17638
0.661138
-2.17525
0.697474
-2.17414
0.735769
-2.17293
0.776321
-2.1716
0.818937
-2.17031
0.864044
-2.16892
0.911421
-2.16743
0.961614
-2.16598
1.01458
-2.16429
1.07026
-2.16265
1.12909
-2.16078
1.19112
-2.15896
1.25682
-2.15692
1.32575
-2.15495
1.39884
-2.15276
1.47555
-2.1505
1.55667
-2.14818
1.64236
-2.14553
1.73257
-2.1431
1.82799
-2.14035
1.92846
-2.13756
2.03452
-2.13445
2.14628
-2.13133
2.26441
-2.12819
2.38904
-2.12461
2.52012
-2.12118
2.65889
-2.11747
2.80502
-2.1135
2.95918
-2.1094
3.12204
-2.10506
3.29341
-2.10062
3.47464
-2.09567
3.66527
-2.0908
3.86694
-2.08558
4.0793
-2.08004
4.30331
-2.07432
4.53985
-2.06829
4.78901
-2.06194
5.05195
-2.05528
5.32927
-2.04818
5.6216
-2.04063
5.92977
-2.03278
6.25482
-2.02435
6.59761
-2.01534
6.95856
-2.00606
7.33929
-1.99577
7.74124
-1.98763
5.92427
-1.97884
6.51614
-1.96864
7.16446
-1.95745
7.87983
-1.94488
8.66386
-1.93053
9.52474
-1.91436
10.4679
-1.89649
11.5047
-1.8785
12.6482
-1.86116
13.9201
-1.84403
15.34
-1.82581
16.9184
18.642
-2.31144
2.31062
0.223053
0.235371
-2.31099
0.226333
-2.31054
0.238739
-2.3101
0.25183
-2.30967
0.26578
-2.3091
0.280206
-2.30854
0.295724
-2.30799
0.312071
-2.3073
0.329043
-2.30676
0.347236
-2.30609
0.36626
-2.30544
0.386505
-2.30465
0.407698
-2.30387
0.430059
-2.30311
0.453784
-2.30222
0.478665
-2.30134
0.505078
-2.30034
0.532763
-2.29936
0.561981
-2.2984
0.593108
-2.29717
0.625481
-2.29596
0.659932
-2.29478
0.696292
-2.29363
0.734613
-2.29221
0.774908
-2.29083
0.817553
-2.28934
0.86255
-2.28773
0.909818
-2.28617
0.960048
-2.28436
1.01277
-2.28259
1.0685
-2.28058
1.12708
-2.27862
1.18917
-2.27658
1.25477
-2.2743
1.32347
-2.27195
1.39649
-2.26952
1.47312
-2.26717
1.55432
-2.26447
1.63966
-2.26172
1.72981
-2.25877
1.82504
-2.25578
1.92547
-2.25261
2.03136
-2.24928
2.14294
-2.24593
2.26106
-2.24213
2.38524
-2.23848
2.51646
-2.23439
2.65481
-2.23033
2.80095
-2.22614
2.955
-2.22155
3.11745
-2.21687
3.28872
-2.21182
3.46958
-2.20669
3.66015
-2.20123
3.86147
-2.19557
4.07364
-2.18975
4.29749
-2.18347
4.53356
-2.17688
4.78242
-2.16999
5.04506
-2.1628
5.32209
-2.15518
5.61397
-2.14713
5.92172
-2.13851
6.2462
-2.12948
6.58857
-2.11989
6.94898
-2.10962
7.32902
-2.099
7.73062
-2.09051
5.91578
-2.08094
6.50658
-2.07044
7.15396
-2.05865
7.86804
-2.04514
8.65035
-2.02985
9.50945
-2.0127
10.4508
-1.9945
11.4865
-1.97587
12.6296
-1.95922
13.9034
-1.94368
15.3245
-1.9222
16.897
18.6365
-2.42971
2.42889
-2.42924
-2.42879
-2.42833
-2.42775
-2.42731
-2.42674
-2.42604
-2.42549
-2.4248
-2.42413
-2.42333
-2.42254
-2.42176
-2.42086
-2.41997
-2.41896
-2.41797
-2.417
-2.41577
-2.4147
-2.41352
-2.41222
-2.41081
-2.40944
-2.40795
-2.40637
-2.40482
-2.40303
-2.40128
-2.39945
-2.39752
-2.39551
-2.39327
-2.39109
-2.3887
-2.38625
-2.38358
-2.38086
-2.37809
-2.37513
-2.37199
-2.36867
-2.36533
-2.36168
-2.35802
-2.35407
-2.34998
-2.34563
-2.341
-2.33627
-2.3313
-2.32611
-2.32071
-2.31496
-2.30904
-2.30265
-2.2961
-2.28925
-2.28196
-2.27425
-2.26611
-2.25756
-2.24862
-2.23899
-2.229
-2.21836
-2.20711
-2.19787
-2.18777
-2.17663
-2.16409
-2.15007
-2.13415
-2.1167
-2.09828
-2.07982
-2.06355
-2.05017
-2.01891
)
;

boundaryField
{
    inlet
    {
        type            calculated;
        value           nonuniform List<scalar> 
23
(
-0.593178
-0.62269
-0.653668
-0.686163
-0.720305
-0.756194
-0.793946
-0.83359
-0.875307
-0.919275
-0.965881
-1.01474
-1.06661
-1.24986
-1.31371
-1.38159
-1.45413
-1.53165
-1.61526
-1.70569
-1.8053
-1.91671
-2.0474
)
;
    }
    outlet
    {
        type            calculated;
        value           nonuniform List<scalar> 
82
(
0.223876
0.225872
0.236198
0.238285
0.251382
0.265196
0.279773
0.295156
0.311369
0.328494
0.346555
0.36559
0.385704
0.40691
0.429285
0.452883
0.47778
0.504068
0.531773
0.561012
0.591876
0.624417
0.658751
0.694997
0.733205
0.773533
0.81607
0.860961
0.90827
0.958258
1.01103
1.06666
1.12515
1.18715
1.25254
1.3213
1.3941
1.47067
1.55166
1.63694
1.72704
1.82208
1.92233
2.02804
2.1396
2.2574
2.38158
2.51251
2.65072
2.79659
2.95037
3.11272
3.28375
3.46439
3.65474
3.85572
4.06772
4.2911
4.52701
4.77557
5.03777
5.31437
5.60584
5.91318
6.23726
6.57894
6.93898
7.31838
7.71937
5.90654
6.49647
7.14282
7.8555
8.63634
9.49352
10.4333
11.4681
12.6111
13.8872
15.3111
16.8657
18.665
)
;
    }
    walls
    {
        type            calculated;
        value           nonuniform List<scalar> 0();
    }
    frontAndBack
    {
        type            empty;
    }
    procBoundary3to2
    {
        type            processor;
        value           nonuniform List<scalar> 
88
(
-17.0061
-18.6892
-14.0167
0.582327
-15.4026
-11.5927
0.605436
-12.7451
-8.70972
-9.58284
0.630516
-10.5414
-7.7618
-5.9454
-6.54211
-7.19656
0.652926
-7.91914
-5.93097
-6.25967
-6.6065
-6.97226
0.66928
-7.35792
-4.07171
-4.29662
-4.53434
-4.78504
-5.04976
-5.32934
0.679481
-5.62425
-2.14205
-2.25988
-2.38414
-2.51517
-2.65356
-2.7997
-2.95385
-3.11669
-3.28835
-3.46976
-3.66107
0.678901
-3.86319
-0.227472
-0.239957
-0.253154
-0.267061
-0.281731
-0.29721
-0.313533
-0.330766
-0.348922
-0.368074
-0.38829
-0.409629
-0.432108
-0.455814
-0.480835
-0.507248
-0.535067
-0.564419
-0.595404
-0.628062
-0.662519
-0.698866
-0.737202
-0.777631
-0.820292
-0.865277
-0.912696
-0.962783
-1.01565
-1.07138
-1.12996
-1.19205
-1.25752
-1.32636
-1.39925
-1.4759
-1.55697
-1.64235
-1.73251
-1.82765
-1.928
0.664192
-2.03383
)
;
    }
    procBoundary3to6
    {
        type            processor;
        value           uniform -0.217176;
    }
    procBoundary3to7
    {
        type            processor;
        value           nonuniform List<scalar> 
16
(
0.650729
0.69805
0.747144
0.798159
0.851273
1.44004
1.53958
1.64132
-0.231181
1.74478
1.85148
1.96098
2.07374
2.18909
2.30979
2.42807
)
;
    }
}


// ************************************************************************* //
