/*--------------------------------*- C++ -*----------------------------------*\
| =========                 |                                                 |
| \\      /  F ield         | OpenFOAM: The Open Source CFD Toolbox           |
|  \\    /   O peration     | Version:  2506                                  |
|   \\  /    A nd           | Website:  www.openfoam.com                      |
|    \\/     M anipulation  |                                                 |
\*---------------------------------------------------------------------------*/
FoamFile
{
    version     2.0;
    format      ascii;
    arch        "LSB;label=32;scalar=64";
    class       volScalarField;
    location    "200";
    object      turbulenceProperties:I;
}
// * * * * * * * * * * * * * * * * * * * * * * * * * * * * * * * * * * * * * //

dimensions      [0 0 0 0 0 0 0];

internalField   nonuniform List<scalar> 
1340
(
2.64626e-05
3.71473e-05
1.25148e-05
2.54401e-05
2.64189e-05
3.71539e-05
1.32618e-05
1.67556e-05
1.23956e-05
2.54796e-05
2.64199e-05
3.71419e-05
1.79559e-05
1.68531e-05
1.63264e-05
1.35778e-05
1.69448e-05
1.23267e-05
2.5522e-05
2.64516e-05
3.71204e-05
2.14832e-05
2.06766e-05
1.99932e-05
1.93374e-05
1.86303e-05
1.7939e-05
1.68924e-05
1.64185e-05
1.39053e-05
1.71234e-05
1.23049e-05
2.55659e-05
2.65031e-05
3.70946e-05
2.54772e-05
2.46583e-05
2.38155e-05
2.29667e-05
2.21046e-05
2.1264e-05
2.05064e-05
1.98664e-05
1.92487e-05
1.85793e-05
1.79233e-05
1.69387e-05
1.652e-05
1.42432e-05
1.7289e-05
1.23236e-05
2.56061e-05
2.65656e-05
3.70658e-05
2.97872e-05
2.91295e-05
2.84607e-05
2.77847e-05
2.71018e-05
2.64087e-05
2.56994e-05
2.49668e-05
2.42053e-05
2.34219e-05
2.26329e-05
2.18265e-05
2.10377e-05
2.03314e-05
1.97361e-05
1.91577e-05
1.85297e-05
1.79127e-05
1.69944e-05
1.66305e-05
1.45847e-05
1.7438e-05
1.23784e-05
2.56419e-05
2.66323e-05
3.70305e-05
3.47321e-05
3.43133e-05
3.38811e-05
3.34346e-05
3.29748e-05
3.25019e-05
3.20168e-05
3.15197e-05
3.10106e-05
3.04874e-05
2.99481e-05
2.93934e-05
2.88248e-05
2.82362e-05
2.76341e-05
2.70229e-05
2.64027e-05
2.577e-05
2.51171e-05
2.44394e-05
2.37388e-05
2.30172e-05
2.22899e-05
2.15432e-05
2.08122e-05
2.01583e-05
1.96074e-05
1.90683e-05
1.84822e-05
1.79038e-05
1.70566e-05
1.67473e-05
1.49266e-05
1.7568e-05
1.24665e-05
2.56715e-05
2.66933e-05
3.69932e-05
4.11418e-05
4.33604e-05
4.00407e-05
3.94437e-05
3.90891e-05
3.93524e-05
3.93916e-05
3.93933e-05
3.93774e-05
3.93628e-05
3.93456e-05
3.93205e-05
3.92813e-05
3.92278e-05
3.91648e-05
3.90849e-05
3.899e-05
3.88803e-05
3.87558e-05
3.86182e-05
3.84687e-05
3.83094e-05
3.81421e-05
3.79668e-05
3.77824e-05
3.75886e-05
3.7387e-05
3.71796e-05
3.69661e-05
3.67483e-05
3.65247e-05
3.62954e-05
3.60602e-05
3.58182e-05
3.55699e-05
3.53152e-05
3.50534e-05
3.47847e-05
3.45059e-05
3.42169e-05
3.39171e-05
3.35974e-05
3.32663e-05
3.29408e-05
3.25988e-05
3.22325e-05
3.18529e-05
3.14603e-05
3.10547e-05
3.06372e-05
3.02083e-05
2.97674e-05
2.93133e-05
2.88441e-05
2.83546e-05
2.7847e-05
2.73267e-05
2.67921e-05
2.62457e-05
2.5688e-05
2.5116e-05
2.45235e-05
2.39077e-05
2.32683e-05
2.26091e-05
2.1944e-05
2.12573e-05
2.05845e-05
1.9984e-05
1.94772e-05
1.89775e-05
1.84344e-05
1.78957e-05
1.71246e-05
1.68697e-05
1.52673e-05
1.7678e-05
1.25836e-05
2.56904e-05
2.67448e-05
3.69563e-05
4.2335e-05
3.91058e-05
3.74293e-05
3.78303e-05
3.76938e-05
3.76941e-05
3.75666e-05
3.74713e-05
3.73778e-05
3.72925e-05
3.72068e-05
3.71176e-05
3.7023e-05
3.69222e-05
3.68158e-05
3.66991e-05
3.65736e-05
3.64405e-05
3.62987e-05
3.615e-05
3.59964e-05
3.5838e-05
3.56748e-05
3.55063e-05
3.53315e-05
3.51512e-05
3.49678e-05
3.47811e-05
3.45925e-05
3.44019e-05
3.4208e-05
3.40111e-05
3.38103e-05
3.36058e-05
3.33977e-05
3.31855e-05
3.29692e-05
3.27473e-05
3.25173e-05
3.22783e-05
3.20311e-05
3.17732e-05
3.14982e-05
3.12137e-05
3.09237e-05
3.06176e-05
3.02993e-05
2.9968e-05
2.96247e-05
2.92703e-05
2.89051e-05
2.85284e-05
2.81395e-05
2.77364e-05
2.73143e-05
2.68753e-05
2.64206e-05
2.59504e-05
2.54668e-05
2.49699e-05
2.44576e-05
2.39251e-05
2.33701e-05
2.27925e-05
2.21963e-05
2.1594e-05
2.09681e-05
2.03548e-05
1.98086e-05
1.93453e-05
1.88856e-05
1.83862e-05
1.78887e-05
1.71984e-05
1.69974e-05
1.56041e-05
1.77673e-05
1.27211e-05
2.57042e-05
2.67794e-05
3.69263e-05
3.80511e-05
3.71292e-05
3.64479e-05
3.66831e-05
3.63654e-05
3.61839e-05
3.59663e-05
3.57877e-05
3.56176e-05
3.54585e-05
3.53019e-05
3.51513e-05
3.50009e-05
3.48499e-05
3.46979e-05
3.45429e-05
3.4385e-05
3.42262e-05
3.40656e-05
3.39027e-05
3.37409e-05
3.35777e-05
3.34125e-05
3.32432e-05
3.30727e-05
3.2901e-05
3.27287e-05
3.25571e-05
3.23863e-05
3.22154e-05
3.20437e-05
3.18715e-05
3.16976e-05
3.15228e-05
3.13472e-05
3.117e-05
3.09904e-05
3.08066e-05
3.06165e-05
3.04183e-05
3.02147e-05
3.00057e-05
2.97827e-05
2.95503e-05
2.93095e-05
2.90555e-05
2.87907e-05
2.85139e-05
2.82269e-05
2.79302e-05
2.76237e-05
2.73069e-05
2.69793e-05
2.66385e-05
2.62801e-05
2.59051e-05
2.55133e-05
2.51048e-05
2.46819e-05
2.42449e-05
2.37919e-05
2.33194e-05
2.28256e-05
2.2311e-05
2.17788e-05
2.12397e-05
2.06756e-05
2.01234e-05
1.96316e-05
1.92111e-05
1.8792e-05
1.83372e-05
1.78826e-05
1.72777e-05
1.71301e-05
1.59345e-05
1.78368e-05
1.28772e-05
2.56955e-05
2.68081e-05
3.69086e-05
3.6467e-05
3.63085e-05
3.55869e-05
3.5518e-05
3.50924e-05
3.48091e-05
3.45163e-05
3.42586e-05
3.40138e-05
3.37844e-05
3.3565e-05
3.33558e-05
3.31529e-05
3.2955e-05
3.27616e-05
3.25723e-05
3.23856e-05
3.22041e-05
3.2026e-05
3.18505e-05
3.16787e-05
3.15082e-05
3.13377e-05
3.11675e-05
3.10005e-05
3.08343e-05
3.06715e-05
3.05128e-05
3.03557e-05
3.02009e-05
3.0047e-05
2.98952e-05
2.97434e-05
2.95937e-05
2.94451e-05
2.92968e-05
2.91476e-05
2.89955e-05
2.88381e-05
2.86754e-05
2.85097e-05
2.83412e-05
2.81612e-05
2.79709e-05
2.77723e-05
2.75632e-05
2.73445e-05
2.71159e-05
2.68792e-05
2.66343e-05
2.63815e-05
2.61202e-05
2.585e-05
2.55673e-05
2.52689e-05
2.4954e-05
2.4621e-05
2.42716e-05
2.39072e-05
2.35276e-05
2.31328e-05
2.27199e-05
2.22866e-05
2.18346e-05
2.13658e-05
2.08891e-05
2.03864e-05
1.9895e-05
1.94567e-05
1.90778e-05
1.8699e-05
1.82887e-05
1.78788e-05
1.73627e-05
1.72679e-05
1.62521e-05
1.78894e-05
1.30214e-05
2.56729e-05
2.68101e-05
3.69293e-05
3.56192e-05
3.53456e-05
3.45293e-05
3.4284e-05
3.37966e-05
3.3429e-05
3.30627e-05
3.27309e-05
3.24164e-05
3.2124e-05
3.18468e-05
3.15839e-05
3.13344e-05
3.10944e-05
3.08652e-05
3.06468e-05
3.04356e-05
3.02328e-05
3.00382e-05
2.9849e-05
2.96655e-05
2.94856e-05
2.93093e-05
2.91386e-05
2.89728e-05
2.8812e-05
2.86589e-05
2.85101e-05
2.83646e-05
2.82229e-05
2.80867e-05
2.79526e-05
2.78226e-05
2.76949e-05
2.7571e-05
2.74523e-05
2.73289e-05
2.7205e-05
2.70788e-05
2.69505e-05
2.68202e-05
2.66896e-05
2.65478e-05
2.6395e-05
2.62379e-05
2.60703e-05
2.58953e-05
2.57134e-05
2.55238e-05
2.53294e-05
2.51285e-05
2.49208e-05
2.4707e-05
2.44813e-05
2.42406e-05
2.39848e-05
2.37101e-05
2.34182e-05
2.31127e-05
2.27905e-05
2.24541e-05
2.21024e-05
2.17311e-05
2.13429e-05
2.09392e-05
2.05267e-05
2.00866e-05
1.9658e-05
1.9274e-05
1.89375e-05
1.86001e-05
1.82361e-05
1.78756e-05
1.7453e-05
1.74137e-05
1.65651e-05
1.79234e-05
1.32861e-05
2.55756e-05
2.68641e-05
3.69522e-05
3.42933e-05
3.39761e-05
3.31386e-05
3.27643e-05
3.22108e-05
3.17606e-05
3.13201e-05
3.09099e-05
3.05332e-05
3.01759e-05
2.98385e-05
2.95304e-05
2.92331e-05
2.89522e-05
2.8692e-05
2.84477e-05
2.82069e-05
2.79859e-05
2.77735e-05
2.75681e-05
2.73749e-05
2.71841e-05
2.70071e-05
2.68391e-05
2.6676e-05
2.6524e-05
2.6381e-05
2.62438e-05
2.61137e-05
2.59866e-05
2.58714e-05
2.57613e-05
2.56553e-05
2.5552e-05
2.54606e-05
2.53705e-05
2.52762e-05
2.51837e-05
2.50936e-05
2.50045e-05
2.49128e-05
2.48231e-05
2.47183e-05
2.4609e-05
2.44981e-05
2.43742e-05
2.42487e-05
2.41191e-05
2.39809e-05
2.38436e-05
2.3701e-05
2.35526e-05
2.34033e-05
2.3241e-05
2.30643e-05
2.2874e-05
2.26655e-05
2.24378e-05
2.21982e-05
2.19431e-05
2.16745e-05
2.13935e-05
2.10945e-05
2.0781e-05
2.04526e-05
2.01134e-05
1.97457e-05
1.93898e-05
1.90665e-05
1.87769e-05
1.84872e-05
1.81776e-05
1.7876e-05
1.75653e-05
1.75756e-05
1.69246e-05
1.78765e-05
1.37884e-05
2.53132e-05
2.67234e-05
3.63036e-05
3.26694e-05
3.23643e-05
3.15391e-05
3.10337e-05
3.04219e-05
2.99006e-05
2.93916e-05
2.89221e-05
2.84878e-05
2.80756e-05
2.76914e-05
2.73397e-05
2.70002e-05
2.66843e-05
2.63944e-05
2.61204e-05
2.58529e-05
2.56136e-05
2.53791e-05
2.51621e-05
2.49604e-05
2.47602e-05
2.45835e-05
2.442e-05
2.42582e-05
2.41138e-05
2.39773e-05
2.38507e-05
2.37366e-05
2.3626e-05
2.35279e-05
2.34416e-05
2.3358e-05
2.32802e-05
2.3217e-05
2.3149e-05
2.30844e-05
2.30242e-05
2.29696e-05
2.29155e-05
2.28622e-05
2.28053e-05
2.27384e-05
2.26743e-05
2.26026e-05
2.25261e-05
2.24513e-05
2.23728e-05
2.22909e-05
2.22117e-05
2.21321e-05
2.20483e-05
2.19654e-05
2.18711e-05
2.17633e-05
2.16414e-05
2.15026e-05
2.13461e-05
2.11785e-05
2.0998e-05
2.08066e-05
2.06045e-05
2.03879e-05
2.0158e-05
1.99127e-05
1.96549e-05
1.9369e-05
1.90931e-05
1.88353e-05
1.85971e-05
1.83613e-05
1.81145e-05
1.78857e-05
1.77009e-05
1.77649e-05
1.72992e-05
1.78018e-05
1.43141e-05
2.52793e-05
2.65927e-05
3.6262e-05
3.10888e-05
3.08004e-05
2.99655e-05
2.9362e-05
2.87064e-05
2.81234e-05
2.75668e-05
2.70581e-05
2.65731e-05
2.61235e-05
2.57107e-05
2.53174e-05
2.49498e-05
2.46079e-05
2.42932e-05
2.39901e-05
2.371e-05
2.34517e-05
2.32011e-05
2.29784e-05
2.2769e-05
2.2566e-05
2.23873e-05
2.22221e-05
2.20614e-05
2.19246e-05
2.17923e-05
2.16718e-05
2.15694e-05
2.14735e-05
2.13877e-05
2.13184e-05
2.12508e-05
2.11914e-05
2.1145e-05
2.10956e-05
2.10544e-05
2.10215e-05
2.09928e-05
2.09644e-05
2.09386e-05
2.09062e-05
2.08737e-05
2.08427e-05
2.08045e-05
2.07703e-05
2.0738e-05
2.07046e-05
2.06739e-05
2.06465e-05
2.06241e-05
2.05998e-05
2.05744e-05
2.05428e-05
2.04962e-05
2.04366e-05
2.03624e-05
2.02723e-05
2.01741e-05
2.00656e-05
1.99489e-05
1.98248e-05
1.96885e-05
1.9539e-05
1.93751e-05
1.9197e-05
1.89918e-05
1.87942e-05
1.85998e-05
1.84137e-05
1.82346e-05
1.80543e-05
1.79078e-05
1.78486e-05
1.79717e-05
1.76457e-05
1.77627e-05
1.48159e-05
2.53716e-05
2.62222e-05
3.62405e-05
2.9904e-05
2.88489e-05
2.9361e-05
2.85572e-05
2.78757e-05
2.71786e-05
2.65365e-05
2.59406e-05
2.53815e-05
2.48563e-05
2.43678e-05
2.39179e-05
2.34929e-05
2.30965e-05
2.27303e-05
2.23931e-05
2.20697e-05
2.17778e-05
2.15063e-05
2.12499e-05
2.10218e-05
2.08046e-05
2.06068e-05
2.04265e-05
2.02606e-05
2.01098e-05
1.9976e-05
1.98539e-05
1.97433e-05
1.96531e-05
1.9571e-05
1.94975e-05
1.94429e-05
1.93881e-05
1.93449e-05
1.93145e-05
1.92827e-05
1.92644e-05
1.92542e-05
1.92448e-05
1.92388e-05
1.92324e-05
1.92246e-05
1.92201e-05
1.92147e-05
1.92111e-05
1.92111e-05
1.92148e-05
1.92229e-05
1.9236e-05
1.92543e-05
1.92799e-05
1.93056e-05
1.93287e-05
1.93479e-05
1.93516e-05
1.93445e-05
1.93254e-05
1.92925e-05
1.9255e-05
1.92111e-05
1.91611e-05
1.91066e-05
1.90415e-05
1.89639e-05
1.88733e-05
1.87673e-05
1.86359e-05
1.85091e-05
1.83726e-05
1.82364e-05
1.81145e-05
1.80024e-05
1.79442e-05
1.80053e-05
1.81838e-05
1.79518e-05
1.77515e-05
1.5406e-05
2.5526e-05
2.57458e-05
3.62113e-05
2.82859e-05
2.70306e-05
2.78702e-05
2.71001e-05
2.64119e-05
2.57081e-05
2.50551e-05
2.44335e-05
2.38488e-05
2.32994e-05
2.27791e-05
2.22971e-05
2.18461e-05
2.14247e-05
2.10352e-05
2.0671e-05
2.03342e-05
2.00264e-05
1.97435e-05
1.94793e-05
1.92405e-05
1.90203e-05
1.88268e-05
1.86448e-05
1.84841e-05
1.83414e-05
1.82133e-05
1.81068e-05
1.80075e-05
1.79285e-05
1.78587e-05
1.78008e-05
1.77574e-05
1.77167e-05
1.7691e-05
1.76768e-05
1.76674e-05
1.76668e-05
1.76765e-05
1.76855e-05
1.76978e-05
1.77129e-05
1.77279e-05
1.77492e-05
1.77725e-05
1.78007e-05
1.78335e-05
1.78716e-05
1.79189e-05
1.79729e-05
1.80319e-05
1.80993e-05
1.81677e-05
1.82315e-05
1.82929e-05
1.83396e-05
1.83767e-05
1.84055e-05
1.84239e-05
1.84403e-05
1.84533e-05
1.84631e-05
1.84693e-05
1.84672e-05
1.84531e-05
1.84267e-05
1.83855e-05
1.83207e-05
1.8257e-05
1.81731e-05
1.80851e-05
1.80191e-05
1.79759e-05
1.80083e-05
1.81802e-05
1.84039e-05
1.82285e-05
1.77905e-05
1.61667e-05
2.57426e-05
2.51822e-05
3.61928e-05
2.63274e-05
2.50942e-05
2.60035e-05
2.53102e-05
2.46807e-05
2.40334e-05
2.3429e-05
2.28421e-05
2.22899e-05
2.17562e-05
2.12519e-05
2.07788e-05
2.03289e-05
1.99066e-05
1.95133e-05
1.91412e-05
1.88006e-05
1.8485e-05
1.81939e-05
1.79235e-05
1.76796e-05
1.74618e-05
1.72617e-05
1.70837e-05
1.69297e-05
1.67885e-05
1.66717e-05
1.65739e-05
1.6481e-05
1.64124e-05
1.63513e-05
1.63057e-05
1.62717e-05
1.6243e-05
1.62324e-05
1.62345e-05
1.62367e-05
1.62508e-05
1.62737e-05
1.62946e-05
1.63215e-05
1.63566e-05
1.63904e-05
1.64324e-05
1.64834e-05
1.65358e-05
1.65983e-05
1.66669e-05
1.67469e-05
1.68339e-05
1.69262e-05
1.70282e-05
1.71283e-05
1.7225e-05
1.73202e-05
1.74026e-05
1.74779e-05
1.75486e-05
1.7613e-05
1.76777e-05
1.77409e-05
1.78037e-05
1.78641e-05
1.79164e-05
1.79587e-05
1.79893e-05
1.80054e-05
1.79999e-05
1.79909e-05
1.79543e-05
1.79142e-05
1.79056e-05
1.79334e-05
1.80583e-05
1.83277e-05
1.85743e-05
1.84126e-05
1.78212e-05
1.70003e-05
2.60122e-05
2.44772e-05
3.62201e-05
2.42662e-05
2.32553e-05
2.38771e-05
2.3198e-05
2.25918e-05
2.19909e-05
2.1431e-05
2.09023e-05
2.04055e-05
1.99265e-05
1.94785e-05
1.90537e-05
1.86488e-05
1.82654e-05
1.7907e-05
1.7567e-05
1.72528e-05
1.69611e-05
1.66854e-05
1.64339e-05
1.62089e-05
1.60049e-05
1.5816e-05
1.56505e-05
1.5514e-05
1.53845e-05
1.52795e-05
1.51945e-05
1.51171e-05
1.50604e-05
1.50157e-05
1.49857e-05
1.49676e-05
1.49584e-05
1.49656e-05
1.49826e-05
1.50004e-05
1.50328e-05
1.50699e-05
1.5112e-05
1.51578e-05
1.52179e-05
1.52781e-05
1.53477e-05
1.54281e-05
1.55089e-05
1.56053e-05
1.5705e-05
1.58154e-05
1.59332e-05
1.60559e-05
1.6185e-05
1.63114e-05
1.64378e-05
1.65602e-05
1.66748e-05
1.67856e-05
1.68935e-05
1.69985e-05
1.71054e-05
1.72112e-05
1.73182e-05
1.74234e-05
1.75202e-05
1.76105e-05
1.76896e-05
1.77548e-05
1.78012e-05
1.78419e-05
1.78506e-05
1.78539e-05
1.78937e-05
1.79807e-05
1.81825e-05
1.85217e-05
1.87727e-05
1.86264e-05
1.80522e-05
1.81637e-05
2.64366e-05
2.38004e-05
3.6434e-05
2.30585e-05
2.22718e-05
2.24282e-05
2.16111e-05
2.08869e-05
2.02023e-05
1.95863e-05
1.90278e-05
1.85141e-05
1.80437e-05
1.76183e-05
1.7224e-05
1.68565e-05
1.65143e-05
1.62003e-05
1.59105e-05
1.56411e-05
1.53897e-05
1.51539e-05
1.49498e-05
1.47583e-05
1.45832e-05
1.44278e-05
1.42866e-05
1.41759e-05
1.40698e-05
1.39825e-05
1.39133e-05
1.38591e-05
1.38195e-05
1.37891e-05
1.37797e-05
1.37736e-05
1.37805e-05
1.38012e-05
1.3824e-05
1.38544e-05
1.38914e-05
1.39415e-05
1.39944e-05
1.40504e-05
1.41241e-05
1.41996e-05
1.42839e-05
1.4377e-05
1.4478e-05
1.45885e-05
1.47043e-05
1.48293e-05
1.49597e-05
1.50969e-05
1.52355e-05
1.5376e-05
1.55174e-05
1.56554e-05
1.57914e-05
1.59274e-05
1.60632e-05
1.61985e-05
1.63385e-05
1.64783e-05
1.66208e-05
1.67617e-05
1.6896e-05
1.70257e-05
1.71441e-05
1.7249e-05
1.73354e-05
1.74064e-05
1.74437e-05
1.74922e-05
1.75924e-05
1.77591e-05
1.80579e-05
1.84571e-05
1.86551e-05
1.84245e-05
1.7887e-05
1.88676e-05
2.66735e-05
2.26203e-05
3.68092e-05
2.30928e-05
2.21674e-05
2.22386e-05
2.12224e-05
2.02064e-05
1.92861e-05
1.84434e-05
1.76933e-05
1.70107e-05
1.63995e-05
1.58719e-05
1.54007e-05
1.4987e-05
1.46172e-05
1.43017e-05
1.40317e-05
1.37911e-05
1.35848e-05
1.34012e-05
1.32588e-05
1.31339e-05
1.3018e-05
1.29313e-05
1.28603e-05
1.28122e-05
1.27707e-05
1.27488e-05
1.27388e-05
1.27456e-05
1.27663e-05
1.27916e-05
1.28385e-05
1.28851e-05
1.29472e-05
1.30178e-05
1.30926e-05
1.31763e-05
1.32655e-05
1.33708e-05
1.34735e-05
1.3587e-05
1.37093e-05
1.38336e-05
1.39637e-05
1.40991e-05
1.42392e-05
1.43776e-05
1.45227e-05
1.46679e-05
1.48153e-05
1.49686e-05
1.5122e-05
1.52812e-05
1.54407e-05
1.5602e-05
1.57627e-05
1.59225e-05
1.60812e-05
1.62357e-05
1.63916e-05
1.6545e-05
1.66998e-05
1.68535e-05
1.70036e-05
1.71507e-05
1.72888e-05
1.74181e-05
1.75354e-05
1.76497e-05
1.77321e-05
1.77995e-05
1.79005e-05
1.8056e-05
1.83311e-05
1.86912e-05
1.88546e-05
1.87488e-05
1.87251e-05
2.07547e-05
2.73837e-05
2.29474e-05
3.85275e-05
2.2923e-05
2.15325e-05
2.21943e-05
2.12211e-05
2.01398e-05
1.91315e-05
1.8154e-05
1.72393e-05
1.6375e-05
1.55697e-05
1.48345e-05
1.41606e-05
1.35634e-05
1.30313e-05
1.25727e-05
1.21826e-05
1.18579e-05
1.15977e-05
1.13882e-05
1.12344e-05
1.11215e-05
1.10423e-05
1.09975e-05
1.09762e-05
1.09794e-05
1.09983e-05
1.10329e-05
1.10769e-05
1.1136e-05
1.12012e-05
1.12734e-05
1.13544e-05
1.14362e-05
1.15274e-05
1.16185e-05
1.17149e-05
1.18135e-05
1.19141e-05
1.2019e-05
1.21216e-05
1.22304e-05
1.23387e-05
1.24472e-05
1.25563e-05
1.26681e-05
1.27781e-05
1.28884e-05
1.3003e-05
1.3118e-05
1.32391e-05
1.33641e-05
1.34945e-05
1.36312e-05
1.37697e-05
1.39134e-05
1.40583e-05
1.42073e-05
1.43588e-05
1.45128e-05
1.46749e-05
1.48401e-05
1.50108e-05
1.51829e-05
1.53542e-05
1.55232e-05
1.5682e-05
1.58295e-05
1.59584e-05
1.60345e-05
1.60655e-05
1.6171e-05
1.63917e-05
1.67292e-05
1.72262e-05
1.76751e-05
1.76227e-05
1.71076e-05
1.72756e-05
2.04731e-05
2.52181e-05
2.17648e-05
3.85168e-05
)
;

boundaryField
{
    inlet
    {
        type            calculated;
        value           nonuniform List<scalar> 
23
(
7.5701e-05
7.54911e-05
7.5287e-05
7.50879e-05
7.489e-05
7.4689e-05
7.44795e-05
7.42575e-05
7.40175e-05
7.37544e-05
7.34612e-05
7.31394e-05
7.27704e-05
7.2207e-05
7.17341e-05
7.11574e-05
7.04359e-05
6.95498e-05
6.84717e-05
6.71854e-05
6.56183e-05
6.4374e-05
6.19377e-05
)
;
    }
    outlet
    {
        type            calculated;
        value           nonuniform List<scalar> 
82
(
2.29013e-05
2.21704e-05
2.14967e-05
2.11892e-05
2.00976e-05
1.90768e-05
1.80836e-05
1.71503e-05
1.62634e-05
1.54307e-05
1.46638e-05
1.39528e-05
1.3314e-05
1.27349e-05
1.22257e-05
1.17824e-05
1.14029e-05
1.10887e-05
1.08258e-05
1.06227e-05
1.04644e-05
1.03428e-05
1.02614e-05
1.0207e-05
1.01821e-05
1.01764e-05
1.01898e-05
1.0215e-05
1.0259e-05
1.03107e-05
1.03709e-05
1.0442e-05
1.05136e-05
1.05965e-05
1.06785e-05
1.07665e-05
1.08566e-05
1.09483e-05
1.10451e-05
1.11383e-05
1.12391e-05
1.1339e-05
1.14391e-05
1.15403e-05
1.16454e-05
1.17493e-05
1.18544e-05
1.1966e-05
1.20789e-05
1.21998e-05
1.23248e-05
1.24551e-05
1.25913e-05
1.27274e-05
1.28681e-05
1.30095e-05
1.31566e-05
1.3309e-05
1.34677e-05
1.36403e-05
1.38197e-05
1.40076e-05
1.41978e-05
1.43862e-05
1.45713e-05
1.47432e-05
1.48984e-05
1.50246e-05
1.50783e-05
1.50855e-05
1.52012e-05
1.54706e-05
1.58989e-05
1.65199e-05
1.70588e-05
1.69587e-05
1.6161e-05
1.59987e-05
1.93915e-05
2.47364e-05
1.96056e-05
3.66783e-05
)
;
    }
    walls
    {
        type            calculated;
        value           nonuniform List<scalar> 0();
    }
    frontAndBack
    {
        type            empty;
    }
    procBoundary3to2
    {
        type            processor;
        value           nonuniform List<scalar> 
88
(
2.65607e-05
3.71328e-05
1.26838e-05
2.5394e-05
2.5394e-05
1.29629e-05
1.65585e-05
1.65585e-05
1.79779e-05
1.68241e-05
1.62462e-05
1.62462e-05
2.16972e-05
2.08436e-05
2.01186e-05
1.94262e-05
1.86825e-05
1.86825e-05
2.59698e-05
2.50958e-05
2.4197e-05
2.32914e-05
2.23747e-05
2.23747e-05
3.07262e-05
3.00014e-05
2.92669e-05
2.85271e-05
2.7783e-05
2.70316e-05
2.6266e-05
2.6266e-05
3.65469e-05
3.60561e-05
3.55504e-05
3.5031e-05
3.44979e-05
3.39527e-05
3.33959e-05
3.28274e-05
3.22477e-05
3.16541e-05
3.10461e-05
3.04246e-05
3.04246e-05
4.02087e-05
4.44366e-05
4.30438e-05
4.10658e-05
4.11253e-05
4.14039e-05
4.15562e-05
4.16461e-05
4.17056e-05
4.17488e-05
4.17867e-05
4.18035e-05
4.17975e-05
4.17733e-05
4.17255e-05
4.16585e-05
4.15695e-05
4.14585e-05
4.13285e-05
4.11795e-05
4.10148e-05
4.0837e-05
4.06465e-05
4.04448e-05
4.0232e-05
4.00057e-05
3.97693e-05
3.95242e-05
3.92709e-05
3.90096e-05
3.87393e-05
3.84613e-05
3.81736e-05
3.78762e-05
3.75707e-05
3.72547e-05
3.69296e-05
3.65935e-05
3.62439e-05
3.58801e-05
3.55052e-05
3.51265e-05
3.51265e-05
)
;
    }
    procBoundary3to6
    {
        type            processor;
        value           uniform 8.40602e-06;
    }
    procBoundary3to7
    {
        type            processor;
        value           nonuniform List<scalar> 
16
(
1.156e-05
3.80703e-05
3.87108e-05
3.55982e-05
3.45573e-05
3.37228e-05
3.23825e-05
3.09904e-05
3.09904e-05
2.80674e-05
2.6145e-05
2.42506e-05
2.25709e-05
2.16857e-05
2.13445e-05
2.03487e-05
)
;
    }
}


// ************************************************************************* //
