/*--------------------------------*- C++ -*----------------------------------*\
| =========                 |                                                 |
| \\      /  F ield         | OpenFOAM: The Open Source CFD Toolbox           |
|  \\    /   O peration     | Version:  2506                                  |
|   \\  /    A nd           | Website:  www.openfoam.com                      |
|    \\/     M anipulation  |                                                 |
\*---------------------------------------------------------------------------*/
FoamFile
{
    version     2.0;
    format      ascii;
    arch        "LSB;label=32;scalar=64";
    class       volSymmTensorField;
    location    "200";
    object      turbulenceProperties:devReff;
}
// * * * * * * * * * * * * * * * * * * * * * * * * * * * * * * * * * * * * * //

dimensions      [0 2 -2 0 0 0 0];

internalField   nonuniform List<symmTensor> 
1340
(
(5.29812e-08 7.74474e-08 -1.09e-19 -1.23032e-07 -1.41173e-20 7.0051e-08)
(-2.11144e-07 9.40989e-08 5.51179e-20 3.06788e-07 6.40303e-21 -9.56436e-08)
(-3.45648e-09 -4.91269e-09 -2.14067e-19 -1.9094e-08 -2.67978e-20 2.25505e-08)
(-1.05485e-07 2.55404e-08 -3.34989e-20 1.48484e-07 -3.7932e-21 -4.2999e-08)
(4.68897e-08 8.1028e-08 1.612e-20 -1.17718e-07 1.74377e-21 7.08279e-08)
(-2.09747e-07 9.31771e-08 -2.21448e-19 3.07074e-07 -2.51022e-20 -9.73278e-08)
(-4.09758e-08 -4.19126e-09 -0 3.60689e-08 -1.31111e-22 4.90691e-09)
(-5.35137e-08 -1.45153e-08 -7.2378e-20 6.44279e-08 -8.55449e-21 -1.09142e-08)
(-6.93283e-09 -3.91953e-09 2.03448e-19 -1.56688e-08 2.55363e-20 2.26016e-08)
(-1.05809e-07 2.41461e-08 1.02487e-19 1.49243e-07 1.2126e-20 -4.34339e-08)
(4.06574e-08 8.41302e-08 3.42207e-23 -1.12712e-07 2.01215e-22 7.20549e-08)
(-2.07113e-07 9.17224e-08 1.82445e-19 3.06875e-07 2.05272e-20 -9.97616e-08)
(-7.00391e-08 1.77243e-08 -9.23695e-20 7.02755e-08 -1.11033e-20 -2.36363e-10)
(-6.2798e-08 1.28933e-08 1.91296e-21 6.2066e-08 4.69366e-22 7.32006e-10)
(-5.86464e-08 3.7288e-09 1.26101e-20 6.06331e-08 1.50526e-21 -1.98673e-09)
(-4.25135e-08 -7.1016e-09 -0 3.76781e-08 -2.63827e-23 4.83537e-09)
(-5.43e-08 -1.7648e-08 -3.28858e-22 6.51295e-08 -5.76696e-23 -1.08295e-08)
(-1.04087e-08 -3.04584e-09 1.45088e-21 -1.21821e-08 2.49793e-22 2.25908e-08)
(-1.06091e-07 2.32431e-08 8.51886e-22 1.49944e-07 1.57575e-22 -4.38538e-08)
(3.49326e-08 8.68901e-08 7.4589e-24 -1.08257e-07 6.47163e-24 7.33239e-08)
(-2.046e-07 8.92455e-08 9.78275e-22 3.06777e-07 1.80088e-22 -1.02177e-07)
(-1.00774e-07 2.35403e-08 6.5552e-21 1.00801e-07 1.02998e-21 -2.7328e-11)
(-9.35748e-08 2.09623e-08 2.78157e-20 9.36045e-08 3.36931e-21 -2.97302e-11)
(-8.76705e-08 1.90696e-08 2.82649e-20 8.76262e-08 2.86335e-21 4.43212e-11)
(-8.20099e-08 1.78067e-08 -9.83523e-20 8.20409e-08 -1.17911e-20 -3.10309e-11)
(-7.62471e-08 1.62715e-08 2.56738e-20 7.61829e-08 3.32566e-21 6.42425e-11)
(-7.08437e-08 1.37406e-08 -3.91739e-20 7.10685e-08 -4.8316e-21 -2.24784e-10)
(-6.3787e-08 9.12107e-09 2.52481e-22 6.30807e-08 3.59715e-22 7.06325e-10)
(-5.95064e-08 -1.22333e-10 9.31774e-20 6.14331e-08 1.13375e-20 -1.92665e-09)
(-4.3961e-08 -1.0136e-08 -0 3.92392e-08 -1.88396e-22 4.72182e-09)
(-5.50013e-08 -2.06089e-08 5.39369e-21 6.56789e-08 3.72745e-22 -1.06777e-08)
(-1.38312e-08 -2.24453e-09 -1.85966e-19 -8.67013e-09 -2.32802e-20 2.25014e-08)
(-1.06471e-07 2.26946e-08 -9.35529e-20 1.5063e-07 -1.10842e-20 -4.41584e-08)
(2.99232e-08 8.94334e-08 -6.09933e-21 -1.04387e-07 -6.03907e-22 7.44635e-08)
(-2.0259e-07 8.56915e-08 2.40767e-20 3.06968e-07 2.73927e-21 -1.04378e-07)
(-1.43854e-07 2.10398e-08 5.43641e-20 1.43835e-07 5.66522e-21 1.82517e-11)
(-1.34558e-07 2.14765e-08 -5.02098e-20 1.34544e-07 -6.13068e-21 1.3987e-11)
(-1.25416e-07 2.10734e-08 -1.30787e-20 1.25395e-07 -1.63317e-21 2.12501e-11)
(-1.16585e-07 2.01348e-08 -8.12113e-20 1.16596e-07 -9.46705e-21 -1.07528e-11)
(-1.08027e-07 1.89393e-08 -1.87829e-20 1.0797e-07 -1.82241e-21 5.73314e-11)
(-9.99734e-08 1.75017e-08 1.31685e-20 9.99944e-08 1.6427e-21 -2.10005e-11)
(-9.31524e-08 1.53986e-08 6.72017e-21 9.31736e-08 7.40835e-22 -2.11729e-11)
(-8.75604e-08 1.39756e-08 1.3764e-22 8.75118e-08 6.75418e-23 4.85722e-11)
(-8.21822e-08 1.31362e-08 1.64553e-20 8.22082e-08 1.78863e-21 -2.60507e-11)
(-7.66685e-08 1.19695e-08 -4.50568e-20 7.66078e-08 -5.18869e-21 6.06841e-11)
(-7.14344e-08 9.71909e-09 8.5571e-20 7.16502e-08 1.03033e-20 -2.15808e-10)
(-6.45961e-08 5.28147e-09 -5.551e-20 6.39321e-08 -7.18942e-21 6.64081e-10)
(-6.02072e-08 -4.0054e-09 -8.79679e-20 6.2055e-08 -1.05171e-20 -1.84779e-09)
(-4.53238e-08 -1.32713e-08 -0 4.07469e-08 1.91838e-22 4.57687e-09)
(-5.56215e-08 -2.33986e-08 -5.13313e-21 6.60743e-08 -3.37873e-22 -1.04528e-08)
(-1.71572e-08 -1.48562e-09 1.76525e-19 -5.15937e-09 2.20377e-20 2.23165e-08)
(-1.069e-07 2.24426e-08 8.84008e-20 1.51252e-07 1.04195e-20 -4.43527e-08)
(2.54844e-08 9.17559e-08 5.80321e-21 -1.00983e-07 5.76739e-22 7.54985e-08)
(-2.009e-07 8.11535e-08 -2.26564e-20 3.07371e-07 -2.55889e-21 -1.06472e-07)
(-1.97845e-07 -1.51317e-08 -5.87886e-21 1.97819e-07 -9.86746e-22 2.59033e-11)
(-1.89585e-07 -9.74985e-09 -3.17972e-20 1.89564e-07 -3.85965e-21 2.09572e-11)
(-1.81235e-07 -4.76161e-09 -5.67486e-20 1.81215e-07 -5.89359e-21 1.98612e-11)
(-1.72865e-07 -8.39565e-11 2.00778e-20 1.72847e-07 2.58865e-21 1.74722e-11)
(-1.64493e-07 4.21837e-09 -5.18049e-21 1.64475e-07 -5.54907e-22 1.79258e-11)
(-1.56108e-07 7.9506e-09 2.59339e-20 1.56091e-07 3.36863e-21 1.76017e-11)
(-1.47697e-07 1.08672e-08 6.69866e-20 1.47683e-07 7.45631e-21 1.43608e-11)
(-1.3926e-07 1.27201e-08 3.68158e-22 1.39244e-07 -1.09903e-22 1.61118e-11)
(-1.30794e-07 1.35697e-08 3.95714e-20 1.3078e-07 4.51689e-21 1.37585e-11)
(-1.22415e-07 1.36607e-08 -3.62764e-21 1.22395e-07 -5.80908e-22 2.00129e-11)
(-1.14279e-07 1.32371e-08 3.47588e-21 1.1429e-07 5.52701e-22 -1.07281e-11)
(-1.06321e-07 1.25496e-08 3.57251e-20 1.06264e-07 4.09458e-21 5.69168e-11)
(-9.87697e-08 1.15893e-08 -1.23897e-20 9.88007e-08 -1.61487e-21 -3.10176e-11)
(-9.23664e-08 9.95735e-09 -6.23069e-21 9.2395e-08 -6.81293e-22 -2.85881e-11)
(-8.71267e-08 8.97927e-09 2.05792e-22 8.70878e-08 7.0501e-23 3.88635e-11)
(-8.20665e-08 8.53942e-09 -1.22893e-22 8.21005e-08 -1.01162e-23 -3.40162e-11)
(-7.68557e-08 7.7184e-09 -3.59616e-22 7.68066e-08 -2.11757e-22 4.91015e-11)
(-7.18469e-08 5.70442e-09 -4.6658e-20 7.20408e-08 -5.44618e-21 -1.93947e-10)
(-6.52472e-08 1.38263e-09 5.27933e-20 6.46263e-08 6.50625e-21 6.20873e-10)
(-6.07512e-08 -7.91938e-09 -3.50311e-22 6.24962e-08 -1.99873e-22 -1.745e-09)
(-4.65639e-08 -1.64925e-08 -0 4.21737e-08 1.18107e-23 4.39017e-09)
(-5.61445e-08 -2.60013e-08 4.87342e-21 6.63103e-08 2.9993e-22 -1.01658e-08)
(-2.03896e-08 -7.52169e-10 -1.7993e-19 -1.64158e-09 -2.22616e-20 2.20312e-08)
(-1.07356e-07 2.24611e-08 2.94558e-22 1.51803e-07 3.09015e-22 -4.44466e-08)
(2.1509e-08 9.38334e-08 -1.65055e-20 -9.79605e-08 -2.13144e-21 7.64515e-08)
(-1.99391e-07 7.56657e-08 -1.23086e-22 3.07857e-07 -8.93087e-24 -1.08465e-07)
(-2.38814e-07 -1.26482e-07 5.64212e-21 2.38767e-07 5.89114e-23 4.69967e-11)
(-2.36509e-07 -1.16658e-07 -3.55334e-20 2.36474e-07 -3.72158e-21 3.48492e-11)
(-2.33788e-07 -1.06937e-07 -7.10737e-22 2.33747e-07 7.86464e-22 4.05045e-11)
(-2.30674e-07 -9.72308e-08 3.2264e-20 2.30632e-07 2.91997e-21 4.18458e-11)
(-2.27171e-07 -8.75943e-08 -3.44456e-20 2.27133e-07 -3.90334e-21 3.83415e-11)
(-2.23261e-07 -7.81212e-08 6.28478e-21 2.23224e-07 1.09917e-21 3.64292e-11)
(-2.18943e-07 -6.89035e-08 2.43464e-21 2.18908e-07 1.23243e-22 3.44766e-11)
(-2.14215e-07 -6.00423e-08 -5.84061e-21 2.14182e-07 -2.29796e-22 3.2613e-11)
(-2.09083e-07 -5.16401e-08 4.0811e-20 2.09054e-07 4.96757e-21 2.82865e-11)
(-2.0353e-07 -4.38232e-08 5.73717e-20 2.03502e-07 5.79117e-21 2.84809e-11)
(-1.97566e-07 -3.66428e-08 4.26782e-21 1.97539e-07 6.51064e-23 2.69319e-11)
(-1.91253e-07 -3.01057e-08 1.50835e-20 1.91234e-07 1.46022e-21 1.86254e-11)
(-1.84654e-07 -2.42865e-08 -1.62649e-20 1.84636e-07 -1.89786e-21 1.8726e-11)
(-1.77767e-07 -1.89235e-08 -1.79453e-22 1.77752e-07 7.51805e-22 1.50993e-11)
(-1.70733e-07 -1.37649e-08 8.55611e-20 1.70718e-07 9.42336e-21 1.55546e-11)
(-1.63609e-07 -8.8677e-09 1.16763e-22 1.63597e-07 -9.23991e-22 1.22667e-11)
(-1.56408e-07 -4.32246e-09 -4.87032e-20 1.56397e-07 -5.51922e-21 1.08867e-11)
(-1.49112e-07 -3.49615e-10 -9.95152e-21 1.49101e-07 -1.07934e-21 1.14217e-11)
(-1.41674e-07 2.80559e-09 -4.57738e-20 1.41667e-07 -5.17503e-21 7.10459e-12)
(-1.34108e-07 4.97657e-09 -1.07629e-20 1.34114e-07 -9.69119e-22 -6.14101e-12)
(-1.26509e-07 6.19201e-09 3.65159e-22 1.26512e-07 -1.37728e-22 -3.20808e-12)
(-1.18927e-07 6.67958e-09 -5.64252e-20 1.18925e-07 -6.50325e-21 2.9084e-12)
(-1.1152e-07 6.69803e-09 -3.71558e-21 1.11547e-07 -2.32356e-22 -2.66868e-11)
(-1.04222e-07 6.45678e-09 -1.37258e-20 1.04173e-07 -1.58862e-21 4.81802e-11)
(-9.72596e-08 5.89698e-09 -1.02361e-22 9.72871e-08 6.14525e-23 -2.7544e-11)
(-9.13069e-08 4.68126e-09 5.9325e-21 9.1327e-08 4.79241e-22 -2.00452e-11)
(-8.64414e-08 4.11374e-09 -4.81185e-20 8.63963e-08 -5.5461e-21 4.51125e-11)
(-8.17216e-08 4.03559e-09 4.37429e-20 8.17482e-08 5.54055e-21 -2.65983e-11)
(-7.68321e-08 3.52352e-09 4.02337e-20 7.67864e-08 4.8882e-21 4.56998e-11)
(-7.20504e-08 1.71017e-09 7.31968e-20 7.22222e-08 8.41873e-21 -1.71841e-10)
(-6.57106e-08 -2.55368e-09 -8.51369e-20 6.51434e-08 -1.04771e-20 5.67224e-10)
(-6.11188e-08 -1.18471e-08 -1.44817e-22 6.27462e-08 1.90027e-22 -1.62739e-09)
(-4.76714e-08 -1.97791e-08 -0 4.35073e-08 -7.10299e-24 4.16417e-09)
(-5.65719e-08 -2.83993e-08 -4.59747e-21 6.63861e-08 -4.71119e-22 -9.81423e-09)
(-2.35287e-08 -2.13143e-11 4.5957e-20 1.88265e-09 5.67161e-21 2.1646e-08)
(-1.07851e-07 2.2714e-08 1.97302e-20 1.52272e-07 2.31748e-21 -4.44208e-08)
(1.79563e-08 9.56705e-08 -1.93445e-20 -9.52273e-08 -2.53041e-21 7.7271e-08)
(-1.98178e-07 6.92093e-08 4.94513e-24 3.0849e-07 1.71043e-23 -1.10312e-07)
(-2.08033e-07 -3.02047e-07 4.03273e-21 2.45492e-07 5.29734e-22 -3.74589e-08)
(-1.86467e-07 -3.68982e-07 4.32227e-21 1.84873e-07 2.75123e-22 1.59411e-09)
(-1.58833e-07 -3.24398e-07 -2.20419e-22 1.45302e-07 -1.01381e-22 1.35313e-08)
(-1.67638e-07 -3.1028e-07 8.91678e-22 1.71337e-07 1.21206e-22 -3.69897e-09)
(-1.61526e-07 -3.08277e-07 1.12617e-21 1.60596e-07 9.74681e-23 9.30256e-10)
(-1.63796e-07 -3.108e-07 5.02269e-22 1.64579e-07 2.0253e-23 -7.83632e-10)
(-1.63136e-07 -3.11664e-07 2.64414e-22 1.63255e-07 -8.64358e-23 -1.18958e-10)
(-1.63053e-07 -3.11654e-07 -3.95852e-21 1.63374e-07 -4.16452e-22 -3.20973e-10)
(-1.62722e-07 -3.11545e-07 -1.55901e-21 1.62845e-07 3.85986e-23 -1.22663e-10)
(-1.62775e-07 -3.11203e-07 3.52532e-21 1.62906e-07 3.72836e-22 -1.31206e-10)
(-1.62952e-07 -3.1074e-07 -0 1.63004e-07 -9.75017e-23 -5.18932e-11)
(-1.63398e-07 -3.09944e-07 -1.87376e-22 1.63446e-07 1.60431e-22 -4.85624e-11)
(-1.63966e-07 -3.08814e-07 7.12786e-21 1.63945e-07 6.968e-22 2.04542e-11)
(-1.64735e-07 -3.07276e-07 2.13962e-22 1.64658e-07 3.0942e-23 7.61094e-11)
(-1.65795e-07 -3.05346e-07 7.314e-21 1.65772e-07 7.10012e-22 2.38157e-11)
(-1.66948e-07 -3.03032e-07 4.44181e-22 1.66893e-07 -8.71535e-23 5.49328e-11)
(-1.68309e-07 -3.00272e-07 1.43105e-21 1.68262e-07 2.37627e-22 4.67126e-11)
(-1.69828e-07 -2.97101e-07 5.27309e-21 1.69785e-07 5.23932e-22 4.24446e-11)
(-1.71514e-07 -2.93502e-07 2.54857e-21 1.71493e-07 2.82738e-22 2.10053e-11)
(-1.73333e-07 -2.89527e-07 6.83778e-21 1.73331e-07 4.67527e-22 2.1913e-12)
(-1.75266e-07 -2.852e-07 -6.05256e-21 1.7528e-07 -9.12876e-22 -1.38731e-11)
(-1.77273e-07 -2.80589e-07 -8.6995e-21 1.77279e-07 -6.44132e-22 -6.56274e-12)
(-1.79383e-07 -2.75688e-07 2.90997e-21 1.79405e-07 4.15502e-22 -2.21507e-11)
(-1.81549e-07 -2.70528e-07 -2.0813e-21 1.81574e-07 -3.85776e-22 -2.49947e-11)
(-1.83771e-07 -2.65076e-07 -5.93671e-21 1.83795e-07 -6.46806e-22 -2.39408e-11)
(-1.86029e-07 -2.5933e-07 -5.06405e-21 1.86043e-07 -1.75107e-22 -1.38818e-11)
(-1.88327e-07 -2.533e-07 1.00829e-20 1.88345e-07 1.0131e-21 -1.71237e-11)
(-1.90623e-07 -2.47054e-07 -3.40558e-21 1.90639e-07 -4.95554e-22 -1.60797e-11)
(-1.92891e-07 -2.40597e-07 1.27377e-21 1.92903e-07 1.04098e-22 -1.1156e-11)
(-1.95123e-07 -2.33958e-07 -4.41467e-21 1.95139e-07 -3.24712e-22 -1.59071e-11)
(-1.97287e-07 -2.27132e-07 6.98111e-21 1.97305e-07 8.38727e-22 -1.75467e-11)
(-1.99366e-07 -2.20123e-07 4.26734e-21 1.99386e-07 3.81131e-22 -1.94387e-11)
(-2.01337e-07 -2.1294e-07 5.0117e-21 2.01357e-07 6.33095e-22 -2.07633e-11)
(-2.03179e-07 -2.05573e-07 1.23086e-20 2.03201e-07 9.80957e-22 -2.23885e-11)
(-2.04863e-07 -1.98064e-07 -9.39021e-21 2.04884e-07 -1.22397e-21 -2.0741e-11)
(-2.06369e-07 -1.90418e-07 -5.19416e-21 2.06392e-07 -3.67698e-22 -2.24907e-11)
(-2.07655e-07 -1.8267e-07 4.39402e-22 2.0767e-07 3.46018e-23 -1.48199e-11)
(-2.0872e-07 -1.74821e-07 -6.02663e-21 2.08737e-07 -6.44345e-22 -1.72755e-11)
(-2.09525e-07 -1.66849e-07 -2.39832e-21 2.09532e-07 -3.03694e-22 -7.28066e-12)
(-2.10075e-07 -1.58733e-07 -9.55606e-21 2.10078e-07 -8.76471e-22 -3.18469e-12)
(-2.10342e-07 -1.50507e-07 3.30952e-21 2.10338e-07 5.41256e-22 4.32406e-12)
(-2.10281e-07 -1.41992e-07 4.21218e-21 2.1027e-07 2.3748e-22 1.08721e-11)
(-2.09939e-07 -1.33317e-07 -1.0724e-20 2.0994e-07 -1.04434e-21 -3.522e-13)
(-2.09301e-07 -1.25038e-07 8.49197e-21 2.09288e-07 1.03195e-21 1.24247e-11)
(-2.08231e-07 -1.16739e-07 -2.7921e-22 2.08221e-07 -1.70612e-22 9.91441e-12)
(-2.06817e-07 -1.08073e-07 1.91969e-26 2.06801e-07 -4.2473e-23 1.58469e-11)
(-2.05048e-07 -9.93675e-08 1.71618e-22 2.05029e-07 1.52825e-22 1.89804e-11)
(-2.02918e-07 -9.06579e-08 8.5689e-21 2.02901e-07 5.67611e-22 1.74246e-11)
(-2.00399e-07 -8.20336e-08 -2.96199e-20 2.0038e-07 -3.21544e-21 1.86891e-11)
(-1.97483e-07 -7.35904e-08 1.2142e-23 1.97463e-07 3.03298e-22 2.00362e-11)
(-1.94165e-07 -6.54184e-08 7.18427e-23 1.94147e-07 -1.08897e-22 1.72384e-11)
(-1.9043e-07 -5.76324e-08 -1.13273e-20 1.90415e-07 -1.2007e-21 1.51691e-11)
(-1.8627e-07 -5.0343e-08 4.23771e-22 1.86258e-07 1.84481e-22 1.26309e-11)
(-1.81686e-07 -4.36363e-08 -1.33378e-21 1.81671e-07 -1.24973e-22 1.45164e-11)
(-1.7666e-07 -3.74891e-08 4.35667e-23 1.76651e-07 -2.46148e-23 9.00816e-12)
(-1.7128e-07 -3.18316e-08 -6.31367e-21 1.71291e-07 -6.87916e-22 -1.1117e-11)
(-1.65697e-07 -2.65031e-08 5.30089e-23 1.65705e-07 -2.28229e-22 -7.86249e-12)
(-1.5992e-07 -2.13548e-08 -3.6541e-20 1.59929e-07 -4.00914e-21 -8.99652e-12)
(-1.53992e-07 -1.64048e-08 9.184e-24 1.54003e-07 5.41847e-22 -1.13399e-11)
(-1.4792e-07 -1.17697e-08 4.09678e-20 1.47932e-07 4.56179e-21 -1.17354e-11)
(-1.41682e-07 -7.68662e-09 -4.67499e-23 1.41693e-07 -1.62141e-23 -1.10756e-11)
(-1.35242e-07 -4.3989e-09 4.37405e-20 1.35249e-07 4.92143e-21 -6.47535e-12)
(-1.28621e-07 -2.05871e-09 -2.66449e-21 1.28623e-07 -7.36613e-22 -1.88579e-12)
(-1.21878e-07 -6.11378e-10 -3.63529e-20 1.21876e-07 -4.13191e-21 2.04331e-12)
(-1.15097e-07 1.75649e-10 -5.18799e-22 1.15089e-07 1.0188e-22 7.94253e-12)
(-1.08428e-07 5.49639e-10 -4.23105e-23 1.08449e-07 3.69485e-23 -2.08656e-11)
(-1.01797e-07 6.75294e-10 1.32741e-20 1.01745e-07 1.58056e-21 5.21272e-11)
(-9.54281e-08 4.5954e-10 1.13628e-20 9.54545e-08 1.27221e-21 -2.64792e-11)
(-8.99524e-08 -3.78577e-10 1.09733e-22 8.99687e-08 -2.34043e-23 -1.63141e-11)
(-8.54818e-08 -5.68782e-10 -3.32722e-22 8.5435e-08 -5.13302e-23 4.68234e-11)
(-8.11254e-08 -3.28021e-10 2.17247e-22 8.11479e-08 -1.06364e-22 -2.25598e-11)
(-7.65809e-08 -5.78677e-10 -3.81658e-20 7.65414e-08 -4.73731e-21 3.94746e-11)
(-7.20433e-08 -2.2396e-09 -5.90253e-20 7.21928e-08 -6.70408e-21 -1.49518e-10)
(-6.59849e-08 -6.50693e-09 8.40513e-20 6.54785e-08 1.03555e-20 5.0641e-10)
(-6.13128e-08 -1.57722e-08 4.04742e-20 6.28082e-08 4.66728e-21 -1.49532e-09)
(-4.86508e-08 -2.31057e-08 -0 4.47452e-08 -1.15863e-22 3.90557e-09)
(-5.69151e-08 -3.05783e-08 -1.33606e-20 6.63117e-08 -1.42471e-21 -9.39657e-09)
(-2.6573e-08 7.46178e-10 1.19122e-19 5.4181e-09 1.45836e-20 2.11549e-08)
(-1.08394e-07 2.31431e-08 -9.16397e-20 1.52621e-07 -1.1285e-20 -4.42269e-08)
(1.48435e-08 9.73352e-08 4.83034e-21 -9.2752e-08 7.72942e-22 7.79085e-08)
(-1.97354e-07 6.17883e-08 4.84302e-24 3.09291e-07 -4.3093e-24 -1.11938e-07)
(-1.85758e-07 -3.35398e-07 -3.04954e-22 2.1937e-07 -2.02234e-23 -3.36123e-08)
(-1.35796e-07 -3.1787e-07 4.8513e-22 1.33871e-07 4.48183e-23 1.9244e-09)
(-1.22655e-07 -2.96784e-07 -5.58756e-22 1.12157e-07 -6.80413e-23 1.04984e-08)
(-1.35399e-07 -2.96217e-07 -2.05281e-22 1.38152e-07 -7.64432e-24 -2.7523e-09)
(-1.3209e-07 -2.95188e-07 1.52982e-24 1.31355e-07 6.30635e-24 7.35365e-10)
(-1.33408e-07 -2.93926e-07 4.41395e-25 1.34052e-07 -9.16385e-23 -6.44101e-10)
(-1.32652e-07 -2.91971e-07 -4.00208e-21 1.32817e-07 -3.45609e-22 -1.65565e-10)
(-1.32683e-07 -2.9013e-07 1.61567e-21 1.33038e-07 2.47704e-22 -3.55129e-10)
(-1.32609e-07 -2.8841e-07 1.55527e-22 1.32876e-07 -8.33174e-23 -2.6755e-10)
(-1.32782e-07 -2.86698e-07 -2.56094e-21 1.33043e-07 -2.5143e-22 -2.61927e-10)
(-1.33076e-07 -2.84925e-07 -0 1.3329e-07 -5.32589e-23 -2.14231e-10)
(-1.3354e-07 -2.83001e-07 -4.87756e-21 1.33721e-07 -5.22241e-22 -1.81109e-10)
(-1.3415e-07 -2.80906e-07 -1.98455e-21 1.34283e-07 -8.31586e-23 -1.33384e-10)
(-1.34915e-07 -2.78613e-07 4.05633e-25 1.34999e-07 -6.15846e-23 -8.41409e-11)
(-1.3589e-07 -2.76093e-07 -4.99403e-21 1.3598e-07 -3.85206e-22 -9.04769e-11)
(-1.36961e-07 -2.73333e-07 4.54836e-21 1.37004e-07 6.47516e-22 -4.22655e-11)
(-1.38211e-07 -2.70298e-07 4.9023e-21 1.38238e-07 3.06923e-22 -2.64667e-11)
(-1.39635e-07 -2.67004e-07 -3.72827e-21 1.3968e-07 -5.18235e-22 -4.49393e-11)
(-1.41161e-07 -2.63476e-07 -3.02976e-21 1.41198e-07 -2.56459e-22 -3.755e-11)
(-1.42821e-07 -2.59715e-07 -1.52572e-21 1.42869e-07 -9.51482e-23 -4.82442e-11)
(-1.44587e-07 -2.55772e-07 -8.5038e-22 1.4465e-07 9.56912e-23 -6.24384e-11)
(-1.46441e-07 -2.51649e-07 7.56742e-21 1.46513e-07 7.47783e-22 -7.19697e-11)
(-1.48369e-07 -2.47352e-07 5.12056e-24 1.4844e-07 -7.77323e-23 -7.07087e-11)
(-1.50392e-07 -2.42844e-07 3.28308e-21 1.50478e-07 3.95038e-22 -8.55026e-11)
(-1.52465e-07 -2.38134e-07 3.81055e-21 1.52543e-07 3.15848e-22 -7.7891e-11)
(-1.54602e-07 -2.33213e-07 4.84657e-22 1.54678e-07 -8.88037e-23 -7.59445e-11)
(-1.56783e-07 -2.28131e-07 -3.05601e-21 1.56858e-07 -3.26801e-22 -7.54646e-11)
(-1.58977e-07 -2.22899e-07 -1.63063e-21 1.59043e-07 -1.06372e-22 -6.54449e-11)
(-1.6118e-07 -2.17537e-07 4.0795e-24 1.61237e-07 4.31021e-23 -5.67699e-11)
(-1.63379e-07 -2.12044e-07 8.90577e-22 1.63433e-07 8.01431e-23 -5.36161e-11)
(-1.65551e-07 -2.06408e-07 2.30862e-23 1.65597e-07 8.2565e-23 -4.66605e-11)
(-1.67685e-07 -2.00631e-07 6.11295e-21 1.67729e-07 6.15214e-22 -4.33981e-11)
(-1.69756e-07 -1.94714e-07 1.01768e-23 1.69789e-07 -9.29409e-23 -3.30175e-11)
(-1.7176e-07 -1.88652e-07 4.43646e-23 1.71793e-07 1.90463e-22 -3.25183e-11)
(-1.73662e-07 -1.82476e-07 1.05349e-20 1.73689e-07 1.1054e-21 -2.77734e-11)
(-1.75439e-07 -1.76191e-07 3.20666e-21 1.75461e-07 7.29609e-23 -2.23965e-11)
(-1.77073e-07 -1.69812e-07 -5.8574e-21 1.77092e-07 -5.80252e-22 -1.88648e-11)
(-1.78551e-07 -1.63318e-07 3.79275e-21 1.7857e-07 4.60515e-22 -1.86922e-11)
(-1.79853e-07 -1.56675e-07 -1.11583e-23 1.79868e-07 -1.20129e-22 -1.49261e-11)
(-1.80967e-07 -1.49871e-07 -4.51111e-21 1.80978e-07 -5.19409e-22 -1.12446e-11)
(-1.8189e-07 -1.42918e-07 -3.99796e-21 1.81904e-07 -3.04253e-22 -1.40231e-11)
(-1.82564e-07 -1.35842e-07 3.60493e-21 1.82568e-07 5.03426e-22 -4.21408e-12)
(-1.82862e-07 -1.28655e-07 5.79051e-21 1.82861e-07 5.71503e-22 1.11002e-12)
(-1.8287e-07 -1.21416e-07 3.08266e-21 1.82889e-07 5.55866e-22 -1.87777e-11)
(-1.82732e-07 -1.14054e-07 2.46125e-20 1.82744e-07 2.50843e-21 -1.21108e-11)
(-1.82303e-07 -1.06481e-07 2.81482e-24 1.82312e-07 -3.06583e-22 -8.96791e-12)
(-1.81571e-07 -9.88188e-08 1.75697e-23 1.81581e-07 -6.94902e-23 -1.03143e-11)
(-1.80511e-07 -9.10965e-08 -8.47733e-21 1.80522e-07 -6.69951e-22 -1.04577e-11)
(-1.791e-07 -8.34017e-08 1.85672e-20 1.79109e-07 2.02025e-21 -9.24952e-12)
(-1.77321e-07 -7.5827e-08 3.14292e-22 1.77329e-07 -3.80439e-22 -8.44524e-12)
(-1.75161e-07 -6.84568e-08 -2.25423e-20 1.7517e-07 -2.40201e-21 -9.22929e-12)
(-1.72596e-07 -6.14008e-08 8.40413e-23 1.72604e-07 -3.38272e-23 -7.8392e-12)
(-1.69615e-07 -5.47696e-08 -2.61215e-20 1.69623e-07 -2.78512e-21 -7.83595e-12)
(-1.66212e-07 -4.86379e-08 1.28376e-21 1.66219e-07 4.37557e-22 -7.09307e-12)
(-1.62387e-07 -4.29605e-08 8.53084e-21 1.62387e-07 8.89495e-22 8.21961e-14)
(-1.58225e-07 -3.7649e-08 -5.01657e-21 1.58219e-07 -7.17556e-22 6.1433e-12)
(-1.53804e-07 -3.256e-08 -1.44666e-20 1.53793e-07 -1.56259e-21 1.08941e-11)
(-1.49164e-07 -2.75681e-08 -3.18196e-22 1.49154e-07 3.4298e-23 9.50338e-12)
(-1.44336e-07 -2.27089e-08 8.58387e-24 1.44328e-07 -5.8802e-24 8.00949e-12)
(-1.39314e-07 -1.81268e-08 3.30936e-22 1.39306e-07 6.12589e-23 7.71778e-12)
(-1.34069e-07 -1.40704e-08 -3.14882e-23 1.34064e-07 -2.4317e-22 5.81788e-12)
(-1.28571e-07 -1.07741e-08 -4.15285e-20 1.28565e-07 -4.60482e-21 6.05146e-12)
(-1.2284e-07 -8.37031e-09 1.47812e-20 1.22835e-07 2.08919e-21 5.54757e-12)
(-1.16935e-07 -6.78455e-09 3.45232e-20 1.16928e-07 4.13185e-21 6.67829e-12)
(-1.10948e-07 -5.78624e-09 5.13656e-20 1.10936e-07 5.75754e-21 1.11856e-11)
(-1.05019e-07 -5.14256e-09 -1.16536e-22 1.05037e-07 -3.84544e-22 -1.7633e-11)
(-9.90651e-08 -4.73403e-09 -3.08801e-20 9.90108e-08 -3.6377e-21 5.43124e-11)
(-9.33067e-08 -4.67002e-09 -1.07696e-20 9.33343e-08 -1.21139e-21 -2.75994e-11)
(-8.83313e-08 -5.17213e-09 -1.99297e-20 8.83454e-08 -2.13942e-21 -1.40668e-11)
(-8.42724e-08 -5.02132e-09 3.10942e-20 8.42259e-08 3.72748e-21 4.65002e-11)
(-8.02991e-08 -4.50629e-09 -9.68295e-21 8.03198e-08 -1.14602e-21 -2.06586e-11)
(-7.61181e-08 -4.54974e-09 3.72548e-20 7.6086e-08 4.79766e-21 3.21032e-11)
(-7.184e-08 -6.11454e-09 1.01963e-19 7.19651e-08 1.21982e-20 -1.25075e-10)
(-6.60764e-08 -1.04558e-08 4.64721e-20 6.56327e-08 5.29672e-21 4.43646e-10)
(-6.13412e-08 -1.96763e-08 1.63951e-22 6.26906e-08 -9.11618e-23 -1.34938e-09)
(-4.95046e-08 -2.64396e-08 -0 4.58904e-08 3.29754e-23 3.6142e-09)
(-5.71893e-08 -3.25303e-08 1.26437e-20 6.60953e-08 1.53603e-21 -8.90603e-09)
(-2.95237e-08 1.60595e-09 4.07107e-22 9.00381e-09 1.9197e-22 2.05199e-08)
(-1.09107e-07 2.36569e-08 8.69568e-20 1.52944e-07 1.05739e-20 -4.38376e-08)
(1.22723e-08 9.89246e-08 4.94246e-20 -9.05127e-08 6.25855e-21 7.82404e-08)
(-1.97221e-07 5.33764e-08 4.81531e-24 3.10408e-07 -4.39544e-23 -1.13187e-07)
(-1.36428e-07 -2.90893e-07 1.23976e-21 1.61876e-07 1.44354e-22 -2.54475e-08)
(-1.0695e-07 -2.96932e-07 1.31859e-21 1.0507e-07 1.08688e-22 1.88017e-09)
(-1.00166e-07 -2.87401e-07 -6.87278e-23 9.15392e-08 -5.21367e-23 8.62666e-09)
(-1.10967e-07 -2.85451e-07 -1.03047e-21 1.13112e-07 -9.93784e-23 -2.1451e-09)
(-1.07998e-07 -2.81298e-07 1.22146e-22 1.07351e-07 4.12334e-23 6.47121e-10)
(-1.08886e-07 -2.7751e-07 4.1242e-22 1.09351e-07 4.42992e-23 -4.65483e-10)
(-1.08435e-07 -2.73914e-07 -5.2357e-24 1.08585e-07 -1.09421e-23 -1.49997e-10)
(-1.08565e-07 -2.7067e-07 1.47961e-24 1.08836e-07 -2.91344e-24 -2.7128e-10)
(-1.08719e-07 -2.67587e-07 -5.36883e-25 1.09004e-07 7.02834e-25 -2.85141e-10)
(-1.08983e-07 -2.64656e-07 -5.16373e-24 1.09263e-07 -3.34808e-24 -2.8043e-10)
(-1.09333e-07 -2.61745e-07 -0 1.09567e-07 2.5239e-24 -2.33925e-10)
(-1.09883e-07 -2.58844e-07 -8.24257e-24 1.10139e-07 -8.2331e-24 -2.56768e-10)
(-1.105e-07 -2.55929e-07 5.34964e-25 1.10715e-07 -1.60729e-24 -2.15603e-10)
(-1.11252e-07 -2.52942e-07 1.39454e-24 1.11432e-07 2.86368e-23 -1.79834e-10)
(-1.12134e-07 -2.49875e-07 1.16141e-21 1.12278e-07 8.99348e-23 -1.44022e-10)
(-1.13154e-07 -2.46686e-07 -9.67506e-22 1.13274e-07 -1.21529e-22 -1.19891e-10)
(-1.14264e-07 -2.43399e-07 9.35439e-24 1.1433e-07 2.95798e-23 -6.54904e-11)
(-1.15572e-07 -2.39971e-07 -1.00801e-23 1.15666e-07 5.78698e-24 -9.34979e-11)
(-1.16928e-07 -2.36482e-07 -9.11657e-24 1.16993e-07 1.60687e-23 -6.44365e-11)
(-1.18402e-07 -2.3287e-07 1.46799e-21 1.18457e-07 1.65582e-22 -5.50253e-11)
(-1.19986e-07 -2.29189e-07 7.92288e-22 1.20051e-07 4.65736e-23 -6.45943e-11)
(-1.2167e-07 -2.25396e-07 2.45785e-23 1.21757e-07 -8.86958e-24 -8.71331e-11)
(-1.23424e-07 -2.21497e-07 -8.32837e-25 1.23519e-07 3.37726e-24 -9.5152e-11)
(-1.25244e-07 -2.17453e-07 9.23587e-24 1.25334e-07 2.26901e-24 -8.97776e-11)
(-1.27165e-07 -2.13272e-07 6.77634e-24 1.27278e-07 -7.38787e-23 -1.1258e-10)
(-1.2913e-07 -2.08996e-07 -4.67022e-21 1.29249e-07 -4.62242e-22 -1.18947e-10)
(-1.31139e-07 -2.0462e-07 5.89381e-22 1.3126e-07 1.37253e-22 -1.21484e-10)
(-1.3318e-07 -2.00173e-07 -6.3504e-24 1.33301e-07 -1.28429e-23 -1.20792e-10)
(-1.35248e-07 -1.95647e-07 -6.22167e-23 1.35371e-07 -2.16425e-23 -1.22392e-10)
(-1.37329e-07 -1.91034e-07 -8.61231e-22 1.37451e-07 -9.14047e-23 -1.22326e-10)
(-1.39411e-07 -1.86323e-07 2.99533e-24 1.39532e-07 1.86268e-24 -1.20136e-10)
(-1.41487e-07 -1.81514e-07 2.2849e-23 1.41608e-07 6.18945e-23 -1.20498e-10)
(-1.43531e-07 -1.76606e-07 3.39487e-21 1.43642e-07 3.49716e-22 -1.1156e-10)
(-1.45543e-07 -1.71598e-07 5.51276e-24 1.45652e-07 -3.67193e-23 -1.09385e-10)
(-1.47497e-07 -1.66512e-07 3.02726e-23 1.47605e-07 -2.77285e-23 -1.08516e-10)
(-1.49368e-07 -1.61353e-07 -3.05992e-21 1.49469e-07 -2.28092e-22 -1.01528e-10)
(-1.51149e-07 -1.56106e-07 5.56157e-21 1.51245e-07 5.56078e-22 -9.58911e-11)
(-1.52829e-07 -1.50743e-07 -3.62947e-21 1.52921e-07 -4.45328e-22 -9.15572e-11)
(-1.54397e-07 -1.45229e-07 -2.2348e-24 1.54483e-07 9.81147e-23 -8.66944e-11)
(-1.55831e-07 -1.39545e-07 4.26024e-21 1.55907e-07 4.80803e-22 -7.54686e-11)
(-1.57128e-07 -1.33736e-07 3.78927e-21 1.57204e-07 3.29479e-22 -7.59251e-11)
(-1.58227e-07 -1.27879e-07 2.31317e-23 1.58296e-07 -3.64939e-23 -6.97811e-11)
(-1.59072e-07 -1.21866e-07 1.69796e-23 1.59123e-07 -3.72314e-23 -5.07464e-11)
(-1.59742e-07 -1.15684e-07 -2.83074e-21 1.59784e-07 -4.26105e-22 -4.25004e-11)
(-1.60232e-07 -1.09355e-07 -1.25042e-20 1.60265e-07 -1.26065e-21 -3.29239e-11)
(-1.60486e-07 -1.02839e-07 2.47539e-24 1.6051e-07 1.18084e-22 -2.37685e-11)
(-1.60494e-07 -9.61995e-08 1.551e-23 1.60515e-07 2.63067e-23 -2.08638e-11)
(-1.60225e-07 -8.94629e-08 -7.24521e-23 1.60241e-07 -5.22938e-23 -1.64342e-11)
(-1.59652e-07 -8.27213e-08 -4.70402e-21 1.59665e-07 -5.1114e-22 -1.30633e-11)
(-1.58756e-07 -7.6049e-08 -2.9557e-22 1.58768e-07 2.35845e-23 -1.18703e-11)
(-1.5751e-07 -6.95357e-08 -1.72341e-22 1.5752e-07 5.17533e-23 -9.43839e-12)
(-1.55889e-07 -6.32817e-08 1.03539e-20 1.55896e-07 1.07174e-21 -6.90006e-12)
(-1.53875e-07 -5.73969e-08 -3.95602e-21 1.53882e-07 -5.16306e-22 -6.72012e-12)
(-1.51457e-07 -5.19341e-08 -1.45631e-23 1.51464e-07 -4.10403e-23 -7.05176e-12)
(-1.48648e-07 -4.68108e-08 -8.06469e-21 1.48651e-07 -7.86363e-22 -2.95591e-12)
(-1.45518e-07 -4.19372e-08 1.02978e-20 1.4552e-07 1.29085e-21 -2.35415e-12)
(-1.42124e-07 -3.71843e-08 1.36273e-20 1.42125e-07 1.65516e-21 -1.61235e-12)
(-1.38503e-07 -3.24496e-08 3.70815e-20 1.38504e-07 4.00178e-21 -9.47032e-13)
(-1.34675e-07 -2.77961e-08 -1.02095e-22 1.34675e-07 -4.5659e-22 -4.00617e-13)
(-1.30621e-07 -2.33897e-08 -3.30794e-20 1.3062e-07 -3.65269e-21 2.05471e-13)
(-1.26304e-07 -1.94815e-08 8.77906e-21 1.26305e-07 1.18538e-21 -1.20011e-12)
(-1.21698e-07 -1.62936e-08 -3.44425e-22 1.21699e-07 -2.12425e-22 -1.50992e-12)
(-1.16819e-07 -1.39305e-08 -1.85585e-20 1.16822e-07 -2.33902e-21 -2.27269e-12)
(-1.11734e-07 -1.22918e-08 -4.77744e-20 1.11737e-07 -5.53772e-21 -2.88689e-12)
(-1.06529e-07 -1.11729e-08 -4.39744e-20 1.06528e-07 -4.72372e-21 1.16822e-12)
(-1.01337e-07 -1.03355e-08 2.424e-20 1.01361e-07 2.98166e-21 -2.4202e-11)
(-9.60638e-08 -9.72798e-09 -1.97041e-21 9.60167e-08 -3.02152e-22 4.71118e-11)
(-9.09319e-08 -9.44809e-09 1.02414e-20 9.09664e-08 1.18097e-21 -3.45396e-11)
(-8.64726e-08 -9.65795e-09 -2.87287e-21 8.64878e-08 -3.76037e-22 -1.52222e-11)
(-8.28373e-08 -9.21035e-09 1.14824e-22 8.2793e-08 3.32508e-23 4.43449e-11)
(-7.92642e-08 -8.47084e-09 2.38137e-23 7.9286e-08 -1.47698e-22 -2.17718e-11)
(-7.54588e-08 -8.36409e-09 -4.23676e-20 7.54348e-08 -5.17571e-21 2.40434e-11)
(-7.1449e-08 -9.89586e-09 -4.01572e-20 7.15494e-08 -4.6591e-21 -1.0038e-10)
(-6.59908e-08 -1.43832e-08 2.18892e-22 6.56121e-08 1.46467e-22 3.78747e-10)
(-6.12111e-08 -2.35497e-08 1.86363e-23 6.24025e-08 6.10373e-24 -1.19136e-09)
(-5.02415e-08 -2.97447e-08 -0 4.69484e-08 -1.74053e-23 3.29316e-09)
(-5.74153e-08 -3.42703e-08 -1.24308e-20 6.57428e-08 -1.53666e-21 -8.32751e-09)
(-3.23827e-08 2.67563e-09 1.55431e-22 1.26691e-08 -5.72268e-23 1.97136e-08)
(-1.09928e-07 2.41019e-08 -5.22431e-20 1.53065e-07 -6.36207e-21 -4.31374e-08)
(1.04226e-08 1.00655e-07 -4.69125e-20 -8.86596e-08 -5.95992e-21 7.82369e-08)
(-1.97662e-07 4.4177e-08 6.3245e-22 3.11798e-07 1.60134e-22 -1.14137e-07)
(-1.10448e-07 -2.77956e-07 -1.15924e-21 1.31327e-07 -1.17449e-22 -2.08793e-08)
(-8.78829e-08 -2.88413e-07 2.4926e-24 8.58031e-08 3.02331e-23 2.07981e-09)
(-8.26381e-08 -2.77819e-07 -2.95986e-25 7.54093e-08 2.35972e-23 7.22881e-09)
(-9.1172e-08 -2.72781e-07 9.82166e-22 9.26549e-08 9.33161e-23 -1.48289e-09)
(-8.87314e-08 -2.66757e-07 -1.15507e-22 8.79377e-08 -3.74344e-23 7.93689e-10)
(-8.95496e-08 -2.61563e-07 -3.9199e-22 8.96437e-08 -3.1551e-23 -9.40645e-11)
(-8.93463e-08 -2.56751e-07 -1.24366e-24 8.92003e-08 5.2994e-24 1.45963e-10)
(-8.96058e-08 -2.5232e-07 -8.47199e-26 8.95792e-08 4.30679e-24 2.65702e-11)
(-8.9858e-08 -2.48143e-07 3.94922e-22 8.98433e-08 8.20895e-23 1.47345e-11)
(-9.02473e-08 -2.4418e-07 2.38609e-21 9.02784e-08 2.3065e-22 -3.10997e-11)
(-9.06911e-08 -2.40381e-07 -0 9.07189e-08 -1.53862e-23 -2.78132e-11)
(-9.12766e-08 -2.36697e-07 1.28606e-21 9.1336e-08 9.16176e-23 -5.93829e-11)
(-9.19303e-08 -2.33102e-07 -1.85618e-21 9.19822e-08 -2.33978e-22 -5.19132e-11)
(-9.26754e-08 -2.2956e-07 -1.49108e-21 9.27051e-08 -7.75464e-23 -2.96766e-11)
(-9.35283e-08 -2.26045e-07 2.31605e-21 9.35379e-08 2.69528e-22 -9.63273e-12)
(-9.44817e-08 -2.22551e-07 9.29431e-22 9.44701e-08 5.29569e-23 1.16415e-11)
(-9.54994e-08 -2.19074e-07 1.95602e-24 9.54333e-08 4.87207e-23 6.6069e-11)
(-9.66608e-08 -2.15597e-07 3.39639e-21 9.65921e-08 3.92338e-22 6.86973e-11)
(-9.78845e-08 -2.12138e-07 2.74268e-21 9.7787e-08 1.92924e-22 9.74751e-11)