/*--------------------------------*- C++ -*----------------------------------*\
| =========                 |                                                 |
| \\      /  F ield         | OpenFOAM: The Open Source CFD Toolbox           |
|  \\    /   O peration     | Version:  2506                                  |
|   \\  /    A nd           | Website:  www.openfoam.com                      |
|    \\/     M anipulation  |                                                 |
\*---------------------------------------------------------------------------*/
FoamFile
{
    version     2.0;
    format      ascii;
    arch        "LSB;label=32;scalar=64";
    class       volScalarField;
    location    "200";
    object      turbulenceProperties:epsilon;
}
// * * * * * * * * * * * * * * * * * * * * * * * * * * * * * * * * * * * * * //

dimensions      [0 2 -3 0 0 0 0];

internalField   nonuniform List<scalar> 
1340
(
3.70643e-10
1.44144e-09
1.83665e-11
3.12795e-10
3.68316e-10
1.44551e-09
2.32471e-11
5.91226e-11
1.76851e-11
3.15109e-10
3.68549e-10
1.44672e-09
7.81785e-11
6.07057e-11
5.34744e-11
2.55647e-11
6.18878e-11
1.7305e-11
3.17605e-10
3.70561e-10
1.44642e-09
1.59866e-10
1.37296e-10
1.20104e-10
1.05174e-10
9.0672e-11
7.79925e-11
6.13504e-11
5.47517e-11
2.8148e-11
6.45946e-11
1.71943e-11
3.20206e-10
3.73758e-10
1.44548e-09
3.15102e-10
2.76848e-10
2.41187e-10
2.08836e-10
1.79389e-10
1.53765e-10
1.33092e-10
1.17301e-10
1.03435e-10
8.98264e-11
7.78339e-11
6.21092e-11
5.61864e-11
3.10167e-11
6.71912e-11
1.73122e-11
3.22671e-10
3.77665e-10
1.4441e-09
5.86938e-10
5.37184e-10
4.8991e-10
4.45378e-10
4.03548e-10
3.6418e-10
3.26943e-10
2.91536e-10
2.57831e-10
2.26263e-10
1.97466e-10
1.70937e-10
1.47648e-10
1.28871e-10
1.14475e-10
1.01677e-10
8.90217e-11
7.77724e-11
6.30208e-11
5.77788e-11
3.41373e-11
6.96083e-11
1.7638e-11
3.24949e-10
3.81908e-10
1.44175e-09
1.08941e-09
1.03743e-09
9.85857e-10
9.34683e-10
8.84172e-10
8.3446e-10
7.8574e-10
7.38126e-10
6.91702e-10
6.46356e-10
6.02017e-10
5.5887e-10
5.17109e-10
4.764e-10
4.37307e-10
4.00143e-10
3.64909e-10
3.31428e-10
2.99341e-10
2.68549e-10
2.39255e-10
2.1163e-10
1.86262e-10
1.62637e-10
1.41745e-10
1.24806e-10
1.11745e-10
9.99818e-11
8.82703e-11
7.77474e-11
6.40461e-11
5.94999e-11
3.74975e-11
7.17852e-11
1.81637e-11
3.26955e-10
3.85926e-10
1.43912e-09
2.20173e-09
2.69161e-09
1.97133e-09
1.8609e-09
1.79479e-09
1.84257e-09
1.84918e-09
1.84898e-09
1.84547e-09
1.84214e-09
1.83831e-09
1.83295e-09
1.82496e-09
1.81431e-09
1.80192e-09
1.78645e-09
1.76834e-09
1.74767e-09
1.72452e-09
1.69928e-09
1.67221e-09
1.64377e-09
1.61432e-09
1.58391e-09
1.55242e-09
1.51989e-09
1.48661e-09
1.45298e-09
1.41898e-09
1.38493e-09
1.35066e-09
1.3162e-09
1.28158e-09
1.24671e-09
1.21174e-09
1.17665e-09
1.14143e-09
1.10616e-09
1.07049e-09
1.03447e-09
9.98139e-10
9.60542e-10
9.22774e-10
8.86794e-10
8.50179e-10
8.12306e-10
7.74463e-10
7.36793e-10
6.99394e-10
6.62457e-10
6.26107e-10
5.90366e-10
5.55221e-10
5.20611e-10
4.8628e-10
4.5252e-10
4.19783e-10
3.88041e-10
3.5751e-10
3.28248e-10
3.00153e-10
2.72991e-10
2.46747e-10
2.21534e-10
1.97594e-10
1.75446e-10
1.5457e-10
1.35965e-10
1.20815e-10
1.09036e-10
9.82888e-11
8.75249e-11
7.77427e-11
6.51803e-11
6.13481e-11
4.10916e-11
7.36856e-11
1.88769e-11
3.28456e-10
3.89489e-10
1.43661e-09
2.45925e-09
1.80476e-09
1.5165e-09
1.58209e-09
1.55859e-09
1.55804e-09
1.53666e-09
1.5207e-09
1.50512e-09
1.49095e-09
1.4768e-09
1.46217e-09
1.44679e-09
1.43053e-09
1.41356e-09
1.39512e-09
1.37553e-09
1.35501e-09
1.33341e-09
1.31106e-09
1.28829e-09
1.26511e-09
1.24157e-09
1.21763e-09
1.19316e-09
1.16833e-09
1.14349e-09
1.11861e-09
1.0939e-09
1.06935e-09
1.04481e-09
1.02035e-09
9.95854e-10
9.71396e-10
9.46985e-10
9.22583e-10
8.9823e-10
8.73775e-10
8.48995e-10
8.23839e-10
7.98447e-10
7.72632e-10
7.45856e-10
7.18922e-10
6.92264e-10
6.64982e-10
6.37521e-10
6.099e-10
5.82276e-10
5.54802e-10
5.27558e-10
5.00552e-10
4.7381e-10
4.47266e-10
4.20702e-10
3.94364e-10
3.68418e-10
3.42969e-10
3.18204e-10
2.94193e-10
2.70898e-10
2.48178e-10
2.26046e-10
2.04608e-10
1.84105e-10
1.64982e-10
1.46715e-10
1.30318e-10
1.16899e-10
1.06348e-10
9.65997e-11
8.67859e-11
7.77666e-11
6.64253e-11
6.3325e-11
4.49004e-11
7.52801e-11
1.97401e-11
3.29737e-10
3.92155e-10
1.43527e-09
1.62605e-09
1.47487e-09
1.36892e-09
1.40397e-09
1.35551e-09
1.3283e-09
1.29628e-09
1.27035e-09
1.24599e-09
1.22349e-09
1.20162e-09
1.18083e-09
1.16034e-09
1.14002e-09
1.11984e-09
1.09954e-09
1.07912e-09
1.05889e-09
1.0387e-09
1.01853e-09
9.98762e-10
9.79116e-10
9.59523e-10
9.39767e-10
9.20171e-10
9.00753e-10
8.81561e-10
8.62766e-10
8.44346e-10
8.26211e-10
8.08298e-10
7.90618e-10
7.73074e-10
7.55733e-10
7.38617e-10
7.21651e-10
7.04766e-10
6.87811e-10
6.7062e-10
6.53071e-10
6.35423e-10
6.17702e-10
5.99233e-10
5.80468e-10
5.61523e-10
5.42071e-10
5.2237e-10
5.02397e-10
4.82324e-10
4.62243e-10
4.42194e-10
4.22194e-10
4.02262e-10
3.82303e-10
3.6214e-10
3.4192e-10
3.21724e-10
3.01643e-10
2.81872e-10
2.62489e-10
2.43482e-10
2.24778e-10
2.06399e-10
1.88463e-10
1.71158e-10
1.5486e-10
1.39072e-10
1.24809e-10
1.13048e-10
1.03665e-10
9.49068e-11
8.60422e-11
7.78113e-11
6.77818e-11
6.54328e-11
4.88969e-11
7.65677e-11
2.07558e-11
3.2991e-10
3.94547e-10
1.43599e-09
1.37767e-09
1.35305e-09
1.24816e-09
1.23816e-09
1.17957e-09
1.14163e-09
1.10338e-09
1.07047e-09
1.03989e-09
1.01181e-09
9.85464e-10
9.60805e-10
9.3732e-10
9.14827e-10
8.93222e-10
8.7243e-10
8.52281e-10
8.33016e-10
8.14413e-10
7.96381e-10
7.79011e-10
7.62048e-10
7.45361e-10
7.28974e-10
7.13152e-10
6.97661e-10
6.82716e-10
6.68375e-10
6.54398e-10
6.4083e-10
6.27558e-10
6.14655e-10
6.01963e-10
5.8963e-10
5.7758e-10
5.6574e-10
5.54019e-10
5.42257e-10
5.30305e-10
5.18173e-10
5.06049e-10
4.93944e-10
4.81279e-10
4.68181e-10
4.54816e-10
4.41082e-10
4.27076e-10
4.12821e-10
3.98459e-10
3.84024e-10
3.69562e-10
3.55066e-10
3.4055e-10
3.25857e-10
3.1088e-10
2.95655e-10
2.80177e-10
2.64609e-10
2.49087e-10
2.33662e-10
2.18398e-10
2.03251e-10
1.88216e-10
1.73429e-10
1.59025e-10
1.45307e-10
1.31815e-10
1.1955e-10
1.09345e-10
1.01058e-10
9.32547e-11
8.53203e-11
7.7905e-11
6.92561e-11
6.76805e-11
5.29948e-11
7.75875e-11
2.17338e-11
3.29424e-10
3.95427e-10
1.44288e-09
1.25737e-09
1.21872e-09
1.10969e-09
1.0782e-09
1.01791e-09
9.74067e-10
9.31801e-10
8.94695e-10
8.60546e-10
8.29663e-10
8.01149e-10
7.7478e-10
7.50347e-10
7.27382e-10
7.05934e-10
6.85934e-10
6.66988e-10
6.4916e-10
6.32377e-10
6.16365e-10
6.01115e-10
5.86438e-10
5.72316e-10
5.58872e-10
5.46038e-10
5.33792e-10
5.22314e-10
5.11327e-10
5.00746e-10
4.90598e-10
4.80978e-10
4.71649e-10
4.62722e-10
4.54074e-10
4.45796e-10
4.3796e-10
4.29935e-10
4.21992e-10
4.14019e-10
4.06037e-10
3.98053e-10
3.90169e-10
3.8177e-10
3.72888e-10
3.63929e-10
3.54571e-10
3.45007e-10
3.35294e-10
3.25403e-10
3.15508e-10
3.05532e-10
2.95486e-10
2.85419e-10
2.75084e-10
2.64384e-10
2.53368e-10
2.41928e-10
2.30215e-10
2.18423e-10
2.06496e-10
1.94576e-10
1.82678e-10
1.70715e-10
1.58841e-10
1.47154e-10
1.35885e-10
1.24582e-10
1.14259e-10
1.05565e-10
9.83599e-11
9.15118e-11
8.45338e-11
7.80162e-11
7.08507e-11
7.01231e-11
5.72898e-11
7.8301e-11
2.35945e-11
3.2519e-10
3.99405e-10
1.45059e-09
1.08394e-09
1.04411e-09
9.44655e-10
9.02451e-10
8.4277e-10
7.96413e-10
7.52931e-10
7.1406e-10
6.79684e-10
6.48247e-10
6.19554e-10
5.94185e-10
5.70452e-10
5.48675e-10
5.29052e-10
5.11107e-10
4.93864e-10
4.78413e-10
4.63907e-10
4.50188e-10
4.37556e-10
4.25333e-10
4.1422e-10
4.03871e-10
3.94e-10
3.84956e-10
3.76583e-10
3.6867e-10
3.61277e-10
3.54154e-10
3.47783e-10
3.41766e-10
3.36039e-10
3.30527e-10
3.25689e-10
3.20972e-10
3.16093e-10
3.1136e-10
3.06799e-10
3.02335e-10
2.97799e-10
2.93406e-10
2.88362e-10
2.83177e-10
2.77993e-10
2.72305e-10
2.66637e-10
2.60891e-10
2.54877e-10
2.49011e-10
2.43038e-10
2.36949e-10
2.30941e-10
2.2455e-10
2.1775e-10
2.10606e-10
2.02993e-10
1.94922e-10
1.86701e-10
1.78242e-10
1.6966e-10
1.61015e-10
1.52185e-10
1.43317e-10
1.34442e-10
1.2571e-10
1.16732e-10
1.085e-10
1.01404e-10
9.5347e-11
8.95656e-11
8.36822e-11
7.82254e-11
7.28665e-11
7.29259e-11
6.25489e-11
7.76302e-11
2.74245e-11
3.12859e-10
3.92041e-10
1.35515e-09
8.95903e-10
8.62666e-10
7.77794e-10
7.28935e-10
6.72952e-10
6.27838e-10
5.86017e-10
5.4932e-10
5.16927e-10
4.87526e-10
4.61261e-10
4.38153e-10
4.16686e-10
3.97418e-10
3.80324e-10
3.64678e-10
3.49872e-10
3.37004e-10
3.24741e-10
3.13687e-10
3.03664e-10
2.93954e-10
2.85564e-10
2.77961e-10
2.70586e-10
2.64122e-10
2.58109e-10
2.52622e-10
2.47746e-10
2.43082e-10
2.38992e-10
2.35427e-10
2.32006e-10
2.28855e-10
2.263e-10
2.23583e-10
2.21021e-10
2.18645e-10
2.16499e-10
2.14388e-10
2.12322e-10
2.10141e-10
2.07607e-10
2.05202e-10
2.02545e-10
1.99744e-10
1.97036e-10
1.9423e-10
1.91341e-10
1.88579e-10
1.85838e-10
1.82989e-10
1.80203e-10
1.77079e-10
1.73566e-10
1.69663e-10
1.65306e-10
1.60503e-10
1.55484e-10
1.50215e-10
1.44782e-10
1.39205e-10
1.33407e-10
1.27453e-10
1.21316e-10
1.15105e-10
1.085e-10
1.02391e-10
9.69203e-11
9.20676e-11
8.74438e-11
8.27912e-11
7.86337e-11
7.53529e-11
7.63128e-11
6.84311e-11
7.65093e-11
3.19308e-11
3.12067e-10
3.85654e-10
1.35182e-09
7.36865e-10
7.09723e-10
6.35686e-10
5.85856e-10
5.35133e-10
4.92844e-10
4.54864e-10
4.22106e-10
3.92558e-10
3.66572e-10
3.43865e-10
3.23223e-10
3.04785e-10
2.88352e-10
2.73817e-10
2.60345e-10
2.48336e-10
2.37635e-10
2.27585e-10
2.1892e-10
2.10996e-10
2.03522e-10
1.97104e-10
1.913e-10
1.8578e-10
1.81169e-10
1.76788e-10
1.72867e-10
1.69579e-10
1.66536e-10
1.63847e-10
1.61692e-10
1.59604e-10
1.57784e-10
1.56361e-10
1.54859e-10
1.53608e-10
1.52605e-10
1.5173e-10
1.50862e-10
1.50076e-10
1.49102e-10
1.4813e-10
1.47208e-10
1.46086e-10
1.45082e-10
1.4414e-10
1.4317e-10
1.42282e-10
1.41491e-10
1.40839e-10
1.4014e-10
1.39411e-10
1.38517e-10
1.37222e-10
1.35592e-10
1.33592e-10
1.312e-10
1.28639e-10
1.25856e-10
1.22915e-10
1.19845e-10
1.16539e-10
1.1299e-10
1.09194e-10
1.05173e-10
1.00685e-10
9.64902e-11
9.24999e-11
8.88021e-11
8.53471e-11
8.19664e-11
7.92717e-11
7.8128e-11
8.01404e-11
7.42624e-11
7.60206e-11
3.67486e-11
3.17609e-10
3.65904e-10
1.3513e-09
6.32458e-10
5.47957e-10
5.87619e-10
5.2574e-10
4.77218e-10
4.31145e-10
3.91736e-10
3.57637e-10
3.27716e-10
3.01359e-10
2.78296e-10
2.58253e-10
2.4033e-10
2.24471e-10
2.10525e-10
1.98266e-10
1.87021e-10
1.77286e-10
1.68572e-10
1.60644e-10
1.53825e-10
1.47536e-10
1.41974e-10
1.37042e-10
1.32616e-10
1.28685e-10
1.25267e-10
1.22206e-10
1.19481e-10
1.17288e-10
1.15314e-10
1.13566e-10
1.12275e-10
1.10988e-10
1.09977e-10
1.09262e-10
1.08518e-10
1.08083e-10
1.07828e-10
1.07591e-10
1.07429e-10
1.0726e-10
1.07059e-10
1.06929e-10
1.06781e-10
1.06676e-10
1.06649e-10
1.06704e-10
1.06857e-10
1.07123e-10
1.07505e-10
1.08052e-10
1.08602e-10
1.09095e-10
1.09497e-10
1.09548e-10
1.09352e-10
1.08887e-10
1.08112e-10
1.07238e-10
1.06226e-10
1.05087e-10
1.03855e-10
1.024e-10
1.00688e-10
9.87185e-11
9.64555e-11
9.37123e-11
9.11126e-11
8.83883e-11
8.57402e-11
8.34125e-11
8.13052e-11
8.01783e-11
8.11545e-11
8.42268e-11
7.97582e-11
7.60268e-11
4.3092e-11
3.26499e-10
3.41327e-10
1.34997e-09
5.07498e-10
4.23335e-10
4.78209e-10
4.27414e-10
3.85541e-10
3.45985e-10
3.12088e-10
2.82193e-10
2.56083e-10
2.33244e-10
2.13059e-10
1.95551e-10
1.80171e-10
1.66635e-10
1.54815e-10
1.44342e-10
1.3514e-10
1.27118e-10
1.20064e-10
1.13747e-10
1.08252e-10
1.03363e-10
9.92036e-11
9.54064e-11
9.21434e-11
8.93155e-11
8.68308e-11
8.48036e-11
8.29441e-11
8.1483e-11
8.02082e-11
7.91593e-11
7.83752e-11
7.76457e-11
7.71815e-11
7.69201e-11
7.67428e-11
7.67186e-11
7.68711e-11
7.70133e-11
7.72126e-11
7.74601e-11
7.77089e-11
7.80665e-11
7.84617e-11
7.89445e-11
7.95126e-11
8.01794e-11
8.10164e-11
8.19813e-11
8.30463e-11
8.4278e-11
8.55389e-11
8.67267e-11
8.78772e-11
8.87521e-11
8.94468e-11
8.9979e-11
9.03095e-11
9.06002e-11
9.0825e-11
9.09808e-11
9.1063e-11
9.09749e-11
9.06442e-11
9.00665e-11
8.91967e-11
8.78718e-11
8.65785e-11
8.49282e-11
8.32363e-11
8.1966e-11
8.11117e-11
8.1604e-11
8.46226e-11
8.86385e-11
8.50272e-11
7.69183e-11
5.24283e-11
3.38986e-10
3.13693e-10
1.35064e-09
3.81762e-10
3.15171e-10
3.6325e-10
3.25966e-10
2.94671e-10
2.64905e-10
2.39201e-10
2.16079e-10
1.95897e-10
1.77768e-10
1.61822e-10
1.47859e-10
1.35443e-10
1.24515e-10
1.14942e-10
1.06406e-10
9.90156e-11
9.25196e-11
8.68139e-11
8.17558e-11
7.73829e-11
7.36288e-11
7.03016e-11
6.74375e-11
6.5028e-11
6.28781e-11
6.11373e-11
5.97071e-11
5.83715e-11
5.73968e-11
5.65395e-11
5.59039e-11
5.54314e-11
5.50334e-11
5.48822e-11
5.49025e-11
5.49246e-11
5.51084e-11
5.54106e-11
5.56886e-11
5.60478e-11
5.65241e-11
5.69841e-11
5.75617e-11
5.82714e-11
5.90075e-11
5.98961e-11
6.0884e-11
6.20522e-11
6.33424e-11
6.47336e-11
6.62965e-11
6.78571e-11
6.93872e-11
7.0917e-11
7.22577e-11
7.34953e-11
7.46696e-11
7.57487e-11
7.68428e-11
7.79196e-11
7.89954e-11
8.00357e-11
8.09324e-11
8.16477e-11
8.21466e-11
8.23764e-11
8.22018e-11
8.19587e-11
8.12235e-11
8.04394e-11
8.022e-11
8.0643e-11
8.28067e-11
8.76931e-11
9.22571e-11
8.8785e-11
7.77004e-11
6.43497e-11
3.54918e-10
2.81302e-10
1.35871e-09
2.76063e-10
2.32899e-10
2.58737e-10
2.30496e-10
2.07297e-10
1.86079e-10
1.67813e-10
1.51834e-10
1.37885e-10
1.25369e-10
1.14452e-10
1.04774e-10
9.61337e-11
8.84568e-11
8.17056e-11
7.56644e-11
7.03853e-11
6.57352e-11
6.15566e-11
5.79222e-11
5.48075e-11
5.20938e-11
4.9672e-11
4.76198e-11
4.59747e-11
4.44539e-11
4.32479e-11
4.22881e-11
4.14296e-11
4.08063e-11
4.03205e-11
3.99943e-11
3.97983e-11
3.96956e-11
3.97687e-11
3.99456e-11
4.01322e-11
4.04761e-11
4.08722e-11
4.1327e-11
4.18269e-11
4.24892e-11
4.31621e-11
4.39497e-11
4.48742e-11
4.5817e-11
4.69635e-11
4.81707e-11
4.95352e-11
5.10222e-11
5.26066e-11
5.43122e-11
5.6021e-11
5.77676e-11
5.94967e-11
6.11465e-11
6.27733e-11
6.43852e-11
6.59819e-11
6.76368e-11
6.93025e-11
7.10124e-11
7.2718e-11
7.43063e-11
7.58006e-11
7.71158e-11
7.81929e-11
7.89421e-11
7.95864e-11
7.96712e-11
7.96693e-11
8.03131e-11
8.1802e-11
8.54156e-11
9.17812e-11
9.65767e-11
9.3281e-11
8.2095e-11
8.4204e-11
3.8043e-10
2.52717e-10
1.39582e-09
2.25603e-10
1.96391e-10
2.01902e-10
1.74022e-10
1.51821e-10
1.32856e-10
1.17364e-10
1.04526e-10
9.36765e-11
8.45011e-11
7.68005e-11
7.01458e-11
6.43395e-11
5.92661e-11
5.48791e-11
5.10514e-11
4.76755e-11
4.46789e-11
4.19977e-11
3.97765e-11
3.7774e-11
3.60096e-11
3.44955e-11
3.31614e-11
3.21432e-11
3.11887e-11
3.04188e-11
2.98192e-11
2.93546e-11
2.9018e-11
2.87615e-11
2.86808e-11
2.86281e-11
2.86833e-11
2.8854e-11
2.90436e-11
2.92975e-11
2.96099e-11
3.00381e-11
3.04947e-11
3.09844e-11
3.16379e-11
3.23184e-11
3.30909e-11
3.39604e-11
3.49239e-11
3.60011e-11
3.71566e-11
3.84342e-11
3.98026e-11
4.12802e-11
4.28128e-11
4.44102e-11
4.60597e-11
4.77132e-11
4.93843e-11
5.10975e-11
5.28504e-11
5.46409e-11
5.65382e-11
5.84788e-11
6.0504e-11
6.25525e-11
6.45455e-11
6.65073e-11
6.83246e-11
6.99531e-11
7.12993e-11
7.24017e-11
7.29601e-11
7.37167e-11
7.53534e-11
7.81629e-11
8.34295e-11
9.08515e-11
9.45256e-11
8.96393e-11
7.94661e-11
9.85316e-11
3.96501e-10
2.07464e-10
1.4617e-09
2.27267e-10
1.93006e-10
1.95432e-10
1.62062e-10
1.33168e-10
1.10502e-10
9.24059e-11
7.8257e-11
6.68539e-11
5.77453e-11
5.06607e-11
4.49025e-11
4.02655e-11
3.64331e-11
3.33854e-11
3.09321e-11
2.88623e-11
2.71714e-11
2.573e-11
2.46522e-11
2.3735e-11
2.29068e-11
2.23007e-11
2.18138e-11
2.14883e-11
2.12096e-11
2.10635e-11
2.09967e-11
2.10407e-11
2.11764e-11
2.1344e-11
2.16582e-11
2.19729e-11
2.23988e-11
2.2891e-11
2.34212e-11
2.40254e-11
2.46818e-11
2.54746e-11
2.62658e-11
2.7162e-11
2.81537e-11
2.9189e-11
3.03025e-11
3.14953e-11
3.27671e-11
3.40605e-11
3.54562e-11
3.68962e-11
3.84021e-11
4.00157e-11
4.16798e-11
4.34596e-11
4.52993e-11
4.72175e-11
4.91867e-11
5.12043e-11
5.32675e-11
5.53324e-11
5.74745e-11
5.96386e-11
6.18794e-11
6.41601e-11
6.64403e-11
6.87254e-11
7.09149e-11
7.29983e-11
7.49146e-11
7.68109e-11
7.81867e-11
7.93205e-11
8.10642e-11
8.38203e-11
8.89025e-11
9.58683e-11
9.89573e-11
9.64408e-11
9.57946e-11
1.44913e-10
4.42697e-10
2.2086e-10
1.76387e-09
2.21395e-10
1.72399e-10
1.94524e-10
1.62559e-10
1.31854e-10
1.07352e-10
8.70254e-11
7.07587e-11
5.7594e-11
4.7068e-11
3.87845e-11
3.21994e-11
2.70999e-11
2.3089e-11
2.00054e-11
1.76346e-11
1.58273e-11
1.44824e-11
1.34633e-11
1.27501e-11
1.22448e-11
1.1899e-11
1.17068e-11
1.16159e-11
1.16292e-11
1.17096e-11
1.18571e-11
1.20474e-11
1.23066e-11
1.25972e-11
1.29252e-11
1.33007e-11
1.36883e-11
1.41305e-11
1.45826e-11
1.50733e-11
1.55877e-11
1.61261e-11
1.67023e-11
1.72808e-11
1.79106e-11
1.85544e-11
1.92172e-11
1.99013e-11
2.06211e-11
2.13489e-11
2.20974e-11
2.2895e-11
2.37172e-11
2.46069e-11
2.55504e-11
2.65624e-11
2.76553e-11
2.87956e-11
3.00153e-11
3.12834e-11
3.26278e-11
3.4038e-11
3.55161e-11
3.71221e-11
3.88112e-11
4.06134e-11
4.24904e-11
4.44168e-11
4.63755e-11
4.82666e-11
5.00663e-11
5.16706e-11
5.26134e-11
5.2976e-11
5.43377e-11
5.73097e-11
6.20966e-11
6.96812e-11
7.70338e-11
7.58869e-11
6.72083e-11
6.98429e-11
1.38319e-10
3.21393e-10
1.80135e-10
1.78934e-09
)
;

boundaryField
{
    inlet
    {
        type            calculated;
        value           nonuniform List<scalar> 
23
(
2.33345e-08
2.30981e-08
2.28703e-08
2.26503e-08
2.24332e-08
2.22141e-08
2.19867e-08
2.17467e-08
2.1488e-08
2.12054e-08
2.08924e-08
2.05514e-08
2.0165e-08
1.95713e-08
1.90814e-08
1.84912e-08
1.77701e-08
1.69114e-08
1.59075e-08
1.47675e-08
1.34675e-08
1.25043e-08
1.07889e-08
)
;
    }
    outlet
    {
        type            calculated;
        value           nonuniform List<scalar> 
82
(
2.20539e-10
1.93674e-10
1.71243e-10
1.61571e-10
1.30742e-10
1.06121e-10
8.56776e-11
6.93045e-11
5.60354e-11
4.54068e-11
3.70268e-11
3.03485e-11
2.51586e-11
2.10578e-11
1.78853e-11
1.54278e-11
1.35332e-11
1.21014e-11
1.09937e-11
1.01912e-11
9.59676e-12
9.15799e-12
8.87273e-12
8.68586e-12
8.60133e-12
8.5817e-12
8.62696e-12
8.71234e-12
8.8634e-12
9.04359e-12
9.2565e-12
9.51323e-12
9.7769e-12
1.00891e-11
1.04052e-11
1.07525e-11
1.11174e-11
1.14985e-11
1.1911e-11
1.23187e-11
1.27714e-11
1.32324e-11
1.3707e-11
1.41994e-11
1.4725e-11
1.52586e-11
1.58133e-11
1.64184e-11
1.70481e-11
1.77417e-11
1.8481e-11
1.92752e-11
2.01318e-11
2.10159e-11
2.19599e-11
2.294e-11
2.39927e-11
2.51213e-11
2.63372e-11
2.77071e-11
2.91862e-11
3.07954e-11
3.24875e-11
3.42285e-11
3.60014e-11
3.7703e-11
3.92841e-11
4.05951e-11
4.11391e-11
4.11825e-11
4.2427e-11
4.54715e-11
5.06537e-11
5.89345e-11
6.68365e-11
6.50788e-11
5.3522e-11
5.1372e-11
1.11322e-10
2.97513e-10
1.18591e-10
1.47118e-09
)
;
    }
    walls
    {
        type            calculated;
        value           nonuniform List<scalar> 0();
    }
    frontAndBack
    {
        type            empty;
    }
    procBoundary3to2
    {
        type            processor;
        value           nonuniform List<scalar> 
88
(
3.76089e-10
1.43626e-09
1.93715e-11
3.10192e-10
3.10192e-10
2.12044e-11
5.6347e-11
5.6347e-11
7.84605e-11
6.02191e-11
5.23776e-11
5.23776e-11
1.65996e-10
1.41524e-10
1.22934e-10
1.06947e-10
9.15555e-11
9.15555e-11
3.39119e-10
2.96164e-10
2.56326e-10
2.20348e-10
1.87888e-10
1.87888e-10
6.61364e-10
6.01709e-10
5.45466e-10
4.929e-10
4.43961e-10
3.98322e-10
3.55522e-10
3.55522e-10
1.32691e-09
1.25673e-09
1.18748e-09
1.11946e-09
1.05282e-09
9.87875e-10
9.24773e-10
8.63604e-10
8.04461e-10
7.47164e-10
6.91756e-10
6.38385e-10
6.38385e-10
2.00184e-09
2.94412e-09
2.61475e-09
2.17409e-09
2.18669e-09
2.24521e-09
2.2776e-09
2.29662e-09
2.30907e-09
2.31788e-09
2.32546e-09
2.32829e-09
2.326e-09
2.31959e-09
2.30789e-09
2.29198e-09
2.27127e-09
2.24588e-09
2.2166e-09
2.18353e-09
2.14752e-09
2.10921e-09
2.06882e-09
2.02675e-09
1.98311e-09
1.93756e-09
1.89088e-09
1.84344e-09
1.79539e-09
1.74687e-09
1.69778e-09
1.64846e-09
1.5986e-09
1.54833e-09
1.49801e-09
1.44733e-09
1.39661e-09
1.34566e-09
1.29425e-09
1.24241e-09
1.19071e-09
1.1402e-09
1.1402e-09
)
;
    }
    procBoundary3to6
    {
        type            processor;
        value           uniform 2.13156e-12;
    }
    procBoundary3to7
    {
        type            processor;
        value           nonuniform List<scalar> 
16
(
9.59424e-12
1.61952e-09
1.73063e-09
1.25063e-09
1.11468e-09
1.01393e-09
8.65074e-10
7.27771e-10
7.27771e-10
4.91065e-10
3.70595e-10
2.74928e-10
2.067e-10
1.76542e-10
1.65924e-10
1.37518e-10
)
;
    }
}


// ************************************************************************* //
