/*--------------------------------*- C++ -*----------------------------------*\
| =========                 |                                                 |
| \\      /  F ield         | OpenFOAM: The Open Source CFD Toolbox           |
|  \\    /   O peration     | Version:  2506                                  |
|   \\  /    A nd           | Website:  www.openfoam.com                      |
|    \\/     M anipulation  |                                                 |
\*---------------------------------------------------------------------------*/
FoamFile
{
    version     2.0;
    format      ascii;
    arch        "LSB;label=32;scalar=64";
    class       volVectorField;
    location    "250";
    object      momentError;
}
// * * * * * * * * * * * * * * * * * * * * * * * * * * * * * * * * * * * * * //

dimensions      [0 1 -2 0 0 0 0];

internalField   nonuniform List<vector> 
1340
(
(0.000781928 9.16854e-05 1.24063e-15)
(0.000751972 5.07703e-05 -2.19133e-15)
(0.000437445 -0.000154174 -1.1103e-14)
(0.00139964 -0.00121325 -2.15541e-14)
(0.00113859 0.000129536 -1.53609e-15)
(0.00121761 0.000116967 -5.46667e-17)
(0.00117177 9.57402e-05 3.80223e-15)
(0.00173566 0.000375981 9.23111e-15)
(0.000865675 0.000182964 6.50494e-17)
(0.0008939 0.000175384 1.45162e-14)
(0.000946552 7.73356e-05 8.77025e-15)
(0.00146938 0.000325509 -1.03642e-13)
(0.00180075 0.00300834 7.59837e-15)
(0.000474068 -0.0015669 -1.29189e-14)
(0.000757678 -0.000232293 -3.00415e-14)
(0.00124903 0.000321275 -1.37118e-16)
(0.000575852 -0.00378472 -7.00561e-16)
(0.000690902 0.00236655 1.03555e-14)
(0.000821953 0.000309455 -1.0894e-14)
(0.00110069 0.000158933 5.51085e-15)
(0.000396218 0.0010613 -1.19652e-14)
(0.00113445 -0.000745316 3.47541e-15)
(0.000921477 -5.70487e-06 4.43491e-14)
(0.00146253 -0.000293958 3.11364e-14)
(0.000912628 0.000162563 7.27579e-15)
(0.000814377 0.000200344 -1.53782e-15)
(0.000756827 5.46137e-06 -2.50956e-15)
(0.000947527 0.00036378 -4.23929e-14)
(0.000833556 0.000120999 -3.432e-15)
(0.000755788 8.44137e-05 -6.50894e-15)
(0.000747418 3.68829e-05 3.80399e-15)
(0.000579579 0.000510839 -2.2667e-14)
(0.000816659 7.38468e-05 -1.10993e-15)
(0.000749783 5.8023e-05 8.93803e-16)
(0.000759731 1.2795e-07 -8.16972e-15)
(0.000955174 6.25528e-05 7.95949e-15)
(0.000791989 7.31831e-05 -4.91076e-16)
(0.000733279 4.90029e-05 -2.29462e-14)
(0.00073924 -1.19614e-05 6.16572e-16)
(0.00085492 6.67767e-05 1.69159e-14)
(0.000765771 5.78459e-05 2.36262e-15)
(0.00071557 3.40828e-05 2.05981e-14)
(0.00071882 -2.8882e-05 7.91123e-15)
(0.000821819 1.74786e-05 -7.16884e-14)
(0.000738188 5.05275e-05 7.30236e-15)
(0.000695886 2.42001e-05 -4.67836e-15)
(0.000694212 -4.05813e-05 -2.28785e-14)
(0.000776554 -1.14768e-05 4.106e-14)
(0.000709828 3.8824e-05 -1.26309e-14)
(0.000674831 1.20998e-05 4.02955e-15)
(0.000668433 -5.18733e-05 2.5484e-14)
(0.000735323 -3.86093e-05 6.18406e-14)
(0.000680539 2.91594e-05 7.42511e-16)
(0.000652141 1.01607e-06 2.63956e-15)
(0.000640455 -6.19903e-05 -1.32994e-14)
(0.000694632 -6.25067e-05 -6.35626e-15)
(0.000650939 1.86315e-05 7.32196e-16)
(0.000628547 -1.01995e-05 -6.66661e-15)
(0.000611933 -7.07931e-05 -2.44565e-14)
(0.000656195 -8.38469e-05 -2.48836e-14)
(0.00062187 8.63201e-06 -1.03633e-15)
(0.000604609 -2.10052e-05 4.86434e-16)
(0.000582881 -7.911e-05 1.92828e-14)
(0.000618911 -0.000103183 4.78273e-14)
(0.000593721 -9.45391e-07 3.10211e-15)
(0.000581169 -3.11884e-05 -4.25386e-15)
(0.000555257 -8.61358e-05 1.71877e-14)
(0.000584795 -0.000119933 -1.93273e-14)
(0.000566604 -1.03506e-05 1.60148e-15)
(0.000558304 -4.09802e-05 7.51534e-15)
(0.000528167 -9.27578e-05 3.83513e-15)
(0.000552956 -0.000134241 -9.98783e-15)
(0.000540073 -1.95147e-05 5.66561e-15)
(0.000535896 -4.99011e-05 1.59453e-14)
(0.000502418 -9.80136e-05 -1.0154e-14)
(0.00052451 -0.000146459 -3.13354e-14)
(0.000514159 -2.85402e-05 -9.53273e-15)
(0.000513148 -5.83552e-05 -1.79006e-14)
(0.000476639 -0.000102956 -1.32734e-14)
(0.000497675 -0.00015656 1.1503e-14)
(0.000488767 -3.66396e-05 5.56597e-15)
(0.000490583 -6.55006e-05 4.17465e-15)
(0.000452091 -0.000107052 2.00077e-14)
(0.000472855 -0.000164633 1.62632e-14)
(0.000464434 -4.42999e-05 -2.01115e-15)
(0.000468377 -7.21039e-05 2.895e-15)
(0.000428193 -0.000110746 -5.30566e-15)
(0.000448948 -0.000170279 -1.26288e-14)
(0.00044109 -5.12106e-05 -7.72023e-18)
(0.000447056 -7.7786e-05 -3.66745e-15)
(0.000406148 -0.00011325 -1.08548e-14)
(0.000427118 -0.000173984 -2.18734e-15)
(0.000418573 -5.77325e-05 1.02238e-16)
(0.000425863 -8.28954e-05 1.74712e-15)
(0.000384654 -0.000115149 1.48055e-14)
(0.000406563 -0.000175706 1.79036e-14)
(0.000396614 -6.35509e-05 2.44082e-15)
(0.000405078 -8.67748e-05 -5.37345e-15)
(0.000364404 -0.000116336 -4.5459e-15)
(0.00038739 -0.000176255 -1.11416e-14)
(0.00037569 -6.87884e-05 -9.86799e-17)
(0.00038477 -9.01061e-05 9.00961e-15)
(0.000344823 -0.000117067 -1.18478e-14)
(0.000368715 -0.000175108 -1.96463e-14)
(0.000355941 -7.31944e-05 4.49938e-15)
(0.000365722 -9.26713e-05 -1.20165e-14)
(0.00032713 -0.000117243 -2.32138e-15)
(0.000351435 -0.000173019 2.12988e-14)
(0.000337186 -7.70831e-05 -8.97505e-15)
(0.000347395 -9.482e-05 2.83914e-15)
(0.000310367 -0.000116962 1.3938e-15)
(0.000335261 -0.000169733 -9.715e-15)
(0.000319124 -8.04794e-05 7.57143e-15)
(0.000329817 -9.64126e-05 -1.62732e-16)
(0.00029483 -0.000116363 7.09282e-15)
(0.000320269 -0.000166193 1.40797e-14)
(0.000301699 -8.33574e-05 -8.15092e-15)
(0.000312448 -9.75999e-05 6.90163e-15)
(0.000279624 -0.000115459 2.02687e-15)
(0.000305688 -0.000161943 4.67063e-16)
(0.000285012 -8.56663e-05 -1.75782e-15)
(0.000296064 -9.84023e-05 2.66806e-15)
(0.00026549 -0.000114441 1.10524e-15)
(0.000291694 -0.000157683 -9.28473e-15)
(0.000269383 -8.73848e-05 7.91611e-15)
(0.000280621 -9.8826e-05 -1.50305e-15)
(0.000252088 -0.000113113 -3.68509e-15)
(0.00027822 -0.000152836 -1.36091e-14)
(0.00025464 -8.87154e-05 1.32911e-15)
(0.000266261 -9.90119e-05 -1.20324e-16)
(0.000239904 -0.000111659 1.7432e-15)
(0.000265593 -0.000147936 8.4674e-15)
(0.000240572 -8.9598e-05 -6.35027e-15)
(0.000252214 -9.88518e-05 -3.6267e-15)
(0.000227959 -0.000109772 -1.62785e-15)
(0.000253361 -0.00014259 9.15007e-15)
(0.00022721 -9.00239e-05 4.0254e-15)
(0.000239017 -9.82997e-05 4.78361e-15)
(0.000216722 -0.000107652 3.64956e-15)
(0.000241458 -0.000137264 -8.01646e-15)
(0.000214793 -8.99593e-05 -2.97241e-15)
(0.000226475 -9.71888e-05 -3.87739e-15)
(0.000205949 -0.000105057 -2.11953e-15)
(0.000230006 -0.000131573 1.06895e-14)
(0.000202864 -8.92979e-05 -1.86349e-15)
(0.000214593 -9.5803e-05 2.96835e-15)
(0.000195836 -0.000102159 1.36893e-15)
(0.00021906 -0.000125989 -3.07062e-15)
(0.000191685 -8.88781e-05 -7.38483e-16)
(0.000203064 -9.40343e-05 -3.04027e-15)
(0.000185677 -9.87397e-05 3.67292e-15)
(0.000208185 -0.000120176 -2.85388e-15)
(0.000184843 -8.52254e-05 4.85418e-15)
(0.000205443 -8.85907e-05 -2.39187e-16)
(0.000179461 -9.12776e-05 2.12668e-15)
(0.000176089 -9.53691e-05 -1.47017e-15)
(0.000198134 -0.000114426 -8.23254e-15)
(0.000174573 -8.40972e-05 -6.38546e-15)
(0.00019271 -8.64139e-05 1.84216e-15)
(0.000169746 -8.88301e-05 1.719e-15)
(0.000167194 -9.18956e-05 -1.14349e-14)
(0.000188401 -0.000108604 1.80693e-15)
(0.000164192 -8.25954e-05 1.45875e-15)
(0.000181556 -8.427e-05 -3.21929e-16)
(0.000160525 -8.62655e-05 -8.77301e-16)
(0.000158351 -8.82889e-05 1.0096e-14)
(0.000178629 -0.000102986 6.41655e-15)
(0.00015453 -8.06714e-05 8.92548e-16)
(0.000171064 -8.1865e-05 -6.23418e-16)
(0.000151695 -8.33155e-05 -2.18328e-15)
(0.000149809 -8.43769e-05 -7.14027e-17)
(0.000169102 -9.73778e-05 1.13621e-16)
(0.0001454 -7.84394e-05 -3.52302e-15)
(0.000161195 -7.92135e-05 -3.4916e-15)
(0.000143486 -8.01432e-05 -3.82978e-15)
(0.000141783 -8.04197e-05 -2.078e-15)
(0.000160137 -9.19947e-05 -2.49943e-15)
(0.000136619 -7.59104e-05 -1.43927e-15)
(0.000151613 -7.63291e-05 -4.18034e-16)
(0.000135347 -7.67176e-05 3.37994e-15)
(0.000133814 -7.63243e-05 1.12335e-15)
(0.000151364 -8.66345e-05 -6.5172e-15)
(0.000128309 -7.31068e-05 -4.28152e-15)
(0.000142611 -7.31927e-05 3.39933e-15)
(0.000127682 -7.31922e-05 1.875e-15)
(0.000126218 -7.22069e-05 -1.80027e-15)
(0.000142876 -8.14658e-05 3.30125e-15)
(0.000120648 -7.00512e-05 1.24586e-15)
(0.000134109 -6.98742e-05 -1.6757e-15)
(0.000120441 -6.95035e-05 -5.73771e-16)
(0.000119014 -6.80268e-05 2.41177e-15)
(0.000134885 -7.63713e-05 5.67951e-15)
(0.000113361 -6.68852e-05 1.78275e-15)
(0.000126099 -6.6446e-05 -1.43944e-15)
(0.000113481 -6.57492e-05 -2.4768e-15)
(0.000112094 -6.39095e-05 -1.56132e-16)
(0.000127285 -7.14973e-05 -4.64365e-15)
(0.000106482 -6.36088e-05 -5.83334e-16)
(0.000118246 -6.28756e-05 8.81317e-17)
(0.000106587 -6.18856e-05 3.202e-15)
(0.000105211 -5.97906e-05 -1.99364e-15)
(0.000119786 -6.67309e-05 1.2661e-15)
(9.99687e-05 -6.00862e-05 -2.29222e-15)
(0.000110851 -5.91108e-05 1.52202e-16)
(0.000100067 -5.79556e-05 3.73371e-15)
(9.87404e-05 -5.56939e-05 -3.225e-15)
(0.000112633 -6.2106e-05 -2.51875e-15)
(9.39183e-05 -5.63479e-05 1.72042e-15)
(0.000103898 -5.52096e-05 4.63157e-16)
(9.39691e-05 -5.39313e-05 7.62715e-16)
(9.26334e-05 -5.15926e-05 6.0561e-16)
(0.000105912 -5.75277e-05 -9.641e-16)
(8.80759e-05 -5.24842e-05 8.71742e-16)
(9.73219e-05 -5.12644e-05 -2.28194e-15)
(8.81376e-05 -4.98504e-05 -1.95484e-15)
(8.68669e-05 -4.75593e-05 1.89046e-15)
(9.95947e-05 -5.30851e-05 4.57582e-15)
(8.38627e-05 -4.88432e-05 -1.12086e-15)
(8.98057e-05 -4.73716e-05 3.03122e-15)
(8.24044e-05 -4.57922e-05 9.01586e-17)
(8.12243e-05 -4.3574e-05 -2.19644e-15)
(9.33491e-05 -4.87448e-05 2.81663e-15)
(7.92004e-05 -4.67237e-05 -2.1215e-15)
(8.8837e-05 -4.51206e-05 3.54781e-16)
(7.72188e-05 -4.33046e-05 1.34407e-15)
(7.6773e-05 -4.19535e-05 1.38513e-16)
(7.60144e-05 -3.97264e-05 -3.5381e-15)
(8.75111e-05 -4.44992e-05 -3.18405e-15)
(7.38246e-05 -4.27011e-05 1.27204e-15)
(8.26777e-05 -4.11771e-05 2.98663e-15)
(7.2135e-05 -3.95313e-05 6.33281e-17)
(7.17267e-05 -3.83439e-05 -3.07639e-15)
(7.09177e-05 -3.59901e-05 9.16435e-16)
(8.17567e-05 -4.03214e-05 -2.43953e-15)
(6.87632e-05 -3.88091e-05 -1.768e-15)
(7.70841e-05 -3.74437e-05 -2.28418e-15)
(6.71876e-05 -3.59513e-05 1.03203e-15)
(6.69005e-05 -3.47607e-05 1.47269e-15)
(6.59679e-05 -3.23897e-05 -1.43125e-15)
(7.63933e-05 -3.63264e-05 2.63168e-16)
(6.36788e-05 -3.50465e-05 7.04034e-16)
(7.15624e-05 -3.38427e-05 -2.94082e-16)
(6.25848e-05 -3.24542e-05 6.39722e-17)
(6.21318e-05 -3.12593e-05 -1.11253e-16)
(6.11561e-05 -2.89626e-05 1.7483e-15)
(7.10467e-05 -3.25724e-05 5.85689e-16)
(5.89988e-05 -3.13999e-05 1.16593e-15)
(6.62566e-05 -3.03636e-05 6.73551e-16)
(5.78772e-05 -2.90002e-05 -2.2302e-15)
(5.75182e-05 -2.78636e-05 -1.42402e-15)
(5.64963e-05 -2.56977e-05 -1.08111e-15)
(6.59944e-05 -2.90017e-05 2.50208e-16)
(5.43377e-05 -2.78502e-05 -1.37865e-15)
(6.11163e-05 -2.68713e-05 -1.88638e-15)
(5.35463e-05 -2.56437e-05 -1.11365e-15)
(5.31265e-05 -2.4565e-05 2.91482e-15)
(5.20832e-05 -2.25844e-05 3.97007e-16)
(6.10612e-05 -2.56797e-05 2.95164e-16)
(5.00874e-05 -2.43886e-05 -1.68383e-16)
(5.62563e-05 -2.35806e-05 1.1987e-15)
(4.93176e-05 -2.23985e-05 -6.80723e-16)
(4.89928e-05 -2.14366e-05 -5.54988e-16)
(4.80062e-05 -1.96692e-05 3.39835e-15)
(5.65551e-05 -2.25187e-05 -1.37045e-15)
(4.59845e-05 -2.11122e-05 1.8492e-15)
(5.19487e-05 -2.03483e-05 1.39807e-15)
(4.55345e-05 -1.93355e-05 -2.4478e-15)
(4.53047e-05 -1.85376e-05 7.58704e-16)
(4.42752e-05 -1.69697e-05 -9.81434e-16)
(5.23128e-05 -1.95708e-05 1.06925e-15)
(4.31338e-05 -1.80823e-05 -1.24064e-15)
(4.68386e-05 -1.74081e-05 7.99067e-16)
(4.19041e-05 -1.64613e-05 1.74251e-15)
(4.18093e-05 -1.58061e-05 -2.73806e-15)
(4.07386e-05 -1.44063e-05 1.41681e-15)
(4.83214e-05 -1.67446e-05 2.6452e-15)
(3.879e-05 -1.52817e-05 -4.96854e-16)
(4.54082e-05 -1.51354e-05 4.35065e-16)
(3.9286e-05 -1.4483e-05 3.70668e-16)
(3.8522e-05 -1.37859e-05 -1.01429e-15)
(3.86998e-05 -1.31546e-05 1.37341e-16)
(3.75058e-05 -1.19333e-05 1.55309e-15)
(4.45789e-05 -1.39795e-05 5.71227e-17)
(3.5616e-05 -1.23455e-05 1.4666e-15)
(4.17602e-05 -1.22082e-05 1.99621e-15)
(3.62717e-05 -1.17802e-05 -1.83461e-15)
(3.55733e-05 -1.12301e-05 -1.12672e-16)
(3.56764e-05 -1.06242e-05 -6.98456e-16)
(3.44385e-05 -9.51409e-06 -7.65701e-16)
(4.11739e-05 -1.1361e-05 2.45465e-15)
(3.28647e-05 -9.66289e-06 -1.3052e-16)
(3.85851e-05 -9.57121e-06 -1.01803e-15)
(3.3463e-05 -9.24083e-06 -1.21653e-15)
(3.28464e-05 -8.77681e-06 2.62989e-15)
(3.28981e-05 -8.21557e-06 1.13614e-15)
(3.17178e-05 -7.29705e-06 -3.14631e-15)
(3.80906e-05 -8.8896e-06 -2.31476e-15)
(3.04271e-05 -7.17822e-06 6.42864e-16)
(3.56262e-05 -7.10427e-06 -7.6451e-16)
(3.10534e-05 -6.85201e-06 2.20449e-16)
(3.0425e-05 -6.47953e-06 5.3303e-16)
(3.04579e-05 -6.01647e-06 -1.0925e-15)
(2.93182e-05 -5.26134e-06 -2.18736e-15)
(3.53784e-05 -6.58172e-06 2.52305e-15)
(2.83893e-05 -4.80953e-06 2.81818e-15)
(3.36377e-05 -4.76799e-06 5.83944e-17)
(2.89219e-05 -4.5974e-06 -1.85394e-15)
(2.83564e-05 -4.32769e-06 1.48447e-16)
(2.83557e-05 -3.97565e-06 1.29721e-15)
(2.72555e-05 -3.39659e-06 5.96588e-16)
(3.30531e-05 -4.42913e-06 -4.78532e-16)
(2.66102e-05 -2.5936e-06 -3.40556e-16)
(3.14357e-05 -2.56651e-06 3.26329e-16)
(2.71215e-05 -2.48717e-06 -5.01367e-16)
(2.65636e-05 -2.33554e-06 -7.19379e-16)
(2.65393e-05 -2.09408e-06 4.86432e-16)
(2.54331e-05 -1.70042e-06 -1.13279e-15)
(3.09491e-05 -2.45432e-06 1.82983e-16)
(2.57508e-05 -8.89461e-07 1.68714e-15)
(3.11649e-05 -8.4962e-07 8.09241e-16)
(2.61258e-05 -8.26141e-07 2.24223e-16)
(2.537e-05 -7.25917e-07 7.00172e-16)
(2.52296e-05 -5.52065e-07 -5.76292e-17)
(2.41825e-05 -3.10373e-07 8.10466e-16)
(2.96325e-05 -8.36852e-07 -3.77663e-17)
(2.42885e-05 4.65317e-07 7.49567e-16)
(2.94927e-05 5.64283e-07 1.8249e-15)
(2.48566e-05 5.38011e-07 -5.75564e-16)
(2.4106e-05 5.70737e-07 -1.08908e-15)
(2.36556e-05 6.9448e-07 6.13842e-16)
(2.24852e-05 8.26763e-07 4.74334e-16)
(2.76353e-05 4.69386e-07 4.45227e-16)
(2.30241e-05 1.83566e-06 8.21368e-16)
(2.81399e-05 1.97111e-06 -8.55376e-16)
(2.3802e-05 1.95318e-06 -4.58626e-16)
(2.31664e-05 1.92406e-06 7.7164e-16)
(2.24946e-05 1.95903e-06 1.9107e-15)
(2.11011e-05 2.00498e-06 -8.10722e-16)
(2.59282e-05 1.86824e-06 -2.53997e-15)
(2.2617e-05 3.16572e-06 -1.06465e-17)
(2.59171e-05 3.3802e-06 -5.17938e-16)
(2.26448e-05 3.36863e-06 1.24911e-17)
(2.22155e-05 3.29703e-06 7.26252e-16)
(2.15711e-05 3.24432e-06 -1.38658e-16)
(1.99641e-05 3.14676e-06 -4.51352e-16)
(2.4473e-05 3.28681e-06 6.02476e-16)
(2.06573e-05 4.3761e-06 -1.44271e-15)
(2.58572e-05 4.53587e-06 -8.67398e-16)
(2.18065e-05 4.56448e-06 -5.64811e-17)
(2.16823e-05 4.62851e-06 4.67396e-16)
(2.14903e-05 4.57694e-06 4.40664e-16)
(2.08352e-05 4.48641e-06 1.30066e-15)
(1.91705e-05 4.2476e-06 -6.24855e-16)
(2.33204e-05 4.74811e-06 -1.53191e-15)
(1.97967e-05 5.6222e-06 1.55558e-16)
(2.47713e-05 5.81961e-06 -3.97888e-17)
(2.08851e-05 5.78751e-06 -5.04495e-16)
(2.08536e-05 5.81172e-06 1.23289e-15)
(2.0684e-05 5.75328e-06 3.81811e-16)
(2.00578e-05 5.60556e-06 -1.26899e-15)
(1.84774e-05 5.24812e-06 -6.37133e-16)
(2.23092e-05 5.84489e-06 3.24363e-16)
(1.91834e-05 6.80721e-06 -9.35646e-16)
(2.37403e-05 7.06774e-06 4.77681e-18)
(2.01983e-05 7.05276e-06 3.80699e-16)
(2.01882e-05 7.11409e-06 -1.37333e-15)
(2.00519e-05 7.06732e-06 2.71088e-15)
(1.94659e-05 6.89723e-06 -3.04115e-16)
(1.79655e-05 6.4213e-06 -1.15076e-15)
(2.19826e-05 7.59844e-06 1.03844e-15)
(1.874e-05 7.96661e-06 5.25267e-17)
(2.39108e-05 8.17385e-06 5.93445e-16)
(1.96878e-05 8.05204e-06 7.45097e-16)
(1.97005e-05 8.0085e-06 -1.0888e-15)
(1.95925e-05 7.82883e-06 1.20643e-15)
(1.90411e-05 7.49188e-06 -6.35287e-16)
(1.75593e-05 6.8335e-06 -1.47726e-15)
(2.11736e-05 7.52815e-06 1.69032e-15)
(1.90569e-05 9.91241e-06 1.7435e-16)
(2.42276e-05 1.03644e-05 6.6416e-16)
(2.01526e-05 1.03972e-05 1.31584e-15)
(2.01932e-05 1.04865e-05 -2.57013e-17)
(2.0095e-05 1.03596e-05 -1.89802e-15)
(1.95522e-05 1.00328e-05 5.56281e-16)
(1.81321e-05 9.12322e-06 -5.482e-16)
(2.28865e-05 1.12405e-05 -3.61796e-16)
(1.91469e-05 9.94212e-06 -6.26543e-16)
(2.46e-05 1.00787e-05 -9.79393e-16)
(2.04405e-05 9.9329e-06 3.0747e-16)
(2.05975e-05 9.79142e-06 1.49051e-15)
(2.05729e-05 9.46016e-06 2.83054e-16)
(2.0056e-05 8.8889e-06 -5.89018e-16)
(1.84131e-05 7.80524e-06 1.33294e-16)
(2.19486e-05 8.17373e-06 8.4459e-16)
(2.10636e-05 1.69513e-05 1.5931e-15)
(2.63924e-05 1.79602e-05 4.65409e-16)
(2.24816e-05 1.82568e-05 -1.30999e-15)
(2.26043e-05 1.85397e-05 1.39661e-16)
(2.24906e-05 1.83899e-05 -9.36112e-16)
(2.19219e-05 1.78358e-05 -3.36847e-16)
(2.05628e-05 1.62433e-05 1.74097e-15)
(2.77627e-05 2.14849e-05 -1.12728e-16)
(1.79215e-05 8.03035e-06 -1.05446e-15)
(2.28959e-05 8.10995e-06 -4.73565e-16)
(1.94036e-05 8.11457e-06 1.00547e-15)
(1.96309e-05 7.98723e-06 -4.36014e-16)
(1.95563e-05 7.7117e-06 -3.63328e-16)
(1.89372e-05 7.14955e-06 1.22558e-15)
(1.69249e-05 6.27678e-06 -8.84835e-17)
(1.90063e-05 6.72906e-06 -8.55266e-16)
(1.62572e-05 3.29623e-05 -6.32295e-16)
(1.84375e-05 3.43411e-05 -1.25397e-15)
(1.66714e-05 3.54007e-05 -6.62694e-16)
(1.66526e-05 3.59658e-05 2.37693e-15)
(1.64448e-05 3.57735e-05 -1.3105e-16)
(1.60788e-05 3.48356e-05 -6.27034e-16)
(1.57103e-05 3.24691e-05 -8.64005e-16)
(2.26407e-05 4.06013e-05 -3.36008e-15)
(-0.028773 -0.0128593 -1.46836e-14)
(0.00392112 0.000510898 1.77824e-14)
(0.00226798 0.0011152 -9.40947e-14)
(0.00152308 0.000863325 1.65533e-14)
(0.000867866 0.000621626 3.69286e-14)
(0.000849659 0.000435318 -1.78546e-14)
(0.000967616 0.000261448 -5.63036e-14)
(0.000851787 -6.94077e-05 3.65156e-15)
(0.000834913 -1.31811e-05 4.88512e-15)
(0.000824953 -0.000118969 -2.56124e-14)
(0.000808087 -0.000196765 -1.27045e-14)
(0.000793975 -0.00026292 3.64342e-14)
(0.000780324 -0.000314857 5.64551e-14)
(0.000765721 -0.000354939 -3.54547e-14)
(0.000750534 -0.000385934 2.22053e-14)
(0.000734434 -0.000407085 9.8798e-15)
(0.000718457 -0.000421141 -4.69165e-14)
(0.000702347 -0.000427725 3.69399e-14)
(0.000686123 -0.000430264 -5.09292e-14)
(0.000668943 -0.000426972 3.02654e-14)
(0.000650666 -0.000420253 -8.0816e-15)
(0.000631507 -0.000409291 1.8879e-15)
(0.000611948 -0.000396998 1.08896e-14)
(0.000591918 -0.000381898 -9.97166e-15)
(0.000571125 -0.000366068 -3.00256e-15)
(0.000549858 -0.000348724 -4.27063e-15)
(0.000528636 -0.000331787 1.61648e-14)
(0.000507802 -0.000314386 -1.03456e-14)
(0.000487069 -0.000298001 1.22646e-14)
(0.000466298 -0.000281797 2.20641e-15)
(0.000445516 -0.000266777 -1.40594e-14)
(0.000425189 -0.000252045 -1.23196e-14)
(0.000405426 -0.000238332 1.19189e-14)
(0.000386154 -0.000225004 8.65683e-15)
(0.000367242 -0.000212582 -2.96227e-15)
(0.00034916 -0.000200472 5.99858e-15)
(0.000331201 -0.000189227 -1.71301e-15)
(0.000314126 -0.000178326 -1.19083e-14)
(0.000298046 -0.000168107 3.53143e-15)
(0.000282776 -0.000158252 -2.02946e-16)
(0.000267693 -0.000149097 -7.95365e-16)
(0.000253436 -0.000140252 6.58357e-15)
(0.000239837 -0.000131935 -4.84903e-15)
(0.00022686 -0.000123895 -8.18752e-16)
(0.000214321 -0.000116294 7.71165e-16)
(0.000202725 -0.000108938 5.922e-15)
(0.000191525 -0.000101989 -2.64949e-15)
(0.000180761 -9.53036e-05 5.59477e-15)
(0.000170411 -8.88555e-05 -1.04873e-15)
(0.00016085 -8.25034e-05 1.48474e-15)
(0.0001516 -7.63503e-05 1.41694e-15)
(0.000142713 -7.03807e-05 2.89116e-16)
(0.000134204 -6.45067e-05 1.537e-15)
(0.000126104 -5.87806e-05 1.86769e-15)
(0.000118382 -5.32668e-05 -1.04654e-15)
(0.000110889 -4.79867e-05 -3.6985e-16)
(0.000103588 -4.30356e-05 -1.37008e-15)
(9.65988e-05 -3.83125e-05 1.99373e-15)
(8.99625e-05 -3.38944e-05 -3.9679e-15)
(8.38086e-05 -2.95897e-05 1.23609e-15)
(7.7938e-05 -2.54888e-05 -4.68529e-15)
(7.25857e-05 -2.15073e-05 -2.02199e-15)
(6.76293e-05 -1.76639e-05 1.71146e-16)
(6.31353e-05 -1.3993e-05 3.04217e-15)
(5.92005e-05 -1.04493e-05 3.4914e-15)
(5.58414e-05 -7.03112e-06 -7.68823e-16)
(5.28199e-05 -3.76427e-06 -2.95101e-15)
(5.15799e-05 -1.1974e-06 -1.35092e-15)
(4.87987e-05 1.01116e-06 1.87417e-15)
(4.64896e-05 3.34465e-06 5.28812e-15)
(4.45756e-05 5.84753e-06 -2.39448e-15)
(4.3162e-05 8.66097e-06 2.02757e-15)
(4.15763e-05 1.07456e-05 -1.70116e-15)
(4.12828e-05 1.44294e-05 -7.02557e-16)
(3.9676e-05 1.40457e-05 -8.05976e-16)
(4.42676e-05 2.28221e-05 3.8183e-15)
(4.1913e-05 1.58238e-05 -3.98626e-16)
(5.61605e-05 4.44572e-05 2.2924e-16)
(3.61337e-05 1.13783e-05 8.97117e-16)
(4.44715e-05 7.587e-05 9.79096e-15)
(-0.0188055 -0.00287831 3.88731e-15)
(-0.00317364 -0.00236396 -4.32328e-15)
(-0.000749758 -0.00169975 1.90704e-14)
(0.000471291 -0.00135842 -3.98902e-15)
(0.000912649 -0.000985456 -6.1187e-15)
(0.000886601 -0.00139827 1.92414e-15)
(0.000896817 -0.00162594 1.04038e-14)
(0.00096476 -0.00122286 -6.28267e-16)
(0.00098267 -0.00118706 -7.40589e-16)
(0.000995369 -0.00113951 3.53659e-15)
(0.00100056 -0.00108794 3.87074e-15)
(0.000999232 -0.00103392 -7.56843e-15)
(0.000991637 -0.00097864 -1.00836e-14)
(0.000979019 -0.000922396 6.32512e-15)
(0.000961794 -0.000867695 -3.51767e-15)
(0.000941591 -0.000812968 -2.5155e-15)
(0.000918902 -0.000760282 7.91701e-15)
(0.000894407 -0.000708833 -6.19636e-15)
(0.000867502 -0.000660552 9.18134e-15)
(0.000838785 -0.00061375 -5.82774e-15)
(0.000808373 -0.000569805 1.02648e-15)
(0.000777299 -0.000527661 -1.89469e-16)
(0.000745569 -0.000488676 -1.44541e-15)
(0.00071351 -0.000451684 8.81531e-16)
(0.000681089 -0.000417611 8.81439e-16)
(0.000649077 -0.000385717 1.41364e-15)
(0.000617777 -0.000356695 -3.25883e-15)
(0.000587342 -0.000329913 2.13578e-15)
(0.000557448 -0.000305961 -2.64067e-15)
(0.000528128 -0.000284067 -1.36835e-16)
(0.000499634 -0.000264566 2.30321e-15)
(0.000472255 -0.000246652 2.41567e-15)
(0.000446048 -0.000230651 -2.60072e-15)
(0.000420858 -0.000215898 -1.28491e-15)
(0.000396754 -0.000202548 1.29802e-15)
(0.00037398 -0.000190033 -1.35474e-15)
(0.000352151 -0.00017865 1.47502e-16)
(0.000330224 -0.000167914 1.87687e-15)
(0.000310745 -0.000158048 -4.04469e-16)
(0.000292564 -0.000148741 4.43224e-16)
(0.000275182 -0.000140106 6.26286e-16)
(0.000258949 -0.000131815 -1.9284e-15)
(0.000243687 -0.000123982 9.37159e-16)
(0.000229219 -0.000116449 4.49141e-16)
(0.000215584 -0.000109258 -1.1178e-15)
(0.000202985 -0.000102336 -7.93497e-16)
(0.000190937 -9.57387e-05 8.68069e-17)
(0.000179434 -8.94016e-05 -2.06803e-16)
(0.000168573 -8.32451e-05 -3.61333e-16)
(0.000158555 -7.72394e-05 6.5155e-16)
(0.000148954 -7.14147e-05 -6.80408e-16)
(0.000139415 -6.57518e-05 1.20971e-15)
(0.000130682 -6.02239e-05 2.60281e-16)
(0.000122573 -5.48224e-05 -1.4422e-16)
(0.000114787 -4.96106e-05 4.27973e-16)
(0.000107371 -4.45828e-05 9.34962e-16)
(0.000100135 -3.9846e-05 2.09088e-16)
(9.32413e-05 -3.53781e-05 1.31832e-16)
(8.67225e-05 -3.11315e-05 1.8788e-15)
(8.06129e-05 -2.70984e-05 -1.41515e-15)
(7.47969e-05 -2.31855e-05 -7.78216e-16)
(6.95799e-05 -1.94272e-05 -1.48558e-15)
(6.47416e-05 -1.58303e-05 -9.70004e-16)
(6.03962e-05 -1.2363e-05 -2.74883e-15)
(5.65931e-05 -9.03541e-06 -8.19653e-16)
(5.33561e-05 -5.81579e-06 -2.07449e-16)
(5.05265e-05 -2.68372e-06 6.70068e-16)
(4.94288e-05 -2.09698e-07 5.13778e-16)
(4.66715e-05 1.87096e-06 -9.13203e-16)
(4.44403e-05 4.07585e-06 -2.93917e-16)
(4.25362e-05 6.36006e-06 8.62694e-16)
(4.10849e-05 8.8744e-06 -3.37894e-16)
(3.96097e-05 1.08741e-05 -5.07894e-16)
(3.90545e-05 1.42175e-05 7.98672e-16)
(3.80874e-05 1.45005e-05 5.88827e-17)
(4.12568e-05 2.2221e-05 -5.37404e-16)
(4.11549e-05 1.72995e-05 1.16885e-15)
(5.0008e-05 4.06416e-05 -2.37704e-16)
(3.75751e-05 1.29589e-05 -1.53274e-16)
(3.61633e-05 6.94639e-05 4.1366e-16)
(0.00210399 -0.00283374 -1.24674e-16)
(0.00242228 -0.00222845 -7.01752e-17)
(0.00217063 -0.00172067 -8.58262e-17)
(0.00263693 -0.00149938 1.09593e-16)
(0.00262858 -0.00130075 -2.42595e-16)
(0.00244532 -0.0012363 -1.70223e-16)
(0.00235635 -0.0012235 1.61849e-17)
(0.00224914 -0.00113343 -2.08712e-16)
(0.0021456 -0.00105273 -2.36762e-16)
(0.0020442 -0.00099063 1.07619e-16)
(0.00194147 -0.00093096 -2.46472e-16)
(0.00183999 -0.000874545 -2.0589e-16)
(0.00173916 -0.000821112 1.7866e-16)
(0.00164072 -0.000770715 3.58061e-16)
(0.0015449 -0.000723568 -1.91532e-16)
(0.00145322 -0.000678436 1.90477e-16)
(0.00136539 -0.000635977 9.84761e-17)
(0.00128184 -0.000595088 -1.31575e-17)
(0.00120179 -0.000557134 -3.80942e-17)
(0.00112559 -0.000520329 1.51803e-16)
(0.00105325 -0.000485661 7.16765e-16)
(0.000985183 -0.000452029 -3.44412e-17)
(0.00092106 -0.000420835 2.03451e-16)
(0.000860593 -0.000390864 8.66124e-17)
(0.000803787 -0.000362928 -1.13115e-16)
(0.000750903 -0.000336459 -1.89288e-16)
(0.000701858 -0.000312267 -4.93642e-16)
(0.000656148 -0.000289684 -8.98856e-18)
(0.000613341 -0.00026937 1.27919e-18)
(0.000573189 -0.000250681 1.85309e-16)
(0.000535832 -0.000234041 2.37717e-16)
(0.000501092 -0.000218681 -1.10164e-15)
(0.000468789 -0.000204992 -1.24273e-15)
(0.00043855 -0.000192327 -6.15391e-16)
(0.000410411 -0.000180933 2.3754e-16)
(0.00038424 -0.000170205 6.7458e-16)
(0.000359843 -0.000160514 1.66944e-18)
(0.0003363 -0.000151294 1.51617e-16)
(0.000315222 -0.000142833 4.92196e-16)
(0.000295471 -0.000134776 5.03853e-16)
(0.00027694 -0.000127294 4.42105e-17)
(0.000259706 -0.000120026 -2.36366e-16)
(0.000243674 -0.00011313 -1.62366e-16)
(0.000228522 -0.000106427 -7.96871e-16)
(0.000214489 -9.99839e-05 -1.40268e-15)
(0.000201441 -9.37147e-05 -6.93082e-16)
(0.000189087 -8.77206e-05 -2.66533e-16)
(0.000177292 -8.19303e-05 9.39157e-16)
(0.000166316 -7.62833e-05 1.38205e-15)
(0.000156115 -7.07455e-05 -3.26909e-17)
(0.000146427 -6.5369e-05 4.27756e-16)
(0.00013689 -6.0133e-05 -1.54613e-15)
(0.000128185 -5.50169e-05 -1.20227e-15)
(0.000119996 -5.00147e-05 1.63525e-16)
(0.000112286 -4.51185e-05 -8.58972e-16)
(0.000104845 -4.04308e-05 -2.68608e-16)
(9.77526e-05 -3.59455e-05 -3.0204e-16)
(9.09361e-05 -3.17321e-05 6.05597e-16)
(8.45383e-05 -2.77414e-05 2.97831e-15)
(7.8531e-05 -2.39549e-05 5.48783e-16)
(7.27916e-05 -2.03382e-05 3.31088e-15)
(6.76013e-05 -1.68245e-05 1.41064e-16)
(6.2792e-05 -1.34595e-05 3.44094e-16)
(5.84458e-05 -1.02448e-05 -1.47905e-15)
(5.46578e-05 -7.14431e-06 -2.43506e-16)
(5.14409e-05 -4.13434e-06 8.26978e-16)
(4.86881e-05 -1.17264e-06 -3.29841e-16)
(4.76971e-05 1.2092e-06 6.27484e-16)
(4.49582e-05 3.18264e-06 -2.15556e-16)
(4.27323e-05 5.23184e-06 -6.76063e-16)
(4.08095e-05 7.33151e-06 -9.31972e-16)
(3.92875e-05 9.64213e-06 4.86782e-16)
(3.78992e-05 1.14884e-05 1.62783e-15)
(3.71673e-05 1.46207e-05 -1.57799e-15)
(3.67639e-05 1.4902e-05 5.89946e-17)
(3.90213e-05 2.20281e-05 -1.02074e-16)
(4.05281e-05 1.70789e-05 -2.62374e-15)
(4.59869e-05 3.86316e-05 2.0683e-15)
(3.80057e-05 1.22901e-05 -2.08286e-17)
(3.12741e-05 6.70496e-05 -3.5468e-15)
(0.00519954 -0.00140797 2.66886e-17)
(0.00374545 -0.000963276 -3.36263e-17)
(0.00287526 -0.000725091 2.89834e-18)
(0.00305679 -0.000595356 -6.74907e-17)
(0.00288765 -0.00051794 2.72133e-17)
(0.00272171 -0.000496455 1.93178e-17)
(0.00258636 -0.000466034 -1.76173e-17)
(0.00245564 -0.000449176 -1.5498e-17)
(0.00232982 -0.000425215 -1.58028e-16)
(0.00220746 -0.000405812 -7.81502e-18)
(0.00208721 -0.000388905 1.37482e-16)
(0.00197047 -0.000373272 -1.10196e-17)
(0.00185678 -0.000359078 5.45758e-17)
(0.00174751 -0.000346851 -1.56072e-17)
(0.0016426 -0.000335806 2.44694e-20)
(0.00154298 -0.000325953 -1.82889e-16)
(0.00144785 -0.000316923 -3.47502e-16)
(0.00135732 -0.000308401 -3.55291e-16)
(0.00127059 -0.000300597 1.6732e-16)
(0.0011883 -0.000292734 -2.78136e-17)
(0.00111017 -0.000284969 5.20793e-16)
(0.0010366 -0.000276535 -1.31352e-16)
(0.000967043 -0.000268023 -3.68361e-16)
(0.000901608 -0.000258948 2.92362e-16)
(0.000840119 -0.000249837 -5.10603e-17)
(0.000783047 -0.000240175 5.73505e-18)
(0.00072996 -0.000230581 -1.23065e-16)
(0.000680549 -0.000220744 -2.49458e-17)
(0.000634255 -0.00021136 4.52418e-17)
(0.000591197 -0.000201943 9.61778e-17)
(0.000551238 -0.000193062 4.51543e-16)
(0.000514319 -0.000184168 5.02425e-17)
(0.000479995 -0.000175812 3.21781e-16)
(0.000448186 -0.000167508 -2.0132e-16)
(0.000418644 -0.000159697 8.02184e-18)
(0.00039132 -0.000151933 7.81929e-17)
(0.000365948 -0.000144672 -5.13203e-16)
(0.00034204 -0.000137468 -1.94905e-16)
(0.000320293 -0.000130672 4.20639e-16)
(0.000299935 -0.000123984 -7.06856e-17)
(0.000280896 -0.000117643 -1.78403e-16)
(0.000263242 -0.000111336 4.92513e-16)
(0.000246778 -0.000105267 6.30704e-16)
(0.000231287 -9.92548e-05 7.6571e-16)
(0.000216948 -9.34154e-05 4.09077e-16)
(0.000203586 -8.76687e-05 1.88921e-16)
(0.000190915 -8.21454e-05 9.26732e-16)
(0.000178869 -7.67561e-05 -1.86536e-16)
(0.000167668 -7.14819e-05 -1.83975e-16)
(0.000157216 -6.62886e-05 -1.60967e-15)
(0.000147292 -6.12347e-05 2.99134e-16)
(0.000137642 -5.63295e-05 1.84279e-15)
(0.000128759 -5.1509e-05 -1.68212e-15)
(0.000120402 -4.68157e-05 -2.64931e-16)
(0.000112517 -4.22133e-05 2.50145e-16)
(0.000104986 -3.77499e-05 -7.90154e-16)
(9.77916e-05 -3.34916e-05 2.91698e-16)
(9.09797e-05 -2.94192e-05 -1.46738e-15)
(8.45486e-05 -2.55808e-05 -1.69913e-15)
(7.85103e-05 -2.19571e-05 -1.53575e-16)
(7.27684e-05 -1.84954e-05 -1.6989e-15)
(6.75253e-05 -1.51717e-05 4.95031e-17)
(6.26334e-05 -1.19893e-05 -3.89958e-16)
(5.82064e-05 -8.94563e-06 3.98111e-15)
(5.43181e-05 -6.03537e-06 6.34746e-16)
(5.09893e-05 -3.19756e-06 -8.30256e-17)
(4.81953e-05 -3.75858e-07 5.68693e-16)
(4.722e-05 1.92833e-06 -3.03985e-16)
(4.44867e-05 3.836e-06 7.13421e-16)
(4.225e-05 5.80398e-06 2.04557e-15)
(4.02877e-05 7.77822e-06 1.64748e-15)
(3.86671e-05 9.9551e-06 1.23183e-15)
(3.72268e-05 1.17263e-05 4.16628e-16)
(3.63847e-05 1.4694e-05 4.68338e-17)
(3.60773e-05 1.49096e-05 -2.15171e-18)
(3.81007e-05 2.15631e-05 5.31915e-16)
(3.9762e-05 1.65348e-05 -4.11612e-15)
(4.45473e-05 3.71257e-05 -3.44244e-15)
(3.67557e-05 1.16142e-05 5.97934e-17)
(3.00603e-05 6.54582e-05 5.79104e-16)
(0.00629281 -0.000799525 8.99671e-17)
(0.00421688 -0.000561719 4.7067e-17)
(0.00266893 -0.000547299 -6.56897e-18)
(0.00288526 -0.000560833 -3.38285e-17)
(0.00262478 -0.000494204 -3.38538e-16)
(0.00246726 -0.000484798 -9.00635e-17)
(0.00234062 -0.000471156 1.41036e-16)
(0.00221847 -0.000452643 -1.12141e-17)
(0.00209954 -0.000436912 6.3708e-17)
(0.00198507 -0.000422981 -8.89209e-17)
(0.0018744 -0.000407597 -3.53219e-16)
(0.00176827 -0.000392073 -1.28941e-16)