/*--------------------------------*- C++ -*----------------------------------*\
| =========                 |                                                 |
| \\      /  F ield         | OpenFOAM: The Open Source CFD Toolbox           |
|  \\    /   O peration     | Version:  2506                                  |
|   \\  /    A nd           | Website:  www.openfoam.com                      |
|    \\/     M anipulation  |                                                 |
\*---------------------------------------------------------------------------*/
FoamFile
{
    version     2.0;
    format      ascii;
    arch        "LSB;label=32;scalar=64";
    class       surfaceScalarField;
    location    "250";
    object      phi;
}
// * * * * * * * * * * * * * * * * * * * * * * * * * * * * * * * * * * * * * //

dimensions      [0 3 -1 0 0 0 0];

oriented        oriented;

internalField   nonuniform List<scalar> 
2579
(
0.20173
0.0047092
0.194909
0.00682041
0.18107
0.0138388
0.161152
0.0199184
0.228743
0.00873581
0.223785
0.011779
0.213429
0.0241949
0.195338
0.0380091
0.248129
0.0123524
0.242971
0.0169364
0.232675
0.0344912
0.214839
0.0558451
0.265383
0.0153419
0.260651
0.0216686
0.250909
0.0442337
0.232511
0.0742423
0.279307
0.0181112
0.274957
0.0260178
0.2664
0.0527906
0.248579
0.0920634
0.294586
0.0210175
0.289912
0.0306916
0.281535
0.0611669
0.264132
0.109466
0.310235
0.0240152
0.305358
0.0355686
0.296966
0.069559
0.280076
0.126357
0.326953
0.0271142
0.321889
0.0406334
0.313374
0.0780737
0.296995
0.142735
0.344495
0.0302872
0.339253
0.0458743
0.330712
0.0866146
0.314917
0.158531
0.362992
0.0335524
0.357628
0.0512381
0.349076
0.0951665
0.333841
0.173765
0.382498
0.036869
0.377
0.0567356
0.368459
0.103707
0.353852
0.188373
0.403029
0.0402491
0.397425
0.0623401
0.388957
0.112174
0.374988
0.202342
0.424696
0.0436517
0.419014
0.0680218
0.410585
0.120604
0.397296
0.215631
0.447503
0.0470832
0.441775
0.073749
0.433472
0.128907
0.420838
0.228265
0.471558
0.0505256
0.465813
0.0794935
0.457607
0.137113
0.445672
0.2402
0.496912
0.0539552
0.491166
0.0852401
0.483121
0.145158
0.471904
0.251416
0.52363
0.0573613
0.517943
0.0909276
0.510052
0.153049
0.499523
0.261945
0.551823
0.0606792
0.546185
0.0965658
0.538526
0.160707
0.528695
0.271776
0.581528
0.0639346
0.576016
0.102077
0.568566
0.168157
0.559442
0.2809
0.612862
0.0670715
0.607489
0.10745
0.600287
0.175358
0.591849
0.289338
0.645897
0.0701012
0.640714
0.112633
0.633803
0.182269
0.626011
0.29713
0.680766
0.0729416
0.675769
0.11763
0.66916
0.188878
0.662062
0.304228
0.717533
0.0756139
0.712792
0.122371
0.706513
0.195156
0.700027
0.310715
0.756326
0.0780643
0.75187
0.126826
0.745922
0.201104
0.740053
0.316583
0.797251
0.080354
0.793132
0.130945
0.787537
0.2067
0.782251
0.32187
0.840442
0.082352
0.836593
0.134794
0.831496
0.211796
0.826759
0.326607
0.886064
0.083988
0.882665
0.138194
0.877814
0.216646
0.873617
0.330804
0.934331
0.0853603
0.931031
0.141493
0.926752
0.220925
0.923099
0.334457
0.984996
0.0864585
0.98233
0.144158
0.978363
0.224893
0.975308
0.337512
1.03872
0.0872494
1.03642
0.146454
1.03293
0.228378
1.03032
0.340123
1.09547
0.0877355
1.09347
0.148458
1.09045
0.2314
1.08815
0.342418
1.15531
0.0878994
1.15385
0.149918
1.15132
0.233931
1.14943
0.344304
1.21872
0.0874967
1.21755
0.151097
1.21525
0.236222
1.21403
0.345524
1.28536
0.0871567
1.28474
0.151713
1.28295
0.238019
1.28198
0.34649
1.35614
0.086238
1.35567
0.152185
1.35448
0.239208
1.35391
0.347059
1.43081
0.0851325
1.43088
0.152117
1.4298
0.240285
1.42959
0.347272
1.50966
0.0837207
1.50999
0.151788
1.5095
0.240773
1.50965
0.347124
1.59318
0.0820374
1.5939
0.15107
1.59363
0.241038
1.59399
0.346769
1.67948
0.022876
1.68133
0.0801934
1.68229
0.15011
1.68232
0.241007
1.68313
0.345958
1.77249
0.0199283
1.77458
0.0780982
1.77576
0.148936
1.77622
0.240543
1.77721
0.344973
1.87092
0.0168296
1.87313
0.0758877
1.87463
0.147439
1.87526
0.239909
1.87652
0.343716
1.97493
0.0137201
1.97735
0.0734644
1.97904
0.145749
1.97979
0.239162
1.98132
0.342187
2.08505
0.0104865
2.08754
0.0709714
2.08951
0.143784
2.09051
0.238157
2.09202
0.340676
2.20143
0.00726046
2.20412
0.0682817
2.2061
0.141811
2.20718
0.237075
2.20906
0.338798
2.32461
0.00405524
2.32735
0.065543
2.3293
0.13986
2.33061
0.235771
2.33253
0.336872
2.45487
0.000626047
2.4575
0.0629079
2.45969
0.137673
2.46091
0.234552
2.4629
0.334886
2.59249
-0.00266065
2.59527
0.0601282
2.59742
0.135526
2.59881
0.233159
2.60068
0.333024
2.73798
-0.00590036
2.74079
0.0573217
2.74287
0.133444
2.74428
0.231744
2.7463
0.331008
2.89192
-0.0091313
2.89458
0.0546589
2.89685
0.131174
2.89804
0.230559
2.90004
0.329006
3.05466
-0.0124566
3.05724
0.0520852
3.0593
0.129113
3.06061
0.229252
3.06258
0.327028
3.22653
-0.0155224
3.2291
0.0495167
3.23121
0.127001
3.23228
0.228179
3.23407
0.325239
3.40816
-0.0185903
3.41086
0.0468102
3.41265
0.125214
3.41372
0.22711
3.41545
0.323506
3.59724
-0.0817166
3.60031
-0.0216588
3.60268
0.0444453
3.6045
0.12339
3.60533
0.226284
3.60689
0.321946
3.80007
-0.0854881
3.80307
-0.0246522
3.80543
0.042082
3.80723
0.121593
3.8078
0.225715
3.80928
0.320464
4.01447
-0.089324
4.0175
-0.0276798
4.01969
0.039887
4.02127
0.120013
4.02174
0.225245
4.02304
0.31917
4.24082
-0.0929997
4.24378
-0.0306406
4.24604
0.0376258
4.24734
0.11871
4.24761
0.22498
4.24858
0.318201
4.48
-0.0969108
4.48282
-0.0334648
4.48479
0.0356614
4.48608
0.11742
4.48613
0.224925
4.48703
0.317298
4.73231
-0.100732
4.73511
-0.0362629
4.7372
0.0335706
4.73823
0.116397
4.73798
0.225168
4.73859
0.316692
4.99886
-0.104719
5.0017
-0.0390996
5.00352
0.0317443
5.00446
0.115456
5.00397
0.225667
5.00427
0.316387
5.28022
-0.108666
5.28298
-0.0418531
5.28474
0.0299785
5.28546
0.114737
5.28471
0.226422
5.28486
0.31623
5.57716
-0.112607
5.57988
-0.0445739
5.58145
0.028411
5.58214
0.114051
5.58105
0.227515
5.58094
0.316332
5.88648
-0.186095
5.89059
-0.116714
5.89329
-0.0472664
5.89496
0.0267388
5.89526
0.113744
5.89399
0.228785
5.89351
0.316819
6.2173
-0.192101
6.22133
-0.120747
6.22406
-0.0499968
6.22562
0.0251796
6.22583
0.113541
6.22416
0.230451
6.22348
0.3175
6.56613
-0.198259
6.57039
-0.125005
6.57318
-0.052785
6.57442
0.0239357
6.57455
0.113408
6.57257
0.232431
6.57166
0.318412
6.93431
-0.204736
6.93885
-0.129538
6.94162
-0.0555547
6.94282
0.0227336
6.94281
0.113418
6.93962
0.235622
6.93882
0.319205
7.32244
-0.21222
7.32652
-0.133616
7.3288
-0.0578325
7.32987
0.0216655
7.33038
0.112902
7.32835
0.237654
7.32591
0.32165
7.73048
-0.217951
7.7353
-0.138434
7.73826
-0.060796
7.74001
0.0199176
7.7387
0.114207
7.73619
0.240162
7.73505
0.32279
5.66325
-0.245977
5.69463
-0.16982
5.73097
-0.0971303
5.77024
-0.0193526
5.8169
0.0675414
5.87521
0.181851
5.92674
0.271266
6.23298
-0.277798
6.26811
-0.204954
6.30563
-0.134644
6.34993
-0.0636583
6.40173
0.0157449
6.46545
0.118129
6.52313
0.213592
6.85854
-0.312249
6.89755
-0.243961
6.94017
-0.177262
6.98964
-0.113128
7.04544
-0.0400527
7.11598
0.0475797
7.17733
0.152242
7.54895
-0.349464
7.59065
-0.285662
7.63726
-0.22387
7.69073
-0.166598
7.75318
-0.102507
7.82949
-0.0287309
7.89968
0.0820537
8.26549
-0.4576
8.30817
-0.39214
8.35273
-0.330227
8.40597
-0.277106
8.46356
-0.224191
8.53288
-0.171822
8.6176
-0.113457
8.69297
0.00668165
9.09685
-0.497951
9.14257
-0.437863
9.19393
-0.381589
9.24885
-0.332023
9.31458
-0.289928
9.38958
-0.246818
9.48174
-0.20562
9.56624
-0.0778175
10.0108
-0.542851
10.0597
-0.486774
10.1154
-0.43732
10.1785
-0.395122
10.2486
-0.360048
10.3307
-0.328895
10.4341
-0.309043
10.5252
-0.168843
11.0154
-0.592443
11.0702
-0.54155
11.1317
-0.498849
11.1993
-0.462707
11.2765
-0.437288
11.3672
-0.419606
11.48
-0.421837
11.5808
-0.269633
12.1164
-0.646617
12.177
-0.602078
12.2429
-0.564764
12.3174
-0.537195
12.4028
-0.52272
12.5017
-0.518478
12.6235
-0.543619
12.7321
-0.378315
13.3268
-0.704733
13.3923
-0.667621
13.4657
-0.638141
13.5476
-0.619067
13.6406
-0.615749
13.7504
-0.628319
13.889
-0.682143
14.0119
-0.50125
14.6506
-0.768868
14.7223
-0.739281
14.8018
-0.717665
14.8911
-0.708368
14.9937
-0.71831
15.1115
-0.746175
15.2533
-0.823847
15.3794
-0.627389
16.1469
-0.841493
16.2278
-0.82015
16.3187
-0.808565
16.4194
-0.809128
16.5337
-0.832605
16.6716
-0.884047
16.8497
-1.00201
17.0084
-0.78609
17.778
17.8663
17.9634
18.0722
18.1952
18.3326
18.4903
18.6388
-0.177873
0.177406
-0.190394
0.207861
-0.203162
0.227607
-0.214908
0.244258
-0.22593
0.259601
-0.236321
0.274522
-0.246159
0.289914
-0.2554
0.306236
-0.264026
0.323542
-0.27202
0.341835
-0.279411
0.361243
-0.286176
0.381752
-0.292336
0.403457
-0.29791
0.426411
-0.30292
0.450682
-0.307385
0.476369
-0.311372
0.50351
-0.314884
0.532207
-0.317979
0.562537
-0.320701
0.594571
-0.323099
0.62841
-0.325221
0.664184
-0.327117
0.701923
-0.328835
0.741771
-0.330421
0.783836
-0.331916
0.828254
-0.333361
0.875062
-0.334792
0.92453
-0.336241
0.976757
-0.337735
1.03182
-0.339299
1.08972
-0.340942
1.15107
-0.342717
1.21581
-0.344602
1.28387
-0.346621
1.35593
-0.348781
1.43175
-0.351089
1.51196
-0.353547
1.59644
-0.356156
1.68574
-0.358912
1.77996
-0.361812
1.87942
-0.364846
1.98435
-0.368005
2.09518
-0.371265
2.21232
-0.374636
2.3359
-0.378103
2.46636
-0.381623
2.6042
-0.385192
2.74987
-0.388792
2.90364
-0.392404
3.0662
-0.39601
3.23768
-0.399594
3.41904
-0.403137
3.61043
-0.406624
3.81277
-0.410041
4.02645
-0.413373
4.25191
-0.416609
4.49027
-0.419741
4.74172
-0.422763
5.00729
-0.42567
5.28777
-0.428444
5.58372
-0.431125
5.89619
-0.433664
6.22602
-0.436072
6.57407
-0.438349
6.9411
-0.440493
7.32805
-0.44251
7.73707
-0.443897
5.92813
-0.445289
6.52452
-0.446666
7.17871
-0.448067
7.90108
-0.449437
8.69435
-0.450768
9.56757
-0.452048
10.5264
-0.453083
11.5819
-0.454195
12.7333
-0.454319
14.012
-0.457131
15.3822
-0.455324
17.0066
18.6481
-0.191721
0.19118
-0.199606
0.215746
-0.205992
0.233992
-0.210964
0.249228
-0.215234
0.263871
-0.219503
0.27879
-0.224088
0.294499
-0.228992
0.311138
-0.234174
0.328724
-0.239604
0.347264
-0.245216
0.366855
-0.250997
0.387532
-0.256893
0.409353
-0.262862
0.432379
-0.268856
0.456677
-0.274842
0.482355
-0.280746
0.509414
-0.286556
0.538016
-0.292225
0.568207
-0.297724
0.600069
-0.303024
0.63371
-0.308107
0.669267
-0.312961
0.706776
-0.31758
0.746391
-0.321967
0.788223
-0.326129
0.832416
-0.33008
0.879014
-0.333841
0.92829
-0.337433
0.980349
-0.340882
1.03527
-0.344214
1.09305
-0.347469
1.15433
-0.350639
1.21898
-0.353784
1.28701
-0.356917
1.35907
-0.360058
1.43489
-0.363227
1.51512
-0.366439
1.59966
-0.369706
1.689
-0.373037
1.78329
-0.376438
1.88282
-0.379911
1.98783
-0.383457
2.09873
-0.387085
2.21594
-0.390764
2.33958
-0.394483
2.47008
-0.39826
2.60797
-0.40207
2.75368
-0.405899
2.90747
-0.409733
3.07003
-0.413557
3.2415
-0.417356
3.42284
-0.421115
3.61419
-0.424819
3.81647
-0.428453
4.03009
-0.432004
4.25546
-0.435474
4.49374
-0.438827
4.74507
-0.442054
5.01052
-0.445181
5.2909
-0.448201
5.58674
-0.451066
5.89905
-0.453815
6.22877
-0.456443
6.5767
-0.458903
6.94356
-0.46124
7.33039
-0.463443
7.73927
-0.464977
5.92966
-0.46649
6.52603
-0.468037
7.18026
-0.46955
7.90259
-0.471065
8.69586
-0.47254
9.56905
-0.473966
10.5279
-0.475133
11.583
-0.476395
12.7345
-0.476648
14.0123
-0.479727
15.3853
-0.478447
17.0054
18.6576
-0.221125
0.203318
-0.229038
0.223658
-0.235172
0.240125
-0.240194
0.254249
-0.244724
0.2684
-0.249141
0.283206
-0.253523
0.298881
-0.257863
0.315477
-0.262131
0.332992
-0.266355
0.351487
-0.270544
0.371044
-0.274694
0.391682
-0.278823
0.413483
-0.282935
0.43649
-0.287057
0.460799
-0.291192
0.486489
-0.295355
0.513577
-0.299525
0.542186
-0.303731
0.572413
-0.307965
0.604302
-0.312231
0.637976
-0.316494
0.67353
-0.320774
0.711057
-0.325062
0.750678
-0.329325
0.792486
-0.333552
0.836642
-0.337751
0.883213
-0.341905
0.932444
-0.346006
0.98445
-0.350052
1.03931
-0.354039
1.09704
-0.357971
1.15826
-0.361854
1.22286
-0.365706
1.29086
-0.369514
1.36287
-0.373299
1.43868
-0.377074
1.5189
-0.380849
1.60343
-0.384623
1.69278
-0.38844
1.78711
-0.39226
1.88664
-0.396125
1.99169
-0.400039
2.10264
-0.403963
2.21987
-0.407935
2.34355
-0.411938
2.47409
-0.41598
2.61202
-0.420026
2.75772
-0.424081
2.91152
-0.428119
3.07407
-0.432156
3.24554
-0.436179
3.42686
-0.440134
3.61814
-0.444048
3.82038
-0.447907
4.03394
-0.451656
4.25921
-0.455327
4.49741
-0.458895
4.74864
-0.462353
5.01398
-0.465696
5.29424
-0.468918
5.58996
-0.472011
5.90215
-0.474971
6.23173
-0.477792
6.57952
-0.480485
6.94625
-0.48302
7.33292
-0.485401
7.74165
-0.487056
5.93132
-0.488741
6.52772
-0.490401
7.18192
-0.492094
7.90429
-0.493746
8.69751
-0.49539
9.57069
-0.496976
10.5295
-0.498268
11.5843
-0.499714
12.736
-0.500052
14.0126
-0.5035
15.3887
-0.50256
17.0044
18.6674
-0.249995
0.211624
-0.255377
0.229038
-0.259139
0.243884
-0.26239
0.257498
-0.265646
0.271654
-0.269053
0.286612
-0.2726
0.302426
-0.276258
0.319134
-0.280011
0.336744
-0.283846
0.35532
-0.287749
0.374947
-0.291709
0.39564
-0.295711
0.417484
-0.299744
0.440523
-0.303806
0.464861
-0.30786
0.490543
-0.311925
0.517642
-0.315988
0.546248
-0.320043
0.576469
-0.324091
0.60835
-0.32813
0.642015
-0.332172
0.677573
-0.336191
0.715075
-0.340218
0.754706
-0.344248
0.796516
-0.348282
0.840676
-0.352323
0.887254
-0.356372
0.936493
-0.360429
0.988508
-0.364495
1.04338
-0.368566
1.10111
-0.372642
1.16234
-0.376723
1.22694
-0.380806
1.29495
-0.384893
1.36696
-0.388983
1.44277
-0.393079
1.523
-0.397182
1.60753
-0.401307
1.6969
-0.405422
1.79123
-0.409566
1.89078
-0.413728
1.99585
-0.417911
2.10682
-0.422115
2.22407
-0.426339
2.34778
-0.43058
2.47833
-0.434834
2.61627
-0.439096
2.76198
-0.443359
2.91579
-0.447615
3.07832
-0.451853
3.24978
-0.456062
3.43107
-0.46023
3.62231
-0.464345
3.8245
-0.468393
4.03799
-0.472376
4.26319
-0.476241
4.50128
-0.48002
4.75242
-0.483706
5.01766
-0.487264
5.2978
-0.490686
5.59338
-0.493995
5.90546
-0.497169
6.2349
-0.5002
6.58255
-0.503086
6.94914
-0.505825
7.33566
-0.508422
7.74425
-0.510219
5.93311
-0.512037
6.52953
-0.513866
7.18375
-0.515701
7.90612
-0.517532
8.69934
-0.519325
9.57249
-0.521076
10.5312
-0.522524
11.5858
-0.524153
12.7376
-0.524663
14.0131
-0.52837
15.3924
-0.527988
17.004
18.6773
-0.285764
0.21751
-0.28927
0.232546
-0.291451
0.246065
-0.293448
0.259497
-0.295559
0.273765
-0.29781
0.288864
-0.300159
0.304775
-0.302628
0.321603
-0.305212
0.339328
-0.307915
0.358023
-0.310741
0.377773
-0.313689
0.398589
-0.31676
0.420556
-0.319962
0.443724
-0.323263
0.468162
-0.326686
0.493966
-0.330216
0.521172
-0.333844
0.549876
-0.337562
0.580187
-0.34136
0.612147
-0.345227
0.645883
-0.349156
0.681501
-0.353133
0.719053
-0.357153
0.758725
-0.361207
0.800569
-0.365288
0.844758
-0.369391
0.891358
-0.373514
0.940616
-0.377654
0.992648
-0.381809
1.04753
-0.385978
1.10528
-0.390163
1.16652
-0.394363
1.23114
-0.39858
1.29916
-0.402812
1.37119
-0.407062
1.44702
-0.41133
1.52726
-0.415616
1.61182
-0.419921
1.70121
-0.424246
1.79555
-0.428589
1.89513
-0.432965
2.00023
-0.437334
2.11119
-0.441735
2.22847
-0.446151
2.35219
-0.45058
2.48276
-0.455019
2.62071
-0.459463
2.76643
-0.463906
2.92023
-0.46834
3.08276
-0.47277
3.25421
-0.477146
3.43544
-0.481497
3.62666
-0.485798
3.8288
-0.490036
4.04223
-0.494199
4.26736
-0.498276
4.50535
-0.502258
4.7564
-0.506136
5.02154
-0.509903
5.30157
-0.513553
5.59703
-0.51709
5.90899
-0.520463
6.23827
-0.523707
6.5858
-0.526804
6.95224
-0.529753
7.33861
-0.532555
7.74705
-0.534501
5.93506
-0.536473
6.53151
-0.538463
7.18574
-0.540465
7.90812
-0.542467
8.70134
-0.544438
9.57446
-0.546361
10.5331
-0.547988
11.5874
-0.549771
12.7394
-0.550548
14.0139
-0.554417
15.3963
-0.554741
-0.322948
0.221379
-0.325066
0.234663
-0.326563
0.247562
-0.328149
0.261084
-0.329849
0.275465
-0.331627
0.290641
-0.333499
0.306647
-0.335431
0.323535
-0.337463
0.34136
-0.33957
0.36013
-0.341756
0.379958
-0.344041
0.400873
-0.34642
0.422934
-0.348896
0.4462
-0.351472
0.470738
-0.354152
0.496645
-0.356939
0.523958
-0.359844
0.552781
-0.362849
0.583192
-0.365965
0.615263
-0.36918
0.649099
-0.372515
0.684835
-0.375965
0.722503
-0.379496
0.762256
-0.383133
0.804206
-0.386871
0.848496
-0.390682
0.895169
-0.394569
0.944503
-0.398525
0.996604
-0.402543
1.05155
-0.406617
1.10935
-0.410741
1.17065
-0.414911
1.23531
-0.41911
1.30336
-0.42336
1.37544
-0.427645
1.4513
-0.431964
1.53158
-0.436315
1.61617
-0.440698
1.70559
-0.445111
1.79996
-0.449566
1.89958
-0.454023
2.00469
-0.458518
2.11569
-0.46305
2.233
-0.46759
2.35673
-0.472147
2.48731
-0.476705
2.62527
-0.481284
2.77101
-0.485866
2.92481
-0.490456
3.08735
-0.495007
3.25876
-0.49955
3.43999
-0.504073
3.63119
-0.508538
3.83326
-0.512933
4.04663
-0.517273
4.2717
-0.521534
4.50961
-0.525706
4.76057
-0.52978
5.02562
-0.533749
5.30553
-0.537604
5.60088
-0.541335
5.91273
-0.544949
6.24189
-0.548391
6.58924
-0.5517
6.95554
-0.55486
7.34177
-0.557887
7.75008
-0.55997
5.93714
-0.562102
6.53364
-0.56426
7.1879
-0.566436
7.9103
-0.568635
8.70354
-0.570776
9.5766
-0.572882
10.5352
-0.574702
11.5892
-0.576668
12.7413
-0.577713
-0.360263
0.223466
-0.361463
0.235864
-0.362619
0.248718
-0.363926
0.262391
-0.365309
0.276847
-0.36676
0.292092
-0.368278
0.308166
-0.369868
0.325125
-0.371532
0.343024
-0.373273
0.361872
-0.375093
0.381778
-0.376995
0.402775
-0.378981
0.42492
-0.381053
0.448272
-0.383212
0.472897
-0.385461
0.498894
-0.387802
0.526299
-0.390237
0.555215
-0.392768
0.585722
-0.395396
0.617891
-0.398123
0.651826
-0.400952
0.687664
-0.403884
0.725435
-0.40692
0.765292
-0.410061
0.807347
-0.413307
0.851742
-0.416657
0.898519
-0.420111
0.947956
-0.423665
1.00016
-0.427318
1.0552
-0.431064
1.1131
-0.4349
1.17448
-0.438822
1.23923
-0.442823
1.30736
-0.4469
1.37952
-0.451046
1.45545
-0.455258
1.53579
-0.459531
1.62044
-0.46386
1.70992
-0.468241
1.80435
-0.472672
1.90401
-0.477147
2.00916
-0.481664
2.12021
-0.486219
2.23756
-0.490808
2.36132
-0.495425
2.49193
-0.500067
2.62991
-0.504727
2.77567
-0.509399
2.92948
-0.514077
3.09203
-0.51875
3.26343
-0.523411
3.44465
-0.528049
3.63582
-0.532651
3.83787
-0.537206
4.05118
-0.541702
4.27619
-0.546127
4.51404
-0.550472
4.76492
-0.554728
5.02987
-0.558887
5.30969
-0.562953
5.60495
-0.566871
5.91664
-0.570675
6.24569
-0.574341
6.5929
-0.577861
6.95907
-0.581233
7.34514
-0.584458
7.7533
-0.586712
5.9394
-0.589008
6.53593
-0.591338
7.19023
-0.593696
7.91266
-0.596069
8.70592
-0.598422
9.57895
-0.600722
10.5375
-0.602743
-0.398278
0.224466
-0.3991
0.236686
-0.40007
0.249688
-0.401123
0.263444
-0.402224
0.277948
-0.403379
0.293247
-0.404591
0.309378
-0.405873
0.326408
-0.407201
0.344351
-0.408605
0.363276
-0.41009
0.383263
-0.411639
0.404325
-0.413266
0.426547
-0.414963
0.449969
-0.416754
0.474688
-0.418643
0.500783
-0.420611
0.528267
-0.422661
0.557266
-0.424817
0.587878
-0.427069
0.620144
-0.429432
0.654189
-0.431875
0.690106
-0.43443
0.727991
-0.437101
0.767962
-0.439865
0.810112
-0.442725
0.854601
-0.445702
0.901495
-0.448785
0.95104
-0.451976
1.00335
-0.455275
1.0585
-0.458678
1.1165
-0.462187
1.17799
-0.4658
1.24285
-0.469526
1.31109
-0.473339
1.38333
-0.477246
1.45935
-0.481246
1.53979
-0.485332
1.62453
-0.48949
1.71408
-0.49375
1.80861
-0.498059
1.90832
-0.502448
2.01355
-0.506912
2.12467
-0.51141
2.24206
-0.515973
2.36588
-0.520582
2.49654
-0.525244
2.63457
-0.529928
2.78035
-0.534639
2.93419
-0.539356
3.09674
-0.544096
3.26817
-0.54885
3.4494
-0.553566
3.64054
-0.558274
3.84257
-0.56296
4.05587
-0.567571
4.2808
-0.572153
4.51862
-0.576651
4.76942
-0.581057
5.03428
-0.585389
5.31403
-0.589624
5.60918
-0.593748
5.92077
-0.59775
6.24969
-0.601633
6.59679
-0.605361
6.96279
-0.608945
7.34872
-0.612369
7.75673
-0.614795
5.94182
-0.617258
6.5384
-0.619766
7.19274
-0.622312
7.9152
-0.624867
-0.62744
-0.437241
0.225079
-0.437985
0.23743
-0.438796
0.250499
-0.439653
0.264302
-0.44055
0.278844
-0.441501
0.294199
-0.442479
0.310356
-0.443518
0.327447
-0.44461
0.345443
-0.445758
0.364424
-0.446966
0.384471
-0.448236
0.405595
-0.449572
0.427883
-0.450988
0.451385
-0.452467
0.476167
-0.454012
0.502328
-0.455648
0.529904
-0.457369
0.558986
-0.459179
0.589687
-0.46108
0.622045
-0.463077
0.656186
-0.465184
0.692213
-0.467371
0.730178
-0.469674
0.770265
-0.472084
0.812522
-0.474603
0.85712
-0.477234
0.904126
-0.479977
0.953783
-0.482833
1.00621
-0.485804
1.06147
-0.488899
1.1196
-0.492086
1.18118
-0.495398
1.24616
-0.498822
1.31451
-0.502357
1.38687
-0.506002
1.463
-0.509754
1.54355
-0.513611
1.62839
-0.517581
1.71805
-0.521624
1.81265
-0.525786
1.91248
-0.530024
2.01779
-0.534333
2.12898
-0.538734
2.24646
-0.543207
2.37036
-0.547747
2.50108
-0.552346
2.63917
-0.556999
2.785
-0.561696
2.93889
-0.566431
3.10148
-0.571206
3.27294
-0.575971
3.45417
-0.580768
3.64534
-0.585546
3.84735
-0.59029
4.06061
-0.595029
4.28554
-0.599697
4.52329
-0.604325
4.77404
-0.608902
5.03886
-0.613391
5.31851
-0.617779
5.61357
-0.622095
5.92508
-0.626269
6.25387
-0.630333
6.60085
-0.634263
6.96672
-0.638055
7.35252
-0.641722
-0.644276
-0.646909
-0.649599
-0.477308
0.22565
-0.47796
0.238082
-0.478656
0.251194
-0.479367
0.265013
-0.480113
0.279591
-0.480887
0.294972
-0.481722
0.311191
-0.482578
0.328303
-0.4835
0.346366
-0.48446
0.365384
-0.485459
0.38547
-0.486523
0.406658
-0.487643
0.429003
-0.488823
0.452565
-0.490066
0.47741
-0.491376
0.503638
-0.492757
0.531284
-0.494224
0.560453
-0.495757
0.59122
-0.497372
0.623661
-0.499063
0.657876
-0.500855
0.694005
-0.502752
0.732075
-0.504725
0.772238
-0.506811
0.814607
-0.509013
0.859323
-0.511313
0.906426
-0.513725
0.956194
-0.516251
1.00873
-0.518893
1.06411
-0.521643
1.12234
-0.524535
1.18407
-0.527537
1.24916
-0.530648
1.31762
-0.533892
1.39011
-0.537256
1.46636
-0.540739
1.54703
-0.54434
1.63199
-0.548056
1.72176
-0.551885
1.81648
-0.555823
1.91642
-0.559868
2.02183
-0.564014
2.13313
-0.56827
2.25071
-0.572605
2.37469
-0.577025
2.5055
-0.581512
2.64366
-0.586084
2.78958
-0.590721
2.94353
-0.595427
3.10618
-0.600153
3.27767
-0.604928
3.45894
-0.609727
3.65014
-0.614537
3.85216
-0.619346
4.06542
-0.62414
4.29034
-0.628908
4.52806
-0.633639
4.77878
-0.638321
5.04354
-0.642945
5.32314
-0.64751
5.61814
-0.651959
-0.656336
-0.660569
-0.664693
-0.518576
0.226173
-0.519128
0.238634
-0.519687
0.251754
-0.520285
0.265611
-0.520914
0.280219
-0.521586
0.295644
-0.522269
0.311874
-0.523011
0.329045
-0.523769
0.347124
-0.524579
0.366194
-0.525444
0.386335
-0.526344
0.407558
-0.527294
0.429952
-0.528284
0.453555
-0.529352
0.478479
-0.530468
0.504754
-0.531646
0.532463
-0.532879
0.561686
-0.534193
0.592534
-0.535581
0.625048
-0.537057
0.659353
-0.538604
0.695552
-0.540226
0.733696
-0.54196
0.773972
-0.543776
0.816423
-0.545678
0.861225
-0.547694
0.908442
-0.549816
0.958316
-0.552047
1.01096
-0.55439
1.06646
-0.55685
1.1248
-0.559429
1.18665
-0.562129
1.25186
-0.564965
1.32046
-0.567914
1.39306
-0.570988
1.46944
-0.57419
1.55023
-0.577518
1.63531
-0.580971
1.72522
-0.584549
1.82006
-0.588237
1.92011
-0.592058
2.02565
-0.596007
2.13708
-0.600044
2.25475
-0.604203
2.37885
-0.608464
2.50976
-0.612837
2.64803
-0.617288
2.79403
-0.621822
2.94806
-0.626419
3.11078
-0.631096
3.28235
-0.635841
3.46369
-0.640603
3.6549
-0.64541
3.85697
-0.650249
-0.655079
-0.659903
-0.664708
-0.66947
-0.674218
-0.561107
0.22662
-0.56157
0.239097
-0.562065
0.252249
-0.562573
0.26612
-0.563107
0.280754
-0.563658
0.296194
-0.56426
0.312476
-0.56487
0.329655
-0.565537
0.34779
-0.566227
0.366884
-0.566943
0.387051
-0.567711
0.408326
-0.568522
0.430763
-0.569389
0.454423
-0.570283
0.479372
-0.571239
0.50571
-0.57225
0.533474
-0.573332
0.562767
-0.574464
0.593667
-0.575663
0.626246
-0.576919
0.660609
-0.578261
0.696894
-0.579692
0.735127
-0.581183
0.775462
-0.582771
0.818012
-0.584461
0.862916
-0.586235
0.910215
-0.588107
0.960189
-0.590083
1.01294
-0.592166
1.06854
-0.594359
1.127
-0.596656
1.18895
-0.599094
1.2543
-0.60163
1.32299
-0.604301
1.39573
-0.6071
1.47224
-0.610026
1.55316
-0.613083
1.63837
-0.61627
1.7284
-0.619589
1.82338
-0.623051
1.92357
-0.62663
2.02923
-0.630325
-0.634157
-0.638125
-0.642199
-0.646374
-0.65067
-0.655068
-0.659574
-0.664152
-0.668792
-0.673523
-0.605046
-0.60543
-0.605846
-0.606282
-0.606741
-0.607224
-0.607731
-0.608278
-0.608829
-0.609423
-0.61005
-0.610723
-0.611422
-0.612149
-0.61293
-0.613769
-0.614644
-0.615559
-0.616542
-0.617583
-0.618698
-0.619856
-0.621096
-0.622411
-0.623816
-0.62528
-0.626844
-0.628499
-0.630251
-0.632103
-0.63406
-0.636138
-0.638305
-0.640602
-0.643019
-0.64556
-0.648229
-0.65104
-0.653957
-0.657022
-0.66022
)
;

boundaryField
{
    inlet
    {
        type            calculated;
        value           nonuniform List<scalar> 
13
(
-0.919744
-0.908397
-0.905713
-0.917913
-0.955576
-1.0215
-1.1597
-0.93462
-0.464625
-0.487901
-0.512353
-0.537877
-0.564592
)
;
    }
    outlet
    {
        type            calculated;
        value           nonuniform List<scalar> 0();
    }
    walls
    {
        type            calculated;
        value           uniform 0;
    }
    frontAndBack
    {
        type            empty;
    }
    procBoundary2to1
    {
        type            processor;
        value           nonuniform List<scalar> 
84
(
-0.206439
-0.23277
-0.251745
-0.268373
-0.282076
-0.297492
-0.313233
-0.330052
-0.347668
-0.366257
-0.385814
-0.406409
-0.428099
-0.450934
-0.475
-0.500342
-0.527036
-0.555141
-0.584783
-0.615998
-0.648927
-0.683606
-0.720205
-0.758776
-0.79954
-0.84244
-0.8877
-0.935703
-0.986094
-1.03951
-1.09596
-1.15547
-1.21832
-1.28502
-1.35523
-1.42971
-1.50825
-1.5915
-0.0257837
-1.67657
-1.76954
-1.86782
-1.97182
-2.08181
-2.19821
-2.32141
-2.45144
-2.58921
-2.73474
-2.88869
-3.05134
-3.22346
-3.40509
0.0778623
-3.59339
-3.7963
-4.01063
-4.23714
-4.47609
-4.72849
-4.99487
-5.27628
-5.57322
0.180457
-5.88085
-6.21129
-6.55997
-6.92783
-7.31496
-7.72475
-5.63522
-6.20116
-6.82409
-7.51173
0.420388
-8.22828
-9.05649
-9.96588
-10.9658
-12.0623
-13.2687
-14.5865
-16.0743
-17.6998
)
;
    }
    procBoundary2to3
    {
        type            processor;
        value           nonuniform List<scalar> 
88
(
17.0044
18.6871
14.0149
-0.58178
15.4004
11.5912
-0.604879
12.7435
8.70847
9.58153
-0.629944
10.54
7.7604
5.94438
6.54103
7.19543
-0.652338
7.91794
5.92953
6.25824
6.60508
6.97085
-0.668688
7.35651
4.07026
4.29517
4.53288
4.78358
5.0483
5.32789
-0.678883
5.6228
2.14077
2.25858
2.38282
2.51384
2.6522
2.79832
2.95246
3.11529
3.28693
3.46833
3.65963
-0.678292
3.86174
0.227009
0.23948
0.252664
0.266557
0.281213
0.296677
0.312984
0.330202
0.348342
0.367478
0.387677
0.408999
0.431461
0.45515
0.480153
0.506549
0.53435
0.563683
0.594649
0.627288
0.661725
0.698052
0.736368
0.776777
0.819417
0.86438
0.911779
0.961844
1.01469
1.07039
1.12895
1.19103
1.25647
1.32529
1.39815
1.47478
1.55583
1.64118
1.73132
1.82644
1.92677
-0.663555
2.03257
)
;
    }
    procBoundary2to6
    {
        type            processor;
        value           nonuniform List<scalar> 
13
(
0.161608
0.17794
0.208982
0.241683
0.279878
0.319078
0.358175
0.397277
0.436628
0.476737
0.518053
0.56066
0.604657
)
;
    }
}


// ************************************************************************* //
