/*--------------------------------*- C++ -*----------------------------------*\
| =========                 |                                                 |
| \\      /  F ield         | OpenFOAM: The Open Source CFD Toolbox           |
|  \\    /   O peration     | Version:  2506                                  |
|   \\  /    A nd           | Website:  www.openfoam.com                      |
|    \\/     M anipulation  |                                                 |
\*---------------------------------------------------------------------------*/
FoamFile
{
    version     2.0;
    format      ascii;
    arch        "LSB;label=32;scalar=64";
    class       volSymmTensorField;
    location    "50";
    object      turbulenceProperties:R;
}
// * * * * * * * * * * * * * * * * * * * * * * * * * * * * * * * * * * * * * //

dimensions      [0 2 -2 0 0 0 0];

internalField   nonuniform List<symmTensor> 
1340
(
(2.98184e-07 2.0264e-08 -4.14617e-20 2.55624e-07 -5.62476e-21 2.98634e-07)
(4.40013e-07 2.89297e-08 2.06384e-20 5.33754e-07 2.62471e-21 4.59883e-07)
(1.41039e-07 -4.99214e-09 -8.10725e-20 1.1336e-07 -1.08342e-20 1.35079e-07)
(1.74913e-07 7.12346e-09 -1.26267e-20 2.14644e-07 -1.62468e-21 1.82348e-07)
(3.03214e-07 2.20791e-08 6.20572e-21 2.62024e-07 7.75272e-22 3.04506e-07)
(4.42128e-07 2.9201e-08 -8.3807e-20 5.35781e-07 -1.05657e-20 4.61602e-07)
(8.59902e-08 -6.24813e-09 -0 7.03474e-08 -1.32686e-23 7.96733e-08)
(7.88812e-08 -8.61448e-09 -2.76066e-20 7.97392e-08 -3.62234e-21 7.4272e-08)
(1.30731e-07 -3.55497e-09 7.769e-20 1.0494e-07 1.03923e-20 1.25631e-07)
(1.80584e-07 7.97206e-09 3.90117e-20 2.21182e-07 5.07371e-21 1.88125e-07)
(3.08251e-07 2.36448e-08 4.4059e-24 2.68605e-07 4.50748e-23 3.10711e-07)
(4.44248e-07 2.92613e-08 6.94231e-20 5.37589e-07 8.72756e-21 4.62873e-07)
(5.9736e-08 1.02505e-09 -3.53859e-20 4.62679e-08 -4.70292e-21 5.30636e-08)
(5.12769e-08 9.22295e-11 9.19314e-22 3.95963e-08 1.35949e-22 4.54673e-08)
(4.50216e-08 -2.64912e-09 4.92975e-21 3.64797e-08 6.52629e-22 3.94711e-08)
(8.07572e-08 -5.75371e-09 -0 6.59409e-08 -1.82384e-24 7.48876e-08)
(7.6454e-08 -8.2589e-09 -3.18454e-23 7.78715e-08 -5.08899e-24 7.21019e-08)
(1.20714e-07 -2.16678e-09 1.39344e-22 9.70271e-08 2.13962e-23 1.1664e-07)
(1.86199e-07 8.89028e-09 1.1964e-22 2.27504e-07 2.19552e-23 1.93754e-07)
(3.13112e-07 2.50154e-08 1.03921e-24 2.74919e-07 1.45509e-24 3.16708e-07)
(4.46079e-07 2.89911e-08 1.85751e-22 5.3948e-07 3.39067e-23 4.64051e-07)
(1.54771e-07 1.67571e-09 2.54464e-21 1.19683e-07 3.48074e-22 1.37427e-07)
(1.34296e-07 3.03887e-09 1.06132e-20 1.04249e-07 1.42252e-21 1.19916e-07)
(1.18795e-07 3.92408e-09 1.07621e-20 9.27718e-08 1.41662e-21 1.0676e-07)
(9.91612e-08 2.9859e-09 -3.74249e-20 7.73039e-08 -4.98795e-21 8.92668e-08)
(7.9667e-08 2.44696e-09 9.70464e-21 6.21211e-08 1.30048e-21 7.16423e-08)
(6.09112e-08 1.85079e-09 -1.46499e-20 4.74735e-08 -1.94905e-21 5.45077e-08)
(5.00682e-08 5.47083e-10 1.35522e-23 3.87007e-08 2.15777e-23 4.46907e-08)
(4.20877e-08 -2.45239e-09 3.53893e-20 3.39747e-08 4.69137e-21 3.70132e-08)
(7.57531e-08 -5.44886e-09 -0 6.19732e-08 -1.30802e-23 7.04854e-08)
(7.40541e-08 -7.98135e-09 2.05443e-21 7.62136e-08 2.44537e-22 7.01792e-08)
(1.11637e-07 -8.76638e-10 -7.06022e-20 9.01658e-08 -9.42727e-21 1.08715e-07)
(1.91492e-07 9.76438e-09 -3.54782e-20 2.33513e-07 -4.6143e-21 1.99153e-07)
(3.17507e-07 2.62176e-08 -2.31368e-21 2.80694e-07 -2.85057e-22 3.22165e-07)
(4.47742e-07 2.84173e-08 9.09309e-21 5.41703e-07 1.14569e-21 4.65401e-07)
(3.77622e-07 6.9682e-09 2.06441e-20 2.92719e-07 2.82152e-21 3.36943e-07)
(3.20839e-07 7.12697e-09 -1.90522e-20 2.49091e-07 -2.58384e-21 2.86108e-07)
(2.71389e-07 6.82727e-09 -4.97451e-21 2.11007e-07 -6.77517e-22 2.41694e-07)
(2.29786e-07 6.30329e-09 -3.0878e-20 1.78885e-07 -4.16139e-21 2.04428e-07)
(1.93803e-07 5.59267e-09 -7.01326e-21 1.51007e-07 -9.37456e-22 1.7219e-07)
(1.6328e-07 4.59576e-09 4.97499e-21 1.27151e-07 6.67536e-22 1.45144e-07)
(1.42937e-07 5.57702e-09 2.49668e-21 1.12127e-07 3.31721e-22 1.27762e-07)
(1.26605e-07 6.08053e-09 4.10574e-24 1.00122e-07 3.26532e-24 1.13873e-07)
(1.0512e-07 4.7589e-09 6.42381e-21 8.29023e-08 8.49593e-22 9.4657e-08)
(8.37059e-08 3.84817e-09 -1.71893e-20 6.60554e-08 -2.27379e-21 7.53613e-08)
(6.35832e-08 2.82845e-09 3.25787e-20 5.01027e-08 4.32565e-21 5.70444e-08)
(5.00978e-08 1.07905e-09 -2.1075e-20 3.8858e-08 -2.82506e-21 4.47959e-08)
(3.99052e-08 -2.27491e-09 -3.36571e-20 3.20986e-08 -4.45063e-21 3.51611e-08)
(7.10146e-08 -5.23393e-09 -0 5.83296e-08 1.37602e-23 6.63744e-08)
(7.16215e-08 -7.71948e-09 -1.9533e-21 7.4593e-08 -2.29355e-22 6.83223e-08)
(1.03661e-07 3.11396e-10 6.71787e-20 8.44857e-08 8.95862e-21 1.01983e-07)
(1.96248e-07 1.05285e-08 3.36986e-20 2.39077e-07 4.37615e-21 2.04196e-07)
(3.21131e-07 2.7238e-08 2.2033e-21 2.85825e-07 2.73227e-22 3.26954e-07)
(4.49343e-07 2.75892e-08 -8.60815e-21 5.44227e-07 -1.08212e-21 4.66911e-07)
(1.03862e-06 2.79364e-08 -2.2481e-21 8.08092e-07 -3.00572e-22 9.26562e-07)
(9.12275e-07 2.43929e-08 -1.2085e-20 7.09754e-07 -1.69422e-21 8.14383e-07)
(7.98905e-07 2.15254e-08 -2.13722e-20 6.21648e-07 -3.0272e-21 7.1363e-07)
(6.97152e-07 1.90956e-08 7.63541e-21 5.42627e-07 1.04658e-21 6.23197e-07)
(6.05324e-07 1.72e-08 -1.99642e-21 4.71443e-07 -2.75702e-22 5.41503e-07)
(5.24648e-07 1.57542e-08 9.81683e-21 4.09016e-07 1.34352e-21 4.69534e-07)
(4.5584e-07 1.45773e-08 2.52588e-20 3.55821e-07 3.46642e-21 4.08125e-07)
(3.93526e-07 1.35403e-08 -1.11967e-23 3.07692e-07 5.21254e-24 3.5261e-07)
(3.35332e-07 1.23955e-08 1.51373e-20 2.62683e-07 2.05606e-21 3.00455e-07)
(2.8403e-07 1.10413e-08 -1.45175e-21 2.22831e-07 -1.93815e-22 2.54187e-07)
(2.41291e-07 9.78643e-09 1.47934e-21 1.8957e-07 2.02138e-22 2.15673e-07)
(2.03297e-07 8.61151e-09 1.35864e-20 1.59998e-07 1.82071e-21 1.81319e-07)
(1.71631e-07 7.29949e-09 -4.73611e-21 1.35105e-07 -6.36564e-22 1.52929e-07)
(1.52349e-07 8.02494e-09 -2.37534e-21 1.21155e-07 -3.16954e-22 1.36383e-07)
(1.35991e-07 8.25853e-09 4.00776e-24 1.09205e-07 1.61219e-24 1.22394e-07)
(1.1297e-07 6.63622e-09 1.25059e-25 9.04613e-08 2.46805e-24 1.01714e-07)
(8.96111e-08 5.35517e-09 -1.4849e-23 7.18493e-08 -9.50509e-24 8.07148e-08)
(6.7725e-08 3.93307e-09 -1.77668e-20 5.41922e-08 -2.34508e-21 6.08256e-08)
(5.08443e-08 1.75912e-09 2.00669e-20 3.97353e-08 2.66454e-21 4.53969e-08)
(3.7813e-08 -1.96464e-09 -2.5506e-23 3.02482e-08 -1.28186e-23 3.31981e-08)
(6.60903e-08 -4.98705e-09 -0 5.44842e-08 1.24144e-24 6.19624e-08)
(6.89869e-08 -7.41355e-09 1.86133e-21 7.28188e-08 2.18747e-22 6.63121e-08)
(9.67342e-08 1.42759e-09 -6.85774e-20 7.99565e-08 -9.11318e-21 9.63788e-08)
(2.00573e-07 1.11849e-08 4.09996e-23 2.44353e-07 3.07779e-23 2.0901e-07)
(3.239e-07 2.80702e-08 -6.28966e-21 2.90318e-07 -8.50851e-22 3.31077e-07)
(4.507e-07 2.652e-08 -2.32912e-23 5.46709e-07 -3.00614e-24 4.68298e-07)
(3.54537e-06 2.22904e-07 2.12427e-21 2.85082e-06 4.00561e-22 3.20112e-06)
(3.23789e-06 1.94701e-07 -1.34567e-20 2.59439e-06 -2.15474e-21 2.91943e-06)
(2.96021e-06 1.72001e-07 -2.62061e-22 2.3661e-06 -1.26208e-22 2.66626e-06)
(2.69918e-06 1.51419e-07 1.22275e-20 2.15243e-06 1.95947e-21 2.42891e-06)
(2.45463e-06 1.33336e-07 -1.3016e-20 1.95355e-06 -1.98803e-21 2.20707e-06)
(2.22626e-06 1.17487e-07 2.26651e-21 1.76886e-06 3.06908e-22 2.00042e-06)
(2.01358e-06 1.03507e-07 9.24081e-22 1.59762e-06 1.51534e-22 1.80834e-06)
(1.81486e-06 9.10659e-08 -2.17506e-21 1.4382e-06 -3.57942e-22 1.62909e-06)
(1.62845e-06 7.97771e-08 1.54544e-20 1.28899e-06 2.24585e-21 1.46114e-06)
(1.4561e-06 6.98839e-08 2.16484e-20 1.15149e-06 3.20987e-21 1.30605e-06)
(1.30458e-06 6.18037e-08 1.61258e-21 1.03111e-06 2.65259e-22 1.16986e-06)
(1.17208e-06 5.47302e-08 5.70611e-21 9.25803e-07 8.34549e-22 1.05102e-06)
(1.04554e-06 4.83047e-08 -6.16829e-21 8.25478e-07 -8.73343e-22 9.38175e-07)
(9.20753e-07 4.21716e-08 1.36936e-23 7.26698e-07 -4.02015e-23 8.26708e-07)
(8.07246e-07 3.64871e-08 3.2523e-20 6.36778e-07 4.5762e-21 7.24855e-07)
(7.06936e-07 3.18628e-08 -8.90686e-24 5.57603e-07 4.47602e-23 6.35128e-07)
(6.16553e-07 2.79302e-08 -1.83826e-20 4.86433e-07 -2.54713e-21 5.54293e-07)
(5.36815e-07 2.46053e-08 -3.83609e-21 4.23753e-07 -5.34691e-22 4.82778e-07)
(4.67983e-07 2.21173e-08 -1.74254e-20 3.69943e-07 -2.38963e-21 4.21064e-07)
(4.06132e-07 1.99451e-08 -4.10219e-21 3.21658e-07 -5.67842e-22 3.65631e-07)
(3.48491e-07 1.75419e-08 -6.15333e-24 2.76364e-07 3.22816e-25 3.13667e-07)
(2.97031e-07 1.51742e-08 -2.13844e-20 2.35747e-07 -2.88474e-21 2.67063e-07)
(2.52919e-07 1.31321e-08 -1.4018e-21 2.00923e-07 -1.89448e-22 2.27158e-07)
(2.12051e-07 1.13298e-08 -5.26045e-21 1.68774e-07 -7.06954e-22 1.90074e-07)
(1.78756e-07 9.65183e-09 -2.11693e-24 1.42398e-07 5.42667e-25 1.5996e-07)
(1.59879e-07 1.0211e-08 2.25833e-21 1.29027e-07 2.94289e-22 1.43664e-07)
(1.44178e-07 1.0327e-08 -1.82806e-20 1.17761e-07 -2.42657e-21 1.30159e-07)
(1.20477e-07 8.52419e-09 1.66305e-20 9.82468e-08 2.22101e-21 1.08735e-07)
(9.6308e-08 6.96531e-09 1.52441e-20 7.87592e-08 2.02746e-21 8.69213e-08)
(7.28629e-08 5.16714e-09 2.78344e-20 5.9472e-08 3.66999e-21 6.55774e-08)
(5.20201e-08 2.58605e-09 -3.23673e-20 4.12341e-08 -4.29209e-21 4.63955e-08)
(3.5035e-08 -1.50065e-09 -9.58469e-24 2.78518e-08 1.00868e-23 3.04984e-08)
(6.01674e-08 -4.64011e-09 -0 4.97527e-08 -5.26611e-25 5.64945e-08)
(6.59716e-08 -6.99605e-09 -1.76636e-21 7.07474e-08 -2.23452e-22 6.39484e-08)
(9.08784e-08 2.52312e-09 1.77716e-20 7.65969e-08 2.36316e-21 9.18725e-08)
(2.04699e-07 1.17691e-08 7.41115e-21 2.49564e-07 9.60363e-22 2.13789e-07)
(3.25866e-07 2.87406e-08 -7.33713e-21 2.94189e-07 -9.95691e-22 3.34528e-07)
(4.51729e-07 2.51998e-08 9.93094e-25 5.49025e-07 1.73607e-24 4.69477e-07)
(1.8903e-05 -2.54313e-06 1.60916e-21 2.10635e-05 2.38178e-22 1.9934e-05)
(2.00037e-05 -2.71029e-06 1.58874e-21 2.23945e-05 3.78308e-22 2.10321e-05)
(1.70119e-05 -2.31256e-06 -8.77634e-23 1.90668e-05 2.22012e-23 1.80068e-05)
(1.4398e-05 -1.91344e-06 3.62645e-22 1.62662e-05 5.45505e-23 1.53339e-05)
(1.20836e-05 -1.54521e-06 4.51407e-22 1.38667e-05 9.38222e-23 1.29618e-05)
(9.95698e-06 -1.21537e-06 1.97122e-22 1.16273e-05 5.21636e-23 1.07823e-05)
(8.08351e-06 -9.12349e-07 1.07232e-22 9.65913e-06 4.97119e-23 8.85595e-06)
(6.44735e-06 -6.32288e-07 -1.50403e-21 7.91865e-06 -2.90961e-22 7.16445e-06)
(5.11675e-06 -3.76144e-07 -5.85521e-22 6.47841e-06 -1.7646e-22 5.7767e-06)
(4.17793e-06 -1.43892e-07 1.30361e-21 5.42561e-06 2.51933e-22 4.78002e-06)
(3.72677e-06 6.48949e-08 -0 4.85749e-06 3.08219e-23 4.2705e-06)
(3.77092e-06 2.51753e-07 -6.06923e-23 4.78083e-06 -6.81815e-23 4.25582e-06)
(4.19159e-06 4.17419e-07 2.56215e-21 5.07901e-06 5.11455e-22 4.61744e-06)
(4.81451e-06 5.63235e-07 7.63918e-23 5.57851e-06 1.78187e-23 5.18131e-06)
(5.50997e-06 6.90664e-07 2.58813e-21 6.15115e-06 5.23097e-22 5.81805e-06)
(6.20382e-06 8.01309e-07 1.55036e-22 6.72423e-06 6.56534e-23 6.45368e-06)
(6.85433e-06 8.96097e-07 5.01001e-22 7.25586e-06 1.00739e-22 7.0464e-06)
(7.44009e-06 9.75921e-07 1.86128e-21 7.72564e-06 3.80025e-22 7.57498e-06)
(7.94936e-06 1.04141e-06 8.96298e-22 8.12189e-06 1.79665e-22 8.02785e-06)
(8.37486e-06 1.09283e-06 2.42642e-21 8.43767e-06 5.16307e-22 8.39806e-06)
(8.71304e-06 1.13057e-06 -2.15687e-21 8.67004e-06 -3.94665e-22 8.68243e-06)
(8.96258e-06 1.15499e-06 -3.09617e-21 8.81834e-06 -6.49474e-22 8.88014e-06)
(9.12425e-06 1.16646e-06 1.04289e-21 8.88358e-06 1.99287e-22 8.99242e-06)
(9.20099e-06 1.16561e-06 -7.4544e-22 8.86962e-06 -1.23961e-22 9.02279e-06)
(9.19743e-06 1.15325e-06 -2.14502e-21 8.78174e-06 -4.07044e-22 8.97637e-06)
(9.11986e-06 1.13041e-06 -1.84157e-21 8.627e-06 -3.94324e-22 8.85996e-06)
(8.97537e-06 1.09831e-06 3.67792e-21 8.4132e-06 7.11371e-22 8.68098e-06)
(8.77217e-06 1.05832e-06 -1.25334e-21 8.14935e-06 -2.28542e-22 8.44796e-06)
(8.51821e-06 1.01177e-06 4.68673e-22 7.84373e-06 9.11323e-23 8.16897e-06)
(8.222e-06 9.60028e-07 -1.62883e-21 7.50511e-06 -3.17556e-22 7.85263e-06)
(7.89238e-06 9.04595e-07 2.58368e-21 7.1426e-06 4.75288e-22 7.50768e-06)
(7.53798e-06 8.46921e-07 1.60025e-21 6.76484e-06 3.01105e-22 7.14262e-06)
(7.16676e-06 7.8825e-07 1.85193e-21 6.37924e-06 3.31987e-22 6.76514e-06)
(6.78559e-06 7.29663e-07 4.5767e-21 5.99208e-06 8.46763e-22 6.38185e-06)
(6.40196e-06 6.72259e-07 -3.47198e-21 5.61004e-06 -5.97515e-22 5.99986e-06)
(6.02011e-06 6.16546e-07 -1.93749e-21 5.23629e-06 -3.51183e-22 5.62306e-06)
(5.644e-06 5.63164e-07 1.58191e-22 4.87424e-06 2.72142e-23 5.25498e-06)
(5.27712e-06 5.12747e-07 -2.25449e-21 4.52694e-06 -3.88404e-22 4.89865e-06)
(4.91828e-06 4.65238e-07 -9.00186e-22 4.19292e-06 -1.43974e-22 4.5524e-06)
(4.54629e-06 4.15866e-07 -3.58658e-21 3.84784e-06 -6.20982e-22 4.19494e-06)
(4.19517e-06 3.69445e-07 1.2379e-21 3.52425e-06 1.87656e-22 3.85823e-06)
(3.91025e-06 3.3351e-07 1.5921e-21 3.26623e-06 2.79678e-22 3.58698e-06)
(3.65218e-06 3.01747e-07 -4.01809e-21 3.03458e-06 -6.58297e-22 3.34359e-06)
(3.40389e-06 2.74542e-07 3.18335e-21 2.81777e-06 4.96613e-22 3.11326e-06)
(3.1438e-06 2.48396e-07 6.36153e-23 2.59476e-06 3.34193e-23 2.87318e-06)
(2.87326e-06 2.20224e-07 -3.61417e-24 2.36167e-06 1.26797e-23 2.62124e-06)
(2.62424e-06 1.95721e-07 -3.92479e-23 2.14954e-06 -2.55294e-23 2.3906e-06)
(2.39175e-06 1.73924e-07 3.31805e-21 1.95323e-06 5.37635e-22 2.17602e-06)
(2.175e-06 1.5454e-07 -1.11494e-20 1.77162e-06 -1.69163e-21 1.97664e-06)
(1.97316e-06 1.37195e-07 -2.39387e-24 1.60353e-06 -2.21643e-23 1.79147e-06)
(1.78495e-06 1.21714e-07 -1.25045e-23 1.44774e-06 5.17875e-24 1.61922e-06)
(1.60842e-06 1.07733e-07 -4.39079e-21 1.30233e-06 -6.52528e-22 1.45793e-06)
(1.44178e-06 9.45411e-08 -5.27319e-23 1.16509e-06 -2.34894e-23 1.30579e-06)
(1.29301e-06 8.30198e-08 -5.13148e-22 1.04293e-06 -7.73865e-23 1.16988e-06)
(1.16384e-06 7.44121e-08 -5.05963e-24 9.38466e-07 4.59124e-25 1.05273e-06)
(1.04056e-06 6.65866e-08 -2.35e-21 8.39179e-07 -3.33805e-22 9.41411e-07)
(9.20156e-07 5.78896e-08 7.72397e-25 7.41007e-07 1.38644e-23 8.31964e-07)
(8.11807e-07 5.00566e-08 -1.4031e-20 6.5266e-07 -1.9733e-21 7.33673e-07)
(7.15847e-07 4.36744e-08 -4.35994e-24 5.75018e-07 -2.86705e-23 6.47094e-07)
(6.28291e-07 3.80525e-08 1.56196e-20 5.04395e-07 2.16464e-21 5.68117e-07)
(5.49252e-07 3.31659e-08 5.40819e-25 4.40845e-07 3.04247e-24 4.96781e-07)
(4.77993e-07 2.91703e-08 1.65783e-20 3.83983e-07 2.26811e-21 4.32624e-07)
(4.15386e-07 2.5746e-08 -9.73877e-22 3.34124e-07 -1.22299e-22 3.76059e-07)
(3.58492e-07 2.23957e-08 -1.37092e-20 2.88557e-07 -1.85512e-21 3.24444e-07)
(3.06844e-07 1.91827e-08 1.67289e-23 2.46999e-07 4.74746e-24 2.77474e-07)
(2.61396e-07 1.64155e-08 6.12508e-24 2.10491e-07 3.08785e-24 2.36215e-07)
(2.18622e-07 1.39429e-08 5.00508e-21 1.76312e-07 6.68282e-22 1.97199e-07)
(1.83715e-07 1.17922e-08 4.29394e-21 1.48276e-07 5.71897e-22 1.65448e-07)
(1.64721e-07 1.21378e-08 3.81784e-27 1.34991e-07 -1.58389e-24 1.49021e-07)
(1.49481e-07 1.21343e-08 -5.07522e-24 1.2426e-07 1.97085e-24 1.35795e-07)
(1.25641e-07 1.02325e-08 6.40937e-24 1.04515e-07 -5.20591e-24 1.1408e-07)
(1.01519e-07 8.4992e-09 -1.45121e-20 8.49021e-08 -1.93132e-21 9.21687e-08)
(7.71405e-08 6.41321e-09 -2.24073e-20 6.44846e-08 -2.94429e-21 6.98574e-08)
(5.26434e-08 3.46856e-09 3.21407e-20 4.26585e-08 4.26063e-21 4.7099e-08)
(3.10892e-08 -9.40196e-10 1.54099e-20 2.46284e-08 2.02024e-21 2.67634e-08)
(5.29079e-08 -4.19835e-09 -0 4.39134e-08 -7.9053e-24 4.97142e-08)
(6.26909e-08 -6.43233e-09 -5.06491e-21 6.85175e-08 -6.47093e-22 6.13202e-08)
(8.61744e-08 3.65746e-09 4.52421e-20 7.44554e-08 5.97962e-21 8.84536e-08)
(2.08873e-07 1.23298e-08 -3.47645e-20 2.54909e-07 -4.55484e-21 2.18701e-07)
(3.27284e-07 2.93077e-08 1.88382e-21 2.97587e-07 2.77076e-22 3.37444e-07)
(4.52352e-07 2.36264e-08 1.01674e-24 5.5105e-07 -5.33687e-25 4.70368e-07)
(2.20431e-05 -3.0732e-06 -1.11838e-22 2.42102e-05 -2.72721e-23 2.30052e-05)
(2.31564e-05 -3.23702e-06 2.12151e-22 2.55459e-05 2.97891e-23 2.41175e-05)
(2.03209e-05 -2.8285e-06 -2.4267e-22 2.24318e-05 -3.74522e-23 2.1247e-05)
(1.76511e-05 -2.42355e-06 -8.56771e-23 1.95538e-05 -2.26119e-23 1.85331e-05)
(1.53127e-05 -2.06037e-06 2.63867e-24 1.71293e-05 -5.34901e-24 1.6154e-05)
(1.31181e-05 -1.73005e-06 1.18058e-24 1.48216e-05 2.98603e-23 1.39211e-05)
(1.11136e-05 -1.42348e-06 -1.60025e-21 1.27264e-05 -3.08865e-22 1.18774e-05)
(9.26882e-06 -1.13779e-06 6.35495e-22 1.07876e-05 9.07777e-23 9.99131e-06)
(7.61084e-06 -8.74097e-07 5.88655e-23 9.0376e-06 4.40491e-23 8.29065e-06)
(6.16154e-06 -6.32625e-07 -9.82044e-22 7.49706e-06 -1.83302e-22 6.79789e-06)
(4.95264e-06 -4.12764e-07 -0 6.19602e-06 9.30839e-24 5.54482e-06)
(4.02953e-06 -2.13453e-07 -1.81919e-21 5.17822e-06 -3.30712e-22 4.57686e-06)
(3.45363e-06 -3.40956e-08 -7.2941e-22 4.50505e-06 -1.75504e-22 3.95557e-06)
(3.25982e-06 1.26171e-07 2.44408e-25 4.21168e-06 5.47396e-24 3.71601e-06)
(3.40435e-06 2.6837e-07 -1.81012e-21 4.25504e-06 -3.62479e-22 3.81466e-06)
(3.7756e-06 3.93588e-07 1.63209e-21 4.52466e-06 2.80345e-22 4.14002e-06)
(4.25874e-06 5.03076e-07 1.7483e-21 4.90625e-06 3.52228e-22 4.57739e-06)
(4.77564e-06 5.98048e-07 -1.32742e-21 5.32297e-06 -2.39247e-22 5.0488e-06)
(5.28051e-06 6.79746e-07 -1.07558e-21 5.72993e-06 -2.0723e-22 5.50863e-06)
(5.74636e-06 7.48859e-07 -5.43182e-22 6.10004e-06 -1.22135e-22 5.92987e-06)
(6.15828e-06 8.06001e-07 -2.96838e-22 6.41929e-06 -5.80898e-23 6.29775e-06)
(6.50816e-06 8.51753e-07 2.69176e-21 6.67986e-06 5.14564e-22 6.60436e-06)
(6.79142e-06 8.86458e-07 -1.28601e-24 6.87735e-06 9.30989e-24 6.84528e-06)
(7.00631e-06 9.1048e-07 1.17381e-21 7.01026e-06 2.21119e-22 7.01914e-06)
(7.15357e-06 9.24323e-07 1.37266e-21 7.07991e-06 2.72228e-22 7.12696e-06)
(7.23481e-06 9.28447e-07 1.77442e-22 7.08814e-06 4.30201e-23 7.17079e-06)
(7.25337e-06 9.2351e-07 -1.11785e-21 7.03879e-06 -2.20555e-22 7.15431e-06)
(7.21314e-06 9.10243e-07 -5.84113e-22 6.93623e-06 -1.04532e-22 7.08181e-06)
(7.11873e-06 8.89446e-07 -9.55532e-25 6.78556e-06 -2.29423e-24 6.95818e-06)
(6.97577e-06 8.62032e-07 3.32712e-22 6.59265e-06 6.78595e-23 6.78932e-06)
(6.79105e-06 8.29106e-07 -6.3916e-24 6.36468e-06 -6.1133e-24 6.58217e-06)
(6.57165e-06 7.91872e-07 2.22929e-21 6.10922e-06 3.88352e-22 6.34395e-06)
(6.32477e-06 7.5145e-07 -5.47469e-24 5.83329e-06 -4.44599e-24 6.0818e-06)
(6.05697e-06 7.0884e-07 -1.32849e-23 5.54314e-06 -2.3719e-23 5.8023e-06)
(5.77461e-06 6.65066e-07 3.91857e-21 5.24508e-06 6.91491e-22 5.51164e-06)
(5.48224e-06 6.2075e-07 1.19523e-21 4.94293e-06 2.16261e-22 5.2142e-06)
(5.18475e-06 5.76513e-07 -2.16364e-21 4.64082e-06 -3.69507e-22 4.91457e-06)
(4.88551e-06 5.3291e-07 1.42233e-21 4.34193e-06 2.45544e-22 4.61576e-06)
(4.58603e-06 4.90463e-07 4.68189e-24 4.04832e-06 8.60922e-24 4.31865e-06)
(4.27063e-06 4.46332e-07 -1.65608e-21 3.74241e-06 -2.7067e-22 4.00745e-06)
(3.94128e-06 4.00506e-07 -1.49167e-21 3.42524e-06 -2.48723e-22 3.68508e-06)
(3.66581e-06 3.63488e-07 1.3366e-21 3.16471e-06 2.09577e-22 3.41746e-06)
(3.46405e-06 3.39852e-07 2.19647e-21 2.9826e-06 3.64327e-22 3.22584e-06)
(3.24104e-06 3.14961e-07 1.12167e-21 2.78414e-06 1.5876e-22 3.01617e-06)
(2.98019e-06 2.82934e-07 9.22455e-21 2.54598e-06 1.4684e-21 2.76599e-06)
(2.73417e-06 2.53182e-07 -3.19338e-24 2.32293e-06 2.03602e-23 2.53125e-06)
(2.51242e-06 2.2743e-07 -1.88984e-23 2.1245e-06 -1.14915e-23 2.32139e-06)
(2.30218e-06 2.03975e-07 -3.18166e-21 1.93859e-06 -4.9789e-22 2.12332e-06)
(2.10377e-06 1.82701e-07 7.04396e-21 1.765e-06 1.07037e-21 1.93714e-06)
(1.9175e-06 1.63351e-07 1.15852e-22 1.60332e-06 4.38236e-23 1.76299e-06)
(1.74301e-06 1.45834e-07 -8.47807e-21 1.45307e-06 -1.25722e-21 1.60039e-06)
(1.57819e-06 1.29801e-07 6.0969e-23 1.31211e-06 9.48254e-24 1.44708e-06)
(1.42111e-06 1.14555e-07 -9.8619e-21 1.1779e-06 -1.44393e-21 1.30103e-06)
(1.27713e-06 1.0123e-07 4.85089e-22 1.05599e-06 5.02832e-23 1.16772e-06)
(1.14633e-06 9.0517e-08 3.19649e-21 9.47406e-07 4.57589e-22 1.04772e-06)
(1.02647e-06 8.0647e-08 -1.84732e-21 8.47856e-07 -2.49143e-22 9.3725e-07)
(9.1403e-07 7.07642e-08 -5.42595e-21 7.53487e-07 -7.63142e-22 8.33439e-07)
(8.12557e-07 6.18891e-08 1.80172e-23 6.68354e-07 -1.07373e-24 7.4038e-07)
(7.20941e-07 5.43085e-08 -4.04715e-24 5.92125e-07 -1.80214e-24 6.56807e-07)
(6.35556e-07 4.73867e-08 -1.92767e-23 5.21301e-07 -5.62914e-24 5.78914e-07)
(5.57431e-07 4.12646e-08 3.35841e-25 4.56801e-07 7.94366e-24 5.07757e-07)
(4.8614e-07 3.60103e-08 -1.57903e-20 3.98406e-07 -2.15973e-21 4.43054e-07)
(4.22641e-07 3.13844e-08 5.55248e-21 3.46471e-07 7.3951e-22 3.85314e-07)
(3.65219e-07 2.70986e-08 1.30566e-20 2.99359e-07 1.7653e-21 3.32976e-07)
(3.12604e-07 2.31011e-08 1.9392e-20 2.56086e-07 2.61729e-21 2.84934e-07)
(2.65465e-07 1.95956e-08 6.47035e-24 2.1742e-07 6.89032e-24 2.41925e-07)
(2.21217e-07 1.64508e-08 -1.17305e-20 1.8136e-07 -1.56861e-21 2.01296e-07)
(1.85101e-07 1.38138e-08 -4.08972e-21 1.51822e-07 -5.46466e-22 1.68322e-07)
(1.65936e-07 1.38197e-08 -7.56431e-21 1.38381e-07 -1.00128e-21 1.51662e-07)
(1.5091e-07 1.36202e-08 1.18022e-20 1.27866e-07 1.56758e-21 1.38461e-07)
(1.27462e-07 1.16451e-08 -3.6762e-21 1.08322e-07 -4.8526e-22 1.16927e-07)
(1.03925e-07 9.80564e-09 1.41434e-20 8.90796e-08 1.88526e-21 9.53651e-08)
(7.92152e-08 7.51524e-09 3.87677e-20 6.80676e-08 5.12096e-21 7.25597e-08)
(5.19922e-08 4.27399e-09 1.75624e-20 4.34122e-08 2.29984e-21 4.69463e-08)
(2.59723e-08 -3.78313e-10 8.20483e-24 2.06558e-08 -7.78616e-24 2.20958e-08)
(4.44653e-08 -3.70024e-09 -0 3.71529e-08 2.95238e-24 4.18119e-08)
(5.95215e-08 -5.72643e-09 4.81893e-21 6.65256e-08 6.35157e-22 5.88019e-08)
(8.2762e-08 4.87478e-09 3.67756e-23 7.36725e-08 2.02667e-23 8.61989e-08)
(2.13534e-07 1.29102e-08 3.30791e-20 2.60872e-07 4.3206e-21 2.2416e-07)
(3.28356e-07 2.98468e-08 1.87603e-20 3.00602e-07 2.5207e-21 3.39877e-07)
(4.52652e-07 2.18041e-08 1.05136e-24 5.52908e-07 -4.64452e-24 4.71117e-07)
(2.44189e-05 -3.52217e-06 5.69213e-22 2.6326e-05 7.91135e-23 2.53335e-05)
(2.54252e-05 -3.65302e-06 6.15448e-22 2.75495e-05 9.76564e-23 2.63291e-05)
(2.27105e-05 -3.23418e-06 -3.23479e-23 2.46175e-05 1.22865e-23 2.35808e-05)
(2.00658e-05 -2.82749e-06 -4.47447e-22 2.18082e-05 -7.23711e-23 2.09024e-05)
(1.7746e-05 -2.46748e-06 5.51132e-23 1.94429e-05 -3.40296e-24 1.8552e-05)
(1.55342e-05 -2.1334e-06 1.7509e-22 1.71431e-05 2.12964e-23 1.63099e-05)
(1.34788e-05 -1.82089e-06 -9.32346e-24 1.50154e-05 1.0924e-23 1.42228e-05)
(1.15616e-05 -1.52903e-06 -1.25557e-24 1.30219e-05 4.01668e-24 1.22722e-05)
(9.79884e-06 -1.2586e-06 -2.73967e-24 1.11872e-05 9.18851e-25 1.04751e-05)
(8.20229e-06 -1.00985e-06 -3.08187e-24 9.52236e-06 5.41758e-24 8.8437e-06)
(6.77679e-06 -7.81514e-07 -0 8.02962e-06 -2.30135e-24 7.38271e-06)
(5.53661e-06 -5.72817e-07 -6.90587e-24 6.72149e-06 1.29248e-23 6.10644e-06)
(4.50679e-06 -3.83245e-07 7.54697e-24 5.62237e-06 -4.05175e-24 5.04008e-06)
(3.7193e-06 -2.12024e-07 3.4442e-25 4.76314e-06 -7.52699e-24 4.21575e-06)
(3.21116e-06 -5.83481e-08 4.31998e-22 4.18056e-06 8.50422e-23 3.67058e-06)
(2.99922e-06 7.87538e-08 -3.52634e-22 3.89141e-06 -6.348e-23 3.42152e-06)
(3.05168e-06 2.0021e-07 7.24775e-24 3.8644e-06 -1.87741e-23 3.43689e-06)
(3.28991e-06 3.07081e-07 -2.37952e-24 4.02121e-06 -1.51342e-24 3.63818e-06)
(3.63045e-06 4.00153e-07 -3.53885e-24 4.27989e-06 1.06748e-23 3.94202e-06)
(4.00805e-06 4.80509e-07 5.28077e-22 4.57533e-06 8.22287e-23 4.28328e-06)
(4.38265e-06 5.49012e-07 2.77323e-22 4.86886e-06 6.44343e-23 4.62206e-06)
(4.73136e-06 6.06738e-07 4.46328e-24 5.13828e-06 -1.00496e-23 4.9356e-06)
(5.03978e-06 6.54122e-07 -1.22791e-24 5.36957e-06 1.0877e-24 5.20941e-06)
(5.30093e-06 6.91858e-07 4.23734e-25 5.55621e-06 -2.1489e-24 5.43664e-06)
(5.51147e-06 7.20525e-07 -1.12515e-24 5.69517e-06 -5.05497e-27 5.61408e-06)
(5.66968e-06 7.40503e-07 -1.66855e-21 5.78525e-06 -2.86894e-22 5.74016e-06)
(5.77573e-06 7.52273e-07 2.13828e-22 5.82683e-06 3.15756e-23 5.81528e-06)
(5.83046e-06 7.56287e-07 -1.61722e-25 5.82121e-06 9.21047e-24 5.8405e-06)
(5.83595e-06 7.53037e-07 -2.26582e-23 5.77069e-06 -5.07383e-24 5.81814e-06)
(5.79522e-06 7.43091e-07 -3.11444e-22 5.67849e-06 -4.82522e-23 5.75146e-06)
(5.71276e-06 7.27222e-07 -1.39135e-24 5.5494e-06 -4.46282e-24 5.64517e-06)
(5.59387e-06 7.06323e-07 -5.17875e-24 5.38913e-06 -2.11052e-23 5.50477e-06)
(5.44393e-06 6.81283e-07 1.2351e-21 5.20326e-06 2.00749e-22 5.33575e-06)
(5.2681e-06 6.52918e-07 -4.68925e-24 4.99686e-06 -1.73993e-23 5.14337e-06)
(5.07154e-06 6.21987e-07 -1.95385e-24 4.77474e-06 -5.63602e-24 4.9328e-06)
(4.85852e-06 5.89053e-07 -1.12921e-21 4.54049e-06 -1.88796e-22 4.70826e-06)
(4.63184e-06 5.5447e-07 2.05944e-21 4.29639e-06 3.48873e-22 4.47242e-06)
(4.3938e-06 5.18566e-07 -1.33967e-21 4.04453e-06 -2.17078e-22 4.22733e-06)
(4.14796e-06 4.82195e-07 2.50086e-24 3.78987e-06 4.72884e-24 3.97622e-06)
(3.88831e-06 4.44655e-07 1.58052e-21 3.5264e-06 2.60393e-22 3.7131e-06)
(3.62168e-06 4.06747e-07 1.41565e-21 3.25964e-06 2.30582e-22 3.44599e-06)
(3.40117e-06 3.76968e-07 -3.3207e-24 3.04529e-06 -4.41821e-24 3.22861e-06)
(3.21839e-06 3.54218e-07 2.43495e-24 2.87419e-06 6.69749e-24 3.05142e-06)
(3.01072e-06 3.27208e-07 -1.08497e-21 2.67658e-06 -1.73919e-22 2.84719e-06)
(2.78137e-06 2.96854e-07 -4.69648e-21 2.45742e-06 -7.26927e-22 2.62155e-06)
(2.5733e-06 2.69785e-07 -2.42486e-24 2.26052e-06 -2.07482e-24 2.41888e-06)
(2.38103e-06 2.45424e-07 -1.45976e-23 2.08083e-06 -1.94658e-23 2.23298e-06)
(2.19378e-06 2.22483e-07 1.76177e-23 1.90829e-06 1.4065e-23 2.0528e-06)
(2.015e-06 2.01165e-07 -1.7865e-21 1.74529e-06 -2.62504e-22 1.88159e-06)
(1.84527e-06 1.81335e-07 -1.12567e-22 1.59174e-06 -2.15161e-23 1.71975e-06)
(1.6845e-06 1.62961e-07 1.95279e-23 1.44743e-06 8.06993e-24 1.56702e-06)
(1.53086e-06 1.4582e-07 3.87132e-21 1.31063e-06 5.60929e-22 1.42137e-06)
(1.38313e-06 1.29574e-07 -1.42441e-21 1.17972e-06 -2.01434e-22 1.28155e-06)
(1.24777e-06 1.15453e-07 -7.42628e-25 1.06145e-06 1.83142e-24 1.15436e-06)
(1.1238e-06 1.03375e-07 -3.05213e-21 9.54913e-07 -4.42608e-22 1.03872e-06)
(1.0081e-06 9.19488e-08 3.91576e-21 8.552e-07 5.47297e-22 9.30395e-07)
(9.01691e-07 8.1244e-08 5.18328e-21 7.63067e-07 7.24428e-22 8.30992e-07)
(8.05461e-07 7.16844e-08 1.39036e-20 6.7994e-07 1.93886e-21 7.41705e-07)
(7.16902e-07 6.31973e-08 1.10638e-24 6.04048e-07 1.88489e-23 6.5983e-07)
(6.33502e-07 5.53345e-08 -1.2407e-20 5.32839e-07 -1.70842e-21 5.82758e-07)
(5.57018e-07 4.83416e-08 3.29705e-21 4.67927e-07 4.40771e-22 5.12358e-07)
(4.87129e-07 4.21601e-08 1.51376e-23 4.08982e-07 9.78688e-24 4.48277e-07)
(4.24058e-07 3.65999e-08 -7.06197e-21 3.55817e-07 -9.54131e-22 3.90447e-07)
(3.66357e-07 3.14829e-08 -1.81198e-20 3.07125e-07 -2.44006e-21 3.37508e-07)
(3.12669e-07 2.6704e-08 -1.65509e-20 2.61795e-07 -2.2236e-21 2.88136e-07)
(2.6439e-07 2.24744e-08 9.17902e-21 2.21156e-07 1.2271e-21 2.43728e-07)
(2.19247e-07 1.87196e-08 -7.05579e-22 1.83526e-07 -9.21751e-23 2.01987e-07)
(1.82408e-07 1.55929e-08 3.89262e-21 1.52705e-07 5.16124e-22 1.68121e-07)
(1.63288e-07 1.51755e-08 -1.08806e-21 1.39049e-07 -1.43973e-22 1.51335e-07)
(1.48588e-07 1.47348e-08 2.98822e-24 1.2867e-07 8.57496e-25 1.38227e-07)
(1.25682e-07 1.26652e-08 6.41812e-25 1.09369e-07 -5.5197e-24 1.16972e-07)
(1.03066e-07 1.07509e-08 -1.60808e-20 9.07659e-08 -2.12901e-21 9.60502e-08)
(7.86416e-08 8.31477e-09 -1.5338e-20 6.96732e-08 -2.01979e-21 7.32279e-08)
(4.95682e-08 4.84227e-09 8.05129e-24 4.29533e-08 7.90547e-25 4.54741e-08)
(1.99141e-08 5.46893e-11 -9.57551e-25 1.61525e-08 -2.86043e-24 1.67687e-08)
(3.54899e-08 -3.24494e-09 -0 3.01551e-08 -1.52783e-24 3.35057e-08)
(5.71429e-08 -4.94515e-09 -4.61964e-21 6.54894e-08 -6.07672e-22 5.71225e-08)
(8.10709e-08 6.1914e-09 1.35521e-23 7.47071e-08 -1.28739e-23 8.55374e-08)
(2.18515e-07 1.35113e-08 -1.98871e-20 2.67226e-07 -2.59772e-21 2.29976e-07)
(3.29612e-07 3.04535e-08 -1.78571e-20 3.03619e-07 -2.39907e-21 3.42233e-07)
(4.52892e-07 1.97923e-08 1.21588e-22 5.54748e-07 2.69345e-23 4.71875e-07)
(2.61098e-05 -3.83675e-06 -5.42668e-22 2.77433e-05 -8.28638e-23 2.69774e-05)
(2.70788e-05 -3.95104e-06 1.58213e-23 2.88686e-05 -2.6385e-23 2.79339e-05)
(2.45853e-05 -3.5571e-06 -2.38706e-24 2.61812e-05 -1.13701e-23 2.54171e-05)
(2.21016e-05 -3.17262e-06 4.37271e-22 2.3584e-05 7.13169e-23 2.29115e-05)
(1.98544e-05 -2.8244e-06 -4.76343e-23 2.13363e-05 -1.0093e-24 2.0643e-05)
(1.76864e-05 -2.49308e-06 -1.67502e-22 1.91261e-05 -3.40301e-23 1.84521e-05)
(1.56397e-05 -2.17933e-06 -1.07891e-23 1.70461e-05 5.28842e-24 1.63802e-05)
(1.37102e-05 -1.88419e-06 -7.0869e-25 1.50748e-05 2.33179e-24 1.44238e-05)
(1.19112e-05 -1.60897e-06 1.61352e-22 1.32334e-05 2.20616e-23 1.25966e-05)
(1.02474e-05 -1.35363e-06 9.7174e-22 1.15259e-05 1.55054e-22 1.09037e-05)
(8.72283e-06 -1.1175e-06 -0 9.95635e-06 8.51241e-25 9.34913e-06)
(7.34188e-06 -8.99837e-07 5.01935e-22 8.52874e-06 9.09228e-23 7.93743e-06)
(6.11488e-06 -7.00297e-07 -7.19226e-22 7.25337e-06 -1.16415e-22 6.67909e-06)
(5.0543e-06 -5.18323e-07 -5.75275e-22 6.14212e-06 -9.36234e-23 5.58672e-06)
(4.17711e-06 -3.53122e-07 8.82552e-22 5.21154e-06 1.42245e-22 4.67741e-06)
(3.50645e-06 -2.03934e-07 3.55421e-22 4.48457e-06 5.36654e-23 3.9744e-06)
(3.06421e-06 -6.99211e-08 9.55136e-24 3.98287e-06 -1.21881e-23 3.49968e-06)
(2.85564e-06 4.9683e-08 1.2517e-21 3.71149e-06 2.01645e-22 3.25861e-06)
(2.85571e-06 1.55475e-07 9.99926e-22 3.64634e-06 1.6759e-22 3.2263e-06)
(3.00588e-06 2.48297e-07 -5.00629e-22 3.72902e-06 -9.78924e-23 3.34432e-06)
(3.24265e-06 3.28842e-07 -2.80017e-22 3.89697e-06 -4.15964e-23 3.54936e-06)
(3.51503e-06 3.97926e-07 -2.46805e-21 4.09992e-06 -4.08454e-22 3.79047e-06)
(3.78938e-06 4.56383e-07 -2.27137e-24 4.30506e-06 6.9608e-24 4.03411e-06)
(4.04576e-06 5.05154e-07 -6.55786e-22 4.49328e-06 -1.08386e-22 4.26047e-06)
(4.27267e-06 5.45021e-07 -1.18926e-24 4.65361e-06 1.56297e-24 4.4581e-06)
(4.46306e-06 5.76435e-07 -5.51621e-24 4.7796e-06 1.6834e-23 4.61993e-06)
(4.61377e-06 6.00048e-07 3.31821e-24 4.86849e-06 -5.89536e-24 4.74291e-06)
(4.72283e-06 6.16282e-07 -2.71294e-24 4.91899e-06 8.68014e-24 4.82517e-06)
(4.78963e-06 6.25492e-07 2.12161e-23 4.93043e-06 3.62227e-24 4.86623e-06)
(4.81536e-06 6.28183e-07 2.93748e-22 4.90426e-06 5.48871e-23 4.86741e-06)