/*--------------------------------*- C++ -*----------------------------------*\
| =========                 |                                                 |
| \\      /  F ield         | OpenFOAM: The Open Source CFD Toolbox           |
|  \\    /   O peration     | Version:  2506                                  |
|   \\  /    A nd           | Website:  www.openfoam.com                      |
|    \\/     M anipulation  |                                                 |
\*---------------------------------------------------------------------------*/
FoamFile
{
    version     2.0;
    format      ascii;
    arch        "LSB;label=32;scalar=64";
    class       volSymmTensorField;
    location    "50";
    object      turbulenceProperties:devReff;
}
// * * * * * * * * * * * * * * * * * * * * * * * * * * * * * * * * * * * * * //

dimensions      [0 2 -2 0 0 0 0];

internalField   nonuniform List<symmTensor> 
1340
(
(3.69365e-08 5.33229e-08 -1.09103e-19 -7.50558e-08 -1.48011e-20 3.81192e-08)
(-9.99091e-08 7.63229e-08 5.44486e-20 1.47399e-07 6.92458e-21 -4.74897e-08)
(2.9526e-08 -1.31454e-08 -2.13482e-19 -4.33573e-08 -2.85288e-20 1.38313e-08)
(-4.14276e-08 1.87704e-08 -3.32716e-20 6.32646e-08 -4.28106e-21 -2.1837e-08)
(3.49918e-08 5.80914e-08 1.63276e-20 -7.33822e-08 2.03978e-21 3.83904e-08)
(-9.94863e-08 7.70398e-08 -2.21104e-19 1.47594e-07 -2.7875e-20 -4.81077e-08)
(1.925e-08 -1.64314e-08 -0 -2.18877e-08 -3.4894e-23 2.63772e-09)
(3.28849e-09 -2.2656e-08 -7.26051e-20 5.54506e-09 -9.52673e-21 -8.83355e-09)
(2.71135e-08 -9.36062e-09 2.04566e-19 -4.07972e-08 2.7364e-20 1.36837e-08)
(-4.22769e-08 2.10038e-08 1.02783e-19 6.46855e-08 1.33676e-20 -2.24086e-08)
(3.26075e-08 6.2203e-08 1.15907e-23 -7.1688e-08 1.1858e-22 3.90805e-08)
(-9.84664e-08 7.72002e-08 1.83159e-19 1.47795e-07 2.3026e-20 -4.93284e-08)
(1.76919e-08 2.7013e-09 -9.32516e-20 -1.78002e-08 -1.23935e-20 1.08299e-10)
(1.53554e-08 2.42919e-10 2.42134e-21 -1.54093e-08 3.58069e-22 5.38696e-11)
(1.23617e-08 -6.9713e-09 1.29729e-20 -1.01168e-08 1.71743e-21 -2.24486e-09)
(1.81307e-08 -1.5129e-08 -0 -2.08278e-08 -4.79567e-24 2.69714e-09)
(2.57244e-09 -2.17192e-08 -8.37471e-23 6.30031e-09 -1.3383e-23 -8.87276e-09)
(2.43659e-08 -5.70515e-09 3.66894e-22 -3.80028e-08 5.63364e-23 1.36369e-08)
(-4.29046e-08 2.34199e-08 3.1517e-22 6.59057e-08 5.78371e-23 -2.30011e-08)
(3.03346e-08 6.5801e-08 2.73355e-24 -7.01289e-08 3.82751e-24 3.97943e-08)
(-9.79475e-08 7.6489e-08 4.90079e-22 1.48478e-07 8.94581e-23 -5.05303e-08)
(4.61037e-08 4.42038e-09 6.71255e-21 -4.64542e-08 9.18188e-22 3.50506e-10)
(3.90573e-08 8.01477e-09 2.79914e-20 -4.01883e-08 3.75177e-21 1.13108e-09)
(3.34519e-08 1.03475e-08 2.83787e-20 -3.51689e-08 3.7355e-21 1.71691e-09)
(2.79022e-08 7.87168e-09 -9.86627e-20 -2.97199e-08 -1.31497e-20 1.81773e-09)
(2.24663e-08 6.4497e-09 2.55794e-20 -2.37812e-08 3.42781e-21 1.31491e-09)
(1.74273e-08 4.87687e-09 -3.86029e-20 -1.79812e-08 -5.13581e-21 5.53963e-10)
(1.46994e-08 1.44074e-09 3.56896e-23 -1.5237e-08 5.68247e-23 5.37601e-10)
(1.15658e-08 -6.45252e-09 9.31131e-20 -9.78027e-09 1.23435e-20 -1.78557e-09)
(1.66924e-08 -1.43254e-08 -0 -1.95357e-08 -3.43886e-23 2.84334e-09)
(1.50364e-09 -2.0988e-08 5.40239e-21 7.18234e-09 6.43042e-22 -8.68598e-09)
(2.1408e-08 -2.30812e-09 -1.8589e-19 -3.5123e-08 -2.48212e-20 1.37149e-08)
(-4.36201e-08 2.57189e-08 -9.34479e-20 6.70611e-08 -1.21538e-20 -2.3441e-08)
(2.81902e-08 6.89553e-08 -6.08525e-21 -6.8632e-08 -7.49732e-22 4.04419e-08)
(-9.81667e-08 7.49767e-08 2.39914e-20 1.49741e-07 3.02281e-21 -5.15745e-08)
(1.1058e-07 1.84074e-08 5.45341e-20 -1.13702e-07 7.4534e-21 3.12196e-09)
(9.37524e-08 1.88255e-08 -5.03254e-20 -9.57654e-08 -6.82506e-21 2.01302e-09)
(7.92955e-08 1.80303e-08 -1.31373e-20 -8.01688e-08 -1.78927e-21 8.73301e-10)
(6.71062e-08 1.66401e-08 -8.15152e-20 -6.72688e-08 -1.09857e-20 1.62575e-10)
(5.66517e-08 1.47571e-08 -1.85055e-20 -5.62735e-08 -2.47361e-21 -3.78233e-10)
(4.77104e-08 1.21221e-08 1.31223e-20 -4.75855e-08 1.76073e-21 -1.249e-10)
(4.04234e-08 1.47076e-08 6.58419e-21 -4.08279e-08 8.74808e-22 4.04432e-10)
(3.44662e-08 1.60325e-08 1.08256e-23 -3.53615e-08 8.60967e-24 8.95266e-10)
(2.87165e-08 1.25449e-08 1.69338e-20 -2.98516e-08 2.2396e-21 1.13507e-09)
(2.28375e-08 1.01422e-08 -4.5304e-20 -2.3682e-08 -5.9928e-21 8.44533e-10)
(1.75821e-08 7.45228e-09 8.58371e-20 -1.79358e-08 1.13971e-20 3.53712e-10)
(1.45188e-08 2.84126e-09 -5.5493e-20 -1.50769e-08 -7.43872e-21 5.58099e-10)
(1.10056e-08 -5.98454e-09 -8.85405e-20 -9.53092e-09 -1.17081e-20 -1.47465e-09)
(1.51809e-08 -1.37585e-08 -0 -1.81643e-08 3.61716e-23 2.98338e-09)
(2.87096e-10 -2.02983e-08 -5.13617e-21 8.10084e-09 -6.03087e-22 -8.38794e-09)
(1.8301e-08 8.19858e-10 1.76871e-19 -3.21848e-08 2.35867e-20 1.38838e-08)
(-4.45743e-08 2.77271e-08 8.87467e-20 6.82184e-08 1.15248e-20 -2.36441e-08)
(2.58452e-08 7.16304e-08 5.79422e-21 -6.70024e-08 7.1853e-22 4.11572e-08)
(-9.89007e-08 7.27932e-08 -2.27123e-20 1.51449e-07 -2.85513e-21 -5.25481e-08)
(3.01325e-07 7.37136e-08 -5.93188e-21 -3.06962e-07 -7.93097e-22 5.63756e-09)
(2.64301e-07 6.43821e-08 -3.18969e-20 -2.70228e-07 -4.47169e-21 5.92711e-09)
(2.31033e-07 5.6828e-08 -5.64235e-20 -2.36934e-07 -7.99195e-21 5.90154e-09)
(2.01108e-07 5.04238e-08 2.0162e-20 -2.06931e-07 2.7636e-21 5.82292e-09)
(1.74042e-07 4.54252e-08 -5.27255e-21 -1.79535e-07 -7.28128e-22 5.49268e-09)
(1.5033e-07 4.16112e-08 2.59291e-20 -1.55088e-07 3.54861e-21 4.75781e-09)
(1.30079e-07 3.85056e-08 6.67204e-20 -1.3412e-07 9.15646e-21 4.0411e-09)
(1.11604e-07 3.57667e-08 -2.95761e-23 -1.15128e-07 1.37689e-23 3.52435e-09)
(9.46692e-08 3.27402e-08 3.99822e-20 -9.72176e-08 5.43065e-21 2.54841e-09)
(8.01382e-08 2.91572e-08 -3.83368e-21 -8.14704e-08 -5.11813e-22 1.33214e-09)
(6.80501e-08 2.58329e-08 3.90496e-21 -6.84773e-08 5.33578e-22 4.27233e-10)
(5.7407e-08 2.27203e-08 3.58458e-20 -5.68304e-08 4.80369e-21 -5.76659e-10)
(4.85525e-08 1.92517e-08 -1.24911e-20 -4.77799e-08 -1.67888e-21 -7.72569e-10)
(4.14528e-08 2.11614e-08 -6.26366e-21 -4.08043e-08 -8.35791e-22 -6.48501e-10)
(3.549e-08 2.17735e-08 1.05664e-23 -3.51322e-08 4.25052e-24 -3.57767e-10)
(2.96663e-08 1.74924e-08 3.29643e-25 -2.96638e-08 6.50554e-24 -2.52008e-12)
(2.34181e-08 1.4113e-08 -3.91328e-23 -2.33911e-08 -2.50496e-23 -2.69576e-11)
(1.79428e-08 1.03616e-08 -4.68064e-20 -1.77092e-08 -6.17808e-21 -2.33571e-10)
(1.45294e-08 4.63129e-09 5.28307e-20 -1.47175e-08 7.01501e-21 1.88096e-10)
(1.06784e-08 -5.16744e-09 -6.70864e-23 -9.21875e-09 -3.37156e-23 -1.45966e-09)
(1.37849e-08 -1.31079e-08 -0 -1.67203e-08 3.26297e-24 2.93542e-09)
(-1.01425e-09 -1.94931e-08 4.89415e-21 9.06135e-09 5.75169e-22 -8.0471e-09)
(1.50359e-08 3.75855e-09 -1.8055e-19 -2.91362e-08 -2.39931e-20 1.41002e-08)
(-4.58307e-08 2.94508e-08 1.07956e-22 6.9445e-08 8.10409e-23 -2.36143e-08)
(2.31439e-08 7.38093e-08 -1.65384e-20 -6.51586e-08 -2.23727e-21 4.20148e-08)
(-9.99183e-08 6.99736e-08 -6.14544e-23 1.53403e-07 -7.93176e-24 -5.34847e-08)
(9.07719e-07 5.84323e-07 5.56859e-21 -9.13001e-07 1.05004e-21 5.28207e-09)
(8.41215e-07 5.10787e-07 -3.5303e-20 -8.46963e-07 -5.65285e-21 5.7482e-09)
(7.77154e-07 4.51559e-07 -6.87996e-22 -7.82591e-07 -3.31337e-22 5.43725e-09)
(7.15483e-07 3.97799e-07 3.21233e-20 -7.20912e-07 5.14779e-21 5.4298e-09)
(6.56018e-07 3.50513e-07 -3.42163e-20 -6.61235e-07 -5.22612e-21 5.21692e-09)
(5.99035e-07 3.09027e-07 5.96161e-21 -6.04055e-07 8.07261e-22 5.02065e-09)
(5.44945e-07 2.72399e-07 2.43191e-21 -5.49738e-07 3.98793e-22 4.793e-09)
(4.93642e-07 2.39783e-07 -5.72709e-21 -4.98134e-07 -9.42486e-22 4.49209e-09)
(4.44999e-07 2.10161e-07 4.07124e-20 -4.49254e-07 5.91638e-21 4.25564e-09)
(3.99409e-07 1.84178e-07 5.70539e-20 -4.03382e-07 8.45957e-21 3.97339e-09)
(3.58732e-07 1.62942e-07 4.25148e-21 -3.62271e-07 6.9934e-22 3.53833e-09)
(3.2292e-07 1.44341e-07 1.50488e-20 -3.2658e-07 2.20097e-21 3.65977e-09)
(2.87944e-07 1.27437e-07 -1.62731e-20 -2.9263e-07 -2.30404e-21 4.68521e-09)
(2.53432e-07 1.11291e-07 3.61376e-23 -2.58679e-07 -1.06092e-22 5.24643e-09)
(2.22494e-07 9.63165e-08 8.58522e-20 -2.27496e-07 1.208e-20 5.00284e-09)
(1.94629e-07 8.41284e-08 -2.35171e-23 -1.9966e-07 1.18182e-22 5.03052e-09)
(1.69345e-07 7.37575e-08 -4.85444e-20 -1.74274e-07 -6.72641e-21 4.92897e-09)
(1.47111e-07 6.49857e-08 -1.01316e-20 -1.51501e-07 -1.41218e-21 4.39015e-09)
(1.27628e-07 5.8419e-08 -4.60262e-20 -1.31328e-07 -6.31181e-21 3.69939e-09)
(1.10033e-07 5.26816e-08 -1.08353e-20 -1.13091e-07 -1.49986e-21 3.058e-09)
(9.41564e-08 4.63301e-08 -1.62516e-23 -9.63391e-08 8.52592e-25 2.18268e-09)
(8.03176e-08 4.00679e-08 -5.64662e-20 -8.15031e-08 -7.61724e-21 1.18554e-09)
(6.8412e-08 3.46617e-08 -3.69999e-21 -6.88294e-08 -5.00039e-22 4.17395e-10)
(5.73834e-08 2.98895e-08 -1.38777e-20 -5.67882e-08 -1.86503e-21 -5.95258e-10)
(4.84841e-08 2.54536e-08 -5.58273e-24 -4.73988e-08 1.43111e-24 -1.08527e-09)
(4.13686e-08 2.69237e-08 5.95463e-21 -3.99814e-08 7.75966e-22 -1.38726e-09)
(3.55344e-08 2.72252e-08 -4.81934e-20 -3.41098e-08 -6.39717e-21 -1.42461e-09)
(2.98459e-08 2.24675e-08 4.38335e-20 -2.87456e-08 5.85398e-21 -1.10034e-09)
(2.36601e-08 1.83549e-08 4.01712e-20 -2.25843e-08 5.34277e-21 -1.07577e-09)
(1.81554e-08 1.36113e-08 7.33217e-20 -1.71192e-08 9.66752e-21 -1.03621e-09)
(1.43995e-08 6.80737e-09 -8.52017e-20 -1.3993e-08 -1.12982e-20 -4.06484e-10)
(1.02735e-08 -3.94639e-09 -2.52056e-23 -8.61673e-09 2.65262e-23 -1.65675e-09)
(1.23411e-08 -1.21946e-08 -0 -1.50297e-08 -1.38398e-24 2.68853e-09)
(-2.41255e-09 -1.83949e-08 -4.64433e-21 1.01446e-08 -5.87528e-22 -7.73201e-09)
(1.16609e-08 6.64277e-09 4.67883e-20 -2.59389e-08 6.22163e-21 1.4278e-08)
(-4.73466e-08 3.0983e-08 1.95104e-20 7.07635e-08 2.52822e-21 -2.34169e-08)
(2.01701e-08 7.55617e-08 -1.929e-20 -6.31128e-08 -2.61776e-21 4.29427e-08)
(-1.01184e-07 6.64918e-08 2.62036e-24 1.55538e-07 4.58077e-24 -5.43545e-08)
(-2.55216e-06 -6.10075e-06 3.86023e-21 2.63089e-06 5.71368e-22 -7.87364e-08)
(-2.68866e-06 -6.39354e-06 3.7478e-21 2.95117e-06 8.92422e-22 -2.6251e-07)
(-2.39705e-06 -5.45286e-06 -2.0694e-22 2.44826e-06 5.23487e-23 -5.1215e-08)
(-2.23298e-06 -4.57132e-06 8.66379e-22 2.23014e-06 1.30324e-22 2.83957e-09)
(-2.14452e-06 -3.73538e-06 1.09123e-21 2.16611e-06 2.26805e-22 -2.15899e-08)
(-2.02658e-06 -2.96082e-06 4.80218e-22 2.04249e-06 1.27078e-22 -1.59178e-08)
(-1.91925e-06 -2.2372e-06 2.62947e-22 1.94437e-06 1.219e-22 -2.51253e-08)
(-1.80162e-06 -1.56161e-06 -3.71463e-21 1.83216e-06 -7.18609e-22 -3.05395e-08)
(-1.67693e-06 -9.36033e-07 -1.45707e-21 1.71157e-06 -4.39121e-22 -3.46357e-08)
(-1.54544e-06 -3.60655e-07 3.26741e-21 1.58179e-06 6.3145e-22 -3.63488e-08)
(-1.40833e-06 1.63744e-07 -0 1.44473e-06 7.77705e-23 -3.63946e-08)
(-1.26516e-06 6.39226e-07 -1.54104e-22 1.29911e-06 -1.73119e-22 -3.39473e-08)
(-1.11792e-06 1.06599e-06 6.54315e-21 1.14833e-06 1.30614e-21 -3.04119e-08)
(-9.67527e-07 1.44573e-06 1.96085e-22 9.93533e-07 4.57378e-23 -2.60057e-08)
(-8.15525e-07 1.78009e-06 6.67053e-21 8.37012e-07 1.34821e-21 -2.1487e-08)
(-6.63642e-07 2.07115e-06 4.00724e-22 6.81471e-07 1.69695e-22 -1.7829e-08)
(-5.124e-07 2.32057e-06 1.29742e-21 5.27413e-07 2.60877e-22 -1.50127e-08)
(-3.63288e-07 2.52984e-06 4.82492e-21 3.76924e-07 9.85122e-22 -1.36353e-08)
(-2.16968e-07 2.70045e-06 2.32417e-21 2.30414e-07 4.65885e-22 -1.34461e-08)
(-7.43273e-08 2.83342e-06 6.29106e-21 8.85186e-08 1.33865e-21 -1.41913e-08)
(6.35822e-08 2.92985e-06 -5.58946e-21 -4.78488e-08 -1.02276e-21 -1.57335e-08)
(1.95681e-07 2.99102e-06 -8.01804e-21 -1.77859e-07 -1.68192e-21 -1.78224e-08)
(3.21296e-07 3.01842e-06 2.69866e-21 -3.01467e-07 5.15692e-22 -1.98292e-08)
(4.39217e-07 3.01411e-06 -1.9276e-21 -4.17637e-07 -3.20545e-22 -2.15803e-08)
(5.48547e-07 2.98051e-06 -5.54368e-21 -5.25782e-07 -1.05198e-21 -2.27647e-08)
(6.48288e-07 2.92052e-06 -4.75786e-21 -6.25079e-07 -1.01877e-21 -2.32089e-08)
(7.37587e-07 2.83723e-06 9.50108e-21 -7.14665e-07 1.83767e-21 -2.29213e-08)
(8.15558e-07 2.73418e-06 -3.238e-21 -7.93499e-07 -5.9044e-22 -2.20595e-08)
(8.8184e-07 2.61465e-06 1.21116e-21 -8.61165e-07 2.35508e-22 -2.06748e-08)
(9.36172e-07 2.48213e-06 -4.2113e-21 -9.17341e-07 -8.21033e-22 -1.88308e-08)
(9.78356e-07 2.34034e-06 6.6844e-21 -9.6143e-07 1.22965e-21 -1.6926e-08)
(1.00849e-06 2.19285e-06 4.14338e-21 -9.93319e-07 7.79624e-22 -1.51751e-08)
(1.02722e-06 2.04275e-06 4.79929e-21 -1.01364e-06 8.60345e-22 -1.35724e-08)
(1.03521e-06 1.89272e-06 1.18718e-20 -1.02314e-06 2.19648e-21 -1.20768e-08)
(1.03345e-06 1.74556e-06 -9.01524e-21 -1.02282e-06 -1.55149e-21 -1.06257e-08)
(1.02314e-06 1.60257e-06 -5.03606e-21 -1.01423e-06 -9.12821e-22 -8.90936e-09)
(1.00507e-06 1.46539e-06 4.11624e-22 -9.979e-07 7.08132e-23 -7.17353e-09)
(9.7999e-07 1.33564e-06 -5.87267e-21 -9.74115e-07 -1.01174e-21 -5.87536e-09)
(9.4853e-07 1.2132e-06 -2.34742e-21 -9.42975e-07 -3.75442e-22 -5.55541e-09)
(9.13525e-07 1.08564e-06 -9.36299e-21 -9.09832e-07 -1.62111e-21 -3.69303e-09)
(8.77931e-07 9.65463e-07 3.23498e-21 -8.75356e-07 4.90398e-22 -2.57476e-09)
(8.43387e-07 8.72358e-07 4.16446e-21 -8.41187e-07 7.31551e-22 -2.19989e-09)
(8.08195e-07 7.89921e-07 -1.05186e-20 -8.08558e-07 -1.7233e-21 3.62791e-10)
(7.65645e-07 7.19258e-07 8.33989e-21 -7.69889e-07 1.30105e-21 4.24411e-09)
(7.16358e-07 6.51268e-07 1.66793e-22 -7.23178e-07 8.7622e-23 6.81931e-09)
(6.67881e-07 5.77849e-07 -9.48329e-24 -6.74484e-07 3.32704e-23 6.60301e-09)
(6.19991e-07 5.13925e-07 -1.03058e-22 -6.26474e-07 -6.70353e-23 6.48303e-09)
(5.73026e-07 4.56995e-07 8.71837e-21 -5.79213e-07 1.41267e-21 6.18752e-09)
(5.27358e-07 4.06313e-07 -2.93136e-20 -5.33195e-07 -4.44759e-21 5.83727e-09)
(4.83451e-07 3.6092e-07 -6.29756e-24 -4.88936e-07 -5.83078e-23 5.48448e-09)
(4.41276e-07 3.20375e-07 -3.2914e-23 -4.46316e-07 1.36314e-23 5.04015e-09)
(4.00812e-07 2.83722e-07 -1.15634e-20 -4.05292e-07 -1.71848e-21 4.48e-09)
(3.62438e-07 2.49098e-07 -1.38939e-22 -3.66581e-07 -6.18902e-23 4.14303e-09)
(3.27919e-07 2.18833e-07 -1.35261e-21 -3.31281e-07 -2.03984e-22 3.36252e-09)
(2.95754e-07 1.96215e-07 -1.33416e-23 -2.98526e-07 1.21065e-24 2.77128e-09)
(2.6424e-07 1.75638e-07 -6.1987e-21 -2.6695e-07 -8.80493e-22 2.71008e-09)
(2.35135e-07 1.52748e-07 2.03805e-24 -2.37567e-07 3.65826e-23 2.43201e-09)
(2.0876e-07 1.32119e-07 -3.70332e-20 -2.11293e-07 -5.20831e-21 2.53261e-09)
(1.84434e-07 1.15302e-07 -1.15104e-23 -1.87358e-07 -7.5691e-23 2.92401e-09)
(1.62014e-07 1.00479e-07 4.1244e-20 -1.65137e-07 5.71581e-21 3.12319e-09)
(1.41622e-07 8.75885e-08 1.42826e-24 -1.44673e-07 8.03492e-24 3.05108e-09)
(1.22706e-07 7.70429e-08 4.37858e-20 -1.25588e-07 5.99042e-21 2.88125e-09)
(1.06163e-07 6.79989e-08 -2.57215e-21 -1.0846e-07 -3.23009e-22 2.29674e-09)
(9.15366e-08 5.91449e-08 -3.62045e-20 -9.31548e-08 -4.89919e-21 1.61823e-09)
(7.8519e-08 5.06483e-08 4.41696e-23 -7.94916e-08 1.25348e-23 9.72548e-10)
(6.69375e-08 4.33248e-08 1.61657e-23 -6.74154e-08 8.14965e-24 4.77864e-10)
(5.60405e-08 3.67803e-08 1.3203e-20 -5.55696e-08 1.76288e-21 -4.70855e-10)
(4.72071e-08 3.10958e-08 1.13231e-20 -4.62446e-08 1.50809e-21 -9.62564e-10)
(3.99263e-08 3.20023e-08 1.0066e-26 -3.84593e-08 -4.17604e-24 -1.46701e-09)
(3.4188e-08 3.19877e-08 -1.3379e-23 -3.22979e-08 5.19545e-24 -1.89016e-09)
(2.87162e-08 2.69687e-08 1.68924e-23 -2.69623e-08 -1.37206e-23 -1.75384e-09)
(2.28083e-08 2.23955e-08 -3.82395e-20 -2.0978e-08 -5.08907e-21 -1.83025e-09)
(1.7506e-08 1.6892e-08 -5.90194e-20 -1.58288e-08 -7.75508e-21 -1.67724e-09)
(1.36241e-08 9.12907e-09 8.45927e-20 -1.26556e-08 1.12138e-20 -9.68459e-10)
(9.45399e-09 -2.47211e-09 4.05182e-20 -7.53384e-09 5.31193e-21 -1.92015e-09)
(1.06762e-08 -1.10325e-08 -0 -1.29599e-08 -2.07737e-23 2.28368e-09)
(-3.90533e-09 -1.69127e-08 -1.33173e-20 1.14147e-08 -1.70142e-21 -7.50933e-09)
(8.28423e-09 9.62912e-09 1.1911e-19 -2.25688e-08 1.57427e-20 1.42846e-08)
(-4.90109e-08 3.24519e-08 -9.14993e-20 7.21554e-08 -1.19882e-20 -2.31445e-08)
(1.71188e-08 7.70412e-08 4.95199e-21 -6.0945e-08 7.28349e-22 4.38262e-08)
(-1.02655e-07 6.2342e-08 2.68283e-24 1.57775e-07 -1.40822e-24 -5.51194e-08)
(-2.44104e-06 -7.19218e-06 -2.61733e-22 2.63062e-06 -6.38247e-23 -1.89575e-07)
(-2.58671e-06 -7.49714e-06 4.91355e-22 2.94752e-06 6.89934e-23 -3.60808e-07)
(-2.3612e-06 -6.59709e-06 -5.65994e-22 2.56231e-06 -8.73521e-23 -2.01109e-07)
(-2.19236e-06 -5.72403e-06 -2.02356e-22 2.3015e-06 -5.34058e-23 -1.0914e-07)
(-2.11297e-06 -4.91392e-06 6.29316e-24 2.21941e-06 -1.27573e-23 -1.06445e-07)
(-2.0072e-06 -4.15626e-06 2.83622e-24 2.08524e-06 7.17364e-23 -7.80325e-08)
(-1.9165e-06 -3.44363e-06 -3.87126e-21 1.98525e-06 -7.47196e-22 -6.87563e-08)
(-1.82103e-06 -2.77331e-06 1.54899e-21 1.88101e-06 2.21266e-22 -5.99844e-08)
(-1.72479e-06 -2.14705e-06 1.44592e-22 1.77977e-06 1.08198e-22 -5.49775e-08)
(-1.62651e-06 -1.56549e-06 -2.43016e-21 1.67834e-06 -4.53598e-22 -5.18271e-08)
(-1.52491e-06 -1.02871e-06 -0 1.57393e-06 2.31989e-23 -4.90207e-08)
(-1.41871e-06 -5.35653e-07 -4.56521e-21 1.46391e-06 -8.29912e-22 -4.51983e-08)
(-1.30796e-06 -8.61279e-08 -1.84254e-21 1.34799e-06 -4.43334e-22 -4.00281e-08)
(-1.19298e-06 3.20695e-07 6.21224e-25 1.22643e-06 1.39134e-23 -3.34482e-08)
(-1.07442e-06 6.85983e-07 -4.62686e-21 1.10005e-06 -9.26536e-22 -2.56252e-08)
(-9.53472e-07 1.01108e-06 4.19264e-21 9.70779e-07 7.20173e-22 -1.73072e-08)
(-8.30868e-07 1.2979e-06 4.5105e-21 8.3966e-07 9.08726e-22 -8.79187e-09)
(-7.08022e-07 1.54819e-06 -3.43635e-21 7.08889e-07 -6.19346e-22 -8.66662e-10)
(-5.86033e-07 1.76383e-06 -2.79096e-21 5.80136e-07 -5.37727e-22 5.89646e-09)
(-4.65365e-07 1.94621e-06 -1.41167e-21 4.53806e-07 -3.17416e-22 1.15591e-08)
(-3.47207e-07 2.09641e-06 -7.72074e-22 3.31658e-07 -1.51091e-22 1.55491e-08)
(-2.32289e-07 2.2157e-06 7.00218e-21 2.14352e-07 1.33856e-21 1.79361e-08)
(-1.21188e-07 2.30525e-06 -3.3443e-24 1.02292e-07 2.42105e-23 1.8896e-08)
(-1.45341e-08 2.36634e-06 3.05074e-21 -4.26912e-09 5.7469e-22 1.88032e-08)
(8.67991e-08 2.40062e-06 3.56504e-21 -1.0449e-07 7.0702e-22 1.76905e-08)
(1.82279e-07 2.40966e-06 4.60528e-22 -1.98388e-07 1.11653e-22 1.61097e-08)
(2.71184e-07 2.39546e-06 -2.89955e-21 -2.85412e-07 -5.72091e-22 1.42276e-08)
(3.52813e-07 2.36e-06 -1.51444e-21 -3.65125e-07 -2.71023e-22 1.23122e-08)
(4.26596e-07 2.30549e-06 -2.47679e-24 -4.37017e-07 -5.94674e-24 1.04216e-08)
(4.92096e-07 2.23431e-06 8.62362e-22 -5.0093e-07 1.75886e-22 8.83366e-09)
(5.48918e-07 2.1493e-06 -1.6569e-23 -5.56355e-07 -1.58476e-23 7.43699e-09)
(5.96544e-07 2.05346e-06 5.78092e-21 -6.02617e-07 1.00706e-21 6.07259e-09)
(6.3515e-07 1.94957e-06 -1.42036e-23 -6.39937e-07 -1.15347e-23 4.78768e-09)
(6.64983e-07 1.84012e-06 -3.4487e-23 -6.68876e-07 -6.15735e-23 3.89296e-09)
(6.86257e-07 1.72769e-06 1.01796e-20 -6.89366e-07 1.79634e-21 3.10955e-09)
(6.9966e-07 1.61386e-06 3.10742e-21 -7.02457e-07 5.62247e-22 2.79701e-09)
(7.0614e-07 1.50016e-06 -5.63007e-21 -7.0923e-07 -9.61505e-22 3.09018e-09)
(7.06129e-07 1.388e-06 3.70455e-21 -7.09667e-07 6.39532e-22 3.53737e-09)
(6.9966e-07 1.27871e-06 1.22064e-23 -7.02224e-07 2.24456e-23 2.56401e-09)
(6.88512e-07 1.16491e-06 -4.32229e-21 -6.90128e-07 -7.06437e-22 1.61594e-09)
(6.72553e-07 1.04641e-06 -3.89734e-21 -6.75718e-07 -6.49845e-22 3.16522e-09)
(6.53284e-07 9.50541e-07 3.49527e-21 -6.57118e-07 5.48055e-22 3.83453e-09)
(6.27726e-07 8.89306e-07 5.7476e-21 -6.32108e-07 9.53352e-22 4.38207e-09)
(5.95058e-07 8.24716e-07 2.93705e-21 -6.01314e-07 4.15707e-22 6.25562e-09)
(5.66398e-07 7.4144e-07 2.41733e-20 -5.71467e-07 3.84799e-21 5.06865e-09)
(5.36899e-07 6.64005e-07 -8.37508e-24 -5.41628e-07 5.33975e-23 4.72878e-09)
(5.06494e-07 5.96907e-07 -4.96002e-23 -5.11622e-07 -3.01604e-23 5.12813e-09)
(4.74895e-07 5.35718e-07 -8.35629e-21 -4.80034e-07 -1.30766e-21 5.13885e-09)
(4.42746e-07 4.80156e-07 1.85122e-20 -4.47571e-07 2.81303e-21 4.82595e-09)
(4.1083e-07 4.29569e-07 3.0466e-22 -4.1536e-07 1.15244e-22 4.52919e-09)
(3.79394e-07 3.83732e-07 -2.23083e-20 -3.83521e-07 -3.30812e-21 4.12714e-09)
(3.48567e-07 3.41736e-07 1.60517e-22 -3.51954e-07 2.49653e-23 3.38644e-09)
(3.1899e-07 3.01751e-07 -2.59774e-20 -3.21654e-07 -3.80347e-21 2.66378e-09)
(2.9038e-07 2.66774e-07 1.27837e-21 -2.92411e-07 1.32513e-22 2.03116e-09)
(2.61469e-07 2.38635e-07 8.42707e-21 -2.62966e-07 1.20637e-21 1.4978e-09)
(2.35456e-07 2.12687e-07 -4.87188e-21 -2.35606e-07 -6.57054e-22 1.49311e-10)
(2.1205e-07 1.86688e-07 -1.43146e-20 -2.11489e-07 -2.0133e-21 -5.61578e-10)
(1.90343e-07 1.63326e-07 4.75476e-23 -1.90211e-07 -2.83358e-24 -1.31732e-10)
(1.69776e-07 1.43358e-07 -1.06832e-23 -1.70258e-07 -4.75711e-24 4.82245e-10)
(1.50404e-07 1.25112e-07 -5.0895e-23 -1.51258e-07 -1.48623e-23 8.53671e-10)
(1.323e-07 1.08966e-07 8.86843e-25 -1.33428e-07 2.09765e-23 1.12785e-09)
(1.15161e-07 9.50995e-08 -4.17005e-20 -1.16535e-07 -5.70363e-21 1.37451e-09)
(9.99105e-08 8.28829e-08 1.46635e-20 -1.01246e-07 1.95297e-21 1.33512e-09)
(8.63518e-08 7.15578e-08 3.44779e-20 -8.75625e-08 4.66152e-21 1.21064e-09)
(7.4087e-08 6.09884e-08 5.11961e-20 -7.51235e-08 6.9098e-21 1.03654e-09)
(6.29724e-08 5.17139e-08 1.70756e-23 -6.38216e-08 1.8184e-23 8.49188e-10)
(5.25598e-08 4.33938e-08 -3.09426e-20 -5.25734e-08 -4.13765e-21 1.36022e-11)
(4.39984e-08 3.64249e-08 -1.0784e-20 -4.37527e-08 -1.44094e-21 -2.45766e-10)
(3.67588e-08 3.64347e-08 -1.99428e-20 -3.58855e-08 -2.63981e-21 -8.73286e-10)
(3.11857e-08 3.59031e-08 3.11109e-20 -2.95569e-08 4.13217e-21 -1.62882e-09)
(2.60685e-08 3.06903e-08 -9.68848e-21 -2.43729e-08 -1.27888e-21 -1.69554e-09)
(2.0556e-08 2.58364e-08 3.72658e-20 -1.85587e-08 4.96739e-21 -1.99732e-09)
(1.56292e-08 1.97927e-08 1.02102e-19 -1.37299e-08 1.34869e-20 -1.89926e-09)
(1.19524e-08 1.12473e-08 4.62168e-20 -1.06263e-08 6.05218e-21 -1.32609e-09)
(8.05602e-09 -9.94572e-10 2.15702e-23 -5.92085e-09 -2.04696e-23 -2.13516e-09)
(8.72871e-09 -9.72282e-09 -0 -1.04854e-08 7.75773e-24 1.75665e-09)
(-5.50815e-09 -1.50569e-08 1.26708e-20 1.29084e-08 1.67006e-21 -7.4003e-09)
(4.96054e-09 1.28339e-08 9.68194e-23 -1.89695e-08 5.33565e-23 1.40089e-08)
(-5.08405e-08 3.39706e-08 8.70411e-20 7.37203e-08 1.13688e-20 -2.28798e-08)
(1.42207e-08 7.8446e-08 4.93074e-20 -5.87222e-08 6.62511e-21 4.45015e-08)
(-1.04424e-07 5.75355e-08 2.77427e-24 1.60126e-07 -1.22557e-23 -5.57015e-08)
(-2.15272e-06 -8.06152e-06 1.30281e-21 2.21226e-06 1.81075e-22 -5.95324e-08)
(-2.30764e-06 -8.35132e-06 1.407e-21 2.54884e-06 2.23256e-22 -2.41206e-07)
(-2.14016e-06 -7.47668e-06 -7.47809e-23 2.26835e-06 2.84035e-23 -1.2819e-07)
(-2.00934e-06 -6.60857e-06 -1.0458e-21 2.06325e-06 -1.6915e-22 -5.39137e-08)
(-1.96585e-06 -5.81432e-06 1.29867e-22 2.03259e-06 -8.01866e-24 -6.6732e-08)
(-1.88616e-06 -5.06256e-06 4.15489e-22 1.93157e-06 5.05364e-23 -4.5413e-08)
(-1.8171e-06 -4.35262e-06 -2.22866e-23 1.85587e-06 2.61124e-23 -3.87637e-08)
(-1.74324e-06 -3.68343e-06 -3.02465e-24 1.77468e-06 9.67615e-24 -3.14391e-08)
(-1.67078e-06 -3.05554e-06 -6.65118e-24 1.6997e-06 2.23072e-24 -2.89152e-08)
(-1.59927e-06 -2.47011e-06 -7.53829e-24 1.62964e-06 1.32515e-23 -3.03741e-08)
(-1.52662e-06 -1.92561e-06 -0 1.56029e-06 -5.67041e-24 -3.36746e-08)
(-1.45151e-06 -1.42152e-06 -1.71378e-23 1.48892e-06 3.20747e-23 -3.74123e-08)
(-1.37344e-06 -9.57682e-07 1.88589e-23 1.41425e-06 -1.01248e-23 -4.081e-08)
(-1.29151e-06 -5.33339e-07 8.66377e-25 1.33424e-06 -1.89339e-23 -4.27248e-08)
(-1.20554e-06 -1.47691e-07 1.09348e-21 1.24821e-06 2.1526e-22 -4.26665e-08)
(-1.11556e-06 2.00506e-07 -8.97801e-22 1.15595e-06 -1.61619e-22 -4.03822e-08)
(-1.02211e-06 5.12477e-07 1.8552e-23 1.0582e-06 -4.80559e-23 -3.60904e-08)
(-9.25586e-07 7.89844e-07 -6.12039e-24 9.55388e-07 -3.89268e-24 -2.98021e-08)
(-8.2746e-07 1.03363e-06 -9.14113e-24 8.50103e-07 2.75739e-23 -2.26432e-08)
(-7.28045e-07 1.24569e-06 1.36901e-21 7.42575e-07 2.13172e-22 -1.45305e-08)
(-6.28752e-07 1.42716e-06 7.20902e-22 6.35155e-07 1.67497e-22 -6.40235e-09)
(-5.30436e-07 1.57981e-06 1.16214e-23 5.29088e-07 -2.61669e-23 1.3481e-09)
(-4.33874e-07 1.70483e-06 -3.20028e-24 4.25651e-07 2.83486e-24 8.22337e-09)
(-3.39787e-07 1.80377e-06 1.10473e-24 3.25753e-07 -5.60249e-24 1.40337e-08)
(-2.48772e-07 1.87817e-06 -2.93289e-24 2.30076e-07 -1.31766e-26 1.86957e-08)
(-1.61591e-07 1.92938e-06 -4.34739e-21 1.39533e-07 -7.47502e-22 2.20582e-08)
(-7.86819e-08 1.95887e-06 5.56793e-22 5.43848e-08 8.22207e-23 2.42972e-08)
(-6.86898e-10 1.968e-06 -4.2083e-25 -2.47501e-08 2.39674e-23 2.5437e-08)
(7.20106e-08 1.95834e-06 -5.89245e-23 -9.76941e-08 -1.31949e-23 2.56835e-08)
(1.39052e-07 1.93157e-06 -8.0956e-22 -1.64364e-07 -1.25426e-22 2.53116e-08)
(2.00043e-07 1.88978e-06 -3.6156e-24 -2.24458e-07 -1.15972e-23 2.44153e-08)
(2.54496e-07 1.83527e-06 -1.34562e-23 -2.7749e-07 -5.48386e-23 2.29943e-08)
(3.02162e-07 1.77032e-06 3.20943e-21 -3.23214e-07 5.21648e-22 2.10521e-08)
(3.43046e-07 1.697e-06 -1.21878e-23 -3.61912e-07 -4.52225e-23 1.8866e-08)
(3.77484e-07 1.61722e-06 -5.08016e-24 -3.94225e-07 -1.46541e-23 1.67414e-08)
(4.06071e-07 1.53238e-06 -2.93758e-21 -4.21261e-07 -4.9114e-22 1.51898e-08)
(4.29413e-07 1.44336e-06 5.36097e-21 -4.43826e-07 9.08162e-22 1.44131e-08)
(4.47854e-07 1.35093e-06 -3.49e-21 -4.62032e-07 -5.65517e-22 1.41773e-08)
(4.60501e-07 1.25729e-06 6.52084e-24 -4.73196e-07 1.23301e-23 1.26957e-08)
(4.67287e-07 1.16055e-06 4.12516e-21 -4.77297e-07 6.79626e-22 1.00101e-08)
(4.68254e-07 1.06261e-06 3.69832e-21 -4.77539e-07 6.02383e-22 9.28529e-09)
(4.60501e-07 9.85512e-07 -8.68135e-24 -4.69884e-07 -1.15506e-23 9.38333e-09)
(4.45688e-07 9.26518e-07 6.36904e-24 -4.54634e-07 1.75185e-23 8.94601e-09)
(4.34193e-07 8.56424e-07 -2.83977e-21 -4.40379e-07 -4.5521e-22 6.18558e-09)
(4.22416e-07 7.77601e-07 -1.23023e-20 -4.26183e-07 -1.90416e-21 3.7671e-09)
(4.08266e-07 7.07258e-07 -6.35691e-24 -4.11713e-07 -5.43928e-24 3.44694e-09)
(3.91994e-07 6.43867e-07 -3.82966e-23 -3.95583e-07 -5.10685e-23 3.58861e-09)
(3.73212e-07 5.84092e-07 4.62523e-23 -3.76305e-07 3.69252e-23 3.09286e-09)
(3.53011e-07 5.28478e-07 -4.69331e-21 -3.55541e-07 -6.89622e-22 2.52986e-09)
(3.32141e-07 4.76693e-07 -2.95916e-22 -3.34323e-07 -5.65615e-23 2.18203e-09)
(3.10868e-07 4.28657e-07 5.13666e-23 -3.12716e-07 2.12273e-23 1.84813e-09)
(2.89278e-07 3.83794e-07 1.01892e-20 -2.90376e-07 1.47635e-21 1.09744e-09)
(2.67722e-07 3.4122e-07 -3.75105e-21 -2.67947e-07 -5.30457e-22 2.25209e-10)
(2.4566e-07 3.0418e-07 -1.95658e-24 -2.45223e-07 4.82519e-24 -4.36422e-10)
(2.23134e-07 2.7247e-07 -8.0446e-21 -2.22008e-07 -1.1666e-21 -1.12597e-09)
(2.02685e-07 2.42443e-07 1.03247e-20 -2.00476e-07 1.44307e-21 -2.20904e-09)
(1.84045e-07 2.14297e-07 1.36719e-20 -1.81605e-07 1.91082e-21 -2.43976e-09)
(1.66474e-07 1.89146e-07 3.66858e-20 -1.64722e-07 5.11585e-21 -1.75137e-09)
(1.49495e-07 1.66797e-07 2.92007e-24 -1.4836e-07 4.9748e-23 -1.13561e-09)
(1.33234e-07 1.46077e-07 -3.27531e-20 -1.32507e-07 -4.51004e-21 -7.26226e-10)
(1.17716e-07 1.27638e-07 8.70533e-21 -1.17515e-07 1.16379e-21 -2.01006e-10)
(1.02982e-07 1.11327e-07 3.99721e-23 -1.03372e-07 2.5843e-23 3.89872e-10)
(8.96489e-08 9.6645e-08 -1.86477e-20 -9.05467e-08 -2.51946e-21 8.97812e-10)
(7.75216e-08 8.31257e-08 -4.78425e-20 -7.8872e-08 -6.4426e-21 1.35042e-09)
(6.63536e-08 7.04929e-08 -4.36908e-20 -6.79431e-08 -5.86983e-21 1.58946e-09)
(5.62044e-08 5.93064e-08 2.4222e-20 -5.78833e-08 3.23812e-21 1.67894e-09)
(4.65816e-08 4.93763e-08 -1.86109e-21 -4.76379e-08 -2.43128e-22 1.05629e-09)
(3.86636e-08 4.11144e-08 1.02638e-20 -3.96557e-08 1.36088e-21 9.92115e-10)
(3.18052e-08 4.00078e-08 -2.86847e-21 -3.20986e-08 -3.79561e-22 2.93393e-10)
(2.66049e-08 3.88399e-08 7.87674e-24 -2.58975e-08 2.2603e-24 -7.07319e-10)
(2.19818e-08 3.33775e-08 1.69141e-24 -2.10096e-08 -1.45465e-23 -9.7226e-10)
(1.69641e-08 2.83255e-08 -4.23683e-20 -1.54434e-08 -5.60931e-21 -1.52074e-09)
(1.26246e-08 2.18963e-08 -4.03915e-20 -1.09928e-08 -5.31896e-21 -1.63178e-09)
(9.39258e-09 1.2741e-08 2.11845e-23 -8.01269e-09 2.08009e-24 -1.37989e-09)
(6.05183e-09 1.43756e-10 -2.51702e-24 -3.83576e-09 -7.51893e-24 -2.21608e-09)
(6.41023e-09 -8.52598e-09 -0 -7.60687e-09 -4.01433e-24 1.19665e-09)
(-7.29787e-09 -1.30032e-08 -1.21473e-20 1.46493e-08 -1.59786e-21 -7.35144e-09)
(1.66493e-09 1.63e-08 3.56784e-23 -1.50887e-08 -3.38929e-23 1.34238e-08)
(-5.27604e-08 3.55421e-08 -5.23138e-20 7.53746e-08 -6.83339e-21 -2.26142e-08)
(1.17129e-08 8.00275e-08 -4.69259e-20 -5.65931e-08 -6.30441e-21 4.48802e-08)
(-1.06292e-07 5.22295e-08 3.20856e-22 1.62492e-07 7.10769e-23 -5.61997e-08)
(-1.88172e-06 -8.66007e-06 -1.22488e-21 1.80529e-06 -1.87035e-22 7.64273e-08)
(-2.00135e-06 -8.96946e-06 3.59167e-23 2.06165e-06 -5.98981e-23 -6.02979e-08)
(-1.85722e-06 -8.16423e-06 -5.47876e-24 1.80546e-06 -2.60967e-23 5.17603e-08)
(-1.76915e-06 -7.3454e-06 1.01239e-21 1.6631e-06 1.65116e-22 1.0605e-07)
(-1.76461e-06 -6.58523e-06 -1.11062e-22 1.69056e-06 -2.35323e-24 7.40552e-08)
(-1.72581e-06 -5.85268e-06 -3.93222e-22 1.65403e-06 -7.9888e-23 7.17738e-08)
(-1.69247e-06 -5.15395e-06 -2.55154e-23 1.63361e-06 1.25067e-23 5.88595e-08)
(-1.65084e-06 -4.49043e-06 -1.68896e-24 1.60117e-06 5.55716e-24 4.96729e-08)
(-1.60706e-06 -3.86394e-06 3.87488e-22 1.56818e-06 5.2981e-23 3.88747e-08)
(-1.56045e-06 -3.2752e-06 2.35118e-21 1.533e-06 3.75162e-22 2.74562e-08)
(-1.51112e-06 -2.72394e-06 -0 1.49562e-06 2.07492e-24 1.55053e-08)
(-1.45881e-06 -2.20941e-06 1.23243e-21 1.45534e-06 2.23247e-22 3.4717e-09)
(-1.4035e-06 -1.73172e-06 -1.77853e-21 1.41179e-06 -2.87875e-22 -8.29146e-09)
(-1.34471e-06 -1.29054e-06 -1.43234e-21 1.36378e-06 -2.33107e-22 -1.90765e-08)
(-1.28212e-06 -8.85002e-07 2.21187e-21 1.31038e-06 3.56497e-22 -2.82546e-08)
(-1.21564e-06 -5.14311e-07 8.96353e-22 1.25113e-06 1.35341e-22 -3.54922e-08)
(-1.14514e-06 -1.77388e-07 2.42316e-23 1.18549e-06 -3.0921e-23 -4.03519e-08)
(-1.07052e-06 1.26752e-07 3.19338e-21 1.11296e-06 5.14441e-22 -4.24435e-08)
(-9.92663e-07 3.98722e-07 2.56435e-21 1.03493e-06 4.29792e-22 -4.22668e-08)
(-9.11794e-07 6.39784e-07 -1.28996e-21 9.51524e-07 -2.52238e-22 -3.97292e-08)
(-8.28802e-07 8.50799e-07 -7.24476e-22 8.64083e-07 -1.07621e-22 -3.52808e-08)
(-7.44494e-07 1.03305e-06 -6.4073e-21 7.73921e-07 -1.06038e-21 -2.94272e-08)