/*--------------------------------*- C++ -*----------------------------------*\
| =========                 |                                                 |
| \\      /  F ield         | OpenFOAM: The Open Source CFD Toolbox           |
|  \\    /   O peration     | Version:  2506                                  |
|   \\  /    A nd           | Website:  www.openfoam.com                      |
|    \\/     M anipulation  |                                                 |
\*---------------------------------------------------------------------------*/
FoamFile
{
    version     2.0;
    format      ascii;
    arch        "LSB;label=32;scalar=64";
    class       volScalarField;
    location    "50";
    object      div(phi);
}
// * * * * * * * * * * * * * * * * * * * * * * * * * * * * * * * * * * * * * //

dimensions      [0 0 -1 0 0 0 0];

internalField   nonuniform List<scalar> 
1340
(
7.1207e-06
4.01683e-05
-2.21371e-06
7.195e-06
2.29172e-06
1.42038e-06
1.69778e-05
-1.01937e-05
1.51373e-06
-2.14989e-06
5.99074e-06
2.26258e-05
9.69308e-06
6.92962e-06
3.88574e-06
3.24951e-06
1.07712e-06
6.91064e-07
5.89524e-06
4.06435e-06
4.14856e-06
1.62295e-05
1.5982e-05
8.35521e-06
1.05064e-05
5.86396e-06
6.77052e-06
3.93794e-06
4.9967e-06
1.53536e-06
6.88427e-07
3.35802e-06
-3.16784e-07
8.30715e-06
1.89385e-05
-4.32502e-05
5.17498e-06
-1.59551e-06
5.12292e-06
7.95096e-07
1.18651e-05
1.18791e-05
3.21944e-06
1.46678e-06
8.63692e-06
4.91607e-06
4.31852e-06
8.33306e-07
3.47372e-06
3.2087e-06
1.54059e-06
7.78263e-06
5.59765e-06
4.58928e-06
2.88965e-05
-7.19265e-06
4.36236e-05
2.2641e-05
2.01267e-05
2.4874e-05
-1.01532e-05
-7.36762e-06
-9.11515e-06
-4.48683e-07
-1.29176e-05
9.21318e-06
1.01796e-05
6.49581e-06
2.17351e-06
5.01764e-06
2.31664e-06
6.34741e-06
3.96154e-06
5.67605e-06
1.88445e-06
1.65949e-06
5.83012e-06
1.42208e-06
9.44437e-06
1.42813e-05
-0.000168584
0.000110745
-2.20506e-05
8.41997e-05
-2.07765e-05
7.04769e-05
-1.39544e-05
5.93155e-05
-1.63017e-05
5.12292e-05
-1.61109e-05
5.43245e-05
-1.72022e-05
4.52161e-05
-1.13819e-05
4.11054e-05
-8.56735e-06
1.63056e-05
-1.02764e-05
-6.18473e-06
-3.25882e-06
-1.43665e-05
1.41132e-06
-4.13527e-06
1.68115e-05
5.82842e-06
3.28026e-06
-3.48624e-06
8.13522e-06
4.85871e-06
5.01628e-06
5.57502e-07
4.12375e-06
5.89697e-06
2.6944e-06
8.6887e-06
6.45391e-06
4.00008e-06
-0.0284331
-0.0139206
-0.0101466
-0.00968206
-0.00596824
-0.00659281
-0.00314882
-0.004457
-0.00145608
-0.00301942
-0.000444645
-0.00203782
0.00015734
-0.00135646
0.000475213
-0.000872775
0.000675495
-0.000515086
0.000758999
-0.000247404
0.000816984
-4.09221e-05
0.000815687
0.000115315
0.000806387
0.000234092
0.00076059
0.000317592
0.000704639
0.000366874
0.000628167
0.000367979
0.000543425
0.000347816
0.000430698
0.000322516
0.000345756
0.000290873
0.000250144
0.000261496
0.00018232
0.00022681
0.000136204
0.00017885
9.56399e-05
0.000140475
6.06705e-05
0.000110336
4.0652e-05
8.51896e-05
2.90437e-05
6.43181e-05
2.08714e-05
4.66504e-05
1.80966e-05
3.42939e-05
1.37002e-05
2.44857e-05
1.3145e-05
1.54721e-05
4.06484e-06
-1.51406e-07
-1.16892e-06
-5.58677e-06
-1.99217e-06
-1.80676e-05
1.93176e-05
-1.32249e-06
1.28257e-05
-9.49918e-06
9.0343e-06
-7.69098e-07
5.61783e-06
3.13363e-06
6.25918e-06
3.08635e-06
2.683e-06
7.79531e-06
3.0794e-06
8.71622e-06
1.03946e-05
-0.00386966
-0.00720344
-0.00732002
-0.00705937
-0.00647338
-0.00574059
-0.00446469
-0.00409688
-0.0027538
-0.00271775
-0.00141517
-0.00168849
-0.000569656
-0.000995547
-6.78315e-05
-0.000539955
0.000210314
-0.000251011
0.000325705
-6.92576e-05
0.000378703
4.18588e-05
0.000364629
0.000110265
0.000350693
0.000151282
0.000310495
0.000177836
0.000287003
0.000187856
0.000255818
0.000201187
0.000228372
0.000213244
0.000218487
0.000203491
0.000167214
0.000189295
0.000128934
0.000170212
0.000102896
0.000153244
8.18989e-05
0.000140769
7.71707e-05
0.000129178
7.13559e-05
0.000109747
6.02353e-05
8.94761e-05
4.80842e-05
6.74816e-05
3.71225e-05
4.97911e-05
2.84154e-05
3.40789e-05
2.195e-05
2.28022e-05
1.64439e-05
1.41266e-05
9.83843e-06
3.9751e-06
2.98492e-06
1.43274e-06
-1.62925e-05
1.31461e-05
-1.04682e-05
2.23308e-05
-1.20913e-05
1.21308e-05
-8.38622e-06
1.04148e-05
4.56885e-06
5.43492e-06
2.30752e-07
4.43995e-06
7.41467e-06
3.8943e-06
9.04271e-06
6.45052e-06
3.488e-06
-0.00816797
-0.00329357
-0.0044712
-0.00419198
-0.0049995
-0.00354603
-0.00419864
-0.00252512
-0.00305709
-0.00163719
-0.00217019
-0.00101547
-0.00152873
-0.00060564
-0.00109352
-0.000334087
-0.000797103
-0.000151927
-0.000581103
-1.83764e-05
-0.000429954
7.67247e-05
-0.000312636
0.000151031
-0.000224353
0.000201939
-0.000166447
0.000239645
-0.000108243
0.000258341
-8.51341e-05
0.000246644
-3.41487e-05
0.000204513
-6.19747e-05
0.000164895
-5.6656e-05
0.000142563
-4.31306e-05
0.000136119
-3.45187e-05
0.000140284
2.01728e-06
0.000138953
2.31306e-05
0.000126904
3.27326e-05
0.000107955
3.55687e-05
8.69372e-05
3.38275e-05
6.68409e-05
2.96688e-05
4.84756e-05
2.48573e-05
3.33209e-05
2.01117e-05
2.18569e-05
1.58774e-05
1.39365e-05
1.20555e-05
7.5077e-06
7.6705e-06
-1.39025e-06
7.88812e-06
-6.11081e-06
1.86306e-05
-2.11658e-06
1.62162e-05
-1.04785e-05
1.64783e-05
1.10655e-06
6.29795e-06
-1.67069e-06
5.59318e-06
3.86728e-06
4.04807e-06
8.96004e-06
4.07419e-06
7.49426e-06
6.90245e-06
0.0140278
0.00643178
0.00639531
0.00744218
0.00608307
0.00657592
0.00474145
0.00525391
0.00305736
0.00403138
0.0018931
0.00313057
0.0010545
0.00248599
0.000576509
0.00203443
0.000274951
0.00169948
0.000113419
0.0014363
1.0192e-05
0.00122152
-4.25904e-05
0.00103829
-7.63742e-05
0.000884644
-9.15779e-05
0.000751042
-9.68937e-05
0.000639988
-0.000100074
0.000536311
-8.94833e-05
0.000445832
-9.51598e-05
0.000355286
-7.35505e-05
0.000281474
-8.79125e-05
0.00022833
-5.49064e-05
0.000193601
-3.61799e-05
0.000169768
-1.13655e-05
0.000144578
5.55697e-06
0.000115879
1.1553e-05
8.75763e-05
1.43794e-05
6.26656e-05
1.52122e-05
4.44748e-05
1.65264e-05
3.17293e-05
1.73098e-05
2.26303e-05
1.65955e-05
1.62493e-05
1.47602e-05
1.19298e-05
1.15182e-05
9.43326e-06
5.2676e-06
1.33778e-05
6.91662e-06
1.16124e-05
-5.82992e-06
2.00352e-05
-4.00543e-06
1.19129e-05
-2.92467e-06
6.38758e-06
-1.77658e-06
4.59848e-06
6.42047e-06
4.48689e-06
8.49537e-06
5.92336e-06
2.8395e-06
0.0110559
0.0108134
0.00851499
0.0102493
0.00708939
0.00868996
0.00480537
0.00689723
0.00302582
0.0053869
0.00161086
0.00419776
0.000740973
0.00332442
0.00016539
0.00267375
-0.000143441
0.00219511
-0.000313988
0.00183289
-0.000385311
0.00155686
-0.00038842
0.0013373
-0.000375167
0.00115423
-0.000328079
0.000997795
-0.000301573
0.000858609
-0.000248523
0.000734955
-0.000224826
0.000610543
-0.000176551
0.000495916
-0.000184552
0.000399849
-0.000130299
0.000328108
-0.000111396
0.000273769
-6.9745e-05
0.000225676
-4.13048e-05
0.000174328
-3.49024e-05
0.000127431
-2.36622e-05
8.95614e-05
-1.53182e-05
6.41668e-05
-1.68079e-06
4.7988e-05
1.04372e-05
3.51588e-05
1.76059e-05
2.39946e-05
1.9858e-05
1.50954e-05
1.9317e-05
9.52385e-06
1.72718e-05
7.3226e-06
1.55858e-05
8.68544e-06
1.11269e-05
1.53463e-06
2.12039e-05
-5.51022e-06
1.72336e-05
-4.35487e-06
8.28742e-06
-5.60545e-06
5.46352e-06
2.61786e-06
3.64877e-06
7.80681e-06
3.95935e-06
5.50764e-06
4.24457e-06
0.0247402
0.0102897
0.00762932
0.00898462
0.00536965
0.00775874
0.00351127
0.00675486
0.00239925
0.00598128
0.00155335
0.00531278
0.00103807
0.00473309
0.000600216
0.00419143
0.000318422
0.00370344
7.55745e-05
0.00324823
-8.24166e-05
0.00284231
-0.000197746
0.00246984
-0.000272533
0.00214058
-0.000304552
0.00184261
-0.000330287
0.00158192
-0.000309535
0.00134668
-0.000307219
0.00113697
-0.000271168
0.000945657
-0.000265169
0.000777974
-0.000227665
0.000632912
-0.000215543
0.000503357
-0.000171409
0.000387506
-0.000170425
0.000285075
-0.000137319
0.00020888
-0.000115695
0.00015256
-8.20197e-05
0.000116818
-4.87996e-05
9.0158e-05
-2.49378e-05
6.75598e-05
-9.83975e-06
4.81884e-05
-6.59492e-07
3.32857e-05
5.03067e-06
2.33635e-05
8.68653e-06
1.71117e-05
1.21075e-05
1.42373e-05
7.66916e-06
1.48146e-05
-4.46577e-06
1.74461e-05
-7.52632e-06
1.12132e-05
-6.79493e-06
6.801e-06
-1.91836e-07
2.19846e-06
5.23964e-06
2.818e-06
6.96e-06
3.95229e-06
1.70468e-06
0.0359785
0.0186999
0.0118584
0.0137133
0.00713002
0.0106339
0.0042677
0.00864151
0.00269441
0.00726599
0.00156538
0.00619812
0.000893037
0.00534413
0.000348946
0.0046228
2.50085e-05
0.00402163
-0.000203343
0.00349635
-0.000328776
0.00303235
-0.000419636
0.00262019
-0.000463444
0.00225973
-0.000459872
0.00194453
-0.000449994
0.00166315
-0.000410555
0.00141473
-0.000387997
0.00118965
-0.000341783
0.000992142
-0.000323266
0.000815139
-0.000274973
0.000661693
-0.000261826
0.000515771
-0.000212195
0.00038006
-0.000221661
0.000255043
-0.000200904
0.000163127
-0.00019159
0.000104742
-0.000153582
7.70737e-05
-0.000108737
6.52055e-05
-6.41806e-05
5.66383e-05
-3.0992e-05
4.65168e-05
-9.46964e-06
3.58079e-05
2.19476e-06
2.67654e-05
7.60477e-06
1.97194e-05
1.12088e-05
1.37812e-05
7.80307e-06
-6.87378e-07
6.95437e-06
-9.59127e-06
1.35012e-05
-5.77099e-06
7.82923e-06
-2.35114e-06
2.13883e-07
2.52078e-06
3.73881e-07
8.8234e-06
2.64518e-06
4.30572e-06
2.54565e-06
0.0338161
0.0135181
0.0016899
0.00896815
-0.0014489
0.00622881
-0.0027914
0.00466391
-0.00313981
0.00376281
-0.00302525
0.00320803
-0.00271081
0.00283208
-0.00236301
0.0025435
-0.00201287
0.00230164
-0.00170581
0.00208017
-0.0014465
0.00188358
-0.00122707
0.0017081
-0.00100915
0.00155087
-0.000838033
0.00139534
-0.000682717
0.00125096
-0.000573546
0.00111067
-0.000455171
0.000980507
-0.000384412
0.00084801
-0.000305829
0.000724431
-0.000268907
0.000602971
-0.000220024
0.000494114
-0.000196644
0.000386393
-0.000164505
0.000292166
-0.00015637
0.000212983
-0.000115955
0.000157316
-8.86718e-05
0.000117717
-4.8909e-05
9.07565e-05
-2.08739e-05
6.80589e-05
-4.69829e-06
4.93431e-05
3.59241e-06
3.47279e-05
7.07929e-06
2.48029e-05
8.51068e-06
1.68453e-05
9.45377e-06
1.19117e-05
7.46434e-06
8.35606e-06
3.40771e-06
1.31818e-05
-2.63925e-06
4.64442e-06
-3.74115e-06
-2.63291e-06
8.35818e-07
-4.09493e-06
9.27356e-06
5.13472e-08
7.91163e-06
2.83077e-06
1.16822e-06
0.0968738
0.0190731
0.0216274
0.0185574
0.0135782
0.0101236
0.00864427
0.00580395
0.00601479
0.00338742
0.00447434
0.00206101
0.00347565
0.0010862
0.00274674
0.00050001
0.00221852
4.95352e-05
0.00181062
-0.000198885
0.00150586
-0.000382779
0.00126242
-0.000455132
0.00107524
-0.00050785
0.000927076
-0.000502317
0.000819725
-0.000459707
0.000732585
-0.000409168
0.000655878
-0.000352792
0.000581597
-0.000310452
0.000510076
-0.000262544
0.000440854
-0.000236638
0.000375225
-0.000194123
0.000313219
-0.00018129
0.000247483
-0.000141547
0.000175133
-0.000147239
0.000100671
-0.000146046
4.65015e-05
-0.00013757
1.79719e-05
-0.000111322
1.24872e-05
-7.32032e-05
1.90369e-05
-3.4218e-05
2.4346e-05
-8.43201e-06
2.40587e-05
4.39322e-06
2.02624e-05
7.37843e-06
1.53212e-05
6.52685e-06
1.20844e-05
6.30219e-06
9.91785e-06
8.033e-06
2.2608e-06
-1.59398e-06
-3.20912e-06
-3.82763e-06
1.4695e-06
-7.94206e-06
8.37644e-06
-5.53525e-06
1.07998e-05
4.89621e-07
3.88121e-06
2.2948e-06
-0.0578333
-0.00284866
-0.00584717
-0.00756039
-0.00117869
-0.00316861
0.000980727
-0.00153623
0.00164482
-0.000968718
0.00174109
-0.000805044
0.00165642
-0.000717707
0.00153449
-0.000612172
0.00140675
-0.000528365
0.00126857
-0.00043981
0.00112701
-0.000380347
0.000979588
-0.000325766
0.000844058
-0.000292256
0.000720216
-0.000232878
0.00061162
-0.000196186
0.000505305
-0.0001677
0.000415527
-0.000149992
0.000339195
-0.00012232
0.000281642
-0.000103905
0.00023139
-8.37002e-05
0.000192746
-7.1897e-05
0.000158238
-6.28689e-05
0.000131207
-5.4007e-05
0.000103593
-5.28919e-05
8.23085e-05
-4.3861e-05
6.69065e-05
-1.76273e-05
5.64989e-05
-1.53109e-06
4.81242e-05
2.10342e-05
3.92973e-05
2.72704e-05
2.84568e-05
2.43369e-05
1.93896e-05
1.80305e-05
1.34237e-05
1.16147e-05
8.76114e-06
6.81064e-06
5.49011e-06
6.33377e-06
3.32218e-06
8.00922e-06
9.02462e-07
1.88088e-06
2.11736e-08
4.64302e-06
-8.79983e-06
7.98474e-06
-1.20214e-05
1.22568e-05
-4.14567e-06
7.3379e-06
1.66451e-06
6.20435e-07
0.0828903
-0.00451371
0.00996413
0.0114363
0.00364662
0.00507782
0.000823114
0.00271831
-7.91268e-05
0.00183729
-0.000344967
0.00140246
-0.00044978
0.00109958
-0.000519908
0.000812866
-0.000579017
0.00058823
-0.000612576
0.000399512
-0.000625762
0.000263575
-0.000614404
0.000169811
-0.000593914
0.000108393
-0.000565676
4.48059e-05
-0.000531818
1.09946e-05
-0.00048172
-5.69722e-06
-0.000426815
-4.97574e-06
-0.000366801
-1.11254e-05
-0.000310322
-6.07346e-06
-0.000252316
-7.62867e-06
-0.000199776
-3.89334e-06
-0.000149068
-1.07294e-06
-0.000106791
-3.91247e-06
-7.46793e-05
1.11792e-06
-6.08845e-05
-5.03917e-06
-6.05565e-05
-2.38595e-05
-6.08875e-05
-2.23807e-05
-5.36351e-05
-1.88521e-05
-3.95903e-05
-6.17548e-06
-2.20004e-05
7.244e-06
-8.94161e-06
1.2537e-05
-1.76811e-06
1.09565e-05
8.01699e-07
5.94326e-06
1.50506e-06
5.80926e-06
3.3184e-06
6.37296e-06
5.99588e-06
1.46934e-06
8.23054e-06
-7.34589e-06
8.31063e-06
-1.26898e-05
1.40038e-05
-9.11211e-06
1.1301e-05
-3.6976e-06
2.74314e-06
1.52916e-06
-0.144586
-0.0194515
-0.0314277
-0.0255465
-0.0194993
-0.0130067
-0.0121696
-0.00682686
-0.00824355
-0.00352547
-0.00594475
-0.00177549
-0.00448539
-0.0007214
-0.0034609
-0.000108314
-0.0027048
0.000316508
-0.00212499
0.000554298
-0.00168878
0.000691767
-0.00135783
0.000736806
-0.00111139
0.000732212
-0.000926482
0.000690056
-0.000789229
0.000625445
-0.000686725
0.000560024
-0.000608733
0.000466314
-0.000542072
0.000400371
-0.000475353
0.000326343
-0.000408207
0.000283945
-0.000339974
0.000229475
-0.000274531
0.000200822
-0.000211741
0.000157071
-0.000156151
0.000133838
-0.000109449
9.65704e-05
-7.17792e-05
9.25019e-05
-4.19181e-05
9.12041e-05
-2.33051e-05
8.82854e-05
-1.27022e-05
8.39597e-05
-9.39667e-06
6.51736e-05
-9.57522e-06
4.39637e-05
-8.48683e-06
2.62838e-05
-6.0878e-06
1.33072e-05
-4.25057e-06
1.24662e-05
-3.54147e-06
1.14963e-05
-4.49385e-06
6.63883e-06
-2.19906e-06
8.00784e-06
-3.58864e-06
1.87387e-05
-1.18638e-05
1.63108e-05
-9.73829e-06
7.37154e-06
6.51675e-07
2.46413e-06
0.0209134
-0.00924864
-0.00335797
0.000737593
-0.00420489
-0.000324222
-0.00460173
-0.000632717
-0.00448807
-0.000477732
-0.00414067
-0.000297029
-0.00373411
-1.92977e-05
-0.00332271
0.00015147
-0.00295713
0.00028614
-0.00262414
0.00034313
-0.00232363
0.000414452
-0.00205369
0.000432838
-0.00182278
0.000439776
-0.00162323
0.00042367
-0.00144786
0.000388134
-0.00128836
0.000360456
-0.00113536
0.000325694
-0.000989387
0.000308974
-0.000847701
0.000268698
-0.000715157
0.000250522
-0.000587513
0.000210612
-0.000472163
0.00019033
-0.000365743
0.00015705
-0.000275763
0.000131175
-0.000200931
0.00010726
-0.000149205
9.88373e-05
-0.000114277
8.35993e-05
-9.28035e-05
8.70152e-05
-7.43734e-05
7.52264e-05
-5.73669e-05
6.45312e-05
-3.95031e-05
5.07358e-05
-2.20797e-05
3.92131e-05
-7.84435e-06
2.82115e-05
2.04471e-07
2.58035e-05
1.20611e-06
2.03073e-05
7.04088e-06
1.1778e-05
1.6399e-05
7.76434e-06
2.62926e-05
-9.80989e-06
2.14615e-05
-8.24993e-06
1.4615e-05
2.82943e-06
7.56105e-06
3.14453e-06
-0.0660732
-0.0198845
-0.0181333
-0.0104562
-0.0126088
-0.00530104
-0.00944086
-0.00268929
-0.00758119
-0.00137833
-0.00631728
-0.000544759
-0.00531626
-2.66002e-05
-0.00447715
0.000364719
-0.00375839
0.000614378
-0.00315134
0.00077428
-0.00263911
0.000858766
-0.0022065
0.000889162
-0.00184821
0.000885054
-0.00155183
0.000827869
-0.00131073
0.000771935
-0.00110561
0.000681061
-0.000934543
0.000614041
-0.000782053
0.000523243
-0.000651557
0.000463569
-0.000532343
0.000389525
-0.000430006
0.000345022
-0.000337558
0.00029561
-0.000259587
0.00026799
-0.00019117
0.000243878
-0.000135171
0.000229746
-9.1285e-05
0.000225349
-5.67197e-05
0.000238772
-2.82645e-05
0.0002289
-8.89036e-06
0.000217626
8.77266e-06
0.000187643
2.11063e-05
0.000155856
3.01507e-05
0.000124036
3.43029e-05
9.00774e-05
2.92516e-05
6.71161e-05
2.00177e-05
6.91256e-05
1.99573e-05
4.30503e-05
1.57748e-05
2.91721e-05
1.0359e-06
2.25722e-05
3.08394e-06
1.89401e-05
7.83702e-06
9.70341e-06
4.99982e-06
1.1604e-06
0.000584424
-0.000184611
4.80554e-05
0.000252371
-2.12675e-05
0.000280608
-9.72868e-05
0.000326162
-0.000152756
0.000347725
-0.000185268
0.000395316
-0.000187532
0.00043692
-0.000165874
0.000503522
-0.000120449
0.000555092
-6.38138e-05
0.000633843
-1.96231e-07
0.000677578
5.35252e-05
0.000732189
9.96786e-05
0.000745112
0.000128366
0.000768333
0.000146559
0.000757579
0.000148914
0.00076465
0.000146515
0.000750184
0.000136461
0.000759264
0.0001319
0.000754135
0.000128349
0.000763854
0.000135717
0.000761537
0.000146591
0.00075496
0.000165452
0.000739644
0.000184619
0.000706998
0.000205574
0.000668077
0.000218642
0.00060715
0.000222214
0.000579383
0.000216233
0.000532599
0.000197303
0.000475655
0.000170128
0.000391347
0.000136404
0.000290236
0.000102111
0.000195597
7.28993e-05
0.000120717
4.38629e-05
7.54535e-05
2.87847e-05
7.56886e-05
2.72109e-05
3.48464e-05
1.70855e-05
1.47451e-05
1.44931e-05
1.00034e-05
1.239e-05
6.91789e-06
5.46456e-06
2.71457e-06
9.38688e-07
0
)
;

boundaryField
{
    inlet
    {
        type            extrapolatedCalculated;
        value           nonuniform List<scalar> 
23
(
4.01683e-05
1.42038e-06
2.26258e-05
4.14856e-06
1.89385e-05
4.58928e-06
1.42813e-05
4.00008e-06
1.03946e-05
3.488e-06
6.90245e-06
2.8395e-06
4.24457e-06
1.70468e-06
2.54565e-06
1.16822e-06
2.2948e-06
6.20435e-07
1.52916e-06
2.46413e-06
3.14453e-06
1.1604e-06
0
)
;
    }
    outlet
    {
        type            extrapolatedCalculated;
        value           nonuniform List<scalar> 
82
(
0.000584424
4.80554e-05
-0.000184611
0.000252371
-2.12675e-05
0.000280608
-9.72868e-05
0.000326162
-0.000152756
0.000347725
-0.000185268
0.000395316
-0.000187532
0.00043692
-0.000165874
0.000503522
-0.000120449
0.000555092
-6.38138e-05
0.000633843
-1.96231e-07
0.000677578
5.35252e-05
0.000732189
9.96786e-05
0.000745112
0.000128366
0.000768333
0.000146559
0.000757579
0.000148914
0.00076465
0.000146515
0.000750184
0.000136461
0.000759264
0.0001319
0.000754135
0.000128349
0.000763854
0.000135717
0.000761537
0.000146591
0.00075496
0.000165452
0.000739644
0.000184619
0.000706998
0.000205574
0.000668077
0.000218642
0.00060715
0.000222214
0.000579383
0.000216233
0.000532599
0.000197303
0.000475655
0.000170128
0.000391347
0.000136404
0.000290236
0.000102111
0.000195597
7.28993e-05
0.000120717
4.38629e-05
7.54535e-05
2.87847e-05
7.56886e-05
2.72109e-05
3.48464e-05
1.70855e-05
1.47451e-05
1.44931e-05
1.00034e-05
1.239e-05
6.91789e-06
5.46456e-06
2.71457e-06
9.38688e-07
0
)
;
    }
    walls
    {
        type            extrapolatedCalculated;
        value           nonuniform List<scalar> 0();
    }
    frontAndBack
    {
        type            empty;
    }
    procBoundary3to2
    {
        type            processor;
        value           nonuniform List<scalar> 
88
(
3.61349e-06
-1.23297e-05
1.23206e-06
-6.21372e-06
-6.21372e-06
7.8023e-07
1.8105e-06
1.8105e-06
8.98151e-06
5.08917e-06
5.83356e-06
5.83356e-06
1.63157e-05
8.68573e-06
6.27226e-06
2.59414e-06
1.16735e-05
1.16735e-05
3.65016e-05
-2.29014e-06
2.54904e-06
-6.61343e-07
1.11556e-05
1.11556e-05
1.39786e-05
2.08917e-05
2.02509e-05
1.78564e-05
4.10623e-05
-2.50924e-05
4.399e-05
4.399e-05
-2.36706e-05
6.07845e-05
-2.61924e-05
4.10785e-05
-1.61236e-05
2.69142e-05
-9.39925e-06
1.48167e-05
8.46086e-07
7.56914e-06
2.99411e-06
1.49118e-05
1.49118e-05
0.0158388
0.00582125
0.00452149
0.00401047
0.00255657
0.00264857
0.00137042
0.00174371
0.000605015
0.00113211
0.000146154
0.00072029
-0.000159962
0.000435851
-0.000335892
0.000243874
-0.000463791
0.000112864
-0.000523297
3.35679e-05
-0.000569704
-1.61767e-05
-0.000575215
-3.84723e-05
-0.000571141
-5.21638e-05
-0.000537054
-5.106e-05
-0.000501452
-3.51774e-05
-0.000505722
-1.22787e-05
-0.000477107
1.55848e-05
-0.00041549
3.65719e-05
-0.000324999
5.58323e-05
-0.000202486
0.000102739
-0.000178437
0.000274342
0.000274342
)
;
    }
    procBoundary3to6
    {
        type            processor;
        value           uniform 0.0128911;
    }
    procBoundary3to7
    {
        type            processor;
        value           nonuniform List<scalar> 
16
(
-0.0257324
-0.000204393
-0.0133358
0.01467
0.00600246
0.0181599
0.0344309
0.0510002
0.0510002
0.0863881
-0.0498977
0.0539983
-0.11604
0.0119709
-0.061556
0.000813262
)
;
    }
}


// ************************************************************************* //
