/*--------------------------------*- C++ -*----------------------------------*\
| =========                 |                                                 |
| \\      /  F ield         | OpenFOAM: The Open Source CFD Toolbox           |
|  \\    /   O peration     | Version:  2506                                  |
|   \\  /    A nd           | Website:  www.openfoam.com                      |
|    \\/     M anipulation  |                                                 |
\*---------------------------------------------------------------------------*/
FoamFile
{
    version     2.0;
    format      ascii;
    arch        "LSB;label=32;scalar=64";
    class       volScalarField;
    location    "50";
    object      nuTilda;
}
// * * * * * * * * * * * * * * * * * * * * * * * * * * * * * * * * * * * * * //

dimensions      [0 2 -1 0 0 0 0];

internalField   nonuniform List<scalar> 
1340
(
4.0115e-05
4.00678e-05
4.01024e-05
4.009e-05
4.01175e-05
4.00676e-05
4.01261e-05
4.01249e-05
4.01032e-05
4.00924e-05
4.01197e-05
4.00672e-05
4.00882e-05
4.00981e-05
4.0114e-05
4.01287e-05
4.01262e-05
4.01039e-05
4.00948e-05
4.01219e-05
4.00669e-05
4.007e-05
4.00734e-05
4.00768e-05
4.00812e-05
4.00846e-05
4.00899e-05
4.01005e-05
4.01171e-05
4.01313e-05
4.01274e-05
4.01045e-05
4.00974e-05
4.0124e-05
4.00665e-05
4.00444e-05
4.00457e-05
4.00492e-05
4.00562e-05
4.00649e-05
4.00717e-05
4.00751e-05
4.00784e-05
4.00826e-05
4.0086e-05
4.00918e-05
4.01031e-05
4.01202e-05
4.01338e-05
4.01284e-05
4.0105e-05
4.01002e-05
4.01262e-05
4.00661e-05
4.00651e-05
4.00599e-05
4.00552e-05
4.00515e-05
4.00487e-05
4.00467e-05
4.00454e-05
4.00453e-05
4.00467e-05
4.00505e-05
4.00579e-05
4.00668e-05
4.00735e-05
4.00766e-05
4.00798e-05
4.00839e-05
4.00874e-05
4.00937e-05
4.01058e-05
4.01233e-05
4.01361e-05
4.01291e-05
4.01054e-05
4.01034e-05
4.01286e-05
4.00658e-05
4.01847e-05
4.01704e-05
4.01573e-05
4.01447e-05
4.01332e-05
4.01227e-05
4.0113e-05
4.01035e-05
4.00945e-05
4.00868e-05
4.00801e-05
4.00741e-05
4.00681e-05
4.00624e-05
4.00574e-05
4.00533e-05
4.00502e-05
4.00478e-05
4.00464e-05
4.00464e-05
4.00479e-05
4.00519e-05
4.00593e-05
4.00685e-05
4.0075e-05
4.0078e-05
4.00811e-05
4.0085e-05
4.00888e-05
4.00956e-05
4.01085e-05
4.01263e-05
4.01381e-05
4.01295e-05
4.01056e-05
4.01069e-05
4.01311e-05
4.00654e-05
4.19084e-05
4.22583e-05
4.22678e-05
4.19935e-05
4.17511e-05
4.15945e-05
4.14631e-05
4.13204e-05
4.11716e-05
4.10315e-05
4.09024e-05
4.07821e-05
4.06724e-05
4.0576e-05
4.04991e-05
4.04458e-05
4.04102e-05
4.03914e-05
4.03855e-05
4.0388e-05
4.0397e-05
4.04101e-05
4.04244e-05
4.04375e-05
4.04477e-05
4.04539e-05
4.04561e-05
4.04545e-05
4.04492e-05
4.04402e-05
4.04281e-05
4.04133e-05
4.03968e-05
4.03791e-05
4.03605e-05
4.03412e-05
4.03213e-05
4.03013e-05
4.02813e-05
4.02611e-05
4.02418e-05
4.02249e-05
4.02099e-05
4.01957e-05
4.01813e-05
4.01672e-05
4.0154e-05
4.01418e-05
4.01305e-05
4.01199e-05
4.01096e-05
4.01001e-05
4.00914e-05
4.00838e-05
4.00772e-05
4.00711e-05
4.00652e-05
4.00597e-05
4.00554e-05
4.00519e-05
4.00493e-05
4.00477e-05
4.00477e-05
4.00494e-05
4.00534e-05
4.00607e-05
4.00699e-05
4.00763e-05
4.00793e-05
4.00822e-05
4.00861e-05
4.009e-05
4.00975e-05
4.01112e-05
4.01292e-05
4.01399e-05
4.01295e-05
4.01058e-05
4.01111e-05
4.01338e-05
4.00649e-05
4.24271e-05
4.26508e-05
4.24997e-05
4.22328e-05
4.2029e-05
4.18785e-05
4.17362e-05
4.15837e-05
4.14291e-05
4.12819e-05
4.11421e-05
4.1008e-05
4.08807e-05
4.07621e-05
4.06551e-05
4.05609e-05
4.04804e-05
4.04168e-05
4.03729e-05
4.03439e-05
4.03289e-05
4.03265e-05
4.03323e-05
4.03431e-05
4.03563e-05
4.03691e-05
4.03799e-05
4.03881e-05
4.03929e-05
4.03939e-05
4.0391e-05
4.03849e-05
4.0376e-05
4.03649e-05
4.03519e-05
4.03371e-05
4.03209e-05
4.03036e-05
4.02852e-05
4.02653e-05
4.02457e-05
4.02294e-05
4.02174e-05
4.02054e-05
4.01908e-05
4.01761e-05
4.01626e-05
4.01499e-05
4.0138e-05
4.01267e-05
4.01158e-05
4.01056e-05
4.00962e-05
4.00878e-05
4.00808e-05
4.00745e-05
4.00682e-05
4.00624e-05
4.00577e-05
4.00539e-05
4.0051e-05
4.00494e-05
4.00494e-05
4.00511e-05
4.00551e-05
4.00621e-05
4.00708e-05
4.00774e-05
4.00802e-05
4.00831e-05
4.00869e-05
4.00911e-05
4.00993e-05
4.01139e-05
4.0132e-05
4.01414e-05
4.01291e-05
4.0106e-05
4.01157e-05
4.01367e-05
4.00642e-05
4.29095e-05
4.29351e-05
4.2691e-05
4.24548e-05
4.22817e-05
4.21339e-05
4.1982e-05
4.18223e-05
4.16644e-05
4.15132e-05
4.13673e-05
4.12259e-05
4.10903e-05
4.09618e-05
4.08416e-05
4.07304e-05
4.06286e-05
4.05373e-05
4.04576e-05
4.03901e-05
4.03396e-05
4.03091e-05
4.02913e-05
4.02852e-05
4.02886e-05
4.02969e-05
4.0308e-05
4.03204e-05
4.03319e-05
4.03405e-05
4.03459e-05
4.03478e-05
4.03466e-05
4.03424e-05
4.03354e-05
4.03258e-05
4.03137e-05
4.02995e-05
4.02832e-05
4.0265e-05
4.02477e-05
4.02346e-05
4.0225e-05
4.02131e-05
4.01983e-05
4.01837e-05
4.01702e-05
4.01573e-05
4.0145e-05
4.01332e-05
4.01218e-05
4.01111e-05
4.01012e-05
4.00924e-05
4.0085e-05
4.00783e-05
4.00715e-05
4.00653e-05
4.00603e-05
4.00563e-05
4.00532e-05
4.00516e-05
4.00516e-05
4.00532e-05
4.00571e-05
4.00636e-05
4.00716e-05
4.00781e-05
4.00809e-05
4.00837e-05
4.00875e-05
4.00921e-05
4.01011e-05
4.01165e-05
4.01345e-05
4.01424e-05
4.01284e-05
4.01062e-05
4.01211e-05
4.01397e-05
4.00633e-05
4.32198e-05
4.30909e-05
4.28481e-05
4.26584e-05
4.25071e-05
4.2361e-05
4.22053e-05
4.20443e-05
4.18862e-05
4.17329e-05
4.1583e-05
4.14369e-05
4.12959e-05
4.11611e-05
4.10331e-05
4.09121e-05
4.0798e-05
4.06913e-05
4.05928e-05
4.05039e-05
4.04274e-05
4.03639e-05
4.03137e-05
4.02799e-05
4.02613e-05
4.02522e-05
4.02528e-05
4.02606e-05
4.0271e-05
4.02822e-05
4.02928e-05
4.03015e-05
4.03073e-05
4.031e-05
4.03093e-05
4.03054e-05
4.02982e-05
4.02877e-05
4.02745e-05
4.02599e-05
4.02472e-05
4.02382e-05
4.02298e-05
4.02176e-05
4.02031e-05
4.01892e-05
4.01761e-05
4.01633e-05
4.0151e-05
4.01389e-05
4.01273e-05
4.01162e-05
4.01059e-05
4.0097e-05
4.00894e-05
4.00821e-05
4.00749e-05
4.00684e-05
4.00632e-05
4.00589e-05
4.00557e-05
4.0054e-05
4.00539e-05
4.00554e-05
4.00591e-05
4.0065e-05
4.00723e-05
4.00788e-05
4.00815e-05
4.00842e-05
4.00881e-05
4.00931e-05
4.01028e-05
4.0119e-05
4.01369e-05
4.01431e-05
4.01272e-05
4.01063e-05
4.0127e-05
4.01427e-05
4.00621e-05
4.32998e-05
4.31204e-05
4.29359e-05
4.27949e-05
4.26659e-05
4.25293e-05
4.23816e-05
4.22296e-05
4.20786e-05
4.1929e-05
4.17804e-05
4.16341e-05
4.14916e-05
4.1354e-05
4.12216e-05
4.10945e-05
4.09726e-05
4.08563e-05
4.07464e-05
4.06444e-05
4.05519e-05
4.04695e-05
4.03981e-05
4.03387e-05
4.02906e-05
4.02557e-05
4.02373e-05
4.02291e-05
4.02283e-05
4.02341e-05
4.02433e-05
4.02533e-05
4.0263e-05
4.02708e-05
4.02757e-05
4.02772e-05
4.02748e-05
4.02685e-05
4.02594e-05
4.02497e-05
4.02421e-05
4.02367e-05
4.02293e-05
4.02177e-05
4.02047e-05
4.01922e-05
4.018e-05
4.01678e-05
4.01557e-05
4.01438e-05
4.01321e-05
4.0121e-05
4.01107e-05
4.01019e-05
4.0094e-05
4.00863e-05
4.00788e-05
4.00721e-05
4.00666e-05
4.00621e-05
4.00588e-05
4.0057e-05
4.00568e-05
4.00582e-05
4.00615e-05
4.00669e-05
4.00733e-05
4.0079e-05
4.00817e-05
4.00844e-05
4.00882e-05
4.00937e-05
4.01044e-05
4.01214e-05
4.01389e-05
4.01432e-05
4.01255e-05
4.01071e-05
4.01336e-05
4.01456e-05
4.00605e-05
4.31884e-05
4.30578e-05
4.29459e-05
4.28472e-05
4.27439e-05
4.26296e-05
4.25062e-05
4.2378e-05
4.22466e-05
4.21122e-05
4.19754e-05
4.18378e-05
4.17009e-05
4.15655e-05
4.14322e-05
4.13013e-05
4.11732e-05
4.10489e-05
4.09296e-05
4.08166e-05
4.07112e-05
4.06138e-05
4.05251e-05
4.04455e-05
4.03751e-05
4.03157e-05
4.0268e-05
4.02324e-05
4.02115e-05
4.02024e-05
4.02013e-05
4.02068e-05
4.02164e-05
4.02271e-05
4.02374e-05
4.02454e-05
4.02488e-05
4.0248e-05
4.02447e-05
4.02413e-05
4.02392e-05
4.02364e-05
4.02299e-05
4.02197e-05
4.02088e-05
4.01979e-05
4.01868e-05
4.01753e-05
4.01636e-05
4.01517e-05
4.014e-05
4.01288e-05
4.01186e-05
4.01097e-05
4.01013e-05
4.0093e-05
4.00851e-05
4.00781e-05
4.00723e-05
4.00675e-05
4.0064e-05
4.0062e-05
4.00614e-05
4.00624e-05
4.00653e-05
4.007e-05
4.00753e-05
4.00799e-05
4.00826e-05
4.0085e-05
4.00884e-05
4.00943e-05
4.01062e-05
4.01241e-05
4.0141e-05
4.01428e-05
4.01235e-05
4.01095e-05
4.01416e-05
4.01488e-05
4.00588e-05
4.29934e-05
4.29167e-05
4.28476e-05
4.27772e-05
4.26994e-05
4.26141e-05
4.25233e-05
4.24279e-05
4.23274e-05
4.22215e-05
4.21106e-05
4.19956e-05
4.18771e-05
4.17556e-05
4.16317e-05
4.15061e-05
4.13799e-05
4.12547e-05
4.11322e-05
4.10136e-05
4.09002e-05
4.07927e-05
4.06915e-05
4.05972e-05
4.05105e-05
4.04327e-05
4.03641e-05
4.03058e-05
4.02585e-05
4.02214e-05
4.01954e-05
4.01822e-05
4.01779e-05
4.01805e-05
4.0189e-05
4.01991e-05
4.02074e-05
4.02132e-05
4.02176e-05
4.02223e-05
4.02266e-05
4.02275e-05
4.02236e-05
4.02164e-05
4.02085e-05
4.01999e-05
4.01906e-05
4.01806e-05
4.017e-05
4.01589e-05
4.01478e-05
4.01371e-05
4.01273e-05
4.01183e-05
4.01096e-05
4.01009e-05
4.00927e-05
4.00855e-05
4.00794e-05
4.00743e-05
4.00705e-05
4.00681e-05
4.00671e-05
4.00676e-05
4.00698e-05
4.00735e-05
4.00777e-05
4.00813e-05
4.00836e-05
4.00856e-05
4.00888e-05
4.00954e-05
4.01087e-05
4.01274e-05
4.01431e-05
4.01419e-05
4.01212e-05
4.01138e-05
4.01508e-05
4.01517e-05
4.00561e-05
4.27443e-05
4.27056e-05
4.2662e-05
4.26124e-05
4.2557e-05
4.24972e-05
4.24338e-05
4.23668e-05
4.22952e-05
4.22185e-05
4.21364e-05
4.20486e-05
4.1955e-05
4.18554e-05
4.17502e-05
4.16402e-05
4.15265e-05
4.14108e-05
4.12946e-05
4.11794e-05
4.10662e-05
4.0956e-05
4.08497e-05
4.07482e-05
4.06525e-05
4.05638e-05
4.04829e-05
4.04103e-05
4.03465e-05
4.02913e-05
4.02448e-05
4.0207e-05
4.01778e-05
4.01601e-05
4.01563e-05
4.01589e-05
4.01653e-05
4.01735e-05
4.01824e-05
4.01929e-05
4.02028e-05
4.02086e-05
4.02092e-05
4.02065e-05
4.02022e-05
4.01966e-05
4.01896e-05
4.01816e-05
4.01726e-05
4.0163e-05
4.01529e-05
4.01432e-05
4.0134e-05
4.01253e-05
4.01165e-05
4.01078e-05
4.00997e-05
4.00923e-05
4.0086e-05
4.00807e-05
4.00766e-05
4.00737e-05
4.00723e-05
4.00724e-05
4.0074e-05
4.00769e-05
4.00801e-05
4.00827e-05
4.00844e-05
4.00861e-05
4.00893e-05
4.00969e-05
4.01117e-05
4.01309e-05
4.0145e-05
4.01404e-05
4.01193e-05
4.01197e-05
4.01602e-05
4.01538e-05
4.00527e-05
4.24052e-05
4.24546e-05
4.2402e-05
4.23837e-05
4.23586e-05
4.23283e-05
4.22933e-05
4.22546e-05
4.2212e-05
4.21653e-05
4.21142e-05
4.20583e-05
4.19968e-05
4.19293e-05
4.18552e-05
4.17744e-05
4.16875e-05
4.1595e-05
4.1498e-05
4.13976e-05
4.12948e-05
4.11907e-05
4.10865e-05
4.09833e-05
4.08823e-05
4.0785e-05
4.06925e-05
4.06057e-05
4.05253e-05
4.04514e-05
4.03838e-05
4.03226e-05
4.0268e-05
4.02214e-05
4.0186e-05
4.01626e-05
4.01492e-05
4.01441e-05
4.01452e-05
4.01497e-05
4.01589e-05
4.01705e-05
4.01797e-05
4.01855e-05
4.01886e-05
4.01893e-05
4.01876e-05
4.01839e-05
4.01785e-05
4.01717e-05
4.01638e-05
4.01553e-05
4.01468e-05
4.01386e-05
4.01304e-05
4.0122e-05
4.01136e-05
4.01056e-05
4.00983e-05
4.00919e-05
4.00864e-05
4.00821e-05
4.0079e-05
4.00772e-05
4.00769e-05
4.0078e-05
4.00802e-05
4.00825e-05
4.00843e-05
4.00854e-05
4.00867e-05
4.00901e-05
4.00988e-05
4.01151e-05
4.01345e-05
4.01463e-05
4.01384e-05
4.01178e-05
4.01273e-05
4.01697e-05
4.0155e-05
4.00486e-05
4.20927e-05
4.21445e-05
4.20888e-05
4.20814e-05
4.20706e-05
4.20582e-05
4.20421e-05
4.20224e-05
4.1999e-05
4.19718e-05
4.19408e-05
4.19057e-05
4.1866e-05
4.18213e-05
4.17711e-05
4.1715e-05
4.1653e-05
4.1585e-05
4.15113e-05
4.14323e-05
4.13486e-05
4.1261e-05
4.11705e-05
4.10783e-05
4.09858e-05
4.08941e-05
4.08046e-05
4.07181e-05
4.06351e-05
4.05562e-05
4.04813e-05
4.04109e-05
4.03461e-05
4.02892e-05
4.02427e-05
4.02073e-05
4.01809e-05
4.01608e-05
4.01448e-05
4.01347e-05
4.01339e-05
4.01396e-05
4.01474e-05
4.01559e-05
4.01634e-05
4.01691e-05
4.01724e-05
4.0173e-05
4.01711e-05
4.01671e-05
4.01615e-05
4.0155e-05
4.01481e-05
4.01412e-05
4.01339e-05
4.01261e-05
4.01182e-05
4.01106e-05
4.01035e-05
4.00972e-05
4.00917e-05
4.00873e-05
4.00841e-05
4.00821e-05
4.00815e-05
4.00822e-05
4.00838e-05
4.00853e-05
4.00861e-05
4.00864e-05
4.00875e-05
4.00914e-05
4.01011e-05
4.01188e-05
4.0138e-05
4.01471e-05
4.01357e-05
4.01169e-05
4.01367e-05
4.01793e-05
4.01553e-05
4.00437e-05
4.19853e-05
4.20605e-05
4.19231e-05
4.18867e-05
4.1856e-05
4.18335e-05
4.18138e-05
4.17952e-05
4.17763e-05
4.17563e-05
4.17345e-05
4.17106e-05
4.16843e-05
4.16551e-05
4.16225e-05
4.15861e-05
4.15454e-05
4.14999e-05
4.14492e-05
4.13932e-05
4.13318e-05
4.12653e-05
4.11944e-05
4.11199e-05
4.10426e-05
4.09635e-05
4.08835e-05
4.08034e-05
4.07238e-05
4.06456e-05
4.05695e-05
4.04966e-05
4.04287e-05
4.03677e-05
4.03154e-05
4.02714e-05
4.02335e-05
4.01997e-05
4.01695e-05
4.01459e-05
4.01309e-05
4.01239e-05
4.0124e-05
4.0129e-05
4.01362e-05
4.01446e-05
4.01516e-05
4.01564e-05
4.01586e-05
4.0158e-05
4.01555e-05
4.01516e-05
4.01471e-05
4.01418e-05
4.01357e-05
4.01289e-05
4.01219e-05
4.01148e-05
4.01081e-05
4.01021e-05
4.00968e-05
4.00925e-05
4.00891e-05
4.0087e-05
4.00862e-05
4.00866e-05
4.00877e-05
4.00885e-05
4.00881e-05
4.00874e-05
4.00884e-05
4.00929e-05
4.01039e-05
4.01229e-05
4.01413e-05
4.0147e-05
4.01325e-05
4.01175e-05
4.01479e-05
4.01889e-05
4.01544e-05
4.00381e-05
4.22191e-05
4.23386e-05
4.20598e-05
4.19541e-05
4.18649e-05
4.17959e-05
4.17394e-05
4.16923e-05
4.16517e-05
4.16153e-05
4.15819e-05
4.15503e-05
4.152e-05
4.14904e-05
4.1461e-05
4.14311e-05
4.14002e-05
4.13674e-05
4.13321e-05
4.12937e-05
4.12515e-05
4.12053e-05
4.11549e-05
4.11004e-05
4.1042e-05
4.09799e-05
4.09144e-05
4.08464e-05
4.07765e-05
4.0706e-05
4.06362e-05
4.05684e-05
4.0504e-05
4.0444e-05
4.03889e-05
4.03381e-05
4.02906e-05
4.02463e-05
4.02065e-05
4.01738e-05
4.01491e-05
4.01319e-05
4.0121e-05
4.01159e-05
4.01167e-05
4.01224e-05
4.01292e-05
4.01361e-05
4.01412e-05
4.0144e-05
4.0145e-05
4.01445e-05
4.01428e-05
4.01398e-05
4.01353e-05
4.01299e-05
4.01239e-05
4.01178e-05
4.01117e-05
4.01062e-05
4.01013e-05
4.00971e-05
4.00938e-05
4.00917e-05
4.00908e-05
4.00912e-05
4.00918e-05
4.00915e-05
4.00897e-05
4.00881e-05
4.00893e-05
4.00948e-05
4.01073e-05
4.01273e-05
4.01443e-05
4.0146e-05
4.01291e-05
4.01207e-05
4.01609e-05
4.01982e-05
4.01518e-05
4.00312e-05
4.26683e-05
4.28227e-05
4.24359e-05
4.22596e-05
4.21061e-05
4.19783e-05
4.18703e-05
4.17785e-05
4.16992e-05
4.16295e-05
4.15672e-05
4.15109e-05
4.14593e-05
4.14119e-05
4.13682e-05
4.13276e-05
4.12896e-05
4.12537e-05
4.12191e-05
4.11851e-05
4.11508e-05
4.11154e-05
4.10782e-05
4.10385e-05
4.09956e-05
4.09492e-05
4.08993e-05
4.0846e-05
4.07903e-05
4.07333e-05
4.06758e-05
4.06186e-05
4.05619e-05
4.05056e-05
4.04498e-05
4.03951e-05
4.03422e-05
4.02929e-05
4.0249e-05
4.02116e-05
4.01809e-05
4.01561e-05
4.01367e-05
4.0123e-05
4.01151e-05
4.01123e-05
4.01141e-05
4.01189e-05
4.01238e-05
4.01285e-05
4.01321e-05
4.01347e-05
4.01359e-05
4.01353e-05
4.0133e-05
4.01293e-05
4.01247e-05
4.01197e-05
4.01146e-05
4.01099e-05
4.01055e-05
4.01016e-05
4.00984e-05
4.00964e-05
4.00957e-05
4.00959e-05
4.0096e-05
4.00945e-05
4.00914e-05
4.0089e-05
4.00906e-05
4.00974e-05
4.01118e-05
4.01321e-05
4.01466e-05
4.01439e-05
4.01262e-05
4.01276e-05
4.01757e-05
4.02065e-05
4.01475e-05
4.00241e-05
4.31849e-05
4.33323e-05
4.29585e-05
4.27515e-05
4.256e-05
4.2386e-05
4.22304e-05
4.20917e-05
4.19679e-05
4.18566e-05
4.17557e-05
4.16633e-05
4.15782e-05
4.14994e-05
4.14263e-05
4.13588e-05
4.12964e-05
4.12391e-05
4.11865e-05
4.11382e-05
4.10934e-05
4.10515e-05
4.10117e-05
4.0973e-05
4.09345e-05
4.08955e-05
4.08555e-05
4.08143e-05
4.07721e-05
4.07293e-05
4.06856e-05
4.06402e-05
4.05921e-05
4.05407e-05
4.04869e-05
4.04325e-05
4.03801e-05
4.03317e-05
4.02884e-05
4.025e-05
4.02161e-05
4.01864e-05
4.01612e-05
4.01412e-05
4.01264e-05
4.01168e-05
4.01117e-05
4.011e-05
4.01105e-05
4.01133e-05
4.01167e-05
4.01204e-05
4.01236e-05
4.01251e-05
4.0125e-05
4.01235e-05
4.01209e-05
4.01176e-05
4.01141e-05
4.01104e-05
4.01069e-05
4.01035e-05
4.01008e-05
4.00992e-05
4.00989e-05
4.00993e-05
4.00988e-05
4.00959e-05
4.00912e-05
4.00882e-05
4.00907e-05
4.00997e-05
4.01164e-05
4.01367e-05
4.01486e-05
4.01416e-05
4.01237e-05
4.01347e-05
4.01897e-05
4.02139e-05
4.01408e-05
4.0017e-05
4.27602e-05
4.28143e-05
4.27162e-05
4.26369e-05
4.25482e-05
4.24506e-05
4.23498e-05
4.2249e-05
4.21502e-05
4.20544e-05
4.19618e-05
4.18722e-05
4.17853e-05
4.17008e-05
4.16186e-05
4.15386e-05
4.14611e-05
4.13862e-05
4.13142e-05
4.12454e-05
4.11802e-05
4.11189e-05
4.10616e-05
4.10083e-05
4.09588e-05
4.09127e-05
4.08693e-05
4.08282e-05
4.07887e-05
4.07498e-05
4.07099e-05
4.06673e-05
4.06209e-05
4.05711e-05
4.05199e-05
4.047e-05
4.04234e-05
4.03807e-05
4.03411e-05
4.0304e-05
4.02691e-05
4.02371e-05
4.02088e-05
4.01849e-05
4.01654e-05
4.01503e-05
4.01389e-05
4.01304e-05
4.01239e-05
4.01192e-05
4.01162e-05
4.01157e-05
4.01166e-05
4.01173e-05
4.01174e-05
4.01168e-05
4.01157e-05
4.0114e-05
4.0112e-05
4.01098e-05
4.01075e-05
4.01052e-05
4.01036e-05
4.01032e-05
4.01038e-05
4.01043e-05
4.01028e-05
4.00985e-05
4.00936e-05
4.00916e-05
4.00963e-05
4.01081e-05
4.01265e-05
4.01438e-05
4.01484e-05
4.01359e-05
4.01257e-05
4.01579e-05
4.02154e-05
4.02194e-05
4.01302e-05
4.0017e-05
)
;

boundaryField
{
    inlet
    {
        type            freestream;
        freestreamValue uniform 4e-05;
        value           uniform 4e-05;
    }
    outlet
    {
        type            freestream;
        freestreamValue uniform 4e-05;
        value           nonuniform List<scalar> 
82
(
4.27602e-05
4.27162e-05
4.28143e-05
4.26369e-05
4.25482e-05
4.24506e-05
4.23498e-05
4.2249e-05
4.21502e-05
4.20544e-05
4.19618e-05
4.18722e-05
4.17853e-05
4.17008e-05
4.16186e-05
4.15386e-05
4.14611e-05
4.13862e-05
4.13142e-05
4.12454e-05
4.11802e-05
4.11189e-05
4.10616e-05
4.10083e-05
4.09588e-05
4.09127e-05
4.08693e-05
4.08282e-05
4.07887e-05
4.07498e-05
4.07099e-05
4.06673e-05
4.06209e-05
4.05711e-05
4.05199e-05
4.047e-05
4.04234e-05
4.03807e-05
4.03411e-05
4.0304e-05
4.02691e-05
4.02371e-05
4.02088e-05
4.01849e-05
4.01654e-05
4.01503e-05
4.01389e-05
4.01304e-05
4.01239e-05
4.01192e-05
4.01162e-05
4.01157e-05
4.01166e-05
4.01173e-05
4.01174e-05
4.01168e-05
4.01157e-05
4.0114e-05
4.0112e-05
4.01098e-05
4.01075e-05
4.01052e-05
4.01036e-05
4.01032e-05
4.01038e-05
4.01043e-05
4.01028e-05
4.00985e-05
4.00936e-05
4.00916e-05
4.00963e-05
4.01081e-05
4.01265e-05
4.01438e-05
4.01484e-05
4.01359e-05
4.01257e-05
4.01579e-05
4.02154e-05
4.02194e-05
4.01302e-05
4.0017e-05
)
;
    }
    walls
    {
        type            fixedValue;
        value           nonuniform List<scalar> 0();
    }
    frontAndBack
    {
        type            empty;
    }
    procBoundary3to2
    {
        type            processor;
        value           nonuniform List<scalar> 
88
(
4.01121e-05
4.00679e-05
4.01015e-05
4.00875e-05
4.00875e-05
4.01234e-05
4.01234e-05
4.01234e-05
4.00867e-05
4.00958e-05
4.0111e-05
4.0111e-05
4.00683e-05
4.00717e-05
4.00753e-05
4.00799e-05
4.00833e-05
4.00833e-05
4.00435e-05
4.00448e-05
4.00479e-05
4.00544e-05
4.0063e-05
4.0063e-05
4.00615e-05
4.00572e-05
4.0053e-05
4.00496e-05
4.00472e-05
4.00455e-05
4.00444e-05
4.00444e-05
4.01701e-05
4.01575e-05
4.01454e-05
4.01338e-05
4.01232e-05
4.01137e-05
4.01051e-05
4.00967e-05
4.00885e-05
4.00815e-05
4.00756e-05
4.00703e-05
4.00703e-05
4.18275e-05
4.18964e-05
4.16458e-05
4.1401e-05
4.12451e-05
4.11212e-05
4.09917e-05
4.08621e-05
4.07474e-05
4.06519e-05
4.05783e-05
4.05279e-05
4.04962e-05
4.04827e-05
4.04832e-05
4.04928e-05
4.05083e-05
4.05253e-05
4.05412e-05
4.05547e-05
4.05646e-05
4.05701e-05
4.05709e-05
4.05668e-05
4.0558e-05
4.05452e-05
4.05288e-05
4.05094e-05
4.04876e-05
4.04639e-05
4.0439e-05
4.04137e-05
4.03887e-05
4.03641e-05
4.034e-05
4.03165e-05
4.02937e-05
4.0272e-05
4.02517e-05
4.02331e-05
4.02161e-05
4.01998e-05
4.01998e-05
)
;
    }
    procBoundary3to6
    {
        type            processor;
        value           uniform 4.15649e-05;
    }
    procBoundary3to7
    {
        type            processor;
        value           nonuniform List<scalar> 
16
(
4.2165e-05
4.23757e-05
4.26908e-05
4.30356e-05
4.32604e-05
4.32652e-05
4.30795e-05
4.27831e-05
4.27831e-05
4.24804e-05
4.2177e-05
4.21476e-05
4.25006e-05
4.30288e-05
4.34991e-05
4.28266e-05
)
;
    }
}


// ************************************************************************* //
