/*--------------------------------*- C++ -*----------------------------------*\
| =========                 |                                                 |
| \\      /  F ield         | OpenFOAM: The Open Source CFD Toolbox           |
|  \\    /   O peration     | Version:  2506                                  |
|   \\  /    A nd           | Website:  www.openfoam.com                      |
|    \\/     M anipulation  |                                                 |
\*---------------------------------------------------------------------------*/
FoamFile
{
    version     2.0;
    format      ascii;
    arch        "LSB;label=32;scalar=64";
    class       surfaceScalarField;
    location    "50";
    object      phi;
}
// * * * * * * * * * * * * * * * * * * * * * * * * * * * * * * * * * * * * * //

dimensions      [0 3 -1 0 0 0 0];

oriented        oriented;

internalField   nonuniform List<scalar> 
2575
(
-0.623673
17.0621
18.7692
-0.653532
14.077
-0.654794
15.4716
-0.654904
17.0622
18.7733
-0.687872
11.6494
-0.687012
12.8031
-0.685929
14.076
-0.687291
15.473
-0.687622
17.0626
18.7776
-0.724677
8.76039
-0.723699
9.63486
-0.722748
10.5945
-0.721674
11.6483
-0.720812
12.8022
-0.719851
14.075
-0.72135
15.4745
-0.721919
17.0631
18.782
-0.76678
7.81581
-0.76534
5.98452
-0.763958
6.58341
-0.762658
7.23983
-0.761406
7.9642
-0.760271
8.75926
-0.75922
9.63382
-0.758191
10.5935
-0.757084
11.6472
-0.756233
12.8014
-0.755406
14.0742
-0.757043
15.4761
-0.757891
17.064
18.7865
-0.819177
5.97922
-0.815626
6.30817
-0.812444
6.65517
-0.809549
7.02086
-0.806923
7.40623
-0.804522
7.81343
-0.80296
5.98297
-0.801461
6.58192
-0.800027
7.23839
-0.798724
7.9629
-0.797501
8.75805
-0.796396
9.63272
-0.795309
10.5924
-0.794182
11.6461
-0.793302
12.8005
-0.792678
14.0736
-0.794412
15.4779
-0.795581
17.0652
18.7913
-0.89826
4.10338
-0.891369
4.32971
-0.884936
4.56873
-0.878997
4.82063
-0.873552
5.08648
-0.868507
5.36703
-0.86389
5.66283
-0.85967
5.97499
-0.855855
6.30434
-0.852366
6.65168
-0.849237
7.01771
-0.846401
7.4034
-0.84387
7.81091
-0.842168
5.98128
-0.840569
6.58032
-0.839064
7.23689
-0.837684
7.96153
-0.836443
8.75682
-0.83526
9.63154
-0.834136
10.5913
-0.833009
11.645
-0.832191
12.7997
-0.831718
14.0731
-0.833629
15.4798
-0.835217
17.0668
18.7964
-1.06216
2.13493
-1.05002
2.25517
-1.03822
2.3818
-1.02672
2.51522
-1.01562
2.65594
-1.00488
2.80441
-0.994574
2.96081
-0.984637
3.12586
-0.975216
3.2997
-0.966222
3.48319
-0.957703
3.67647
-0.949536
3.88049
-0.941873
4.09571
-0.934681
4.32255
-0.928031
4.56207
-0.92181
4.81445
-0.916086
5.08075
-0.910799
5.36176
-0.905964
5.65799
-0.901503
5.97052
-0.897452
6.30029
-0.893798
6.648
-0.890468
7.01439
-0.887468
7.4004
-0.884795
7.80826
-0.883056
5.97954
-0.88139
6.57866
-0.879835
7.23533
-0.878393
7.9601
-0.877105
8.75554
-0.875937
9.63038
-0.87481
10.5901
-0.873709
11.6439
-0.872912
12.7989
-0.872624
14.0728
-0.874761
15.482
-0.876751
17.0688
18.8017
-1.25069
0.196596
-1.25401
0.213309
-1.25726
0.22441
-1.26048
0.236087
-1.26355
0.248473
-1.26665
0.261545
-1.26955
0.275399
-1.27244
0.289998
-1.27507
0.305539
-1.27771
0.321944
-1.28001
0.339351
-1.28228
0.357825
-1.28411
0.377393
-1.28584
0.398166
-1.2871
0.420187
-1.28818
0.443614
-1.28867
0.468435
-1.28888
0.49481
-1.28848
0.522799
-1.28768
0.55255
-1.28619
0.58411
-1.28424
0.61763
-1.28157
0.653212
-1.27832
0.690921
-1.27434
0.730985
-1.26975
0.773408
-1.26441
0.818403
-1.25849
0.866037
-1.25185
0.916533
-1.24464
0.970013
-1.23677
1.02655
-1.22839
1.08614
-1.21944
1.14941
-1.21006
1.21622
-1.20025
1.28659
-1.19007
1.3611
-1.17957
1.43954
-1.16882
1.5225
-1.15785
1.60988
-1.14677
1.70216
-1.13557
1.79932
-1.12418
1.90165
-1.11277
2.00962
-1.10134
2.12359
-1.09013
2.244
-1.07906
2.3708
-1.06824
2.50443
-1.05767
2.64543
-1.04738
2.79414
-1.03741
2.95089
-1.02781
3.11629
-1.01858
3.29051
-1.00976
3.47439
-1.00127
3.66802
-0.993201
3.87243
-0.985588
4.08812
-0.978418
4.31539
-0.971666
4.55534
-0.965384
4.80818
-0.959562
5.07494
-0.954151
5.35635
-0.949168
5.653
-0.944634
5.96599
-0.940457
6.2961
-0.936664
6.64421
-0.933243
7.01094
-0.930171
7.39735
-0.927417
7.80551
-0.925616
5.97776
-0.923924
6.57695
-0.922338
7.23376
-0.920923
7.95868
-0.919616
8.75424
-0.918396
9.62917
-0.91733
10.5891
-0.916375
11.6429
-0.915691
12.7982
-0.915768
14.0729
-0.917952
15.4842
-0.920373
17.0713
18.8075
-1.22598
0.200393
-1.22907
0.216038
-1.23224
0.227205
-1.23551
0.238964
-1.23879
0.251376
-1.24208
0.264482
-1.2453
0.278331
-1.24855
0.292974
-1.25166
0.308449
-1.25478
0.324853
-1.25771
0.342169
-1.26055
0.360523
-1.26319
0.379985
-1.26572
0.400598
-1.26798
0.422446
-1.27002
0.445596
-1.27175
0.470192
-1.27319
0.496213
-1.27424
0.523896
-1.27494
0.553235
-1.27514
0.584365
-1.2749
0.617394
-1.27413
0.652494
-1.27288
0.68969
-1.27098
0.729146
-1.26855
0.771007
-1.26551
0.815422
-1.26186
0.862423
-1.25757
0.912306
-1.2527
0.965176
-1.2472
1.02112
-1.24114
1.08013
-1.23452
1.14285
-1.22737
1.20913
-1.21971
1.279
-1.21163
1.35308
-1.20316
1.43112
-1.19433
1.51373
-1.18518
1.60078
-1.17573
1.69277
-1.16609
1.78972
-1.15627
1.8919
-1.14636
1.99974
-1.13648
2.11378
-1.12664
2.23419
-1.11678
2.36101
-1.10703
2.49472
-1.09736
2.63583
-1.08792
2.78473
-1.07866
2.94169
-1.06968
3.10734
-1.06092
3.2818
-1.05249
3.46598
-1.04439
3.65996
-1.03668
3.86475
-1.02933
4.08081
-1.02239
4.30847
-1.01582
4.5488
-1.00966
4.80203
-1.00388
5.06919
-0.998516
5.351
-0.993592
5.64808
-0.989026
5.96142
-0.984868
6.29195
-0.981056
6.64037
-0.977599
7.0075
-0.974518
7.39426
-0.971771
7.8028
-0.970063
5.97604
-0.968326
6.57523
-0.966682
7.2321
-0.965247
7.95727
-0.964047
8.75305
-0.96303
9.62816
-0.961998
10.588
-0.960887
11.6418
-0.960337
12.7977
-0.96064
14.0732
-0.963474
15.487
-0.96622
17.074
18.8137
-1.20679
0.203886
-1.20952
0.21859
-1.21235
0.229796
-1.21528
0.24165
-1.21834
0.254128
-1.22138
0.267294
-1.22453
0.281193
-1.2276
0.295873
-1.23076
0.311374
-1.23382
0.327786
-1.23693
0.345094
-1.23992
0.363422
-1.24291
0.382835
-1.24575
0.403376
-1.24854
0.425126
-1.25113
0.44815
-1.25363
0.47259
-1.25586
0.498426
-1.25792
0.525885
-1.25966
0.554968
-1.26116
0.585806
-1.26226
0.618506
-1.26305
0.653238
-1.26337
0.690032
-1.26332
0.729053
-1.26274
0.770468
-1.2617
0.814347
-1.26008
0.860852
-1.25799
0.9102
-1.25528
0.962524
-1.2521
1.01791
-1.24828
1.07637
-1.24399
1.13855
-1.2391
1.2043
-1.23378
1.27366
-1.2279
1.34726
-1.22164
1.42484
-1.21488
1.50702
-1.20778
1.59366
-1.20023
1.68528
-1.19246
1.78194
-1.18445
1.88394
-1.17642
1.99172
-1.1682
2.10563
-1.15991
2.22592
-1.1515
2.35267
-1.14313
2.48636
-1.13472
2.62749
-1.12643
2.77646
-1.1182
2.93352
-1.11014
3.09931
-1.10223
3.27394
-1.09454
3.45832
-1.08709
3.65255
-1.07997
3.85766
-1.07314
4.07401
-1.06662
4.30196
-1.06043
4.54263
-1.05456
4.79618
-1.04903
5.06367
-1.04388
5.34586
-1.03912
5.64333
-1.03477
5.95708
-1.03058
6.28776
-1.027
6.63681
-1.02358
7.00407
-1.0205
7.39121
-1.01782
7.80011
-1.01613
5.97437
-1.0145
6.57359
-1.01299
7.23061
-1.01181
7.9561
-1.01047
8.75172
-1.00945
9.62714
-1.00851
10.5871
-1.00771
11.641
-1.00735
12.7973
-1.00798
14.0739
-1.01106
15.4901
-1.01463
17.0776
18.8205
-1.18715
0.207309
-1.18943
0.221223
-1.19182
0.232549
-1.19424
0.244517
-1.19682
0.257104
-1.19945
0.270371
-1.20229
0.284363
-1.20514
0.299125
-1.20824
0.314716
-1.21127
0.331148
-1.21453
0.348518
-1.21771
0.366894
-1.22106
0.386296
-1.22426
0.406825
-1.22759
0.428522
-1.23071
0.45151
-1.23396
0.475866
-1.23692
0.501613
-1.23992
0.528894
-1.24257
0.557829
-1.24523
0.588467
-1.24749
0.620955
-1.24966
0.655402
-1.25132
0.691878
-1.25287
0.730587
-1.25386
0.771637
-1.25466
0.815123
-1.25485
0.861205
-1.25478
0.910107
-1.25406
0.961964
-1.25304
1.01687
-1.25136
1.07484
-1.24934
1.13651
-1.24667
1.20176
-1.24366
1.27062
-1.24004
1.34375
-1.23606
1.42084
-1.2315
1.50256
-1.22664
1.58877
-1.22122
1.67996
-1.21564
1.77633
-1.20967
1.87806
-1.20362
1.98565
-1.19723
2.09933
-1.19068
2.21936
-1.18391
2.34598
-1.17711
2.47957
-1.17019
2.62065
-1.16329
2.76957
-1.15634
2.92663
-1.14947
3.09245
-1.14265
3.26717
-1.13597
3.45165
-1.1295
3.64612
-1.12313
3.8513
-1.11705
4.06796
-1.1112
4.29613
-1.10547
4.53693
-1.10013
4.79086
-1.09519
5.05875
-1.09033
5.34102
-1.08588
5.6389
-1.08176
5.95297
-1.07812
6.28413
-1.07445
6.63315
-1.07127
7.00091
-1.06858
7.38853
-1.06606
7.79761
-1.06428
5.97258
-1.06273
6.57208
-1.06151
7.22939
-1.06011
7.95471
-1.05924
8.75084
-1.05817
9.62608
-1.05739
10.5863
-1.05676
11.6404
-1.05682
12.7974
-1.05762
14.0747
-1.06125
15.4938
-1.06504
17.0815
18.8281
-1.17201
0.210298
-1.17371
0.223552
-1.17566
0.23501
-1.1776
0.247105
-1.17983
0.259817
-1.18205
0.273203
-1.18463
0.28731
-1.18714
0.302179
-1.19005
0.317872
-1.19282
0.334397
-1.19601
0.35185
-1.19898
0.370281
-1.20237
0.389761
-1.20554
0.410356
-1.20907
0.432068
-1.2123
0.455071
-1.21588
0.479425
-1.21912
0.50515
-1.22266
0.532388
-1.22581
0.561257
-1.22921
0.591803
-1.23217
0.624172
-1.23529
0.658455
-1.23795
0.694791
-1.24071
0.733276
-1.24285
0.774013
-1.24509
0.817286
-1.24679
0.863141
-1.24849
0.911733
-1.24949
0.963179
-1.25026
1.01757
-1.25052
1.07531
-1.25053
1.13645
-1.25004
1.20146
-1.24908
1.26961
-1.24759
1.34244
-1.246
1.41918
-1.24371
1.50043
-1.24107
1.58607
-1.23795
1.67698
-1.23462
1.77295
-1.23087
1.87444
-1.22702
1.98177
-1.22261
2.09503
-1.21802
2.21476
-1.21323
2.34129
-1.20817
2.47448
-1.20299
2.61555
-1.19778
2.76434
-1.19235
2.92127
-1.18706
3.08715
-1.18156
3.26172
-1.17615
3.44624
-1.17082
3.64083
-1.16578
3.84627
-1.16047
4.06268
-1.15548
4.29116
-1.15081
4.53229
-1.146
4.78606
-1.14157
5.05435
-1.13739
5.33686
-1.13347
5.63499
-1.12979
5.94932
-1.12639
6.28074
-1.12324
6.63003
-1.12056
6.99824
-1.11782
7.38582
-1.11558
7.79537
-1.11415
5.97119
-1.11283
6.57075
-1.11162
7.22821
-1.11061
7.95369
-1.10976
8.75001
-1.10907
9.62539
-1.10849
10.5858
-1.10825
11.6402
-1.10833
12.7975
-1.10979
14.0762
-1.11403
15.498
-1.11801
17.0855
18.8367
-1.8228
0.214747
-1.82467
0.226399
-1.8269
0.238006
-1.82921
0.250363
-1.83213
0.263338
-1.83482
0.276809
-1.83838
0.291303
-1.84167
0.306357
-1.84551
0.322048
-1.84929
0.339049
-1.85363
0.356427
-1.85758
0.375095
-1.86239
0.394746
-1.86664
0.415458
-1.87158
0.437123
-1.87599
0.460315
-1.88129
0.484802
-1.8856
0.510286
-1.89092
0.537717
-1.89522
0.566366
-1.9004
0.59696
-1.90457
0.629125
-1.90933
0.663154
-1.91306
0.699281
-1.91755
0.737673
-1.9209
0.778097
-1.92477
0.821047
-1.9272
0.866264
-1.93012
0.914525
-1.93189
0.965608
-1.93406
1.01961
-1.93467
1.07655
-1.93578
1.1374
-1.93512
1.20139
-1.93486
1.26921
-1.9332
1.34132
-1.93134
1.41716
-1.92827
1.49785
-1.92512
1.58277
-1.92064
1.67295
-1.91607
1.76822
-1.91025
1.86902
-1.90425
1.97563
-1.8969
2.08802
-1.88958
2.20727
-1.88085
2.33284
-1.87215
2.46564
-1.86219
2.60582
-1.85226
2.75429
-1.84123
2.91042
-1.83007
3.07588
-1.81812
3.24993
-1.80593
3.43398
-1.79313
3.62816
-1.77994
3.83305
-1.76646
4.04931
-1.75248
4.27716
-1.73819
4.51809
-1.72384
4.77172
-1.70899
5.03956
-1.69415
5.32203
-1.67907
5.61996
-1.66352
5.93379
-1.6478
6.26506
-1.63195
6.61421
-1.61563
6.98196
-1.59921
7.36942
-1.58235
7.77855
-1.56954
5.95837
-1.55579
6.55704
-1.5409
7.2133
-1.52482
7.93764
-1.50747
8.73264
-1.48875
9.60669
-1.46832
10.5654
-1.44617
11.618
-1.42267
12.7741
-1.39857
14.0521
-1.37492
15.4744
-1.34911
17.0597
18.8092
-1.79791
0.218554
-1.79831
0.228667
-1.79957
0.240515
-1.80094
0.253265
-1.80295
0.266187
-1.80505
0.280225
-1.80786
0.294666
-1.8103
0.309981
-1.81396
0.326097
-1.81683
0.343034
-1.82098
0.360831
-1.82457
0.379739
-1.82913
0.399469
-1.83306
0.420403
-1.83816
0.442288
-1.84254
0.465665
-1.84774
0.490012
-1.85249
0.515978
-1.85804
0.54322
-1.86276
0.571988
-1.86839
0.6025
-1.87326
0.634882
-1.87903
0.668787
-1.88381
0.704907
-1.88939
0.743096
-1.89378
0.783295
-1.89904
0.826137
-1.90323
0.871224
-1.90804
0.919143
-1.91155
0.969851
-1.91574
1.02361
-1.91861
1.08011
-1.92189
1.14049
-1.924
1.20415
-1.92644
1.27144
-1.92736
1.34284
-1.92885
1.41844
-1.92866
1.49821
-1.92894
1.58285
-1.92774
1.67225
-1.92663
1.7669
-1.92426
1.86708
-1.92151
1.97269
-1.91792
2.08478
-1.9141
2.20323
-1.90902
2.32803
-1.90382
2.46022
-1.89763
2.59982
-1.89094
2.74737
-1.88353
2.90314
-1.87543
3.06758
-1.86671
3.24132
-1.85749
3.4246
-1.84728
3.61805
-1.8369
3.82257
-1.82568
4.03818
-1.81417
4.2656
-1.80181
4.50581
-1.78922
4.75911
-1.77609
5.0265
-1.76262
5.30857
-1.74839
5.60579
-1.73401
5.91944
-1.71913
6.25021
-1.7038
6.59891
-1.68803
6.96623
-1.67171
7.35312
-1.65505
7.76189
-1.64229
5.94562
-1.62848
6.5432
-1.61344
7.19829
-1.59728
7.92147
-1.5796
8.71498
-1.56057
9.58765
-1.53948
10.5443
-1.51671
11.5953
-1.49276
12.7501
-1.46828
14.0277
-1.4437
15.4498
-1.41724
17.0332
18.7802
-1.78299
0.22125
-1.78311
0.23021
-1.78483
0.242422
-1.78562
0.255104
-1.78818
0.268566
-1.78971
0.282561
-1.79269
0.297269
-1.79489
0.312853
-1.79866
0.329389
-1.80134
0.346319
-1.80557
0.364544
-1.80884
0.383585
-1.81363
0.403746
-1.81733
0.424664
-1.82251
0.446974
-1.82674
0.470462
-1.83227
0.495074
-1.83686
0.521132
-1.84269
0.548609
-1.84774
0.577599
-1.85396
0.60831
-1.85922
0.640716
-1.86562
0.674789
-1.87103
0.71089
-1.87732
0.749034
-1.88277
0.789321
-1.88917
0.832209
-1.89453
0.877165
-1.9006
0.924914
-1.90575
0.975574
-1.91151
1.02909
-1.91615
1.08532
-1.92145
1.14554
-1.92546
1.20871
-1.93004
1.27579
-1.9336
1.34694
-1.93713
1.42177
-1.93979
1.50138
-1.94249
1.58535
-1.944
1.67423
-1.94562
1.76834
-1.94591
1.86779
-1.94655
1.97316
-1.94572
2.08433
-1.94468
2.20202
-1.94274
2.3264
-1.94036
2.45767
-1.93697
2.59668
-1.93324
2.74349
-1.92842
2.89853
-1.92322
3.06225
-1.91702
3.2353
-1.9104
3.4179
-1.9029
3.6107
-1.89479
3.81442
-1.88575
4.02926
-1.87629
4.25613
-1.8662
4.49582
-1.8554
4.74831
-1.84392
5.0151
-1.83176
5.29643
-1.81902
5.59311
-1.80582
5.90626
-1.79179
6.23623
-1.77718
6.58433
-1.76201
6.95109
-1.74619
7.33732
-1.7296
7.74533
-1.7171
5.93313
-1.70334
6.52947
-1.68842
7.18337
-1.67215
7.90521
-1.65456
8.69737
-1.63505
9.56814
-1.61382
10.523
-1.5908
11.5722
-1.56631
12.7257
-1.54154
14.0029
-1.51616
15.4245
-1.48887
17.006
18.7497
-1.80506
1.81359
0.223306
0.236014
-1.80401
0.231539
-1.80326
0.243829
-1.8031
0.256608
-1.80368
0.270459
-1.80452
0.284581
-1.80613
0.299711
-1.80781
0.315447
-1.81002
0.332143
-1.81263
0.349676
-1.81565
0.367939
-1.81873
0.387309
-1.82242
0.407657
-1.82624
0.429054
-1.8307
0.45155
-1.83509
0.475361
-1.84015
0.500152
-1.84522
0.52666
-1.85095
0.554289
-1.85648
0.583561
-1.86267
0.614388
-1.8683
0.646745
-1.875
0.681336
-1.88107
0.717344
-1.88804
0.755811
-1.89445
0.796099
-1.90125
0.838803
-1.90773
0.883999
-1.91469
0.931657
-1.92095
0.982191
-1.92761
1.03555
-1.93369
1.09175
-1.93993
1.15159
-1.94569
1.21482
-1.95153
1.28144
-1.95651
1.35226
-1.96178
1.42686
-1.96599
1.50591
-1.97028
1.58946
-1.97366
1.67791
-1.97705
1.77156
-1.9795
1.87053
-1.98158
1.97507
-1.98288
2.08588
-1.98389
2.20288
-1.98402
2.32671
-1.9838
2.45728
-1.98258
2.59558
-1.98095
2.74167
-1.97852
2.89616
-1.97563
3.05917
-1.97165
3.23135
-1.96719
3.41326
-1.96169
3.60522
-1.95567
3.80827
-1.94886
4.02249
-1.94121
4.24841
-1.9327
4.48736
-1.92354
4.73913
-1.91346
5.00506
-1.90292
5.2859
-1.89153
5.58177
-1.87924
5.89398
-1.86634
6.22338
-1.85261
6.57061
-1.83804
6.93656
-1.82291
7.32221
-1.80711
7.72956
-1.79484
5.92088
-1.78134
6.51598
-1.7665
7.16852
-1.75031
7.88901
-1.73258
8.67963
-1.71308
9.54864
-1.69153
10.5014
-1.66803
11.5488
-1.64341
12.701
-1.61807
13.9776
-1.59228
15.3987
-1.56464
16.9783
18.7177
-1.87037
1.86262
0.224422
0.237051
-1.87126
0.231758
-1.8724
0.244045
-1.8732
0.257255
-1.87403
0.270858
-1.87476
0.285447
-1.87592
0.300645
-1.87682
0.316606
-1.87838
0.333543
-1.87959
0.351195
-1.88154
0.369733
-1.88329
0.389393
-1.88569
0.409903
-1.88805
0.431752
-1.89107
0.45443
-1.8938
0.478428
-1.89747
0.503692
-1.90072
0.530248
-1.9049
0.55835
-1.90881
0.587808
-1.91336
0.618814
-1.91791
0.651629
-1.92292
0.686231
-1.92794
0.722677
-1.93337
0.761126
-1.93865
0.801675
-1.94457
0.844618
-1.95017
0.889884
-1.9562
0.937593
-1.96205
0.988299
-1.9681
1.04151
-1.97409
1.09797
-1.98019
1.1576
-1.98588
1.22072
-1.99172
1.2872
-1.99725
1.35798
-2.00267
1.43221
-2.00759
1.51101
-2.01249
1.5943
-2.01687
1.68245
-2.021
1.77562
-2.0247
1.87438
-2.02807
1.97837
-2.03067
2.08861
-2.03303
2.20519
-2.03461
2.32841
-2.03591
2.45852
-2.03625
2.59602
-2.03628
2.74164
-2.03532
2.8953
-2.03384
3.05766
-2.03157
3.22917
-2.02873
3.41042
-2.02499
3.60156
-2.02063
3.80396
-2.01526
4.0172
-2.00929
4.24249
-2.00235
4.48049
-1.99482
4.73166
-1.98639
4.99667
-1.97689
5.27644
-1.96668
5.5716
-1.95563
5.88296
-1.94377
6.21154
-1.93097
6.55783
-1.9173
6.9229
-1.90265
7.30758
-1.88746
7.71439
-1.87553
5.90897
-1.86238
6.50283
-1.84788
7.15403
-1.83186
7.87299
-1.81409
8.66188
-1.7944
9.52891
-1.77277
10.4798
-1.74919
11.5251
-1.72403
12.6759
-1.69887
13.9524
-1.67275
15.3727
-1.64441
16.95
18.6845
-1.93993
1.94875
0.225583
0.238079
-1.93866
0.231703
-1.93737
0.244218
-1.93702
0.257398
-1.9367
0.271266
-1.93699
0.285862
-1.937
0.301086
-1.93778
0.317373
-1.93829
0.334378
-1.93942
0.352259
-1.94046
0.371045
-1.94213
0.390975
-1.94376
0.411771
-1.94577
0.433644
-1.94792
0.456779
-1.95061
0.480965
-1.95333
0.506569
-1.95672
0.533469
-1.96003
0.561778
-1.96386
0.591442
-1.9679
0.622934
-1.97243
0.655946
-1.97687
0.690736
-1.98178
0.727358
-1.98686
0.766254
-1.99224
0.806807
-1.99763
0.850021
-2.0034
0.895398
-2.00914
0.943345
-2.01508
0.993974
-2.02109
1.04752
-2.02708
1.10371
-2.03309
1.16361
-2.03915
1.22654
-2.04504
1.29308
-2.05088
1.36359
-2.05637
1.4377
-2.06207
1.5165
-2.06724
1.59946
-2.07238
1.68741
-2.07695
1.78019
-2.08139
1.87867
-2.08522
1.9822
-2.08884
2.09212
-2.092
2.20835
-2.09457
2.33089
-2.09666
2.46061
-2.09828
2.59756
-2.09924
2.74259
-2.09952
2.8955
-2.09931
3.0574
-2.09838
3.22814
-2.09662
3.40862
-2.0943
3.59914
-2.09097
3.80059
-2.08724
4.01339
-2.08235
4.23759
-2.07689
4.47499
-2.07029
4.72507
-2.06313
4.9895
-2.05486
5.2682
-2.0459
5.56264
-2.03587
5.87296
-2.02468
6.20035
-2.01282
6.546
-1.99991
6.90999
-1.9863
7.294
-1.97162
7.69971
-1.96008
5.89745
-1.94715
6.48992
-1.9329
7.13978
-1.91708
7.85721
-1.8994
8.64417
-1.87969
9.50924
-1.85785
10.458
-1.83405
11.5014
-1.80917
12.651
-1.78365
13.927
-1.75717
15.3461
-1.72876
16.9216
18.6504
-2.0394
2.02046
0.226242
0.239083
-2.0432
0.231492
-2.04642
0.243999
-2.04883
0.257044
-2.05044
0.27093
-2.05206
0.28556
-2.05295
0.300836
-2.05407
0.317054
-2.0545
0.33415
-2.05554
0.352144
-2.05593
0.371066
-2.05695
0.391015
-2.05733
0.411994
-2.0586
0.434073
-2.05914
0.457297
-2.06064
0.481734
-2.06159
0.507609
-2.06341
0.534656
-2.06459
0.563127
-2.06695
0.593248
-2.06856
0.624781
-2.07138
0.658267
-2.07361
0.693249
-2.07677
0.730064
-2.07935
0.76915
-2.08314
0.810176
-2.08621
0.853426
-2.09019
0.898974
-2.09373
0.947224
-2.09814
0.998
-2.10197
1.05167
-2.10676
1.10811
-2.1108
1.16796
-2.11574
1.2311
-2.12006
1.29769
-2.12493
1.3681
-2.12935
1.44238
-2.13409
1.52089
-2.13836
1.60399
-2.14315
1.69189
-2.14716
1.78443
-2.15141
1.88263
-2.15516
1.98618
-2.15906
2.09576
-2.16201
2.21149
-2.16512
2.33381
-2.16745
2.46311
-2.16967
2.59962
-2.17097
2.74403
-2.17219
2.89661
-2.17249
3.05785
-2.17234
3.22792
-2.17142
3.40787
-2.17017
3.59784
-2.16782
3.79843
-2.1648
4.01034
-2.16115
4.23412
-2.15665
4.47046
-2.15122
4.7198
-2.14491
4.98316
-2.1377
5.26112
-2.12956
5.55448
-2.12043
5.8639
-2.11035
6.19026
-2.09922
6.53491
-2.08722
6.89797
-2.07397
7.28079
-2.06013
7.68586
-2.04879
5.88615
-2.03613
6.47725
-2.02226
7.12594
-2.00655
7.84149
-1.98888
8.62653
-1.96912
9.48947
-1.94701
10.4359
-1.92328
11.4776
-1.89821
12.626
-1.87286
13.9016
-1.84668
15.32
-1.81786
16.8928
18.6163
-2.13996
2.14147
0.22751
0.240487
-2.14063
0.231714
-2.14057
0.244042
-2.14121
0.257052
-2.14124
0.27091
-2.14182
0.285381
-2.14188
0.300786
-2.14266
0.317007
-2.14259
0.333982
-2.14316
0.351871
-2.14301
0.37085
-2.14372
0.390877
-2.1437
0.41196
-2.14449
0.434028
-2.14456
0.457408
-2.14569
0.48203
-2.14597
0.507975
-2.1474
0.535261
-2.14802
0.563853
-2.14984
0.594262
-2.15101
0.626102
-2.15317
0.659627
-2.15469
0.694947
-2.15752
0.732108
-2.15957
0.771406
-2.16281
0.812642
-2.16542
0.856246
-2.16921
0.901997
-2.17221
0.950441
-2.17652
1.00154
-2.17985
1.05524
-2.18445
1.11197
-2.18807
1.1718
-2.19289
1.23521
-2.19672
1.30176
-2.20172
1.37241
-2.20575
1.44663
-2.21072
1.52522
-2.21484
1.60835
-2.2195
1.69596
-2.22364
1.78878
-2.22817
1.88665
-2.2319
1.99013
-2.23591
2.09932
-2.23915
2.21493
-2.24281
2.3371
-2.24528
2.46577
-2.24817
2.60222
-2.25006
2.74608
-2.25179
2.89809
-2.25267
3.0589
-2.25332
3.22837
-2.25314
3.40785
-2.25236
3.59687
-2.25086
3.79711
-2.24889
4.0082
-2.24572
4.23114
-2.24219
4.46678
-2.23748
4.71526
-2.23217
4.97774
-2.22572
5.25482
-2.21845
5.54713
-2.20994
5.85552
-2.20073
6.18102
-2.19024
6.52452
-2.17877
6.8865
-2.16648
7.2686
-2.15281
7.67219
-2.14179
5.87519
-2.12964
6.46512
-2.11551
7.11185
-2.09985
7.82589
-2.08231
8.60902
-2.06246
9.46974
-2.04058
10.414
-2.01656
11.4537
-1.99198
12.6014
-1.96673
13.8764
-1.94039
15.2937
-1.91184
16.8643
18.5841
-2.24525
2.23403
0.229522
0.242619
-2.24851
0.232416
-2.25077
0.244756
-2.25346
0.257768
-2.25504
0.271617
-2.25724
0.285936
-2.25827
0.30132
-2.26025
0.317516
-2.26088
0.334329
-2.2627
0.352333
-2.26312
0.371151
-2.26468
0.391162
-2.26483
0.412099
-2.26617
0.434174
-2.26623
0.457575
-2.26741
0.482097
-2.26735
0.508103
-2.26846
0.535334
-2.26838
0.56404
-2.26967
0.594586
-2.26955
0.626313
-2.27085
0.660035
-2.2711
0.695581
-2.27283
0.732997
-2.27329
0.772289
-2.27526
0.813827
-2.27618
0.857609
-2.27847
0.903553
-2.27992
0.952343
-2.28257
1.00351
-2.28446
1.05757
-2.2875
1.11437
-2.28982
1.17457
-2.2934
1.23819
-2.29603
1.30482
-2.29985
1.37567
-2.30288
1.45008
-2.30714
1.52898
-2.31036
1.61196
-2.31453
1.69968
-2.31782
1.79245
-2.32194
1.89038
-2.3252
1.99375
-2.32902
2.10281
-2.33213
2.2184
-2.33537
2.34007
-2.33805
2.46881
-2.34073
2.60469
-2.34268
2.74841
-2.34485
2.90011
-2.34581
3.06027
-2.34692
3.22937
-2.34675
3.40816
-2.3467
3.59676
-2.34533
3.79625
-2.34387
4.00672
-2.34122
4.22902
-2.33811
4.4637
-2.33368
4.71134
-2.32885
4.97297
-2.32275
5.24918
-2.31599
5.54047
-2.30788
5.84782
-2.2989
6.17215
-2.28874
6.51469
-2.27771
6.87558
-2.26529
7.25645
-2.25218
7.65916
-2.24131
5.86453
-2.22892
6.45281
-2.21496
7.09805
-2.19922
7.81021
-2.18115
8.59108
-2.16099
9.44959
-2.13858
10.3917
-2.11485
11.43
-2.08979
12.5764
-2.065
13.8517
-2.03964
15.2684
-2.0083
16.833
18.5599
-2.29003
2.28819
-2.29075
-2.29154
-2.29246
-2.29327
-2.29438
-2.29536
-2.29637
-2.29751
-2.29872
-2.29988
-2.30115
-2.30236
-2.30385
-2.30513
-2.30673
-2.30814
-2.30991
-2.31162
-2.31349
-2.31544
-2.31775
-2.31986
-2.32239
-2.32487
-2.32782
-2.33057
-2.33398
-2.33704
-2.34082
-2.34436
-2.34853
-2.35245
-2.35692
-2.36123
-2.36616
-2.37073
-2.37595
-2.3807
-2.38629
-2.39115
-2.39668
-2.40137
-2.40683
-2.41115
-2.41618
-2.41995
-2.42417
-2.42707
-2.43018
-2.43211
-2.43417
-2.43485
-2.43565
-2.43492
-2.43431
-2.43201
-2.42981
-2.42613
-2.42215
-2.41664
-2.41066
-2.4033
-2.39533
-2.38584
-2.37566
-2.36402
-2.35122
-2.34028
-2.32815
-2.31437
-2.29867
-2.28099
-2.26101
-2.23926
-2.21611
-2.19181
-2.16722
-2.14317
-2.10512
)
;

boundaryField
{
    inlet
    {
        type            calculated;
        value           nonuniform List<scalar> 
23
(
-0.627749
-0.659035
-0.691851
-0.726256
-0.762383
-0.800338
-0.840236
-0.882101
-0.926105
-0.972413
-1.02139
-1.07257
-1.12664
-1.32165
-1.38813
-1.45839
-1.53267
-1.61114
-1.69473
-1.7837
-1.87961
-1.98411
-2.10001
)
;
    }
    outlet
    {
        type            calculated;
        value           nonuniform List<scalar> 
82
(
0.231451
0.233146
0.244529
0.24558
0.258681
0.272482
0.287026
0.302358
0.318503
0.335542
0.353497
0.372409
0.392381
0.413425
0.435616
0.459005
0.483666
0.509687
0.537088
0.565982
0.596451
0.628543
0.662363
0.698025
0.735569
0.775147
0.81684
0.860788
0.907047
0.955878
1.00738
1.06163
1.11864
1.17906
1.24277
1.30977
1.38072
1.45535
1.53432
1.61751
1.70541
1.79819
1.89609
1.9994
2.10849
2.22377
2.34537
2.47369
2.60925
2.75247
2.90362
3.06338
3.23188
3.41007
3.59805
3.79677
4.0066
4.22796
4.46196
4.70878
4.96939
5.24459
5.53482
5.84115
6.16444
6.50566
6.86557
7.24513
7.64648
5.85385
6.44077
7.08441
7.79458
8.57347
9.42968
10.37
11.4069
12.5522
13.8271
15.2444
16.795
18.5548
)
;
    }
    walls
    {
        type            calculated;
        value           nonuniform List<scalar> 0();
    }
    frontAndBack
    {
        type            empty;
    }
    procBoundary3to2
    {
        type            processor;
        value           nonuniform List<scalar> 
88
(
-17.0621
-18.765
-14.0783
0.623722
-15.4704
-11.6504
0.654746
-12.804
-8.7614
-9.63583
0.6889
-10.5954
-7.81796
-5.98594
-6.58478
-7.24111
0.725701
-7.96544
-5.9831
-6.31171
-6.65835
-7.02375
0.768944
-7.40885
-4.1108
-4.3366
-4.57513
-4.82655
-5.09191
-5.37205
0.823017
-5.66746
-2.14728
-2.26725
-2.39362
-2.52668
-2.66705
-2.81511
-2.97113
-3.13577
-3.30913
-3.49215
-3.685
0.905696
-3.88861
-0.210646
-0.221669
-0.233374
-0.245735
-0.258824
-0.272693
-0.2874
-0.303007
-0.319526
-0.337084
-0.355716
-0.375552
-0.396559
-0.418877
-0.442624
-0.467877
-0.494657
-0.523114
-0.553378
-0.585487
-0.619592
-0.655762
-0.694157
-0.734828
-0.777963
-0.823601
-0.871896
-0.923039
-0.977146
-1.03428
-1.09443
-1.15823
-1.2255
-1.29628
-1.37119
-1.44993
-1.53316
-1.62076
-1.71314
-1.81046
-1.91295
1.07443
-2.02098
)
;
    }
    procBoundary3to6
    {
        type            processor;
        value           uniform -0.192683;
    }
    procBoundary3to7
    {
        type            processor;
        value           nonuniform List<scalar> 
16
(
1.24545
1.22199
1.20288
1.18449
1.16964
1.82069
1.79767
1.78381
-0.23384
1.81361
1.86124
1.94715
2.01686
2.13877
2.22898
2.28625
)
;
    }
}


// ************************************************************************* //
