/*--------------------------------*- C++ -*----------------------------------*\
| =========                 |                                                 |
| \\      /  F ield         | OpenFOAM: The Open Source CFD Toolbox           |
|  \\    /   O peration     | Version:  2506                                  |
|   \\  /    A nd           | Website:  www.openfoam.com                      |
|    \\/     M anipulation  |                                                 |
\*---------------------------------------------------------------------------*/
FoamFile
{
    version     2.0;
    format      ascii;
    arch        "LSB;label=32;scalar=64";
    class       volScalarField;
    location    "50";
    object      turbulenceProperties:nut;
}
// * * * * * * * * * * * * * * * * * * * * * * * * * * * * * * * * * * * * * //

dimensions      [0 2 -1 0 0 0 0];

internalField   nonuniform List<scalar> 
1340
(
6.12967e-06
6.10418e-06
6.12286e-06
6.11613e-06
6.131e-06
6.10404e-06
6.13567e-06
6.135e-06
6.12328e-06
6.11742e-06
6.13222e-06
6.10386e-06
6.11519e-06
6.12051e-06
6.12913e-06
6.13709e-06
6.13573e-06
6.12367e-06
6.11874e-06
6.13339e-06
6.10366e-06
6.10533e-06
6.10717e-06
6.10904e-06
6.1114e-06
6.11323e-06
6.11611e-06
6.12184e-06
6.13079e-06
6.13849e-06
6.13637e-06
6.124e-06
6.12013e-06
6.13454e-06
6.10345e-06
6.09151e-06
6.09222e-06
6.09413e-06
6.0979e-06
6.10261e-06
6.10628e-06
6.10807e-06
6.10986e-06
6.11213e-06
6.11399e-06
6.1171e-06
6.12325e-06
6.13247e-06
6.13983e-06
6.1369e-06
6.12427e-06
6.12166e-06
6.13574e-06
6.10326e-06
6.10269e-06
6.09988e-06
6.09739e-06
6.09534e-06
6.09385e-06
6.09278e-06
6.0921e-06
6.09201e-06
6.09276e-06
6.09484e-06
6.09881e-06
6.10364e-06
6.10721e-06
6.10892e-06
6.11063e-06
6.11283e-06
6.11475e-06
6.11813e-06
6.1247e-06
6.13415e-06
6.14107e-06
6.13729e-06
6.12447e-06
6.12337e-06
6.13702e-06
6.10306e-06
6.16746e-06
6.15972e-06
6.15259e-06
6.14576e-06
6.1395e-06
6.13384e-06
6.12856e-06
6.12343e-06
6.11861e-06
6.11439e-06
6.11082e-06
6.10754e-06
6.10433e-06
6.10125e-06
6.09853e-06
6.09633e-06
6.09465e-06
6.09339e-06
6.09262e-06
6.09259e-06
6.09343e-06
6.09559e-06
6.09959e-06
6.10455e-06
6.10805e-06
6.10969e-06
6.11133e-06
6.11347e-06
6.11547e-06
6.11917e-06
6.12617e-06
6.13579e-06
6.1422e-06
6.1375e-06
6.12461e-06
6.12531e-06
6.1384e-06
6.10284e-06
7.14841e-06
7.35843e-06
7.36416e-06
7.19913e-06
7.05519e-06
6.96309e-06
6.88643e-06
6.80373e-06
6.71819e-06
6.63823e-06
6.56504e-06
6.49732e-06
6.43596e-06
6.3823e-06
6.33972e-06
6.3103e-06
6.29071e-06
6.28039e-06
6.27717e-06
6.27851e-06
6.28348e-06
6.29064e-06
6.29851e-06
6.30572e-06
6.31134e-06
6.31478e-06
6.31601e-06
6.31511e-06
6.31218e-06
6.30726e-06
6.30055e-06
6.29245e-06
6.28337e-06
6.27364e-06
6.26344e-06
6.25284e-06
6.24195e-06
6.23101e-06
6.22006e-06
6.20902e-06
6.19855e-06
6.1893e-06
6.18116e-06
6.17342e-06
6.16561e-06
6.15796e-06
6.15079e-06
6.14417e-06
6.13808e-06
6.13231e-06
6.12676e-06
6.12158e-06
6.11693e-06
6.1128e-06
6.10922e-06
6.10596e-06
6.10275e-06
6.09981e-06
6.09745e-06
6.09559e-06
6.09415e-06
6.09331e-06
6.09332e-06
6.09423e-06
6.09641e-06
6.10031e-06
6.10527e-06
6.10876e-06
6.11034e-06
6.11193e-06
6.11403e-06
6.11615e-06
6.12019e-06
6.12763e-06
6.13737e-06
6.14316e-06
6.13752e-06
6.1247e-06
6.12753e-06
6.13987e-06
6.10257e-06
7.46107e-06
7.59843e-06
7.50546e-06
7.343e-06
7.22034e-06
7.13063e-06
7.04638e-06
6.95676e-06
6.86667e-06
6.78152e-06
6.70126e-06
6.62483e-06
6.55279e-06
6.48613e-06
6.4263e-06
6.37396e-06
6.32938e-06
6.29433e-06
6.27024e-06
6.25431e-06
6.24611e-06
6.24477e-06
6.24798e-06
6.25389e-06
6.2611e-06
6.26813e-06
6.27406e-06
6.27857e-06
6.28121e-06
6.28175e-06
6.28018e-06
6.2768e-06
6.27193e-06
6.26584e-06
6.25869e-06
6.25059e-06
6.2417e-06
6.23225e-06
6.22218e-06
6.21134e-06
6.20067e-06
6.19175e-06
6.18526e-06
6.17869e-06
6.17079e-06
6.16279e-06
6.15545e-06
6.14858e-06
6.14214e-06
6.13598e-06
6.1301e-06
6.1246e-06
6.11952e-06
6.11498e-06
6.11116e-06
6.10776e-06
6.10437e-06
6.10122e-06
6.09869e-06
6.09666e-06
6.0951e-06
6.09423e-06
6.09425e-06
6.09516e-06
6.09732e-06
6.10106e-06
6.1058e-06
6.10932e-06
6.11085e-06
6.11239e-06
6.11448e-06
6.11676e-06
6.12117e-06
6.12907e-06
6.13886e-06
6.14394e-06
6.13732e-06
6.12478e-06
6.13007e-06
6.14143e-06
6.10221e-06
7.75919e-06
7.7752e-06
7.62329e-06
7.47798e-06
7.37259e-06
7.28332e-06
7.19229e-06
7.09727e-06
7.00412e-06
6.91559e-06
6.83083e-06
6.74932e-06
6.67168e-06
6.59864e-06
6.53079e-06
6.46836e-06
6.41153e-06
6.36089e-06
6.31681e-06
6.2797e-06
6.25196e-06
6.23525e-06
6.22552e-06
6.22223e-06
6.22406e-06
6.22861e-06
6.23469e-06
6.24147e-06
6.24773e-06
6.25245e-06
6.25539e-06
6.25647e-06
6.25581e-06
6.25352e-06
6.24968e-06
6.24439e-06
6.23781e-06
6.23004e-06
6.2211e-06
6.21118e-06
6.20175e-06
6.19458e-06
6.18936e-06
6.18289e-06
6.17485e-06
6.16689e-06
6.15957e-06
6.15258e-06
6.14592e-06
6.13951e-06
6.13337e-06
6.12758e-06
6.12219e-06
6.11745e-06
6.11346e-06
6.1098e-06
6.10615e-06
6.10281e-06
6.10013e-06
6.09794e-06
6.09629e-06
6.0954e-06
6.0954e-06
6.09628e-06
6.09836e-06
6.10187e-06
6.10621e-06
6.10974e-06
6.11123e-06
6.11273e-06
6.11482e-06
6.11729e-06
6.12213e-06
6.13046e-06
6.14024e-06
6.1445e-06
6.1369e-06
6.1249e-06
6.13295e-06
6.14304e-06
6.10174e-06
7.95459e-06
7.87307e-06
7.72086e-06
7.60315e-06
7.51004e-06
7.42077e-06
7.32639e-06
7.22952e-06
7.13521e-06
7.04443e-06
6.9564e-06
6.8712e-06
6.78959e-06
6.71215e-06
6.63913e-06
6.57053e-06
6.50628e-06
6.44653e-06
6.39166e-06
6.3424e-06
6.30017e-06
6.26529e-06
6.23781e-06
6.21928e-06
6.20914e-06
6.20422e-06
6.20452e-06
6.2088e-06
6.21445e-06
6.22055e-06
6.22638e-06
6.23109e-06
6.23428e-06
6.23573e-06
6.23539e-06
6.23326e-06
6.22931e-06
6.22358e-06
6.21636e-06
6.20842e-06
6.20147e-06
6.19655e-06
6.19201e-06
6.18532e-06
6.17747e-06
6.1699e-06
6.16279e-06
6.15586e-06
6.14915e-06
6.14261e-06
6.13631e-06
6.1303e-06
6.12474e-06
6.11993e-06
6.11581e-06
6.11187e-06
6.10798e-06
6.10449e-06
6.10166e-06
6.09934e-06
6.09763e-06
6.0967e-06
6.09665e-06
6.09748e-06
6.09944e-06
6.10267e-06
6.10657e-06
6.11008e-06
6.11155e-06
6.11301e-06
6.11511e-06
6.11781e-06
6.12309e-06
6.13186e-06
6.14153e-06
6.14488e-06
6.13628e-06
6.12498e-06
6.13615e-06
6.14466e-06
6.10109e-06
8.00548e-06
7.89168e-06
7.77566e-06
7.68769e-06
7.60776e-06
7.52367e-06
7.43332e-06
7.34106e-06
7.25012e-06
7.16064e-06
7.07248e-06
6.9863e-06
6.90301e-06
6.82313e-06
6.74684e-06
6.67408e-06
6.60477e-06
6.53904e-06
6.47733e-06
6.42035e-06
6.36893e-06
6.32338e-06
6.28407e-06
6.25147e-06
6.22514e-06
6.20608e-06
6.19609e-06
6.19159e-06
6.1912e-06
6.19434e-06
6.19932e-06
6.2048e-06
6.21007e-06
6.21437e-06
6.21701e-06
6.21783e-06
6.21653e-06
6.21307e-06
6.2081e-06
6.20282e-06
6.19871e-06
6.19572e-06
6.19172e-06
6.1854e-06
6.17834e-06
6.17152e-06
6.1649e-06
6.15828e-06
6.15174e-06
6.14527e-06
6.13895e-06
6.13289e-06
6.12734e-06
6.12257e-06
6.11831e-06
6.11414e-06
6.11008e-06
6.10647e-06
6.10351e-06
6.10109e-06
6.09932e-06
6.09835e-06
6.09822e-06
6.09896e-06
6.10076e-06
6.10368e-06
6.10712e-06
6.11019e-06
6.11169e-06
6.11311e-06
6.11516e-06
6.11816e-06
6.12393e-06
6.13312e-06
6.14261e-06
6.14493e-06
6.13537e-06
6.12539e-06
6.13975e-06
6.14627e-06
6.10023e-06
7.93471e-06
7.85222e-06
7.78193e-06
7.72027e-06
7.65603e-06
7.58534e-06
7.50949e-06
7.43114e-06
7.35137e-06
7.27026e-06
7.1883e-06
7.10647e-06
7.02557e-06
6.94615e-06
6.86848e-06
6.79272e-06
6.71911e-06
6.64811e-06
6.58043e-06
6.51672e-06
6.4576e-06
6.40333e-06
6.35413e-06
6.31013e-06
6.27142e-06
6.23889e-06
6.21281e-06
6.19339e-06
6.18205e-06
6.17709e-06
6.1765e-06
6.17949e-06
6.18467e-06
6.19054e-06
6.19615e-06
6.20047e-06
6.20236e-06
6.2019e-06
6.20008e-06
6.19825e-06
6.19709e-06
6.19556e-06
6.19202e-06
6.18651e-06
6.18058e-06
6.17465e-06
6.1686e-06
6.16235e-06
6.15598e-06
6.14957e-06
6.14322e-06
6.13716e-06
6.13164e-06
6.1268e-06
6.12227e-06
6.11777e-06
6.1135e-06
6.10973e-06
6.10659e-06
6.10401e-06
6.10213e-06
6.10101e-06
6.10071e-06
6.10127e-06
6.10282e-06
6.10533e-06
6.10821e-06
6.11071e-06
6.11215e-06
6.11346e-06
6.1153e-06
6.11849e-06
6.12492e-06
6.13459e-06
6.14374e-06
6.14475e-06
6.13426e-06
6.1267e-06
6.1441e-06
6.148e-06
6.09927e-06
7.81174e-06
7.76368e-06
7.72055e-06
7.67672e-06
7.6285e-06
7.57581e-06
7.51997e-06
7.46157e-06
7.40034e-06
7.33614e-06
7.26929e-06
7.20037e-06
7.12975e-06
7.05782e-06
6.98489e-06
6.91145e-06
6.83815e-06
6.7659e-06
6.6956e-06
6.62804e-06
6.56383e-06
6.50326e-06
6.44661e-06
6.39409e-06
6.34606e-06
6.30309e-06
6.26542e-06
6.23348e-06
6.20765e-06
6.18743e-06
6.17328e-06
6.1661e-06
6.16377e-06
6.16518e-06
6.16978e-06
6.1753e-06
6.17982e-06
6.18296e-06
6.18535e-06
6.18792e-06
6.19023e-06
6.19073e-06
6.18859e-06
6.18472e-06
6.18038e-06
6.17574e-06
6.17068e-06
6.16523e-06
6.15946e-06
6.15346e-06
6.14742e-06
6.14162e-06
6.13631e-06
6.13146e-06
6.12672e-06
6.12202e-06
6.11763e-06
6.11373e-06
6.11042e-06
6.10768e-06
6.10562e-06
6.10429e-06
6.10376e-06
6.10406e-06
6.10526e-06
6.10726e-06
6.10952e-06
6.11143e-06
6.11267e-06
6.11379e-06
6.11547e-06
6.11907e-06
6.12628e-06
6.13638e-06
6.14489e-06
6.14423e-06
6.13303e-06
6.12903e-06
6.14908e-06
6.14955e-06
6.09784e-06
7.65629e-06
7.63231e-06
7.60537e-06
7.57476e-06
7.54065e-06
7.50393e-06
7.46519e-06
7.42433e-06
7.38079e-06
7.33432e-06
7.28481e-06
7.23211e-06
7.17613e-06
7.1169e-06
7.05465e-06
6.98988e-06
6.92335e-06
6.85604e-06
6.78885e-06
6.72261e-06
6.65795e-06
6.59535e-06
6.5353e-06
6.4783e-06
6.42487e-06
6.37557e-06
6.33076e-06
6.29077e-06
6.25577e-06
6.22552e-06
6.20015e-06
6.17957e-06
6.16369e-06
6.15413e-06
6.15204e-06
6.15344e-06
6.15691e-06
6.16136e-06
6.16619e-06
6.17192e-06
6.17728e-06
6.18043e-06
6.18078e-06
6.17933e-06
6.17699e-06
6.1739e-06
6.17012e-06
6.16575e-06
6.1609e-06
6.15565e-06
6.15022e-06
6.14493e-06
6.13997e-06
6.13524e-06
6.13049e-06
6.12578e-06
6.12137e-06
6.11741e-06
6.11398e-06
6.11111e-06
6.10888e-06
6.10736e-06
6.1066e-06
6.10664e-06
6.10751e-06
6.10906e-06
6.11078e-06
6.11219e-06
6.11315e-06
6.11405e-06
6.11575e-06
6.11989e-06
6.12789e-06
6.13828e-06
6.14589e-06
6.14343e-06
6.13197e-06
6.13224e-06
6.15418e-06
6.15068e-06
6.09601e-06
7.44773e-06
7.4779e-06
7.44575e-06
7.43463e-06
7.4193e-06
7.40087e-06
7.37964e-06
7.35618e-06
7.33041e-06
7.30223e-06
7.27147e-06
7.2379e-06
7.20113e-06
7.16082e-06
7.11675e-06
7.06895e-06
7.01767e-06
6.96338e-06
6.90674e-06
6.84838e-06
6.78898e-06
6.72914e-06
6.66952e-06
6.61081e-06
6.55372e-06
6.49898e-06
6.44719e-06
6.39883e-06
6.35419e-06
6.31338e-06
6.27621e-06
6.24264e-06
6.21279e-06
6.18741e-06
6.16815e-06
6.15549e-06
6.14819e-06
6.14543e-06
6.146e-06
6.14845e-06
6.15348e-06
6.15976e-06
6.16476e-06
6.16792e-06
6.1696e-06
6.16996e-06
6.16905e-06
6.16701e-06
6.16407e-06
6.1604e-06
6.15611e-06
6.1515e-06
6.1469e-06
6.14244e-06
6.13801e-06
6.13344e-06
6.12889e-06
6.12458e-06
6.12063e-06
6.11715e-06
6.1142e-06
6.11186e-06
6.11019e-06
6.10925e-06
6.10908e-06
6.10968e-06
6.11085e-06
6.11211e-06
6.11305e-06
6.11365e-06
6.11438e-06
6.11622e-06
6.12092e-06
6.12972e-06
6.14022e-06
6.14665e-06
6.14233e-06
6.13121e-06
6.13633e-06
6.15934e-06
6.15135e-06
6.09378e-06
7.25858e-06
7.28971e-06
7.25621e-06
7.25175e-06
7.24528e-06
7.23786e-06
7.22819e-06
7.21644e-06
7.20243e-06
7.18619e-06
7.16768e-06
7.14676e-06
7.12319e-06
7.09667e-06
7.06697e-06
7.03388e-06
6.99738e-06
6.95752e-06
6.9145e-06
6.86854e-06
6.82005e-06
6.76951e-06
6.71755e-06
6.66487e-06
6.61223e-06
6.56039e-06
6.50996e-06
6.46146e-06
6.41519e-06
6.37132e-06
6.32988e-06
6.29109e-06
6.25553e-06
6.22437e-06
6.19902e-06
6.17973e-06
6.16541e-06
6.1545e-06
6.14583e-06
6.14031e-06
6.13991e-06
6.143e-06
6.14722e-06
6.15184e-06
6.15588e-06
6.15899e-06
6.1608e-06
6.16109e-06
6.16008e-06
6.15791e-06
6.15486e-06
6.15131e-06
6.14761e-06
6.14384e-06
6.13988e-06
6.13568e-06
6.13142e-06
6.1273e-06
6.12346e-06
6.12002e-06
6.11708e-06
6.1147e-06
6.11294e-06
6.11187e-06
6.11153e-06
6.11192e-06
6.11278e-06
6.11363e-06
6.11405e-06
6.11421e-06
6.1148e-06
6.11688e-06
6.12216e-06
6.13174e-06
6.14214e-06
6.14706e-06
6.14088e-06
6.13069e-06
6.1414e-06
6.16455e-06
6.15148e-06
6.09113e-06
7.19423e-06
7.23926e-06
7.15714e-06
7.13548e-06
7.11723e-06
7.10391e-06
7.09222e-06
7.08125e-06
7.07007e-06
7.05821e-06
7.04535e-06
7.03128e-06
7.01579e-06
6.99861e-06
6.97952e-06
6.95821e-06
6.93441e-06
6.90786e-06
6.87836e-06
6.84582e-06
6.81029e-06
6.77198e-06
6.73126e-06
6.68859e-06
6.64453e-06
6.59964e-06
6.5544e-06
6.50929e-06
6.46469e-06
6.421e-06
6.37869e-06
6.33834e-06
6.30089e-06
6.26739e-06
6.23872e-06
6.21465e-06
6.194e-06
6.17559e-06
6.15923e-06
6.14639e-06
6.13828e-06
6.13447e-06
6.13455e-06
6.13724e-06
6.14114e-06
6.1457e-06
6.14951e-06
6.15208e-06
6.15327e-06
6.15299e-06
6.1516e-06
6.14951e-06
6.14703e-06
6.14419e-06
6.1409e-06
6.13722e-06
6.13339e-06
6.12958e-06
6.12595e-06
6.12267e-06
6.11983e-06
6.11748e-06
6.11567e-06
6.11452e-06
6.11408e-06
6.11433e-06
6.11493e-06
6.11531e-06
6.1151e-06
6.11476e-06
6.11531e-06
6.11774e-06
6.12366e-06
6.13394e-06
6.14393e-06
6.14702e-06
6.13913e-06
6.13105e-06
6.14749e-06
6.16974e-06
6.151e-06
6.08812e-06
7.33471e-06
7.40713e-06
7.23883e-06
7.17558e-06
7.12256e-06
7.08161e-06
7.04825e-06
7.02054e-06
6.99663e-06
6.97531e-06
6.9557e-06
6.93726e-06
6.91957e-06
6.90231e-06
6.88517e-06
6.86783e-06
6.84987e-06
6.83091e-06
6.8105e-06
6.78831e-06
6.76403e-06
6.73749e-06
6.70862e-06
6.67748e-06
6.64417e-06
6.60889e-06
6.57185e-06
6.53345e-06
6.49418e-06
6.45471e-06
6.41577e-06
6.37811e-06
6.34245e-06
6.30934e-06
6.27901e-06
6.25114e-06
6.22517e-06
6.20098e-06
6.17932e-06
6.16153e-06
6.14816e-06
6.1388e-06
6.13294e-06
6.13014e-06
6.13061e-06
6.13365e-06
6.13734e-06
6.14108e-06
6.14383e-06
6.14537e-06
6.14592e-06
6.14564e-06
6.14472e-06
6.14308e-06
6.14068e-06
6.13775e-06
6.13451e-06
6.13116e-06
6.1279e-06
6.12491e-06
6.12227e-06
6.12001e-06
6.11822e-06
6.11705e-06
6.1166e-06
6.11677e-06
6.11712e-06
6.11696e-06
6.116e-06
6.11514e-06
6.11577e-06
6.11874e-06
6.12551e-06
6.13633e-06
6.14553e-06
6.14647e-06
6.13729e-06
6.13275e-06
6.15453e-06
6.17478e-06
6.14959e-06
6.08441e-06
7.60924e-06
7.70501e-06
7.46647e-06
7.35923e-06
7.26662e-06
7.19002e-06
7.12577e-06
7.07136e-06
7.02457e-06
6.98361e-06
6.94715e-06
6.91423e-06
6.88422e-06
6.8567e-06
6.83134e-06
6.80787e-06
6.78597e-06
6.76529e-06
6.74542e-06
6.7259e-06
6.70626e-06
6.68603e-06
6.6648e-06
6.64216e-06
6.61782e-06
6.59154e-06
6.56328e-06
6.53327e-06
6.50195e-06
6.46997e-06
6.43786e-06
6.406e-06
6.37449e-06
6.34332e-06
6.31255e-06
6.28241e-06
6.25341e-06
6.22642e-06
6.20243e-06
6.18211e-06
6.1654e-06
6.15191e-06
6.14143e-06
6.134e-06
6.12973e-06
6.12823e-06
6.1292e-06
6.13177e-06
6.13445e-06
6.13699e-06
6.13894e-06
6.14032e-06
6.14099e-06
6.14066e-06
6.13939e-06
6.13739e-06
6.13492e-06
6.1322e-06
6.12947e-06
6.12689e-06
6.12453e-06
6.12242e-06
6.12071e-06
6.1196e-06
6.11921e-06
6.11934e-06
6.11938e-06
6.11857e-06
6.11688e-06
6.1156e-06
6.11645e-06
6.12017e-06
6.12795e-06
6.13892e-06
6.14676e-06
6.14532e-06
6.13572e-06
6.13647e-06
6.16258e-06
6.1793e-06
6.14725e-06
6.0806e-06
7.93246e-06
8.02619e-06
7.78982e-06
7.66076e-06
7.54247e-06
7.43598e-06
7.34151e-06
7.25794e-06
7.18382e-06
7.11759e-06
7.05785e-06
7.00345e-06
6.95355e-06
6.90753e-06
6.86506e-06
6.8259e-06
6.78991e-06
6.75692e-06
6.72673e-06
6.69904e-06
6.67348e-06
6.64961e-06
6.62696e-06
6.60499e-06
6.58321e-06
6.56116e-06
6.53857e-06
6.51539e-06
6.49174e-06
6.46777e-06
6.44334e-06
6.41802e-06
6.39124e-06
6.36276e-06
6.33299e-06
6.30302e-06
6.2742e-06
6.24765e-06
6.22394e-06
6.20301e-06
6.18453e-06
6.16836e-06
6.1547e-06
6.14383e-06
6.13586e-06
6.13063e-06
6.12788e-06
6.12694e-06
6.12723e-06
6.12876e-06
6.13059e-06
6.13256e-06
6.13431e-06
6.13512e-06
6.13509e-06
6.13427e-06
6.13285e-06
6.13108e-06
6.12915e-06
6.1272e-06
6.12527e-06
6.12346e-06
6.12198e-06
6.12113e-06
6.12097e-06
6.12116e-06
6.12089e-06
6.11935e-06
6.11682e-06
6.11515e-06
6.1165e-06
6.12136e-06
6.13043e-06
6.14143e-06
6.14784e-06
6.14409e-06
6.13435e-06
6.14035e-06
6.17016e-06
6.18334e-06
6.14363e-06
6.0768e-06
7.66613e-06
7.69976e-06
7.6389e-06
7.58984e-06
7.53527e-06
7.47545e-06
7.41396e-06
7.3528e-06
7.29316e-06
7.23561e-06
7.18023e-06
7.12689e-06
7.07538e-06
7.02552e-06
6.97721e-06
6.93043e-06
6.88525e-06
6.84177e-06
6.80014e-06
6.76053e-06
6.72311e-06
6.68802e-06
6.65534e-06
6.62504e-06
6.59697e-06
6.57084e-06
6.54637e-06
6.52323e-06
6.50104e-06
6.47922e-06
6.4569e-06
6.43311e-06
6.40727e-06
6.37961e-06
6.35126e-06
6.32369e-06
6.29801e-06
6.2745e-06
6.2528e-06
6.23246e-06
6.2134e-06
6.19595e-06
6.18057e-06
6.16756e-06
6.15699e-06
6.14876e-06
6.14262e-06
6.138e-06
6.1345e-06
6.13194e-06
6.13032e-06
6.13003e-06
6.13053e-06
6.13093e-06
6.13098e-06
6.13065e-06
6.13002e-06
6.12911e-06
6.12803e-06
6.12685e-06
6.12559e-06
6.12436e-06
6.12349e-06
6.12326e-06
6.12359e-06
6.12386e-06
6.12305e-06
6.12075e-06
6.11808e-06
6.11701e-06
6.11954e-06
6.12591e-06
6.1359e-06
6.14526e-06
6.14778e-06
6.14097e-06
6.13546e-06
6.15291e-06
6.18415e-06
6.1863e-06
6.13792e-06
6.07677e-06
)
;

boundaryField
{
    inlet
    {
        type            freestream;
        freestreamValue uniform 1e-05;
        value           uniform 1e-05;
    }
    outlet
    {
        type            freestream;
        freestreamValue uniform 1e-05;
        value           nonuniform List<scalar> 
82
(
7.66613e-06
7.6389e-06
7.69976e-06
7.58984e-06
7.53527e-06
7.47545e-06
7.41396e-06
7.3528e-06
7.29316e-06
7.23561e-06
7.18023e-06
7.12689e-06
7.07538e-06
7.02552e-06
6.97721e-06
6.93043e-06
6.88525e-06
6.84177e-06
6.80014e-06
6.76053e-06
6.72311e-06
6.68802e-06
6.65534e-06
6.62504e-06
6.59697e-06
6.57084e-06
6.54637e-06
6.52323e-06
6.50104e-06
6.47922e-06
6.4569e-06
6.43311e-06
6.40727e-06
6.37961e-06
6.35126e-06
6.32369e-06
6.29801e-06
6.2745e-06
6.2528e-06
6.23246e-06
6.2134e-06
6.19595e-06
6.18057e-06
6.16756e-06
6.15699e-06
6.14876e-06
6.14262e-06
6.138e-06
6.1345e-06
6.13194e-06
6.13032e-06
6.13003e-06
6.13053e-06
6.13093e-06
6.13098e-06
6.13065e-06
6.13002e-06
6.12911e-06
6.12803e-06
6.12685e-06
6.12559e-06
6.12436e-06
6.12349e-06
6.12326e-06
6.12359e-06
6.12386e-06
6.12305e-06
6.12075e-06
6.11808e-06
6.11701e-06
6.11954e-06
6.12591e-06
6.1359e-06
6.14526e-06
6.14778e-06
6.14097e-06
6.13546e-06
6.15291e-06
6.18415e-06
6.1863e-06
6.13792e-06
6.07677e-06
)
;
    }
    walls
    {
        type            nutUSpaldingWallFunction;
        value           nonuniform List<scalar> 0();
    }
    frontAndBack
    {
        type            empty;
    }
    procBoundary3to2
    {
        type            processor;
        value           nonuniform List<scalar> 
88
(
6.12812e-06
6.10421e-06
6.12238e-06
6.11482e-06
6.11482e-06
6.13422e-06
6.13419e-06
6.13419e-06
6.11435e-06
6.11926e-06
6.12753e-06
6.12753e-06
6.1044e-06
6.10626e-06
6.10823e-06
6.11069e-06
6.11251e-06
6.11251e-06
6.09106e-06
6.09175e-06
6.09344e-06
6.09692e-06
6.10157e-06
6.10157e-06
6.10076e-06
6.09842e-06
6.09619e-06
6.09436e-06
6.09305e-06
6.09215e-06
6.09156e-06
6.09156e-06
6.15955e-06
6.15271e-06
6.14614e-06
6.13986e-06
6.13409e-06
6.12898e-06
6.12431e-06
6.11974e-06
6.11536e-06
6.11153e-06
6.10835e-06
6.10548e-06
6.10548e-06
7.10038e-06
7.14124e-06
6.99317e-06
6.85036e-06
6.76036e-06
6.68935e-06
6.61563e-06
6.54234e-06
6.47789e-06
6.42455e-06
6.3836e-06
6.35568e-06
6.33813e-06
6.33067e-06
6.33096e-06
6.33625e-06
6.34479e-06
6.35422e-06
6.36302e-06
6.37052e-06
6.37597e-06
6.37904e-06
6.37948e-06
6.37719e-06
6.37234e-06
6.36522e-06
6.35616e-06
6.34545e-06
6.33337e-06
6.32027e-06
6.30656e-06
6.29266e-06
6.27888e-06
6.26538e-06
6.25217e-06
6.23929e-06
6.22685e-06
6.21499e-06
6.20394e-06
6.19379e-06
6.18451e-06
6.17568e-06
6.17568e-06
)
;
    }
    procBoundary3to6
    {
        type            processor;
        value           uniform 6.94579e-06;
    }
    procBoundary3to7
    {
        type            processor;
        value           nonuniform List<scalar> 
16
(
7.30204e-06
7.42972e-06
7.62313e-06
7.83822e-06
7.98039e-06
7.98345e-06
7.86588e-06
7.68036e-06
7.68036e-06
7.49364e-06
7.30927e-06
7.29158e-06
7.50603e-06
7.83397e-06
8.13304e-06
7.70741e-06
)
;
    }
}


// ************************************************************************* //
