/*--------------------------------*- C++ -*----------------------------------*\
| =========                 |                                                 |
| \\      /  F ield         | OpenFOAM: The Open Source CFD Toolbox           |
|  \\    /   O peration     | Version:  2506                                  |
|   \\  /    A nd           | Website:  www.openfoam.com                      |
|    \\/     M anipulation  |                                                 |
\*---------------------------------------------------------------------------*/
FoamFile
{
    version     2.0;
    format      ascii;
    arch        "LSB;label=32;scalar=64";
    class       surfaceScalarField;
    location    "30.0155191";
    object      ddtCorrDdt0(phi);
}
// * * * * * * * * * * * * * * * * * * * * * * * * * * * * * * * * * * * * * //

dimensions      [0 3 -2 0 0 0 0];

oriented        oriented;

internalField   nonuniform List<scalar> 
19160
(
-0.000156162
-0.000115312
-0.000312137
-4.81293e-05
-7.28657e-05
-4.24456e-05
-0.000468416
7.14572e-05
-0.000139473
1.84787e-05
-2.18884e-05
-2.05571e-05
-0.000630588
0.000257656
-0.00020144
0.000133424
-3.67647e-05
3.33551e-05
3.13366e-05
-5.18934e-05
-0.000802795
0.000517556
-0.000258508
0.000314724
-4.30314e-05
0.000139691
7.16382e-05
-6.94625e-06
7.84383e-05
-0.000130332
-0.000991811
0.000864064
-0.000310003
0.000569051
-3.76332e-05
0.000309326
0.000124627
8.67021e-05
0.00016742
-9.59277e-05
0.000118848
-0.000249179
-0.00120181
0.00131711
-0.000355987
0.000910048
-1.65799e-05
0.000547998
0.000196238
0.000237716
0.000272431
-1.83082e-05
0.000249277
-0.000226357
0.000149737
-0.000398916
-0.00142348
0.0019127
-0.000394438
0.00135556
2.55576e-05
0.000867911
0.000293511
0.000450725
0.000402147
0.000107999
0.00039878
-0.000167811
0.000313068
-0.000389687
0.000174922
-0.000573838
-0.00166421
0.00266213
-0.000409589
0.00192785
9.68716e-05
0.00128424
0.000425197
0.000736225
0.000566143
0.000286729
0.000578051
-7.12715e-05
0.000497477
-0.000352219
0.000357741
-0.000572505
0.000185559
-0.000759396
-0.00193655
0.00360522
-0.000400498
0.00265304
0.000207054
0.00181767
0.000602359
0.00110708
0.000776006
0.000526362
0.000798876
6.5905e-05
0.000715262
-0.000289057
0.000565519
-0.000559997
0.000379841
-0.000766787
0.000182245
-0.00094164
-0.00225136
0.00482589
-0.000362528
0.00356725
0.000367996
0.0024921
0.000839513
0.00158052
0.00104577
0.000837314
0.00107497
0.000250267
0.000980336
-0.000199168
0.000809808
-0.000533345
0.000599907
-0.000780062
0.000379645
-0.000964186
0.000172826
-0.00111447
-0.00257847
0.00635558
-0.000259066
0.00472243
0.000596365
0.00333888
0.00115502
0.00217659
0.00139277
0.00123353
0.00142257
0.000489718
0.00130797
-7.73625e-05
0.00110557
-0.000494935
0.000858194
-0.000791632
0.000598831
-0.000999248
0.000356004
-0.00114736
0.000150833
-0.0012653
-0.00288197
0.00806033
-4.11932e-05
0.00613771
0.000925709
0.00439308
0.0015735
0.0029204
0.00183842
0.00173094
0.00186112
0.000794978
0.00171598
8.1708e-05
0.00146922
-0.000441008
0.00117031
-0.000807048
0.000857277
-0.00105008
0.000562852
-0.0012061
0.000310551
-0.00130708
0.000118284
-0.00138358
-0.00300899
0.00981838
0.000280556
0.00773858
0.00139364
0.00566977
0.0021283
0.00383828
0.0024103
0.00234852
0.00241411
0.00117794
0.00222522
0.000285735
0.00191962
-0.000368692
0.00155363
-0.00082433
0.00117025
-0.00112002
0.000807686
-0.00129491
0.000492303
-0.00138785
0.000244036
-0.00143283
7.62314e-05
-0.00145981
-0.00287014
0.0112737
0.000819435
0.0092795
0.00203262
0.0070996
0.00285682
0.00494125
0.00314367
0.00310491
0.00311047
0.00165216
0.00286014
0.000543024
0.00247853
-0.000273179
0.00202776
-0.000842817
0.00155575
-0.00120983
0.0011064
-0.00141873
0.000710036
-0.00151264
0.000389162
-0.00153297
0.000158167
-0.00151477
2.63679e-05
-0.00148618
-0.0024207
0.0122228
0.00167609
0.0104171
0.00287428
0.00843785
0.0037876
0.00616882
0.0040781
0.00400683
0.00398532
0.00223006
0.00364965
0.000862643
0.00317083
-0.000149268
0.00261507
-0.000860493
0.00203376
-0.00132083
0.00147691
-0.00158034
0.000979165
-0.00168786
0.000566901
-0.00169038
0.000255926
-0.00163073
5.62557e-05
-0.00154466
-2.95433e-05
-0.00145664
-0.0017498
0.0127787
0.00288247
0.0110164
0.00397561
0.00931572
0.0049266
0.00729884
0.00523891
0.00500801
0.0050768
0.00291535
0.00462735
0.00125237
0.00402495
8.51929e-06
0.00334072
-0.000874913
0.00262714
-0.00145387
0.00193943
-0.00178336
0.00131721
-0.00191838
0.000791615
-0.00191258
0.000381393
-0.00181585
9.7564e-05
-0.00167204
-5.81727e-05
-0.00151603
-8.91269e-05
-0.00136751
-0.00106661
0.0129786
0.00432618
0.011335
0.00538967
0.00960234
0.00627136
0.00797096
0.00660902
0.00592873
0.00640917
0.00367564
0.00582889
0.00171381
0.0050725
0.000204817
0.00423276
-0.000883522
0.0033614
-0.00160917
0.00251723
-0.00203167
0.00174432
-0.00221046
0.00108
-0.00220676
0.00054727
-0.00207845
0.000160141
-0.00187843
-8.05849e-05
-0.00164963
-0.000180439
-0.00142471
-0.000149761
-0.00121775
-0.00050733
0.012587
0.00573219
0.0115726
0.00708021
0.00964447
0.00786555
0.00800815
0.00813699
0.00644299
0.00795809
0.00437981
0.00727848
0.00222605
0.006346
0.000440312
0.00532126
-0.000883684
0.00426474
-0.00178686
0.00323652
-0.00232845
0.00228405
-0.0025714
0.00145167
-0.00258214
0.000768773
-0.00242827
0.000254349
-0.00217266
-8.97347e-05
-0.00186928
-0.000271351
-0.00155871
-0.000305233
-0.00126924
-0.000208634
-0.00100911
-5.81714e-05
0.0115931
0.00685793
0.0114613
0.00880783
0.00984499
0.00975596
0.00775407
0.00982595
0.00631919
0.00963954
0.00476154
0.00895517
0.00270312
0.00786921
0.000702844
0.00663613
-0.000874562
0.00536683
-0.00198577
0.00412647
-0.00267681
0.00296357
-0.00300797
0.00193027
-0.00304999
0.00106436
-0.00287773
0.000393138
-0.00256706
-7.83233e-05
-0.00218407
-0.000358496
-0.00178213
-0.000466535
-0.00139741
-0.00042678
-0.00105109
-0.000262972
-0.000746141
0.000309955
0.010195
0.00769402
0.010757
0.0102617
0.0100074
0.0118001
0.00780085
0.0117755
0.0058045
0.0114004
0.00455834
0.0107652
0.00295153
0.00962996
0.000942371
0.00820049
-0.000861515
0.00669659
-0.00220432
0.00521804
-0.00307735
0.00381389
-0.00352713
0.00254395
-0.00362165
0.00145711
-0.00344274
0.000592912
-0.0030775
-3.66238e-05
-0.00260875
-0.000438383
-0.00210418
-0.000634753
-0.00161391
-0.000657227
-0.00116697
-0.000538119
-0.000775947
-0.000310924
-0.000435216
0.000553435
0.00868527
0.00831618
0.00957282
0.0113011
0.00971757
0.0136624
0.00814516
0.0139946
0.00558176
0.0133312
0.0038737
0.0126034
0.00272014
0.0115456
0.00103586
0.0100111
-0.00086824
0.00827716
-0.00244209
0.00654189
-0.00352817
0.00486904
-0.00413249
0.00332615
-0.00430934
0.00197574
-0.00414029
0.000875184
-0.00372501
4.8536e-05
-0.00316266
-0.000505573
-0.00254156
-0.000810894
-0.00192804
-0.000905945
-0.00136519
-0.000832446
-0.000872638
-0.000633675
-0.000453195
-0.000346105
-8.9111e-05
0.000604156
0.00731203
0.00870675
0.00829469
0.0119871
0.00888687
0.0150196
0.00836036
0.0162156
0.0059242
0.0155934
0.00331956
0.0144939
0.00198317
0.013483
0.000782802
0.0120078
-0.000960819
0.0101132
-0.0027043
0.00812427
-0.00402447
0.00616427
-0.0048234
0.00431545
-0.00512179
0.00265608
-0.00498968
0.00126821
-0.00453332
0.000195615
-0.00387209
-0.000551558
-0.00311668
-0.000994831
-0.00235763
-0.00117907
-0.00165492
-0.00115635
-0.00104129
-0.000983003
-0.00052331
-0.000706629
-9.26704e-05
-0.000368025
0.000278914
0.000423161
0.00626334
0.00875867
0.00726012
0.0124034
0.00787834
0.0158324
0.008074
0.0179981
0.00657784
0.0180575
0.00346011
0.0166829
0.00113053
0.0153823
8.38472e-05
0.01406
-0.00126946
0.0121671
-0.00301469
0.00997721
-0.00455724
0.00773242
-0.00559261
0.00555436
-0.00606231
0.00354183
-0.00600754
0.00180919
-0.00553066
0.000430533
-0.00476823
-0.000562922
-0.00386072
-0.00118425
-0.00292726
-0.00148264
-0.00205406
-0.00152149
-0.00128978
-0.00137266
-0.00065163
-0.0010989
-0.000131036
-0.000753207
0.000292512
-0.000375496
0.00065441
-8.25015e-06
0.00567353
0.0083676
0.0066544
0.012522
0.00714152
0.0162537
0.00745704
0.0191333
0.00693876
0.0203144
0.00432089
0.0191966
0.000946485
0.0174384
-0.000925635
0.0160485
-0.00190465
0.0143282
-0.00343052
0.012082
-0.00511943
0.0095953
-0.00642013
0.00708583
-0.00712408
0.00468413
-0.00720461
0.00254614
-0.00674448
0.000789575
-0.0058897
-0.000518821
-0.00481234
-0.00137303
-0.00367194
-0.00182195
-0.00258795
-0.00194053
-0.00163501
-0.0018195
-0.000842941
-0.00154043
-0.000210101
-0.00117303
0.000288787
-0.00076834
0.000685357
-0.000367564
0.00102197
-0.000494107
0.00374853
0.00749365
0.00654747
0.0122421
0.00693435
0.01637
0.00702526
0.0197383
0.00685206
0.021997
0.00525622
0.0218324
0.00168508
0.019815
-0.00143004
0.0180018
-0.00287893
0.0164679
-0.00404443
0.0143619
-0.00571044
0.0117488
-0.0072729
0.00894347
-0.00827776
0.00613748
-0.00857743
0.00353778
-0.00819625
0.00132208
-0.00727699
-0.000387667
-0.00602086
-0.00154875
-0.00463662
-0.00220044
-0.00329345
-0.00242741
-0.00210106
-0.00234284
-0.00111167
-0.00205281
-0.000330568
-0.00164891
0.000265779
-0.00119763
0.000718073
-0.000751496
0.00106929
-0.000344137
0.00136611
-0.00116939
0.00387982
0.00655653
0.00468565
0.0114842
0.00730538
0.0161656
0.00713872
0.0200071
0.00675643
0.0230194
0.00582959
0.0241861
0.00290248
0.0226246
-0.00112456
0.0202122
-0.00364041
0.0184473
-0.00485828
0.0166741
-0.00635669
0.0141394
-0.00810109
0.0111349
-0.00946436
0.00794665
-0.0100869
0.00484743
-0.00988707
0.00208953
-0.0089637
-0.000124467
-0.00754019
-0.00168953
-0.00588008
-0.00261768
-0.00421937
-0.0029969
-0.00272396
-0.00296553
-0.00147838
-0.0026613
-0.000503179
-0.00220546
0.000225987
-0.00168626
0.000754412
-0.00117145
0.00113803
-0.000702701
0.00142785
-0.00030562
0.00167173
-0.00207091
0.00415722
0.00540832
0.00502803
0.0105838
0.00558605
0.0156009
0.00787009
0.0200484
0.00709747
0.0236141
0.00616174
0.0258708
0.00414494
0.0255287
-1.58383e-06
0.0229284
-0.0038407
0.0205551
-0.0057482
0.0188606
-0.00704474
0.0166415
-0.00885877
0.0136194
-0.0105855
0.0101258
-0.0116436
0.00652422
-0.0117637
0.0031548
-0.0109523
0.000325352
-0.00941352
-0.00176284
-0.00746688
-0.00306719
-0.00543057
-0.00366362
-0.00355266
-0.00371451
-0.00197498
-0.00339704
-0.00074263
-0.00287298
0.000164337
-0.00226084
0.000800573
-0.00165048
0.00123344
-0.00109457
0.0015299
-0.000622972
0.00174521
-0.000254561
0.00192629
-0.0032089
0.00455466
0.00404271
0.00552283
0.00947475
0.00613705
0.0148668
0.00632021
0.0198917
0.00802675
0.024029
0.00668262
0.0270094
0.00502315
0.0279992
0.00167443
0.0259961
-0.00306929
0.0229726
-0.00625822
0.0209414
-0.00782903
0.0190969
-0.0095001
0.0162877
-0.0115271
0.0126364
-0.0130961
0.00857829
-0.0136976
0.00455608
-0.013165
0.00100733
-0.0116343
-0.0017351
-0.00944126
-0.00353868
-0.00699539
-0.00444171
-0.00465249
-0.00462122
-0.00264594
-0.00429869
-0.00107333
-0.0036889
7.32924e-05
-0.0029542
0.000857691
-0.00221531
0.00136541
-0.00154154
0.00168041
-0.000968715
0.00187564
-0.000517427
0.00200807
-0.000193479
0.00211977
-0.00457604
0.00504572
0.00247861
0.00611876
0.00817432
0.00682326
0.0139944
0.00700947
0.0194881
0.00672384
0.0244056
0.0076501
0.0279242
0.00576777
0.0298872
0.00313512
0.029098
-0.00142756
0.0258189
-0.00591562
0.0230595
-0.0083763
0.021318
-0.0100502
0.0189761
-0.0121885
0.015378
-0.0142688
0.0109643
-0.0154821
0.00628393
-0.0154255
0.00192632
-0.014084
-0.00160031
-0.0117691
-0.00403611
-0.00894383
-0.00535245
-0.00608465
-0.0057238
-0.00354991
-0.00541439
-0.00153024
-0.00470143
-6.08037e-05
-0.00380776
0.000926852
-0.00289896
0.00154135
-0.00206857
0.00189243
-0.00136206
0.00207376
-0.000802121
0.00216033
-0.000391271
0.00220586
-0.00012558
0.00224535
-0.00615969
0.00557245
0.000765252
0.00675909
0.00672255
0.00757053
0.0130031
0.00781447
0.0190245
0.0074731
0.0244267
0.00670277
0.0288807
0.00669357
0.0314404
0.00421461
0.0317955
0.000437619
0.0290965
-0.00470507
0.0255089
-0.00836507
0.0233434
-0.0104016
0.0214586
-0.0125326
0.0181965
-0.015007
0.0135893
-0.0168937
0.00828412
-0.0174823
0.00303973
-0.0165389
-0.00140866
-0.0142757
-0.00461482
-0.0111904
-0.00645177
-0.00784451
-0.00708112
-0.00472733
-0.00680647
-0.00215784
-0.00597216
-0.000259512
-0.0048755
0.00100694
-0.00374342
0.00177131
-0.00270642
0.00217919
-0.00182441
0.00235477
-0.00112405
0.00239569
-0.000603204
0.00237227
-0.00025129
0.00233157
-5.41506e-05
0.0022995
-0.00788079
0.00606347
-0.00104421
0.00738191
0.00516952
0.00831212
0.0119333
0.00864041
0.0185376
0.00830134
0.0244901
0.00740973
0.0293371
0.00624644
0.0329806
0.00515331
0.0340972
0.00191299
0.0323742
-0.00284016
0.0284561
-0.00765224
0.0253983
-0.01042
0.0236138
-0.0125569
0.0208895
-0.0152256
0.0163292
-0.0177469
0.0104867
-0.0190963
0.00429862
-0.0187412
-0.00123354
-0.016714
-0.00538826
-0.0135022
-0.00786804
-0.00977411
-0.00880739
-0.00611824
-0.00857211
-0.00296169
-0.00758685
-0.000543147
-0.0062285
0.00109348
-0.00480372
0.00206725
-0.00349411
0.002559
-0.00238193
0.00273671
-0.00149968
0.00273041
-0.000839956
0.00263244
-0.000382848
0.00250382
-0.000104368
0.00238179
1.71014e-05
0.0022824
-0.00965076
0.00638869
-0.00286051
0.00787978
0.00360331
0.00894812
0.0108418
0.00940354
0.0180595
0.00911853
0.0246305
0.00816093
0.0299546
0.00679217
0.0338212
0.0054059
0.0362204
0.00303009
0.0353472
-0.00105993
0.0317648
-0.00614884
0.0277191
-0.009973
0.0254804
-0.0122866
0.0232634
-0.0149308
0.0190358
-0.0179321
0.0128263
-0.0200865
0.00569345
-0.0204911
-0.00107924
-0.0188955
-0.00642747
-0.0156748
-0.00975962
-0.0116106
-0.0110946
-0.00748686
-0.0108784
-0.00381194
-0.00967228
-0.000876257
-0.00796429
0.00119264
-0.0061533
0.00244306
-0.00448296
0.0030561
-0.00306748
0.00324455
-0.00194879
0.00318582
-0.00111219
0.00300264
-0.000525793
0.00277538
-0.00015211
0.00255157
4.18232e-05
0.00235707
8.50318e-05
0.00219737
-0.0114243
0.00650347
-0.00461077
0.00813895
0.00210306
0.00938003
0.00977873
0.0100112
0.017615
0.00984805
0.0248507
0.00889832
0.0307395
0.00737608
0.0348904
0.00572296
0.0373713
0.00425501
0.0380479
0.000329319
0.0350646
-0.00435976
0.0304694
-0.00889917
0.0272272
-0.0117197
0.0251879
-0.0142111
0.0215342
-0.0174293
0.0152372
-0.0203431
0.00725246
-0.0216455
-0.00084717
-0.0207232
-0.00763021
-0.0176928
-0.0121327
-0.0133017
-0.0140947
-0.0086106
-0.0139485
-0.00441681
-0.01243
-0.00105424
-0.0102284
0.00138791
-0.00789366
0.002933
-0.00574186
0.00370197
-0.00392407
0.00391269
-0.00249561
0.00379136
-0.00143209
0.00350573
-0.000684588
0.00316144
-0.000197794
0.00282107
7.68039e-05
0.00251658
0.000180807
0.00226129
0.000146597
0.00205077
-0.0131998
0.00639932
-0.00616751
0.00806021
0.000742263
0.00949974
0.00879766
0.0103611
0.0172357
0.0103905
0.0251781
0.00952064
0.031707
0.00793079
0.0362155
0.00605099
0.0387477
0.00434652
0.0395217
0.00278127
0.0381506
-0.00275666
0.0334878
-0.00737819
0.0291255
-0.0107975
0.0266639
-0.0131957
0.0236271
-0.016304
0.0176146
-0.0198067
0.00901139
-0.022102
-0.000392108
-0.0221005
-0.00875678
-0.0195966
-0.014724
-0.0151015
-0.0176825
-0.00971387
-0.0178604
-0.00469861
-0.0160695
-0.000777325
-0.0132203
0.00193764
-0.0101664
0.00366064
-0.00736516
0.00455631
-0.0050094
0.00478729
-0.00317128
0.00458837
-0.00181379
0.00417306
-0.000863469
0.00368461
-0.000239816
0.00320346
0.000126372
0.0027715
0.00029364
0.00240375
0.000306339
0.00210155
0.000199541
0.00185123
-0.0155543
0.00854262
-0.0073451
0.00757691
-0.000420805
0.00922327
0.00792374
0.0103737
0.0169496
0.0106472
0.0256049
0.00996372
0.0328167
0.00841091
0.0377857
0.00636059
0.0404123
0.0043864
0.0411007
0.00276753
0.0398958
0.00103606
0.0365225
-0.00579134
0.0312954
-0.00954809
0.0278583
-0.0119919
0.0251586
-0.0147272
0.0197775
-0.0184669
0.0109431
-0.0217384
0.000412289
-0.0229064
-0.0095701
-0.0212872
-0.0171631
-0.0171575
-0.0214385
-0.0113455
-0.0223246
-0.00524966
-0.0205652
-0.000202913
-0.0170882
0.00309057
-0.0131324
0.00490365
-0.00947179
0.00576727
-0.00640028
0.00594718
-0.004017
0.00563301
-0.00227448
0.00504905
-0.00106607
0.00437566
-0.000274789
0.00371958
0.000197616
0.00313221
0.000431984
0.00263315
0.000488612
0.00222148
0.000413861
0.00188723
0.000242059
0.00160917
-0.0171458
0.00600248
-0.0083961
0.00959362
-0.00132927
0.00848537
0.00716096
0.00998605
0.0167784
0.0105449
0.0261646
0.0100874
0.0340878
0.00869271
0.0396081
0.00658852
0.0423549
0.004418
0.0429084
0.00257862
0.0416175
0.00104584
0.0383645
-0.000805966
0.0336473
-0.00814327
0.0290077
-0.0106975
0.0260881
-0.0129213
0.0214995
-0.0164492
0.0129132
-0.020437
0.00158365
-0.0229097
-0.00990616
-0.0225703
-0.0192076
-0.0192428
-0.0249842
-0.0136118
-0.0268179
-0.00685221
-0.0255289
-0.000285967
-0.0217134
0.00442227
-0.0168441
0.00680227
-0.012158
0.0075899
-0.00817797
0.00754496
-0.00508431
0.00701449
-0.00283569
0.00619422
-0.00129525
0.00527824
-0.000296533
0.0043974
0.000300609
0.00361659
0.00060751
0.00295668
0.000705178
0.00241659
0.000654703
0.00198063
0.000499763
0.00162952
0.000273125
0.00133604
-0.0176945
0.00218785
-0.00905851
0.00666489
-0.00223653
0.0105009
0.00649086
0.00915548
0.0167108
0.0100536
0.0268525
0.00985702
0.0354766
0.00869855
0.0416108
0.00668996
0.0445798
0.00436365
0.0449977
0.00232874
0.0434456
0.000750545
0.040132
-0.000721615
0.0352307
-0.00238937
0.0302219
-0.00935751
0.0265458
-0.0111553
0.0225678
-0.0139896
0.0147001
-0.0182362
0.00302609
-0.0218794
-0.00976123
-0.0230547
-0.0207615
-0.0210164
-0.0281237
-0.0161033
-0.0311927
-0.00923701
-0.0304333
-0.00194781
-0.0267468
0.00474745
-0.0211226
0.00870073
-0.0153989
0.0100431
-0.010369
0.0097809
-0.00641033
0.00887098
-0.00352013
0.00769893
-0.00155239
0.00645136
-0.000294754
0.00527646
0.000449868
0.00424814
0.000835666
0.00338843
0.000971191
0.00269067
0.000936274
0.00213502
0.000786441
0.00169395
0.000562076
0.00134057
0.000291717
0.00104432
-0.0172783
-0.00212352
-0.00966361
0.00279295
-0.00216365
0.00659201
0.00502614
0.0119656
0.016716
0.0091503
0.0276607
0.00924538
0.037026
0.0083077
0.0437841
0.00652523
0.0471626
0.00410713
0.047367
0.00199434
0.0455113
0.000263053
0.0418502
-0.000967697
0.0368167
-0.00230756
0.0312117
-0.00337913
0.0266834
-0.00949511
0.022904
-0.0114915
0.0160216
-0.015311
0.00456271
-0.0197728
-0.00920253
-0.0224381
-0.0218662
-0.0219501
-0.030931
-0.0182091
-0.0353993
-0.0118967
-0.0352354
-0.00443491
-0.0320365
0.00334186
-0.0257265
0.00935138
-0.0190568
0.0123586
-0.0129085
0.0125826
-0.00795996
0.0113305
-0.00432385
0.00967471
-0.00183233
0.00797887
-0.000252691
0.0064093
0.000666459
0.00505986
0.00113735
0.00394646
0.00130595
0.00305367
0.00127606
0.00235088
0.00111789
0.00180357
0.000880972
0.00137506
0.000598854
0.00103343
0.000298255
0.000746064
-0.0160058
-0.00637154
-0.00986964
-0.0019175
-0.00230261
0.00293192
0.00330665
0.00831151
0.0161393
0.0125423
0.0285641
0.00824698
0.0386496
0.00762173
0.0460559
0.00603592
0.0500147
0.00367316
0.0500189
0.00145522
0.0478093
-0.00030365
0.0436001
-0.0014868
0.0383035
-0.0024545
0.0322869
-0.00338273
0.026943
-0.00363866
0.0225156
-0.00910673
0.0166574
-0.0121273
0.00593504
-0.0166834
-0.00833196
-0.0206434
-0.0225418
-0.0217625
-0.0334643
-0.0194167
-0.0394442
-0.0141642
-0.0403365
-0.0067956
-0.0372038
0.000732417
-0.030802
0.00841738
-0.0230979
0.0133925
-0.0157835
0.0152337
-0.00964818
0.0142708
-0.00516783
0.0121745
-0.00209965
0.00994202
-0.000141563
0.00786774
0.000981449
0.00609431
0.00154139
0.00465582
0.00173458
0.00351783
0.00169572
0.00263401
0.00151283
0.00195594
0.00124644
0.0014381
0.000935489
0.00103842
0.000611
0.000720684
0.0002932
0.000452862
-0.0142809
-0.010195
-0.00949668
-0.0067445
-0.00297055
-0.00124956
0.00263493
0.00360364
0.0158407
0.00861014
0.0292391
0.0118672
0.0402977
0.00659885
0.0483271
0.00535053
0.0526666
0.00338399
0.0529182
0.000773886
0.0500636
-0.000799156
0.0454652
-0.00216873
0.0396799
-0.00286327
0.0333337
-0.00350133
0.0272631
-0.00370291
0.0223395
-0.00346263
0.0165144
-0.00896366
0.00684267
-0.0130349
-0.00728757
-0.0177278
-0.0227964
-0.0203887
-0.0356512
-0.0195756
-0.0434934
-0.0153674
-0.0455831
-0.00891757
-0.0423629
-0.00163648
-0.0365248
0.00645518
-0.0277147
0.0130342
-0.0192383
0.0168472
-0.0115727
0.0171582
-0.00595219
0.0150552
-0.00225337
0.0123282
9.44288e-05
0.00970603
0.0014412
0.00740799
0.00208843
0.00554727
0.00229049
0.0040999
0.00222257
0.00299098
0.00199392
0.00215292
0.00167748
0.00152489
0.00131843
0.00105515
0.00095164
0.000697778
0.000599428
0.000414455
0.000277359
0.000175501
-0.0124681
-0.0132523
-0.00859617
-0.0110955
-0.00296112
-0.00675392
0.00399044
-0.00260507
0.0163232
0.00312111
0.0300399
0.00780937
0.0415346
0.0106303
0.0504874
0.00443851
0.0552737
0.00274343
0.0556797
0.000622464
0.0522927
-0.00145521
0.0473932
-0.00272722
0.0409697
-0.00345854
0.0342721
-0.00380169
0.0276138
-0.00385197
0.0220357
-0.00339904
0.0164479
-0.00339614
0.00680212
-0.0089231
-0.00623336
-0.0140891
-0.0226232
-0.017901
-0.0373952
-0.0186447
-0.0473095
-0.0157596
-0.0511293
-0.00982123
-0.0489696
-0.00231094
-0.0427854
0.00462411
-0.0335151
0.0122556
-0.0235905
0.0173865
-0.0141659
0.0194404
-0.00681513
0.0180211
-0.00217911
0.0149809
0.000558459
0.0118642
0.00211296
0.00903426
0.00283578
0.00666064
0.00301907
0.0048187
0.00289178
0.00343069
0.00258889
0.00239601
0.00219661
0.00163379
0.00176615
0.00107717
0.00133663
0.000670159
0.000931192
0.000366012
0.000564926
0.000126886
0.000252771
-7.72716e-05
-0.0105452
-0.0156145
-0.00720868
-0.0146398
-0.00220455
-0.0118521
0.00540565
-0.00816914
0.0165276
-0.00280943
0.0299011
0.00325992
0.0421507
0.00719325
0.0519977
0.00912001
0.0577338
0.00197845
0.0583532
6.9985e-05
0.0549333
-0.00201808
0.0491475
-0.00320942
0.0423853
-0.00414274
0.0350795
-0.00426595
0.0279193
-0.00410717
0.0216365
-0.0034528
0.0158406
-0.00279181
0.00719982
-0.00379384
-0.00532527
-0.0098312
-0.0221098
-0.0146025
-0.0385284
-0.0167678
-0.0506851
-0.0152692
-0.0564944
-0.0103944
-0.0556842
-0.00310656
-0.0497657
0.00466936
-0.0406969
0.0118059
-0.0288955
0.0175606
-0.0177974
0.021018
-0.00826073
0.020886
-0.001977
0.017819
0.0013747
0.0141647
0.00308927
0.0108879
0.00385628
0.00801377
0.00398211
0.00569759
0.00374939
0.00396108
0.00333242
0.00268716
0.00283065
0.00176198
0.00230009
0.00109985
0.00178328
0.000630522
0.00130386
0.000297486
0.000875652
5.52847e-05
0.000510851
-0.000131196
0.000217871
-0.000295145
-0.00870607
-0.0171881
-0.00569689
-0.0171263
-0.00125823
-0.0155861
0.00594101
-0.0123875
0.0160499
-0.00769143
0.028639
-0.00154737
0.041539
0.00387166
0.052373
0.00681805
0.059621
0.00723282
0.0607494
-0.000417814
0.0573517
-0.00234844
0.0510483
-0.00391888
0.0437158
-0.00453998
0.0357216
-0.0047848
0.0280951
-0.00444182
0.0211415
-0.0036122
0.0149632
-0.00257532
0.00692018
-0.00251217
-0.00372589
-0.00539322
-0.0213129
-0.0106281
-0.0391165
-0.0140145
-0.0532881
-0.0141648
-0.0613611
-0.0104025
-0.0622161
-0.00386258
-0.0568094
0.00393717
-0.0472424
0.0112149
-0.0349015
0.0178118
-0.0222985
0.0220617
-0.010728
0.0234852
-0.0021223
0.0210313
0.00253965
0.0166541
0.00448953
0.0127644
0.00522724
0.00951693
0.0052538
0.00674208
0.00485621
0.00459078
0.00426816
0.00302534
0.00361213
0.00190568
0.00294517
0.0011169
0.00231137
0.000571759
0.00173324
0.000201139
0.00122242
-4.92818e-05
0.000790226
-0.000224093
0.000442159
-0.000355486
0.000175629
-0.000470776
-0.00693531
-0.017605
-0.00433649
-0.0185485
-0.00033945
-0.018045
0.00631459
-0.0159597
0.0155402
-0.0118778
0.0272263
-0.00627874
0.0399701
2.15283e-05
0.0518602
0.00438442
0.0597752
0.00666384
0.0631746
0.00480766
0.0595072
-0.00257335
0.0528471
-0.00414733
0.0447773
-0.0049803
0.0363419
-0.00516031
0.0280831
-0.00477273
0.020524
-0.00382432
0.0138639
-0.00251289
0.0059847
-0.00163984
-0.00287695
-0.0033611
-0.0187276
-0.00797855
-0.0391561
-0.0105885
-0.0552033
-0.0120992
-0.0653318
-0.010194
-0.0681483
-0.00447028
-0.0638328
0.00316085
-0.0540831
0.0107778
-0.0410875
0.017401
-0.0271351
0.0226484
-0.0141283
0.0254619
-0.0031565
0.0245194
0.00371971
0.0198513
0.00641858
0.014725
0.00704428
0.0109474
0.00689864
0.00787209
0.00628394
0.00531434
0.00545184
0.0034071
0.00458048
0.00205699
0.00373076
0.00112008
0.00294332
0.000484949
0.00223701
6.79966e-05
0.00161947
-0.000195916
0.00109977
-0.000358831
0.00067901
-0.000460946
0.000355424
-0.000535284
0.000129911
-0.00060069
-0.00526519
-0.0172254
-0.00305557
-0.0188859
0.000410857
-0.0192988
0.00650971
-0.0182402
0.0149386
-0.015358
0.0256422
-0.0102937
0.037923
-0.0042316
0.0501683
0.00171347
0.0594546
0.00470503
0.0635633
0.00627515
0.0620471
0.00226778
0.0543898
-0.00411601
0.0457292
-0.00509923
0.0367083
-0.00534671
0.0279264
-0.00500363
0.0197733
-0.00402198
0.0124606
-0.00242104
0.00460072
-0.00112891
-0.00264521
-0.00187158
-0.0164751
-0.00561358
-0.0369204
-0.0102143
-0.0560517
-0.00974011
-0.0684917
-0.00893934
-0.0731433
-0.00519899
-0.0702661
0.00196296
-0.0609019
0.00997962
-0.0473532
0.0170435
-0.0323936
0.0226595
-0.0179996
0.0265198
-0.00517643
0.0274819
0.0043282
0.0239109
0.00877804
0.0174918
0.00947924
0.0122901
0.00897723
0.00886878
0.0080896
0.00606644
0.00694878
0.0038174
0.00578401
0.00220357
0.00469113
0.00109662
0.00370487
0.000358532
0.00283482
-0.000112868
0.00208209
-0.000394626
0.00145213
-0.000548274
0.000941639
-0.000621463
0.000546361
-0.000651886
0.000261009
-0.000666384
8.08055e-05
-0.000681498
-0.00379602
-0.0161757
-0.00189769
-0.0183832
0.00101391
-0.019489
0.00647891
-0.019268
0.014202
-0.0175036
0.0238861
-0.0136019
0.0353295
-0.00770024
0.0473078
-0.00137111
0.0577746
0.00339342
0.063013
0.00525531
0.0634521
0.00487021
0.0565604
9.71592e-05
0.0465102
-0.00489706
0.036884
-0.00527494
0.0275759
-0.00499622
0.0188118
-0.00404216
0.0106965
-0.00225789
0.00298913
-0.000809439
-0.0029377
-0.00083643
-0.0150247
-0.00332193
-0.0348601
-0.00767387
-0.0539253
-0.0123407
-0.0702181
-0.00801368
-0.0769264
-0.00515633
-0.0759744
0.000509328
-0.0673065
0.00836762
-0.0534262
0.0160526
-0.0375479
0.0221977
-0.0219735
0.0266334
-0.00777596
0.0291193
0.00398804
0.027822
0.0110756
0.0216133
0.0126909
0.0142801
0.0116575
0.00960983
0.010303
0.00665536
0.00881195
0.00420326
0.00727857
0.00232284
0.00586641
0.00102828
0.00462501
0.000176469
0.00354871
-0.000355362
0.00262707
-0.000657845
0.00186006
-0.000802562
0.00123876
-0.000845401
0.000755067
-0.000830171
0.000398318
-0.000789198
0.000160217
-0.000745798
3.03946e-05
-0.000711896
-0.0025848
-0.0147403
-0.000885926
-0.0171875
0.00146391
-0.0188332
0.00620693
-0.019217
0.0132558
-0.0183218
0.0220577
-0.0156751
0.0323922
-0.0106646
0.0438318
-0.00422425
0.0543015
0.00210199
0.0613662
0.00504019
0.0624177
0.00628965
0.058298
0.0031326
0.0479559
-0.00134854
0.0368756
-0.00488867
0.0270445
-0.00474354
0.0176901
-0.00387458
0.00867433
-0.00202
0.00129251
-0.000561271
-0.00359888
-0.000148256
-0.0146368
-0.00122441
-0.0330415
-0.00514051
-0.0517385
-0.00986066
-0.0685751
-0.0139837
-0.079348
-0.005592
-0.0801482
-0.000982496
-0.0730458
0.00624865
-0.0591531
0.0140945
-0.0424237
0.0209284
-0.0257506
0.0259748
-0.0104868
0.0293442
0.00285616
0.0302512
0.0126446
0.0262531
0.0164641
0.0178401
0.015279
0.0106586
0.0130297
0.00688312
0.0110542
0.00441307
0.00911279
0.00236904
0.00730155
0.000887701
0.00573619
-8.28963e-05
0.00440273
-0.000677547
0.00327283
-0.00100113
0.00233749
-0.00113527
0.00158062
-0.00114442
0.000988901
-0.00107924
0.000546715
-0.000978571
0.000241042
-0.000870027
5.69789e-05
-0.000772386
-1.93379e-05
-0.000692561
-0.00165514
-0.0131434
-5.38341e-05
-0.0155724
0.00182469
-0.0175483
0.00577054
-0.0183968
0.0120469
-0.0180081
0.0201195
-0.0163837
0.0293951
-0.0126781
0.039788
-0.00662078
0.0501798
-0.00010257
0.0579169
0.00555128
0.0602807
0.00717725
0.0578781
0.00670957
0.0490791
0.00200937
0.0374954
-0.00196832
0.0262983
-0.00414247
0.0163256
-0.00337894
0.00641505
-0.00161529
-0.00016091
-0.000566578
-0.00460134
0.000441186
-0.0152739
0.000488883
-0.0316927
-0.00257324
-0.0496819
-0.00719712
-0.0666472
-0.0117886
-0.0786224
-0.0147093
-0.0821782
-0.00356201
-0.0771347
0.00310638
-0.0641422
0.0112378
-0.0469692
0.0186401
-0.0292428
0.0244206
-0.0130034
0.0284914
0.00137511
0.0308253
0.0132257
0.02967
0.0200203
0.022697
0.020017
0.0131021
0.0166514
0.007037
0.0137022
0.00423515
0.0112952
0.00223066
0.00903805
0.000632543
0.00707296
-0.000449074
0.00542266
-0.00110283
0.00403904
-0.00144376
0.00289955
-0.00156319
0.00197823
-0.00153288
0.00125573
-0.00141126
0.000710752
-0.00124328
0.0003257
-0.00106323
8.01705e-05
-0.000893221
-4.47321e-05
-0.000746995
-6.63149e-05
-0.00062625
-0.000964741
-0.0115634
0.000557522
-0.0137547
0.0021153
-0.015863
0.00528523
-0.017063
0.0106362
-0.0169861
0.0179883
-0.0158768
0.0264266
-0.0134152
0.0356311
-0.00852119
0.045299
-0.00173991
0.0534781
0.00433626
0.0576104
0.00822151
0.0558388
0.00921659
0.0493095
0.00647925
0.0378406
0.00166417
0.0260236
-0.00169359
0.0145806
-0.0023975
0.00401759
-0.000981487
-0.00136761
-0.000408595
-0.00619629
0.00102837
-0.0166314
0.0017987
-0.0309767
-0.000227044
-0.0478916
-0.00436351
-0.0646769
-0.00916743
-0.0774856
-0.0129254
-0.0828758
-0.0140116
-0.079514
-0.00118267
-0.0678451
0.00680925
-0.050937
0.0152055
-0.032446
0.0218433
-0.0152403
0.0266575
-8.57738e-05
0.0299523
0.0130839
0.0309671
0.0226318
0.0270585
0.0253085
0.0174055
0.0216565
0.00809699
0.0170574
0.00368179
0.0138005
0.00172989
0.0110863
0.000182361
0.00866766
-0.000962158
0.00663448
-0.00166089
0.00494612
-0.00200991
0.00356221
-0.00210642
0.00244372
-0.00202869
0.00156385
-0.001841
0.000895435
-0.00159594
0.000416096
-0.00133368
9.97963e-05
-0.00108286
-7.81996e-05
-0.000859757
-0.000140762
-0.000672551
-0.000108648
-0.000517606
-0.00047752
-0.0101353
0.000951302
-0.0119572
0.00230983
-0.0139492
0.00484458
-0.0154223
0.00919139
-0.0156182
0.0156407
-0.0146386
0.0233773
-0.0128275
0.0316721
-0.00945625
0.0400966
-0.00331886
0.048262
0.00347621
0.0531826
0.00876413
0.0532855
0.0107748
0.0481026
0.0104234
0.0379048
0.00641508
0.0255882
0.00209953
0.0131763
-0.000289264
0.00180319
-0.000183092
-0.00238528
3.6184e-05
-0.00836336
0.00175848
-0.0184187
0.00281566
-0.0309534
0.00177538
-0.046494