/*--------------------------------*- C++ -*----------------------------------*\
| =========                 |                                                 |
| \\      /  F ield         | OpenFOAM: The Open Source CFD Toolbox           |
|  \\    /   O peration     | Version:  2506                                  |
|   \\  /    A nd           | Website:  www.openfoam.com                      |
|    \\/     M anipulation  |                                                 |
\*---------------------------------------------------------------------------*/
FoamFile
{
    version     2.0;
    format      ascii;
    arch        "LSB;label=32;scalar=64";
    class       volScalarField;
    location    "30.0155191";
    object      p;
}
// * * * * * * * * * * * * * * * * * * * * * * * * * * * * * * * * * * * * * //

dimensions      [0 2 -2 0 0 0 0];

internalField   nonuniform List<scalar> 
9700
(
0.000513657
0.000530111
0.00122027
0.00055755
0.00123872
0.00212926
0.000606687
0.00125644
0.00216576
0.00296679
0.000673609
0.00129607
0.00221556
0.00301514
0.00378489
0.000768269
0.00134851
0.00230799
0.00308349
0.00384403
0.00456092
0.000899745
0.00142744
0.00243299
0.00320595
0.00393075
0.00462713
0.00529361
0.00108611
0.00154304
0.0026074
0.0033719
0.00408183
0.00472763
0.00536318
0.00597594
0.0013312
0.00171503
0.00283849
0.00359921
0.00428691
0.00489901
0.00547377
0.00604965
0.00660573
0.00164399
0.00194536
0.00314082
0.0038955
0.00456437
0.00513187
0.00565902
0.00616433
0.0066863
0.00719133
0.00204596
0.002241
0.00352701
0.00427684
0.00492218
0.00544448
0.00591061
0.00635635
0.00679783
0.00726422
0.00772665
0.0025492
0.0026229
0.00401387
0.0047572
0.00537658
0.00584512
0.00624664
0.00661679
0.0069899
0.00737481
0.0077934
0.00821647
0.00312298
0.0031026
0.00462359
0.0053526
0.00594246
0.00635015
0.00667548
0.0069636
0.00724979
0.00755955
0.00789672
0.00827539
0.00866552
0.0037293
0.00366708
0.00536358
0.00607766
0.00663663
0.00697493
0.00721329
0.00740495
0.00759538
0.00781002
0.008068
0.00836765
0.00871494
0.0090796
0.00430615
0.00430313
0.00621725
0.00694086
0.00747434
0.00773628
0.0078756
0.00795594
0.0080348
0.00814185
0.00830036
0.00851963
0.00879292
0.00911804
0.00946574
0.00481691
0.00497542
0.00715843
0.00794033
0.00846583
0.00864926
0.00867905
0.00863304
0.00857825
0.0085626
0.00860727
0.0087259
0.00892049
0.00917915
0.00949201
0.00983211
0.00519197
0.00563164
0.00816464
0.00906056
0.00961149
0.00972447
0.00963869
0.00945182
0.00924878
0.00908518
0.00899589
0.00899748
0.00909359
0.00927809
0.00953437
0.00984546
0.0101871
0.00532872
0.00618659
0.00915751
0.0102661
0.0108956
0.0109641
0.0107653
0.0104271
0.010057
0.00972525
0.00947833
0.00934076
0.00932048
0.00941215
0.00960157
0.00986794
0.0101874
0.0105394
0.00516516
0.0065436
0.0100439
0.0114843
0.0122834
0.0123542
0.0120619
0.0115695
0.0110175
0.0104964
0.0100674
0.009766
0.00960633
0.0095864
0.00969213
0.00990153
0.0101897
0.0105273
0.0108979
0.0047527
0.00666719
0.0107014
0.012616
0.0136957
0.0138623
0.0135151
0.012882
0.0121408
0.0114116
0.010776
0.0102838
0.00995884
0.00980436
0.00980761
0.00994577
0.0101893
0.0105099
0.010875
0.0112705
0.00418127
0.00658824
0.0110568
0.0135174
0.0150307
0.0154046
0.0150945
0.0143519
0.0134295
0.0124806
0.0116158
0.0109049
0.010386
0.0100705
0.00994939
0.00999847
0.0101863
0.0104766
0.0108393
0.0112389
0.0116652
0.00352234
0.00629946
0.0110749
0.0140923
0.0161181
0.0168872
0.0167142
0.0159501
0.0148715
0.0137054
0.012595
0.0116391
0.0108957
0.0103896
0.0101181
0.0100583
0.0101747
0.0104277
0.0107758
0.0111873
0.0116256
0.0120867
0.00283384
0.0057686
0.0107126
0.0142364
0.0168474
0.0181079
0.0182956
0.0175929
0.0164377
0.0150741
0.0137147
0.0124924
0.0114944
0.0107653
0.0103142
0.0101215
0.0101501
0.0103532
0.0106842
0.0110977
0.011562
0.0120418
0.0125386
0.0021382
0.00498254
0.00991994
0.0138759
0.0170694
0.0189565
0.0195911
0.0192128
0.0180498
0.0165571
0.0149632
0.0134644
0.0121851
0.0111998
0.0105361
0.0101831
0.0101036
0.0102453
0.0105513
0.0109693
0.011452
0.0119702
0.0124913
0.0130216
0.00146578
0.00390351
0.0086599
0.0129455
0.0166897
0.0192401
0.0205363
0.0205296
0.019637
0.0180844
0.01631
0.0145422
0.0129642
0.0116909
0.0107795
0.0102347
0.0100238
0.0100895
0.0103653
0.0107853
0.0112944
0.0118465
0.012416
0.0129748
0.0135338
0.000864635
0.002575
0.0068696
0.0113836
0.0156275
0.0188589
0.0208533
0.0215919
0.0209278
0.0195734
0.0176918
0.0156948
0.0138162
0.0122297
0.0110349
0.0102636
0.00989416
0.00986746
0.010106
0.0105306
0.0110699
0.0116691
0.0122862
0.0129005
0.0134904
0.0140717
0.000377602
0.00110255
0.00467426
0.00908424
0.0138015
0.0177043
0.0204532
0.0219357
0.0220398
0.0208144
0.0190203
0.0168625
0.0147083
0.0127954
0.0112846
0.0102496
0.00969088
0.00955262
0.00974757
0.0101795
0.01076
0.0114168
0.0120996
0.0127725
0.0134217
0.0140344
0.0146288
-0.000121818
-0.000167841
0.00230244
0.00623065
0.0110482
0.0156796
0.0192278
0.0214328
0.0223752
0.021771
0.0201287
0.0179563
0.0155816
0.0133505
0.0114984
0.010162
0.00937955
0.00910808
0.00925262
0.00969827
0.010334
0.0110687
0.0118343
0.012588
0.0133033
0.0139754
0.0146
0.0151971
-0.00062756
-0.0015617
0.000249452
0.00306313
0.0076189
0.012557
0.017038
0.0201349
0.0217889
0.0220323
0.0208842
0.018831
0.0163482
0.0138337
0.0116291
0.00995499
0.00891097
0.00848127
0.00856922
0.00903875
0.00975163
0.0105902
0.0114674
0.012325
0.0131317
0.0138738
0.0145543
0.0151786
0.0157679
-0.00111038
-0.00303742
-0.00200776
0.000312775
0.00372414
0.00865705
0.0136066
0.0177994
0.0203804
0.0214515
0.0210016
0.0193387
0.0168771
0.0141583
0.011609
0.00956535
0.00821669
0.00759878
0.00762359
0.00813315
0.00895402
0.00993544
0.0109625
0.0119604
0.0128865
0.0137252
0.0144755
0.015149
0.0157608
0.0163321
-0.00156787
-0.0045618
-0.00440623
-0.00276555
0.000319668
0.00412672
0.00931508
0.0141016
0.0179014
0.0199103
0.0203363
0.0192365
0.0170215
0.0142061
0.0113511
0.00891266
0.00720994
0.00636199
0.00631308
0.00688492
0.00785838
0.00903708
0.01027
0.0114572
0.0125448
0.0135118
0.0143586
0.0150976
0.0157492
0.016337
0.0168803
-0.00201141
-0.00612273
-0.00693175
-0.00608783
-0.0035567
0.000139249
0.00424595
0.00950592
0.0139277
0.0173009
0.0186437
0.0183556
0.0165768
0.0138435
0.010751
0.0079083
0.00579192
0.00465387
0.00450374
0.00516016
0.00634546
0.0077994
0.00931716
0.0107647
0.0120712
0.0132122
0.014189
0.015019
0.0157283
0.0163441
0.0168971
0.0174039
-0.00243911
-0.00769842
-0.00954995
-0.00964809
-0.00780058
-0.0044753
-0.000239721
0.00400729
0.00919831
0.0131977
0.0158862
0.0164678
0.0153842
0.0129078
0.00970085
0.00646339
0.00386929
0.0023519
0.00204319
0.00279019
0.00425164
0.00608336
0.00799919
0.00980849
0.0114163
0.0127941
0.0139475
0.0149021
0.0156921
0.016355
0.0169229
0.017432
0.0178959
-0.00283586
-0.00924573
-0.0122275
-0.0134024
-0.0124184
-0.00959687
-0.00551459
-0.000864886
0.0033377
0.00813658
0.0116413
0.0135391
0.0132347
0.0112684
0.00808881
0.00450714
0.00136846
-0.000645237
-0.00122259
-0.00041294
0.00137705
0.00370019
0.00616551
0.00848031
0.0105076
0.0122117
0.0136066
0.0147309
0.0156337
0.016363
0.0169652
0.0174754
0.0179342
0.0183503
-0.00324223
-0.010717
-0.0149103
-0.0173029
-0.0173596
-0.0152459
-0.0114326
-0.00668258
-0.00178636
0.00210866
0.00640987
0.00917802
0.0101048
0.00876398
0.0058336
0.00199437
-0.00173617
-0.0043972
-0.00540659
-0.00463301
-0.00249646
0.000422453
0.00360965
0.006623
0.00923852
0.0113979
0.0131259
0.0144832
0.0155403
0.0163653
0.0170168
0.0175473
0.0179934
0.0183973
0.0187626
-0.00368212
-0.0121794
-0.0175225
-0.0212677
-0.0225554
-0.0213712
-0.0180356
-0.0132574
-0.00798636
-0.00308161
0.000297501
0.00387675
0.0056616
0.00539052
0.00285144
-0.00108384
-0.00540557
-0.00888278
-0.0105577
-0.00999942
-0.00755836
-0.00399491
9.58796e-05
0.00403173
0.00745473
0.0102529
0.0124466
0.0141256
0.0153955
0.0163525
0.0170788
0.0176399
0.0180918
0.0184698
0.0188165
0.0191302
-0.00412938
-0.0138425
-0.0200825
-0.0251772
-0.0279083
-0.0278798
-0.0252713
-0.0206629
-0.015016
-0.0094824
-0.0048092
-0.00217552
0.000386527
0.000901071
-0.000825949
-0.00470094
-0.00955162
-0.0139722
-0.0166059
-0.0166104
-0.0139762
-0.00978899
-0.0046291
0.000480377
0.00495971
0.0086328
0.0114803
0.0136093
0.0151735
0.0163139
0.0171448
0.0177575
0.0182208
0.0185906
0.0188998
0.0191892
0.0194517
-0.00472647
-0.0148803
-0.023117
-0.0289502
-0.0332668
-0.0346587
-0.0330179
-0.0288514
-0.0229446
-0.0167504
-0.0112171
-0.00704508
-0.00544016
-0.00424777
-0.00532735
-0.00876873
-0.0139991
-0.0194564
-0.0233457
-0.024357
-0.0219619
-0.0173335
-0.0109235
-0.00427163
0.00154275
0.00635673
0.0100994
0.0128602
0.0148363
0.0162309
0.0172093
0.0178966
0.0183878
0.0187504
0.0190382
0.0192801
0.0195138
0.0197271
-0.00529237
-0.0146668
-0.0257817
-0.0333175
-0.0384161
-0.0415209
-0.0411183
-0.0376326
-0.0317077
-0.0249298
-0.018485
-0.013237
-0.00991613
-0.00966536
-0.01025
-0.0132604
-0.0185745
-0.0249694
-0.0304352
-0.0329183
-0.0314585
-0.0264771
-0.0193326
-0.0106192
-0.00304582
0.00323091
0.00814562
0.0117709
0.014325
0.0160763
0.0172606
0.0180562
0.0185913
0.0189586
0.019222
0.019431
0.0196093
0.0197902
0.0199573
-0.00544443
-0.0137567
-0.0264627
-0.036798
-0.0445125
-0.0480838
-0.0493862
-0.0468042
-0.0411658
-0.0339989
-0.0266682
-0.0202262
-0.0156716
-0.0135912
-0.0150482
-0.0178836
-0.0230448
-0.0302192
-0.0372741
-0.0418287
-0.0419283
-0.0373497
-0.0297296
-0.0189242
-0.00923651
-0.00101031
0.00544699
0.0102077
0.0135536
0.015806
0.017281
0.0182302
0.0188338
0.0192154
0.0194623
0.0196318
0.0197675
0.0198873
0.0200197
0.0201445
-0.00530713
-0.0127492
-0.0256829
-0.0387426
-0.0496145
-0.0560284
-0.0572291
-0.0562263
-0.0511762
-0.0437436
-0.0357591
-0.0280414
-0.0221289
-0.018701
-0.018266
-0.0218181
-0.0272664
-0.0346881
-0.0434245
-0.0502267
-0.0527539
-0.049567
-0.0414279
-0.0295796
-0.0174139
-0.00685146
0.00174278
0.00802076
0.0124123
0.0153541
0.0172393
0.0184087
0.0191137
0.019526
0.01976
0.0198942
0.0199779
0.0200476
0.0201155
0.0202041
0.0202911
-0.00521465
-0.0114457
-0.024714
-0.0393399
-0.0528546
-0.0627612
-0.0668696
-0.065098
-0.0613851
-0.0540325
-0.0454054
-0.0365702
-0.0292328
-0.0243959
-0.0225158
-0.0241682
-0.0300758
-0.0383744
-0.0480153
-0.0575012
-0.0628395
-0.0622062
-0.0549483
-0.0428186
-0.0279011
-0.0148987
-0.0034283
0.00496724
0.0107712
0.0146325
0.0170876
0.0185715
0.0194273
0.0198918
0.0201222
0.02022
0.0202527
0.0202608
0.0202732
0.0202962
0.0203462
0.0203996
-0.00518254
-0.00984461
-0.0227971
-0.0379056
-0.0535062
-0.0670597
-0.074992
-0.0761322
-0.0709162
-0.0644779
-0.0552971
-0.0456803
-0.0368829
-0.0305494
-0.0272118
-0.0273387
-0.0314392
-0.0396449
-0.0513277
-0.0623625
-0.0713968
-0.0739262
-0.0691195
-0.0573329
-0.0416112
-0.0254857
-0.0106448
0.000618784
0.00841208
0.0135294
0.0167556
0.0186849
0.0197622
0.0203135
0.0205524
0.020617
0.0205937
0.0205385
0.0204826
0.0204471
0.0204327
0.0204503
0.0204743
-0.00504917
-0.00831397
-0.0200749
-0.0344249
-0.0513572
-0.0677333
-0.0803161
-0.0852713
-0.0828152
-0.0741372
-0.0653759
-0.0548802
-0.0450104
-0.0371253
-0.0321813
-0.0307867
-0.033276
-0.0398655
-0.0510681
-0.0653856
-0.0766749
-0.0837923
-0.0822425
-0.0725726
-0.0565301
-0.0380248
-0.0203556
-0.00556907
0.00495693
0.0118537
0.0161479
0.0186929
0.0200961
0.0207841
0.0210537
0.0210896
0.0210088
0.0208824
0.0207546
0.0206468
0.0205732
0.0205289
0.0205198
0.0205191
-0.00459076
-0.00685465
-0.0170144
-0.0301578
-0.0469407
-0.0649516
-0.0811152
-0.091459
-0.0923861
-0.0861914
-0.0746732
-0.0641231
-0.0531608
-0.0439225
-0.037402
-0.0343302
-0.0352008
-0.0402559
-0.0502766
-0.0635184
-0.0795252
-0.0895824
-0.0932995
-0.0867082
-0.0720692
-0.052499
-0.032054
-0.0139585
-8.53392e-05
0.00928989
0.0150971
0.0185143
0.0203833
0.0212893
0.0216223
0.0216423
0.0215027
0.0213001
0.0210902
0.0209053
0.0207583
0.0206562
0.0205889
0.0205588
0.0205378
-0.00396027
-0.00513141
-0.0139164
-0.0253809
-0.0410915
-0.0593987
-0.0777575
-0.0923123
-0.100067
-0.0952924
-0.0862813
-0.0725387
-0.0611277
-0.0506113
-0.0426665
-0.0379561
-0.0370693
-0.0406695
-0.0490536
-0.0617162
-0.0760375
-0.0924057
-0.0996458
-0.0986926
-0.0866896
-0.0676148
-0.0455542
-0.0244389
-0.00707111
0.00542233
0.0133467
0.0179993
0.020555
0.02179
0.0222497
0.0222729
0.0220801
0.0217956
0.0214962
0.0212227
0.0209966
0.0208226
0.020701
0.0206176
0.0205714
0.0205345
-0.00329681
-0.00353946
-0.0108227
-0.0205599
-0.0345114
-0.05187
-0.071026
-0.088421
-0.100963
-0.105136
-0.09565
-0.0830578
-0.0682101
-0.0569493
-0.0476814
-0.0415092
-0.0388853
-0.0409307
-0.0475907
-0.0585696
-0.0732852
-0.0877597
-0.102527
-0.105613
-0.0990387
-0.0820794
-0.0597305
-0.0365282
-0.0159679
-0.000103636
0.0105599
0.0169382
0.0204719
0.0222296
0.022899
0.0229758
0.0227391
0.0223732
0.0219759
0.0216046
0.0212874
0.0210356
0.020846
0.0207132
0.0206201
0.0205621
0.020513
-0.00267478
-0.00222049
-0.00811095
-0.0160326
-0.0278976
-0.0434277
-0.0618537
-0.0807449
-0.0957646
-0.10551
-0.103201
-0.0914993
-0.0770652
-0.0623766
-0.0521874
-0.0446615
-0.0404531
-0.0409858
-0.0458599
-0.0549266
-0.0684279
-0.0843004
-0.0970963
-0.108681
-0.106185
-0.0941227
-0.0734761
-0.0493854
-0.0264109
-0.00736832
0.00640178
0.0150613
0.0199594
0.0224738
0.0235283
0.0237143
0.0234751
0.0230306
0.022532
0.0220529
0.0216347
0.0212931
0.0210299
0.0208354
0.0206989
0.0206011
0.0205352
0.0204767
-0.00213899
-0.00119942
-0.00584132
-0.012045
-0.0217555
-0.0349531
-0.0516155
-0.0701012
-0.0874921
-0.0989843
-0.103806
-0.0972321
-0.0838366
-0.0691158
-0.0557643
-0.0471012
-0.0415202
-0.0406532
-0.0436746
-0.0509601
-0.0628666
-0.0779146
-0.0932213
-0.102765
-0.109928
-0.101199
-0.0848018
-0.0620062
-0.037737
-0.0161317
0.000696913
0.0120764
0.0187878
0.0223735
0.0239987
0.0244639
0.0242519
0.0237624
0.0231616
0.0225689
0.0220387
0.0215973
0.0212493
0.0209879
0.0207976
0.0206638
0.0205655
0.0204944
0.0204287
-0.00169335
-0.000448207
-0.00401322
-0.00872381
-0.0163918
-0.0271228
-0.0413069
-0.0583219
-0.0756956
-0.0903397
-0.097851
-0.0974315
-0.0881361
-0.0738038
-0.0600018
-0.048617
-0.0419658
-0.0398975
-0.0409809
-0.0465737
-0.0568406
-0.0705974
-0.0857672
-0.09879
-0.104055
-0.105893
-0.0919
-0.0724642
-0.0490303
-0.0259099
-0.00647756
0.00774752
0.0167166
0.0217069
0.024183
0.0250616
0.0250577
0.0245347
0.0238575
0.0231481
0.0224986
0.0219466
0.0215043
0.0211662
0.0209183
0.02074
0.0206137
0.0205175
0.0204431
0.0203712
-0.00132877
9.73767e-05
-0.00259146
-0.00605436
-0.0119415
-0.0203808
-0.0318374
-0.0464996
-0.0627306
-0.0779329
-0.0889039
-0.09222
-0.0877739
-0.0764345
-0.0623979
-0.0502494
-0.0418441
-0.0385603
-0.0379158
-0.0418948
-0.050292
-0.0626187
-0.0771597
-0.0908795
-0.100341
-0.100808
-0.0973894
-0.0796956
-0.0586426
-0.0359038
-0.0148124
0.00198665
0.0134986
0.0202708
0.023854
0.0254352
0.0256991
0.0253356
0.0245886
0.023781
0.0230085
0.0223379
0.0217911
0.0213681
0.0210545
0.0208298
0.0206694
0.0205537
0.020461
0.0203838
0.0203055
-0.00102574
0.000490736
-0.00150489
-0.0039776
-0.0083701
-0.0148546
-0.0238203
-0.0360143
-0.0498249
-0.0642568
-0.0765409
-0.0833741
-0.0827249
-0.0753565
-0.0632138
-0.0509029
-0.0414414
-0.036473
-0.0344144
-0.0368653
-0.0433968
-0.054022
-0.0675882
-0.0815929
-0.0924987
-0.097571
-0.0933296
-0.0856313
-0.0659885
-0.0448864
-0.023672
-0.00506776
0.00891039
0.0178536
0.0228184
0.0253153
0.0262685
0.0259798
0.0253335
0.0244392
0.023556
0.0227629
0.0221041
0.0215874
0.021202
0.0209252
0.0207311
0.0205924
0.0204884
0.0203988
0.0203179
0.0202318
-0.000769243
0.000787495
-0.000676381
-0.00238911
-0.00559419
-0.010422
-0.0173353
-0.0268499
-0.0384597
-0.0505425
-0.0628005
-0.0715187
-0.0743023
-0.0704248
-0.0613493
-0.0500686
-0.0402349
-0.0329688
-0.0306658
-0.0314859
-0.0363185
-0.0451496
-0.057317
-0.07092
-0.0831322
-0.0905786
-0.0910329
-0.0829366
-0.0718915
-0.0524422
-0.0323009
-0.0129639
0.00292743
0.0141445
0.0209029
0.0245051
0.0262618
0.026652
0.0259482
0.0250917
0.024114
0.0232069
0.0224324
0.0218157
0.0213518
0.0210196
0.0207891
0.0206303
0.0205145
0.0204215
0.0203328
0.0202457
0.0201493
-0.000553966
0.00104249
-3.16672e-05
-0.00118292
-0.00347204
-0.00698046
-0.0121413
-0.0192086
-0.0283133
-0.0375549
-0.0489944
-0.0583411
-0.0633288
-0.0626288
-0.0565262
-0.0471123
-0.0374557
-0.0293507
-0.0250379
-0.0261301
-0.0291563
-0.0361528
-0.04678
-0.0594505
-0.0720116
-0.0815591
-0.0851869
-0.0817431
-0.0711066
-0.0582149
-0.0403225
-0.0213501
-0.00418752
0.00898343
0.0177577
0.0228686
0.0254816
0.0266898
0.0265122
0.0256364
0.0246453
0.0236421
0.0227584
0.0220388
0.0214922
0.0211009
0.0208342
0.0206564
0.0205347
0.0204404
0.0203552
0.0202634
0.0201661
0.0200554
-0.000382199
0.0012643
0.000490136
-0.000260302
-0.00186516
-0.00435614
-0.00809766
-0.0133188
-0.0200063
-0.0272982
-0.0361107
-0.0452249
-0.0511759
-0.0527925
-0.0494583
-0.0422366
-0.0333817
-0.0250945
-0.0200153
-0.0182272
-0.0223428
-0.027339
-0.0363055
-0.0475526
-0.0599639
-0.0706633
-0.0770921
-0.0772912
-0.0711951
-0.0595923
-0.046696
-0.029698
-0.0124466
0.00244059
0.0131498
0.0200042
0.023999
0.0259024
0.0265418
0.026021
0.0250675
0.0240282
0.0230523
0.0222357
0.0216054
0.0211541
0.0208515
0.0206589
0.0205364
0.0204502
0.0203731
0.0202903
0.0201896
0.0200766
0.0199454
-0.000237233
0.00143558
0.000916652
0.000453264
-0.00064529
-0.00237631
-0.00502422
-0.00878165
-0.013689
-0.0194516
-0.0259437
-0.0336812
-0.0391342
-0.0420137
-0.0408791
-0.0358572
-0.028406
-0.0204985
-0.0144127
-0.0118754
-0.0124112
-0.0193169
-0.0259921
-0.0360597
-0.047419
-0.0586802
-0.0670223
-0.07052
-0.0683781
-0.0607974
-0.0503351
-0.0358412
-0.0212845
-0.00577262
0.00695323
0.0157027
0.021227
0.0244893
0.025857
0.0259916
0.0253027
0.0242909
0.0232711
0.0223737
0.0216663
0.0211569
0.0208219
0.0206201
0.0205058
0.0204369
0.020381
0.020314
0.0202259
0.0201087
0.0199742
0.0198151
-0.000126073
0.00158058
0.00125333
0.00100936
0.000286945
-0.000883977
-0.00271466
-0.00535039
-0.00888417
-0.0131744
-0.018055
-0.0236445
-0.0283587
-0.0314202
-0.0316619
-0.0285233
-0.0226584
-0.015572
-0.00909537
-0.00507671
-0.00498093
-0.00772439
-0.0170246
-0.0247992
-0.0352968
-0.0462389
-0.0557345
-0.061747
-0.0631544
-0.0597368
-0.0517462
-0.0420705
-0.0272382
-0.015325
-0.00121704
0.00963007
0.017056
0.0217409
0.0244532
0.0253592
0.0251562
0.0243434
0.0233439
0.0224061
0.0216373
0.021079
0.0207184
0.0205168
0.0204223
0.0203852
0.0203638
0.020329
0.0202621
0.0201591
0.0200168
0.0198532
0.0196596
-1.27221e-05
0.00168486
0.00152085
0.00143959
0.00100354
0.000245855
-0.000984187
-0.00278439
-0.00524638
-0.00834351
-0.0119121
-0.0157231
-0.0192891
-0.0219503
-0.0227264
-0.0208979
-0.0165007
-0.0104361
-0.00416084
0.000772151
0.00280292
0.000561813
-0.00424012
-0.0152914
-0.0236151
-0.0340556
-0.0439829
-0.0516881
-0.0559207
-0.0562487
-0.0514089
-0.0451925
-0.0354598
-0.0215604
-0.0115313
0.00155162
0.010944
0.0176112
0.0217445
0.0239315
0.0244391
0.0240246
0.0231796
0.0222617
0.0214674
0.0208769
0.0205046
0.0203166
0.0202588
0.0202719
0.0203051
0.0203202
0.0202936
0.0202144
0.0200855
0.0199082
0.0197071
0.0194722
3.89442e-05
0.00180726
0.0017159
0.00177207
0.00155192
0.00110497
0.00031711
-0.000871614
-0.00252773
-0.00466564
-0.00719272
-0.00986297
-0.0122924
-0.0141471
-0.0148435
-0.01368
-0.010405
-0.00537754
0.000408699
0.0056253
0.00897322
0.0091071
0.00475702
-0.00191606
-0.0140288
-0.0223729
-0.032276
-0.0410969
-0.0474259
-0.0506393
-0.0496354
-0.0463646
-0.0395337
-0.0324706
-0.0181611
-0.00947695
0.00305578
0.0114108
0.0176451
0.021277
0.0229471
0.0231532
0.0226357
0.0218468
0.0210806
0.0204923
0.0201288
0.0199761
0.0199776
0.0200666
0.02018
0.02027
0.0203052
0.0202715
0.0201658
0.0199988
0.0197763
0.0195294
0.0192458
8.58117e-05
0.00185182
0.00188023
0.00201895
0.00197099
0.0017563
0.00129966
0.000559035
-0.000506425
-0.0019093
-0.00360986
-0.00543712
-0.00706342
-0.00816498
-0.00844279
-0.00745052
-0.00485773
-0.000702157
0.00446189
0.00963801
0.0136607
0.015406
0.0138198
0.00766187
-0.000579715
-0.0131623
-0.0211441
-0.0303526
-0.038306
-0.0438573
-0.0462821
-0.0457627
-0.042969
-0.0373778
-0.0312499
-0.0168376
-0.00833694
0.0037065
0.0114814
0.0172459
0.0203154
0.0215266
0.0215415
0.021025
0.0203791
0.0198409
0.0195227
0.019434
0.0195276
0.0197263
0.0199556
0.0201534
0.0202804
0.0203156
0.0202566
0.020109
0.0198913
0.0196138
0.0193127
0.0189736
0.00195847
0.00196403
0.00220776
0.00227845
0.00224923
0.00203981
0.0016335
0.00100014
0.000138151
-0.00092463
-0.00209119
-0.00312982
-0.00372367
-0.00360005
-0.00251589
-0.000243563
0.00330005
0.0078594
0.0127823
0.0171311
0.0198904
0.0200722
0.0169761
0.00935202
-5.06225e-05
-0.0126433
-0.0202288
-0.0288991
-0.0363989
-0.0415885
-0.0440991
-0.0450521
-0.0421068
-0.0369447
-0.0315163
-0.0164631
-0.00780656
0.00383071
0.0112612
0.0163553
0.0188383
0.0196949
0.0196325
0.0192231
0.0188155
0.0185887
0.0186091
0.0188366
0.0191925
0.0195849
0.0199364
0.020194
0.0203323
0.0203445
0.0202403
0.020035
0.0197545
0.0194127
0.0190499
0.0186492
0.00205015
0.00231914
0.00250786
0.00260856
0.00259621
0.00243899
0.00212756
0.00166077
0.00106718
0.000413412
-0.000158105
-0.000403336
-4.25776e-05
0.00114123
0.00327857
0.00643452
0.0104968
0.0150709
0.0194851
0.0228682
0.0243635
0.0230676
0.0186825
0.00998397
-0.000214646
-0.0125978
-0.0200727
-0.0285688
-0.0359995
-0.041411
-0.0454515
-0.0453893
-0.0430696
-0.037895
-0.0319387
-0.0174358
-0.00742477
0.00373974
0.0105997
0.0148833
0.0168395
0.0174672
0.0174494
0.0172636
0.017202
0.0173842
0.0178075
0.0183816
0.0190028
0.0195695
0.0200126
0.0202976
0.0204173
0.0203811
0.0202117
0.0199337
0.0195792
0.0191649
0.0187341
0.0182667
0.00240318
0.00264021
0.00287222
0.00299984
0.00304149
0.00296994
0.00279737
0.00254493
0.00226897
0.00206686
0.00209946
0.00259602
0.00378641
0.0058041
0.00868235
0.012353
0.0165654
0.020864
0.0245903
0.0269332
0.0272312
0.0246047
0.0191116
0.00963671
-0.00120645
-0.0133953
-0.0211867
-0.0299027
-0.0376848
-0.0440549
-0.0474401
-0.0478421
-0.0452796
-0.0391708
-0.0325618
-0.018103
-0.00689581
0.00333432
0.00930384
0.0127669
0.0143104
0.0148481
0.0150137
0.0151864
0.0156087
0.0162985
0.0171778
0.0181156
0.0189835
0.0196867
0.0201798
0.020454
0.0205222
0.0204121
0.0201586
0.0197944
0.0193564
0.0188631
0.0183589
0.0178218
0.00273547
0.00302478
0.00329288
0.00347697
0.00359789
0.00364457
0.00364558
0.00364303
0.00371418
0.00397156
0.00457501
0.00572331
0.00757682
0.0101923
0.0135181
0.0173847
0.0214622
0.0252854
0.0282012
0.0294988
0.0287148
0.0249614
0.0184648
0.00833341
-0.00327154
-0.0154969
-0.024031
-0.0333335
-0.0417725
-0.0481269
-0.0515701
-0.0514827
-0.0477881
-0.040056
-0.0326133
-0.0169678
-0.00651697
0.0022774
0.00722521
0.00995118
0.0112248
0.0118316
0.0123432
0.0130671
0.0141276
0.0154099
0.0167889
0.0180779
0.019146
0.0199323
0.0204266
0.0206466
0.0206304
0.0204223
0.0200679
0.0196062
0.0190773
0.0185004
0.0179187
0.0173111
0.00313033
0.00346286
0.0037909
0.00405049
0.00427479
0.00446452
0.00466452
0.00493216
0.00535538
0.00604927
0.00716015
0.00883835
0.0111773
0.0141668
0.0176836
0.0214977
0.0252375
0.028444
0.0305266
0.0308004
0.0290476
0.0243105
0.0168196
0.00592025
-0.00672191
-0.0192882
-0.0289769
-0.039047
-0.0477
-0.0539865
-0.0567741
-0.0552242
-0.0495773
-0.039697
-0.0306848
-0.0161899
-0.00683448
0.000320605
0.00424221
0.00635558
0.00752629
0.00838366
0.00949626
0.0110159
0.0128491
0.0148215
0.0167065
0.0182882
0.0194874
0.0202933
0.0207314
0.0208543
0.0207226
0.0203953
0.0199265
0.019359
0.0187341
0.0180708
0.0174093
0.0167287
0.00357702
0.00397402
0.00437575
0.00472861
0.00507214
0.0054234
0.00583603
0.00637615
0.00713403
0.00821896
0.00974853
0.0118228
0.0144759
0.0176398
0.0211433
0.0247246
0.0279899
0.0305263
0.0318821
0.0311321
0.0284062
0.0226953
0.0140881
0.00214229
-0.0119074
-0.0250087
-0.0361737
-0.04673
-0.0551864
-0.0607471
-0.0618368
-0.0578853
-0.0495868
-0.0376704
-0.0281725
-0.0161587
-0.00823223
-0.00275784
0.000211432
0.00185058
0.00311634
0.00453889
0.00663015
0.00912346
0.0119172
0.0146471
0.0169624
0.0187454
0.0199928
0.020742
0.0210671
0.0210523
0.0207783
0.0203151
0.0197219
0.0190435
0.0183203
0.0175697
0.01683
0.0160739
0.0040922
0.004562
0.00505819
0.00550913
0.0059853
0.0065065
0.00713173
0.00793017
0.00898887
0.0103996
0.0122474
0.0145859
0.0173964
0.0205706
0.0239066
0.0271326
0.0298348
0.0318054
0.0323121
0.0306339
0.0268677
0.0200585
0.0100755
-0.00327086
-0.0191071
-0.0326865
-0.0453554
-0.0557802
-0.0632907
-0.0670407
-0.0653921
-0.0584143
-0.0473629
-0.0347928
-0.0263057
-0.0170873
-0.0110287
-0.00719068
-0.00507345
-0.00373667
-0.00199938
0.000578064
0.00386925
0.00759753
0.0115589
0.0149358
0.0175573
0.0194334
0.020627
0.0212429
0.0214014
0.0212144
0.0207772
0.0201664
0.0194432
0.0186519
0.0178307
0.0169941
0.0161779
0.0153475
0.00468588
0.00522728
0.00582105
0.00638896
0.00700194
0.00769095
0.00851643
0.00954702
0.0108575
0.0125187
0.0145835
0.0170621
0.0198969
0.0229527
0.0260082
0.028805
0.030891
0.0322552
0.0317933
0.0293042
0.0244047
0.0162601
0.00455285
-0.0105094
-0.028372
-0.0420319
-0.0557273
-0.0649936
-0.0705719
-0.0713904
-0.0662408
-0.0563868
-0.043744
-0.0322199
-0.0257155
-0.0195596
-0.0154856
-0.0132788
-0.0118604
-0.01047
-0.00754265
-0.0034581
0.00128413
0.00690863
0.0118585
0.015684
0.0184744
0.0203076
0.0213421
0.0217532
0.0217002
0.0213146
0.0207001
0.0199356
0.0190812
0.0181784
0.0172618
0.0163417
0.0154508
0.0145504
0.00536368
0.0059976
0.00667581
0.00735755
0.00810305
0.00894838
0.00995301
0.0111779
0.012683
0.0145172
0.0167013
0.0192116
0.0219623
0.0248014
0.0274976
0.0298174
0.0312869
0.0318371
0.030553
0.0271429
0.0209286
0.0111314
-0.00264825
-0.0195463
-0.0393111
-0.0523006
-0.0657952
-0.073042
-0.0755475
-0.072518
-0.0640784
-0.0523469
-0.0399859
-0.0307439
-0.0270151
-0.0239784
-0.0219185
-0.0213572
-0.0202491
-0.0180942
-0.0135155
-0.0082149
-0.00017557
0.00719886
0.0127573
0.0168883
0.0196614
0.0213026
0.0220806
0.0222278
0.0219299
0.0213289
0.0205305
0.0196117
0.0186286
0.0176187
0.0166114
0.0156135
0.0146506
0.0136844
0.00611779
0.00684188
0.00760961
0.0083985
0.00926508
0.0102489
0.0114025
0.0127774
0.0144177
0.0163488
0.0185647
0.0210162
0.0235968
0.0261466
0.0284315
0.0302303
0.0310924
0.0307956
0.0286752
0.0241186
0.0163256
0.00455078
-0.0114972
-0.0299408
-0.0508678
-0.0622239
-0.0740303
-0.0784353
-0.0767314
-0.0701905
-0.0595099
-0.0476102
-0.0372184
-0.0310132
-0.0304488
-0.0307951
-0.0306848
-0.0315268
-0.0299098
-0.0260677
-0.0195289
-0.0103998
0.000353838
0.00818347
0.0143031
0.0184892
0.021026
0.0223395
0.0227822
0.022623
0.02206
0.0212366
0.0202547
0.0191861
0.0180807
0.0169705
0.0158788
0.014809
0.0137793
0.012752
0.00695094
0.00775671
0.00860727
0.00949154
0.0104633
0.0115607
0.0128283
0.0143071
0.0160231
0.0179814
0.0201546
0.0224735
0.0248184
0.027027
0.0288644
0.0301057
0.0303338
0.0292206
0.0260909
0.0201782
0.0105124
-0.00343691
-0.0215602
-0.0407222
-0.0613303
-0.0704535
-0.0788856
-0.0791239
-0.0741462
-0.0650695
-0.0538949
-0.0435837
-0.0362449
-0.0334306
-0.0361675
-0.0405121
-0.0418675
-0.043285
-0.0398472
-0.0332141
-0.0224139
-0.00885039
0.00140168
0.0100864
0.0164531
0.0203489
0.0224565
0.023336
0.0233893
0.0228997
0.0220648
0.0210213
0.0198628
0.0186532
0.0174349
0.0162334
0.0150653
0.0139305
0.0128399
0.011757
0.00785223
0.00872953
0.0096507
0.0106155
0.0116712
0.0128536
0.0141989
0.0157347
0.0174713
0.0193966
0.021465
0.0235936
0.0256551
0.0274847
0.0288496
0.0295089
0.0290633
0.0270754
0.0227955
0.0152828
0.0035348
-0.0124429
-0.0318991
-0.0503954
-0.0692462
-0.0751113
-0.0791734
-0.0756234
-0.0684627
-0.0586034
-0.0487753
-0.0413136
-0.0374632
-0.0383249
-0.0444623
-0.053263
-0.0547828
-0.0553057
-0.0482149
-0.0373645
-0.022303
-0.00796944
0.00354595
0.0129884
0.0189837
0.0223061
0.0238396
0.0242155
0.0238516
0.0230259
0.0219242
0.0206708
0.0193481
0.0180103
0.0166907
0.0154085
0.0141731
0.0129813
0.0118365
0.0107041
0.00880874
0.00974412
0.0107213
0.0117477
0.0128634
0.0141017
0.0154874
0.0170365
0.0187452
0.0205861
0.0225004
0.0243957
0.0261395
0.0275645
0.0284405
0.0285003
0.0273324
0.0243922
0.018785
0.0094791
-0.00428121
-0.0216369
-0.0412059
-0.0571202
-0.07346
-0.0748503
-0.0749445
-0.0693103
-0.0612569
-0.0524852
-0.0453368
-0.0412644
-0.0410319
-0.0462419
-0.0555262
-0.068042
-0.0676836
-0.0653041
-0.0529196
-0.0375513
-0.0203948
-0.00540189
0.00763976
0.016448
0.021656
0.024202
0.0250714
0.0249129
0.0241291
0.0229773
0.0216242
0.020178
0.0187078
0.0172569
0.0158498
0.0144987
0.0132061
0.0119658
0.0107739
0.00959886
0.00980477
0.0107835
0.0117989
0.0128661
0.0140179
0.0152822
0.0166733
0.0181968
0.0198359
0.0215508
0.0232735
0.0249045
0.0263077
0.0273126
0.0276848
0.0271285
0.0251904
0.0211935
0.0141017
0.00303438
-0.012265
-0.0298197
-0.0480552
-0.0598711
-0.0731165
-0.0702849
-0.0679112
-0.0615384
-0.0542491
-0.0479313
-0.043992
-0.0434504
-0.0475131
-0.0579603
-0.0683541
-0.0826243
-0.0776152
-0.0706315
-0.0530063
-0.0340443
-0.015231
0.000571343
0.0124218
0.0201125
0.0242439
0.0258943
0.0260678
0.0253788
0.024193
0.0227378
0.0211567
0.0195398
0.017942
0.0163955
0.0149157
0.0135084
0.012169
0.0108892
0.0096577
0.0084473
0.010824
0.011829
0.012864
0.0139518
0.0151153
0.0163773
0.0177429
0.0192069
0.0207417
0.0222989
0.0238025
0.0251484
0.0261982
0.0267743
0.0266338
0.0254448
0.022683
0.0175244
0.00898794
-0.00353606
-0.0194295
-0.035724
-0.0513073
-0.0592362
-0.0687331
-0.063248
-0.0596207
-0.0538108
-0.0486022
-0.045216
-0.0449023
-0.048712
-0.0580774
-0.0716425
-0.0816905
-0.0942126
-0.0818022
-0.0702011
-0.0487021
-0.0271345
-0.00783062
0.00707609
0.0174297
0.0236552
0.0265486
0.0272735
0.0267682
0.0255795
0.0240253
0.0222991
0.0205193
0.0187573
0.0170537
0.0154304
0.0138935
0.012443
0.0110676
0.00975746
0.00849432
0.00725613
0.0118488
0.0128627
0.0138999
0.0149878
0.0161404
0.0173751
0.0186877
0.020064
0.021468
0.0228437
0.02411
0.0251596
0.0258502
0.0259966
0.0253406
0.023505
0.0198662
0.0136261
0.00382847
-0.00950165
-0.0246163
-0.038566
-0.0506223
-0.0553843
-0.0614928
-0.0550425
-0.0514061
-0.0473588
-0.0450762