/*--------------------------------*- C++ -*----------------------------------*\
| =========                 |                                                 |
| \\      /  F ield         | OpenFOAM: The Open Source CFD Toolbox           |
|  \\    /   O peration     | Version:  2506                                  |
|   \\  /    A nd           | Website:  www.openfoam.com                      |
|    \\/     M anipulation  |                                                 |
\*---------------------------------------------------------------------------*/
FoamFile
{
    version     2.0;
    format      ascii;
    arch        "LSB;label=32;scalar=64";
    class       volVectorField;
    location    "250";
    object      momentError;
}
// * * * * * * * * * * * * * * * * * * * * * * * * * * * * * * * * * * * * * //

dimensions      [0 1 -2 0 0 0 0];

internalField   nonuniform List<vector> 
1340
(
(0.000350001 0.00114424 2.99489e-14)
(0.00215316 -0.00207743 -7.51798e-14)
(0.00765676 -0.00672175 9.57866e-14)
(0.0084359 -0.00538714 -6.00426e-14)
(0.0068909 -0.0036861 -1.46133e-13)
(0.00651282 -0.00326476 -1.64684e-13)
(0.00641514 -0.00284114 1.3212e-14)
(0.00576095 -0.002255 1.33048e-13)
(0.00503329 -0.00184358 3.99438e-14)
(0.00452824 -0.00156706 -5.03134e-14)
(0.00410447 -0.00133921 -3.54824e-14)
(0.00370435 -0.00114013 -2.18209e-14)
(0.00334564 -0.000976817 3.90481e-14)
(0.00304308 -0.000834241 1.73023e-14)
(0.00277631 -0.000713369 2.50601e-14)
(0.00254461 -0.000601485 -3.38535e-14)
(0.00233137 -0.000509558 -2.46681e-14)
(0.00211126 -0.000400061 1.8196e-14)
(0.00187629 -0.000372553 1.2423e-14)
(0.00170213 -0.000324183 6.94111e-15)
(0.00160446 -6.91524e-05 -1.46525e-15)
(0.0014986 0.000117502 -2.85273e-16)
(0.0014011 0.000123021 2.27308e-16)
(0.00125665 0.000105686 -4.48071e-16)
(0.00114887 0.000101486 -1.85665e-15)
(0.00103591 0.000102003 -1.27149e-15)
(0.000951014 0.000103757 -3.76329e-15)
(0.000841334 0.000101799 -2.7994e-15)
(0.00758982 -0.00797821 1.11431e-13)
(0.00455184 -0.00391826 5.95778e-14)
(0.00545086 -0.00489451 -8.26072e-14)
(0.00820729 -0.0058673 -1.06331e-14)
(0.00915339 -0.00416473 1.01895e-13)
(0.0085391 -0.00306542 -5.20772e-15)
(0.00812589 -0.0026181 1.22898e-14)
(0.0078252 -0.00195452 -2.47948e-14)
(0.00717514 -0.00132194 -3.25918e-14)
(0.00641296 -0.00098899 1.4157e-14)
(0.00580758 -0.000781665 1.70868e-14)
(0.0052947 -0.000617739 -5.8052e-14)
(0.00482311 -0.000485522 2.69346e-14)
(0.00439864 -0.000391387 1.78489e-14)
(0.00403394 -0.000306836 1.46826e-14)
(0.0037104 -0.000235779 3.19188e-14)
(0.00342082 -0.000167272 4.18008e-14)
(0.00314486 -9.02389e-05 1.76571e-14)
(0.00286761 8.38553e-06 -1.51734e-14)
(0.00258946 9.72558e-05 8.15527e-16)
(0.00232325 0.000148608 -5.69184e-15)
(0.00209852 0.00016313 -2.09083e-15)
(0.00190913 0.000128483 3.94719e-16)
(0.00172406 9.03918e-05 -3.72706e-17)
(0.00162413 6.93722e-05 2.76779e-16)
(0.00149857 9.33788e-05 6.09598e-16)
(0.00137702 0.000108604 1.83923e-15)
(0.0012567 0.00011905 2.30643e-15)
(0.00116497 0.000130037 7.32109e-16)
(0.00774168 -0.00896999 1.35457e-14)
(0.00646751 -0.00643392 -1.1765e-13)
(0.00765216 -0.00682674 -7.91924e-14)
(0.00918743 -0.00664192 -8.81227e-14)
(0.00965606 -0.00555814 9.7542e-14)
(0.00915787 -0.00469936 1.45311e-14)
(0.0085719 -0.00403426 -1.36544e-14)
(0.00804511 -0.00328891 -8.0906e-14)
(0.00736274 -0.00263719 -5.80926e-14)
(0.00659278 -0.00219085 3.78602e-14)
(0.00592628 -0.00185126 -2.13777e-14)
(0.00536761 -0.00156144 -4.39786e-14)
(0.0048696 -0.00132156 -4.00546e-15)
(0.00442539 -0.00112798 -4.02483e-14)
(0.00404417 -0.000958495 -4.30126e-14)
(0.00370932 -0.000808828 -8.43532e-14)
(0.00340601 -0.000669193 -6.39699e-14)
(0.0031129 -0.000531397 -1.80093e-14)
(0.00282172 -0.000389609 3.95418e-15)
(0.00253368 -0.000275848 -1.15147e-15)
(0.00226429 -0.000208494 -1.05409e-14)
(0.00203286 -0.000149733 4.48198e-15)
(0.00182857 -7.8062e-05 5.83483e-16)
(0.00164334 -1.21981e-05 -1.81884e-16)
(0.00150073 7.32325e-05 -7.46229e-18)
(0.00137473 0.00010426 -5.28272e-16)
(0.00125171 0.000111927 -9.73873e-16)
(0.00114113 0.000109052 -1.45563e-15)
(0.00100862 0.000116843 1.91618e-15)
(0.00868797 -0.0147006 7.34805e-14)
(0.00735197 -0.00940763 -1.84169e-13)
(0.00702233 -0.00782665 1.69126e-13)
(0.00868825 -0.00809315 2.01391e-15)
(0.00959372 -0.00729339 -1.20422e-13)
(0.00988982 -0.00605464 -7.02457e-14)
(0.00959345 -0.00494784 -1.98402e-14)
(0.00904775 -0.00402506 5.95952e-14)
(0.00846566 -0.00318506 1.2929e-13)
(0.00779792 -0.0024586 2.11148e-14)
(0.00705243 -0.00190428 -4.73431e-14)
(0.00636835 -0.00149444 2.22025e-14)
(0.00577435 -0.00117501 5.00167e-14)
(0.00524417 -0.000926967 -3.67773e-15)
(0.00476576 -0.000737183 -7.78581e-15)
(0.00434902 -0.000584498 -2.14424e-14)
(0.00397877 -0.000456957 5.28243e-14)
(0.00363751 -0.000344608 3.09472e-14)
(0.00330573 -0.000237508 -1.07701e-14)
(0.00298226 -0.000126863 -1.6925e-14)
(0.00267347 -3.44029e-05 -6.96798e-15)
(0.00238601 2.53794e-05 1.26398e-14)
(0.00213149 7.53169e-05 -8.92545e-16)
(0.00190077 0.00011647 -5.1487e-16)
(0.00169186 0.000135066 2.02543e-16)
(0.0015169 0.000123072 -3.71644e-17)
(0.00138003 0.000112386 -3.49704e-17)
(0.00126314 0.000136414 2.68733e-16)
(0.00124667 0.000458208 4.94524e-16)
(0.00165927 0.00211391 -3.29197e-15)
(0.00771603 -0.0134387 -6.87659e-14)
(0.00727124 -0.0100202 -7.24461e-14)
(0.00762795 -0.00888757 1.50454e-13)
(0.00897083 -0.00856235 1.26932e-13)
(0.00966834 -0.00760566 3.56516e-14)
(0.00986372 -0.00645709 -5.19411e-14)
(0.00963386 -0.00538705 5.91851e-14)
(0.00911938 -0.00445847 4.54309e-14)
(0.0085185 -0.00364186 -3.98502e-15)
(0.00786384 -0.0029379 -9.37286e-14)
(0.0071422 -0.00237201 3.96533e-15)
(0.00646097 -0.00194292 3.7301e-15)
(0.00585023 -0.00160395 2.07793e-16)
(0.00530588 -0.00133049 1.51401e-14)
(0.00481263 -0.00110993 -5.43026e-15)
(0.00437958 -0.00092717 1.23037e-14)
(0.00399418 -0.000768622 -2.67327e-14)
(0.00363801 -0.000624942 -1.53716e-14)
(0.00329123 -0.000487645 1.55101e-14)
(0.00295778 -0.000355382 2.09663e-14)
(0.00264556 -0.00024472 1.25744e-15)
(0.00235638 -0.000167045 -1.23918e-15)
(0.00209912 -0.000107284 -3.26494e-15)
(0.00186698 -5.82652e-05 6.55912e-16)
(0.00165668 -2.52724e-05 -1.05505e-16)
(0.00147278 1.10326e-06 -5.38151e-16)
(0.00132775 5.05966e-05 -3.05158e-17)
(0.00120048 2.23918e-05 1.07955e-16)
(0.00107972 -0.000462439 -3.47628e-17)
(0.000820783 -0.00284771 -9.37799e-16)
(0.00663177 -0.015915 4.67688e-15)
(0.00675209 -0.0121794 -7.81768e-14)
(0.00687579 -0.00996573 -2.94244e-14)
(0.00771379 -0.00926662 -3.506e-14)
(0.00884965 -0.00871113 2.74177e-14)
(0.0094251 -0.00771451 1.3574e-13)
(0.0095969 -0.00661211 -3.03622e-14)
(0.00944174 -0.00556145 -5.88496e-14)
(0.00901377 -0.00460788 2.49884e-15)
(0.00846828 -0.00376759 -5.13013e-14)
(0.00786499 -0.00304239 1.70054e-14)
(0.00719815 -0.00243607 2.54139e-14)
(0.00654915 -0.00195581 3.93228e-14)
(0.00595046 -0.00157142 1.50512e-14)
(0.00540884 -0.00126057 -1.77058e-14)
(0.00491378 -0.00101079 2.27313e-14)
(0.00447167 -0.000808491 2.51897e-14)
(0.00407292 -0.000638675 1.82657e-14)
(0.00370075 -0.000491121 3.81708e-15)
(0.00333732 -0.000357287 -1.44164e-14)
(0.00298957 -0.000233214 1.18095e-14)
(0.00266913 -0.0001291 3.28131e-15)
(0.0023738 -5.47587e-05 -1.13817e-14)
(0.00210982 1.30599e-06 1.22467e-15)
(0.00187242 4.78247e-05 -1.1952e-16)
(0.00165801 7.86728e-05 2.06939e-16)
(0.00147139 0.000103872 6.75305e-16)
(0.00131781 0.000113375 -1.63447e-16)
(0.00118695 0.000129948 -2.70805e-16)
(0.001027 0.000261033 5.63945e-16)
(0.000669032 0.00102137 1.41241e-15)
(0.00570376 -0.0140152 7.38193e-15)
(0.00594858 -0.0109358 1.10922e-14)
(0.00638723 -0.00942874 8.0641e-14)
(0.00746018 -0.00918951 -1.01462e-13)
(0.00845299 -0.00854865 -3.28004e-14)
(0.009002 -0.00759789 -3.11495e-14)
(0.00919089 -0.00659035 1.17312e-13)
(0.00909207 -0.00561781 -4.64505e-14)
(0.00874515 -0.00471073 -4.56499e-15)
(0.00827236 -0.00390543 1.8541e-14)
(0.00772955 -0.0032068 1.7787e-14)
(0.00711868 -0.00260842 1.20878e-14)
(0.00651215 -0.00212226 -7.68378e-14)
(0.00593622 -0.00172945 -2.81453e-14)
(0.00540452 -0.00140998 3.58229e-14)
(0.00491311 -0.00114992 1.42921e-15)
(0.00446907 -0.000937439 3.63957e-14)
(0.00406295 -0.000757952 -1.03949e-14)
(0.0036818 -0.000600491 1.50885e-15)
(0.0033099 -0.000457728 2.42452e-14)
(0.00295722 -0.000328317 -2.03747e-14)
(0.00263566 -0.000220287 -6.99447e-15)
(0.00234052 -0.000140003 6.58868e-15)
(0.00207585 -7.94022e-05 2.20118e-15)
(0.00183816 -3.08783e-05 -8.49308e-19)
(0.00162456 2.59301e-06 -2.58899e-16)
(0.00143853 2.47747e-05 6.44093e-16)
(0.00128167 5.02226e-05 7.30328e-17)
(0.00116199 6.09535e-05 -1.09534e-15)
(0.00105744 5.93728e-05 5.16483e-17)
(0.000965675 3.47817e-05 -3.18722e-15)
(0.00495488 -0.0123348 3.14377e-15)
(0.00535468 -0.0101268 1.01652e-13)
(0.00604262 -0.00919346 1.36657e-13)
(0.00716041 -0.00879432 -5.30054e-14)
(0.00793083 -0.00818437 -7.25307e-14)
(0.00843926 -0.00732997 -5.54147e-14)
(0.00867121 -0.0064351 -1.0217e-13)
(0.00863815 -0.00555459 -5.53162e-15)
(0.00837212 -0.00471006 -4.30532e-14)
(0.00798228 -0.0039472 5.78157e-14)
(0.00751137 -0.00327415 1.93979e-14)
(0.006967 -0.00268323 -3.07545e-14)
(0.00641505 -0.00218929 -3.26216e-15)
(0.00587542 -0.00178104 -2.54452e-14)
(0.00536621 -0.00144346 2.79146e-15)
(0.00488832 -0.00116424 -1.77735e-14)
(0.00445031 -0.000934136 -3.33871e-14)
(0.00404419 -0.000740445 1.47995e-14)
(0.00365938 -0.000572999 -2.76357e-14)
(0.00328282 -0.000424872 -1.00707e-14)
(0.00292827 -0.000294471 6.28931e-15)
(0.00260663 -0.000186455 3.97446e-15)
(0.00231191 -0.000104607 1.56493e-15)
(0.00204696 -4.29501e-05 -1.03634e-15)
(0.00180889 5.28101e-06 -4.3587e-16)
(0.00159547 3.8917e-05 -7.71081e-17)
(0.00140941 6.27378e-05 -1.04005e-15)
(0.00124745 8.12822e-05 5.61652e-16)
(0.00113219 8.99464e-05 3.09804e-15)
(0.00103217 8.78989e-05 5.3151e-17)
(0.000937109 9.8584e-05 2.51553e-15)
(0.0037253 -0.0128644 9.71565e-14)
(0.00433685 -0.0108647 6.43171e-14)
(0.0048501 -0.00935485 -1.65786e-13)
(0.00555498 -0.00875732 -1.14063e-13)
(0.00670393 -0.008444 -3.87787e-14)
(0.00745357 -0.00771909 7.08632e-14)
(0.00784175 -0.00695141 7.3208e-14)
(0.00808858 -0.00617298 2.7297e-14)
(0.0081175 -0.00539705 2.50472e-14)
(0.00793028 -0.00463503 -2.67444e-14)
(0.00762238 -0.00393361 -8.73442e-14)
(0.00722306 -0.0033024 1.34171e-14)
(0.0067466 -0.00273736 2.70971e-14)
(0.00625282 -0.00225478 1.8441e-14)
(0.0057537 -0.00184728 5.10936e-14)
(0.00527343 -0.00150613 -2.84863e-14)
(0.00481497 -0.00122075 -2.12654e-14)
(0.00438798 -0.000983722 -1.53234e-14)
(0.00398622 -0.000783712 -3.15596e-15)
(0.00360232 -0.000611381 2.46465e-14)
(0.00322619 -0.000459956 1.64626e-14)
(0.00287407 -0.000328908 1.90977e-14)
(0.00255597 -0.000221044 6.47453e-15)
(0.00226495 -0.000137929 2.90675e-17)
(0.00200254 -7.51283e-05 2.21557e-15)
(0.00176665 -2.66047e-05 -3.08703e-16)
(0.0015555 7.39009e-06 3.03264e-16)
(0.00137139 3.08721e-05 -3.81406e-16)
(0.00120916 4.88436e-05 3.36914e-17)
(0.00109635 6.12039e-05 -1.78028e-15)
(0.00100158 6.0534e-05 4.24057e-16)
(0.000913169 6.18725e-05 4.6717e-15)
(0.00380317 -0.00958496 1.02121e-13)
(0.00438502 -0.00856523 1.87069e-14)
(0.00526942 -0.00821343 -2.78554e-15)
(0.00600656 -0.00788663 -9.34352e-14)
(0.00686012 -0.00734142 -3.88191e-14)
(0.00728568 -0.00655011 5.64907e-14)
(0.00750768 -0.00584917 6.4168e-14)
(0.00756942 -0.00517056 1.04456e-13)
(0.0074457 -0.00449377 9.98193e-14)
(0.00721244 -0.00386063 -2.10612e-14)
(0.00688555 -0.00327956 -8.11424e-15)
(0.00647526 -0.00274705 1.57322e-14)
(0.00604081 -0.00228223 3.48506e-15)
(0.00558813 -0.00188054 1.13543e-14)
(0.005142 -0.00153792 3.09301e-14)
(0.00470861 -0.00124697 8.39153e-17)
(0.00429864 -0.00100223 -1.26233e-14)
(0.00390704 -0.000794502 -5.76381e-15)
(0.00352932 -0.000615753 2.63275e-15)
(0.00315784 -0.000460213 1.12671e-15)
(0.00281183 -0.000327551 -3.97321e-15)
(0.00249951 -0.000219082 -8.92125e-15)
(0.00221373 -0.000134396 5.53847e-16)
(0.00195518 -7.00173e-05 -1.42096e-15)
(0.00172245 -2.04975e-05 4.55312e-16)
(0.00151409 1.43808e-05 6.5249e-17)
(0.00133205 3.83073e-05 2.16935e-16)
(0.00117203 5.73563e-05 1.75574e-15)
(0.00105885 6.75109e-05 2.54077e-15)
(0.000968043 6.64967e-05 -1.94245e-15)
(0.000882882 6.70396e-05 -6.52238e-15)
(0.00394285 -0.00777376 9.9381e-15)
(0.00492665 -0.00767644 7.45243e-14)
(0.00572504 -0.0072982 -9.30801e-14)
(0.00607521 -0.00681338 1.37094e-15)
(0.00667433 -0.00617124 2.55404e-14)
(0.00693781 -0.00552129 -1.08725e-13)
(0.00702519 -0.00491394 -1.63294e-13)
(0.00694796 -0.00431228 2.25715e-14)
(0.00677682 -0.00374587 2.43324e-14)
(0.00651409 -0.00321805 -1.70267e-14)
(0.00616669 -0.00272519 -1.64745e-14)
(0.00578922 -0.00228585 -3.75692e-14)
(0.00538487 -0.00189812 3.35346e-14)
(0.00497682 -0.00156146 2.93793e-14)
(0.00457204 -0.0012712 9.06683e-15)
(0.00418283 -0.00102412 3.06089e-14)
(0.00380585 -0.000813093 2.85653e-14)
(0.00343736 -0.000631351 1.14265e-15)
(0.00307482 -0.000474167 -4.24901e-14)
(0.00273787 -0.000341572 -9.03497e-15)
(0.00243374 -0.00023385 -2.4454e-15)
(0.00215493 -0.000149073 -7.62109e-15)
(0.00190197 -8.41308e-05 -4.18828e-17)
(0.00167369 -3.45434e-05 -9.27304e-17)
(0.00146932 5.73517e-07 2.19778e-16)
(0.00129039 2.42745e-05 -2.35192e-16)
(0.00113344 4.19851e-05 -1.83113e-16)
(0.00102008 5.26429e-05 2.08278e-17)
(0.000933261 5.32403e-05 -4.47714e-15)
(0.000851448 5.3889e-05 2.74382e-15)
(0.00440189 -0.0069517 -7.00852e-14)
(0.00538594 -0.00681386 7.5091e-14)
(0.00583513 -0.00627885 5.83764e-14)
(0.00591728 -0.00578065 7.7931e-14)
(0.00633771 -0.00518077 7.72763e-14)
(0.00647568 -0.00463638 -5.4247e-14)
(0.00644189 -0.00410359 -5.91167e-14)
(0.00632435 -0.00360119 4.22806e-14)
(0.00612248 -0.00312712 1.36148e-14)
(0.00583341 -0.00267504 2.77746e-15)
(0.0055106 -0.0022651 -5.2896e-15)
(0.00515404 -0.00189554 -8.11661e-14)
(0.00478553 -0.0015686 -3.58001e-14)
(0.00441243 -0.00128215 -1.46703e-14)
(0.00404763 -0.0010354 -3.10125e-14)
(0.00368817 -0.000822607 -1.60491e-14)
(0.00333223 -0.000638596 3.67216e-15)
(0.00298178 -0.000479942 2.51887e-14)
(0.00265626 -0.000347216 1.3752e-15)
(0.00236207 -0.000239787 1.1551e-14)
(0.00209154 -0.000154646 8.96403e-15)
(0.00184532 -8.88595e-05 1.09006e-15)
(0.00162249 -3.86982e-05 -1.28851e-15)
(0.00142274 -2.89405e-06 -2.05265e-16)
(0.0012474 2.10808e-05 -2.24299e-16)
(0.00109373 3.89018e-05 3.64394e-16)
(0.000980004 4.93598e-05 -3.03242e-16)
(0.000896992 5.07398e-05 1.85064e-15)
(0.000818597 5.03908e-05 2.61261e-15)
(0.00465696 -0.0060538 9.7726e-14)
(0.00555003 -0.00588728 6.41494e-15)
(0.00557433 -0.00533455 -5.21812e-14)
(0.00575688 -0.00485248 4.48817e-14)
(0.00593822 -0.00435056 9.55758e-14)
(0.00594399 -0.00387204 1.66078e-14)
(0.00587006 -0.00342864 -6.74066e-14)
(0.00571909 -0.00300733 3.37487e-14)
(0.00548588 -0.00259908 1.38595e-14)
(0.00521475 -0.00222201 1.93334e-15)
(0.00490489 -0.00187524 1.99986e-15)
(0.00457493 -0.00156219 -5.01804e-14)
(0.00423435 -0.00128367 6.39306e-15)
(0.00389581 -0.00104071 3.20169e-15)
(0.00355591 -0.000829002 2.25231e-16)
(0.00321553 -0.000644968 -3.35251e-16)
(0.00287879 -0.000486482 9.5406e-15)
(0.00256662 -0.000354596 1.79809e-14)
(0.0022839 -0.000248315 -8.92958e-15)
(0.00202291 -0.000163627 -6.21996e-15)
(0.00178452 -9.78159e-05 1.65741e-15)
(0.00156809 -4.75404e-05 1.03315e-15)
(0.00137391 -1.16201e-05 -3.47277e-16)
(0.00120294 1.23138e-05 -1.54414e-16)
(0.00105308 2.94903e-05 -1.81123e-15)
(0.000939204 3.98917e-05 2.27747e-15)
(0.000860066 4.19369e-05 1.9477e-15)
(0.000785182 4.13098e-05 -8.91645e-15)
(0.00467074 -0.0051587 -2.06145e-14)
(0.00562355 -0.00504552 3.45163e-14)
(0.00519716 -0.00450989 -2.64733e-14)
(0.00542769 -0.00406105 -3.31996e-14)
(0.0054703 -0.00363282 1.41617e-14)
(0.0054315 -0.00324427 3.36183e-14)
(0.00532076 -0.0028729 -4.7953e-14)
(0.00513424 -0.00250622 1.00908e-14)
(0.00491034 -0.00216189 2.92575e-14)
(0.00464428 -0.00183964 2.80958e-14)
(0.00435155 -0.00154321 2.8188e-14)
(0.00404274 -0.00127533 1.28387e-14)
(0.00373019 -0.00103844 5.79858e-15)
(0.00341131 -0.000829869 9.13308e-15)
(0.00308804 -0.000647344 1.09438e-14)
(0.0027669 -0.000490004 -1.34911e-14)
(0.00246955 -0.000359454 -1.6418e-14)
(0.00219974 -0.000254443 -7.63724e-16)
(0.00194946 -0.000170408 -2.97706e-15)
(0.00171996 -0.000104637 -1.56701e-15)
(0.00151097 -5.43433e-05 -4.88499e-16)
(0.0013231 -1.82508e-05 2.58526e-16)
(0.00115708 5.76562e-06 1.6537e-15)
(0.00101142 2.27775e-05 -1.7758e-15)
(0.000897554 3.30172e-05 -4.75409e-15)
(0.000822099 3.57352e-05 6.04701e-15)
(0.000750845 3.45201e-05 2.15355e-15)
(0.00483344 -0.00446957 -3.65764e-14)
(0.00508759 -0.0042108 -5.92324e-14)
(0.00489727 -0.00378244 -2.15357e-14)
(0.00498968 -0.00339608 -2.56415e-14)
(0.00499992 -0.00304937 -1.09392e-15)
(0.00492891 -0.00272213 4.38446e-15)
(0.00478457 -0.00239648 -4.3377e-14)
(0.00460165 -0.0020853 7.73216e-15)
(0.00437515 -0.00178894 -2.55406e-14)
(0.00411767 -0.00151187 -1.64624e-14)
(0.00383954 -0.00125751 3.05125e-14)
(0.00355274 -0.00102943 -1.76451e-14)
(0.00325565 -0.000826232 -3.17589e-14)
(0.00295068 -0.000646943 2.42557e-15)
(0.00264661 -0.000491829 1.69114e-14)
(0.0023661 -0.000363465 2.45194e-15)
(0.00211047 -0.000260243 -3.65831e-15)
(0.0018721 -0.000177397 1.08316e-15)
(0.00165254 -0.000112081 2.94492e-16)
(0.00145186 -6.21134e-05 -6.62167e-16)
(0.00127102 -2.60554e-05 4.50091e-16)
(0.0011106 -2.00222e-06 -1.27103e-15)
(0.000969563 1.46383e-05 -1.30609e-16)
(0.000855925 2.47365e-05 -2.19652e-16)
(0.000784088 2.80233e-05 2.07422e-15)
(0.00071648 2.61337e-05 8.1032e-15)
(0.00407794 -0.0039279 -2.18544e-14)
(0.00497491 -0.0039038 -5.97879e-14)
(0.00445998 -0.00348883 -9.68074e-15)
(0.0045505 -0.00315673 4.24606e-15)
(0.00459609 -0.00285273 -2.73775e-14)
(0.00455931 -0.00256723 5.82544e-14)
(0.00444634 -0.00227938 5.8548e-14)
(0.00429735 -0.00200024 -1.39551e-15)
(0.00410322 -0.00172888 2.07619e-14)
(0.00387761 -0.00147179 -1.46728e-14)
(0.00362786 -0.00123223 1.59393e-14)
(0.00336632 -0.00101452 3.73077e-14)
(0.0030918 -0.000818259 1.55887e-15)
(0.00280644 -0.000643485 -2.66402e-14)
(0.00252101 -0.000491627 -8.15463e-15)
(0.00225831 -0.000366035 7.64878e-15)
(0.00201812 -0.000264972 3.81038e-15)
(0.00179264 -0.00018354 6.89878e-15)
(0.00158382 -0.000118986 -2.89642e-15)
(0.00139219 -6.94449e-05 4.80056e-17)
(0.00121888 -3.36206e-05 -1.9467e-16)
(0.00106447 -9.40415e-06 1.14449e-16)
(0.000928295 6.83107e-06 2.45026e-16)
(0.00081508 1.69414e-05 -1.77248e-15)
(0.000746731 2.05761e-05 -1.36122e-14)
(0.000682778 1.80401e-05 -1.42588e-14)
(0.00419602 -0.0034243 -4.60373e-14)
(0.00447521 -0.00328891 9.54655e-15)
(0.00412369 -0.00292324 4.26178e-14)
(0.00418431 -0.00265482 2.86949e-14)
(0.00418654 -0.00240541 -2.17683e-14)
(0.00410702 -0.00215251 1.9391e-14)
(0.00398971 -0.00190468 -1.61494e-14)
(0.00382681 -0.00165931 6.80068e-16)
(0.00363169 -0.00142313 1.84852e-14)
(0.00341035 -0.00119986 -1.61931e-14)
(0.00317421 -0.000993966 1.64437e-14)
(0.00292281 -0.00080611 1.33464e-14)
(0.00265835 -0.000637112 1.0235e-14)
(0.00239287 -0.000489614 -8.59707e-15)
(0.00214884 -0.000367455 -6.72982e-15)
(0.00192463 -0.000269055 -2.51675e-15)
(0.00171251 -0.000189312 -5.00177e-15)
(0.00151491 -0.000125871 5.99898e-16)
(0.0013327 -7.69017e-05 1.96967e-15)
(0.00116726 -4.13734e-05 -2.09119e-16)
(0.00101916 -1.70301e-05 1.18939e-15)
(0.000888079 -1.09144e-06 -7.07015e-16)
(0.000775458 8.97888e-06 1.53441e-15)
(0.000710589 1.29734e-05 9.65874e-15)
(0.000650217 9.76097e-06 7.23562e-15)
(0.00350735 -0.0029998 -7.79738e-14)
(0.00426818 -0.00304135 -4.35842e-14)
(0.00382317 -0.00270187 1.25071e-14)
(0.00385037 -0.00246462 -1.09367e-14)
(0.00385618 -0.00224328 -3.42854e-14)
(0.00379186 -0.00202143 -5.21913e-14)
(0.00369399 -0.00180289 2.3538e-14)
(0.00355663 -0.00158304 -2.29789e-14)
(0.00338844 -0.00136777 -1.0579e-14)
(0.00319366 -0.00116125 -2.23763e-14)
(0.00298251 -0.000968357 -4.10822e-14)
(0.00275371 -0.000790054 -1.27696e-14)
(0.00250996 -0.000627934 1.32969e-14)
(0.00226398 -0.000485532 1.1422e-14)
(0.00203889 -0.000367496 6.85905e-16)
(0.00183071 -0.000272147 4.40686e-15)
(0.00163208 -0.000194528 -2.54421e-15)
(0.00144591 -0.00013236 -6.59819e-17)
(0.00127336 -8.4238e-05 7.91276e-16)
(0.00111602 -4.90245e-05 -5.65481e-16)
(0.000974477 -2.47001e-05 2.56717e-16)
(0.000848679 -8.88926e-06 1.24245e-15)
(0.000738027 1.04965e-06 -1.11733e-15)
(0.000675664 5.12308e-06 -1.64288e-15)
(0.000618788 1.42735e-06 7.74631e-15)
(0.00368027 -0.00265546 -8.89639e-14)
(0.00373696 -0.00255308 -1.20423e-14)
(0.00348989 -0.00227204 6.60977e-15)
(0.00351746 -0.00208359 4.73089e-14)
(0.00348095 -0.00189197 1.07964e-14)
(0.00340639 -0.00170021 -1.756e-14)
(0.00329409 -0.001504 3.19568e-14)
(0.00315195 -0.00130882 9.19697e-16)
(0.00298194 -0.00111872 2.48738e-14)
(0.00279364 -0.000939035 1.12509e-14)
(0.00258635 -0.000770947 2.94468e-15)
(0.00236252 -0.000616476 2.15277e-15)
(0.00213578 -0.000479864 -6.94816e-15)
(0.00192851 -0.000366531 -3.2123e-15)
(0.00173611 -0.000274545 1.1678e-15)
(0.001551 -0.000199367 1.32096e-15)
(0.00137635 -0.00013871 7.60792e-16)
(0.00121367 -9.15502e-05 -7.30118e-16)
(0.00106466 -5.6724e-05 4.36032e-17)
(0.000929989 -3.24038e-05 -2.53429e-15)
(0.000809663 -1.66283e-05 1.78429e-15)
(0.000702952 -6.6041e-06 6.54682e-15)
(0.000641646 -2.77572e-06 -2.57976e-15)
(0.000588088 -6.46323e-06 -8.10446e-15)
(0.00323771 -0.0023799 2.50423e-14)
(0.00349781 -0.00231066 -2.67805e-15)
(0.0031403 -0.00209523 2.6541e-14)
(0.0031873 -0.0019355 -2.16578e-14)
(0.00318207 -0.00176474 1.36314e-14)
(0.00313219 -0.00159516 -1.45162e-14)
(0.00304205 -0.00142124 1.04274e-14)
(0.00292248 -0.00124553 1.15779e-14)
(0.00277518 -0.00107197 -4.08665e-15)
(0.00260807 -0.000905923 1.69081e-14)
(0.00242042 -0.000748635 -9.92961e-15)
(0.00221534 -0.000602403 -1.06666e-14)
(0.00200716 -0.000472362 9.05449e-15)
(0.00181744 -0.000364203 -3.94729e-15)
(0.00164063 -0.000276117 -8.02075e-15)
(0.00146904 -0.000203604 4.13938e-16)
(0.00130609 -0.000144744 4.71319e-16)
(0.00115354 -9.86561e-05 -8.83792e-16)
(0.00101308 -6.43649e-05 9.74121e-16)
(0.000885514 -4.01092e-05 -7.84309e-16)
(0.000770939 -2.43226e-05 -5.88568e-16)
(0.000669063 -1.43208e-05 3.18413e-17)
(0.000608279 -1.08591e-05 2.532e-15)
(0.000558076 -1.44511e-05 4.35058e-16)
(0.00268765 -0.0020803 1.76225e-14)
(0.00335908 -0.00212154 -5.97002e-15)
(0.00289547 -0.00192453 5.20826e-15)
(0.00291148 -0.00179041 6.02642e-15)
(0.00291542 -0.00163926 -1.20508e-14)
(0.00288212 -0.00149147 1.32342e-14)
(0.00280749 -0.00133917 -5.32329e-15)
(0.00270427 -0.00118177 6.24338e-15)
(0.00257587 -0.00102381 -2.04363e-14)
(0.00242716 -0.00087079 -4.15935e-15)
(0.00225772 -0.000724454 1.63945e-14)
(0.00206985 -0.000586769 -8.86107e-15)
(0.00187908 -0.000463631 -9.27022e-15)
(0.0017064 -0.000360971 4.51258e-15)
(0.00154494 -0.000277065 5.42359e-15)
(0.00138683 -0.00020747 2.96173e-15)
(0.00123575 -0.000150552 -1.93878e-15)
(0.0010935 -0.000105655 3.07092e-16)
(0.000961772 -7.1899e-05 -4.7211e-18)
(0.00084153 -4.77889e-05 2.61738e-15)
(0.000732912 -3.18896e-05 -2.93645e-15)
(0.000635979 -2.19233e-05 -5.30488e-15)
(0.000575855 -1.85151e-05 1.26699e-15)
(0.000528903 -2.2254e-05 3.90859e-15)
(0.00271219 -0.00183142 -5.35637e-15)
(0.00302474 -0.00182073 1.10036e-14)
(0.00263924 -0.00165003 6.59053e-15)
(0.00264079 -0.00151921 -2.6527e-14)
(0.00263113 -0.00138986 -2.28041e-14)
(0.00257669 -0.00125577 -1.42443e-14)
(0.00249067 -0.00111583 7.72193e-15)
(0.00238015 -0.000973252 2.191e-14)
(0.00224873 -0.000833224 -1.475e-14)
(0.00209662 -0.000697878 -2.40182e-15)
(0.00192565 -0.00056921 8.56164e-15)
(0.00175225 -0.000453337 -1.64355e-15)
(0.00159638 -0.000356622 -3.97492e-16)
(0.00145016 -0.000277142 1.0257e-15)
(0.00130555 -0.000210707 4.47426e-15)
(0.00116628 -0.00015589 -9.29464e-16)
(0.00103432 -0.000112326 -1.29761e-15)
(0.000911396 -7.92009e-05 -6.08432e-16)
(0.000798499 -5.53313e-05 2.95693e-16)
(0.000695925 -3.93336e-05 1.68865e-15)
(0.000604009 -2.9383e-05 2.67063e-15)
(0.000544711 -2.59892e-05 3.22434e-15)
(0.000501 -2.99428e-05 -2.96233e-15)
(0.00225034 -0.00160732 -4.8928e-14)
(0.00284073 -0.00166808 -2.74747e-14)
(0.00245549 -0.00151813 2.30848e-15)
(0.0024266 -0.00140635 -2.43985e-15)
(0.00241701 -0.00129069 -2.05877e-15)
(0.00237008 -0.00117256 1.24871e-14)
(0.00229283 -0.0010494 -6.07634e-16)
(0.00219382 -0.000921757 -4.08022e-15)
(0.00207693 -0.000794389 -3.41528e-15)
(0.00194052 -0.000669736 2.59322e-15)
(0.001786 -0.000550106 5.31992e-15)
(0.00162931 -0.00044174 4.45393e-15)
(0.00148957 -0.000351191 4.04625e-15)
(0.0013579 -0.000276441 1.85976e-15)
(0.00122609 -0.000213312 2.08496e-15)
(0.00109832 -0.000160803 4.19e-16)
(0.000976429 -0.000118684 6.27976e-17)
(0.000862093 -8.62927e-05 1.51318e-16)
(0.000756518 -6.26806e-05 1.15886e-15)
(0.000660061 -4.66303e-05 1.64959e-15)
(0.000573191 -3.65435e-05 -5.45997e-15)
(0.000514921 -3.30663e-05 -6.11367e-15)
(0.0004743 -3.70009e-05 4.57347e-15)
(0.00232934 -0.00143915 -1.14956e-15)
(0.00251708 -0.00143986 7.55184e-15)
(0.00219814 -0.00129028 1.89325e-14)
(0.00219231 -0.00119359 -6.15993e-15)
(0.00216279 -0.00109287 1.1261e-14)
(0.00209953 -0.00098493 9.20195e-15)
(0.00201419 -0.00087083 3.0005e-15)
(0.00191237 -0.000755073 2.19231e-15)
(0.00179166 -0.000640567 -8.59099e-15)
(0.0016528 -0.000529745 -5.37191e-15)
(0.00151155 -0.000429033 2.94137e-15)
(0.00138637 -0.000344763 1.29179e-15)
(0.00126819 -0.000274913 -7.01543e-15)
(0.00114835 -0.00021531 -6.37348e-15)
(0.00103144 -0.000165233 1.99279e-15)
(0.000919246 -0.000124657 -5.44811e-16)
(0.000813464 -9.31228e-05 5.68659e-16)
(0.000715163 -6.98467e-05 -3.31216e-15)
(0.000624754 -5.37461e-05 1.19494e-15)
(0.000543052 -4.35319e-05 7.33149e-15)
(0.000485995 -3.98566e-05 -1.84558e-15)
(0.00044853 -4.38332e-05 -1.93863e-15)
(0.00205033 -0.00129165 -3.76467e-15)
(0.00234898 -0.00130192 -1.31366e-14)
(0.00198336 -0.00118276 -3.1439e-14)
(0.00197717 -0.00110429 9.3566e-15)
(0.00196363 -0.00101593 -1.00195e-14)
(0.00191649 -0.000919883 6.19594e-15)
(0.00184489 -0.000818276 -1.53633e-14)
(0.00175694 -0.000714243 -7.6669e-15)
(0.0016503 -0.000610129 2.24743e-14)
(0.00152533 -0.000508463 -1.27692e-14)
(0.00139761 -0.000415488 -5.47024e-15)
(0.00128574 -0.000337717 -2.15046e-15)
(0.00117994 -0.000272747 -2.08659e-15)
(0.00107178 -0.000216765 5.64004e-15)
(0.000965384 -0.000169219 2.07403e-15)
(0.000862766 -0.000130297 1.10499e-15)
(0.000765451 -9.96672e-05 -1.25267e-16)
(0.000674466 -7.67896e-05 2.38882e-15)
(0.000590211 -6.06597e-05 -2.26158e-15)
(0.000513738 -5.0296e-05 -6.74029e-15)
(0.000458125 -4.61997e-05 9.95915e-16)
(0.000423608 -5.01876e-05 4.69714e-15)
(0.0016993 -0.00113444 4.88688e-15)
(0.00218159 -0.00118812 1.70107e-14)
(0.00184628 -0.00108641 9.4811e-15)
(0.00181529 -0.00101928 -6.35289e-15)
(0.00179927 -0.000939383 -3.23469e-15)
(0.00175786 -0.00085526 -1.42293e-14)
(0.00169219 -0.000766109 1.93747e-14)
(0.00161202 -0.000673732 3.88102e-15)
(0.00151558 -0.000579722 -1.06644e-16)
(0.00140263 -0.00048692 1.62691e-14)
(0.00128749 -0.000401454 2.06335e-15)
(0.00118828 -0.000329931 -1.30687e-15)
(0.00109413 -0.000269777 -9.61207e-16)
(0.000997219 -0.000217392 1.37453e-15)
(0.00090119 -0.000172506 3.3372e-17)
(0.000807955 -0.000135363 -5.76946e-16)
(0.000718847 -0.000105764 -4.83287e-16)
(0.000635051 -8.3352e-05 -6.97127e-18)
(0.000556947 -6.7279e-05 -1.66207e-15)
(0.000485605 -5.67719e-05 -5.98688e-15)
(0.000431671 -5.21955e-05 -5.36383e-15)
(0.000399974 -5.61191e-05 -7.0544e-15)
(0.00174122 -0.00102171 -6.84412e-15)
(0.00192756 -0.00103025 1.57168e-15)
(0.0016449 -0.000931663 2.10496e-14)
(0.00162773 -0.000865138 -8.36306e-15)
(0.00159868 -0.000794246 -7.52813e-16)
(0.00154263 -0.000716752 8.66946e-15)
(0.00147185 -0.000634859 -1.70571e-15)
(0.00138622 -0.00055014 -4.53803e-15)
(0.0012857 -0.000465464 2.17102e-15)
(0.00118315 -0.000387032 -7.99102e-16)
(0.00109568 -0.000321422 -5.80825e-15)
(0.00101264 -0.000265984 2.84077e-15)
(0.00092617 -0.000217208 -3.32471e-16)
(0.000839836 -0.000175028 -6.63656e-16)
(0.000755408 -0.000139747 -1.36051e-16)
(0.000674209 -0.000111297 -1.76302e-16)
(0.000597374 -8.9458e-05 -1.08988e-15)
(0.000525238 -7.3504e-05 2.76914e-15)
(0.00045893 -6.28592e-05 1.0974e-14)
(0.000406833 -5.77019e-05 8.83085e-15)
(0.000377849 -6.14465e-05 5.99599e-15)
(0.00153299 -0.000916974 2.11787e-14)
(0.00179104 -0.000928154 -1.00522e-15)
(0.0014809 -0.000851556 -1.74787e-14)
(0.00146364 -0.000799661 1.16351e-14)
(0.00144571 -0.000737573 1.87921e-14)
(0.0014015 -0.000668971 -8.30765e-15)
(0.00134061 -0.000596456 3.49636e-15)
(0.00126572 -0.000520734 -8.37745e-16)
(0.00117652 -0.00044354 -1.86095e-14)
(0.00108526 -0.000371736 4.53637e-15)
(0.00100835 -0.00031187 5.09741e-15)
(0.000935289 -0.000261072 -8.01248e-16)
(0.000858431 -0.000215962 3.20876e-16)
(0.000781105 -0.000176567 -9.76781e-16)
(0.000704918 -0.000143265 -1.23091e-15)
(0.000631196 -0.000116097 2.87985e-16)
(0.000560946 -9.4932e-05 -4.78125e-16)
(0.000494626 -7.92027e-05 1.85746e-15)
(0.000433332 -6.84969e-05 -4.54688e-15)
(0.000383187 -6.27016e-05 -7.76757e-15)
(0.00035684 -6.62272e-05 4.78795e-17)
(0.00127367 -0.000807838 6.28017e-15)
(0.00165548 -0.00084199 2.18363e-14)
(0.00137447 -0.000780064 -1.66505e-15)
(0.00133558 -0.000738264 -2.82339e-14)
(0.00131684 -0.0006829 -1.30883e-14)
(0.00127907 -0.000622587 9.12243e-15)
(0.00122431 -0.000559828 -6.60011e-15)
(0.00115635 -0.000492274 -1.01188e-15)
(0.00107561 -0.000421916 -5.42013e-15)
(0.000993959 -0.000356131 -3.41365e-15)
(0.000926172 -0.00030158 4.38447e-15)
(0.000862004 -0.000255261 -2.99998e-15)
(0.000793733 -0.000213709 -4.58467e-15)
(0.000724659 -0.00017711 -7.70975e-16)
(0.000656188 -0.00014588 1.21696e-15)
(0.000589572 -0.000120117 -1.11559e-15)
(0.000525669 -9.97489e-05 -2.0168e-16)
(0.000464967 -8.43445e-05 -2.40858e-15)
(0.000408602 -7.36667e-05 5.3333e-15)
(0.000360606 -6.71858e-05 1.09088e-14)
(0.000336709 -7.03848e-05 -4.30784e-16)
(0.0012528 -0.000721618 4.20296e-15)
(0.00149729 -0.000738393 -1.39904e-14)
(0.00121292 -0.000678064 5.12673e-15)
(0.00118439 -0.000631931 1.88879e-16)
(0.00115737 -0.000580002 -1.32108e-14)