/*--------------------------------*- C++ -*----------------------------------*\
| =========                 |                                                 |
| \\      /  F ield         | OpenFOAM: The Open Source CFD Toolbox           |
|  \\    /   O peration     | Version:  2506                                  |
|   \\  /    A nd           | Website:  www.openfoam.com                      |
|    \\/     M anipulation  |                                                 |
\*---------------------------------------------------------------------------*/
FoamFile
{
    version     2.0;
    format      ascii;
    arch        "LSB;label=32;scalar=64";
    class       volScalarField;
    location    "250";
    object      turbulenceProperties:k;
}
// * * * * * * * * * * * * * * * * * * * * * * * * * * * * * * * * * * * * * //

dimensions      [0 2 -2 0 0 0 0];

internalField   nonuniform List<scalar> 
1340
(
0.00288459
0.00301463
0.00406946
0.00603077
0.00903242
0.0133971
0.0196364
0.0284186
0.0408175
0.0586642
0.0853485
0.127079
0.195077
0.31167
0.517923
0.911461
1.66889
3.32069
6.79054
15.1795
31.2746
44.3113
49.9045
51.491
51.7506
51.4525
50.7245
49.6037
0.00215674
0.00189725
0.00165739
0.00141937
0.00119291
0.000996867
0.000831234
0.000690735
0.000571662
0.000471333
0.000386221
0.000314196
0.000251075
0.000193411
0.000136371
8.06069e-05
2.79239e-05
4.53638e-06
1.16411e-05
0.00159639
0.00854892
0.0688886
0.231576
0.451956
0.673645
0.868003
1.03139
1.17517
1.30974
0.00172474
0.00155008
0.00138776
0.00122077
0.0010411
0.000867135
0.000711436
0.000577357
0.000466662
0.000377291
0.000307643
0.000254819
0.000216397
0.000188797
0.00016978
0.000157438
0.000150656
0.000146936
0.000146762
0.000145818
0.000155109
9.21907e-05
0.000636273
0.00417828
0.0118383
0.024726
0.0551664
0.115083
0.203685
0.00145603
0.00135244
0.00124222
0.00112745
0.00100289
0.000874162
0.000753482
0.000646854
0.000554954
0.000477306
0.000412211
0.000358655
0.000315038
0.00028003
0.000251531
0.000228373
0.000208923
0.000191491
0.00017316
0.000154327
0.000138673
0.000126848
0.000118351
0.000108044
9.47506e-05
7.119e-05
4.49475e-05
0.000344197
0.000594242
0.00216137
0.00115746
0.00108651
0.00101033
0.000929109
0.00083996
0.000747222
0.000656479
0.000571255
0.000493033
0.000422864
0.000361196
0.000308178
0.000263577
0.000226873
0.000196949
0.000172792
0.000153094
0.000136458
0.000120591
0.000104467
8.95761e-05
7.77531e-05
6.95857e-05
6.60048e-05
6.0988e-05
7.45423e-05
1.75623e-05
0.000114619
0.000535547
0.00131356
0.000979172
0.000935307
0.000884821
0.000830648
0.000771744
0.000706633
0.000638448
0.000570582
0.000505638
0.000445125
0.000390099
0.000341246
0.000298779
0.000262579
0.000232223
0.000206933
0.000185823
0.000167773
0.000151542
0.000135391
0.000118621
0.000102654
8.87269e-05
7.70718e-05
6.72972e-05
5.91716e-05
5.22067e-05
4.58693e-05
3.63193e-05
2.33027e-05
1.43924e-08
0.00079911
0.000766668
0.000730209
0.000690467
0.000646704
0.000598721
0.000548292
0.000497317
0.00044734
0.000399426
0.000354475
0.000313199
0.000275998
0.000243113
0.000214544
0.000189956
0.000168873
0.000150593
0.000134212
0.000118471
0.000102709
8.7774e-05
7.46457e-05
6.35966e-05
5.43987e-05
4.69316e-05
4.1346e-05
3.77125e-05
3.56085e-05
3.31624e-05
3.03345e-05
0.000660836
0.00063607
0.000609013
0.000579186
0.000546162
0.00051034
0.000472524
0.000433897
0.00039541
0.000357786
0.000321758
0.000288025
0.000257014
0.000229096
0.000204411
0.000182814
0.00016396
0.000147319
0.000132166
0.000117552
0.00010298
8.90753e-05
7.66018e-05
6.57732e-05
5.63623e-05
4.81598e-05
4.11079e-05
3.50704e-05
2.99064e-05
2.54967e-05
2.24183e-05
0.000568082
0.000552252
0.000533142
0.000512542
0.000489724
0.000464497
0.00043738
0.000408751
0.000379284
0.00034955
0.000319992
0.000291122
0.000263468
0.000237445
0.000213397
0.00019154
0.000171907
0.000154348
0.000138529
0.000123944
0.000109954
9.62127e-05
8.31187e-05
7.13029e-05
6.10043e-05
5.20898e-05
4.44067e-05
3.79209e-05
3.26753e-05
2.8675e-05
2.58867e-05
2.4296e-05
0.000465637
0.000450723
0.000434673
0.000416907
0.000397449
0.000376673
0.000354767
0.000332137
0.000309077
0.000285822
0.000262749
0.000240246
0.00021863
0.00019825
0.000179326
0.000161969
0.000146143
0.000131646
0.000118133
0.00010518
9.25203e-05
8.04473e-05
6.94559e-05
5.9759e-05
5.12604e-05
4.38208e-05
3.73873e-05
3.19323e-05
2.73795e-05
2.38025e-05
2.11922e-05
0.000383806
0.00037108
0.000357044
0.00034188
0.000325807
0.000308881
0.000291361
0.000273402
0.000255111
0.000236695
0.000218429
0.000200547
0.00018332
0.00016698
0.000151662
0.000137387
0.000124067
0.000111494
9.93995e-05
8.76281e-05
7.64013e-05
6.61016e-05
5.69343e-05
4.88586e-05
4.17827e-05
3.56783e-05
3.05543e-05
2.64081e-05
2.32979e-05
2.11712e-05
0.000318605
0.000307389
0.00029545
0.000282874
0.000269687
0.000256039
0.000241992
0.000227551
0.00021286
0.00019808
0.000183352
0.000168896
0.000154891
0.000141499
0.00012879
0.000116737
0.000105213
9.40633e-05
8.32346e-05
7.28908e-05
6.33346e-05
5.47506e-05
4.71308e-05
4.04105e-05
3.45617e-05
2.95899e-05
2.54708e-05
2.22618e-05
1.99841e-05
0.000265858
0.000256361
0.00024644
0.000236081
0.000225367
0.000214317
0.000202904
0.000191167
0.00017921
0.000167119
0.000155046
0.000143129
0.000131502
0.000120253
0.000109399
9.88864e-05
8.86536e-05
7.87001e-05
6.91723e-05
6.03058e-05
5.22702e-05
4.50858e-05
3.87158e-05
3.31477e-05
2.8401e-05
2.44758e-05
2.14299e-05
1.92857e-05
0.000223242
0.000215339
0.000207132
0.000198674
0.000189944
0.000180881
0.000171505
0.000161843
0.000151935
0.000141886
0.000131799
0.000121776
0.000111893
0.000102199
9.26895e-05
8.33709e-05
7.42803e-05
6.55445e-05
5.73616e-05
4.98797e-05
4.31381e-05
3.71234e-05
3.18327e-05
2.72901e-05
2.34955e-05
2.05057e-05
1.83536e-05
0.000188667
0.000182121
0.00017539
0.000168451
0.000161234
0.000153719
0.000145914
0.000137816
0.000129478
0.00012097
0.000112368
0.000103748
9.51616e-05
8.66273e-05
7.81767e-05
6.98937e-05
6.19078e-05
5.43777e-05
4.74324e-05
4.11239e-05
3.54586e-05
3.04444e-05
2.61124e-05
2.24721e-05
1.95837e-05
1.7479e-05
0.000165687
0.000160421
0.000155039
0.000149497
0.000143721
0.000137688
0.000131366
0.000124746
0.000117844
0.000110698
0.000103358
9.58798e-05
8.83169e-05
8.0702e-05
7.30967e-05
6.55955e-05
5.83252e-05
5.14202e-05
4.49973e-05
3.9116e-05
3.37968e-05
2.90572e-05
2.49329e-05
2.14381e-05
1.86332e-05
1.65529e-05
0.00014155
0.000137211
0.000132754
0.000128115
0.000123252
0.000118131
0.000112717
0.000107014
0.000101028
9.47912e-05
8.83415e-05
8.17181e-05
7.49627e-05
6.81498e-05
6.13872e-05
5.47892e-05
4.84797e-05
4.2561e-05
3.70956e-05
3.21163e-05
2.76477e-05
2.37295e-05
2.03822e-05
1.7667e-05
1.56201e-05
0.000125084
0.000121565
0.000117963
0.000114213
0.000110279
0.000106118
0.000101687
9.69757e-05
9.19735e-05
8.66896e-05
8.11508e-05
7.53893e-05
6.9438e-05
6.33645e-05
5.72827e-05
5.13187e-05
4.55754e-05
4.01415e-05
3.50807e-05
3.04337e-05
2.62317e-05
2.25162e-05
1.93141e-05
1.66857e-05
1.46687e-05
0.000107809
0.000104878
0.000101832
9.86345e-05
9.52436e-05
9.16127e-05
8.7718e-05
8.35426e-05
7.90833e-05
7.43443e-05
6.93465e-05
6.41204e-05
5.87374e-05
5.3304e-05
4.79338e-05
4.27219e-05
3.77486e-05
3.30767e-05
2.87518e-05
2.48099e-05
2.12935e-05
1.82351e-05
1.56933e-05
1.37078e-05
9.56936e-05
9.32929e-05
9.08061e-05
8.81956e-05
8.54209e-05
8.24385e-05
7.92185e-05
7.57337e-05
7.19724e-05
6.79328e-05
6.36203e-05
5.90538e-05
5.43003e-05
4.9462e-05
4.46418e-05
3.99278e-05
3.53915e-05
3.1093e-05
2.70797e-05
2.33911e-05
2.00696e-05
1.71527e-05
1.46958e-05
1.27418e-05
8.50069e-05
8.3028e-05
8.0985e-05
7.88434e-05
7.65639e-05
7.41053e-05
7.14385e-05
6.85324e-05
6.53656e-05
6.19253e-05
5.82145e-05
5.42435e-05
5.00641e-05
4.5767e-05
4.14545e-05
3.72058e-05
3.3082e-05
2.91392e-05
2.54253e-05
2.19814e-05
1.88496e-05
1.6071e-05
1.36975e-05
1.17758e-05
7.39285e-05
7.2238e-05
7.04689e-05
6.85888e-05
6.65565e-05
6.43416e-05
6.19139e-05
5.92484e-05
5.63274e-05
5.31411e-05
4.96944e-05
4.60304e-05
4.22317e-05
3.8388e-05
3.45694e-05
3.08314e-05
2.72245e-05
2.3796e-05
2.05875e-05
1.76402e-05
1.49963e-05
1.27048e-05
1.08157e-05
6.58528e-05
6.44454e-05
6.29784e-05
6.14174e-05
5.97295e-05
5.78862e-05
5.58549e-05
5.36098e-05
5.11303e-05
4.84008e-05
4.54181e-05
4.22166e-05
3.88671e-05
3.54512e-05
3.20274e-05
2.86479e-05
2.53575e-05
2.22009e-05
1.92183e-05
1.64494e-05
1.39362e-05
1.1725e-05
9.86874e-06
5.75047e-05
5.62773e-05
5.49751e-05
5.35679e-05
5.20282e-05
5.03254e-05
4.84337e-05
4.63302e-05
4.39949e-05
4.14187e-05
3.86267e-05
3.56795e-05
3.26484e-05
2.95892e-05
2.65417e-05
2.35477e-05
2.06483e-05
1.78814e-05
1.52841e-05
1.28983e-05
1.0766e-05
8.94245e-06
5.13198e-05
5.02881e-05
4.91948e-05
4.80152e-05
4.67241e-05
4.52937e-05
4.36962e-05
4.19096e-05
3.9912e-05
3.76904e-05
3.5261e-05
3.26753e-05
2.99923e-05
2.72637e-05
2.45218e-05
2.18039e-05
1.9146e-05
1.65841e-05
1.41522e-05
1.18899e-05
9.83528e-06
8.04402e-06
4.58092e-05
4.49352e-05
4.40136e-05
4.30198e-05
4.19315e-05
4.07253e-05
3.9375e-05
3.78567e-05
3.61471e-05
3.42308e-05
3.21185e-05
2.98522e-05
2.74843e-05
2.50548e-05
2.25938e-05
2.01318e-05
1.77007e-05
1.53335e-05
1.30605e-05
1.09177e-05
8.94008e-06
7.18144e-06
4.01538e-05
3.93711e-05
3.85291e-05
3.76097e-05
3.65886e-05
3.54431e-05
3.4151e-05
3.26884e-05
3.10364e-05
2.92023e-05
2.72186e-05
2.51305e-05
2.29715e-05
2.07661e-05
1.85398e-05
1.63208e-05
1.41374e-05
1.20166e-05
9.99047e-06
8.08936e-06
6.36346e-06
3.58849e-05
3.52159e-05
3.44989e-05
3.3717e-05
3.28498e-05
3.18759e-05
3.07734e-05
2.95202e-05
2.80961e-05
2.65036e-05
2.47691e-05
2.29299e-05
2.10138e-05
1.9041e-05
1.7032e-05
1.50109e-05
1.30014e-05
1.1027e-05
9.11539e-06
7.29143e-06
5.59924e-06
3.20736e-05
3.14985e-05
3.0885e-05
3.02172e-05
2.94776e-05
2.86468e-05
2.77048e-05
2.66292e-05
2.54005e-05
2.40177e-05
2.2501e-05
2.0883e-05
1.9185e-05
1.74231e-05
1.56138e-05
1.37765e-05
1.19317e-05
1.00979e-05
8.29898e-06
6.55376e-06
4.89798e-06
2.81746e-05
2.76468e-05
2.70744e-05
2.64414e-05
2.57303e-05
2.4923e-05
2.39983e-05
2.2937e-05
2.17361e-05
2.04114e-05
1.89883e-05
1.74854e-05
1.59141e-05
1.42877e-05
1.26213e-05
1.09317e-05
9.23393e-06
7.54682e-06
5.884e-06
4.27005e-06
2.52055e-05
2.47485e-05
2.42554e-05
2.37113e-05
2.31008e-05
2.24073e-05
2.16115e-05
2.06938e-05
1.96498e-05
1.84927e-05
1.72422e-05
1.59136e-05
1.45146e-05
1.30554e-05
1.15479e-05
1.0005e-05
8.4392e-06
6.86414e-06
5.28887e-06
3.72585e-06
2.21564e-05
2.17301e-05
2.12605e-05
2.07351e-05
2.01381e-05
1.94515e-05
1.86572e-05
1.77495e-05
1.67383e-05
1.56405e-05
1.44669e-05
1.32234e-05
1.19172e-05
1.05574e-05
9.15393e-06
7.71582e-06
6.2538e-06
4.773e-06
3.27532e-06
1.984e-05
1.94697e-05
1.90633e-05
1.86095e-05
1.8094e-05
1.75009e-05
1.6813e-05
1.60237e-05
1.51404e-05
1.41768e-05
1.31415e-05
1.20384e-05
1.08724e-05
9.64973e-06
8.37823e-06
7.06465e-06
5.71724e-06
4.33937e-06
2.92639e-06
1.77707e-05
1.74478e-05
1.70957e-05
1.67029e-05
1.62577e-05
1.57444e-05
1.51474e-05
1.44603e-05
1.3689e-05
1.28443e-05
1.19328e-05
1.09563e-05
9.91831e-06
8.82311e-06
7.67686e-06
6.48477e-06
5.2535e-06
3.987e-06
2.68118e-06
1.56417e-05
1.53356e-05
1.49947e-05
1.4609e-05
1.41644e-05
1.36468e-05
1.3049e-05
1.23755e-05
1.16358e-05
1.08344e-05
9.97231e-06
9.05146e-06
8.07509e-06
7.04742e-06
5.9734e-06
4.85925e-06
3.7112e-06
2.53305e-06
1.40288e-05
1.37618e-05
1.3466e-05
1.31318e-05
1.27465e-05
1.22971e-05
1.17771e-05
1.11899e-05
1.0543e-05
9.8401e-06
9.0812e-06
8.26755e-06
7.40116e-06
6.48567e-06
5.52568e-06
4.52821e-06
3.50295e-06
2.46536e-06
1.2589e-05
1.23563e-05
1.20994e-05
1.18092e-05
1.14754e-05
1.10855e-05
1.06334e-05
1.01221e-05
9.55746e-06
8.9424e-06
8.27671e-06
7.56086e-06
6.79626e-06
5.98638e-06
5.13567e-06
4.25245e-06
3.35029e-06
2.45535e-06
1.11015e-05
1.08781e-05
1.06266e-05
1.03373e-05
9.99917e-06
9.60657e-06
9.1618e-06
8.67026e-06
8.13393e-06
7.55227e-06
6.92542e-06
6.25484e-06
5.54339e-06
4.79622e-06
4.02267e-06
3.23942e-06
2.47956e-06
9.98151e-06
9.78743e-06
9.56945e-06
9.31892e-06
9.02603e-06
8.68583e-06
8.29999e-06
7.87312e-06
7.40691e-06
6.90077e-06
6.35477e-06
5.77024e-06
5.14994e-06
4.49943e-06
3.82892e-06
3.1567e-06
8.98195e-06
8.81341e-06
8.6248e-06
8.40823e-06
8.15513e-06
7.86077e-06
7.52686e-06
7.15728e-06
6.7536e-06
6.31525e-06
5.84227e-06
5.33592e-06
4.79917e-06
4.23763e-06
3.6618e-06
3.09018e-06
7.9438e-06
7.78083e-06
7.59386e-06
7.37549e-06
7.12147e-06
6.83331e-06
6.51461e-06
6.16652e-06
5.78869e-06
5.38124e-06
4.94548e-06
4.48433e-06
4.00343e-06
3.5129e-06
3.03025e-06
7.16704e-06
7.02634e-06
6.86541e-06
6.67761e-06
6.45908e-06
6.21124e-06
5.93738e-06
5.63852e-06
5.31448e-06
4.96549e-06
4.59285e-06
4.19939e-06
3.79045e-06
3.37545e-06
2.96995e-06
6.47261e-06
6.35172e-06
6.21374e-06
6.05254e-06
5.86508e-06
5.65274e-06
5.41838e-06
5.16302e-06
4.88649e-06
4.58921e-06
4.27243e-06
3.93884e-06
3.5933e-06
3.24414e-06
2.90464e-06
5.74805e-06
5.62985e-06
5.49206e-06
5.33195e-06
5.15069e-06
4.95096e-06
4.73372e-06
4.49894e-06
4.24708e-06
3.97934e-06
3.69814e-06
3.40778e-06
3.11534e-06
2.83174e-06
5.20714e-06
5.10644e-06
4.98911e-06
4.85281e-06
4.69871e-06
4.52921e-06
4.34527e-06
4.14696e-06
3.93468e-06
3.70956e-06
3.47375e-06
3.23089e-06
2.9868e-06
2.75022e-06
4.72211e-06
4.63652e-06
4.53697e-06
4.42143e-06
4.29103e-06
4.14788e-06
3.99286e-06
3.8261e-06
3.64806e-06
3.45968e-06
3.26281e-06
3.06046e-06
2.85729e-06
2.66007e-06
4.21413e-06
4.1301e-06
4.03253e-06
3.92264e-06
3.80226e-06
3.67219e-06
3.53261e-06
3.38394e-06
3.227e-06
3.06328e-06
2.89523e-06
2.72648e-06
2.56213e-06
3.83394e-06
3.76322e-06
3.68126e-06
3.58906e-06
3.48828e-06
3.37963e-06
3.2633e-06
3.13968e-06
3.00942e-06
2.87374e-06
2.73454e-06
2.59456e-06
2.45764e-06
3.49115e-06
3.43198e-06
3.36344e-06
3.28641e-06
3.20238e-06
3.11201e-06
3.01545e-06
2.91302e-06
2.80528e-06
2.69315e-06
2.57807e-06
2.4621e-06
2.34799e-06
3.18166e-06
3.13232e-06
3.07526e-06
3.01118e-06
2.94144e-06
2.86656e-06
2.78667e-06
2.70208e-06
2.61319e-06
2.52073e-06
2.42574e-06
2.32973e-06
2.23462e-06
2.86072e-06
2.81343e-06
2.76032e-06
2.70257e-06
2.6407e-06
2.57481e-06
2.50512e-06
2.43194e-06
2.35582e-06
2.27751e-06
2.19803e-06
2.11875e-06
2.61392e-06
2.57475e-06
2.53084e-06
2.48317e-06
2.43216e-06
2.37792e-06
2.32058e-06
2.26043e-06
2.19783e-06
2.13329e-06
2.06752e-06
2.00143e-06
2.38882e-06
2.35645e-06
2.32017e-06
2.28083e-06
2.2388e-06
2.19416e-06
2.14704e-06
2.09762e-06
2.04615e-06
1.99297e-06
1.93856e-06
2.18271e-06
2.15588e-06
2.12586e-06
2.09336e-06
2.0587e-06
2.02194e-06
1.9832e-06
1.94259e-06
1.90026e-06
1.85645e-06
1.81142e-06
1.97079e-06
1.94587e-06
1.91895e-06
1.8903e-06
1.85999e-06
1.82811e-06
1.79472e-06
1.75991e-06
1.72382e-06
1.68659e-06
1.79945e-06
1.77866e-06
1.75631e-06
1.7326e-06
1.7076e-06
1.68136e-06
1.65391e-06
1.62531e-06
1.5956e-06
1.56484e-06
1.64074e-06
1.62341e-06
1.60485e-06
1.58526e-06
1.56468e-06
1.54311e-06
1.52059e-06
1.49713e-06
1.47272e-06
1.44736e-06
1.49427e-06
1.47989e-06
1.46457e-06
1.44847e-06
1.43159e-06
1.41395e-06
1.39554e-06
1.37635e-06
1.35634e-06
1.33547e-06
1.36001e-06
1.3482e-06
1.33567e-06
1.32252e-06
1.30876e-06
1.29438e-06
1.27936e-06
1.26369e-06
1.2473e-06
1.23015e-06
1.22812e-06
1.2179e-06
1.20718e-06
1.19595e-06
1.18421e-06
1.17193e-06
1.1591e-06
1.14565e-06
1.13151e-06
1.11861e-06
1.11016e-06
1.10129e-06
1.09199e-06
1.08227e-06
1.07212e-06
1.0615e-06
1.05038e-06
1.03867e-06
1.01778e-06
1.01052e-06
1.00292e-06
9.94981e-07
9.8672e-07
9.78135e-07
9.69203e-07
9.59887e-07
9.23502e-07
9.16942e-07
9.10132e-07
9.03102e-07
8.95874e-07
8.88448e-07
8.80804e-07
8.72911e-07
8.34419e-07
8.2824e-07
8.21932e-07
8.15534e-07
8.09062e-07
8.02513e-07
7.95872e-07
7.89123e-07
7.50457e-07
7.4454e-07
7.38619e-07
7.32711e-07
7.26843e-07
7.21e-07
7.15183e-07
7.09383e-07
6.66722e-07
6.61125e-07
6.55616e-07
6.50228e-07
6.44952e-07
6.39813e-07
6.3477e-07
5.96732e-07
5.91394e-07
5.8621e-07
5.81188e-07
5.76368e-07
5.71747e-07
5.67285e-07
5.39412e-07
5.34271e-07
5.29287e-07
5.24485e-07
5.19916e-07
5.15556e-07
5.11427e-07
4.93729e-07
4.88804e-07
4.83993e-07
4.79355e-07
4.74898e-07
4.70655e-07
4.66669e-07
4.52577e-07
4.47915e-07
4.43333e-07
4.3887e-07
4.34536e-07
4.30402e-07
4.26486e-07
4.13247e-07
4.08749e-07
4.04289e-07
3.99891e-07
3.95628e-07
3.91559e-07
3.87696e-07
3.76604e-07
3.72023e-07
3.67358e-07
3.62664e-07
3.58056e-07
3.53609e-07
3.40863e-07
3.35932e-07
3.30867e-07
3.25729e-07
3.20603e-07
3.15551e-07
3.00595e-07
2.93836e-07
2.86961e-07
2.80147e-07
2.73589e-07
2.67438e-07
2.45551e-07
2.3566e-07
2.2533e-07
2.14782e-07
2.04261e-07
1.93296e-07
1.83414e-07
1.74326e-07
1.66388e-07
1.59953e-07
1.90863e-07
1.84497e-07
1.79683e-07
1.76317e-07
1.74211e-07
3.49886e-07
3.7565e-07
4.00702e-07
4.24509e-07
4.46557e-07
8.32499e-07
8.46506e-07
8.57597e-07
8.65855e-07
8.71667e-07
1.61866e-06
1.63914e-06
1.65426e-06
1.66431e-06
1.67027e-06
)
;

boundaryField
{
    inlet
    {
        type            calculated;
        value           nonuniform List<scalar> 5(5.06307e-06 5.20326e-06 5.32958e-06 5.44229e-06 5.54165e-06);
    }
    outlet
    {
        type            calculated;
        value           nonuniform List<scalar> 0();
    }
    walls
    {
        type            calculated;
        value           uniform 0;
    }
    frontAndBack
    {
        type            empty;
    }
    procBoundary1to0
    {
        type            processor;
        value           nonuniform List<scalar> 
94
(
0.000478399
0.000478399
0.000395586
0.000395586
0.000328832
0.000328832
0.000274911
0.000274911
0.00023087
0.00023087
0.000195015
0.000195015
0.000170826
0.000145814
0.000145814
0.000128563
0.000110685
0.000110685
9.80591e-05
8.69687e-05
7.55727e-05
7.55727e-05
6.72281e-05
5.86862e-05
5.86862e-05
5.23164e-05
4.66575e-05
4.08998e-05
4.08998e-05
3.65243e-05
3.26252e-05
2.86719e-05
2.86719e-05
2.56375e-05
2.25532e-05
2.25532e-05
2.01854e-05
1.80733e-05
1.59232e-05
1.59232e-05
1.42749e-05
1.28047e-05
1.13044e-05
1.13044e-05
1.01584e-05
9.13611e-06
8.08972e-06
8.08972e-06
7.2933e-06
6.58156e-06
5.85179e-06
5.85179e-06
5.29572e-06
4.79746e-06
4.28649e-06
4.28649e-06
3.8948e-06
3.54213e-06
3.22416e-06
2.90163e-06
2.90163e-06
2.64775e-06
2.41676e-06
2.20585e-06
1.99311e-06
1.99311e-06
1.8181e-06
1.65637e-06
1.50731e-06
1.37075e-06
1.23775e-06
1.23775e-06
1.12655e-06
1.02461e-06
9.29725e-07
8.40358e-07
7.56224e-07
6.72396e-07
6.72396e-07
6.02203e-07
5.44721e-07
4.98756e-07
4.57264e-07
4.17728e-07
3.81058e-07
3.45595e-07
3.07017e-07
2.54821e-07
2.54821e-07
2.03657e-07
1.98738e-07
3.23337e-07
8.1627e-07
1.5923e-06
)
;
    }
    procBoundary1to2
    {
        type            processor;
        value           nonuniform List<scalar> 
84
(
48.1516
1.44842
0.312204
0.0115784
0.00259427
4.64789e-07
1.38253e-05
1.96079e-05
2.45153e-05
2.068e-05
2.0907e-05
1.93926e-05
1.86527e-05
1.76135e-05
1.66785e-05
1.56757e-05
1.46769e-05
1.36616e-05
1.26438e-05
1.16261e-05
1.06148e-05
9.61525e-06
8.63408e-06
7.67795e-06
6.75271e-06
5.86508e-06
5.02205e-06
4.23104e-06
3.50033e-06
2.84075e-06
2.26729e-06
1.80337e-06
1.48263e-06
1.33586e-06
1.35473e-06
1.48212e-06
1.65499e-06
1.83226e-06
2.51815e-06
2.51815e-06
2.55654e-06
2.58529e-06
2.59896e-06
2.59495e-06
2.57274e-06
2.53319e-06
2.47787e-06
2.40888e-06
2.32856e-06
2.23915e-06
2.14278e-06
2.04122e-06
1.93598e-06
1.88346e-06
1.88346e-06
1.76551e-06
1.64837e-06
1.53309e-06
1.42103e-06
1.31368e-06
1.21214e-06
1.11661e-06
1.02631e-06
9.50125e-07
9.50125e-07
8.64721e-07
7.82215e-07
7.03536e-07
6.29789e-07
5.63003e-07
5.07531e-07
4.62904e-07
4.22773e-07
3.84063e-07
3.49386e-07
3.49386e-07
3.10639e-07
2.61828e-07
1.94034e-07
1.55265e-07
1.72967e-07
4.66321e-07
8.75657e-07
1.67302e-06
)
;
    }
    procBoundary1to5
    {
        type            processor;
        value           nonuniform List<scalar> 
13
(
0.00385166
0.00385166
0.00242434
0.00187771
0.00187771
0.00154475
0.00121675
0.00121675
0.00101254
0.000824392
0.000680822
0.000680822
0.000581063
)
;
    }
}


// ************************************************************************* //
