/*--------------------------------*- C++ -*----------------------------------*\
| =========                 |                                                 |
| \\      /  F ield         | OpenFOAM: The Open Source CFD Toolbox           |
|  \\    /   O peration     | Version:  2506                                  |
|   \\  /    A nd           | Website:  www.openfoam.com                      |
|    \\/     M anipulation  |                                                 |
\*---------------------------------------------------------------------------*/
FoamFile
{
    version     2.0;
    format      ascii;
    arch        "LSB;label=32;scalar=64";
    class       volScalarField;
    location    "250";
    object      turbulenceProperties:epsilon;
}
// * * * * * * * * * * * * * * * * * * * * * * * * * * * * * * * * * * * * * //

dimensions      [0 2 -3 0 0 0 0];

internalField   nonuniform List<scalar> 
1340
(
0.0063102
0.00685128
0.0122562
0.0258938
0.0542361
0.107184
0.19772
0.340198
0.553773
0.870478
1.3531
2.12217
3.40274
5.64794
9.71617
17.6499
33.2396
67.693
140.9
319.132
663.479
945.196
1067.03
1100.27
1101.83
1088.22
1062.45
1025.45
0.00354085
0.00273927
0.00209077
0.00153394
0.00108395
0.000757234
0.000526629
0.000363647
0.000248982
0.000169084
0.000113285
7.46536e-05
4.72633e-05
2.75573e-05
1.31714e-05
4.21331e-06
4.00242e-07
6.76292e-09
5.61147e-08
0.000987311
0.00607235
0.0513369
0.170887
0.319967
0.466923
0.615668
0.774192
0.947162
1.13503
0.00226297
0.00182792
0.00146511
0.00113367
0.000824488
0.000571924
0.000384942
0.000253493
0.000165588
0.000108222
7.1943e-05
4.93485e-05
3.55804e-05
2.70751e-05
2.18869e-05
1.88105e-05
1.72111e-05
1.63571e-05
1.6297e-05
1.61103e-05
1.82209e-05
6.36431e-06
0.000167718
0.000992572
0.00208894
0.00364646
0.00960575
0.0265567
0.059905
0.00161296
0.00139161
0.00117402
0.000967111
0.000765232
0.000581403
0.00043196
0.000318357
0.000234326
0.000173342
0.000129287
9.78757e-05
7.55179e-05
5.96679e-05
4.81416e-05
3.96858e-05
3.32141e-05
2.79035e-05
2.28173e-05
1.81242e-05
1.46338e-05
1.22447e-05
1.06575e-05
8.88413e-06
6.83331e-06
3.86254e-06
1.53797e-06
2.28608e-05
1.51563e-05
6.87286e-05
0.00101926
0.000898137
0.000776615
0.00065677
0.000536781
0.000424796
0.000327886
0.00024828
0.00018494
0.000136044
9.92575e-05
7.22568e-05
5.2855e-05
3.91592e-05
2.95103e-05
2.27148e-05
1.7831e-05
1.41662e-05
1.10632e-05
8.3023e-06
6.10409e-06
4.59891e-06
3.68372e-06
3.31283e-06
2.83283e-06
4.1732e-06
2.06568e-07
8.55034e-06
5.1377e-05
0.000108264
0.00072945
0.000665559
0.000595649
0.000524947
0.000453137
0.000379902
0.000310123
0.000247697
0.00019452
0.000150747
0.00011578
8.85969e-05
6.79181e-05
5.24571e-05
4.10295e-05
3.25794e-05
2.62713e-05
2.14155e-05
1.74722e-05
1.39465e-05
1.07055e-05
8.01745e-06
5.98954e-06
4.5193e-06
3.44568e-06
2.66376e-06
2.07369e-06
1.60035e-06
1.00507e-06
4.11649e-07
3.01519e-14
0.000485839
0.000447191
0.000405672
0.000362717
0.000318195
0.00027273
0.000228722
0.00018817
0.000152251
0.000121383
9.55993e-05
7.46319e-05
5.79557e-05
4.49677e-05
3.50201e-05
2.74529e-05
2.16972e-05
1.7254e-05
1.37045e-05
1.06783e-05
8.02592e-06
5.86149e-06
4.2392e-06
3.07708e-06
2.25136e-06
1.67569e-06
1.30055e-06
1.08199e-06
9.64474e-07
8.37235e-07
7.01234e-07
0.000332252
0.000307815
0.000282185
0.000255222
0.000226948
0.000198154
0.000169876
0.000143238
0.000118954
9.73935e-05
7.87666e-05
6.31169e-05
5.02571e-05
3.9932e-05
3.17901e-05
2.54275e-05
2.04532e-05
1.6512e-05
1.32899e-05
1.05134e-05
8.06846e-06
6.03667e-06
4.46437e-06
3.29139e-06
2.41691e-06
1.76462e-06
1.28568e-06
9.35764e-07
6.80448e-07
4.94621e-07
3.82143e-07
0.00024553
0.000232036
0.000216255
0.000199867
0.000182468
0.000164153
0.000145546
0.000127117
0.000109449
9.29616e-05
7.79048e-05
6.44815e-05
5.28128e-05
4.28952e-05
3.46465e-05
2.79126e-05
2.24838e-05
1.81254e-05
1.46004e-05
1.16878e-05
9.19832e-06
7.04284e-06
5.25629e-06
3.86809e-06
2.8314e-06
2.06436e-06
1.50029e-06
1.09404e-06
8.12294e-07
6.25574e-07
5.09832e-07
4.49052e-07
0.000164959
0.000154561
0.00014375
0.00013224
0.000120184
0.000107947
9.57573e-05
8.39305e-05
7.26804e-05
6.21548e-05
5.2525e-05
4.39133e-05
3.63666e-05
2.99029e-05
2.44665e-05
1.99594e-05
1.62496e-05
1.31856e-05
1.06177e-05
8.4168e-06
6.51264e-06
4.92386e-06
3.6703e-06
2.717e-06
1.99915e-06
1.46097e-06
1.06348e-06
7.75783e-07
5.70339e-07
4.31041e-07
3.41703e-07
0.000112074
0.000104765
9.69901e-05
8.89266e-05
8.07615e-05
7.25884e-05
6.45872e-05
5.68707e-05
4.95156e-05
4.2625e-05
3.63e-05
3.05997e-05
2.55684e-05
2.12136e-05
1.74999e-05
1.43606e-05
1.1711e-05
9.4578e-06
7.51713e-06
5.84212e-06
4.44105e-06
3.32436e-06
2.46622e-06
1.8162e-06
1.32823e-06
9.68477e-07
7.10271e-07
5.30583e-07
4.12961e-07
3.41024e-07
7.72304e-05
7.18888e-05
6.64129e-05
6.08792e-05
5.53356e-05
4.98768e-05
4.45541e-05
3.93953e-05
3.44727e-05
2.98514e-05
2.55773e-05
2.17031e-05
1.82532e-05
1.52332e-05
1.26196e-05
1.03681e-05
8.42217e-06
6.73169e-06
5.27097e-06
4.0423e-06
3.05187e-06
2.28066e-06
1.69002e-06
1.24243e-06
9.08807e-07
6.66143e-07
4.93588e-07
3.7705e-07
3.03845e-07
5.37755e-05
5.00023e-05
4.62069e-05
4.2404e-05
3.86424e-05
3.4946e-05
3.13232e-05
2.78044e-05
2.44348e-05
2.12489e-05
1.82896e-05
1.55861e-05
1.31567e-05
1.10021e-05
9.10557e-06
7.43972e-06
5.97965e-06
4.71231e-06
3.64039e-06
2.76695e-06
2.0787e-06
1.54655e-06
1.1404e-06
8.35967e-07
6.13692e-07
4.5578e-07
3.49398e-07
2.82977e-07
3.79172e-05
3.52801e-05
3.26423e-05
3.00308e-05
2.74496e-05
2.48927e-05
2.23788e-05
1.99285e-05
1.7563e-05
1.53167e-05
1.32163e-05
1.12825e-05
9.52557e-06
7.94647e-06
6.5365e-06
5.28825e-06
4.19789e-06
3.26856e-06
2.50338e-06
1.89291e-06
1.41581e-06
1.04852e-06
7.70958e-07
5.66623e-07
4.20002e-07
3.19912e-07
2.56284e-07
2.70819e-05
2.52351e-05
2.34043e-05
2.1589e-05
1.97788e-05
1.7978e-05
1.61987e-05
1.44505e-05
1.2755e-05
1.11337e-05
9.60666e-06
8.18932e-06
6.88982e-06
5.70944e-06
4.64985e-06
3.71672e-06
2.91591e-06
2.2497e-06
1.71172e-06
1.28668e-06
9.56589e-07
7.05176e-07
5.18772e-07
3.84213e-07
2.91791e-07
2.32443e-07
2.08864e-05
1.95798e-05
1.8288e-05
1.7004e-05
1.57155e-05
1.44237e-05
1.31297e-05
1.18397e-05
1.05659e-05
9.32316e-06
8.12776e-06
6.99422e-06
5.93434e-06
4.9551e-06
4.06518e-06
3.27365e-06
2.58819e-06
2.01164e-06
1.54048e-06
1.1641e-06
8.69028e-07
6.42377e-07
4.72965e-07
3.49669e-07
2.64154e-07
2.08463e-07
1.52441e-05
1.4324e-05
1.34086e-05
1.24879e-05
1.15577e-05
1.06172e-05
9.66637e-06
8.71296e-06
7.76544e-06
6.8363e-06
5.93765e-06
5.08068e-06
4.27538e-06
3.53357e-06
2.86708e-06
2.28388e-06
1.78815e-06
1.37818e-06
1.04696e-06
7.84757e-07
5.8157e-07
4.2841e-07
3.16071e-07
2.37471e-07
1.85631e-07
1.19039e-05
1.12435e-05
1.05871e-05
9.92479e-06
9.25284e-06
8.56768e-06
7.86722e-06
7.15505e-06
6.43593e-06
5.71768e-06
5.01039e-06
4.32419e-06
3.66843e-06
3.05476e-06
2.4965e-06
2.00371e-06
1.58032e-06
1.22594e-06
9.36311e-07
7.04682e-07
5.23523e-07
3.85722e-07
2.83812e-07
2.11821e-07
1.63706e-07
8.84286e-06
8.36872e-06
7.88967e-06
7.40192e-06
6.90174e-06
6.38555e-06
5.85416e-06
5.3101e-06
4.75835e-06
4.20515e-06
3.65877e-06
3.12808e-06
2.62491e-06
2.16174e-06
1.74811e-06
1.38863e-06
1.08414e-06
8.32391e-07
6.28947e-07
4.6831e-07
3.44966e-07
2.52988e-07
1.87374e-07
1.42961e-07
6.96711e-06
6.62192e-06
6.2736e-06
5.91808e-06
5.55156e-06
5.17067e-06
4.77463e-06
4.3638e-06
3.94111e-06
3.51111e-06
3.07948e-06
2.65327e-06
2.24331e-06
1.86135e-06
1.51624e-06
1.21293e-06
9.52975e-07
7.35542e-07
5.57921e-07
4.16279e-07
3.06451e-07
2.23844e-07
1.64312e-07
1.23522e-07
5.49787e-06
5.24488e-06
4.98995e-06
4.72953e-06
4.46e-06
4.17817e-06
3.88286e-06
3.57338e-06
3.25077e-06
2.91758e-06
2.57839e-06
2.23863e-06
1.90694e-06
1.59364e-06
1.30746e-06
1.05319e-06
8.32662e-07
6.46011e-07
4.91831e-07
3.67616e-07
2.70325e-07
1.96502e-07
1.42748e-07
1.05503e-07
4.15825e-06
3.97025e-06
3.77817e-06
3.57926e-06
3.3703e-06
3.14971e-06
2.91651e-06
2.67079e-06
2.41394e-06
2.14856e-06
1.87889e-06
1.61204e-06
1.35695e-06
1.12118e-06
9.09218e-07
7.2322e-07
5.63903e-07
4.30816e-07
3.22471e-07
2.36751e-07
1.71101e-07
1.22806e-07
8.90002e-08
3.29941e-06
3.15989e-06
3.01766e-06
2.86992e-06
2.71435e-06
2.54939e-06
2.37362e-06
2.18663e-06
1.98904e-06
1.78235e-06
1.56944e-06
1.35598e-06
1.14935e-06
9.56198e-07
7.80421e-07
6.24412e-07
4.89214e-07
3.74994e-07
2.81006e-07
2.05865e-07
1.47766e-07
1.04594e-07
7.4098e-08
2.51591e-06
2.40965e-06
2.29942e-06
2.18321e-06
2.05951e-06
1.92691e-06
1.78477e-06
1.63311e-06
1.47262e-06
1.30521e-06
1.13517e-06
9.68554e-07
8.10979e-07
6.66117e-07
5.35973e-07
4.21872e-07
3.24379e-07
2.43269e-07
1.77732e-07
1.26575e-07
8.8184e-08
6.0841e-08
2.00382e-06
1.92406e-06
1.84131e-06
1.75406e-06
1.661e-06
1.56086e-06
1.45269e-06
1.33633e-06
1.21198e-06
1.08081e-06
9.45967e-07
8.12316e-07
6.84394e-07
5.6553e-07
4.575e-07
3.61704e-07
2.78896e-07
2.09251e-07
1.52381e-07
1.07557e-07
7.35965e-08
4.92299e-08
1.59659e-06
1.53625e-06
1.47388e-06
1.40807e-06
1.33773e-06
1.26188e-06
1.17958e-06
1.09037e-06
9.94112e-07
8.91499e-07
7.8487e-07
6.78015e-07
5.74719e-07
4.77604e-07
3.88386e-07
3.08355e-07
2.38377e-07
1.78883e-07
1.29779e-07
9.06879e-08
6.08088e-08
3.9238e-08
1.22671e-06
1.17935e-06
1.12945e-06
1.07619e-06
1.01854e-06
9.55765e-07
8.87348e-07
8.12971e-07
7.32874e-07
6.48814e-07
5.63661e-07
4.80495e-07
4.01481e-07
3.28092e-07
2.61513e-07
2.0266e-07
1.52063e-07
1.09862e-07
7.59374e-08
4.97866e-08
3.08085e-08
9.79743e-07
9.43551e-07
9.05524e-07
8.64942e-07
8.21022e-07
7.73059e-07
7.20509e-07
6.6302e-07
6.00591e-07
5.34437e-07
4.66777e-07
4.0003e-07
3.35966e-07
2.75844e-07
2.20707e-07
1.71435e-07
1.28608e-07
9.25119e-08
6.32171e-08
4.04492e-08
2.38529e-08
7.82677e-07
7.54863e-07
7.25742e-07
6.94701e-07
6.61109e-07
6.24368e-07
5.83981e-07
5.39518e-07
4.90876e-07
4.38883e-07
3.85204e-07
3.31799e-07
2.80033e-07
2.30961e-07
1.85483e-07
1.444e-07
1.08315e-07
7.75795e-08
5.24004e-08
3.26787e-08
1.82523e-08
6.03956e-07
5.81539e-07
5.57707e-07
5.31934e-07
5.03706e-07
4.72595e-07
4.38177e-07
4.00277e-07
3.59461e-07
3.16982e-07
2.74322e-07
2.32616e-07
1.92687e-07
1.55314e-07
1.21197e-07
9.09204e-08
6.48722e-08
4.33325e-08
2.63409e-08
1.38723e-08
4.83371e-07
4.66001e-07
4.47615e-07
4.27761e-07
4.06016e-07
3.82003e-07
3.55352e-07
3.25814e-07
2.93767e-07
2.60188e-07
2.26191e-07
1.92674e-07
1.60287e-07
1.29678e-07
1.01459e-07
7.61596e-08
5.41862e-08
3.58474e-08
2.12819e-08
1.05617e-08
3.73499e-07
3.59262e-07
3.43902e-07
3.27114e-07
3.0855e-07
2.87869e-07
2.64839e-07
2.39697e-07
2.13163e-07
1.86119e-07
1.59235e-07
1.33038e-07
1.08052e-07
8.48018e-08
6.37532e-08
4.5295e-08
2.97559e-08
1.73328e-08
8.16191e-09
2.99482e-07
2.88407e-07
2.76494e-07
2.63487e-07
2.4909e-07
2.33029e-07
2.1507e-07
1.9535e-07
1.74408e-07
1.52914e-07
1.31394e-07
1.10262e-07
8.99365e-08
7.08463e-08
5.34062e-08
3.79724e-08
2.48691e-08
1.43265e-08
6.51553e-09
2.40269e-07
2.31619e-07
2.22363e-07
2.12263e-07
2.01097e-07
1.88601e-07
1.74568e-07
1.5909e-07
1.42571e-07
1.2552e-07
1.08336e-07
9.13307e-08
7.48452e-08
5.92286e-08
4.48389e-08
3.19946e-08
2.09983e-08
1.20942e-08
5.46938e-09
1.86147e-07
1.78933e-07
1.71067e-07
1.62379e-07
1.52647e-07
1.41694e-07
1.29551e-07
1.16525e-07
1.0301e-07
8.931e-08
7.56624e-08
6.23341e-08
4.96115e-08
3.77875e-08
2.71476e-08
1.79649e-08
1.04789e-08
4.88174e-09
1.49738e-07
1.44093e-07
1.37965e-07
1.31201e-07
1.23614e-07
1.15051e-07
1.05528e-07
9.52663e-08
8.45712e-08
7.36697e-08
6.27445e-08
5.20048e-08
4.16762e-08
3.20036e-08
2.32306e-08
1.56006e-08
9.33588e-09
4.62431e-09
1.20579e-07
1.16162e-07
1.11383e-07
1.06105e-07
1.0019e-07
9.34975e-08
8.60266e-08
7.79525e-08
6.94984e-08
6.08413e-08
5.21201e-08
4.34943e-08
3.51422e-08
2.72658e-08
2.0067e-08
1.37584e-08
8.5399e-09
4.58686e-09
9.37683e-08
9.00327e-08
8.59169e-08
8.13028e-08
7.6071e-08
7.02147e-08
6.38635e-08
5.71946e-08
5.03375e-08
4.33956e-08
3.64908e-08
2.97661e-08
2.33798e-08
1.7502e-08
1.23117e-08
7.98405e-09
4.67776e-09
7.58027e-08
7.28836e-08
6.96733e-08
6.60729e-08
6.19849e-08
5.74004e-08
5.2414e-08
4.71612e-08
4.17413e-08
3.62315e-08
3.07249e-08
2.53325e-08
2.01788e-08
1.5403e-08
1.11543e-08
7.5815e-09
6.1381e-08
5.90991e-08
5.65967e-08
5.379e-08
5.06004e-08
4.70136e-08
4.31042e-08
3.89752e-08
3.47027e-08
3.0344e-08
2.5969e-08
2.16626e-08
1.75236e-08
1.36627e-08
1.02019e-08
7.26539e-09
4.80121e-08
4.60623e-08
4.38752e-08
4.13881e-08
3.85863e-08
3.55267e-08
3.22902e-08
2.89317e-08
2.54949e-08
2.20322e-08
1.86085e-08
1.52999e-08
1.21943e-08
9.38911e-09
6.98633e-09
3.90818e-08
3.75624e-08
3.58614e-08
3.39263e-08
3.17421e-08
2.93529e-08
2.68215e-08
2.41893e-08
2.1489e-08
1.87593e-08
1.60494e-08
1.34173e-08
1.09313e-08
8.66876e-09
6.71103e-09
3.18753e-08
3.06958e-08
2.93766e-08
2.78721e-08
2.61724e-08
2.43115e-08
2.23375e-08
2.02816e-08
1.81673e-08
1.6024e-08
1.38881e-08
1.18041e-08
9.82384e-09
8.00745e-09
6.41915e-09
2.51384e-08
2.41152e-08
2.29492e-08
2.16306e-08
2.01849e-08
1.86499e-08
1.70491e-08
1.53999e-08
1.37239e-08
1.20481e-08
1.04055e-08
8.83566e-09
7.38426e-09
6.10102e-09
2.06298e-08
1.98397e-08
1.89384e-08
1.79178e-08
1.67979e-08
1.56078e-08
1.43659e-08
1.30845e-08
1.17792e-08
1.04699e-08
9.1811e-09
7.9422e-09
6.78747e-09
5.7548e-09
1.69657e-08
1.63562e-08
1.56614e-08
1.48739e-08
1.40095e-08
1.30904e-08
1.21302e-08
1.11381e-08
1.01256e-08
9.10691e-09
8.09994e-09
7.12641e-09
6.21166e-09
5.38373e-09
1.35119e-08
1.29784e-08
1.23724e-08
1.17073e-08
1.09998e-08
1.02601e-08
9.49491e-09
8.71255e-09
7.92315e-09
7.13958e-09
6.37772e-09
5.65592e-09
4.99461e-09
1.11839e-08
1.07751e-08
1.03108e-08
9.80082e-09
9.25814e-09
8.69039e-09
8.10244e-09
7.50016e-09
6.89074e-09
6.2834e-09
5.68942e-09
5.12186e-09
4.59552e-09
9.27342e-09
8.96171e-09
8.60735e-09
8.2176e-09
7.80273e-09
7.36859e-09
6.91842e-09
6.45636e-09
5.9876e-09
5.5185e-09
5.05697e-09
4.61225e-09
4.19463e-09
7.70215e-09
7.4651e-09
7.19562e-09
6.89887e-09
6.583e-09
6.25207e-09
5.90847e-09
5.5552e-09
5.19572e-09
4.83453e-09
4.47705e-09
4.12964e-09
3.79934e-09
6.22667e-09
6.02249e-09
5.79726e-09
5.55724e-09
5.30569e-09
5.04424e-09
4.77486e-09
4.49998e-09
4.22269e-09
3.9466e-09
3.67596e-09
3.41555e-09
5.19863e-09
5.04401e-09
4.87344e-09
4.69159e-09
4.50082e-09
4.30228e-09
4.09732e-09
3.88765e-09
3.67531e-09
3.46262e-09
3.25241e-09
3.04778e-09
4.34185e-09
4.22498e-09
4.09587e-09
3.95816e-09
3.81362e-09
3.66307e-09
3.50742e-09
3.34781e-09
3.18553e-09
3.02211e-09
2.85932e-09
3.62495e-09
3.53637e-09
3.43857e-09
3.33425e-09
3.22474e-09
3.11062e-09
2.99257e-09
2.87124e-09
2.74748e-09
2.62224e-09
2.4966e-09
2.95523e-09
2.88098e-09
2.8018e-09
2.71876e-09
2.63229e-09
2.54282e-09
2.45077e-09
2.35664e-09
2.26098e-09
2.16436e-09
2.46372e-09
2.40713e-09
2.347e-09
2.28408e-09
2.21864e-09
2.15097e-09
2.08131e-09
2.00995e-09
1.93715e-09
1.86318e-09
2.04831e-09
2.00526e-09
1.95968e-09
1.91214e-09
1.86279e-09
1.81181e-09
1.75931e-09
1.70544e-09
1.65028e-09
1.59393e-09
1.69893e-09
1.66638e-09
1.63207e-09
1.59639e-09
1.5594e-09
1.5212e-09
1.48185e-09
1.44137e-09
1.39976e-09
1.35701e-09
1.40735e-09
1.38302e-09
1.35743e-09
1.33083e-09
1.30328e-09
1.2748e-09
1.2454e-09
1.21507e-09
1.18376e-09
1.15143e-09
1.14763e-09
1.12862e-09
1.10883e-09
1.0883e-09
1.06703e-09
1.04503e-09
1.02226e-09
9.98674e-10
9.74185e-10
9.52091e-10
9.37768e-10
9.22835e-10
9.07322e-10
8.91242e-10
8.74594e-10
8.57357e-10
8.3948e-10
8.20877e-10
7.8819e-10
7.76986e-10
7.65333e-10
7.53267e-10
7.40811e-10
7.27976e-10
7.14741e-10
7.01066e-10
6.48925e-10
6.39737e-10
6.3027e-10
6.20571e-10
6.10676e-10
6.00593e-10
5.90302e-10
5.7977e-10
5.29766e-10
5.21948e-10
5.14027e-10
5.06055e-10
4.98055e-10
4.90023e-10
4.81947e-10
4.73808e-10
4.28513e-10
4.21782e-10
4.15099e-10
4.08484e-10
4.01967e-10
3.95529e-10
3.89173e-10
3.82886e-10
3.38218e-10
3.32563e-10
3.27043e-10
3.21689e-10
3.16489e-10
3.11465e-10
3.06574e-10
2.70932e-10
2.66106e-10
2.61461e-10
2.57e-10
2.52754e-10
2.48717e-10
2.4485e-10
2.21381e-10
2.17181e-10
2.13147e-10
2.09297e-10
2.05666e-10
2.0223e-10
1.99004e-10
1.8547e-10
1.81788e-10
1.78227e-10
1.74827e-10
1.71591e-10
1.68537e-10
1.65695e-10
1.5584e-10
1.52646e-10
1.49538e-10
1.46542e-10
1.43662e-10
1.40941e-10
1.38388e-10
1.2993e-10
1.27117e-10
1.24358e-10
1.21667e-10
1.19086e-10
1.1665e-10
1.14359e-10
1.0791e-10
1.053e-10
1.02675e-10
1.00068e-10
9.75413e-11
9.51334e-11
8.8399e-11
8.586e-11
8.32902e-11
8.0723e-11
7.82025e-11
7.57572e-11
6.87461e-11
6.5689e-11
6.26508e-11
5.97107e-11
5.6948e-11
5.44158e-11
4.58734e-11
4.2252e-11
3.86289e-11
3.50969e-11
3.17426e-11
2.84261e-11
2.55938e-11
2.31203e-11
2.10625e-11
1.94649e-11
2.7715e-11
2.5897e-11
2.45632e-11
2.36514e-11
2.30898e-11
9.31398e-11
1.07361e-10
1.22158e-10
1.37104e-10
1.51716e-10
5.27293e-10
5.45182e-10
5.59558e-10
5.70381e-10
5.78058e-10
1.9934e-09
2.04414e-09
2.08202e-09
2.10739e-09
2.1225e-09
)
;

boundaryField
{
    inlet
    {
        type            calculated;
        value           nonuniform List<scalar> 5(1.79713e-08 1.89803e-08 1.99131e-08 2.07642e-08 2.15293e-08);
    }
    outlet
    {
        type            calculated;
        value           nonuniform List<scalar> 0();
    }
    walls
    {
        type            calculated;
        value           uniform 0;
    }
    frontAndBack
    {
        type            empty;
    }
    procBoundary1to0
    {
        type            processor;
        value           nonuniform List<scalar> 
94
(
0.000174126
0.000174126
0.000119059
0.000119059
8.22681e-05
8.22681e-05
5.74998e-05
5.74998e-05
4.05526e-05
4.05526e-05
2.89349e-05
2.89349e-05
2.2202e-05
1.61766e-05
1.61766e-05
1.25752e-05
9.32097e-06
9.32097e-06
7.3158e-06
5.75456e-06
4.34527e-06
4.34527e-06
3.43866e-06
2.62035e-06
2.62035e-06
2.0824e-06
1.65627e-06
1.27271e-06
1.27271e-06
1.01497e-06
8.09833e-07
6.25465e-07
6.25465e-07
5.0008e-07
3.86994e-07
3.86994e-07
3.10002e-07
2.48521e-07
1.92908e-07
1.92908e-07
1.55039e-07
1.24746e-07
9.72269e-08
9.72269e-08
7.85133e-08
6.35061e-08
4.97922e-08
4.97922e-08
4.04709e-08
3.29574e-08
2.6054e-08
2.6054e-08
2.13377e-08
1.75114e-08
1.39799e-08
1.39799e-08
1.15417e-08
9.54622e-09
7.90929e-09
6.40603e-09
6.40603e-09
5.3341e-09
4.44402e-09
3.70221e-09
3.02256e-09
3.02256e-09
2.51507e-09
2.08752e-09
1.72871e-09
1.42966e-09
1.16571e-09
1.16571e-09
9.65662e-10
7.98798e-10
6.57699e-10
5.37334e-10
4.35125e-10
3.44e-10
3.44e-10
2.75924e-10
2.25761e-10
1.89266e-10
1.59085e-10
1.32763e-10
1.10477e-10
9.08707e-11
7.1715e-11
4.94025e-11
4.94025e-11
3.15554e-11
3.00493e-11
7.95415e-11
5.06939e-10
1.92902e-09
)
;
    }
    procBoundary1to2
    {
        type            processor;
        value           nonuniform List<scalar> 
84
(
978.957
1.34863
0.110734
0.000871041
0.000183525
7.78989e-11
1.36251e-07
2.92879e-07
4.57097e-07
3.25282e-07
3.32493e-07
2.8611e-07
2.64708e-07
2.36033e-07
2.1164e-07
1.86954e-07
1.6389e-07
1.42e-07
1.21629e-07
1.02837e-07
8.57245e-08
7.03403e-08
5.67173e-08
4.48512e-08
3.46928e-08
2.61717e-08
1.91887e-08
1.362e-08
9.32186e-09
6.13974e-09
3.91109e-09
2.47431e-09
1.67244e-09
1.35771e-09
1.39634e-09
1.67129e-09
2.08392e-09
2.55424e-09
4.8245e-09
4.8245e-09
4.97275e-09
5.08522e-09
5.13916e-09
5.12333e-09
5.03602e-09
4.88238e-09
4.67149e-09
4.41496e-09
4.12548e-09
3.81476e-09
3.49345e-09
3.17016e-09
2.85172e-09
2.6991e-09
2.6991e-09
2.37164e-09
2.06739e-09
1.78834e-09
1.53647e-09
1.3131e-09
1.11796e-09
9.48689e-10
8.01453e-10
6.86879e-10
6.86879e-10
5.68941e-10
4.65548e-10
3.766e-10
3.01781e-10
2.41167e-10
1.95983e-10
1.63032e-10
1.35989e-10
1.12225e-10
9.28744e-11
9.28744e-11
7.34165e-11
5.21567e-11
2.86434e-11
1.83406e-11
2.2761e-11
1.65442e-10
5.83358e-10
2.12948e-09
)
;
    }
    procBoundary1to5
    {
        type            processor;
        value           nonuniform List<scalar> 
13
(
0.0111743
0.0111743
0.00447546
0.00268203
0.00268203
0.00181553
0.00112635
0.00112635
0.000780012
0.000517069
0.000352654
0.000352654
0.000256879
)
;
    }
}


// ************************************************************************* //
