/*--------------------------------*- C++ -*----------------------------------*\
| =========                 |                                                 |
| \\      /  F ield         | OpenFOAM: The Open Source CFD Toolbox           |
|  \\    /   O peration     | Version:  2506                                  |
|   \\  /    A nd           | Website:  www.openfoam.com                      |
|    \\/     M anipulation  |                                                 |
\*---------------------------------------------------------------------------*/
FoamFile
{
    version     2.0;
    format      ascii;
    arch        "LSB;label=32;scalar=64";
    class       volScalarField;
    location    "250";
    object      turbulenceProperties:nut;
}
// * * * * * * * * * * * * * * * * * * * * * * * * * * * * * * * * * * * * * //

dimensions      [0 2 -1 0 0 0 0];

internalField   nonuniform List<scalar> 
1340
(
6.96016e-06
8.09542e-06
1.07897e-05
1.54799e-05
2.32253e-05
3.55743e-05
5.44529e-05
8.13875e-05
0.000117947
0.000167184
0.000236288
0.000339408
0.000501855
0.000773354
0.00124213
0.00211802
0.00377061
0.00733035
0.0147268
0.0324904
0.066339
0.0934801
0.10503
0.108437
0.109378
0.109474
0.108978
0.107976
5.9106e-06
6.02118e-06
5.9585e-06
5.81699e-06
5.62383e-06
5.38949e-06
5.12323e-06
4.82857e-06
4.49483e-06
4.11886e-06
3.6758e-06
3.16158e-06
2.54743e-06
1.84271e-06
1.07336e-06
4.20062e-07
5.39716e-08
1.454e-09
9.33169e-09
9.37588e-05
0.000540382
0.00415983
0.0141219
0.0287277
0.043735
0.0550692
0.0618312
0.0656126
0.0680106
6.14075e-06
6.12674e-06
6.13153e-06
6.14648e-06
6.1661e-06
6.19002e-06
6.2193e-06
6.25209e-06
6.28908e-06
6.32996e-06
6.37641e-06
6.42967e-06
6.49334e-06
6.57076e-06
6.67017e-06
6.79771e-06
6.97896e-06
7.17229e-06
7.43459e-06
7.15514e-06
7.24551e-06
2.48055e-06
8.3805e-05
0.00079092
0.00301898
0.00754481
0.0142571
0.0224418
0.0311651
6.09951e-06
6.10083e-06
6.10178e-06
6.09963e-06
6.09693e-06
6.09342e-06
6.08967e-06
6.0862e-06
6.08279e-06
6.07945e-06
6.07597e-06
6.0723e-06
6.0683e-06
6.06325e-06
6.05818e-06
6.05283e-06
6.04712e-06
6.04034e-06
6.03408e-06
6.02731e-06
6.02968e-06
6.02239e-06
6.082e-06
5.99801e-06
5.95115e-06
5.20921e-06
4.17884e-06
0.000226778
0.00104812
0.00305864
6.10838e-06
6.10626e-06
6.10437e-06
6.1033e-06
6.10305e-06
6.10304e-06
6.10298e-06
6.10336e-06
6.10392e-06
6.10491e-06
6.10617e-06
6.10774e-06
6.1096e-06
6.1118e-06
6.11429e-06
6.11706e-06
6.12011e-06
6.12355e-06
6.12736e-06
6.1323e-06
6.13659e-06
6.14986e-06
6.12946e-06
6.27236e-06
5.69387e-06
8.71126e-06
5.78818e-07
2.56214e-05
0.000245648
0.000716483
6.10557e-06
6.10532e-06
6.10394e-06
6.10269e-06
6.10169e-06
6.10109e-06
6.10067e-06
6.10023e-06
6.10003e-06
6.0999e-06
6.09994e-06
6.1e-06
6.10015e-06
6.10036e-06
6.10062e-06
6.10087e-06
6.1011e-06
6.10123e-06
6.10129e-06
6.10096e-06
6.10088e-06
6.10117e-06
6.10155e-06
6.10331e-06
6.10288e-06
6.11219e-06
6.09509e-06
6.18481e-06
5.44955e-06
3.42534e-06
2.14681e-12
6.1049e-06
6.10484e-06
6.10362e-06
6.1024e-06
6.10147e-06
6.10095e-06
6.10063e-06
6.10048e-06
6.1004e-06
6.10046e-06
6.10049e-06
6.10054e-06
6.1007e-06
6.10092e-06
6.10125e-06
6.10165e-06
6.10215e-06
6.10273e-06
6.1034e-06
6.1042e-06
6.10519e-06
6.10649e-06
6.10818e-06
6.1103e-06
6.11297e-06
6.11625e-06
6.11977e-06
6.12398e-06
6.17603e-06
5.87156e-06
5.32426e-06
6.10384e-06
6.10398e-06
6.10305e-06
6.10195e-06
6.10111e-06
6.10065e-06
6.1004e-06
6.10027e-06
6.10022e-06
6.10032e-06
6.10038e-06
6.10047e-06
6.1005e-06
6.10051e-06
6.10058e-06
6.10068e-06
6.10081e-06
6.10095e-06
6.10112e-06
6.10128e-06
6.10141e-06
6.10159e-06
6.10184e-06
6.10212e-06
6.10242e-06
6.10254e-06
6.10319e-06
6.10081e-06
6.11409e-06
6.08618e-06
6.29099e-06
6.10157e-06
6.10311e-06
6.10336e-06
6.10265e-06
6.10164e-06
6.10094e-06
6.10052e-06
6.10035e-06
6.10023e-06
6.10016e-06
6.10021e-06
6.10028e-06
6.1004e-06
6.1005e-06
6.10061e-06
6.10065e-06
6.10067e-06
6.10074e-06
6.10084e-06
6.101e-06
6.10118e-06
6.10141e-06
6.10176e-06
6.10227e-06
6.10297e-06
6.10385e-06
6.10495e-06
6.10635e-06
6.10786e-06
6.11029e-06
6.10899e-06
6.14481e-06
6.10245e-06
6.1028e-06
6.10223e-06
6.10134e-06
6.10078e-06
6.10044e-06
6.1003e-06
6.10014e-06
6.10005e-06
6.10007e-06
6.10011e-06
6.10023e-06
6.10036e-06
6.10051e-06
6.10064e-06
6.10075e-06
6.10082e-06
6.10085e-06
6.10086e-06
6.10089e-06
6.10092e-06
6.10102e-06
6.10121e-06
6.10149e-06
6.10186e-06
6.10231e-06
6.10277e-06
6.10355e-06
6.10327e-06
6.10894e-06
6.09161e-06
6.10234e-06
6.10187e-06
6.10106e-06
6.10059e-06
6.1003e-06
6.10016e-06
6.10004e-06
6.09992e-06
6.09989e-06
6.09992e-06
6.10003e-06
6.10016e-06
6.10033e-06
6.10048e-06
6.10063e-06
6.10075e-06
6.10086e-06
6.10093e-06
6.10097e-06
6.10095e-06
6.10101e-06
6.10116e-06
6.10142e-06
6.10177e-06
6.10224e-06
6.10278e-06
6.1037e-06
6.10372e-06
6.10834e-06
6.09312e-06
6.10156e-06
6.10082e-06
6.1004e-06
6.10014e-06
6.10002e-06
6.09991e-06
6.09976e-06
6.09972e-06
6.09971e-06
6.0998e-06
6.09991e-06
6.10007e-06
6.10024e-06
6.10042e-06
6.10059e-06
6.10076e-06
6.1009e-06
6.101e-06
6.1011e-06
6.10111e-06
6.10113e-06
6.10122e-06
6.10139e-06
6.10165e-06
6.10199e-06
6.10247e-06
6.10277e-06
6.10443e-06
6.10102e-06
6.10063e-06
6.10023e-06
6.09998e-06
6.09985e-06
6.09974e-06
6.09959e-06
6.09953e-06
6.0995e-06
6.09956e-06
6.09966e-06
6.09981e-06
6.09999e-06
6.10019e-06
6.10039e-06
6.10059e-06
6.10077e-06
6.10092e-06
6.10106e-06
6.10115e-06
6.10113e-06
6.10115e-06
6.10124e-06
6.10142e-06
6.10169e-06
6.10205e-06
6.10253e-06
6.10298e-06
6.10412e-06
6.10008e-06
6.09983e-06
6.09969e-06
6.09958e-06
6.09943e-06
6.09934e-06
6.09929e-06
6.09934e-06
6.09943e-06
6.09957e-06
6.09974e-06
6.09994e-06
6.10015e-06
6.10037e-06
6.10057e-06
6.10076e-06
6.10093e-06
6.10106e-06
6.10114e-06
6.10111e-06
6.10112e-06
6.10121e-06
6.10137e-06
6.10161e-06
6.10197e-06
6.10224e-06
6.1034e-06
6.09967e-06
6.09952e-06
6.0994e-06
6.09925e-06
6.09915e-06
6.0991e-06
6.09912e-06
6.09919e-06
6.09931e-06
6.09947e-06
6.09966e-06
6.09987e-06
6.10011e-06
6.10034e-06
6.10055e-06
6.10076e-06
6.10093e-06
6.10104e-06
6.10111e-06
6.10109e-06
6.10111e-06
6.10121e-06
6.10137e-06
6.10162e-06
6.1019e-06
6.10248e-06
6.09954e-06
6.09937e-06
6.09924e-06
6.09909e-06
6.09897e-06
6.0989e-06
6.09891e-06
6.09896e-06
6.09908e-06
6.09922e-06
6.09941e-06
6.09962e-06
6.09986e-06
6.1001e-06
6.10034e-06
6.10058e-06
6.10078e-06
6.10094e-06
6.10105e-06
6.1011e-06
6.10109e-06
6.10111e-06
6.1012e-06
6.10136e-06
6.10158e-06
6.1019e-06
6.09921e-06
6.09906e-06
6.09891e-06
6.0988e-06
6.09872e-06
6.09872e-06
6.09876e-06
6.09886e-06
6.09899e-06
6.09917e-06
6.09938e-06
6.09962e-06
6.09988e-06
6.10014e-06
6.10039e-06
6.10062e-06
6.10081e-06
6.10096e-06
6.10106e-06
6.1011e-06
6.10109e-06
6.10112e-06
6.10121e-06
6.10136e-06
6.10158e-06
6.09905e-06
6.0989e-06
6.09875e-06
6.09863e-06
6.09855e-06
6.09854e-06
6.09857e-06
6.09866e-06
6.09879e-06
6.09896e-06
6.09917e-06
6.09941e-06
6.09967e-06
6.09994e-06
6.10021e-06
6.10045e-06
6.10067e-06
6.10085e-06
6.10099e-06
6.10108e-06
6.10112e-06
6.10111e-06
6.10114e-06
6.10122e-06
6.10138e-06
6.09874e-06
6.09858e-06
6.09847e-06
6.0984e-06
6.09839e-06
6.09842e-06
6.0985e-06
6.09862e-06
6.09879e-06
6.09899e-06
6.09923e-06
6.09949e-06
6.09976e-06
6.10003e-06
6.10029e-06
6.10052e-06
6.10072e-06
6.10089e-06
6.10102e-06
6.10111e-06
6.10114e-06
6.10113e-06
6.10116e-06
6.10126e-06
6.09858e-06
6.09842e-06
6.09832e-06
6.09826e-06
6.09825e-06
6.09828e-06
6.09836e-06
6.09848e-06
6.09863e-06
6.09882e-06
6.09905e-06
6.09931e-06
6.09958e-06
6.09986e-06
6.10011e-06
6.10035e-06
6.10057e-06
6.10077e-06
6.10092e-06
6.10105e-06
6.10112e-06
6.10114e-06
6.10113e-06
6.10118e-06
6.09842e-06
6.09827e-06
6.09818e-06
6.09814e-06
6.09814e-06
6.09817e-06
6.09824e-06
6.09835e-06
6.09849e-06
6.09867e-06
6.09888e-06
6.09913e-06
6.09939e-06
6.09966e-06
6.09992e-06
6.10016e-06
6.10039e-06
6.10061e-06
6.10079e-06
6.10095e-06
6.10106e-06
6.10113e-06
6.10114e-06
6.10115e-06
6.09814e-06
6.09807e-06
6.09803e-06
6.09803e-06
6.09806e-06
6.09813e-06
6.09822e-06
6.09835e-06
6.09851e-06
6.09871e-06
6.09895e-06
6.0992e-06
6.09947e-06
6.09972e-06
6.09997e-06
6.10021e-06
6.10044e-06
6.10065e-06
6.10084e-06
6.10099e-06
6.1011e-06
6.10116e-06
6.10115e-06
6.09802e-06
6.09795e-06
6.09791e-06
6.09792e-06
6.09794e-06
6.098e-06
6.09809e-06
6.0982e-06
6.09835e-06
6.09854e-06
6.09877e-06
6.09902e-06
6.09927e-06
6.09952e-06
6.09977e-06
6.10002e-06
6.10026e-06
6.10049e-06
6.10069e-06
6.10087e-06
6.10102e-06
6.10113e-06
6.10116e-06
6.09783e-06
6.0978e-06
6.0978e-06
6.09782e-06
6.09787e-06
6.09795e-06
6.09806e-06
6.09819e-06
6.09837e-06
6.09859e-06
6.09883e-06
6.09908e-06
6.09932e-06
6.09957e-06
6.09982e-06
6.10006e-06
6.1003e-06
6.10053e-06
6.10073e-06
6.1009e-06
6.10104e-06
6.10113e-06
6.0977e-06
6.09767e-06
6.09767e-06
6.09769e-06
6.09774e-06
6.09781e-06
6.09791e-06
6.09804e-06
6.0982e-06
6.09841e-06
6.09863e-06
6.09887e-06
6.09911e-06
6.09935e-06
6.0996e-06
6.09985e-06
6.1001e-06
6.10034e-06
6.10056e-06
6.10077e-06
6.10094e-06
6.10106e-06
6.09757e-06
6.09754e-06
6.09754e-06
6.09756e-06
6.0976e-06
6.09767e-06
6.09776e-06
6.09788e-06
6.09803e-06
6.09822e-06
6.09844e-06
6.09867e-06
6.0989e-06
6.09914e-06
6.09938e-06
6.09964e-06
6.09989e-06
6.10015e-06
6.10039e-06
6.10062e-06
6.10082e-06
6.10097e-06
6.0974e-06
6.0974e-06
6.09742e-06
6.09746e-06
6.09752e-06
6.0976e-06
6.09771e-06
6.09786e-06
6.09804e-06
6.09824e-06
6.09846e-06
6.09868e-06
6.09892e-06
6.09916e-06
6.09941e-06
6.09967e-06
6.09993e-06
6.10019e-06
6.10043e-06
6.10066e-06
6.10085e-06
6.09724e-06
6.09724e-06
6.09726e-06
6.0973e-06
6.09736e-06
6.09744e-06
6.09754e-06
6.09768e-06
6.09785e-06
6.09804e-06
6.09825e-06
6.09846e-06
6.09868e-06
6.09892e-06
6.09917e-06
6.09943e-06
6.0997e-06
6.09997e-06
6.10023e-06
6.10047e-06
6.10069e-06
6.09708e-06
6.09708e-06
6.0971e-06
6.09714e-06
6.09719e-06
6.09726e-06
6.09736e-06
6.09749e-06
6.09764e-06
6.09783e-06
6.09803e-06
6.09823e-06
6.09844e-06
6.09868e-06
6.09892e-06
6.09918e-06
6.09945e-06
6.09973e-06
6.1e-06
6.10026e-06
6.1005e-06
6.09691e-06
6.09692e-06
6.09696e-06
6.09701e-06
6.09708e-06
6.09717e-06
6.09728e-06
6.09743e-06
6.09761e-06
6.09779e-06
6.09798e-06
6.09819e-06
6.09842e-06
6.09866e-06
6.09892e-06
6.09919e-06
6.09947e-06
6.09975e-06
6.10002e-06
6.10029e-06
6.09672e-06
6.09673e-06
6.09677e-06
6.09681e-06
6.09688e-06
6.09696e-06
6.09707e-06
6.09721e-06
6.09737e-06
6.09755e-06
6.09773e-06
6.09793e-06
6.09814e-06
6.09838e-06
6.09863e-06
6.0989e-06
6.09918e-06
6.09947e-06
6.09976e-06
6.10004e-06
6.09652e-06
6.09655e-06
6.0966e-06
6.09666e-06
6.09673e-06
6.09683e-06
6.09696e-06
6.09711e-06
6.09728e-06
6.09745e-06
6.09764e-06
6.09785e-06
6.09808e-06
6.09832e-06
6.09859e-06
6.09887e-06
6.09917e-06
6.09946e-06
6.09976e-06
6.09629e-06
6.09632e-06
6.09636e-06
6.09642e-06
6.09648e-06
6.09658e-06
6.0967e-06
6.09684e-06
6.09699e-06
6.09715e-06
6.09733e-06
6.09753e-06
6.09775e-06
6.09799e-06
6.09825e-06
6.09853e-06
6.09883e-06
6.09913e-06
6.09944e-06
6.09604e-06
6.09607e-06
6.0961e-06
6.09615e-06
6.09621e-06
6.09629e-06
6.0964e-06
6.09653e-06
6.09668e-06
6.09683e-06
6.097e-06
6.09718e-06
6.09739e-06
6.09763e-06
6.09788e-06
6.09816e-06
6.09845e-06
6.09876e-06
6.09908e-06
6.09578e-06
6.09581e-06
6.09585e-06
6.09591e-06
6.09598e-06
6.09608e-06
6.0962e-06
6.09633e-06
6.09647e-06
6.09663e-06
6.0968e-06
6.097e-06
6.09723e-06
6.09747e-06
6.09775e-06
6.09804e-06
6.09835e-06
6.09867e-06
6.09546e-06
6.09549e-06
6.09552e-06
6.09557e-06
6.09563e-06
6.09572e-06
6.09583e-06
6.09594e-06
6.09607e-06
6.09622e-06
6.09638e-06
6.09657e-06
6.09679e-06
6.09702e-06
6.09729e-06
6.09757e-06
6.09788e-06
6.09821e-06
6.09511e-06
6.09512e-06
6.09515e-06
6.09519e-06
6.09524e-06
6.09532e-06
6.09541e-06
6.09551e-06
6.09563e-06
6.09576e-06
6.09592e-06
6.09609e-06
6.09629e-06
6.09652e-06
6.09678e-06
6.09706e-06
6.09736e-06
6.0977e-06
6.09472e-06
6.09473e-06
6.09476e-06
6.0948e-06
6.09486e-06
6.09494e-06
6.09503e-06
6.09514e-06
6.09526e-06
6.0954e-06
6.09556e-06
6.09575e-06
6.09597e-06
6.09621e-06
6.09649e-06
6.09679e-06
6.09712e-06
6.09426e-06
6.09426e-06
6.09428e-06
6.09431e-06
6.09436e-06
6.09442e-06
6.0945e-06
6.09459e-06
6.09469e-06
6.09482e-06
6.09497e-06
6.09515e-06
6.09536e-06
6.09559e-06
6.09586e-06
6.09615e-06
6.09374e-06
6.09374e-06
6.09374e-06
6.09376e-06
6.09379e-06
6.09384e-06
6.09391e-06
6.09398e-06
6.09407e-06
6.09419e-06
6.09433e-06
6.09449e-06
6.09468e-06
6.09491e-06
6.09516e-06
6.09544e-06
6.09315e-06
6.09315e-06
6.09315e-06
6.09317e-06
6.0932e-06
6.09325e-06
6.09331e-06
6.09339e-06
6.09349e-06
6.09362e-06
6.09377e-06
6.09395e-06
6.09416e-06
6.0944e-06
6.09468e-06
6.09251e-06
6.09248e-06
6.09248e-06
6.09248e-06
6.0925e-06
6.09253e-06
6.09258e-06
6.09265e-06
6.09274e-06
6.09285e-06
6.09299e-06
6.09316e-06
6.09335e-06
6.09359e-06
6.09385e-06
6.09179e-06
6.09176e-06
6.09174e-06
6.09173e-06
6.09174e-06
6.09176e-06
6.09179e-06
6.09185e-06
6.09193e-06
6.09203e-06
6.09215e-06
6.09231e-06
6.0925e-06
6.09272e-06
6.09297e-06
6.09098e-06
6.09095e-06
6.09093e-06
6.09092e-06
6.09093e-06
6.09096e-06
6.091e-06
6.09107e-06
6.09116e-06
6.09128e-06
6.09143e-06
6.0916e-06
6.09181e-06
6.09205e-06
6.09015e-06
6.09011e-06
6.09008e-06
6.09006e-06
6.09006e-06
6.09008e-06
6.09012e-06
6.09018e-06
6.09026e-06
6.09037e-06
6.09051e-06
6.09068e-06
6.09088e-06
6.09111e-06
6.08927e-06
6.08923e-06
6.08919e-06
6.08917e-06
6.08917e-06
6.08918e-06
6.08921e-06
6.08927e-06
6.08935e-06
6.08945e-06
6.08959e-06
6.08975e-06
6.08994e-06
6.09016e-06
6.08832e-06
6.08828e-06
6.08826e-06
6.08825e-06
6.08827e-06
6.0883e-06
6.08835e-06
6.08843e-06
6.08853e-06
6.08866e-06
6.08882e-06
6.089e-06
6.08922e-06
6.0874e-06
6.08737e-06
6.08735e-06
6.08734e-06
6.08735e-06
6.08739e-06
6.08744e-06
6.08752e-06
6.08762e-06
6.08775e-06
6.0879e-06
6.08808e-06
6.08829e-06
6.08649e-06
6.08645e-06
6.08644e-06
6.08643e-06
6.08645e-06
6.08648e-06
6.08654e-06
6.08662e-06
6.08672e-06
6.08685e-06
6.08699e-06
6.08717e-06
6.08737e-06
6.08557e-06
6.08554e-06
6.08552e-06
6.08552e-06
6.08554e-06
6.08558e-06
6.08563e-06
6.08571e-06
6.08581e-06
6.08593e-06
6.08608e-06
6.08625e-06
6.08645e-06
6.08462e-06
6.0846e-06
6.08459e-06
6.08461e-06
6.08464e-06
6.08469e-06
6.08476e-06
6.08485e-06
6.08497e-06
6.0851e-06
6.08527e-06
6.08546e-06
6.08365e-06
6.08362e-06
6.0836e-06
6.0836e-06
6.08362e-06
6.08366e-06
6.08371e-06
6.08379e-06
6.08389e-06
6.08402e-06
6.08417e-06
6.08435e-06
6.08259e-06
6.08254e-06
6.08249e-06
6.08247e-06
6.08246e-06
6.08247e-06
6.0825e-06
6.08256e-06
6.08264e-06
6.08274e-06
6.08287e-06
6.08138e-06
6.08129e-06
6.08121e-06
6.08115e-06
6.0811e-06
6.08107e-06
6.08107e-06
6.08109e-06
6.08114e-06
6.08121e-06
6.08131e-06
6.07983e-06
6.07971e-06
6.07959e-06
6.0795e-06
6.07944e-06
6.07939e-06
6.07938e-06
6.07938e-06
6.07942e-06
6.07949e-06
6.07817e-06
6.07799e-06
6.07784e-06
6.0777e-06
6.07759e-06
6.07751e-06
6.07746e-06
6.07743e-06
6.07744e-06
6.07747e-06
6.07636e-06
6.07615e-06
6.07596e-06
6.0758e-06
6.07567e-06
6.07556e-06
6.07548e-06
6.07543e-06
6.07541e-06
6.07541e-06
6.07456e-06
6.07435e-06
6.07416e-06
6.074e-06
6.07386e-06
6.07376e-06
6.07367e-06
6.07361e-06
6.07357e-06
6.07356e-06
6.07299e-06
6.07282e-06
6.07266e-06
6.07254e-06
6.07244e-06
6.07235e-06
6.07229e-06
6.07225e-06
6.07222e-06
6.0722e-06
6.07182e-06
6.07175e-06
6.0717e-06
6.07166e-06
6.07164e-06
6.07163e-06
6.07163e-06
6.07163e-06
6.07163e-06
6.0716e-06
6.07166e-06
6.07173e-06
6.07181e-06
6.07189e-06
6.07197e-06
6.07205e-06
6.07212e-06
6.07218e-06
6.07232e-06
6.07252e-06
6.07271e-06
6.0729e-06
6.07308e-06
6.07325e-06
6.07341e-06
6.07354e-06
6.07381e-06
6.07414e-06
6.07445e-06
6.07475e-06
6.07503e-06
6.0753e-06
6.07553e-06
6.07575e-06
6.07597e-06
6.07644e-06
6.07688e-06
6.07729e-06
6.07768e-06
6.07804e-06
6.07837e-06
6.07867e-06
6.07874e-06
6.07933e-06
6.07989e-06
6.08041e-06
6.0809e-06
6.08136e-06
6.08177e-06
6.08215e-06
6.08264e-06
6.0833e-06
6.08391e-06
6.08449e-06
6.08502e-06
6.08551e-06
6.08596e-06
6.08617e-06
6.0869e-06
6.08758e-06
6.08821e-06
6.0888e-06
6.08935e-06
6.08985e-06
6.08916e-06
6.08992e-06
6.09063e-06
6.0913e-06
6.09193e-06
6.09251e-06
6.09307e-06
6.09138e-06
6.09212e-06
6.09283e-06
6.0935e-06
6.09413e-06
6.09473e-06
6.0953e-06
6.09327e-06
6.09397e-06
6.09465e-06
6.09529e-06
6.0959e-06
6.09648e-06
6.09705e-06
6.09477e-06
6.09543e-06
6.09607e-06
6.09668e-06
6.09727e-06
6.09785e-06
6.09841e-06
6.09593e-06
6.09659e-06
6.09723e-06
6.09786e-06
6.09847e-06
6.09907e-06
6.09725e-06
6.09801e-06
6.09876e-06
6.0995e-06
6.10023e-06
6.10095e-06
6.09963e-06
6.10063e-06
6.10164e-06
6.10263e-06
6.10361e-06
6.10458e-06
6.10507e-06
6.10638e-06
6.10768e-06
6.10896e-06
6.11022e-06
6.10975e-06
6.11113e-06
6.11247e-06
6.11377e-06
6.11505e-06
6.10995e-06
6.11087e-06
6.11175e-06
6.11259e-06
6.1134e-06
6.10272e-06
6.10346e-06
6.10425e-06
6.1051e-06
6.10599e-06
6.09982e-06
6.10237e-06
6.10505e-06
6.10783e-06
6.1107e-06
6.10209e-06
6.10393e-06
6.10566e-06
6.10727e-06
6.10877e-06
)
;

boundaryField
{
    inlet
    {
        type            freestream;
        freestreamValue uniform 1e-05;
        value           uniform 1e-05;
    }
    outlet
    {
        type            freestream;
        freestreamValue nonuniform List<scalar> 0();
        value           nonuniform List<scalar> 0();
    }
    walls
    {
        type            nutUSpaldingWallFunction;
        value           nonuniform List<scalar> 
28
(
0.00044733
0.000550213
0.000888301
0.00120866
0.00147061
0.00168115
0.00185302
0.00199562
0.00211599
0.0022198
0.00231139
0.00239446
0.00247137
0.00254418
0.00261354
0.00267947
0.00273866
0.00278472
0.00281723
0.00283947
0.00285449
0.00286362
0.00286768
0.00286519
0.00285449
0.00283532
0.00280811
0.00277242
)
;
    }
    frontAndBack
    {
        type            empty;
    }
    procBoundary1to0
    {
        type            processor;
        value           nonuniform List<scalar> 
94
(
6.10105e-06
6.10105e-06
6.10196e-06
6.10196e-06
6.10197e-06
6.10197e-06
6.1013e-06
6.1013e-06
6.10046e-06
6.10046e-06
6.09994e-06
6.09994e-06
6.09981e-06
6.09938e-06
6.09938e-06
6.09923e-06
6.09889e-06
6.09889e-06
6.09874e-06
6.09859e-06
6.09827e-06
6.09827e-06
6.09813e-06
6.0979e-06
6.0979e-06
6.09777e-06
6.09763e-06
6.09743e-06
6.09743e-06
6.09727e-06
6.0971e-06
6.09691e-06
6.09691e-06
6.09671e-06
6.09651e-06
6.09651e-06
6.09628e-06
6.09603e-06
6.09576e-06
6.09576e-06
6.09545e-06
6.0951e-06
6.09471e-06
6.09471e-06
6.09426e-06
6.09376e-06
6.09317e-06
6.09317e-06
6.09254e-06
6.09184e-06
6.09102e-06
6.09102e-06
6.0902e-06
6.08933e-06
6.08837e-06
6.08837e-06
6.08745e-06
6.08653e-06
6.08561e-06
6.08465e-06
6.08465e-06
6.08369e-06
6.08265e-06
6.08147e-06
6.07997e-06
6.07997e-06
6.07835e-06
6.07658e-06
6.07479e-06
6.07319e-06
6.07191e-06
6.07191e-06
6.07157e-06
6.07213e-06
6.07348e-06
6.0755e-06
6.07813e-06
6.08194e-06
6.08194e-06
6.08539e-06
6.08835e-06
6.09058e-06
6.09252e-06
6.09407e-06
6.09526e-06
6.09649e-06
6.09862e-06
6.10374e-06
6.10374e-06
6.10833e-06
6.10897e-06
6.10203e-06
6.09744e-06
6.10014e-06
)
;
    }
    procBoundary1to2
    {
        type            processor;
        value           nonuniform List<scalar> 
84
(
0.106579
0.0700016
0.0396102
0.00692582
0.0016501
3.06257e-09
1.16233e-06
5.58424e-06
6.21099e-06
6.19265e-06
6.16483e-06
6.11902e-06
6.10235e-06
6.10146e-06
6.1024e-06
6.10235e-06
6.10197e-06
6.10165e-06
6.10144e-06
6.1013e-06
6.10122e-06
6.10118e-06
6.10116e-06
6.10113e-06
6.10111e-06
6.10108e-06
6.101e-06
6.10087e-06
6.10071e-06
6.10051e-06
6.10029e-06
6.10003e-06
6.09973e-06
6.09939e-06
6.09899e-06
6.09854e-06
6.09803e-06
6.09746e-06
6.09648e-06
6.09648e-06
6.09577e-06
6.09499e-06
6.09415e-06
6.09326e-06
6.09234e-06
6.09138e-06
6.09042e-06
6.08947e-06
6.08853e-06
6.08761e-06
6.08668e-06
6.08569e-06
6.08456e-06
6.08303e-06
6.08303e-06
6.08145e-06
6.07959e-06
6.07753e-06
6.07544e-06
6.07357e-06
6.0722e-06
6.07163e-06
6.07223e-06
6.07366e-06
6.07366e-06
6.07594e-06
6.07894e-06
6.0825e-06
6.08638e-06
6.09032e-06
6.09359e-06
6.09585e-06
6.0976e-06
6.09896e-06
6.09966e-06
6.09966e-06
6.10166e-06
6.10554e-06
6.11146e-06
6.11629e-06
6.11419e-06
6.10692e-06
6.11363e-06
6.11016e-06
)
;
    }
    procBoundary1to5
    {
        type            processor;
        value           nonuniform List<scalar> 
13
(
8.24291e-06
8.24291e-06
5.7795e-06
6.15848e-06
6.15848e-06
6.09748e-06
6.10956e-06
6.10956e-06
6.10383e-06
6.10321e-06
6.10221e-06
6.10221e-06
6.10216e-06
)
;
    }
}


// ************************************************************************* //
