/*--------------------------------*- C++ -*----------------------------------*\
| =========                 |                                                 |
| \\      /  F ield         | OpenFOAM: The Open Source CFD Toolbox           |
|  \\    /   O peration     | Version:  2506                                  |
|   \\  /    A nd           | Website:  www.openfoam.com                      |
|    \\/     M anipulation  |                                                 |
\*---------------------------------------------------------------------------*/
FoamFile
{
    version     2.0;
    format      ascii;
    arch        "LSB;label=32;scalar=64";
    class       volScalarField;
    location    "250";
    object      turbulenceProperties:I;
}
// * * * * * * * * * * * * * * * * * * * * * * * * * * * * * * * * * * * * * //

dimensions      [0 0 0 0 0 0 0];

internalField   nonuniform List<scalar> 
1340
(
0.0170027
0.0134811
0.00874221
0.00732148
0.00706292
0.00731376
0.00787066
0.00865671
0.00966596
0.0109381
0.0125668
0.0146971
0.0175316
0.0214045
0.0267206
0.0344096
0.0453626
0.0627201
0.0884525
0.131006
0.186852
0.221548
0.234703
0.23864
0.240295
0.241519
0.242568
0.243553
0.00583355
0.00715644
0.0063839
0.00446758
0.00313629
0.00234219
0.00183751
0.00148988
0.0012353
0.00104027
0.000884489
0.000756237
0.000645071
0.000542835
0.000438592
0.000325355
0.000185227
7.24461e-05
0.000113159
0.00129879
0.00295864
0.00830388
0.0151235
0.0210852
0.0257846
0.0293963
0.0322586
0.034746
0.0371169
0.00405572
0.00446446
0.00424673
0.00349836
0.00272194
0.00212255
0.00168589
0.00136378
0.00112243
0.000937882
0.000796133
0.000687074
0.000604284
0.000541274
0.00049402
0.000459189
0.000434716
0.000416813
0.000406246
0.000396825
0.000402719
0.000306538
0.00079754
0.00203005
0.00340373
0.00491334
0.00735074
0.0106646
0.0142998
0.00268416
0.0029908
0.00316894
0.0030821
0.00273168
0.00229086
0.00189351
0.0015748
0.00132672
0.00113407
0.000982716
0.000862972
0.000767301
0.000690411
0.000627363
0.000575215
0.000530969
0.000491919
0.000454093
0.000417884
0.000387924
0.000364806
0.000347652
0.000328717
0.000305511
0.000263527
0.000208897
0.000578097
0.000761464
0.00145994
0.00216716
0.00233675
0.00242965
0.00238869
0.00220547
0.00194526
0.00167725
0.00143622
0.00123098
0.00105994
0.000918144
0.000800776
0.000703736
0.000623707
0.000557497
0.000502692
0.000456836
0.00041754
0.000381149
0.000345829
0.000313543
0.000287151
0.000267939
0.000258187
0.000246272
0.000270921
0.000131187
0.000335146
0.000726133
0.00114281
0.00167232
0.00179416
0.00189734
0.00195248
0.00193035
0.00182467
0.00166311
0.00148156
0.00130497
0.00114524
0.00100615
0.000887387
0.000787038
0.000702786
0.000632274
0.000573104
0.000523117
0.000480106
0.00044188
0.000405657
0.000370126
0.000337011
0.000307854
0.000282873
0.000261402
0.000243113
0.000227119
0.000212279
0.000188816
0.000151547
3.78407e-06
0.00143476
0.0015169
0.0015848
0.00162029
0.00160705
0.0015419
0.00143745
0.00131251
0.00118286
0.00105843
0.000944387
0.00084258
0.000753081
0.00067526
0.000608071
0.000550142
0.000500118
0.000456489
0.000417567
0.000381179
0.000346009
0.000313037
0.000283572
0.000257973
0.000235877
0.000217235
0.000202734
0.000193015
0.000187433
0.000181203
0.000174087
0.00124695
0.00130451
0.0013516
0.0013758
0.00136741
0.0013251
0.00125487
0.00116712
0.00107156
0.000975471
0.000883649
0.00079874
0.000721838
0.000653341
0.000593007
0.000540137
0.000493786
0.000452816
0.000415858
0.00038123
0.000347925
0.000316652
0.000288381
0.000263291
0.000240875
0.000220693
0.000202657
0.000186533
0.000172085
0.000159131
0.000149851
0.0010497
0.00109554
0.00113742
0.00117132
0.00118853
0.00118304
0.00115437
0.00110566
0.00104281
0.000971818
0.000897649
0.000824095
0.000753651
0.00068781
0.000627407
0.000572725
0.00052363
0.000479671
0.000440115
0.000403977
0.000370074
0.000337649
0.00030712
0.000279315
0.000254499
0.000232352
0.000212574
0.000195183
0.000180495
0.000168872
0.00016065
0.00015626
0.000971461
0.00100285
0.00102797
0.00104055
0.0010369
0.00101683
0.000982094
0.000936254
0.000882994
0.000825593
0.000766897
0.000708975
0.000653259
0.000600813
0.000552185
0.000507587
0.000466913
0.000429747
0.000395425
0.000363143
0.000332331
0.000303301
0.00027671
0.000252788
0.000231262
0.000211808
0.000194332
0.00017886
0.000165359
0.000154325
0.000146163
0.00089233
0.000911348
0.000920755
0.0009183
0.000903881
0.000878521
0.000844485
0.000804117
0.000759557
0.000712772
0.000665355
0.000618522
0.000573275
0.000530309
0.000490011
0.000452487
0.000417595
0.00038495
0.000354039
0.000324521
0.000296645
0.000270927
0.000247611
0.000226529
0.000207458
0.000190366
0.000175391
0.000162754
0.000152972
0.000146329
0.00081469
0.000821865
0.000820182
0.000809561
0.000790681
0.000765027
0.000734113
0.000699301
0.000661986
0.000623296
0.000584153
0.000545438
0.000507801
0.000471743
0.000437527
0.000405186
0.000374515
0.00034524
0.000317241
0.000290726
0.000266118
0.000243648
0.000223217
0.000204646
0.000187885
0.000173032
0.000160191
0.000149818
0.0001424
0.000738878
0.000737694
0.000729725
0.000715421
0.000695789
0.000671857
0.000644523
0.000614679
0.000583124
0.000550535
0.000517604
0.000484892
0.000452877
0.000421893
0.000392085
0.000363421
0.000335821
0.000309302
0.000284091
0.000260532
0.000238854
0.000219023
0.000200917
0.000184516
0.000169949
0.000157383
0.00014728
0.000140124
0.000667419
0.000661319
0.0006503
0.000635091
0.000616387
0.000594761
0.000570833
0.000545103
0.000518028
0.000490135
0.000461876
0.00043366
0.000405814
0.00037856
0.000351977
0.000326142
0.000301177
0.000277318
0.000254878
0.000234072
0.000214914
0.000197333
0.000181324
0.000167015
0.000154549
0.000144355
0.000136926
0.000602107
0.000593502
0.00058156
0.00056679
0.000549571
0.000530293
0.000509291
0.00048684
0.000463291
0.000438982
0.000414248
0.000389401
0.000364675
0.000340203
0.00031613
0.000292697
0.000270186
0.00024887
0.000228949
0.000210476
0.000193428
0.000177819
0.000163788
0.000151492
0.000141355
0.000133852
0.000550384
0.000543561
0.00053409
0.000522322
0.000508503
0.000492909
0.00047571
0.000457086
0.000437247
0.000416422
0.000394861
0.000372815
0.000350513
0.000328115
0.000305838
0.00028397
0.000262819
0.000242639
0.000223631
0.000205876
0.000189386
0.000174198
0.000160454
0.000148305
0.000138161
0.000130481
0.000499378
0.00049177
0.000482295
0.000471133
0.000458443
0.00044433
0.000428862
0.000412172
0.000394382
0.000375667
0.000356215
0.000336212
0.000315829
0.000295313
0.000274997
0.00025519
0.000236152
0.000218071
0.000201051
0.000185136
0.000170381
0.00015693
0.00014494
0.000134805
0.00012697
0.000460037
0.00045386
0.000446168
0.000437074
0.000426693
0.000415061
0.000402195
0.000388151
0.000372983
0.000356785
0.000339696
0.000321864
0.000303432
0.000284629
0.000265813
0.000247337
0.00022944
0.000212299
0.000196032
0.000180709
0.0001664
0.000153248
0.000141414
0.000131274
0.000123254
0.000419753
0.000413448
0.000405982
0.000397433
0.000387808
0.000377078
0.000365249
0.000352328
0.000338354
0.000323392
0.000307546
0.000290937
0.000273796
0.000256472
0.000239306
0.000222534
0.00020633
0.000190822
0.000176099
0.000162244
0.000149395
0.00013772
0.000127568
0.000119352
0.000388942
0.000383721
0.000377547
0.000370463
0.000362456
0.00035348
0.000343506
0.000332495
0.000320448
0.000307391
0.000293373
0.000278475
0.000262909
0.000247014
0.000231115
0.000215447
0.000200177
0.000185434
0.000171321
0.000157928
0.000145387
0.000133868
0.000123695
0.000115265
0.000361004
0.000356641
0.000351493
0.000345585
0.000338888
0.000331346
0.000322915
0.000313532
0.000303157
0.000291773
0.000279406
0.0002661
0.000252021
0.000237478
0.0002228
0.000208213
0.000193866
0.000179888
0.000166387
0.000153458
0.000141227
0.000129863
0.000119655
0.000110995
0.000331913
0.00032758
0.000322611
0.000316981
0.000310619
0.000303469
0.000295456
0.000286519
0.000276616
0.000265725
0.000253863
0.000241165
0.000227915
0.000214414
0.000200869
0.000187425
0.000174203
0.00016131
0.000148847
0.000136928
0.000125713
0.00011546
0.000106547
0.000309268
0.000305591
0.000301388
0.000296619
0.000291224
0.00028514
0.000278283
0.000270576
0.00026196
0.000252386
0.000241837
0.000230419
0.000218378
0.000205993
0.000193447
0.000180878
0.000168399
0.000156113
0.000144115
0.000132508
0.000121438
0.000111127
0.000101937
0.000285344
0.000281753
0.000277688
0.00027309
0.000267892
0.000262007
0.000255354
0.000247857
0.000239447
0.000230082
0.000219832
0.00020891
0.000197567
0.000185981
0.000174259
0.000162506
0.000150819
0.000139284
0.000127987
0.000117058
0.000106678
9.71843e-05
0.000266666
0.000263578
0.000260088
0.000256144
0.000251681
0.000246616
0.000240856
0.000234323
0.000226933
0.000218627
0.000209443
0.000199561
0.000189196
0.000178514
0.000167602
0.000156554
0.000145454
0.000134375
0.000123389
0.000112599
0.000102139
9.23083e-05
0.000249414
0.000246734
0.00024372
0.000240316
0.000236463
0.000232083
0.000227088
0.000221386
0.000214887
0.000207516
0.00019929
0.000190356
0.000180907
0.000171073
0.000160936
0.00015057
0.000140042
0.000129417
0.000118741
0.000108086
9.75386e-05
8.734e-05
0.000231113
0.000228488
0.000225531
0.000222191
0.000218387
0.000214035
0.000209049
0.00020333
0.000196789
0.000189426
0.000181358
0.000172749
0.000163711
0.000154305
0.00014459
0.000134622
0.000124442
0.000114077
0.000103562
9.29236e-05
8.23229e-05
0.000216617
0.000214312
0.000211727
0.000208811
0.000205492
0.00020169
0.000197315
0.000192272
0.000186463
0.00017987
0.000172587
0.00016475
0.00015645
0.000147735
0.000138646
0.000129221
0.000119483
0.000109432
9.90684e-05
8.83463e-05
7.73149e-05
0.00020315
0.000201112
0.000198838
0.000196278
0.000193368
0.000190032
0.000186184
0.000181726
0.000176559
0.000170652
0.000164074
0.000156945
0.000149331
0.000141266
0.000132774
0.000123876
0.000114577
0.00010485
9.4653e-05
8.38656e-05
7.23914e-05
0.000188817
0.000186803
0.000184544
0.00018198
0.00017904
0.000175643
0.000171692
0.000167087
0.000161791
0.000155852
0.000149364
0.000142385
0.000134929
0.000127006
0.00011862
0.000109759
0.000100369
9.03665e-05
7.95558e-05
6.76588e-05
0.000177365
0.000175567
0.000173562
0.000171291
0.000168689
0.000165679
0.00016217
0.000158059
0.000153301
0.000147936
0.000142035
0.000135642
0.000128756
0.000121375
0.000113489
0.000105066
9.60341e-05
8.62676e-05
7.55006e-05
6.32555e-05
0.000165078
0.000163289
0.000161267
0.000158955
0.000156281
0.000153154
0.000149477
0.000145199
0.000140346
0.00013498
0.000129125
0.000122774
0.000115911
0.000108514
0.000100537
9.18864e-05
8.24099e-05
7.17847e-05
5.93519e-05
0.000155287
0.000153681
0.000151874
0.000149811
0.000147425
0.000144632
0.000141337
0.000137487
0.000133097
0.000128215
0.000122857
0.000117007
0.000110641
0.000103724
9.61999e-05
8.79641e-05
7.88453e-05
6.84931e-05
5.61356e-05
0.000146147
0.000144698
0.000143077
0.000141231
0.000139098
0.000136597
0.000133636
0.000130165
0.000126191
0.000121752
0.000116856
0.000111478
0.000105588
9.91436e-05
9.20837e-05
8.42991e-05
7.5614e-05
6.56876e-05
5.37576e-05
0.000136305
0.000134845
0.000133186
0.000131272
0.000129027
0.000126367
0.000123235
0.000119637
0.000115603
0.000111134
0.000106201
0.000100769
9.47939e-05
8.82095e-05
8.09133e-05
7.27411e-05
6.33977e-05
5.22689e-05
0.000128462
0.000127143
0.000125649
0.000123929
0.000121912
0.000119516
0.00011669
0.000113434
0.000109772
0.000105699
0.000101186
9.61976e-05
9.06852e-05
8.4588e-05
7.78135e-05
7.0226e-05
6.16052e-05
5.15755e-05
0.000121135
0.000119941
0.000118594
0.000117045
0.000115231
0.000113073
0.000110522
0.000107578
0.000104257
0.000100554
9.644e-05
9.18781e-05
8.68229e-05
8.12214e-05
7.49958e-05
6.80485e-05
6.02498e-05
5.14733e-05
0.000113209
0.000111993
0.000110598
0.000108964
0.000107021
0.000104719
0.000102058
9.90535e-05
9.56981e-05
9.19621e-05
8.78112e-05
8.32068e-05
7.81024e-05
7.24423e-05
6.61679e-05
5.92371e-05
5.17217e-05
0.000106918
0.000105819
0.000104562
0.000103092
0.000101342
9.92685e-05
9.68687e-05
9.41566e-05
9.11249e-05
8.77466e-05
8.39912e-05
7.9826e-05
7.52147e-05
7.01225e-05
6.45285e-05
5.84596e-05
0.000101038
0.000100045
9.89137e-05
9.75916e-05
9.60187e-05
9.41536e-05
9.19942e-05
8.9553e-05
8.68246e-05
8.37847e-05
8.04071e-05
7.66656e-05
7.25358e-05
6.80006e-05
6.30693e-05
5.7816e-05
9.46476e-05
9.363e-05
9.24423e-05
9.10303e-05
8.93561e-05
8.74181e-05
8.52293e-05
8.27841e-05
8.00625e-05
7.70431e-05
7.37066e-05
7.00383e-05
6.60363e-05
6.17307e-05
5.72207e-05
8.96002e-05
8.86854e-05
8.76212e-05
8.63574e-05
8.48588e-05
8.31251e-05
8.11696e-05
7.89879e-05
7.65643e-05
7.38818e-05
7.09274e-05
6.76942e-05
6.41913e-05
6.04612e-05
5.66096e-05
8.48771e-05
8.40584e-05
8.31081e-05
8.19789e-05
8.06413e-05
7.90963e-05
7.73565e-05
7.54197e-05
7.32728e-05
7.09038e-05
6.83046e-05
6.5475e-05
6.24304e-05
5.9218e-05
5.59389e-05
7.97265e-05
7.88788e-05
7.78739e-05
7.6685e-05
7.53132e-05
7.37718e-05
7.20603e-05
7.01686e-05
6.80887e-05
6.58163e-05
6.33552e-05
6.07245e-05
5.79702e-05
5.51824e-05
7.56668e-05
7.49146e-05
7.40237e-05
7.29705e-05
7.17575e-05
7.03979e-05
6.88928e-05
6.72351e-05
6.54191e-05
6.34433e-05
6.13143e-05
5.90518e-05
5.66975e-05
5.43278e-05
7.18606e-05
7.11947e-05
7.04078e-05
6.94787e-05
6.84113e-05
6.72179e-05
6.59008e-05
6.44549e-05
6.28772e-05
6.11679e-05
5.93346e-05
5.73958e-05
5.53879e-05
5.33722e-05
6.77013e-05
6.70097e-05
6.61933e-05
6.5258e-05
6.42151e-05
6.30678e-05
6.18127e-05
6.04483e-05
5.89761e-05
5.74033e-05
5.57468e-05
5.40363e-05
5.23199e-05
6.44171e-05
6.38113e-05
6.30978e-05
6.22818e-05
6.13748e-05
6.03798e-05
5.92951e-05
5.81202e-05
5.68568e-05
5.55119e-05
5.40995e-05
5.2643e-05
5.11796e-05
6.13255e-05
6.07979e-05
6.01773e-05
5.94685e-05
5.86827e-05
5.78238e-05
5.68901e-05
5.58819e-05
5.48013e-05
5.36541e-05
5.24513e-05
5.12114e-05
4.99615e-05
5.8412e-05
5.79542e-05
5.74168e-05
5.6804e-05
5.61265e-05
5.53876e-05
5.45866e-05
5.37242e-05
5.28021e-05
5.18251e-05
5.08018e-05
4.97458e-05
4.86767e-05
5.52664e-05
5.48031e-05
5.42751e-05
5.36924e-05
5.30587e-05
5.23736e-05
5.16374e-05
5.08519e-05
5.00209e-05
4.91504e-05
4.82504e-05
4.73344e-05
5.27198e-05
5.23209e-05
5.18672e-05
5.13675e-05
5.08251e-05
5.02399e-05
4.96123e-05
4.89438e-05
4.82371e-05
4.74964e-05
4.67285e-05
4.59426e-05
5.02988e-05
4.9956e-05
4.95663e-05
4.91378e-05
4.86737e-05
4.8174e-05
4.76391e-05
4.70701e-05
4.64687e-05
4.58379e-05
4.5182e-05
4.79881e-05
4.76926e-05
4.73573e-05
4.69895e-05
4.65918e-05
4.61646e-05
4.57083e-05
4.52234e-05
4.47111e-05
4.41732e-05
4.36122e-05
4.55165e-05
4.5227e-05
4.49101e-05
4.45685e-05
4.42024e-05
4.38124e-05
4.33986e-05
4.29617e-05
4.25026e-05
4.20222e-05
4.34169e-05
4.31656e-05
4.28918e-05
4.25977e-05
4.22836e-05
4.19499e-05
4.15965e-05
4.12236e-05
4.08314e-05
4.042e-05
4.13887e-05
4.11704e-05
4.09337e-05
4.06807e-05
4.04115e-05
4.01261e-05
3.98245e-05
3.95065e-05
3.91715e-05
3.88193e-05
3.94348e-05
3.92461e-05
3.90425e-05
3.88258e-05
3.85959e-05
3.83527e-05
3.8096e-05
3.78252e-05
3.75396e-05
3.72382e-05
3.75641e-05
3.74025e-05
3.72289e-05
3.70444e-05
3.6849e-05
3.66424e-05
3.64243e-05
3.6194e-05
3.59506e-05
3.56928e-05
3.56463e-05
3.54988e-05
3.53419e-05
3.51757e-05
3.49999e-05
3.48141e-05
3.46176e-05
3.44094e-05
3.41884e-05
3.39729e-05
3.38457e-05
3.37104e-05
3.35669e-05
3.34152e-05
3.32549e-05
3.30854e-05
3.2906e-05
3.27153e-05
3.23629e-05
3.22488e-05
3.21277e-05
3.19998e-05
3.18653e-05
3.17239e-05
3.15752e-05
3.14184e-05
3.07887e-05
3.06808e-05
3.05675e-05
3.04491e-05
3.0326e-05
3.01982e-05
3.00652e-05
2.99264e-05
2.92314e-05
2.91247e-05
2.90146e-05
2.89017e-05
2.87862e-05
2.86681e-05
2.8547e-05
2.84226e-05
2.76909e-05
2.75835e-05
2.74748e-05
2.73651e-05
2.72551e-05
2.71444e-05
2.7033e-05
2.69207e-05
2.60756e-05
2.59673e-05
2.58596e-05
2.57532e-05
2.56479e-05
2.55442e-05
2.54414e-05
2.46459e-05
2.45369e-05
2.443e-05
2.43254e-05
2.42241e-05
2.41259e-05
2.403e-05
2.34153e-05
2.33051e-05
2.31971e-05
2.30922e-05
2.29913e-05
2.2894e-05
2.28009e-05
2.23893e-05
2.2279e-05
2.21702e-05
2.20644e-05
2.19616e-05
2.18628e-05
2.1769e-05
2.1424e-05
2.13151e-05
2.12071e-05
2.11008e-05
2.09965e-05
2.08961e-05
2.08e-05
2.04609e-05
2.0351e-05
2.0241e-05
2.01314e-05
2.00241e-05
1.99207e-05
1.98216e-05
1.95224e-05
1.94051e-05
1.92844e-05
1.91617e-05
1.904e-05
1.89213e-05
1.85634e-05
1.84305e-05
1.82924e-05
1.81508e-05
1.80079e-05
1.78656e-05
1.7424e-05
1.72288e-05
1.70275e-05
1.68252e-05
1.66278e-05
1.64401e-05
1.57438e-05
1.54251e-05
1.50844e-05
1.4728e-05
1.43632e-05
1.39652e-05
1.36054e-05
1.32656e-05
1.29613e-05
1.27092e-05
1.38775e-05
1.36462e-05
1.34686e-05
1.33432e-05
1.32643e-05
1.87977e-05
1.94818e-05
2.01248e-05
2.07174e-05
2.12514e-05
2.89535e-05
2.91972e-05
2.93885e-05
2.95299e-05
2.96287e-05
4.0373e-05
4.06305e-05
4.08186e-05
4.0942e-05
4.10131e-05
)
;

boundaryField
{
    inlet
    {
        type            calculated;
        value           nonuniform List<scalar> 5(7.09819e-05 7.19604e-05 7.283e-05 7.35961e-05 7.42635e-05);
    }
    outlet
    {
        type            calculated;
        value           nonuniform List<scalar> 0();
    }
    walls
    {
        type            calculated;
        value           uniform 0;
    }
    frontAndBack
    {
        type            empty;
    }
    procBoundary1to0
    {
        type            processor;
        value           nonuniform List<scalar> 
94
(
0.000936835
0.000936835
0.000868238
0.000868238
0.000800031
0.000800031
0.000733328
0.000733328
0.000668283
0.000668283
0.00060686
0.00060686
0.00055415
0.000504855
0.000504855
0.000464493
0.000424827
0.000424827
0.000393153
0.000364543
0.000335597
0.000335597
0.00031241
0.000288496
0.000288496
0.000269387
0.00025179
0.00023346
0.00023346
0.000218685
0.000204988
0.000190632
0.000190632
0.000178992
0.00016669
0.00016669
0.000156738
0.000147463
0.000137614
0.000137614
0.00012965
0.000122216
0.000114291
0.000114291
0.000107899
0.000101928
9.55426e-05
9.55426e-05
9.04068e-05
8.56023e-05
8.04584e-05
8.04584e-05
7.63179e-05
7.24377e-05
6.82876e-05
6.82876e-05
6.49306e-05
6.17734e-05
5.88007e-05
5.56613e-05
5.56613e-05
5.30596e-05
5.05907e-05
4.82396e-05
4.57723e-05
4.57723e-05
4.36395e-05
4.1583e-05
3.96038e-05
3.77091e-05
3.57837e-05
3.57837e-05
3.4091e-05
3.24688e-05
3.08898e-05
2.93326e-05
2.77945e-05
2.61843e-05
2.61843e-05
2.47565e-05
2.35281e-05
2.25007e-05
2.15323e-05
2.05692e-05
1.96351e-05
1.86894e-05
1.76068e-05
1.60362e-05
1.60362e-05
1.43323e-05
1.41584e-05
1.8066e-05
2.86682e-05
4.00375e-05
)
;
    }
    procBoundary1to2
    {
        type            processor;
        value           nonuniform List<scalar> 
84
(
0.244665
0.0396073
0.0179065
0.00340743
0.00161814
2.16662e-05
0.00011839
0.000141148
0.000158052
0.000145354
0.000146352
0.000141145
0.000138618
0.000134887
0.00013144
0.000127602
0.000123639
0.000119447
0.000115064
0.00011048
0.0001057
0.000100724
9.55599e-05
9.02158e-05
8.46966e-05
7.90138e-05
7.31837e-05
6.72313e-05
6.11986e-05
5.517e-05
4.93173e-05
4.40053e-05
3.99163e-05
3.79001e-05
3.81738e-05
3.99311e-05
4.2194e-05
4.43895e-05
5.21109e-05
5.21109e-05
5.24879e-05
5.27567e-05
5.28644e-05
5.27861e-05
5.25172e-05
5.2065e-05
5.14428e-05
5.0668e-05
4.97604e-05
4.87385e-05
4.762e-05
4.64196e-05
4.51492e-05
4.45067e-05
4.45067e-05
4.30312e-05
4.15221e-05
3.99894e-05
3.84489e-05
3.69198e-05
3.54192e-05
3.39527e-05
3.25118e-05
3.12525e-05
3.12525e-05
2.97808e-05
2.82939e-05
2.68062e-05
2.53387e-05
2.3937e-05
2.27121e-05
2.16795e-05
2.07079e-05
1.97274e-05
1.88076e-05
1.88076e-05
1.77258e-05
1.62668e-05
1.39992e-05
1.25223e-05
1.32176e-05
2.17187e-05
2.96961e-05
4.10426e-05
)
;
    }
    procBoundary1to5
    {
        type            processor;
        value           nonuniform List<scalar> 
13
(
0.0101844
0.0101844
0.0043977
0.00342273
0.00342273
0.00237229
0.00197616
0.00197616
0.00155018
0.00134882
0.00118504
0.00118504
0.00100277
)
;
    }
}


// ************************************************************************* //
