/*--------------------------------*- C++ -*----------------------------------*\
| =========                 |                                                 |
| \\      /  F ield         | OpenFOAM: The Open Source CFD Toolbox           |
|  \\    /   O peration     | Version:  2506                                  |
|   \\  /    A nd           | Website:  www.openfoam.com                      |
|    \\/     M anipulation  |                                                 |
\*---------------------------------------------------------------------------*/
FoamFile
{
    version     2.0;
    format      ascii;
    arch        "LSB;label=32;scalar=64";
    class       volSymmTensorField;
    location    "250";
    object      turbulenceProperties:devReff;
}
// * * * * * * * * * * * * * * * * * * * * * * * * * * * * * * * * * * * * * //

dimensions      [0 2 -2 0 0 0 0];

internalField   nonuniform List<symmTensor> 
1340
(
(5.47505e-05 0.000636871 1.39722e-19 -1.70557e-05 -5.51783e-20 -3.76948e-05)
(0.000231319 0.000621177 2.26694e-19 -0.000204921 -1.14671e-19 -2.6398e-05)
(0.000471259 0.000742165 -1.54452e-19 -0.000467947 3.9044e-20 -3.31187e-06)
(0.000812285 0.0010267 -3.884e-20 -0.0008229 1.83172e-19 1.06156e-05)
(0.0013063 0.0015663 2.49328e-19 -0.00132426 1.03726e-19 1.7962e-05)
(0.00202412 0.00252553 4.59471e-19 -0.00205427 -7.15354e-20 3.01512e-05)
(0.0030555 0.00413702 -8.1254e-21 -0.00310677 -2.58826e-19 5.12735e-05)
(0.00447298 0.00664457 -8.04878e-20 -0.00454789 -1.73511e-19 7.49075e-05)
(0.00629921 0.0103379 2.68715e-20 -0.00640788 -5.82021e-20 0.000108669)
(0.0086393 0.0156355 -1.97147e-19 -0.00878501 6.70234e-19 0.000145717)
(0.0117406 0.0234257 7.42483e-19 -0.0119387 2.76038e-19 0.000198134)
(0.0161492 0.0354527 3.28068e-19 -0.0164176 -1.21883e-18 0.00026833)
(0.0226903 0.0550038 -1.321e-18 -0.0230808 -3.46621e-19 0.000390497)
(0.0329449 0.0886289 -4.44168e-18 -0.0335358 -2.03031e-18 0.000590894)
(0.0490794 0.148549 -3.35608e-18 -0.0500588 -8.97742e-19 0.000979376)
(0.0757203 0.263811 6.22936e-18 -0.0774983 -5.78656e-19 0.00177792)
(0.116304 0.487868 -7.46679e-18 -0.119941 1.20821e-18 0.00363684)
(0.1833 0.979767 4.07125e-18 -0.191148 -7.23333e-18 0.00784776)
(0.278019 2.0182 -1.26453e-16 -0.294397 2.60727e-18 0.0163778)
(0.410215 4.53459 -7.8363e-17 -0.448702 1.23227e-17 0.038487)
(0.42127 9.37167 6.59439e-17 -0.501591 8.34981e-19 0.0803207)
(0.00810066 13.2938 8.69922e-18 -0.112241 -1.27354e-19 0.10414)
(-0.628817 14.9608 6.28851e-17 0.530495 4.82772e-19 0.0983216)
(-1.26794 15.3994 -4.37188e-16 1.1857 -4.92979e-18 0.0822344)
(-1.85334 15.4193 1.57342e-16 1.78601 2.0891e-17 0.0673308)
(-2.37752 15.2571 -1.88894e-15 2.32173 -1.52954e-16 0.0557894)
(-2.8333 14.9569 -3.45861e-15 2.7864 -2.38372e-16 0.0468978)
(-3.21867 14.5346 1.0583e-15 3.17835 1.08046e-16 0.0403236)
(0.0002712 0.00040598 7.02612e-20 -0.000274615 -2.24666e-19 3.41465e-06)
(0.000131105 0.00040695 -3.17852e-19 -0.000140175 8.3893e-21 9.07031e-06)
(2.28641e-05 0.000374105 4.88555e-20 -3.33676e-05 2.16475e-19 1.05035e-05)
(-6.63103e-05 0.000316345 1.24571e-21 6.0091e-05 -1.29262e-19 6.21931e-06)
(-0.000121748 0.000243623 -8.32666e-20 0.000123169 -7.89499e-20 -1.42134e-06)
(-0.000141737 0.000176675 -6.00701e-20 0.000150057 -8.49787e-20 -8.31956e-06)
(-0.000139955 0.000124402 -1.12035e-20 0.000152758 1.86578e-20 -1.28023e-05)
(-0.000127555 8.66348e-05 3.75292e-20 0.00014282 1.00995e-19 -1.5265e-05)
(-0.000111031 6.08976e-05 6.47344e-20 0.000127485 2.50122e-20 -1.64543e-05)
(-9.4179e-05 4.40115e-05 -9.21232e-20 0.000110935 -4.70299e-21 -1.67565e-05)
(-7.86724e-05 3.3397e-05 8.26997e-20 9.50867e-05 8.54614e-21 -1.64142e-05)
(-6.53819e-05 2.68821e-05 -9.84648e-21 8.1033e-05 -2.88824e-20 -1.56511e-05)
(-5.43266e-05 2.27429e-05 -3.38073e-20 6.89831e-05 5.37949e-20 -1.46566e-05)
(-4.52791e-05 1.99738e-05 -2.57743e-20 5.89098e-05 2.80632e-20 -1.36308e-05)
(-3.7992e-05 1.79422e-05 -6.19934e-20 5.07232e-05 6.97634e-20 -1.27313e-05)
(-3.26683e-05 1.64789e-05 -8.73157e-20 4.49143e-05 4.53097e-20 -1.2246e-05)
(-2.91868e-05 1.55288e-05 -1.25802e-19 4.16855e-05 1.0835e-20 -1.24986e-05)
(-2.68677e-05 1.55065e-05 5.61065e-20 4.05127e-05 5.33597e-21 -1.36451e-05)
(-2.46016e-05 1.72741e-05 -3.99401e-21 3.96852e-05 5.48331e-21 -1.50836e-05)
(-0.000235386 0.000213703 5.26911e-19 0.000404747 1.38077e-19 -0.000169361)
(-0.00119839 0.00135859 2.69889e-18 0.00216942 -1.92884e-19 -0.000971033)
(-0.00867488 0.0120077 1.08476e-18 0.0162619 -4.53701e-19 -0.007587)
(-0.0262367 0.0459674 -7.54937e-19 0.0499776 1.04028e-19 -0.0237409)
(-0.0449534 0.102775 4.96552e-17 0.0850147 2.0037e-18 -0.0400613)
(-0.0579799 0.170748 4.0273e-16 0.105308 9.7848e-18 -0.0473282)
(-0.0659852 0.235315 2.39547e-16 0.11124 1.30989e-17 -0.0452543)
(-0.0730269 0.289457 1.76261e-15 0.11203 1.21081e-16 -0.039003)
(-0.0819988 0.335019 2.54495e-15 0.114752 1.70475e-16 -0.0327536)
(-0.0941665 0.375468 -5.70504e-16 0.122138 -9.77385e-17 -0.0279719)
(0.000244181 0.000303007 2.37562e-20 -0.000243872 1.44095e-19 -3.08513e-07)
(0.000141047 0.000319901 1.56353e-19 -0.000141792 1.67847e-19 7.44892e-07)
(4.81302e-05 0.000309262 5.31663e-20 -4.95895e-05 -1.33518e-19 1.45938e-06)
(-2.83391e-05 0.000273922 1.1844e-19 2.72839e-05 7.01925e-20 1.05513e-06)
(-7.85583e-05 0.000221396 -8.35322e-20 7.72291e-05 2.1467e-20 1.3293e-06)
(-0.000102649 0.00016697 -1.20565e-20 0.000100144 7.06287e-20 2.50561e-06)
(-0.000108691 0.00011937 5.25579e-21 0.000104627 -6.34532e-20 4.06368e-06)
(-0.000104067 8.1012e-05 1.13343e-19 9.83108e-05 -7.97943e-20 5.75635e-06)
(-9.40395e-05 5.20614e-05 8.56524e-21 8.68663e-05 -1.25382e-20 7.1732e-06)
(-8.20352e-05 3.1051e-05 -1.2664e-20 7.3673e-05 5.23592e-20 8.36211e-06)
(-7.02256e-05 1.64199e-05 8.11275e-20 6.10073e-05 -9.58442e-20 9.21829e-06)
(-5.9738e-05 6.32336e-06 1.31938e-20 4.98978e-05 1.15892e-20 9.84027e-06)
(-5.10608e-05 -7.53673e-07 9.35561e-20 4.08715e-05 -6.54013e-21 1.01893e-05)
(-4.3936e-05 -6.07899e-06 1.00018e-19 3.34933e-05 2.24187e-20 1.04426e-05)
(-3.80767e-05 -1.03993e-05 2.55837e-19 2.74936e-05 -3.37921e-20 1.05831e-05)
(-3.29287e-05 -1.44445e-05 3.31031e-19 2.21568e-05 -5.00765e-20 1.07719e-05)
(-2.77595e-05 -1.86634e-05 1.96862e-19 1.66911e-05 1.70708e-20 1.10684e-05)
(-2.10893e-05 -2.26071e-05 4.5332e-20 9.2376e-06 -9.27439e-21 1.18517e-05)
(-1.29587e-05 -2.47948e-05 -4.86222e-20 -2.32299e-07 2.3498e-20 1.3191e-05)
(-4.80994e-06 -2.40758e-05 1.8151e-19 -9.43494e-06 -2.95183e-20 1.42449e-05)
(2.16826e-06 -2.25427e-05 -4.88474e-20 -1.80194e-05 -4.76651e-21 1.58511e-05)
(5.47273e-06 -1.38224e-05 -3.13869e-20 -1.7647e-05 6.47979e-22 1.21743e-05)
(5.62933e-05 -7.34192e-05 2.765e-20 -0.000143831 -8.7432e-22 8.75381e-05)
(0.000481216 -0.00027534 -1.44115e-18 -0.0011131 -5.48312e-20 0.000631886)
(0.00145053 0.000427891 -8.65408e-18 -0.00322148 -8.41691e-20 0.00177095)
(0.00231325 0.00469633 -5.4856e-17 -0.00521501 -3.18302e-18 0.00290176)
(0.00185702 0.0154624 -1.34366e-16 -0.00506866 -4.49401e-18 0.00321164)
(-0.000689115 0.0343155 -3.34149e-16 -0.00190188 -2.29859e-17 0.002591)
(-0.00553506 0.0608954 -8.55347e-16 0.00399605 -7.62381e-17 0.00153901)
(0.000278534 0.00017441 5.52654e-20 -0.000278815 -1.57993e-20 2.80634e-07)
(0.000208858 0.000222874 5.97583e-20 -0.000208602 -1.55141e-21 -2.56384e-07)
(0.000134078 0.00024633 -1.47482e-19 -0.000134107 -8.91307e-20 2.93756e-08)
(6.20742e-05 0.000246774 -8.05805e-20 -6.28779e-05 6.96732e-21 8.03604e-07)
(-4.83537e-07 0.000226447 1.33616e-19 -6.58379e-07 6.03022e-20 1.14192e-06)
(-4.60117e-05 0.000192079 6.23665e-20 4.50212e-05 -5.11723e-21 9.90505e-07)
(-7.36431e-05 0.000153527 7.38447e-20 7.31299e-05 -4.55926e-20 5.13216e-07)
(-8.69213e-05 0.000117333 -1.14032e-19 8.71738e-05 -7.475e-20 -2.52479e-07)
(-9.02476e-05 8.63949e-05 -1.41379e-19 9.13675e-05 2.66867e-20 -1.11984e-06)
(-8.73173e-05 6.17611e-05 1.29031e-20 8.93369e-05 3.73743e-20 -2.01957e-06)
(-8.10762e-05 4.30092e-05 4.37237e-20 8.39001e-05 -1.30123e-20 -2.82395e-06)
(-7.35825e-05 2.93034e-05 -1.07375e-19 7.71366e-05 -8.5054e-21 -3.55408e-06)
(-6.61104e-05 1.94581e-05 -4.12614e-21 7.02666e-05 -1.71015e-20 -4.15616e-06)
(-5.93557e-05 1.23067e-05 -4.12371e-20 6.40048e-05 -8.0741e-21 -4.64911e-06)
(-5.345e-05 6.79724e-06 8.66475e-20 5.84353e-05 -4.99246e-20 -4.98525e-06)
(-4.83434e-05 2.25213e-06 -9.43754e-20 5.35913e-05 -3.28052e-20 -5.24792e-06)
(-4.37598e-05 -1.90577e-06 -1.96269e-19 4.92019e-05 -2.31847e-20 -5.44212e-06)
(-3.92321e-05 -6.01893e-06 8.88236e-21 4.48492e-05 -2.97611e-20 -5.61709e-06)
(-3.40474e-05 -9.84291e-06 5.03085e-20 3.97787e-05 -2.86404e-20 -5.73134e-06)
(-2.84138e-05 -1.22462e-05 1.52481e-19 3.44233e-05 -1.06375e-20 -6.00947e-06)
(-2.34559e-05 -1.29961e-05 -1.42856e-19 3.00705e-05 -8.29357e-21 -6.61466e-06)
(-1.95448e-05 -1.28619e-05 -2.45789e-20 2.68443e-05 7.65554e-21 -7.29949e-06)
(-1.65199e-05 -1.23508e-05 1.47859e-20 2.44678e-05 1.29863e-21 -7.9479e-06)
(-1.36839e-05 -1.1433e-05 -6.83101e-21 2.18792e-05 -2.75857e-22 -8.19525e-06)
(-1.08682e-05 -1.01984e-05 -9.94525e-21 1.87077e-05 4.93723e-22 -7.83952e-06)
(-7.46481e-06 -8.18651e-06 -1.60186e-20 1.38343e-05 -8.33868e-22 -6.36951e-06)
(-4.21592e-06 -5.76334e-06 4.61688e-20 8.62763e-06 1.3287e-21 -4.41171e-06)
(-3.03793e-05 -5.74005e-05 2.01591e-18 7.74995e-05 1.30509e-19 -4.71201e-05)
(-5.1864e-07 -4.58337e-05 1.88598e-17 0.000110462 1.75722e-18 -0.000109944)
(0.000238113 0.000604261 7.8961e-17 -0.000137487 1.04311e-17 -0.000100626)
(0.000228046 0.000127529 -1.41939e-19 -0.000228054 7.285e-20 8.27858e-09)
(0.000178317 0.000168594 1.98746e-19 -0.000177992 1.03191e-19 -3.25723e-07)
(0.000122687 0.000192327 -6.4306e-20 -0.000122568 -1.86798e-19 -1.19623e-07)
(6.67621e-05 0.000198825 -8.78142e-20 -6.69411e-05 2.49276e-20 1.79044e-07)
(1.59892e-05 0.000188947 -5.98827e-20 -1.63282e-05 -1.03989e-19 3.39025e-07)
(-2.36412e-05 0.000167056 2.09747e-20 2.3338e-05 3.16651e-20 3.03187e-07)
(-5.04742e-05 0.000139404 -3.93042e-20 5.0195e-05 -5.14056e-20 2.79178e-07)
(-6.58566e-05 0.000110986 -8.11768e-20 6.55259e-05 1.09209e-19 3.30676e-07)
(-7.2344e-05 8.47902e-05 8.61015e-20 7.18769e-05 5.05199e-20 4.67069e-07)
(-7.25485e-05 6.24353e-05 7.31675e-20 7.18745e-05 -3.36508e-20 6.73971e-07)
(-6.88989e-05 4.43331e-05 -1.5034e-20 6.79437e-05 -3.01158e-20 9.55179e-07)
(-6.32437e-05 3.02675e-05 4.36829e-20 6.19794e-05 9.73116e-21 1.26433e-06)
(-5.69282e-05 1.95708e-05 -6.47121e-20 5.53467e-05 1.6535e-20 1.58154e-06)
(-5.07708e-05 1.14599e-05 4.58158e-20 4.88937e-05 -1.20394e-21 1.87706e-06)
(-4.51137e-05 5.13594e-06 -6.03077e-20 4.29613e-05 -2.81703e-20 2.15237e-06)
(-4.00239e-05 -2.33183e-08 5.81781e-20 3.76458e-05 4.86622e-21 2.37815e-06)
(-3.53199e-05 -4.52391e-06 7.79925e-20 3.27509e-05 1.70684e-20 2.56899e-06)
(-3.06291e-05 -8.65471e-06 -5.43861e-21 2.79092e-05 7.15834e-21 2.71985e-06)
(-2.53539e-05 -1.22599e-05 -1.46134e-19 2.24337e-05 6.3008e-23 2.92025e-06)
(-1.95051e-05 -1.45503e-05 -5.43806e-20 1.63524e-05 -2.32392e-20 3.15269e-06)
(-1.39177e-05 -1.52724e-05 -1.60219e-20 1.05769e-05 2.47146e-20 3.34079e-06)
(-9.03246e-06 -1.50199e-05 5.92783e-20 5.38623e-06 7.39653e-22 3.64624e-06)
(-4.8167e-06 -1.4195e-05 2.13862e-21 7.46402e-07 -4.88502e-22 4.0703e-06)
(-1.23761e-06 -1.3134e-05 -3.35655e-21 -3.32251e-06 2.88101e-22 4.56012e-06)
(1.6357e-06 -1.12948e-05 3.75512e-20 -6.35233e-06 1.69342e-22 4.71663e-06)
(4.36933e-06 -1.18067e-05 3.32749e-20 -1.00259e-05 1.07461e-21 5.6566e-06)
(3.22932e-06 -5.8381e-06 -8.99337e-20 -6.12964e-06 -4.96801e-21 2.90032e-06)
(1.18731e-05 -1.72408e-05 -7.6358e-19 -1.98571e-05 -5.92533e-20 7.98405e-06)
(8.61479e-05 -0.000108195 -1.05852e-18 -0.000128085 -1.30829e-19 4.19376e-05)
(0.000239787 -0.000261335 2.02298e-18 -0.000317375 1.72352e-20 7.75876e-05)
(0.000215026 5.09758e-05 -2.89129e-20 -0.000215166 7.39586e-21 1.40764e-07)
(0.00018878 9.47655e-05 1.25263e-19 -0.000188605 8.92923e-20 -1.75678e-07)
(0.000152176 0.000129544 -7.85838e-20 -0.000151948 -1.34085e-19 -2.27473e-07)
(0.000109972 0.000151928 3.96258e-20 -0.000109918 6.61491e-20 -5.32971e-08)
(6.63239e-05 0.000161112 -4.54932e-20 -6.63876e-05 -9.56087e-21 6.37052e-08)
(2.54092e-05 0.000157492 -1.38152e-19 -2.55945e-05 -5.72868e-21 1.85237e-07)
(-8.40167e-06 0.000143911 9.90063e-20 8.19224e-06 2.2205e-20 2.09433e-07)
(-3.32686e-05 0.000124484 -1.88331e-20 3.3074e-05 2.7113e-20 1.94617e-07)
(-4.95277e-05 0.000102903 5.65484e-20 4.93581e-05 4.46472e-20 1.69638e-07)
(-5.84949e-05 8.17601e-05 2.03881e-20 5.84002e-05 -5.09787e-20 9.46882e-08)
(-6.18089e-05 6.27382e-05 -1.53657e-20 6.18323e-05 -3.71285e-20 -2.33969e-08)
(-6.12928e-05 4.65798e-05 -5.93937e-20 6.1454e-05 2.33887e-20 -1.61159e-07)
(-5.84086e-05 3.34657e-05 -7.22218e-20 5.87346e-05 3.37563e-20 -3.25946e-07)
(-5.43378e-05 2.31157e-05 2.96915e-20 5.48396e-05 -2.05897e-21 -5.01773e-07)
(-4.98813e-05 1.50317e-05 -1.20931e-20 5.05601e-05 -1.38801e-20 -6.78746e-07)
(-4.54809e-05 8.60908e-06 -6.1121e-20 4.6327e-05 -3.66555e-24 -8.46026e-07)
(-4.12916e-05 3.3394e-06 -6.86021e-20 4.22978e-05 -1.62128e-20 -1.00616e-06)
(-3.72472e-05 -1.22545e-06 -5.79499e-20 3.83942e-05 4.19394e-21 -1.14705e-06)
(-3.31039e-05 -5.35699e-06 6.15835e-20 3.43743e-05 -2.73513e-20 -1.27042e-06)
(-2.84774e-05 -8.96689e-06 -1.51393e-20 2.98295e-05 2.83004e-20 -1.35211e-06)
(-2.33981e-05 -1.1455e-05 -9.2347e-20 2.48292e-05 2.17983e-20 -1.43107e-06)
(-1.85391e-05 -1.25532e-05 1.23058e-19 2.0133e-05 -7.17883e-21 -1.59398e-06)
(-1.43684e-05 -1.26992e-05 9.78537e-21 1.6152e-05 -7.34223e-21 -1.78361e-06)
(-1.0935e-05 -1.23124e-05 1.79503e-21 1.29223e-05 -7.17472e-22 -1.98725e-06)
(-8.14116e-06 -1.15665e-05 4.46272e-21 1.03815e-05 1.00715e-22 -2.24034e-06)
(-5.9311e-06 -1.05798e-05 -4.52935e-20 8.47576e-06 -1.89518e-21 -2.54467e-06)
(-4.21826e-06 -9.4312e-06 -2.61661e-20 7.06325e-06 -2.75342e-21 -2.84499e-06)
(-2.79787e-06 -8.26076e-06 1.32662e-19 5.79116e-06 1.06799e-20 -2.99329e-06)
(-1.40743e-06 -6.69383e-06 9.84255e-20 4.16205e-06 7.00066e-21 -2.75462e-06)
(-1.46621e-07 -4.81953e-06 -7.29833e-20 2.28238e-06 -5.1328e-21 -2.13576e-06)
(6.77422e-07 -2.89431e-06 5.53659e-20 6.31229e-07 6.99126e-21 -1.30865e-06)
(0.000176717 3.60733e-05 -3.51086e-21 -0.00017681 -2.54024e-20 9.25481e-08)
(0.000157606 7.17182e-05 -4.23197e-20 -0.000157444 2.17711e-20 -1.62133e-07)
(0.000130239 0.000101166 4.81199e-20 -0.000130092 4.68586e-20 -1.46475e-07)
(9.76942e-05 0.000121487 1.12907e-19 -9.76737e-05 4.95481e-20 -2.0493e-08)
(6.3255e-05 0.000131595 7.70576e-20 -6.32681e-05 -1.96656e-21 1.30773e-08)
(3.01641e-05 0.000131763 -2.18181e-20 -3.02345e-05 1.9261e-20 7.03938e-08)
(1.61749e-06 0.000123783 -1.03852e-19 -1.69796e-06 -3.90184e-20 8.04755e-08)
(-2.06573e-05 0.000110377 7.31787e-20 2.05767e-05 5.02788e-20 8.05093e-08)
(-3.64948e-05 9.41967e-05 3.65375e-21 3.63981e-05 -5.72947e-20 9.67082e-08)
(-4.6468e-05 7.73209e-05 3.91511e-21 4.63662e-05 -2.61211e-20 1.0185e-07)
(-5.15103e-05 6.1296e-05 -5.85305e-20 5.14124e-05 2.32424e-20 9.78154e-08)
(-5.29103e-05 4.69797e-05 3.3693e-20 5.27961e-05 3.58048e-20 1.14204e-07)
(-5.17698e-05 3.47899e-05 1.47758e-19 5.16288e-05 1.22842e-20 1.41091e-07)
(-4.90915e-05 2.47347e-05 -5.38522e-20 4.89096e-05 -8.99174e-22 1.81939e-07)
(-4.56325e-05 1.65708e-05 -1.1194e-20 4.53989e-05 -1.23596e-21 2.33639e-07)
(-4.18752e-05 9.90544e-06 -7.70716e-20 4.1576e-05 4.99603e-20 2.99223e-07)
(-3.80573e-05 4.35896e-06 -5.84852e-20 3.76891e-05 8.92504e-21 3.68232e-07)
(-3.42091e-05 -4.12887e-07 6.64274e-20 3.37724e-05 1.66236e-20 4.36708e-07)
(-3.01885e-05 -4.62255e-06 -1.54241e-19 2.96844e-05 1.63013e-20 5.04144e-07)
(-2.57324e-05 -8.22321e-06 5.17659e-20 2.5138e-05 4.81309e-22 5.94432e-07)
(-2.08538e-05 -1.07765e-05 1.02256e-19 2.01546e-05 1.54248e-21 6.99194e-07)
(-1.6076e-05 -1.20404e-05 -4.20823e-20 1.53162e-05 -1.17051e-20 7.59771e-07)
(-1.18199e-05 -1.23397e-05 -4.5735e-20 1.09973e-05 8.12097e-22 8.22574e-07)
(-8.15557e-06 -1.20411e-05 -1.09967e-20 7.22797e-06 6.25962e-22 9.27599e-07)
(-5.00861e-06 -1.13216e-05 -1.34681e-21 3.94242e-06 4.85194e-23 1.06619e-06)
(-2.34338e-06 -1.02869e-05 5.47491e-21 1.11622e-06 1.44619e-21 1.22716e-06)
(-1.23197e-07 -9.06237e-06 -7.11203e-20 -1.3054e-06 -2.27713e-21 1.4286e-06)
(1.65477e-06 -7.77604e-06 1.63093e-19 -3.27233e-06 5.36625e-21 1.61757e-06)
(3.00824e-06 -6.53504e-06 6.89591e-21 -4.73576e-06 -1.51097e-21 1.72751e-06)
(3.93278e-06 -5.2527e-06 1.08602e-19 -5.61073e-06 1.12127e-20 1.67794e-06)
(4.48935e-06 -4.03869e-06 5.6281e-20 -6.0007e-06 -1.80345e-21 1.51135e-06)
(0.000146976 2.56526e-05 -1.25488e-21 -0.000146968 6.77396e-21 -8.56395e-09)
(0.000132694 5.50596e-05 -6.47817e-21 -0.00013256 -6.07358e-20 -1.34825e-07)
(0.000111814 8.00738e-05 -2.10893e-19 -0.000111734 -9.94802e-20 -7.95574e-08)
(8.63485e-05 9.82086e-05 4.64632e-20 -8.63335e-05 7.29869e-20 -1.49916e-08)
(5.892e-05 0.000108328 -1.37505e-20 -5.89094e-05 4.96308e-21 -1.05574e-08)
(3.2032e-05 0.000110679 1.11626e-19 -3.20672e-05 3.81606e-20 3.5256e-08)
(8.06885e-06 0.000106381 -7.43104e-21 -8.11208e-06 3.69419e-20 4.32298e-08)
(-1.15067e-05 9.72913e-05 4.72112e-20 1.14635e-05 -1.65759e-20 4.31616e-08)
(-2.63166e-05 8.532e-05 -4.10151e-20 2.62544e-05 1.33993e-20 6.21389e-08)
(-3.65378e-05 7.20635e-05 -7.50515e-20 3.64716e-05 2.17154e-20 6.62545e-08)
(-4.26531e-05 5.88258e-05 1.98015e-20 4.26037e-05 9.9102e-21 4.94451e-08)
(-4.5523e-05 4.64575e-05 3.26929e-20 4.54883e-05 -1.3349e-20 3.46817e-08)
(-4.59327e-05 3.54702e-05 3.07402e-20 4.59208e-05 -5.87716e-20 1.19041e-08)
(-4.46788e-05 2.60485e-05 4.30889e-20 4.46981e-05 1.51189e-20 -1.92872e-08)
(-4.2405e-05 1.81501e-05 -3.95919e-20 4.2462e-05 2.23306e-20 -5.70342e-08)
(-3.9579e-05 1.15482e-05 1.47426e-19 3.9676e-05 6.44729e-21 -9.69122e-08)
(-3.64641e-05 5.97923e-06 -3.46531e-20 3.66009e-05 2.05359e-20 -1.36781e-07)
(-3.31509e-05 1.18088e-06 6.84312e-20 3.33284e-05 -2.68837e-20 -1.77515e-07)
(-2.95778e-05 -3.0146e-06 1.05067e-19 2.9794e-05 6.70829e-21 -2.16168e-07)
(-2.55886e-05 -6.58683e-06 2.09677e-21 2.58272e-05 -2.36517e-20 -2.38515e-07)
(-2.12167e-05 -9.21558e-06 -2.8873e-20 2.14693e-05 -1.8895e-20 -2.526e-07)
(-1.6879e-05 -1.06856e-05 -2.64466e-20 1.71838e-05 4.01406e-21 -3.04804e-07)
(-1.29614e-05 -1.1221e-05 5.34397e-21 1.33357e-05 3.4957e-22 -3.74219e-07)
(-9.5765e-06 -1.11458e-05 1.10728e-20 1.00066e-05 5.18426e-22 -4.30119e-07)
(-6.6965e-06 -1.06408e-05 4.51328e-21 7.18392e-06 -8.21378e-23 -4.87423e-07)
(-4.30721e-06 -9.82044e-06 1.27277e-20 4.87228e-06 2.97234e-22 -5.65069e-07)
(-2.40133e-06 -8.81168e-06 5.0173e-20 3.06982e-06 4.63014e-21 -6.68489e-07)
(-9.21866e-07 -7.71832e-06 -2.8578e-19 1.70934e-06 -2.07808e-20 -7.87477e-07)
(2.43106e-07 -6.61631e-06 -1.14056e-19 6.38985e-07 -4.58322e-21 -8.82091e-07)
(1.2208e-06 -5.53404e-06 -6.29189e-21 -2.85189e-07 -1.2013e-20 -9.35607e-07)
(2.12054e-06 -4.55041e-06 -1.57884e-19 -1.18702e-06 -1.84153e-20 -9.3352e-07)
(0.000128036 -7.55201e-06 -8.53593e-20 -0.000128038 -6.51059e-20 2.08383e-09)
(0.000123358 1.82501e-05 -4.9055e-20 -0.000123319 -3.49714e-20 -3.80989e-08)
(0.000112565 4.27612e-05 -1.24392e-20 -0.000112464 -3.21822e-21 -1.01292e-07)
(9.63412e-05 6.41216e-05 3.07416e-20 -9.63132e-05 7.8759e-20 -2.79936e-08)
(7.61678e-05 8.01553e-05 6.98299e-20 -7.61542e-05 4.50932e-20 -1.36342e-08)
(5.41282e-05 8.9832e-05 4.95454e-20 -5.41096e-05 -3.23357e-20 -1.86244e-08)
(3.21298e-05 9.33772e-05 -6.75119e-20 -3.21447e-05 -4.2015e-20 1.49137e-08)
(1.20243e-05 9.15015e-05 1.41172e-19 -1.20421e-05 6.27866e-21 1.77635e-08)
(-4.97776e-06 8.5492e-05 -2.06107e-20 4.96258e-06 -6.33156e-20 1.51776e-08)
(-1.84672e-05 7.67357e-05 1.20436e-19 1.84368e-05 2.58503e-20 3.04789e-08)
(-2.84059e-05 6.64394e-05 9.27505e-20 2.8366e-05 1.28644e-20 3.99523e-08)
(-3.49924e-05 5.56533e-05 -4.41323e-20 3.4957e-05 -1.84447e-20 3.54391e-08)
(-3.87769e-05 4.51272e-05 7.56255e-21 3.87393e-05 -2.06614e-20 3.75536e-08)
(-4.02846e-05 3.53932e-05 -1.13312e-19 4.02498e-05 5.19911e-21 3.48189e-08)
(-4.0108e-05 2.67226e-05 -1.77022e-20 4.00749e-05 -1.35605e-20 3.31322e-08)
(-3.87686e-05 1.91962e-05 7.928e-20 3.87358e-05 4.05799e-21 3.275e-08)
(-3.66826e-05 1.27354e-05 1.58467e-21 3.66466e-05 -2.2263e-20 3.59719e-08)
(-3.41202e-05 7.18909e-06 6.91608e-20 3.40785e-05 1.30606e-20 4.17143e-08)
(-3.1212e-05 2.37469e-06 -7.76807e-20 3.11617e-05 -1.30879e-20 5.03353e-08)
(-2.79569e-05 -1.82041e-06 -5.92288e-20 2.78922e-05 -1.3126e-20 6.47586e-08)
(-2.42809e-05 -5.37937e-06 -1.1742e-19 2.41895e-05 3.82662e-21 9.13568e-08)
(-2.02329e-05 -8.06625e-06 -8.83934e-20 2.01044e-05 1.35896e-20 1.28468e-07)
(-1.61427e-05 -9.69109e-06 -9.49399e-21 1.59947e-05 2.10002e-21 1.47968e-07)
(-1.23585e-05 -1.04062e-05 -3.36308e-20 1.22026e-05 1.494e-21 1.55934e-07)
(-9.01621e-06 -1.04856e-05 -1.12681e-21 8.83556e-06 -7.99099e-22 1.80648e-07)
(-6.11455e-06 -1.01058e-05 -4.27482e-21 5.89629e-06 -3.94599e-22 2.18261e-07)
(-3.64814e-06 -9.37919e-06 -1.60458e-21 3.39089e-06 -7.93657e-22 2.57246e-07)
(-1.60764e-06 -8.42372e-06 3.52304e-20 1.30554e-06 -1.83637e-22 3.02099e-07)
(5.34748e-08 -7.35245e-06 5.12715e-22 -4.15868e-07 9.07586e-22 3.62393e-07)
(1.37354e-06 -6.24638e-06 2.31429e-19 -1.78657e-06 2.09749e-20 4.13033e-07)
(2.44597e-06 -5.15827e-06 -3.69225e-19 -2.88536e-06 -2.5839e-20 4.3939e-07)
(3.33942e-06 -4.1036e-06 2.05404e-20 -3.7948e-06 1.74826e-20 4.55381e-07)
(0.000104356 1.29212e-05 -1.52211e-19 -0.000104306 -1.55437e-20 -4.97362e-08)
(9.61082e-05 3.35475e-05 2.17902e-19 -9.60338e-05 1.72968e-19 -7.44366e-08)
(8.33127e-05 5.1866e-05 1.34046e-19 -8.33117e-05 1.90352e-20 -1.02323e-09)
(6.71463e-05 6.59704e-05 9.6493e-20 -6.71384e-05 -1.86857e-20 -7.94301e-09)
(4.92792e-05 7.50016e-05 -1.51619e-19 -4.92581e-05 -6.7596e-20 -2.10974e-08)
(3.11663e-05 7.91284e-05 -9.45235e-20 -3.11739e-05 -1.81009e-20 7.58881e-09)
(1.42806e-05 7.88171e-05 -1.91301e-19 -1.42848e-05 -6.1494e-20 4.24811e-09)
(-3.90743e-07 7.49905e-05 -1.96429e-19 3.86961e-07 1.03143e-20 3.78239e-09)
(-1.24616e-05 6.86649e-05 -9.57234e-20 1.24437e-05 -3.19586e-20 1.79285e-08)
(-2.18132e-05 6.07408e-05 2.90208e-20 2.17861e-05 1.97213e-21 2.70891e-08)
(-2.84812e-05 5.20471e-05 -1.79455e-20 2.8458e-05 4.65056e-21 2.32268e-08)
(-3.27954e-05 4.32171e-05 -5.04022e-20 3.27685e-05 2.04828e-20 2.68924e-08)
(-3.50895e-05 3.47308e-05 5.56399e-20 3.50668e-05 1.12419e-20 2.27392e-08)
(-3.57842e-05 2.69005e-05 -6.79581e-20 3.57687e-05 -1.8973e-20 1.5489e-08)
(-3.52709e-05 1.98881e-05 -7.33342e-21 3.5264e-05 -1.70709e-20 6.86155e-09)
(-3.3905e-05 1.37005e-05 2.16153e-20 3.39075e-05 -1.5878e-20 -2.52108e-09)
(-3.19334e-05 8.28366e-06 6.65099e-20 3.1946e-05 -2.86667e-20 -1.26699e-08)
(-2.95007e-05 3.53682e-06 -2.82385e-20 2.95233e-05 1.36684e-21 -2.26148e-08)
(-2.66501e-05 -6.06344e-07 -1.6338e-20 2.66805e-05 3.15156e-20 -3.03996e-08)
(-2.33689e-05 -4.13037e-06 -1.77897e-20 2.34022e-05 2.93151e-20 -3.32695e-08)
(-1.97194e-05 -6.85158e-06 6.54699e-20 1.97479e-05 8.93322e-21 -2.84748e-08)
(-1.59753e-05 -8.60805e-06 -7.92762e-22 1.60127e-05 8.26592e-21 -3.74188e-08)
(-1.24458e-05 -9.49995e-06 2.24295e-20 1.25067e-05 3.59237e-21 -6.08958e-08)
(-9.28483e-06 -9.75125e-06 -2.98109e-21 9.36344e-06 3.78948e-22 -7.86076e-08)
(-6.51909e-06 -9.53054e-06 -2.39927e-21 6.60987e-06 9.07632e-23 -9.07825e-08)
(-4.15832e-06 -8.95043e-06 -8.68748e-21 4.26687e-06 -3.3147e-22 -1.08549e-07)
(-2.20618e-06 -8.12682e-06 -3.6647e-20 2.33906e-06 -2.06442e-21 -1.32881e-07)
(-6.35061e-07 -7.16931e-06 -9.84576e-20 7.98706e-07 -6.12736e-21 -1.63645e-07)
(6.20436e-07 -6.15246e-06 6.69788e-21 -4.3027e-07 -1.51318e-21 -1.90165e-07)
(1.66104e-06 -5.13339e-06 3.33898e-19 -1.44854e-06 4.43518e-20 -2.12493e-07)
(2.54806e-06 -4.10308e-06 2.41334e-19 -2.33886e-06 6.62675e-21 -2.09203e-07)
(8.25133e-05 2.65389e-05 -2.01193e-19 -8.24646e-05 -1.13069e-19 -4.87433e-08)
(7.23081e-05 4.23073e-05 -1.53389e-19 -7.23201e-05 -2.6786e-20 1.19798e-08)
(5.92117e-05 5.47053e-05 1.14157e-19 -5.92087e-05 9.3949e-20 -2.98883e-09)
(4.46034e-05 6.30068e-05 1.87074e-19 -4.45819e-05 4.45919e-20 -2.14944e-08)
(2.95977e-05 6.73441e-05 3.11077e-20 -2.9601e-05 -2.80746e-21 3.29984e-09)
(1.53874e-05 6.80217e-05 1.39414e-19 -1.5389e-05 9.54761e-20 1.54706e-09)
(2.76641e-06 6.57268e-05 1.80658e-19 -2.76334e-06 7.26714e-20 -3.07332e-09)
(-7.92525e-06 6.12199e-05 -6.50226e-20 7.91893e-06 -1.99059e-20 6.32582e-09)
(-1.65299e-05 5.51799e-05 3.92562e-20 1.65147e-05 1.84777e-22 1.51608e-08)
(-2.30036e-05 4.82416e-05 -1.34605e-20 2.29894e-05 6.38368e-21 1.42075e-08)
(-2.75494e-05 4.0912e-05 9.93024e-20 2.75316e-05 5.40085e-21 1.78228e-08)
(-3.03461e-05 3.36147e-05 -3.59974e-20 3.03292e-05 -7.30148e-22 1.69246e-08)
(-3.16795e-05 2.66477e-05 -9.60735e-20 3.16635e-05 3.70264e-20 1.60176e-08)
(-3.18325e-05 2.02102e-05 -3.61237e-20 3.18208e-05 3.35479e-21 1.17157e-08)
(-3.10799e-05 1.43818e-05 -8.42643e-20 3.1072e-05 1.36804e-20 7.96938e-09)
(-2.96345e-05 9.17408e-06 -8.98174e-20 2.96289e-05 -1.35492e-21 5.60006e-09)
(-2.76425e-05 4.54782e-06 -9.73762e-20 2.7638e-05 1.90294e-20 4.52008e-09)
(-2.51717e-05 4.79789e-07 1.58356e-19 2.51657e-05 -1.61932e-20 6.05373e-09)
(-2.22475e-05 -2.99727e-06 1.23414e-19 2.22352e-05 -3.88783e-21 1.2283e-08)
(-1.89476e-05 -5.73568e-06 2.0975e-20 1.89225e-05 -1.45493e-20 2.50899e-08)
(-1.55024e-05 -7.59725e-06 8.16396e-20 1.5471e-05 -8.81905e-21 3.13785e-08)
(-1.21841e-05 -8.63802e-06 1.86867e-20 1.21568e-05 -4.6459e-21 2.7275e-08)
(-9.15456e-06 -9.03839e-06 5.46798e-21 9.12593e-06 9.79472e-22 2.86313e-08)
(-6.46327e-06 -8.95285e-06 -4.04814e-22 6.42521e-06 3.47558e-22 3.80577e-08)
(-4.13249e-06 -8.49139e-06 -5.1826e-22 4.08469e-06 4.81277e-22 4.78071e-08)
(-2.17443e-06 -7.76349e-06 1.83454e-20 2.11779e-06 1.96576e-21 5.66407e-08)
(-5.65508e-07 -6.87688e-06 2.62963e-20 4.95654e-07 3.67002e-21 6.98534e-08)
(7.34647e-07 -5.9101e-06 5.34265e-20 -8.16497e-07 4.04343e-21 8.18499e-08)
(1.8091e-06 -4.92128e-06 1.19385e-19 -1.89262e-06 -4.10969e-21 8.35207e-08)
(2.71044e-06 -3.90431e-06 -4.25284e-19 -2.80134e-06 -5.49372e-20 9.08933e-08)
(6.2964e-05 3.47705e-05 4.93394e-20 -6.29801e-05 2.694e-20 1.60763e-08)
(5.22614e-05 4.56687e-05 7.03394e-20 -5.22585e-05 -3.91322e-20 -2.84539e-09)
(4.02197e-05 5.32256e-05 -2.39961e-19 -4.0203e-05 -1.26564e-19 -1.66554e-08)
(2.77161e-05 5.75412e-05 -1.96768e-19 -2.77165e-05 -1.9878e-21 3.20108e-10)
(1.57098e-05 5.88303e-05 3.61733e-20 -1.57069e-05 -3.65535e-21 -2.92805e-09)
(4.86896e-06 5.7605e-05 1.6865e-19 -4.86135e-06 -2.83813e-20 -7.61436e-09)
(-4.52396e-06 5.44511e-05 -4.66853e-20 4.5215e-06 1.11345e-20 2.45929e-09)
(-1.23241e-05 4.98794e-05 -2.66959e-20 1.23141e-05 -2.30831e-21 9.99808e-09)
(-1.84462e-05 4.43815e-05 -6.73004e-21 1.84403e-05 -1.13734e-20 5.88622e-09)
(-2.30021e-05 3.83585e-05 -3.47745e-20 2.29906e-05 -8.73921e-22 1.1503e-08)
(-2.60806e-05 3.21543e-05 7.51375e-20 2.60696e-05 9.86295e-21 1.10769e-08)
(-2.78647e-05 2.60394e-05 1.48024e-19 2.78545e-05 3.73747e-20 1.02302e-08)
(-2.85391e-05 2.0219e-05 2.27715e-20 2.85304e-05 1.10542e-20 8.75412e-09)
(-2.83113e-05 1.48097e-05 1.05081e-19 2.83051e-05 1.22417e-20 6.17329e-09)
(-2.7351e-05 9.87562e-06 4.53538e-20 2.73491e-05 1.36141e-20 1.86367e-09)
(-2.57912e-05 5.42491e-06 7.44922e-20 2.57943e-05 5.25573e-21 -3.09301e-09)
(-2.37067e-05 1.47284e-06 -1.04578e-19 2.37121e-05 -2.00918e-20 -5.45577e-09)
(-2.11476e-05 -1.93601e-06 -1.64849e-20 2.11508e-05 -2.67056e-20 -3.12203e-09)
(-1.82037e-05 -4.672e-06 -6.27031e-20 1.82016e-05 -5.19446e-22 2.11315e-09)
(-1.50725e-05 -6.61106e-06 -8.77671e-20 1.50695e-05 -7.6784e-22 3.07914e-09)
(-1.19943e-05 -7.78198e-06 -4.02267e-20 1.19991e-05 -1.3533e-21 -4.87367e-09)
(-9.13388e-06 -8.32309e-06 9.34572e-21 9.14541e-06 -9.38669e-22 -1.15257e-08)
(-6.55986e-06 -8.37337e-06 4.6168e-21 6.57319e-06 -1.87037e-22 -1.33249e-08)
(-4.30755e-06 -8.03845e-06 4.61533e-21 4.32389e-06 1.22783e-21 -1.63419e-08)
(-2.39763e-06 -7.42201e-06 -5.61431e-22 2.41984e-06 -1.12824e-21 -2.22047e-08)
(-8.19572e-07 -6.62813e-06 -6.17164e-21 8.49e-07 2.60863e-21 -2.94283e-08)
(4.65495e-07 -5.73286e-06 -6.86311e-21 -4.2942e-07 -1.02463e-20 -3.60752e-08)
(1.53652e-06 -4.79203e-06 -2.0803e-19 -1.49075e-06 -9.91583e-21 -4.57614e-08)
(2.4464e-06 -3.80356e-06 2.00649e-20 -2.40648e-06 2.70061e-20 -3.99107e-08)
(4.61808e-05 3.83476e-05 -2.71096e-19 -4.61792e-05 -1.17584e-19 -1.61035e-09)
(3.61784e-05 4.51888e-05 5.7078e-20 -3.61636e-05 8.29401e-20 -1.48351e-08)
(2.56993e-05 4.93521e-05 1.4629e-19 -2.56998e-05 2.53762e-20 5.46226e-10)
(1.5526e-05 5.09928e-05 -1.77341e-19 -1.55242e-05 -7.45285e-20 -1.78817e-09)
(6.21549e-06 5.05042e-05 -1.75984e-19 -6.20928e-06 -1.81207e-20 -6.20463e-09)
(-2.00639e-06 4.83484e-05 1.00324e-19 2.0071e-06 2.46709e-20 -7.14219e-10)
(-9.00377e-06 4.49202e-05 5.28159e-20 8.99916e-06 -1.15101e-21 4.60758e-09)
(-1.46768e-05 4.05919e-05 -9.01218e-20 1.46739e-05 -4.92794e-21 2.94136e-09)
(-1.90972e-05 3.56751e-05 7.82345e-20 1.90903e-05 3.50761e-21 6.96138e-09)
(-2.22885e-05 3.04498e-05 -5.51901e-20 2.2281e-05 -2.65553e-20 7.49815e-09)
(-2.43577e-05 2.51476e-05 1.33186e-19 2.43496e-05 -2.62451e-20 8.16013e-09)
(-2.54216e-05 1.99569e-05 5.46465e-20 2.54142e-05 -9.7669e-21 7.34498e-09)
(-2.56228e-05 1.50059e-05 -6.30969e-21 2.5617e-05 -2.19547e-20 5.80324e-09)
(-2.50861e-05 1.03899e-05 2.05728e-20 2.5083e-05 -9.46504e-21 3.14399e-09)
(-2.39212e-05 6.15637e-06 -2.0194e-20 2.39203e-05 -1.3343e-20 8.42244e-10)
(-2.22027e-05 2.35198e-06 -6.17669e-21 2.22023e-05 1.41592e-20 4.06112e-10)
(-1.99942e-05 -9.64533e-07 -1.27503e-19 1.99918e-05 1.47143e-20 2.49032e-09)
(-1.73879e-05 -3.67765e-06 9.9102e-22 1.73803e-05 8.53845e-21 7.6209e-09)
(-1.45572e-05 -5.67079e-06 6.06686e-20 1.45463e-05 9.55146e-21 1.09241e-08)
(-1.17134e-05 -6.94828e-06 8.59012e-22 1.17055e-05 4.18268e-21 7.87424e-09)
(-9.01925e-06 -7.61423e-06 -1.12087e-20 9.01401e-06 -2.76615e-22 5.23328e-09)
(-6.55748e-06 -7.78869e-06 -6.23482e-21 6.55082e-06 -2.52062e-22 6.65496e-09)
(-4.37441e-06 -7.5704e-06 1.98766e-20 4.36559e-06 -7.61044e-23 8.81627e-09)
(-2.49893e-06 -7.05615e-06 -1.35309e-20 2.4892e-06 -1.40463e-21 9.73231e-09)