/*--------------------------------*- C++ -*----------------------------------*\
| =========                 |                                                 |
| \\      /  F ield         | OpenFOAM: The Open Source CFD Toolbox           |
|  \\    /   O peration     | Version:  2506                                  |
|   \\  /    A nd           | Website:  www.openfoam.com                      |
|    \\/     M anipulation  |                                                 |
\*---------------------------------------------------------------------------*/
FoamFile
{
    version     2.0;
    format      ascii;
    arch        "LSB;label=32;scalar=64";
    class       volScalarField;
    location    "250";
    object      turbulenceProperties:L;
}
// * * * * * * * * * * * * * * * * * * * * * * * * * * * * * * * * * * * * * //

dimensions      [0 1 0 0 0 0 0];

internalField   nonuniform List<scalar> 
1340
(
0.00403427
0.00396973
0.00348041
0.00297198
0.00260076
0.00237723
0.00228678
0.00231395
0.00244693
0.00268215
0.00302794
0.00350762
0.00416066
0.00506215
0.00630354
0.00810115
0.0106578
0.0146886
0.020636
0.0304507
0.0433154
0.0512781
0.0542893
0.0551797
0.0555189
0.0557284
0.0558725
0.0559808
0.00464804
0.00495718
0.00530287
0.00572821
0.00624575
0.0068298
0.0074776
0.00820292
0.00902034
0.00994422
0.0110094
0.0122584
0.0138313
0.0160386
0.0198671
0.0282239
0.0605793
0.234753
0.116304
0.0106154
0.0213891
0.0578726
0.107156
0.156035
0.194573
0.215833
0.222314
0.221008
0.216996
0.00520103
0.00548599
0.00579805
0.00618219
0.0066948
0.00733625
0.0081001
0.00899254
0.0100036
0.011127
0.0123244
0.0135443
0.014701
0.0157436
0.0166084
0.0172562
0.0176543
0.0178924
0.0179264
0.0179595
0.0174208
0.0228539
0.0157241
0.0447112
0.101319
0.175203
0.221647
0.241558
0.252149
0.00565994
0.00587273
0.00612775
0.00643204
0.00681973
0.00730454
0.00786769
0.00849134
0.00916741
0.0098849
0.0106367
0.0114031
0.0121668
0.0129047
0.013616
0.0142894
0.0149395
0.0156044
0.0164093
0.0173814
0.0183363
0.0191716
0.0198512
0.0207716
0.0221781
0.0255527
0.0321952
0.0458986
0.157048
0.240236
0.00634827
0.00655222
0.00679471
0.00708546
0.00745198
0.00790089
0.00842928
0.00903621
0.00972667
0.0105027
0.0113641
0.0123029
0.0133032
0.0143391
0.01539
0.0164308
0.017456
0.0184896
0.0196687
0.0211325
0.0228218
0.0244965
0.0258926
0.0265978
0.0276266
0.0253406
0.0585454
0.0235822
0.0396378
0.0722556
0.006902
0.00706199
0.00726063
0.00749363
0.00777432
0.00812459
0.00854743
0.00904145
0.00960456
0.0102366
0.0109348
0.0116913
0.0124946
0.0133281
0.0141724
0.0150135
0.0158434
0.0166739
0.0175442
0.0185611
0.0198298
0.0213162
0.0229283
0.0246011
0.0263271
0.0280774
0.0298901
0.0318969
0.0357844
0.0449018
9.10744
0.00764012
0.00780009
0.00799242
0.00821919
0.00849271
0.00882645
0.00922342
0.00968459
0.0102112
0.0108064
0.0114711
0.0122036
0.0130001
0.0138514
0.0147448
0.0156701
0.0166196
0.0175994
0.0186426
0.0198425
0.0213108
0.0230527
0.024998
0.0270828
0.0292833
0.0315272
0.0335897
0.0351711
0.0362011
0.0374803
0.0391493
0.00840147
0.00856347
0.00875161
0.00897409
0.0092414
0.00956023
0.0099354
0.0103682
0.0108611
0.0114179
0.0120402
0.0127257
0.0134716
0.0142688
0.0151059
0.0159732
0.0168667
0.0177938
0.0187862
0.0199197
0.0212825
0.0228834
0.0246763
0.0266303
0.0287677
0.0311213
0.0336852
0.0364693
0.0394942
0.0427698
0.0456414
0.00906137
0.00919036
0.00935363
0.00953972
0.00975941
0.0100209
0.0103269
0.0106824
0.0110896
0.0115516
0.0120733
0.0126578
0.0133056
0.0140158
0.0147844
0.0156052
0.0164722
0.0173839
0.0183497
0.0193993
0.0205964
0.0220182
0.0236892
0.0255768
0.0276516
0.0299244
0.03241
0.0350724
0.0377831
0.0403328
0.0424493
0.0438216
0.0100087
0.0101729
0.010359
0.0105774
0.0108332
0.011128
0.0114664
0.0118505
0.0122847
0.0127747
0.0133238
0.0139338
0.0146064
0.0153388
0.0161278
0.01697
0.0178652
0.0188232
0.0198706
0.0210587
0.0224533
0.0240792
0.0259146
0.0279381
0.0301654
0.0326257
0.0353215
0.0382197
0.0412751
0.0442688
0.0469135
0.0110241
0.0112115
0.0114298
0.0116805
0.0119651
0.0122886
0.0126527
0.0130616
0.0135217
0.0140379
0.0146131
0.0152507
0.0159512
0.0167134
0.0175372
0.0184258
0.0193897
0.0204537
0.0216624
0.0230715
0.0247086
0.0265639
0.0286228
0.0308979
0.033412
0.0361575
0.039072
0.0420275
0.0447455
0.046937
0.0120996
0.0123184
0.0125648
0.0128411
0.0131513
0.0134972
0.0138834
0.0143172
0.014803
0.0153454
0.0159498
0.0166184
0.0173534
0.018156
0.0190308
0.0199891
0.0210554
0.0222684
0.0236726
0.0252966
0.027138
0.029188
0.0314591
0.0339744
0.0367369
0.0397035
0.0427937
0.0457744
0.0483121
0.0132456
0.0134887
0.0137576
0.0140562
0.0143864
0.0147526
0.0151618
0.0156203
0.016133
0.0167064
0.0173447
0.0180523
0.0188335
0.0196947
0.0206487
0.0217185
0.0229377
0.0243451
0.0259676
0.0278112
0.0298725
0.0321646
0.03471
0.0375122
0.0405259
0.0436548
0.0466543
0.0491796
0.0144547
0.0147176
0.0150063
0.0153224
0.0156705
0.0160583
0.0164914
0.0169765
0.0175214
0.0181312
0.0188122
0.0195712
0.0204172
0.0213636
0.0224328
0.0236533
0.0250589
0.0266766
0.028516
0.0305799
0.0328827
0.0354466
0.0382791
0.0413425
0.0445561
0.0476939
0.0504128
0.0157235
0.0160036
0.0163077
0.0166402
0.0170086
0.0174193
0.0178792
0.018397
0.0189801
0.0196362
0.0203739
0.0212034
0.0221394
0.0232044
0.0244264
0.0258333
0.027449
0.0292879
0.0313589
0.0336784
0.0362692
0.0391422
0.0422645
0.0455593
0.0488037
0.0516585
0.0167784
0.0170516
0.0173451
0.0176636
0.0180151
0.0184055
0.0188432
0.0193367
0.0198949
0.0205271
0.0212435
0.0220563
0.0229813
0.0240412
0.0252609
0.0266662
0.0282794
0.0301184
0.0321963
0.034532
0.0371502
0.0400656
0.0432526
0.046645
0.0500329
0.0530839
0.0181527
0.0184375
0.0187444
0.0190807
0.0194536
0.0198707
0.0203424
0.0208774
0.021487
0.0221826
0.0229781
0.0238912
0.0249445
0.0261616
0.0275651
0.0291777
0.0310183
0.0331049
0.0354599
0.0381097
0.0410742
0.0443358
0.047838
0.0513827
0.0546459
0.0193106
0.0195881
0.0198849
0.0202086
0.0205659
0.0209653
0.0214171
0.0219313
0.0225198
0.023196
0.0239745
0.0248738
0.0259178
0.0271315
0.0285355
0.0301481
0.0319914
0.034088
0.036464
0.039149
0.0421682
0.0455146
0.049143
0.0528722
0.0563902
0.0208003
0.0210888
0.0214019
0.0217461
0.0221298
0.0225641
0.0230595
0.0236288
0.0242858
0.0250479
0.0259349
0.0269711
0.0281799
0.0295813
0.0311944
0.0330425
0.0351518
0.0375524
0.0402778
0.0433597
0.0468032
0.050576
0.0545182
0.0583331
0.0220777
0.02236
0.0226641
0.022997
0.0233675
0.0237865
0.0242651
0.0248171
0.0254573
0.0262033
0.0270768
0.0281043
0.0293086
0.0307087
0.0323241
0.0341791
0.0363035
0.0387318
0.0415027
0.0446553
0.0482091
0.0521474
0.0563381
0.0605039
0.0234244
0.0237019
0.023999
0.0243227
0.0246821
0.0250882
0.0255522
0.0260884
0.0267129
0.0274449
0.0283061
0.0293239
0.0305234
0.0319242
0.0335437
0.0354073
0.0375493
0.0400091
0.0428317
0.046065
0.0497448
0.0538738
0.0583549
0.0629366
0.0251182
0.0254104
0.0257274
0.0260776
0.0264728
0.0269246
0.0274474
0.028058
0.0287763
0.0296265
0.0306367
0.0318327
0.0332336
0.0348577
0.0367326
0.0388956
0.0413921
0.0442737
0.0475989
0.0514217
0.0557707
0.0605919
0.0656707
0.0266138
0.0269029
0.0272144
0.0275581
0.0279447
0.0283862
0.0288977
0.0294967
0.0302034
0.0310434
0.0320465
0.0332395
0.0346422
0.0362728
0.0381624
0.0403507
0.0428888
0.0458366
0.0492652
0.0532505
0.057853
0.0630729
0.0687492
0.0284802
0.0287891
0.029128
0.0295082
0.0299416
0.0304439
0.0310328
0.0317295
0.0325607
0.0335581
0.0347498
0.0361565
0.0377977
0.0397036
0.0419211
0.0445065
0.0475286
0.0510737
0.0552431
0.0601356
0.0658221
0.0722221
0.0301475
0.0304552
0.0307917
0.0311677
0.0315954
0.0320904
0.0326718
0.0333609
0.0341856
0.0351787
0.0363704
0.0377821
0.0394358
0.0413622
0.0436134
0.0462519
0.049358
0.0530337
0.0574099
0.0626338
0.068866
0.0761486
0.0319093
0.0322181
0.0325537
0.0329276
0.0333521
0.0338425
0.0344179
0.0351013
0.0359218
0.0369136
0.0381081
0.0395282
0.0411958
0.043147
0.0454362
0.0481344
0.0513336
0.0551539
0.059761
0.0653629
0.0722316
0.0805921
0.0340824
0.0344195
0.0347936
0.0352163
0.0357044
0.0362767
0.0369566
0.0377744
0.0387667
0.0399656
0.0413964
0.0430819
0.045061
0.0473935
0.0501585
0.0534596
0.0574397
0.0623027
0.068329
0.0759348
0.0856154
0.0360527
0.0363935
0.0367698
0.0371937
0.0376814
0.0382528
0.0389319
0.0397498
0.0407447
0.041951
0.043395
0.0451018
0.0471133
0.0494939
0.0523315
0.0557433
0.0598964
0.0650383
0.0715336
0.0799818
0.0912712
0.0381347
0.0384812
0.0388615
0.0392886
0.0397784
0.0403511
0.0410314
0.0418518
0.0428522
0.0440686
0.0455296
0.0472605
0.0493077
0.0517407
0.0546564
0.058187
0.0625239
0.0679644
0.0749695
0.0843631
0.0975864
0.0406878
0.0410743
0.0415063
0.0420002
0.0425766
0.0432607
0.0440863
0.0450947
0.0463237
0.0478033
0.0495623
0.0516484
0.0541382
0.0571366
0.0607916
0.0653209
0.0710728
0.0786167
0.089035
0.104516
0.0430175
0.0434129
0.043852
0.0443522
0.0449345
0.0456246
0.046457
0.0474759
0.0487209
0.050222
0.0520113
0.0541391
0.0566881
0.0597723
0.0635543
0.0682788
0.0743439
0.0824334
0.0939108
0.111888
0.045882
0.04633
0.0468389
0.0474286
0.0481264
0.0489685
0.05
0.0512625
0.0527883
0.0546095
0.0567815
0.0593912
0.0625616
0.0664684
0.0713825
0.0777508
0.0863623
0.0988555
0.119336
0.0484866
0.0489456
0.0494645
0.050064
0.0507722
0.0516253
0.0526709
0.0539526
0.0555039
0.0573593
0.059576
0.0622457
0.0654986
0.0695244
0.0746137
0.0812549
0.0903238
0.103677
0.12625
0.0512319
0.0517036
0.0522335
0.0528441
0.0535628
0.0544288
0.0554911
0.0567942
0.0583724
0.0602611
0.0625205
0.0652471
0.0685764
0.0727082
0.0779476
0.0848101
0.094226
0.108161
0.131896
0.0546073
0.0551495
0.0557729
0.0565043
0.0573842
0.0584624
0.0597867
0.0613918
0.0633133
0.065613
0.0683904
0.071785
0.0760011
0.081354
0.0883656
0.0979738
0.112108
0.135698
0.0576608
0.0582174
0.0588534
0.0595977
0.0604918
0.0615873
0.0629322
0.0645624
0.0665134
0.0688482
0.0716673
0.0751111
0.0793858
0.0848039
0.0918757
0.101492
0.115392
0.137548
0.0608689
0.0614394
0.0620882
0.0628463
0.0637541
0.0648655
0.0662301
0.0678823
0.0698587
0.0722212
0.0750694
0.0785428
0.0828433
0.0882695
0.0953003
0.104731
0.117992
0.137828
0.0648185
0.0654807
0.0662512
0.0671718
0.0682981
0.0696797
0.071351
0.0733457
0.0757253
0.0785873
0.0820669
0.0863542
0.0917285
0.0986149
0.10768
0.119994
0.137153
0.0683583
0.0690328
0.0698146
0.0707468
0.0718855
0.0732798
0.0749637
0.0769692
0.0793545
0.0822132
0.0856724
0.0899071
0.0951678
0.101815
0.110371
0.121556
0.0720616
0.0727473
0.0735385
0.0744795
0.0756265
0.0770294
0.0787195
0.0807263
0.083104
0.0859398
0.0893509
0.0934944
0.0985842
0.104913
0.112861
0.122857
0.0766256
0.0774239
0.0783713
0.079523
0.0809289
0.0826177
0.0846144
0.0869698
0.0897632
0.0930996
0.0971146
0.101986
0.107938
0.115228
0.124065
0.080671
0.0814747
0.0824241
0.0835751
0.0849771
0.0866559
0.0886319
0.0909505
0.0936822
0.0969186
0.100774
0.105389
0.110929
0.11755
0.125318
0.0848881
0.0856921
0.0866383
0.0877845
0.0891763
0.0908358
0.0927795
0.0950462
0.0976985
0.100813
0.104484
0.108819
0.113931
0.119905
0.126719
0.0900794
0.09102
0.0921548
0.0935281
0.0951596
0.0970601
0.0992623
0.101819
0.104795
0.108263
0.112304
0.11699
0.122358
0.128339
0.0946422
0.0955708
0.096688
0.0980365
0.0996311
0.101478
0.103604
0.106052
0.108875
0.11213
0.115874
0.12015
0.124963
0.130227
0.0993837
0.100297
0.101391
0.102707
0.104256
0.10604
0.108079
0.110409
0.113071
0.116109
0.11956
0.12345
0.127763
0.132415
0.105203
0.106268
0.107546
0.109042
0.110754
0.112699
0.114904
0.117401
0.120222
0.123393
0.126923
0.130792
0.134922
0.110296
0.111327
0.11256
0.113996
0.115631
0.117475
0.119551
0.121882
0.124492
0.127397
0.130599
0.134076
0.13776
0.115583
0.116576
0.117757
0.119129
0.120682
0.122422
0.124367
0.126534
0.128941
0.131598
0.134503
0.137635
0.140939
0.121074
0.122024
0.123151
0.124454
0.125921
0.127555
0.129371
0.13138
0.133596
0.136024
0.138662
0.14149
0.14447
0.127685
0.128754
0.129986
0.131368
0.132898
0.134587
0.136447
0.138484
0.140704
0.143103
0.145667
0.148368
0.133577
0.134589
0.135751
0.137048
0.138478
0.140048
0.141768
0.143642
0.145673
0.14786
0.150194
0.152654
0.139728
0.140684
0.14178
0.142997
0.144333
0.145794
0.147385
0.149112
0.150975
0.152976
0.155109
0.146176
0.147082
0.148117
0.149262
0.150514
0.151876
0.153352
0.154947
0.156663
0.158501
0.160459
0.153833
0.154815
0.155897
0.157074
0.158349
0.159724
0.161203
0.162789
0.164484
0.16629
0.16099
0.161928
0.162955
0.164066
0.165263
0.166547
0.167924
0.169395
0.170964
0.172636
0.168596
0.169493
0.17047
0.17152
0.172645
0.173847
0.175129
0.176496
0.177953
0.179505
0.176665
0.177521
0.178447
0.179436
0.18049
0.181613
0.182807
0.184077
0.18543
0.186873
0.185179
0.185988
0.186858
0.187785
0.18877
0.189815
0.190926
0.192106
0.193364
0.194707
0.194868
0.195683
0.196551
0.197471
0.198448
0.199484
0.200586
0.20176
0.203016
0.204184
0.204959
0.205783
0.206657
0.207583
0.208564
0.209604
0.210712
0.211895
0.214059
0.214827
0.21564
0.216498
0.217403
0.218355
0.219359
0.220421
0.224721
0.225524
0.226366
0.227246
0.228161
0.229112
0.230105
0.231143
0.236414
0.237295
0.238204
0.239137
0.240091
0.241069
0.242073
0.243106
0.249291
0.25028
0.251281
0.252293
0.253309
0.254334
0.255367
0.256409
0.264485
0.265603
0.266717
0.26782
0.268914
0.269992
0.271063
0.279568
0.280828
0.282067
0.283284
0.284467
0.285614
0.286736
0.29405
0.295462
0.29685
0.298207
0.299515
0.300779
0.301991
0.307354
0.308899
0.310431
0.31193
0.313391
0.314801
0.316143
0.321026
0.322692
0.324356
0.326002
0.327624
0.329194
0.330703
0.335956
0.3378
0.339659
0.341522
0.343358
0.345137
0.346853
0.351921
0.354082
0.356324
0.358623
0.360924
0.363186
0.369912
0.372618
0.37546
0.37841
0.381424
0.384466
0.393912
0.398418
0.403164
0.408038
0.4129
0.417622
0.435836
0.44489
0.454974
0.466012
0.477864
0.491228
0.504288
0.517265
0.529461
0.540005
0.494349
0.502805
0.509496
0.514337
0.517437
0.365117
0.352376
0.341184
0.33148
0.323194
0.236703
0.234739
0.233218
0.232105
0.231332
0.169755
0.168692
0.16792
0.167413
0.167115
)
;

boundaryField
{
    inlet
    {
        type            calculated;
        value           nonuniform List<scalar> 5(0.104165 0.102752 0.101527 0.100471 0.0995658);
    }
    outlet
    {
        type            calculated;
        value           nonuniform List<scalar> 0();
    }
    walls
    {
        type            calculated;
        value           uniform 0;
    }
    frontAndBack
    {
        type            empty;
    }
    procBoundary1to0
    {
        type            processor;
        value           nonuniform List<scalar> 
94
(
0.00987424
0.00987424
0.0108587
0.0108587
0.01191
0.01191
0.0130258
0.0130258
0.0142139
0.0142139
0.0154655
0.0154655
0.0165242
0.0178853
0.0178853
0.0190475
0.0205283
0.0205283
0.0218098
0.0231587
0.0248435
0.0248435
0.0263402
0.028192
0.028192
0.029859
0.0316179
0.0337702
0.0337702
0.0357357
0.0378109
0.0403334
0.0403334
0.0426536
0.0454767
0.0454767
0.0480699
0.0508012
0.0541224
0.0541224
0.0571616
0.0603541
0.0642342
0.0642342
0.0677605
0.071451
0.0759314
0.0759314
0.0799697
0.0841825
0.0892773
0.0892773
0.0938474
0.0986002
0.104311
0.104311
0.109431
0.114749
0.120273
0.126782
0.126782
0.13272
0.138918
0.145407
0.15297
0.15297
0.160162
0.167798
0.175899
0.184452
0.194108
0.194108
0.203462
0.213345
0.223968
0.235577
0.248338
0.263366
0.263366
0.278295
0.292613
0.305801
0.319375
0.334149
0.349858
0.36737
0.38977
0.427835
0.427835
0.478569
0.484456
0.37981
0.239043
0.171153
)
;
    }
    procBoundary1to2
    {
        type            processor;
        value           nonuniform List<scalar> 
84
(
0.0560833
0.212388
0.258856
0.235026
0.118306
0.668388
0.061995
0.0487126
0.0436343
0.0475057
0.047243
0.049046
0.0500068
0.0514608
0.0528836
0.054549
0.0563744
0.0584316
0.060738
0.0633406
0.0662893
0.0696496
0.0735005
0.0779428
0.0831112
0.0891788
0.0963736
0.104996
0.115437
0.128139
0.143431
0.160825
0.17737
0.18686
0.185554
0.1774
0.167879
0.159551
0.136098
0.136098
0.135072
0.134319
0.133964
0.134068
0.134645
0.135691
0.137197
0.139148
0.141527
0.144324
0.147534
0.151159
0.155212
0.157361
0.157361
0.162532
0.168207
0.174415
0.18116
0.188416
0.196148
0.204366
0.213168
0.22155
0.22155
0.232235
0.244178
0.257472
0.272133
0.287824
0.303148
0.317427
0.332152
0.34849
0.365375
0.365375
0.387495
0.422073
0.490296
0.548097
0.519297
0.316272
0.230806
0.166978
)
;
    }
    procBoundary1to5
    {
        type            processor;
        value           nonuniform List<scalar> 
13
(
0.00351506
0.00351506
0.00438262
0.00498495
0.00498495
0.00549497
0.00619169
0.00619169
0.00678729
0.00752202
0.0082772
0.0082772
0.00895959
)
;
    }
}


// ************************************************************************* //
