/*--------------------------------*- C++ -*----------------------------------*\
| =========                 |                                                 |
| \\      /  F ield         | OpenFOAM: The Open Source CFD Toolbox           |
|  \\    /   O peration     | Version:  2506                                  |
|   \\  /    A nd           | Website:  www.openfoam.com                      |
|    \\/     M anipulation  |                                                 |
\*---------------------------------------------------------------------------*/
FoamFile
{
    version     2.0;
    format      ascii;
    arch        "LSB;label=32;scalar=64";
    class       volVectorField;
    location    "50.00229049822";
    object      ddt0(U);
}
// * * * * * * * * * * * * * * * * * * * * * * * * * * * * * * * * * * * * * //

dimensions      [0 1 -2 0 0 0 0];

internalField   nonuniform List<vector> 
9700
(
(-0.00413385 -0.000745049 2.38194e-23)
(-0.00416299 -0.00231663 -3.59457e-24)
(-0.00229574 -0.000800962 -4.54978e-28)
(-0.00429799 -0.00398157 -3.35587e-23)
(-0.00222548 -0.00249442 4.59114e-24)
(-0.00096617 -0.000781674 4.67831e-23)
(-0.00456354 -0.00583164 6.60187e-24)
(-0.00219993 -0.00426505 2.93037e-36)
(-0.000838415 -0.00245748 4.2907e-23)
(0.000538315 -0.000745911 0)
(-0.00492819 -0.0079625 4.69616e-23)
(-0.00220007 -0.00624259 -1.08991e-23)
(-0.000695203 -0.00418131 4.13118e-22)
(0.000730668 -0.00235545 7.16992e-23)
(0.00189738 -0.000691402 -3.27932e-23)
(-0.00538762 -0.0104756 4.62178e-23)
(-0.0021985 -0.00848797 5.41884e-27)
(-0.000512828 -0.00610711 8.52263e-23)
(0.000993043 -0.0039949 -7.21711e-36)
(0.00213764 -0.00216259 -5.19594e-23)
(0.00314319 -0.000619983 -2.20195e-27)
(-0.0059087 -0.013469 -5.98644e-23)
(-0.00217574 -0.0111116 -7.11237e-27)
(-0.000259471 -0.00828041 9.38122e-23)
(0.00137373 -0.00582364 -1.59931e-22)
(0.00250608 -0.00366078 -2.77715e-22)
(0.0034058 -0.00189478 1.61524e-23)
(0.00419693 -0.000501517 1.9095e-24)
(-0.0064767 -0.0170629 1.2728e-22)
(-0.00209763 -0.014207 -2.45567e-22)
(9.16944e-05 -0.0108066 5.01865e-23)
(0.00190219 -0.00787934 0)
(0.00305833 -0.00532627 -7.8028e-24)
(0.00387432 -0.00320149 8.28271e-37)
(0.00448103 -0.00156546 -1.43962e-23)
(0.00502538 -0.000368845 1.42433e-22)
(-0.00705817 -0.0214032 4.2154e-23)
(-0.0019274 -0.0178832 1.30037e-22)
(0.000575267 -0.0137739 -1.86063e-22)
(0.00261287 -0.0102598 0)
(0.00382662 -0.00719496 -1.19259e-23)
(0.00457825 -0.00465092 -2.80832e-23)
(0.00502804 -0.00262872 1.16746e-26)
(0.00533689 -0.00118164 -1.76983e-23)
(0.00561186 -0.000229806 1.17751e-24)
(-0.00757999 -0.026647 -1.71358e-22)
(-0.00162186 -0.022263 4.20426e-22)
(0.00123189 -0.017287 1.24101e-21)
(0.00354775 -0.0130445 5.14081e-37)
(0.00484799 -0.00935513 -9.65101e-23)
(0.00556109 -0.00627402 1.39364e-26)
(0.00585884 -0.00381947 5.82515e-23)
(0.00593573 -0.00197072 7.75644e-24)
(0.00593218 -0.000758936 -1.21108e-22)
(0.00593479 -8.42307e-05 8.64683e-23)
(-0.00789211 -0.0329419 1.58221e-22)
(-0.00111367 -0.0274804 -4.67016e-23)
(0.00211696 -0.0214544 1.30706e-23)
(0.00475434 -0.01633 -1.47026e-22)
(0.00616945 -0.0118778 -4.59226e-22)
(0.00686253 -0.00815044 -1.78363e-26)
(0.00702097 -0.00514528 6.28322e-23)
(0.00686608 -0.00286025 7.55795e-23)
(0.00656522 -0.00124741 4.95216e-24)
(0.00624915 -0.000312003 9.05261e-23)
(0.0059822 6.37524e-05 0)
(-0.00775633 -0.0403971 -7.06217e-24)
(-0.000285425 -0.0336634 -5.5741e-23)
(0.00330622 -0.0263928 -1.24389e-21)
(0.00629088 -0.0202152 -5.69775e-22)
(0.00784438 -0.0148515 -7.14611e-22)
(0.00853543 -0.0103417 -6.00279e-22)
(0.00855934 -0.00668173 -2.68285e-23)
(0.00816942 -0.0038457 8.06512e-23)
(0.0075632 -0.00180403 2.83345e-22)
(0.00689527 -0.000482606 -9.1853e-27)
(0.00627908 0.000143178 -6.47432e-38)
(0.00575459 0.00020827 2.57592e-23)
(-0.00704833 -0.0491486 1.40612e-21)
(0.00106748 -0.0408948 -4.18211e-22)
(0.0049091 -0.0322123 1.95904e-22)
(0.00822885 -0.024805 2.08709e-22)
(0.00993642 -0.0183657 7.04581e-22)
(0.0106392 -0.0129294 7.38353e-23)
(0.0105316 -0.00847934 -4.46915e-22)
(0.00989811 -0.00499233 9.67453e-23)
(0.00896556 -0.00241498 -2.63677e-27)
(0.00792547 -0.0006867 1.70244e-22)
(0.00691387 0.000295739 -7.63475e-38)
(0.00602253 0.000589048 1.55402e-23)
(0.00526323 0.000343202 -9.46721e-28)
(-0.00623145 -0.0596216 -3.67091e-24)
(0.00316023 -0.0492019 -2.67316e-35)
(0.00707569 -0.0389951 1.03739e-22)
(0.0106608 -0.0301955 7.8474e-22)
(0.0125171 -0.0225169 8.27414e-22)
(0.0132426 -0.0159956 9.68642e-22)
(0.0130055 -0.010612 4.75009e-22)
(0.0121153 -0.00633969 1.32888e-22)
(0.0108308 -0.00313034 3.39737e-27)
(0.0093795 -0.000899166 1.8488e-22)
(0.00793825 0.000451789 1.38077e-38)
(0.0066207 0.0010576 2.21331e-26)
(0.00549091 0.00100712 1.00454e-23)
(0.00453074 0.000462712 -4.49513e-23)
(-0.00652904 -0.0727563 2.19159e-22)
(0.00594937 -0.0587134 5.36264e-22)
(0.00996366 -0.0467702 3.2229e-21)
(0.0137064 -0.0364602 7.9516e-22)
(0.0156676 -0.0273973 -8.30831e-23)
(0.0164196 -0.0196333 -1.03739e-22)
(0.0160572 -0.0131561 9.53076e-22)
(0.0148985 -0.00795194 8.48907e-22)
(0.0132292 -0.00397757 -5.97597e-22)
(0.0113205 -0.00115243 1.04114e-22)
(0.00939118 0.000649308 0)
(0.00759891 0.00156839 7.20813e-23)
(0.00602719 0.00177164 -2.11874e-36)
(0.00470804 0.00137883 -5.60322e-23)
(0.00359058 0.000562076 -6.21642e-23)
(-0.00908191 -0.0895398 4.51709e-21)
(0.00876299 -0.0700127 1.81657e-22)
(0.0136161 -0.0555623 3.61241e-22)
(0.0175058 -0.0436223 -9.7029e-35)
(0.0194755 -0.0330865 -2.59339e-22)
(0.0202458 -0.023936 -1.20577e-22)
(0.0197681 -0.0162033 -4.42378e-22)
(0.0183351 -0.00989907 -5.9955e-22)
(0.0162494 -0.00500803 2.13102e-22)
(0.0138263 -0.00145889 -3.28634e-22)
(0.0113393 0.000875971 0)
(0.00899375 0.00217297 7.80205e-23)
(0.00691773 0.0026174 -2.38605e-23)
(0.00515802 0.00240596 -3.58241e-22)
(0.00370979 0.0016866 -7.20631e-23)
(0.00248606 0.000634089 5.92138e-29)
(-0.0139281 -0.11004 1.02595e-21)
(0.0102558 -0.0841833 8.87978e-24)
(0.0177468 -0.0656022 1.20356e-21)
(0.0221507 -0.0516713 -9.42397e-22)
(0.0240312 -0.0396223 -2.22371e-21)
(0.0247923 -0.0289952 -8.36155e-22)
(0.0242171 -0.0198535 1.04562e-22)
(0.02252 -0.0122711 -1.00195e-21)
(0.0199942 -0.00628207 1.42779e-24)
(0.0169979 -0.00185303 8.5689e-23)
(0.0138673 0.00113797 -1.99405e-36)
(0.0108735 0.00288154 -1.22065e-24)
(0.00819483 0.0036097 1.18393e-26)
(0.00592017 0.00355167 -2.87564e-23)
(0.00405117 0.00293014 -7.07245e-23)
(0.0025417 0.00191545 4.94542e-23)
(0.00127051 0.00067298 6.80342e-23)
(-0.020915 -0.133058 5.58497e-21)
(0.00936736 -0.102385 -2.23614e-22)
(0.0216045 -0.0774945 -4.82312e-22)
(0.0275408 -0.060667 0)
(0.0294025 -0.0469966 -3.14861e-23)
(0.0301153 -0.0348785 -1.70164e-35)
(0.0294704 -0.0242169 -7.0557e-23)
(0.0275456 -0.0151763 1.52409e-21)
(0.024579 -0.00788515 -2.61458e-22)
(0.0209566 -0.00237991 6.89007e-22)
(0.017088 0.00142291 7.16976e-22)
(0.013327 0.00372238 -3.95436e-22)
(0.00992538 0.00478306 -1.54932e-26)
(0.00702004 0.00489428 -3.48656e-23)
(0.00464737 0.00432577 -2.4407e-22)
(0.00275613 0.00331746 5.00511e-22)
(0.00125824 0.00205321 7.04284e-23)
(2.80767e-06 0.00068157 -6.79456e-23)
(-0.0279096 -0.156893 -9.9702e-21)
(0.00596953 -0.124527 -2.22695e-22)
(0.0240446 -0.0924365 -1.81248e-22)
(0.0332351 -0.0708611 9.07172e-35)
(0.035569 -0.0551815 1.03779e-21)
(0.0362372 -0.0416196 1.00594e-21)
(0.0355655 -0.0293995 7.23068e-22)
(0.0334892 -0.0187462 5.19662e-22)
(0.0301203 -0.00992867 1.29764e-21)
(0.0258433 -0.00311344 1.96606e-22)
(0.0211418 0.00170852 -8.60472e-22)
(0.0164766 0.00471093 7.67827e-22)
(0.0121987 0.00619061 -5.37405e-22)
(0.00851932 0.00649315 -1.0543e-22)
(0.00551426 0.00596268 -8.88216e-23)
(0.00315452 0.00489952 7.56545e-23)
(0.00133363 0.00354667 -4.37349e-22)
(-7.87874e-05 0.00209159 -1.33663e-22)
(-0.0012567 0.000657769 -4.87602e-29)
(-0.0323025 -0.178578 -1.62942e-21)
(0.000572471 -0.150768 -4.15572e-22)
(0.0242485 -0.111005 2.58613e-21)
(0.0383556 -0.0829809 -1.0228e-35)
(0.042318 -0.0642021 1.72148e-22)
(0.0431121 -0.0491955 3.97543e-22)
(0.0424842 -0.0354923 3.19398e-22)
(0.0403882 -0.023129 9.73809e-23)
(0.0367222 -0.0125647 -1.50869e-21)
(0.0318106 -0.00415684 2.23558e-22)
(0.026198 0.00194446 -1.10318e-21)
(0.0204794 0.00585634 1.21832e-21)
(0.0151409 0.00788095 6.8693e-23)
(0.0105019 0.00842755 -4.09177e-22)
(0.00670398 0.00792402 -1.03094e-22)
(0.00374062 0.00675738 -7.18553e-28)
(0.00151104 0.00524027 8.91486e-23)
(-0.000147521 0.00360455 -7.65902e-23)
(-0.00140434 0.00202811 3.90952e-24)
(-0.00244656 0.000602395 6.05314e-23)
(-0.0329121 -0.196937 4.21867e-21)
(-0.00458112 -0.177815 1.61728e-21)
(0.0220237 -0.134097 -5.39859e-21)
(0.0421037 -0.0978978 -1.56278e-35)
(0.0490664 -0.0743338 -1.27251e-21)
(0.0505738 -0.0575377 -8.21343e-26)
(0.0501214 -0.0425266 1.86095e-21)
(0.0481968 -0.0284761 1.01399e-21)
(0.044438 -0.0159731 -4.32109e-23)
(0.0390001 -0.00567279 -8.18825e-23)
(0.0324523 0.0020488 1.31894e-21)
(0.0255317 0.00714704 -6.97185e-22)
(0.0189193 0.00990355 9.56586e-22)
(0.0130899 0.0107828 -1.02588e-21)
(0.00828784 0.0103143 -2.15864e-22)
(0.00455242 0.00899503 9.3517e-28)
(0.00178126 0.00723106 1.00313e-22)
(-0.000203069 0.00532688 -1.29529e-22)
(-0.00161518 0.0034867 1.52486e-35)
(-0.00265303 0.00186589 7.68064e-23)
(-0.00350878 0.00051825 1.65593e-24)
(-0.0306225 -0.211395 7.0866e-22)
(-0.0080082 -0.204833 3.28551e-22)
(0.0183103 -0.15963 -1.04522e-21)
(0.0434161 -0.116309 0)
(0.0551069 -0.0862532 -2.3086e-21)
(0.0582203 -0.0666204 -1.33156e-21)
(0.0582433 -0.0504359 -4.9527e-22)
(0.0567319 -0.0348799 1.28712e-21)
(0.0532017 -0.0203505 1.96176e-21)
(0.0474862 -0.00784531 -1.30535e-24)
(0.0400851 0.00187985 1.28292e-36)
(0.0318663 0.00853678 1.38934e-22)
(0.0237495 0.0122992 -1.11498e-22)
(0.0164498 0.0136553 7.48878e-22)
(0.0103742 0.0132558 -9.33058e-22)
(0.00564117 0.0117385 7.54674e-23)
(0.00216341 0.00963843 1.07453e-22)
(-0.000267461 0.0073521 -9.48063e-23)
(-0.00190302 0.00515187 -1.02129e-23)
(-0.00299604 0.0031985 6.71462e-23)
(-0.00376351 0.00161359 8.22613e-24)
(-0.00439285 0.000409701 -4.42694e-22)
(-0.0273626 -0.22273 -2.40315e-22)
(-0.00973776 -0.228812 -2.1926e-21)
(0.0149126 -0.187005 5.51157e-21)
(0.0422414 -0.138703 -5.25209e-36)
(0.0597645 -0.0998198 6.39273e-21)
(0.065464 -0.076635 2.06015e-21)
(0.066444 -0.0590481 -1.45257e-21)
(0.0656285 -0.0422965 2.7077e-22)
(0.0627298 -0.0258127 -1.71962e-26)
(0.0571712 -0.0108744 -2.19062e-23)
(0.0491821 0.00128588 -2.94464e-37)
(0.0396919 0.00995857 -9.56482e-23)
(0.0298842 0.015085 -1.33935e-22)
(0.0208006 0.0171498 1.18784e-21)
(0.0131132 0.0168945 -4.55093e-22)
(0.00709063 0.0151432 8.52647e-22)
(0.00268318 0.0126035 9.10202e-23)
(-0.000343833 0.00980805 -1.09524e-22)
(-0.00230232 0.00710865 6.84364e-28)
(-0.0035021 0.0047229 2.1993e-22)
(-0.00422119 0.00275528 1.44227e-22)
(-0.00468258 0.0012849 -5.3747e-22)
(-0.00505765 0.000282468 -5.88601e-25)
(-0.0239636 -0.230154 8.06409e-23)
(-0.0101544 -0.250125 -2.36484e-22)
(0.0116302 -0.213438 2.41978e-21)
(0.03986 -0.163118 -1.66086e-35)
(0.0620323 -0.117775 -2.27132e-23)
(0.0719368 -0.0872275 1.50276e-21)
(0.0741688 -0.0681236 2.76645e-21)
(0.0743441 -0.0504848 2.79947e-21)
(0.0724834 -0.0322946 1.39874e-21)
(0.067627 -0.0148166 2.00152e-21)
(0.0595686 0.000138536 7.00895e-37)
(0.0490714 0.0113344 7.37633e-22)
(0.0375315 0.0182994 -1.13452e-21)
(0.0263921 0.021377 -1.33964e-22)
(0.0167071 0.0214054 -2.94605e-23)
(0.00901789 0.0194013 -3.80216e-22)
(0.00338901 0.0163061 6.91288e-24)
(-0.000435416 0.0128421 -2.2874e-22)
(-0.0028392 0.0094852 -9.57572e-28)
(-0.00421669 0.00651075 8.06714e-23)
(-0.00491862 0.00406291 -2.07434e-23)
(-0.00523098 0.00218111 -5.03228e-23)
(-0.00536735 0.000897517 9.78053e-23)
(-0.00547357 0.000143297 2.94748e-22)
(-0.0204689 -0.235342 -1.90922e-23)
(-0.009793 -0.267794 -2.69423e-22)
(0.00892323 -0.238344 -2.12214e-22)
(0.0362429 -0.189116 -1.60336e-35)
(0.0610214 -0.13645 -5.72672e-21)
(0.0750021 -0.100465 -2.75589e-21)
(0.0807065 -0.0773656 -5.39549e-21)
(0.0822178 -0.0590191 5.0747e-22)
(0.0817138 -0.0394819 -3.14968e-21)
(0.0781014 -0.0195052 -1.71107e-21)
(0.0706141 -0.00144247 0)
(0.0596653 0.0127109 4.21181e-22)
(0.0466611 0.0220091 6.13304e-35)
(0.0333836 0.0264874 -3.72648e-22)
(0.0213681 0.0269989 5.34357e-22)
(0.0115842 0.0247544 -1.22738e-21)
(0.00435099 0.0209742 4.36127e-22)
(-0.000537286 0.0166462 -8.4899e-22)
(-0.00354776 0.0124246 2.75752e-23)
(-0.00518745 0.00868192 9.16504e-23)
(-0.00590983 0.00559061 -2.24009e-23)
(-0.0060821 0.00320832 -4.74988e-22)
(-0.00597768 0.00150712 3.52672e-22)
(-0.00578741 0.000472147 3.61642e-22)
(-0.00562423 -6.14742e-07 2.39538e-23)
(-0.016091 -0.238679 3.47868e-21)
(-0.00975026 -0.283219 3.3288e-21)
(0.00701479 -0.260389 -3.86789e-21)
(0.0319057 -0.214453 4.64254e-21)
(0.0585815 -0.158207 1.42974e-21)
(0.077027 -0.11365 2.16733e-22)
(0.0854127 -0.0867194 -1.82974e-22)
(0.0885987 -0.0673511 6.33838e-21)
(0.0895845 -0.0468624 9.76296e-22)
(0.0876359 -0.0245007 -5.71871e-21)
(0.0813444 -0.00311616 -1.99537e-35)
(0.0706101 0.0145065 3.45901e-21)
(0.056663 0.0265424 1.93718e-21)
(0.0415534 0.0327657 -3.53587e-21)
(0.0271436 0.0339807 3.73338e-22)
(0.0149213 0.0315132 7.39173e-23)
(0.0056642 0.0268998 1.55113e-21)
(-0.000635306 0.0214659 1.32862e-22)
(-0.00446911 0.016117 3.68621e-23)
(-0.00647853 0.011365 1.88029e-22)
(-0.00726066 0.0074419 3.06007e-23)
(-0.0072951 0.00439997 -5.47545e-22)
(-0.0069367 0.00220632 -2.48245e-22)
(-0.00642803 0.000769669 1.70077e-22)
(-0.00592657 3.08684e-05 7.86123e-23)
(-0.00550682 -0.000142192 1.14852e-28)
(-0.0140695 -0.240528 2.8018e-21)
(-0.00911948 -0.293008 1.01935e-21)
(0.00465746 -0.279822 -5.23675e-23)
(0.0276985 -0.2389 -1.17148e-25)
(0.054208 -0.180261 -1.57605e-21)
(0.0760912 -0.12925 -2.26449e-21)
(0.0878127 -0.0963292 8.17143e-21)
(0.0929201 -0.0750654 7.8879e-21)
(0.0953891 -0.0537978 3.6391e-21)
(0.0953047 -0.029268 3.44366e-22)
(0.0906576 -0.00429696 7.18981e-36)
(0.0807744 0.0172305 -5.67237e-22)
(0.066473 0.03267 9.22484e-22)
(0.0499792 0.0408949 1.944e-23)
(0.033531 0.0428671 -4.22327e-22)
(0.0188951 0.0401315 2.12731e-22)
(0.00734778 0.0344721 3.07452e-22)
(-0.000717607 0.0276218 -2.88372e-22)
(-0.00565081 0.0208059 -3.33777e-36)
(-0.00817429 0.0147334 8.20153e-22)
(-0.00906078 0.00972188 3.00071e-22)
(-0.00894915 0.00583693 -5.95033e-22)
(-0.00830468 0.00300614 6.72491e-27)
(-0.00744435 0.00111186 1.56762e-22)
(-0.0065652 7.35043e-06 -3.18354e-22)
(-0.00578314 -0.000404707 -8.90978e-23)
(-0.00513138 -0.000274632 -1.25267e-23)
(-0.0137313 -0.242205 -1.04462e-22)
(-0.00808761 -0.298565 -7.33667e-21)
(0.00235497 -0.293602 -9.74373e-21)
(0.0227058 -0.259859 4.50659e-21)
(0.0486356 -0.202931 5.18333e-21)
(0.0724942 -0.145468 -3.90275e-22)
(0.0876431 -0.106268 2.06621e-21)
(0.0948396 -0.0818867 9.44985e-21)
(0.0987623 -0.0599076 1.23955e-21)
(0.100487 -0.0333852 -6.30879e-21)
(0.0977428 -0.00457103 4.72419e-39)
(0.0890595 0.0215023 -4.65556e-21)
(0.0749212 0.0409329 -2.2709e-25)
(0.0575105 0.0518376 2.86535e-21)
(0.0393534 0.0546859 -2.82792e-21)
(0.0226609 0.0513698 3.13006e-21)
(0.00903847 0.0442514 3.66202e-22)
(-0.000889521 0.0355464 -5.29023e-22)
(-0.00716941 0.0268145 -6.77095e-23)
(-0.0103841 0.0190084 4.81943e-22)
(-0.0114315 0.0125736 -1.04012e-21)
(-0.0111522 0.00759373 -1.29188e-21)
(-0.0101682 0.00396067 -9.09138e-27)
(-0.00889366 0.00148741 2.89437e-22)
(-0.00758707 -1.68985e-05 -1.13465e-22)
(-0.00638893 -0.000742201 6.47561e-36)
(-0.00536901 -0.00081409 3.17271e-23)
(-0.00451994 -0.000391794 0)
(-0.0134991 -0.243156 -1.3701e-21)
(-0.00920405 -0.302786 -1.54209e-21)
(-0.00173335 -0.302044 -4.16441e-21)
(0.0170543 -0.276286 -2.03147e-20)
(0.0417959 -0.222569 -2.14361e-20)
(0.0665379 -0.162825 -7.55542e-22)
(0.0846394 -0.116063 2.63059e-22)
(0.0941879 -0.0878557 8.56571e-21)
(0.0994928 -0.0646972 5.72651e-21)
(0.102894 -0.036726 -4.46765e-21)
(0.102237 -0.00400217 0)
(0.0951492 0.0273785 4.89975e-22)
(0.0812456 0.051768 -4.70024e-21)
(0.0632457 0.0660276 -3.27735e-23)
(0.0436102 0.0702863 -7.36976e-22)
(0.0248637 0.0664511 6.27719e-22)
(0.0095649 0.057139 -2.72324e-21)
(-0.00173911 0.0458418 -9.59223e-22)
(-0.00925679 0.0345797 -9.028e-23)
(-0.0132701 0.0244869 -1.77287e-23)
(-0.0145359 0.0161771 -6.7636e-22)
(-0.0140524 0.00977273 -4.28237e-22)
(-0.0126448 0.0051098 6.16587e-22)
(-0.0108637 0.00192181 2.75655e-22)
(-0.00904273 -7.38525e-05 1.78139e-23)
(-0.00736677 -0.00112363 2.15077e-22)
(-0.00591434 -0.0014435 4.82029e-23)
(-0.00470857 -0.00117928 -1.47408e-23)
(-0.00370424 -0.000488605 -5.87166e-23)
(-0.0128203 -0.244194 2.03314e-21)
(-0.0104023 -0.30695 2.12878e-21)
(-0.00310163 -0.308821 8.92756e-21)
(0.0122367 -0.287776 -1.16372e-20)
(0.0341039 -0.239247 -3.36026e-21)
(0.0586647 -0.17813 -4.42209e-21)
(0.0787698 -0.126539 -1.13179e-20)
(0.0907951 -0.0925545 8.37953e-21)
(0.0974958 -0.0681046 -1.12284e-21)
(0.102312 -0.0389636 -1.59106e-20)
(0.103949 -0.00294688 -1.37415e-36)
(0.0990467 0.0340763 1.18449e-21)
(0.086173 0.0645499 8.74505e-21)
(0.0672665 0.0835333 -4.61749e-21)
(0.0464912 0.0900597 1.04466e-20)
(0.0249606 0.0861344 -1.2781e-21)
(0.0075328 0.0742526 6.53314e-22)
(-0.00462342 0.0593708 -4.85715e-22)
(-0.012666 0.0446891 9.28468e-23)
(-0.017177 0.0315683 -6.39031e-22)
(-0.0186091 0.0207741 -8.06339e-22)
(-0.0178516 0.0124984 6.19839e-22)
(-0.0158969 0.00650942 7.56053e-22)
(-0.0134727 0.00241953 1.90151e-22)
(-0.0110154 -0.000166166 1.36584e-23)
(-0.00875754 -0.00159853 -1.43542e-27)
(-0.00680362 -0.00215566 -1.07203e-22)
(-0.00517041 -0.00206563 -1.94443e-23)
(-0.00383614 -0.00148574 -3.8236e-23)
(-0.00272412 -0.000561271 -1.43715e-25)
(-0.0116864 -0.244883 3.67498e-21)
(-0.0107474 -0.310171 4.05071e-21)
(-0.00379326 -0.315258 1.22844e-21)
(0.00864292 -0.297594 8.01458e-21)
(0.0275415 -0.251947 1.44345e-20)
(0.0500016 -0.191862 -1.90208e-21)
(0.0704249 -0.135426 -1.28342e-22)
(0.0845802 -0.0968907 -1.0294e-20)
(0.0927034 -0.0695554 2.4783e-21)
(0.0987616 -0.0400602 -9.28617e-21)
(0.102541 -0.00130401 -1.28099e-34)
(0.100495 0.0408308 4.63484e-21)
(0.0899199 0.0777267 5.64506e-21)
(0.0712282 0.102796 -2.803e-21)
(0.0490054 0.112742 -2.08764e-21)
(0.0246959 0.110725 -8.09022e-21)
(0.00327597 0.0962328 2.09261e-22)
(-0.010629 0.0768717 -5.15817e-22)
(-0.0187366 0.057836 2.19773e-35)
(-0.0229304 0.040757 -5.22928e-22)
(-0.0240734 0.0266845 -3.78051e-23)
(-0.0228365 0.0159352 -9.68249e-23)
(-0.0201463 0.00822085 -4.3361e-22)
(-0.016884 0.00298914 -5.02683e-22)
(-0.0136156 -0.000322455 5.66543e-22)
(-0.0106351 -0.00219538 1.90526e-27)
(-0.00806614 -0.00301352 9.95389e-25)
(-0.00593375 -0.00306762 4.72088e-23)
(-0.00419714 -0.00258389 4.88874e-24)
(-0.00279326 -0.00172253 2.12847e-23)
(-0.00162573 -0.000609587 5.11966e-23)
(-0.0100799 -0.245257 -1.43778e-21)
(-0.0109152 -0.312301 4.20459e-21)
(-0.00601953 -0.319681 -6.99246e-21)
(0.00406539 -0.305224 -7.05082e-21)
(0.0203063 -0.262749 2.15164e-20)
(0.041621 -0.203243 2.64248e-21)
(0.0614608 -0.143864 -9.67816e-21)
(0.075626 -0.0992776 -1.11531e-20)
(0.0852745 -0.0698101 1.79059e-20)
(0.0921907 -0.0392969 -4.55414e-21)
(0.0979612 0.000720568 -2.34755e-35)
(0.0989293 0.047647 -3.45341e-21)
(0.0915765 0.0905996 -1.62673e-20)
(0.0751519 0.121627 8.6987e-21)
(0.0523478 0.136239 6.01324e-21)
(0.0235901 0.135457 1.75036e-21)
(0.000938606 0.122247 -6.04187e-21)
(-0.0180659 0.0982825 -7.81772e-22)
(-0.0278987 0.074357 -1.80965e-22)
(-0.031682 0.0524958 3.62426e-22)
(-0.0317188 0.0342625 1.72033e-22)
(-0.029456 0.0202914 -1.2126e-21)
(-0.0257027 0.0103198 -1.36542e-22)
(-0.0213195 0.00362864 1.21179e-21)
(-0.0169958 -0.000577892 -1.80976e-23)
(-0.0130958 -0.00297119 -5.23384e-23)
(-0.00976286 -0.00406775 9.08552e-24)
(-0.00701555 -0.00425685 0)
(-0.00480538 -0.00382373 2.55872e-23)
(-0.00304248 -0.00297993 -6.02744e-25)
(-0.0016279 -0.00188168 2.75723e-23)
(-0.000454398 -0.000638566 -5.57978e-23)
(-0.00783499 -0.24514 5.31416e-23)
(-0.0108708 -0.313099 8.729e-21)
(-0.00821479 -0.322603 2.79457e-21)
(-0.000663306 -0.310742 -1.41522e-20)
(0.013353 -0.271276 -2.11829e-20)
(0.0325966 -0.212957 -2.06354e-20)
(0.0526345 -0.151696 -4.79458e-21)
(0.0664569 -0.101954 1.20349e-21)
(0.0750343 -0.0673735 -1.09632e-20)
(0.0830295 -0.0373363 -5.06656e-21)
(0.0900447 0.00391448 2.65421e-22)
(0.0941524 0.0539806 -3.21974e-21)
(0.0904284 0.103302 -1.31555e-21)
(0.0771904 0.140056 5.77662e-21)
(0.0560431 0.159343 1.52984e-21)
(0.0285298 0.159063 6.43495e-22)
(0.00156608 0.147389 1.07142e-21)
(-0.0223678 0.120877 1.00411e-20)
(-0.0372486 0.0934836 2.11086e-21)
(-0.0431869 0.0667269 2.70995e-21)
(-0.0423782 0.0436409 1.45421e-21)
(-0.0383658 0.0257383 -1.33198e-21)
(-0.032996 0.0128889 -1.83309e-21)
(-0.0270836 0.00432509 1.28291e-21)
(-0.0213601 -0.000991405 -1.08693e-22)
(-0.0162717 -0.003998 -6.71473e-23)
(-0.0119717 -0.00539746 4.28385e-22)
(-0.00846181 -0.00570174 0)
(-0.00566648 -0.0052807 9.43395e-23)
(-0.00347522 -0.00439779 -4.73354e-23)
(-0.00176012 -0.00324223 8.26448e-25)
(-0.000394688 -0.00195778 -5.13189e-23)
(0.000744648 -0.000649104 1.61713e-25)
(-0.00501391 -0.244169 6.3384e-21)
(-0.01056 -0.312644 -1.5081e-21)
(-0.0102927 -0.323647 6.37919e-21)
(-0.00542889 -0.314294 -6.54516e-21)
(0.00611514 -0.277741 -2.08504e-20)
(0.023246 -0.221324 -6.20152e-22)
(0.0426354 -0.158554 9.10848e-21)
(0.0576516 -0.105224 -2.42358e-21)
(0.0652686 -0.0656055 7.98408e-21)
(0.0709463 -0.0323187 -7.04128e-21)
(0.0794494 0.00743747 -6.36001e-26)
(0.0858058 0.0607011 -5.15348e-22)
(0.0861765 0.114856 4.62913e-21)
(0.0766519 0.158591 -1.06617e-20)
(0.0579223 0.182465 -1.3785e-21)
(0.0330528 0.185146 2.52096e-21)
(0.00459991 0.171003 -1.07916e-20)
(-0.0135386 0.146404 -1.48116e-21)
(-0.0430558 0.113309 -1.23207e-25)
(-0.0540695 0.0826603 5.6144e-22)
(-0.0553542 0.0543816 -2.98102e-22)
(-0.0500064 0.0321178 3.33254e-23)
(-0.0424855 0.0159231 2.66502e-21)
(-0.0345541 0.00503962 -1.77019e-21)
(-0.0269828 -0.00165414 3.05513e-22)
(-0.0203356 -0.00538054 -8.31499e-37)
(-0.0147981 -0.00710271 -3.91673e-23)
(-0.0103298 -0.00749667 3.28757e-24)
(-0.00681044 -0.00703621 2.12438e-22)
(-0.00408844 -0.00605121 1.31423e-27)
(-0.0020061 -0.00477313 -4.49251e-23)
(-0.000406679 -0.00336544 5.24081e-24)
(0.000851581 -0.00195107 -2.735e-23)
(0.00191357 -0.000612875 1.04094e-22)
(-0.00149228 -0.242832 -3.72081e-21)
(-0.00998888 -0.310527 1.25898e-21)
(-0.0122147 -0.322966 2.10239e-20)
(-0.0101721 -0.315762 -1.20853e-20)
(-0.00136933 -0.282023 -1.21264e-21)
(0.0135561 -0.227864 1.33814e-20)
(0.0318876 -0.164686 1.89623e-21)
(0.0476393 -0.107818 -1.39023e-20)
(0.0562081 -0.0650503 -8.21584e-21)
(0.060061 -0.0285542 -3.72619e-22)
(0.0657215 0.0136493 -7.98783e-21)
(0.0747445 0.0663803 7.56113e-21)
(0.0783472 0.126381 1.63345e-22)
(0.0731985 0.175706 -4.72812e-21)
(0.0577653 0.206117 3.04237e-20)
(0.034314 0.212553 -2.68468e-21)
(0.00697685 0.198404 -2.26332e-21)
(-0.0145735 0.173806 6.82949e-21)
(-0.0475501 0.136395 -2.29727e-34)
(-0.0608092 0.100162 -7.06493e-21)
(-0.0674539 0.0658933 -2.96451e-21)
(-0.0634732 0.0387333 -1.72816e-21)
(-0.054221 0.0190632 -2.20732e-22)
(-0.0439859 0.00562266 -1.59401e-21)
(-0.0341731 -0.00270795 -1.59655e-21)
(-0.0255144 -0.00727057 1.08613e-22)
(-0.0183759 -0.00932065 -4.59198e-22)
(-0.0126957 -0.00976026 5.15054e-22)
(-0.00827378 -0.00919329 4.45081e-22)
(-0.00489628 -0.00802962 -1.63342e-27)
(-0.00235673 -0.00654803 -1.19171e-22)
(-0.000463565 -0.00494277 4.77843e-23)
(0.000961275 -0.00334806 5.53208e-37)
(0.00206628 -0.00186692 3.42201e-23)
(0.00300191 -0.000556671 0)
(0.00339541 -0.238777 -2.85962e-22)
(-0.00921166 -0.306825 -1.09659e-20)
(-0.0138598 -0.32051 -1.78649e-20)
(-0.0148003 -0.315052 2.8984e-21)
(-0.00891907 -0.284122 9.47213e-21)
(0.00359237 -0.232465 -1.22312e-20)
(0.0206524 -0.169723 -3.32769e-21)
(0.0367545 -0.109945 -7.36114e-21)
(0.0460047 -0.0633662 -5.16498e-20)
(0.0501365 -0.0264457 1.3713e-20)
(0.0537191 0.0173385 4.17437e-21)
(0.0601831 0.0739704 8.81884e-22)
(0.0680646 0.135299 -1.25977e-22)
(0.0666243 0.192969 -6.27968e-22)
(0.0549057 0.228596 -3.83706e-21)
(0.0342629 0.240117 -1.47035e-20)
(0.00777203 0.228021 1.68593e-21)
(-0.0188843 0.20047 2.05388e-21)
(-0.0450838 0.162693 9.15082e-22)
(-0.063396 0.118691 1.42169e-21)
(-0.075548 0.0787615 3.22042e-21)
(-0.0762179 0.045206 1.47693e-21)
(-0.0672867 0.0215016 -4.38292e-21)
(-0.0550925 0.00562529 1.2758e-23)
(-0.0430168 -0.00440594 7.61065e-23)
(-0.032043 -0.00988523 1.38078e-22)
(-0.0228742 -0.0122426 -4.22153e-23)
(-0.0156516 -0.0126485 -1.5027e-23)
(-0.0101037 -0.0118802 1.83029e-23)
(-0.00591579 -0.0104391 1.26461e-22)
(-0.00281167 -0.00865893 -2.09748e-22)
(-0.00054756 -0.00676362 1.05714e-22)
(0.001089 -0.00490785 8.75393e-23)
(0.00228866 -0.00319336 -1.86095e-23)
(0.0032039 -0.00170846 2.26507e-23)
(0.00397496 -0.000480971 -1.27225e-23)
(0.0105823 -0.23132 1.16871e-21)
(-0.00796264 -0.300751 1.97146e-23)
(-0.0147039 -0.3154 4.7341e-21)
(-0.0190906 -0.312388 -9.39287e-21)
(-0.0163916 -0.283861 9.23473e-21)
(-0.00648743 -0.235139 3.60267e-21)
(0.00910455 -0.173633 3.32513e-22)
(0.0253993 -0.111818 7.61561e-22)
(0.034909 -0.0608442 6.72931e-21)
(0.0390014 -0.022433 1.12283e-20)
(0.0431388 0.0187742 -1.03784e-20)
(0.0472611 0.0776374 1.02117e-21)
(0.0536216 0.145463 -4.47513e-21)
(0.0581958 0.205979 1.03658e-20)
(0.0501634 0.251736 1.43551e-20)
(0.0317447 0.267272 2.80468e-21)
(0.00749444 0.257426 -2.93314e-20)
(-0.0189877 0.228441 -1.94705e-21)
(-0.0428288 0.187698 -2.42651e-21)
(-0.0638158 0.139364 -4.65009e-21)
(-0.0798605 0.0932032 4.27046e-21)
(-0.0859136 0.0526969 2.50053e-21)
(-0.0801416 0.0229741 7.66686e-21)
(-0.0670273 0.00424836 1.17323e-21)
(-0.0529759 -0.00719534 1.33392e-22)
(-0.0398953 -0.0135437 -1.34307e-21)
(-0.0284553 -0.01613 -9.04322e-22)
(-0.0193075 -0.0163715 2.68888e-22)
(-0.0123525 -0.0152598 8.66445e-22)
(-0.00716763 -0.0134098 2.98329e-22)
(-0.00337075 -0.0112104 -3.25799e-22)
(-0.000648125 -0.00891802 1.84972e-22)
(0.00126629 -0.00670125 -2.29576e-27)
(0.00259226 -0.00467622 1.04561e-22)
(0.00352372 -0.00291383 6.16317e-37)
(0.00421423 -0.00148339 -5.20148e-23)
(0.00479443 -0.000387878 8.55111e-29)
(0.0190818 -0.221346 3.05117e-20)
(-0.00539297 -0.286833 -1.04027e-21)
(-0.0164534 -0.308442 1.16071e-21)
(-0.0205754 -0.305748 -1.67278e-23)
(-0.0236811 -0.281341 -6.23273e-21)
(-0.016634 -0.235517 1.34161e-20)
(-0.00297796 -0.176041 1.42714e-20)
(0.013257 -0.113223 -1.87871e-20)
(0.0234643 -0.0576219 3.9129e-20)
(0.0266461 -0.0174522 -4.74863e-20)
(0.0319437 0.0212527 -1.22943e-20)
(0.0363954 0.0780157 -2.87179e-21)
(0.0399593 0.150008 1.06412e-20)
(0.0445653 0.220636 2.98754e-22)
(0.0436814 0.269007 -1.10906e-20)
(0.0291244 0.294803 3.28091e-21)
(0.005473 0.287695 2.28438e-21)
(-0.0200894 0.257175 4.58942e-20)
(-0.0442806 0.213578 4.44203e-21)
(-0.0650423 0.161901 -1.32045e-21)
(-0.0822013 0.109856 -6.46658e-22)
(-0.0924659 0.0626979 -7.82803e-21)
(-0.0915188 0.0249834 1.70125e-22)
(-0.0793434 0.00117268 -1.20066e-21)
(-0.0632225 -0.0117751 -4.53084e-22)
(-0.0483862 -0.0186411 -3.42055e-35)
(-0.0350366 -0.0213376 2.65834e-22)
(-0.0237569 -0.0212065 -5.88832e-23)
(-0.0150754 -0.0195434 7.70693e-23)
(-0.00866921 -0.0171019 -6.1187e-22)
(-0.00403175 -0.0143291 3.08341e-23)
(-0.00074933 -0.0115057 2.97844e-22)
(0.00150894 -0.00881531 2.66788e-27)
(0.00301323 -0.00637359 -1.42174e-23)
(0.00398786 -0.00426366 -4.69932e-23)
(0.0046195 -0.00252307 4.36146e-23)
(0.00505945 -0.0012015 -6.58642e-24)
(0.00542707 -0.00027965 2.12665e-23)
(0.0247902 -0.208294 6.02233e-22)
(-0.00181096 -0.270575 -4.82806e-22)
(-0.0188712 -0.293755 2.70064e-20)
(-0.0261498 -0.299618 -6.48749e-21)
(-0.030826 -0.276411 1.35553e-21)
(-0.0268055 -0.233668 7.19202e-21)
(-0.0156547 -0.176354 1.10517e-20)
(-0.000565481 -0.113724 1.33768e-20)
(0.0110322 -0.0535971 -1.51241e-21)
(0.0137585 -0.0116468 1.6712e-20)
(0.0201188 0.0235666 1.53972e-20)
(0.0255824 0.0812695 -2.30104e-21)
(0.0287646 0.149835 6.72333e-21)
(0.0310256 0.226886 7.61959e-23)
(0.0315292 0.290635 -5.16334e-21)
(0.0231303 0.315963 -3.51053e-20)
(0.00434592 0.315892 -3.30219e-20)
(-0.0210945 0.287744 -6.00076e-21)
(-0.0460142 0.240239 -5.22115e-22)
(-0.067334 0.185379 1.28626e-21)
(-0.0844681 0.12858 1.58216e-35)
(-0.0966085 0.0754053 2.95202e-21)
(-0.100583 0.0296831 2.96958e-21)
(-0.0920171 -0.00228203 2.63383e-21)
(-0.0741682 -0.018627 -2.53952e-21)
(-0.0566031 -0.0257153 2.07106e-21)
(-0.0418945 -0.0281978 -2.93187e-21)
(-0.0288975 -0.0275163 4.60246e-22)
(-0.0183045 -0.0250014 1.29748e-21)
(-0.0104298 -0.0217157 -3.2639e-23)
(-0.00478362 -0.0181653 2.06499e-22)
(-0.000830578 -0.0146453 1.62413e-22)
(0.00184779 -0.0113407 -1.85546e-22)
(0.00357898 -0.00837031 -7.19517e-23)
(0.00463026 -0.0058029 0)
(0.00522323 -0.00368788 7.21478e-23)
(0.00553517 -0.0020352 -1.57443e-22)
(0.00570847 -0.000873076 4.23446e-23)
(0.0058486 -0.00016033 2.47832e-23)
(0.0298097 -0.193284 2.91855e-22)
(0.0013028 -0.251307 -9.90228e-24)
(-0.0173686 -0.275354 -2.77716e-20)
(-0.0337588 -0.286476 4.93842e-26)
(-0.0423456 -0.267814 -5.64984e-23)
(-0.0361686 -0.22944 6.19322e-21)
(-0.0284758 -0.174532 -6.19259e-21)
(-0.015527 -0.1132 2.82586e-20)
(-0.0041795 -0.0468512 -4.37377e-20)
(0.00372722 -0.000262239 1.42092e-21)
(0.00667466 0.0250333 -1.48142e-21)
(0.0148925 0.0858486 -9.62185e-22)
(0.0175202 0.152311 -9.11796e-21)
(0.0209893 0.226524 1.0519e-20)
(0.0203117 0.298084 1.64483e-21)
(0.0159554 0.345725 7.74875e-23)
(-0.00206071 0.341903 5.15824e-20)
(-0.0218563 0.312829 2.91574e-20)
(-0.0459201 0.267593 -7.22432e-22)
(-0.0687428 0.208498 -2.94056e-20)
(-0.0865845 0.14744 1.1808e-21)
(-0.0993753 0.0894255 6.46451e-21)
(-0.106578 0.0374348 9.59889e-21)
(-0.10374 -0.00365229 -7.53975e-21)
(-0.0871406 -0.027112 2.91323e-22)
(-0.0653542 -0.0353565 -3.25095e-22)
(-0.0479825 -0.0370733 1.43038e-22)
(-0.0340592 -0.0355846 -2.84495e-35)
(-0.0219321 -0.031978 1.78824e-21)
(-0.0124306 -0.0274989 -1.4045e-22)
(-0.00560019 -0.0229009 -8.10458e-22)
(-0.000858832 -0.018474 6.46042e-22)
(0.00231747 -0.0143869 -1.04652e-22)
(0.00432801 -0.0107444 -1.20803e-22)
(0.00548976 -0.00761014 0)