/*--------------------------------*- C++ -*----------------------------------*\
| =========                 |                                                 |
| \\      /  F ield         | OpenFOAM: The Open Source CFD Toolbox           |
|  \\    /   O peration     | Version:  2506                                  |
|   \\  /    A nd           | Website:  www.openfoam.com                      |
|    \\/     M anipulation  |                                                 |
\*---------------------------------------------------------------------------*/
FoamFile
{
    version     2.0;
    format      ascii;
    arch        "LSB;label=32;scalar=64";
    class       volScalarField;
    location    "50.00229049822";
    object      mag(vorticity);
}
// * * * * * * * * * * * * * * * * * * * * * * * * * * * * * * * * * * * * * //

dimensions      [0 0 -1 0 0 0 0];

internalField   nonuniform List<scalar> 
9700
(
0.000399867
0.000636979
0.000455989
0.00171641
0.000725838
0.000282071
0.00260841
0.00112524
0.000173583
0.000326509
0.00363472
0.00153129
0.000167567
0.000346316
0.000321311
0.00484538
0.00197609
0.000108718
0.000371035
0.000373995
0.000364722
0.00634721
0.00252885
6.57625e-05
0.000366193
0.000359813
0.000412817
0.000306524
0.00812392
0.00320533
2.21729e-05
0.000395068
0.000343165
0.00036848
0.000428811
0.00026563
0.0103332
0.00396518
6.87536e-05
0.000439075
0.000356683
0.00037099
0.000394757
0.000437854
0.000215567
0.0131001
0.00484285
0.000212595
0.000495364
0.000397216
0.000394705
0.000387792
0.000400785
0.000453151
0.000159302
0.0165923
0.00589504
0.000383085
0.00051118
0.0004038
0.000429911
0.000408497
0.000389048
0.000410483
0.000420761
0.000117347
0.0210489
0.00709548
0.000631335
0.000534198
0.00040865
0.000428213
0.000416929
0.000407519
0.000383797
0.000380135
0.000429702
3.33459e-05
0.0262096
0.00840709
0.00100466
0.000532639
0.000424829
0.000460721
0.000446384
0.000476024
0.000410315
0.000413092
0.000364413
0.000381554
2.28673e-05
0.0309773
0.00994357
0.00156435
0.000475295
0.000386422
0.000460751
0.000486956
0.000496132
0.000493373
0.000446981
0.000380255
0.000373141
0.000320092
9.19431e-05
0.0333306
0.0124641
0.00230196
0.000367569
0.000300295
0.000450709
0.000510569
0.000515721
0.000518863
0.00048888
0.000459157
0.000380936
0.000322621
0.000265163
0.00013954
0.0313179
0.0178597
0.00299774
0.000156431
0.000168372
0.000412302
0.000487043
0.000543287
0.000541423
0.000547604
0.000538247
0.000464889
0.000394708
0.000317816
0.000187714
0.000170788
0.0242294
0.0287817
0.00290804
8.8996e-05
1.33701e-05
0.000287264
0.000424123
0.000518755
0.000578322
0.000585168
0.000580491
0.000560738
0.00048609
0.000377793
0.000272346
0.000150256
0.000196888
0.0128666
0.0473127
0.000362774
7.16841e-06
0.000297814
0.000144779
0.000349029
0.000452074
0.000558105
0.000621386
0.000614952
0.000605911
0.00057694
0.000475324
0.00037768
0.000236683
9.3621e-05
0.000223139
0.000231891
0.0739575
0.00679897
0.00138194
0.000527945
2.53457e-05
0.000223972
0.000363244
0.000509803
0.000610821
0.000631738
0.000643657
0.000624176
0.000587751
0.000499757
0.000364161
0.000207046
2.44396e-05
0.000231793
0.0108788
0.10784
0.0202315
0.00551526
0.000276009
0.00022721
4.77994e-05
0.000225255
0.000393007
0.000518549
0.000623177
0.00067283
0.000680704
0.000667752
0.000591441
0.000499611
0.000367997
0.000170786
3.30664e-05
0.000224421
0.0217268
0.144249
0.0412203
0.0142495
0.00127927
0.000311021
0.000186473
2.58908e-05
0.000108406
0.000295328
0.000520111
0.00063693
0.000722287
0.000704875
0.000650771
0.000599261
0.000496122
0.000359496
0.000152635
8.42765e-05
0.000204696
0.0137293
0.182723
0.0681457
0.0290852
0.00558427
8.83265e-05
0.000492757
0.000514666
0.000451083
0.000183668
0.000167433
0.000461619
0.000630484
0.000717331
0.000747168
0.000688068
0.000604692
0.000515536
0.000340909
0.000143043
0.000116743
0.000177793
8.95938e-05
0.220605
0.100589
0.0513205
0.0135119
0.00189203
0.000837113
0.00137928
0.00159744
0.00136226
0.000792212
0.000137127
0.000349299
0.000634722
0.000752961
0.000756268
0.000706284
0.000599233
0.000491343
0.000345558
0.000122261
0.000122912
0.000134388
0.0155001
0.259371
0.13602
0.079565
0.0282615
0.00527992
0.000996793
0.00282637
0.00381556
0.00394899
0.00315124
0.00186698
0.00064659
0.000206144
0.000618785
0.00074993
0.000769981
0.000691601
0.000614506
0.00047523
0.000343712
0.000109184
0.000146412
9.7501e-05
0.0234617
0.298156
0.175167
0.112981
0.0483065
0.0129345
0.00071351
0.00492267
0.0075235
0.00875822
0.00820871
0.00614234
0.00359366
0.0014181
3.68095e-05
0.000601767
0.000782529
0.000778165
0.000705602
0.000601794
0.000495997
0.000315954
0.000115891
0.000162496
4.32197e-05
0.0301291
0.341146
0.217198
0.151691
0.0748852
0.0244509
0.00203409
0.00720512
0.012876
0.0165258
0.017254
0.0149746
0.010668
0.00609029
0.00247175
0.000330012
0.000560079
0.000787222
0.000758066
0.000692185
0.000574107
0.000468748
0.000303615
0.000102948
0.000147293
5.33311e-06
0.0231795
0.379621
0.264283
0.194639
0.108061
0.0426175
0.00729363
0.00907565
0.0193504
0.0272406
0.0310889
0.0299203
0.0244799
0.0167528
0.00929559
0.0037688
0.000677099
0.00053919
0.000805185
0.000763441
0.000667611
0.000564297
0.000435752
0.00031801
0.000100397
0.000123372
5.69661e-05
0.00596509
0.408899
0.306156
0.241435
0.147111
0.0669973
0.0168728
0.00909574
0.0258057
0.0398393
0.0493159
0.0516055
0.0466291
0.0363267
0.0241379
0.0130669
0.00523039
0.00101083
0.000535152
0.000808754
0.000758565
0.000679613
0.000561739
0.000454082
0.000274113
0.000116314
0.000111461
0.000105544
0.00337767
0.428488
0.341407
0.284117
0.190007
0.0978528
0.0318434
0.00611299
0.0310332
0.0526828
0.0700147
0.0787413
0.0768683
0.0660306
0.0493182
0.0320271
0.0170454
0.0066822
0.00129802
0.000533993
0.000795933
0.000747471
0.000653846
0.000520036
0.000413442
0.000278773
0.00011483
5.84727e-05
0.00014618
0.0624021
0.464155
0.367392
0.319654
0.231784
0.133094
0.0529023
0.000984361
0.0337383
0.0642067
0.0910345
0.108528
0.112723
0.103836
0.0855797
0.0620434
0.0393472
0.0206673
0.00789849
0.00148968
0.00052951
0.000779628
0.000718963
0.000619203
0.00053258
0.000397306
0.000279061
0.000136312
2.57333e-05
0.00019143
0.0997556
0.492081
0.402167
0.354859
0.267397
0.169229
0.0785941
0.0131665
0.0328392
0.072915
0.11054
0.138771
0.151176
0.146381
0.128217
0.106169
0.0710795
0.0449239
0.0234333
0.00873864
0.00154082
0.000540679
0.000764445
0.000689066
0.000602591
0.000488273
0.000379796
0.000254005
0.000156953
4.71633e-05
0.000211827
0.139073
0.517715
0.432194
0.387835
0.302676
0.201804
0.106663
0.0296778
0.0274859
0.0776643
0.126581
0.167562
0.190713
0.192017
0.173961
0.145286
0.111501
0.0752425
0.0479385
0.0248377
0.00892383
0.00141792
0.000555904
0.000731942
0.000629017
0.000550846
0.000455074
0.000371278
0.000263636
0.000160134
8.19774e-05
0.000273568
0.175762
0.540047
0.459867
0.419236
0.336616
0.234891
0.133453
0.0496968
0.0180746
0.0776728
0.137754
0.192403
0.229285
0.240049
0.22503
0.188471
0.153912
0.105001
0.0748099
0.0479248
0.0247241
0.00850336
0.0011796
0.000603212
0.00069374
0.000626203
0.000525346
0.000448749
0.000349838
0.000260517
0.000183383
0.000145995
0.000309656
0.207825
0.558102
0.48387
0.447865
0.368655
0.267538
0.161768
0.069964
0.00414393
0.073169
0.143055
0.211476
0.263789
0.288054
0.280532
0.245939
0.189759
0.147068
0.0996667
0.0698408
0.0453047
0.0232251
0.00750113
0.000826128
0.000610583
0.000673901
0.000586559
0.000496832
0.00043513
0.000332282
0.000278145
0.000222747
0.000217885
0.000292522
0.23624
0.570506
0.503199
0.472652
0.397996
0.298823
0.19066
0.0922225
0.0109305
0.0627526
0.142533
0.223125
0.292089
0.332261
0.336714
0.307821
0.254674
0.192922
0.132457
0.0882561
0.0611494
0.0407918
0.0206302
0.00613356
0.000438131
0.000588724
0.000628287
0.000551508
0.000466278
0.000401261
0.000325772
0.000265344
0.000231506
0.000256042
0.000301502
0.279973
0.575885
0.516966
0.492428
0.423618
0.32803
0.219191
0.11568
0.0278608
0.0505678
0.133989
0.227454
0.311431
0.370083
0.389606
0.370045
0.319782
0.25381
0.180048
0.112943
0.0711283
0.0507021
0.0353854
0.0173308
0.00456051
9.48645e-05
0.000578325
0.000570386
0.000509956
0.00046282
0.000376617
0.000327012
0.000273607
0.000264326
0.000313818
0.000290936
0.314835
0.573216
0.522511
0.506966
0.444144
0.353975
0.246686
0.139251
0.0462748
0.0366786
0.122665
0.220828
0.323104
0.398113
0.435896
0.429537
0.385056
0.315954
0.235888
0.153479
0.0876279
0.0520705
0.0404849
0.0297674
0.013726
0.00304619
0.000151592
0.000565827
0.000527372
0.000489295
0.00044672
0.000384326
0.000319958
0.000267092
0.000264056
0.000352136
0.00026276
0.316223
0.549264
0.521136
0.512727
0.457653
0.37488
0.27114
0.161278
0.063796
0.0209029
0.109485
0.209503
0.319512
0.420592
0.472851
0.481646
0.448124
0.381096
0.296971
0.206713
0.121705
0.0596215
0.0341709
0.0319023
0.024365
0.0101523
0.00176816
0.000309227
0.000527552
0.000507552
0.000455768
0.000399739
0.000343559
0.000321847
0.000287591
0.000293598
0.000358255
0.000236396
0.293316
0.513484
0.500761
0.508123
0.463264
0.389329
0.290751
0.179658
0.0719518
0.00323777
0.0942458
0.195758
0.308078
0.420066
0.508569
0.526677
0.502464
0.443714
0.35904
0.264717
0.170011
0.0859499
0.0317569
0.0196579
0.0254944
0.0193207
0.00693201
0.000859618
0.000412174
0.00048722
0.000465901
0.000425506
0.000391458
0.000349946
0.000310961
0.000286815
0.000299994
0.000391884
0.000200601
0.257344
0.466788
0.467837
0.491173
0.460006
0.396941
0.305244
0.196024
0.0778574
0.00597424
0.0531603
0.180254
0.293466
0.408521
0.507796
0.572276
0.552526
0.49729
0.417337
0.321046
0.222005
0.127271
0.0480313
0.00691024
0.00995785
0.0209816
0.0145803
0.00424914
0.000240178
0.000399806
0.000473489
0.000461289
0.000434503
0.000386244
0.000342372
0.000317893
0.00031498
0.000328016
0.000419653
0.000145705
0.210199
0.410723
0.424605
0.460641
0.450901
0.395903
0.314621
0.21102
0.0935701
0.0254969
0.0236436
0.164583
0.277106
0.393405
0.497025
0.567713
0.591993
0.547633
0.467026
0.372102
0.270676
0.171942
0.0806842
0.01092
0.0120909
0.00536282
0.017514
0.0102474
0.00232167
8.82185e-05
0.000417368
0.000457096
0.000455584
0.00043777
0.000405082
0.000360876
0.000330937
0.00033215
0.000330764
0.000409488
9.25165e-05
0.160319
0.349253
0.371468
0.418099
0.423581
0.389722
0.319352
0.223963
0.108097
0.0428556
0.0148106
0.147996
0.260045
0.375139
0.483499
0.561353
0.593104
0.566106
0.508489
0.414605
0.312869
0.212346
0.117647
0.0329726
0.0218129
0.0229948
0.00486814
0.0143351
0.00658951
0.00103487
0.000229174
0.000412219
0.000430281
0.000423804
0.000422613
0.000403984
0.000380373
0.000343736
0.000325319
0.00033399
0.000377697
6.17998e-05
0.119452
0.286172
0.312579
0.365904
0.384988
0.369422
0.316397
0.234316
0.138596
0.0539361
0.0157478
0.130384
0.242565
0.355008
0.464677
0.551381
0.594363
0.582336
0.519733
0.446459
0.346473
0.245443
0.150159
0.0617296
0.0127265
0.0463214
0.0250421
0.00639447
0.0110119
0.0037556
0.000333055
0.000301735
0.00039674
0.000418656
0.000441263
0.000428084
0.000415458
0.000381312
0.000354264
0.000331285
0.000341544
0.000364775
1.10632e-05
0.084319
0.220826
0.251157
0.307696
0.337094
0.337292
0.302737
0.237225
0.151062
0.0636797
0.0192809
0.115128
0.223814
0.334001
0.442442
0.533098
0.586705
0.589145
0.543713
0.461542
0.369891
0.269849
0.174976
0.0871367
0.00660806
0.0524475
0.0592641
0.0197595
0.00777519
0.00771616
0.00184146
2.53996e-06
0.000337502
0.00041032
0.0004242
0.000442354
0.000450473
0.000430769
0.000396813
0.000387585
0.000366032
0.0003346
0.000340173
5.54579e-05
0.0518146
0.160562
0.192941
0.246655
0.282719
0.295759
0.278156
0.230001
0.157654
0.0732724
0.0112295
0.101903
0.204807
0.312351
0.417907
0.509771
0.569374
0.583216
0.550693
0.476359
0.381261
0.28428
0.191079
0.105102
0.0252223
0.0449029
0.0815218
0.0593333
0.0107196
0.00785479
0.00478877
0.000758862
0.000142169
0.000331565
0.000410637
0.000443325
0.000481355
0.00046816
0.000471253
0.000440805
0.000401886
0.000376375
0.000317765
0.000296142
8.61808e-05
0.0273401
0.134326
0.137635
0.1884
0.224676
0.247169
0.244094
0.212617
0.155759
0.0811142
0.00156785
0.0896471
0.187133
0.290523
0.392052
0.482286
0.545447
0.567219
0.542833
0.480387
0.386809
0.288052
0.197609
0.114725
0.0375193
0.0341176
0.0887384
0.0955439
0.0485161
0.00227728
0.00683188
0.0024663
0.000236259
0.000205746
0.000365334
0.000433437
0.000469163
0.000498754
0.000513052
0.000492887
0.000462123
0.000405442
0.000380109
0.000341786
0.000270472
0.000122957
0.00757964
0.0959753
0.0961548
0.132757
0.166823
0.194023
0.202492
0.186032
0.144696
0.0830014
0.00787764
0.0766506
0.17044
0.269222
0.365998
0.452111
0.515591
0.542614
0.526664
0.471288
0.38666
0.286893
0.195341
0.116034
0.0423736
0.0273708
0.0883944
0.119412
0.0924949
0.0319706
0.00217054
0.00491704
0.00113135
2.44131e-06
0.000252876
0.000393096
0.000453898
0.000518641
0.000511818
0.000530238
0.00050652
0.000485111
0.000454646
0.000393761
0.000313466
0.000227594
0.000147673
0.0043058
0.0656309
0.0678057
0.0886587
0.114424
0.139865
0.155621
0.151739
0.124998
0.0772001
0.0129948
0.063129
0.151937
0.248192
0.340367
0.420874
0.481424
0.51088
0.501128
0.45378
0.377771
0.283108
0.189561
0.111082
0.0405107
0.0268641
0.0887709
0.132996
0.131454
0.0748589
0.0158167
0.00290591
0.00306351
0.000468721
9.15216e-05
0.000278645
0.000415798
0.00048928
0.000543612
0.000570922
0.000570327
0.000554926
0.000512866
0.000463257
0.000383574
0.000300748
0.000175675
0.000166131
0.00897392
0.0424466
0.0489193
0.0644705
0.0754388
0.0917612
0.107347
0.111868
0.0977507
0.0636302
0.0118886
0.0538154
0.131289
0.222727
0.314511
0.390474
0.443126
0.473579
0.468104
0.427463
0.35995
0.274803
0.181742
0.10437
0.0346002
0.0318836
0.0939237
0.14353
0.161264
0.122499
0.0496908
0.00410404
0.00250993
0.00144772
0.00017169
0.000154423
0.000315781
0.000439938
0.000536049
0.00057648
0.000623128
0.000624582
0.000591346
0.00054875
0.000483509
0.00038088
0.000271811
0.000118544
0.000135057
0.0122737
0.0243857
0.0313125
0.0484206
0.0540416
0.0581713
0.0651969
0.0707766
0.06525
0.0431808
0.00409991
0.0497618
0.11596
0.192399
0.280621
0.359616
0.402543
0.430723
0.429333
0.394054
0.333829
0.258631
0.171185
0.0959098
0.0290662
0.0401757
0.10398
0.157008
0.185259
0.166822
0.0962324
0.0256692
0.00135466
0.00203697
0.000593036
2.56521e-05
0.00020675
0.000369077
0.000493193
0.000576418
0.00062329
0.000657591
0.000671048
0.000618662
0.000569697
0.000489499
0.00040877
0.000282879
8.12641e-05
0.000119467
0.0145623
0.012632
0.0160526
0.0332216
0.0422795
0.0417025
0.0381687
0.0366197
0.0325997
0.0185775
0.00933641
0.0512361
0.105295
0.169542
0.239309
0.315978
0.379207
0.383875
0.387376
0.355178
0.301494
0.235236
0.15734
0.070781
0.023662
0.0463375
0.11844
0.174598
0.210308
0.20565
0.147848
0.0622545
0.00880744
0.00269196
0.00132496
0.000288488
5.79331e-05
0.000254085
0.000428698
0.000565159
0.000621272
0.000671603
0.000705512
0.00069512
0.000662313
0.000614709
0.000514859
0.000409556
0.000262405
3.82604e-05
0.000121462
0.0154687
0.00656566
0.00587548
0.0185835
0.030973
0.0351198
0.0284391
0.018082
0.00835426
0.00419581
0.0249045
0.0565739
0.0990257
0.150411
0.208347
0.264512
0.324143
0.362154
0.343754
0.312564
0.264649
0.206354
0.141448
0.0576917
0.0197629
0.0511598
0.128612
0.199997
0.237068
0.244769
0.198575
0.110575
0.0315421
0.000295619
0.00221488
0.000753443
0.000176152
0.000108635
0.000293204
0.000467227
0.000586584
0.000699638
0.000714109
0.000741313
0.000731558
0.0006909
0.000613791
0.000531474
0.000407546
0.000223798
3.00814e-06
0.000100814
0.0152092
0.00388557
0.000899842
0.00777528
0.0181934
0.0278672
0.0274819
0.0160721
6.09041e-05
0.0166835
0.0360569
0.0613919
0.0944229
0.134547
0.179261
0.225516
0.263157
0.292058
0.293316
0.267367
0.224897
0.174754
0.120695
0.0503733
0.0125481
0.0528253
0.136381
0.217827
0.277689
0.281288
0.250844
0.16517
0.0678232
0.0109073
0.00225045
0.00137051
0.000440217
7.68977e-05
0.000154877
0.000336277
0.000522062
0.000642199
0.00072217
0.000772349
0.000773831
0.000758818
0.000725674
0.0006429
0.000541313
0.000414007
0.000221634
1.65788e-05
7.89191e-05
0.0109052
0.00266664
0.000811439
0.0021047
0.00776836
0.0172629
0.0240359
0.0204746
0.0060727
0.0138416
0.0355413
0.0593149
0.0867455
0.118228
0.152619
0.186524
0.21656
0.234498
0.234038
0.219102
0.184167
0.142134
0.097196
0.0467359
0.00518996
0.0438486
0.142602
0.231352
0.306889
0.33832
0.298542
0.224263
0.115762
0.0323032
0.000979427
0.00197931
0.000714642
0.000254647
8.32609e-06
0.000196594
0.000416298
0.000548824
0.000701116
0.000792311
0.000821864
0.000829637
0.00080413
0.000738426
0.000635835
0.000551586
0.000404388
0.000209513
3.76294e-05
6.41802e-05
0.00670832
0.00195037
0.00114081
1.08235e-05
0.00205608
0.00756641
0.0155738
0.020118
0.0148868
0.000563423
0.0220274
0.0459419
0.0709553
0.0976316
0.124418
0.149953
0.170635
0.183518
0.184726
0.168961
0.144657
0.110568
0.0737427
0.032155
0.0161625
0.0424029
0.153189
0.243963
0.327361
0.382895
0.367362
0.283762
0.171947
0.0660399
0.0104342
0.00162744
0.000947682
0.000267423
0.000127703
1.71102e-05
0.000218646
0.000439378
0.000615908
0.000747956
0.000827114
0.000863515
0.000860796
0.000813241
0.000738939
0.00064244
0.000551415
0.000389995
0.000205112
5.49883e-05
3.31685e-05
0.00403352
0.00143416
0.00105148
0.000511871
8.15844e-05
0.00200368
0.00694361
0.0134681
0.0165098
0.011007
0.00358157
0.0240793
0.0471858
0.0699193
0.0931863
0.112752
0.127973
0.136263
0.135878
0.12703
0.106682
0.0821333
0.0519624
0.0163171
0.0296472
0.0535182
0.166983
0.260916
0.346871
0.410937
0.429043
0.367241
0.234421
0.110484
0.029049
0.00133061
0.000849846
4.97356e-06
2.97017e-06
0.000129415
7.52182e-05
0.00017952
0.00045701
0.000665338
0.000812929
0.000882053
0.000890588
0.000892137
0.000851956
0.000772204
0.000663522
0.000537467
0.00039688
0.000222423
6.46749e-05
9.07042e-06
0.00299119
0.0010674
0.000884635
0.000556539
0.000619457
7.01663e-05
0.0018034
0.00598358
0.0111805
0.0133328
0.0086227
0.00352101
0.0208895
0.0407256
0.0584603
0.0761278
0.0878332
0.0939782
0.0936945
0.086798
0.0753018
0.0564202
0.0332018
0.001587
0.0427502
0.10098
0.182889
0.280198
0.370091
0.437859
0.465587
0.427094
0.298696
0.165665
0.0575274
0.0092356
3.97683e-05
0.000521018
0.000307962
0.000312921
0.000648269
0.000451297
4.04109e-05
0.00045941
0.000712728
0.000846461
0.000908335
0.000954002
0.000910631
0.00086565
0.00077641
0.000676815
0.000540904
0.000398715
0.000203085
6.24657e-05
1.71493e-05
0.00204069
0.000801897
0.000711282
0.000509688
0.000649792
0.000592867
0.000128761
0.00149191
0.00484316
0.00886982
0.010587
0.00726048
0.00166611
0.0145682
0.0297128
0.0423951
0.0525235
0.0580167
0.0584696
0.0546929
0.0472319
0.0366629
0.017469
0.0112401
0.055103
0.117036
0.199234
0.3004
0.394714
0.468551
0.500791
0.474158
0.383523
0.218622
0.0975802
0.0236772
0.00280545
0.00101799
0.000175116
0.00151104
0.00253139
0.00252812
0.00152307
0.00035273
0.000434239
0.000785083
0.000908946
0.000937906
0.000948791
0.000905055
0.000843757
0.000775249
0.000642175
0.000514775
0.000390735
0.000184026
6.61301e-05
4.08098e-05
0.0012221
0.000607232
0.000504828
0.00041789
0.000546106
0.000630457
0.000566453
0.000178616
0.00109443
0.00366921
0.00666108
0.00814144
0.00627317
0.000595532
0.00770489
0.0173594
0.0263024
0.0302288
0.0317324
0.0302843
0.0268614
0.0205427
0.00761064
0.0211234
0.0664235
0.132104
0.218007
0.320489
0.419538
0.499464
0.540009
0.521187
0.436635
0.294302
0.13839
0.04724
0.00851073
0.00165288
0.00119238
0.00549638
0.00871203
0.00914439
0.00725196
0.00393596
0.00108626
0.000415325
0.000886642
0.000957567
0.000979276
0.000955415
0.000909335
0.000847014
0.000744098
0.000627699
0.000503877
0.000345963
0.000181626
2.13746e-05
8.75319e-05
0.000185095
0.000382946
0.000273438
0.000277324
0.000447797
0.000528586
0.00060872
0.00055145
0.000261784
0.000698006
0.00253544
0.00469916
0.00597624
0.00520374
0.00216441
0.00242812
0.00725474
0.0128824
0.0137865
0.0139307
0.0129939
0.0102654
0.000890362
0.0239134
0.0743267
0.14538
0.236256
0.341185
0.444071
0.528982
0.577132
0.569339
0.494675
0.364776
0.19672
0.0735703
0.0195264
0.00274962
0.0038199
0.0133194
0.0223683
0.0263903
0.02373
0.0167151
0.0084707
0.00244869
0.000369796
0.00104867
0.00102139
0.000997759
0.000972082
0.000914223
0.000855163
0.000739447
0.000603901
0.000508316
0.00035988
0.00019367
9.2473e-06
0.000187568
0.000346052
7.52587e-05
9.65519e-05
0.000307002
0.000413215
0.000539298
0.000592031
0.000552758
0.000321122
0.000351436
0.00158376
0.00306085
0.00407215
0.00398191
0.00264778
0.00028979
0.00150369
0.00413161
0.00449521
0.00487339
0.00423385
0.00196599
0.0235878
0.0719573
0.152898
0.251932
0.360977
0.467136
0.555901
0.610305
0.611913
0.548578
0.424205
0.259159
0.112066
0.0330066
0.00596847
0.00739801
0.0242427
0.0438927
0.0575505
0.0599081
0.0499912
0.0331052
0.0157552
0.00448158
0.000341766
0.00126372
0.00108399
0.000992884
0.000948842
0.000909432
0.00082952
0.000720074
0.000592898
0.000488057
0.000322255
0.000176326
1.67361e-05
0.000192369
0.000209355
7.20849e-05
9.46956e-05
0.000279883
0.000414277
0.000516229
0.000547234
0.000542833
0.000365412
6.81468e-05
0.000855303
0.00180186
0.00250551
0.00271283
0.00229168
0.0013651
0.000539268
0.000280932
0.000871371
0.00130347
0.00248911
0.0202982
0.0651151
0.145287
0.257979
0.378308
0.487139
0.578335
0.637658
0.647666
0.595281
0.479853
0.319455
0.158134
0.0540525
0.0104597
0.0105188
0.0368862
0.0704104
0.100583
0.11563
0.11161
0.0900916
0.0590828
0.0257274
0.00727063
0.000323432
0.00149314
0.00112987
0.000960866
0.000930991
0.000885353
0.000799536
0.000675961
0.000556486
0.000460367
0.000320614
0.000182977
2.42154e-05
0.000212514
0.000240947
0.000128222
7.90396e-05
0.000265697
0.000378549
0.000491811
0.000526428
0.000519516
0.000408586
0.000156531
0.000327855
0.000885726
0.00137222
0.00162648
0.00160902
0.00135613
0.00100377
0.000552311
9.92822e-05
0.00179361
0.0153593
0.0547057
0.130824
0.242938
0.381084
0.50639
0.591651
0.658025
0.674235
0.632855
0.52874
0.375259
0.208211
0.0822181
0.0199453
0.0124786
0.049122
0.0986015
0.149292
0.184805
0.193542
0.176201
0.151245
0.0842047
0.0377761
0.0105427
0.00029253
0.00166732
0.00115316
0.000962456
0.000909219
0.000854837
0.000784504
0.000636555
0.000542119
0.000430874
0.000310081
0.000177599
7.78504e-05
0.000218653
0.000239924
0.000147099
6.5021e-05
0.000267569
0.000391973
0.000441771
0.0005038
0.000492288
0.000431226
0.000266312
2.95654e-05
0.000336516
0.000626078
0.000852989
0.000964261
0.000944363
0.000739073
0.000272351
0.000922959
0.0100048
0.0420647
0.111012
0.21936
0.354127
0.507394
0.609756
0.659015
0.691314
0.65865
0.567463
0.424048
0.257628
0.116313
0.0345785
0.00782035
0.0582074
0.124719
0.198105
0.257791
0.286622
0.277219
0.229383
0.196748
0.102674
0.05065
0.0136978
0.000265131
0.00175296
0.00112087
0.000926542
0.000904358
0.000828495
0.000732934
0.000605384
0.000496547
0.000394704
0.000301958
0.000184414
0.000105344
0.00021925
0.000203196
0.000167326
7.87149e-05
0.000253458
0.000368069
0.000422531
0.00047571
0.000464773
0.00042367
0.000319972
0.000170791
1.89337e-05
0.000208831
0.000379274
0.000488242
0.000524381
0.00030667
0.000366708
0.00547525
0.0289116
0.0876173
0.188164
0.320529
0.462367
0.616402
0.66498
0.688584
0.669395
0.593527
0.462796
0.302305
0.152996
0.0537941
0.000368142
0.0537367
0.144052
0.241218
0.327472
0.379008
0.385059
0.345143
0.262072
0.205296
0.129464
0.0611483
0.015746
0.000332452
0.0016885
0.00105035
0.000916395
0.000853981
0.000807698
0.000695394
0.00058685
0.000479271
0.000383968
0.000269383
0.000185875
0.000133965
0.000214568
0.000176059
0.000190494
5.96363e-05
0.00025655
0.000345299
0.000412069
0.000443251
0.000456762
0.00042696
0.000356405
0.000249519
0.000140676
1.45545e-07
0.000115011
0.000218747
0.000207592
0.000165049
0.00242893
0.0172972
0.0629471
0.151943
0.2774
0.418431
0.550887
0.679112
0.669781
0.671394
0.605002
0.489421
0.338826
0.188361
0.0759267
0.0103822
0.0452853
0.138958
0.275069
0.386837
0.46352
0.486111
0.4563
0.39654
0.31904
0.225839
0.143747
0.0662978
0.0159511
0.00055485
0.00155339
0.000974028
0.000890281
0.000846755
0.000767728
0.00066182
0.000563208
0.000449527
0.000349169
0.000264392
0.000187565
0.000170256
0.000192335
0.000134911
0.000190514
8.51044e-05
0.000243221
0.000347769
0.000383958
0.000436139
0.00043125
0.000404786
0.000351038
0.000289016
0.000223952
0.000112626
4.43081e-05
4.1084e-05
6.60655e-05
0.000887564
0.008672
0.0401621
0.113302
0.22838
0.364613
0.496659
0.606922
0.662744
0.640379
0.604799
0.502326
0.365089
0.219093
0.0988599
0.0212219
0.0373777
0.124557
0.271964
0.440902
0.53544
0.574971
0.553253
0.483504
0.400614
0.304481
0.221765
0.143805
0.0652744
0.014114
0.0008196
0.00131928
0.000910113
0.000847973
0.000802919
0.000707481
0.000609349
0.000516783
0.0004302
0.000346219
0.000251691
0.000200438
0.000175973
0.000172006
8.67643e-05
0.000167073
9.30307e-05
0.000256885
0.000341562
0.000378002
0.000417101
0.000407314
0.000394604
0.000365378
0.000343458
0.0002768
0.000218524
0.000125466
7.24133e-05
0.000252867
0.00357321
0.0218858
0.0764188
0.175868
0.304776
0.435173
0.543268
0.622229
0.600044
0.57895
0.501518
0.378734
0.241928
0.119376
0.0326482
0.0301803
0.10861
0.239294
0.440721
0.616773
0.655906
0.635906
0.566891
0.462311
0.355848
0.264573
0.199973
0.13421
0.0588055
0.0107885
0.00104233
0.00108902
0.000826614
0.000792963
0.00075659
0.000672469
0.000593365
0.000498437
0.000410938
0.000321562
0.000249196
0.000192731
0.000208845
0.000157286
3.91103e-05
0.000142305
9.60462e-05
0.000255299
0.00030748
0.000360484
0.00039766
0.00040326
0.000405046
0.000394835
0.00038013
0.000325902
0.000269335
0.00020057
2.49519e-05
0.00118675
0.00990592
0.0447608
0.124611
0.241086
0.367561
0.478354
0.553966
0.593506
0.538956
0.485049
0.379027
0.253375
0.13285
0.038347
0.0252418
0.0928917
0.192123
0.414317
0.612271
0.761873
0.723062
0.638248
0.529707
0.403096
0.289383
0.211826
0.170434
0.119236
0.0484876
0.00690421
0.00109046
0.000881683
0.000765771
0.000776043
0.000708718
0.000630782
0.000554451
0.000458467
0.000393137
0.000300176
0.000255964
0.000229583
0.000233194
0.000136383
1.66013e-05
0.000112607
0.000136059
0.00025294
0.000311558
0.00036426
0.000384918
0.000407564
0.000406274
0.000407559
0.000392168
0.000386219
0.000315513
0.000211821
0.000227375
0.00368646
0.0218397
0.0781394
0.178216
0.296919
0.40637
0.489861
0.531415
0.526097
0.461089
0.369913
0.2542
0.140561
0.0388291
0.0180052
0.0644914
0.169429
0.387043
0.583555
0.738332
0.813768
0.723088
0.590059
0.455685
0.321952
0.213271
0.156121
0.1416
0.101751
0.0362141
0.0035109
0.000997047
0.000768654
0.000735548
0.000693347
0.000641926
0.000583813
0.000525528
0.00045555
0.000364135
0.000313508
0.000251174
0.000212775
0.00026136
9.7654e-05
7.36701e-05
4.77387e-05
0.000166551
0.000251005
0.000315958
0.000366373
0.000401195
0.000395922
0.000419062
0.00043421
0.000449206
0.000427743
0.000364636
0.000185535
0.000973631
0.0087706
0.0410197
0.119245
0.226534
0.3333
0.417106
0.470723
0.479926
0.441296
0.357999
0.251228
0.137429
0.061258
0.00155646
0.0491911
0.162914
0.360876
0.558207
0.719424
0.785306
0.742938
0.654743
0.505005
0.3617
0.232257
0.136156
0.106488
0.118265
0.0829754
0.0239788
0.00114244
0.000816897
0.000671518
0.000685472
0.000672279
0.000603673
0.000558299
0.000484705
0.000441299
0.0003657
0.000303105
0.000240112
0.000234214
0.000258497
6.09864e-05
0.000126259
8.4898e-06
0.000171519
0.000260771
0.000318368
0.000356992
0.000385363
0.000421682
0.000464159
0.000474794
0.000472251
0.000464802
0.000411958
8.08777e-06
0.00272436
0.0177019
0.0676927
0.160932
0.256177
0.345673
0.401493
0.425923
0.406518
0.345102
0.248717
0.148845
0.0643393
0.000514228
0.0587282
0.172514
0.3367
0.529719
0.705273
0.798914
0.767344
0.644585
0.548973
0.399186
0.261394
0.142579
0.0649217
0.069883
0.101256
0.0633257
0.0136146
3.74632e-05
0.000636687
0.00064615
0.00064821
0.000630949
0.000575839
0.000527557
0.000469202
0.000422795
0.000374288
0.000308388
0.00025351
0.000244561
0.00026061
4.62475e-05
0.000169515
6.64186e-05
0.000212934
0.000278822
0.000303152
0.000359725
0.000402498
0.000447827
0.000466913
0.000505906
0.000528277
0.000506486
0.000385013
0.000443187
0.00608863
0.0314085
0.099925
0.189462
0.278594
0.33393
0.364174
0.362424
0.321101
0.245278
0.150841
0.0684758
0.00387213
0.0712253
0.167845
0.315413
0.499132
0.678711
0.802709
0.81264
0.712172
0.563121
0.429959
0.287561
0.163491
0.0574733
0.00586463
0.050407
0.0876026
0.0438488
0.00629246
0.000407824
0.000550004
0.000587797
0.000620738
0.000589178
0.000557495
0.000500514
0.000454099
0.000413611
0.000370441
0.000300026
0.000275519
0.000265068
0.000279647
9.34156e-06
0.000215581
0.000123763
0.000241035
0.000286351
0.000333973
0.000358976
0.000405634
0.000440401
0.0005218
0.000559623
0.000561645
0.000559421
0.000327079
0.00138079
0.0116187
0.0499154
0.140008
0.20299
0.275851
0.301803
0.310687
0.288028
0.232404
0.152481
0.0691551
0.00290054
0.0784722
0.166896
0.298748
0.469365
0.645811
0.781448
0.826391
0.763526
0.615388
0.448903
0.305267
0.180883
0.0718583
0.0200717
0.0343044
0.0474937
0.0729151
0.0265077
0.00213548
0.000399017
0.000493453
0.000553554
0.000560284
0.000533739
0.000533642
0.000493731
0.000444466
0.00040771
0.000360575
0.000320446
0.000289928
0.000245124
0.000255667
1.54694e-05
0.000231384
0.000183563
0.000281657
0.000294606
0.000340287
0.000369489
0.000423282
0.000488716
0.00056753
0.000590691
0.000623037
0.000571265
0.000162621
0.0030115
0.0196556
0.0729372
0.16021
0.21835
0.24593
0.255585
0.246947
0.209856
0.147395
0.0711574
0.00395075
0.0791112
0.171974
0.28772
0.442006
0.609902
0.749419
0.815376
0.780684
0.658341
0.479951
0.313341
0.188415
0.0850909
0.0132768
0.0857237
0.0495996
0.0541752
0.0548199
0.0132379
0.000377251
0.000336836
0.000448697
0.000509905
0.000524591
0.00052641
0.000495893
0.000482974
0.000449799
0.000425507
0.000376355
0.000340987
0.000279203
0.000273902
0.00026871
5.75238e-05
0.000265023
0.000245629
0.000292275
0.000320618
0.000352234
0.00041101
0.000442708
0.000526095
0.000581066
0.000650731
0.00065576
0.000595084
0.000180689
0.0056119
0.029905
0.0894047
0.155341
0.198982
0.20494
0.200521
0.178541
0.133031
0.0693964