/*--------------------------------*- C++ -*----------------------------------*\
| =========                 |                                                 |
| \\      /  F ield         | OpenFOAM: The Open Source CFD Toolbox           |
|  \\    /   O peration     | Version:  2506                                  |
|   \\  /    A nd           | Website:  www.openfoam.com                      |
|    \\/     M anipulation  |                                                 |
\*---------------------------------------------------------------------------*/
FoamFile
{
    version     2.0;
    format      ascii;
    arch        "LSB;label=32;scalar=64";
    class       volScalarField;
    location    "0.5";
    object      mag(U);
}
// * * * * * * * * * * * * * * * * * * * * * * * * * * * * * * * * * * * * * //

dimensions      [0 1 -1 0 0 0 0];

internalField   nonuniform List<scalar> 
1600
(
0.000244526
0.000223357
0.000400894
0.000534279
0.00205084
0.00235591
0.00472469
0.00515887
0.00806636
0.00856715
0.0116554
0.0121604
0.0150894
0.0155441
0.0180236
0.0183839
0.0201862
0.0204195
0.0213846
0.0214698
0.0215087
0.0214369
0.0205359
0.0203111
0.0185363
0.0181768
0.0156793
0.0152175
0.0122335
0.0117167
0.00856035
0.00804831
0.005089
0.00464915
0.00226602
0.00196276
0.000469765
0.00034345
0.000259028
0.000277923
0.000227352
0.000208395
0.00054934
0.000672587
0.00241615
0.00269567
0.00534853
0.00574704
0.00897508
0.00943539
0.0128532
0.0133178
0.0165553
0.0169739
0.0197127
0.0200446
0.0220346
0.0222495
0.0233146
0.0233931
0.0234351
0.023369
0.0223733
0.0221664
0.0202064
0.0198752
0.0171173
0.0166922
0.0133958
0.0129203
0.00942889
0.00895829
0.00567355
0.00526989
0.0026001
0.00232223
0.000601819
0.000484295
0.000246548
0.0002638
0.000366797
0.000517774
0.00242667
0.00288899
0.00646177
0.00717731
0.0119792
0.0128741
0.0184297
0.0194141
0.0251782
0.0261537
0.0315692
0.0324416
0.0370065
0.0376953
0.0410045
0.0414486
0.0432135
0.0433734
0.0434354
0.0432954
0.0416337
0.0412029
0.0379427
0.037256
0.0326711
0.0317896
0.0262958
0.0253037
0.019435
0.0184335
0.0127878
0.0118817
0.00703639
0.00631907
0.00275739
0.00230151
0.000437177
0.000292624
0.000493179
0.000634721
0.00289299
0.00335262
0.00737997
0.00809035
0.0133873
0.0142763
0.0203424
0.0213215
0.0275861
0.0285574
0.0344304
0.0352997
0.0402447
0.0409315
0.0445138
0.0449568
0.0468664
0.0470261
0.0470925
0.0469528
0.0451543
0.0447247
0.0411964
0.0405118
0.0355481
0.0346697
0.0287157
0.0277279
0.0213524
0.0203562
0.0141914
0.0132913
0.00794214
0.00722987
0.00320851
0.00275512
0.000544036
0.000407214
0.00200952
0.00238484
0.0065613
0.00748289
0.0139298
0.0151177
0.0228167
0.0241642
0.0325197
0.0339262
0.0423131
0.0436701
0.0514199
0.0526168
0.0590939
0.0600322
0.064706
0.0653085
0.0677958
0.0680123
0.0681016
0.0679125
0.0655798
0.0649972
0.0604127
0.0594816
0.0530073
0.0518033
0.0439737
0.0425983
0.0340763
0.0326459
0.0241424
0.0227729
0.0149588
0.0137578
0.00727025
0.00635111
0.00221954
0.0018504
0.00231901
0.00266843
0.00732736
0.00824364
0.0151982
0.0163769
0.0245372
0.0258736
0.0346333
0.0360288
0.0447656
0.0461129
0.0541569
0.0553463
0.0620559
0.0629888
0.0678256
0.0684248
0.0709983
0.0712138
0.0713087
0.0711205
0.0687124
0.068133
0.0633954
0.0624697
0.05577
0.0545739
0.0464524
0.0450869
0.0362103
0.0347911
0.0258706
0.0245123
0.0162192
0.0150273
0.0080175
0.00710338
0.00248813
0.00214344
0.00488024
0.00554755
0.0126844
0.014158
0.0237949
0.0254611
0.0358732
0.0376131
0.048187
0.0499059
0.0600805
0.0616832
0.0708508
0.0722362
0.0797897
0.0808637
0.0862761
0.0869629
0.0898442
0.0900935
0.0902266
0.0900184
0.0873776
0.0867241
0.0814811
0.0804259
0.0729374
0.0715524
0.0623306
0.0607096
0.0503701
0.0486174
0.0378034
0.0360224
0.0253636
0.0236632
0.0138755
0.0123937
0.00527668
0.00461502
0.00536693
0.00599419
0.0137474
0.0152146
0.0254109
0.0270654
0.0379199
0.0396452
0.0505493
0.0522527
0.0626659
0.0642541
0.0735907
0.0749641
0.0826339
0.0836991
0.0891868
0.0898681
0.0927908
0.093038
0.0931814
0.0929748
0.0903131
0.0896647
0.0843653
0.083319
0.0757289
0.0743562
0.0649721
0.0633656
0.0527817
0.0510444
0.0398806
0.0381139
0.0269842
0.0252949
0.0149218
0.0134461
0.00570519
0.00508192
0.00892414
0.0099598
0.0207931
0.0229254
0.0361263
0.03829
0.0513291
0.0534185
0.0657833
0.0677273
0.0790353
0.0807717
0.0906127
0.092072
0.100007
0.10112
0.106747
0.107455
0.110463
0.110727
0.110937
0.11074
0.108125
0.107474
0.102161
0.101088
0.093332
0.0918875
0.0820463
0.0802931
0.0687833
0.0667905
0.0540484
0.0518884
0.0383988
0.0361667
0.0226298
0.0204681
0.00958412
0.00854984
0.00957606
0.010559
0.0221549
0.0242807
0.0381077
0.0402588
0.053734
0.0558067
0.0684425
0.0703679
0.0818199
0.083538
0.0934384
0.0948814
0.10283
0.10393
0.109554
0.110254
0.113264
0.113524
0.113752
0.113557
0.110974
0.11033
0.105051
0.103991
0.096247
0.0948186
0.0849309
0.0831959
0.0715363
0.0695619
0.0565223
0.0543785
0.0404112
0.0381912
0.023987
0.0218315
0.0101656
0.00918249
0.0140897
0.0155754
0.0309025
0.033816
0.0510519
0.05375
0.0694193
0.0718295
0.0856399
0.0877337
0.0995972
0.101365
0.111197
0.112621
0.120288
0.121347
0.126689
0.127358
0.130238
0.130499
0.130827
0.130671
0.128418
0.127845
0.123038
0.122054
0.11475
0.113364
0.103631
0.101853
0.0897584
0.0875986
0.0732368
0.0707168
0.0543155
0.0514996
0.0336435
0.0306636
0.015136
0.0136401
0.0149005
0.0163213
0.0325657
0.0354732
0.0534154
0.056101
0.0722111
0.0746039
0.0886333
0.0907065
0.102624
0.104371
0.114156
0.11556
0.123137
0.124179
0.129439
0.130098
0.132939
0.133195
0.133547
0.133393
0.131227
0.130663
0.125984
0.125015
0.117841
0.116475
0.106813
0.105055
0.0929056
0.0907656
0.0761552
0.0736519
0.056756
0.0539518
0.035329
0.0323548
0.0158711
0.0144392
0.0203633
0.0223832
0.043038
0.0468631
0.0686667
0.0719461
0.0903015
0.0930106
0.107954
0.110126
0.121981
0.123677
0.132815
0.134093
0.140817
0.141723
0.146254
0.146817
0.149292
0.14953
0.15001
0.149927
0.148386
0.147969
0.144279
0.143497
0.137407
0.136206
0.127344
0.125654
0.113586
0.111335
0.0956622
0.0927981
0.0733617
0.0698988
0.0470681
0.0431166
0.0219869
0.0199329
0.0213347
0.0232775
0.0450087
0.0488285
0.0714233
0.0746912
0.0934935
0.0961854
0.111294
0.113444
0.12526
0.126932
0.135908
0.137164
0.143686
0.144571
0.148931
0.14948
0.15187
0.152101
0.15261
0.152529
0.151133
0.150727
0.147268
0.146503
0.140672
0.139491
0.130835
0.129167
0.117152
0.114922
0.0990591
0.0962113
0.0762656
0.0728136
0.0491085
0.0451621
0.0228874
0.0209112
0.0277777
0.0304184
0.0572546
0.0621239
0.0890342
0.092941
0.114022
0.117004
0.132732
0.134902
0.146136
0.147648
0.155342
0.15635
0.161384
0.162024
0.165137
0.165517
0.167249
0.167436
0.168077
0.168099
0.167641
0.167468
0.16557
0.165117
0.161094
0.160221
0.15311
0.151642
0.140326
0.138079
0.1215
0.11832
0.0957741
0.0916036
0.0631186
0.0580326
0.0302666
0.0275498
0.0289191
0.0314695
0.0595446
0.0644092
0.0921915
0.0960876
0.117611
0.120576
0.136401
0.138549
0.149633
0.15112
0.158521
0.159503
0.164205
0.164821
0.167659
0.168021
0.169606
0.169786
0.170455
0.170478
0.170227
0.170066
0.168515
0.168079
0.164467
0.163617
0.156868
0.155422
0.1443
0.142072
0.125392
0.122227
0.0991765
0.0950159
0.0655518
0.0604702
0.0313554
0.0287323
0.0364123
0.0397624
0.0736447
0.0796881
0.112194
0.11676
0.140505
0.143714
0.159755
0.161823
0.171694
0.172889
0.178259
0.178851
0.181316
0.181556
0.182519
0.182616
0.183166
0.183264
0.184027
0.184183
0.185202
0.18537
0.186024
0.186047
0.185091
0.184718
0.180424
0.179345
0.169733
0.167621
0.150765
0.147332
0.121767
0.116848
0.0820782
0.0756899
0.0401816
0.0366877
0.0377411
0.0409863
0.0762727
0.0823121
0.115754
0.120311
0.144466
0.14766
0.163697
0.165743
0.175325
0.176492
0.181412
0.181975
0.183953
0.184165
0.184722
0.184797
0.18512
0.185206
0.185987
0.186145
0.187434
0.187614
0.188747
0.188791
0.188423
0.188074
0.184339
0.183283
0.174052
0.171959
0.15514
0.151721
0.125699
0.120788
0.0849539
0.0785694
0.0414937
0.0381121
0.0463976
0.0505475
0.0923394
0.0996781
0.13814
0.143371
0.169506
0.172859
0.188507
0.190334
0.197882
0.198591
0.200563
0.200563
0.199392
0.199069
0.196971
0.19666
0.195439
0.195386
0.196156
0.19647
0.199374
0.199987
0.204062
0.204731
0.208028
0.208365
0.208221
0.20775
0.201131
0.199347
0.183215
0.179649
0.151479
0.145809
0.104283
0.0964287
0.0520171
0.0476229
0.0479414
0.0519699
0.0953307
0.102667
0.142099
0.147322
0.173786
0.177124
0.192616
0.194422
0.201493
0.202175
0.203499
0.203467
0.20162
0.201263
0.198598
0.198259
0.196704
0.196636
0.197396
0.197711
0.200949
0.20158
0.206279
0.206972
0.211064
0.211428
0.212091
0.211644
0.205659
0.203893
0.188017
0.184464
0.155957
0.150294
0.107659
0.0998083
0.0536009
0.0493419
0.0579349
0.0629761
0.11351
0.122246
0.166791
0.172639
0.200529
0.203883
0.218056
0.219446
0.223388
0.223396
0.220631
0.219822
0.213723
0.212632
0.20634
0.205458
0.201682
0.20139
0.201935
0.202422
0.207618
0.208797
0.217269
0.218783
0.227722
0.229022
0.234683
0.235103
0.233219
0.232039
0.218183
0.214697
0.184868
0.178522
0.130087
0.120627
0.0661481
0.0607239
0.0597383
0.0646378
0.116899
0.125632
0.171123
0.176964
0.205022
0.208363
0.222151
0.223522
0.226737
0.226717
0.223061
0.222216
0.215212
0.214083
0.207024
0.206105
0.201854
0.201541
0.202027
0.202514
0.208109
0.209308
0.218567
0.220111
0.230084
0.231414
0.23818
0.238626
0.23771
0.236549
0.223276
0.219802
0.189874
0.183534
0.134028
0.12457
0.0680706
0.0628102
0.0713459
0.0773659
0.137382
0.147576
0.197905
0.204238
0.23267
0.235785
0.246861
0.247539
0.246171
0.245203
0.236066
0.234187
0.221619
0.219521
0.207642
0.205982
0.198606
0.197952
0.19788
0.198542
0.206445
0.208317
0.222277
0.22486
0.241023
0.24358
0.257017
0.25868
0.263796
0.263602
0.254314
0.251254
0.221531
0.214702
0.159813
0.14866
0.0830666
0.0764854
0.0734836
0.0793362
0.141213
0.151405
0.202553
0.208881
0.237194
0.240297
0.250652
0.25131
0.248893
0.247895
0.237577
0.235658
0.221924
0.219776
0.206896
0.205186
0.197149
0.196463
0.196255
0.196918
0.205281
0.207182
0.222103
0.224727
0.24218
0.244776
0.259654
0.261348
0.267851
0.267677
0.259438
0.256389
0.226978
0.220153
0.164378
0.153226
0.0854245
0.0790438
0.0871644
0.0942372
0.164231
0.175867
0.23093
0.237475
0.264347
0.266845
0.272468
0.272058
0.263208
0.260933
0.243537
0.240298
0.219549
0.216166
0.197048
0.194349
0.181963
0.180764
0.179462
0.180289
0.191372
0.194088
0.214771
0.218665
0.243736
0.247864
0.27124
0.27455
0.289415
0.290705
0.289165
0.287053
0.260388
0.253467
0.193631
0.180813
0.103435
0.0955925
0.0897668
0.0966361
0.168554
0.18019
0.235764
0.242306
0.268582
0.27107
0.275498
0.275068
0.264777
0.262468
0.243583
0.240293
0.218117
0.214667
0.194283
0.191507
0.178214
0.176961
0.175406
0.176237
0.187857
0.190626
0.21246
0.216419
0.243023
0.247204
0.272353
0.275701
0.292424
0.293738
0.293859
0.29176
0.266057
0.259142
0.198856
0.186038
0.106372
0.0987794
0.106288
0.114448
0.194328
0.207234
0.26467
0.270925
0.292817
0.294135
0.291079
0.289099
0.270255
0.266315
0.238818
0.233947
0.203437
0.1985
0.170287
0.166208
0.146707
0.144664
0.14111
0.1421
0.157228
0.16102
0.189987
0.195445
0.230974
0.236944
0.27219
0.277538
0.305045
0.308399
0.318641
0.318213
0.299143
0.292819
0.231311
0.217083
0.12815
0.119008
0.109581
0.117483
0.199181
0.212089
0.269406
0.275661
0.296214
0.297522
0.292661
0.290659
0.269969
0.26599
0.236775
0.231841
0.19974
0.194703
0.164971
0.160757
0.139953
0.137797
0.133776
0.134785
0.150646
0.154555
0.184921
0.190492
0.227709
0.233758
0.270974
0.276373
0.306148
0.309532
0.32215
0.321737
0.304577
0.298258
0.237151
0.222922
0.131884
0.123059
0.130171
0.139346
0.227665
0.241361
0.296546
0.301653
0.313383
0.31274
0.297082
0.293017
0.262001
0.25616
0.217819
0.211264
0.170751
0.164179
0.125454
0.119558
0.0887073
0.0850086
0.076407
0.0777178
0.100289
0.105757
0.145491
0.152696
0.199125
0.206954
0.254458
0.26201
0.304081
0.310017
0.336327
0.338498
0.333354
0.328726
0.271625
0.256659
0.158356
0.148037
0.13453
0.143367
0.232976
0.246675
0.300577
0.305682
0.315017
0.314362
0.296257
0.292172
0.259119
0.253247
0.213356
0.206746
0.164984
0.158301
0.118183
0.112046
0.0789993
0.0749023
0.0648726
0.0663106
0.0908088
0.0966148
0.138066
0.145448
0.193231
0.201145
0.250287
0.257888
0.302251
0.308217
0.337496
0.339686
0.337662
0.333041
0.277821
0.262854
0.163205
0.153296
0.161046
0.170903
0.263045
0.276447
0.321022
0.323619
0.318247
0.314744
0.283271
0.276894
0.234519
0.227214
0.182548
0.17534
0.13259
0.125915
0.0865957
0.0805574
0.0453318
0.0402169
0.0223128
0.0240589
0.0535304
0.0595769
0.100937
0.108181
0.156037
0.164325
0.217335
0.226282
0.280134
0.288608
0.333155
0.338775
0.354938
0.353588
0.311038
0.296753
0.19534
0.184329
0.167096
0.176482
0.268369
0.281775
0.323051
0.325645
0.316661
0.313154
0.279072
0.272715
0.229158
0.22193
0.177603
0.170565
0.129722
0.123371
0.0877877
0.082357
0.0538345
0.0499915
0.0387885
0.0396184
0.0591795
0.0641389
0.0997582
0.106506
0.151346
0.159385
0.211315
0.22015
0.274799
0.283239
0.330486
0.336108
0.3565
0.35516
0.316803
0.302517
0.201763
0.191297
0.201575
0.211156
0.295489
0.306316
0.326634
0.32487
0.296316
0.289665
0.24634
0.239131
0.199975
0.19456
0.169267
0.166559
0.156565
0.156073
0.155813
0.156274
0.158656
0.159046
0.159686
0.159558
0.157601
0.157108
0.1556
0.155629
0.162213
0.16438
0.188402
0.193995
0.237805
0.246303
0.300287
0.309047
0.350505
0.354227
0.340812
0.329909
0.239505
0.229029
0.209994
0.218914
0.299219
0.310045
0.32417
0.322417
0.290059
0.283527
0.240075
0.23324
0.197891
0.193205
0.174691
0.172891
0.169839
0.170057
0.174632
0.175488
0.180404
0.180948
0.182288
0.182132
0.179086
0.178347
0.173349
0.172784
0.172791
0.173984
0.189832
0.194466
0.232463
0.240412
0.293228
0.301797
0.34684
0.350536
0.344067
0.333168
0.247769
0.237998
0.247204
0.254505
0.309167
0.313309
0.295845
0.288999
0.24936
0.243849
0.226378
0.226201
0.237325
0.241012
0.266274
0.270987
0.297086
0.301201
0.321728
0.324594
0.337052
0.338435
0.341872
0.34168
0.335725
0.333925
0.318678
0.315337
0.292134
0.28766
0.261507
0.257301
0.241584
0.240862
0.255834
0.261528
0.30707
0.315479
0.341223
0.337851
0.281721
0.274047
0.255355
0.261992
0.306837
0.310999
0.287265
0.280813
0.24472
0.240398
0.233456
0.234714
0.255311
0.259882
0.290417
0.295537
0.324083
0.328375
0.349959
0.352901
0.365782
0.367193
0.370754
0.370557
0.364488
0.362646
0.346844
0.343385
0.31856
0.313786
0.2835
0.278554
0.253985
0.251812
0.254605
0.258828
0.298375
0.306222
0.337427
0.334009
0.288527
0.28146
0.258709
0.261502
0.2779
0.275205
0.265753
0.267354
0.303893
0.313551
0.371038
0.381201
0.434418
0.442846
0.485637
0.492028
0.523774
0.528271
0.549767
0.552584
0.564726
0.566019
0.569309
0.569132
0.563523
0.561816
0.546648
0.543228
0.517233
0.5118
0.473417
0.465651
0.414297
0.404226
0.344689
0.334264
0.291923
0.289197
0.295816
0.29841
0.281087
0.278299
0.257037
0.259604
0.272658
0.271239
0.278663
0.283191
0.335646
0.346683
0.409299
0.419919
0.473507
0.482094
0.523774
0.530226
0.560606
0.565127
0.58548
0.588308
0.599721
0.601018
0.604076
0.603898
0.598585
0.596873
0.582518
0.579082
0.554318
0.548842
0.511756
0.503869
0.452786
0.442337
0.378796
0.367128
0.309548
0.303869
0.291784
0.292889
0.278114
0.275362
0.29863
0.307418
0.356916
0.372779
0.466277
0.486006
0.578891
0.592931
0.658361
0.667015
0.710965
0.716514
0.746573
0.750216
0.770512
0.772844
0.785765
0.787124
0.794079
0.794648
0.796324
0.796168
0.792641
0.79173
0.782451
0.780637
0.764262
0.761229
0.735255
0.730402
0.6903
0.682371
0.619541
0.605969
0.512008
0.491813
0.392451
0.375401
0.320735
0.311607
0.313097
0.322134
0.375156
0.393177
0.490359
0.512112
0.604359
0.619684
0.682864
0.69228
0.733752
0.739781
0.767701
0.771656
0.790309
0.79284
0.804619
0.806094
0.812386
0.813003
0.814477
0.814308
0.811045
0.810056
0.801539
0.799571
0.784509
0.781216
0.757154
0.751882
0.714221
0.705598
0.645246
0.63044
0.537572
0.515323
0.412595
0.39325
0.33507
0.325544
)
;

boundaryField
{
    movingWall
    {
        type            calculated;
        value           uniform 1;
    }
    fixedWalls
    {
        type            calculated;
        value           uniform 0;
    }
    frontAndBack
    {
        type            empty;
    }
}


// ************************************************************************* //
