/*--------------------------------*- C++ -*----------------------------------*\
| =========                 |                                                 |
| \\      /  F ield         | OpenFOAM: The Open Source CFD Toolbox           |
|  \\    /   O peration     | Version:  2506                                  |
|   \\  /    A nd           | Website:  www.openfoam.com                      |
|    \\/     M anipulation  |                                                 |
\*---------------------------------------------------------------------------*/
FoamFile
{
    version     2.0;
    format      ascii;
    arch        "LSB;label=32;scalar=64";
    class       surfaceScalarField;
    location    "60.001527662331064";
    object      ddtCorrDdt0(phi);
}
// * * * * * * * * * * * * * * * * * * * * * * * * * * * * * * * * * * * * * //

dimensions      [0 3 -2 0 0 0 0];

oriented        oriented;

internalField   nonuniform List<scalar> 
19160
(
-0.000326484
4.35449e-05
-0.000670132
7.92228e-05
-0.000289616
0.000333161
-0.00104412
0.00015126
-0.000593963
0.000383569
-0.000250476
0.000583637
-0.00147289
0.00025944
-0.000924213
0.00048151
-0.000512735
0.000645828
-0.000200478
0.000784115
-0.00197714
0.000416151
-0.00130143
0.000636655
-0.000796553
0.000765328
-0.000409162
0.000854512
-0.000143418
0.000927532
-0.00258685
0.000629107
-0.00174341
0.000858133
-0.00111857
0.000958675
-0.000633255
0.00098942
-0.000291366
0.00100246
-8.2106e-05
0.00100964
-0.00333667
0.000913452
-0.00227552
0.00116121
-0.00149364
0.0012332
-0.000885103
0.00121052
-0.000447874
0.00114593
-0.000164977
0.00108533
-1.95172e-05
0.00102915
-0.00427307
0.00128744
-0.00292697
0.0015649
-0.00194153
0.00160911
-0.00117495
0.00152305
-0.000620594
0.00138324
-0.000249308
0.00123026
-3.61863e-05
0.001102
4.1286e-05
0.000987868
-0.00545675
0.00176603
-0.00373658
0.00209704
-0.00248506
0.00210843
-0.00151629
0.00195045
-0.000814772
0.00171722
-0.000338006
0.00147194
-4.74982e-05
0.00124157
8.87608e-05
0.00105452
9.77573e-05
0.000890111
-0.00698012
0.00236888
-0.00475695
0.0027864
-0.00315368
0.00276566
-0.00192388
0.00251602
-0.00103716
0.00217284
-0.00043128
0.0018105
-5.17614e-05
0.0014762
0.000147709
0.00118262
0.000204633
0.000947648
0.000147459
0.000742651
-0.00898108
0.00326319
-0.00607094
0.00368287
-0.00398892
0.00362165
-0.00241614
0.00325792
-0.00129401
0.00277287
-0.000529276
0.00227083
-4.4538e-05
0.00180327
0.000224068
0.00139984
0.000328106
0.00105915
0.000306441
0.000788666
0.000188658
0.000553993
-0.011553
0.00485809
-0.00777221
0.00496446
-0.00505478
0.00474872
-0.00301907
0.00422458
-0.00159221
0.00355612
-0.000630071
0.00287366
-1.99629e-05
0.00224626
0.000326245
0.0017011
0.000477868
0.00125008
0.000485947
0.00087964
0.000390772
0.000586551
0.000219902
0.00033409
-0.0145545
0.00703517
-0.00982733
0.00691322
-0.0063912
0.00630088
-0.00377095
0.00550061
-0.0019409
0.00457328
-0.000729638
0.00365568
3.10637e-05
0.00282264
0.000465195
0.00210731
0.000665452
0.00151351
0.000698813
0.00103722
0.000616052
0.000654361
0.000454856
0.000351595
0.000240681
9.34088e-05
-0.0177741
0.00846064
-0.0120532
0.00926106
-0.00789023
0.00841225
-0.00467192
0.00720184
-0.00235176
0.00591147
-0.000820738
0.00466438
0.000121838
0.00356491
0.000655802
0.00263203
0.000905807
0.00186695
0.000958783
0.00125354
0.000879868
0.000773401
0.000714294
0.000394923
0.000497197
9.50784e-05
0.000251197
-0.000157789
-0.0213152
0.00838969
-0.0145382
0.0109456
-0.00943111
0.0108019
-0.00558972
0.00933005
-0.0027979
0.00764798
-0.000890585
0.00598131
0.000273119
0.0045131
0.000918486
0.00330223
0.00121803
0.0023198
0.00128363
0.0015421
0.00119733
0.000936076
0.00101549
0.000472205
0.00077866
0.000113459
0.000516115
-0.000169841
0.000252073
-0.000409863
-0.0255759
0.0081796
-0.0177443
0.0115958
-0.0113343
0.0128488
-0.00643311
0.0116453
-0.00314806
0.0096802
-0.000899676
0.00765707
0.000517336
0.0057371
0.00128346
0.00414812
0.00162739
0.00289287
0.00169509
0.00190834
0.00158794
0.00115149
0.00137429
0.000577271
0.00110312
0.000147744
0.000806965
-0.000177391
0.000512598
-0.000430366
0.000243597
-0.000653461
-0.0307337
0.00886342
-0.0217956
0.0122309
-0.0141318
0.0143933
-0.00757051
0.0139862
-0.00330747
0.0118047
-0.000744469
0.009525
0.000900195
0.00727421
0.00179656
0.005224
0.00216933
0.00360618
0.0022211
0.00236686
0.0020747
0.00142158
0.00181088
0.000714901
0.00148693
0.000193462
0.00113995
-0.000185242
0.000800621
-0.000465414
0.000487706
-0.000674475
0.000211411
-0.000864873
-0.0357397
0.0097079
-0.0263879
0.0134557
-0.0176468
0.0157458
-0.00955475
0.0163776
-0.00357384
0.0142526
-0.000311533
0.0113718
0.00148695
0.00893824
0.00250892
0.00656185
0.00289642
0.0044969
0.00289879
0.00292849
0.00268645
0.00175512
0.00234844
0.000884023
0.00194996
0.000251867
0.00153201
-0.000198598
0.00112842
-0.000513038
0.000760422
-0.000738131
0.000440797
-0.000903862
0.00018404
-0.00104891
-0.0405727
0.0106032
-0.0309658
0.0142859
-0.0211837
0.0169927
-0.0122832
0.0184742
-0.00451478
0.0173185
0.000270768
0.0136703
0.00239449
0.0104643
0.00345083
0.00799633
0.00386614
0.00559213
0.00378125
0.00361445
0.00345955
0.00215539
0.00301532
0.00108823
0.00251482
0.000319161
0.00200193
-0.000218056
0.00151313
-0.000583318
0.00107046
-0.00082308
0.000687028
-0.000984363
0.000377257
-0.00109708
0.000145147
-0.00119406
-0.0452953
0.0116106
-0.0355485
0.0151858
-0.0248731
0.0179752
-0.0151766
0.0198861
-0.0062625
0.0202219
0.000495397
0.0170939
0.00369854
0.0123662
0.00470668
0.00920842
0.00508963
0.00677285
0.00493054
0.00444283
0.00444322
0.00263078
0.00384571
0.00132501
0.00320849
0.000394565
0.00257117
-0.000250081
0.00197229
-0.000677206
0.00143331
-0.000946167
0.000967726
-0.00110378
0.000586818
-0.00119392
0.000297439
-0.00124937
9.99918e-05
-0.00129406
-0.0499786
0.0122467
-0.040024
0.0160861
-0.0285808
0.0188935
-0.0179978
0.0207964
-0.00834665
0.0219702
-6.09491e-05
0.0207783
0.00508867
0.0157037
0.00651055
0.0105623
0.00659089
0.00770716
0.00635863
0.00534476
0.00569909
0.00318696
0.00488283
0.00159366
0.00406218
0.000471322
0.00326479
-0.000299049
0.00252569
-0.000803491
0.00186543
-0.00110933
0.00129492
-0.00127336
0.000826458
-0.00134342
0.000462598
-0.00135908
0.000204449
-0.00135383
5.00927e-05
-0.00134415
-0.0544642
0.0120405
-0.0443029
0.0165256
-0.0322001
0.0197054
-0.020703
0.0215988
-0.0103153
0.022765
-0.00119411
0.0231034
0.00590541
0.0199615
0.00887713
0.0133372
0.00864945
0.00850379
0.00803194
0.00603385
0.00725278
0.00379106
0.00618203
0.00188776
0.00511309
0.00054274
0.00411071
-0.000374596
0.00319635
-0.000969702
0.00238476
-0.00132282
0.00168459
-0.00149899
0.00110623
-0.00155313
0.000651757
-0.00153258
0.000318052
-0.00147269
0.000102521
-0.00140626
-2.39735e-06
-0.00134175
-0.0584629
0.0115364
-0.0484923
0.0162299
-0.0356269
0.0199524
-0.023215
0.0222174
-0.0120029
0.0232864
-0.00236155
0.0239325
0.00592121
0.0230876
0.0111262
0.0177125
0.0116251
0.0103615
0.0101527
0.00638304
0.00904607
0.00424056
0.00778258
0.00219051
0.00640675
0.000594092
0.00514099
-0.000487548
0.00400899
-0.00118724
0.00301218
-0.00159712
0.0021526
-0.00179084
0.00144002
-0.00183279
0.000873612
-0.00177499
0.000448919
-0.00166345
0.000159389
-0.00152956
-4.64867e-06
-0.00140401
-5.52005e-05
-0.00128655
-0.0615308
0.0104662
-0.0522948
0.0153389
-0.0388309
0.0194339
-0.0255427
0.0222802
-0.0134162
0.0236307
-0.00322261
0.0241474
0.00556712
0.0242865
0.0125393
0.0216744
0.0151279
0.0142097
0.0132857
0.00722855
0.0111425
0.0042866
0.00964006
0.00238309
0.00798717
0.000610094
0.00639116
-0.000656071
0.00499163
-0.00147019
0.00376978
-0.00194484
0.00271793
-0.00216245
0.00184201
-0.00219283
0.00113964
-0.00209882
0.000603712
-0.00192978
0.000226263
-0.00173032
-7.55872e-06
-0.00152665
-0.000112818
-0.00134639
-0.000105885
-0.00118067
-0.0637475
0.00851379
-0.0552662
0.0134376
-0.0415933
0.0181013
-0.0276697
0.0215608
-0.0146066
0.0234706
-0.00374975
0.0241578
0.00535052
0.024364
0.0131703
0.0236555
0.0181262
0.0186761
0.0175615
0.00993384
0.0140743
0.00429677
0.0117051
0.00222154
0.00984209
0.000528173
0.00790081
-0.000899564
0.00617208
-0.00183653
0.00468237
-0.00238277
0.00340055
-0.00262746
0.00232905
-0.00264948
0.00146213
-0.00251531
0.000791331
-0.00228644
0.000307122
-0.00201064
-8.40786e-06
-0.00172947
-0.000176266
-0.0014632
-0.000217169
-0.00123511
-0.000152221
-0.00102845
-0.0645077
0.00439483
-0.0579164
0.0111641
-0.0439485
0.0157927
-0.0295068
0.0199384
-0.0156015
0.0225557
-0.00404239
0.0237633
0.00543573
0.0240726
0.0135644
0.0239699
0.0200913
0.0216904
0.0220486
0.014189
0.0184587
0.00554942
0.0142917
0.00171015
0.0118843
0.000179359
0.00968285
-0.00125386
0.00758196
-0.00230944
0.00577325
-0.00292741
0.00422277
-0.00320498
0.00291961
-0.00321803
0.00185584
-0.0030432
0.00102182
-0.0027458
0.000407965
-0.00238729
-6.23375e-06
-0.00201282
-0.000246179
-0.00165956
-0.000339305
-0.00134107
-0.000313123
-0.00107421
-0.000192226
-0.000836225
-0.0648396
0.0035179
-0.0588773
0.00535572
-0.0459401
0.0131558
-0.0311739
0.0174598
-0.0164177
0.0207546
-0.00418334
0.0226967
0.00571848
0.0234805
0.014084
0.023553
0.0213266
0.0227346
0.025685
0.0180541
0.0238975
0.00875018
0.0182064
0.00163475
0.014184
-0.00058963
0.0116741
-0.00181186
0.00924167
-0.00291357
0.00706739
-0.00360358
0.00520616
-0.00391081
0.00363426
-0.00391963
0.00233792
-0.00370011
0.00130768
-0.00332906
0.00053614
-0.00287398
1.5905e-06
-0.00239511
-0.000324865
-0.00193413
-0.000476754
-0.00152211
-0.000489566
-0.00116462
-0.000396184
-0.00087025
-0.000223394
-0.000612831
-0.0648435
0.00242622
-0.0592663
0.00390684
-0.0466509
0.00606646
-0.0324304
0.0144123
-0.0170745
0.0181166
-0.00422854
0.0207998
0.0060314
0.0223838
0.0147134
0.0228511
0.0223416
0.0225381
0.0282346
0.020185
0.0291991
0.0127525
0.0237455
0.00321114
0.017363
-0.00154416
0.0138068
-0.00272235
0.0111267
-0.0036969
0.00858325
-0.00442944
0.00637222
-0.00476964
0.00449467
-0.00477122
0.00292789
-0.0045096
0.00166443
-0.00405686
0.000701402
-0.00349432
1.90434e-05
-0.00289143
-0.000413526
-0.00230645
-0.000635245
-0.00177564
-0.000690115
-0.00132156
-0.000620079
-0.00094073
-0.000461389
-0.000632256
-0.000247289
-0.000365543
-0.0645922
0.00137714
-0.0592894
0.00244931
-0.0469554
0.00421137
-0.0330371
0.00667313
-0.0174294
0.0147673
-0.00416503
0.018053
0.00621279
0.0206184
0.0152342
0.021863
0.0233236
0.0218691
0.0301076
0.020665
0.03355
0.0158341
0.0301238
0.00637417
0.022143
-0.00156896
0.0163306
-0.00406799
0.0131552
-0.00475079
0.0103233
-0.00543694
0.00773732
-0.00579454
0.00552198
-0.00579695
0.0036485
-0.00549182
0.00211081
-0.00495599
0.000916914
-0.00427238
5.22612e-05
-0.00352754
-0.000512473
-0.00279248
-0.00082026
-0.00212144
-0.000923959
-0.0015418
-0.000876238
-0.00106541
-0.000723083
-0.000679038
-0.000506279
-0.000373268
-0.000256898
-0.000108646
-0.0641195
0.000340546
-0.0589256
0.00101339
-0.0469151
0.00240903
-0.033396
0.00457029
-0.018101
0.00734473
-0.00389512
0.0144974
0.00607208
0.0181937
0.0153939
0.0204588
0.0241164
0.0210702
0.0317094
0.0202673
0.0368581
0.0173569
0.0362592
0.00969871
0.0285951
-7.79156e-05
0.0199855
-0.00522384
0.0152882
-0.00620105
0.012229
-0.0066565
0.00931235
-0.00701198
0.00673548
-0.00700803
0.00452333
-0.00667177
0.00267093
-0.00605194
0.00120019
-0.00523927
0.000110926
-0.00433104
-0.000620341
-0.00341967
-0.00103727
-0.00257547
-0.00120126
-0.00184413
-0.00117732
-0.00124072
-0.00102377
-0.000764721
-0.00079361
-0.000391707
-0.000526816
-0.00010335
-0.000253091
0.000144444
-0.0633991
-0.000681998
-0.0582189
-0.00036614
-0.046497
0.000595263
-0.0333703
0.00238329
-0.0188353
0.00530456
-0.00386992
0.00731953
0.00540972
0.0151597
0.0149217
0.0186659
0.0244998
0.0200753
0.0330859
0.0196937
0.0395508
0.0175746
0.0414766
0.0121395
0.0357965
0.00249738
0.0253984
-0.00549085
0.0179846
-0.00792026
0.0141902
-0.00816221
0.0110704
-0.00841456
0.00814773
-0.00842424
0.00557852
-0.00806323
0.00337259
-0.00737344
0.00157614
-0.00642789
0.000209856
-0.0053382
-0.000732469
-0.00421891
-0.00129097
-0.00316598
-0.00153316
-0.00224358
-0.00153826
-0.00148319
-0.00137949
-0.000884995
-0.00112534
-0.00043299
-0.000826536
-9.19875e-05
-0.000522681
0.000166239
-0.000237762
0.000382205
-0.0624987
-0.00164185
-0.0571249
-0.00177603
-0.0457148
-0.00114832
-0.032996
0.000220948
-0.0193341
0.00288204
-0.00407296
0.00550761
0.00432645
0.0084028
0.0136539
0.0164276
0.0242388
0.0189268
0.0341598
0.0190014
0.0419314
0.0173132
0.0457846
0.0132666
0.0427521
0.00518385
0.0323357
-0.00443991
0.0218455
-0.00935166
0.0162966
-0.0100267
0.0129369
-0.0100287
0.00975606
-0.0100229
0.00683269
-0.0096784
0.00425077
-0.00894141
0.00207701
-0.0078743
0.00037295
-0.00659099
-0.00083924
-0.00523143
-0.00158365
-0.00392623
-0.00193152
-0.00276762
-0.00197597
-0.00180587
-0.00180947
-0.00105321
-0.00151983
-0.000490511
-0.00117376
-8.57675e-05
-0.000820014
0.000205345
-0.000492289
0.000420765
-0.000211692
0.000593896
-0.0612969
-0.00244559
-0.0557051
-0.00306165
-0.0446585
-0.00283233
-0.032424
-0.00172026
-0.0195415
0.00042837
-0.00509918
0.00390826
0.00324868
0.00658537
0.011835
0.0102217
0.0233071
0.0173593
0.0347324
0.0183543
0.0441349
0.0167979
0.0495956
0.0135022
0.0489277
0.00709095
0.0400544
-0.00253488
0.0273224
-0.00991687
0.0189032
-0.0119583
0.0148046
-0.0118944
0.0115257
-0.0117983
0.00830351
-0.0114937
0.00533818
-0.0107658
0.00274685
-0.00961125
0.000634732
-0.00813609
-0.000921223
-0.006509
-0.00191407
-0.004901
-0.00240785
-0.0034499
-0.00251031
-0.00223328
-0.00233625
-0.00127909
-0.00199979
-0.000573243
-0.00158807
-7.62034e-05
-0.00116595
0.000260164
-0.000772478
0.000485534
-0.000438141
0.000647214
-0.000175999
0.000769895
-0.0598861
-0.00315778
-0.0538495
-0.00430118
-0.0432507
-0.00446944
-0.031667
-0.00358937
-0.019559
-0.00170275
-0.00691938
0.00224857
0.00237707
0.00477986
0.00961296
0.00880742
0.0217895
0.0117394
0.0348175
0.0172742
0.0460442
0.016445
0.0531892
0.0132042
0.0544901
0.00793981
0.04766
-0.000514603
0.0343204
-0.00953291
0.0225925
-0.0136061
0.0167572
-0.0139109
0.0133566
-0.0137253
0.00999199
-0.0134868
0.00667952
-0.0128351
0.00363926
-0.0116582
0.00104692
-0.0100234
-0.000946795
-0.00811051
-0.00227245
-0.00615063
-0.00297253
-0.00433632
-0.00316382
-0.00279639
-0.00298765
-0.00158188
-0.00259248
-0.000686399
-0.00209469
-6.66251e-05
-0.00157937
0.000337224
-0.00109897
0.000586659
-0.000687374
0.000734766
-0.000362737
0.000833952
-0.000131375
0.000901269
-0.0580424
-0.00400586
-0.0515861
-0.00542121
-0.0415604
-0.00599152
-0.0307627
-0.00537377
-0.0196355
-0.00351284
-0.00877377
0.000151649
0.00133906
0.00328658
0.00720317
0.00718965
0.0201932
0.0104037
0.0339601
0.0125967
0.0475543
0.0157641
0.0567021
0.0129322
0.0595752
0.00811915
0.0548616
0.000738254
0.0421248
-0.00831899
0.0277182
-0.0146587
0.0191424
-0.0159913
0.0152068
-0.0157611
0.0118914
-0.0156248
0.0083347
-0.015142
0.0048415
-0.0140373
0.00168865
-0.0123
-0.000860335
-0.0101099
-0.00263748
-0.00774548
-0.00363147
-0.0054917
-0.00396166
-0.00353848
-0.00379757
-0.00198647
-0.00333257
-0.00084179
-0.00272384
-5.72483e-05
-0.00208666
0.000440655
-0.00148973
0.000727981
-0.000977818
0.000877103
-0.000568691
0.00094072
-0.000269422
0.000971998
-8.02699e-05
0.000981539
-0.0542011
-0.00786344
-0.048968
-0.00662397
-0.0395577
-0.00742386
-0.0297333
-0.00702083
-0.0197465
-0.00526285
-0.0102284
-0.00205818
-0.000490431
0.00198114
0.00522936
0.0052604
0.0186206
0.00876231
0.0331222
0.0112417
0.0475291
0.0126219
0.0598117
0.0126544
0.0647008
0.00780657
0.0614151
0.0015656
0.0500391
-0.00717606
0.0341834
-0.0147842
0.0223295
-0.0178458
0.0171205
-0.017905
0.0139677
-0.0178373
0.0103807
-0.0176708
0.00649074
-0.0167912
0.00270255
-0.0150512
-0.000557431
-0.0126029
-0.00295675
-0.00979063
-0.0043811
-0.00699585
-0.00493153
-0.00452183
-0.00480775
-0.0025283
-0.00426387
-0.00105518
-0.00351495
-5.06824e-05
-0.00271902
0.000575118
-0.00196995
0.000920871
-0.00132551
0.00107567
-0.000808334
0.00111675
-0.000421715
0.00109301
-0.000163576
0.0010553
-2.54184e-05
0.00100696
-0.049702
-0.00909292
-0.0443384
-0.012493
-0.0375187
-0.00866306
-0.0286721
-0.00848515
-0.0198759
-0.00689144
-0.0115379
-0.0039534
-0.00272569
0.000177072
0.00421972
0.00299077
0.0170895
0.00679143
0.0323792
0.00950522
0.0475116
0.0112591
0.0607888
0.0116449
0.0693724
0.00798281
0.0679167
0.001305
0.0576407
-0.00603598
0.0413505
-0.0143431
0.0266261
-0.0190807
0.0192109
-0.0199362
0.01608
-0.0200174
0.0127991
-0.0202557
0.00869569
-0.0198757
0.00427499
-0.0183637
0.000150599
-0.0157592
-0.00311275
-0.0124469
-0.00518145
-0.00899028
-0.00609547
-0.00583191
-0.00607127
-0.00325831
-0.0054433
-0.00134887
-0.00451875
-5.13767e-05
-0.00351774
0.000748038
-0.00256957
0.00117474
-0.00175269
0.00134805
-0.0010949
0.00136223
-0.000598408
0.00129344
-0.000255093
0.00118453
-5.04332e-05
0.00108032
3.02816e-05
0.000976675
-0.0444209
-0.010166
-0.0393052
-0.0141261
-0.0342168
-0.0157948
-0.0276466
-0.0096885
-0.0200425
-0.00831849
-0.0127533
-0.00567602
-0.00474896
-0.00193012
0.00365644
0.000740352
0.0155443
0.00453605
0.0317466
0.00742402
0.0474791
0.00953778
0.0617288
0.0103192
0.071393
0.00962428
0.0743184
0.00158111
0.0647471
-0.00580133
0.0487825
-0.013468
0.0318116
-0.0195287
0.0217178
-0.0215876
0.0180695
-0.0219256
0.0153612
-0.0225794
0.011342
-0.0229021
0.00641914
-0.0220199
0.00138228
-0.0195953
-0.0029326
-0.0159394
-0.00592536
-0.011703
-0.00743912
-0.00764663
-0.00764249
-0.0042607
-0.00694673
-0.00175487
-0.00580294
-6.46736e-05
-0.00453668
0.000967562
-0.00332837
0.00150684
-0.00228578
0.00170783
-0.00144613
0.00169928
-0.000809019
0.00157284
-0.000360669
0.00139901
-7.72084e-05
0.0012113
6.43968e-05
0.0010462
8.40059e-05
0.000892668
-0.0385767
-0.0112837
-0.033973
-0.0154982
-0.0306559
-0.0176871
-0.0260067
-0.0174347
-0.0201885
-0.00954254
-0.0138482
-0.00722357
-0.00641698
-0.004008
0.00291962
-0.0011933
0.0141434
0.00214124
0.0312143
0.00506835
0.0474536
0.0074495
0.0624009
0.00886561
0.0733446
0.00836759
0.076946
0.00699666
0.0720123
-0.00568415
0.0555963
-0.0126152
0.0376405
-0.0192968
0.0247093
-0.0225202
0.0198563
-0.0233745
0.0177466
-0.0243111
0.0141032
-0.0253406
0.00878014
-0.0252631
0.00285799
-0.0234956
-0.00258107
-0.0199469
-0.00659007
-0.0152747
-0.00891135
-0.0102307
-0.00954939
-0.00573973
-0.00885615
-0.00235128
-0.00745845
-9.93625e-05
-0.00584873
0.00124737
-0.00429831
0.0019375
-0.00295978
0.00218084
-0.00188304
0.00214474
-0.00106578
0.00195605
-0.000485549
0.00169772
-0.000107301
0.00142911
0.000103007
0.00117269
0.000175249
0.00095496
0.000133278
0.000759391
-0.0327231
-0.0122182
-0.028759
-0.0164977
-0.0270843
-0.0190697
-0.0242001
-0.0194936
-0.0202903
-0.0173329
-0.0147695
-0.0086213
-0.00771397
-0.00592658
0.00187126
-0.00295964
0.0132697
-0.000319576
0.0307693
0.00258632
0.0474046
0.00511738
0.0629032
0.00694724
0.0747431
0.00746706
0.0792632
0.00605039
0.0758314
0.00317758
0.0621165
-0.0122044
0.0433143
-0.018289
0.0281571
-0.0227446
0.021462
-0.0241259
0.0196331
-0.0252609
0.0166372
-0.0268451
0.0109598
-0.0275203
0.00395431
-0.0263594
-0.00274074
-0.0233359
-0.00783945
-0.0186975
-0.0108285
-0.0133576
-0.0118983
-0.00788187
-0.0112436
-0.00335228
-0.00958129
-0.000228444
-0.00755019
0.0016021
-0.00555006
0.00249911
-0.00382005
0.00279777
-0.00243298
0.00273077
-0.00138289
0.00246185
-0.000635971
0.00210647
-0.000141526
0.00173195
0.000148823
0.00138329
0.000276594
0.00107135
0.000277118
0.00081112
0.000176155
0.000583235
-0.027168
-0.012895
-0.0241606
-0.0168167
-0.0237964
-0.0197856
-0.0223912
-0.0208787
-0.0200883
-0.0196957
-0.0159137
-0.0161887
-0.00869382
-0.00764144
0.000936924
-0.00499225
0.0131902
-0.00288015
0.0305034
-5.37677e-05
0.0474763
0.00251463
0.063348
0.00467256
0.0757709
0.00591948
0.0815644
0.00516588
0.0785421
0.00333967
0.0672266
-0.00193254
0.0484549
-0.0173449
0.0317796
-0.0219116
0.0228846
-0.0241672
0.020869
-0.0253618
0.0186209
-0.0272446
0.0127651
-0.0286503
0.00440955
-0.0279755
-0.0040721
-0.025028
-0.0106328
-0.0205425
-0.0142789
-0.0152471
-0.0155191
-0.0097367
-0.0144485
-0.00467697
-0.012287
-0.000646522
-0.00974446
0.00196583
-0.00717598
0.00322802
-0.00492738
0.00360644
-0.00313071
0.0034955
-0.00177817
0.00312605
-0.000818681
0.00264456
-0.000180122
0.00214507
0.000205209
0.00167556
0.00039487
0.00126502
0.000435706
0.000912759
0.000365804
0.000621471
0.000210746
0.000372491
-0.0224171
-0.0127709
-0.0203627
-0.0166929
-0.0208376
-0.0197755
-0.0206423
-0.0215345
-0.0196069
-0.0213601
-0.0165006
-0.0191087
-0.00995811
-0.0149244
0.000506171
-0.00721069
0.0135187
-0.00532075
0.0303614
-0.00273808
0.047603
-0.000180505
0.0637385
0.00212418
0.0766028
0.00384063
0.0833329
0.00415099
0.081397
0.00231097
0.0713099
-0.000743596
0.0529817
-0.00645935
0.0349773
-0.0205426
0.0242272
-0.0232542
0.0213246
-0.0246228
0.0198764
-0.0266173
0.0141117
-0.0285913
0.00439487
-0.0286356
-0.00631882
-0.0257288
-0.0151535
-0.0205074
-0.0201501
-0.0146713
-0.0215459
-0.00922034
-0.0196689
-0.00451631
-0.0161034
-0.000860636
-0.012618
0.00222701
-0.00929093
0.00408078
-0.00635968
0.00466032
-0.00402089
0.00449663
-0.00227326
0.00399059
-0.00104131
0.00334868
-0.000222481
0.00268692
0.000277534
0.00207274
0.000537078
0.00153335
0.000619687
0.00108103
0.00057386
0.000704703
0.000437043
0.000395175
0.000237077
0.000135414
-0.018696
-0.0118801
-0.0174505
-0.0156831
-0.0183968
-0.0191336
-0.0188618
-0.021556
-0.0187529
-0.0223884
-0.0165268
-0.0213339
-0.0105749
-0.0184919
-0.000297041
-0.0141212
0.0138778
-0.00756985
0.030333
-0.00529235
0.0478218
-0.00295687
0.0640824
-0.000524402
0.0771517
0.00157531
0.0845846
0.0025889
0.083852
0.00169601
0.0744143
-0.000793381
0.0575378
-0.00529973
0.0378921
-0.00937416
0.0251305
-0.0214458
0.0211467
-0.0230763
0.0201868
-0.0249332
0.0150038
-0.0275093
0.00419254
-0.028389
-0.00885025
-0.0261042
-0.0202325
-0.0206498
-0.0273866
-0.0132708
-0.0295274
-0.00668969
-0.0277002
-0.00118898
-0.022068
0.00144829
-0.0167896
0.00331095
-0.0121543
0.00509034
-0.00823709
0.0059582
-0.00516049
0.00579991
-0.00289357
0.00511693
-0.00131164
0.00426093
-0.000266339
0.00339254
0.000373085
0.00259137
0.000713474
0.00189634
0.000839025
0.00131402
0.000814125
0.00084077
0.000684721
0.000457025
0.000488923
0.000143329
0.00025574
-0.000120325
-0.0158321
-0.0103996
-0.0152449
-0.0140857
-0.0162625
-0.0178175
-0.0170661
-0.0209294
-0.0175113
-0.0227976
-0.0159753
-0.0229399
-0.0106326
-0.0212763
-0.000689303
-0.0180997
0.0133923
-0.0136357
0.030556
-0.00779291
0.0480249
-0.0054955
0.0643425
-0.00321696
0.0774598
-0.000832492
0.0852278
0.000932114
0.0854632
0.000977751
0.0770162
-0.000905965
0.0610153
-0.00427084
0.0411447
-0.00855239
0.026143
-0.0103866
0.0201889
-0.020488
0.0195513
-0.0224408
0.0152681
-0.0251976
0.00404365
-0.0273604
-0.0110855
-0.0261537
-0.0250903
-0.0212465
-0.0343913
-0.0136451
-0.0374213
-0.00537699
-0.0362052
0.00181531
-0.0299435
0.00668655
-0.0227912
0.00744995
-0.0162866
0.00744332
-0.0108249
0.0076782
-0.00665956
0.00745727
-0.00367141
0.00657775
-0.00163587
0.00544116
-0.000306541
0.00430113
0.000502867
0.00326275
0.000936933
0.00236791
0.00110792
0.00162745
0.00109892
0.00102922
0.000969316
0.000556175
0.000765323
0.000180626
0.000520213
-0.000121143
0.000260039
-0.000380364
-0.0135424
-0.00874377
-0.0133798
-0.0122646
-0.0142799
-0.0160683
-0.0151245
-0.019759
-0.0158691
-0.0225716
-0.0149374
-0.0238355
-0.0102483
-0.0233242
-0.000825085
-0.0211405
0.0129225
-0.0176298
0.0295684
-0.012648
0.0480676
-0.00783558
0.0644979
-0.00565097
0.0773892
-0.00314644
0.0853506
-0.000955289
0.0862249
0.000170414
0.078785
-0.000790973
0.0636253
-0.00351604
0.0441643
-0.00729041
0.027381
-0.00979048
0.0196
-0.00979767
0.0178097
-0.0187464
0.0148017
-0.0219744
0.00386985
-0.0250238
-0.0127361
-0.0257098
-0.0291522
-0.0220918
-0.0406292
-0.0150086
-0.0448093
-0.00625706
-0.0430129
0.00143069
-0.0377988
0.00967061
-0.0293622
0.0132575
-0.0216281
0.0127914
-0.0143679
0.0109863
-0.00871927
0.0097379
-0.00468733
0.00847319
-0.00202059
0.00696247
-0.000332249
0.00546687
0.000683001
0.004121
0.00122549
0.00297419
0.00144356
0.00203227
0.0014453
0.00128107
0.00130518
0.000693355
0.00108118
0.000240315
0.000812704
-0.000111864
0.000528746
-0.00038985
0.00025015
-0.000630512
-0.0115541
-0.00716763
-0.0116645
-0.0104591
-0.0123924
-0.0141522
-0.0130664
-0.0181264
-0.0139045
-0.0217237
-0.0134883
-0.0240208
-0.00959151
-0.0244923
-0.000840394
-0.0233089
0.0123046
-0.0205227
0.0284477
-0.0165092
0.0459818
-0.0105622
0.0642416
-0.0075793
0.0771358
-0.00539751
0.084752
-0.00254789
0.0860542
-0.000784593
0.0797268
-0.000771417
0.0654972
-0.00266286
0.0465164
-0.00586817
0.0287862
-0.00869555
0.0189649
-0.0091554
0.0165182
-0.00850618
0.0133568
-0.0173015
0.00364726
-0.0217518
-0.0138256
-0.0239343
-0.0324058
-0.0224562
-0.0459806
-0.0167404
-0.0516831
-0.00813483
-0.0499015
0.000631531
-0.0445598
0.00819169
-0.0354034
0.0157118
-0.0266933
0.0183228
-0.018237
0.0166605
-0.0112402
0.0135072
-0.0060417
0.0110923
-0.00250139
0.00895399
-0.000326084
0.0069563
0.000937982
0.00521189
0.00160367
0.00374282
0.0018691
0.00254865
0.00187347
0.0016041
0.00171102
0.000875236
0.00145266
0.000321882
0.00114613
-9.31081e-05
0.000825749
-0.000408866
0.000515683
-0.000655381
0.000233957
-0.000864468
-0.00975309
-0.0058493
-0.00999999
-0.00883216
-0.010608
-0.0122435
-0.0110613
-0.0161572
-0.0117534
-0.0202775
-0.0117296
-0.0234823
-0.00874484
-0.0248674
-0.00091299
-0.0244197
0.01151
-0.0225143
0.0268728
-0.0189478
0.0436666
-0.014194
0.0607471
-0.00706761
0.0765825
-0.00702603
0.0835832
-0.00422871
0.0850759
-0.00156959
0.0795873
-0.000645094
0.0664894
-0.00176362
0.0481807
-0.00432718
0.0300474
-0.00712938
0.018418
-0.00814869
0.0148131
-0.00745022
0.0125507
-0.00769999
0.0031126
-0.0167668
-0.0142092
-0.0213681
-0.0347554
-0.0215847
-0.0508025
-0.0176343
-0.0581005
-0.010323
-0.0569714
-0.00106494
-0.0505601
0.00663178
-0.0413164
0.0141047
-0.0305414
0.0195599
-0.0213096
0.0213953
-0.0133333
0.0187536
-0.00740636
0.0148719
-0.00308668
0.0116776
-0.000274287
0.0089022
0.00130425
0.00659004
0.00210579
0.00470976
0.00241473
0.00319719
0.00240983
0.0020123
0.00220883
0.00110629
0.00189911
0.000428788
0.00153694
-6.89307e-05
0.0011633
-0.000430658
0.000803961
-0.000697142
0.000481659
-0.000903082
0.000208687
-0.00107315
-0.00814022
-0.00476858
-0.00844051
-0.00740878
-0.00896144
-0.0104787
-0.00923303
-0.0140718
-0.00962729
-0.0182834
-0.00977137
-0.0222357
-0.00774002
-0.0244871
-0.0010936
-0.0246868
0.0104122
-0.0233218
0.0249459
-0.0205873
0.0407905
-0.0160716
0.0567332
-0.0101801
0.0721964
-0.00268154
0.08224
-0.00568285
0.0831128
-0.00226563
0.0786346
-0.000616884
0.0665856
-0.000741225
0.049084
-0.00266689
0.0309537
-0.00523344
0.0179557
-0.00666708
0.0128641
-0.00619975
0.0108769
-0.00577647
0.00381786
-0.00840526
-0.014197
-0.0167791
-0.0361057
-0.0200178
-0.0546289
-0.0177583
-0.0644818
-0.011253
-0.0643787
-0.00291574
-0.057196
0.00557103
-0.0466623
0.0119776
-0.0343049
0.0178682
-0.0236898
0.0219401
-0.0146145
0.0226765
-0.00792992
0.0192772
-0.00339611
0.0151813
-0.00012354
0.0115268
0.00183721
0.00836924
0.0027805
0.00591533
0.00312101
0.00400349
0.00308773
0.00251929
0.00282656
0.00139457
0.00244321
0.000562187
0.00200463
-3.89042e-05
0.00155763
-0.000463256
0.00113204
-0.000758733
0.000750563
-0.000966045
0.000428935
-0.00112333
0.000174747
-0.0012479
-0.0067369
-0.00387905
-0.00704474
-0.00616436
-0.00749661
-0.00887361
-0.00764861
-0.0120631
-0.00774147
-0.0159576
-0.0077694
-0.0202853
-0.00653064
-0.0234451
-0.00134848
-0.0242323
0.00898705
-0.0232617
0.0226632
-0.0210392
0.0374634
-0.0172602
0.052416
-0.0117544
0.0663742
-0.00435794
0.0780908
0.00146768
0.0804618
-0.0030319
0.0767429
-0.000373958
0.0657803
0.000188377
0.049255
-0.000912207
0.0313676
-0.00308083
0.0174395
-0.00471722
0.0108321
-0.00463502
0.00838342
-0.00370627
0.00328025
-0.00523886
-0.0115611
-0.0110412
-0.0371772
-0.0157076
-0.057876
-0.0167708
-0.0700402
-0.0121999
-0.072021
-0.00361071
-0.0650952
0.00498338
-0.0530471
0.0119558
-0.0393143
0.016987
-0.0266298
0.0208083
-0.0161563
0.0234818
-0.00782556
0.0225722
-0.00273943
0.0186205
0.000422507
0.0146353
0.00262749
0.0107365
0.00370903
0.00744071
0.00404213
0.0049942
0.00395069
0.00314053
0.00359857
0.00174728
0.0031131
0.00072468
0.00257146
-4.64293e-06
0.00202776
-0.000509038
0.00151373
-0.000844951
0.00105608
-0.00106425
0.000667936
-0.00120504
0.000358928
-0.00130751
0.000134216
-0.00138211
-0.00553737
-0.0031383
-0.00583575
-0.00508804
-0.00622214
-0.00743883
-0.00630468
-0.0102175
-0.00619566
-0.0136089
-0.00596069
-0.0177663
-0.0051211
-0.0216949
-0.00148959
-0.023304
0.00727379
-0.022519
0.0200055
-0.020604
0.0339132
-0.017489
0.0475785
-0.0124227
0.0606758
-0.00605593
0.0713996
0.00233334
0.0763206
0.00560893
0.0736446
6.64082e-05
0.0641546
0.00125175
0.0485633
0.00088008
0.0312215
-0.000766153
0.0166816
-0.00232293
0.00859295
-0.00247811
0.00524465
-0.00149624
0.00182543
-0.00225145
-0.00907701
-0.00772293
-0.0349602
-0.0132581
-0.0609152
-0.0126683
-0.0761112
-0.0106997
-0.0795387
-0.00468225
-0.0733162
0.00461027
-0.0607453
0.0126816
-0.0454113
0.0180528
-0.0307704
0.0211276
-0.0186363
0.0232884
-0.00856185
0.0242181
-0.00149746
0.0213302
0.00187113
0.0171719
0.00383565
0.0134271
0.00500757
0.00943799
0.00526777
0.00621507
0.00505365
0.00389124
0.00456855
0.00217056
0.00394255
0.000917829
0.00326481
3.13342e-05
0.00259499
-0.000571869
0.00196773
-0.000963032
0.00141098
-0.00119984
0.000939262
-0.00133558
0.000558561
-0.00140467
0.00027521
-0.0014485
8.85201e-05
-0.00147063
-0.00452001
-0.00252655
-0.00480222
-0.00417183
-0.00513042
-0.00617976
-0.00517451
-0.00856899
-0.00496426
-0.0114489
-0.0045054
-0.0150642
-0.00370115
-0.0191863
-0.00128077
-0.0219037
0.00546433
-0.0214945
0.0170007
-0.0195142
0.0301151
-0.0168059
0.04271
-0.0126205
0.0545094
-0.00625641
0.0646556
0.000687982
0.0710338
0.00762014
0.0693534
0.00990014
0.0616164
0.00260464
0.0470861
0.00272898
0.0303458
0.00175588
0.0153456
0.000569792
0.00612876