/*--------------------------------*- C++ -*----------------------------------*\
| =========                 |                                                 |
| \\      /  F ield         | OpenFOAM: The Open Source CFD Toolbox           |
|  \\    /   O peration     | Version:  2506                                  |
|   \\  /    A nd           | Website:  www.openfoam.com                      |
|    \\/     M anipulation  |                                                 |
\*---------------------------------------------------------------------------*/
FoamFile
{
    version     2.0;
    format      ascii;
    arch        "LSB;label=32;scalar=64";
    class       volVectorField;
    location    "60.001527662331064";
    object      ddtCorrDdt0(U);
}
// * * * * * * * * * * * * * * * * * * * * * * * * * * * * * * * * * * * * * //

dimensions      [0 1 -2 0 0 0 0];

internalField   nonuniform List<vector> 
9700
(
(0.00120227 0.000795089 -2.66154e-24)
(0.00110719 0.00258609 3.61227e-24)
(-0.00119637 0.000690812 1.67463e-28)
(0.000897735 0.00436691 -4.51754e-24)
(-0.00141593 0.00230244 2.32506e-25)
(-0.00213793 0.000589193 1.53235e-23)
(0.000621954 0.00645504 -1.08154e-23)
(-0.00184742 0.00386096 5.93492e-36)
(-0.00240429 0.00199715 1.57247e-23)
(-0.00331883 0.000460799 0)
(0.000206756 0.00881961 1.31325e-23)
(-0.00252339 0.00571019 -5.33308e-25)
(-0.00291667 0.00333028 6.43831e-23)
(-0.00363753 0.00160534 -2.89478e-23)
(-0.00410336 0.000316309 -2.81234e-23)
(-0.000345272 0.011679 5.85757e-23)
(-0.00349142 0.00778052 3.0458e-28)
(-0.00373788 0.00492155 -7.73412e-24)
(-0.00424863 0.00264964 -7.67784e-36)
(-0.00445084 0.00115733 -2.25925e-23)
(-0.00464962 0.000162616 7.22766e-28)
(-0.00108482 0.0151443 2.05405e-22)
(-0.00481568 0.0102835 -1.16404e-28)
(-0.00490672 0.00668268 -1.70428e-23)
(-0.00524527 0.00390915 7.77313e-23)
(-0.00511562 0.00187702 -2.04153e-22)
(-0.00501 0.000674648 -5.72517e-24)
(-0.00488572 7.64509e-06 4.21036e-23)
(-0.00204687 0.0194524 1.13376e-22)
(-0.00658266 0.0132986 2.29735e-24)
(-0.0065074 0.00880256 -1.48393e-24)
(-0.00665671 0.00527526 0)
(-0.00621113 0.00276014 -4.31407e-23)
(-0.00569941 0.00104844 1.34604e-36)
(-0.00524079 0.000181536 4.81765e-23)
(-0.00483153 -0.000141094 3.69571e-22)
(-0.00323981 0.0248559 -3.3338e-22)
(-0.00891331 0.017032 1.12259e-22)
(-0.00863762 0.0113322 1.32649e-22)
(-0.00858941 0.0069066 0)
(-0.00775569 0.00368235 -4.10217e-23)
(-0.00684522 0.00152924 1.49902e-23)
(-0.00592 0.000206598 2.72544e-26)
(-0.00516489 -0.000299183 4.34626e-22)
(-0.00449618 -0.000277014 -4.43773e-25)
(-0.00461621 0.0317294 -2.71332e-22)
(-0.0119246 0.0216891 -3.97343e-23)
(-0.0114437 0.0144364 -6.4639e-22)
(-0.0111534 0.00882038 -3.26539e-37)
(-0.00986632 0.00476611 9.95361e-24)
(-0.0084534 0.00198159 -7.7059e-27)
(-0.00705795 0.000280763 2.10854e-23)
(-0.00580341 -0.00060915 5.92367e-23)
(-0.00479283 -0.000746771 -8.31957e-24)
(-0.00390819 -0.000394506 -4.08854e-22)
(-0.00677163 0.0406448 2.79918e-22)
(-0.0158098 0.0276048 7.0259e-24)
(-0.0150929 0.0182679 -4.96045e-23)
(-0.0145232 0.0111313 1.05846e-22)
(-0.012654 0.00599428 2.60789e-22)
(-0.0106445 0.00248912 1.0805e-26)
(-0.00864733 0.00026375 1.98223e-23)
(-0.00688218 -0.000926559 4.56077e-22)
(-0.00536372 -0.00136327 -6.43543e-23)
(-0.00415531 -0.00114312 -4.33425e-22)
(-0.0031035 -0.000489064 0)
(-0.0118584 0.0524398 8.81169e-23)
(-0.0214865 0.0353151 1.65953e-23)
(-0.019875 0.0230986 1.04642e-21)
(-0.018919 0.0139279 4.70356e-22)
(-0.0163018 0.00742827 -8.56717e-23)
(-0.0135231 0.00300298 3.97027e-22)
(-0.0108048 0.000199988 7.17038e-23)
(-0.0083812 -0.00138939 4.25315e-22)
(-0.00633721 -0.00204008 -1.60035e-22)
(-0.00463713 -0.00202538 3.52384e-26)
(-0.00329105 -0.00147338 3.11455e-37)
(-0.00212584 -0.000557417 -4.90958e-23)
(-0.0203564 0.0672964 3.50569e-21)
(-0.0306589 0.0452624 2.74073e-22)
(-0.0265856 0.0293256 -2.05727e-22)
(-0.0247231 0.017385 -2.02826e-22)
(-0.0210531 0.00909003 -4.33985e-22)
(-0.0172687 0.00353295 -5.4013e-23)
(-0.013622 1.4285e-05 3.36798e-22)
(-0.0104075 -0.00199086 4.51757e-22)
(-0.00768282 -0.00290561 1.06356e-27)
(-0.00546753 -0.00301519 -4.95467e-22)
(-0.00366807 -0.00257149 -7.66366e-37)
(-0.00224654 -0.00172673 -5.09933e-23)
(-0.00102558 -0.000598794 -1.52241e-28)
(-0.0261787 0.0836048 -7.56824e-23)
(-0.0420175 0.0565956 -4.61913e-37)
(-0.0361903 0.0369586 -1.14328e-22)
(-0.0325901 0.0217312 -9.17267e-22)
(-0.0273195 0.0110465 -1.54675e-22)
(-0.022122 0.00403861 -7.9534e-22)
(-0.0172624 -0.000329546 4.42052e-22)
(-0.013035 -0.00282546 5.43803e-22)
(-0.00949308 -0.00398778 -1.47257e-27)
(-0.00660936 -0.00422494 -5.34159e-22)
(-0.00432642 -0.00381691 3.08274e-37)
(-0.00250943 -0.00298471 -3.64952e-26)
(-0.00107171 -0.00189599 1.3059e-24)
(0.000144891 -0.000622412 4.14502e-23)
(-0.0243426 0.100785 -1.19572e-22)
(-0.0493725 0.0682655 -7.85791e-22)
(-0.0473369 0.0448462 -4.63791e-21)
(-0.0428207 0.0267305 -1.1341e-21)
(-0.0355483 0.0133569 -5.59042e-24)
(-0.0284862 0.00447997 9.75921e-23)
(-0.0219393 -0.000923383 -9.88432e-24)
(-0.0164036 -0.00396741 2.81187e-23)
(-0.0118224 -0.00539265 2.1146e-22)
(-0.00813719 -0.0057132 -5.55872e-22)
(-0.00522717 -0.00530159 0)
(-0.00297564 -0.00442094 -6.21375e-23)
(-0.00121786 -0.00325493 2.56238e-36)
(0.000177087 -0.00197519 4.43244e-23)
(0.00134552 -0.000638637 4.73472e-23)
(-0.020126 0.120014 7.29474e-21)
(-0.0504741 0.0823765 -3.66478e-22)
(-0.0560597 0.0529293 -6.16626e-22)
(-0.0541328 0.0312294 7.35704e-35)
(-0.0454585 0.0156712 2.23383e-22)
(-0.036649 0.00476853 1.31678e-22)
(-0.0280127 -0.00189532 -4.5496e-22)
(-0.0206833 -0.00554601 1.31818e-21)
(-0.0147823 -0.00722341 -6.53073e-22)
(-0.0100858 -0.00759026 -4.59159e-22)
(-0.00642457 -0.00710974 0)
(-0.00361086 -0.00610505 -6.84654e-23)
(-0.00148105 -0.00481211 -1.51322e-24)
(0.000148565 -0.00337934 3.89861e-22)
(0.00143166 -0.0019613 1.77178e-22)
(0.00253574 -0.000642574 4.93945e-28)
(-0.0191075 0.145331 1.83622e-21)
(-0.0520927 0.101497 -8.25251e-23)
(-0.0611911 0.0646248 -2.7943e-21)
(-0.064687 0.0354789 1.92014e-21)
(-0.0560442 0.0169715 8.78448e-22)
(-0.0459234 0.00457269 1.06421e-21)
(-0.0356786 -0.00345055 2.64264e-23)
(-0.0261671 -0.00774911 8.49633e-22)
(-0.0184932 -0.00963229 -7.56447e-22)
(-0.0125372 -0.00997915 -3.3411e-23)
(-0.00793557 -0.00934977 3.54165e-36)
(-0.00444774 -0.00814095 -6.60619e-23)
(-0.00183775 -0.00661793 4.49168e-28)
(8.84e-05 -0.00498421 6.37003e-23)
(0.00153073 -0.00335896 6.72599e-23)
(0.00262937 -0.00186498 -8.21137e-23)
(0.00362339 -0.000540229 -7.37446e-23)
(-0.0243858 0.172947 1.01251e-20)
(-0.0591041 0.124598 2.31065e-21)
(-0.065854 0.0820149 1.18025e-21)
(-0.0741077 0.0430618 0)
(-0.067624 0.0173425 -2.13031e-22)
(-0.055384 0.00314796 -2.29356e-35)
(-0.0440514 -0.00586567 2.45315e-22)
(-0.0330167 -0.0108622 -8.31759e-23)
(-0.0231681 -0.0128374 8.976e-22)
(-0.0155646 -0.0130422 -4.93848e-22)
(-0.00981364 -0.0121561 -2.00861e-22)
(-0.00548801 -0.0106309 -1.8307e-23)
(-0.00230036 -0.00878795 -3.3243e-28)
(1.34529e-05 -0.00683445 6.89261e-23)
(0.00166434 -0.00494021 5.95351e-23)
(0.00286886 -0.00319115 -4.28752e-22)
(0.00375756 -0.0017034 -9.43548e-23)
(0.0045616 -0.000442984 7.44559e-23)
(-0.0293268 0.197951 -2.64663e-20)
(-0.0616082 0.14867 -4.34873e-21)
(-0.07105 0.10069 3.0798e-21)
(-0.0821639 0.0560484 -1.12336e-34)
(-0.080791 0.0197768 -3.04879e-21)
(-0.0669204 0.000106505 -1.71746e-21)
(-0.0520289 -0.00954415 7.1783e-22)
(-0.0403606 -0.015134 1.19384e-21)
(-0.0289528 -0.0171647 -8.15124e-22)
(-0.0193002 -0.0170038 -9.92348e-22)
(-0.0120916 -0.0156912 2.53668e-22)
(-0.00675916 -0.0137137 -1.05667e-21)
(-0.00285737 -0.0114163 -3.01804e-24)
(-7.54431e-05 -0.00904711 6.22472e-23)
(0.00186579 -0.00675868 7.67828e-23)
(0.00318475 -0.00468977 -3.51152e-23)
(0.00410622 -0.00287688 2.96894e-22)
(0.0047713 -0.00146071 1.69546e-22)
(0.00534642 -0.000341657 2.82959e-28)
(-0.0360075 0.222202 -8.55939e-21)
(-0.0654967 0.172253 -3.63574e-21)
(-0.0761361 0.119147 -7.5738e-21)
(-0.0883878 0.071249 1.39031e-35)
(-0.0925588 0.0270661 3.53107e-22)
(-0.0826983 -0.0028452 -8.51972e-22)
(-0.062205 -0.0152572 -1.33714e-22)
(-0.0467873 -0.0206366 2.04257e-22)
(-0.0351585 -0.0228831 8.60381e-22)
(-0.0238588 -0.0221906 -1.26178e-21)
(-0.0148328 -0.0201702 3.40199e-22)
(-0.00826217 -0.0175446 -1.06601e-21)
(-0.003514 -0.0146405 -5.61683e-25)
(-0.000153932 -0.0117072 1.21199e-23)
(0.0021387 -0.00892765 8.64412e-23)
(0.00364766 -0.00640277 -9.96277e-28)
(0.00459356 -0.00424652 -4.07111e-23)
(0.00519274 -0.00245342 3.91883e-23)
(0.00559657 -0.0011561 -1.72569e-23)
(0.00593315 -0.000225445 -3.13506e-23)
(-0.0452561 0.245317 -1.14782e-20)
(-0.0692797 0.19587 1.23659e-20)
(-0.0805666 0.138593 1.48423e-20)
(-0.0929117 0.0860586 2.69605e-35)
(-0.099769 0.0377919 5.2364e-21)
(-0.0983433 -0.00225041 2.34398e-25)
(-0.0787477 -0.0230332 -2.6632e-21)
(-0.0545756 -0.0281398 1.91654e-21)
(-0.0401722 -0.0298513 -1.95225e-22)
(-0.0288062 -0.0289144 -1.43053e-21)
(-0.0180973 -0.0258901 -4.18245e-22)
(-0.0100094 -0.0223218 1.10943e-21)
(-0.00424724 -0.0186043 -1.92914e-23)
(-0.000209082 -0.014948 1.03346e-21)
(0.00252018 -0.0115199 1.75639e-22)
(0.00426189 -0.00844855 1.29067e-27)
(0.00529199 -0.00578747 -4.18158e-23)
(0.00583488 -0.00362928 -4.17815e-23)
(0.00608685 -0.00192983 -6.88163e-36)
(0.00620759 -0.000803049 3.51953e-23)
(0.00629167 -9.65635e-05 -2.87292e-24)
(-0.0367946 0.272902 1.81552e-21)
(-0.0718873 0.218626 3.19611e-22)
(-0.0849931 0.157654 -2.54018e-21)
(-0.0972201 0.100496 0)
(-0.103723 0.0486948 4.99008e-22)
(-0.107644 0.00281511 5.05419e-21)
(-0.0978792 -0.0296734 1.4325e-22)
(-0.0695452 -0.0393256 2.16312e-21)
(-0.0451716 -0.0384266 -1.85245e-21)
(-0.0326111 -0.0370053 -6.51953e-23)
(-0.0216694 -0.0331845 6.87171e-37)
(-0.0119974 -0.0282982 -1.6668e-22)
(-0.005036 -0.0234859 3.39e-24)
(-0.000200748 -0.0188987 -2.10179e-22)
(0.00303819 -0.0146642 5.9467e-22)
(0.00507418 -0.0108819 -1.0525e-22)
(0.0062193 -0.00763668 -9.79729e-23)
(0.00673853 -0.00494177 5.31976e-23)
(0.00685761 -0.00286107 2.69182e-23)
(0.00675253 -0.00132259 -2.66857e-23)
(0.0065823 -0.000413982 -1.35517e-23)
(0.0064058 3.79797e-05 1.03868e-22)
(-0.0339041 0.293169 9.24895e-22)
(-0.0716608 0.240951 -1.72951e-21)
(-0.0865029 0.176083 -1.73662e-20)
(-0.100631 0.114039 8.70304e-36)
(-0.106976 0.0582009 -2.19404e-21)
(-0.111175 0.00948561 -9.03216e-21)
(-0.110531 -0.0316013 4.98238e-21)
(-0.0906126 -0.0526518 4.26484e-22)
(-0.0564007 -0.0511888 1.45997e-26)
(-0.0351362 -0.0462481 -2.50115e-21)
(-0.0243685 -0.0420079 8.08095e-36)
(-0.0141318 -0.0357854 -1.55754e-22)
(-0.00582497 -0.0294953 5.27112e-24)
(-8.60981e-05 -0.0237175 -1.08241e-21)
(0.00374406 -0.0184737 -2.1588e-22)
(0.00612624 -0.0138284 -6.45716e-22)
(0.00742429 -0.00982959 -3.29444e-22)
(0.00794273 -0.0065259 6.00294e-23)
(0.00793459 -0.00389598 -1.70146e-27)
(0.00762118 -0.00197152 -2.17334e-22)
(0.00715979 -0.000655541 -4.43974e-23)
(0.0067027 -3.94976e-06 1.45104e-22)
(0.00626863 0.000170009 6.91156e-25)
(-0.0316023 0.313781 5.55686e-21)
(-0.0687622 0.261148 -4.18992e-23)
(-0.0843688 0.193303 1.57463e-21)
(-0.101453 0.126591 1.17629e-35)
(-0.109334 0.0661578 -5.09419e-21)
(-0.112833 0.0149195 -5.60366e-21)
(-0.114807 -0.0298811 2.22858e-21)
(-0.107475 -0.0627175 4.30697e-21)
(-0.0766461 -0.0692245 2.80946e-21)
(-0.0414473 -0.0590119 -4.44261e-21)
(-0.02514 -0.0517566 1.17212e-35)
(-0.0156754 -0.0449017 -1.64061e-21)
(-0.0065504 -0.0368866 4.78876e-23)
(0.000218079 -0.0295811 1.58057e-22)
(0.00469659 -0.0230885 2.38022e-22)
(0.00747628 -0.0173849 2.50245e-22)
(0.00896299 -0.0124871 4.21676e-23)
(0.00949563 -0.0084055 1.22319e-22)
(0.00937234 -0.00515559 2.21611e-27)
(0.00883335 -0.00268645 -3.12214e-23)
(0.00809372 -0.000993657 3.03826e-23)
(0.00728924 4.52252e-05 8.86043e-24)
(0.00656048 0.000410924 -1.12274e-22)
(0.00588417 0.000292734 5.81692e-23)
(-0.0228067 0.325441 1.98156e-23)
(-0.0604974 0.281129 1.28462e-23)
(-0.0788255 0.208958 -2.72265e-21)
(-0.0985228 0.138107 2.47818e-35)
(-0.109092 0.0728609 1.40602e-21)
(-0.113677 0.0183923 1.52828e-20)
(-0.115172 -0.0279229 -6.07535e-21)
(-0.114502 -0.0673843 7.41491e-22)
(-0.097197 -0.0875178 2.64532e-21)
(-0.0575486 -0.0787102 -3.29666e-21)
(-0.0268106 -0.0637706 0)
(-0.0153366 -0.0550191 -3.4285e-22)
(-0.00682346 -0.0458782 -6.85654e-35)
(0.00079168 -0.0366765 1.65061e-22)
(0.00598464 -0.0286621 4.82084e-22)
(0.00919652 -0.0216776 8.6555e-22)
(0.0108985 -0.0156924 8.38005e-23)
(0.0114666 -0.0106914 3.253e-22)
(0.0112217 -0.00665594 -5.92112e-23)
(0.0104547 -0.00357194 -3.45723e-23)
(0.00939667 -0.00135607 3.1274e-23)
(0.00825249 3.61587e-05 -1.78212e-23)
(0.00713172 0.000751398 6.99773e-24)
(0.00615804 0.00081295 2.03117e-23)
(0.00526766 0.00040087 1.32154e-23)
(-0.0187485 0.333459 5.27517e-20)
(-0.0503255 0.291435 -9.97854e-23)
(-0.0689473 0.223169 2.35745e-20)
(-0.091346 0.14866 2.47811e-21)
(-0.105177 0.0784273 3.2176e-21)
(-0.112334 0.0203808 1.14145e-21)
(-0.114384 -0.0276331 -4.76568e-21)
(-0.114873 -0.0692654 8.57649e-21)
(-0.108863 -0.100394 -2.38888e-21)
(-0.0791809 -0.103324 -2.28649e-21)
(-0.036273 -0.08217 -3.65376e-36)
(-0.0137612 -0.0663447 -1.03016e-21)
(-0.0056356 -0.0560903 -9.60667e-23)
(0.00183921 -0.0452335 3.10861e-21)
(0.00771139 -0.0353261 6.9604e-22)
(0.0113692 -0.0268426 7.20531e-23)
(0.0133142 -0.0195625 -8.50398e-22)
(0.0139251 -0.0134568 -5.0966e-22)
(0.0135637 -0.00849518 -7.36912e-23)
(0.0125408 -0.00463494 -6.94291e-23)
(0.0111445 -0.00182781 -4.08236e-23)
(0.0095967 4.70657e-05 6.24803e-23)
(0.0080851 0.00107766 2.75995e-22)
(0.00668954 0.00143266 5.50494e-23)
(0.00550886 0.0011836 -3.20075e-23)
(0.00444579 0.000490221 -5.82503e-29)
(-0.0166541 0.33785 3.39568e-20)
(-0.0413517 0.305495 -1.71596e-21)
(-0.0626625 0.229714 7.44698e-23)
(-0.079754 0.157826 -2.29361e-26)
(-0.0970105 0.0832288 -2.83356e-22)
(-0.107525 0.0213496 -3.21842e-21)
(-0.111961 -0.0288136 8.22365e-21)
(-0.112881 -0.0714554 9.58649e-21)
(-0.11147 -0.107902 -5.01028e-21)
(-0.0958896 -0.125307 -5.10478e-22)
(-0.0548271 -0.109102 2.281e-35)
(-0.016124 -0.0818732 6.34916e-22)
(-0.0023781 -0.0670556 -6.73336e-23)
(0.00394559 -0.0551529 2.74527e-22)
(0.0100094 -0.0432733 2.69068e-22)
(0.014111 -0.0329808 -2.26614e-22)
(0.016286 -0.0242186 -1.36005e-22)
(0.0169637 -0.0168124 3.03977e-22)
(0.0164776 -0.0107376 -8.19196e-38)
(0.0151843 -0.00595971 -4.17271e-22)
(0.0133989 -0.00240484 -3.80094e-22)
(0.0114067 1.73128e-05 4.94206e-23)
(0.00941652 0.00146948 -7.28411e-27)
(0.00759165 0.00208698 2.75666e-22)
(0.00597749 0.00205816 -2.63607e-22)
(0.00463711 0.00150475 6.25704e-23)
(0.00345444 0.00055638 -2.69861e-23)
(-0.0120141 0.339602 3.60407e-22)
(-0.0311263 0.308563 -1.2818e-20)
(-0.0489692 0.244358 1.18922e-21)
(-0.0649493 0.163389 -1.71625e-21)
(-0.0850056 0.0872203 3.11391e-21)
(-0.098568 0.0218843 1.08478e-23)
(-0.106657 -0.0306253 2.42551e-21)
(-0.109692 -0.0746644 1.06957e-20)
(-0.109513 -0.113194 -3.77211e-21)
(-0.103129 -0.141062 -1.00118e-20)
(-0.0745852 -0.138762 1.06777e-38)
(-0.0277665 -0.106669 6.48258e-22)
(0.00070258 -0.0799484 1.75431e-26)
(0.00795973 -0.0658466 4.85417e-22)
(0.0131687 -0.0525558 1.57751e-23)
(0.017519 -0.0402487 -1.61397e-21)
(0.0199328 -0.0297559 -2.73966e-22)
(0.0206594 -0.020868 8.72084e-22)
(0.0200654 -0.0134891 1.10052e-22)
(0.0184776 -0.00760045 -6.40074e-22)
(0.016264 -0.00315525 3.06293e-22)
(0.0137511 -3.71245e-05 6.95467e-22)
(0.0112176 0.0018961 9.60573e-27)
(0.00885298 0.00285231 1.80696e-22)
(0.006786 0.00301838 1.43431e-22)
(0.00502206 0.00259844 1.41192e-35)
(0.00358023 0.00175805 -4.49232e-23)
(0.00232911 0.000640035 0)
(-0.00761729 0.339755 -6.28081e-21)
(-0.020549 0.311547 1.35975e-20)
(-0.0321808 0.244413 -2.94174e-20)
(-0.0489436 0.171205 1.63707e-20)
(-0.0699509 0.089356 9.49039e-21)
(-0.085481 0.0219794 1.13847e-22)
(-0.0976401 -0.0319777 1.37255e-21)
(-0.104624 -0.0780119 9.35407e-21)
(-0.106072 -0.118436 8.04324e-21)
(-0.103305 -0.151785 -1.35559e-20)
(-0.0874801 -0.16403 0)
(-0.0461346 -0.139916 -5.70767e-21)
(-0.0026113 -0.0998757 1.74048e-22)
(0.01389 -0.0773251 -4.90106e-22)
(0.0177695 -0.062773 3.73593e-22)
(0.0217637 -0.0487051 -1.45228e-22)
(0.0243224 -0.0363066 1.22546e-21)
(0.0251272 -0.0257301 1.05864e-21)
(0.0244145 -0.0168527 1.32675e-22)
(0.022535 -0.00965723 1.787e-22)
(0.0198479 -0.00411987 5.50845e-22)
(0.0167448 -0.000162703 1.66898e-23)
(0.0135629 0.00238538 -6.33266e-22)
(0.0105687 0.00373251 2.42363e-22)
(0.00791867 0.00413354 3.0012e-23)
(0.00569616 0.00382677 -1.66894e-22)
(0.00386229 0.00302647 1.67973e-22)
(0.00239322 0.0019278 3.31015e-23)
(0.00112199 0.00065059 -2.60524e-22)
(-0.0030247 0.338371 1.67465e-20)
(-0.0105453 0.311105 3.46619e-22)
(-0.0199018 0.246882 -1.74403e-20)
(-0.0337856 0.17423 2.32757e-20)
(-0.0533549 0.0907761 1.66497e-20)
(-0.0686053 0.020414 6.38428e-21)
(-0.0848524 -0.0322751 -1.19178e-20)
(-0.0969515 -0.0800083 2.92134e-21)
(-0.101822 -0.123365 -1.89446e-22)
(-0.100436 -0.160515 -2.08573e-20)
(-0.09179 -0.183761 6.38106e-37)
(-0.0629235 -0.171917 2.30538e-20)
(-0.0134345 -0.130384 3.06141e-21)
(0.0174047 -0.0920151 1.90787e-22)
(0.0245379 -0.0736787 -4.8948e-21)
(0.0270993 -0.0582196 -8.07043e-22)
(0.0295964 -0.0439153 -1.53959e-22)
(0.030416 -0.0315193 1.9989e-22)
(0.0296388 -0.0209538 -1.21962e-22)
(0.0274646 -0.0122297 8.7477e-22)
(0.0242825 -0.00538913 2.08763e-22)
(0.020513 -0.000383132 -1.11422e-21)
(0.0165768 0.00292178 -1.63057e-22)
(0.0128157 0.00476787 3.78589e-22)
(0.00946909 0.00544422 3.8793e-23)
(0.00664292 0.00525088 1.11641e-27)
(0.0043663 0.00446914 2.61911e-23)
(0.00255024 0.0033187 -1.5219e-22)
(0.00113099 0.0020099 -3.13353e-22)
(-9.69623e-05 0.000625636 -1.08912e-25)
(0.00123966 0.335269 2.01266e-20)
(-0.000481342 0.308853 1.6881e-21)
(-0.00757251 0.245885 2.25257e-21)
(-0.0190616 0.175696 -2.54531e-20)
(-0.0371505 0.0979137 -3.15988e-20)
(-0.0525672 0.0212193 -2.55891e-20)
(-0.0686231 -0.0312951 9.23834e-23)
(-0.086837 -0.0794065 -1.1279e-20)
(-0.0962193 -0.126667 -5.35293e-21)
(-0.0971715 -0.16832 -9.66203e-21)
(-0.0909304 -0.198661 -2.29551e-34)
(-0.0720041 -0.203131 4.23915e-22)
(-0.0282787 -0.165977 5.43064e-22)
(0.0147324 -0.114619 3.55775e-22)
(0.0319892 -0.0847908 9.17629e-22)
(0.0340333 -0.068556 2.29228e-21)
(0.0357715 -0.0526027 7.51185e-22)
(0.036644 -0.0383116 -6.12401e-22)
(0.0357878 -0.0259189 -1.14173e-35)
(0.0333895 -0.0154627 8.32853e-22)
(0.0297064 -0.00705802 3.67898e-23)
(0.0252106 -0.000771224 4.63071e-24)
(0.0204009 0.00350155 -2.1893e-22)
(0.015725 0.00598223 1.07727e-21)
(0.0115118 0.00700626 -4.42612e-22)
(0.00794778 0.00694696 -1.48542e-27)
(0.00507469 0.00614343 -4.66836e-23)
(0.00285527 0.00490873 1.47228e-23)
(0.00114691 0.00345219 1.13936e-22)
(-0.000158657 0.00199856 -2.29005e-24)
(-0.00126898 0.000572084 2.20163e-22)
(0.00541005 0.331313 -5.2123e-21)
(0.00923014 0.304018 1.36974e-20)
(0.00462421 0.243064 3.34687e-21)
(-0.00361344 0.174641 1.27111e-20)
(-0.019269 0.0998186 -2.70788e-20)
(-0.0385541 0.0197051 -1.21554e-20)
(-0.053189 -0.0256521 9.76165e-21)
(-0.0742993 -0.0757101 1.21011e-20)
(-0.0893785 -0.12701 1.38809e-20)
(-0.0933808 -0.174927 -3.79051e-21)
(-0.0887948 -0.2114 -3.50113e-35)
(-0.0749746 -0.227346 -1.19976e-20)
(-0.0426814 -0.204249 1.42915e-21)
(0.00543888 -0.149082 2.01054e-22)
(0.0367506 -0.101645 -2.68885e-21)
(0.0428213 -0.07841 -3.71018e-22)
(0.0430665 -0.0621984 1.90938e-21)
(0.0437129 -0.0461468 2.87498e-22)
(0.0429406 -0.031886 1.6803e-22)
(0.0403819 -0.0195053 -1.36344e-22)
(0.0362689 -0.00928613 -1.53691e-22)
(0.0310161 -0.0014101 2.27703e-22)
(0.0252157 0.0040824 8.08003e-22)
(0.0194527 0.00739656 -7.544e-22)
(0.0141791 0.00888443 7.97915e-23)
(0.00967877 0.00898927 4.14706e-23)
(0.00605969 0.00815672 -5.90703e-23)
(0.00328194 0.00675762 0)
(0.00123227 0.00511731 -4.11665e-22)
(-0.000280431 0.0034172 -1.41236e-22)
(-0.00141302 0.00188996 2.38832e-22)
(-0.00234244 0.000501113 -1.77499e-22)
(0.00897382 0.32474 -1.94341e-21)
(0.0183159 0.297176 2.38352e-21)
(0.0167074 0.238253 -4.31299e-21)
(0.0105434 0.172457 7.84245e-21)
(-0.00159237 0.102516 4.88737e-20)
(-0.023842 0.022154 2.27714e-21)
(-0.0404439 -0.0196739 9.01235e-21)
(-0.0623685 -0.0670908 3.40484e-21)
(-0.0806587 -0.124828 1.45955e-20)
(-0.0893521 -0.178978 -3.8714e-21)
(-0.086053 -0.223662 -3.32056e-21)
(-0.0746536 -0.247253 -1.26848e-21)
(-0.0502611 -0.239073 -1.07315e-23)
(-0.00637294 -0.186978 -7.65725e-22)
(0.0359963 -0.125015 -5.94285e-22)
(0.0514995 -0.0904982 -6.25813e-22)
(0.0518794 -0.0718726 -1.56135e-21)
(0.0516634 -0.0550086 -3.90872e-21)
(0.0509686 -0.0389086 -1.60067e-21)
(0.0484905 -0.024565 -1.76383e-21)
(0.0440858 -0.0122517 -5.39852e-22)
(0.0381226 -0.00246281 2.19212e-22)
(0.0312457 0.00460644 1.68376e-21)
(0.0242007 0.00901437 -4.96468e-22)
(0.0176345 0.0111347 7.06157e-22)
(0.01196 0.0114815 5.39829e-23)
(0.00737688 0.0106003 -3.37537e-22)
(0.00388514 0.00899787 0)
(0.00134802 0.00705236 -4.99169e-22)
(-0.000425559 0.00507868 -9.88107e-23)
(-0.00166112 0.00321694 1.60541e-22)
(-0.00256372 0.00168721 -1.62482e-22)
(-0.00326899 0.00041565 -5.2442e-25)
(0.0126525 0.316854 -2.17374e-21)
(0.0268069 0.28769 -1.7891e-20)
(0.0282519 0.231486 2.52838e-21)
(0.0243798 0.168937 3.10622e-22)
(0.0140559 0.102613 3.55335e-20)
(-0.00847256 0.0303672 2.81048e-21)
(-0.0291454 -0.0134087 -1.20891e-20)
(-0.0512869 -0.0566485 -6.04353e-21)
(-0.0724944 -0.117658 2.99919e-21)
(-0.0833075 -0.181878 1.00455e-20)
(-0.0839397 -0.233684 1.41747e-25)
(-0.0725501 -0.267344 -8.41394e-22)
(-0.0527873 -0.267802 4.93955e-22)
(-0.0167376 -0.228334 8.23155e-21)
(0.0302677 -0.158305 5.41068e-22)
(0.0576016 -0.105433 4.96883e-22)
(0.061468 -0.0816256 3.04882e-21)
(0.0604687 -0.0644434 7.61214e-22)
(0.059782 -0.0471359 9.78219e-26)
(0.0576055 -0.0307767 -2.37809e-22)
(0.0532158 -0.0162296 2.28537e-22)
(0.0467134 -0.00412589 -9.80204e-24)
(0.0387407 0.00492894 -2.39187e-21)
(0.0302395 0.0108206 2.36781e-21)
(0.0220931 0.0138198 -9.96211e-22)
(0.0149501 0.0145245 1.74208e-36)
(0.00913123 0.013617 8.25863e-23)
(0.00470109 0.0117332 5.33505e-23)
(0.00152547 0.0094115 -6.26695e-22)
(-0.000632002 0.00700335 1.82526e-27)
(-0.00203413 0.00478977 3.80396e-22)
(-0.00292694 0.00286086 7.58283e-23)
(-0.00355125 0.00139992 8.00681e-23)
(-0.0040038 0.000309105 5.29421e-23)
(0.0147602 0.306824 2.66786e-21)
(0.0336561 0.276001 2.94374e-21)
(0.038942 0.222785 -1.2202e-21)
(0.0378173 0.164379 -1.29996e-20)
(0.0279158 0.103086 1.5453e-21)
(0.00714827 0.0427144 -3.26439e-20)
(-0.0191354 -0.0107905 -1.80919e-21)
(-0.0400211 -0.0442075 2.03602e-20)
(-0.0642509 -0.10934 1.04888e-20)
(-0.0764488 -0.17917 -6.05246e-21)
(-0.0797371 -0.244364 1.36288e-20)
(-0.0713553 -0.284059 1.11626e-20)
(-0.0521233 -0.297243 1.34928e-22)
(-0.0221622 -0.265672 1.94146e-22)
(0.0215237 -0.197494 -1.11549e-20)
(0.0597135 -0.128643 -1.18559e-21)
(0.0709466 -0.0920914 6.34019e-22)
(0.0699166 -0.0740378 -2.44962e-21)
(0.0691788 -0.0563746 8.79821e-35)
(0.0676166 -0.0384732 3.56338e-21)
(0.0636416 -0.0215029 2.29578e-21)
(0.0569299 -0.00673607 8.81011e-22)
(0.0479797 0.00486793 -1.31412e-22)
(0.0378766 0.0127238 2.15472e-21)
(0.0278595 0.0169866 1.58775e-21)
(0.0188629 0.01825 -9.44369e-23)
(0.0114601 0.017352 1.05239e-21)
(0.0058049 0.0151416 -5.37484e-22)
(0.0017776 0.0123049 -7.84059e-22)
(-0.000900981 0.00936117 -2.65494e-27)
(-0.00255612 0.00660653 4.21535e-22)
(-0.00350985 0.00426277 -3.68313e-22)
(-0.00401519 0.00236583 3.1693e-36)
(-0.00432679 0.00104433 1.11125e-22)
(-0.00450948 0.000183997 0)
(0.0214961 0.292307 9.58355e-22)
(0.0428614 0.261753 1.38447e-20)
(0.0493988 0.212277 1.16773e-20)
(0.0504136 0.158759 -2.2276e-21)
(0.041243 0.103623 -1.55781e-20)
(0.0218051 0.0506908 1.74024e-20)
(-0.00811405 -0.00464048 1.71696e-20)
(-0.0292162 -0.0311762 4.51682e-20)
(-0.0541086 -0.101489 3.87817e-20)
(-0.0689474 -0.174773 -4.27675e-20)
(-0.0730468 -0.247497 -2.2679e-20)
(-0.0689112 -0.30407 -1.15459e-21)
(-0.0508747 -0.320246 5.45006e-22)
(-0.0245081 -0.303367 1.09045e-21)
(0.0150511 -0.23926 1.19691e-21)
(0.0569282 -0.158499 3.98171e-21)
(0.0787134 -0.106378 5.97924e-22)
(0.0800923 -0.0835753 -6.40784e-22)
(0.0789439 -0.0668484 -6.39485e-22)
(0.078415 -0.0479212 -7.69355e-22)
(0.0754174 -0.0286952 -2.3256e-21)
(0.0689786 -0.0107807 -1.24778e-21)
(0.0592863 0.00403082 4.07183e-21)
(0.0475213 0.0146029 -2.21173e-23)
(0.0352933 0.0206428 -5.67441e-24)
(0.0240106 0.0227875 -1.28224e-22)
(0.0145539 0.0220106 1.0943e-22)
(0.00729672 0.0194047 3.08147e-23)
(0.00213972 0.0159335 -8.53531e-23)
(-0.0012431 0.0122614 1.2147e-22)
(-0.00326486 0.00883816 5.29934e-22)
(-0.00432296 0.00587842 -3.37008e-22)
(-0.0047774 0.00352424 -2.07646e-22)
(-0.00487121 0.0017561 -2.41813e-23)
(-0.00485502 0.000639655 -3.19403e-23)
(-0.00476146 4.91041e-05 9.0109e-24)
(0.0260312 0.27099 5.37206e-22)
(0.0513431 0.241668 -2.3492e-21)
(0.0589945 0.20022 2.49189e-21)
(0.0618112 0.152711 2.70471e-20)
(0.053608 0.103986 -2.08154e-20)
(0.0351957 0.0571403 -1.97543e-20)
(0.00636826 0.00970898 1.37165e-20)
(-0.0179243 -0.0222377 -6.47447e-21)
(-0.041247 -0.093806 -3.21647e-20)
(-0.0592198 -0.171411 -5.77124e-21)
(-0.0661111 -0.247925 2.5478e-20)
(-0.0628174 -0.313773 2.52984e-21)
(-0.0508022 -0.349649 4.22888e-21)
(-0.022713 -0.333714 -5.88134e-21)
(0.00972588 -0.279395 -3.19548e-21)
(0.052555 -0.19579 -6.12339e-22)
(0.0826307 -0.125004 7.42122e-21)
(0.0898386 -0.093929 5.92185e-22)
(0.0890125 -0.0778329 1.73232e-21)
(0.0895274 -0.0597015 2.77884e-21)
(0.0885022 -0.0385978 -3.28741e-21)
(0.0832114 -0.0172544 -3.25851e-21)
(0.0732414 0.00171244 -7.84162e-21)
(0.0597681 0.0160213 -1.37182e-21)
(0.0449688 0.0247582 -1.86424e-22)
(0.0307923 0.0282903 1.36846e-21)
(0.0186919 0.0278203 6.22766e-22)
(0.00931697 0.0247939 -1.23904e-21)
(0.00266202 0.0205057 -1.9675e-21)
(-0.00166926 0.0159131 -3.95904e-22)
(-0.00419411 0.0115872 7.00354e-22)
(-0.00543695 0.00786429 -4.24546e-22)
(-0.00583999 0.004856 5.63369e-27)
(-0.00577228 0.00261355 -4.03625e-23)
(-0.00545328 0.00106316 1.37674e-36)
(-0.00511318 0.000206353 6.28461e-23)
(-0.00474904 -8.65182e-05 -1.13356e-28)
(0.029648 0.245202 -2.45124e-21)
(0.0583297 0.217836 -2.8713e-21)
(0.0678968 0.185841 -5.07343e-21)
(0.0714367 0.146209 4.45411e-24)
(0.0645493 0.104439 1.02555e-20)
(0.0475439 0.0638944 -2.04555e-20)
(0.020802 0.0198549 -1.57848e-21)
(-0.00446648 -0.0215683 2.82689e-20)
(-0.0261405 -0.0859105 -4.07113e-20)
(-0.0472338 -0.168213 1.39022e-20)
(-0.0571231 -0.248974 3.12269e-20)
(-0.0571271 -0.319894 3.98808e-21)
(-0.0466575 -0.366564 -9.50128e-21)
(-0.0244256 -0.369955 -4.4194e-22)
(0.0102781 -0.318746 1.75879e-21)
(0.0470112 -0.232296 -1.80682e-21)
(0.0827967 -0.151113 -2.8725e-22)
(0.0975669 -0.10511 -1.36397e-20)
(0.0984402 -0.0887865 -2.54816e-21)
(0.10004 -0.0729366 8.07696e-22)
(0.101786 -0.0515527 4.65943e-22)
(0.0992606 -0.0270799 9.58428e-21)
(0.0903392 -0.00330591 1.09048e-21)
(0.0756155 0.0161863 3.25897e-23)
(0.0578142 0.0289067 5.33318e-22)
(0.0399653 0.0348372 5.73383e-35)
(0.024283 0.0351028 -3.72053e-22)
(0.01207 0.0316298 3.1567e-23)
(0.00341297 0.0263387 -1.37574e-22)
(-0.00218804 0.0205372 1.1131e-21)
(-0.0054025 0.0150542 2.87868e-22)
(-0.00690721 0.0103098 -5.86496e-22)
(-0.00729944 0.00649055 -7.70673e-27)
(-0.00702821 0.00359476 1.15384e-22)
(-0.00644604 0.00157947 8.02438e-23)
(-0.00573504 0.00032283 -3.23446e-23)
(-0.00509075 -0.000234411 9.16397e-24)
(-0.00447517 -0.000215227 -2.13778e-23)
(0.034841 0.215685 -1.47547e-21)
(0.0648122 0.189484 1.11502e-22)
(0.0764523 0.168788 -1.21244e-20)
(0.0809378 0.138978 -6.86418e-21)
(0.0739572 0.104479 -4.2572e-22)
(0.0586303 0.0698069 -1.00138e-20)
(0.0346584 0.0298445 -1.23577e-20)
(0.00910163 -0.0176129 -1.87676e-20)
(-0.0109659 -0.07806 -1.4133e-20)
(-0.0334457 -0.16552 -8.7745e-21)
(-0.0462969 -0.249257 -1.62797e-20)
(-0.0502089 -0.325783 -9.25892e-22)
(-0.0425689 -0.377721 -7.98456e-21)
(-0.017775 -0.395219 3.11545e-22)
(0.00933465 -0.352226 -2.77629e-21)
(0.0440905 -0.273758 -1.06593e-21)
(0.079991 -0.178281 6.1556e-21)
(0.101623 -0.120098 1.77886e-21)
(0.106307 -0.0983145 2.10455e-22)
(0.108615 -0.0862997 -8.21548e-22)
(0.113233 -0.0659688 -1.90856e-35)
(0.114566 -0.0394522 -6.92073e-21)
(0.108942 -0.0110134 -3.53849e-21)
(0.0948089 0.014201 4.01194e-22)
(0.0749474 0.0324845 3.66056e-21)
(0.0527861 0.0421651 -3.07093e-21)
(0.0322376 0.0440852 4.82476e-21)
(0.0159392 0.0403754 -1.45934e-22)
(0.00449241 0.0338183 -2.30221e-21)
(-0.00281744 0.0264695 -2.3088e-22)
(-0.0069596 0.0194543 -3.52301e-22)
(-0.00883667 0.0133912 -5.82541e-22)
(-0.00922925 0.00849844 5.26452e-22)
(-0.00875272 0.00479432 1.47537e-22)
(-0.00782885 0.0021639 0)
(-0.0067689 0.000476105 -1.21626e-22)
(-0.0057056 -0.000427533 1.55537e-22)
(-0.00479054 -0.000661471 -4.89549e-23)
(-0.00395514 -0.000330896 -2.60253e-23)
(0.0394491 0.18439 -8.43987e-22)
(0.0704722 0.162394 -1.5678e-22)
(0.0831794 0.149106 1.44882e-20)
(0.0902365 0.130458 -7.03164e-26)
(0.0838976 0.104987 -5.59861e-21)
(0.068641 0.0744268 -9.27849e-21)
(0.0475821 0.0375238 1.01231e-20)
(0.0227043 -0.0137692 1.55707e-22)
(0.00325063 -0.0713982 -2.45421e-22)
(-0.0185684 -0.163214 -4.6397e-21)
(-0.0341541 -0.24949 -1.67997e-22)
(-0.0416343 -0.3292 -2.58041e-21)
(-0.0391238 -0.388982 7.93611e-21)
(-0.016329 -0.40729 -6.90637e-21)
(-0.00252713 -0.386523 1.02803e-21)
(0.0434852 -0.30156 7.89925e-21)
(0.0749143 -0.21242 -1.21481e-20)
(0.10221 -0.135705 -5.54587e-21)
(0.111073 -0.107458 8.67422e-23)
(0.114433 -0.097538 2.05202e-20)
(0.121015 -0.0801996 -4.39574e-21)
(0.126206 -0.0514951 -6.78461e-21)
(0.124346 -0.0185491 -7.37843e-21)
(0.113148 0.0125291 4.93843e-21)
(0.0935421 0.0358507 -1.16452e-22)
(0.0695036 0.0501509 6.20824e-22)
(0.0438238 0.0548523 -2.94038e-22)
(0.021932 0.0514037 5.37918e-35)
(0.00625414 0.0434966 -3.07351e-21)
(-0.0035737 0.0341247 -6.51814e-22)
(-0.00897541 0.0251121 7.59086e-22)
(-0.0113504 0.0172986 -4.5916e-22)
(-0.011768 0.0110183 2.89701e-22)
(-0.0110319 0.00625956 1.29281e-22)
(-0.00972412 0.00287198 0)
(-0.00820699 0.00064001 1.27852e-23)
(-0.00672962 -0.000640748 -2.27384e-23)