/*--------------------------------*- C++ -*----------------------------------*\
| =========                 |                                                 |
| \\      /  F ield         | OpenFOAM: The Open Source CFD Toolbox           |
|  \\    /   O peration     | Version:  2506                                  |
|   \\  /    A nd           | Website:  www.openfoam.com                      |
|    \\/     M anipulation  |                                                 |
\*---------------------------------------------------------------------------*/
FoamFile
{
    version     2.0;
    format      ascii;
    arch        "LSB;label=32;scalar=64";
    class       volScalarField;
    location    "60.001527662331064";
    object      p;
}
// * * * * * * * * * * * * * * * * * * * * * * * * * * * * * * * * * * * * * //

dimensions      [0 2 -2 0 0 0 0];

internalField   nonuniform List<scalar> 
9700
(
0.00104135
0.00105804
0.00250094
0.00107831
0.00253624
0.00445169
0.00111985
0.00257203
0.00451279
0.00623555
0.00117064
0.00264783
0.00458913
0.00631827
0.00799521
0.00124104
0.00273947
0.0047332
0.00642756
0.00809722
0.00966869
0.00132792
0.00286479
0.0049154
0.00662634
0.00823713
0.00978708
0.0112574
0.00143706
0.00301631
0.00516015
0.00688114
0.00848605
0.00995303
0.0113892
0.0127485
0.00156813
0.00320227
0.00546018
0.00722069
0.0088073
0.0102443
0.0115766
0.0128905
0.0141376
0.00172428
0.00342034
0.0058285
0.00763768
0.00923313
0.0106216
0.0119025
0.0130946
0.0142867
0.0154204
0.00191456
0.00367195
0.00626452
0.00814809
0.00975607
0.0111199
0.0123255
0.0134471
0.0145027
0.0155734
0.0165956
0.00216233
0.00393989
0.00677273
0.00875244
0.0103944
0.0117313
0.0128824
0.0139052
0.0148737
0.0157966
0.0167494
0.0176642
0.00246134
0.00418336
0.00734206
0.00945702
0.0111494
0.012476
0.0135651
0.0145066
0.015356
0.0161781
0.0169753
0.017816
0.0186292
0.00271684
0.00439144
0.0079494
0.0102502
0.0120292
0.0133557
0.0143947
0.015243
0.015988
0.0166743
0.0173596
0.0180405
0.018776
0.0194958
0.00276666
0.00464097
0.00857703
0.0111061
0.0130243
0.0143801
0.0153734
0.0161363
0.0167607
0.0173231
0.0178598
0.0184202
0.0189954
0.0196326
0.0202681
0.00255379
0.00489863
0.00920745
0.011997
0.0141131
0.0155416
0.016512
0.0171884
0.0176964
0.0181154
0.0185122
0.0189149
0.0193636
0.0198441
0.0203926
0.0209489
0.00202624
0.00492292
0.00970557
0.0128944
0.0152632
0.0168219
0.0178049
0.0184111
0.0187966
0.0190729
0.019308
0.0195587
0.0198442
0.020195
0.0205925
0.0210661
0.02155
0.00134737
0.00436626
0.00977946
0.013663
0.0164237
0.0181852
0.0192372
0.0198003
0.0200735
0.0201968
0.0202678
0.0203429
0.0204679
0.0206534
0.0209213
0.0212484
0.0216561
0.0220777
0.000407426
0.0033795
0.0091668
0.0140142
0.0174541
0.0195717
0.0207733
0.0213438
0.0215238
0.0214992
0.0213924
0.0212869
0.0212266
0.0212468
0.0213502
0.0215507
0.0218199
0.0221722
0.022542
-0.000800462
0.00186866
0.00788281
0.0136577
0.0180985
0.0208513
0.0223475
0.0230082
0.0231375
0.0229772
0.0226933
0.0223906
0.0221379
0.0219673
0.0219043
0.0219437
0.0220915
0.0223158
0.0226228
0.0229514
-0.00239868
-0.00012761
0.00592547
0.0125063
0.0180702
0.0218109
0.023839
0.0247254
0.0248845
0.0246214
0.0241672
0.0236648
0.0232009
0.0228307
0.0225753
0.0224504
0.0224438
0.0225534
0.0227456
0.0230175
0.0233148
-0.00418367
-0.00262404
0.00332148
0.010578
0.017227
0.0221808
0.0250695
0.0263841
0.0266964
0.0264062
0.0258049
0.0251053
0.0244253
0.0238352
0.0233774
0.0230623
0.0228964
0.0228611
0.022947
0.0231189
0.0233662
0.0236417
-0.00569379
-0.00533929
0.000175842
0.00790385
0.0155397
0.0217478
0.0258102
0.0278244
0.0284711
0.028263
0.0275848
0.0267028
0.0258056
0.0249889
0.0243074
0.0237911
0.0234409
0.0232543
0.0232072
0.0232831
0.023446
0.0236786
0.0239414
-0.00647144
-0.00762466
-0.00327873
0.00458677
0.0130333
0.020434
0.0258091
0.0288672
0.0300509
0.0301015
0.0294378
0.0284381
0.0273325
0.026285
0.0253719
0.0246327
0.0240863
0.0237249
0.0235372
0.0234942
0.0235727
0.0237373
0.0239648
0.024223
-0.00713251
-0.00912473
-0.00647641
0.000867203
0.00977598
0.0182222
0.0249113
0.0292555
0.0312975
0.0317576
0.0312899
0.0302417
0.0289871
0.027714
0.0265622
0.0255915
0.0248275
0.0242789
0.0239291
0.0237587
0.0237344
0.0238276
0.0240034
0.0242341
0.0244946
-0.00706141
-0.0106358
-0.00919161
-0.00281231
0.00595525
0.0151368
0.0230371
0.0287594
0.0319796
0.0331041
0.0329663
0.0320592
0.030701
0.0292552
0.0278693
0.0266573
0.0256663
0.0249099
0.0243854
0.0240688
0.0239331
0.0239408
0.0240592
0.0242541
0.0244951
0.0247638
-0.00647431
-0.0105488
-0.0117163
-0.00623523
0.00190278
0.0113036
0.020153
0.0272194
0.0318193
0.0339494
0.0343205
0.0336977
0.0324352
0.0308447
0.0292682
0.0278202
0.0265912
0.0256168
0.0248984
0.0244235
0.0241603
0.0240748
0.0241263
0.0242783
0.0244986
0.0247563
0.0250369
-0.00572843
-0.00982164
-0.0121531
-0.00911749
-0.00216122
0.00692511
0.0163154
0.0245377
0.0305834
0.0340141
0.0352747
0.0350028
0.0339844
0.0324464
0.0307032
0.0290519
0.0275902
0.0263862
0.0254636
0.0248131
0.024412
0.0242205
0.0241987
0.024303
0.0244954
0.0247457
0.025024
0.02532
-0.00472232
-0.00884952
-0.0118198
-0.0102766
-0.00573424
0.0021525
0.0116098
0.0206918
0.0280918
0.0330237
0.0354359
0.0360366
0.0352335
0.0338638
0.0321287
0.0303038
0.0286328
0.0272039
0.0260655
0.0252295
0.0246755
0.02437
0.0242663
0.024319
0.0244828
0.0247199
0.0250023
0.0253021
0.0256154
-0.00363146
-0.00744105
-0.0110627
-0.0108474
-0.00780078
-0.00241152
0.00616005
0.0156656
0.0242323
0.0307043
0.0345027
0.0361595
0.0361334
0.0350206
0.0333772
0.0315188
0.0296742
0.0280374
0.0266863
0.0256539
0.0249388
0.0245079
0.0243177
0.0243145
0.0244491
0.0246763
0.0249593
0.0252735
0.0255949
0.0259247
-0.00247009
-0.00583074
-0.00979562
-0.0108686
-0.0092186
-0.00602025
0.000742124
0.00952118
0.0189036
0.0268234
0.0323232
0.0350967
0.0361282
0.0356622
0.0343648
0.0325595
0.0306493
0.0288422
0.0272912
0.0260646
0.0251789
0.0246173
0.0243338
0.0242749
0.024381
0.0246015
0.024892
0.0252192
0.0255629
0.0259041
0.0262473
-0.00131682
-0.00405695
-0.00815452
-0.0103244
-0.0102054
-0.00838342
-0.00401013
0.00321782
0.0120475
0.0212329
0.0283977
0.0329752
0.0349978
0.0355147
0.0348008
0.0333205
0.0314412
0.0295491
0.0278338
0.0264226
0.0253688
0.0246698
0.0242928
0.0241771
0.0242609
0.0244807
0.0247863
0.0251364
0.0255034
0.025872
0.0262292
0.0265812
-0.000217198
-0.00227522
-0.00624835
-0.00923233
-0.0106692
-0.00988919
-0.0076034
-0.00269466
0.00482159
0.0136716
0.0226003
0.0289671
0.0327762
0.0343206
0.0344951
0.0335448
0.0319304
0.0300521
0.028242
0.0266779
0.0254634
0.0246315
0.0241593
0.0239941
0.0240616
0.0242938
0.0246258
0.0250107
0.0254135
0.0258134
0.0261999
0.0265679
0.0269237
0.000789152
-0.000562595
-0.00422471
-0.00775955
-0.0105354
-0.010875
-0.0107653
-0.00710431
-0.00255054
0.00555524
0.0143861
0.0230245
0.0286264
0.031892
0.033128
0.033039
0.0318913
0.0302249
0.028414
0.0267535
0.0254061
0.0244485
0.0238912
0.0236826
0.0237507
0.0240099
0.0243888
0.0248249
0.0252794
0.0257246
0.026148
0.026544
0.0269165
0.0272703
0.00170463
0.00105119
-0.00216306
-0.00606846
-0.00979061
-0.011686
-0.0130583
-0.0113383
-0.00811699
-0.00325879
0.00539301
0.014289
0.0226
0.0275294
0.0304939
0.0314664
0.0311315
0.029867
0.0282194
0.0265466
0.0251116
0.0240531
0.0234219
0.0231911
0.0232766
0.0235915
0.0240414
0.0245567
0.0250834
0.0255937
0.026068
0.0265038
0.0269005
0.0272703
0.027616
0.00269995
0.00244464
-0.00014997
-0.0042402
-0.00866008
-0.012191
-0.0145072
-0.0152293
-0.0136025
-0.00997136
-0.00477872
0.00445656
0.0135219
0.0215039
0.0260109
0.0286331
0.0293309
0.0287855
0.0274744
0.0259209
0.0244697
0.0233457
0.0226673
0.0224364
0.0225765
0.0229789
0.0235423
0.0241702
0.0248039
0.0254028
0.025951
0.0264392
0.0268758
0.0272638
0.0276236
0.0279555
0.00337433
0.00404887
0.00153833
-0.00235846
-0.0072923
-0.0120872
-0.0156833
-0.0187149
-0.0187225
-0.0168249
-0.0125478
-0.00677768
0.00304861
0.0121957
0.0197828
0.0240336
0.0262873
0.0266927
0.0259836
0.024698
0.0233308
0.0221985
0.0215048
0.0213164
0.0215482
0.0220976
0.0228254
0.0236221
0.0244045
0.0251318
0.0257793
0.0263453
0.0268321
0.0272575
0.0276278
0.0279709
0.028284
0.00359865
0.00526612
0.00348382
-0.000750729
-0.00576133
-0.0114829
-0.0166465
-0.0215197
-0.0233842
-0.0233823
-0.0206625
-0.0154471
-0.00862631
0.00134629
0.0105969
0.0177218
0.0215802
0.0233848
0.0234965
0.0226768
0.0215042
0.0204315
0.0197639
0.0196721
0.0200679
0.0208247
0.021806
0.0228418
0.0238413
0.0247456
0.0255355
0.026205
0.0267687
0.0272386
0.0276412
0.0279861
0.0283066
0.0285967
0.00339346
0.0059181
0.00524479
0.00133155
-0.00438172
-0.0105333
-0.0169897
-0.0233409
-0.0274111
-0.0294821
-0.0285816
-0.0246903
-0.0178589
-0.0108115
-0.000284767
0.0088046
0.0152399
0.0185311
0.0198162
0.0196455
0.018779
0.0178281
0.0172158
0.0172684
0.0179184
0.0190031
0.0203468
0.0217393
0.0230422
0.0242017
0.0251872
0.0260047
0.0266695
0.0272107
0.0276493
0.0280195
0.0283325
0.0286256
0.0288895
0.00299122
0.00612723
0.0064623
0.00343801
-0.00236337
-0.0095418
-0.0167721
-0.024337
-0.030646
-0.0348626
-0.0361105
-0.0338044
-0.0281329
-0.0202096
-0.0124055
-0.00170055
0.00665791
0.0121532
0.014713
0.0154246
0.0149905
0.0141728
0.0136273
0.0138458
0.014831
0.0163382
0.0182543
0.0201685
0.0219165
0.0234307
0.0246954
0.0257154
0.0265253
0.0271594
0.0276598
0.0280552
0.0283851
0.0286615
0.0289236
0.0291594
0.0025128
0.00612428
0.00719068
0.00509186
1.48351e-05
-0.0077552
-0.0163072
-0.024809
-0.033147
-0.0393322
-0.0428673
-0.0426021
-0.038257
-0.0307623
-0.0216175
-0.0129096
-0.00334399
0.0038955
0.00821588
0.00990357
0.00999397
0.009359
0.00879462
0.00911294
0.0105179
0.0125275
0.0151909
0.0179129
0.0203102
0.0223433
0.0239968
0.0253037
0.0263115
0.0270798
0.0276597
0.0281042
0.0284471
0.0287311
0.0289679
0.0291973
0.0294048
0.00202984
0.00584517
0.00753964
0.00623763
0.00210072
-0.00518803
-0.0149259
-0.0248405
-0.0347489
-0.0428643
-0.0485897
-0.0505473
-0.048047
-0.0413178
-0.0319872
-0.0215362
-0.0135981
-0.00555006
0.000206741
0.00313591
0.00382565
0.00329483
0.00268472
0.00286692
0.00459885
0.00702746
0.0107496
0.0146369
0.0179893
0.0207848
0.0230069
0.0247144
0.0260012
0.0269522
0.0276487
0.0281557
0.0285328
0.0288169
0.0290517
0.0292483
0.0294437
0.0296243
0.00161603
0.00540243
0.00727346
0.00691589
0.00376776
-0.00267333
-0.0122109
-0.0239581
-0.0351512
-0.045364
-0.0531403
-0.0573461
-0.0568788
-0.0515856
-0.0424539
-0.0315783
-0.0213194
-0.0147426
-0.00870591
-0.00475679
-0.00342356
-0.00380145
-0.00474811
-0.00477865
-0.00313109
-0.000211307
0.00423383
0.00993806
0.0145873
0.0185136
0.0215818
0.023872
0.0255488
0.0267567
0.0276121
0.028213
0.0286331
0.0289353
0.0291574
0.0293424
0.0294996
0.029662
0.0298156
0.00131954
0.00494911
0.00671749
0.00707799
0.00495122
-0.000346431
-0.00924071
-0.0210433
-0.0346316
-0.0462675
-0.0564752
-0.0626865
-0.0644712
-0.0608407
-0.0526348
-0.0416101
-0.0304323
-0.021458
-0.0168217
-0.0132346
-0.0113577
-0.0118009
-0.0130781
-0.0138249
-0.0124012
-0.00886666
-0.00386504
0.00377766
0.00981276
0.0151334
0.0194866
0.0226506
0.0248904
0.0264577
0.0275367
0.0282665
0.0287547
0.029079
0.0293029
0.0294633
0.0296001
0.0297203
0.0298537
0.0299814
0.00111293
0.00440606
0.00616114
0.00692822
0.00570692
0.00159813
-0.00614102
-0.0175268
-0.0313702
-0.0462491
-0.057652
-0.0666243
-0.0702816
-0.0687955
-0.0618188
-0.051217
-0.0395257
-0.0293237
-0.0224834
-0.0203532
-0.0195384
-0.0199592
-0.0221552
-0.0236612
-0.0231734
-0.0193408
-0.0133496
-0.00405785
0.00381064
0.010478
0.0163583
0.0208296
0.0239207
0.0260042
0.0273966
0.0283089
0.0288922
0.0292574
0.0294827
0.029629
0.0297306
0.029823
0.0299105
0.0300178
0.0301231
0.000979427
0.00384235
0.00552622
0.00659596
0.0060933
0.0031187
-0.00328348
-0.0134899
-0.0271728
-0.0425123
-0.0578797
-0.0679109
-0.0745035
-0.0747144
-0.0695937
-0.0598423
-0.0480826
-0.0371569
-0.0290401
-0.0249667
-0.0256647
-0.028015
-0.0308002
-0.0341516
-0.0346616
-0.031721
-0.0245539
-0.0148691
-0.00407224
0.00436197
0.0121655
0.0181119
0.0224427
0.0253112
0.027153
0.0283231
0.0290435
0.0294687
0.0297077
0.0298358
0.0299089
0.0299572
0.030011
0.0300707
0.030156
0.0302432
0.000870414
0.00331413
0.00489886
0.00612302
0.00616532
0.00419962
-0.000769862
-0.00953126
-0.0220118
-0.0374933
-0.0535004
-0.0681213
-0.076143
-0.0788859
-0.0752415
-0.0669801
-0.0556825
-0.0443549
-0.0354773
-0.0302491
-0.0292729
-0.0329855
-0.0390589
-0.0436031
-0.0468101
-0.0448028
-0.0382732
-0.0272406
-0.0148361
-0.0036777
0.00676165
0.0145114
0.0202254
0.0242137
0.0267403
0.0282811
0.0291992
0.0297148
0.0299794
0.0300953
0.0301323
0.0301398
0.0301426
0.0301648
0.0302029
0.0302711
0.0303447
0.000781921
0.00284467
0.00433728
0.00559852
0.00602901
0.00490296
0.00126763
-0.00582201
-0.0167646
-0.0310425
-0.04753
-0.0630953
-0.0760052
-0.0808048
-0.0789443
-0.0720191
-0.0618186
-0.05061
-0.0412091
-0.0352737
-0.0333106
-0.0355695
-0.0427675
-0.0526006
-0.0573398
-0.0587264
-0.0527011
-0.0419502
-0.0275694
-0.0135198
-0.000548035
0.00983378
0.0172707
0.0225322
0.0260268
0.0281343
0.0293396
0.0299925
0.0303021
0.0304115
0.0304131
0.0303693
0.0303213
0.0302879
0.0302865
0.03031
0.0303663
0.0304315
0.000707278
0.00245925
0.00384418
0.00509126
0.00575741
0.00528994
0.0028282
-0.00262392
-0.0116832
-0.0243656
-0.0396994
-0.0561952
-0.0699066
-0.0802548
-0.0802165
-0.0750152
-0.0659652
-0.0554708
-0.0459813
-0.0394977
-0.0368719
-0.038201
-0.0445587
-0.0557137
-0.0673204
-0.0705687
-0.0683776
-0.057306
-0.0424565
-0.025601
-0.00991068
0.0033605
0.0133268
0.0202264
0.0248676
0.0277808
0.0294308
0.0302884
0.0306779
0.0307903
0.0307566
0.0306575
0.030546
0.0304546
0.0303956
0.0303794
0.0303956
0.0304455
0.0305076
0.000649653
0.00215016
0.00343435
0.004624
0.00543194
0.00542274
0.00393333
-4.93614e-06
-0.00717802
-0.0177997
-0.031564
-0.0470059
-0.062392
-0.0729221
-0.079628
-0.0753479
-0.0680886
-0.0584893
-0.0493562
-0.0426141
-0.0393184
-0.0402694
-0.0458875
-0.0573279
-0.0694048
-0.0818122
-0.0814085
-0.0743838
-0.0581897
-0.0398592
-0.0213382
-0.00515048
0.00775223
0.0170162
0.0231728
0.0270995
0.0293942
0.0305802
0.0310972
0.0312372
0.0311692
0.0310103
0.0308276
0.030664
0.0305427
0.0304697
0.0304479
0.0304642
0.0305135
0.0305775
0.000607034
0.00190745
0.00310168
0.00422588
0.00510461
0.00540365
0.00463836
0.00201588
-0.00336723
-0.0118965
-0.0235058
-0.0375562
-0.0520236
-0.0651785
-0.0720824
-0.0746924
-0.0677722
-0.0595963
-0.0510458
-0.0442444
-0.0407275
-0.0416104
-0.0466089
-0.0566983
-0.0707412
-0.0836568
-0.0940501
-0.0879158
-0.0757239
-0.0554588
-0.0345805
-0.0154916
0.000313401
0.0123716
0.0206474
0.0259601
0.0291275
0.0308061
0.0315465
0.0317448
0.0316589
0.0314342
0.031172
0.0309255
0.0307271
0.0305906
0.0305154
0.030497
0.0305208
0.0305754
0.030646
0.000575651
0.00171909
0.00283881
0.00390038
0.00480458
0.00530731
0.00505684
0.0034563
-0.000294107
-0.00681168
-0.0162123
-0.0281482
-0.0415491
-0.0540963
-0.0640893
-0.0674067
-0.0668026
-0.0585681
-0.050971
-0.0444683
-0.0412926
-0.0419454
-0.0463824
-0.0548616
-0.0688708
-0.0850271
-0.0963688
-0.102207
-0.0888716
-0.0721433
-0.0493486
-0.0274237
-0.00876647
0.0060432
0.016886
0.0240554
0.0284763
0.0308803
0.0319751
0.0323062
0.0322188
0.031938
0.0315849
0.0312444
0.030956
0.0307414
0.0306044
0.0305387
0.0305328
0.0305709
0.0306363
0.0307181
0.000553731
0.00157356
0.00263567
0.00364113
0.00455151
0.00517854
0.00527776
0.00443826
0.00199835
-0.00266148
-0.00992887
-0.0197545
-0.0310564
-0.0429861
-0.0530146
-0.0593943
-0.0596342
-0.0569094
-0.0491481
-0.0435285
-0.0404314
-0.04059
-0.0446036
-0.0521085
-0.0656465
-0.0821886
-0.0977671
-0.105501
-0.104969
-0.0854061
-0.0645676
-0.0408109
-0.0192795
-0.0017945
0.0116334
0.0210795
0.0271257
0.0306415
0.0323114
0.0328764
0.0328469
0.0325145
0.0320747
0.0316252
0.0312338
0.0309267
0.0307144
0.0305917
0.0305468
0.030562
0.0306204
0.0307016
0.0307984
0.000536723
0.00146358
0.00248035
0.0034404
0.00434461
0.00505029
0.00539029
0.00506999
0.00364317
0.000471669
-0.00482491
-0.0128123
-0.0218874
-0.0318346
-0.0416756
-0.0488162
-0.0518115
-0.0500756
-0.0465272
-0.041074
-0.0379529
-0.0378535
-0.0412481
-0.0484309
-0.0612306
-0.0776826
-0.0944558
-0.107037
-0.108637
-0.101159
-0.0774474
-0.0542855
-0.0310606
-0.0109619
0.00493758
0.0168099
0.0248102
0.0297765
0.0324013
0.0333952
0.0335004
0.0331648
0.0326331
0.0320743
0.0315628
0.0311493
0.0308467
0.0306553
0.0305612
0.0305476
0.0305912
0.0306751
0.0307763
0.030891
0.000527433
0.00137871
0.00236493
0.00328697
0.00418241
0.00493552
0.00543579
0.00547788
0.0047582
0.00280142
-0.000914388
-0.00679546
-0.0141732
-0.0220097
-0.030551
-0.0377825
-0.0420584
-0.0424918
-0.0400145
-0.037068
-0.0343865
-0.0340482
-0.037004
-0.043668
-0.0554867
-0.071578
-0.0891428
-0.103681
-0.110774
-0.104849
-0.0924264
-0.066519
-0.0429263
-0.0212491
-0.00306256
0.0111296
0.0213882
0.027999
0.0319421
0.0337222
0.0341288
0.0338452
0.0332619
0.0325823
0.0319468
0.0314093
0.0310023
0.0307274
0.0305749
0.0305226
0.0305492
0.0306276
0.0307408
0.0308649
0.0309993
0.000518371
0.00131922
0.00227719
0.00317334
0.00405732
0.00484112
0.00544804
0.00573679
0.00550151
0.00443149
0.00205287
-0.00194585
-0.00740085
-0.0129474
-0.0205765
-0.0271867
-0.0317683
-0.0336549
-0.0326312
-0.0305657
-0.0289966
-0.02946
-0.031862
-0.0379495
-0.0485439
-0.0638048
-0.0816283
-0.0980691
-0.107987
-0.107855
-0.0959505
-0.08015
-0.0544045
-0.0318889
-0.0121532
0.00409723
0.0166051
0.0252543
0.0306095
0.0335701
0.0346104
0.0345163
0.0339146
0.0331488
0.0323752
0.0317067
0.0311783
0.0308068
0.030582
0.0304848
0.0304858
0.0305602
0.0306779
0.0308225
0.0309713
0.0311256
0.000516889
0.00127198
0.0022165
0.00308767
0.00396459
0.00476567
0.00544637
0.00590285
0.00600088
0.00552997
0.0041945
0.00158465
-0.00215021
-0.00653383
-0.0117051
-0.0176675
-0.0220061
-0.0243673
-0.0245929
-0.0231977
-0.0222831
-0.0225782
-0.0262215
-0.0313218
-0.0408426
-0.0547275
-0.0721093
-0.0896059
-0.1025
-0.10629
-0.0996735
-0.084049
-0.0661934
-0.0427653
-0.0219811
-0.00411732
0.0103798
0.021243
0.02836
0.032612
0.0346844
0.0350684
0.0345593
0.0337253
0.0328429
0.0320295
0.0313706
0.0308868
0.0305786
0.0304248
0.0303975
0.0304613
0.0305887
0.0307481
0.0309245
0.0310979
0.0312708
0.000510019
0.00124422
0.00216805
0.00302853
0.00389461
0.00470918
0.00543819
0.0060125
0.00633671
0.006279
0.00564046
0.00416932
0.0016495
-0.00144986
-0.00519126
-0.00980186
-0.0132167
-0.0156371
-0.0163534
-0.0157225
-0.0147602
-0.0153883
-0.0176823
-0.0245459
-0.0324483
-0.0450458
-0.0611296
-0.0788185
-0.0937203
-0.101457
-0.0992629
-0.0882571
-0.0711084
-0.0533536
-0.0324477
-0.0134743
0.00279226
0.0157149
0.0249509
0.0307151
0.0339779
0.0352749
0.0350752
0.0342816
0.0333019
0.0323663
0.031565
0.0309589
0.0305542
0.0303355
0.0302713
0.030326
0.0304593
0.0306422
0.0308434
0.0310497
0.0312457
0.0314343
0.000512763
0.00121735
0.00214078
0.00298197
0.0038466
0.00466585
0.00543036
0.00608426
0.00656773
0.00678706
0.00662677
0.00591662
0.00448637
0.00233197
-0.000112993
-0.00291934
-0.00579867
-0.00783488
-0.00870446
-0.0084036
-0.00759805
-0.00752958
-0.00988251
-0.014184
-0.0243949
-0.0349049
-0.0496265
-0.0663563
-0.0823847
-0.0930906
-0.095435
-0.0888118
-0.0756453
-0.0591584
-0.0420806
-0.0238229
-0.00633958
0.00859968
0.0200231
0.0276857
0.0323557
0.0346973
0.0352871
0.0346822
0.033718
0.0326706
0.031743
0.0310058
0.030495
0.0302019
0.0300964
0.0301376
0.030283
0.0304892
0.030727
0.0309674
0.0311994
0.0314143
0.0316146
0.000509479
0.00120884
0.00211319
0.00295576
0.00380873
0.00463669
0.00542225
0.00613375
0.00672544
0.00713923
0.00729435
0.0071009
0.00643809
0.00521128
0.00357956
0.00194796
0.000299363
-0.00123065
-0.00196336
-0.00175614
-0.000998146
-0.000488851
-0.00153151
-0.00572758
-0.0120708
-0.0255515
-0.0377803
-0.0533335
-0.0692339
-0.0819663
-0.0880262
-0.0861088
-0.0771805
-0.0636824
-0.0495268
-0.0332949
-0.0168849
-0.000451274
0.0132832
0.0232166
0.0294884
0.0333004
0.0347857
0.0348018
0.0339575
0.0329002
0.0318588
0.0310012
0.0303794
0.0300042
0.029853
0.0298815
0.0300398
0.0302807
0.0305591
0.0308479
0.0311219
0.0313735
0.0316005
0.0318071
0.00119499
0.00210784
0.00292997
0.00378806
0.00461301
0.00541788
0.0061666
0.00683585
0.00738137
0.00775603
0.00789794
0.0077527
0.00724751
0.00635487
0.00538291
0.00466302
0.0040343
0.00367004
0.00396381
0.00479005
0.0055872
0.00550968
0.00325531
-0.00289333
-0.0113326
-0.0271991
-0.0399521
-0.055543
-0.0690286
-0.0778132
-0.0800504
-0.0758103
-0.0663483
-0.0549517
-0.0422383
-0.0266715
-0.0114767
0.0042615
0.0167348
0.0252739
0.0304701
0.0335446
0.0343103
0.0339112
0.0329289
0.03186
0.0308985
0.0301727
0.0297158
0.0295148
0.0295326
0.0297112
0.0299934
0.0303294
0.0306752
0.0310075
0.0313067
0.0315692
0.0318006
0.0320053
0.00209515
0.00292408
0.00376697
0.00460136
0.00541235
0.0061909
0.00691164
0.0075507
0.00807295
0.00844576
0.00863175
0.00861164
0.00835462
0.00791504
0.00766583
0.00777404
0.00805188
0.00862194
0.00958477
0.0106639
0.01121
0.0103557
0.0068322
-0.00127941
-0.0117375
-0.028679
-0.0417322
-0.0554401
-0.0658396
-0.0713558
-0.0713778
-0.0665493
-0.0584311
-0.0483268
-0.0373146
-0.0217398
-0.00749794
0.0077598
0.0188484
0.0263182
0.0307251
0.0330425
0.033279
0.0326471
0.0316284
0.0306339
0.0298255
0.0292922
0.0290485
0.0290575
0.0292667
0.0296054
0.0300123
0.0304375
0.0308411
0.0312057
0.0315191
0.031782
0.0320097
0.0322028
0.00291296
0.00376312
0.00458756
0.00541231
0.00620596
0.00696568
0.00766734
0.00829321
0.00881955
0.009231
0.0095155
0.00968483
0.00975087
0.00983325
0.0102653
0.0110806
0.0120973
0.0133141
0.0146464
0.0156965
0.0157842
0.0140028
0.00920314
-0.000645566
-0.0128689
-0.0308176
-0.0419986
-0.0529379
-0.0609784
-0.0645257
-0.0639613
-0.0595591
-0.0531158
-0.044278
-0.0344586
-0.0182329
-0.00493235
0.00996842
0.019667
0.026569
0.0302435
0.0318754
0.0317716
0.0310429
0.0300953
0.0292611
0.0286785
0.0283983
0.0284151
0.0286651
0.0290809
0.0295825
0.0301075
0.03061
0.0310573
0.0314399
0.0317542
0.032006
0.0322197
0.032392
0.00375283
0.00458687
0.00540749
0.00621916
0.00700169
0.00774924
0.00844436
0.00907689
0.00963663
0.0101242
0.0105535
0.0109637
0.0113976
0.0120019
0.0130234
0.0143978
0.0159358
0.0175354
0.0189781
0.0197769
0.0192495
0.0164176
0.0104282
-0.000810446
-0.0143101
-0.031137
-0.0400834
-0.049547
-0.0560737
-0.0590326
-0.0586984
-0.0558092
-0.0503593
-0.0425087
-0.0334461
-0.0162042
-0.00368824
0.0109101
0.0194035
0.0259212
0.0290294
0.0301141
0.0298481
0.0291462
0.0283695
0.0277831
0.027501
0.0275361
0.0278565
0.0283707
0.0289995
0.0296577
0.0302863
0.0308481
0.0313209
0.0317044
0.0320048
0.032233
0.0324219
0.0325643
0.00457942
0.00541073
0.00622426
0.00702834
0.00780447
0.00854919
0.0092522
0.00991235
0.010532
0.0111285
0.0117383
0.0124181
0.0132259
0.0143047
0.0157947
0.0175626
0.0194074
0.0211471
0.0224804
0.022846
0.0215902
0.0176403
0.0106248
-0.00162372
-0.0153655
-0.0300317
-0.0382942
-0.0465356
-0.0525937
-0.0558981
-0.0565731
-0.0547475
-0.0501887
-0.042727
-0.0342821
-0.0158038
-0.00352873
0.0107262
0.0186739
0.0245965
0.0271041
0.0278309
0.0275545
0.0269963
0.0264931
0.0262462
0.0263455
0.0267564
0.0274155
0.0282071
0.0290438
0.0298416
0.0305511
0.0311488
0.0316252
0.0319909
0.0322621
0.0324538
0.0326072
0.0327106
0.00540664
0.00623195
0.00704322
0.00784331
0.00861974
0.00937224
0.0100982
0.0108053
0.0115072
0.0122384
0.0130472
0.0139992
0.0151558
0.0166262
0.0184524
0.0204568
0.0224145
0.0240846
0.0251275
0.0249168
0.0228754
0.0178403
0.00998579
-0.00258995
-0.0160101
-0.029538
-0.0371777
-0.0450462
-0.051462
-0.0555874
-0.0574159
-0.0564778
-0.0522295
-0.0449926
-0.0366485
-0.0168217
-0.0043158
0.00958961
0.0173429
0.0225179
0.0245168
0.025081
0.0249252
0.0246315
0.0245112
0.0247077
0.0252743
0.0261137
0.0271359
0.0282041
0.029229
0.0301382
0.0308987
0.0315047
0.0319607
0.0322893
0.0325155
0.0326586
0.0327661
0.0328223
0.00623177
0.00705548
0.00786683
0.00866801
0.00945225
0.0102234
0.0109856
0.0117553
0.0125574
0.013436
0.0144451
0.015651
0.0171027
0.0188638
0.0208981
0.0229986
0.0249124
0.0263465
0.0269657
0.0260886
0.0232654
0.017316
0.00878639
-0.00370001
-0.017036
-0.0297856
-0.0375077
-0.0458043
-0.0530606
-0.0582909
-0.0616331
-0.0605559
-0.0566734
-0.049066
-0.0389472
-0.0188688
-0.00540921
0.00796106
0.0153139
0.0196465
0.0213251
0.0218909
0.0219878
0.0220874
0.0224805
0.0232428
0.0243559
0.0256672
0.0270604
0.0283842
0.0295619
0.0305445
0.0313203
0.0319041
0.032315
0.0325873
0.0327538
0.0328371
0.0328896
0.0328913
0.0070588
0.00788327
0.00869798
0.00950585
0.0103054
0.0111045
0.0119136
0.0127581
0.013669
0.0146952
0.0158913
0.0173126
0.0189883
0.0209359
0.0230593
0.025136
0.0268834
0.0279701
0.0280899
0.0265179
0.0229462
0.0163052
0.0072039
-0.00529625
-0.018868
-0.0315462
-0.0399063
-0.0492744
-0.0576418
-0.0653109
-0.0679233
-0.0674931
-0.063262
-0.0532043
-0.0413128
-0.0212135
-0.00654183
0.00585486
0.0124019
0.0160026
0.0175519
0.0182681
0.0187611
0.0194092
0.0204897
0.0219358
0.0236673
0.0254797
0.0272232
0.0287588
0.03004
0.0310498
0.0318016
0.0323315
0.0326734
0.0328716
0.0329652
0.0329795
0.0329689
0.03291
0.00788922
0.00871714
0.0095392
0.0103592
0.01118
0.0120142
0.0128785
0.0138031
0.0148222
0.0159862
0.0173409
0.0189265
0.0207481
0.0227814
0.0248879
0.0268398
0.028323
0.0290279
0.0285958
0.026342
0.0220493
0.0148037
0.00508216
-0.00775727
-0.0219937
-0.0353849
-0.0449578
-0.0557169
-0.0662338
-0.0736561
-0.0775163
-0.0770478
-0.0701963
-0.056559
-0.0435496
-0.0226146
-0.00794325
0.00292305
0.00851453
0.0115941
0.0131734
0.0141933
0.0152544
0.0166961
0.0186448
0.0208851
0.0233031
0.025604
0.027642
0.0293261
0.0306509
0.0316362
0.0323233
0.0327688
0.0330199
0.0331287
0.0331386
0.0330762
0.0329965
0.0328725
0.00872561
0.00955946
0.0103921
0.0112281
0.0120744
0.0129492
0.0138714
0.0148749
0.0159946
0.0172754
0.0187508
0.0204438
0.022332
0.0243594
0.0263577
0.0280973
0.0292915
0.0295373
0.0285272
0.0256122
0.0205964
0.0126946
0.00217284
-0.0114404
-0.0269343
-0.0417451
-0.0530708
-0.0651314
-0.0770175
-0.0859143
-0.0903593
-0.0869158
-0.0757638
-0.0586401
-0.0435111
-0.0235741
-0.0101376
-0.0011115
0.00360764
0.00633887
0.0080869
0.00957501
0.0115388
0.0140677
0.0170493
0.0202388
0.0233511
0.0260674
0.0283171
0.0300714
0.0313715
0.0322793
0.0328627
0.0331967
0.0333381
0.0333454
0.0332633
0.0331192
0.0329656
0.0327739
0.00956924
0.0104114
0.0112563
0.0121107
0.0129855
0.013902
0.0148803
0.0159565
0.0171606
0.0185298
0.0200832
0.0218245
0.0237053
0.0256468
0.0274603
0.02892
0.0297782
0.0294811
0.0278926
0.0243179
0.0185311
0.00982972
-0.00177421
-0.0167341
-0.0343185
-0.0509178
-0.0642356
-0.0797565
-0.0926891
-0.101959
-0.103302
-0.0948091
-0.0787665
-0.0578659
-0.0418382
-0.0250836
-0.0136528
-0.00642453
-0.0024729
-2.2579e-07
0.00204427
0.00441827
0.00777877
0.011588
0.0159177
0.0201505
0.0238518
0.0268733
0.0292316
0.0309649
0.0321702
0.0329502
0.0333954
0.033595
0.0336123
0.0335095
0.03333
0.0331014
0.032871
0.0326104
0.0104211
0.0112724
0.0121297
0.0130043
0.0139071
0.0148629
0.0158919
0.017028
0.018295
0.0197203
0.0213065
0.0230394
0.024847
0.0266356
0.0282028
0.0293287
0.0297262
0.028916
0.0267171
0.0224444
0.0157937
0.00607239
-0.00706232
-0.0241359
-0.0448182
-0.0632821
-0.0821428
-0.0986951
-0.111112
-0.11766
-0.113554
-0.0986676
-0.077189
-0.0546341
-0.0408239
-0.0278177
-0.0188278
-0.0133044
-0.0101178
-0.00787044
-0.0050729
-0.000938189
0.00402014
0.0096087
0.0155641
0.0206719
0.0248121
0.0280062
0.0303468
0.0319647
0.0330096
0.0336176
0.0338963
0.0339445
0.033828
0.0336102
0.033331
0.0330171
0.0327093
0.0323777
0.0112803
0.0121404
0.0130099
0.0139033
0.0148309
0.0158212
0.0168906
0.0180699
0.019375
0.0208219
0.0223964
0.0240693
0.0257474
0.0273298
0.0285993
0.0293427
0.0292308
0.027907
0.025035
0.0199921
0.0123295
0.00122702
-0.0141443
-0.0342521
-0.0591622
-0.0808253
-0.102692
-0.11854
-0.128639
-0.129832
-0.118264
-0.0971295
-0.0723913
-0.0518523
-0.0413623
-0.0324032
-0.026043
-0.0223529
-0.0200016
-0.0176986
-0.013032
-0.00681453
0.000471748
0.00884346
0.0160699
0.0218077
0.0262223
0.0294126
0.0316066
0.0330216
0.0338494
0.03425
0.0343418
0.0342277
0.0339727
0.0336388
0.0332604
0.0328625
0.0324795
0.0320773
0.0121448
0.013013
0.0138916
0.0148004
0.0157484
0.0167645
0.017861
0.0190643
0.0203808
0.0218147
0.0233364
0.0249041
0.0264065
0.0277407
0.0286707
0.0289973
0.028385
0.0264791
0.0228805
0.016957
0.00802251
-0.00504711
-0.0236121
-0.047667
-0.0777372
-0.100345
-0.123409
-0.136987
-0.141777
-0.135206
-0.116207
-0.0909881
-0.0668013
-0.0503294
-0.0444143
-0.039458
-0.0359958
-0.0345149
-0.0328757
-0.0294932
-0.0225809
-0.0142753
-0.00139466
0.00926489
0.0173997
0.0235768
0.0280094
0.031014
0.0329444
0.0340828
0.0346493
0.0348178
0.0347103
0.0344295
0.034036
0.0335886
0.0331141
0.0326355
0.0321786
0.0317101
0.013012
0.0138852
0.0147687
0.0156885
0.0166494
0.0176803
0.018789
0.0199956
0.0212963
0.0226847
0.0241168
0.0255409
0.0268312
0.0278826
0.0284474
0.0283313
0.0272004
0.024666
0.0202697
0.0132863
0.00263125
-0.0132268
-0.0359597
-0.0643087
-0.0983983
-0.120172
-0.141687
-0.150513
-0.147116
-0.132493
-0.108277
-0.0827772
-0.0623215
-0.0511582
-0.0504447
-0.0499735
-0.049738
-0.0508309
-0.0488926
-0.0428935
-0.0332667
-0.0173144
-0.00123558
0.0106242
0.0196237
0.0258772
0.0300601
0.0327192
0.0342905
0.0350964
0.0353718
0.0352944
0.0349837
0.034538
0.0340105
0.0334552
0.0328896
0.0323355
0.0318064
0.0312755
0.0138775
0.0147513
0.0156349
0.0165589
0.0175236
0.0185575
0.0196621
0.0208507
0.0221099
0.0234231
0.0247339
0.0259829
0.027033
0.027773
0.0279596
0.027382
0.0257004
0.0224914
0.0171883
0.00884119
-0.00420731
-0.0236967
-0.050965
-0.0825338
-0.118063
-0.137606
-0.153357
-0.154673
-0.143654
-0.122716
-0.0973955
-0.0751669
-0.0605288
-0.0549999
-0.0599421
-0.0652014
-0.0685242
-0.0714709
-0.0666116
-0.0557549
-0.0363479
-0.0152917
5.59481e-05
0.0133293
0.0226224
0.0285358
0.0322475
0.0344349
0.0355773
0.0360149
0.0359837
0.0356574
0.0351475
0.0345444
0.0338913
0.0332365
0.0325865
0.031963
0.0313661
0.030776
0.0147356
0.0156053