/*--------------------------------*- C++ -*----------------------------------*\
| =========                 |                                                 |
| \\      /  F ield         | OpenFOAM: The Open Source CFD Toolbox           |
|  \\    /   O peration     | Version:  2506                                  |
|   \\  /    A nd           | Website:  www.openfoam.com                      |
|    \\/     M anipulation  |                                                 |
\*---------------------------------------------------------------------------*/
FoamFile
{
    version     2.0;
    format      ascii;
    arch        "LSB;label=32;scalar=64";
    class       surfaceScalarField;
    location    "60.001527662331064";
    object      phi_0;
}
// * * * * * * * * * * * * * * * * * * * * * * * * * * * * * * * * * * * * * //

dimensions      [0 3 -1 0 0 0 0];

oriented        oriented;

internalField   nonuniform List<scalar> 
19160
(
-0.000321092
-0.228008
-0.000651392
-0.228063
-0.000408553
-0.227599
-0.00099669
-0.228202
-0.000830453
-0.227642
-0.000444235
-0.227155
-0.00136611
-0.228408
-0.00127601
-0.227756
-0.000903114
-0.227183
-0.000478025
-0.226677
-0.00176845
-0.228718
-0.00175946
-0.227924
-0.0013891
-0.22727
-0.000972115
-0.226689
-0.000497089
-0.22618
-0.00221519
-0.229121
-0.00229589
-0.228182
-0.0019184
-0.227395
-0.00149628
-0.226746
-0.00101088
-0.226175
-0.000503495
-0.225676
-0.00271905
-0.229631
-0.00290391
-0.228513
-0.00250862
-0.227591
-0.00206902
-0.226822
-0.00155613
-0.226201
-0.00102366
-0.225655
-0.000495767
-0.22518
-0.0032958
-0.230305
-0.00360538
-0.228929
-0.00318107
-0.227841
-0.00270995
-0.22695
-0.00215268
-0.226226
-0.00157535
-0.225649
-0.00100745
-0.225143
-0.000475265
-0.224705
-0.00396246
-0.231137
-0.00442768
-0.229483
-0.00396109
-0.228149
-0.00344305
-0.227108
-0.00282103
-0.226282
-0.00217889
-0.225622
-0.00154934
-0.225107
-0.000965049
-0.224653
-0.000442891
-0.224262
-0.00473694
-0.232238
-0.00540346
-0.230162
-0.00488031
-0.228564
-0.0042967
-0.227296
-0.00358645
-0.226342
-0.00285479
-0.225606
-0.00214133
-0.22503
-0.00148251
-0.22459
-0.000898327
-0.224198
-0.000399404
-0.223863
-0.00565432
-0.233604
-0.00657242
-0.231069
-0.00597804
-0.229064
-0.00530646
-0.227554
-0.00447852
-0.226403
-0.00362835
-0.225569
-0.00280297
-0.224945
-0.0020463
-0.224466
-0.00137789
-0.22411
-0.000808879
-0.223788
-0.000347315
-0.223516
-0.0068103
-0.234984
-0.00799681
-0.23218
-0.00730563
-0.229741
-0.00651734
-0.227853
-0.0055343
-0.226498
-0.00452892
-0.225503
-0.00355841
-0.224813
-0.00267423
-0.224317
-0.00189823
-0.223946
-0.00123808
-0.223681
-0.000701838
-0.223434
-0.000288496
-0.223227
-0.00831773
-0.235929
-0.00978854
-0.233192
-0.0089336
-0.230552
-0.00798937
-0.228269
-0.00680107
-0.226586
-0.00559308
-0.225434
-0.00443528
-0.224626
-0.00338827
-0.224099
-0.00247479
-0.22374
-0.00170103
-0.223483
-0.00107114
-0.223312
-0.000581008
-0.223141
-0.000225323
-0.223002
-0.0101085
-0.236554
-0.0120455
-0.233672
-0.0109499
-0.231176
-0.00979557
-0.228746
-0.00834265
-0.226728
-0.00686729
-0.225312
-0.00546775
-0.224402
-0.00421316
-0.223801
-0.00312653
-0.223448
-0.00221028
-0.223231
-0.00146609
-0.223088
-0.000883064
-0.22301
-0.000451241
-0.222915
-0.000159728
-0.222842
-0.0119068
-0.237771
-0.0146865
-0.233913
-0.013419
-0.231203
-0.0120017
-0.22897
-0.0102298
-0.226858
-0.00841441
-0.225181
-0.00669858
-0.224081
-0.00517918
-0.223436
-0.0038744
-0.223053
-0.00278116
-0.222877
-0.00189607
-0.222801
-0.00120194
-0.222769
-0.000681394
-0.222779
-0.000316745
-0.222758
-9.42963e-05
-0.222748
-0.0134916
-0.239457
-0.0174741
-0.234983
-0.0163196
-0.231013
-0.0146583
-0.228546
-0.0125036
-0.226696
-0.0103001
-0.224973
-0.00818538
-0.223694
-0.00632331
-0.222937
-0.00474373
-0.222566
-0.00343021
-0.222404
-0.00237239
-0.222401
-0.00154373
-0.222459
-0.000919228
-0.222531
-0.00047261
-0.222624
-0.00018312
-0.222669
-3.03612e-05
-0.222717
-0.0148274
-0.240214
-0.0202683
-0.236663
-0.0195355
-0.231767
-0.0178214
-0.22785
-0.0151939
-0.225856
-0.0125455
-0.224451
-0.00998754
-0.22317
-0.0076947
-0.222322
-0.00576444
-0.221916
-0.00417711
-0.221819
-0.00290685
-0.22187
-0.00191551
-0.222029
-0.00116746
-0.222211
-0.000627121
-0.222377
-0.000265264
-0.222541
-5.45653e-05
-0.222645
2.88026e-05
-0.222746
-0.0159591
-0.238941
-0.0230516
-0.237431
-0.0229259
-0.233273
-0.0214882
-0.228101
-0.0184227
-0.224621
-0.0151552
-0.223246
-0.0121138
-0.222324
-0.00934522
-0.22152
-0.00697533
-0.221112
-0.00504416
-0.221049
-0.00351323
-0.221213
-0.00232426
-0.221461
-0.00142896
-0.221767
-0.000779511
-0.222058
-0.000337534
-0.222304
-6.61801e-05
-0.22253
6.43609e-05
-0.222681
7.95865e-05
-0.222826
-0.016854
-0.235824
-0.0257201
-0.236273
-0.0263843
-0.233972
-0.0254914
-0.229269
-0.0223164
-0.224207
-0.0182858
-0.22149
-0.0145394
-0.220821
-0.0112793
-0.22039
-0.00841897
-0.220076
-0.00605916
-0.220097
-0.00420625
-0.220356
-0.00277787
-0.220759
-0.00170597
-0.221184
-0.000928634
-0.221618
-0.000395555
-0.222
-5.98988e-05
-0.222311
0.000117751
-0.222583
0.000169514
-0.222771
0.000122741
-0.222949
-0.0174353
-0.231081
-0.0282321
-0.233312
-0.0297708
-0.232886
-0.0296044
-0.229859
-0.0267339
-0.224852
-0.0221875
-0.220305
-0.0174093
-0.21862
-0.0134472
-0.218653
-0.010101
-0.218708
-0.00725349
-0.218882
-0.00500322
-0.2193
-0.00328388
-0.21985
-0.00200071
-0.220465
-0.0010722
-0.22104
-0.000434449
-0.221579
-2.79844e-05
-0.222032
0.000196398
-0.222389
0.000280164
-0.222694
0.00025769
-0.222906
0.000156147
-0.223105
-0.0175962
-0.224651
-0.0305379
-0.228775
-0.0330658
-0.230017
-0.0336994
-0.228791
-0.0313485
-0.225245
-0.0268058
-0.220234
-0.0210669
-0.216648
-0.0159404
-0.216127
-0.0119589
-0.216795
-0.00863491
-0.217327
-0.00592335
-0.217962
-0.0038502
-0.218733
-0.00231409
-0.219537
-0.00120711
-0.22033
-0.000447695
-0.221027
3.79151e-05
-0.221645
0.000310875
-0.222147
0.000422704
-0.222532
0.000416242
-0.222852
0.000325642
-0.223075
0.000178821
-0.223283
-0.0172024
-0.216588
-0.0325581
-0.222631
-0.0362194
-0.225622
-0.0377407
-0.225975
-0.0359511
-0.224189
-0.0317515
-0.220299
-0.0256079
-0.215693
-0.0191321
-0.213456
-0.0140108
-0.214075
-0.0101438
-0.215286
-0.00697354
-0.216277
-0.00448429
-0.217328
-0.00264595
-0.218401
-0.00132831
-0.219416
-0.000427313
-0.22035
0.000148158
-0.221137
0.000472798
-0.221807
0.000609817
-0.222334
0.000612094
-0.222728
0.000520895
-0.223048
0.000371606
-0.223268
0.000190013
-0.223473
-0.0162355
-0.207392
-0.0341179
-0.215028
-0.0391036
-0.219747
-0.041676
-0.221686
-0.0404934
-0.221433
-0.0367037
-0.219237
-0.0306616
-0.215245
-0.0232952
-0.211529
-0.0165771
-0.21089
-0.0117327
-0.212486
-0.00810718
-0.214152
-0.00518797
-0.215573
-0.00299356
-0.21698
-0.0014287
-0.218301
-0.000362938
-0.21948
0.000315186
-0.220517
0.000695931
-0.221361
0.000856176
-0.222053
0.000859802
-0.222582
0.000757449
-0.222964
0.000591406
-0.223267
0.000394136
-0.223472
0.000189609
-0.223663
-0.014849
-0.197583
-0.0351516
-0.206359
-0.0415721
-0.212559
-0.0453752
-0.216048
-0.0449262
-0.217254
-0.0415595
-0.216577
-0.0357924
-0.214106
-0.028186
-0.210354
-0.0200721
-0.208034
-0.0136041
-0.209018
-0.00924175
-0.211352
-0.00592856
-0.213412
-0.0033509
-0.215216
-0.00149742
-0.216911
-0.000241452
-0.218423
0.000554076
-0.219719
0.000996747
-0.220818
0.00117855
-0.221683
0.00117659
-0.22237
0.00105136
-0.222876
0.000855037
-0.223228
0.000625486
-0.223499
0.000392965
-0.223675
0.000177594
-0.223841
-0.0129492
-0.18782
-0.0356401
-0.197094
-0.043524
-0.204407
-0.0486788
-0.209256
-0.049132
-0.211842
-0.0462768
-0.212536
-0.0408002
-0.211569
-0.03331
-0.208982
-0.0244739
-0.205953
-0.0162107
-0.205428
-0.010443
-0.207817
-0.00662104
-0.210659
-0.00369296
-0.21307
-0.00152018
-0.215193
-4.56849e-05
-0.217107
0.000883275
-0.218752
0.00139453
-0.220117
0.00159702
-0.221236
0.00158188
-0.222088
0.00142182
-0.222741
0.00117955
-0.2232
0.000901588
-0.223504
0.000622698
-0.223729
0.000367962
-0.223866
0.000155025
-0.223996
-0.0116552
-0.120173
-0.035412
-0.188048
-0.0448427
-0.195776
-0.0514329
-0.201653
-0.0529553
-0.205432
-0.0507574
-0.207361
-0.0456267
-0.20771
-0.0383413
-0.206538
-0.0293432
-0.204113
-0.0197755
-0.202388
-0.0120783
-0.203792
-0.00722782
-0.20721
-0.00395112
-0.210401
-0.00147245
-0.213118
0.00024575
-0.215484
0.00132503
-0.217549
0.00191249
-0.21927
0.00213473
-0.220654
0.0020989
-0.221753
0.00189045
-0.222557
0.00158556
-0.223147
0.00123989
-0.223538
0.000896387
-0.223778
0.000582767
-0.223943
0.000321203
-0.224032
0.000123076
-0.224119
-0.0103093
-0.116423
-0.0348641
-0.120721
-0.0455585
-0.187332
-0.0535175
-0.193691
-0.0562328
-0.198375
-0.0548563
-0.201334
-0.0502009
-0.202787
-0.0431641
-0.202887
-0.0342467
-0.201635
-0.0240513
-0.199837
-0.0145359
-0.19993
-0.00794891
-0.203071
-0.00404173
-0.20712
-0.00130363
-0.21057
0.000660988
-0.213533
0.00190641
-0.216066
0.00257731
-0.218214
0.00281922
-0.219954
0.00275441
-0.22131
0.00248317
-0.222346
0.00209634
-0.223068
0.00166175
-0.223569
0.00123124
-0.223873
0.000838867
-0.224034
0.000508882
-0.224131
0.000255033
-0.224164
8.31799e-05
-0.224202
-0.00894021
-0.113274
-0.0340797
-0.117207
-0.045468
-0.120812
-0.0549446
-0.185905
-0.0588385
-0.191085
-0.0584115
-0.19482
-0.0544055
-0.197129
-0.0477245
-0.198227
-0.0389672
-0.198167
-0.0285872
-0.197099
-0.0178429
-0.19653
-0.00918965
-0.19869
-0.00399763
-0.203115
-0.000929188
-0.207494
0.00124065
-0.21115
0.00265959
-0.214286
0.00342081
-0.216909
0.00368152
-0.219076
0.00357998
-0.22078
0.00322996
-0.222057
0.00273996
-0.22299
0.00219145
-0.223597
0.00164857
-0.223986
0.0011525
-0.224187
0.000733385
-0.224258
0.000404628
-0.224281
0.000172436
-0.224253
3.7359e-05
-0.224239
-0.00764926
-0.110719
-0.0330953
-0.114258
-0.0449467
-0.117729
-0.055171
-0.120585
-0.0606988
-0.184045
-0.0612725
-0.188224
-0.0580964
-0.191129
-0.0519486
-0.192905
-0.0434345
-0.193759
-0.033053
-0.193701
-0.0216656
-0.193276
-0.0112146
-0.194505
-0.00411241
-0.198575
-0.000282421
-0.203762
0.00205225
-0.208306
0.00362284
-0.212113
0.0044785
-0.215344
0.00475784
-0.217985
0.00461117
-0.220107
0.00416621
-0.221716
0.00354923
-0.222866
0.00285854
-0.223657
0.00217293
-0.224122
0.00154411
-0.224377
0.00100928
-0.224463
0.000584846
-0.224439
0.000274582
-0.224383
7.79742e-05
-0.224294
-1.21908e-05
-0.224227
-0.00650487
-0.108803
-0.0320124
-0.111802
-0.0441435
-0.115062
-0.0549023
-0.117997
-0.0612028
-0.120082
-0.0633053
-0.182012
-0.0611367
-0.185184
-0.0557364
-0.187341
-0.0476169
-0.188723
-0.0373129
-0.189499
-0.0256256
-0.189741
-0.0139152
-0.190575
-0.00472033
-0.193897
0.00050899
-0.199366
0.00318496
-0.204895
0.00484961
-0.209532
0.00579067
-0.213425
0.0060872
-0.216673
0.00588883
-0.219263
0.00533222
-0.221273
0.00456315
-0.22273
0.00369802
-0.223705
0.00283443
-0.224318
0.00203743
-0.224615
0.0013552
-0.224723
0.000807868
-0.224686
0.000399595
-0.224564
0.000125882
-0.224431
-2.37081e-05
-0.224282
-6.24512e-05
-0.224165
-0.00555221
-0.107554
-0.0309144
-0.109901
-0.0431445
-0.112801
-0.0542426
-0.115721
-0.0611685
-0.118032
-0.0639826
-0.119404
-0.0634148
-0.179734
-0.0589985
-0.181922
-0.0514654
-0.183493
-0.0413464
-0.184689
-0.02949
-0.185635
-0.0169932
-0.186663
-0.00596559
-0.18933
0.00119923
-0.194587
0.00464838
-0.20083
0.00640978
-0.206455
0.00740185
-0.211144
0.00771297
-0.215051
0.00745662
-0.218241
0.0067741
-0.220705
0.00582694
-0.222537
0.00475203
-0.223784
0.00366937
-0.22454
0.00266201
-0.224943
0.00179296
-0.225053
0.00108955
-0.225005
0.000556558
-0.224843
0.000187718
-0.224625
-3.41509e-05
-0.22442
-0.000127446
-0.224217
-0.000110811
-0.224054
-0.00484185
-0.106936
-0.0298267
-0.108642
-0.0419726
-0.111073
-0.0532509
-0.113792
-0.0606811
-0.116209
-0.0641896
-0.117825
-0.0643267
-0.118492
-0.0616516
-0.177081
-0.0549406
-0.178447
-0.0451358
-0.179703
-0.0331956
-0.180984
-0.0201587
-0.18247
-0.00775194
-0.184876
0.00150037
-0.189631
0.00632838
-0.196267
0.00837622
-0.202796
0.00936232
-0.208416
0.00967643
-0.213107
0.00936163
-0.216956
0.00854183
-0.220009
0.00739287
-0.222271
0.00607068
-0.223856
0.00472219
-0.224837
0.0034541
-0.225332
0.00235015
-0.2255
0.00144863
-0.225412
0.000757607
-0.225206
0.000268874
-0.224924
-4.04458e-05
-0.224619
-0.000197404
-0.22435
-0.000227648
-0.2241
-0.000154938
-0.223899
-0.00442366
-0.106954
-0.0288137
-0.107949
-0.040738
-0.109877
-0.0520395
-0.112285
-0.0597968
-0.114677
-0.0640247
-0.116374
-0.0647641
-0.117387
-0.0630002
-0.117144
-0.0579691
-0.174053
-0.0486864
-0.174896
-0.0367161
-0.176183
-0.0232638
-0.177878
-0.00982554
-0.180396
0.00130121
-0.184677
0.00797237
-0.191275
0.0107326
-0.198624
0.0117413
-0.205175
0.0120186
-0.210758
0.0116468
-0.215392
0.0106881
-0.219102
0.00931912
-0.221935
0.00771298
-0.223913
0.00604726
-0.225181
0.00445895
-0.225842
0.00306131
-0.226044
0.00190913
-0.225961
0.00101718
-0.225671
0.000376986
-0.225314
-4.12201e-05
-0.224923
-0.000273372
-0.224543
-0.000355065
-0.224223
-0.000319259
-0.223936
-0.000192815
-0.223706
-0.00429541
-0.107511
-0.027904
-0.107864
-0.0394232
-0.109264
-0.050637
-0.111279
-0.0585963
-0.113485
-0.0634399
-0.115261
-0.064821
-0.116317
-0.0639267
-0.116461
-0.0597488
-0.115364
-0.0519175
-0.170822
-0.0400934
-0.171519
-0.0262293
-0.173217
-0.0119738
-0.17573
0.000701967
-0.179797
0.00937663
-0.186081
0.0133522
-0.193895
0.0145672
-0.201449
0.014784
-0.207941
0.0143512
-0.213462
0.0132625
-0.217967
0.0116676
-0.221451
0.00974701
-0.223969
0.00771024
-0.225576
0.00573359
-0.226455
0.00397039
-0.226751
0.00250181
-0.226636
0.00135412
-0.226298
0.000521164
-0.225816
-3.39371e-05
-0.225322
-0.00035804
-0.224838
-0.000498469
-0.2244
-0.000499188
-0.224043
-0.000397722
-0.223731
-0.000222215
-0.223484
-0.00444702
-0.10846
-0.0271149
-0.1083
-0.038104
-0.109183
-0.0491131
-0.110788
-0.0571645
-0.112711
-0.0624944
-0.114431
-0.0646354
-0.115447
-0.0644444
-0.115799
-0.0611783
-0.115031
-0.0540835
-0.113198
-0.0432514
-0.167663
-0.0290997
-0.168648
-0.0140625
-0.171129
-9.73948e-05
-0.174931
0.0104463
-0.180866
0.0160677
-0.188797
0.0178175
-0.197145
0.0180027
-0.204668
0.0175073
-0.211097
0.016311
-0.216511
0.0145014
-0.2208
0.0122484
-0.223952
0.00979019
-0.226049
0.00734874
-0.227191
0.0051344
-0.227619
0.00326655
-0.227515
0.00179299
-0.227075
0.000713552
-0.22649
-1.55796e-05
-0.225834
-0.000454304
-0.225225
-0.000664374
-0.224673
-0.000704252
-0.224195
-0.000622569
-0.223818
-0.000458346
-0.223495
-0.000241847
-0.223242
-0.00444451
-0.165714
-0.026424
-0.109151
-0.03679
-0.109614
-0.0474876
-0.110809
-0.0555437
-0.112409
-0.0612578
-0.113948
-0.0641521
-0.114914
-0.0645866
-0.115305
-0.0622285
-0.114749
-0.0558639
-0.113251
-0.0456187
-0.110831
-0.031844
-0.164919
-0.0160634
-0.166648
-0.000972834
-0.170253
0.0112744
-0.175759
0.018685
-0.183484
0.0214101
-0.19239
0.0216946
-0.200837
0.0211357
-0.208297
0.0198732
-0.214659
0.0178869
-0.219896
0.0153036
-0.223856
0.0123813
-0.226543
0.00939413
-0.228094
0.00662614
-0.228683
0.00425648
-0.228609
0.00236632
-0.228089
0.000970364
-0.227332
1.81367e-05
-0.226524
-0.000565597
-0.225723
-0.000861087
-0.225029
-0.000944466
-0.224432
-0.000880343
-0.223937
-0.000717825
-0.223559
-0.000498626
-0.223238
-0.00025057
-0.222991
-0.0046068
-0.170184
-0.0245616
-0.167576
-0.035489
-0.110452
-0.0458068
-0.111295
-0.053821
-0.112531
-0.059845
-0.113822
-0.0634295
-0.11467
-0.0644364
-0.115064
-0.0628756
-0.114658
-0.0572338
-0.113379
-0.0475878
-0.111282
-0.0342222
-0.108452
-0.0180397
-0.162943
-0.00175874
-0.165862
0.0119058
-0.170885
0.0211485
-0.178222
0.0251784
-0.187252
0.0258312
-0.196526
0.0252463
-0.204948
0.0239666
-0.21239
0.0218843
-0.218656
0.0190126
-0.223605
0.0156034
-0.227078
0.0119856
-0.229135
0.00854396
-0.230012
0.00554185
-0.229968
0.00311835
-0.229361
0.00131352
-0.228432
7.33932e-05
-0.227387
-0.000696121
-0.226393
-0.00109841
-0.225485
-0.00123308
-0.22474
-0.00118406
-0.224129
-0.00101618
-0.223639
-0.000781004
-0.223276
-0.00051635
-0.222973
-0.000248075
-0.222743
-0.00480934
-0.175256
-0.0225889
-0.172156
-0.03262
-0.170446
-0.0441281
-0.112131
-0.0520533
-0.113062
-0.0582819
-0.114094
-0.0623889
-0.114862
-0.0640031
-0.115104
-0.0631314
-0.114808
-0.058161
-0.113731
-0.0491246
-0.111842
-0.036195
-0.109309
-0.0201966
-0.106296
-0.00258569
-0.162116
0.0125713
-0.166527
0.023407
-0.173143
0.028974
-0.182018
0.030311
-0.191732
0.0298051
-0.201085
0.0285644
-0.209545
0.0265031
-0.217009
0.0234528
-0.223096
0.0195908
-0.227592
0.0152799
-0.230372
0.0110249
-0.231615
0.00722525
-0.231695
0.00411044
-0.230961
0.00177339
-0.229821
0.000158913
-0.228517
-0.00085066
-0.227233
-0.00138901
-0.226103
-0.00158573
-0.225133
-0.00155109
-0.224373
-0.00136873
-0.223776
-0.00110615
-0.223313
-0.000808666
-0.222984
-0.000510923
-0.22271
-0.00023413
-0.222509
-0.00488411
-0.180558
-0.0204717
-0.177373
-0.029582
-0.175194
-0.0405286
-0.174045
-0.0502515
-0.113933
-0.0566557
-0.114688
-0.0611624
-0.115321
-0.0633529
-0.115512
-0.0629638
-0.115271
-0.0586569
-0.114312
-0.0502198
-0.112635
-0.0377537
-0.110284
-0.0219581
-0.107547
-0.00436753
-0.104514
0.0132022
-0.162747
0.0255709
-0.168691
0.0326699
-0.176839
0.0349753
-0.186682
0.0347294
-0.196656
0.0335821
-0.206103
0.0316637
-0.214706
0.0285946
-0.222151
0.0244028
-0.227908
0.0194148
-0.231727
0.0142479
-0.233595
0.0094587
-0.233849
0.00544141
-0.233026
0.00239579
-0.231583
0.000287351
-0.22995
-0.00103515
-0.228333
-0.00174868
-0.226873
-0.00202281
-0.225666
-0.00200196
-0.224682
-0.00179588
-0.223946
-0.00149083
-0.223391
-0.00114542
-0.222977
-0.000799934
-0.222695
-0.000481869
-0.222462
-0.000209832
-0.222299
-0.00472132
-0.186009
-0.0181686
-0.182862
-0.0264041
-0.180551
-0.0366966
-0.179026
-0.046365
-0.177931
-0.054963
-0.115625
-0.0597796
-0.116071
-0.0624481
-0.116226
-0.06245
-0.116026
-0.0586991
-0.115229
-0.0508038
-0.113728
-0.0388441
-0.111545
-0.0233857
-0.108856
-0.00576617
-0.106149
0.011994
-0.103306
0.0276893
-0.164865
0.0361831
-0.172204
0.0396699
-0.181534
0.0398743
-0.191827
0.0388927
-0.201967
0.0372126
-0.211651
0.0342873
-0.220399
0.0299189
-0.227667
0.0243638
-0.232857
0.01828
-0.235759
0.0123996
-0.236536
0.00725851
-0.235666
0.00326617
-0.233897
0.000484385
-0.23178
-0.00125683
-0.229728
-0.00219823
-0.227883
-0.00257016
-0.226326
-0.00256347
-0.225104
-0.00232172
-0.224156
-0.0019573
-0.223479
-0.00154392
-0.222993
-0.00113285
-0.222644
-0.000754138
-0.222423
-0.000431411
-0.22224
-0.000176313
-0.222123
-0.00425412
-0.191329
-0.0157362
-0.188442
-0.023116
-0.18615
-0.0327227
-0.184525
-0.0421773
-0.183214
-0.0511284
-0.181766
-0.0582937
-0.117111
-0.061302
-0.117217
-0.0616123
-0.117063
-0.0583393
-0.116386
-0.0509491
-0.115084
-0.0394572
-0.113115
-0.0243835
-0.110547
-0.00688364
-0.107739
0.0110208
-0.105175
0.0273596
-0.102976
0.0395593
-0.168241
0.0441946
-0.176729
0.0450864
-0.186746
0.0443362
-0.197271
0.0429509
-0.207705
0.0403191
-0.217683
0.0359185
-0.226398
0.0298789
-0.233182
0.0229406
-0.237518
0.0159511
-0.239311
0.0096189
-0.238896
0.00448946
-0.236889
0.000813831
-0.234226
-0.00151256
-0.231524
-0.00276471
-0.229162
-0.00326207
-0.227191
-0.00326962
-0.22562
-0.00297758
-0.224448
-0.0025317
-0.223582
-0.00202702
-0.222996
-0.00152664
-0.222599
-0.00106763
-0.22233
-0.00067485
-0.222179
-0.000361854
-0.222055
-0.000134837
-0.221988
-0.0035252
-0.196403
-0.0132443
-0.193821
-0.0198582
-0.1917
-0.0286989
-0.190173
-0.0378112
-0.188891
-0.046876
-0.187466
-0.0546595
-0.1854
-0.0599586
-0.118455
-0.0604951
-0.118335
-0.057572
-0.117831
-0.0505835
-0.116752
-0.0395491
-0.114992
-0.0249011
-0.112598
-0.00764736
-0.109783
0.010388
-0.107106
0.0270293
-0.104845
0.0402264
-0.103643
0.0484855
-0.172532
0.0501493
-0.181792
0.0497447
-0.192154
0.0486789
-0.202999
0.0464428
-0.213829
0.0421792
-0.223944
0.0357258
-0.232245
0.027887
-0.238128
0.0197463
-0.241313
0.0122243
-0.241916
0.00593541
-0.240342
0.00130085
-0.237376
-0.00177008
-0.233969
-0.00346932
-0.23082
-0.00414343
-0.22828
-0.00416545
-0.226296
-0.00380311
-0.224794
-0.00324785
-0.223732
-0.00262135
-0.222987
-0.00200354
-0.222519
-0.00143815
-0.222229
-0.000954972
-0.22205
-0.000565756
-0.221975
-0.000275883
-0.221914
-8.74647e-05
-0.221901
-0.00264329
-0.201126
-0.0108385
-0.198809
-0.0167341
-0.196945
-0.0247616
-0.195637
-0.0333826
-0.194602
-0.0423416
-0.193426
-0.0504504
-0.191675
-0.0564929
-0.188866
-0.0591655
-0.119784
-0.0564426
-0.119464
-0.0497864
-0.118628
-0.0391537
-0.117147
-0.0249086
-0.114984
-0.00797736
-0.112268
0.0100279
-0.109423
0.0269662
-0.107043
0.0408042
-0.105423
0.0499109
-0.105069
0.0548963
-0.177279
0.0549298
-0.186977
0.0541867
-0.197662
0.0524352
-0.208991
0.0484672
-0.220117
0.041755
-0.229973
0.0330023
-0.23736
0.0234999
-0.241882
0.0146065
-0.243695
0.00711442
-0.243095
0.00161247
-0.240654
-0.00210422
-0.237042
-0.00432456
-0.233113
-0.00526142
-0.229702
-0.00530983
-0.227136
-0.00485029
-0.225248
-0.00414823
-0.223894
-0.00336112
-0.222992
-0.00258925
-0.222402
-0.0018862
-0.222071
-0.00128574
-0.221898
-0.000800241
-0.221816
-0.000431095
-0.22182
-0.000177953
-0.221823
-3.56359e-05
-0.221865
-0.00176963
-0.205354
-0.0086543
-0.20331
-0.0138478
-0.201695
-0.021016
-0.20069
-0.0290004
-0.200019
-0.0376362
-0.199307
-0.0458232
-0.198053
-0.0523163
-0.195852
-0.0557905
-0.192241
-0.0549972
-0.12123
-0.0486078
-0.120643
-0.0382747
-0.119507
-0.0244303
-0.117626
-0.00786976
-0.115092
0.00997663
-0.112217
0.0271084
-0.109565
0.0413973
-0.107636
0.051294
-0.106806
0.056684
-0.106856
0.0596741
-0.182023
0.0592974
-0.192088
0.0580388
-0.203266
0.0545826
-0.215106
0.0478173
-0.226179
0.03828
-0.235251
0.0273712
-0.241232
0.0167761
-0.244051
0.00782536
-0.244406
0.00117895
-0.242662
-0.00298249
-0.239776
-0.00550219
-0.235865
-0.00667999
-0.231695
-0.00677477
-0.228237
-0.00618699
-0.225799
-0.00528779
-0.224109
-0.00428888
-0.222966
-0.00331647
-0.222265
-0.00243526
-0.221852
-0.00168504
-0.221672
-0.0010769
-0.221621
-0.000609586
-0.221637
-0.000277819
-0.22172
-7.20586e-05
-0.221787
1.81666e-05
-0.221883
-0.00100807
-0.209058
-0.00677818
-0.20723
-0.0112817
-0.205876
-0.0175551
-0.205156
-0.0247715
-0.204919
-0.0328849
-0.20477
-0.0409102
-0.204221
-0.0476213
-0.202748
-0.0516442
-0.199998
-0.0517534
-0.195485
-0.0470962
-0.122741
-0.0370113
-0.121906
-0.0234898
-0.120447
-0.00732426
-0.118171
0.0102255
-0.115341
0.0273827
-0.112491
0.0420405
-0.110208
0.0525684
-0.10891
0.0585238
-0.108646
0.0615077
-0.10869
0.0637592
-0.186485
0.0630603
-0.197109
0.0602369
-0.20892
0.0537714
-0.221061
0.0436943
-0.231593
0.0314826
-0.239362
0.0191254
-0.243581
0.00846493
-0.244691
0.000206876
-0.243434
-0.00485949
-0.240785
-0.00750391
-0.237774
-0.00862743
-0.233917
-0.00866789
-0.229802
-0.00790471
-0.226519
-0.00673799
-0.224349
-0.00545885
-0.222939
-0.00422534
-0.222057
-0.00311485
-0.221585
-0.00217313
-0.221364
-0.00141033
-0.221338
-0.000820131
-0.221411
-0.000392964
-0.221522
-0.000112287
-0.22168
3.72866e-05
-0.221806
7.08352e-05
-0.221954
-0.000416291
-0.212176
-0.00522138
-0.210615
-0.0090614
-0.20945
-0.0144418
-0.208989
-0.0208033
-0.209125
-0.028214
-0.20959
-0.0358726
-0.209808
-0.0425752
-0.209267
-0.0469595
-0.207432
-0.0477402
-0.204011
-0.0441674
-0.198414
-0.0354676
-0.124285
-0.0221768
-0.123219
-0.00641393
-0.121357
0.0107861
-0.118732
0.0278229
-0.115781
0.0427026
-0.113153
0.0537272
-0.111367
0.0602603
-0.110647
0.0633899
-0.110528
0.065363
-0.110294
0.0671969
-0.190622
0.0652209
-0.202093
0.0593173
-0.214466
0.0491415
-0.226508
0.0358959
-0.236007
0.0218279
-0.242065
0.00926172
-0.244378
-0.0006206
-0.243864
-0.00732909
-0.240965
-0.0105705
-0.237718
-0.0115392
-0.234862
-0.0112166
-0.231368
-0.0101383
-0.227568
-0.00860104
-0.224656
-0.00694067
-0.222867
-0.00536625
-0.221798
-0.00396073
-0.221211
-0.00277513
-0.220983
-0.00181681
-0.220958
-0.00107354
-0.221085
-0.000528951
-0.221275
-0.000159426
-0.221475
5.84684e-05
-0.221701
0.000145436
-0.221881
0.000120686
-0.222075
1.81383e-05
-0.214756
-0.00395656
-0.213441
-0.00717893
-0.212497
-0.0117165
-0.212175
-0.0171738
-0.212619
-0.0237504
-0.213588
-0.0308586
-0.214604
-0.0373826
-0.215001
-0.0419255
-0.214301
-0.043248
-0.211925
-0.0405006
-0.207678
-0.0331402
-0.200741
-0.0206552
-0.125807
-0.00518883
-0.124444
0.0115645
-0.122136
0.0283601
-0.119269
0.0433337
-0.116412
0.0547592
-0.114185
0.0618022
-0.112909
0.0652042
-0.112461
0.0669733
-0.112138
0.0685536
-0.11165
0.0691685
-0.194569
0.0642645
-0.20704
0.0543311
-0.219656
0.0404747
-0.231087
0.0249545
-0.239133
0.0104164
-0.243219
-0.00127417
-0.243724
-0.00961532
-0.241577
-0.0141499
-0.237385
-0.0154634
-0.233794
-0.0147141
-0.231365
-0.013065
-0.228442
-0.0110216
-0.225148
-0.00883682
-0.22276
-0.0068026
-0.221431
-0.00501696
-0.220742
-0.00352096
-0.220465
-0.00231622
-0.220484
-0.00138163
-0.22065
-0.000692593
-0.220921
-0.000215604
-0.221218
8.11826e-05
-0.221498
0.000227161
-0.221783
0.000248019
-0.222008
0.000165981
-0.222241
0.000326103
-0.216898
-0.00293356
-0.215779
-0.00560126
-0.215019
-0.00938485
-0.214829
-0.0139613
-0.215388
-0.0196099
-0.216759
-0.0260139
-0.218433
-0.0322094
-0.219777
-0.0367829
-0.220143
-0.0384598
-0.219089
-0.0364613
-0.215964
-0.0301458
-0.210673
-0.0192009
-0.202195
-0.00376335
-0.127232
0.0125275
-0.125407
0.0289658
-0.122741
0.0438989
-0.119834
0.0555943
-0.117247
0.0631114
-0.115494
0.0668627
-0.114568
0.0685053
-0.113993
0.069787
-0.113371
0.0704636
-0.112945
0.0681778
-0.198483
0.0591158
-0.211825
0.0449968
-0.224178
0.0282955
-0.234428
0.0120018
-0.240719
-0.00166846
-0.242825
-0.0115798
-0.24176
-0.0175692
-0.238158
-0.0197933
-0.233055
-0.0191192
-0.229389
-0.0168149
-0.227615
-0.014109
-0.225354
-0.0112886
-0.222696
-0.00862743
-0.220935
-0.00633755
-0.22011
-0.00444684
-0.219816
-0.00293181
-0.21985
-0.00175856
-0.220107
-0.000891025
-0.220451
-0.000283584
-0.220853
0.000106718
-0.221244
0.000318737
-0.221589
0.000387027
-0.221922
0.000341164
-0.222183
0.000204673
-0.222446
0.000537948
-0.218637
-0.00211293
-0.217719
-0.00429562
-0.217085
-0.00741925
-0.216984
-0.0112032
-0.217587
-0.015907
-0.219091
-0.0214693
-0.221304
-0.0272047
-0.223438
-0.0317064
-0.224854
-0.0336318
-0.224971
-0.0322101
-0.22334
-0.0268702
-0.21924
-0.01727
-0.212604
-0.00326768
-0.202691
0.0136074
-0.128312
0.0295816
-0.126023
0.0443546
-0.123197
0.0562066
-0.120446
0.0640918
-0.118228
0.0681837
-0.116815
0.0698497
-0.115912
0.0708362
-0.115042
0.0714454
-0.114353
0.0698632
-0.114631
0.062939
-0.202306
0.0493027
-0.216131
0.0317845
-0.227667
0.0137772
-0.236203
-0.00180234
-0.240585
-0.0134429
-0.240962
-0.0207352
-0.238594
-0.024032
-0.233919
-0.0239675
-0.228207
-0.0213703
-0.224834
-0.0178447
-0.223879
-0.0143496
-0.222293
-0.01097
-0.220353
-0.00799913
-0.219273
-0.00559572
-0.218961
-0.00369096
-0.219057
-0.00222043
-0.219388
-0.00113251
-0.219866
-0.000365793
-0.220369
0.000136322
-0.220883
0.00042451
-0.22135
0.000543711
-0.221746
0.000532068
-0.222113
0.000420667
-0.222399
0.000235503
-0.222681
0.000672893
-0.220075
-0.0014638
-0.219286
-0.00323119
-0.218783
-0.00578597
-0.218718
-0.00888318
-0.219304
-0.0127209
-0.220773
-0.0173583
-0.223202
-0.022478
-0.226031
-0.0268392
-0.228305
-0.0289421
-0.229543
-0.0279787
-0.229203
-0.0234881
-0.226722
-0.0150719
-0.221438
-0.00269526
-0.213176
0.0132322
-0.202316
0.0301024
-0.128833
0.0446232
-0.126292
0.0565322
-0.123523
0.0647175
-0.121072
0.069179
-0.119223
0.0709132
-0.117879
0.0716187
-0.116695
0.072028
-0.115625
0.0710516
-0.115542
0.0651891
-0.116881
0.0526848
-0.205688
0.03508
-0.219426
0.0158262
-0.229716
-0.00179619
-0.236209
-0.0153264
-0.238701
-0.0240139
-0.237683
-0.0282541
-0.234372
-0.028892
-0.228995
-0.0265395
-0.223038
-0.0222786
-0.2204
-0.0178801
-0.220349
-0.0138562
-0.219407
-0.0101117
-0.218241
-0.00702481
-0.217844
-0.0046252
-0.218027
-0.00278551
-0.218492
-0.00142601
-0.219094
-0.000464684
-0.219767
0.000172112
-0.220405
0.000549674
-0.221008
0.000725156
-0.221531
0.000747676
-0.221961
0.000655761
-0.222348
0.000483945
-0.222648
0.000257244
-0.222938
0.000744882
-0.221233
-0.000960964
-0.220577
-0.00237751
-0.22014
-0.00444723
-0.220122
-0.00696189
-0.220639
-0.0100579
-0.221967
-0.0138008
-0.224331
-0.0181438
-0.227536
-0.0222524
-0.230617
-0.0245265
-0.232721
-0.0239493
-0.233573
-0.0201494
-0.232541
-0.0128793
-0.228914
-0.00185853
-0.222274
0.0124403
-0.212384
0.0287713
-0.200985
0.0445993
-0.128809
0.0565093
-0.126269
0.0648943
-0.1237
0.0696365
-0.12153
0.0715066
-0.119816
0.0720754
-0.118335
0.0722502
-0.116917
0.0716772
-0.116251
0.0668089
-0.117162
0.0554082
-0.119604
0.037557
-0.208165
0.0174977
-0.221098
-0.00157582
-0.229936
-0.0171224
-0.234413
-0.0275055
-0.23521
-0.0327512
-0.233186
-0.033928
-0.229336
-0.0319996
-0.223535
-0.0275394
-0.217777
-0.0219572
-0.216323
-0.0170629
-0.217142
-0.0127006
-0.216818
-0.00881915
-0.216446
-0.00577258
-0.216697
-0.00347405
-0.217339
-0.00178085
-0.218137
-0.000582335
-0.218977
0.000217192
-0.219812
0.000700568
-0.220556
0.000940234
-0.221223
0.000997513
-0.221781
0.0009215
-0.222227
0.000754111
-0.222618
0.000528435
-0.222919
0.000269223
-0.223208
0.000765486
-0.222158
-0.00058118
-0.221613
-0.00170426
-0.221251
-0.00336531
-0.221222
-0.00539069
-0.221693
-0.00787352
-0.222824
-0.0108392
-0.224929
-0.0143454
-0.228129
-0.0179947
-0.231794
-0.0204307
-0.234713
-0.0202439
-0.236426
-0.0170399
-0.236682
-0.0107273
-0.234694
-0.0010925
-0.229681
0.0117702
-0.221604
0.0269374
-0.21055
0.0423699
-0.198755
0.0560414
-0.128341
0.0645827
-0.125957
0.0695556
-0.123619
0.0716036
-0.121627
0.07214
-0.119881
0.0721928
-0.118278
0.0718168
-0.117056
0.0678119
-0.117254
0.057479
-0.119232
0.0406654
-0.122713
0.0187708
-0.209438
-0.00179879
-0.220875
-0.0188866
-0.228172
-0.0309961
-0.230923
-0.037544
-0.230417
-0.0392721
-0.227842
-0.0375791
-0.223756
-0.0333537
-0.21772
-0.0270204
-0.212714
-0.0206057
-0.21278
-0.0155113
-0.214331
-0.0110147
-0.214623
-0.00719005
-0.215029
-0.00430725
-0.215864
-0.00220667
-0.216913
-0.000719665
-0.217999
0.000275934
-0.219035
0.000885476
-0.219997
0.00119915
-0.220815
0.00129373
-0.22152