/*--------------------------------*- C++ -*----------------------------------*\
| =========                 |                                                 |
| \\      /  F ield         | OpenFOAM: The Open Source CFD Toolbox           |
|  \\    /   O peration     | Version:  2506                                  |
|   \\  /    A nd           | Website:  www.openfoam.com                      |
|    \\/     M anipulation  |                                                 |
\*---------------------------------------------------------------------------*/
FoamFile
{
    version     2.0;
    format      ascii;
    arch        "LSB;label=32;scalar=64";
    class       surfaceScalarField;
    location    "400";
    object      phi;
}
// * * * * * * * * * * * * * * * * * * * * * * * * * * * * * * * * * * * * * //

dimensions      [0 3 -1 0 0 0 0];

oriented        oriented;

internalField   nonuniform List<scalar> 
2558
(
-0.233801
0.253399
-0.0195977
0.275397
-0.0219979
0.294334
-0.0189371
0.311247
-0.0169133
0.327222
-0.015975
0.33995
-0.012728
0.349934
-0.00998359
0.357923
-0.00798972
0.362952
-0.00502831
0.366015
-0.00306312
0.367163
-0.00114819
0.365845
0.0013178
0.362193
0.00365184
0.356027
0.00616611
0.346947
0.00908005
0.334842
0.0121054
0.318931
0.0159106
0.298529
0.0204021
0.27247
0.0260585
0.240005
0.0324655
0.200642
0.039363
0.157722
0.0429199
0.119267
0.0384551
0.0951093
0.0241578
0.0901376
0.00497167
0.0996584
-0.00952076
0.11362
-0.0139611
0.126091
-0.0124711
0.135138
-0.00904695
0.140757
-0.00561881
0.143509
-0.00275302
0.143544
-3.46109e-05
0.140725
0.00281923
0.135161
0.00556433
0.00858235
-0.210717
-0.0230842
-0.186778
-0.0239385
-0.15739
-0.0293888
-0.125183
-0.0322062
-0.0912719
-0.0339114
-0.0563297
-0.0349422
-0.213179
0.234687
-0.0411052
0.256711
-0.0440221
0.279735
-0.0419613
0.301247
-0.0384253
0.322289
-0.0370167
0.341872
-0.0323117
0.359598
-0.0277094
0.37575
-0.0241419
0.38996
-0.0192375
0.402305
-0.0154085
0.413023
-0.0118664
0.422562
-0.00822133
0.431262
-0.00504834
0.439174
-0.00174561
0.446089
0.0021655
0.451568
0.00662646
0.455277
0.0122016
0.456854
0.0188247
0.454948
0.0279645
0.44838
0.0390338
0.43468
0.0530629
0.412245
0.0653545
0.380914
0.0697867
0.345675
0.0593969
0.313016
0.0376299
0.284845
0.0186506
0.260935
0.00994948
0.2414
0.00706367
0.226477
0.00587577
0.215535
0.00532328
0.206717
0.00606524
0.198435
0.00824763
0.189744
0.01151
0.179891
0.0154177
0.0203453
-0.191219
-0.045044
-0.16772
-0.0474382
-0.140206
-0.0569023
-0.111101
-0.0613115
-0.0801856
-0.0648267
-0.0672709
-0.206942
0.228639
-0.0628026
0.250487
-0.0658698
0.274075
-0.0655497
0.295638
-0.0599876
0.316131
-0.0575105
0.335727
-0.0519077
0.353127
-0.0451089
0.368721
-0.0397363
0.382062
-0.0325781
0.393413
-0.0267596
0.402736
-0.0211897
0.410163
-0.0156483
0.415546
-0.0104308
0.419364
-0.00556357
0.421618
-8.90599e-05
0.423339
0.00490601
0.424624
0.0109168
0.426406
0.0170421
0.42912
0.0252507
0.433449
0.0347051
0.439369
0.0471421
0.444871
0.0598525
0.446109
0.0685493
0.440173
0.0653329
0.428112
0.049691
0.412438
0.0343247
0.394191
0.0281961
0.37284
0.028415
0.348226
0.0304899
0.321639
0.0319104
0.295519
0.0321847
0.271933
0.0318342
0.251252
0.0321905
0.232251
0.0344188
0.0393772
-0.185104
-0.0668823
-0.161174
-0.0713681
-0.132551
-0.085525
-0.102787
-0.0910757
-0.0716834
-0.09593
-0.199339
0.222022
-0.0854856
0.244788
-0.0886351
0.269822
-0.0905835
0.292676
-0.0828424
0.314837
-0.0796716
0.33609
-0.0731607
0.355615
-0.064633
0.373234
-0.0573561
0.389162
-0.048506
0.403178
-0.0407756
0.415394
-0.0334053
0.425823
-0.0260773
0.43453
-0.0191381
0.44159
-0.0126233
0.447303
-0.005802
0.451123
0.00108561
0.453157
0.00888314
0.453178
0.0170207
0.451738
0.0266909
0.449323
0.0371203
0.44719
0.0492746
0.446609
0.060434
0.447057
0.068101
0.446271
0.066119
0.442346
0.0536162
0.435852
0.0408187
0.428164
0.0358845
0.41958
0.0369984
0.409026
0.0410443
0.394795
0.0461417
0.375423
0.0515565
0.350752
0.056505
0.32272
0.0602233
0.294025
0.0631132
0.0674418
-0.176944
-0.0892776
-0.152939
-0.0953732
-0.123818
-0.114646
-0.0939231
-0.120971
-0.127097
-0.195501
0.219006
-0.10899
0.242641
-0.11227
0.269067
-0.117009
0.292661
-0.106437
0.315799
-0.10281
0.338091
-0.0954518
0.358428
-0.0849702
0.376915
-0.0758436
0.393842
-0.0654332
0.408555
-0.0554877
0.421431
-0.0462823
0.432404
-0.0370504
0.441751
-0.0284843
0.44915
-0.0200225
0.454747
-0.011399
0.458607
-0.00277467
0.461006
0.00648477
0.462067
0.0159591
0.46166
0.027098
0.460212
0.0385687
0.45783
0.0516559
0.454935
0.0633298
0.4516
0.0714355
0.447146
0.0705732
0.440918
0.0598443
0.433363
0.0483738
0.425649
0.0435979
0.418517
0.0441305
0.41202
0.0475417
0.405815
0.0523462
0.398796
0.0585758
0.388871
0.06643
0.373363
0.075732
0.350572
0.0859035
0.0967297
-0.172056
-0.112723
-0.147323
-0.120106
-0.116937
-0.145031
-0.0861898
-0.151718
-0.192327
0.216847
-0.13351
0.241806
-0.137229
0.26961
-0.144814
0.294412
-0.131238
0.318574
-0.126972
0.342236
-0.119114
0.363551
-0.106286
0.383333
-0.0956259
0.401275
-0.0833746
0.41726
-0.0714726
0.431517
-0.0605392
0.443861
-0.0493952
0.454524
-0.0391473
0.463501
-0.0289986
0.470661
-0.0185592
0.476367
-0.00848079
0.480221
0.00263025
0.482346
0.0138349
0.482932
0.0265114
0.48196
0.0395408
0.479666
0.05395
0.476303
0.0666928
0.471602
0.0761369
0.465102
0.0770729
0.456623
0.0683236
0.446787
0.0582096
0.436621
0.0537641
0.426761
0.0539903
0.417403
0.0569001
0.408709
0.0610398
0.40093
0.0663549
0.393999
0.0733615
0.387019
0.0827115
0.377328
0.0955947
0.113417
-0.167917
-0.137134
-0.142371
-0.145652
-0.11068
-0.176722
-0.183606
-0.190476
0.216325
-0.159358
0.242324
-0.163228
0.271694
-0.174184
0.297765
-0.15731
0.323176
-0.152382
0.347907
-0.143846
0.37038
-0.128758
0.390998
-0.116245
0.409968
-0.102344
0.426866
-0.0883706
0.441922
-0.0755958
0.455276
-0.0627487
0.466798
-0.0506696
0.476562
-0.038762
0.48464
-0.0266371
0.490862
-0.0147032
0.495419
-0.00192666
0.498303
0.0109508
0.499654
0.0251605
0.499565
0.0396294
0.498244
0.0552707
0.495749
0.0691877
0.491952
0.0799339
0.48611
0.0829156
0.478013
0.0764207
0.468146
0.068076
0.457452
0.0644578
0.446518
0.0649246
0.435479
0.0679391
0.42434
0.0721794
0.413299
0.0773953
0.402708
0.0839526
0.393067
0.0923533
0.384592
0.10407
0.122078
-0.164855
-0.162755
-0.138199
-0.172308
-0.10505
-0.209871
-0.21681
-0.189315
0.216498
-0.186542
0.243929
-0.190658
0.274981
-0.205236
0.302254
-0.184583
0.328952
-0.179081
0.354934
-0.169827
0.378424
-0.152248
0.400251
-0.138072
0.420037
-0.12213
0.437873
-0.106206
0.453985
-0.0917084
0.468216
-0.0769794
0.480645
-0.0630988
0.491401
-0.0495178
0.500429
-0.0356657
0.507709
-0.0219828
0.513302
-0.00751974
0.517201
0.00705228
0.519379
0.0229821
0.519964
0.0390442
0.519179
0.0560559
0.51705
0.0713166
0.513501
0.0834832
0.508138
0.0882782
0.500596
0.0839627
0.49122
0.0774523
0.480829
0.0748484
0.469951
0.0758033
0.458659
0.0792311
0.446936
0.0839021
0.434696
0.0896351
0.422019
0.0966301
0.409064
0.105309
0.396429
0.116704
0.133474
-0.162461
-0.189609
-0.134645
-0.200125
-0.0997808
-0.244734
-0.188985
0.217539
0.246418
0.27917
0.307833
0.336
-0.207247
0.363338
-0.197165
0.388047
-0.176958
0.410761
-0.160786
0.431659
-0.143028
0.450328
-0.124875
0.467151
-0.108531
0.482199
-0.0920279
0.495493
-0.0763924
0.50705
-0.0610756
0.516887
-0.0455022
0.525048
-0.0301435
0.531421
-0.0138936
0.536026
0.00244787
0.538925
0.0200826
0.540185
0.0377848
0.539987
0.0562534
0.538376
0.0729275
0.53525
0.0866099
0.530313
0.0932151
0.523287
0.0909886
0.514392
0.0863476
0.504313
0.0849267
0.493637
0.0864795
0.482495
0.0903733
0.470804
0.0955931
0.458501
0.101938
0.445486
0.109646
0.431606
0.119189
0.416797
0.131513
0.148829
-0.160642
-0.131469
0.343908
0.37272
0.398603
-0.202841
0.422459
-0.184641
0.444344
-0.164914
0.463896
-0.144426
0.481578
-0.126213
0.49751
-0.107959
0.51152
-0.0904027
0.523809
-0.0733646
0.534525
-0.0562182
0.54341
-0.0390287
0.550592
-0.0210751
0.555969
-0.00292932
0.559683
0.0163686
0.561703
0.035765
0.562019
0.0559372
0.560881
0.0740651
0.558121
0.0893701
0.553547
0.0977895
0.546894
0.097641
0.538295
0.0949472
0.528438
0.0947831
0.51786
0.0970583
0.50667
0.101563
0.494939
0.107324
0.482587
0.11429
0.469521
0.122711
0.45558
0.13313
0.440475
0.146618
0.16544
0.410323
0.43541
0.458335
-0.187839
0.478832
-0.164924
0.497312
-0.144693
0.513886
-0.124533
0.528702
-0.105219
0.541843
-0.0865055
0.553158
-0.0675331
0.562827
-0.0486976
0.570734
-0.0289825
0.576897
-0.00909178
0.581249
0.0120159
0.583889
0.0331253
0.584832
0.0549941
0.584125
0.0747726
0.581778
0.0917171
0.57761
0.101957
0.571386
0.103865
0.563208
0.103125
0.553569
0.104422
0.542998
0.107629
0.531766
0.112796
0.519821
0.119269
0.507223
0.126888
0.493932
0.136003
0.479813
0.147249
0.464628
0.161803
0.182084
0.473495
0.494902
-0.186331
0.514285
-0.164076
0.53173
-0.141977
0.547172
-0.120661
0.560945
-0.100278
0.573042
-0.0796302
0.583407
-0.0590626
0.591979
-0.0375552
0.598779
-0.015891
0.6038
0.00699482
0.607088
0.0298373
0.608621
0.0534609
0.60844
0.0749537
0.606516
0.0936408
0.602739
0.105734
0.596915
0.109689
0.589118
0.110922
0.579733
0.113807
0.569283
0.118079
0.557963
0.124115
0.54585
0.131382
0.532954
0.139784
0.519271
0.149685
0.504764
0.161757
0.489204
0.177363
0.198915
0.512232
0.532458
-0.184303
0.550648
-0.160168
0.566917
-0.13693
0.581404
-0.114765
0.594126
-0.092352
0.605093
-0.0700299
0.61434
-0.0468023
0.621826
-0.0233768
0.627481
0.0013398
0.631292
0.0260257
0.63337
0.0513832
0.633645
0.0746784
0.632145
0.0951412
0.62882
0.109059
0.623496
0.115014
0.616092
0.118325
0.607017
0.122883
0.59668
0.128416
0.58534
0.135456
0.573088
0.143634
0.55994
0.152932
0.545887
0.163739
0.530882
0.176762
0.514776
0.193468
0.216299
0.551955
-0.205502
0.570939
-0.179152
0.587928
-0.153919
0.603097
-0.129934
0.616371
-0.105625
0.628025
-0.0816846
0.637895
-0.0566718
0.645968
-0.0314505
0.652248
-0.00494028
0.65668
0.0215937
0.659261
0.0488023
0.660035
0.073905
0.658981
0.0961951
0.656068
0.111971
0.651158
0.119924
0.644162
0.125321
0.63542
0.131625
0.62527
0.138565
0.613951
0.146776
0.601586
0.155999
0.588197
0.16632
0.573813
0.178123
0.558342
0.192234
0.541705
0.210105
0.234356
0.57277
0.592611
-0.198993
0.610241
-0.171549
0.626096
-0.145789
0.640129
-0.119658
0.652354
-0.0939103
0.662825
-0.0671426
0.67146
-0.0400854
0.678206
-0.0116865
0.683161
0.0166392
0.686281
0.0456826
0.687471
0.0727146
0.686857
0.0968087
0.684382
0.114446
0.67993
0.124376
0.673406
0.131845
0.664965
0.140066
0.655018
0.148512
0.643792
0.158002
0.631351
0.16844
0.617776
0.179895
0.603066
0.192832
0.587215
0.208085
0.570054
0.227266
0.253066
0.615563
0.634073
-0.190059
0.650565
-0.162282
0.665192
-0.134285
0.678003
-0.106722
0.689022
-0.0781611
0.698201
-0.0492649
0.705573
-0.0190582
0.711002
0.0112106
0.714545
0.0421392
0.716227
0.0710324
0.716007
0.0970286
0.713949
0.116504
0.709917
0.128409
0.703818
0.137944
0.695766
0.148118
0.686052
0.158227
0.674902
0.169152
0.662421
0.180921
0.648693
0.193623
0.633723
0.207803
0.617459
0.224348
0.599809
0.244917
0.27234
0.659265
-0.209341
0.676493
-0.17951
0.691723
-0.149514
0.705135
-0.120134
0.716688
-0.0897142
0.726418
-0.058995
0.734231
-0.0268712
0.740175
0.00526708
0.744156
0.0381577
0.746221
0.0689677
0.746438
0.0968108
0.744782
0.11816
0.741209
0.131981
0.735521
0.143633
0.727831
0.155808
0.718376
0.167682
0.707337
0.18019
0.69487
0.193388
0.681008
0.207485
0.665791
0.22302
0.649176
0.240963
0.631061
0.263031
0.292142
0.685908
0.703858
-0.19746
0.719823
-0.165479
0.733773
-0.134085
0.745898
-0.101839
0.756116
-0.0692132
0.764457
-0.0352117
0.770807
-0.00108359
0.775201
0.0337641
0.77771
0.0664587
0.778259
0.0962614
0.776998
0.119422
0.773813
0.135166
0.768538
0.148908
0.761236
0.16311
0.752062
0.176856
0.741218
0.191035
0.728766
0.20584
0.714807
0.221444
0.699363
0.238464
0.682412
0.257915
0.663875
0.281569
0.312509
0.732918
-0.216168
0.749514
-0.182075
0.764082
-0.148653
0.776717
-0.114473
0.787402
-0.0798988
0.79615
-0.043959
0.802942
-0.00787577
0.807773
0.0289325
0.810583
0.063649
0.811504
0.09534
0.810633
0.120293
0.807839
0.13796
0.803007
0.15374
0.796077
0.170041
0.787182
0.185751
0.776493
0.201723
0.764127
0.218206
0.750109
0.235462
0.734476
0.254097
0.717224
0.275166
0.698269
0.300523
0.333354
0.763629
0.780868
-0.199313
0.796073
-0.163858
0.809208
-0.127609
0.820364
-0.0910547
0.82959
-0.0531852
0.836756
-0.0150418
0.84192
0.0237689
0.845093
0.0604758
0.846346
0.0940869
0.845816
0.120824
0.843411
0.140365
0.838944
0.158206
0.832378
0.176607
0.823827
0.194303
0.813352
0.212198
0.801054
0.230504
0.786998
0.249518
0.771231
0.269864
0.753718
0.29268
0.73438
0.319861
0.35467
0.813971
-0.217265
0.829776
-0.179664
0.843487
-0.141319
0.85516
-0.102727
0.864746
-0.0627711
0.872312
-0.0226085
0.877787
0.018294
0.88128
0.0569832
0.882891
0.0924758
0.882575
0.12114
0.88054
0.1424
0.876464
0.162282
0.870186
0.182885
0.862017
0.202472
0.85176
0.222455
0.839611
0.242654
0.825555
0.263574
0.809678
0.285741
0.791928
0.31043
0.772253
0.339536
0.376428
0.848964
0.865383
-0.196082
0.879645
-0.155582
0.891768
-0.11485
0.901763
-0.0727667
0.909669
-0.0305146
0.9155
0.0124638
0.919222
0.0532603
0.921095
0.0906028
0.921127
0.121108
0.919337
0.14419
0.915651
0.165969
0.909814
0.188721
0.901925
0.21036
0.891936
0.232444
0.879815
0.254775
0.865843
0.277545
0.849946
0.301638
0.832019
0.328357
0.811972
0.359583
0.398582
0.902943
-0.213196
0.917757
-0.170396
0.930359
-0.127451
0.940749
-0.0831571
0.949046
-0.0388114
0.955176
0.0063335
0.959188
0.0492482
0.96118
0.0886115
0.961477
0.120811
0.960068
0.145599
0.956669
0.169367
0.951155
0.194236
0.943427
0.218088
0.933733
0.242138
0.921846
0.266662
0.908023
0.291368
0.891878
0.317783
0.873808
0.346428
0.853594
0.379797
0.421078
0.942485
-0.230917
0.957989
-0.1859
0.97106
-0.140522
0.981934
-0.0940315
0.990378
-0.0472551
0.99687
-0.000158589
1.00112
0.0450009
1.00337
0.0863597
1.00393
0.120253
1.00268
0.14685
0.999509
0.172533
0.99429
0.199455
0.98688
0.225498
0.977322
0.251696
0.965848
0.278137
0.951887
0.305329
0.935992
0.333677
0.917759
0.364661
0.89726
0.400297
0.443804
0.984331
1.00032
-0.20189
1.01379
-0.153992
1.0251
-0.105342
1.034
-0.056152
1.04059
-0.00674969
1.04512
0.0404747
1.04753
0.0839517
1.04823
0.119545
1.04728
0.147808
1.04446
0.175346
1.03951
0.204407
1.0324
0.232605
1.02315
0.260955
1.01161
0.289667
0.998021
0.318923
0.981944
0.349754
0.963601
0.383003
0.943202
0.420695
0.466951
1.04489
-0.218353
1.05914
-0.168236
1.07065
-0.116854
1.07999
-0.0654884
1.08676
-0.0135221
1.09141
0.0358204
1.09414
0.0812288
1.09484
0.118842
1.09412
0.148523
1.09134
0.17813
1.08679
0.208958
1.07996
0.239431
1.071
0.269921
1.05958
0.30108
1.04591
0.332599
1.03015
0.365508
1.0119
0.40126
0.991053
0.441539
0.490016
1.09215
-0.235668
1.10671
-0.182797
1.11869
-0.12884
1.12827
-0.075065
1.13537
-0.0206174
1.1401
0.0310852
1.14282
0.0785105
1.14396
0.117696
1.14311
0.149374
1.14076
0.180484
1.13609
0.213631
1.12968
0.24584
1.12084
0.278762
1.10986
0.312054
1.09644
0.346025
1.08042
0.381524
1.0623
0.419381
1.04152
0.462322
0.51352
1.14167
1.15678
-0.197905
1.16927
-0.141328
1.17901
-0.0848091
1.18654
-0.0281425
1.19141
0.0262114
1.19429
0.0756288
1.1953
0.116685
1.19477
0.149903
1.19237
0.182892
1.18818
0.217816
1.18168
0.252339
1.17311
0.287335
1.16226
0.322904
1.14895
0.359337
1.13332
0.397156
1.11492
0.437779
1.09425
0.482986
0.536962
1.20966
-0.213679
1.2227
-0.154368
1.23282
-0.0949375
1.24022
-0.0355331
1.24545
0.0209773
1.24819
0.0728929
1.24922
0.115648
1.24882
0.150305
1.24646
0.185255
1.2424
0.221875
1.23626
0.258481
1.22778
0.295815
1.21705
0.333635
1.20401
0.372371
1.18849
0.412682
1.17046
0.455806
1.14952
0.503925
0.560277
1.26548
-0.229942
1.27874
-0.167625
1.28927
-0.105469
1.29704
-0.0433056
1.30205
0.0159707
1.30517
0.0697764
1.30634
0.114477
1.30568
0.150961
1.30364
0.187299
1.29951
0.226002
1.29338
0.264612
1.28528
0.303914
1.27481
0.344102
1.26191
0.385277
1.24635
0.428234
1.22828
0.473876
1.20772
0.524492
0.583694
1.32419
1.33799
-0.181431
1.34874
-0.11622
1.35668
-0.0512372
1.36206
0.0105894
1.36484
0.0669901
1.36592
0.113396
1.36565
0.151234
1.3634
0.189555
1.35932
0.230076
1.35347
0.270461
1.34526
0.312122
1.3349
0.354469
1.32213
0.398049
1.30702
0.443336
1.2891
0.491803
1.26851
0.54508
0.607003
1.40018
-0.195664
1.41148
-0.127518
1.41949
-0.059242
1.4249
0.00517545
1.42798
0.0639095
1.42898
0.1124
1.42849
0.151717
1.42634
0.191704
1.42243
0.23399
1.41637
0.276521
1.40849
0.320007
1.3982
0.364755
1.38571
0.410542
1.37046
0.45858
1.35286
0.509409
1.33244
0.565498
0.630148
1.46611
-0.210625
1.47742
-0.13883
1.48585
-0.0676695
1.49138
-0.000360879
1.49419
0.0610994
1.49522
0.111376
1.49457
0.152368
1.49244
0.193828
1.4885
0.237932
1.48265
0.282369
1.4746
0.328056
1.46453
0.374828
1.45201
0.423063
1.43723
0.473357
1.41967
0.526966
1.39947
0.585701
1.53513
1.54717
-0.150867
1.55564
-0.0761367
1.56114
-0.00586453
1.56417
0.0580741
1.56501
0.110536
1.56439
0.152985
1.56213
0.196091
1.55797
0.24209
1.55214
0.288198
1.5442
0.335998
1.53416
0.384864
1.5219
0.435323
1.50715
0.488113
1.48981
0.544305
0.605657
1.62041
-0.163015
1.6293
-0.0850335
1.63475
-0.0113089
1.63759
0.0552341
1.63853
0.109594
1.63767
0.153845
1.63522
0.198538
1.63111
0.246203
1.62511
0.294195
1.6174
0.343716
1.60737
0.394885
1.59506
0.447636
1.58048
0.502699
1.56337
0.561413
0.625478
1.69783
-0.175661
1.70671
-0.0939173
1.71246
-0.0170586
1.7153
0.0523927
1.71585
0.109051
1.71498
0.154708
1.71245
0.201068
1.7082
0.250458
1.70215
0.300243
1.69418
0.351692
1.68414
0.404921
1.67205
0.459723
1.65763
0.517123
1.64061
0.578427
0.644854
1.77913
-0.188662
1.78854
-0.103322
1.79415
-0.0226689
1.79689
0.0496463
1.79745
0.108491
1.79628
0.155882
1.79364
0.203702
1.78921
0.254889
1.78308
0.306379
1.77496
0.359808
1.76503
0.414853
1.753
0.471755
1.73858
0.53154
1.72195
0.595055
0.6642
1.86515
-0.202064
1.87457
-0.11274
1.88031
-0.0284086
1.88296
0.0469984
1.88352
0.107927
1.88214
0.157269
1.87921
0.206631
1.87457
0.259528
1.86831
0.312636
1.86017
0.367953
1.85016
0.424856
1.83787
0.484045
1.82374
0.545672
1.8072
0.611591
0.683217
1.95571
1.96531
-0.122343
1.97126
-0.0343506
1.97393
0.0443295
1.97399
0.107861
1.97249
0.15877
1.96942
0.209705
1.96454
0.264408
1.95798
0.319196
1.94963
0.376301
1.93952
0.434963
1.92753
0.496036
1.91323
0.559976
1.89678
0.628038
0.701904
2.06109
-0.132208
2.06693
-0.0401862
2.06941
0.041849
2.06943
0.107841
2.06782
0.160376
2.06439
0.213139
2.05938
0.269417
2.05249
0.326086
2.04405
0.384743
2.03366
0.445347
2.02151
0.508192
2.00745
0.574037
1.99121
0.644271
0.720407
2.16204
-0.142575
2.16789
-0.0460396
2.17047
0.0392711
2.17025
0.108055
2.16819
0.162439
2.16453
0.216803
2.15922
0.274724
2.15211
0.333193
2.1434
0.393453
2.133
0.45575
2.12079
0.520398
2.10652
0.58831
2.09048
0.660308
0.738737
2.26846
-0.153141
2.27454
-0.052112
2.27674
0.0370646
2.27638
0.108419
2.27415
0.164671
2.27011
0.220845
2.26447
0.280363
2.25725
0.340406
2.24824
0.402463
2.2375
0.466491
2.22508
0.532823
2.21099
0.602396
2.19485
0.676453
0.756907
2.38054
-0.163824
2.38671
-0.0582844
2.38894
0.0348409
2.38828
0.109076
2.38585
0.167096
2.38165
0.225045
2.37552
0.286498
2.36789
0.348039
2.35855
0.4118
2.34773
0.477314
2.33505
0.545498
2.32084
0.616605
2.3047
0.692592
0.774799
2.4989
2.50511
-0.0644971
2.50715
0.0327989
2.50645
0.10978
2.50364
0.169911
2.49901
0.22967
2.49263
0.292875
2.48456
0.356116
2.475
0.421353
2.46364
0.488675
2.45097
0.558173
2.43646
0.63111
2.42058
0.70847
0.792719
2.63006
-0.0708354
2.63209
0.0307744
2.63102
0.110848
2.62782
0.173114
2.62285
0.234634
2.61607
0.29966
2.60766
0.364527
2.59772
0.431291
2.58621
0.50018
2.57309
0.5713
2.55867
0.645523
2.54232
0.72482
2.76161
-0.077263
2.76367
0.0287215
2.76224
0.112278
2.75889
0.17646
2.75357
0.239956
2.74635
0.30688
2.73758
0.373293
2.72709
0.441784
2.71513
0.512139
2.70194
0.584492
2.68703
0.660433
0.740979
2.90068
-0.0839049
2.90235
0.0270535
2.90091
0.113719
2.89712
0.180243
2.89127
0.245805
2.88374
0.314418
2.87444
0.382588
2.86365
0.452579
2.85134
0.524444
2.8375
0.598334
2.82261
0.67532
0.7574
3.04697
-0.0904117
3.04888
0.0251465
3.047
0.115604
3.04288
0.184357
3.03677
0.251918
3.02875
0.322441
3.0189
0.392433
3.0075
0.463981
2.99482
0.537125
2.98084
0.61231
2.96526
0.690909
0.773843
3.2017
3.20314
0.0237049
3.2012
0.117548
3.19669
0.188867
3.19016
0.258444
3.18163
0.330976
3.17134
0.402715
3.15958
0.475742
3.14622
0.550487
3.13167
0.626861
3.11603
0.706546
0.790896
3.36616
0.0222071
3.3637
0.120014
3.35897
0.193596
3.35197
0.265443
3.3429
0.340047
3.33215
0.413467
3.31958
0.488305
3.30592
0.564146
3.2909
0.641887
3.27477
0.72268
0.808051
3.53806
0.0206033
3.53549
0.122582
3.5302
0.198884
3.52271
0.27294
3.51307
0.349683
3.50169
0.424848
3.48871
0.501283
3.47431
0.578548
3.45864
0.657551
3.44211
0.73921
0.82562
3.71924
0.0193151
3.71635
0.125473
3.71061
0.204622
3.70275
0.280804
3.69266
0.359777
3.68062
0.436887
3.66705
0.514847
3.65202
0.593585
3.63595
0.67362
3.61871
0.756446
0.843778
3.91045
0.0179982
3.90723
0.128697
3.90128
0.210567
3.89288
0.289209
3.88203
0.370626
3.86943
0.449482
3.85512
0.52916
3.83942
0.609287
3.82264
0.690396
3.8048
0.774286
0.862296
4.11211
0.0168001
4.10864
0.132165
4.10217
0.217036
4.09319
0.298189
4.08196
0.381858
4.06851
0.462931
4.05355
0.544117
4.03715
0.625688
4.01963
0.707915
4.00129
0.792634
4.32483
0.0156675
4.32106
0.135941
4.31419
0.223906
4.3046
0.307781
4.29268
0.393776
4.27875
0.47686
4.26284
0.560023
4.24585
0.642684
4.22742
0.726345
0.81166
4.54927
4.54518
0.140034
4.53784
0.231238
4.52774
0.317887
4.51496
0.406558
4.50024
0.491573
4.48376
0.576504
4.46573
0.660716
4.44676
0.745317
0.831539
4.78154
0.144524
4.77387
0.238909
4.76307
0.328686
4.74969
0.419938
4.73402
0.507241
4.71666
0.593865
4.69783
0.679548
4.67801
0.76514
0.852307
5.03088
0.149287
5.02252
0.247265
5.0113
0.339913
4.9971
0.434134
4.98071
0.523628
4.96244
0.612142
4.94263
0.699351
4.92179
0.78598
0.873869
5.29391
0.154385
5.28509
0.256084
5.27309
0.351913
5.25821
0.449012
5.24093
0.54091
5.2217
0.631375
5.20089
0.72016
5.17899
0.807875
0.896398
5.57135
0.159664
5.56192
0.265508
5.54926
0.36458
5.5335
0.464769
5.51529
0.559124
5.49506
0.651597
5.47334
0.741884
5.45048
0.830732
0.919932
5.86391
0.165518
5.85395
0.275467
5.84056
0.377975
5.82387
0.481454
5.80481
0.578184
5.78342
0.672989
5.76061
0.764693
5.73662
0.854727
6.17247
0.171759
6.16201
0.285921
6.14786
0.392127
6.13035
0.498963
6.11013
0.598402
6.0878
0.695326
6.06359
0.788902
0.879768
6.49819
0.178332
6.48711
0.297
6.47198
0.407262
6.45359
0.517355
6.43217
0.619824
6.4087
0.718794
6.38344
0.814156
0.9063
6.84162
6.82981
0.308812
6.81409
0.422977
6.79461
0.536835
6.7722
0.642237
6.74729
0.743701
6.72067
0.84077
0.934103
7.19169
0.320741
7.17476
0.439908
7.15403
0.557557
7.13097
0.665298
7.10445
0.770228
7.07696
0.86826
0.96362
7.57308
0.334818
7.55556
0.45742
7.53391
0.579213
7.50831
0.690899
7.4813
0.797238
7.45156
0.897992
0.993446
7.97578
0.347681
7.95693
0.476273
7.93406
0.602086
7.90862
0.716334
7.87924
0.82662
7.84854
0.928691
1.02678
5.77661
0.380957
5.7489
0.503982
5.73272
0.618263
5.7123
0.736758
5.69151
0.847404
5.71073
0.909474
6.34696
0.417478
6.31613
0.534811
6.29691
0.637482
6.27749
0.756181
6.25518
0.869712
0.890487
6.97374
0.457458
6.93965
0.568907
6.91983
0.6573
6.89732
0.778689
6.87074
0.896298
0.866642
7.66205
0.50111
7.62446
0.6065
7.60387
0.677889
7.57679
0.80577
7.54968
0.923408
0.842044
8.4183
0.549929
8.37704
0.647761
8.35287
0.702055
8.32629
0.832355
8.29589
0.953806
0.815538
9.24872
0.602922
9.20349
0.692994
9.1768
0.728745
9.14652
0.862632
9.11388
0.986447
0.784779
10.1616
10.1136
0.74094
10.0843
0.75807
10.0516
0.895352
10.014
1.02396
0.752403
11.1101
0.796196
11.0789
0.789307
11.0419
0.932394
11.0015
1.06434
0.716415
12.2122
0.854249
12.177
0.824543
12.1374
0.971964
12.0935
1.10829
0.674871
13.4093
0.92101
13.3708
0.863023
13.327
1.01572
13.2777
1.15767
14.7544
0.990917
14.7142
0.903245
14.6661
1.06378
1.20671
16.1762
1.07023
16.1281
0.951357
16.074
1.11785
1.26834
17.8629
17.8184
17.7699
)
;

boundaryField
{
    inlet
    {
        type            calculated;
        value           nonuniform List<scalar> 4(1.14882 0.99578 1.16639 1.31804);
    }
    outlet
    {
        type            calculated;
        value           nonuniform List<scalar> 0();
    }
    walls
    {
        type            calculated;
        value           uniform 0;
    }
    frontAndBack
    {
        type            empty;
    }
    procBoundary5to0
    {
        type            processor;
        value           nonuniform List<scalar> 4(-0.215096 -0.217952 -0.229298 -0.281378);
    }
    procBoundary5to1
    {
        type            processor;
        value           nonuniform List<scalar> 
13
(
-0.0219501
-0.0343796
-0.0478569
-0.0393925
-0.0995618
-0.0627564
-0.0542905
-0.158996
-0.0787919
-0.0718461
-0.0650528
-0.251538
-0.0948256
)
;
    }
    procBoundary5to4
    {
        type            processor;
        value           nonuniform List<scalar> 
95
(
-0.219537
-0.237988
-0.213246
-0.31445
-0.236706
-0.225977
-0.38329
-0.229874
-0.209727
-0.449491
-0.211843
-0.489832
-0.20873
-0.530755
-0.550674
-0.227597
-0.594837
-0.219719
-0.639983
-0.665855
-0.229394
-0.71421
-0.744124
-0.235673
-0.796019
-0.830171
-0.236058
-0.88583
-0.924763
-0.965769
-0.249479
-1.02843
-1.07483
-1.12369
-0.253647
-1.19388
-1.24922
-1.30714
-0.246992
-1.38595
-1.45115
-1.51992
-0.225842
-1.60826
-1.68518
-1.76613
-1.85175
-1.94174
-0.21604
-2.05123
-2.15167
-2.2579
-2.36986
-2.48767
-0.17505
-2.62373
-2.75519
-2.89404
-3.04047
-3.19465
-0.0974599
-3.36466
-3.53646
-3.71795
-3.90913
-4.11091
-4.3237
-4.54811
0.0145122
-4.78603
-5.03564
-5.29901
-5.57663
-5.86976
-6.17871
-6.50477
-6.8486
0.185315
-7.20362
-7.58715
-7.98865
-5.80988
-6.38348
-7.01372
-7.7057
-8.46712
-9.30172
-10.2201
0.661514
-11.1654
-12.2703
-13.476
-14.8243
-16.2555
-17.9415
)
;
    }
    procBoundary5to6
    {
        type            processor;
        value           nonuniform List<scalar> 
86
(
0.126578
0.168128
0.213219
0.265961
0.321284
0.360641
0.37593
0.385034
0.401441
0.423865
0.447983
0.472373
0.497392
0.523649
0.551343
0.580535
0.611259
0.643508
0.677423
0.713065
0.750494
0.789818
0.831097
0.874534
0.920055
0.967989
1.01801
1.07081
1.12621
1.1843
1.2452
1.30929
1.3764
0.653217
1.46985
1.54355
1.62124
1.70261
1.78819
1.87809
1.97271
2.07215
2.17668
2.28681
2.40266
2.52449
0.810557
2.67087
2.80619
2.94881
3.09898
3.25761
3.42454
3.60055
3.78628
3.98223
0.881347
4.20839
4.42688
4.65724
4.90023
5.15646
5.42695
5.7119
0.944648
6.03855
6.35691
6.69287
7.04744
7.42174
7.81521
5.71374
1.02377
6.27417
6.89458
7.57428
8.3224
9.14464
10.0464
11.0375
12.135
13.3202
0.632362
14.6171
16.0124
17.7202
)
;
    }
}


// ************************************************************************* //
