/*--------------------------------*- C++ -*----------------------------------*\
| =========                 |                                                 |
| \\      /  F ield         | OpenFOAM: The Open Source CFD Toolbox           |
|  \\    /   O peration     | Version:  2506                                  |
|   \\  /    A nd           | Website:  www.openfoam.com                      |
|    \\/     M anipulation  |                                                 |
\*---------------------------------------------------------------------------*/
FoamFile
{
    version     2.0;
    format      ascii;
    arch        "LSB;label=32;scalar=64";
    class       volSymmTensorField;
    location    "400";
    object      turbulenceProperties:R;
}
// * * * * * * * * * * * * * * * * * * * * * * * * * * * * * * * * * * * * * //

dimensions      [0 2 -2 0 0 0 0];

internalField   nonuniform List<symmTensor> 
1340
(
(0.0144987 0.00306875 -6.84742e-22 0.0120404 -1.61361e-20 0.0134172)
(0.0172866 0.00364568 -9.29161e-23 0.0136447 1.04864e-19 0.0155754)
(0.0210787 0.00423416 -2.14383e-20 0.0153257 -3.37289e-19 0.0184316)
(0.0262504 0.00499595 9.57189e-20 0.0176186 7.06458e-19 0.0222311)
(0.0326217 0.00571451 -1.87825e-19 0.0200522 -6.9357e-19 0.026672)
(0.0409539 0.00622487 -1.4771e-19 0.0227818 -3.86293e-19 0.0323712)
(0.0517331 0.00649517 2.87124e-19 0.0261171 1.10315e-18 0.0395675)
(0.0651916 0.00618103 -7.49147e-19 0.0300847 -2.0378e-18 0.0484256)
(0.0821905 0.00491641 -1.89718e-19 0.035131 5.5527e-19 0.0596895)
(0.10357 0.0024329 5.72957e-19 0.0419322 1.17571e-18 0.074012)
(0.130615 -0.00179553 1.49451e-18 0.0513614 5.46522e-19 0.092537)
(0.165469 -0.00835551 -3.39845e-18 0.0647919 -3.15631e-18 0.117021)
(0.21109 -0.0181759 6.49698e-19 0.0840952 8.38588e-19 0.1499)
(0.272354 -0.0328491 2.61471e-18 0.112291 1.23916e-18 0.195176)
(0.357553 -0.0550346 -3.99511e-18 0.154536 -6.24081e-18 0.259669)
(0.479505 -0.0890631 -4.30059e-18 0.219191 -2.54667e-18 0.354039)
(0.663287 -0.143543 1.90118e-17 0.322814 1.7604e-17 0.499443)
(0.940196 -0.230775 1.7732e-17 0.488982 3.35506e-17 0.723347)
(1.4174 -0.387142 -3.5229e-17 0.789752 -5.46086e-17 1.11644)
(2.14081 -0.639983 -1.37398e-18 1.27813 1.45139e-17 1.72768)
(3.75097 -1.21249 -2.71844e-17 2.39986 5.1973e-17 3.10447)
(6.10075 -2.11284 -1.24358e-17 4.18499 4.18536e-17 5.18201)
(13.836 -5.12746 -1.43102e-16 10.2536 -6.41779e-16 12.123)
(25.9898 -10.3103 3.31424e-16 21.0501 5.58853e-16 23.6451)
(27.6393 -11.6472 4.23715e-17 24.5413 -7.12213e-16 26.1522)
(25.5075 -11.2293 3.65782e-16 24.4654 5.81124e-16 24.9695)
(24.4023 -11.0453 -8.18268e-17 24.7232 -7.8434e-17 24.5181)
(24.332 -11.2281 2.74507e-16 25.6864 2.30565e-16 24.972)
(24.4165 -11.4416 7.29002e-16 26.7054 1.20846e-15 25.5363)
(24.1216 -11.4541 4.00506e-16 27.2734 1.9975e-15 25.6849)
(23.3953 -11.2398 -1.41139e-15 27.3092 -1.93132e-15 25.3548)
(22.3231 -10.8335 -4.7487e-16 26.8596 -7.2609e-16 24.6071)
(20.8803 -10.2202 -3.2284e-17 25.8524 -4.3678e-15 23.3887)
(19.0955 -9.41343 -2.58302e-15 24.2901 -7.29939e-15 21.7158)
(16.9505 -8.40513 1.00624e-15 22.1144 9.23179e-16 19.5537)
(0.0120301 0.00257346 1.65926e-21 0.0106522 3.85338e-20 0.0113951)
(0.0101308 0.00212442 -2.37321e-21 0.00934049 1.7071e-23 0.00982538)
(0.00808315 0.00164666 -1.23391e-20 0.00782731 -8.64907e-20 0.00799975)
(0.0063859 0.00123968 2.95487e-21 0.00644524 5.55275e-20 0.00644594)
(0.00486371 0.000879186 2.15764e-21 0.00505103 -1.00497e-20 0.00497248)
(0.00355263 0.000586712 -1.7019e-20 0.00372635 5.57119e-20 0.00363919)
(0.00253013 0.000377468 -9.14022e-20 0.00261695 7.35653e-20 0.0025572)
(0.00226708 -0.000155249 4.14167e-23 0.00189643 1.34947e-21 0.00205172)
(0.00222406 -0.000181973 9.65228e-21 0.00191884 2.33897e-20 0.00203798)
(0.00215864 -0.000204454 -8.83522e-21 0.0019412 -1.55767e-20 0.00201038)
(0.00205931 -0.000211721 -5.88764e-21 0.0019265 -1.67695e-20 0.00194814)
(0.00192973 -0.000206756 3.91872e-20 0.00187662 7.60563e-20 0.00185481)
(0.00178982 -0.000193311 1.50776e-20 0.00180978 2.33914e-20 0.00174787)
(0.00164015 -0.000173016 7.08533e-20 0.00171467 6.50923e-20 0.00162239)
(0.00148395 -0.000149084 -3.63229e-20 0.00159447 -6.99e-21 0.00148233)
(0.00133653 -0.000125537 5.11405e-20 0.001468 3.54371e-20 0.00134399)
(0.00119891 -0.000104531 -1.82195e-21 0.00133681 7.78055e-23 0.00120848)
(0.00107268 -8.69448e-05 -6.96685e-20 0.00120611 -5.95213e-20 0.00107993)
(0.000987019 -7.80234e-05 9.33783e-20 0.00111434 1.16246e-19 0.000989112)
(0.000976211 -8.37162e-05 6.53835e-20 0.0011064 3.28556e-20 0.000969184)
(0.00107582 -0.000114017 -1.70904e-20 0.00122304 9.26958e-21 0.00104863)
(0.00141247 -0.000214139 -1.40973e-19 0.00159268 2.32057e-20 0.00132275)
(0.00229545 -0.000517915 3.75393e-19 0.00244942 4.29575e-19 0.00199405)
(0.00462257 -0.00138356 7.64236e-19 0.00434272 -8.35683e-19 0.00368195)
(0.0101338 -0.00334591 -4.16581e-18 0.00824698 -5.39946e-18 0.00777216)
(0.0250002 -0.00841322 4.90649e-19 0.0184619 7.23873e-18 0.0193051)
(0.0614751 -0.020801 7.24877e-18 0.0433976 -2.03584e-18 0.0486255)
(0.180191 -0.0619729 1.53484e-17 0.126122 6.08172e-18 0.146601)
(0.491215 -0.173849 -2.34513e-17 0.349976 -2.24575e-17 0.411315)
(1.47334 -0.543022 7.39128e-17 1.09248 1.86568e-16 1.27127)
(4.60675 -1.77747 1.58815e-19 3.60408 -1.54146e-16 4.1013)
(8.79427 -3.54022 -2.72834e-16 7.27521 1.69346e-16 8.07019)
(12.9121 -5.39294 -9.71816e-17 11.2784 -6.59936e-16 12.1766)
(16.556 -7.14921 1.18047e-18 15.277 7.56738e-17 16.0241)
(18.8673 -8.39411 -2.94541e-16 18.3833 -4.44852e-16 18.7385)
(18.906 -8.63623 -4.93644e-16 19.4315 -2.83313e-15 19.2677)
(16.9093 -7.8974 -1.66952e-16 18.2825 -3.54663e-15 17.6578)
(14.0809 -6.69155 5.22898e-16 15.935 4.89645e-15 15.0206)
(11.3784 -5.47754 -9.55151e-16 13.3929 -3.76154e-17 12.3584)
(9.25517 -4.4979 -7.18896e-15 11.2535 1.34198e-15 10.2097)
(7.67099 -3.75325 8.77199e-15 9.56209 1.59515e-14 8.57211)
(6.47983 -3.18625 -1.48863e-15 8.23135 -8.63836e-16 7.31958)
(0.00227291 -0.000117567 3.19296e-21 0.00184999 7.89804e-21 0.00203578)
(0.00226158 -7.76374e-05 -4.39125e-21 0.00180467 -3.31925e-20 0.00200878)
(0.00221 -2.67196e-05 -6.5209e-21 0.00173911 -3.88995e-20 0.00195513)
(0.00211613 3.07931e-05 -2.5306e-21 0.00166073 5.87263e-20 0.00187426)
(0.00197223 8.48926e-05 6.95057e-22 0.00156958 1.5678e-20 0.00176326)
(0.00177352 0.000127801 1.38547e-20 0.00146038 -5.32127e-20 0.00161494)
(0.00151784 -0.000120502 6.64824e-22 0.00125059 9.19764e-22 0.00139947)
(0.00147803 -0.000143657 -1.05331e-20 0.00126634 -2.55917e-20 0.00139063)
(0.00140943 -0.000159865 -2.32742e-21 0.00127072 -1.17246e-21 0.0013616)
(0.0013199 -0.000165124 8.82562e-21 0.00126219 1.90637e-20 0.00131711)
(0.00122892 -0.000160346 -2.79862e-20 0.00125142 -5.69225e-20 0.0012698)
(0.0011352 -0.000144947 -3.19399e-20 0.00123354 -5.23478e-20 0.00121757)
(0.00104699 -0.000120402 -6.49512e-20 0.00120872 -9.60035e-20 0.00116503)
(0.000973124 -9.03615e-05 -5.24981e-21 0.00118112 -7.80413e-22 0.00111758)
(0.000915123 -5.71728e-05 -2.87275e-20 0.00115183 -6.84141e-20 0.0010768)
(0.0008754 -2.41351e-05 1.20772e-19 0.0011236 1.37432e-19 0.00104542)
(0.000850748 6.58757e-06 -1.98841e-20 0.00109582 2.70454e-20 0.00102101)
(0.000842035 3.35381e-05 1.36417e-20 0.00107453 8.39395e-21 0.00100686)
(0.000846812 5.60663e-05 -9.39993e-20 0.00106209 -1.19637e-19 0.00100264)
(0.000864166 7.53519e-05 6.12952e-20 0.00106207 -5.69033e-21 0.00101033)
(0.000877936 8.92149e-05 1.77983e-20 0.00105559 5.52321e-20 0.0010111)
(0.000863842 9.31465e-05 2.09353e-20 0.00101388 1.00477e-20 0.000977033)
(0.00077172 7.75919e-05 -8.22356e-20 0.000876612 -4.78959e-20 0.000850692)
(0.000675529 6.16475e-05 5.74962e-20 0.000747973 4.28594e-20 0.000729308)
(8.13386e-05 8.87142e-07 2.6619e-22 8.22745e-05 3.47825e-24 8.20143e-05)
(0.00356406 0.00156625 -2.00944e-18 0.00510514 -3.02321e-19 0.00462983)
(0.00155951 0.000450981 6.84325e-19 0.00198657 -2.68739e-19 0.00183861)
(0.00246694 0.00115696 6.44519e-20 0.00356127 1.10473e-18 0.00312869)
(0.000281245 0.0001148 4.44862e-19 0.000488634 -6.57012e-19 0.000374689)
(0.0178354 -0.00695861 -3.39298e-18 0.0144589 -3.62517e-18 0.0156028)
(0.146216 -0.0585023 4.84161e-18 0.12174 1.70934e-17 0.130999)
(0.474695 -0.196434 -2.90102e-17 0.413539 7.9395e-18 0.43777)
(1.15467 -0.492915 1.4801e-17 1.05389 1.15481e-18 1.09522)
(2.54588 -1.11522 -1.43233e-17 2.42533 7.64686e-17 2.47476)
(4.91964 -2.20236 -4.40702e-16 4.87599 2.46438e-16 4.88764)
(7.95631 -3.6323 2.17026e-16 8.19948 3.53246e-16 8.07315)
(10.5669 -4.91433 1.56358e-15 11.3361 -5.86728e-16 10.9594)
(11.6772 -5.5237 -2.76456e-15 13.0461 2.16217e-15 12.3833)
(11.1865 -5.36675 5.13849e-16 12.9815 9.32659e-15 12.1076)
(9.87473 -4.78692 -4.87204e-17 11.8323 -6.36745e-15 10.8661)
(8.45583 -4.12822 3.05758e-15 10.384 -2.30075e-15 9.42214)
(0.00155221 -9.11047e-05 -1.3629e-21 0.00123878 -2.59439e-21 0.00140939)
(0.00156568 -5.9272e-05 -5.15644e-21 0.0012237 -7.29604e-21 0.00140585)
(0.0015711 -2.04302e-05 2.13536e-20 0.00121257 4.60392e-20 0.00140042)
(0.00154388 2.08072e-05 4.37932e-21 0.00119225 -5.18726e-21 0.00137349)
(0.00148458 6.12863e-05 3.01558e-21 0.00116498 -3.39742e-20 0.00132791)
(0.00138227 9.45469e-05 -9.39709e-21 0.0011207 2.42905e-20 0.00125262)
(0.00128852 -9.76979e-05 3.60023e-21 0.00106031 6.15889e-21 0.00116908)
(0.00127314 -0.000115777 -5.01348e-21 0.00108091 -9.03768e-21 0.00117113)
(0.00124326 -0.000131401 -2.27991e-21 0.00110008 -1.25638e-21 0.00116414)
(0.00120672 -0.000141544 2.70848e-20 0.00111814 3.96383e-20 0.00115342)
(0.00115892 -0.000144743 1.72144e-20 0.0011269 3.12032e-20 0.0011322)
(0.00110138 -0.000141116 2.18409e-20 0.00112596 4.1942e-20 0.00110097)
(0.00103936 -0.000131397 3.33736e-20 0.00111479 3.86113e-20 0.00106236)
(0.000972774 -0.000116713 -1.91621e-20 0.00108966 -2.97579e-20 0.00101448)
(0.000904795 -9.88106e-05 -6.86081e-20 0.00105273 -6.79746e-20 0.000959839)
(0.000836922 -7.97131e-05 8.92103e-20 0.00100427 5.02402e-20 0.000899699)
(0.000769939 -6.08836e-05 7.51613e-20 0.000946103 6.36553e-20 0.000835246)
(0.000703906 -4.35106e-05 9.75093e-20 0.000879744 4.67116e-20 0.000767498)
(0.000638515 -2.83865e-05 -1.60978e-19 0.000806702 -5.15545e-20 0.000697223)
(0.000573918 -1.5832e-05 -1.37493e-19 0.000729257 -9.23613e-20 0.000625774)
(0.00050996 -5.8083e-06 1.82848e-19 0.000648869 5.75119e-20 0.000553671)
(0.000443541 2.89979e-06 3.71581e-20 0.000563204 2.28825e-20 0.00047883)
(0.000378385 1.02481e-05 -2.73212e-20 0.00047589 2.81988e-21 0.000405117)
(0.000320814 1.57419e-05 -8.42059e-20 0.000394945 -5.51683e-20 0.000339739)
(0.000249411 1.5263e-05 1.44623e-20 0.000291015 -5.54883e-21 0.000259732)
(0.000147584 6.47455e-06 2.21328e-20 0.000158861 6.82861e-21 0.000150571)
(3.23879e-10 2.95112e-17 -1.11878e-31 3.23879e-10 -3.21779e-32 3.23879e-10)
(0.00033711 2.91806e-05 4.47329e-20 0.000364754 6.38977e-21 0.000347107)
(0.000245899 1.37953e-05 -5.38522e-21 0.000255834 -1.16751e-21 0.00024975)
(0.00385654 0.00175718 -1.36465e-18 0.00470329 6.69221e-19 0.0041681)
(0.0150473 0.00699853 3.88721e-18 0.0166426 -1.24061e-18 0.0153993)
(0.0309547 0.0136504 -7.93652e-18 0.030497 1.05315e-17 0.0297843)
(0.0186671 0.00761162 6.54712e-20 0.0161509 -1.50212e-19 0.016786)
(0.0101906 0.0029766 3.996e-18 0.0062258 -1.41957e-18 0.00768276)
(0.0289222 -0.0103199 6.32869e-18 0.020904 1.60171e-17 0.0241553)
(0.249189 -0.107265 2.65576e-17 0.230631 -1.20289e-16 0.238059)
(1.05893 -0.476633 -6.62571e-17 1.0617 -3.94965e-16 1.05701)
(2.8123 -1.29768 2.07496e-15 2.96835 5.51003e-16 2.88625)
(5.15362 -2.42335 2.96967e-15 5.68135 6.72337e-16 5.41616)
(7.00344 -3.34386 -1.64325e-15 8.02823 -2.23407e-15 7.52095)
(7.70696 -3.72252 -7.33315e-15 9.13203 1.42198e-15 8.42842)
(0.00128954 -7.5106e-05 -5.52713e-21 0.00103296 -1.12538e-20 0.00115766)
(0.00127903 -5.12171e-05 -1.90129e-21 0.00100504 7.68437e-21 0.00113892)
(0.00125242 -2.16723e-05 1.83046e-20 0.000970774 3.49007e-20 0.00111007)
(0.00121287 9.52555e-06 -7.83639e-21 0.000937748 -4.401e-22 0.00107456)
(0.00115581 3.9981e-05 6.82799e-21 0.000903922 4.32683e-20 0.00102992)
(0.000964185 -7.43943e-05 -5.13391e-21 0.000794145 -7.64721e-21 0.00088088)
(0.000948037 -8.78635e-05 1.00848e-21 0.000806675 1.60685e-21 0.000879837)
(0.000922324 -9.91034e-05 6.11158e-21 0.000818489 6.63759e-21 0.000873157)
(0.000888687 -0.000105918 -3.75458e-20 0.000827166 -5.33657e-20 0.000861435)
(0.000847359 -0.000107503 -2.749e-20 0.000830128 -3.21511e-20 0.00084304)
(0.000799174 -0.000103635 6.42544e-20 0.00082652 7.69154e-20 0.000817873)
(0.000747514 -9.45869e-05 -6.82383e-20 0.000815506 -8.47341e-20 0.000787527)
(0.000694331 -8.11873e-05 -3.08597e-20 0.000796211 -2.05295e-20 0.000752344)
(0.000641644 -6.45651e-05 -7.33984e-20 0.000769005 -5.4926e-20 0.000713453)
(0.00059238 -4.63119e-05 -1.36859e-20 0.000735705 -2.49034e-20 0.000673372)
(0.000547814 -2.77255e-05 9.19858e-21 0.000697765 -3.31923e-21 0.000633322)
(0.000509148 -1.00034e-05 -5.0384e-20 0.000657264 -6.68228e-20 0.000594942)
(0.000477371 5.89111e-06 1.64257e-19 0.000616749 1.12498e-19 0.000559948)
(0.000452673 1.93872e-05 -5.41628e-20 0.000578284 -9.47206e-21 0.000529347)
(0.000434923 3.04249e-05 -1.33058e-19 0.000543486 -5.81849e-20 0.000503895)
(0.00042212 3.85838e-05 8.84719e-20 0.000512423 1.77055e-21 0.000482215)
(0.000408341 4.36395e-05 -6.45548e-20 0.000480644 -3.72337e-20 0.00045885)
(0.000389439 4.58349e-05 8.87596e-22 0.000444138 4.74564e-20 0.000429996)
(0.000367961 4.64531e-05 -1.58554e-20 0.000407006 -1.24565e-20 0.000399333)
(0.000333214 4.27386e-05 -1.09822e-19 0.000357068 -7.58786e-20 0.00035472)
(0.000229424 2.22788e-05 4.66202e-20 0.000237071 4.52575e-20 0.000237428)
(7.47887e-05 2.4439e-06 1.27833e-22 7.5307e-05 -3.94136e-21 7.53965e-05)
(1.23816e-05 6.18476e-08 3.40071e-23 1.23895e-05 1.0405e-23 1.23917e-05)
(1.97498e-06 1.38637e-09 1.93839e-24 1.97501e-06 -8.68926e-26 1.97509e-06)
(0 0 -0 0 -0 0)
(0 0 0 0 0 0)
(0.0066165 0.00274707 -2.13477e-19 0.00579155 4.78154e-21 0.00626024)
(0.00812576 0.00334888 -5.32155e-19 0.00700789 -3.29641e-19 0.00759939)
(0.0173684 0.00709304 2.32134e-20 0.0147074 1.82772e-18 0.0160557)
(0.0077841 0.00309708 -9.01582e-18 0.00638134 7.44263e-19 0.00707338)
(0.0213736 0.00807452 -1.0228e-17 0.0162933 1.71046e-18 0.0187693)
(0.0456431 0.0119282 2.75098e-17 0.02488 -1.60562e-16 0.0349228)
(0.241262 -0.0984498 5.75573e-16 0.204655 -7.06222e-16 0.221713)
(1.27451 -0.584468 -2.9831e-15 1.32785 1.59001e-16 1.29819)
(3.15458 -1.49037 4.83538e-15 3.52095 1.81674e-15 3.33504)
(0.000973467 -5.79985e-05 3.27633e-21 0.000780253 1.33925e-21 0.000878657)
(0.000975238 -4.04188e-05 -1.18514e-20 0.000766591 -1.70412e-20 0.000871923)
(0.000967264 -1.88376e-05 1.5134e-21 0.000749906 7.71161e-21 0.000859506)
(0.000946607 4.46407e-06 6.46301e-21 0.000731288 -2.15634e-20 0.000839416)
(0.000911514 2.7723e-05 -5.25596e-20 0.000710673 -7.55783e-20 0.000811422)
(0.000790889 -6.1037e-05 4.49953e-21 0.000651711 5.22685e-21 0.000720668)
(0.000783253 -7.19176e-05 -1.13148e-20 0.000665457 -1.36e-20 0.000723782)
(0.000768842 -8.14805e-05 -9.13693e-22 0.000679511 -1.89064e-21 0.000723264)
(0.000750132 -8.80969e-05 -4.71601e-21 0.00069316 -2.45939e-21 0.000720571)
(0.000725968 -9.09728e-05 3.73926e-20 0.000703297 4.30341e-20 0.000713342)
(0.000696863 -8.99694e-05 2.86742e-20 0.000709706 2.36587e-20 0.000701592)
(0.000664844 -8.51193e-05 3.64651e-22 0.000711211 1.1563e-20 0.00068597)
(0.000630416 -7.68324e-05 7.11429e-20 0.000706163 6.89333e-20 0.000665793)
(0.000594642 -6.58154e-05 -8.88551e-21 0.000694362 -1.18646e-21 0.000641438)
(0.000558768 -5.31295e-05 -2.45731e-20 0.000675783 -1.15384e-20 0.000613621)
(0.000523167 -3.97213e-05 4.8271e-20 0.000650569 1.8014e-20 0.000582542)
(0.000488366 -2.64975e-05 -6.49867e-20 0.000619628 -2.51869e-20 0.000548931)
(0.000454737 -1.42771e-05 -1.1472e-19 0.000584127 -8.96763e-20 0.000513599)
(0.000422334 -3.55649e-06 -4.79318e-20 0.000545257 1.23546e-20 0.000477154)
(0.000391158 5.36855e-06 2.069e-19 0.000504248 9.3442e-20 0.000440268)
(0.000359898 1.22824e-05 -1.49586e-19 0.000460629 -6.81805e-20 0.000402106)
(0.000326228 1.76143e-05 -3.59847e-20 0.000412331 3.12057e-20 0.000360968)
(0.000291867 2.13315e-05 6.73187e-20 0.000362139 4.38793e-20 0.000319049)
(0.000259813 2.36621e-05 -4.25508e-20 0.00031446 -3.45338e-22 0.000279947)
(0.000232202 2.49065e-05 -1.40457e-20 0.000272572 3.51655e-20 0.000246211)
(0.00021065 2.5548e-05 2.00089e-20 0.000238471 -1.28539e-20 0.000219521)
(0.000178782 2.144e-05 -1.27352e-19 0.000192615 1.2328e-20 0.000182512)
(0.000130313 1.22214e-05 7.07248e-22 0.00013323 -1.18669e-20 0.000130552)
(2.55274e-05 4.72707e-07 -1.89174e-21 2.54636e-05 1.90301e-22 2.54684e-05)
(6.71947e-06 3.13839e-08 3.39605e-23 6.70542e-06 9.94866e-24 6.71137e-06)
(3.37492e-06 7.7071e-09 -2.68785e-24 3.36979e-06 -1.13294e-23 3.37213e-06)
(1.45192e-06 1.40811e-09 -1.04582e-25 1.45085e-06 -9.74369e-27 1.45134e-06)
(2.07135e-12 2.75786e-21 4.61296e-37 2.07135e-12 1.13715e-38 2.07135e-12)
(0 0 0 0 -0 0)
(0.00104841 0.00031648 3.40635e-19 0.000844418 5.48934e-19 0.000943581)
(0.00508958 0.0019168 -5.59663e-19 0.00389484 1.15648e-18 0.00447588)
(0.0278322 0.0104784 -3.49639e-17 0.0211241 1.1359e-17 0.0243962)
(0.0052333 0.00190556 -1.01663e-17 0.00383462 -6.85244e-18 0.00452282)
(0.0740037 0.0234985 -9.22448e-17 0.0467788 1.01936e-16 0.0602635)
(0.164508 -0.0500773 6.49148e-16 0.100254 -7.44154e-16 0.131898)
(0.000792765 -4.80002e-05 -4.92778e-21 0.000636442 -7.2117e-21 0.00071446)
(0.000789483 -3.41683e-05 1.75313e-21 0.00062175 4.8425e-22 0.000705341)
(0.000779552 -1.72547e-05 4.69967e-21 0.000605174 4.77318e-21 0.000692444)
(0.000761697 1.01196e-06 -4.23464e-21 0.000588402 -1.96851e-20 0.000675065)
(0.000639183 -4.98187e-05 -2.21411e-21 0.000527373 -2.08502e-21 0.00058339)
(0.000633081 -5.84618e-05 6.3339e-23 0.000538446 -5.613e-22 0.000586105)
(0.000622173 -6.61052e-05 1.57117e-20 0.000550204 1.71349e-20 0.000586481)
(0.000607745 -7.1436e-05 6.154e-22 0.000561572 -3.30724e-22 0.000585091)
(0.000589316 -7.38854e-05 -5.41819e-20 0.0005706 -5.75496e-20 0.000580517)
(0.000566912 -7.32729e-05 1.24508e-20 0.000576817 1.46755e-20 0.000572507)
(0.000541867 -6.95308e-05 1.21534e-20 0.000579187 7.52735e-21 0.00056134)
(0.000514739 -6.29109e-05 -2.81429e-20 0.000576525 -4.09755e-20 0.000546648)
(0.000486227 -5.38535e-05 -4.20517e-20 0.000568421 -2.48124e-20 0.000528533)
(0.000457398 -4.31087e-05 1.59571e-20 0.000554761 2.10122e-20 0.000507554)
(0.000428835 -3.13952e-05 -9.5583e-20 0.000535709 -7.9098e-20 0.000484047)
(0.000401135 -1.94432e-05 6.36613e-20 0.000511858 4.05278e-20 0.000458604)
(0.000374895 -7.98437e-06 1.29394e-19 0.000484176 7.3345e-20 0.000432035)
(0.000350509 2.47438e-06 1.66813e-19 0.000453806 6.28616e-20 0.000405091)
(0.000328182 1.15397e-05 -2.23184e-19 0.000421812 -1.67167e-19 0.000378413)
(0.000308308 1.89993e-05 1.20117e-19 0.000389576 9.18381e-20 0.000352926)
(0.000291585 2.46462e-05 1.28574e-19 0.000359143 2.97146e-20 0.000329749)
(0.000276644 2.82844e-05 8.20755e-20 0.000330372 -1.78901e-20 0.00030793)
(0.000261062 2.999e-05 4.19508e-20 0.000301534 2.23746e-20 0.000285402)
(0.000243942 3.00314e-05 -5.50024e-21 0.000272474 3.07561e-20 0.000261749)
(0.000227235 2.92788e-05 4.24182e-20 0.000245876 -6.99651e-21 0.0002394)
(0.000213192 2.84674e-05 1.46084e-19 0.000223617 6.15128e-20 0.000220545)
(0.000198038 2.65605e-05 -6.17734e-20 0.000200264 -8.32586e-21 0.000200625)
(0.000166994 2.00226e-05 1.38453e-19 0.000161753 3.26277e-20 0.000165242)
(0.000114547 9.94966e-06 -1.3186e-20 0.000107713 5.13689e-22 0.000111506)
(6.13802e-05 3.03358e-06 -1.99391e-21 5.78054e-05 1.38768e-21 5.96967e-05)
(2.21047e-05 4.19911e-07 1.06471e-22 2.13989e-05 4.61156e-23 2.17659e-05)
(2.56646e-11 6.02861e-19 -7.06165e-34 2.56646e-11 2.99985e-34 2.56646e-11)
(2.33407e-06 5.12959e-09 -1.60075e-23 2.3228e-06 -9.15266e-24 2.32867e-06)
(2.46845e-07 5.93873e-11 -1.54486e-26 2.46724e-07 1.20794e-25 2.46787e-07)
(0 0 0 0 -0 0)
(0 0 0 0 0 0)
(0.000681069 0.000176853 -1.39469e-18 0.000499594 1.31023e-18 0.000590878)
(0.0226477 0.00779797 -1.63552e-17 0.0154899 1.00839e-17 0.0190642)
(0.0174162 0.00584 -3.80063e-17 0.011587 1.47741e-18 0.0145117)
(0.000641261 -3.95808e-05 7.01725e-22 0.000515588 2.30605e-21 0.000578729)
(0.000639597 -2.8712e-05 1.07061e-20 0.000504439 9.46092e-21 0.000572082)
(0.000633082 -1.54251e-05 -1.06858e-20 0.000491983 -3.84851e-21 0.000562747)
(0.00062013 -9.55816e-07 2.64168e-20 0.000479049 2.55193e-20 0.000549654)
(0.00052952 -4.16411e-05 -9.91242e-23 0.000437484 -2.88157e-22 0.000483398)
(0.000525891 -4.8723e-05 -6.95131e-22 0.000447646 -5.68921e-22 0.000486766)
(0.000518792 -5.50865e-05 -2.04959e-21 0.000458736 -1.82404e-21 0.000488655)
(0.000509194 -5.96904e-05 -1.13313e-20 0.000469902 -1.04508e-20 0.000489455)
(0.000496771 -6.20805e-05 1.40268e-20 0.000479659 1.56792e-20 0.000488101)
(0.000481442 -6.21176e-05 7.33362e-20 0.00048771 6.20525e-20 0.000484394)
(0.000464249 -5.97103e-05 -4.42357e-21 0.000493255 -1.20986e-20 0.000478534)
(0.000445453 -5.4997e-05 -3.2103e-20 0.000495208 -2.65645e-20 0.000470055)
(0.000425471 -4.82566e-05 8.48512e-20 0.000493164 7.80552e-20 0.000458941)
(0.00040504 -4.00251e-05 3.41582e-20 0.000486824 2.15905e-20 0.000445461)
(0.000384389 -3.08241e-05 -2.78238e-20 0.00047595 -4.74827e-21 0.000429566)
(0.000363879 -2.12083e-05 -1.03701e-19 0.000460788 -5.03436e-20 0.000411566)
(0.000343794 -1.17675e-05 -1.94567e-19 0.000441749 -1.48147e-19 0.000391823)
(0.000324237 -2.96069e-06 -2.24048e-19 0.000419389 -1.3384e-19 0.000370642)
(0.000305262 4.84012e-06 -1.26643e-20 0.000394398 5.11667e-20 0.000348402)
(0.000286928 1.13456e-05 1.11577e-20 0.000367625 -2.42148e-20 0.000325548)
(0.000268613 1.64039e-05 -1.68055e-19 0.000339114 -7.71531e-20 0.000301809)
(0.000249416 2.00388e-05 -1.0937e-19 0.000308421 -4.71134e-20 0.000276716)
(0.000230082 2.2335e-05 2.79042e-20 0.000277061 2.55608e-21 0.00025142)
(0.00021186 2.34383e-05 1.1617e-19 0.00024717 1.56315e-20 0.000227602)
(0.000195989 2.36447e-05 -4.88419e-20 0.000220654 -2.02325e-20 0.000206756)
(0.000183596 2.33425e-05 -3.05142e-20 0.000198963 -5.749e-20 0.000190092)
(0.000175171 2.29092e-05 5.8707e-21 0.000182082 2.16866e-21 0.000177795)
(0.000169624 2.24075e-05 -5.60431e-20 0.00016804 -5.43724e-20 0.000168309)
(0.000158233 1.99973e-05 4.0304e-20 0.000148539 8.66396e-21 0.000153081)
(0.000137452 1.54427e-05 1.26018e-20 0.000122727 -9.02187e-21 0.000129857)
(0.000110048 1.01781e-05 4.79982e-22 9.49325e-05 -3.26466e-21 0.000102284)
(7.49189e-05 4.89543e-06 8.60993e-21 6.46134e-05 2.59759e-21 6.96545e-05)
(4.49282e-05 1.75813e-06 2.88782e-21 3.97927e-05 2.10618e-21 4.23275e-05)
(3.92136e-06 1.32172e-08 2.68778e-22 3.86646e-06 1.43491e-23 3.89372e-06)
(2.11705e-06 3.15895e-09 -3.93487e-23 2.0986e-06 4.49388e-23 2.1078e-06)
(8.29251e-08 4.74812e-12 1.63969e-25 8.28953e-08 -2.2108e-25 8.29102e-08)
(0 0 0 0 0 0)
(0 0 -0 0 0 0)
(0.00263858 0.000766077 4.85983e-18 0.00155205 -2.22362e-18 0.00209552)
(0.000530057 -3.33573e-05 -1.83623e-21 0.000426906 -2.82427e-21 0.000478563)
(0.000527994 -2.45763e-05 -5.78026e-21 0.000417099 -4.04187e-21 0.000472505)
(0.000522468 -1.38759e-05 8.98249e-21 0.000406499 3.38167e-21 0.000464599)
(0.000512102 -2.16589e-06 -3.71994e-20 0.000395672 -2.71693e-20 0.000453896)
(0.000441363 -3.50944e-05 -3.49997e-21 0.000365244 -2.55667e-21 0.000403278)
(0.000438827 -4.09188e-05 -1.10347e-20 0.000374073 -9.90377e-21 0.00040652)
(0.000433697 -4.61852e-05 -2.54099e-21 0.00038387 -2.54934e-21 0.000408801)
(0.000426601 -5.00467e-05 3.78307e-20 0.000393828 3.32019e-20 0.000410277)
(0.000417443 -5.21471e-05 -2.52655e-20 0.000402869 -2.24208e-20 0.000410236)
(0.000406033 -5.23733e-05 -2.66126e-20 0.000410763 -2.77081e-20 0.000408472)
(0.000393127 -5.06213e-05 -6.54641e-20 0.000416793 -4.75122e-20 0.000405069)
(0.000378888 -4.69686e-05 -4.48006e-20 0.000420065 -3.12237e-20 0.000399623)
(0.000363606 -4.15963e-05 4.9426e-20 0.000420209 3.22449e-20 0.000392069)
(0.00034778 -3.48862e-05 1.36659e-20 0.000416827 -6.42511e-22 0.000382516)
(0.000331612 -2.72159e-05 2.13422e-20 0.000409682 2.40712e-20 0.000370908)
(0.000315374 -1.90065e-05 1.92543e-19 0.000398823 1.17134e-19 0.000357413)
(0.000299325 -1.0739e-05 -6.58067e-20 0.000384459 -7.35972e-21 0.000342285)
(0.000283599 -2.80847e-06 1.4439e-19 0.000366954 1.24523e-19 0.000325755)
(0.000268348 4.43577e-06 1.92532e-20 0.000346867 1.48453e-20 0.000308193)
(0.00025359 1.06949e-05 -3.4069e-20 0.000324739 -1.66093e-20 0.000289889)
(0.000239433 1.58152e-05 1.02729e-19 0.000301297 7.07912e-20 0.000271271)
(0.000226203 1.9622e-05 3.91111e-20 0.000277728 2.8442e-20 0.000253011)
(0.000213605 2.2065e-05 1.8763e-20 0.000254516 -9.35132e-21 0.000235108)
(0.000201265 2.3237e-05 -6.85417e-20 0.000231963 -5.98491e-20 0.000217564)
(0.000189243 2.33761e-05 -7.96631e-22 0.00021062 1.5293e-21 0.000200698)
(0.000178237 2.28386e-05 -3.84718e-20 0.000191387 1.34818e-21 0.000185371)
(0.000168657 2.18616e-05 -5.65822e-20 0.000174324 -3.10717e-21 0.000171873)
(0.000160135 2.05335e-05 1.49538e-20 0.000158653 1.93196e-20 0.000159678)
(0.000150998 1.87137e-05 -2.63004e-21 0.000142806 -1.63256e-20 0.000147127)
(0.000139069 1.61875e-05 -4.63909e-20 0.000125479 1.53868e-21 0.000132407)
(0.000125185 1.3385e-05 -4.62099e-21 0.000108204 1.71058e-21 0.000116726)
(0.000111128 1.07021e-05 1.50168e-21 9.263e-05 -3.62222e-21 0.000101874)
(9.58862e-05 7.88883e-06 -1.02336e-20 7.78275e-05 1.79979e-21 8.68718e-05)
(6.92016e-05 3.95205e-06 9.52336e-21 5.67297e-05 -4.82997e-20 6.29828e-05)
(4.47089e-05 1.38982e-06 3.78871e-20 3.78656e-05 -7.36535e-21 4.12919e-05)
(1.67233e-06 1.27005e-09 -1.6941e-22 1.65869e-06 -7.3908e-24 1.66551e-06)
(1.07798e-06 -1.83181e-11 9.41392e-23 1.07175e-06 -5.22357e-23 1.07487e-06)
(0 -0 0 0 -0 0)
(0 0 -0 0 0 0)
(0.000441559 -2.83427e-05 2.2575e-21 0.00035626 2.98747e-21 0.000398999)
(0.000439808 -2.11778e-05 1.69841e-20 0.000347994 1.14942e-20 0.000393887)
(0.000435479 -1.24535e-05 -1.089e-20 0.000339212 -1.20957e-20 0.00038745)
(0.000354876 -4.43174e-05 1.58508e-20 0.00034242 1.3939e-20 0.000348652)
(0.000346591 -4.46837e-05 2.25068e-20 0.000350236 1.88421e-20 0.000348394)
(0.000337185 -4.34478e-05 9.5155e-20 0.000356731 7.31655e-20 0.000346947)
(0.000326761 -4.06558e-05 -1.61654e-20 0.000361186 -1.23737e-20 0.000343958)
(0.00031553 -3.64318e-05 3.32225e-20 0.000363296 1.5982e-20 0.000339378)
(0.000303845 -3.105e-05 -6.56993e-20 0.000362678 -3.8031e-20 0.000333222)
(0.000291818 -2.47917e-05 4.87323e-20 0.000359041 2.69502e-20 0.000325371)
(0.000279643 -1.79791e-05 -1.21692e-19 0.000352341 -9.51341e-20 0.000315903)
(0.000267482 -1.09845e-05 4.26722e-21 0.000342632 1.28798e-20 0.00030494)
(0.000255412 -4.13536e-06 1.9469e-20 0.000330087 -1.05198e-20 0.000292595)
(0.000243504 2.24575e-06 3.24865e-20 0.000315028 6.49908e-21 0.00027906)
(0.000231754 7.88658e-06 5.30012e-21 0.000297844 4.61321e-21 0.000264536)
(0.00022021 1.25917e-05 -3.92781e-20 0.000279102 -3.66518e-20 0.000249311)
(0.000208577 1.62193e-05 -7.57467e-20 0.00025902 -2.38716e-20 0.000233382)
(0.000196708 1.87465e-05 -6.51377e-20 0.000237956 -1.90534e-20 0.000216872)
(0.000184984 2.02287e-05 -4.75837e-20 0.000216915 1.30651e-20 0.000200505)
(0.000174016 2.083e-05 -3.02042e-20 0.000197016 -3.20436e-21 0.000185133)
(0.000164327 2.0755e-05 -3.23762e-21 0.00017912 1.41006e-20 0.000171428)
(0.000156047 2.01714e-05 3.70575e-20 0.000163283 2.3405e-20 0.00015946)
(0.000148119 1.90086e-05 -2.65255e-21 0.000148278 -1.46186e-20 0.000148092)
(0.000138835 1.71383e-05 -1.99929e-20 0.000132705 -3.08013e-21 0.000135736)
(0.000127279 1.46786e-05 3.48068e-20 0.000116353 1.02901e-20 0.000121785)
(0.000114737 1.21504e-05 4.6557e-21 0.000100847 1.69576e-21 0.000107732)
(0.00010363 1.00472e-05 5.70427e-21 8.80905e-05 -5.88029e-21 9.58018e-05)
(9.4849e-05 8.36161e-06 4.10538e-21 7.82496e-05 -1.99665e-21 8.65263e-05)
(8.7484e-05 6.80651e-06 -1.02555e-19 7.01439e-05 3.44939e-20 7.88152e-05)
(7.97259e-05 5.09732e-06 -8.80673e-20 6.23151e-05 -2.54052e-20 7.10196e-05)
(5.70171e-05 2.19247e-06 4.4506e-20 4.57267e-05 9.13658e-20 5.13666e-05)
(2.26506e-05 2.09483e-07 -1.73376e-20 2.02481e-05 -2.09867e-20 2.14489e-05)
(1.9118e-06 -7.23484e-10 4.73675e-23 1.8909e-06 -1.29207e-22 1.90134e-06)
(0 -0 0 0 0 0)
(0.000289785 -3.73523e-05 -3.6015e-20 0.000306307 -2.92317e-20 0.000298067)
(0.000281944 -3.51503e-05 -4.32375e-20 0.000311144 -2.78286e-20 0.000296573)
(0.000273444 -3.17452e-05 -9.70699e-21 0.000314146 -1.20069e-20 0.00029382)
(0.000264558 -2.73407e-05 8.00778e-20 0.000314985 5.48906e-20 0.000289808)
(0.000255344 -2.2142e-05 -3.00141e-21 0.000313371 -1.20235e-20 0.000284401)
(0.000245939 -1.63925e-05 3.18174e-20 0.0003092 3.68425e-20 0.000277621)
(0.00023646 -1.0388e-05 3.96888e-21 0.000302435 1.04523e-20 0.000269512)
(0.000226959 -4.40074e-06 3.98675e-20 0.000293132 1.4387e-21 0.000260119)
(0.0002175 1.30356e-06 -2.61063e-20 0.000281497 -1.02663e-20 0.000249589)
(0.000208111 6.47321e-06 -3.01945e-20 0.000267817 -7.85051e-21 0.000238079)
(0.000198786 1.09119e-05 9.02768e-21 0.000252445 1.63625e-20 0.000225759)
(0.000189568 1.44756e-05 7.83635e-20 0.000235889 3.03491e-20 0.000212922)
(0.000180496 1.7073e-05 3.70924e-20 0.000218728 1.10694e-20 0.00019982)
(0.000171558 1.86991e-05 3.77085e-20 0.000201491 1.66407e-20 0.00018672)
(0.000162945 1.94653e-05 8.20704e-21 0.000184818 2.80302e-20 0.000174037)
(0.000154843 1.9528e-05 3.02102e-20 0.000169186 4.10118e-21 0.000162128)
(0.000147399 1.90504e-05 -5.96814e-22 0.000154742 -8.63053e-21 0.000151147)
(0.000140029 1.80295e-05 -4.54737e-20 0.000140821 -1.09449e-20 0.00014049)
(0.000131357 1.63376e-05 4.75816e-22 0.000126296 7.65506e-21 0.000128891)
(0.000120499 1.40345e-05 -2.01077e-20 0.000110915 -1.22366e-20 0.000115744)
(0.000108214 1.15261e-05 -3.42607e-21 9.58861e-05 -2.62501e-21 0.000102044)
(9.66227e-05 9.31126e-06 -1.80967e-20 8.30051e-05 3.82186e-22 8.97923e-05)
(8.71927e-05 7.55222e-06 -1.02003e-20 7.29909e-05 -8.36655e-21 8.00854e-05)