/*--------------------------------*- C++ -*----------------------------------*\
| =========                 |                                                 |
| \\      /  F ield         | OpenFOAM: The Open Source CFD Toolbox           |
|  \\    /   O peration     | Version:  2506                                  |
|   \\  /    A nd           | Website:  www.openfoam.com                      |
|    \\/     M anipulation  |                                                 |
\*---------------------------------------------------------------------------*/
FoamFile
{
    version     2.0;
    format      ascii;
    arch        "LSB;label=32;scalar=64";
    class       volScalarField;
    location    "400";
    object      turbulenceProperties:nuEff;
}
// * * * * * * * * * * * * * * * * * * * * * * * * * * * * * * * * * * * * * //

dimensions      [0 2 -1 0 0 0 0];

internalField   nonuniform List<scalar> 
1340
(
3.58081e-05
3.95348e-05
4.45226e-05
5.09852e-05
5.9309e-05
7.00255e-05
8.38549e-05
0.000101159
0.000122976
0.000150349
0.000185234
0.000230746
0.000291313
0.000374893
0.000495069
0.000673864
0.000955889
0.00140527
0.0022274
0.00359943
0.00691183
0.0127217
0.0339237
0.0760562
0.0937465
0.0946769
0.0957182
0.0992478
0.10276
0.104494
0.10447
0.103221
0.100854
0.0974234
0.0928036
3.25825e-05
2.98038e-05
2.70737e-05
2.45838e-05
2.22498e-05
2.01071e-05
1.82446e-05
1.50855e-05
1.49803e-05
1.48855e-05
1.48068e-05
1.47166e-05
1.46338e-05
1.45725e-05
1.45188e-05
1.44956e-05
1.45159e-05
1.45435e-05
1.48184e-05
1.58788e-05
1.86526e-05
2.64112e-05
4.68065e-05
9.38864e-05
0.000172845
0.000325355
0.000598362
0.00132686
0.00283582
0.00709055
0.0204277
0.0394504
0.0632912
0.092567
0.123718
0.148742
0.162682
0.167967
0.168789
0.167209
0.163864
0.159355
1.51691e-05
1.52823e-05
1.53788e-05
1.55098e-05
1.56441e-05
1.578e-05
1.62662e-05
1.62835e-05
1.63015e-05
1.63208e-05
1.63445e-05
1.6371e-05
1.64013e-05
1.64368e-05
1.64786e-05
1.65276e-05
1.65859e-05
1.66575e-05
1.67367e-05
1.68803e-05
1.68882e-05
1.64647e-05
1.50193e-05
1.38354e-05
1.0055e-05
0.000112156
4.45423e-05
0.000146097
0.000121013
0.000803962
0.00324211
0.00768039
0.0156544
0.0310973
0.0573919
0.0937552
0.132768
0.164482
0.184908
0.196763
0.203465
1.62529e-05
1.62339e-05
1.62193e-05
1.61977e-05
1.61792e-05
1.61593e-05
1.60861e-05
1.60837e-05
1.60831e-05
1.60835e-05
1.60844e-05
1.60871e-05
1.6092e-05
1.60987e-05
1.61088e-05
1.61224e-05
1.61403e-05
1.61638e-05
1.61945e-05
1.62333e-05
1.62843e-05
1.63417e-05
1.62429e-05
1.58269e-05
1.39763e-05
1.12399e-05
1e-05
1.31332e-05
1.12279e-05
0.000160672
0.000684558
0.00169887
0.00146669
0.00176462
0.00373976
0.0133563
0.0355278
0.0727147
0.11881
0.161342
0.193246
1.60868e-05
1.60892e-05
1.60923e-05
1.60945e-05
1.60983e-05
1.61112e-05
1.61118e-05
1.6112e-05
1.61129e-05
1.61145e-05
1.61164e-05
1.61191e-05
1.61227e-05
1.61274e-05
1.61336e-05
1.61417e-05
1.61522e-05
1.61661e-05
1.61839e-05
1.62081e-05
1.62363e-05
1.62802e-05
1.63234e-05
1.64965e-05
1.63002e-05
1.34877e-05
1.03849e-05
1.00089e-05
1.00002e-05
1e-05
1e-05
0.000318253
0.00038885
0.000845256
0.000426819
0.00156562
0.00796186
0.0295796
0.0707374
0.124161
1.61112e-05
1.61099e-05
1.61106e-05
1.61095e-05
1.61104e-05
1.61051e-05
1.61049e-05
1.61052e-05
1.61054e-05
1.61055e-05
1.61059e-05
1.61065e-05
1.61073e-05
1.61085e-05
1.61102e-05
1.61125e-05
1.61157e-05
1.61201e-05
1.6126e-05
1.61341e-05
1.6145e-05
1.61605e-05
1.61758e-05
1.62106e-05
1.6311e-05
1.65192e-05
1.56057e-05
1.32141e-05
1.01219e-05
1.00081e-05
1.0002e-05
1.00004e-05
1e-05
1e-05
7.4145e-05
0.000356175
0.00182497
0.000388533
0.00876821
0.0381148
1.61046e-05
1.61039e-05
1.61048e-05
1.61046e-05
1.61053e-05
1.61055e-05
1.61057e-05
1.61057e-05
1.61059e-05
1.6106e-05
1.61061e-05
1.61065e-05
1.61069e-05
1.61077e-05
1.61087e-05
1.61102e-05
1.61122e-05
1.61151e-05
1.6119e-05
1.61246e-05
1.61322e-05
1.61404e-05
1.6149e-05
1.61581e-05
1.62608e-05
1.6517e-05
1.66125e-05
1.55604e-05
1.32468e-05
1.12437e-05
1.0224e-05
1e-05
1.00038e-05
1e-05
1e-05
1e-05
6.62092e-05
0.00206843
0.00169635
1.61048e-05
1.61038e-05
1.61042e-05
1.61039e-05
1.61049e-05
1.6105e-05
1.61053e-05
1.61053e-05
1.61051e-05
1.6105e-05
1.61048e-05
1.61047e-05
1.61046e-05
1.61046e-05
1.61047e-05
1.61049e-05
1.61053e-05
1.61059e-05
1.61068e-05
1.61082e-05
1.61102e-05
1.61128e-05
1.6115e-05
1.61159e-05
1.61234e-05
1.6157e-05
1.62671e-05
1.65726e-05
1.67053e-05
1.64308e-05
1.56594e-05
1.37849e-05
1.1937e-05
1.00215e-05
1.00075e-05
1e-05
1e-05
1e-05
0.000397816
1.61043e-05
1.61032e-05
1.61032e-05
1.61027e-05
1.61048e-05
1.61049e-05
1.61051e-05
1.61049e-05
1.61047e-05
1.61044e-05
1.61042e-05
1.61041e-05
1.6104e-05
1.61039e-05
1.61039e-05
1.6104e-05
1.61043e-05
1.61047e-05
1.61053e-05
1.61062e-05
1.61077e-05
1.61096e-05
1.61114e-05
1.61131e-05
1.61136e-05
1.61183e-05
1.6115e-05
1.6152e-05
1.63033e-05
1.65422e-05
1.68709e-05
1.71961e-05
1.71085e-05
1.50542e-05
1.28933e-05
1.00061e-05
1.00029e-05
1e-05
1e-05
1.61042e-05
1.6103e-05
1.61026e-05
1.61042e-05
1.61039e-05
1.61036e-05
1.61034e-05
1.61031e-05
1.6103e-05
1.61028e-05
1.61027e-05
1.61026e-05
1.61026e-05
1.61025e-05
1.61025e-05
1.61026e-05
1.61027e-05
1.61029e-05
1.61035e-05
1.61043e-05
1.61074e-05
1.61094e-05
1.6098e-05
1.60926e-05
1.61263e-05
1.62541e-05
1.65257e-05
1.69044e-05
1.7307e-05
1.75498e-05
1.51125e-05
1.11506e-05
1.00106e-05
1e-05
1.6103e-05
1.61028e-05
1.61026e-05
1.61025e-05
1.61024e-05
1.61023e-05
1.61023e-05
1.61024e-05
1.61025e-05
1.61027e-05
1.6103e-05
1.61035e-05
1.61041e-05
1.61046e-05
1.6105e-05
1.61056e-05
1.61083e-05
1.61085e-05
1.60992e-05
1.60838e-05
1.60768e-05
1.61125e-05
1.62112e-05
1.64681e-05
1.68888e-05
1.7645e-05
1.71417e-05
1.29812e-05
1.00157e-05
1.61021e-05
1.6102e-05
1.61019e-05
1.61018e-05
1.61018e-05
1.61017e-05
1.61017e-05
1.61018e-05
1.61018e-05
1.6102e-05
1.61022e-05
1.61026e-05
1.61032e-05
1.61038e-05
1.6105e-05
1.61074e-05
1.61083e-05
1.61044e-05
1.60934e-05
1.6081e-05
1.60721e-05
1.60996e-05
1.61758e-05
1.65186e-05
1.72155e-05
1.77633e-05
1.39886e-05
1.61017e-05
1.61016e-05
1.61016e-05
1.61015e-05
1.61015e-05
1.61015e-05
1.61016e-05
1.61017e-05
1.61019e-05
1.61021e-05
1.61025e-05
1.61029e-05
1.61033e-05
1.61039e-05
1.6105e-05
1.61068e-05
1.61084e-05
1.61079e-05
1.6104e-05
1.6095e-05
1.60826e-05
1.60663e-05
1.60768e-05
1.62577e-05
1.6797e-05
1.85148e-05
1.61014e-05
1.61014e-05
1.61014e-05
1.61014e-05
1.61014e-05
1.61014e-05
1.61015e-05
1.61016e-05
1.61017e-05
1.6102e-05
1.61023e-05
1.61027e-05
1.61032e-05
1.61039e-05
1.61049e-05
1.61064e-05
1.61082e-05
1.61096e-05
1.61098e-05
1.61066e-05
1.60986e-05
1.60735e-05
1.60558e-05
1.60883e-05
1.66932e-05
1.61013e-05
1.61013e-05
1.61013e-05
1.61013e-05
1.61013e-05
1.61014e-05
1.61015e-05
1.61016e-05
1.61017e-05
1.61019e-05
1.61021e-05
1.61024e-05
1.61028e-05
1.61033e-05
1.6104e-05
1.6105e-05
1.61064e-05
1.6108e-05
1.611e-05
1.61118e-05
1.61131e-05
1.61113e-05
1.60818e-05
1.61117e-05
1.56397e-05
1.61013e-05
1.61013e-05
1.61014e-05
1.61014e-05
1.61014e-05
1.61015e-05
1.61016e-05
1.61017e-05
1.61018e-05
1.6102e-05
1.61022e-05
1.61026e-05
1.6103e-05
1.61035e-05
1.61043e-05
1.61053e-05
1.61065e-05
1.6108e-05
1.61101e-05
1.61119e-05
1.61189e-05
1.6103e-05
1.61684e-05
1.58208e-05
1.61014e-05
1.61014e-05
1.61015e-05
1.61015e-05
1.61016e-05
1.61016e-05
1.61017e-05
1.61018e-05
1.6102e-05
1.61022e-05
1.61025e-05
1.61028e-05
1.61032e-05
1.61038e-05
1.61046e-05
1.61057e-05
1.61069e-05
1.61084e-05
1.61097e-05
1.61143e-05
1.61126e-05
1.61256e-05
1.61935e-05
1.61014e-05
1.61015e-05
1.61016e-05
1.61016e-05
1.61017e-05
1.61017e-05
1.61018e-05
1.61019e-05
1.6102e-05
1.61022e-05
1.61024e-05
1.61027e-05
1.61031e-05
1.61036e-05
1.61043e-05
1.61051e-05
1.61062e-05
1.61074e-05
1.61088e-05
1.61098e-05
1.61185e-05
1.60836e-05
1.63127e-05
1.61016e-05
1.61017e-05
1.61017e-05
1.61018e-05
1.61018e-05
1.61019e-05
1.6102e-05
1.61021e-05
1.61022e-05
1.61024e-05
1.61026e-05
1.6103e-05
1.61034e-05
1.6104e-05
1.61047e-05
1.61056e-05
1.61067e-05
1.61083e-05
1.61078e-05
1.61186e-05
1.60812e-05
1.62448e-05
1.61017e-05
1.61017e-05
1.61018e-05
1.61019e-05
1.61019e-05
1.6102e-05
1.61021e-05
1.61022e-05
1.61023e-05
1.61025e-05
1.61026e-05
1.61029e-05
1.61033e-05
1.61038e-05
1.61044e-05
1.61052e-05
1.61061e-05
1.61076e-05
1.61075e-05
1.61146e-05
1.60973e-05
1.61524e-05
1.61019e-05
1.61019e-05
1.6102e-05
1.61021e-05
1.61021e-05
1.61022e-05
1.61023e-05
1.61024e-05
1.61026e-05
1.61027e-05
1.61029e-05
1.61032e-05
1.61037e-05
1.61042e-05
1.61049e-05
1.61057e-05
1.61069e-05
1.61076e-05
1.61104e-05
1.611e-05
1.6104e-05
1.6102e-05
1.6102e-05
1.61021e-05
1.61022e-05
1.61023e-05
1.61024e-05
1.61024e-05
1.61025e-05
1.61027e-05
1.61028e-05
1.6103e-05
1.61033e-05
1.61036e-05
1.61041e-05
1.61047e-05
1.61054e-05
1.61063e-05
1.61075e-05
1.61081e-05
1.61139e-05
1.60944e-05
1.61022e-05
1.61022e-05
1.61023e-05
1.61024e-05
1.61025e-05
1.61026e-05
1.61027e-05
1.61028e-05
1.61029e-05
1.61031e-05
1.61033e-05
1.61036e-05
1.6104e-05
1.61046e-05
1.61052e-05
1.6106e-05
1.61072e-05
1.61074e-05
1.61127e-05
1.61003e-05
1.61023e-05
1.61024e-05
1.61025e-05
1.61025e-05
1.61026e-05
1.61027e-05
1.61028e-05
1.61029e-05
1.61031e-05
1.61032e-05
1.61034e-05
1.61037e-05
1.6104e-05
1.61045e-05
1.61051e-05
1.61058e-05
1.61068e-05
1.61073e-05
1.61104e-05
1.61069e-05
1.61024e-05
1.61025e-05
1.61026e-05
1.61027e-05
1.61028e-05
1.61029e-05
1.6103e-05
1.61031e-05
1.61032e-05
1.61033e-05
1.61035e-05
1.61038e-05
1.61041e-05
1.61045e-05
1.6105e-05
1.61056e-05
1.61065e-05
1.61073e-05
1.61088e-05
1.61098e-05
1.61026e-05
1.61027e-05
1.61028e-05
1.61029e-05
1.6103e-05
1.61031e-05
1.61032e-05
1.61034e-05
1.61035e-05
1.61037e-05
1.61039e-05
1.61042e-05
1.61045e-05
1.6105e-05
1.61056e-05
1.61063e-05
1.61071e-05
1.6108e-05
1.61102e-05
1.61027e-05
1.61029e-05
1.6103e-05
1.61031e-05
1.61032e-05
1.61033e-05
1.61034e-05
1.61035e-05
1.61037e-05
1.61038e-05
1.6104e-05
1.61043e-05
1.61046e-05
1.6105e-05
1.61055e-05
1.61062e-05
1.6107e-05
1.61078e-05
1.61096e-05
1.61028e-05
1.6103e-05
1.61031e-05
1.61032e-05
1.61033e-05
1.61035e-05
1.61036e-05
1.61037e-05
1.61038e-05
1.6104e-05
1.61042e-05
1.61044e-05
1.61047e-05
1.61051e-05
1.61055e-05
1.61061e-05
1.61068e-05
1.61076e-05
1.6109e-05
1.61031e-05
1.61032e-05
1.61034e-05
1.61035e-05
1.61036e-05
1.61038e-05
1.61039e-05
1.6104e-05
1.61042e-05
1.61043e-05
1.61046e-05
1.61048e-05
1.61052e-05
1.61056e-05
1.61061e-05
1.61068e-05
1.61075e-05
1.61086e-05
1.61032e-05
1.61034e-05
1.61035e-05
1.61037e-05
1.61038e-05
1.61039e-05
1.61041e-05
1.61042e-05
1.61044e-05
1.61045e-05
1.61047e-05
1.6105e-05
1.61053e-05
1.61057e-05
1.61062e-05
1.61068e-05
1.61075e-05
1.61084e-05
1.61034e-05
1.61035e-05
1.61037e-05
1.61038e-05
1.6104e-05
1.61041e-05
1.61043e-05
1.61044e-05
1.61045e-05
1.61047e-05
1.61049e-05
1.61051e-05
1.61054e-05
1.61058e-05
1.61062e-05
1.61068e-05
1.61075e-05
1.61083e-05
1.61036e-05
1.61038e-05
1.6104e-05
1.61041e-05
1.61043e-05
1.61044e-05
1.61046e-05
1.61047e-05
1.61049e-05
1.61051e-05
1.61053e-05
1.61056e-05
1.61059e-05
1.61063e-05
1.61068e-05
1.61075e-05
1.61083e-05
1.61038e-05
1.61039e-05
1.61041e-05
1.61043e-05
1.61045e-05
1.61046e-05
1.61048e-05
1.61049e-05
1.61051e-05
1.61053e-05
1.61055e-05
1.61058e-05
1.61061e-05
1.61065e-05
1.61069e-05
1.61075e-05
1.61083e-05
1.61039e-05
1.61041e-05
1.61043e-05
1.61045e-05
1.61046e-05
1.61048e-05
1.6105e-05
1.61051e-05
1.61053e-05
1.61055e-05
1.61057e-05
1.6106e-05
1.61063e-05
1.61066e-05
1.61071e-05
1.61076e-05
1.61042e-05
1.61044e-05
1.61046e-05
1.61048e-05
1.6105e-05
1.61052e-05
1.61053e-05
1.61055e-05
1.61057e-05
1.61059e-05
1.61062e-05
1.61064e-05
1.61068e-05
1.61072e-05
1.61077e-05
1.61044e-05
1.61046e-05
1.61048e-05
1.6105e-05
1.61052e-05
1.61053e-05
1.61055e-05
1.61057e-05
1.61059e-05
1.61061e-05
1.61064e-05
1.61066e-05
1.6107e-05
1.61074e-05
1.61078e-05
1.61045e-05
1.61047e-05
1.61049e-05
1.61051e-05
1.61053e-05
1.61055e-05
1.61057e-05
1.61059e-05
1.61061e-05
1.61063e-05
1.61066e-05
1.61069e-05
1.61072e-05
1.61076e-05
1.6108e-05
1.61046e-05
1.61048e-05
1.61051e-05
1.61053e-05
1.61055e-05
1.61057e-05
1.61059e-05
1.61061e-05
1.61063e-05
1.61065e-05
1.61068e-05
1.61071e-05
1.61074e-05
1.61077e-05
1.61082e-05
1.61047e-05
1.6105e-05
1.61052e-05
1.61054e-05
1.61057e-05
1.61059e-05
1.61061e-05
1.61063e-05
1.61065e-05
1.61068e-05
1.6107e-05
1.61073e-05
1.61076e-05
1.6108e-05
1.61084e-05
1.61051e-05
1.61053e-05
1.61056e-05
1.61058e-05
1.61061e-05
1.61063e-05
1.61065e-05
1.61067e-05
1.6107e-05
1.61072e-05
1.61075e-05
1.61078e-05
1.61082e-05
1.61086e-05
1.61052e-05
1.61055e-05
1.61057e-05
1.6106e-05
1.61062e-05
1.61064e-05
1.61067e-05
1.61069e-05
1.61072e-05
1.61074e-05
1.61077e-05
1.6108e-05
1.61084e-05
1.61088e-05
1.61053e-05
1.61056e-05
1.61058e-05
1.61061e-05
1.61063e-05
1.61066e-05
1.61068e-05
1.61071e-05
1.61073e-05
1.61076e-05
1.61079e-05
1.61082e-05
1.61086e-05
1.6109e-05
1.61053e-05
1.61056e-05
1.61059e-05
1.61062e-05
1.61065e-05
1.61067e-05
1.6107e-05
1.61072e-05
1.61075e-05
1.61078e-05
1.61081e-05
1.61084e-05
1.61088e-05
1.61092e-05
1.61054e-05
1.61057e-05
1.6106e-05
1.61063e-05
1.61065e-05
1.61068e-05
1.61071e-05
1.61074e-05
1.61077e-05
1.6108e-05
1.61083e-05
1.61086e-05
1.6109e-05
1.61094e-05
1.61057e-05
1.6106e-05
1.61063e-05
1.61066e-05
1.61069e-05
1.61072e-05
1.61075e-05
1.61078e-05
1.61081e-05
1.61084e-05
1.61088e-05
1.61092e-05
1.61096e-05
1.61057e-05
1.6106e-05
1.61063e-05
1.61066e-05
1.61069e-05
1.61072e-05
1.61075e-05
1.61078e-05
1.61082e-05
1.61085e-05
1.61089e-05
1.61093e-05
1.61056e-05
1.6106e-05
1.61063e-05
1.61066e-05
1.61069e-05
1.61072e-05
1.61076e-05
1.61079e-05
1.61082e-05
1.61086e-05
1.6109e-05
1.61094e-05
1.61055e-05
1.61059e-05
1.61062e-05
1.61065e-05
1.61069e-05
1.61072e-05
1.61075e-05
1.61079e-05
1.61082e-05
1.61086e-05
1.6109e-05
1.61095e-05
1.61053e-05
1.61057e-05
1.61061e-05
1.61064e-05
1.61067e-05
1.61071e-05
1.61075e-05
1.61078e-05
1.61082e-05
1.61086e-05
1.6109e-05
1.61095e-05
1.61055e-05
1.61059e-05
1.61062e-05
1.61066e-05
1.61069e-05
1.61073e-05
1.61077e-05
1.61081e-05
1.61085e-05
1.6109e-05
1.61094e-05
1.61052e-05
1.61056e-05
1.6106e-05
1.61063e-05
1.61067e-05
1.61071e-05
1.61075e-05
1.61079e-05
1.61084e-05
1.61088e-05
1.61093e-05
1.61048e-05
1.61052e-05
1.61056e-05
1.6106e-05
1.61064e-05
1.61068e-05
1.61072e-05
1.61077e-05
1.61081e-05
1.61086e-05
1.61091e-05
1.61044e-05
1.61048e-05
1.61052e-05
1.61056e-05
1.6106e-05
1.61064e-05
1.61069e-05
1.61073e-05
1.61078e-05
1.61083e-05
1.61089e-05
1.61038e-05
1.61043e-05
1.61047e-05
1.61051e-05
1.61055e-05
1.6106e-05
1.61064e-05
1.61069e-05
1.61074e-05
1.61079e-05
1.61085e-05
1.61032e-05
1.61036e-05
1.61041e-05
1.61045e-05
1.61049e-05
1.61054e-05
1.61059e-05
1.61064e-05
1.61069e-05
1.61075e-05
1.61024e-05
1.61029e-05
1.61033e-05
1.61038e-05
1.61042e-05
1.61047e-05
1.61052e-05
1.61057e-05
1.61063e-05
1.61068e-05
1.6102e-05
1.61025e-05
1.6103e-05
1.61034e-05
1.61039e-05
1.61044e-05
1.6105e-05
1.61055e-05
1.61061e-05
1.61011e-05
1.61016e-05
1.6102e-05
1.61025e-05
1.6103e-05
1.61036e-05
1.61041e-05
1.61047e-05
1.61053e-05
1.61e-05
1.61005e-05
1.6101e-05
1.61015e-05
1.6102e-05
1.61026e-05
1.61031e-05
1.61037e-05
1.61044e-05
1.60987e-05
1.60992e-05
1.60997e-05
1.61002e-05
1.61008e-05
1.61014e-05
1.6102e-05
1.61026e-05
1.61032e-05
1.60971e-05
1.60976e-05
1.60981e-05
1.60987e-05
1.60993e-05
1.60999e-05
1.61005e-05
1.61012e-05
1.61019e-05
1.60952e-05
1.60957e-05
1.60962e-05
1.60967e-05
1.60973e-05
1.6098e-05
1.60986e-05
1.60993e-05
1.60929e-05
1.60934e-05
1.60939e-05
1.60945e-05
1.60951e-05
1.60957e-05
1.60964e-05
1.60971e-05
1.60906e-05
1.6091e-05
1.60915e-05
1.6092e-05
1.60926e-05
1.60932e-05
1.60939e-05
1.60946e-05
1.60886e-05
1.6089e-05
1.60895e-05
1.60901e-05
1.60907e-05
1.60913e-05
1.6092e-05
1.60861e-05
1.60865e-05
1.6087e-05
1.60875e-05
1.60881e-05
1.60887e-05
1.60893e-05
1.60835e-05
1.60839e-05
1.60844e-05
1.60849e-05
1.60855e-05
1.60861e-05
1.60867e-05
1.6081e-05
1.60814e-05
1.60818e-05
1.60824e-05
1.60829e-05
1.60835e-05
1.60842e-05
1.60786e-05
1.6079e-05
1.60794e-05
1.60799e-05
1.60805e-05
1.6081e-05
1.60763e-05
1.60766e-05
1.6077e-05
1.60774e-05
1.60779e-05
1.60784e-05
1.6074e-05
1.60743e-05
1.60746e-05
1.60749e-05
1.60754e-05
1.60758e-05
1.60718e-05
1.6072e-05
1.60722e-05
1.60725e-05
1.60728e-05
1.60732e-05
1.60706e-05
1.60706e-05
1.60707e-05
1.60708e-05
1.60709e-05
1.6071e-05
1.6072e-05
1.6072e-05
1.60719e-05
1.60718e-05
1.60716e-05
1.60715e-05
1.60747e-05
1.60747e-05
1.60746e-05
1.60744e-05
1.60743e-05
1.60778e-05
1.60778e-05
1.60778e-05
1.60776e-05
1.60776e-05
1.6081e-05
1.60812e-05
1.60813e-05
1.60815e-05
1.60816e-05
1.60844e-05
1.60847e-05
1.60847e-05
1.60846e-05
1.60869e-05
1.60877e-05
1.60887e-05
1.60898e-05
1.60983e-05
1.60989e-05
1.60995e-05
1.60997e-05
)
;

boundaryField
{
    inlet
    {
        type            calculated;
        value           nonuniform List<scalar> 4(1.60983e-05 1.60989e-05 1.60995e-05 1.60997e-05);
    }
    outlet
    {
        type            calculated;
        value           nonuniform List<scalar> 0();
    }
    walls
    {
        type            calculated;
        value           nonuniform List<scalar> 
42
(
0.00323601
0.0034624
0.00369873
0.00388635
0.0040622
0.00421684
0.0043373
0.00442983
0.00449689
0.00453662
0.00455633
0.00455453
0.00452588
0.00447256
0.00439034
0.00427716
0.00412653
0.00393205
0.00368027
0.00335989
0.00295418
0.00246298
0.00193316
0.00153436
0.00137085
0.00144232
0.00159955
0.00176278
0.00189558
0.00198344
0.00203068
0.00204745
0.00202928
0.00197917
0.0018944
0.00299579
0.00272396
0.00242518
0.00205551
0.00165354
0.00121845
0.000779905
)
;
    }
    frontAndBack
    {
        type            empty;
    }
    procBoundary5to0
    {
        type            processor;
        value           nonuniform List<scalar> 4(1.61047e-05 1.61042e-05 1.6103e-05 1.61023e-05);
    }
    procBoundary5to1
    {
        type            processor;
        value           nonuniform List<scalar> 
13
(
1.69612e-05
1.59112e-05
1.59112e-05
1.61415e-05
1.61003e-05
1.61003e-05
1.61092e-05
1.61063e-05
1.61063e-05
1.61055e-05
1.61044e-05
1.61021e-05
1.61021e-05
)
;
    }
    procBoundary5to4
    {
        type            processor;
        value           nonuniform List<scalar> 
95
(
1.61047e-05
1.61048e-05
1.61045e-05
1.61045e-05
1.61037e-05
1.61033e-05
1.61033e-05
1.61025e-05
1.61023e-05
1.61023e-05
1.61018e-05
1.61018e-05
1.61014e-05
1.61014e-05
1.61012e-05
1.61012e-05
1.61012e-05
1.61013e-05
1.61013e-05
1.61014e-05
1.61015e-05
1.61015e-05
1.61016e-05
1.61018e-05
1.61018e-05
1.61019e-05
1.61021e-05
1.61021e-05
1.61022e-05
1.61023e-05
1.61025e-05
1.61025e-05
1.61026e-05
1.61027e-05
1.6103e-05
1.6103e-05
1.61031e-05
1.61032e-05
1.61035e-05
1.61035e-05
1.61036e-05
1.61037e-05
1.6104e-05
1.6104e-05
1.61041e-05
1.61043e-05
1.61044e-05
1.61045e-05
1.61048e-05
1.61048e-05
1.61049e-05
1.6105e-05
1.6105e-05
1.61051e-05
1.61054e-05
1.61054e-05
1.61053e-05
1.61053e-05
1.61051e-05
1.61049e-05
1.61051e-05
1.61051e-05
1.61048e-05
1.61044e-05
1.61039e-05
1.61034e-05
1.61027e-05
1.6102e-05
1.61016e-05
1.61016e-05
1.61006e-05
1.60995e-05
1.60982e-05
1.60966e-05
1.60947e-05
1.60925e-05
1.60901e-05
1.60881e-05
1.60881e-05
1.60857e-05
1.60831e-05
1.60806e-05
1.60783e-05
1.6076e-05
1.60737e-05
1.60717e-05
1.60706e-05
1.60721e-05
1.60747e-05
1.60747e-05
1.60778e-05
1.60808e-05
1.60842e-05
1.6086e-05
1.60976e-05
)
;
    }
    procBoundary5to6
    {
        type            processor;
        value           nonuniform List<scalar> 
86
(
0.0869211
0.153853
0.206348
0.215384
0.175091
0.0933298
0.0217662
0.00543556
1e-05
1e-05
1e-05
1.00105e-05
1.25123e-05
2.02546e-05
1.92457e-05
1.64552e-05
1.52689e-05
1.53099e-05
1.57434e-05
1.60767e-05
1.6195e-05
1.61856e-05
1.61462e-05
1.61195e-05
1.61095e-05
1.61082e-05
1.61092e-05
1.61098e-05
1.61098e-05
1.61096e-05
1.61093e-05
1.61092e-05
1.61091e-05
1.61083e-05
1.61083e-05
1.61084e-05
1.61085e-05
1.61086e-05
1.61087e-05
1.61089e-05
1.61091e-05
1.61093e-05
1.61095e-05
1.61097e-05
1.61099e-05
1.611e-05
1.61097e-05
1.61097e-05
1.61098e-05
1.61099e-05
1.61099e-05
1.61099e-05
1.61098e-05
1.61097e-05
1.61094e-05
1.61091e-05
1.6108e-05
1.6108e-05
1.61074e-05
1.61068e-05
1.61059e-05
1.6105e-05
1.61039e-05
1.61026e-05
1.61001e-05
1.61001e-05
1.60979e-05
1.60953e-05
1.60927e-05
1.609e-05
1.60874e-05
1.60849e-05
1.60817e-05
1.60817e-05
1.6079e-05
1.60763e-05
1.60735e-05
1.60712e-05
1.60714e-05
1.60742e-05
1.60775e-05
1.60817e-05
1.60849e-05
1.60849e-05
1.60905e-05
1.61e-05
)
;
    }
}


// ************************************************************************* //
