/*--------------------------------*- C++ -*----------------------------------*\
| =========                 |                                                 |
| \\      /  F ield         | OpenFOAM: The Open Source CFD Toolbox           |
|  \\    /   O peration     | Version:  2506                                  |
|   \\  /    A nd           | Website:  www.openfoam.com                      |
|    \\/     M anipulation  |                                                 |
\*---------------------------------------------------------------------------*/
FoamFile
{
    version     2.0;
    format      ascii;
    arch        "LSB;label=32;scalar=64";
    class       pointScalarField;
    location    "2";
    object      streamFunction;
}
// * * * * * * * * * * * * * * * * * * * * * * * * * * * * * * * * * * * * * //

dimensions      [0 3 -1 0 0 0 0];

internalField   nonuniform List<scalar> 
882
(
0
0
0
0
0
0
0
0
0
0
0
0
0
0
0
0
0
0
0
0
0
0
1.26377e-06
-2.86491e-06
-1.22729e-05
-2.51467e-05
-3.97634e-05
-5.47539e-05
-6.88902e-05
-8.1002e-05
-8.98372e-05
-9.42196e-05
-9.31074e-05
-8.6058e-05
-7.3378e-05
-5.6411e-05
-3.74782e-05
-1.95541e-05
-5.6623e-06
1.9933e-06
2.98387e-06
0
0
-3.055e-06
-2.33428e-05
-5.92162e-05
-0.000105482
-0.000156947
-0.000209045
-0.000257554
-0.000298392
-0.000327463
-0.000341029
-0.00033619
-0.000311799
-0.000269191
-0.000212691
-0.00014947
-8.8588e-05
-3.9187e-05
-8.0657e-06
2.86688e-06
0
0
-1.41393e-05
-6.38047e-05
-0.000142658
-0.000240542
-0.000347531
-0.000454665
-0.000553555
-0.000636068
-0.000694242
-0.000720952
-0.000710882
-0.000662027
-0.000577006
-0.000463928
-0.000336217
-0.000210994
-0.000105865
-3.44911e-05
-1.96911e-06
0
0
-3.15783e-05
-0.000123383
-0.000260874
-0.000427059
-0.000606159
-0.000783998
-0.000947297
-0.00108318
-0.00117916
-0.0012241
-0.00120967
-0.00113249
-0.000996111
-0.000812455
-0.000601888
-0.000391193
-0.000208954
-7.87372e-05
-1.17323e-05
0
0
-5.46462e-05
-0.000200178
-0.00041055
-0.000660106
-0.000926247
-0.00118904
-0.00142994
-0.00163098
-0.0017747
-0.00184537
-0.00183087
-0.0017254
-0.00153239
-0.00126676
-0.000955814
-0.000637351
-0.000353913
-0.000143185
-2.67437e-05
0
0
-8.24585e-05
-0.000291636
-0.000587184
-0.000933225
-0.0012996
-0.00166033
-0.00199153
-0.00227007
-0.00247329
-0.00258028
-0.00257414
-0.00244516
-0.00219481
-0.00183927
-0.00141182
-0.000962051
-0.000549769
-0.000232378
-4.80935e-05
0
0
-0.000113945
-0.000394564
-0.000785084
-0.00123822
-0.00171576
-0.00218569
-0.00261897
-0.00298751
-0.00326345
-0.0034203
-0.00343525
-0.00329297
-0.00299047
-0.00254237
-0.00198566
-0.00138128
-0.00080921
-0.000353446
-7.78316e-05
0
0
-0.000147834
-0.000505144
-0.00099734
-0.00156494
-0.00216147
-0.00274909
-0.0032941
-0.00376395
-0.00412595
-0.00434788
-0.00440027
-0.0042604
-0.003918
-0.00338243
-0.00269039
-0.00191163
-0.00114756
-0.000516087
-0.000119078
0
0
-0.0001827
-0.000619077
-0.00121602
-0.00190139
-0.00262046
-0.00333
-0.0039924
-0.00457155
-0.00503067
-0.00533232
-0.00544014
-0.00532283
-0.00496027
-0.00435228
-0.00352969
-0.00256548
-0.00158037
-0.000732085
-0.000176138
0
0
-0.000217134
-0.000732012
-0.00143277
-0.00223438
-0.00307404
-0.00390377
-0.00468305
-0.00537345
-0.00593544
-0.00632755
-0.00650731
-0.00643461
-0.00607794
-0.00542359
-0.0044898
-0.00334413
-0.00211935
-0.00101414
-0.000254641
0
0
-0.00025006
-0.000840339
-0.00164001
-0.00255096
-0.00350266
-0.00444324
-0.00533058
-0.00612552
-0.00678763
-0.00727337
-0.00753609
-0.00752792
-0.00720633
-0.00654128
-0.00553207
-0.0042299
-0.00276626
-0.0013735
-0.000361638
0
0
-0.000281269
-0.000942436
-0.00183268
-0.00284051
-0.00388832
-0.00492162
-0.00589828
-0.00678036
-0.00752878
-0.00810049
-0.00844737
-0.00851724
-0.0082576
-0.00762267
-0.00658846
-0.00517876
-0.00350549
-0.00181587
-0.000505418
0
0
-0.000312267
-0.00104046
-0.00201063
-0.00309743
-0.00421758
-0.00531595
-0.0063525
-0.00729273
-0.00810133
-0.00873857
-0.0091583
-0.0093077
-0.00912872
-0.00856281
-0.00756246
-0.00611625
-0.00429663
-0.00233532
-0.000694491
0
0
-0.000347702
-0.00114283
-0.00218119
-0.00332354
-0.00448389
-0.00560971
-0.00666588
-0.00762377
-0.00845421
-0.00912346
-0.00959063
-0.00980646
-0.00971285
-0.00924459
-0.00833568
-0.00693817
-0.00506898
-0.00290657
-0.000934718
0
0
-0.000397834
-0.00126741
-0.00236126
-0.00352861
-0.00468693
-0.00579153
-0.0068159
-0.00773986
-0.00854253
-0.00919828
-0.00967406
-0.00992794
-0.00990742
-0.00954854
-0.00877663
-0.00751482
-0.00571846
-0.00347604
-0.00122314
0
0
-0.00048246
-0.00144389
-0.00257459
-0.00372297
-0.00482193
-0.00584237
-0.00677083
-0.00759813
-0.00831322
-0.0088999
-0.00933471
-0.00958567
-0.00961054
-0.00935415
-0.00874551
-0.00769471
-0.00610527
-0.00395143
-0.00153753
0
0
-0.000634729
-0.00170584
-0.00282842
-0.00388307
-0.00483899
-0.00569214
-0.00644606
-0.00710398
-0.0076649
-0.00812206
-0.00846195
-0.00866376
-0.00869843
-0.00852501
-0.00808737
-0.00730234
-0.00604659
-0.00418788
-0.00182267
0
0
-0.000893354
-0.00202783
-0.00301355
-0.00383743
-0.00452914
-0.00511306
-0.00560775
-0.00602579
-0.00637338
-0.00665085
-0.00685304
-0.00696965
-0.00698537
-0.00687559
-0.00660662
-0.00612022
-0.00530519
-0.0039613
-0.00194213
0
0
-0.00115675
-0.00203511
-0.00259071
-0.00299358
-0.00330254
-0.00354407
-0.00373608
-0.00389021
-0.00401268
-0.00410581
-0.00416902
-0.00419968
-0.0041935
-0.00414006
-0.00402983
-0.00383914
-0.00350817
-0.00286844
-0.00162366
0
0
0
0
0
0
0
0
0
0
0
0
0
0
0
0
0
0
0
0
0
0
0
0
0
0
0
0
0
0
0
0
0
0
0
0
0
0
0
0
0
0
0
0
1.26377e-06
-2.86491e-06
-1.22729e-05
-2.51467e-05
-3.97634e-05
-5.47539e-05
-6.88902e-05
-8.1002e-05
-8.98372e-05
-9.42196e-05
-9.31074e-05
-8.6058e-05
-7.3378e-05
-5.6411e-05
-3.74782e-05
-1.95541e-05
-5.6623e-06
1.9933e-06
2.98387e-06
0
0
-3.055e-06
-2.33428e-05
-5.92162e-05
-0.000105482
-0.000156947
-0.000209045
-0.000257554
-0.000298392
-0.000327463
-0.000341029
-0.00033619
-0.000311799
-0.000269191
-0.000212691
-0.00014947
-8.8588e-05
-3.9187e-05
-8.0657e-06
2.86688e-06
0
0
-1.41393e-05
-6.38047e-05
-0.000142658
-0.000240542
-0.000347531
-0.000454665
-0.000553555
-0.000636068
-0.000694242
-0.000720952
-0.000710882
-0.000662027
-0.000577006
-0.000463928
-0.000336217
-0.000210994
-0.000105865
-3.44911e-05
-1.96911e-06
0
0
-3.15783e-05
-0.000123383
-0.000260874
-0.000427059
-0.000606159
-0.000783998
-0.000947297
-0.00108318
-0.00117916
-0.0012241
-0.00120967
-0.00113249
-0.000996111
-0.000812455
-0.000601888
-0.000391193
-0.000208954
-7.87372e-05
-1.17323e-05
0
0
-5.46462e-05
-0.000200178
-0.00041055
-0.000660106
-0.000926247
-0.00118904
-0.00142994
-0.00163098
-0.0017747
-0.00184537
-0.00183087
-0.0017254
-0.00153239
-0.00126676
-0.000955814
-0.000637351
-0.000353913
-0.000143185
-2.67437e-05
0
0
-8.24585e-05
-0.000291636
-0.000587184
-0.000933225
-0.0012996
-0.00166033
-0.00199153
-0.00227007
-0.00247329
-0.00258028
-0.00257414
-0.00244516
-0.00219481
-0.00183927
-0.00141182
-0.000962051
-0.000549769
-0.000232378
-4.80935e-05
0
0
-0.000113945
-0.000394564
-0.000785084
-0.00123822
-0.00171576
-0.00218569
-0.00261897
-0.00298751
-0.00326345
-0.0034203
-0.00343525
-0.00329297
-0.00299047
-0.00254237
-0.00198566
-0.00138128
-0.00080921
-0.000353446
-7.78316e-05
0
0
-0.000147834
-0.000505144
-0.00099734
-0.00156494
-0.00216147
-0.00274909
-0.0032941
-0.00376395
-0.00412595
-0.00434788
-0.00440027
-0.0042604
-0.003918
-0.00338243
-0.00269039
-0.00191163
-0.00114756
-0.000516087
-0.000119078
0
0
-0.0001827
-0.000619077
-0.00121602
-0.00190139
-0.00262046
-0.00333
-0.0039924
-0.00457155
-0.00503067
-0.00533232
-0.00544014
-0.00532283
-0.00496027
-0.00435228
-0.00352969
-0.00256548
-0.00158037
-0.000732085
-0.000176138
0
0
-0.000217134
-0.000732012
-0.00143277
-0.00223438
-0.00307404
-0.00390377
-0.00468305
-0.00537345
-0.00593544
-0.00632755
-0.00650731
-0.00643461
-0.00607794
-0.00542359
-0.0044898
-0.00334413
-0.00211935
-0.00101414
-0.000254641
0
0
-0.00025006
-0.000840339
-0.00164001
-0.00255096
-0.00350266
-0.00444324
-0.00533058
-0.00612552
-0.00678763
-0.00727337
-0.00753609
-0.00752792
-0.00720633
-0.00654128
-0.00553207
-0.0042299
-0.00276626
-0.0013735
-0.000361638
0
0
-0.000281269
-0.000942436
-0.00183268
-0.00284051
-0.00388832
-0.00492162
-0.00589828
-0.00678036
-0.00752878
-0.00810049
-0.00844737
-0.00851724
-0.0082576
-0.00762267
-0.00658846
-0.00517876
-0.00350549
-0.00181587
-0.000505418
0
0
-0.000312267
-0.00104046
-0.00201063
-0.00309743
-0.00421758
-0.00531595
-0.0063525
-0.00729273
-0.00810133
-0.00873857
-0.0091583
-0.0093077
-0.00912872
-0.00856281
-0.00756246
-0.00611625
-0.00429663
-0.00233532
-0.000694491
0
0
-0.000347702
-0.00114283
-0.00218119
-0.00332354
-0.00448389
-0.00560971
-0.00666588
-0.00762377
-0.00845421
-0.00912346
-0.00959063
-0.00980646
-0.00971285
-0.00924459
-0.00833568
-0.00693817
-0.00506898
-0.00290657
-0.000934718
0
0
-0.000397834
-0.00126741
-0.00236126
-0.00352861
-0.00468693
-0.00579153
-0.0068159
-0.00773986
-0.00854253
-0.00919828
-0.00967406
-0.00992794
-0.00990742
-0.00954854
-0.00877663
-0.00751482
-0.00571846
-0.00347604
-0.00122314
0
0
-0.00048246
-0.00144389
-0.00257459
-0.00372297
-0.00482193
-0.00584237
-0.00677083
-0.00759813
-0.00831322
-0.0088999
-0.00933471
-0.00958567
-0.00961054
-0.00935415
-0.00874551
-0.00769471
-0.00610527
-0.00395143
-0.00153753
0
0
-0.000634729
-0.00170584
-0.00282842
-0.00388307
-0.00483899
-0.00569214
-0.00644606
-0.00710398
-0.0076649
-0.00812206
-0.00846195
-0.00866376
-0.00869843
-0.00852501
-0.00808737
-0.00730234
-0.00604659
-0.00418788
-0.00182267
0
0
-0.000893354
-0.00202783
-0.00301355
-0.00383743
-0.00452914
-0.00511306
-0.00560775
-0.00602579
-0.00637338
-0.00665085
-0.00685304
-0.00696965
-0.00698537
-0.00687559
-0.00660662
-0.00612022
-0.00530519
-0.0039613
-0.00194213
0
0
-0.00115675
-0.00203511
-0.00259071
-0.00299358
-0.00330254
-0.00354407
-0.00373608
-0.00389021
-0.00401268
-0.00410581
-0.00416902
-0.00419968
-0.0041935
-0.00414006
-0.00402983
-0.00383914
-0.00350817
-0.00286844
-0.00162366
0
0
0
0
0
0
0
0
0
0
0
0
0
0
0
0
0
0
0
0
0
0
)
;

boundaryField
{
    movingWall
    {
        type            calculated;
    }
    fixedWalls
    {
        type            calculated;
    }
    frontAndBack
    {
        type            empty;
    }
}


// ************************************************************************* //
