/*--------------------------------*- C++ -*----------------------------------*\
| =========                 |                                                 |
| \\      /  F ield         | OpenFOAM: The Open Source CFD Toolbox           |
|  \\    /   O peration     | Version:  2506                                  |
|   \\  /    A nd           | Website:  www.openfoam.com                      |
|    \\/     M anipulation  |                                                 |
\*---------------------------------------------------------------------------*/
FoamFile
{
    version     2.0;
    format      ascii;
    arch        "LSB;label=32;scalar=64";
    class       volVectorField;
    location    "300";
    object      momentError;
}
// * * * * * * * * * * * * * * * * * * * * * * * * * * * * * * * * * * * * * //

dimensions      [0 1 -2 0 0 0 0];

internalField   nonuniform List<vector> 
1340
(
(-0.000101532 -0.000132048 2.99826e-14)
(-0.000408757 0.000389376 -7.50788e-14)
(-0.0013095 0.0012443 9.57779e-14)
(-0.00153149 0.00112225 -6.00533e-14)
(-0.00133462 0.000817641 -1.46143e-13)
(-0.00117513 0.00064925 -1.64699e-13)
(-0.00107976 0.000543577 1.32127e-14)
(-0.000974991 0.000444993 1.3306e-13)
(-0.000855642 0.000362267 3.995e-14)
(-0.000748662 0.000297989 -5.03188e-14)
(-0.000657861 0.000248664 -3.54844e-14)
(-0.000580704 0.000207859 -2.18232e-14)
(-0.000512421 0.000174518 3.90512e-14)
(-0.000453414 0.000145368 1.73027e-14)
(-0.000401031 0.000121138 2.50613e-14)
(-0.00035548 9.85494e-05 -3.38537e-14)
(-0.000310763 7.86488e-05 -2.46684e-14)
(-0.000264308 6.03319e-05 1.81957e-14)
(-0.000218412 4.85949e-05 1.2421e-14)
(-0.000179347 3.93359e-05 6.93912e-15)
(-0.000151567 2.12241e-05 -1.46479e-15)
(-0.000133336 7.65617e-06 -2.85077e-16)
(-0.000126908 -3.39381e-06 2.28852e-16)
(-0.000102246 -4.28863e-06 -4.49566e-16)
(-8.06998e-05 -7.35575e-06 -1.8613e-15)
(-6.8193e-05 -8.92248e-06 -1.26377e-15)
(-6.6971e-05 -1.15519e-05 -3.80962e-15)
(-2.85672e-05 -1.0076e-05 -2.86635e-15)
(-0.00135434 0.00138323 1.11579e-13)
(-0.00082619 0.000722016 5.95263e-14)
(-0.000958562 0.000897373 -8.27172e-14)
(-0.00139702 0.00114979 -1.05817e-14)
(-0.00160033 0.00092019 1.01905e-13)
(-0.00153759 0.000651747 -5.20706e-15)
(-0.00140702 0.000484769 1.22863e-14)
(-0.00128788 0.000361127 -2.48011e-14)
(-0.00116436 0.000255949 -3.25936e-14)
(-0.00103037 0.000181883 1.41578e-14)
(-0.000906693 0.000132341 1.70879e-14)
(-0.000799977 9.9381e-05 -5.80561e-14)
(-0.000708729 7.42377e-05 2.69356e-14)
(-0.000628701 5.51034e-05 1.78494e-14)
(-0.000558759 3.90305e-05 1.4682e-14)
(-0.000496965 2.56476e-05 3.19188e-14)
(-0.000441551 1.33235e-05 4.18003e-14)
(-0.000387624 -5.18906e-07 1.76573e-14)
(-0.000333963 -1.5167e-05 -1.51732e-14)
(-0.000282675 -2.70318e-05 8.15661e-16)
(-0.000236062 -3.14632e-05 -5.69003e-15)
(-0.000198229 -3.27865e-05 -2.08956e-15)
(-0.000173133 -3.09664e-05 3.94329e-16)
(-0.000152632 -2.60761e-05 -3.79922e-17)
(-0.000128352 -2.4736e-05 2.79462e-16)
(-0.000107089 -1.84594e-05 6.10928e-16)
(-8.42454e-05 -1.55905e-05 1.84441e-15)
(-5.5149e-05 -1.30017e-05 2.33494e-15)
(-5.49293e-05 -1.42354e-05 7.53007e-16)
(-0.00138018 0.00158769 1.35207e-14)
(-0.00113688 0.00116426 -1.17658e-13)
(-0.00130449 0.00125049 -7.91495e-14)
(-0.00154041 0.00126021 -8.81447e-14)
(-0.00163515 0.00108338 9.75327e-14)
(-0.0015705 0.000885354 1.45233e-14)
(-0.00143805 0.000726424 -1.3646e-14)
(-0.00129924 0.000590569 -8.09024e-14)
(-0.00116217 0.000473458 -5.80951e-14)
(-0.00102329 0.000381505 3.78613e-14)
(-0.000894384 0.000312351 -2.13764e-14)
(-0.000782862 0.000259033 -4.3981e-14)
(-0.000688106 0.000215301 -4.00491e-15)
(-0.000606327 0.000178941 -4.02505e-14)
(-0.000535839 0.000147312 -4.3013e-14)
(-0.000474262 0.000119567 -8.43538e-14)
(-0.00041892 9.31889e-05 -6.39697e-14)
(-0.000365095 6.76343e-05 -1.80085e-14)
(-0.000311755 4.50753e-05 3.95352e-15)
(-0.000261115 2.86231e-05 -1.15026e-15)
(-0.000214847 1.93815e-05 -1.05385e-14)
(-0.000175148 1.28813e-05 4.48001e-15)
(-0.00014799 8.7452e-06 5.82986e-16)
(-0.000130032 8.61498e-08 -1.8169e-16)
(-0.000106991 -6.13049e-06 -8.10996e-18)
(-8.65762e-05 -8.62307e-06 -5.30993e-16)
(-7.07677e-05 -1.0974e-05 -9.78484e-16)
(-5.75314e-05 -6.685e-06 -1.46035e-15)
(-2.54323e-05 -2.13045e-05 1.88453e-15)
(-0.00163709 0.00264901 7.34794e-14)
(-0.001312 0.00170012 -1.84165e-13)
(-0.00122197 0.00142897 1.69139e-13)
(-0.00146094 0.00150102 2.01713e-15)
(-0.00159112 0.00139279 -1.20426e-13)
(-0.00163903 0.00118844 -7.02306e-14)
(-0.00158994 0.000970454 -1.98376e-14)
(-0.0014776 0.000773811 5.96073e-14)
(-0.00134647 0.000605497 1.29287e-13)
(-0.00121282 0.000465483 2.11127e-14)
(-0.00107722 0.000353762 -4.73442e-14)
(-0.000949268 0.000269274 2.22029e-14)
(-0.000834756 0.000205862 5.00197e-14)
(-0.000735426 0.000157089 -3.67825e-15)
(-0.000648666 0.000119257 -7.78512e-15)
(-0.000573293 8.88145e-05 -2.1443e-14)
(-0.000506672 6.38947e-05 5.28244e-14)
(-0.000446024 4.17094e-05 3.09471e-14)
(-0.000387198 2.13573e-05 -1.07698e-14)
(-0.000329999 3.85672e-06 -1.69228e-14)
(-0.000276688 -8.88012e-06 -6.96764e-15)
(-0.000228114 -1.57709e-05 1.26369e-14)
(-0.000185893 -1.96662e-05 -8.92332e-16)
(-0.000155444 -1.99547e-05 -5.14457e-16)
(-0.000133671 -2.25242e-05 2.02237e-16)
(-0.000107638 -2.42905e-05 -3.84308e-17)
(-8.30554e-05 -1.24055e-05 -3.59456e-17)
(-6.20682e-05 6.42622e-06 2.71372e-16)
(-8.63278e-05 -0.000133811 5.0394e-16)
(-0.000736798 -0.00230272 -3.25473e-15)
(-0.00143914 0.00248894 -6.88166e-14)
(-0.00129245 0.00186233 -7.24346e-14)
(-0.00131441 0.00165593 1.50521e-13)
(-0.00150108 0.0016184 1.26904e-13)
(-0.00159535 0.00146917 3.56698e-14)
(-0.00161977 0.00126602 -5.19525e-14)
(-0.00157536 0.00105347 5.9192e-14)
(-0.00147517 0.000856595 4.54236e-14)
(-0.00135176 0.000687775 -3.98981e-15)
(-0.00122296 0.000547935 -9.37279e-14)
(-0.0010904 0.00043348 3.96833e-15)
(-0.000964434 0.000344194 3.73138e-15)
(-0.000849106 0.00027548 2.07072e-16)
(-0.000747754 0.000221611 1.51407e-14)
(-0.000658509 0.000178408 -5.42996e-15)
(-0.000580679 0.000142583 1.23042e-14)
(-0.000511816 0.000112196 -2.67325e-14)
(-0.000449087 8.44495e-05 -1.53713e-14)
(-0.000388583 5.89859e-05 1.55093e-14)
(-0.000330547 3.70915e-05 2.09648e-14)
(-0.000276987 2.09233e-05 1.25678e-15)
(-0.000228223 1.08173e-05 -1.23862e-15)
(-0.000185721 4.88265e-06 -3.26358e-15)
(-0.000154618 2.56771e-06 6.55338e-16)
(-0.000132301 -3.63825e-06 -1.05121e-16)
(-0.000106081 -8.52305e-06 -5.34545e-16)
(-8.29602e-05 -1.64627e-05 -2.89426e-17)
(-6.9301e-05 -3.68603e-05 9.13871e-17)
(-6.99186e-05 0.000227739 -5.56086e-17)
(0.000187225 0.00338388 -9.30275e-16)
(-0.00132789 0.00305233 4.66611e-15)
(-0.00126172 0.00231952 -7.81612e-14)
(-0.0012257 0.00191035 -2.94201e-14)
(-0.00132731 0.00177909 -3.5089e-14)
(-0.00148154 0.00168405 2.74101e-14)
(-0.00155601 0.0015133 1.35744e-13)
(-0.00157268 0.00131243 -3.03643e-14)
(-0.00153623 0.00110651 -5.88478e-14)
(-0.00145149 0.000910399 2.49237e-15)
(-0.00134251 0.0007376 -5.12989e-14)
(-0.00122478 0.000591405 1.70091e-14)
(-0.00110105 0.000468558 2.54133e-14)
(-0.000981133 0.000369415 3.93208e-14)
(-0.000869068 0.000290896 1.50522e-14)
(-0.000768474 0.000228597 -1.77056e-14)
(-0.00067871 0.000178515 2.27324e-14)
(-0.000599379 0.000137636 2.51899e-14)
(-0.000528472 0.000103547 1.82651e-14)
(-0.000463305 7.37906e-05 3.81766e-15)
(-0.000400625 4.75042e-05 -1.44158e-14)
(-0.000340828 2.54971e-05 1.18078e-14)
(-0.000286141 9.04366e-06 3.28143e-15)
(-0.000236327 -1.23161e-06 -1.13791e-14)
(-0.000192788 -7.25268e-06 1.22443e-15)
(-0.000160261 -9.25998e-06 -1.19073e-16)
(-0.000136583 -1.4304e-05 2.06363e-16)
(-0.000110186 -1.81493e-05 6.71514e-16)
(-8.61999e-05 -1.41159e-05 -1.61955e-16)
(-6.83373e-05 -1.11611e-05 -2.60059e-16)
(-2.36281e-05 -8.19587e-05 5.63285e-16)
(0.000354386 -0.00113706 1.40029e-15)
(-0.00114025 0.00276324 7.38593e-15)
(-0.00110742 0.00213805 1.10782e-14)
(-0.00113697 0.00184808 8.06554e-14)
(-0.00128486 0.00181644 -1.01457e-13)
(-0.00142162 0.00170256 -3.27956e-14)
(-0.00149197 0.00152491 -3.11577e-14)
(-0.00150973 0.00133138 1.17316e-13)
(-0.00148137 0.00113652 -4.64564e-14)
(-0.00141088 0.000948433 -4.55632e-15)
(-0.00131742 0.000779685 1.85445e-14)
(-0.00121225 0.000634536 1.77858e-14)
(-0.00109835 0.000510063 1.20854e-14)
(-0.000985962 0.000407481 -7.684e-14)
(-0.000878559 0.000324566 -2.81451e-14)
(-0.000779912 0.000258075 3.58236e-14)
(-0.000690498 0.000204183 1.42775e-15)
(-0.00061057 0.000160214 3.63953e-14)
(-0.000538257 0.000123263 -1.0395e-14)
(-0.000471435 9.11721e-05 1.50806e-15)
(-0.000407307 6.27467e-05 2.42438e-14)
(-0.000346697 3.89723e-05 -2.03725e-14)
(-0.000291509 2.08991e-05 -6.9934e-15)
(-0.000241355 9.01158e-06 6.58709e-15)
(-0.000197273 2.01633e-06 2.20017e-15)
(-0.00016385 -8.49501e-07 -1.00723e-18)
(-0.000139153 -6.47872e-06 -2.58066e-16)
(-0.000112478 -1.0551e-05 6.40771e-16)
(-8.69943e-05 -9.78536e-06 7.44055e-17)
(-6.80918e-05 -1.12999e-05 -1.08778e-15)
(-4.93059e-05 -7.34466e-06 5.34477e-17)
(-2.2842e-05 1.61588e-05 -3.17096e-15)
(-0.000986068 0.00250159 3.14005e-15)
(-0.000996632 0.00203955 1.01657e-13)
(-0.00107641 0.0018448 1.36656e-13)
(-0.00123461 0.00177481 -5.30228e-14)
(-0.0013418 0.00167533 -7.25305e-14)
(-0.00140951 0.00151098 -5.54178e-14)
(-0.00143367 0.00132989 -1.02178e-13)
(-0.0014154 0.00114813 -5.53499e-15)
(-0.00135863 0.000970741 -4.30568e-14)
(-0.00128053 0.000809242 5.78124e-14)
(-0.00118896 0.000667209 1.93981e-14)
(-0.00108655 0.000542494 -3.07544e-14)
(-0.00098334 0.000437175 -3.25892e-15)
(-0.000882351 0.000349959 -2.54454e-14)
(-0.000787557 0.000278585 2.79055e-15)
(-0.000699994 0.000220003 -1.77735e-14)
(-0.000620624 0.000171745 -3.33873e-14)
(-0.000547872 0.000131177 1.47996e-14)
(-0.00048011 9.61918e-05 -2.76341e-14)
(-0.000414957 6.57062e-05 -1.00696e-14)
(-0.000353854 4.03181e-05 6.28894e-15)
(-0.000298283 2.09719e-05 3.97366e-15)
(-0.000247813 7.72146e-06 1.56447e-15)
(-0.000203217 -9.23368e-08 -1.03595e-15)
(-0.000168805 -3.72985e-06 -4.35621e-16)
(-0.000142951 -9.14231e-06 -7.72197e-17)
(-0.000115993 -1.38408e-05 -1.0351e-15)
(-8.96382e-05 -1.31476e-05 5.57195e-16)
(-7.06446e-05 -1.41922e-05 3.07953e-15)
(-5.34809e-05 -1.2017e-05 5.21667e-17)
(-3.29584e-05 -1.85092e-05 2.50324e-15)
(-0.000797079 0.00271457 9.71493e-14)
(-0.000858054 0.00227217 6.43158e-14)
(-0.000903227 0.00194613 -1.65784e-13)
(-0.000992953 0.00181918 -1.14079e-13)
(-0.00116356 0.00174515 -3.87794e-14)
(-0.001268 0.00161027 7.08802e-14)
(-0.00132024 0.001469 7.32168e-14)
(-0.0013496 0.00130871 2.73053e-14)
(-0.00134179 0.00114301 2.5062e-14)
(-0.00129852 0.000979087 -2.6746e-14)
(-0.0012353 0.000827709 -8.73435e-14)
(-0.00115707 0.000691372 1.34189e-14)
(-0.00106664 0.000569056 2.70985e-14)
(-0.000973433 0.000463606 1.84405e-14)
(-0.000879565 0.000374296 5.10937e-14)
(-0.000789763 0.000299921 -2.84862e-14)
(-0.000705139 0.000238209 -2.1265e-14)
(-0.000627108 0.000186899 -1.53235e-14)
(-0.000554572 0.000143688 -3.15574e-15)
(-0.000486397 0.000106534 2.46457e-14)
(-0.000420792 7.43752e-05 1.64612e-14)
(-0.000359516 4.76275e-05 1.90952e-14)
(-0.000303941 2.70193e-05 6.47335e-15)
(-0.000253382 1.25045e-05 2.86974e-17)
(-0.000208596 3.55959e-06 2.21476e-15)
(-0.000173369 -6.67527e-07 -3.08631e-16)
(-0.000146563 -6.29802e-06 3.02727e-16)
(-0.000119324 -1.1127e-05 -3.80586e-16)
(-9.24094e-05 -1.11208e-05 3.23429e-17)
(-7.28375e-05 -1.27697e-05 -1.76799e-15)
(-5.5481e-05 -1.21463e-05 4.22931e-16)
(-3.68662e-05 -1.28386e-05 4.64582e-15)
(-0.000751276 0.00206537 1.02103e-13)
(-0.000819764 0.00183656 1.87033e-14)
(-0.000948105 0.00176831 -2.7671e-15)
(-0.00105202 0.00169532 -9.34353e-14)
(-0.00117946 0.001567 -3.88267e-14)
(-0.00123608 0.00141017 5.64826e-14)
(-0.00126435 0.00126982 6.41652e-14)
(-0.00126459 0.00112305 1.04449e-13)
(-0.00123299 0.000974342 9.98197e-14)
(-0.00118351 0.000835094 -2.10623e-14)
(-0.00111866 0.000706922 -8.11343e-15)
(-0.00104002 0.000588854 1.57298e-14)
(-0.00095707 0.000485043 3.48549e-15)
(-0.000871222 0.000395057 1.13563e-14)
(-0.000787172 0.000318703 3.09302e-14)
(-0.0007064 0.000254313 8.49879e-17)
(-0.000630576 0.000200276 -1.26221e-14)
(-0.000559009 0.000154393 -5.76328e-15)
(-0.000491076 0.000115021 2.63197e-15)
(-0.000425467 8.10163e-05 1.12598e-15)
(-0.000364429 5.28207e-05 -3.97268e-15)
(-0.000309099 3.08146e-05 -8.91996e-15)
(-0.000258672 1.49744e-05 5.53994e-16)
(-0.000213892 4.76077e-06 -1.42042e-15)
(-0.000178031 -2.64987e-07 4.55133e-16)
(-0.000150258 -6.18762e-06 6.53483e-17)
(-0.000122696 -1.13413e-05 2.16824e-16)
(-9.553e-05 -1.20585e-05 1.75117e-15)
(-7.52828e-05 -1.33991e-05 2.5316e-15)
(-5.78268e-05 -1.31762e-05 -1.93349e-15)
(-3.99203e-05 -1.39393e-05 -6.49186e-15)
(-0.000740816 0.00171616 9.93221e-15)
(-0.000896391 0.00169743 7.4519e-14)
(-0.00101468 0.00163164 -9.30877e-14)
(-0.00105916 0.00151579 1.38237e-15)
(-0.0011463 0.00135695 2.55493e-14)
(-0.00117953 0.00122182 -1.08733e-13)
(-0.00118679 0.00109329 -1.63299e-13)
(-0.00116561 0.000959831 2.25758e-14)
(-0.00112817 0.000833145 2.43315e-14)
(-0.00107532 0.000714174 -1.70263e-14)
(-0.00100805 0.000602092 -1.64742e-14)
(-0.000935172 0.000501411 -3.75694e-14)
(-0.000857739 0.000412322 3.35322e-14)
(-0.000780109 0.00033529 2.93786e-14)
(-0.00070378 0.000269243 9.06613e-15)
(-0.0006308 0.000213117 3.06078e-14)
(-0.000560858 0.000165167 2.85631e-14)
(-0.000493608 0.000123922 1.14288e-15)
(-0.000428528 8.84038e-05 -4.24861e-14)
(-0.000368113 5.89459e-05 -9.03374e-15)
(-0.000313288 3.57876e-05 -2.44449e-15)
(-0.00026326 1.87168e-05 -7.6191e-15)
(-0.000218665 7.40369e-06 -4.16558e-17)
(-0.000182399 1.38039e-06 -9.26532e-17)
(-0.00015377 -4.72076e-06 2.19536e-16)
(-0.000125953 -1.03042e-05 -2.35025e-16)
(-9.86102e-05 -1.14883e-05 -1.82258e-16)
(-7.76979e-05 -1.28455e-05 2.20734e-17)
(-6.00776e-05 -1.2938e-05 -4.46167e-15)
(-4.25538e-05 -1.3887e-05 2.73348e-15)
(-0.000807921 0.0015779 -7.00867e-14)
(-0.000972627 0.0015605 7.5099e-14)
(-0.0010339 0.00145631 5.83793e-14)
(-0.00103401 0.0013205 7.79227e-14)
(-0.00109112 0.00117143 7.72795e-14)
(-0.00110715 0.00105498 -5.42405e-14)
(-0.00109631 0.000937843 -5.91179e-14)
(-0.00107007 0.000823977 4.22789e-14)
(-0.00102863 0.000714862 1.36163e-14)
(-0.000971872 0.000609531 2.77649e-15)
(-0.000908758 0.000513103 -5.28978e-15)
(-0.000839669 0.000426099 -8.11668e-14)
(-0.000768761 0.000349353 -3.57996e-14)
(-0.000697412 0.000282493 -1.46698e-14)
(-0.000627897 0.000224902 -3.10114e-14)
(-0.000560085 0.000175282 -1.6048e-14)
(-0.000494024 0.00013237 3.67195e-15)
(-0.000429974 9.54465e-05 2.51869e-14)
(-0.000370528 6.48132e-05 1.37494e-15)
(-0.000316525 4.055e-05 1.15487e-14)
(-0.000267123 2.23293e-05 8.96148e-15)
(-0.000222964 9.87379e-06 1.08953e-15)
(-0.000186494 2.77614e-06 -1.28795e-15)
(-0.000157133 -3.75356e-06 -2.05006e-16)
(-0.000129044 -9.77161e-06 -2.2409e-16)
(-0.000101599 -1.16134e-05 3.6424e-16)
(-8.00055e-05 -1.28815e-05 -3.00777e-16)
(-6.22291e-05 -1.30651e-05 1.8421e-15)
(-4.50627e-05 -1.38599e-05 2.6019e-15)
(-0.000851453 0.00141759 9.77304e-14)
(-0.0010072 0.00139682 6.40871e-15)
(-0.000989918 0.00127569 -5.21785e-14)
(-0.00100999 0.00113759 4.48849e-14)
(-0.001031 0.00101338 9.55723e-14)
(-0.00102766 0.000908095 1.66081e-14)
(-0.001011 0.000807134 -6.74054e-14)
(-0.000979402 0.00070821 3.37489e-14)
(-0.000932601 0.000610751 1.38596e-14)
(-0.000878673 0.000519827 1.93503e-15)
(-0.000817829 0.000436051 2.00082e-15)
(-0.00075352 0.000360679 -5.01783e-14)
(-0.000687452 0.0002938 6.39371e-15)
(-0.000621876 0.000235494 3.202e-15)
(-0.000556701 0.000184638 2.25332e-16)
(-0.000492429 0.000140464 -3.35221e-16)
(-0.000429779 0.000102337 9.539e-15)
(-0.000371668 7.07572e-05 1.79783e-14)
(-0.000318787 4.55232e-05 -8.92792e-15)
(-0.000270229 2.6347e-05 -6.21834e-15)
(-0.000226695 1.27652e-05 1.65693e-15)
(-0.000190181 4.6094e-06 1.0325e-15)
(-0.000160261 -2.52445e-06 -3.46847e-16)
(-0.000131957 -9.00728e-06 -1.5509e-16)
(-0.000104501 -1.14575e-05 -1.80611e-15)
(-8.22287e-05 -1.26878e-05 2.27017e-15)
(-6.43159e-05 -1.30198e-05 1.9431e-15)
(-4.7491e-05 -1.35518e-05 -8.8893e-15)
(-0.00086001 0.00124458 -2.0617e-14)
(-0.00102517 0.00124721 3.4518e-14)
(-0.000930911 0.00110474 -2.64775e-14)
(-0.000961789 0.000975837 -3.31993e-14)
(-0.000962752 0.00087358 1.41627e-14)
(-0.000953396 0.000785075 3.36176e-14)
(-0.000929853 0.000696508 -4.79544e-14)
(-0.000891439 0.000607068 1.00906e-14)
(-0.000845861 0.000522298 2.92568e-14)
(-0.000792884 0.000442612 2.80945e-14)
(-0.000735156 0.000369408 2.81877e-14)
(-0.000674459 0.000303245 1.28382e-14)
(-0.000613046 0.000244741 5.79784e-15)
(-0.000550957 0.000193147 9.13231e-15)
(-0.000488909 0.000148003 1.09429e-14)
(-0.000428048 0.000108942 -1.34894e-14)
(-0.000371587 7.65307e-05 -1.64158e-14)
(-0.000320069 5.04916e-05 -7.63429e-16)
(-0.000272582 3.04116e-05 -2.97623e-15)
(-0.000229832 1.58324e-05 -1.56641e-15)
(-0.0001935 6.53704e-06 -4.8814e-16)
(-0.000163124 -1.2503e-06 2.58313e-16)
(-0.000134672 -8.27572e-06 1.65122e-15)
(-0.000107293 -1.13138e-05 -1.77231e-15)
(-8.43536e-05 -1.26552e-05 -4.74352e-15)
(-6.63204e-05 -1.30113e-05 6.03196e-15)
(-4.97844e-05 -1.32802e-05 2.14606e-15)
(-0.000902609 0.0011215 -3.65767e-14)
(-0.000932848 0.00107561 -5.92341e-14)
(-0.000888349 0.000948747 -2.15343e-14)
(-0.000897355 0.000840034 -2.56439e-14)
(-0.000895051 0.000758132 -1.09385e-15)
(-0.000879207 0.00067965 4.38586e-15)
(-0.000848823 0.000598598 -4.33755e-14)
(-0.000810908 0.000520324 7.73199e-15)
(-0.000765237 0.000445448 -2.55401e-14)
(-0.000714024 0.000375142 -1.64617e-14)
(-0.000658788 0.000310518 3.05113e-14)
(-0.000601751 0.00025242 -1.76437e-14)
(-0.000543059 0.000200645 -3.17567e-14)
(-0.000483537 0.000154858 2.42521e-15)
(-0.000424761 0.000115159 1.69095e-14)
(-0.000370284 8.20978e-05 2.45167e-15)
(-0.000320343 5.54718e-05 -3.65759e-15)
(-0.000274097 3.4584e-05 1.08288e-15)
(-0.000232274 1.91466e-05 2.94417e-16)
(-0.000196248 8.69659e-06 -6.61849e-16)
(-0.000165603 1.60473e-07 4.49558e-16)
(-0.000137103 -7.3259e-06 -1.26906e-15)
(-0.000109873 -1.10279e-05 -1.31668e-16)
(-8.63227e-05 -1.25366e-05 -2.17549e-16)
(-6.81953e-05 -1.28971e-05 2.06883e-15)
(-5.1937e-05 -1.29717e-05 8.08376e-15)
(-0.000772571 0.00100702 -2.18556e-14)
(-0.000938595 0.00102786 -5.97883e-14)
(-0.000828519 0.000915126 -9.67986e-15)
(-0.000838817 0.000811204 4.24712e-15)
(-0.000840121 0.000730118 -2.73758e-14)
(-0.000830325 0.000660247 5.82545e-14)
(-0.000806526 0.00058729 5.85465e-14)
(-0.000775511 0.000515517 -1.39592e-15)
(-0.000736181 0.0004454 2.07621e-14)
(-0.000691014 0.000378432 -1.46722e-14)
(-0.000640997 0.00031576 1.5939e-14)
(-0.000588354 0.000258608 3.73056e-14)
(-0.000533252 0.000207035 1.55876e-15)
(-0.000476465 0.00016099 -2.66375e-14)
(-0.000420017 0.000120863 -8.15381e-15)
(-0.000367673 8.73754e-05 7.64783e-15)
(-0.000319528 6.02555e-05 3.80919e-15)
(-0.000274681 3.87467e-05 6.89707e-15)
(-0.000233947 2.24752e-05 -2.89555e-15)
(-0.000198383 1.10105e-05 4.79677e-17)
(-0.00016765 1.67234e-06 -1.94435e-16)
(-0.000139189 -6.20072e-06 1.14018e-16)
(-0.000112207 -1.06401e-05 2.44156e-16)
(-8.81059e-05 -1.23487e-05 -1.7709e-15)
(-6.9907e-05 -1.28656e-05 -1.35829e-14)
(-5.38998e-05 -1.26859e-05 -1.42272e-14)
(-0.000813076 0.000915997 -4.60373e-14)
(-0.000854462 0.00089782 9.54813e-15)
(-0.000778433 0.000786706 4.26173e-14)
(-0.000783367 0.000701804 2.86937e-14)
(-0.000779442 0.000636841 -2.17698e-14)
(-0.000762589 0.00057221 1.93904e-14)
(-0.000738487 0.000507184 -1.61491e-14)
(-0.000705485 0.000442159 6.79759e-16)
(-0.000666078 0.000379007 1.8484e-14)
(-0.000621206 0.0003188 -1.6193e-14)
(-0.000572909 0.000263115 1.64422e-14)
(-0.000521446 0.000212156 1.33453e-14)
(-0.000467599 0.000166263 1.02341e-14)
(-0.000413732 0.000125991 -8.59595e-15)
(-0.000363736 9.23441e-05 -6.72885e-15)
(-0.000317564 6.48344e-05 -2.51607e-15)
(-0.000274279 4.2864e-05 -5.00034e-15)
(-0.000234746 2.58442e-05 5.99652e-16)
(-0.000199796 1.34604e-05 1.96886e-15)
(-0.000169159 3.36006e-06 -2.08947e-16)
(-0.000140876 -4.88215e-06 1.18825e-15)
(-0.0001142 -9.96316e-06 -7.05347e-16)
(-8.96248e-05 -1.20409e-05 1.53162e-15)
(-7.14111e-05 -1.26917e-05 9.64126e-15)
(-5.56866e-05 -1.22925e-05 7.21927e-15)
(-0.00069213 0.000821869 -7.79749e-14)
(-0.000840204 0.000856671 -4.35851e-14)
(-0.000739704 0.000759668 1.25065e-14)
(-0.000740215 0.000678414 -1.09365e-14)
(-0.000735393 0.000612958 -3.42836e-14)
(-0.000722126 0.000554461 -5.21902e-14)
(-0.000702779 0.000495814 2.35376e-14)
(-0.000674881 0.000436027 -2.29779e-14)
(-0.000640292 0.000376912 -1.05782e-14)
(-0.000599985 0.000319661 -2.23747e-14)
(-0.000555887 0.000265901 -4.10788e-14)
(-0.000507999 0.000216026 -1.2768e-14)
(-0.000457165 0.000170589 1.32954e-14)
(-0.000405949 0.00013046 1.14206e-14)
(-0.000358531 9.67745e-05 6.8558e-16)
(-0.000314476 6.91162e-05 4.40602e-15)
(-0.000272925 4.67326e-05 -2.54351e-15)
(-0.000234715 2.91561e-05 -6.59709e-17)
(-0.00020055 1.59123e-05 7.90935e-16)
(-0.000170181 5.21802e-06 -5.65067e-16)
(-0.000142199 -3.44613e-06 2.56458e-16)
(-0.000115897 -9.05437e-06 1.24104e-15)
(-9.11009e-05 -1.16256e-05 -1.11587e-15)
(-7.28625e-05 -1.24517e-05 -1.64008e-15)
(-5.73083e-05 -1.19496e-05 7.7307e-15)
(-0.000744883 0.000768138 -8.89629e-14)
(-0.000746255 0.000747971 -1.20412e-14)
(-0.000688335 0.000652541 6.60976e-15)
(-0.000690239 0.000587178 4.7308e-14)
(-0.000681435 0.00053375 1.07959e-14)
(-0.000667033 0.000481881 -1.75596e-14)
(-0.000643857 0.000427433 3.19557e-14)
(-0.000613744 0.000372612 9.19697e-16)
(-0.000577615 0.000318616 2.48723e-14)
(-0.000537432 0.000267058 1.12501e-14)
(-0.000493111 0.000218636 2.94415e-15)
(-0.000445376 0.000173949 2.1525e-15)
(-0.000396964 0.000134261 -6.9471e-15)
(-0.000352146 0.000100673 -3.21178e-15)
(-0.000310371 7.30253e-05 1.16762e-15)
(-0.00027067 5.03477e-05 1.32057e-15)
(-0.000233899 3.23386e-05 7.6054e-16)
(-0.000200621 1.83876e-05 -7.29851e-16)
(-0.000170715 7.16774e-06 4.34995e-17)
(-0.00014312 -1.81836e-06 -2.53165e-15)
(-0.000117253 -7.93355e-06 1.7818e-15)
(-9.26078e-05 -1.09418e-05 6.53828e-15)
(-7.42499e-05 -1.20837e-05 -2.5758e-15)
(-5.87463e-05 -1.13491e-05 -8.09041e-15)
(-0.00067363 0.000704841 2.50425e-14)
(-0.000719304 0.000702781 -2.67842e-15)
(-0.000639919 0.000627042 2.65404e-14)
(-0.000644784 0.000563602 -2.16575e-14)
(-0.000640349 0.000512757 1.36313e-14)
(-0.000630638 0.000466026 -1.45155e-14)
(-0.000612057 0.000416667 1.04268e-14)
(-0.000586189 0.000366184 1.1577e-14)
(-0.000554172 0.000315622 -4.08666e-15)
(-0.000517826 0.000266634 1.69066e-14)
(-0.000476975 0.000219899 -9.92847e-15)
(-0.000432344 0.000176302 -1.06655e-14)
(-0.000386841 0.000137189 9.05309e-15)
(-0.000344718 0.000103979 -3.94645e-15)
(-0.000305339 7.64087e-05 -8.019e-15)
(-0.000267588 5.36365e-05 4.13865e-16)
(-0.000232357 3.5272e-05 4.71216e-16)
(-0.000200097 2.08201e-05 -8.83413e-16)
(-0.000170808 9.15281e-06 9.73455e-16)
(-0.000143699 -8.96452e-08 -7.83505e-16)
(-0.000118332 -6.65633e-06 -5.88497e-16)
(-9.40727e-05 -1.009e-05 3.29412e-17)
(-7.55879e-05 -1.15674e-05 2.52738e-15)
(-6.00938e-05 -1.07475e-05 4.35663e-16)
(-0.000571621 0.000628707 1.76221e-14)
(-0.00071744 0.000661983 -5.96945e-15)
(-0.000607237 0.000602006 5.2082e-15)
(-0.000608449 0.00054419 6.02614e-15)
(-0.000603868 0.000491932 -1.20506e-14)
(-0.000596885 0.000449392 1.32337e-14)
(-0.000581728 0.000404913 -5.32302e-15)
(-0.000559173 0.000358464 6.24317e-15)
(-0.000530644 0.000311248 -2.04346e-14)
(-0.000497662 0.000264871 -4.15905e-15)
(-0.000460143 0.000220021 1.63927e-14)
(-0.000418441 0.000177661 -8.85985e-15)
(-0.000375731 0.00013925 -9.26887e-15)
(-0.000336377 0.00010657 4.5119e-15)
(-0.000299436 7.92506e-05 5.42227e-15)
(-0.000263702 5.65077e-05 2.961e-15)
(-0.000230067 3.79558e-05 -1.93824e-15)
(-0.000198934 2.31346e-05 3.07008e-16)
(-0.000170374 1.11635e-05 -4.69399e-18)
(-0.000143857 1.68258e-06 2.61494e-15)
(-0.000119034 -5.19418e-06 -2.93304e-15)
(-9.5244e-05 -9.05826e-06 -5.29897e-15)
(-7.66815e-05 -1.07537e-05 1.26587e-15)
(-6.12839e-05 -1.00427e-05 3.90244e-15)
(-0.000598091 0.000576175 -5.35646e-15)
(-0.000659235 0.000590756 1.10032e-14)
(-0.000568354 0.000527948 6.59021e-15)
(-0.000566193 0.000472077 -2.65259e-14)
(-0.000561765 0.000430563 -2.28028e-14)
(-0.000550315 0.000391259 -1.4243e-14)
(-0.000531407 0.00034882 7.72135e-15)
(-0.000506405 0.000305101 2.19082e-14)
(-0.000476715 0.000261446 -1.47485e-14)
(-0.000442428 0.000218749 -2.40154e-15)
(-0.000403651 0.00017776 8.56066e-15)
(-0.000363741 0.000140356 -1.64333e-15)
(-0.000327143 0.00010835 -3.97243e-16)
(-0.000292664 8.14994e-05 1.02536e-15)
(-0.000259018 5.89262e-05 4.47299e-15)
(-0.000227055 4.03516e-05 -9.29148e-16)
(-0.000197151 2.5298e-05 -1.29712e-15)
(-0.000169459 1.31395e-05 -6.0789e-16)
(-0.000143631 3.46553e-06 2.95446e-16)
(-0.000119423 -3.63256e-06 1.68742e-15)
(-9.6196e-05 -7.87508e-06 2.66712e-15)
(-7.76374e-05 -9.76311e-06 3.22058e-15)
(-6.24324e-05 -9.20796e-06 -2.95873e-15)
(-0.000506729 0.000517354 -4.89271e-14)
(-0.000643598 0.000553475 -2.74736e-14)
(-0.000546179 0.000506616 2.30846e-15)
(-0.000539409 0.000456571 -2.4396e-15)
(-0.000533033 0.000413041 -2.05872e-15)
(-0.000522473 0.000376475 1.24863e-14)
(-0.000505617 0.000337969 -6.07518e-16)
(-0.000483099 0.000297439 -4.07986e-15)
(-0.000456073 0.000256569 -3.41493e-15)
(-0.000424442 0.000216054 2.5929e-15)
(-0.000388277 0.000176627 5.31922e-15)
(-0.000351009 0.000140389 4.45312e-15)
(-0.000317095 0.000109299 4.04537e-15)
(-0.00028511 8.30714e-05 1.85928e-15)
(-0.000253548 6.08553e-05 2.0843e-15)
(-0.000223323 4.23946e-05 4.18795e-16)
(-0.000194742 2.72751e-05 6.2784e-17)
(-0.000168013 1.50065e-05 1.51242e-16)
(-0.000142952 5.22956e-06 1.15796e-15)
(-0.000119431 -2.03315e-06 1.64796e-15)
(-9.68173e-05 -6.53175e-06 -5.45408e-15)
(-7.83158e-05 -8.61348e-06 -6.10609e-15)
(-6.34297e-05 -8.08081e-06 4.56767e-15)
(-0.000544931 0.000485826 -1.14939e-15)
(-0.000582836 0.000498661 7.55136e-15)
(-0.00050338 0.000440044 1.89316e-14)
(-0.000502137 0.000394712 -6.15963e-15)
(-0.000494039 0.000360007 1.12601e-14)
(-0.000479997 0.00032589 9.20103e-15)
(-0.000459936 0.000288612 3.00024e-15)
(-0.000435371 0.000250524 2.19204e-15)
(-0.000406139 0.000212176 -8.58996e-15)
(-0.000372411 0.000174458 -5.37116e-15)
(-0.000337695 0.0001395 2.94072e-15)
(-0.000306399 0.000109483 1.29135e-15)
(-0.000276913 8.40404e-05 -7.01362e-15)
(-0.000247475 6.2331e-05 -6.37169e-15)
(-0.000219019 4.4105e-05 1.99227e-15)
(-0.00019182 2.90421e-05 -5.44612e-16)
(-0.000166167 1.67619e-05 5.68267e-16)
(-0.000141963 6.94395e-06 -3.30941e-15)
(-0.00011917 -4.11851e-07 1.19341e-15)
(-9.72497e-05 -5.10597e-06 7.32474e-15)
(-7.89069e-05 -7.29323e-06 -1.84378e-15)
(-6.443e-05 -6.8321e-06 -1.93609e-15)
(-0.000494409 0.000446127 -3.76467e-15)
(-0.000563012 0.000465543 -1.31361e-14)
(-0.000472198 0.000419138 -3.14373e-14)
(-0.000471766 0.000377759 9.35615e-15)
(-0.000465581 0.000344299 -1.00188e-14)
(-0.000453866 0.000312977 6.19513e-15)
(-0.000436316 0.000278824 -1.53615e-14)
(-0.000414118 0.000243426 -7.6662e-15)
(-0.000387359 0.000207234 2.24713e-14)
(-0.000356063 0.000171228 -1.27672e-14)
(-0.000323817 0.000137686 -5.46935e-15)
(-0.00029517 0.000108876 -2.14978e-15)
(-0.000268141 8.43775e-05 -2.08612e-15)
(-0.000240867 6.3305e-05 5.63849e-15)
(-0.00021417 4.54468e-05 2.07324e-15)
(-0.000188391 3.05441e-05 1.10454e-15)
(-0.000163865 1.83434e-05 -1.25201e-16)
(-0.000140574 8.54798e-06 2.38694e-15)
(-0.000118557 1.17989e-06 -2.25968e-15)
(-9.73732e-05 -3.66231e-06 -6.7344e-15)
(-7.92312e-05 -5.87584e-06 9.94883e-16)
(-6.52565e-05 -5.52669e-06 4.69164e-15)
(-0.000420352 0.000400009 4.88679e-15)
(-0.000546218 0.000432989 1.70096e-14)
(-0.000455345 0.000400899 9.48068e-15)
(-0.000450514 0.000364555 -6.35273e-15)
(-0.000442266 0.000329566 -3.23407e-15)
(-0.000430892 0.00029999 -1.42279e-14)
(-0.000414293 0.000268622 1.93725e-14)
(-0.000393819 0.000235436 3.88055e-15)
(-0.000368878 0.000201311 -1.06812e-16)
(-0.00033974 0.000167044 1.62665e-14)
(-0.000309791 0.000135061 2.06294e-15)
(-0.000283667 0.000107612 -1.30663e-15)
(-0.000258953 8.41585e-05 -9.60954e-16)
(-0.000233777 6.38382e-05 1.37415e-15)
(-0.000208856 4.64495e-05 3.33646e-17)
(-0.000184541 3.18228e-05 -5.76741e-16)
(-0.000161177 1.97743e-05 -4.83035e-16)
(-0.000138869 1.00699e-05 -7.15455e-18)
(-0.000117704 2.73661e-06 -1.6608e-15)
(-9.73191e-05 -2.17441e-06 -5.98142e-15)
(-7.94743e-05 -4.38961e-06 -5.35846e-15)
(-6.60613e-05 -4.12378e-06 -7.04608e-15)
(-0.000451818 0.000376688 -6.84366e-15)
(-0.000497975 0.000393116 1.57144e-15)
(-0.000420844 0.000351945 2.1048e-14)
(-0.000417003 0.000314635 -8.36235e-15)
(-0.000406974 0.000285663 -7.5279e-16)
(-0.000392407 0.000257375 8.66862e-15)
(-0.000373578 0.000226449 -1.70559e-15)
(-0.000350495 0.000194356 -4.53729e-15)
(-0.000323269 0.000161994 2.17047e-15)
(-0.000295591 0.000131687 -7.98867e-16)
(-0.00027182 0.000105718 -5.80703e-15)
(-0.00024939 8.34154e-05 2.84012e-15)
(-0.000226231 6.39327e-05 -3.32388e-16)
(-0.000203046 4.70938e-05 -6.63434e-16)
(-0.000180193 3.28252e-05 -1.36011e-16)
(-0.000158043 2.10018e-05 -1.76158e-16)
(-0.000136771 1.14467e-05 -1.08899e-15)
(-0.000116491 4.19216e-06 2.76748e-15)
(-9.69333e-05 -7.38298e-07 1.09639e-14)
(-7.94104e-05 -2.93319e-06 8.82237e-15)
(-6.66939e-05 -2.72859e-06 5.98925e-15)
(-0.000410393 0.000346561 2.11774e-14)
(-0.000480444 0.000365871 -1.00532e-15)
(-0.000395789 0.000334318 -1.74772e-14)
(-0.000392099 0.000300415 1.16339e-14)
(-0.00038317 0.000272089 1.87899e-14)
(-0.000370224 0.000245115 -8.30655e-15)
(-0.00035327 0.000216462 3.49568e-15)
(-0.000331882 0.000186403 -8.37408e-16)
(-0.000306664 0.000156128 -1.86062e-14)
(-0.000281158 0.000127668 4.53546e-15)
(-0.00025971 0.000103265 5.09633e-15)
(-0.000239488 8.22177e-05 -8.0111e-16)
(-0.000218318 6.36393e-05 3.20715e-16)
(-0.000196864 4.7447e-05 -9.76439e-16)
(-0.000175491 3.36105e-05 -1.23042e-15)
(-0.000154598 2.20764e-05 2.87817e-16)
(-0.000134401 1.27191e-05 -4.77713e-16)
(-0.000115059 5.58865e-06 1.8556e-15)
(-9.64072e-05 6.88508e-07 -4.54214e-15)
(-7.92954e-05 -1.45193e-06 -7.76102e-15)
(-6.73069e-05 -1.28606e-06 4.83818e-17)