/*--------------------------------*- C++ -*----------------------------------*\
| =========                 |                                                 |
| \\      /  F ield         | OpenFOAM: The Open Source CFD Toolbox           |
|  \\    /   O peration     | Version:  2506                                  |
|   \\  /    A nd           | Website:  www.openfoam.com                      |
|    \\/     M anipulation  |                                                 |
\*---------------------------------------------------------------------------*/
FoamFile
{
    version     2.0;
    format      ascii;
    arch        "LSB;label=32;scalar=64";
    class       volScalarField;
    location    "300";
    object      nuTilda;
}
// * * * * * * * * * * * * * * * * * * * * * * * * * * * * * * * * * * * * * //

dimensions      [0 2 -1 0 0 0 0];

internalField   nonuniform List<scalar> 
1340
(
4.15985e-05
4.34426e-05
4.72932e-05
5.28985e-05
6.05867e-05
7.10514e-05
8.55525e-05
0.000105891
0.00013505
0.000177786
0.000242178
0.000342336
0.000503107
0.000773666
0.00124189
0.00211709
0.00376895
0.00732595
0.014719
0.0324678
0.0663087
0.0934599
0.105019
0.108428
0.10937
0.109466
0.10897
0.107969
3.97057e-05
3.99134e-05
3.97966e-05
3.9529e-05
3.91566e-05
3.86935e-05
3.81514e-05
3.75299e-05
3.67955e-05
3.59243e-05
3.48276e-05
3.34378e-05
3.15607e-05
2.8973e-05
2.51729e-05
1.98026e-05
1.18091e-05
4.7871e-06
7.5781e-06
0.000115431
0.000540759
0.00415473
0.0141115
0.0287144
0.0437217
0.0550574
0.0618206
0.0656029
0.0680011
4.01371e-05
4.01113e-05
4.012e-05
4.01476e-05
4.01837e-05
4.02278e-05
4.02816e-05
4.03416e-05
4.04091e-05
4.04834e-05
4.05674e-05
4.06632e-05
4.07771e-05
4.09147e-05
4.10899e-05
4.13123e-05
4.16239e-05
4.19508e-05
4.23863e-05
4.19229e-05
4.20751e-05
3.13499e-05
0.0001076
0.000790558
0.0030165
0.00754015
0.0142501
0.0224327
0.0311535
4.00607e-05
4.00631e-05
4.00648e-05
4.00609e-05
4.00559e-05
4.00494e-05
4.00425e-05
4.00361e-05
4.00297e-05
4.00235e-05
4.00171e-05
4.00102e-05
4.00028e-05
3.99934e-05
3.99839e-05
3.99739e-05
3.99632e-05
3.99505e-05
3.99388e-05
3.99261e-05
3.99305e-05
3.9917e-05
4.00272e-05
3.9873e-05
3.97782e-05
3.83493e-05
3.60828e-05
0.000233001
0.00104648
0.00303984
4.00772e-05
4.00733e-05
4.00698e-05
4.00678e-05
4.00673e-05
4.00673e-05
4.00671e-05
4.00678e-05
4.00688e-05
4.00705e-05
4.00728e-05
4.00757e-05
4.00791e-05
4.00831e-05
4.00877e-05
4.00928e-05
4.00985e-05
4.01048e-05
4.01118e-05
4.01209e-05
4.01289e-05
4.01533e-05
4.01158e-05
4.03773e-05
3.92941e-05
4.43723e-05
2.15222e-05
6.27261e-05
0.000253255
9.28937e-05
4.00719e-05
4.00714e-05
4.00688e-05
4.00666e-05
4.00648e-05
4.00637e-05
4.00628e-05
4.00619e-05
4.00615e-05
4.00612e-05
4.00611e-05
4.00612e-05
4.00614e-05
4.00618e-05
4.00622e-05
4.00627e-05
4.00631e-05
4.00634e-05
4.00635e-05
4.00628e-05
4.00627e-05
4.00633e-05
4.0064e-05
4.00674e-05
4.00666e-05
4.00832e-05
4.00469e-05
4.02002e-05
3.89101e-05
3.61333e-05
3.00215e-05
4.00704e-05
4.00703e-05
4.0068e-05
4.00659e-05
4.00642e-05
4.00633e-05
4.00626e-05
4.00622e-05
4.0062e-05
4.00621e-05
4.0062e-05
4.00621e-05
4.00624e-05
4.00628e-05
4.00634e-05
4.00642e-05
4.00651e-05
4.00662e-05
4.00675e-05
4.00689e-05
4.00707e-05
4.00731e-05
4.00762e-05
4.00801e-05
4.00849e-05
4.0091e-05
4.0099e-05
4.01174e-05
4.02456e-05
3.944e-05
3.38352e-05
4.00682e-05
4.00685e-05
4.00668e-05
4.00649e-05
4.00634e-05
4.00626e-05
4.0062e-05
4.00617e-05
4.00615e-05
4.00617e-05
4.00618e-05
4.00621e-05
4.00622e-05
4.00622e-05
4.00623e-05
4.00625e-05
4.00628e-05
4.0063e-05
4.00633e-05
4.00636e-05
4.00638e-05
4.00641e-05
4.00646e-05
4.0065e-05
4.00655e-05
4.00657e-05
4.00667e-05
4.00622e-05
4.00828e-05
3.99988e-05
4.02332e-05
4.0064e-05
4.00668e-05
4.00673e-05
4.0066e-05
4.00642e-05
4.00629e-05
4.00621e-05
4.00616e-05
4.00614e-05
4.00613e-05
4.00614e-05
4.00616e-05
4.00619e-05
4.00621e-05
4.00624e-05
4.00625e-05
4.00625e-05
4.00627e-05
4.00629e-05
4.00632e-05
4.00635e-05
4.00639e-05
4.00646e-05
4.00655e-05
4.00667e-05
4.00683e-05
4.00703e-05
4.00728e-05
4.00756e-05
4.0081e-05
4.0081e-05
4.01347e-05
4.00656e-05
4.00663e-05
4.00652e-05
4.00636e-05
4.00625e-05
4.00617e-05
4.00615e-05
4.00612e-05
4.0061e-05
4.00611e-05
4.00612e-05
4.00615e-05
4.00618e-05
4.00622e-05
4.00625e-05
4.00627e-05
4.00629e-05
4.00631e-05
4.00631e-05
4.00631e-05
4.00632e-05
4.00634e-05
4.00637e-05
4.00642e-05
4.00648e-05
4.00656e-05
4.00664e-05
4.00677e-05
4.00671e-05
4.0077e-05
4.00392e-05
4.00654e-05
4.00646e-05
4.00631e-05
4.00621e-05
4.00615e-05
4.00612e-05
4.00609e-05
4.00607e-05
4.00607e-05
4.00608e-05
4.00611e-05
4.00614e-05
4.00618e-05
4.00621e-05
4.00624e-05
4.00627e-05
4.0063e-05
4.00632e-05
4.00634e-05
4.00635e-05
4.00636e-05
4.00639e-05
4.00643e-05
4.00649e-05
4.00657e-05
4.00666e-05
4.00682e-05
4.00682e-05
4.00766e-05
4.00481e-05
4.0064e-05
4.00626e-05
4.00617e-05
4.00612e-05
4.00609e-05
4.00606e-05
4.00604e-05
4.00604e-05
4.00604e-05
4.00606e-05
4.00609e-05
4.00612e-05
4.00616e-05
4.0062e-05
4.00624e-05
4.00628e-05
4.00631e-05
4.00634e-05
4.00637e-05
4.00638e-05
4.00639e-05
4.0064e-05
4.00643e-05
4.00648e-05
4.00653e-05
4.00661e-05
4.00666e-05
4.00695e-05
4.0063e-05
4.00622e-05
4.00614e-05
4.00609e-05
4.00606e-05
4.00603e-05
4.00601e-05
4.006e-05
4.006e-05
4.00601e-05
4.00604e-05
4.00607e-05
4.00611e-05
4.00615e-05
4.0062e-05
4.00624e-05
4.00628e-05
4.00632e-05
4.00636e-05
4.00638e-05
4.0064e-05
4.0064e-05
4.00642e-05
4.00645e-05
4.00649e-05
4.00655e-05
4.00662e-05
4.00669e-05
4.00689e-05
4.00611e-05
4.00606e-05
4.00603e-05
4.006e-05
4.00597e-05
4.00596e-05
4.00595e-05
4.00597e-05
4.00599e-05
4.00602e-05
4.00606e-05
4.00611e-05
4.00615e-05
4.0062e-05
4.00625e-05
4.00629e-05
4.00633e-05
4.00637e-05
4.00639e-05
4.0064e-05
4.00641e-05
4.00642e-05
4.00644e-05
4.00648e-05
4.00654e-05
4.00658e-05
4.00677e-05
4.00602e-05
4.00599e-05
4.00597e-05
4.00594e-05
4.00592e-05
4.00592e-05
4.00593e-05
4.00594e-05
4.00597e-05
4.00601e-05
4.00605e-05
4.0061e-05
4.00615e-05
4.0062e-05
4.00625e-05
4.0063e-05
4.00634e-05
4.00638e-05
4.0064e-05
4.00641e-05
4.00641e-05
4.00642e-05
4.00645e-05
4.00649e-05
4.00653e-05
4.00662e-05
4.00599e-05
4.00596e-05
4.00593e-05
4.0059e-05
4.00589e-05
4.00588e-05
4.00589e-05
4.0059e-05
4.00593e-05
4.00597e-05
4.00601e-05
4.00605e-05
4.00611e-05
4.00616e-05
4.00621e-05
4.00627e-05
4.00631e-05
4.00635e-05
4.00638e-05
4.00641e-05
4.00642e-05
4.00642e-05
4.00643e-05
4.00645e-05
4.00648e-05
4.00653e-05
4.00593e-05
4.0059e-05
4.00587e-05
4.00585e-05
4.00585e-05
4.00585e-05
4.00587e-05
4.00589e-05
4.00592e-05
4.00596e-05
4.00601e-05
4.00606e-05
4.00612e-05
4.00617e-05
4.00623e-05
4.00628e-05
4.00632e-05
4.00636e-05
4.00639e-05
4.00641e-05
4.00642e-05
4.00642e-05
4.00643e-05
4.00645e-05
4.00648e-05
4.00589e-05
4.00587e-05
4.00584e-05
4.00582e-05
4.00581e-05
4.00582e-05
4.00583e-05
4.00586e-05
4.00589e-05
4.00592e-05
4.00597e-05
4.00602e-05
4.00607e-05
4.00613e-05
4.00619e-05
4.00624e-05
4.00629e-05
4.00633e-05
4.00637e-05
4.00639e-05
4.00641e-05
4.00642e-05
4.00643e-05
4.00643e-05
4.00646e-05
4.00583e-05
4.00581e-05
4.00579e-05
4.00579e-05
4.00579e-05
4.0058e-05
4.00582e-05
4.00585e-05
4.00589e-05
4.00593e-05
4.00598e-05
4.00603e-05
4.00609e-05
4.00615e-05
4.0062e-05
4.00625e-05
4.0063e-05
4.00634e-05
4.00637e-05
4.0064e-05
4.00642e-05
4.00643e-05
4.00643e-05
4.00644e-05
4.0058e-05
4.00578e-05
4.00577e-05
4.00576e-05
4.00576e-05
4.00578e-05
4.00579e-05
4.00582e-05
4.00585e-05
4.00589e-05
4.00594e-05
4.00599e-05
4.00605e-05
4.00611e-05
4.00616e-05
4.00621e-05
4.00626e-05
4.0063e-05
4.00634e-05
4.00638e-05
4.0064e-05
4.00642e-05
4.00643e-05
4.00643e-05
4.00577e-05
4.00575e-05
4.00574e-05
4.00574e-05
4.00574e-05
4.00575e-05
4.00577e-05
4.00579e-05
4.00582e-05
4.00586e-05
4.0059e-05
4.00595e-05
4.00601e-05
4.00606e-05
4.00612e-05
4.00617e-05
4.00622e-05
4.00626e-05
4.00631e-05
4.00635e-05
4.00638e-05
4.0064e-05
4.00642e-05
4.00642e-05
4.00573e-05
4.00572e-05
4.00571e-05
4.00572e-05
4.00573e-05
4.00574e-05
4.00576e-05
4.00579e-05
4.00582e-05
4.00586e-05
4.00591e-05
4.00596e-05
4.00602e-05
4.00607e-05
4.00612e-05
4.00618e-05
4.00623e-05
4.00627e-05
4.00632e-05
4.00635e-05
4.00638e-05
4.00641e-05
4.00642e-05
4.0057e-05
4.00569e-05
4.00569e-05
4.00569e-05
4.0057e-05
4.00571e-05
4.00573e-05
4.00576e-05
4.00579e-05
4.00583e-05
4.00587e-05
4.00592e-05
4.00598e-05
4.00603e-05
4.00608e-05
4.00613e-05
4.00618e-05
4.00623e-05
4.00628e-05
4.00632e-05
4.00636e-05
4.00639e-05
4.00641e-05
4.00567e-05
4.00566e-05
4.00567e-05
4.00567e-05
4.00568e-05
4.0057e-05
4.00572e-05
4.00575e-05
4.00579e-05
4.00583e-05
4.00588e-05
4.00593e-05
4.00598e-05
4.00603e-05
4.00609e-05
4.00614e-05
4.00619e-05
4.00624e-05
4.00628e-05
4.00633e-05
4.00636e-05
4.00639e-05
4.00564e-05
4.00563e-05
4.00564e-05
4.00564e-05
4.00565e-05
4.00567e-05
4.00569e-05
4.00572e-05
4.00575e-05
4.00579e-05
4.00584e-05
4.00589e-05
4.00594e-05
4.00599e-05
4.00604e-05
4.00609e-05
4.00614e-05
4.0062e-05
4.00625e-05
4.00629e-05
4.00633e-05
4.00637e-05
4.00561e-05
4.00561e-05
4.00561e-05
4.00561e-05
4.00563e-05
4.00564e-05
4.00566e-05
4.00569e-05
4.00572e-05
4.00576e-05
4.0058e-05
4.00585e-05
4.00589e-05
4.00594e-05
4.00599e-05
4.00604e-05
4.0061e-05
4.00615e-05
4.0062e-05
4.00625e-05
4.0063e-05
4.00634e-05
4.00558e-05
4.00558e-05
4.00558e-05
4.00559e-05
4.00561e-05
4.00563e-05
4.00565e-05
4.00568e-05
4.00572e-05
4.00576e-05
4.0058e-05
4.00585e-05
4.00589e-05
4.00594e-05
4.006e-05
4.00605e-05
4.0061e-05
4.00616e-05
4.00621e-05
4.00626e-05
4.0063e-05
4.00554e-05
4.00555e-05
4.00555e-05
4.00556e-05
4.00557e-05
4.00559e-05
4.00561e-05
4.00564e-05
4.00568e-05
4.00571e-05
4.00576e-05
4.0058e-05
4.00585e-05
4.00589e-05
4.00594e-05
4.006e-05
4.00605e-05
4.00611e-05
4.00616e-05
4.00622e-05
4.00626e-05
4.00551e-05
4.00551e-05
4.00552e-05
4.00553e-05
4.00554e-05
4.00556e-05
4.00558e-05
4.0056e-05
4.00563e-05
4.00567e-05
4.00571e-05
4.00575e-05
4.0058e-05
4.00584e-05
4.00589e-05
4.00595e-05
4.006e-05
4.00606e-05
4.00611e-05
4.00617e-05
4.00622e-05
4.00548e-05
4.00548e-05
4.00549e-05
4.0055e-05
4.00552e-05
4.00554e-05
4.00556e-05
4.00559e-05
4.00563e-05
4.00566e-05
4.0057e-05
4.00574e-05
4.00579e-05
4.00584e-05
4.00589e-05
4.00595e-05
4.006e-05
4.00606e-05
4.00612e-05
4.00617e-05
4.00544e-05
4.00544e-05
4.00545e-05
4.00546e-05
4.00548e-05
4.00549e-05
4.00552e-05
4.00554e-05
4.00558e-05
4.00561e-05
4.00565e-05
4.00569e-05
4.00573e-05
4.00578e-05
4.00583e-05
4.00589e-05
4.00594e-05
4.006e-05
4.00606e-05
4.00612e-05
4.0054e-05
4.00541e-05
4.00542e-05
4.00543e-05
4.00545e-05
4.00547e-05
4.0055e-05
4.00553e-05
4.00556e-05
4.00559e-05
4.00563e-05
4.00567e-05
4.00572e-05
4.00577e-05
4.00582e-05
4.00588e-05
4.00594e-05
4.006e-05
4.00606e-05
4.00536e-05
4.00536e-05
4.00537e-05
4.00539e-05
4.0054e-05
4.00542e-05
4.00544e-05
4.00547e-05
4.0055e-05
4.00554e-05
4.00557e-05
4.00561e-05
4.00565e-05
4.0057e-05
4.00575e-05
4.00581e-05
4.00587e-05
4.00593e-05
4.00599e-05
4.00531e-05
4.00531e-05
4.00532e-05
4.00533e-05
4.00535e-05
4.00536e-05
4.00539e-05
4.00541e-05
4.00544e-05
4.00547e-05
4.0055e-05
4.00554e-05
4.00558e-05
4.00563e-05
4.00568e-05
4.00574e-05
4.0058e-05
4.00586e-05
4.00592e-05
4.00526e-05
4.00527e-05
4.00527e-05
4.00529e-05
4.0053e-05
4.00532e-05
4.00535e-05
4.00537e-05
4.0054e-05
4.00543e-05
4.00547e-05
4.00551e-05
4.00555e-05
4.0056e-05
4.00565e-05
4.00571e-05
4.00577e-05
4.00584e-05
4.0052e-05
4.0052e-05
4.00521e-05
4.00522e-05
4.00523e-05
4.00525e-05
4.00527e-05
4.0053e-05
4.00532e-05
4.00535e-05
4.00539e-05
4.00542e-05
4.00547e-05
4.00551e-05
4.00557e-05
4.00562e-05
4.00568e-05
4.00575e-05
4.00513e-05
4.00513e-05
4.00514e-05
4.00515e-05
4.00516e-05
4.00518e-05
4.00519e-05
4.00522e-05
4.00524e-05
4.00527e-05
4.0053e-05
4.00533e-05
4.00537e-05
4.00542e-05
4.00547e-05
4.00552e-05
4.00558e-05
4.00565e-05
4.00506e-05
4.00506e-05
4.00507e-05
4.00508e-05
4.00509e-05
4.0051e-05
4.00512e-05
4.00514e-05
4.00517e-05
4.0052e-05
4.00523e-05
4.00527e-05
4.00531e-05
4.00536e-05
4.00541e-05
4.00547e-05
4.00554e-05
4.00497e-05
4.00497e-05
4.00498e-05
4.00498e-05
4.00499e-05
4.00501e-05
4.00502e-05
4.00504e-05
4.00506e-05
4.00509e-05
4.00512e-05
4.00515e-05
4.00519e-05
4.00524e-05
4.00529e-05
4.00535e-05
4.00487e-05
4.00487e-05
4.00487e-05
4.00488e-05
4.00489e-05
4.0049e-05
4.00491e-05
4.00492e-05
4.00494e-05
4.00497e-05
4.00499e-05
4.00503e-05
4.00506e-05
4.00511e-05
4.00516e-05
4.00521e-05
4.00476e-05
4.00476e-05
4.00476e-05
4.00477e-05
4.00478e-05
4.00479e-05
4.0048e-05
4.00481e-05
4.00483e-05
4.00486e-05
4.00489e-05
4.00492e-05
4.00497e-05
4.00501e-05
4.00507e-05
4.00464e-05
4.00464e-05
4.00464e-05
4.00464e-05
4.00464e-05
4.00465e-05
4.00466e-05
4.00467e-05
4.00469e-05
4.00471e-05
4.00474e-05
4.00478e-05
4.00481e-05
4.00486e-05
4.00491e-05
4.00451e-05
4.0045e-05
4.0045e-05
4.0045e-05
4.0045e-05
4.0045e-05
4.00451e-05
4.00452e-05
4.00454e-05
4.00456e-05
4.00458e-05
4.00462e-05
4.00465e-05
4.00469e-05
4.00474e-05
4.00435e-05
4.00435e-05
4.00435e-05
4.00435e-05
4.00435e-05
4.00435e-05
4.00436e-05
4.00438e-05
4.0044e-05
4.00442e-05
4.00445e-05
4.00448e-05
4.00452e-05
4.00457e-05
4.0042e-05
4.00419e-05
4.00419e-05
4.00419e-05
4.00419e-05
4.00419e-05
4.0042e-05
4.00421e-05
4.00423e-05
4.00425e-05
4.00428e-05
4.00431e-05
4.00435e-05
4.00439e-05
4.00403e-05
4.00403e-05
4.00402e-05
4.00402e-05
4.00402e-05
4.00402e-05
4.00403e-05
4.00404e-05
4.00406e-05
4.00408e-05
4.0041e-05
4.00413e-05
4.00417e-05
4.00421e-05
4.00386e-05
4.00385e-05
4.00385e-05
4.00385e-05
4.00385e-05
4.00386e-05
4.00387e-05
4.00388e-05
4.0039e-05
4.00393e-05
4.00396e-05
4.00399e-05
4.00404e-05
4.00369e-05
4.00368e-05
4.00368e-05
4.00368e-05
4.00368e-05
4.00369e-05
4.0037e-05
4.00371e-05
4.00373e-05
4.00376e-05
4.00379e-05
4.00382e-05
4.00386e-05
4.00351e-05
4.00351e-05
4.00351e-05
4.00351e-05
4.00351e-05
4.00352e-05
4.00353e-05
4.00354e-05
4.00356e-05
4.00359e-05
4.00362e-05
4.00365e-05
4.00369e-05
4.00334e-05
4.00334e-05
4.00334e-05
4.00334e-05
4.00334e-05
4.00335e-05
4.00336e-05
4.00337e-05
4.00339e-05
4.00342e-05
4.00344e-05
4.00348e-05
4.00352e-05
4.00317e-05
4.00316e-05
4.00316e-05
4.00317e-05
4.00317e-05
4.00318e-05
4.0032e-05
4.00321e-05
4.00324e-05
4.00326e-05
4.00329e-05
4.00333e-05
4.00298e-05
4.00298e-05
4.00298e-05
4.00298e-05
4.00298e-05
4.00299e-05
4.003e-05
4.00302e-05
4.00303e-05
4.00306e-05
4.00309e-05
4.00312e-05
4.00279e-05
4.00278e-05
4.00277e-05
4.00277e-05
4.00277e-05
4.00277e-05
4.00277e-05
4.00278e-05
4.0028e-05
4.00282e-05
4.00285e-05
4.00256e-05
4.00254e-05
4.00253e-05
4.00252e-05
4.00251e-05
4.00251e-05
4.00251e-05
4.00251e-05
4.00252e-05
4.00254e-05
4.00256e-05
4.00227e-05
4.00225e-05
4.00223e-05
4.00221e-05
4.0022e-05
4.00219e-05
4.00219e-05
4.00219e-05
4.0022e-05
4.00221e-05
4.00196e-05
4.00193e-05
4.0019e-05
4.00188e-05
4.00186e-05
4.00184e-05
4.00183e-05
4.00183e-05
4.00183e-05
4.00184e-05
4.00163e-05
4.00159e-05
4.00155e-05
4.00152e-05
4.0015e-05
4.00148e-05
4.00147e-05
4.00146e-05
4.00145e-05
4.00145e-05
4.00129e-05
4.00125e-05
4.00122e-05
4.00119e-05
4.00116e-05
4.00114e-05
4.00113e-05
4.00112e-05
4.00111e-05
4.00111e-05
4.001e-05
4.00097e-05
4.00094e-05
4.00092e-05
4.0009e-05
4.00088e-05
4.00087e-05
4.00086e-05
4.00086e-05
4.00085e-05
4.00078e-05
4.00077e-05
4.00076e-05
4.00075e-05
4.00075e-05
4.00075e-05
4.00074e-05
4.00074e-05
4.00075e-05
4.00074e-05
4.00075e-05
4.00076e-05
4.00078e-05
4.00079e-05
4.0008e-05
4.00082e-05
4.00083e-05
4.00084e-05
4.00087e-05
4.00091e-05
4.00094e-05
4.00098e-05
4.00101e-05
4.00104e-05
4.00107e-05
4.0011e-05
4.00115e-05
4.00121e-05
4.00127e-05
4.00132e-05
4.00137e-05
4.00142e-05
4.00147e-05
4.00151e-05
4.00155e-05
4.00164e-05
4.00172e-05
4.0018e-05
4.00187e-05
4.00193e-05
4.002e-05
4.00205e-05
4.00206e-05
4.00217e-05
4.00228e-05
4.00238e-05
4.00247e-05
4.00255e-05
4.00263e-05
4.0027e-05
4.00279e-05
4.00291e-05
4.00303e-05
4.00313e-05
4.00323e-05
4.00332e-05
4.00341e-05
4.00345e-05
4.00358e-05
4.00371e-05
4.00382e-05
4.00393e-05
4.00404e-05
4.00413e-05
4.004e-05
4.00414e-05
4.00427e-05
4.0044e-05
4.00451e-05
4.00462e-05
4.00473e-05
4.00441e-05
4.00455e-05
4.00468e-05
4.00481e-05
4.00492e-05
4.00503e-05
4.00514e-05
4.00476e-05
4.00489e-05
4.00502e-05
4.00514e-05
4.00525e-05
4.00536e-05
4.00547e-05
4.00504e-05
4.00517e-05
4.00528e-05
4.0054e-05
4.00551e-05
4.00561e-05
4.00572e-05
4.00526e-05
4.00538e-05
4.0055e-05
4.00561e-05
4.00573e-05
4.00584e-05
4.0055e-05
4.00564e-05
4.00578e-05
4.00592e-05
4.00605e-05
4.00619e-05
4.00594e-05
4.00613e-05
4.00632e-05
4.0065e-05
4.00668e-05
4.00686e-05
4.00695e-05
4.0072e-05
4.00744e-05
4.00767e-05
4.00791e-05
4.00782e-05
4.00807e-05
4.00832e-05
4.00856e-05
4.0088e-05
4.00786e-05
4.00803e-05
4.00819e-05
4.00835e-05
4.0085e-05
4.00652e-05
4.00665e-05
4.0068e-05
4.00696e-05
4.00712e-05
4.00598e-05
4.00645e-05
4.00695e-05
4.00746e-05
4.00799e-05
4.0064e-05
4.00674e-05
4.00706e-05
4.00736e-05
4.00764e-05
)
;

boundaryField
{
    inlet
    {
        type            freestream;
        freestreamValue uniform 4e-05;
        value           uniform 4e-05;
    }
    outlet
    {
        type            freestream;
        freestreamValue nonuniform List<scalar> 0();
        value           nonuniform List<scalar> 0();
    }
    walls
    {
        type            fixedValue;
        value           uniform 0;
    }
    frontAndBack
    {
        type            empty;
    }
    procBoundary1to0
    {
        type            processor;
        value           nonuniform List<scalar> 
94
(
4.0063e-05
4.0063e-05
4.00647e-05
4.00647e-05
4.00647e-05
4.00647e-05
4.00634e-05
4.00634e-05
4.00618e-05
4.00618e-05
4.00608e-05
4.00608e-05
4.00604e-05
4.00596e-05
4.00596e-05
4.00593e-05
4.00586e-05
4.00586e-05
4.00583e-05
4.0058e-05
4.00575e-05
4.00575e-05
4.00572e-05
4.00567e-05
4.00567e-05
4.00565e-05
4.00562e-05
4.00558e-05
4.00558e-05
4.00555e-05
4.00551e-05
4.00547e-05
4.00547e-05
4.00544e-05
4.0054e-05
4.0054e-05
4.00535e-05
4.0053e-05
4.00525e-05
4.00525e-05
4.00519e-05
4.00513e-05
4.00505e-05
4.00505e-05
4.00497e-05
4.00487e-05
4.00476e-05
4.00476e-05
4.00464e-05
4.00451e-05
4.00436e-05
4.00436e-05
4.00421e-05
4.00404e-05
4.00387e-05
4.00387e-05
4.00369e-05
4.00352e-05
4.00335e-05
4.00317e-05
4.00317e-05
4.00299e-05
4.0028e-05
4.00258e-05
4.0023e-05
4.0023e-05
4.002e-05
4.00167e-05
4.00133e-05
4.00104e-05
4.0008e-05
4.0008e-05
4.00073e-05
4.00084e-05
4.00109e-05
4.00146e-05
4.00195e-05
4.00266e-05
4.00266e-05
4.0033e-05
4.00385e-05
4.00426e-05
4.00462e-05
4.00491e-05
4.00513e-05
4.00536e-05
4.00576e-05
4.00671e-05
4.00671e-05
4.00756e-05
4.00768e-05
4.00639e-05
4.00554e-05
4.00604e-05
)
;
    }
    procBoundary1to2
    {
        type            processor;
        value           nonuniform List<scalar> 
84
(
0.106572
0.0699917
0.0395968
0.00689293
0.000313604
7.78773e-05
1.83677e-05
3.7963e-05
4.02743e-05
4.02015e-05
4.01789e-05
4.00954e-05
4.00653e-05
4.0064e-05
4.00659e-05
4.0066e-05
4.00654e-05
4.00649e-05
4.00646e-05
4.00645e-05
4.00643e-05
4.00643e-05
4.00642e-05
4.00641e-05
4.00639e-05
4.00637e-05
4.00634e-05
4.00631e-05
4.00627e-05
4.00622e-05
4.00617e-05
4.00612e-05
4.00606e-05
4.00598e-05
4.0059e-05
4.00582e-05
4.00572e-05
4.0056e-05
4.00541e-05
4.00541e-05
4.00528e-05
4.00513e-05
4.00497e-05
4.0048e-05
4.00463e-05
4.00445e-05
4.00426e-05
4.00408e-05
4.00391e-05
4.00374e-05
4.00356e-05
4.00337e-05
4.00316e-05
4.00288e-05
4.00288e-05
4.00258e-05
4.00223e-05
4.00185e-05
4.00146e-05
4.00111e-05
4.00085e-05
4.00075e-05
4.00085e-05
4.00112e-05
4.00112e-05
4.00154e-05
4.0021e-05
4.00276e-05
4.00348e-05
4.00422e-05
4.00482e-05
4.00524e-05
4.00557e-05
4.00582e-05
4.00595e-05
4.00595e-05
4.00632e-05
4.00704e-05
4.00814e-05
4.00903e-05
4.00864e-05
4.0073e-05
4.00854e-05
4.00789e-05
)
;
    }
    procBoundary1to5
    {
        type            processor;
        value           nonuniform List<scalar> 
13
(
4.36783e-05
4.36783e-05
3.94562e-05
4.01698e-05
4.01698e-05
4.00569e-05
4.00794e-05
4.00794e-05
4.00687e-05
4.00673e-05
4.00652e-05
4.00652e-05
4.00651e-05
)
;
    }
}


// ************************************************************************* //
