/*--------------------------------*- C++ -*----------------------------------*\
| =========                 |                                                 |
| \\      /  F ield         | OpenFOAM: The Open Source CFD Toolbox           |
|  \\    /   O peration     | Version:  2506                                  |
|   \\  /    A nd           | Website:  www.openfoam.com                      |
|    \\/     M anipulation  |                                                 |
\*---------------------------------------------------------------------------*/
FoamFile
{
    version     2.0;
    format      ascii;
    arch        "LSB;label=32;scalar=64";
    class       volScalarField;
    location    "300";
    object      turbulenceProperties:I;
}
// * * * * * * * * * * * * * * * * * * * * * * * * * * * * * * * * * * * * * //

dimensions      [0 0 0 0 0 0 0];

internalField   nonuniform List<scalar> 
1340
(
0.0169986
0.0134933
0.00874656
0.00732306
0.00706357
0.00731402
0.00787068
0.00865652
0.00966558
0.0109374
0.0125659
0.0146956
0.0175296
0.0214014
0.0267165
0.0344026
0.0453539
0.0627031
0.0884315
0.130964
0.186814
0.221531
0.234696
0.238638
0.240293
0.241517
0.242566
0.243552
0.00583152
0.0071561
0.00638677
0.00446998
0.00313764
0.002343
0.00183805
0.00149028
0.0012356
0.00104052
0.00088469
0.000756404
0.000645212
0.000542958
0.000438706
0.000325471
0.000185338
7.26088e-05
0.00011277
0.00129816
0.00295626
0.00829862
0.0151177
0.0210797
0.0257795
0.0293916
0.0322542
0.0347417
0.0371125
0.00405527
0.00446474
0.00424795
0.00349978
0.00272301
0.0021233
0.00168642
0.00136418
0.00112274
0.000938132
0.000796335
0.000687241
0.000604426
0.000541396
0.000494126
0.000459284
0.000434803
0.000416892
0.00040632
0.000396894
0.00040279
0.000306706
0.000796892
0.00202924
0.00340283
0.00491124
0.00734687
0.0106599
0.0142944
0.00268392
0.00299073
0.00316919
0.00308277
0.00273251
0.0022916
0.00189407
0.00157522
0.00132704
0.00113432
0.000982914
0.00086313
0.00076743
0.000690518
0.000627453
0.00057529
0.000531033
0.000491975
0.000454142
0.000417927
0.000387962
0.00036484
0.000347677
0.000328763
0.000305516
0.000263716
0.000209047
0.000578086
0.000761311
0.00145412
0.00216709
0.00233679
0.00242988
0.00238913
0.00220601
0.00194579
0.00167771
0.00143659
0.00123128
0.00106018
0.000918343
0.00080094
0.000703872
0.00062382
0.000557592
0.00050277
0.000456901
0.000417592
0.000381189
0.000345858
0.000313562
0.00028716
0.00026794
0.000258177
0.000246276
0.000270867
0.000131435
0.000335061
0.00072916
0.000386714
0.00167229
0.00179417
0.00189742
0.00195267
0.00193066
0.00182505
0.0016635
0.00148192
0.00130527
0.00114549
0.00100635
0.000887554
0.000787173
0.000702896
0.000632363
0.000573177
0.000523176
0.000480153
0.000441916
0.000405684
0.000370144
0.000337022
0.000307858
0.000282872
0.000261396
0.000243099
0.000227079
0.000212182
0.000189248
0.000159771
0.000119811
0.00143476
0.00151694
0.00158488
0.00162045
0.00160728
0.00154218
0.00143774
0.00131279
0.0011831
0.00105865
0.00094457
0.000842735
0.000753212
0.000675371
0.000608164
0.00055022
0.000500183
0.000456541
0.000417608
0.000381209
0.000346027
0.000313045
0.00028357
0.000257961
0.000235854
0.000217203
0.000202699
0.00019302
0.000187572
0.000180337
0.000153861
0.00124697
0.00130456
0.00135168
0.00137594
0.0013676
0.00132531
0.0012551
0.00116734
0.00107176
0.000975652
0.000883809
0.000798879
0.000721958
0.000653442
0.000593091
0.000540206
0.000493843
0.000452861
0.000415891
0.000381252
0.000347937
0.000316654
0.000288374
0.000263275
0.00024085
0.00022066
0.000202615
0.000186483
0.000172013
0.000158934
0.000149172
0.00104972
0.00109557
0.00113747
0.00117141
0.00118865
0.00118319
0.00115454
0.00110583
0.00104298
0.000971984
0.000897803
0.000824234
0.000753775
0.00068792
0.000627502
0.000572807
0.000523699
0.000479727
0.00044016
0.000404013
0.000370098
0.000337663
0.000307124
0.000279309
0.000254483
0.000232326
0.000212538
0.000195136
0.000180438
0.00016881
0.000160588
0.00015615
0.000971502
0.00100291
0.00102804
0.00104065
0.00103702
0.00101696
0.000982234
0.000936395
0.000883132
0.000825724
0.000767018
0.000709085
0.000653357
0.0006009
0.00055226
0.000507651
0.000466966
0.00042979
0.000395458
0.000363165
0.000332344
0.000303303
0.000276702
0.000252772
0.000231236
0.000211772
0.000194286
0.000178804
0.000165295
0.000154251
0.000146065
0.000892387
0.00091142
0.000920846
0.000918402
0.000903993
0.000878638
0.000844602
0.000804232
0.000759669
0.000712877
0.000665452
0.00061861
0.000573353
0.000530378
0.000490071
0.000452537
0.000417636
0.000384982
0.000354062
0.000324535
0.00029665
0.000270923
0.000247597
0.000226506
0.000207425
0.000190322
0.000175337
0.000162689
0.000152898
0.00014625
0.000814757
0.000821945
0.000820271
0.000809655
0.00079078
0.000765126
0.000734212
0.000699397
0.000662077
0.000623381
0.000584231
0.000545509
0.000507864
0.000471797
0.000437574
0.000405224
0.000374545
0.000345262
0.000317255
0.000290731
0.000266114
0.000243635
0.000223194
0.000204614
0.000187842
0.000172979
0.000160129
0.000149747
0.000142325
0.000738949
0.000737772
0.000729806
0.000715505
0.000695875
0.000671941
0.000644606
0.000614758
0.000583198
0.000550604
0.000517667
0.000484949
0.000452927
0.000421937
0.000392122
0.00036345
0.000335842
0.000309316
0.000284097
0.00026053
0.000238843
0.000219003
0.000200887
0.000184476
0.000169898
0.000157323
0.00014721
0.000140049
0.000667486
0.00066139
0.000650372
0.000635165
0.00061646
0.000594832
0.000570902
0.000545169
0.00051809
0.000490192
0.000461928
0.000433707
0.000405855
0.000378594
0.000352005
0.000326162
0.00030119
0.000277323
0.000254876
0.000234062
0.000214895
0.000197305
0.000181286
0.000166967
0.000154491
0.000144288
0.000136855
0.00060217
0.000593564
0.000581624
0.000566853
0.000549633
0.000530353
0.000509349
0.000486895
0.000463342
0.000439029
0.000414291
0.00038944
0.000364708
0.00034023
0.00031615
0.000292711
0.000270193
0.000248869
0.000228941
0.00021046
0.000193403
0.000177784
0.000163744
0.000151438
0.000141293
0.000133785
0.000550438
0.000543616
0.000534145
0.000522377
0.000508557
0.000492962
0.000475761
0.000457135
0.000437294
0.000416466
0.000394901
0.000372851
0.000350544
0.000328141
0.000305858
0.000283984
0.000262826
0.00024264
0.000223625
0.000205862
0.000189365
0.000174168
0.000160414
0.000148257
0.000138105
0.00013042
0.000499427
0.000491817
0.000482343
0.000471181
0.000458491
0.000444377
0.000428907
0.000412215
0.000394422
0.000375704
0.000356249
0.000336242
0.000315854
0.000295332
0.000275011
0.000255198
0.000236153
0.000218066
0.000201039
0.000185118
0.000170355
0.000156895
0.000144896
0.000134754
0.000126914
0.000460079
0.000453903
0.00044621
0.000437117
0.000426735
0.000415103
0.000402235
0.00038819
0.00037302
0.000356819
0.000339727
0.000321891
0.000303455
0.000284648
0.000265826
0.000247346
0.000229443
0.000212296
0.000196022
0.000180693
0.000166377
0.000153217
0.000141375
0.000131228
0.000123204
0.000419791
0.000413485
0.000406021
0.000397471
0.000387846
0.000377115
0.000365284
0.000352361
0.000338385
0.000323421
0.000307571
0.000290958
0.000273814
0.000256486
0.000239314
0.000222537
0.000206328
0.000190814
0.000176085
0.000162223
0.000149368
0.000137685
0.000127526
0.000119307
0.000388976
0.000383754
0.000377581
0.000370497
0.000362489
0.000353512
0.000343537
0.000332525
0.000320475
0.000307416
0.000293397
0.000278495
0.000262926
0.000247027
0.000231124
0.000215452
0.000200176
0.000185428
0.000171309
0.000157909
0.000145362
0.000133837
0.000123657
0.000115224
0.000361034
0.000356671
0.000351522
0.000345614
0.000338917
0.000331375
0.000322943
0.000313559
0.000303182
0.000291797
0.000279427
0.000266119
0.000252037
0.000237491
0.000222809
0.000208218
0.000193867
0.000179884
0.000166377
0.000153443
0.000141206
0.000129835
0.000119623
0.000110958
0.00033194
0.000327605
0.000322637
0.000317007
0.000310645
0.000303493
0.00029548
0.000286542
0.000276637
0.000265745
0.000253881
0.00024118
0.000227927
0.000214423
0.000200875
0.000187427
0.0001742
0.000161303
0.000148835
0.00013691
0.00012569
0.000115432
0.000106516
0.000309291
0.000305614
0.000301411
0.000296642
0.000291246
0.000285162
0.000278304
0.000270597
0.000261979
0.000252404
0.000241854
0.000230434
0.00021839
0.000206002
0.000193453
0.000180881
0.000168398
0.000156108
0.000144106
0.000132494
0.000121419
0.000111103
0.000101912
0.000285364
0.000281773
0.000277709
0.00027311
0.000267912
0.000262027
0.000255372
0.000247874
0.000239463
0.000230097
0.000219845
0.000208922
0.000197577
0.000185988
0.000174263
0.000162506
0.000150816
0.000139277
0.000127976
0.000117043
0.000106658
9.7163e-05
0.000266684
0.000263596
0.000260106
0.000256162
0.000251699
0.000246633
0.000240873
0.000234339
0.000226948
0.000218642
0.000209456
0.000199572
0.000189205
0.000178521
0.000167607
0.000156557
0.000145453
0.000134371
0.000123381
0.000112587
0.000102124
9.22921e-05
0.00024943
0.00024675
0.000243735
0.000240331
0.000236478
0.000232098
0.000227103
0.000221401
0.000214901
0.00020753
0.000199302
0.000190367
0.000180917
0.000171081
0.000160942
0.000150573
0.000140043
0.000129415
0.000118736
0.000108079
9.75289e-05
8.73298e-05
0.000231127
0.0002285
0.000225544
0.000222204
0.0002184
0.000214049
0.000209063
0.000203343
0.000196801
0.000189438
0.000181368
0.000172758
0.000163718
0.000154311
0.000144595
0.000134624
0.000124443
0.000114075
0.000103558
9.29189e-05
8.23185e-05
0.000216629
0.000214323
0.000211739
0.000208823
0.000205504
0.000201702
0.000197327
0.000192283
0.000186473
0.000179881
0.000172596
0.000164759
0.000156458
0.000147742
0.000138651
0.000129225
0.000119485
0.000109433
9.90683e-05
8.83457e-05
7.73159e-05
0.000203161
0.000201123
0.000198848
0.000196288
0.000193379
0.000190042
0.000186195
0.000181736
0.000176568
0.000170662
0.000164083
0.000156953
0.000149338
0.000141273
0.00013278
0.000123881
0.000114581
0.000104853
9.46556e-05
8.38686e-05
7.23971e-05
0.000188827
0.000186811
0.000184553
0.000181989
0.000179049
0.000175652
0.000171701
0.000167096
0.000161799
0.00015586
0.000149372
0.000142393
0.000134936
0.000127013
0.000118626
0.000109764
0.000100374
9.03714e-05
7.9562e-05
6.7669e-05
0.000177372
0.000175575
0.000173569
0.000171298
0.000168696
0.000165687
0.000162178
0.000158067
0.000153309
0.000147944
0.000142043
0.000135649
0.000128763
0.000121382
0.000113495
0.000105072
9.60402e-05
8.62745e-05
7.55095e-05
6.32697e-05
0.000165085
0.000163294
0.000161273
0.000158962
0.000156288
0.000153161
0.000149484
0.000145206
0.000140353
0.000134987
0.000129132
0.00012278
0.000115917
0.00010852
0.000100543
9.18932e-05
8.2418e-05
7.17953e-05
5.93686e-05
0.000155292
0.000153686
0.000151879
0.000149817
0.00014743
0.000144637
0.000141343
0.000137492
0.000133102
0.00012822
0.000122863
0.000117013
0.000110647
0.00010373
9.62062e-05
8.79711e-05
7.88535e-05
6.8504e-05
5.61522e-05
0.000146151
0.000144702
0.000143081
0.000141235
0.000139102
0.000136601
0.000133641
0.000130169
0.000126196
0.000121757
0.000116861
0.000111483
0.000105594
9.9149e-05
9.20895e-05
8.43056e-05
7.56216e-05
6.56973e-05
5.37715e-05
0.000136308
0.000134847
0.000133188
0.000131275
0.00012903
0.000126371
0.000123239
0.000119641
0.000115607
0.000111138
0.000106205
0.000100773
9.47983e-05
8.82143e-05
8.09186e-05
7.27472e-05
6.34051e-05
5.22778e-05
0.000128464
0.000127144
0.000125651
0.000123931
0.000121914
0.000119519
0.000116693
0.000113436
0.000109774
0.000105702
0.000101189
9.62005e-05
9.06883e-05
8.45913e-05
7.78171e-05
7.023e-05
6.16092e-05
5.15781e-05
0.000121136
0.000119941
0.000118595
0.000117046
0.000115231
0.000113074
0.000110523
0.000107579
0.000104258
0.000100556
9.64416e-05
9.18797e-05
8.68245e-05
8.1223e-05
7.49974e-05
6.80497e-05
6.02498e-05
5.14695e-05
0.000113209
0.000111992
0.000110597
0.000108964
0.000107021
0.000104719
0.000102058
9.90538e-05
9.56983e-05
9.19623e-05
8.78113e-05
8.32067e-05
7.81021e-05
7.24415e-05
6.61661e-05
5.9233e-05
5.17123e-05
0.000106916
0.000105817
0.000104561
0.00010309
0.00010134
9.92675e-05
9.68676e-05
9.41554e-05
9.11236e-05
8.77452e-05
8.39895e-05
7.9824e-05
7.52122e-05
7.01191e-05
6.45236e-05
5.84518e-05
0.000101036
0.000100043
9.89111e-05
9.75892e-05
9.60164e-05
9.41512e-05
9.19917e-05
8.95505e-05
8.68219e-05
8.37818e-05
8.04039e-05
7.66619e-05
7.25314e-05
6.7995e-05
6.30616e-05
5.7805e-05
9.46447e-05
9.36261e-05
9.24389e-05
9.1027e-05
8.93527e-05
8.74146e-05
8.52258e-05
8.27803e-05
8.00584e-05
7.70384e-05
7.37013e-05
7.00319e-05
6.60285e-05
6.17206e-05
5.7207e-05
8.95962e-05
8.86811e-05
8.7617e-05
8.63532e-05
8.48545e-05
8.31207e-05
8.11648e-05
7.89828e-05
7.65586e-05
7.38755e-05
7.09203e-05
6.76859e-05
6.41814e-05
6.04489e-05
5.65939e-05
8.48724e-05
8.40537e-05
8.31029e-05
8.19738e-05
8.0636e-05
7.90907e-05
7.73505e-05
7.54133e-05
7.32658e-05
7.08962e-05
6.8296e-05
6.54652e-05
6.24189e-05
5.92041e-05
5.59218e-05
7.97211e-05
7.88726e-05
7.78679e-05
7.66788e-05
7.53067e-05
7.3765e-05
7.2053e-05
7.01607e-05
6.808e-05
6.58066e-05
6.33442e-05
6.07118e-05
5.79552e-05
5.51645e-05
7.56606e-05
7.49081e-05
7.40171e-05
7.29637e-05
7.17504e-05
7.03903e-05
6.88846e-05
6.72262e-05
6.54093e-05
6.34324e-05
6.13022e-05
5.90379e-05
5.66816e-05
5.43093e-05
7.1854e-05
7.11879e-05
7.04004e-05
6.94712e-05
6.84034e-05
6.72094e-05
6.58917e-05
6.44451e-05
6.28665e-05
6.11562e-05
5.93216e-05
5.73813e-05
5.53714e-05
5.33534e-05
6.7694e-05
6.70017e-05
6.61853e-05
6.52495e-05
6.42061e-05
6.30581e-05
6.18023e-05
6.04372e-05
5.89639e-05
5.73899e-05
5.5732e-05
5.40197e-05
5.23014e-05
6.44093e-05
6.38031e-05
6.30894e-05
6.2273e-05
6.13654e-05
6.03698e-05
5.92845e-05
5.81087e-05
5.68444e-05
5.54983e-05
5.40845e-05
5.26265e-05
5.11614e-05
6.13175e-05
6.07895e-05
6.01686e-05
5.94594e-05
5.86732e-05
5.78135e-05
5.68792e-05
5.58701e-05
5.47886e-05
5.36403e-05
5.24363e-05
5.1195e-05
4.99437e-05
5.84039e-05
5.79459e-05
5.74079e-05
5.67946e-05
5.61166e-05
5.53771e-05
5.45754e-05
5.37122e-05
5.27892e-05
5.18113e-05
5.07869e-05
4.97297e-05
4.86593e-05
5.52579e-05
5.4794e-05
5.42657e-05
5.36825e-05
5.30481e-05
5.23624e-05
5.16256e-05
5.08393e-05
5.00073e-05
4.9136e-05
4.82348e-05
4.73178e-05
5.27112e-05
5.23119e-05
5.18578e-05
5.13576e-05
5.08147e-05
5.0229e-05
4.96007e-05
4.89315e-05
4.8224e-05
4.74825e-05
4.67136e-05
4.59268e-05
5.02904e-05
4.99472e-05
4.9557e-05
4.91282e-05
4.86635e-05
4.81633e-05
4.76278e-05
4.70581e-05
4.6456e-05
4.58245e-05
4.51678e-05
4.79799e-05
4.76841e-05
4.73482e-05
4.698e-05
4.65819e-05
4.61541e-05
4.56972e-05
4.52117e-05
4.46988e-05
4.41602e-05
4.35986e-05
4.55082e-05
4.52181e-05
4.49009e-05
4.45588e-05
4.41923e-05
4.38017e-05
4.33875e-05
4.295e-05
4.24903e-05
4.20094e-05
4.34088e-05
4.31571e-05
4.28829e-05
4.25884e-05
4.22739e-05
4.19398e-05
4.15859e-05
4.12125e-05
4.08198e-05
4.04079e-05
4.13809e-05
4.11622e-05
4.09251e-05
4.06718e-05
4.04022e-05
4.01165e-05
3.98144e-05
3.9496e-05
3.91606e-05
3.88079e-05
3.94274e-05
3.92383e-05
3.90344e-05
3.88174e-05
3.85871e-05
3.83435e-05
3.80864e-05
3.78153e-05
3.75293e-05
3.72275e-05
3.75569e-05
3.73952e-05
3.72211e-05
3.70364e-05
3.68406e-05
3.66337e-05
3.64153e-05
3.61846e-05
3.59408e-05
3.56827e-05
3.56393e-05
3.54913e-05
3.53342e-05
3.51678e-05
3.49916e-05
3.48055e-05
3.46086e-05
3.44002e-05
3.41789e-05
3.39661e-05
3.38387e-05
3.37031e-05
3.35593e-05
3.34073e-05
3.32467e-05
3.3077e-05
3.28973e-05
3.27064e-05
3.23564e-05
3.2242e-05
3.21207e-05
3.19926e-05
3.18578e-05
3.17161e-05
3.15672e-05
3.14102e-05
3.07826e-05
3.06744e-05
3.05609e-05
3.04422e-05
3.03189e-05
3.01909e-05
3.00576e-05
2.99186e-05
2.92255e-05
2.91186e-05
2.90083e-05
2.88951e-05
2.87795e-05
2.86611e-05
2.85398e-05
2.84152e-05
2.76853e-05
2.75777e-05
2.74687e-05
2.73589e-05
2.72487e-05
2.71377e-05
2.70261e-05
2.69136e-05
2.607e-05
2.59614e-05
2.58536e-05
2.5747e-05
2.56415e-05
2.55376e-05
2.54346e-05
2.46406e-05
2.45314e-05
2.44244e-05
2.43196e-05
2.4218e-05
2.41196e-05
2.40236e-05
2.34106e-05
2.33001e-05
2.3192e-05
2.30868e-05
2.29858e-05
2.28883e-05
2.27951e-05
2.23848e-05
2.22744e-05
2.21654e-05
2.20594e-05
2.19565e-05
2.18575e-05
2.17635e-05
2.14196e-05
2.13105e-05
2.12023e-05
2.10958e-05
2.09914e-05
2.08908e-05
2.07945e-05
2.04566e-05
2.03466e-05
2.02364e-05
2.01266e-05
2.00191e-05
1.99156e-05
1.98163e-05
1.95184e-05
1.94009e-05
1.928e-05
1.91571e-05
1.90352e-05
1.89164e-05
1.85596e-05
1.84266e-05
1.82883e-05
1.81465e-05
1.80035e-05
1.78609e-05
1.74205e-05
1.72252e-05
1.70236e-05
1.68211e-05
1.66235e-05
1.64356e-05
1.57402e-05
1.54211e-05
1.50801e-05
1.47233e-05
1.43582e-05
1.39621e-05
1.3602e-05
1.32617e-05
1.2957e-05
1.27043e-05
1.38786e-05
1.36479e-05
1.3471e-05
1.33462e-05
1.3268e-05
1.8797e-05
1.9481e-05
2.0124e-05
2.07165e-05
2.12504e-05
2.89558e-05
2.91996e-05
2.9391e-05
2.95324e-05
2.96313e-05
4.03742e-05
4.06317e-05
4.08199e-05
4.09433e-05
4.10143e-05
)
;

boundaryField
{
    inlet
    {
        type            calculated;
        value           nonuniform List<scalar> 5(7.09854e-05 7.1964e-05 7.28336e-05 7.35997e-05 7.42671e-05);
    }
    outlet
    {
        type            calculated;
        value           nonuniform List<scalar> 0();
    }
    walls
    {
        type            calculated;
        value           uniform 0;
    }
    frontAndBack
    {
        type            empty;
    }
    procBoundary1to0
    {
        type            processor;
        value           nonuniform List<scalar> 
94
(
0.000936862
0.000936862
0.000868282
0.000868282
0.000800085
0.000800085
0.000733389
0.000733389
0.000668346
0.000668346
0.000606919
0.000606919
0.000554202
0.000504903
0.000504903
0.000464536
0.000424865
0.000424865
0.000393187
0.000364574
0.000335625
0.000335625
0.000312435
0.000288517
0.000288517
0.000269406
0.000251807
0.000233475
0.000233475
0.000218698
0.000205
0.000190642
0.000190642
0.000179001
0.000166696
0.000166696
0.000156744
0.000147468
0.000137617
0.000137617
0.000129652
0.000122217
0.000114291
0.000114291
0.000107898
0.000101927
9.55397e-05
9.55397e-05
9.04033e-05
8.55982e-05
8.04531e-05
8.04531e-05
7.63122e-05
7.24315e-05
6.82805e-05
6.82805e-05
6.49232e-05
6.17658e-05
5.8793e-05
5.5653e-05
5.5653e-05
5.30514e-05
5.05826e-05
4.82317e-05
4.57643e-05
4.57643e-05
4.36317e-05
4.15754e-05
3.95966e-05
3.77022e-05
3.57769e-05
3.57769e-05
3.40845e-05
3.24626e-05
3.08839e-05
2.9327e-05
2.77891e-05
2.61789e-05
2.61789e-05
2.47514e-05
2.35235e-05
2.24964e-05
2.15281e-05
2.05651e-05
1.96313e-05
1.86859e-05
1.76035e-05
1.60328e-05
1.60328e-05
1.43295e-05
1.4159e-05
1.80652e-05
2.86704e-05
4.00387e-05
)
;
    }
    procBoundary1to2
    {
        type            processor;
        value           nonuniform List<scalar> 
84
(
0.244662
0.0396021
0.0179008
0.00339691
0.000703706
0.000254746
8.50073e-05
0.000137324
0.000158006
0.000145174
0.000146267
0.000141066
0.000138542
0.000134816
0.000131373
0.000127542
0.000123584
0.000119398
0.00011502
0.00011044
0.000105665
0.000100695
9.55361e-05
9.01969e-05
8.4683e-05
7.90064e-05
7.31829e-05
6.72371e-05
6.12109e-05
5.51894e-05
4.93443e-05
4.40385e-05
3.99494e-05
3.79225e-05
3.81794e-05
3.9922e-05
4.21756e-05
4.43656e-05
5.20965e-05
5.20965e-05
5.24703e-05
5.27371e-05
5.28433e-05
5.27643e-05
5.24952e-05
5.2043e-05
5.14211e-05
5.06469e-05
4.97401e-05
4.87189e-05
4.76012e-05
4.64018e-05
4.51322e-05
4.44916e-05
4.44916e-05
4.30168e-05
4.15086e-05
3.99768e-05
3.8437e-05
3.69087e-05
3.54087e-05
3.39429e-05
3.25024e-05
3.1244e-05
3.1244e-05
2.97728e-05
2.82863e-05
2.67989e-05
2.53317e-05
2.39304e-05
2.27061e-05
2.16738e-05
2.07023e-05
1.97218e-05
1.88024e-05
1.88024e-05
1.77208e-05
1.62619e-05
1.39937e-05
1.25169e-05
1.32218e-05
2.17177e-05
2.96989e-05
4.10439e-05
)
;
    }
    procBoundary1to5
    {
        type            processor;
        value           nonuniform List<scalar> 
13
(
0.0101789
0.0101789
0.00439617
0.00342209
0.00342209
0.00237204
0.00197604
0.00197604
0.00155013
0.0013488
0.00118504
0.00118504
0.00100278
)
;
    }
}


// ************************************************************************* //
