/*--------------------------------*- C++ -*----------------------------------*\
| =========                 |                                                 |
| \\      /  F ield         | OpenFOAM: The Open Source CFD Toolbox           |
|  \\    /   O peration     | Version:  2506                                  |
|   \\  /    A nd           | Website:  www.openfoam.com                      |
|    \\/     M anipulation  |                                                 |
\*---------------------------------------------------------------------------*/
FoamFile
{
    version     2.0;
    format      ascii;
    arch        "LSB;label=32;scalar=64";
    class       volVectorField;
    location    "300";
    object      U;
}
// * * * * * * * * * * * * * * * * * * * * * * * * * * * * * * * * * * * * * //

dimensions      [0 1 -1 0 0 0 0];

internalField   nonuniform List<vector> 
1340
(
(1.36134 2.19209 5.48206e-15)
(3.31939 -0.136143 -1.64672e-15)
(5.54952 -2.15681 5.09131e-16)
(7.84542 -3.6592 1.74208e-15)
(9.96199 -4.62581 2.62348e-15)
(11.8327 -5.18468 8.17364e-16)
(13.4695 -5.46041 -1.38922e-15)
(14.8974 -5.54988 -1.2451e-15)
(16.1475 -5.51612 6.67379e-16)
(17.2504 -5.40674 2.50659e-16)
(18.2384 -5.25067 8.37899e-16)
(19.143 -5.06742 -6.88182e-16)
(19.9857 -4.85977 -1.35774e-16)
(20.7848 -4.62923 -5.97603e-16)
(21.5511 -4.36635 2.95666e-16)
(22.2859 -4.05715 8.09697e-16)
(22.9583 -3.67661 -2.72017e-16)
(23.5007 -3.22481 -3.03891e-16)
(23.8957 -2.7452 -2.95214e-16)
(24.1737 -2.27748 -8.40986e-18)
(24.3709 -1.77826 9.29197e-18)
(24.5025 -1.18103 1.21365e-19)
(24.5688 -0.513014 -3.37745e-18)
(24.5493 0.159843 7.42928e-17)
(24.4294 0.789569 5.55219e-17)
(24.2104 1.35354 1.24716e-16)
(23.9008 1.84534 3.60663e-16)
(23.5008 2.26724 9.71785e-18)
(2.40004 6.04369 -2.71914e-15)
(3.58492 3.44235 -4.60218e-15)
(5.07734 1.14503 3.07651e-15)
(6.84061 -0.755574 -1.62541e-15)
(8.73433 -2.12227 2.21247e-16)
(10.5836 -3.0106 -5.08652e-16)
(12.3067 -3.54853 2.78583e-17)
(13.88 -3.83586 1.4943e-16)
(15.2981 -3.95358 5.0018e-16)
(16.5722 -3.95397 -9.10741e-16)
(17.7191 -3.88145 9.78219e-16)
(18.7622 -3.7611 -2.29219e-16)
(19.726 -3.61079 -4.23879e-16)
(20.6331 -3.42776 -2.95101e-16)
(21.4991 -3.20968 -6.67117e-16)
(22.3363 -2.9392 -7.2972e-16)
(23.1464 -2.59493 -7.91217e-16)
(23.907 -2.13653 3.15474e-16)
(24.566 -1.5714 -2.12191e-17)
(25.0973 -0.963331 1.3505e-16)
(25.5119 -0.336508 9.95442e-17)
(25.804 0.273688 5.91236e-18)
(25.9656 0.821214 -1.20777e-19)
(25.9992 1.28856 2.26434e-18)
(25.9337 1.6839 -4.24996e-17)
(25.7959 2.03003 -1.88559e-17)
(25.596 2.34659 -1.7583e-16)
(25.3351 2.6421 -1.27058e-16)
(25.0038 2.91998 -2.6184e-17)
(4.92649 6.75724 1.24914e-15)
(5.69576 4.40535 1.86456e-15)
(6.78152 2.29969 1.6121e-15)
(8.13611 0.50985 -1.39301e-15)
(9.63366 -0.90335 -1.02401e-15)
(11.1536 -1.96108 2.636e-16)
(12.6243 -2.72461 9.91989e-16)
(14.0104 -3.25201 1.40326e-15)
(15.2951 -3.59385 -2.76323e-16)
(16.4763 -3.79342 -3.25841e-17)
(17.5603 -3.88872 9.4845e-16)
(18.5609 -3.90595 1.80412e-17)
(19.4948 -3.8633 7.18613e-16)
(20.3794 -3.76602 6.42147e-16)
(21.2272 -3.61625 1.49421e-15)
(22.047 -3.40577 1.55681e-15)
(22.8391 -3.12113 6.87431e-16)
(23.5841 -2.74195 1.34735e-16)
(24.2388 -2.28326 -1.24885e-16)
(24.7791 -1.79423 3.59922e-16)
(25.215 -1.29703 -6.98972e-17)
(25.5602 -0.796633 -3.85875e-17)
(25.8202 -0.289527 2.73379e-18)
(25.9952 0.226127 2.93159e-19)
(26.0873 0.750049 1.63249e-17)
(26.0979 1.27187 3.95168e-17)
(26.0268 1.77345 5.61843e-17)
(25.874 2.23917 1.53726e-17)
(25.6298 2.66158 -1.933e-16)
(6.83429 9.38439 7.95544e-16)
(7.03639 7.16295 -9.87428e-16)
(7.53976 5.06138 1.19368e-17)
(8.32224 3.13729 3.43486e-16)
(9.35102 1.45515 2.38337e-15)
(10.5351 0.068232 1.75366e-16)
(11.7899 -1.01766 6.77986e-16)
(13.0556 -1.83434 -1.85385e-15)
(14.2912 -2.42269 -1.14727e-15)
(15.4714 -2.82207 3.44775e-16)
(16.5841 -3.07157 1.98626e-16)
(17.6266 -3.20529 -9.53108e-16)
(18.6029 -3.25031 9.4352e-17)
(19.5228 -3.22632 -2.30348e-16)
(20.3978 -3.14274 5.98498e-16)
(21.2373 -3.00282 -6.30393e-16)
(22.0472 -2.80107 -9.17085e-16)
(22.8269 -2.52625 1.1474e-16)
(23.5597 -2.16085 2.24786e-16)
(24.21 -1.71053 4.36797e-16)
(24.7538 -1.2128 -3.19916e-16)
(25.1959 -0.690718 -4.05409e-17)
(25.5475 -0.155348 1.39596e-17)
(25.8135 0.382823 -4.19769e-18)
(25.9965 0.908756 -2.56158e-18)
(26.1018 1.40663 3.68147e-18)
(26.136 1.86077 -8.53493e-18)
(26.1028 2.26799 -7.66018e-18)
(26.004 2.63139 2.17928e-17)
(25.8298 2.95759 2.00487e-16)
(8.76474 9.35481 -1.15352e-15)
(8.83203 7.39351 3.56788e-15)
(9.15238 5.50727 -2.81266e-15)
(9.71635 3.75846 -1.11568e-17)
(10.4999 2.19934 3.55469e-17)
(11.4383 0.870688 -3.50214e-16)
(12.4686 -0.214433 -5.13846e-16)
(13.5428 -1.07351 -1.03654e-15)
(14.6229 -1.73357 1.2693e-15)
(15.6817 -2.2204 5.41023e-16)
(16.7029 -2.56365 -1.1363e-16)
(17.6783 -2.78964 2.87837e-16)
(18.606 -2.92063 -5.26056e-16)
(19.4901 -2.97329 3.5492e-16)
(20.3373 -2.95742 -3.4328e-16)
(21.1537 -2.87645 3.86428e-16)
(21.9431 -2.72719 3.54961e-16)
(22.7034 -2.5015 -6.26753e-17)
(23.4199 -2.1886 -5.29412e-16)
(24.0622 -1.79455 -1.31592e-16)
(24.607 -1.35123 -4.53926e-17)
(25.0549 -0.88387 1.09919e-16)
(25.4146 -0.405232 1.21672e-18)
(25.6902 0.0753085 -3.12313e-18)
(25.8837 0.54763 1.96117e-17)
(25.9987 1.00352 8.6651e-18)
(26.0407 1.44298 -4.30218e-18)
(26.0135 1.86608 4.67565e-18)
(25.9206 2.2693 6.71368e-18)
(25.7564 2.6496 3.33315e-17)
(10.6429 10.963 -5.54962e-16)
(10.3985 9.25222 1.10135e-15)
(10.3717 7.50326 -9.85729e-16)
(10.5633 5.80287 -8.66168e-16)
(10.9681 4.21329 -9.56069e-16)
(11.5656 2.77355 -9.56912e-16)
(12.31 1.51664 1.47052e-15)
(13.1539 0.459688 -7.14466e-16)
(14.0611 -0.405757 7.96332e-16)
(14.9993 -1.09628 1.526e-16)
(15.9427 -1.62768 -2.40022e-16)
(16.874 -2.02122 -6.6919e-16)
(17.782 -2.29684 -5.29141e-16)
(18.6606 -2.47282 2.90984e-16)
(19.5088 -2.56384 -1.29542e-16)
(20.329 -2.57978 -3.94822e-16)
(21.124 -2.52519 -3.4896e-16)
(21.8948 -2.39922 -2.48134e-16)
(22.638 -2.19621 3.10477e-16)
(23.34 -1.90868 -1.02739e-16)
(23.9745 -1.54104 -2.95042e-16)
(24.5192 -1.11864 3.29101e-16)
(24.9715 -0.664846 2.2069e-17)
(25.3373 -0.192079 2.18462e-18)
(25.6199 0.290669 4.28173e-18)
(25.8208 0.772885 -2.64314e-17)
(25.9434 1.24523 -4.10048e-18)
(25.9925 1.69797 1.25349e-17)
(25.972 2.1212 -5.04639e-18)
(25.8849 2.50887 -2.15086e-17)
(25.7254 2.85939 8.93245e-17)
(12.0714 10.6355 -2.6562e-16)
(11.798 9.10794 1.17416e-16)
(11.7073 7.53457 1.17127e-15)
(11.8066 5.99399 8.68092e-16)
(12.0932 4.5464 3.71365e-16)
(12.5494 3.21985 -9.53399e-16)
(13.1412 2.04141 -4.60077e-16)
(13.8327 1.02843 7.4794e-16)
(14.5964 0.1762 8.09212e-17)
(15.4061 -0.525718 -3.11051e-17)
(16.2392 -1.08669 -5.4344e-16)
(17.0796 -1.52173 4.44917e-16)
(17.915 -1.84521 9.94558e-16)
(18.7369 -2.0708 -5.59275e-16)
(19.541 -2.21009 -6.36527e-17)
(20.3265 -2.27158 -5.74212e-16)
(21.093 -2.25933 -2.90254e-16)
(21.8395 -2.17327 3.04643e-16)
(22.5613 -2.00948 -7.27195e-16)
(23.2457 -1.76324 2.51446e-16)
(23.8695 -1.43881 3.35829e-16)
(24.4116 -1.05706 -1.14008e-16)
(24.8663 -0.639937 -9.70825e-17)
(25.2375 -0.200883 -1.89081e-17)
(25.5274 0.249939 -1.36819e-18)
(25.7371 0.701332 1.93064e-18)
(25.8694 1.14251 -3.99676e-17)
(25.9287 1.56548 6.96906e-17)
(25.9182 1.96673 -7.01434e-18)
(25.8405 2.34269 6.31964e-17)
(25.6895 2.69189 7.59717e-17)
(13.303 10.3149 -3.24626e-18)
(13.0112 8.93905 -1.87332e-16)
(12.8765 7.51327 -1.97387e-15)
(12.9088 6.1111 7.97274e-16)
(13.1062 4.78893 -1.15093e-16)
(13.454 3.56643 1.03507e-15)
(13.9255 2.46658 -5.72818e-16)
(14.4927 1.50566 5.35003e-16)
(15.1345 0.680286 -7.77774e-16)
(15.8305 -0.016436 -5.96556e-16)
(16.5618 -0.589502 3.09837e-16)
(17.3147 -1.0492 3.35158e-16)
(18.0772 -1.40496 3.36463e-16)
(18.84 -1.66615 1.97857e-16)
(19.597 -1.84127 -2.3228e-16)
(20.3446 -1.93708 9.28744e-16)
(21.0803 -1.957 -2.71009e-16)
(21.8008 -1.90141 4.35293e-16)
(22.5005 -1.76761 4.53344e-16)
(23.1669 -1.55284 -1.63886e-18)
(23.7792 -1.26102 -8.82863e-17)
(24.317 -0.90893 -6.994e-17)
(24.7728 -0.516567 1.52108e-17)
(25.148 -0.0975475 1.99315e-17)
(25.4439 0.337805 6.50693e-18)
(25.661 0.778533 1.16419e-17)
(25.8013 1.21413 2.73582e-17)
(25.8684 1.63642 -1.34343e-16)
(25.8653 2.03736 -6.95608e-17)
(25.7943 2.41078 1.23109e-17)
(25.6495 2.75328 -1.53236e-16)
(14.7932 11.176 -4.67307e-16)
(14.3762 10.005 -2.84515e-16)
(14.0736 8.75664 -6.76207e-16)
(13.9085 7.4566 -1.69583e-16)
(13.8917 6.1749 8.67539e-16)
(14.0214 4.96329 6.58048e-16)
(14.2852 3.83587 -1.89536e-16)
(14.6615 2.81203 1.58752e-15)
(15.1274 1.90666 -3.97406e-17)
(15.6666 1.11649 1.16188e-15)
(16.2634 0.436319 4.7036e-16)
(16.9025 -0.136662 -4.24429e-16)
(17.5726 -0.609324 3.8453e-17)
(18.2635 -0.98759 -8.82799e-16)
(18.9657 -1.27737 5.82705e-17)
(19.6725 -1.48424 5.13197e-16)
(20.3787 -1.61289 2.18579e-17)
(21.0799 -1.66575 3.50211e-16)
(21.7713 -1.64302 -4.41374e-16)
(22.4464 -1.54264 -2.83807e-16)
(23.0929 -1.36308 -5.06267e-16)
(23.6915 -1.10791 -3.14369e-16)
(24.223 -0.790902 -2.01724e-17)
(24.6781 -0.430077 -8.78486e-17)
(25.0561 -0.0391244 -1.65477e-18)
(25.3573 0.371263 -6.42257e-18)
(25.5816 0.789948 -1.5785e-18)
(25.7302 1.20604 3.23359e-17)
(25.8061 1.61029 -1.69233e-17)
(25.812 1.99631 1.37846e-16)
(25.7496 2.35831 -3.08163e-16)
(25.613 2.69267 3.53796e-17)
(15.3204 9.70734 -7.70698e-16)
(15.0126 8.56776 2.1721e-15)
(14.8262 7.37631 1.16288e-15)
(14.773 6.20018 4.17655e-16)
(14.8509 5.08628 -1.73165e-15)
(15.0492 4.04492 -9.8475e-16)
(15.3496 3.0929 -1.78531e-15)
(15.7329 2.24358 -1.64154e-15)
(16.1863 1.4931 -3.74916e-16)
(16.6973 0.836918 2.54215e-16)
(17.2539 0.273563 -2.68339e-16)
(17.8475 -0.201978 -3.43058e-16)
(18.4695 -0.592944 3.7092e-16)
(19.1115 -0.90264 -4.94605e-16)
(19.7667 -1.13416 5.42454e-17)
(20.4293 -1.29009 1.94493e-16)
(21.0937 -1.37143 3.94734e-16)
(21.7539 -1.37798 -1.78792e-16)
(22.4027 -1.30794 -1.0011e-16)
(23.028 -1.16029 -8.19341e-17)
(23.6115 -0.938285 2.49335e-16)
(24.1347 -0.65322 -1.22885e-17)
(24.5875 -0.320925 5.51539e-17)
(24.9669 0.0452586 -7.83381e-18)
(25.2723 0.434493 -4.22459e-18)
(25.5028 0.835753 -1.34296e-17)
(25.6588 1.23805 -3.70192e-17)
(25.7428 1.63209 -1.10256e-16)
(25.7568 2.01005 1.97312e-17)
(25.7022 2.36474 3.08467e-16)
(25.5733 2.69135 3.6067e-16)
(15.8485 8.37687 -1.40174e-15)
(15.6476 7.28046 -9.12377e-16)
(15.5674 6.19728 1.09965e-15)
(15.6054 5.17009 1.53301e-15)
(15.7522 4.20656 2.43001e-16)
(15.9918 3.32151 1.06563e-15)
(16.3076 2.52697 1.00176e-15)
(16.6892 1.81831 -6.01347e-16)
(17.1266 1.1909 4.02829e-16)
(17.6103 0.643853 -1.04211e-16)
(18.1341 0.17332 6.91777e-16)
(18.6911 -0.222602 -4.2445e-16)
(19.2745 -0.54514 -6.92162e-16)
(19.8779 -0.795323 -2.40685e-16)
(20.4955 -0.974008 -5.79072e-16)
(21.121 -1.08094 -5.11212e-16)
(21.748 -1.11515 -4.52081e-16)
(22.3687 -1.07459 8.41066e-16)
(22.9712 -0.95841 5.20141e-16)
(23.5379 -0.769434 8.38454e-17)
(24.0511 -0.516823 2.83471e-16)
(24.4996 -0.214437 4.79594e-17)
(24.8791 0.124938 1.29666e-17)
(25.1876 0.490416 -1.42143e-18)
(25.4236 0.871005 -2.48292e-18)
(25.5868 1.25569 2.46493e-17)
(25.6789 1.63463 -3.59225e-18)
(25.7012 2.00001 7.08177e-17)
(25.6549 2.34439 1.53766e-16)
(25.5343 2.66233 -6.55495e-16)
(16.3871 7.17458 7.09296e-17)
(16.2867 6.17378 6.52175e-16)
(16.2939 5.22384 -1.92897e-15)
(16.3999 4.33087 -1.29117e-15)
(16.5905 3.50782 8.64283e-16)
(16.8512 2.76559 1.26312e-15)
(17.1727 2.09894 -6.53974e-16)
(17.5472 1.50309 -9.16362e-17)
(17.967 0.977116 -5.29847e-17)
(18.4277 0.517439 -1.73222e-16)
(18.9245 0.123074 6.3689e-16)
(19.4517 -0.205922 8.75401e-16)
(20.0041 -0.46909 8.1863e-17)
(20.5761 -0.665764 6.24637e-16)
(21.1616 -0.794452 2.16009e-16)
(21.7539 -0.853327 3.37424e-16)
(22.345 -0.839998 -5.25921e-16)
(22.9233 -0.753341 -4.35146e-17)
(23.4717 -0.595529 -2.67285e-16)
(23.973 -0.374001 -3.05835e-16)
(24.4156 -0.100661 -1.14898e-16)
(24.7937 0.212502 2.83649e-17)
(25.1041 0.554736 9.42487e-18)
(25.3447 0.915262 6.15797e-18)
(25.5143 1.2831 1.27012e-18)
(25.6139 1.64823 -3.65787e-17)
(25.6443 2.00228 1.04813e-17)
(25.6062 2.33695 -2.56832e-16)
(25.4939 2.64582 1.72124e-17)
(16.9409 6.1352 -1.71342e-15)
(16.9241 5.25456 4.5099e-16)
(16.9977 4.42544 8.16196e-16)
(17.1487 3.65944 -1.41168e-15)
(17.3639 2.96662 -9.60943e-16)
(17.6353 2.34133 8.58418e-16)
(17.9561 1.77824 1.83632e-16)
(18.3202 1.27616 -5.86242e-16)
(18.7246 0.831665 5.51194e-16)
(19.166 0.444025 -2.8625e-16)
(19.6402 0.114008 9.61198e-16)
(20.1431 -0.157012 2.50449e-16)
(20.6699 -0.367213 -3.40075e-17)
(21.2148 -0.513978 1.30386e-16)
(21.7714 -0.594689 -9.95727e-17)
(22.3317 -0.606443 -6.19582e-17)
(22.8844 -0.547671 -5.91538e-16)
(23.4131 -0.419712 2.63688e-17)
(23.9009 -0.228407 2.20338e-16)
(24.3357 0.0160711 -7.77014e-18)
(24.7109 0.302694 -3.08751e-17)
(25.0221 0.621011 -1.3673e-17)
(25.2663 0.960463 4.01551e-17)
(25.4417 1.31018 -1.96465e-17)
(25.5484 1.65995 1.23868e-16)
(25.5868 2.00108 -3.18805e-16)
(25.557 2.32482 5.41315e-16)
(25.4533 2.62397 3.05745e-16)
(17.5027 5.26733 1.03701e-16)
(17.5503 4.49619 -5.80423e-16)
(17.669 3.78278 5.53698e-17)
(17.8468 3.13635 5.44779e-16)
(18.0762 2.55079 -7.42625e-16)
(18.3512 2.02059 2.06464e-16)
(18.667 1.54409 -5.72634e-17)
(19.0215 1.11768 -3.50369e-16)
(19.4126 0.740641 -5.40299e-16)
(19.8373 0.414073 -4.83794e-16)
(20.2929 0.139813 -2.30632e-16)
(20.7755 -0.0796384 -3.44978e-16)
(21.28 -0.240847 -1.56011e-16)
(21.8002 -0.340425 -2.17074e-16)
(22.3288 -0.374815 8.01509e-17)
(22.8549 -0.341769 4.93717e-16)
(23.3625 -0.241832 7.57638e-17)
(23.835 -0.0794371 9.72134e-17)
(24.2605 0.136919 6.67003e-17)
(24.6312 0.397288 2.45487e-17)
(24.9418 0.69168 6.33827e-18)
(25.1887 1.00986 -3.12242e-17)
(25.3691 1.34117 -2.70307e-17)
(25.4825 1.67531 2.16568e-16)
(25.5285 2.00329 -5.22056e-17)
(25.5069 2.31577 -4.85536e-16)
(25.4121 2.60469 3.684e-16)
(18.062 4.5478 -8.61446e-17)
(18.1544 3.8827 9.54865e-16)
(18.3012 3.27948 -2.59423e-16)
(18.4952 2.73182 2.25334e-16)
(18.7313 2.23393 -1.38141e-16)
(19.0052 1.78381 8.18056e-16)
(19.3156 1.37752 1.80981e-16)
(19.6613 1.01404 -2.6958e-17)
(20.0406 0.694417 5.93737e-16)
(20.4516 0.42068 -3.74926e-16)
(20.8915 0.195766 2.97081e-18)
(21.356 0.0236232 6.33e-16)
(21.8398 -0.0917299 6.43575e-17)
(22.3361 -0.146164 -2.38118e-16)
(22.8346 -0.13673 -2.16878e-16)
(23.32 -0.0630035 1.49769e-16)
(23.7759 0.0718557 2.79043e-18)
(24.1904 0.260892 -2.55299e-17)
(24.5551 0.495287 1.9709e-17)
(24.8639 0.765658 3.60726e-18)
(25.1123 1.06218 -9.9288e-18)
(25.2969 1.37448 9.45866e-17)
(25.4164 1.69225 -1.3024e-16)
(25.4698 2.00624 1.28615e-16)
(25.4563 2.30673 -5.24443e-16)
(25.3705 2.58485 -4.29433e-17)
(18.5366 4.58405 4.06005e-16)
(18.6074 3.96342 6.95939e-16)
(18.7283 3.4004 3.23865e-18)
(18.8928 2.88852 6.80561e-16)
(19.0957 2.42192 4.24013e-17)
(19.3333 1.99813 -1.05135e-15)
(19.6049 1.61297 -1.97446e-16)
(19.91 1.26502 -1.45442e-16)
(20.2477 0.95506 4.05885e-17)
(20.617 0.685034 1.37355e-16)
(21.0162 0.458017 -4.97802e-16)
(21.4419 0.278264 -2.60471e-16)
(21.8896 0.15021 3.6215e-16)
(22.3534 0.078447 3.97636e-16)
(22.8237 0.066557 -2.38702e-16)
(23.2857 0.115979 -1.13422e-17)
(23.7238 0.224869 -3.06849e-16)
(24.1258 0.387627 5.75022e-17)
(24.483 0.596587 1.523e-17)
(24.7887 0.843095 -4.43289e-19)
(25.0374 1.11781 2.41234e-17)
(25.2254 1.41074 -5.68655e-18)
(25.3503 1.71166 1.24809e-16)
(25.4107 2.01115 3.66531e-16)
(25.4052 2.2991 1.10172e-15)
(25.3286 2.56591 3.87318e-17)
(19.0304 4.02806 7.18938e-16)
(19.1299 3.50232 -3.27877e-16)
(19.2693 3.02415 -7.18929e-16)
(19.4438 2.58745 -3.70652e-16)
(19.6501 2.1896 -2.02318e-16)
(19.8878 1.82598 -1.96022e-16)
(20.1567 1.49485 3.29447e-16)
(20.4565 1.1966 -6.7317e-16)
(20.7873 0.932879 1.64359e-16)
(21.1481 0.706678 -4.20003e-16)
(21.5364 0.522247 -3.02336e-16)
(21.9488 0.384292 -1.68115e-16)
(22.3802 0.297791 4.2406e-17)
(22.8219 0.267043 2.81017e-16)
(23.2599 0.294362 3.96231e-17)
(23.6789 0.378971 1.49124e-16)
(24.067 0.51661 5.41995e-17)
(24.4154 0.700794 -7.58377e-17)
(24.7166 0.923682 -7.14938e-18)
(24.9646 1.17652 -1.93776e-17)
(25.155 1.44974 -6.45777e-17)
(25.2847 1.73333 2.6928e-17)
(25.3516 2.01769 -4.52486e-16)
(25.354 2.29253 -5.05682e-16)
(25.2866 2.54751 -2.3511e-16)
(19.4258 4.07943 5.43134e-16)
(19.5072 3.58832 -4.32054e-16)
(19.6254 3.14162 1.35862e-16)
(19.7757 2.73335 3.59669e-16)
(19.955 2.36058 1.07909e-15)
(20.1629 2.01847 -8.57852e-17)
(20.3996 1.70483 1.43354e-16)
(20.6654 1.41968 3.92829e-16)
(20.9608 1.16426 2.24969e-16)
(21.2856 0.941267 7.73934e-16)
(21.6385 0.754878 5.13636e-16)
(22.0166 0.609797 -3.92992e-17)
(22.416 0.511204 -4.43306e-16)
(22.8291 0.4639 3.60294e-17)
(23.2424 0.471139 -1.70952e-16)
(23.6414 0.533254 5.37388e-17)
(24.0145 0.647136 2.68555e-17)
(24.3526 0.807414 -2.976e-17)
(24.648 1.00713 1.76785e-18)
(24.8942 1.23818 1.23549e-17)
(25.086 1.4915 -5.19028e-17)
(25.2197 1.75736 9.61317e-18)
(25.2927 2.02611 5.88761e-17)
(25.3027 2.28731 -1.00199e-16)
(25.2445 2.52999 -6.84892e-16)
(19.8619 3.66059 1.22802e-15)
(19.9621 3.24332 -9.26829e-17)
(20.0916 2.86186 -1.29918e-16)
(20.2474 2.51314 -8.73849e-16)
(20.4293 2.19213 5.285e-16)
(20.6376 1.89622 -4.74793e-16)
(20.8728 1.62506 3.36691e-17)
(21.1359 1.37946 -2.71928e-16)
(21.4274 1.16168 -2.69806e-16)
(21.7467 0.975592 -1.22314e-16)
(22.092 0.825836 -1.41188e-16)
(22.4602 0.717671 1.46632e-16)
(22.8448 0.656248 7.95997e-17)
(23.2332 0.645609 -4.45715e-17)
(23.6114 0.6871 -1.54982e-17)
(23.9684 0.77868 -5.42127e-17)
(24.2951 0.916045 2.28844e-17)
(24.5834 1.09315 7.16726e-18)
(24.8266 1.30262 2.21144e-17)
(25.0188 1.53595 8.03238e-17)
(25.1557 1.78378 -3.27849e-16)
(25.2342 2.03645 -3.48184e-18)
(25.2516 2.28352 3.01603e-16)
(25.2027 2.51348 2.60827e-16)
(20.1952 3.72128 2.16509e-17)
(20.2801 3.33144 -5.67086e-16)
(20.3917 2.97517 1.3768e-16)
(20.5273 2.6493 2.73592e-17)
(20.6864 2.3487 2.41353e-17)
(20.8695 2.07044 2.237e-16)
(21.0774 1.81375 -5.20614e-16)
(21.3113 1.57897 9.15977e-17)
(21.5721 1.36796 -2.6846e-16)
(21.8601 1.18414 -1.34731e-17)
(22.1741 1.03191 3.06897e-16)
(22.5121 0.916418 -1.25577e-16)
(22.8685 0.84317 -4.2001e-17)
(23.2319 0.816863 2.86351e-16)
(23.5888 0.839667 5.1667e-17)
(23.9288 0.910515 -2.62735e-17)
(24.243 1.02611 3.39546e-17)
(24.5232 1.18134 -6.14063e-18)
(24.7622 1.36958 -2.41334e-17)
(24.9538 1.58296 8.78159e-17)
(25.0932 1.81254 -1.03271e-16)
(25.1766 2.04879 1.12413e-16)
(25.201 2.28129 -3.34497e-16)
(25.1613 2.49813 7.48545e-16)
(20.5086 3.77193 -8.67788e-17)
(20.5803 3.40763 5.23422e-16)
(20.6766 3.07496 -4.21429e-16)
(20.7946 2.77072 2.89802e-16)
(20.9338 2.48968 -3.72425e-16)
(21.0947 2.2287 2.89225e-17)
(21.2782 1.98665 -7.20143e-17)
(21.4857 1.76338 2.56688e-16)
(21.7185 1.56025 2.27272e-16)
(21.9773 1.38031 -2.4346e-16)
(22.2618 1.22757 -5.35528e-17)
(22.5709 1.107 3.36524e-16)
(22.8999 1.02414 -8.4517e-17)
(23.2383 0.984243 -7.78299e-17)
(23.5737 0.990279 -1.65632e-16)
(23.896 1.04203 4.77457e-17)
(24.1967 1.13712 -1.23371e-17)
(24.4676 1.27132 1.76759e-18)
(24.7013 1.43884 -3.34982e-17)
(24.8914 1.63241 -5.01912e-17)
(25.0323 1.84364 3.69004e-16)
(25.1201 2.0632 -1.03521e-16)
(25.1511 2.28076 -3.45914e-17)
(25.1205 2.48415 -6.47625e-16)
(20.8637 3.47342 -5.26682e-16)
(20.9467 3.16282 -1.79253e-16)
(21.0494 2.87896 5.34439e-17)
(21.1712 2.61657 5.244e-16)
(21.3126 2.37233 1.80359e-16)
(21.4743 2.14478 2.07422e-16)
(21.6581 1.93336 -5.30512e-16)
(21.8654 1.73899 6.99644e-17)
(22.0973 1.56419 2.70777e-16)
(22.3542 1.41258 -2.01175e-16)
(22.6357 1.28878 5.69558e-17)
(22.9381 1.19834 -1.0628e-17)
(23.2521 1.14692 7.14704e-17)
(23.5658 1.13812 -1.35061e-16)
(23.8699 1.17248 -2.16459e-17)
(24.1564 1.24844 6.29877e-17)
(24.4171 1.36263 1.95209e-18)
(24.6445 1.51003 4.11343e-17)
(24.8319 1.68411 -1.11801e-16)
(24.9736 1.87699 -5.22943e-17)
(25.065 2.07967 -2.41847e-16)
(25.1022 2.28199 1.02967e-16)
(25.0804 2.47168 2.27055e-16)
(21.1311 3.53017 4.48064e-16)
(21.2026 3.24017 5.62495e-16)
(21.2919 2.9754 -1.04681e-16)
(21.3986 2.73065 2.84785e-16)
(21.5227 2.50245 -1.7652e-16)
(21.6652 2.28908 -1.18945e-17)
(21.8277 2.0896 1.02253e-16)
(22.0119 1.90452 6.22858e-17)
(22.2192 1.73586 -3.69189e-17)
(22.4504 1.58677 -1.02674e-16)
(22.7058 1.46146 -1.00245e-16)
(22.9827 1.36536 -1.06216e-16)
(23.2727 1.30438 -1.32305e-16)
(23.5649 1.28266 -9.32568e-17)
(23.8506 1.30132 -3.3938e-17)
(24.1221 1.35957 -1.46311e-17)
(24.3717 1.45483 -2.57558e-18)
(24.5919 1.58286 -3.35323e-17)
(24.7758 1.73786 -4.84684e-17)
(24.9174 1.91254 9.43444e-17)
(25.0117 2.09826 4.36456e-16)
(25.0546 2.28514 -8.33616e-17)
(25.0414 2.46092 -2.26854e-16)
(21.4449 3.30809 -1.03634e-16)
(21.5226 3.0612 -5.37359e-16)
(21.6159 2.83308 1.04392e-16)
(21.7249 2.62016 -2.11322e-16)
(21.8503 2.42052 -7.73434e-17)
(21.9938 2.23291 -2.90912e-16)
(22.1571 2.05744 -7.65119e-18)
(22.3419 1.89564 1.20702e-16)
(22.5493 1.75016 6.89407e-17)
(22.7803 1.62479 -7.56403e-18)
(23.0329 1.52471 -9.71683e-17)
(23.2997 1.45598 7.71833e-17)
(23.5706 1.42315 3.19745e-16)
(23.8378 1.42783 -2.66738e-17)
(24.094 1.46985 2.61377e-17)
(24.3319 1.54737 -1.30596e-18)
(24.5439 1.65693 1.89135e-17)
(24.7234 1.79338 1.54973e-16)
(24.864 1.9501 -4.31601e-16)
(24.9605 2.11892 2.18356e-17)
(25.0086 2.29024 6.53844e-17)
(25.0037 2.452 7.82515e-17)
(21.6742 3.36773 -9.98216e-18)
(21.7418 3.13751 6.63873e-16)
(21.8233 2.92497 -6.42194e-17)
(21.9189 2.72651 1.10607e-16)
(22.0292 2.54004 -3.40097e-17)
(22.1558 2.36405 2.37019e-17)
(22.3003 2.19827 5.74878e-16)
(22.4646 2.04381 -5.15028e-16)
(22.6503 1.90284 1.6964e-16)
(22.8585 1.77867 2.93932e-16)
(23.088 1.67615 -2.61925e-17)
(23.3325 1.60135 1.89743e-16)
(23.5827 1.55912 -1.58022e-16)
(23.8314 1.5515 -8.3816e-17)
(24.072 1.5788 -7.43438e-17)
(24.2975 1.63984 -6.74143e-18)
(24.5008 1.73187 -3.24123e-17)
(24.675 1.85045 -6.86218e-17)
(24.8138 1.98958 3.42527e-16)
(24.9118 2.14163 5.78107e-17)
(24.9645 2.29739 -1.8999e-16)
(24.9675 2.44511 -2.12054e-16)
(21.8912 3.4199 -5.72703e-17)
(21.9499 3.20523 -4.31898e-16)
(22.0211 3.00727 4.19547e-16)
(22.1049 2.82241 -3.50166e-16)
(22.2018 2.64848 4.56215e-16)
(22.3132 2.48376 -1.46437e-16)
(22.441 2.32763 -3.49663e-16)
(22.5868 2.1808 1.42415e-16)
(22.7524 2.04499 -3.1247e-16)
(22.9395 1.92303 -2.14021e-16)
(23.1475 1.81937 -8.93855e-18)
(23.3706 1.74005 4.59015e-17)
(23.6007 1.69004 -3.63906e-17)
(23.8312 1.67171 -2.3093e-17)
(24.0561 1.6858 2.26246e-17)
(24.2689 1.73169 1.37837e-17)
(24.4627 1.80724 3.81295e-17)
(24.6309 1.90872 4.42113e-17)
(24.7671 2.03077 2.87641e-16)
(24.8659 2.16632 3.52142e-16)
(24.9226 2.30661 3.00836e-16)
(24.933 2.44033 3.80202e-16)
(22.1472 3.26522 2.11825e-16)
(22.2094 3.08087 -5.02501e-16)
(22.2828 2.90881 8.06614e-17)
(22.3678 2.74675 2.78308e-16)
(22.4659 2.59283 -3.15707e-16)
(22.5785 2.44617 1.03365e-16)
(22.7076 2.30711 -9.25284e-18)
(22.8551 2.17692 1.07024e-17)
(23.0227 2.05796 -9.21098e-17)
(23.2104 1.9543 2.54509e-16)
(23.4133 1.8718 -4.83368e-17)
(23.6241 1.81552 2.73964e-18)
(23.8369 1.78804 1.06855e-17)
(24.0462 1.7904 1.3717e-17)
(24.2459 1.82245 -3.03535e-18)
(24.4298 1.88265 1.15315e-17)
(24.5913 1.96791 -6.34499e-17)
(24.7243 2.07349 -4.17915e-16)
(24.8232 2.1929 -7.08608e-16)
(24.8833 2.31795 -2.12136e-16)
(24.9005 2.43781 -5.74302e-16)
(22.3344 3.31825 -6.21477e-17)
(22.3886 3.14658 2.40307e-16)
(22.4528 2.98645 -3.3395e-17)
(22.5273 2.83558 -4.59485e-16)
(22.6134 2.69194 -1.72175e-17)
(22.7126 2.55447 1.07662e-16)
(22.8268 2.42317 -2.69363e-16)
(22.9577 2.29892 4.10915e-16)
(23.1074 2.18362 7.94397e-17)
(23.2763 2.08091 -2.04576e-16)
(23.4602 1.99644 -3.24617e-17)
(23.6526 1.93524 -3.96089e-17)
(23.8481 1.90004 5.86853e-18)
(24.042 1.8921 6.03971e-17)
(24.2287 1.91166 -1.11958e-18)
(24.4022 1.95768 -7.38833e-18)
(24.5565 2.02765 5.17528e-17)
(24.6855 2.11747 -7.81891e-17)
(24.7838 2.22126 7.33582e-16)
(24.8467 2.33138 -1.57475e-16)
(24.8702 2.43763 6.24909e-16)
(22.5118 3.36497 -2.24715e-16)
(22.5589 3.20507 -4.18848e-16)
(22.615 3.0561 4.59602e-16)
(22.6803 2.91571 3.10705e-16)
(22.7558 2.78183 -4.05451e-17)
(22.843 2.6532 3.96447e-17)
(22.9436 2.52954 1.74134e-16)
(23.0596 2.41141 9.51481e-17)
(23.1931 2.30023 2.12967e-16)
(23.3446 2.19924 -7.16152e-17)
(23.5107 2.1138 6.14115e-17)
(23.6856 2.04893 1.76324e-16)
(23.8645 2.00734 1.03237e-16)
(24.0433 1.99048 -3.39589e-17)
(24.2169 1.99888 9.43982e-18)
(24.38 2.03193 7.63733e-17)
(24.5266 2.08764 -8.87472e-17)
(24.6511 2.1625 1.42658e-16)
(24.7481 2.25128 -9.55722e-16)
(24.8132 2.34688 1.61194e-16)
(24.8424 2.43984 -6.71851e-16)
(22.7208 3.25703 1.40157e-16)
(22.7697 3.11843 2.84233e-16)
(22.8267 2.98786 -1.96973e-16)
(22.8929 2.86317 4.54534e-16)
(22.9694 2.74297 -3.50768e-16)
(23.058 2.62676 7.6622e-17)
(23.1605 2.51478 -3.52203e-16)
(23.2791 2.40807 -6.13951e-17)
(23.4147 2.30942 -6.48273e-17)
(23.5642 2.22391 -2.55237e-16)
(23.7226 2.15643 -1.71001e-16)
(23.8857 2.10968 -1.19564e-16)
(24.0499 2.08519 -2.98694e-17)
(24.2107 2.08372 1.37311e-17)
(24.3631 2.105 -1.31e-16)
(24.5017 2.14753 1.46501e-16)
(24.6212 2.20832 -1.09551e-16)
(24.7164 2.28276 7.33972e-16)
(24.7829 2.3644 1.07469e-16)
(24.8171 2.44449 7.33926e-16)
(22.8746 3.30301 1.26999e-16)
(22.9171 3.17405 -1.53708e-16)
(22.9668 3.05262 -3.97372e-16)
(23.0246 2.93656 -3.59642e-16)
(23.0917 2.82437 4.61043e-16)
(23.1695 2.71536 -8.50182e-17)
(23.2599 2.6095 3.86108e-16)
(23.3651 2.50745 9.92154e-17)
(23.486 2.41162 -1.47482e-17)
(23.6202 2.32677 1.02842e-18)
(23.7631 2.25762 9.18118e-17)
(23.9113 2.20682 1.24458e-16)
(24.0614 2.17592 2.04052e-17)
(24.2096 2.16582 -1.59278e-17)
(24.3514 2.17654 7.5798e-17)
(24.4818 2.20697 -7.1314e-17)
(24.5959 2.25467 1.19624e-17)
(24.6887 2.31556 -1.42266e-16)
(24.7561 2.38385 -6.45382e-16)
(24.7947 2.45158 8.45787e-17)
(23.0574 3.22355 -2.31642e-16)
(23.1007 3.11062 -1.56313e-17)
(23.1512 3.00263 4.81409e-16)
(23.2098 2.89799 -7.77845e-17)
(23.278 2.79588 -7.37035e-17)
(23.3576 2.69601 -6.83031e-17)
(23.4506 2.59873 -2.26857e-17)
(23.5581 2.50607 9.69498e-17)
(23.6782 2.42249 5.61987e-17)
(23.8068 2.35249 5.55938e-17)
(23.9408 2.29863 -4.48646e-17)
(24.0776 2.26243 4.89424e-17)
(24.2136 2.24488 1.88896e-19)
(24.3449 2.24621 -2.59271e-17)
(24.467 2.26568 6.7201e-17)
(24.5754 2.30126 -8.38427e-17)
(24.6653 2.34948 9.49059e-18)
(24.733 2.40512 3.94398e-16)
(24.7752 2.46107 -4.1319e-16)
(23.191 3.26742 3.54657e-16)
(23.2287 3.16238 1.28495e-16)
(23.2726 3.06191 -1.17541e-16)
(23.3237 2.96438 -1.58115e-16)
(23.3834 2.86883 -2.22221e-16)
(23.4532 2.77479 1.99319e-16)
(23.5352 2.68232 -1.35998e-16)
(23.6307 2.59309 1.98986e-16)
(23.7378 2.51123 -9.41621e-17)
(23.8531 2.44106 -1.78812e-17)
(23.9739 2.385 1.86607e-17)
(24.098 2.34451 -4.28715e-17)
(24.2223 2.32062 -1.24882e-17)
(24.3434 2.31373 -4.17545e-17)
(24.4572 2.32333 4.58978e-17)
(24.5596 2.34784 2.50033e-16)
(24.6463 2.38429 3.10389e-17)
(24.7137 2.42809 1.60866e-16)
(24.7588 2.4729 -6.60118e-17)
(23.3182 3.30616 1.05233e-16)
(23.3508 3.20843 -1.31335e-16)
(23.3889 3.11495 -1.92055e-17)
(23.4334 3.02408 -1.90023e-16)
(23.4855 2.93474 -1.9596e-16)
(23.5466 2.8463 -1.97568e-16)
(23.6188 2.75858 2.65455e-16)
(23.7032 2.67293 -3.9432e-18)
(23.7985 2.59319 5.94061e-17)
(23.9016 2.52344 3.4279e-17)
(24.0102 2.46594 -8.57214e-17)
(24.1224 2.42207 4.74862e-17)
(24.2355 2.39287 -2.15269e-18)
(24.3467 2.37882 5.10801e-17)
(24.4523 2.37967 -1.15031e-16)
(24.5485 2.39416 8.13318e-17)
(24.6317 2.4198 -6.81852e-16)
(24.6983 2.4526 3.29753e-16)
(24.7456 2.48697 4.73404e-16)
(23.4673 3.24924 3.51785e-16)
(23.5003 3.16225 -8.04255e-17)
(23.5389 3.07758 -1.23662e-16)
(23.5843 2.99408 -1.00402e-17)
(23.6377 2.91101 1.5583e-16)
(23.701 2.82795 -1.00878e-16)
(23.7756 2.74597 -5.55598e-17)
(23.8601 2.66862 -1.89579e-17)
(23.952 2.59974 -7.37542e-17)
(24.0492 2.54146 5.74049e-17)
(24.1502 2.49503 3.29691e-17)
(24.2529 2.46145 4.88842e-19)
(24.3545 2.44129 4.54102e-17)
(24.452 2.43445 1.48689e-17)
(24.5422 2.43997 -3.79652e-16)
(24.6214 2.45578 3.2975e-16)
(24.6868 2.47847 -4.46437e-16)
(24.7357 2.50316 -5.55397e-16)
(23.5785 3.28522 1.41282e-17)
(23.6069 3.20424 3.3088e-16)
(23.6404 3.12535 -2.323e-16)
(23.6797 3.04734 5.77681e-18)
(23.7263 2.96937 6.53113e-17)
(23.7818 2.89083 1.34657e-16)
(23.8474 2.81256 5.68182e-17)
(23.9222 2.73779 -2.04407e-16)
(24.0038 2.67016 9.30495e-17)
(24.0906 2.61165 -1.13804e-17)
(24.1813 2.56338 2.70118e-17)
(24.2741 2.52629 1.03621e-17)
(24.3666 2.50097 -4.08795e-17)
(24.4564 2.48746 -6.89014e-17)
(24.5403 2.48504 3.79158e-16)
(24.6155 2.49202 1.66415e-16)
(24.6792 2.50552 2.09017e-16)
(24.7291 2.52132 3.31193e-16)
(23.6845 3.3168 -4.12987e-16)
(23.709 3.24139 1.19755e-16)
(23.7378 3.16785 -1.04084e-16)
(23.7719 3.09498 3.31999e-16)
(23.8124 3.02183 -4.74833e-17)
(23.8608 2.94766 -1.24797e-16)
(23.9184 2.87306 7.83839e-17)
(23.9844 2.801 7.71012e-17)
(24.0567 2.73493 1.51292e-16)
(24.134 2.67664 -8.74757e-17)
(24.2152 2.62715 -2.33296e-17)
(24.2987 2.58732 -7.21629e-18)
(24.3827 2.55774 -2.12675e-17)
(24.465 2.53852 5.36658e-17)
(24.5429 2.52917 -2.76243e-16)
(24.6139 2.52831 1.03678e-17)
(24.6755 2.53354 -1.84038e-17)
(24.7259 2.54127 1.79058e-16)
(23.8066 3.27407 -8.06502e-17)
(23.8314 3.20551 1.54677e-16)
(23.8608 3.13743 -1.63647e-16)
(23.8959 3.06882 -5.7179e-17)
(23.9381 2.99882 1.10812e-16)
(23.9885 2.92782 -2.12913e-16)
(24.0466 2.85857 4.78633e-18)
(24.1105 2.79427 -2.99281e-18)
(24.1791 2.7366 -7.21259e-18)
(24.2516 2.68643 2.7887e-17)
(24.3265 2.64455 -1.03112e-17)
(24.4025 2.61151 -4.00424e-17)
(24.4776 2.5875 1.69156e-16)
(24.5496 2.57218 2.44408e-16)
(24.6164 2.56445 2.28503e-16)
(24.6757 2.56233 4.53537e-19)
(24.7259 2.56281 -2.65854e-17)
(23.9 3.30268 1.08647e-16)
(23.9213 3.23872 -4.69698e-17)
(23.9466 3.1751 -1.25308e-16)
(23.9769 3.11076 7.13544e-17)
(24.0135 3.04474 -9.66695e-17)
(24.0575 2.97725 -8.72628e-17)
(24.1085 2.91082 8.81476e-17)
(24.1649 2.84847 -6.37268e-17)
(24.2256 2.79172 -1.96845e-18)
(24.29 2.74133 8.1341e-18)
(24.3572 2.698 9.73714e-18)
(24.4257 2.66225 2.23944e-17)
(24.494 2.63429 -3.14792e-16)
(24.5604 2.6139 -1.39837e-16)
(24.6228 2.60023 1.86537e-16)
(24.6796 2.59168 -2.86504e-16)
(23.9894 3.32757 2.326e-17)
(24.0075 3.26786 -7.3611e-17)