/*--------------------------------*- C++ -*----------------------------------*\
| =========                 |                                                 |
| \\      /  F ield         | OpenFOAM: The Open Source CFD Toolbox           |
|  \\    /   O peration     | Version:  2506                                  |
|   \\  /    A nd           | Website:  www.openfoam.com                      |
|    \\/     M anipulation  |                                                 |
\*---------------------------------------------------------------------------*/
FoamFile
{
    version     2.0;
    format      ascii;
    arch        "LSB;label=32;scalar=64";
    class       volScalarField;
    location    "18";
    object      p;
}
// * * * * * * * * * * * * * * * * * * * * * * * * * * * * * * * * * * * * * //

dimensions      [0 2 -2 0 0 0 0];

internalField   nonuniform List<scalar> 
400
(
-7.8906e-09
-0.000117452
-0.000367141
-0.000722413
-0.00117197
-0.00167295
-0.00213742
-0.00240887
-0.0023213
-0.00173856
-0.000567866
0.0011907
0.00333583
0.005248
0.00626084
0.00603482
0.0046971
0.00326418
0.00236921
0.00225124
0.000114902
-1.5315e-05
-0.0002119
-0.000480661
-0.000821561
-0.00124455
-0.00174258
-0.0022294
-0.002505
-0.00230339
-0.00140708
0.000210423
0.00224027
0.00414616
0.00525576
0.00517375
0.00405992
0.00266871
0.00196335
0.00196035
0.000371971
0.000196608
-1.03185e-05
-0.000321111
-0.000815341
-0.00157208
-0.00259183
-0.00372778
-0.00467558
-0.00504438
-0.00452275
-0.00309122
-0.00102383
0.00119348
0.00289289
0.00351288
0.00300247
0.00197509
0.00113389
0.00105106
0.000655862
0.000397449
0.00010321
-0.000440415
-0.00141817
-0.00295053
-0.00496933
-0.00717216
-0.00910893
-0.0103026
-0.0104072
-0.00937886
-0.00739207
-0.00478902
-0.00213513
-7.11363e-05
0.000946213
0.000923284
0.000283596
-0.00030852
0.000697605
0.000343891
-0.000155122
-0.00118048
-0.00299646
-0.00568084
-0.00900737
-0.0124786
-0.0155224
-0.0176552
-0.0185634
-0.0181131
-0.0163607
-0.0135092
-0.00992737
-0.00616883
-0.00296165
-0.00100807
-0.000623022
-0.0022093
0.000237447
-0.000240134
-0.00106614
-0.00277809
-0.0056537
-0.00964236
-0.0142785
-0.0188668
-0.0227752
-0.025584
-0.0270777
-0.0271314
-0.0257366
-0.0230096
-0.0190836
-0.0141857
-0.00889375
-0.00444886
-0.00254607
-0.00452508
-0.000900219
-0.00151914
-0.002741
-0.00520677
-0.00912769
-0.0142628
-0.0198948
-0.0251897
-0.0295306
-0.0325996
-0.0342983
-0.0346065
-0.0335426
-0.0311738
-0.0274903
-0.0223922
-0.0160053
-0.00947759
-0.0056126
-0.0060049
-0.00270644
-0.00345206
-0.00505164
-0.00816793
-0.012906
-0.0188346
-0.02504
-0.0306344
-0.0350775
-0.0381664
-0.0398865
-0.0402836
-0.0394238
-0.0373738
-0.0341122
-0.0294182
-0.0230222
-0.0154228
-0.00920139
-0.00634225
-0.00496915
-0.00578557
-0.00766996
-0.0112262
-0.0164623
-0.0228098
-0.0292428
-0.0348865
-0.0392938
-0.0423454
-0.0440639
-0.0445024
-0.043734
-0.0418473
-0.0389024
-0.0347611
-0.0289758
-0.021355
-0.0134657
-0.0078481
-0.0073525
-0.00816219
-0.0101996
-0.0139549
-0.0193765
-0.02584
-0.0322886
-0.0378879
-0.0422571
-0.0453143
-0.0470754
-0.0475602
-0.0468156
-0.0449485
-0.0421213
-0.0383728
-0.0333544
-0.0264477
-0.0184065
-0.0113272
-0.00952424
-0.0102574
-0.0123028
-0.0160333
-0.021375
-0.0277305
-0.0340785
-0.0396225
-0.0439984
-0.0471135
-0.0489502
-0.049485
-0.0487271
-0.0467894
-0.0439182
-0.0403414
-0.0359778
-0.0300464
-0.0228424
-0.0154892
-0.0112572
-0.0118465
-0.013765
-0.0172627
-0.022294
-0.0283533
-0.0345188
-0.0400199
-0.0444503
-0.0476602
-0.0495844
-0.0501629
-0.0493641
-0.0473096
-0.0442969
-0.0407145
-0.036816
-0.031741
-0.0255672
-0.0184367
-0.0124874
-0.0128476
-0.0144631
-0.0175337
-0.0220582
-0.0276615
-0.0335693
-0.0390252
-0.0435395
-0.0468672
-0.0488785
-0.049482
-0.0486347
-0.0464511
-0.0432606
-0.0395269
-0.0359023
-0.031345
-0.0260188
-0.0190821
-0.0132357
-0.0133048
-0.0144234
-0.0168268
-0.020642
-0.0256538
-0.0312326
-0.0366258
-0.0412413
-0.0447146
-0.0468338
-0.0474688
-0.0465789
-0.0442615
-0.0408839
-0.0369924
-0.0333222
-0.0289326
-0.0244888
-0.0171641
-0.0135691
-0.0133296
-0.0137722
-0.0152718
-0.0181867
-0.0224777
-0.0276508
-0.0329525
-0.0376821
-0.0413401
-0.0436161
-0.0443282
-0.0434231
-0.0409877
-0.0374293
-0.0333186
-0.0294015
-0.025013
-0.0217298
-0.012587
-0.0135988
-0.0130859
-0.0126236
-0.0129995
-0.0148738
-0.0183659
-0.0230877
-0.028279
-0.0331404
-0.0370343
-0.0395411
-0.0404121
-0.039587
-0.0371008
-0.0333834
-0.0289857
-0.0246857
-0.0201297
-0.0175805
-0.00394016
-0.0134027
-0.0127008
-0.0111141
-0.0102729
-0.0110922
-0.0138183
-0.0181198
-0.0232156
-0.028234
-0.0324164
-0.0352387
-0.0363599
-0.035691
-0.0332982
-0.0294546
-0.0246326
-0.0195418
-0.0139797
-0.00908282
0.0137192
-0.013939
-0.0123405
-0.00913561
-0.00709624
-0.00706167
-0.00925462
-0.0133052
-0.0183956
-0.0236324
-0.0281691
-0.0314167
-0.0329379
-0.032585
-0.0303029
-0.0262963
-0.0207027
-0.0137307
-0.00399758
0.0115403
0.0524818
-0.0117724
-0.012358
-0.00757575
-0.0042805
-0.00363922
-0.00561338
-0.00963981
-0.0148432
-0.020351
-0.0252542
-0.0289575
-0.0309464
-0.0310437
-0.0289757
-0.024618
-0.0171628
-0.00549185
0.0153822
0.054035
0.123982
-0.029483
-0.0118036
-0.00326623
-0.000179638
-0.000166483
-0.00249965
-0.00676308
-0.0122011
-0.0179667
-0.0231477
-0.0271401
-0.0294226
-0.0297775
-0.0277577
-0.022713
-0.0125472
0.00694173
0.0461076
0.116682
0.220499
)
;

boundaryField
{
    movingWall
    {
        type            zeroGradient;
    }
    fixedWalls
    {
        type            zeroGradient;
    }
    frontAndBack
    {
        type            empty;
    }
}


// ************************************************************************* //
