/*--------------------------------*- C++ -*----------------------------------*\
| =========                 |                                                 |
| \\      /  F ield         | OpenFOAM: The Open Source CFD Toolbox           |
|  \\    /   O peration     | Version:  2506                                  |
|   \\  /    A nd           | Website:  www.openfoam.com                      |
|    \\/     M anipulation  |                                                 |
\*---------------------------------------------------------------------------*/
FoamFile
{
    version     2.0;
    format      ascii;
    arch        "LSB;label=32;scalar=64";
    class       surfaceScalarField;
    location    "18";
    object      phi;
}
// * * * * * * * * * * * * * * * * * * * * * * * * * * * * * * * * * * * * * //

dimensions      [0 3 -1 0 0 0 0];

oriented        oriented;

internalField   nonuniform List<scalar> 
760
(
7.84394e-06
-7.84387e-06
1.24753e-05
-4.63132e-06
1.00921e-05
2.38325e-06
-1.24688e-06
1.1339e-05
-2.48305e-05
2.35836e-05
-6.50632e-05
4.02327e-05
-0.000124587
5.9524e-05
-0.000199662
7.50751e-05
-0.00027776
7.80979e-05
-0.000341101
6.33404e-05
-0.000373699
3.25983e-05
-0.000366382
-7.31705e-06
-0.000310423
-5.59591e-05
-0.000214377
-9.60457e-05
-9.69976e-05
-0.00011738
1.06444e-05
-0.000107642
7.75652e-05
-6.69208e-05
7.95588e-05
-1.99361e-06
3.68539e-05
4.27049e-05
3.68539e-05
6.84475e-07
-8.52833e-06
-1.22789e-05
8.33212e-06
-4.43305e-05
3.44348e-05
-0.000102229
6.92377e-05
-0.000191532
0.000112887
-0.000311011
0.000159711
-0.000447753
0.000196267
-0.000579492
0.000206814
-0.000684203
0.000182809
-0.000747266
0.000126403
-0.000761631
4.69632e-05
-0.000722571
-4.63765e-05
-0.000632607
-0.000145924
-0.000494393
-0.000234259
-0.000320776
-0.000290996
-0.000138673
-0.000289745
4.80247e-06
-0.000210397
6.77942e-05
-6.49854e-05
4.34564e-05
6.70427e-05
8.03103e-05
-1.75163e-05
8.98797e-06
-6.21176e-05
5.29335e-05
-0.000136648
0.000108965
-0.00024705
0.00017964
-0.000391749
0.000257585
-0.000555637
0.0003236
-0.000714754
0.000355384
-0.000848324
0.000340383
-0.000945485
0.000279971
-0.00100201
0.000182929
-0.00101394
5.88936e-05
-0.000980481
-7.9838e-05
-0.000902512
-0.000223892
-0.000775762
-0.00036101
-0.000598888
-0.00046787
-0.000382374
-0.000506259
-0.000161969
-0.000430802
-7.57246e-06
-0.000219382
2.69169e-05
3.25535e-05
0.000107227
-4.06349e-05
4.96229e-05
-0.000121516
0.000133814
-0.000236672
0.000224122
-0.000386237
0.000329205
-0.000558882
0.00043023
-0.000732622
0.00049734
-0.000885918
0.00050868
-0.00100689
0.00046135
-0.00109312
0.000366204
-0.00114572
0.000235529
-0.00116323
7.64038e-05
-0.0011473
-9.57651e-05
-0.00109774
-0.000273454
-0.00100539
-0.000453365
-0.00085902
-0.000614235
-0.000648349
-0.00071693
-0.000381335
-0.000697816
-0.000117532
-0.000483184
1.16598e-05
-9.66385e-05
0.000118887
-6.27223e-05
0.000112345
-0.000173525
0.000244617
-0.000315829
0.000366425
-0.000482569
0.000495945
-0.000656435
0.000604096
-0.00081575
0.000656655
-0.000945807
0.000638736
-0.0010425
0.00055804
-0.00110818
0.000431889
-0.00114766
0.00027501
-0.00116668
9.54214e-05
-0.00116722
-9.52257e-05
-0.00114868
-0.000291998
-0.00110331
-0.000498728
-0.00101439
-0.00070316
-0.00085632
-0.000874998
-0.000605783
-0.000948353
-0.000279039
-0.000809929
-2.17396e-05
-0.000353938
9.71473e-05
-7.66169e-05
0.000188962
-0.00020349
0.000371491
-0.000354041
0.000516976
-0.000515693
0.000657597
-0.000669946
0.000758349
-0.000799648
0.000786356
-0.000896485
0.000735574
-0.000961371
0.000622926
-0.00100014
0.000470656
-0.00102078
0.000295656
-0.0010334
0.00010804
-0.00104227
-8.63618e-05
-0.00104632
-0.000287942
-0.00104364
-0.000501412
-0.00101969
-0.000727106
-0.000943021
-0.000951668
-0.000768764
-0.00112261
-0.000464921
-0.00111377
-9.91796e-05
-0.000719679
-2.03234e-06
-7.81459e-05
0.000267108
-0.000204516
0.000497861
-0.000345688
0.000658148
-0.000486366
0.000798275
-0.000610701
0.000882683
-0.00070676
0.000882415
-0.000771193
0.000800007
-0.000808121
0.000659855
-0.000825512
0.000488047
-0.000832382
0.000302525
-0.000837265
0.000112923
-0.000845219
-7.84075e-05
-0.000857674
-0.000275488
-0.00087706
-0.000482025
-0.000897957
-0.00070621
-0.000895899
-0.000953726
-0.000819275
-0.00119923
-0.00059969
-0.00133336
-0.000212938
-0.00110643
-0.000214971
-6.70691e-05
0.000334177
-0.000178212
0.000609004
-0.000297825
0.000777761
-0.000409964
0.000910414
-0.000502891
0.000975611
-0.000569639
0.000949163
-0.000610358
0.000840726
-0.000630824
0.000680321
-0.000639228
0.00049645
-0.000643198
0.000306496
-0.000647331
0.000117056
-0.000653606
-7.21322e-05
-0.00066493
-0.000264164
-0.000686367
-0.000460588
-0.00072132
-0.000671257
-0.000760138
-0.000914908
-0.000758344
-0.00120103
-0.000634295
-0.0014574
-0.000322805
-0.00141792
-0.000537775
-4.60952e-05
0.000380272
-0.00013189
0.000694798
-0.000223511
0.000869383
-0.000305377
0.000992279
-0.000369843
0.00104008
-0.000414119
0.000993439
-0.000440475
0.000867082
-0.000454736
0.000694581
-0.000463662
0.000505376
-0.00047191
0.000314744
-0.000480467
0.000125612
-0.000488492
-6.41075e-05
-0.000497798
-0.000254858
-0.000513195
-0.000445191
-0.000544011
-0.000640441
-0.000593394
-0.000865525
-0.00063535
-0.00115907
-0.000590766
-0.00150199
-0.000370701
-0.00163799
-0.000908477
-1.90728e-05
0.000399345
-7.37206e-05
0.000749446
-0.000134726
0.000930388
-0.000187219
0.00104477
-0.000226798
0.00107966
-0.00025384
0.00102048
-0.000271432
0.000884674
-0.000284146
0.000707295
-0.000296224
0.000517455
-0.000309688
0.000328208
-0.000323763
0.000139688
-0.000336448
-5.14229e-05
-0.000347755
-0.000243551
-0.000360277
-0.000432669
-0.000383302
-0.000617417
-0.000429968
-0.000818858
-0.000492799
-0.00109624
-0.000503745
-0.00149104
-0.00034709
-0.00179464
-0.00125557
9.04692e-06
0.000390298
-1.15983e-05
0.000770091
-4.22234e-05
0.000961013
-6.73391e-05
0.00106989
-8.45737e-05
0.00109689
-9.59916e-05
0.0010319
-0.00010512
0.000893802
-0.000115239
0.000717414
-0.000128121
0.000530336
-0.000143862
0.000343949
-0.000161545
0.00015737
-0.000179756
-3.32116e-05
-0.000197336
-0.00022597
-0.000214771
-0.000415235
-0.000237717
-0.00059447
-0.000281443
-0.000775132
-0.00035364
-0.00102404
-0.000402228
-0.00144246
-0.000300663
-0.00189621
-0.00155623
3.213e-05
0.000358168
4.46792e-05
0.000757542
4.63615e-05
0.000959331
4.94935e-05
0.00106676
5.50911e-05
0.00109129
6.00263e-05
0.00102696
6.09115e-05
0.000892917
5.62745e-05
0.000722051
4.62975e-05
0.000540313
3.18548e-05
0.000358392
1.35409e-05
0.000175684
-8.67858e-06
-1.09922e-05
-3.41898e-05
-0.000200459
-6.30114e-05
-0.000386413
-9.70138e-05
-0.000560468
-0.000144769
-0.000727377
-0.000224969
-0.000943844
-0.000302164
-0.00136526
-0.000249947
-0.00194842
-0.00180618
4.88531e-05
0.000309315
9.16417e-05
0.000714754
0.000123175
0.000927797
0.000154906
0.00103503
0.000186305
0.00105989
0.000211315
0.00100195
0.000226266
0.000877966
0.000231158
0.000717159
0.000227777
0.000543694
0.000217467
0.000368701
0.000199997
0.000193155
0.000173454
1.55506e-05
0.000139188
-0.000166193
9.69933e-05
-0.000344219
4.69982e-05
-0.000510472
-1.84659e-05
-0.000661913
-0.000107568
-0.000854742
-0.000206277
-0.00126655
-0.000199807
-0.00195489
-0.00200598
5.57824e-05
0.000253533
0.000122916
0.00064762
0.000182466
0.000868247
0.000242198
0.000975294
0.000300564
0.00100153
0.000350048
0.000952469
0.000385294
0.00084272
0.000405653
0.000696801
0.000413116
0.000536231
0.000409362
0.000372456
0.000393916
0.0002086
0.000365097
4.43701e-05
0.000321511
-0.000122608
0.000263925
-0.000286632
0.000193292
-0.00043984
0.000111403
-0.000580024
6.1164e-06
-0.000749455
-0.000116119
-0.00114432
-0.000152566
-0.00191844
-0.00215855
5.0492e-05
0.000203041
0.000129624
0.000568488
0.000211606
0.000786265
0.000298454
0.000888446
0.000386317
0.000913665
0.000465298
0.000873487
0.000527422
0.000780597
0.000569998
0.000654225
0.000593884
0.000512344
0.000600518
0.000365822
0.000589669
0.000219449
0.000559428
7.46117e-05
0.000507198
-7.03772e-05
0.000434541
-0.000213976
0.000342277
-0.000347575
0.000235862
-0.00047361
0.000109789
-0.000623381
-3.497e-05
-0.000999558
-0.000105143
-0.00184827
-0.00226369
3.42083e-05
0.000168833
0.000111421
0.000491276
0.000212399
0.000685287
0.000325798
0.000775047
0.000443794
0.000795669
0.000554349
0.000762933
0.000646798
0.000688147
0.000715912
0.000585111
0.000760542
0.000467715
0.000781093
0.000345271
0.000777388
0.000223154
0.000748585
0.000103415
0.000688948
-1.07405e-05
0.000602653
-0.000127681
0.000489529
-0.000234451
0.000357912
-0.000341993
0.000213712
-0.000479182
5.87416e-05
-0.000844587
-3.41481e-05
-0.00175538
-0.00229784
-2.09092e-07
0.000169042
4.9623e-05
0.000441444
0.000157062
0.000577848
0.00029646
0.000635649
0.00044804
0.000644089
0.000594128
0.000616844
0.000721098
0.000561178
0.000821733
0.000484476
0.000892264
0.000397184
0.000931901
0.000305634
0.000939226
0.000215829
0.00091402
0.000128621
0.0008558
4.74791e-05
0.000760487
-3.23678e-05
0.000634944
-0.000108908
0.00048615
-0.000193199
0.000333033
-0.000326065
0.000186428
-0.000697982
5.0444e-05
-0.0016194
-0.0022474
-4.39307e-05
0.000212972
-8.76413e-06
0.000406277
9.57421e-05
0.000473342
0.000251346
0.000480045
0.000428529
0.000466906
0.000602655
0.000442718
0.000757399
0.000406434
0.000884503
0.000357371
0.000978153
0.000303535
0.00103744
0.000246344
0.00106072
0.000192553
0.00104932
0.000140016
0.00100269
9.41167e-05
0.000922799
4.75191e-05
0.000815311
-1.41986e-06
0.000684985
-6.2873e-05
0.000554283
-0.000195362
0.00040447
-0.00054817
0.000188298
-0.00140322
-0.0020591
-0.000409235
0.000622207
-0.000367679
0.000364721
-0.000166832
0.000272495
6.51277e-05
0.000248085
0.000296002
0.000236031
0.000517603
0.000221117
0.000720509
0.000203528
0.000897152
0.000180727
0.00104249
0.000158197
0.00115611
0.000132721
0.00123744
0.000111227
0.00128944
8.80146e-05
0.00131187
7.16842e-05
0.00130806
5.13309e-05
0.00127263
3.40131e-05
0.00121149
-1.73729e-06
0.0011298
-0.000113668
0.00098159
-0.000399962
0.000551468
-0.000973102
-0.00150763
0.000622207
0.000986928
0.00125942
0.00150751
0.00174354
0.00196466
0.00216819
0.00234891
0.00250711
0.00263983
0.00275106
0.00283907
0.00291076
0.00296209
0.0029961
0.00299436
0.0028807
0.00248073
0.00150763
)
;

boundaryField
{
    movingWall
    {
        type            calculated;
        value           uniform 0;
    }
    fixedWalls
    {
        type            calculated;
        value           uniform 0;
    }
    frontAndBack
    {
        type            empty;
    }
}


// ************************************************************************* //
