/*--------------------------------*- C++ -*----------------------------------*\
| =========                 |                                                 |
| \\      /  F ield         | OpenFOAM: The Open Source CFD Toolbox           |
|  \\    /   O peration     | Version:  2506                                  |
|   \\  /    A nd           | Website:  www.openfoam.com                      |
|    \\/     M anipulation  |                                                 |
\*---------------------------------------------------------------------------*/
FoamFile
{
    version     2.0;
    format      ascii;
    arch        "LSB;label=32;scalar=64";
    class       volVectorField;
    location    "18";
    object      U;
}
// * * * * * * * * * * * * * * * * * * * * * * * * * * * * * * * * * * * * * //

dimensions      [0 1 -1 0 0 0 0];

internalField   nonuniform List<vector> 
400
(
(0.000899382 -0.000981521 0)
(0.00228766 -0.000948963 0)
(0.00260196 -0.000616763 0)
(0.00138228 -0.000201648 0)
(-0.00196908 0.000415082 0)
(-0.00829058 0.00152518 0)
(-0.018351 0.00337411 0)
(-0.0322013 0.00580247 0)
(-0.0482899 0.00779413 0)
(-0.0632437 0.00792413 0)
(-0.0731842 0.00566716 0)
(-0.0753831 0.00181379 0)
(-0.0685907 -0.00244089 0)
(-0.0528979 -0.00642312 0)
(-0.0314205 -0.00874742 0)
(-0.00789008 -0.00810865 0)
(0.0108904 -0.00445529 0)
(0.0182077 0.00165574 0)
(0.0126922 0.00490245 0)
(0.00358709 0.00373228 0)
(0.000485082 -0.00223854 0)
(-0.000285428 -0.000924994 0)
(-0.00456508 0.00176004 0)
(-0.0131742 0.0054106 0)
(-0.0276765 0.0104433 0)
(-0.048991 0.017 0)
(-0.0758971 0.0238939 0)
(-0.104303 0.0283196 0)
(-0.128971 0.0275366 0)
(-0.14596 0.0209527 0)
(-0.153131 0.00992772 0)
(-0.149783 -0.00345698 0)
(-0.136362 -0.0173139 0)
(-0.113192 -0.0295222 0)
(-0.0824287 -0.0367073 0)
(-0.0467482 -0.0351996 0)
(-0.0115356 -0.0231293 0)
(0.0125799 -0.00286547 0)
(0.0144052 0.0123299 0)
(0.00477808 0.0119631 0)
(-0.00103106 -0.000873829 0)
(-0.0064349 0.00459931 0)
(-0.0180283 0.0125639 0)
(-0.0362102 0.0231364 0)
(-0.0621707 0.0359089 0)
(-0.0945013 0.0482972 0)
(-0.128562 0.0560613 0)
(-0.159024 0.0558285 0)
(-0.182497 0.0470281 0)
(-0.197508 0.0311865 0)
(-0.203465 0.0103966 0)
(-0.200523 -0.0132494 0)
(-0.188957 -0.0376641 0)
(-0.168432 -0.0596063 0)
(-0.13881 -0.0744719 0)
(-0.100409 -0.0760489 0)
(-0.0555255 -0.0584485 0)
(-0.0120764 -0.0220553 0)
(0.00823001 0.0130251 0)
(0.00402328 0.0194932 0)
(-0.00299619 0.00501207 0)
(-0.0140448 0.0175238 0)
(-0.033537 0.0322788 0)
(-0.0601567 0.050328 0)
(-0.0936207 0.0689584 0)
(-0.130244 0.0827954 0)
(-0.164455 0.0870004 0)
(-0.19243 0.0800659 0)
(-0.213042 0.0636359 0)
(-0.22625 0.0401321 0)
(-0.232339 0.011544 0)
(-0.231905 -0.0205418 0)
(-0.225048 -0.0541214 0)
(-0.210887 -0.0862118 0)
(-0.187721 -0.111925 0)
(-0.153295 -0.123324 0)
(-0.10606 -0.109791 0)
(-0.0486939 -0.0633075 0)
(-0.000803248 0.000167915 0)
(0.00453742 0.0238066 0)
(-0.00489673 0.0157188 0)
(-0.0210203 0.0372775 0)
(-0.0466353 0.0587765 0)
(-0.0782662 0.0826477 0)
(-0.114196 0.103818 0)
(-0.149547 0.115594 0)
(-0.179455 0.114324 0)
(-0.202077 0.100769 0)
(-0.217739 0.0779573 0)
(-0.227424 0.0486503 0)
(-0.232453 0.0146987 0)
(-0.233869 -0.0228078 0)
(-0.231816 -0.0626027 0)
(-0.225514 -0.102941 0)
(-0.212674 -0.140198 0)
(-0.189078 -0.166571 0)
(-0.149656 -0.168248 0)
(-0.0909175 -0.126747 0)
(-0.0187317 -0.0358116 0)
(0.00647588 0.0231939 0)
(-0.00600555 0.0299446 0)
(-0.0252223 0.0614483 0)
(-0.0537779 0.0884383 0)
(-0.086261 0.115639 0)
(-0.120105 0.13643 0)
(-0.150291 0.144096 0)
(-0.1733 0.13674 0)
(-0.188851 0.117029 0)
(-0.198203 0.0889651 0)
(-0.203198 0.0556961 0)
(-0.205871 0.019166 0)
(-0.207536 -0.0198334 0)
(-0.20863 -0.0612242 0)
(-0.209067 -0.105117 0)
(-0.207026 -0.15035 0)
(-0.197602 -0.191684 0)
(-0.17328 -0.215601 0)
(-0.126333 -0.196711 0)
(-0.0537297 -0.104955 0)
(0.00491319 0.0123332 0)
(-0.00586856 0.0455979 0)
(-0.0254866 0.0869218 0)
(-0.05355 0.117648 0)
(-0.0834011 0.145778 0)
(-0.112261 0.16415 0)
(-0.135638 0.166682 0)
(-0.151444 0.153203 0)
(-0.160514 0.127929 0)
(-0.164694 0.0956692 0)
(-0.166181 0.0598967 0)
(-0.16689 0.0225326 0)
(-0.167855 -0.0158607 0)
(-0.169744 -0.0558396 0)
(-0.173322 -0.0987439 0)
(-0.178089 -0.145787 0)
(-0.18035 -0.195946 0)
(-0.172132 -0.240116 0)
(-0.143655 -0.25253 0)
(-0.0890265 -0.186243 0)
(-0.00693649 -0.0134645 0)
(-0.00446389 0.0603164 0)
(-0.0218693 0.110846 0)
(-0.0466438 0.143818 0)
(-0.0716592 0.171138 0)
(-0.094371 0.186005 0)
(-0.111168 0.183203 0)
(-0.121204 0.164088 0)
(-0.125998 0.134127 0)
(-0.127652 0.098727 0)
(-0.1282 0.0613917 0)
(-0.128791 0.023682 0)
(-0.129667 -0.0141435 0)
(-0.131262 -0.0525482 0)
(-0.134736 -0.0927362 0)
(-0.141073 -0.137031 0)
(-0.149052 -0.188435 0)
(-0.152262 -0.24488 0)
(-0.140061 -0.285964 0)
(-0.105027 -0.255545 0)
(-0.0267787 -0.0660102 0)
(-0.00216139 0.0719004 0)
(-0.0153611 0.130813 0)
(-0.034981 0.165096 0)
(-0.0541015 0.190623 0)
(-0.0706162 0.201816 0)
(-0.0818901 0.194385 0)
(-0.0879994 0.170841 0)
(-0.0907158 0.137533 0)
(-0.0920173 0.100212 0)
(-0.0933804 0.0621338 0)
(-0.0950555 0.0242709 0)
(-0.0966145 -0.013515 0)
(-0.098122 -0.0513874 0)
(-0.100493 -0.0895836 0)
(-0.105535 -0.129988 0)
(-0.114533 -0.177851 0)
(-0.124008 -0.238492 0)
(-0.122963 -0.301661 0)
(-0.103113 -0.311582 0)
(-0.0349582 -0.145615 0)
(0.000533097 0.0787434 0)
(-0.00717877 0.145298 0)
(-0.0205338 0.180739 0)
(-0.0333882 0.204415 0)
(-0.0440501 0.212569 0)
(-0.0508427 0.201761 0)
(-0.0543789 0.175289 0)
(-0.0562594 0.140076 0)
(-0.0580112 0.101994 0)
(-0.0604622 0.0638752 0)
(-0.0632965 0.0260245 0)
(-0.0658506 -0.0120722 0)
(-0.0679733 -0.0503149 0)
(-0.0700484 -0.0879099 0)
(-0.073709 -0.125354 0)
(-0.0814995 -0.167847 0)
(-0.0936804 -0.22623 0)
(-0.0997285 -0.302892 0)
(-0.0932585 -0.350063 0)
(-0.0304391 -0.223246 0)
(0.00311795 0.0799439 0)
(0.00138302 0.153185 0)
(-0.00524914 0.190147 0)
(-0.0118335 0.212285 0)
(-0.0170045 0.218282 0)
(-0.0198484 0.205608 0)
(-0.0212546 0.177933 0)
(-0.0224194 0.142308 0)
(-0.0242819 0.104452 0)
(-0.027156 0.066782 0)
(-0.0305542 0.0291679 0)
(-0.0339467 -0.00909936 0)
(-0.0372068 -0.0478304 0)
(-0.0403272 -0.0856338 0)
(-0.0442735 -0.121656 0)
(-0.0512742 -0.159424 0)
(-0.0648637 -0.212434 0)
(-0.0751207 -0.295918 0)
(-0.0807854 -0.374469 0)
(-0.0230742 -0.287075 0)
(0.00517202 0.075854 0)
(0.00936563 0.154345 0)
(0.00946631 0.193511 0)
(0.00902983 0.215001 0)
(0.00924359 0.219993 0)
(0.010384 0.206827 0)
(0.011394 0.179292 0)
(0.011493 0.144253 0)
(0.0102936 0.10715 0)
(0.00784788 0.070179 0)
(0.0045882 0.0331345 0)
(0.000704167 -0.00470513 0)
(-0.00380323 -0.0431681 0)
(-0.00884822 -0.0808669 0)
(-0.0148911 -0.116132 0)
(-0.022746 -0.150405 0)
(-0.0383861 -0.196938 0)
(-0.0513735 -0.282131 0)
(-0.0688182 -0.387266 0)
(-0.0151239 -0.340401 0)
(0.00616591 0.0674953 0)
(0.0155819 0.148913 0)
(0.02205 0.190361 0)
(0.0274425 0.211584 0)
(0.0329272 0.216352 0)
(0.0384664 0.203956 0)
(0.0428174 0.177917 0)
(0.0452862 0.144513 0)
(0.0457661 0.108827 0)
(0.0445113 0.073043 0)
(0.0419036 0.0371293 0)
(0.0378648 0.000416826 0)
(0.032276 -0.0367855 0)
(0.0250241 -0.073401 0)
(0.0156455 -0.107565 0)
(0.00499021 -0.139216 0)
(-0.0140744 -0.180013 0)
(-0.0283061 -0.26342 0)
(-0.0576877 -0.390298 0)
(-0.00704863 -0.383271 0)
(0.00577859 0.0565413 0)
(0.0189764 0.137624 0)
(0.0313377 0.181494 0)
(0.0425016 0.203218 0)
(0.0534177 0.208507 0)
(0.0638894 0.197803 0)
(0.0725403 0.174234 0)
(0.0785045 0.143247 0)
(0.0816545 0.109504 0)
(0.0822625 0.0753225 0)
(0.0806589 0.0410905 0)
(0.0766961 0.00638548 0)
(0.0700614 -0.0284831 0)
(0.0606303 -0.0628461 0)
(0.0476489 -0.0950433 0)
(0.0327531 -0.124237 0)
(0.00864489 -0.159886 0)
(-0.00540594 -0.240211 0)
(-0.0475002 -0.387155 0)
(0.00155915 -0.419477 0)
(0.00400946 0.0453944 0)
(0.0184416 0.12236 0)
(0.0350526 0.166463 0)
(0.0514143 0.187681 0)
(0.0679756 0.193243 0)
(0.0841353 0.184679 0)
(0.0982474 0.164559 0)
(0.109049 0.137241 0)
(0.116116 0.106752 0)
(0.119541 0.0754084 0)
(0.119526 0.0440436 0)
(0.116046 0.0125744 0)
(0.10839 -0.0187024 0)
(0.0968971 -0.0493823 0)
(0.0799873 -0.078243 0)
(0.0604573 -0.105081 0)
(0.0308036 -0.136832 0)
(0.0174384 -0.214349 0)
(-0.0378854 -0.38092 0)
(0.0117899 -0.450466 0)
(0.00118053 0.0361935 0)
(0.0139175 0.105787 0)
(0.0333752 0.148879 0)
(0.0544578 0.169239 0)
(0.0767116 0.174479 0)
(0.0988816 0.167582 0)
(0.119054 0.150951 0)
(0.135495 0.12786 0)
(0.147324 0.101544 0)
(0.154393 0.0741078 0)
(0.156506 0.0466304 0)
(0.154097 0.0194119 0)
(0.145691 -0.00737566 0)
(0.132464 -0.0331394 0)
(0.111699 -0.0573709 0)
(0.0879873 -0.0810835 0)
(0.0530567 -0.110438 0)
(0.0393655 -0.187094 0)
(-0.0273363 -0.37314 0)
(0.0260916 -0.475352 0)
(-0.00285647 0.0345767 0)
(0.00267557 0.0917157 0)
(0.0204395 0.124541 0)
(0.0457497 0.140718 0)
(0.0742488 0.144993 0)
(0.103335 0.139894 0)
(0.130443 0.127329 0)
(0.1535 0.109552 0)
(0.171058 0.0889987 0)
(0.182794 0.0673479 0)
(0.187903 0.0457645 0)
(0.18724 0.0246267 0)
(0.178873 0.00428156 0)
(0.165226 -0.0152133 0)
(0.141734 -0.0335114 0)
(0.115939 -0.0535336 0)
(0.0770691 -0.0827076 0)
(0.0609487 -0.162065 0)
(-0.00984951 -0.360354 0)
(0.04938 -0.485407 0)
(-0.00939637 0.0251166 0)
(-0.00816804 0.0868855 0)
(0.00675614 0.111078 0)
(0.0342545 0.117731 0)
(0.0674971 0.116953 0)
(0.102096 0.111425 0)
(0.134963 0.10188 0)
(0.163425 0.0889795 0)
(0.185834 0.0744264 0)
(0.202045 0.0590432 0)
(0.210337 0.0441403 0)
(0.213041 0.0297141 0)
(0.20642 0.0167531 0)
(0.196023 0.00415392 0)
(0.174079 -0.00754404 0)
(0.153312 -0.024199 0)
(0.113902 -0.0544917 0)
(0.0962123 -0.136076 0)
(0.0317171 -0.323539 0)
(0.0902456 -0.453868 0)
(-0.103095 0.0871299 0)
(-0.0765657 0.0710847 0)
(-0.0532214 0.066898 0)
(-0.00943586 0.0671143 0)
(0.0353233 0.0662227 0)
(0.0804966 0.0632606 0)
(0.12239 0.058484 0)
(0.161391 0.0518192 0)
(0.192652 0.0446257 0)
(0.220935 0.0368541 0)
(0.238474 0.0297584 0)
(0.25541 0.0228221 0)
(0.258782 0.0172204 0)
(0.265375 0.0116744 0)
(0.253416 0.00618596 0)
(0.249574 -0.0043494 0)
(0.214525 -0.0294521 0)
(0.207776 -0.0916676 0)
(0.146666 -0.229067 0)
(0.169947 -0.341222 0)
(0.131923 0.105664 0)
(0.162572 0.0793886 0)
(0.218344 0.0573882 0)
(0.275418 0.0445605 0)
(0.324196 0.0374689 0)
(0.371381 0.0325603 0)
(0.41107 0.029122 0)
(0.452294 0.0257089 0)
(0.482954 0.0231724 0)
(0.516935 0.0201309 0)
(0.536408 0.0181827 0)
(0.562931 0.0153655 0)
(0.570539 0.0141306 0)
(0.590671 0.011424 0)
(0.584536 0.0106607 0)
(0.595673 0.00625043 0)
(0.562936 0.0014311 0)
(0.546337 -0.0171763 0)
(0.437358 -0.0498107 0)
(0.338075 -0.101182 0)
)
;

boundaryField
{
    movingWall
    {
        type            fixedValue;
        value           uniform (1 0 0);
    }
    fixedWalls
    {
        type            noSlip;
    }
    frontAndBack
    {
        type            empty;
    }
}


// ************************************************************************* //
