/*--------------------------------*- C++ -*----------------------------------*\
| =========                 |                                                 |
| \\      /  F ield         | OpenFOAM: The Open Source CFD Toolbox           |
|  \\    /   O peration     | Version:  2506                                  |
|   \\  /    A nd           | Website:  www.openfoam.com                      |
|    \\/     M anipulation  |                                                 |
\*---------------------------------------------------------------------------*/
FoamFile
{
    version     2.0;
    format      ascii;
    arch        "LSB;label=32;scalar=64";
    class       surfaceScalarField;
    location    "70.020198564267872";
    object      ddtCorrDdt0(phi);
}
// * * * * * * * * * * * * * * * * * * * * * * * * * * * * * * * * * * * * * //

dimensions      [0 3 -2 0 0 0 0];

oriented        oriented;

internalField   nonuniform List<scalar> 
19160
(
0.000245054
-0.00145495
0.000499734
-0.00150621
0.000180823
-0.00163577
0.000769
-0.00160988
0.000369883
-0.00169527
0.000138354
-0.00177412
0.00106771
-0.00177146
0.000567861
-0.00180785
0.000282452
-0.00183937
8.70307e-05
-0.00186116
0.00140367
-0.00199695
0.000786408
-0.00199001
0.000432454
-0.00195786
0.000176752
-0.00192909
3.49252e-05
-0.00189608
0.00179139
-0.00229717
0.00103047
-0.00224101
0.000596627
-0.00215418
0.000268349
-0.00204945
6.99624e-05
-0.00196413
-1.69384e-05
-0.00187914
0.00224325
-0.00268233
0.00131064
-0.00257734
0.000778918
-0.0024233
0.000366712
-0.00225254
0.000102703
-0.0020822
-3.68382e-05
-0.00194423
-6.63169e-05
-0.00181283
0.00277655
-0.00316938
0.00163598
-0.00300767
0.000986658
-0.00278508
0.000473569
-0.00253016
0.000134514
-0.00228436
-6.31586e-05
-0.00205588
-0.00013882
-0.00187173
-0.000111361
-0.00170147
0.00341028
-0.00377548
0.00201906
-0.00355245
0.00122725
-0.00324827
0.000592833
-0.00290435
0.000164654
-0.0025603
-9.83252e-05
-0.00224919
-0.000221567
-0.00197313
-0.000232187
-0.0017509
-0.000150526
-0.00155094
0.00417535
-0.00450121
0.00247277
-0.00422919
0.0015105
-0.0038357
0.000728987
-0.00338442
0.000193403
-0.00293309
-0.000145746
-0.00251288
-0.000320946
-0.00214981
-0.000366604
-0.00183871
-0.000313316
-0.00158811
-0.000182835
-0.00136811
0.00510673
-0.00534802
0.00302675
-0.0050552
0.00184813
-0.00456682
0.000888656
-0.00399537
0.000221556
-0.00341257
-0.000209084
-0.00286976
-0.000443025
-0.0023908
-0.000524895
-0.00199152
-0.000492652
-0.00165938
-0.000378432
-0.00139252
-0.000207436
-0.00116067
0.00622698
-0.0063965
0.00372784
-0.0060491
0.00226282
-0.00546989
0.00108224
-0.00476041
0.000251096
-0.00402491
-0.000291848
-0.00332981
-0.00059552
-0.00271726
-0.000715701
-0.0022
-0.000702017
-0.00178216
-0.000593907
-0.0014439
-0.000425563
-0.00117439
-0.000223313
-0.000937361
0.00756638
-0.00769115
0.00459689
-0.00726555
0.00279321
-0.00657949
0.00132573
-0.00571338
0.000286562
-0.00479587
-0.000397568
-0.00391919
-0.000786557
-0.00313877
-0.000950616
-0.00248235
-0.000952574
-0.00194944
-0.000843826
-0.00153224
-0.000667093
-0.00120237
-0.000453186
-0.000944518
-0.000224378
-0.000712984
0.00917969
-0.00922806
0.00566238
-0.00875664
0.00346984
-0.00794218
0.00164115
-0.0068949
0.000335714
-0.00576253
-0.000528669
-0.00466477
-0.00102567
-0.00368007
-0.00124239
-0.002847
-0.00125926
-0.00217567
-0.00114188
-0.00165138
-0.000945576
-0.00125376
-0.000708983
-0.000946579
-0.000460202
-0.000708695
-0.000217159
-0.000495826
0.0111021
-0.0110095
0.00701183
-0.0105775
0.00433269
-0.00961949
0.00206048
-0.00836152
0.000413094
-0.00697228
-0.000686396
-0.0056048
-0.00132316
-0.00436729
-0.00160662
-0.00331584
-0.00163911
-0.00246714
-0.00150548
-0.00181207
-0.00127686
-0.0013201
-0.00100303
-0.000959711
-0.000718739
-0.000688043
-0.000446787
-0.000479068
-0.000202082
-0.000293745
0.0133359
-0.0129805
0.00866629
-0.012664
0.00545334
-0.0116982
0.00263593
-0.0101949
0.000544336
-0.00849276
-0.000866816
-0.00679186
-0.00169037
-0.0052376
-0.00206172
-0.00391218
-0.00211334
-0.00284162
-0.00195522
-0.0020174
-0.00167993
-0.001409
-0.0013516
-0.000971533
-0.0010152
-0.000663253
-0.000696368
-0.000438463
-0.000415255
-0.000265896
-0.000179595
-0.000114152
0.01585
-0.0149918
0.0105941
-0.0149082
0.00682872
-0.0140393
0.00338771
-0.0124499
0.000768613
-0.0104192
-0.00105716
-0.00830242
-0.00213593
-0.0063463
-0.00262949
-0.00466983
-0.00270805
-0.00331747
-0.00251692
-0.00227992
-0.00217781
-0.00151952
-0.00177449
-0.000986106
-0.00136464
-0.000622096
-0.00098135
-0.000378273
-0.000645477
-0.000208243
-0.000367932
-7.75595e-05
-0.000150473
3.632e-05
0.0186285
-0.0169258
0.012708
-0.0171057
0.00839355
-0.0164731
0.00428146
-0.0149331
0.00105754
-0.0127389
-0.00124884
-0.0102275
-0.0026651
-0.00777325
-0.00333262
-0.00564317
-0.00345493
-0.00392296
-0.00322317
-0.00261123
-0.00279953
-0.0016582
-0.00229566
-0.000998356
-0.00178707
-0.000563673
-0.00131508
-0.000288367
-0.000906533
-0.000117218
-0.000569733
-6.44404e-06
-0.000307437
7.94031e-05
-0.000117248
0.000153567
0.0217288
-0.0186941
0.0149301
-0.0191479
0.010102
-0.0188142
0.00521764
-0.0174092
0.00130548
-0.015181
-0.00152896
-0.0124587
-0.00331249
-0.00958015
-0.00419918
-0.00690668
-0.00439113
-0.00470697
-0.00411405
-0.00303208
-0.00358225
-0.0018285
-0.00294575
-0.00100811
-0.00230565
-0.000479772
-0.0017163
-0.000162453
-0.00120972
1.48216e-05
-0.000796222
0.00010927
-0.000473384
0.000159501
-0.000238233
0.000200386
-8.18641e-05
0.000235429
0.0252003
-0.0201475
0.0172478
-0.0210118
0.0119959
-0.0210418
0.00624635
-0.0198429
0.00146431
-0.0175681
-0.0020459
-0.0146641
-0.0042311
-0.0115401
-0.00531436
-0.00846498
-0.00556991
-0.00572791
-0.00524006
-0.00358096
-0.00457226
-0.00204207
-0.00376377
-0.00101049
-0.00295088
-0.000362887
-0.00220629
1.02129e-05
-0.00157119
0.000199016
-0.00105612
0.000274718
-0.000656641
0.000292525
-0.000363487
0.000284754
-0.000164441
0.000282961
-4.62151e-05
0.000281642
0.0290241
-0.0212228
0.0196485
-0.0225483
0.0141184
-0.0231343
0.00757274
-0.0223682
0.00177446
-0.020153
-0.00268801
-0.016926
-0.00551016
-0.013385
-0.00685804
-0.00999644
-0.00712022
-0.00691467
-0.00667841
-0.00428957
-0.00583088
-0.00232234
-0.00479941
-0.00100643
-0.00376089
-0.000200479
-0.00281324
0.000244064
-0.00200912
0.000448141
-0.00136211
0.000505003
-0.000862926
0.000481001
-0.000497911
0.000426947
-0.000246548
0.00036686
-9.02225e-05
0.000326966
-1.2482e-05
0.000294123
0.0331843
-0.0218406
0.0220204
-0.0235947
0.0164263
-0.0248562
0.00933472
-0.0248963
0.00259249
-0.0231862
-0.00297792
-0.0198631
-0.00680584
-0.0156303
-0.00877514
-0.0114679
-0.00919065
-0.00792601
-0.00858099
-0.00501208
-0.00745415
-0.00266629
-0.00612069
-0.00100106
-0.00478521
1.78852e-05
-0.00357104
0.000557318
-0.00254721
0.000782152
-0.00172826
0.00081429
-0.00110082
0.000742899
-0.000644025
0.000627114
-0.000329387
0.000509785
-0.000129127
0.000405763
-2.01352e-05
0.000334618
1.74733e-05
0.000276647
0.037567
-0.0219977
0.0243528
-0.024173
0.0187438
-0.0259122
0.0114635
-0.0269849
0.00404494
-0.0263487
-0.00252479
-0.0236394
-0.00747936
-0.0191896
-0.010507
-0.0138984
-0.0115493
-0.00910928
-0.0110142
-0.00549282
-0.00958916
-0.00287708
-0.00783264
-0.000954342
-0.00609357
0.0003073
-0.00452639
0.000973236
-0.00321487
0.00122498
-0.00217277
0.00122666
-0.00137957
0.00109304
-0.000805973
0.000904846
-0.000412263
0.000709989
-0.000160528
0.000541184
-1.83767e-05
0.000404003
4.19818e-05
0.000310107
4.20122e-05
0.000234633
0.0418625
-0.021343
0.0264274
-0.0240722
0.0207453
-0.0261745
0.0136912
-0.02814
0.00596365
-0.0289037
-0.00139226
-0.0274812
-0.00732735
-0.0237914
-0.0114685
-0.0182281
-0.0135731
-0.0118746
-0.0136283
-0.00649515
-0.0122105
-0.00287151
-0.0100499
-0.000659803
-0.00778615
0.000738236
-0.00574513
0.00152604
-0.00405116
0.00180952
-0.00271789
0.00177011
-0.00171092
0.001558
-0.000987809
0.00127487
-0.000494806
0.000987387
-0.000180627
0.000730086
-1.51937e-06
0.000524325
7.96572e-05
0.000366325
9.27656e-05
0.000259352
5.97315e-05
0.000174899
0.045923
-0.0201572
0.0281479
-0.0230636
0.0221156
-0.0254425
0.0156093
-0.0280925
0.00798708
-0.0301634
9.48363e-05
-0.0303908
-0.00674902
-0.0280596
-0.0118558
-0.023404
-0.0150107
-0.0167906
-0.0159619
-0.00954103
-0.0149908
-0.00371487
-0.0126922
-0.000229177
-0.0099254
0.00147945
-0.00730921
0.00230231
-0.00511201
0.00258689
-0.00339322
0.00248485
-0.00210887
0.00216805
-0.00119441
0.0017646
-0.000575864
0.00135593
-0.000184739
0.000991498
3.70863e-05
0.000691478
0.000139018
0.000464961
0.000159697
0.000299392
0.000129313
0.000189768
6.97518e-05
0.000105145
0.0482364
-0.0123137
0.0292312
-0.0212405
0.0228184
-0.0237664
0.0168731
-0.0267063
0.00975612
-0.0298615
0.00158734
-0.0316559
-0.00613098
-0.0310088
-0.0123616
-0.0275538
-0.0164909
-0.0219238
-0.018283
-0.0144694
-0.0178337
-0.0066981
-0.0156102
-0.000796874
-0.0124293
0.00227471
-0.00922929
0.00339953
-0.00645474
0.00364504
-0.00423942
0.00343309
-0.00259144
0.00296742
-0.00143112
0.00240476
-0.000653512
0.00184225
-0.000166789
0.00133798
0.000106023
0.000922559
0.000229188
0.000601307
0.000253604
0.000371052
0.000217164
0.000211538
0.000149822
0.000109695
7.15872e-05
3.35556e-05
0.0504496
-0.0110589
0.0295188
-0.0126014
0.0227896
-0.0212117
0.0172361
-0.0241294
0.0108947
-0.0278449
0.0028141
-0.0310883
-0.0056764
-0.0321105
-0.0132241
-0.0301463
-0.0187275
-0.0253172
-0.0213878
-0.018819
-0.0214916
-0.0108115
-0.019173
-0.00313539
-0.0154076
0.00218142
-0.011472
0.00451737
-0.00806683
0.00501162
-0.0052902
0.00469582
-0.00318117
0.00402282
-0.00170373
0.00324003
-0.000724656
0.0024759
-0.000118524
0.00179398
0.000215783
0.00122821
0.000362076
0.00078967
0.000385612
0.000469297
0.000335702
0.000252512
0.000249257
0.000112101
0.000153311
2.79696e-05
6.50802e-05
-3.15273e-05
0.0525059
-0.0093831
0.0298565
-0.0113966
0.0223236
-0.0121353
0.0165075
-0.0204832
0.0111001
-0.0243347
0.00344851
-0.0284793
-0.00553638
-0.0312283
-0.0143958
-0.0309389
-0.0216423
-0.0272315
-0.0258015
-0.0209035
-0.0264107
-0.0138999
-0.0243542
-0.00563025
-0.0195707
0.00102773
-0.014371
0.00508043
-0.00998529
0.00643583
-0.00653237
0.00625379
-0.00389235
0.005407
-0.00201677
0.00433586
-0.000783547
0.00329892
-2.91529e-05
0.00238653
0.000380183
0.00162958
0.00055193
0.00103836
0.000570282
0.000604998
0.000497483
0.000307514
0.000381365
0.000120401
0.000254416
1.09933e-05
0.000139488
-4.64411e-05
5.07807e-05
-8.23107e-05
0.0542153
-0.00753191
0.0303188
-0.00984537
0.0216492
-0.0107222
0.0154615
-0.0110894
0.0101421
-0.0195252
0.00328076
-0.024167
-0.00596684
-0.0280488
-0.0159391
-0.029685
-0.0249608
-0.0276204
-0.0310837
-0.0219492
-0.0328025
-0.0145116
-0.0310845
-0.00716966
-0.0255387
0.000337787
-0.018643
0.00529979
-0.0126696
0.00776478
-0.00804467
0.00794813
-0.0047183
0.00707974
-0.00236886
0.00575909
-0.000818892
0.0043712
0.000117004
0.00315276
0.000616645
0.00215007
0.000817196
0.00136431
0.000824874
0.000783764
0.000718951
0.000383529
0.000559526
0.000129351
0.000388347
-1.35328e-05
0.000232135
-8.16558e-05
0.000109569
-0.000105233
2.95807e-05
-0.000111894
0.0556489
-0.00532207
0.0307623
-0.00797538
0.0208987
-0.00909485
0.0140069
-0.00926753
0.00895081
-0.00989808
0.00213355
-0.018378
-0.00697774
-0.0231561
-0.0179868
-0.0260011
-0.028719
-0.0259268
-0.0367653
-0.0219389
-0.0401618
-0.01459
-0.0384813
-0.00711482
-0.0334435
0.000735065
-0.0243972
0.00609191
-0.0167487
0.00937881
-0.0102679
0.00998806
-0.00572508
0.00895491
-0.0027579
0.00746878
-0.000815274
0.00575547
0.00034382
0.00414439
0.000948832
0.00282057
0.00118072
0.00178654
0.00117148
0.00101771
0.00101956
0.000483154
0.000801267
0.000141785
0.000568633
-5.09382e-05
0.000355816
-0.000137217
0.000184288
-0.000156377
6.54665e-05
-0.000141121
2.89995e-06
-0.000114797
0.0564709
-0.00313594
0.0312566
-0.00581639
0.0201713
-0.00724801
0.0122198
-0.00730773
0.00722222
-0.00753893
0.00104465
-0.00880919
-0.00865972
-0.016696
-0.0202719
-0.0208711
-0.0327451
-0.021975
-0.042991
-0.019701
-0.0480593
-0.0140414
-0.0465543
-0.00651697
-0.0410992
0.000540913
-0.0315794
0.00791726
-0.0221764
0.0115197
-0.0137608
0.0128716
-0.0072134
0.0114764
-0.00320885
0.00940586
-0.000770483
0.00742399
0.000680325
0.00541897
0.00140976
0.00368345
0.00167231
0.00232899
0.00163719
0.00132082
0.001424
0.000613265
0.0011274
0.00015702
0.000813055
-0.000102638
0.000523462
-0.000218587
0.000286376
-0.000239308
0.000113814
-0.000204727
1.01275e-05
-0.000148352
-2.73509e-05
-8.74496e-05
0.057031
-0.000503496
0.031511
-0.00339036
0.0195418
-0.00518686
0.0101798
-0.00520801
0.00499416
-0.00507967
-0.000612732
-0.00588155
-0.00958304
-0.00788586
-0.0230677
-0.0139002
-0.0365529
-0.0170632
-0.0490425
-0.0159235
-0.0565756
-0.0111846
-0.0565978
-0.00399791
-0.0502718
0.00265563
-0.0406466
0.00960817
-0.0285282
0.014269
-0.0186013
0.0163602
-0.00962373
0.0152819
-0.00383628
0.0121038
-0.000673967
0.00930934
0.00113463
0.00696969
0.00204076
0.00478797
0.00233108
0.00302468
0.00225641
0.00170977
0.00196253
0.000782288
0.00156425
0.000176415
0.0011429
-0.000172825
0.000752209
-0.000331387
0.000427381
-0.000359594
0.000184062
-0.00030956
2.53066e-05
-0.00021991
-5.26189e-05
-0.000123087
-5.88007e-05
-2.8652e-05
0.0571088
0.00192664
0.031839
-0.000831466
0.0191407
-0.00298926
0.00795282
-0.00295989
0.00227891
-0.00249276
-0.00270493
-0.00298747
-0.0106601
-0.00480446
-0.0245338
-0.00641972
-0.0406508
-0.00980236
-0.0546843
-0.0114215
-0.0643821
-0.00811712
-0.0667199
-0.00106255
-0.061134
0.00686426
-0.0509793
0.0129883
-0.0370392
0.0181192
-0.0242639
0.0199316
-0.0130798
0.0198163
-0.00492377
0.0163694
-0.000469386
0.0118992
0.00173099
0.00871298
0.00286176
0.00614868
0.0032076
0.00391146
0.00307228
0.0022088
0.00267282
0.000999476
0.00214424
0.000202296
0.00158513
-0.00026582
0.00106282
-0.000483438
0.000622888
-0.000526897
0.00028557
-0.000461104
5.52949e-05
-0.000339551
-7.5237e-05
-0.000197295
-0.000118191
-6.37006e-05
-8.906e-05
6.04043e-05
0.0568262
0.00446121
0.0317583
0.00200735
0.0186382
-0.000328958
0.00531644
-0.000352875
-0.0007704
8.9414e-05
-0.00461769
-0.000579994
-0.011962
-0.00168558
-0.0262857
-0.00305253
-0.0422774
-0.0047931
-0.0601864
-0.0043002
-0.0719906
-0.0038129
-0.0759483
0.00111133
-0.0714522
0.00925566
-0.0601937
0.0160787
-0.045602
0.0215511
-0.0299078
0.0237631
-0.0170764
0.0239282
-0.00670824
0.0216007
-0.000248689
0.0161487
0.00263854
0.0109917
0.00389279
0.00768195
0.00433765
0.00501862
0.00414067
0.00284308
0.00360095
0.00128067
0.00290732
0.000236387
0.0021734
-0.000385972
0.00148182
-0.000684826
0.000892077
-0.000752629
0.000431422
-0.000672751
0.000106503
-0.000512316
-9.15059e-05
-0.000323285
-0.000180593
-0.000134896
-0.000181728
2.89643e-05
-0.000115668
0.000176069
0.0559945
0.00737509
0.031229
0.00499047
0.0177804
0.00286507
0.00260412
0.00238336
-0.0033503
0.00222703
-0.00620218
0.0016739
-0.0140339
0.00149186
-0.0281786
0.000207305
-0.0437846
-0.00154534
-0.0617406
-0.00323888
-0.0783833
0.00209249
-0.0841188
0.0043576
-0.0818195
0.0114786
-0.0689956
0.0180575
-0.0531849
0.0236616
-0.0356658
0.0273091
-0.020909
0.0275957
-0.00896724
0.0261872
-0.000371474
0.0217235
0.00399275
0.0147945
0.00533271
0.00955176
0.00573507
0.00628453
0.005513
0.00364629
0.00480488
0.00163915
0.0039022
0.000285791
0.00294905
-0.000539267
0.00204293
-0.000947085
0.00125985
-0.0010526
0.000638038
-0.000959248
0.000188551
-0.000754801
-9.85902e-05
-0.000505235
-0.000246012
-0.00025787
-0.000283067
-3.35613e-05
-0.000237859
0.000151151
-0.000136497
0.000312562
0.0534069
0.0169915
0.0303282
0.00827593
0.0166194
0.00615147
0.00085881
0.00461037
-0.00502914
0.0040622
-0.00825833
0.00428318
-0.0168192
0.00445921
-0.0300343
0.00334751
-0.0452451
0.00166783
-0.062769
-0.000516956
-0.079576
-0.00204622
-0.0904481
0.00842179
-0.0928464
0.0153846
-0.0772894
0.0197725
-0.0606392
0.0255118
-0.0417811
0.0297769
-0.0246113
0.0310114
-0.011153
0.0297815
-0.000926784
0.0267425
0.00544967
0.0202666
0.007523
0.0126042
0.00755515
0.00773168
0.00720855
0.00458898
0.0063473
0.00210386
0.00518777
0.000353579
0.00396333
-0.000728488
0.00278793
-0.00128427
0.00175861
-0.00144585
0.000927266
-0.00134183
0.000313847
-0.00108455
-9.12941e-05
-0.0007621
-0.000315617
-0.000435632
-0.000397102
-0.000143838
-0.000374039
0.000102616
-0.000282032
0.000296683
-0.000149532
0.00046209
0.0503462
0.022415
0.0287141
0.0186056
0.0158794
0.00901601
0.000390554
0.00661972
-0.00653891
0.00612015
-0.0110778
0.00688167
-0.01964
0.007104
-0.0318293
0.00625423
-0.0466394
0.00474177
-0.0635922
0.00249097
-0.0801809
8.79872e-05
-0.0916005
-0.000893864
-0.0936491
0.00922446
-0.0807933
0.0188885
-0.0668237
0.0259569
-0.0473687
0.0310994
-0.0282798
0.0334454
-0.0128917
0.0327501
-0.00141999
0.0302747
0.00658246
0.0256097
0.0103244
0.0174652
0.0102379
0.00992146
0.00931025
0.00562997
0.00826519
0.0026711
0.00683302
0.000458612
0.0052765
-0.000959601
0.00377008
-0.00171063
0.00242935
-0.00195501
0.00132844
-0.00184703
0.000499628
-0.00152761
-6.25242e-05
-0.00111332
-0.000389433
-0.000688288
-0.000529233
-0.000303505
-0.000532171
1.42897e-05
-0.000446113
0.000266693
-0.000310016
0.000457163
-0.000153389
0.000615475
0.0459948
0.0267593
0.0276059
0.0235232
0.0159641
0.0185209
0.0004297
0.00897687
-0.0082822
0.00836301
-0.0140968
0.00913912
-0.0222173
0.00945896
-0.0335931
0.00886778
-0.0479239
0.00753873
-0.0642443
0.00539396
-0.0804613
0.00277129
-0.0923192
0.000806748
-0.0948035
0.000260558
-0.0872237
0.0156548
-0.0713128
0.0233776
-0.0518556
0.0304439
-0.0314283
0.0342478
-0.0141703
0.0347241
-0.00137802
0.0327081
0.00760716
0.02925
0.013067
0.022867
0.0139735
0.0137297
0.0122087
0.007023
0.0105913
0.00330382
0.00889585
0.00060826
0.00696178
-0.00122666
0.00505179
-0.00224132
0.00332596
-0.00260725
0.00188012
-0.00250669
0.000769958
-0.00211736
-1.49335e-06
-0.00158864
-0.000466765
-0.00103599
-0.000685223
-0.0005323
-0.000721792
-0.000113888
-0.000640209
0.000208382
-0.000492367
0.00044904
-0.00031888
0.000622649
-0.000147036
0.000762507
0.0415418
0.0282336
0.0273572
0.0270081
0.015779
0.0237083
0.000740897
0.0182097
-0.0098794
0.0105741
-0.0168102
0.0110764
-0.0246062
0.011528
-0.0353023
0.0111682
-0.0490492
0.0099931
-0.064727
0.00802139
-0.0804277
0.00536038
-0.0924053
0.00285735
-0.0962482
0.00225142
-0.0905902
0.00362705
-0.0760015
0.0203435
-0.0558061
0.0273281
-0.0339114
0.0329271
-0.0149825
0.03506
-0.000809885
0.034156
0.0090137
0.0313016
0.0154919
0.0268251
0.0181283
0.0187122
0.0163817
0.00955663
0.013568
0.00404633
0.0114051
0.000794587
0.00909396
-0.00152392
0.00671149
-0.00288636
0.00451395
-0.00342931
0.00263451
-0.00336163
0.00115808
-0.00289482
0.000108361
-0.00222722
-0.000544825
-0.00151059
-0.000871595
-0.000849623
-0.000954497
-0.000299598
-0.000877552
0.000123451
-0.000710838
0.000426849
-0.000507943
0.000638099
-0.000306429
0.000782038
-0.000130749
0.000893252
0.0375487
0.0278843
0.0261372
0.0294536
0.0150456
0.0277415
0.00107271
0.0233765
-0.0108873
0.0192176
-0.0189814
0.0127453
-0.0267866
0.0132568
-0.0369194
0.0131451
-0.0499947
0.0121136
-0.0649708
0.0102369
-0.0800181
0.00761183
-0.0918601
0.0048152
-0.0965356
0.00314478
-0.0918812
0.00354245
-0.0785458
0.00617141
-0.0586609
0.0231983
-0.0359448
0.0293614
-0.0153424
0.033287
0.000142435
0.0341077
0.0108518
0.0323179
0.0179609
0.0288326
0.0219599
0.0229935
0.0215459
0.0135481
0.0177557
0.00536892
0.0144639
0.000987516
0.0117322
-0.0018437
0.00883777
-0.00365021
0.00607825
-0.00445066
0.00365838
-0.00445319
0.00171123
-0.00391479
0.000291363
-0.00307782
-0.000617708
-0.00215434
-0.00109506
-0.00128713
-0.00124433
-0.000559789
-0.00117512
-2.02941e-06
-0.000981502
0.000394111
-0.000736625
0.000655527
-0.000489198
0.000820863
-0.000273115
0.0009244
-0.000105444
0.000998692
0.0327518
0.027027
0.0234223
0.0305992
0.0140104
0.0304888
0.00141147
0.0274027
-0.01085
0.0233391
-0.020524
0.0207602
-0.0286607
0.0146194
-0.0383831
0.0147206
-0.0507489
0.0138994
-0.0649727
0.0121156
-0.0793438
0.00956255
-0.0908128
0.00656452
-0.0958303
0.00410987
-0.0921792
0.00344275
-0.0797688
0.00476542
-0.0605816
0.00809209
-0.0371239
0.0243774
-0.0153821
0.0294011
0.00126496
0.0321644
0.0128856
0.0320739
0.0206366
0.0296421
0.0254416
0.0253509
0.0267613
0.0177781
0.0233319
0.00797193
0.0184921
0.00134075
0.0149271
-0.00220736
0.0115299
-0.00453587
0.00812431
-0.00569627
0.00504442
-0.0058367
0.00249447
-0.00523642
0.000584752
-0.00420818
-0.000673673
-0.00302186
-0.00136251
-0.00188689
-0.00160838
-0.000923078
-0.00155409
-0.00018083
-0.0013257
0.000342167
-0.00102264
0.000680123
-0.000711937
0.000878261
-0.000436772
0.000984515
-0.00022058
0.00103953
-7.24846e-05
0.00107117
0.0277142
0.0248853
0.0204982
0.0299511
0.0128964
0.0317132
0.00174699
0.0301533
-0.0101831
0.0267358
-0.0208202
0.0236353
-0.0298766
0.0219761
-0.0395941
0.0158304
-0.0512886
0.0152603
-0.0647129
0.0136396
-0.0782304
0.0110022
-0.0892322
0.00798199
-0.0942598
0.00499398
-0.0912908
0.00322148
-0.0798451
0.00351908
-0.0615703
0.00575414
-0.0388467
0.00981489
-0.0148505
0.0238458
0.00215905
0.028507
0.0147137
0.0303363
0.0232849
0.0294256
0.0288044
0.0262793
0.0314078
0.0207045
0.0296308
0.0114792
0.0239453
0.00251866
0.0188713
-0.00260346
0.0148607
-0.00553813
0.0107853
-0.00719689
0.00691813
-0.00756999
0.00360469
-0.00694692
0.00104551
-0.00569718
-0.000691119
-0.00419073
-0.00167885
-0.00270552
-0.00206752
-0.00142775
-0.00204167
-0.000435499
-0.00177047
0.000263935
-0.0013901
0.000709625
-0.000992532
0.000960714
-0.000637464
0.00107895
-0.000353241
0.00111717
-0.00015182
0.00111886
-3.42299e-05
0.0011054
0.0227902
0.0222193
0.0173826
0.0280009
0.0115202
0.0313273
0.00197552
0.0314846
-0.00916468
0.0291349
-0.0201048
0.0260204
-0.0299528
0.0237115
-0.0397956
0.0221776
-0.0515752
0.0161169
-0.0641495
0.0146969
-0.0766872
0.0120963
-0.0871501
0.00892013
-0.0918252
0.00554738
-0.0892579
0.00296112
-0.0787958
0.00217215
-0.0615148
0.00346353
-0.0399074
0.00681487
-0.0162162
0.0111806
0.0024739
0.023531
0.0157889
0.0274319
0.0254569
0.0281643
0.0319622
0.0262678
0.0355964
0.0220907
0.035551
0.0147842
0.0307054
0.00471918
0.0240077
-0.00261768
0.0188625
-0.00660527
0.01417
-0.00892276
0.00943367
-0.00971243
0.00518179
-0.00914709
0.00176739
-0.0076688
-0.000629263
-0.00575904
-0.00204394
-0.00382565
-0.00264621
-0.00212684
-0.00267305
-0.000796372
-0.00235176
0.000145786
-0.00186988
0.000743711
-0.00135578
0.00107287
-0.000891723
0.00121497
-0.000516878
0.00124258
-0.000243426
0.00120877
-7.1877e-05
0.0011565
6.71509e-06
0.00109868
0.0179878
0.0191307
0.0142926
0.0253093
0.00986417
0.029657
0.00195755
0.0313453
-0.0080526
0.0303725
-0.0186975
0.0277275
-0.0289493
0.0250169
-0.03902
0.0229359
-0.050219
0.0208214
-0.0632363
0.0152037
-0.0747506
0.0127603
-0.0840688
0.00901499
-0.0886255
0.00572043
-0.0861716
0.00246104
-0.0766536
0.000818931
-0.0604966
0.00115394
-0.0402807
0.0038368
-0.0177028
0.00830146
0.000720442
0.012934
0.0157557
0.0235642
0.0265653
0.0263235
0.0345524
0.025574
0.0394716
0.0223926
0.0408956
0.0167462
0.0376613
0.00782831
0.0306031
-0.00187622
0.0237862
-0.00754139
0.0182682
-0.0107035
0.0127059
-0.012195
0.00737415
-0.0119048
0.00288103
-0.0102607
-0.000412243
-0.00788582
-0.00244245
-0.00536053
-0.00337063
-0.00310123
-0.00349279
-0.0013071
-0.00311741
-3.07245e-05
-0.00250393
0.000779833
-0.00183366
0.00122158
-0.00122278
0.00140392
-0.000725213
0.0014233
-0.000357297
0.00135645
-0.000115506
0.0012524
1.37558e-05
0.00114946
4.75085e-05
0.00105116
0.0137166
0.0161838
0.0110769
0.0223463
0.00794078
0.0272327
0.00162634
0.0299882
-0.00701982
0.0303125
-0.0169506
0.0286257
-0.0271043
0.0258826
-0.0372211
0.023218
-0.0479732
0.0206902
-0.0599328
0.0175178
-0.0725406
0.0129937
-0.0807335
0.00942503
-0.0848315
0.00522102
-0.0823197
0.00186857
-0.0736584
-0.000534163
-0.0586833
-0.000994339
-0.0399912
0.00086445
-0.0192428
0.00537684
-0.00117201
0.0101939
0.0136459
0.0150438
0.0262993
0.0238301
0.0359559
0.02492
0.042819
0.0222266
0.0458354
0.0174528
0.0444349
0.00997257
0.0382113
0.000220076
0.029856
-0.00794601
0.0231297
-0.0124029
0.0167503
-0.0147479
0.0102747
-0.0150955
0.00448888
-0.0135126
4.02976e-05
-0.0107133
-0.00283984
-0.00748843
-0.00426002
-0.00447114
-0.00455532
-0.0020387
-0.00413049
-0.000294028
-0.00334901
0.000814349
-0.00247018
0.00141635
-0.00166064
0.00165944
-0.000997702
0.00167641
-0.000503082
0.00156908
-0.000170864
0.0014118
2.15681e-05
0.00124458
9.90863e-05
0.00109788
8.52354e-05
0.000965922
0.0103703
0.0131289
0.00818247
0.0190783
0.00590995
0.0243772
0.000936213
0.0279228
-0.00622845
0.0291968
-0.0151068
0.0284687
-0.0247238
0.0262451
-0.0346264
0.0232879
-0.0448463
0.0200911
-0.0557573
0.0165147
-0.0671125
0.0120896
-0.0772472
0.00950739
-0.0809829
0.00557641
-0.0787651
0.00166639
-0.070101
-0.00168886
-0.0563105
-0.00290693
-0.0391458
-0.00183969
-0.020812
0.0024337
-0.0030351
0.00723992
0.011121
0.0127188
0.023974
0.0173691
0.035949
0.023837
0.0450672
0.0226717
0.0502588
0.0178032
0.0507156
0.0111721
0.0460137
0.00217021
0.0374917
-0.00741564
0.0287739
-0.0135903
0.0215629
-0.0172155
0.0139679
-0.0184411
0.00666712
-0.0172738
0.000752857
-0.0142252
-0.00325324
-0.0102999
-0.00535042
-0.00639803
-0.00592263
-0.00310384
-0.0054723
-0.000696898
-0.0044821
0.00083906
-0.00332543
0.0016696
-0.00224694
0.00200265
-0.00135944
0.00202118
-0.000694616
0.00186794
-0.000242691
0.0016409
2.9075e-05
0.00140429
0.000158041
0.00118562
0.000177952
0.00100515
0.000117406
0.000848511
0.00812808
0.0105168
0.0060229
0.0152885
0.00421963
0.0207686
0.000188343
0.025125
-0.00573253
0.0274269
-0.0133749
0.027465
-0.0221532
0.0258981
-0.0313827
0.0230014
-0.041116
0.0195575
-0.0510066
0.0153404
-0.0609627
0.010365
-0.0698852
0.00472766
-0.0758801
0.00440462
-0.0736534
0.000464707
-0.0658253
-0.00260929
-0.0533273
-0.00467208
-0.0379753
-0.00407749
-0.0220553
-0.000596451
-0.00512835
0.00452695
0.00807265
0.0102882
0.0210869
0.0156059
0.0337624
0.0195557
0.0460323
0.022872
0.0539682
0.0189623
0.056291
0.0122279
0.0534773
0.00370838
0.0454801
-0.00581819
0.0356993
-0.014341
0.0271085
-0.0191358
0.0185807
-0.0218283
0.00965616
-0.0214302
0.00185453
-0.0183754
-0.00372575
-0.0137527
-0.00678568
-0.00886464
-0.00772554
-0.00459512
-0.00725117
-0.00132497
-0.00600623
0.000827231
-0.00448253
0.00199615
-0.00303862
0.00246127
-0.00184526
0.00248846
-0.000949555
0.00227611
-0.00033797
0.00196321
3.67934e-05
0.00163318
0.000228003
0.00133432
0.000283929
0.00107964
0.000245077
0.000877477
0.000141991
0.000706514
0.00659964
0.00856333
0.00471797
0.0118217
0.00314654
0.0163616
-0.000169856
0.0211268
-0.00513581
0.0245283
-0.0117434
0.0257954
-0.0195293
0.0248411
-0.0279919
0.0225073
-0.03676
0.0186455
-0.0458891
0.0144401
-0.0547047
0.00908237
-0.0623308
0.00281052
-0.0674533
-0.00369913
-0.0679695
-0.00127925
-0.0605012
-0.00485938
-0.0496283
-0.00630836
-0.0367037
-0.00594362
-0.0229988
-0.00313393
-0.00802168
0.00229688
0.00463538
0.00796422
0.0176716
0.0137036
0.0309873
0.0183811
0.0444737
0.0211144
0.0566031
0.0202371
0.0618334
0.0134199
0.0600406
0.00566458
0.0532712
-0.00408267
0.0434072
-0.0135261
0.0333466
-0.0205792
0.024164
-0.0247191
0.01382
-0.0259922
0.00388117
-0.0234568
-0.00393847
-0.0181627
-0.00860671
-0.0119317
-0.0102206
-0.00636962
-0.00969771
-0.00214859
-0.008076
0.000744794
-0.00605663
0.00240133
-0.00411538
0.00307291
-0.00250264
0.00311866
-0.00129221
0.00283111
-0.000465266
0.0024034
4.50945e-05
0.00195491
0.000314568
0.00154661
0.000411148
0.0012071
0.000390744
0.000933964
0.000296174
0.000723289
0.000157263
0.000549246
0.00534892
0.00689536
0.00390392
0.00937738
0.00256012
0.0124081
-9.21898e-05
0.0162839
-0.00413837
0.0201293
-0.00978243
0.0225673
-0.0166787
0.0229448
-0.0243766
0.0212258
-0.0322816
0.0180289
-0.0404305
0.0131868
-0.0482394
0.00797479
-0.0550659
0.00181748
-0.0596318
-0.00501097
-0.0604703
-0.0111983
-0.0562066
-0.00557381
-0.0468401
-0.0076475
-0.0357428
-0.00726923
-0.0242301
-0.00471237
-0.0117247
0.000569128
0.00104069
0.00589157
0.0138597
0.0117761
0.0276922
0.0169987
0.0424321
0.0204226
0.0562341
0.0214834
0.0666368
0.0154337
0.0671345
0.00632602
0.060929
-0.00199326
0.0512183
-0.0118937
0.0404005
-0.0205799
0.0302536
-0.0266688
0.0192265
-0.0301256
0.00736673
-0.0294778
-0.00298292
-0.0244123
-0.0101793
-0.0165901
-0.0133467
-0.00880555
-0.0131252
-0.00294216
-0.0109915
0.000766891
-0.00823143
0.00291959
-0.00559164
0.0038776
-0.00339854
0.0039688
-0.00175537
0.00358181
-0.000636018
0.00300186
5.51043e-05
0.00239339
0.000425212
0.00184426
0.000569631
0.00138812
0.000566036
0.0010318
0.000471667
0.000758466
0.000327624
0.000552921
0.000162596
0.000386644
0.0042602
0.00531775
0.00323372
0.00756556
0.00217503
0.00976246
9.69215e-05
0.012219
-0.00301401
0.0151595
-0.0075346
0.0178815
-0.0133984
0.019287
-0.0202165
0.0187847
-0.0275534
0.0164975
-0.0347232
0.0123216
-0.0418606
0.00680798
-0.0477201
0.000628953
-0.0520383
-0.00577606
-0.0535436
-0.0119377
-0.0511689
-0.016236
-0.0446016
-0.00781236
-0.0355063
-0.007884
-0.0258373
-0.00566199
-0.0154265
-0.00101061
-0.00245938
0.0040692
0.0098728
0.00987852
0.0240034
0.0154648
0.0399834
0.0194474
0.0555464
0.0211103
0.0677799
0.0203402
0.0743036
0.00826463
0.0686474
-0.00139235
0.059051
-0.00982591
0.0476086
-0.0191019
0.0366998
-0.0270261
0.0252553
-0.0326975
0.0121516
-0.0349104
-0.000454819
-0.0320059
-0.0103899
-0.0242017
-0.016176
-0.0137608
-0.0173244
-0.00460633
-0.01505
0.00111635
-0.0113108
0.00384623
-0.00764894
0.00497688
-0.00463242
0.00511147
-0.00238527
0.00459869
-0.000864995
0.00381079
6.90313e-05
0.00298793
0.000570262
0.00224833
0.00077302
0.00164086
0.000784413
0.00116974
0.000682769
0.000820692
0.000521023
0.000565062
0.000338183
0.000377328
0.000157765
0.000228873
0.00337483
0.00400723
0.00261863
0.00593284
0.00184572
0.00789488
0.000213947
0.00964544
-0.0021785
0.0113835
-0.00558796
0.0132129
-0.0101765
0.0146597
-0.0158604
0.0149309
-0.022214
0.0134454
-0.0288073
0.0105816
-0.0351249
0.00558595
-0.0407064
-0.000205659
-0.0446591
-0.00675024
-0.0466835
-0.0126362