/*--------------------------------*- C++ -*----------------------------------*\
| =========                 |                                                 |
| \\      /  F ield         | OpenFOAM: The Open Source CFD Toolbox           |
|  \\    /   O peration     | Version:  2506                                  |
|   \\  /    A nd           | Website:  www.openfoam.com                      |
|    \\/     M anipulation  |                                                 |
\*---------------------------------------------------------------------------*/
FoamFile
{
    version     2.0;
    format      ascii;
    arch        "LSB;label=32;scalar=64";
    class       volScalarField;
    location    "70.020198564267872";
    object      mag(vorticity);
}
// * * * * * * * * * * * * * * * * * * * * * * * * * * * * * * * * * * * * * //

dimensions      [0 0 -1 0 0 0 0];

internalField   nonuniform List<scalar> 
9700
(
5.91687e-05
0.000582324
0.000274102
0.00124985
0.000801101
6.52386e-05
0.00193113
0.00105557
0.000236578
6.69221e-05
0.00264327
0.00144361
0.000138053
0.000348807
3.91833e-05
0.00348347
0.00191834
8.79676e-05
0.000349673
0.000321331
1.57953e-05
0.00443825
0.00242734
8.2689e-05
0.000445456
0.000293506
0.000332036
2.94875e-06
0.00560353
0.00300873
5.11398e-05
0.000555752
0.000382716
0.000330112
0.000308721
9.05033e-06
0.00709148
0.0036502
2.22223e-05
0.000663577
0.00047013
0.000416763
0.000321471
0.000277857
1.81905e-05
0.0089303
0.00422474
8.65129e-05
0.000768691
0.00057171
0.000512142
0.000414458
0.000311525
0.000253785
3.33853e-05
0.0111143
0.00478101
0.000224053
0.000855575
0.000631708
0.000615408
0.000528481
0.000418744
0.000321211
0.000229147
0.000121083
0.0136754
0.00572359
0.000461824
0.000922088
0.000668489
0.000685869
0.000642568
0.000539143
0.000439864
0.000324807
0.000213674
0.000130363
0.0167544
0.00715941
0.000798646
0.000990183
0.000721623
0.000750784
0.00070755
0.000656842
0.000544127
0.000442001
0.000293517
0.00020773
0.000115387
0.0205268
0.00879654
0.00124022
0.00101188
0.000696601
0.000820353
0.00077978
0.000737959
0.00065278
0.000545887
0.000426962
0.00031388
0.00016442
6.81813e-05
0.0250234
0.0107784
0.00160301
0.00103919
0.000648681
0.000822089
0.000814953
0.000798144
0.000747936
0.000675217
0.00055808
0.000434589
0.000317882
0.00017932
5.42986e-05
0.0306235
0.0132206
0.0019655
0.00129768
0.000663595
0.00078319
0.000823218
0.000832009
0.000831661
0.000759857
0.000681253
0.00053374
0.000446496
0.0002962
0.000151947
2.30675e-05
0.0376667
0.0151633
0.00305123
0.00125086
0.000705564
0.000883112
0.000867815
0.000859961
0.000869541
0.000817558
0.00077391
0.000656897
0.000527185
0.000409007
0.000282618
0.000142001
9.64797e-06
0.0460029
0.0156156
0.0062825
0.000743678
0.00015358
0.000855365
0.00101382
0.000955401
0.000871015
0.000862326
0.000806656
0.000765327
0.000636788
0.000528708
0.000398234
0.000282439
0.00013564
2.94621e-05
0.0547711
0.0148769
0.012604
0.00653113
0.00480994
0.00147741
0.000458132
0.00109867
0.00101811
0.00090082
0.000850348
0.00081625
0.000749805
0.000632653
0.000535982
0.000385386
0.000270797
0.000116291
4.8067e-05
0.0615983
0.0140615
0.0209314
0.0162605
0.0149626
0.00968426
0.00415929
0.000336105
0.00110434
0.00111492
0.000948295
0.000853605
0.00079921
0.000712167
0.000633193
0.000485131
0.000380024
0.000241839
0.000112546
6.20046e-05
0.0667774
0.0164863
0.0294798
0.0275263
0.0288602
0.023686
0.0160965
0.00772826
0.0016269
0.000952414
0.00119907
0.000976627
0.000835534
0.00078306
0.000676923
0.00060687
0.000465099
0.00036168
0.00023501
0.000128718
6.69639e-05
0.0686423
0.0219894
0.0373673
0.0385699
0.0432623
0.0396323
0.032057
0.0223427
0.0117416
0.00328757
0.000610116
0.00124109
0.000988211
0.000841536
0.000752304
0.000688026
0.000576021
0.000461353
0.000353813
0.000241808
0.000122625
9.02293e-05
0.0630115
0.0321894
0.0438246
0.049021
0.0579606
0.0549537
0.0470963
0.0370102
0.0267277
0.0152422
0.00506417
0.000177281
0.00126723
0.000972782
0.000811916
0.000726057
0.000648613
0.000527336
0.000431377
0.000307853
0.000231298
0.000124759
8.1094e-05
0.0490728
0.0516002
0.0476426
0.0585932
0.0742014
0.0731381
0.0624417
0.0486876
0.0367031
0.0277512
0.0173768
0.00656865
0.000254807
0.00118536
0.000959083
0.00075634
0.00069314
0.000611208
0.000512727
0.000402257
0.000295168
0.000199094
0.000120842
6.85077e-05
0.0501864
0.0793395
0.0466832
0.0654722
0.0916422
0.0972866
0.0865604
0.0656515
0.0446702
0.0310184
0.0249378
0.0176631
0.00749016
0.000573739
0.00112793
0.000910805
0.000738053
0.00066861
0.000598194
0.000488409
0.000380259
0.000297247
0.000192192
0.00012323
6.67316e-05
0.0599913
0.114814
0.0401738
0.0680471
0.107593
0.125983
0.122827
0.100244
0.0679487
0.0376589
0.0216603
0.0191136
0.0161972
0.00763168
0.000742372
0.0010226
0.000831769
0.00069882
0.000635559
0.00055935
0.000462071
0.000378188
0.000278291
0.000215627
0.000100794
5.95261e-05
0.0541801
0.14342
0.027148
0.06441
0.119355
0.154481
0.16717
0.153224
0.118152
0.0730007
0.0308004
0.0112479
0.0119327
0.0137004
0.00708436
0.000658511
0.000934931
0.000786172
0.000665242
0.000601579
0.000522462
0.000426853
0.000370518
0.000257508
0.000186299
0.00012099
4.72356e-05
0.0245
0.170233
0.0081403
0.0553887
0.123849
0.17862
0.212528
0.216969
0.190552
0.141512
0.0818272
0.0255854
0.00180297
0.00521416
0.0110191
0.0060721
0.000382595
0.000857433
0.00071082
0.000620115
0.000560105
0.000481276
0.000411747
0.000342463
0.0002871
0.000193381
0.000137643
3.0995e-05
0.00705055
0.202475
0.0132859
0.0410213
0.121057
0.194067
0.253942
0.283054
0.275811
0.232421
0.167155
0.0927989
0.0213305
0.00590853
0.000237728
0.00883721
0.00484396
6.4811e-05
0.000750441
0.000644485
0.000586023
0.000546634
0.000468396
0.000412734
0.000339233
0.000264322
0.000191584
0.000132812
1.27098e-05
0.0830276
0.241375
0.0387721
0.0252015
0.110416
0.198839
0.284259
0.345821
0.365501
0.338967
0.272275
0.19456
0.0954553
0.016297
0.0120909
0.00257934
0.00729673
0.00354723
0.000195109
0.000665853
0.000603851
0.000563119
0.000500293
0.000441404
0.000371689
0.000325483
0.000262532
0.000190495
0.000116462
4.46551e-06
0.0928092
0.27999
0.0683052
0.00654246
0.0972246
0.191446
0.299549
0.393552
0.45195
0.453012
0.397663
0.280893
0.213742
0.0804829
0.00953961
0.0170144
0.00330502
0.00621846
0.00233111
0.000413356
0.000603789
0.000548153
0.000534811
0.000478436
0.000426305
0.000390308
0.000327742
0.000248323
0.000183486
0.000126155
4.63229e-05
0.169819
0.319501
0.101701
0.0143151
0.0817689
0.17911
0.297254
0.422581
0.517698
0.562001
0.533537
0.440156
0.291875
0.196071
0.0758657
0.000176615
0.0201443
0.00235224
0.00520423
0.00125694
0.000489619
0.000548582
0.000548011
0.000514451
0.000471307
0.000448156
0.000376653
0.000340641
0.000270089
0.000194539
0.000131961
7.19663e-05
0.226831
0.361754
0.13813
0.037114
0.0639671
0.160565
0.285526
0.427068
0.565265
0.645033
0.659433
0.592798
0.466796
0.310636
0.178638
0.0639228
0.011405
0.0207928
0.000433592
0.00412203
0.000458809
0.000479562
0.000491627
0.000500883
0.00050086
0.00047249
0.000437699
0.000400652
0.000350233
0.000292143
0.000206718
0.000106562
8.92777e-05
0.278627
0.394636
0.172019
0.0535652
0.049095
0.138262
0.239753
0.416242
0.575717
0.717067
0.758496
0.726956
0.618982
0.470781
0.304429
0.156375
0.0413125
0.0222831
0.0184773
0.00163252
0.00286755
2.46878e-05
0.00042144
0.000473735
0.000507984
0.00047934
0.000457322
0.000445412
0.00041044
0.000357143
0.000288232
0.000207682
9.50039e-05
0.000108879
0.309961
0.417315
0.200906
0.0590911
0.0288092
0.101364
0.221956
0.396941
0.5633
0.724394
0.853139
0.839118
0.753246
0.606834
0.432921
0.261316
0.122382
0.0157519
0.0295187
0.0136029
0.00295629
0.00164994
0.000248866
0.000414101
0.000463659
0.000472422
0.000491808
0.000479444
0.000452822
0.000397577
0.000375507
0.000310333
0.00021078
9.51827e-05
0.00010948
0.350282
0.432353
0.228688
0.0777051
0.00417948
0.0570404
0.207648
0.370775
0.539602
0.708287
0.84198
0.929208
0.869899
0.734089
0.55878
0.374122
0.212981
0.0839066
0.00781354
0.0312672
0.0074677
0.0032049
0.00072217
0.000291087
0.000370728
0.000447132
0.00050004
0.00049891
0.000482916
0.000467885
0.000419914
0.000383245
0.000320048
0.00022943
7.96145e-05
0.000117859
0.324135
0.441728
0.259069
0.108673
0.0404581
0.0454797
0.187002
0.339881
0.507148
0.680107
0.830163
0.908934
0.910834
0.837867
0.671141
0.48368
0.306465
0.160777
0.0452024
0.0261859
0.0271312
0.00195512
0.00253685
0.000199368
0.000264756
0.000382517
0.000447754
0.000500284
0.000499979
0.000516778
0.000501083
0.000457148
0.000412154
0.00032707
0.000227006
8.81955e-05
0.000115048
0.4072
0.438919
0.288152
0.163368
0.0591742
0.0426657
0.160123
0.304781
0.468375
0.64095
0.800175
0.910868
0.931584
0.85218
0.752375
0.575675
0.393473
0.234949
0.108005
0.00950926
0.036444
0.018785
0.00150528
0.00152343
4.36274e-06
0.000237883
0.000359744
0.000461002
0.000522997
0.000537911
0.000547481
0.000515339
0.000499553
0.000425337
0.00036112
0.000255655
6.15229e-05
8.35339e-05
0.384216
0.419074
0.302456
0.189889
0.0724019
0.0258007
0.13405
0.268134
0.425488
0.593983
0.755236
0.878661
0.929867
0.900049
0.782944
0.639689
0.463285
0.299858
0.165584
0.0585198
0.0194183
0.0369637
0.00925998
0.00258984
0.000749232
1.55042e-05
0.000218475
0.000369469
0.000485534
0.000555192
0.000562339
0.000552684
0.000561464
0.000518678
0.000452601
0.000372411
0.000264379
7.59805e-05
5.6976e-05
0.328543
0.424521
0.297102
0.205627
0.0913865
0.00788642
0.109948
0.232228
0.380294
0.542154
0.700641
0.829589
0.899236
0.885237
0.808979
0.669342
0.507615
0.347963
0.211965
0.102909
0.0152718
0.0377841
0.0290902
0.00189435
0.00207088
0.000345452
1.17914e-05
0.000211482
0.000388228
0.000490863
0.000578055
0.000619284
0.000607941
0.000605817
0.00055285
0.000488561
0.000416279
0.000262099
8.29268e-05
4.15735e-05
0.254131
0.358217
0.267394
0.207411
0.107323
0.012411
0.0863789
0.199173
0.335048
0.487781
0.639573
0.768897
0.848207
0.856949
0.792922
0.670436
0.520747
0.372155
0.241844
0.135206
0.048895
0.0191508
0.0433014
0.0171871
0.00159341
0.00108071
0.000200245
2.44024e-05
0.000240443
0.000397274
0.000530501
0.000618977
0.00063144
0.000641057
0.000635615
0.000578296
0.000509584
0.000413463
0.000292573
7.3894e-05
2.63129e-05
0.175345
0.283599
0.22616
0.19424
0.115525
0.030309
0.0614015
0.167712
0.291663
0.432578
0.575989
0.699222
0.782423
0.804363
0.757363
0.65237
0.507953
0.370484
0.251061
0.152077
0.0709465
0.0042992
0.041652
0.0368804
0.006693
0.001855
0.000292074
5.48944e-05
0.000103484
0.000264571
0.000416516
0.000546827
0.000629709
0.000671988
0.000675742
0.000643738
0.000593669
0.000539126
0.000430699
0.000292787
5.72387e-05
1.42129e-05
0.090792
0.206795
0.176877
0.16801
0.112292
0.0425296
0.0386385
0.134398
0.250264
0.37694
0.510072
0.626374
0.705126
0.734205
0.702537
0.615077
0.484459
0.350329
0.241028
0.152257
0.079081
0.018067
0.0295899
0.0496332
0.0237281
0.000931915
0.000758581
9.56539e-05
0.000100988
0.000239835
0.000357186
0.000467918
0.000586424
0.00066583
0.000706672
0.000715289
0.000684693
0.000634956
0.000548717
0.000444535
0.000306595
8.33706e-05
4.13486e-05
0.0340893
0.132185
0.123048
0.131383
0.0978366
0.0461563
0.0214154
0.102193
0.205577
0.324863
0.440518
0.549952
0.618624
0.651635
0.630472
0.560418
0.44996
0.312266
0.21945
0.138306
0.0736987
0.0197151
0.024615
0.0505525
0.0436274
0.0110103
0.000615433
0.000214352
6.01163e-05
0.000128722
0.000367086
0.000464132
0.000545154
0.000626916
0.000692237
0.000751079
0.000743796
0.000719356
0.00065043
0.00057589
0.000460804
0.000321546
8.14883e-05
6.36073e-05
0.0190876
0.061971
0.0666076
0.0882866
0.0738579
0.0407761
0.0111449
0.0770882
0.159094
0.266893
0.37812
0.47005
0.516087
0.560343
0.548908
0.49137
0.402022
0.273618
0.195163
0.117153
0.0569124
0.0096933
0.0286784
0.0565678
0.0576888
0.029293
0.00300261
0.00116833
0.00144416
0.00133254
0.000517572
0.000226535
0.000561005
0.000663117
0.000703357
0.000729274
0.00079035
0.000775188
0.000745191
0.000665181
0.000584472
0.000447277
0.000319597
7.39578e-05
7.43832e-05
0.0374296
0.00857624
0.0121844
0.0404039
0.0423586
0.0269177
0.00874481
0.0586007
0.123632
0.20243
0.305127
0.396876
0.4851
0.463666
0.458158
0.415854
0.343667
0.244167
0.167308
0.095848
0.0361159
0.0114574
0.0435806
0.0665193
0.0751621
0.0544186
0.0143185
0.0016728
0.00419614
0.00542639
0.0044509
0.00228388
0.000422072
0.00050437
0.000783852
0.000798017
0.000801341
0.000815235
0.000812183
0.000771218
0.000689569
0.000587847
0.000457537
0.000327921
8.38804e-05
9.96866e-05
0.0231521
0.00909659
0.0238061
0.00464028
0.00526546
0.00427897
0.0131118
0.0490625
0.09517
0.156344
0.223972
0.307368
0.375256
0.43501
0.381873
0.337928
0.278171
0.204924
0.132943
0.0744179
0.0161997
0.033897
0.0729822
0.0857149
0.0920074
0.0771441
0.0415891
0.000887929
0.00754353
0.0115703
0.0125138
0.00966367
0.00541119
0.00187628
9.03765e-05
0.000834857
0.000914276
0.000856206
0.000839671
0.00084244
0.000797519
0.000702169
0.000586618
0.00047128
0.000304551
0.00011337
0.000103993
0.00667755
0.0025556
0.0263479
0.0282226
0.0260584
0.0222572
0.0283585
0.0435343
0.0789113
0.117745
0.169662
0.21989
0.271948
0.300514
0.291873
0.259496
0.21286
0.159028
0.0690541
0.0484479
0.00341442
0.0552532
0.100004
0.128601
0.113493
0.101594
0.0632117
0.0203413
0.00997741
0.0186858
0.0231467
0.0217082
0.0159072
0.00936472
0.00416472
0.000816535
0.000727371
0.00103085
0.000928576
0.000869895
0.000866528
0.00080314
0.000711503
0.000577522
0.000470972
0.000307188
9.8142e-05
0.000100471
0.00488355
0.0143474
0.00817458
0.0214104
0.0339735
0.0384921
0.0422036
0.051843
0.0636156
0.0948247
0.123597
0.160375
0.192092
0.212148
0.209447
0.187627
0.153385
0.113809
0.0544223
0.0197789
0.027287
0.0774575
0.126391
0.163161
0.172416
0.125851
0.0927488
0.0411485
0.00283176
0.0252871
0.0363778
0.0369314
0.0301694
0.0204728
0.0125275
0.00671133
0.00222498
0.000478908
0.00112852
0.00098458
0.000911859
0.00089183
0.000813334
0.000721168
0.000609217
0.000447431
0.000307219
0.00012092
8.79998e-05
0.00904683
0.0127568
0.00377881
0.00262875
0.0182844
0.0319614
0.0423451
0.0506108
0.0626742
0.0739126
0.0932124
0.112333
0.131514
0.147039
0.145874
0.130296
0.104772
0.0745198
0.0327962
0.0108076
0.0538444
0.104966
0.156122
0.197604
0.218101
0.192747
0.12462
0.0684163
0.0128259
0.028344
0.0511177
0.0598501
0.050384
0.0342531
0.0198528
0.0126253
0.00865878
0.00387686
0.000141927
0.00119283
0.00100681
0.000925745
0.000890128
0.000822602
0.000694317
0.000577949
0.00045152
0.000309187
0.000105224
9.83951e-05
0.0100862
0.00673468
0.00299697
0.00593177
0.000585101
0.0118134
0.0249407
0.0368894
0.0466112
0.0577807
0.0714531
0.0779695
0.08714
0.0921082
0.0959478
0.0854015
0.0666442
0.0423355
0.00550759
0.0514884
0.0830207
0.136921
0.192948
0.23969
0.261621
0.255196
0.181875
0.108347
0.034341
0.0220601
0.0649842
0.089852
0.0888816
0.0627032
0.0318061
0.0117377
0.00801359
0.00924796
0.00535229
0.000166566
0.00121309
0.00102972
0.000960501
0.000896121
0.000790761
0.000685593
0.000564584
0.000431063
0.000304584
0.00014608
8.63566e-05
0.00851155
0.00365814
0.000665601
0.00383621
0.0045271
0.00194635
0.00537044
0.015043
0.0251931
0.033476
0.0407588
0.0541759
0.0532741
0.0555906
0.052802
0.0498701
0.0355484
0.0147445
0.0186092
0.0868856
0.114226
0.173217
0.237081
0.290785
0.319395
0.306978
0.261957
0.148396
0.0751849
0.00814909
0.0704297
0.120715
0.142808
0.125215
0.0761085
0.0238003
0.00354076
0.00115839
0.00847754
0.00629968
0.000264198
0.00121231
0.00103709
0.000964375
0.000895684
0.000803538
0.000683043
0.000530265
0.000420959
0.000271777
0.000131813
7.13755e-05
0.00674715
0.00275535
0.00180549
0.00064477
0.00203352
0.00364022
0.00303772
0.000405312
0.00582944
0.0123432
0.018193
0.0202816
0.0302844
0.028166
0.0269782
0.0207253
0.0122349
0.00901295
0.0409432
0.105553
0.148312
0.213131
0.288941
0.352481
0.387634
0.379102
0.323628
0.230738
0.106127
0.0265141
0.0654677
0.142193
0.199184
0.211263
0.1708
0.093532
0.0129062
0.0232063
0.0122412
0.00725373
0.00653141
9.25906e-05
0.00117079
0.0010075
0.000969405
0.000897317
0.000774894
0.000635309
0.000506863
0.000377777
0.000269778
0.000144814
5.89063e-05
0.00538546
0.00219766
0.00156666
0.000332
0.000148421
0.00115265
0.00238529
0.00292217
0.00202374
9.52056e-05
0.00293117
0.00610513
0.00721583
0.0117193
0.0094759
0.00544337
0.00551321
0.024658
0.0625037
0.12227
0.183913
0.242499
0.348657
0.42466
0.469008
0.464803
0.402168
0.303968
0.171877
0.0569461
0.0402498
0.149544
0.243574
0.299765
0.29278
0.222832
0.113711
0.000140191
0.0437127
0.0216096
0.00663541
0.00596664
0.000265429
0.00111409
0.00100477
0.00093738
0.000852653
0.000758179
0.0006188
0.000501606
0.000367355
0.000248108
0.000129915
3.94559e-05
0.00430407
0.00162769
0.00127391
0.000369581
0.00061154
0.000237834
0.000387199
0.00125903
0.00203718
0.00233472
0.00226001
0.00136429
0.000236805
0.00122985
0.0013638
0.00326236
0.0134225
0.0357258
0.0754243
0.141644
0.227967
0.266826
0.414968
0.505608
0.560242
0.565004
0.503484
0.383432
0.247791
0.104797
0.00846378
0.135012
0.26997
0.373683
0.415672
0.37692
0.271062
0.129718
0.0186081
0.0624272
0.0264044
0.00700728
0.00470421
0.000655655
0.00105688
0.000971231
0.00092194
0.000825149
0.000711245
0.000599096
0.000471068
0.000326326
0.000234139
0.000129342
3.46804e-05
0.00331354
0.00120043
0.0010589
0.000357768
0.000553509
0.000457079
0.000332233
2.95529e-05
0.00051098
0.00111128
0.00164173
0.00201348
0.00174772
0.000870217
0.00144349
0.00567168
0.01656
0.0389106
0.0823707
0.153931
0.255606
0.30842
0.485591
0.590702
0.656544
0.671643
0.618485
0.513414
0.324608
0.170068
0.0339975
0.103882
0.268849
0.426942
0.523545
0.532276
0.446086
0.31678
0.10946
0.0443246
0.0777554
0.0251161
0.00778248
0.00302432
0.000902801
0.00103221
0.000961478
0.000903976
0.000798539
0.000680112
0.000568797
0.000436215
0.000319697
0.000212895
0.000139891
1.81813e-05
0.00247643
0.000889472
0.000896753
0.000367176
0.000520548
0.000446936
0.000402929
0.000318222
0.000125186
0.000121317
0.000507425
0.000942562
0.00102984
0.000632784
0.000987629
0.00518462
0.0157413
0.0373258
0.0797781
0.15567
0.26855
0.361563
0.554603
0.673758
0.750396
0.777376
0.73608
0.60611
0.433168
0.241687
0.0872867
0.0566067
0.241159
0.443392
0.608345
0.675396
0.629307
0.453252
0.340379
0.060679
0.0757028
0.0863673
0.0181041
0.00785103
0.00130518
0.00100477
0.000977656
0.000952028
0.000879462
0.000740439
0.000627721
0.00051959
0.000408332
0.000301627
0.000195751
0.000111637
1.01529e-05
0.00168407
0.000632473
0.000736894
0.000321875
0.000494243
0.000438548
0.000435113
0.000365026
0.00028463
0.000163217
2.18592e-05
0.000285129
0.000541498
0.000204314
8.62338e-05
0.00332333
0.0131387
0.0322164
0.0700824
0.142949
0.262518
0.420468
0.602909
0.750901
0.83441
0.877856
0.848476
0.731237
0.554238
0.329647
0.148713
0.00410217
0.194771
0.425382
0.646034
0.789839
0.804343
0.683645
0.442636
0.237967
0.0157842
0.111086
0.0841094
0.00816965
0.00651261
4.74821e-09
0.000970895
0.00093009
0.00089333
0.000819648
0.000686069
0.00059254
0.000484605
0.000361047
0.000277794
0.00017107
0.000111908
1.16508e-06
0.000599362
0.000420428
0.000557221
0.000278461
0.00044052
0.000410098
0.000434794
0.000393089
0.000326801
0.000260758
0.000135167
3.07081e-05
0.000234431
0.000248686
0.00020806
0.00137793
0.00940624
0.0257368
0.0560369
0.119128
0.234594
0.404926
0.604675
0.806315
0.921728
0.955789
0.956998
0.852672
0.659955
0.438129
0.220087
0.0513246
0.12435
0.364752
0.653414
0.855631
0.940661
0.884587
0.699201
0.44472
0.171916
0.0519388
0.139866
0.0691345
0.000776026
0.00406198
0.000683168
0.000906305
0.000918806
0.000869868
0.000772875
0.000657821
0.000540518
0.000438013
0.000344519
0.000254914
0.000172936
0.000111461
1.20252e-05
7.75784e-05
0.000268988
0.00038292
0.000226919
0.000376815
0.000377924
0.00038476
0.000389844
0.000374462
0.000329629
0.00026089
0.000143519
1.61995e-05
0.000167751
2.66315e-05
8.70101e-05
0.00529104
0.0188532
0.0417025
0.0893264
0.190354
0.358064
0.576257
0.809747
0.981705
1.0548
1.03008
0.965694
0.78407
0.546918
0.305384
0.11083
0.0642751
0.290186
0.597659
0.916053
1.05028
1.03609
0.898277
0.666314
0.358516
0.0717509
0.127311
0.149164
0.0448881
0.00545214
0.00161572
0.000904193
0.00087571
0.000868973
0.000816148
0.000708206
0.000609766
0.000523104
0.0004091
0.000339635
0.000261286
0.000161128
0.000101394
3.48619e-05
9.41403e-06
0.000189562
0.000177121
0.000283692
0.000328389
0.000359655
0.00037272
0.000387293
0.00035113
0.000328825
0.000271663
0.000170981
2.99224e-07
4.00297e-05
0.000266489
0.001763
0.0119587
0.0297522
0.0608659
0.137462
0.288422
0.508979
0.759926
1.01574
1.09096
1.12791
1.04748
0.894809
0.658432
0.400379
0.176034
0.00632801
0.213018
0.48685
0.86574
1.18052
1.20021
1.0651
0.841477
0.545589
0.22476
0.0470016
0.187019
0.132604
0.0196024
0.00538433
4.18749e-05
0.000861341
0.000815792
0.000818853
0.000756019
0.000646779
0.000560715
0.00048363
0.000382673
0.000301493
0.000225664
0.000160942
9.21189e-05
3.60432e-05
0.000131802
0.000116904
0.000215332
0.000260243
0.000318427
0.000362975
0.000369542
0.000377903
0.000369032
0.000347162
0.000315632
0.000216528
9.01762e-05
0.000177985
3.58802e-05
0.00555895
0.0202152
0.0398613
0.0866966
0.206496
0.410836
0.672533
0.933055
1.18476
1.16898
1.10155
0.988311
0.759189
0.495854
0.246689
0.0495252
0.141466
0.370901
0.770042
1.10842
1.34959
1.24945
1.01303
0.718271
0.388403
0.0716262
0.161029
0.212773
0.0947959
0.00182085
0.00287439
0.000547299
0.000800964
0.000789071
0.000748387
0.000695349
0.000604739
0.000517384
0.000416592
0.000363546
0.0002962
0.000210142
0.000166768
6.53016e-05
3.068e-05
0.000145817
0.000139688
0.000230134
0.000258247
0.000297921
0.000344853
0.000379325
0.000382046
0.000398289
0.000375024
0.000346068
0.000271014
0.000171776
0.000394637
0.00123538
0.0113833
0.0273376
0.0492178
0.125531
0.297045
0.545238
0.826084
1.07192
1.24433
1.22059
1.02231
0.848157
0.581896
0.317253
0.0857067
0.0750597
0.276719
0.66898
1.00545
1.24412
1.31048
1.16689
0.870872
0.541008
0.204169
0.0894819
0.247342
0.195132
0.0506975
0.00531236
0.000568242
0.0006259
0.000721522
0.000720571
0.000701366
0.000634192
0.000541382
0.000491231
0.000407559
0.000347456
0.000283701
0.000218361
0.00016419
6.80198e-05
3.55778e-05
0.000160591
0.000141021
0.00021818
0.000246422
0.000302706
0.000315831
0.000354007
0.000391099
0.000402275
0.000390294
0.000366844
0.00029997
0.00029097
0.000385634
0.00406238
0.0179038
0.0305909
0.0617724
0.181881
0.400052
0.672306
0.945726
1.15406
1.2041
1.1592
0.89332
0.648718
0.378222
0.12369
0.0158859
0.194851
0.563409
0.911552
1.17176
1.27063
1.16521
0.98463
0.667621
0.328805
0.00318464
0.234688
0.283222
0.141218
0.0165294
0.00473824
0.000388997
0.000566427
0.000683048
0.000639732
0.00063744
0.000588061
0.00051938
0.000444813
0.000390014
0.000339301
0.000279366
0.000240475
0.000152589
7.10122e-05
2.25189e-05
0.000150589
0.000157458
0.000213643
0.00022102
0.000279211
0.000325206
0.000355552
0.000411935
0.00042772
0.000430208
0.000416658
0.000337839
0.000468781
0.000236848
0.00849346
0.0222954
0.0295169
0.0837895
0.252442
0.498758
0.771897
1.01245
1.16775
1.11918
0.963971
0.691765
0.394033
0.168885
0.0688343
0.139004
0.468932
0.804394
1.10698
1.26247
1.23655
1.03777
0.762841
0.431075
0.0962132
0.193121
0.333149
0.257685
0.0762982
0.00154102
0.00117852
0.000461596
0.00052707
0.000611437
0.000575033
0.000582746
0.000538335
0.000484405
0.000424031
0.000372837
0.000322986
0.000279444
0.000228256
0.000168794
6.34317e-05
1.29227e-05
0.000164967
0.000189786
0.00019959
0.00023127
0.000279673
0.000340348
0.000366226
0.000442795
0.000465683
0.000499061
0.000466373
0.00041967
0.000602329
0.00186641
0.0133399
0.0215748
0.0275312
0.118593
0.324608
0.57504
0.827732
1.01533
1.0804
0.981065
0.732174
0.417697
0.227108
0.140553
0.114348
0.349824
0.706321
1.00751
1.22519
1.26842
1.13202
0.824879
0.499391
0.173296
0.140325
0.353554
0.357792
0.183836
0.0293295
0.0060536
0.000189951
0.000335405
0.000486015
0.000535461
0.000522416
0.000540485
0.00049694
0.000466122
0.000427707
0.000384132
0.000326822
0.000282577
0.000236799
0.000169903
7.73809e-05
1.66377e-06
0.00016583
0.00022476
0.000209821
0.000241728
0.000296492
0.000341379
0.000405026
0.000473719
0.000500182
0.000533503
0.000507728
0.000540759
0.000545581
0.00461126
0.0165679
0.0146112
0.029973
0.162111
0.381587
0.615185
0.830342
0.949999
0.931481
0.768704
0.463405
0.292966
0.162029
0.0665873
0.30791
0.524561
0.910014
1.13977
1.23697
1.16407
0.885066
0.480725
0.223534
0.0916944
0.353436
0.441318
0.303119
0.0967636
0.00770332
0.00402983
0.000196784
0.00023109
0.000410512
0.00046624
0.000464666
0.000490244
0.000470869
0.000444893
0.000419839
0.000369586
0.000349492
0.000313296
0.000260249
0.000200103
7.11033e-05
1.84215e-06
0.000149221
0.000246928
0.000229733
0.000245735
0.000311043
0.000367969
0.000434286
0.000487142
0.000563605
0.000578389
0.000567494
0.000716579
3.62705e-05
0.00809658
0.0156434
0.00312044
0.0400596
0.204079
0.373263
0.634235
0.778673
0.826004
0.744248
0.54951
0.337134
0.16344
0.0357718
0.245438
0.511549
0.752924
1.04118
1.17271
1.14039
0.928661
0.518609
0.253367
0.0553312
0.347066
0.503419
0.429602
0.198095
0.0317332
0.00107814
0.00125056
3.02288e-05
0.000166037
0.000319614
0.000384459
0.000452512
0.000443307
0.000442027
0.000426863
0.000411798
0.000399442
0.000359328
0.000329117
0.000281488
0.000203981
7.20565e-05
2.32186e-06
0.000140748
0.000252493
0.000242386
0.000267027
0.000314748
0.000378762
0.000478339
0.000558208
0.000601547
0.000628058
0.000636803
0.00083334
0.00126701
0.0111364
0.00922099
0.00919923
0.0557997
0.274683
0.360284
0.60017
0.680641
0.666971
0.546463
0.363575
0.184304
0.00574474
0.206953
0.433814
0.681079
0.938953
1.08362
1.09237
0.934851
0.583894
0.269555
0.0283822
0.344084
0.557408
0.546783
0.326623
0.0927266
0.00231787
0.000840774
0.000478026
0.000191661
6.91316e-05
0.000260505
0.000360622
0.000455063
0.000436461
0.000433298
0.00044941
0.00042871
0.000406855
0.000367404
0.000342223
0.000299344
0.000241869
8.43253e-05
1.09033e-05
0.00025263
0.000279
0.000231556
0.000266866
0.000353876
0.000415578
0.000508509
0.000596425
0.000663049
0.000664927
0.000727971
0.00083696
0.00318934
0.0122969
0.00212365
0.0194491
0.0706808
0.27158
0.401546
0.512231
0.55185
0.497042
0.366558
0.206859
0.0289201
0.170181
0.377599
0.598178
0.819339
0.982482
1.01346
0.900643
0.619114
0.199406
0.031943
0.360928
0.598736
0.666491
0.469028
0.185621
0.0248629
0.0038203
0.000986816
0.000720164
0.000335848
6.68668e-05
0.000174786
0.000327429
0.000422248
0.000446286
0.000455611
0.000448718
0.00045916
0.000427139
0.000409274
0.000377532
0.000332568
0.000256559
0.000113767
7.99253e-06
0.000323288
0.000278616
0.0002688
0.000288124
0.000366607
0.000439236
0.00053894
0.000654865
0.000697119
0.00070972
0.000840097
0.000550399
0.00543868
0.0104335
0.016023
0.0275727
0.0560272
0.192036
0.334154
0.409322
0.409808
0.33424
0.209776
0.058957
0.129748
0.333363
0.531515
0.710724
0.867071
0.915351
0.831594
0.612817
0.231858
0.095403
0.34818
0.689695
0.745255
0.629698
0.31065
0.0711237
0.000510357
0.00202464
0.000636711
0.000838544
0.000443918
0.000202164
8.498e-05
0.000279754
0.000388047
0.000432543
0.000457685
0.000488479
0.000483037
0.000487337
0.000458023
0.000384268
0.000353122
0.000264835
0.00012077
1.65289e-05
0.00021385
0.000287115
0.000244899
0.000311317
0.000374411
0.000496926
0.000578433
0.000674206
0.00073979
0.000763903
0.000967843
1.86287e-05
0.00741583
0.00551604
0.0295516
0.0359074
0.0345931
0.158951
0.25216
0.293535
0.267237
0.184973
0.0657871
0.0862448
0.285983
0.482675
0.643962
0.753706
0.806226
0.742686
0.564896
0.233806
0.110032
0.327529
0.702369
0.918378
0.754148
0.462428
0.150023
0.0137966
0.00143687
0.000530429
0.000149148
0.00048057
0.000384755
0.00024064
2.96302e-05
0.000231128
0.000362034
0.000460938
0.000477009
0.000528985
0.000506203
0.000499118
0.000480248
0.000430935
0.000361025
0.000289268
0.000139771
7.95889e-05
0.000174721
0.000313117
0.000265564
0.00032311
0.000409705
0.000506751
0.000609538
0.000739465
0.000764854
0.000843176
0.00106735
0.000930514
0.0085712
0.00130828
0.0405559
0.0461607
0.0142213
0.0987095
0.15887
0.171329
0.130276
0.0464453
0.0722415
0.21879
0.41595
0.585709
0.683179
0.696953
0.640041
0.488192
0.240654
0.0168837
0.308483
0.684471
0.981524
0.958441
0.618411
0.253879
0.0484903
0.00131518
0.00273464
0.00126274
0.000572671
0.000129258
4.95528e-05
1.81269e-05
4.0114e-05
0.000223792
0.000365362
0.000467218
0.000529038
0.000537736
0.000553126
0.000554835
0.000515731
0.00047481
0.000411479
0.000311498
0.000166837
5.70599e-05
0.000156465
0.000300487
0.0002859
0.000318696
0.000443445
0.000566952
0.000655393
0.000742067
0.000789707
0.000903565
0.00105411
0.00204436
0.00854792
0.00802398
0.0480524
0.0586266
0.0220854
0.0282031
0.0599332
0.0518087
0.00259874
0.0817193
0.196321
0.316224
0.472584
0.586541
0.600333
0.527079
0.392258
0.198107
0.0392625
0.316074
0.652602
0.962013
1.11559
0.806453
0.3905
0.0986979
0.0108421
0.00109578
0.0013946
0.00427602
0.0023878
6.47472e-05
0.000760891
0.000523624
0.000154943
0.000189488
0.000383697
0.000499196
0.000585771
0.000607111
0.00061477
0.000609663
0.000567493
0.000508366
0.000404866
0.00031591
0.000156126
5.47493e-05
9.14153e-05
0.00030966
0.000288903
0.000371101
0.000480546
0.000574577
0.000701849
0.000795013
0.000832865
0.000971665
0.000983419
0.00311709
0.00762462
0.0124798
0.0518274
0.0718798
0.061391
0.0396624
0.0328852
0.0549891
0.107001
0.187183
0.28489
0.358104
0.427691
0.459879
0.403671
0.284197
0.119356
0.0869052
0.334853
0.640764
0.937452
1.14767
0.987659
0.482295
0.187546
0.0241757
0.00436564
0.0176906
0.0259228
0.0240271
0.0135646
0.00318508
0.00124158
0.00140664
0.0004233
0.000215308
0.000426577
0.000566188
0.000613057
0.000653649
0.000666641
0.000634595
0.000584538
0.000538482
0.000418015
0.000339861
0.000194531
5.26503e-05
5.27085e-05
0.000310363
0.000285038
0.000370833
0.000510101
0.000620952
0.000739802
0.000795481
0.000865113
0.00107996
0.000759374
0.00385111
0.0064466
0.013582
0.0511257
0.0804449
0.0911511
0.0936953
0.105332
0.134878
0.180714
0.24696
0.310641
0.335849
0.308868
0.266811
0.17388
0.0358676
0.143645
0.367272