/*--------------------------------*- C++ -*----------------------------------*\
| =========                 |                                                 |
| \\      /  F ield         | OpenFOAM: The Open Source CFD Toolbox           |
|  \\    /   O peration     | Version:  2506                                  |
|   \\  /    A nd           | Website:  www.openfoam.com                      |
|    \\/     M anipulation  |                                                 |
\*---------------------------------------------------------------------------*/
FoamFile
{
    version     2.0;
    format      ascii;
    arch        "LSB;label=32;scalar=64";
    class       pointScalarField;
    location    "70.020198564267872";
    object      streamFunction;
}
// * * * * * * * * * * * * * * * * * * * * * * * * * * * * * * * * * * * * * //

dimensions      [0 3 -1 0 0 0 0];

internalField   nonuniform List<scalar> 
19880
(
0
-0.0706688
-0.133906
-0.179881
-0.201476
-0.195049
0
-0.0698589
-0.136517
-0.182789
-0.199197
-0.183449
0
-0.0591738
-0.118097
-0.155341
-0.160506
-0.129613
0
-0.0404267
-0.0831826
-0.103473
-0.0902002
-0.0376441
0
-0.02168
-0.044693
-0.0428692
-0.00043201
0.0833675
0
-0.0119707
-0.0132452
0.0248737
0.108894
0.221922
0
-0.0706688
-0.133906
-0.179881
-0.201476
-0.195049
0
-0.0698589
-0.136517
-0.182789
-0.199197
-0.183449
0
-0.0591738
-0.118097
-0.155341
-0.160506
-0.129613
0
-0.0404267
-0.0831826
-0.103473
-0.0902002
-0.0376441
0
-0.02168
-0.044693
-0.0428692
-0.00043201
0.0833675
0
-0.0119707
-0.0132452
0.0248737
0.108894
0.221922
1.9e-07
-1e-08
-1e-08
-1e-08
0
0.114959
0.0800291
0.0378923
0.00672839
-0.00703911
0.258186
0.216893
0.155535
0.0859733
0.0260316
0.396093
0.354557
0.291262
0.207591
0.112314
0.531568
0.491145
0.42706
0.33971
0.230147
0.663158
0.624224
0.560188
0.47121
0.357688
1.9e-07
-1e-08
-1e-08
-1e-08
0
0.114959
0.0800291
0.0378923
0.00672839
-0.00703911
0.258186
0.216893
0.155535
0.0859733
0.0260316
0.396093
0.354557
0.291262
0.207591
0.112314
0.531568
0.491145
0.42706
0.33971
0.230147
0.663158
0.624224
0.560188
0.47121
0.357688
-1.4e-07
-2.4e-07
5.3e-07
-3.5e-07
-3.1e-07
0.121756
0.134678
0.142673
0.144204
0.135766
0.231909
0.258565
0.276763
0.285325
0.280068
0.333948
0.374399
0.403374
0.41849
0.416543
0.430047
0.483955
0.52349
0.545992
0.549307
0.522059
0.589275
0.639302
0.669496
0.677892
-1.4e-07
-2.4e-07
5.3e-07
-3.5e-07
-3.1e-07
0.121756
0.134678
0.142673
0.144204
0.135766
0.231909
0.258565
0.276763
0.285325
0.280068
0.333948
0.374399
0.403374
0.41849
0.416543
0.430047
0.483955
0.52349
0.545992
0.549307
0.522059
0.589275
0.639302
0.669496
0.677892
0.0310973
0.0267639
0.0217501
0.0158665
0.00907276
6e-08
0.141039
0.117298
0.0920668
0.0646437
0.0340875
6e-08
0.248155
0.205455
0.160547
0.112281
0.0593432
1.6e-07
0.349422
0.288702
0.225157
0.157302
0.08359
1.6e-07
0.441928
0.364538
0.283743
0.197754
0.104597
6e-08
0.0310973
0.0267639
0.0217501
0.0158665
0.00907276
6e-08
0.141039
0.117298
0.0920668
0.0646437
0.0340875
6e-08
0.248155
0.205455
0.160547
0.112281
0.0593432
1.6e-07
0.349422
0.288702
0.225157
0.157302
0.08359
1.6e-07
0.441928
0.364538
0.283743
0.197754
0.104597
6e-08
-0.450123
-0.36801
-0.283535
-0.195307
-0.101835
4e-07
-0.373576
-0.305769
-0.236057
-0.163177
-0.0857916
6e-08
-0.283838
-0.232335
-0.179459
-0.124174
-0.0654373
6e-08
-0.184513
-0.150736
-0.116192
-0.080153
-0.0417472
6e-08
-0.0784977
-0.0634993
-0.0484105
-0.0329419
-0.0165227
6e-08
-0.450123
-0.36801
-0.283535
-0.195307
-0.101835
4e-07
-0.373576
-0.305769
-0.236057
-0.163177
-0.0857916
6e-08
-0.283838
-0.232335
-0.179459
-0.124174
-0.0654373
6e-08
-0.184513
-0.150736
-0.116192
-0.080153
-0.0417472
6e-08
-0.0784977
-0.0634993
-0.0484105
-0.0329419
-0.0165227
6e-08
-0.512102
-0.555737
-0.57838
-0.578167
-0.553487
-0.417416
-0.451289
-0.467166
-0.463229
-0.437163
-0.320284
-0.344376
-0.353801
-0.346463
-0.319363
-0.219117
-0.233125
-0.236849
-0.228071
-0.201065
-0.113033
-0.11771
-0.114807
-0.104223
-0.0799845
-3e-07
5e-07
-2.7e-07
-2.7e-07
-2.7e-07
-0.512102
-0.555737
-0.57838
-0.578167
-0.553487
-0.417416
-0.451289
-0.467166
-0.463229
-0.437163
-0.320284
-0.344376
-0.353801
-0.346463
-0.319363
-0.219117
-0.233125
-0.236849
-0.228071
-0.201065
-0.113033
-0.11771
-0.114807
-0.104223
-0.0799845
-3e-07
5e-07
-2.7e-07
-2.7e-07
-2.7e-07
-0.503077
-0.426548
-0.325034
-0.206178
-0.0926375
-0.387599
-0.314146
-0.219915
-0.119153
-0.0425175
-0.270495
-0.200362
-0.118562
-0.046387
-0.0085793
-0.152611
-0.0909723
-0.0354367
-0.00089299
0.0043884
-0.0437876
-0.0111492
0.00571629
0.00996426
0.0027134
-2.7e-07
-2.7e-07
-2.7e-07
-2.7e-07
-2.7e-07
-0.503077
-0.426548
-0.325034
-0.206178
-0.0926375
-0.387599
-0.314146
-0.219915
-0.119153
-0.0425175
-0.270495
-0.200362
-0.118562
-0.046387
-0.0085793
-0.152611
-0.0909723
-0.0354367
-0.00089299
0.0043884
-0.0437876
-0.0111492
0.00571629
0.00996426
0.0027134
-2.7e-07
-2.7e-07
-2.7e-07
-2.7e-07
-2.7e-07
-2.7e-07
-0.0117215
-0.0163302
-0.0203561
-0.0310167
-0.0520229
-2.7e-07
-0.0283349
-0.0473978
-0.0599206
-0.068117
-0.07311
-2.7e-07
-0.0455921
-0.081651
-0.107058
-0.120182
-0.119258
0
-0.0611952
-0.113147
-0.150977
-0.169887
-0.167036
-2.7e-07
-0.0117215
-0.0163302
-0.0203561
-0.0310167
-0.0520229
-2.7e-07
-0.0283349
-0.0473978
-0.0599206
-0.068117
-0.07311
-2.7e-07
-0.0455921
-0.081651
-0.107058
-0.120182
-0.119258
0
-0.0611952
-0.113147
-0.150977
-0.169887
-0.167036
-0.109993
0.0558529
0.242908
0.426799
0.58518
0.668494
0.654001
0.55543
0.409302
0.253985
0.101839
-0.0438304
-0.186533
-0.324843
-0.44254
-0.510131
-0.509817
-0.442743
-0.327128
-0.191445
-0.0542682
0.0800278
0.211721
0.34223
0.467016
0.570949
0.635456
0.648638
0.610676
0.529476
0.418594
0.293525
0.166221
0.0398984
-0.0840876
-0.202879
-0.308232
-0.387826
-0.430565
-0.43102
-0.390743
-0.316959
-0.219499
-0.108284
0.00737417
0.122762
0.23417
0.33334
0.409461
0.452359
0.456504
0.422595
0.356566
0.267003
0.162971
0.0534833
-0.0534167
-0.149163
-0.224638
-0.272692
-0.28948
-0.274797
-0.231691
-0.165777
-0.0841284
0.00595799
0.0979667
0.188228
0.272635
0.346672
0.40574
0.44568
0.463729
0.459003
0.432622
0.387477
0.327491
0.256933
0.17971
0.0988239
0.0164304
-0.0655816
-0.145006
-0.218625
-0.282567
-0.332636
-0.365211
-0.378003
-0.370469
-0.343884
-0.301
-0.245402
-0.180878
-0.111006
-0.0391915
0.03243
0.102378
0.16773
0.227515
0.459722
-0.0859708
0.0913692
0.279834
0.456155
0.616853
0.724478
0.740171
0.665851
0.534076
0.383947
0.232355
0.0846406
-0.0602634
-0.199265
-0.315671
-0.381956
-0.381403
-0.314759
-0.199473
-0.0638702
0.0725638
0.204319
0.332089
0.458691
0.580723
0.684143
0.750135
0.766428
0.731536
0.653199
0.544977
0.42215
0.295763
0.169074
0.0437284
-0.0766316
-0.182971
-0.263039
-0.306127
-0.307149
-0.267671
-0.194807
-0.0982128
0.0122402
0.12724
0.241685
0.351924
0.450952
0.528204
0.572801
0.578259
0.54465
0.477752
0.386211
0.279057
0.166248
0.0556533
-0.0442489
-0.123777
-0.175574
-0.195739
-0.183902
-0.142942
-0.0783825
0.00245569
0.0918598
0.182976
0.27177
0.354109
0.426146
0.483927
0.523669
0.542579
0.539785
0.516254
0.474509
0.418058
0.350799
0.2762
0.197038
0.115431
0.0335077
-0.0464476
-0.120745
-0.185156
-0.235252
-0.267405
-0.279384
-0.270749
-0.24288
-0.198714
-0.14201
-0.0767273
-0.00654023
0.0649625
0.13579
0.204256
0.267716
0.325489
0.363384
-0.0278905
0.145913
0.326616
0.486638
0.633208
0.753476
0.801434
0.761492
0.655264
0.518221
0.372415
0.226777
0.0831126
-0.0543414
-0.169934
-0.23895
-0.244056
-0.184359
-0.0757239
0.0553281
0.188473
0.315855
0.437881
0.558166
0.675498
0.778318
0.84808
0.871233
0.844551
0.77435
0.673315
0.555869
0.432556
0.307506
0.182853
0.0624912
-0.0445328
-0.126231
-0.172008
-0.176711
-0.141627
-0.0732303
0.0195808
0.127028
0.239731
0.35188
0.459862
0.558244
0.637342
0.685539
0.695055
0.664857
0.600008
0.50886
0.400514
0.285789
0.172548
0.0686547
-0.0154149
-0.0720697
-0.0971584
-0.0899474
-0.0528503
0.00883471
0.0877768
0.175884
0.265874
0.353196
0.433793
0.504185
0.560951
0.600774
0.621095
0.620862
0.600745
0.562895
0.510463
0.446817
0.375136
0.298024
0.21765
0.136202
0.0562568
-0.0182727
-0.082763
-0.132713
-0.164521
-0.175968
-0.166649
-0.138006
-0.093061
-0.0357487
0.0298183
0.0997927
0.170716
0.240434
0.307248
0.368654
0.424399
0.460839
0.0620666
0.218734
0.382299
0.526859
0.652155
0.766297
0.839603
0.837814
0.76566
0.65063
0.516895
0.377699
0.238307
0.104053
-0.011498
-0.0859017
-0.100819
-0.0536437
0.042926
0.165602
0.293162
0.415198
0.530761
0.64333
0.753978
0.855002
0.929736
0.962724
0.948257
0.890604
0.800677
0.691672
0.573924
0.452576
0.330456
0.211619
0.10438
0.0203173
-0.0300319
-0.0411305
-0.0136905
0.0470051
0.13333
0.235843
0.344846
0.453616
0.55844
0.655331
0.736287
0.789623
0.805785
0.782
0.722157
0.634004
0.526699
0.411718
0.29713
0.18979
0.100935
0.0386653
0.0074524
0.00842332
0.0398842
0.0971643
0.172986
0.258954
0.347562
0.433499
0.512659
0.581803
0.637968
0.678249
0.700282
0.702933
0.68658
0.652988
0.604806
0.545074
0.476654
0.402009
0.323323
0.242902
0.163599
0.0894177
0.0252286
-0.024387
-0.0558706
-0.0670495
-0.0574824
-0.0285747
0.0165989
0.0739717
0.139294
0.208626
0.278635
0.346993
0.411996
0.471312
0.525
0.560107
0.172159
0.302789
0.443216
0.573249
0.684383
0.782208
0.861731
0.892802
0.858675
0.773557
0.658926
0.531075
0.398828
0.269047
0.15367
0.0729778
0.0440922
0.0743788
0.155345
0.266847
0.386964
0.503043
0.612306
0.717194
0.82002
0.917242
0.996253
1.04086
1.04149
0.99966
0.923911
0.826073
0.71628
0.600611
0.482652
0.366571
0.259799
0.173194
0.117212
0.0973732
0.114506
0.164992
0.242788
0.338752
0.442843
0.547494
0.648571
0.743016
0.824953
0.883916
0.908915
0.894507
0.842641
0.760244
0.65643
0.542747
0.428
0.318455
0.225069
0.156788
0.118485
0.111761
0.136019
0.187538
0.259134
0.342158
0.428826
0.513307
0.591268
0.659495
0.715381
0.756445
0.780503
0.786286
0.773893
0.744718
0.701029
0.645481
0.580678
0.508962
0.432526
0.353774
0.275763
0.202568
0.139102
0.0900327
0.0588869
0.0477773
0.0572003
0.0858844
0.130757
0.187649
0.252203
0.320459
0.389218
0.456
0.519076
0.576282
0.627912
0.661786
0.288613
0.38901
0.504767
0.619112
0.72119
0.807818
0.880635
0.926367
0.925083
0.874653
0.786632
0.676523
0.555631
0.432563
0.318587
0.231331
0.18834
0.199602
0.262385
0.35953
0.469879
0.579264
0.682793
0.781173
0.876568
0.968231
1.04842
1.10316
1.11995
1.09631
1.03758
0.953709
0.854401
0.746494
0.634344
0.522234
0.416898
0.328267
0.266255
0.23685
0.242001
0.280673
0.348178
0.435926
0.533861
0.633765
0.730832
0.822244
0.903809
0.967279
1.00155
0.998757
0.957886
0.884225
0.78676
0.676526
0.562859
0.452569
0.355699
0.281711
0.235718
0.220267
0.236247
0.280908
0.34701
0.426006
0.510029
0.592869
0.669767
0.737385
0.793266
0.835229
0.861417
0.870495
0.862265
0.837695
0.798691
0.747564
0.686744
0.618445
0.544858
0.468422
0.392385
0.320847
0.258677
0.210518
0.179789
0.168507
0.177481
0.205582
0.249708
0.305635
0.368921
0.435692
0.502811
0.567772
0.628843
0.683968
0.73361
0.557177
-0.109993
0.0558529
0.242908
0.426799
0.58518
0.668494
0.654001
0.55543
0.409302
0.253985
0.101839
-0.0438304
-0.186533
-0.324843
-0.44254
-0.510131
-0.509817
-0.442743
-0.327128
-0.191445
-0.0542682
0.0800278
0.211721
0.34223
0.467016
0.570949
0.635456
0.648638
0.610676
0.529476
0.418594
0.293525
0.166221
0.0398984
-0.0840876
-0.202879
-0.308232
-0.387826
-0.430565
-0.43102
-0.390743
-0.316959
-0.219499
-0.108284
0.00737417
0.122762
0.23417
0.33334
0.409461
0.452359
0.456504
0.422595
0.356566
0.267003
0.162971
0.0534833
-0.0534167
-0.149163
-0.224638
-0.272692
-0.28948
-0.274797
-0.231691
-0.165777
-0.0841284
0.00595799
0.0979667
0.188228
0.272635
0.346672
0.40574
0.44568
0.463729
0.459003
0.432622
0.387477
0.327491
0.256933
0.17971
0.0988239
0.0164304
-0.0655816
-0.145006
-0.218625
-0.282567
-0.332636
-0.365211
-0.378003
-0.370469
-0.343884
-0.301
-0.245402
-0.180878
-0.111006
-0.0391915
0.03243
0.102378
0.16773
0.227515
0.459722
-0.0859708
0.0913692
0.279834
0.456155
0.616853
0.724478
0.740171
0.665851
0.534076
0.383947
0.232355
0.0846406
-0.0602634
-0.199265
-0.315671
-0.381956
-0.381403
-0.314759
-0.199473
-0.0638702
0.0725638
0.204319
0.332089
0.458691
0.580723
0.684143
0.750135
0.766428
0.731536
0.653199
0.544977
0.42215
0.295763
0.169074
0.0437284
-0.0766316
-0.182971
-0.263039
-0.306127
-0.307149
-0.267671
-0.194807
-0.0982128
0.0122402
0.12724
0.241685
0.351924
0.450952
0.528204
0.572801
0.578259
0.54465
0.477752
0.386211
0.279057
0.166248
0.0556533
-0.0442489
-0.123777
-0.175574
-0.195739
-0.183902
-0.142942
-0.0783825
0.00245569
0.0918598
0.182976
0.27177
0.354109
0.426146
0.483927
0.523669
0.542579
0.539785
0.516254
0.474509
0.418058
0.350799
0.2762
0.197038
0.115431
0.0335077
-0.0464476
-0.120745
-0.185156
-0.235252
-0.267405
-0.279384
-0.270749
-0.24288
-0.198714
-0.14201
-0.0767273
-0.00654023
0.0649625
0.13579
0.204256
0.267716
0.325489
0.363384
-0.0278905
0.145913
0.326616
0.486638
0.633208
0.753476
0.801434
0.761492
0.655264
0.518221
0.372415
0.226777
0.0831126
-0.0543414
-0.169934
-0.23895
-0.244056
-0.184359
-0.0757239
0.0553281
0.188473
0.315855
0.437881
0.558166
0.675498
0.778318
0.84808
0.871233
0.844551
0.77435
0.673315
0.555869
0.432556
0.307506
0.182853
0.0624912
-0.0445328
-0.126231
-0.172008
-0.176711
-0.141627
-0.0732303
0.0195808
0.127028
0.239731
0.35188
0.459862
0.558244
0.637342
0.685539
0.695055
0.664857
0.600008
0.50886
0.400514
0.285789
0.172548
0.0686547
-0.0154149
-0.0720697
-0.0971584
-0.0899474
-0.0528503
0.00883471
0.0877768
0.175884
0.265874
0.353196
0.433793
0.504185
0.560951
0.600774
0.621095
0.620862
0.600745
0.562895
0.510463
0.446817
0.375136
0.298024
0.21765
0.136202
0.0562568
-0.0182727
-0.082763
-0.132713
-0.164521
-0.175968
-0.166649
-0.138006
-0.093061
-0.0357487
0.0298183
0.0997927
0.170716
0.240434
0.307248
0.368654
0.424399
0.460839
0.0620666
0.218734
0.382299
0.526859
0.652155
0.766297
0.839603
0.837814
0.76566
0.65063
0.516895
0.377699
0.238307
0.104053
-0.011498
-0.0859017
-0.100819
-0.0536437
0.042926
0.165602
0.293162
0.415198
0.530761
0.64333
0.753978
0.855002
0.929736
0.962724
0.948257
0.890604
0.800677
0.691672
0.573924
0.452576
0.330456
0.211619
0.10438
0.0203173
-0.0300319
-0.0411305
-0.0136905
0.0470051
0.13333
0.235843
0.344846
0.453616
0.55844
0.655331
0.736287
0.789623
0.805785
0.782
0.722157
0.634004
0.526699
0.411718
0.29713
0.18979
0.100935
0.0386653
0.0074524
0.00842332
0.0398842
0.0971643
0.172986
0.258954
0.347562
0.433499
0.512659
0.581803
0.637968
0.678249
0.700282
0.702933
0.68658
0.652988
0.604806
0.545074
0.476654
0.402009
0.323323
0.242902
0.163599
0.0894177
0.0252286
-0.024387
-0.0558706
-0.0670495
-0.0574824
-0.0285747
0.0165989
0.0739717
0.139294
0.208626
0.278635
0.346993
0.411996
0.471312
0.525
0.560107
0.172159
0.302789
0.443216
0.573249
0.684383
0.782208
0.861731
0.892802
0.858675
0.773557
0.658926
0.531075
0.398828
0.269047
0.15367
0.0729778
0.0440922
0.0743788
0.155345
0.266847
0.386964
0.503043
0.612306
0.717194
0.82002
0.917242
0.996253
1.04086
1.04149
0.99966
0.923911
0.826073
0.71628
0.600611
0.482652
0.366571
0.259799
0.173194
0.117212
0.0973732
0.114506
0.164992
0.242788
0.338752
0.442843
0.547494
0.648571
0.743016
0.824953
0.883916
0.908915
0.894507
0.842641
0.760244
0.65643
0.542747
0.428
0.318455
0.225069
0.156788
0.118485
0.111761
0.136019
0.187538
0.259134
0.342158
0.428826
0.513307
0.591268
0.659495
0.715381
0.756445
0.780503
0.786286
0.773893
0.744718
0.701029
0.645481
0.580678
0.508962
0.432526
0.353774
0.275763
0.202568
0.139102
0.0900327
0.0588869
0.0477773
0.0572003
0.0858844
0.130757
0.187649
0.252203
0.320459
0.389218
0.456
0.519076
0.576282
0.627912
0.661786
0.288613
0.38901
0.504767
0.619112
0.72119
0.807818
0.880635
0.926367
0.925083
0.874653
0.786632
0.676523
0.555631
0.432563
0.318587
0.231331
0.18834
0.199602
0.262385
0.35953
0.469879
0.579264
0.682793
0.781173
0.876568
0.968231
1.04842
1.10316
1.11995
1.09631
1.03758
0.953709
0.854401
0.746494
0.634344
0.522234
0.416898
0.328267
0.266255
0.23685
0.242001
0.280673
0.348178
0.435926
0.533861
0.633765
0.730832
0.822244
0.903809
0.967279
1.00155
0.998757
0.957886
0.884225
0.78676
0.676526
0.562859
0.452569
0.355699
0.281711
0.235718
0.220267
0.236247
0.280908
0.34701
0.426006
0.510029
0.592869
0.669767
0.737385
0.793266
0.835229
0.861417
0.870495
0.862265
0.837695
0.798691
0.747564
0.686744
0.618445
0.544858
0.468422
0.392385
0.320847
0.258677
0.210518
0.179789
0.168507
0.177481
0.205582
0.249708
0.305635
0.368921
0.435692
0.502811
0.567772
0.628843
0.683968
0.73361
0.557177
0.534076
0.583549
0.654966
0.736438
0.817837
0.892001
0.953488
0.997436
1.01914
1.01438
0.979364
0.915456
0.829413
0.730059
0.62726
0.533351
0.464689
0.436576
0.458313
0.520783
0.607256
0.701689
0.794322
0.882146
0.965441
1.04506
1.12018
1.18561
1.23135
1.2481
1.23049
1.18245
1.1111
1.02426
0.92817
0.827511
0.726993
0.633125
0.55434
0.498614
0.471536
0.476078
0.511293
0.572339
0.651328
0.739256
0.828575
0.914758
0.995375
1.06715
1.12371
1.15588
1.15544
1.11988
1.05274
0.962044
0.857767
0.748947
0.64337
0.549963
0.477091
0.42979
0.411564
0.424024
0.463698
0.523706
0.596287
0.674162
0.751255
0.822813
0.885583
0.937303
0.976179
1.00084
1.01034
1.00435
0.983471
0.94909
0.90304
0.8474
0.784204
0.715611
0.644128
0.573068
0.506475
0.448894
0.404599
0.376707
0.366978
0.376663
0.404235
0.446549
0.499603
0.559272
0.621977
0.684812
0.745402
0.802088
0.852999
0.898683
0.720063
0.819656
0.855011
0.904633
0.961581
1.01891
1.07113
1.11381
1.14189
1.14996
1.13655
1.10442
1.05512
0.989906
0.913244
0.833619
0.763228
0.717476
0.708653
0.737177
0.793281
0.864335
0.939687
1.01409
1.08585
1.15446
1.21953
1.28003
1.33259
1.37019
1.38487
1.37255
1.33431
1.27502
1.2008
1.11724
1.02907
0.941114
0.859347
0.790835
0.742447
0.719493
0.724183
0.755221
0.808399
0.877049
0.953344
1.03058
1.10475
1.17394
1.23585
1.28535
1.3144
1.31572
1.28596
1.22704
1.14534
1.04947
0.948004
0.84909
0.760933
0.690966
0.644794
0.626059
0.634989
0.668337
0.72053
0.784958
0.854958
0.924732
0.9897
1.04677
1.09387
1.12947
1.15241
1.16186
1.15758
1.13993
1.1099
1.06892
1.01876
0.961283
0.898597
0.833199
0.768319
0.707737
0.655544
0.615611
0.590944
0.583411
0.593364
0.619287
0.658368
0.707091
0.761765
0.819159
0.876644
0.932041
0.983793
1.03017
1.07169
0.549364
1.08552
1.11074
1.14545
1.18514
1.22522
1.26155
1.29045
1.30845
1.31182
1.29768
1.26786
1.22569
1.17404
1.11676
1.0607
1.01596
0.992529
0.994517
1.02045
1.06444
1.11828
1.17617
1.23493
1.29279
1.34837
1.40043
1.44773
1.48835
1.51834
1.53186
1.52416
1.49462
1.44636
1.38421
1.31313
1.23769
1.16261
1.09324
1.03537
0.994648
0.975441
0.979437
1.0056
1.05067
1.10884
1.17326
1.2382
1.30024
1.35784
1.40944
1.45145
1.47757
1.48097
1.45749
1.40768
1.33639
1.25085
1.15898
1.06873
0.987684
0.922654
0.878886
0.859297
0.864091
0.890836
0.934926
0.99052
1.05162
1.11296
1.17036
1.22095
1.26285
1.29475
1.31572
1.32501
1.32221
1.30748
1.28157
1.24561
1.20113
1.14985
1.09379
1.03533
0.97752
0.923756
0.877659
0.842671
0.821435
0.815426
0.824767
0.848142
0.883099
0.926546
0.975262
1.02645
1.07783
1.12745
1.17388
1.2155
1.25272
0.72792
1.33862
1.35646
1.38078
1.40852
1.43652
1.46172
1.48132
1.49276
1.49378
1.48272
1.45984
1.42728
1.38834
1.34734
1.31003
1.283
1.27092
1.27517
1.29479
1.32666
1.36648
1.41065
1.45667
1.50264
1.54696
1.58813
1.6247
1.65508
1.67717
1.68775
1.68326
1.66174
1.62419
1.57388
1.51506
1.45209
1.38945
1.33179
1.28391
1.25023
1.23421
1.23754
1.25955
1.29709
1.34502
1.3977
1.45063
1.50111
1.54784
1.58965
1.62404
1.64639
1.6511
1.63388
1.59386
1.53414
1.46051
1.37999
1.29995
1.2273
1.16817
1.12732
1.10751
1.1089
1.12942
1.16522
1.21137
1.26276
1.31485
1.36397
1.40752
1.44377
1.47157
1.49013
1.49878
1.49713
1.48517
1.46333
1.43248
1.39391
1.34918
1.30018
1.24917
1.19888
1.15229
1.11251
1.08246
1.06442
1.05963
1.06797
1.08826
1.11843
1.15592
1.19805
1.2425
1.28734
1.33088
1.37179
1.40857
1.44147
0.541803
1.58322
1.59571
1.61266
1.6319
1.65122
1.66843
1.6815
1.68865
1.68852
1.68031
1.66422
1.64158
1.61474
1.58705
1.56256
1.54525
1.5378
1.54125
1.55534
1.57851
1.60829
1.64221
1.67816
1.71436
1.74927
1.78146
1.80951
1.83201
1.84748
1.85431
1.85059
1.83474
1.80652
1.7675
1.72068
1.66978
1.61882
1.57192
1.53321
1.50623
1.49335
1.49612
1.51421
1.5445
1.58262
1.62429
1.66619
1.70625
1.74327
1.77623
1.80343
1.82174
1.82693
1.8151
1.78454
1.73673
1.67588
1.60783
1.53906
1.47572
1.42323
1.38613
1.36685
1.36518
1.37962
1.40721
1.44388
1.48539
1.52799
1.56856
1.60483
1.63522
1.65866
1.67451
1.68222
1.68142
1.67199
1.65413
1.62837
1.59577
1.55771
1.51592
1.47244
1.4297
1.39023
1.3566
1.33126
1.31619
1.31225
1.31914
1.33592
1.36102
1.39235
1.42778
1.46543
1.50372
1.54118
1.57661
1.60862
1.6373
0.734894
1.82182
1.8304
1.84205
1.85526
1.86848
1.88015
1.8888
1.89321
1.89248
1.88624
1.87481
1.8592
1.84109
1.8227
1.80661
1.79536
1.79089
1.79409
1.80498
1.82259
1.84535
1.87152
1.89948
1.92775
1.955
1.97994
2.00135
2.01796
2.02856
2.03205
2.02755
2.01449
1.99278
1.96307
1.92708
1.88744
1.84738
1.81038
1.77992
1.75896
1.74947
1.75232
1.76677
1.79027
1.81951
1.85147
1.88384
1.91499
1.94374
1.96909
1.98978
2.00384
2.0085
2.00069
1.97843
1.94195
1.89392
1.83874
1.78182
1.72849
1.68353
1.65054
1.63172
1.62748
1.63658
1.65655
1.68418
1.71618
1.74957
1.78185
1.81106
1.83574
1.85486
1.86783
1.87428
1.87393
1.86663
1.85239
1.83152
1.80476
1.77327
1.73854
1.70236
1.66683
1.63409
1.60627
1.58532
1.57265
1.56895
1.57415
1.58751
1.60769
1.6331
1.66211
1.69329
1.72535
1.75704
1.78725
1.81468
1.83928
0.535648
2.05611
2.06185
2.06973
2.07869
2.08763
2.09544
2.1011
2.10376
2.10285
2.09817
2.09003
2.0792
2.0669
2.05467
2.04425
2.03729
2.03512
2.03839
2.04712
2.06076
2.0783
2.09853
2.12024
2.14224
2.16339
2.1826
2.19883
2.21109
2.21841
2.2199
2.21496
2.20348
2.18579
2.16254
2.13488
2.10462
2.0741
2.04603
2.02316
2.00777
2.00129
2.004
2.015
2.03244
2.05413
2.07808
2.10264
2.12646
2.14843
2.16753
2.18272
2.19276
2.19602
2.19054
2.17468
2.14799
2.11179
2.06905
2.02386
1.98061
1.94333
1.91481
1.89698
1.89076
1.8953
1.90849
1.92796
1.95136
1.97644
2.00122
2.02401
2.04347
2.05863
2.06887
2.07388
2.07351
2.06769
2.05642
2.03988
2.01856
1.99328
1.96524
1.93592
1.90705
1.88042
1.85781
1.8407
1.82996
1.82625
1.8298
1.83992
1.85555
1.87557
1.89882
1.9242
1.95068
1.97714
2.00254
2.02572
2.04655
0.740277
2.28732
2.29099
2.29619
2.30215
2.3081
2.31325
2.31689
2.31845
2.31754
2.3141
2.30837
2.30092
2.29264
2.28459
2.27798
2.27391
2.27326
2.27649
2.28365
2.29441
2.30807
2.32381
2.34068
2.35776
2.37412
2.38887
2.40115
2.41019
2.41523
2.41566
2.41108
2.40143
2.38704
2.36858
2.34712
2.32408
2.30121
2.28049
2.26386
2.25283
2.24825
2.25015
2.2579
2.27035
2.28612
2.30383
2.32223
2.34019
2.35668
2.37076
2.38155
2.38816
2.38967
2.38508
2.37339
2.35409
2.32768
2.2959
2.26152
2.22781
2.19791
2.17419
2.1582
2.15071
2.15132
2.15878
2.17149
2.1878
2.20602
2.22449
2.24178
2.25668
2.26831
2.27611
2.27976
2.27915
2.27426
2.26518
2.25208
2.23531
2.21546
2.19339
2.17024
2.14735
2.12612
2.10797
2.09404
2.08507
2.08151
2.08352
2.09071
2.10241
2.11788
2.13629
2.15681
2.17851
2.20039
2.2215
2.24081
2.2582
0.531078
2.51625
2.51844
2.52173
2.52559
2.52945
2.53277
2.53506
2.53591
2.5351
2.5326
2.52861
2.52356
2.51806
2.51288
2.50884
2.50667
2.50699
2.5101
2.51607
2.52465
2.53539
2.54768
2.56081
2.57406
2.58669
2.59799
2.60728
2.61394
2.61744
2.61736
2.61344
2.60567
2.59433
2.58
2.56356
2.54614
2.52907
2.51375
2.50147
2.4932
2.4895
2.49042
2.4956
2.50433
2.51569
2.52867
2.5423
2.55563
2.56779
2.57797
2.58542
2.58946
2.58949
2.585
2.57557
2.561
2.54159
2.51829
2.49281
2.46732
2.44402
2.42478
2.41088
2.40301
2.40112
2.40461
2.4125
2.42359
2.43655
2.45003
2.4628
2.47389
2.48255
2.48827
2.49075
2.48986
2.48559
2.47806
2.46746
2.45413
2.43854
2.42133
2.40329
2.38544
2.36881
2.35442
2.34317
2.33567
2.33231
2.3332
2.3382
2.34694
2.35895
2.37362
2.39022
2.40792
2.42584
2.44316
2.45904
2.47336
0.744031
2.74352
2.74466
2.74661
2.74899
2.75141
2.75347
2.75485
2.75526
2.75457
2.75278
2.75003
2.74666
2.74309
2.73986
2.73753
2.73661
2.73751
2.74045
2.74546
2.75238
2.76089
2.77053
2.78078
2.79107
2.80082
2.80948
2.81651
2.82144
2.82386
2.82351
2.82023
2.81406
2.80526
2.79428
2.78181
2.76868
2.75587
2.74436
2.73505
2.72861
2.72547
2.7257
2.72911
2.7352
2.74334
2.75277
2.76274
2.77249
2.78132
2.78855
2.79356
2.7958
2.79483
2.79033
2.78218
2.77045
2.75547
2.7379
2.71883
2.6996
2.68168
2.6664
2.65478
2.64746
2.64459
2.64591
2.65074
2.65819
2.66723
2.6768
2.68598
2.69399
2.70022
2.70424
2.70577
2.70467
2.7009
2.69455
2.68582
2.67502
2.66256
2.64895
2.63481
2.62086
2.60784
2.59649
2.58749
2.58132
2.57832
2.57867
2.58234
2.58913
2.59869
2.61049
2.6239
2.63823
2.65273
2.66676
2.67965
2.69131
0.527996
2.96952
2.96993
2.97095
2.9723
2.97372
2.97493
2.9757
2.97585
2.97528
2.974
2.97214
2.96994
2.96769
2.96578
2.96459
2.96446
2.96569
2.9684
2.97263
2.97826
2.98504
2.99264
3.00065
3.00866
3.0162
3.02283
3.02816
3.03181
3.03351
3.03304
3.03034
3.02546
3.01862
3.01019
3.00068
2.99073
2.98104
2.9723
2.96516
2.96012
2.95748
2.95732
2.9595
2.96371
2.96947
2.97623
2.98341
2.99042
2.99669
3.00168
3.00491
3.00594
3.00445
3.00021
2.99315
2.98344
2.97141
2.95762
2.94286
2.92805
2.91419
2.90219
2.89281
2.88656
2.8836
2.88377
2.88659
2.89142
2.89752
2.90411
2.91051
2.91612
2.92044
2.92312
2.92391
2.92265
2.91932
2.91397
2.90675
2.89793
2.88785
2.87694
2.86568
2.85463
2.84434
2.83538
2.82823
2.8233
2.82088
2.82114
2.82407
2.82952
2.83719
2.84666
2.85739
2.86885
2.88045
2.8917
2.90206
2.91147
0.746522
3.19454
3.19445
3.19483
3.19548
3.19623
3.19686
3.19723
3.19721
3.19674
3.19585
3.19461
3.19321
3.19187
3.19083
3.19038
3.19074
3.19211
3.19458
3.19816
3.20276
3.20819
3.2142
3.2205
3.22674
3.23258
3.23767
3.24172
3.24444
3.24562
3.24513
3.24293
3.23908
3.23376
3.22726
3.21998
3.21238
3.20499
3.19831
3.1928
3.18883
3.18661
3.18621
3.18755
3.19039
3.1944
3.19918
3.20426
3.2092
3.21356
3.21689
3.21883
3.21905
3.2173
3.21344
3.20744
3.19944
3.18972
3.17875
3.16712
3.15552
3.14465
3.13519
3.12765
3.1224
3.11954
3.11896
3.12036
3.12328
3.12721
3.1316
3.13591
3.1397
3.14257
3.14422
3.14443
3.14308
3.14012
3.13561
3.12966
3.12247
3.11432
3.10555
3.09655
3.08776
3.07961
3.07254
3.06692
3.06307
3.06123
3.0615
3.06388
3.06824
3.07433
3.08182
3.09031
3.09938
3.10859
3.11755
3.12584
3.13338
0.525979
3.41881
3.41838
3.41834
3.41852
3.41881
3.41906
3.41917
3.41905
3.41868
3.41806
3.41726
3.41641
3.41567
3.4152
3.41522
3.41586
3.41726
3.41947
3.4225
3.42627
3.43064
3.43542
3.44038
3.44525
3.44979
3.45371
3.45679
3.45882
3.45966
3.45919
3.45741
3.45437
3.45023
3.44521
3.43962
3.43379
3.42812
3.42297
3.41869
3.41553
3.41365
3.41312
3.41386
3.41572
3.41845
3.42174
3.42527
3.42867
3.43159
3.43371
3.43474
3.43442
3.43258
3.42913
3.42407
3.41752
3.40969
3.40096
3.39176
3.3826
3.374
3.36643
3.36028
3.35578
3.35303
3.35197
3.35237
3.35395
3.35634
3.35911
3.3619
3.36433
3.36611
3.36698
3.36677
3.36538
3.36276
3.35894
3.35402
3.34817
3.3416
3.33458
3.32742
3.32045
3.31402
3.30846
3.30407
3.30108
3.29967
3.29991
3.30179
3.30521
3.30999
3.31586
3.32254
3.32969
3.33698
3.34411
3.3507
3.35672
0.748179
3.64245
3.64183
3.6415
3.64139
3.64138
3.64138
3.64133
3.64116
3.64085
3.64042
3.63993
3.63945
3.6391
3.639
3.63929
3.64007
3.64142
3.64338
3.64594
3.64904
3.65257
3.65638
3.6603
3.66412
3.66765
3.67067
3.67303
3.67456
3.67514
3.67472
3.67329
3.6709
3.66768
3.66379
3.65947
3.65498
3.65061
3.64662
3.64326
3.64072
3.63913
3.63852
3.63885
3.64
3.6418
3.64402
3.64639
3.64866
3.65054
3.65179
3.65218
3.65152
3.6497
3.64665
3.64238
3.637
3.63068
3.62369
3.61638
3.6091
3.60223
3.59611
3.59102
3.58715
3.58455
3.58321
3.58298
3.58364
3.58494
3.58658
3.58825
3.5897
3.59068
3.59098
3.59048
3.58908
3.58676
3.58352
3.57945
3.57468
3.56938
3.56376
3.55806
3.55255
3.54749
3.54312
3.53968
3.53734
3.53623
3.53642
3.53788
3.54055
3.54429
3.54889
3.55414
3.55978
3.56555
3.57119
3.57641
3.58118
0.524652
3.86561
3.86488
3.86439
3.86409
3.86389
3.86374
3.86359
3.86339
3.86314
3.86285
3.86256
3.86232
3.86223
3.86235
3.8628
3.86362
3.86488
3.86659
3.86875
3.87129
3.87415
3.87719
3.88029
3.88329
3.88605
3.88839
3.89019
3.89135
3.89176
3.8914
3.89026
3.88838
3.88587
3.88285
3.87951
3.87603
3.87264
3.86953
3.86688
3.86483
3.86346
3.86282
3.86288
3.86353
3.86466
3.8661
3.86763
3.86907
3.87021
3.87084
3.8708
3.86996
3.86822
3.86554
3.86194
3.85751
3.85238
3.84676
3.8409
3.83507
3.82954
3.82456
3.82033
3.817
3.8146
3.81315
3.81252
3.81258
3.81314
3.81397
3.81485
3.8156
3.816
3.81591
3.81522
3.81386
3.8118
3.80906
3.80568
3.80179
3.7975
3.793
3.78846
3.78409
3.78009
3.77665
3.77394
3.77211
3.77124
3.77138
3.77251
3.7746
3.77752
3.78113
3.78526
3.7897
3.79424
3.79869
3.80281
3.80656
0.749277
4.08836
4.08759
4.08702
4.08661
4.08631
4.08607
4.08586
4.08565
4.08545
4.08525
4.08509
4.08502
4.08507
4.08533
4.08583
4.08664
4.08778
4.08926
4.09107
4.09316
4.09547
4.0979
4.10036
4.10272
4.10487
4.10669
4.10808
4.10895
4.10925
4.10894
4.10803
4.10656
4.1046
4.10225
4.09966
4.09696
4.09432
4.09188
4.08978
4.08811
4.08695
4.08631
4.08618
4.0865
4.08715
4.08803
4.08897
4.08982
4.09043
4.09064
4.09034
4.08941
4.08779
4.08546
4.08243
4.07877
4.0746
4.07006
4.06535
4.06065
4.05617
4.0521
4.04858
4.04572
4.04355
4.04208
4.04123
4.04091
4.04097
4.04126
4.0416
4.04185
4.04187
4.04152
4.04073
4.03944
4.03762
4.03529
4.0325
4.02932
4.02585
4.02224
4.01862
4.01515
4.01199
4.00927
4.00714
4.0057
4.00501
4.00511
4.006
4.00762
4.00991
4.01273
4.01597
4.01945
4.02302
4.02651
4.02974
4.03268
0.52377
4.31076
4.31
4.3094
4.30894
4.30859
4.30831
4.30808
4.30788
4.30771
4.30758
4.30751
4.30752
4.30767
4.30798
4.30849
4.30924
4.31025
4.31152
4.31302
4.31474
4.3166
4.31855
4.32049
4.32235
4.32403
4.32544
4.32651
4.32717
4.32738
4.32713
4.32641
4.32525
4.32373
4.32191
4.31989
4.3178
4.31574
4.31382
4.31214
4.31079
4.3098
4.30919
4.30895
4.30903
4.30937
4.30985
4.31037
4.31082
4.31107
4.31101
4.31055
4.30961
4.30814
4.30613
4.30359
4.30058
4.29718
4.29351
4.28971
4.28592
4.28229
4.27895
4.27602
4.27358
4.27165
4.27024
4.26929
4.26875
4.2685
4.26843
4.26842
4.26835
4.26811
4.26761