/*--------------------------------*- C++ -*----------------------------------*\
| =========                 |                                                 |
| \\      /  F ield         | OpenFOAM: The Open Source CFD Toolbox           |
|  \\    /   O peration     | Version:  2506                                  |
|   \\  /    A nd           | Website:  www.openfoam.com                      |
|    \\/     M anipulation  |                                                 |
\*---------------------------------------------------------------------------*/
FoamFile
{
    version     2.0;
    format      ascii;
    arch        "LSB;label=32;scalar=64";
    class       volVectorField;
    location    "70.020198564267872";
    object      U_0;
}
// * * * * * * * * * * * * * * * * * * * * * * * * * * * * * * * * * * * * * //

dimensions      [0 1 -1 0 0 0 0];

internalField   nonuniform List<vector> 
9700
(
(1.07824 -0.000223425 1.59225e-22)
(1.07802 -0.000586481 -1.70992e-24)
(1.07895 -0.000381691 1.04742e-28)
(1.07758 -0.001106 -2.01751e-22)
(1.07879 -0.00111195 -8.78138e-25)
(1.07965 -0.000430696 -1.56506e-22)
(1.07683 -0.001671 1.56369e-24)
(1.07851 -0.00197679 -1.8592e-35)
(1.07955 -0.00129869 -1.56641e-22)
(1.0805 -0.000475787 0)
(1.0758 -0.00244517 1.47786e-22)
(1.07796 -0.00294912 2.68082e-24)
(1.07935 -0.00227877 -1.12634e-21)
(1.08046 -0.00147317 1.50887e-23)
(1.08143 -0.000490312 1.58804e-22)
(1.07441 -0.00341167 1.37027e-22)
(1.07724 -0.00415693 -1.41809e-27)
(1.07896 -0.00339563 -1.46894e-22)
(1.08038 -0.0025575 3.80347e-35)
(1.08144 -0.0015525 1.54033e-22)
(1.08237 -0.000480455 -4.73018e-28)
(1.07264 -0.00468033 -2.51478e-23)
(1.07626 -0.00563748 2.07486e-27)
(1.07844 -0.00475084 -1.41699e-22)
(1.08017 -0.00380831 -3.2115e-23)
(1.08148 -0.00267441 1.15105e-21)
(1.08245 -0.00155257 4.93895e-24)
(1.08328 -0.000446538 -1.67438e-22)
(1.07039 -0.00630133 1.78796e-22)
(1.07501 -0.00749566 7.8654e-23)
(1.07773 -0.00640987 -1.38056e-22)
(1.07992 -0.00529736 0)
(1.08147 -0.00398358 1.62583e-22)
(1.08259 -0.00265775 -5.75606e-36)
(1.08342 -0.00147087 -1.73106e-22)
(1.08412 -0.000391165 -1.42643e-21)
(1.06758 -0.00837124 1.75028e-23)
(1.07341 -0.00982331 -3.82269e-22)
(1.07683 -0.00847098 -1.35108e-22)
(1.07956 -0.00711949 0)
(1.08147 -0.00552246 1.57139e-22)
(1.08277 -0.00396188 -1.16043e-23)
(1.08368 -0.0025039 -1.09643e-25)
(1.08432 -0.00131312 -1.63845e-21)
(1.08484 -0.00031732 6.42428e-25)
(1.06409 -0.0109851 -1.38879e-22)
(1.0714 -0.0127348 -1.78534e-22)
(1.07567 -0.0110459 -1.2783e-21)
(1.0791 -0.00936495 7.95876e-38)
(1.08146 -0.00740829 1.25823e-22)
(1.08304 -0.00548003 5.68668e-27)
(1.08404 -0.00373705 -1.3925e-22)
(1.08466 -0.0022233 -2.18086e-22)
(1.08508 -0.00108714 1.04269e-22)
(1.08541 -0.000228304 1.51879e-21)
(1.05973 -0.0142593 1.0375e-22)
(1.06884 -0.0163742 1.92783e-23)
(1.0742 -0.0142568 2.47111e-22)
(1.07851 -0.0121657 -1.9313e-23)
(1.08145 -0.00972163 1.32491e-23)
(1.08338 -0.00734482 -7.28822e-27)
(1.08455 -0.00516132 -1.33106e-22)
(1.08519 -0.0033239 -1.5888e-21)
(1.08551 -0.00182953 2.26111e-22)
(1.08568 -0.000804274 1.56352e-21)
(1.08579 -0.000126233 0)
(1.05435 -0.0183244 -3.23265e-25)
(1.06557 -0.0209072 1.65676e-23)
(1.07235 -0.0182659 7.1448e-22)
(1.07775 -0.0156511 -6.09079e-23)
(1.08143 -0.0126078 1.28578e-21)
(1.08383 -0.0096256 -2.46351e-22)
(1.08524 -0.00691648 -1.72837e-22)
(1.08594 -0.0045861 -1.38377e-21)
(1.08619 -0.00274225 3.54845e-22)
(1.08618 -0.00134154 -1.21929e-25)
(1.08608 -0.000478915 -1.13088e-36)
(1.08596 -6.6462e-06 1.92719e-22)
(1.04774 -0.0233034 6.33913e-22)
(1.0615 -0.0265199 1.10995e-22)
(1.07 -0.0232471 -6.59428e-23)
(1.07677 -0.0200083 1.79981e-23)
(1.0814 -0.0161985 -1.23313e-22)
(1.0844 -0.0124743 3.0573e-23)
(1.08613 -0.00905898 -3.85343e-22)
(1.08693 -0.00614825 -1.32612e-21)
(1.08713 -0.00378114 -1.7713e-27)
(1.08697 -0.00202049 1.58317e-21)
(1.08663 -0.000781958 2.62653e-36)
(1.08627 -0.000127031 1.83775e-22)
(1.08592 0.000112265 -8.30482e-28)
(1.03961 -0.0293314 -1.61056e-24)
(1.05649 -0.033394 4.39925e-35)
(1.06703 -0.0294329 -2.13202e-23)
(1.07549 -0.0254313 5.75435e-23)
(1.08132 -0.0206966 -6.3186e-22)
(1.08511 -0.0160201 4.1123e-22)
(1.08726 -0.0117396 -1.2982e-21)
(1.08823 -0.00805231 -1.3921e-21)
(1.08839 -0.00507497 2.36002e-27)
(1.08806 -0.00278502 1.56519e-21)
(1.08749 -0.00119312 -9.82755e-37)
(1.08683 -0.000176634 1.32393e-25)
(1.08623 0.000236282 8.80146e-24)
(1.08565 0.00022388 -2.09268e-22)
(1.02963 -0.0365677 1.01377e-22)
(1.05022 -0.0417784 -1.78353e-22)
(1.06323 -0.0370677 -7.02572e-23)
(1.07383 -0.0321886 4.90658e-23)
(1.08118 -0.026309 5.51324e-23)
(1.08597 -0.0204734 -4.62968e-23)
(1.08869 -0.015079 -5.75016e-22)
(1.08989 -0.0104398 -4.9384e-22)
(1.09004 -0.00664961 -2.78489e-22)
(1.08954 -0.00374764 1.46075e-21)
(1.0887 -0.00164513 0)
(1.08775 -0.000298866 2.28369e-22)
(1.08679 0.000445399 -9.90401e-36)
(1.08595 0.000595145 -2.1937e-22)
(1.08518 0.000325773 -2.75602e-22)
(1.01742 -0.0451523 7.71524e-22)
(1.04236 -0.0519474 -8.61667e-23)
(1.05842 -0.0464706 1.29502e-23)
(1.07164 -0.0405745 -3.95925e-36)
(1.08092 -0.0333377 -2.947e-23)
(1.08699 -0.0260458 -5.75942e-23)
(1.09046 -0.0192849 6.6475e-22)
(1.09198 -0.0134167 -1.84018e-21)
(1.09215 -0.00862945 1.21378e-21)
(1.09147 -0.00491668 1.04963e-21)
(1.09033 -0.00222944 0)
(1.08901 -0.000415183 2.3156e-22)
(1.08771 0.000620895 -2.24411e-23)
(1.08649 0.00105526 -1.55489e-21)
(1.08546 0.000933568 -4.47607e-22)
(1.08451 0.000415288 6.89551e-29)
(1.00243 -0.0551902 5.86193e-23)
(1.03247 -0.0641335 -5.0892e-23)
(1.05224 -0.0579962 -1.09875e-22)
(1.06883 -0.0509951 -6.59563e-23)
(1.08048 -0.0421161 -5.77315e-22)
(1.08821 -0.033062 -4.40992e-22)
(1.09265 -0.0245626 -2.09664e-23)
(1.09461 -0.0171762 -8.94662e-22)
(1.09483 -0.0110996 1.1306e-21)
(1.09394 -0.00639233 7.27961e-23)
(1.09245 -0.00293598 -8.28948e-36)
(1.09072 -0.000592332 1.545e-22)
(1.08897 0.000847256 1.15434e-26)
(1.08737 0.00152384 -1.88846e-22)
(1.08595 0.0016264 -2.83049e-22)
(1.08476 0.00123744 2.1365e-22)
(1.08367 0.000488779 2.82413e-22)
(0.984199 -0.0665525 1.27943e-21)
(1.01978 -0.0784358 4.37812e-22)
(1.04413 -0.0718882 -1.3935e-22)
(1.06489 -0.0638643 0)
(1.07978 -0.0531343 -4.02211e-23)
(1.08965 -0.0418839 -5.53485e-36)
(1.09536 -0.0312453 -1.14384e-22)
(1.09789 -0.0219056 4.45082e-22)
(1.0982 -0.0142271 -1.03411e-21)
(1.09708 -0.00823348 9.23574e-22)
(1.09517 -0.00383496 6.76288e-22)
(1.09293 -0.000802171 -2.38328e-22)
(1.09068 0.00108638 -1.57552e-26)
(1.08859 0.0020834 -1.91054e-22)
(1.08676 0.00236944 -6.30276e-22)
(1.08519 0.00213528 1.91938e-21)
(1.08388 0.00149476 2.83628e-22)
(1.0827 0.000543899 -2.83531e-22)
(0.962258 -0.0790348 -3.66525e-21)
(1.00357 -0.0947226 -6.60851e-22)
(1.03323 -0.0881424 4.01259e-22)
(1.05914 -0.0793835 7.11228e-35)
(1.07828 -0.0667814 4.96407e-22)
(1.09124 -0.0530501 7.43303e-22)
(1.0987 -0.0397029 3.9957e-22)
(1.10201 -0.0279281 -1.70502e-22)
(1.10244 -0.0181689 1.23289e-21)
(1.10105 -0.0105695 1.14305e-21)
(1.09863 -0.00495492 -8.58853e-22)
(1.09577 -0.00108075 2.29377e-21)
(1.09289 0.00138267 -5.71069e-22)
(1.09022 0.00272742 -2.63913e-22)
(1.08788 0.00323717 -2.95873e-22)
(1.0859 0.00312194 2.43284e-22)
(1.08423 0.00256183 -1.65126e-21)
(1.08287 0.0016963 -5.09629e-22)
(1.08163 0.000579965 -4.37984e-29)
(0.93647 -0.0921423 -1.14172e-21)
(0.983155 -0.112862 -3.14033e-22)
(1.01872 -0.106597 1.92647e-21)
(1.0505 -0.0974859 -1.08001e-35)
(1.07497 -0.0831521 2.72438e-22)
(1.0922 -0.0668364 3.72623e-22)
(1.10253 -0.0504659 3.29299e-22)
(1.10716 -0.0355934 5.30543e-23)
(1.10783 -0.0232164 -1.52289e-21)
(1.10607 -0.0135168 1.0527e-21)
(1.10301 -0.00637853 -1.17441e-21)
(1.09939 -0.00142403 2.39163e-21)
(1.09573 0.00173634 7.66326e-23)
(1.09234 0.00351373 -6.1381e-22)
(1.08937 0.00425494 -3.06918e-22)
(1.08687 0.00425913 -1.02732e-27)
(1.08482 0.00375104 3.0741e-22)
(1.08313 0.00289113 -2.93384e-22)
(1.08174 0.00183635 3.03439e-24)
(1.0805 0.000596964 2.77996e-22)
(0.907147 -0.105445 9.86169e-21)
(0.95822 -0.132603 1.67738e-22)
(0.999959 -0.127104 -4.71957e-21)
(1.03812 -0.118119 -2.1005e-35)
(1.06875 -0.10217 -1.65975e-21)
(1.09134 -0.0832107 -1.01353e-25)
(1.10578 -0.0636012 2.36298e-21)
(1.11302 -0.0453511 1.16222e-21)
(1.11457 -0.0296673 -6.71101e-24)
(1.11248 -0.0173121 5.30611e-22)
(1.10858 -0.00817267 1.50512e-21)
(1.10397 -0.00186214 -1.69532e-21)
(1.09933 0.00218413 1.1187e-21)
(1.09504 0.0044782 -2.60137e-21)
(1.09129 0.00549062 -5.69653e-22)
(1.08817 0.00560211 1.4389e-27)
(1.08562 0.00510748 3.19576e-22)
(1.08358 0.00423415 -5.37542e-22)
(1.08192 0.00311443 6.10042e-35)
(1.08056 0.00191274 4.65469e-22)
(1.07934 0.000595756 1.89207e-24)
(0.874031 -0.118379 3.02511e-22)
(0.929156 -0.153496 0)
(0.976663 -0.149471 -4.36187e-22)
(1.02133 -0.141304 0)
(1.05888 -0.124091 -4.04703e-21)
(1.08776 -0.102282 -2.3134e-21)
(1.1073 -0.0790587 -8.30127e-22)
(1.11825 -0.057024 1.9712e-21)
(1.12207 -0.0378195 2.71234e-21)
(1.12046 -0.0221693 1.34319e-23)
(1.1157 -0.0104987 1.11267e-36)
(1.10981 -0.00240596 2.56363e-22)
(1.10389 0.00275038 -1.36515e-22)
(1.09846 0.00568863 1.23212e-21)
(1.09374 0.00701277 -2.07602e-21)
(1.08982 0.00722488 2.17485e-22)
(1.08667 0.00671263 3.11551e-22)
(1.08417 0.00575126 -3.12156e-22)
(1.08222 0.00455789 -6.95538e-24)
(1.08065 0.00322889 2.87381e-22)
(1.07935 0.00192709 8.78952e-24)
(1.07819 0.0005782 -2.49753e-21)
(0.838093 -0.130383 1.73123e-22)
(0.895609 -0.175092 1.50775e-22)
(0.948516 -0.17321 7.75811e-21)
(0.999581 -0.166906 -9.72963e-36)
(1.04463 -0.149228 1.02425e-20)
(1.08096 -0.124863 4.89314e-21)
(1.10672 -0.0973922 -3.01756e-21)
(1.12213 -0.070762 4.74677e-22)
(1.12893 -0.0473077 -2.70313e-26)
(1.12911 -0.0281886 2.75673e-22)
(1.12447 -0.0134605 -2.34113e-36)
(1.11729 -0.00312606 -5.53376e-23)
(1.10971 0.00348301 -1.83659e-22)
(1.10278 0.00722151 2.28444e-21)
(1.09683 0.0089166 -6.64253e-22)
(1.09191 0.00922412 1.97148e-21)
(1.08799 0.00864242 2.02101e-22)
(1.08494 0.00754499 -3.28167e-22)
(1.0826 0.00617237 4.13013e-28)
(1.0808 0.00471787 6.03769e-22)
(1.07936 0.00323792 6.81443e-22)
(1.07816 0.0018846 -2.82526e-21)
(1.07709 0.000547038 -7.72234e-25)
(0.800989 -0.141514 8.21806e-22)
(0.859177 -0.196703 9.82741e-23)
(0.915783 -0.197639 -2.50175e-22)
(0.972362 -0.194243 -3.01142e-35)
(1.02505 -0.177501 3.89607e-21)
(1.06996 -0.151517 3.89638e-21)
(1.10378 -0.120126 6.25331e-21)
(1.12517 -0.0877847 5.36655e-21)
(1.13531 -0.0587296 2.25523e-21)
(1.13728 -0.0349604 3.55319e-21)
(1.13373 -0.0169562 -7.66725e-37)
(1.12633 -0.00399949 1.34336e-21)
(1.11714 0.00441065 -1.51202e-21)
(1.10829 0.00918196 -2.43337e-22)
(1.1007 0.0113246 -1.13203e-22)
(1.09453 0.0117165 -7.77595e-22)
(1.08965 0.0110153 2.66358e-23)
(1.0859 0.00968891 -6.1938e-22)
(1.08308 0.00807517 -5.01197e-28)
(1.08096 0.00636524 3.05179e-22)
(1.07936 0.00471913 -2.14145e-23)
(1.0781 0.00315093 -2.71319e-22)
(1.07702 0.00179353 1.2328e-22)
(1.07605 0.00050576 2.31409e-21)
(0.764059 -0.152037 6.78992e-24)
(0.82145 -0.218325 1.62643e-22)
(0.879264 -0.222174 1.66274e-21)
(0.939829 -0.222386 -4.43485e-35)
(0.999142 -0.207937 -1.69564e-20)
(1.05309 -0.182074 -1.45167e-20)
(1.09679 -0.147787 -1.42285e-20)
(1.12692 -0.110234 1.07212e-21)
(1.14267 -0.0739869 -6.97895e-21)
(1.14641 -0.0436605 -2.4726e-21)
(1.14297 -0.0207026 0)
(1.1357 -0.00476586 6.42235e-22)
(1.12595 0.00568216 9.58033e-35)
(1.11528 0.0116977 -5.53536e-22)
(1.10562 0.0143938 7.98245e-22)
(1.09778 0.0148616 -2.21469e-21)
(1.09168 0.0139622 1.04796e-21)
(1.08706 0.0123159 -2.15771e-21)
(1.08364 0.0103334 1.20562e-23)
(1.08115 0.00829621 3.20418e-22)
(1.07933 0.00633743 -2.2201e-23)
(1.07798 0.00457575 -2.79745e-21)
(1.0769 0.00298247 2.25442e-21)
(1.07596 0.00166487 2.46012e-21)
(1.0751 0.000458384 2.34109e-22)
(0.734755 -0.160208 3.63055e-21)
(0.784103 -0.239242 -2.45406e-21)
(0.840671 -0.246061 -1.32397e-20)
(0.902782 -0.250298 -3.94357e-21)
(0.966857 -0.239312 -5.76431e-21)
(1.02869 -0.21514 -1.5903e-21)
(1.0831 -0.17989 4.56272e-21)
(1.12448 -0.138105 1.4958e-20)
(1.1497 -0.0954484 3.2997e-21)
(1.15862 -0.0566123 -1.12138e-20)
(1.15503 -0.0263369 -3.3939e-35)
(1.14574 -0.00536291 5.3667e-21)
(1.13494 0.00763693 2.78322e-21)
(1.12338 0.0150218 -5.09606e-21)
(1.11181 0.0183408 6.33625e-22)
(1.10188 0.0188592 1.51192e-22)
(1.09419 0.0176694 2.89571e-21)
(1.08846 0.0155632 -1.25223e-22)
(1.08429 0.0130868 1.30156e-23)
(1.08133 0.0105678 6.03992e-22)
(1.07925 0.00821881 2.90519e-23)
(1.07777 0.00610891 -2.75114e-21)
(1.07668 0.00430953 -3.10626e-22)
(1.07579 0.00275159 1.34897e-21)
(1.075 0.0015116 3.1622e-22)
(1.07425 0.000409191 1.86674e-28)
(0.714771 -0.16693 1.34138e-21)
(0.754775 -0.255548 -1.05147e-21)
(0.802158 -0.26886 1.6892e-23)
(0.863186 -0.276831 7.88495e-26)
(0.928813 -0.269961 -1.47143e-21)
(0.996454 -0.249196 8.36151e-21)
(1.06033 -0.214575 2.48095e-20)
(1.11409 -0.17047 2.03208e-20)
(1.15174 -0.122127 1.48332e-20)
(1.17084 -0.075856 1.10066e-21)
(1.17204 -0.0361954 8.37755e-36)
(1.16052 -0.00753422 -1.03957e-21)
(1.14539 0.0101555 1.42923e-21)
(1.13158 0.0194904 3.70385e-23)
(1.11883 0.0234886 -5.56715e-22)
(1.10698 0.0239957 2.57548e-22)
(1.09729 0.0223655 5.30558e-22)
(1.09012 0.0196323 -3.96936e-22)
(1.08501 0.0164705 -1.02043e-35)
(1.08147 0.0133187 2.15257e-21)
(1.07906 0.0104072 2.69633e-22)
(1.07745 0.00787034 -2.86044e-21)
(1.07633 0.00571029 8.23696e-27)
(1.0755 0.00394906 2.23021e-21)
(1.07481 0.00248068 -3.32093e-21)
(1.07414 0.0013479 -1.44088e-22)
(1.07349 0.000362585 -2.12583e-22)
(0.698787 -0.173834 1.56445e-22)
(0.734056 -0.267705 5.9813e-21)
(0.771856 -0.286298 3.96853e-21)
(0.823137 -0.301211 -1.85042e-21)
(0.887131 -0.298569 2.87513e-20)
(0.956826 -0.282104 7.5597e-22)
(1.028 -0.250269 -6.75236e-21)
(1.09289 -0.20517 2.71834e-20)
(1.14438 -0.152776 1.01417e-20)
(1.17663 -0.0992997 -1.31097e-20)
(1.18872 -0.0514462 7.74605e-39)
(1.18144 -0.0132128 -1.02539e-20)
(1.16211 0.0118117 -4.14879e-25)
(1.14186 0.0249419 4.48007e-21)
(1.12586 0.0301286 -3.95465e-21)
(1.11262 0.0306328 4.05658e-21)
(1.10107 0.0283818 4.68725e-22)
(1.09211 0.0247643 -2.04649e-22)
(1.0858 0.0206895 -1.09079e-23)
(1.08153 0.0166744 2.86078e-22)
(1.07873 0.0130329 -3.45046e-21)
(1.07694 0.00988865 -3.85009e-21)
(1.07581 0.0072924 -1.08979e-26)
(1.07505 0.00518153 2.45847e-21)
(1.07447 0.00352797 3.52606e-23)
(1.07395 0.002194 1.11303e-34)
(1.07339 0.00118849 -1.34894e-22)
(1.07282 0.000322848 0)
(0.686862 -0.18065 1.20023e-21)
(0.716855 -0.279587 4.00892e-21)
(0.750343 -0.29919 1.77627e-20)
(0.791438 -0.319105 2.86688e-20)
(0.844105 -0.323599 9.77678e-21)
(0.91218 -0.312295 8.57663e-22)
(0.986277 -0.284337 6.40994e-21)
(1.06024 -0.240868 2.72124e-20)
(1.12456 -0.185257 1.15786e-20)
(1.17169 -0.125697 -1.68618e-21)
(1.19728 -0.0693267 0)
(1.20138 -0.0222679 1.34201e-21)
(1.18526 0.0114686 -1.05257e-20)
(1.15926 0.0305715 -1.7114e-22)
(1.13521 0.038213 -7.54894e-22)
(1.11811 0.0390234 8.87922e-22)
(1.10513 0.0360985 -3.71087e-21)
(1.09446 0.0313098 -6.31907e-22)
(1.08664 0.0259816 -5.71474e-24)
(1.08145 0.0208324 3.41847e-22)
(1.07817 0.0162052 -1.10981e-21)
(1.07619 0.0122791 -1.87362e-21)
(1.07505 0.00906758 7.17728e-22)
(1.07439 0.006539 2.50779e-21)
(1.07397 0.00456944 2.37321e-22)
(1.0736 0.00308271 3.56072e-22)
(1.07321 0.00191672 1.14307e-21)
(1.07274 0.0010477 1.14459e-22)
(1.07223 0.000293906 -1.83243e-21)
(0.680169 -0.188099 1.07663e-21)
(0.704499 -0.290752 -2.19309e-21)
(0.732325 -0.31169 -7.55447e-21)
(0.7686 -0.331631 2.3369e-21)
(0.809779 -0.340978 2.88551e-20)
(0.864935 -0.337504 2.02075e-21)
(0.937853 -0.315156 -4.14422e-20)
(1.01592 -0.274343 -7.39612e-22)
(1.09134 -0.218741 -3.43168e-20)
(1.15302 -0.153308 -4.04293e-20)
(1.194 -0.0889805 -6.71804e-36)
(1.21141 -0.0326476 1.96126e-21)
(1.20675 0.0103831 2.34397e-20)
(1.18285 0.0361526 -1.08082e-20)
(1.15185 0.0477348 9.97767e-21)
(1.1257 0.0493225 -3.64829e-21)
(1.10878 0.0457528 1.04149e-21)
(1.09679 0.0396542 -7.12711e-22)
(1.0875 0.0326929 -3.92021e-24)
(1.08117 0.0260133 1.2442e-22)
(1.07729 0.0201042 -2.40031e-21)
(1.07509 0.0151291 -9.88065e-22)
(1.07395 0.0111305 3.02192e-21)
(1.07345 0.00801561 2.4918e-21)
(1.07323 0.00567336 2.38871e-22)
(1.07309 0.00392477 -2.37129e-27)
(1.0729 0.00265118 -3.97798e-22)
(1.0726 0.00167327 -8.84054e-22)
(1.07217 0.00093845 -1.85004e-21)
(1.07169 0.000279119 -4.99874e-25)
(0.681664 -0.195638 -2.37953e-21)
(0.697813 -0.301234 -3.4573e-21)
(0.71869 -0.323392 -1.88093e-21)
(0.749109 -0.34326 1.32193e-20)
(0.784679 -0.352357 -2.25497e-20)
(0.826799 -0.354168 -3.96086e-20)
(0.885283 -0.339799 -1.99832e-23)
(0.963117 -0.304285 -3.73287e-20)
(1.04396 -0.249185 -3.47023e-20)
(1.11888 -0.181957 -4.38668e-20)
(1.17584 -0.10908 -2.83077e-34)
(1.20863 -0.0442045 2.03148e-20)
(1.21579 0.0085045 1.92219e-20)
(1.20407 0.042759 -3.02001e-21)
(1.17443 0.0591067 -1.9204e-21)
(1.14017 0.0623128 -6.16035e-21)
(1.11389 0.0576749 3.69556e-21)
(1.09842 0.0500366 -2.49949e-21)
(1.08806 0.0412029 2.82499e-35)
(1.08058 0.0325393 6.65833e-22)
(1.07597 0.0249219 -2.46252e-23)
(1.07351 0.0185935 -3.90547e-22)
(1.07241 0.0135424 -2.81206e-21)
(1.07211 0.00968073 1.69006e-21)
(1.07219 0.00681621 1.05659e-21)
(1.07235 0.00476394 3.14842e-27)
(1.07243 0.00330029 -2.03514e-22)
(1.07235 0.00227027 2.52565e-22)
(1.07209 0.00148572 6.1151e-22)
(1.07167 0.000871568 -6.06902e-23)
(1.07118 0.000280935 1.71656e-21)
(0.690312 -0.203695 -5.63689e-22)
(0.697417 -0.310808 3.00048e-21)
(0.710309 -0.333993 5.56841e-21)
(0.733862 -0.353641 2.21364e-22)
(0.762853 -0.362135 7.50369e-21)
(0.798392 -0.364336 -1.24175e-20)
(0.842344 -0.355533 -6.64698e-21)
(0.904431 -0.327146 7.46686e-21)
(0.986549 -0.27638 4.88872e-20)
(1.06822 -0.206437 -7.62686e-21)
(1.1402 -0.130095 -5.51751e-35)
(1.19055 -0.0547279 -9.6799e-21)
(1.21338 0.00570339 -7.31924e-20)
(1.2156 0.0498786 8.55307e-21)
(1.19398 0.0724426 6.20686e-21)
(1.16034 0.0788888 1.05095e-21)
(1.12488 0.073243 -7.04625e-21)
(1.10058 0.062855 -1.02402e-21)
(1.08761 0.0517627 4.20927e-23)
(1.07941 0.0407686 6.84481e-22)
(1.07406 0.0309426 9.89484e-23)
(1.07129 0.0228272 -4.31015e-21)
(1.07028 0.016426 2.43631e-21)
(1.07026 0.0115668 2.95269e-21)
(1.07072 0.00803863 2.20289e-22)
(1.07129 0.00555962 -8.62956e-23)
(1.07174 0.00388213 -1.97982e-22)
(1.07197 0.00274752 0)
(1.07193 0.00197343 -1.79926e-21)
(1.07165 0.00137259 -7.6695e-22)
(1.07119 0.000855035 1.71498e-21)
(1.07065 0.000300366 -1.68293e-21)
(0.707228 -0.211999 -5.7211e-22)
(0.70392 -0.319179 -2.8371e-21)
(0.708134 -0.343285 -1.11818e-21)
(0.723638 -0.3625 2.16084e-20)
(0.745172 -0.369971 6.24089e-21)
(0.773195 -0.372086 -1.46428e-20)
(0.809841 -0.364703 5.02143e-21)
(0.856004 -0.341256 7.8463e-21)
(0.92123 -0.295762 8.3908e-21)
(1.00641 -0.228993 -1.28454e-20)
(1.08647 -0.145709 -3.2206e-20)
(1.15273 -0.0652414 -2.83161e-20)
(1.19477 0.00603679 -7.63796e-21)
(1.21137 0.0579724 2.24419e-20)
(1.20349 0.0884588 1.54387e-21)
(1.17719 0.0986799 -2.26463e-21)
(1.14128 0.0938495 -4.73802e-21)
(1.10719 0.0797901 1.3975e-20)
(1.08672 0.0647291 -6.77871e-22)
(1.07696 0.0509685 1.7798e-21)
(1.07126 0.0384845 3.57524e-21)
(1.06823 0.0280669 -5.11616e-21)
(1.06734 0.0198935 -1.78261e-21)
(1.06772 0.0137588 4.30924e-21)
(1.0687 0.00934257 2.15116e-21)
(1.06981 0.0063216 -1.10601e-22)
(1.07077 0.00434017 5.82426e-22)
(1.0714 0.00309792 0)
(1.07168 0.00231342 -1.72247e-21)
(1.0716 0.00178893 -3.38651e-22)
(1.07125 0.00134748 9.54192e-22)
(1.0707 0.000893332 -1.68112e-21)
(1.07009 0.000336716 -6.1784e-26)
(0.73134 -0.220645 -2.49572e-21)
(0.717685 -0.326077 -5.10355e-21)
(0.712611 -0.351192 -2.19424e-21)
(0.719121 -0.369998 8.82065e-21)
(0.732377 -0.375719 -1.27637e-20)
(0.752275 -0.377089 3.27564e-21)
(0.780657 -0.370913 2.90993e-21)
(0.818964 -0.349437 -1.39278e-20)
(0.866711 -0.307286 1.9729e-20)
(0.934056 -0.242584 5.99317e-21)
(1.02051 -0.162101 4.59262e-25)
(1.09664 -0.0700051 4.77897e-21)
(1.15477 0.00797229 3.73908e-20)
(1.18792 0.0693883 -1.37487e-20)
(1.19676 0.107851 -1.55356e-21)
(1.18276 0.12214 1.30641e-20)
(1.1547 0.118974 -9.50031e-21)
(1.11873 0.102735 -2.80841e-21)
(1.08851 0.0817737 7.09709e-26)
(1.07319 0.0633991 9.69271e-22)
(1.06699 0.0478263 -1.2825e-22)
(1.06402 0.0345731 1.27538e-22)
(1.06336 0.0241282 2.41147e-21)
(1.06427 0.0163224 1.16764e-21)
(1.06594 0.0107713 -2.35372e-21)
(1.06777 0.00702094 2.36088e-36)
(1.06939 0.00465269 1.15386e-22)
(1.07059 0.00325073 1.86957e-22)
(1.07129 0.00247555 -1.54793e-21)
(1.07151 0.00203795 5.35729e-27)
(1.07133 0.00173782 1.67064e-21)
(1.07085 0.00141782 5.55198e-22)
(1.07018 0.000986998 9.18553e-24)
(1.06945 0.000388188 1.66582e-21)
(0.762919 -0.22813 0)
(0.73791 -0.330784 3.57028e-22)
(0.723612 -0.357115 -2.84834e-21)
(0.720559 -0.375175 2.14944e-20)
(0.725023 -0.37937 2.24908e-21)
(0.736533 -0.379685 -1.74914e-20)
(0.756066 -0.374362 1.69712e-21)
(0.785418 -0.354017 -3.51186e-21)
(0.824832 -0.314161 -5.72106e-21)
(0.873261 -0.250737 -7.3653e-21)
(0.941163 -0.166391 1.05521e-20)
(1.02625 -0.0789703 1.79238e-20)
(1.09695 0.0141944 2.8076e-21)
(1.14644 0.0830157 -2.91261e-20)
(1.17154 0.129303 3.98694e-20)
(1.17347 0.14956 -2.33442e-20)
(1.15705 0.147842 -2.51472e-21)
(1.12813 0.131202 9.46135e-21)
(1.09447 0.105219 -4.18737e-34)
(1.07026 0.0794511 -1.3072e-20)
(1.06074 0.0591388 -1.14153e-21)
(1.05814 0.0426188 -6.83604e-21)
(1.058 0.0293203 -2.71672e-21)
(1.05964 0.019384 1.93738e-21)
(1.06221 0.0123419 -1.8212e-21)
(1.06499 0.00765594 1.77045e-22)
(1.06749 0.00476047 1.42818e-21)
(1.06943 0.00315379 2.15183e-22)
(1.07072 0.0023772 -1.08992e-21)
(1.07135 0.00207023 -6.99222e-27)
(1.07142 0.00195124 1.52447e-21)
(1.07105 0.00183209 -1.63046e-21)
(1.07039 0.00158417 2.97411e-35)
(1.06957 0.00113231 1.68051e-21)
(1.0687 0.000451917 0)
(0.809442 -0.237321 -1.37892e-22)
(0.764197 -0.333057 -3.78577e-21)
(0.740378 -0.360019 -3.24738e-21)
(0.727781 -0.37747 -2.75948e-22)
(0.723445 -0.380671 1.85886e-20)
(0.726497 -0.380599 -2.34265e-20)
(0.736947 -0.374926 5.28879e-21)
(0.756679 -0.354963 2.17023e-20)
(0.786661 -0.316815 -6.23411e-20)
(0.827027 -0.256711 1.93592e-21)
(0.875313 -0.17165 -1.01809e-20)
(0.942408 -0.0698752 -1.40784e-21)
(1.02196 0.0149039 3.49488e-21)
(1.08704 0.0986629 4.6658e-21)
(1.12888 0.152564 -5.50408e-21)
(1.14716 0.179149 -1.62743e-20)
(1.14474 0.180343 1.37642e-20)
(1.12713 0.163588 2.59902e-21)
(1.09933 0.13499 -1.30159e-21)
(1.07026 0.10166 2.57552e-21)
(1.05363 0.0733707 6.98301e-21)
(1.0499 0.0523291 -5.58931e-21)
(1.05081 0.0357102 -3.46948e-21)
(1.05346 0.0230576 -8.63319e-23)
(1.05722 0.0141197 4.8252e-22)
(1.06123 0.00819424 2.21811e-22)
(1.06488 0.00461505 1.56472e-22)
(1.06781 0.00271917 3.03939e-23)
(1.06988 0.00193866 -1.60218e-22)
(1.07108 0.00179435 3.52059e-22)
(1.07151 0.00192441 1.38544e-21)
(1.07134 0.00207092 -1.48782e-21)
(1.07073 0.00207341 -1.09434e-23)
(1.06985 0.00183977 -5.53308e-22)
(1.06885 0.00132141 1.06648e-23)
(1.06783 0.000523977 -1.80106e-22)
(0.869031 -0.240131 -3.61263e-21)
(0.804801 -0.33192 1.17607e-21)
(0.762857 -0.360102 -1.86525e-21)
(0.740833 -0.377388 -1.50111e-20)
(0.727805 -0.380471 3.71334e-20)
(0.722432 -0.379395 -1.32574e-20)
(0.723765 -0.372243 7.14379e-21)
(0.733532 -0.352643 -2.53419e-21)
(0.753573 -0.315861 -6.83624e-21)
(0.784635 -0.257992 1.89723e-20)
(0.826058 -0.176989 -2.20386e-20)
(0.874528 -0.0755789 6.67925e-21)
(0.938577 0.0373106 0)
(1.01003 0.111486 1.89476e-20)
(1.06851 0.176745 -5.40691e-21)
(1.10341 0.210414 7.53902e-21)
(1.11638 0.215676 -3.78907e-20)
(1.11191 0.199273 -2.53365e-21)
(1.09506 0.16901 5.38902e-21)
(1.07009 0.130708 -8.50735e-21)
(1.04777 0.0929061 7.64022e-22)
(1.03948 0.0642071 1.03932e-20)
(1.04105 0.0434141 5.78567e-21)
(1.0453 0.0275243 6.2861e-21)
(1.05058 0.0161428 -2.84581e-22)
(1.05618 0.00863616 -2.111e-21)
(1.06132 0.00413497 -2.12686e-21)
(1.06557 0.00185163 -2.18783e-21)
(1.06868 0.00104607 -1.91601e-21)
(1.07065 0.00110785 -3.01423e-22)
(1.07159 0.00156079 1.22157e-21)
(1.07171 0.00206383 -1.34681e-21)
(1.07121 0.00240024 6.41649e-29)
(1.07031 0.00245234 1.62232e-21)
(1.06919 0.0021707 2.61727e-35)
(1.068 0.00154277 -2.0519e-22)
(1.06682 0.000599596 6.29692e-29)
(0.932996 -0.237385 -8.26918e-21)
(0.860088 -0.323372 4.86088e-21)
(0.798909 -0.355396 5.15205e-21)
(0.759293 -0.375152 -1.5402e-24)
(0.737947 -0.378711 -1.11789e-20)
(0.724308 -0.375913 1.79169e-20)
(0.716693 -0.366948 2.80689e-20)
(0.716581 -0.347221 -3.75092e-20)
(0.726516 -0.311559 5.03486e-20)
(0.747631 -0.255737 -7.21779e-20)
(0.780235 -0.177501 -1.87583e-20)
(0.822626 -0.0789501 -1.96228e-21)
(0.870936 0.0278648 5.95166e-21)
(0.927427 0.134639 -7.39565e-22)
(0.993218 0.198899 -1.78014e-20)
(1.04333 0.241624 1.86124e-20)
(1.07198 0.252516 -1.44804e-20)
(1.08171 0.23766 6.15586e-20)
(1.07733 0.205917 -1.18139e-20)
(1.06258 0.164483 -2.2998e-21)
(1.04216 0.119267 1.15952e-24)
(1.02843 0.0801159 -1.34102e-20)
(1.02831 0.0526168 -4.22841e-21)
(1.03447 0.0328935 5.0497e-21)
(1.04185 0.0185136 -7.00645e-24)
(1.04946 0.0089448 6.82684e-35)
(1.05654 0.0032505 9.23661e-23)
(1.06247 0.000422048 -1.46034e-22)
(1.06698 -0.000440151 -5.34951e-23)
(1.06998 -0.000124746 6.68359e-22)
(1.07163 0.000742132 2.16017e-22)
(1.07216 0.00171358 -1.16848e-21)
(1.07184 0.00249474 2.783e-28)
(1.07096 0.00292673 1.51237e-21)
(1.06974 0.00294839 -3.20033e-23)
(1.06837 0.00255668 5.74284e-22)
(1.067 0.00178193 -5.53659e-24)
(1.06566 0.000673413 1.86389e-22)
(0.99639 -0.228507 2.74213e-21)
(0.918175 -0.309064 1.7847e-22)
(0.848954 -0.343959 1.01239e-20)
(0.790318 -0.369415 1.11944e-20)
(0.753133 -0.374264 -4.02951e-21)
(0.731669 -0.369949 1.18748e-20)
(0.715603 -0.359261 1.90946e-20)
(0.706225 -0.339049 2.07039e-20)
(0.706166 -0.304119 -1.15972e-20)
(0.717146 -0.250235 3.03365e-20)
(0.739903 -0.174729 3.42704e-20)
(0.77421 -0.0792042 -1.11867e-20)
(0.816543 0.0288779 1.29232e-20)
(0.859736 0.133805 1.03689e-21)
(0.913463 0.222224 1.97085e-20)
(0.971062 0.270319 -3.10174e-20)
(1.01316 0.288469 -4.00745e-20)
(1.03713 0.277116 -8.43223e-21)
(1.04569 0.244944 1.72282e-21)
(1.04285 0.200823 2.20465e-21)
(1.03124 0.150955 4.34281e-35)
(1.01723 0.10211 1.18584e-20)
(1.0132 0.0644786 1.75604e-21)
(1.02029 0.0391948 -6.3385e-21)
(1.03039 0.0213066 -2.36606e-21)
(1.0406 0.00913357 3.13459e-21)
(1.05012 0.00185113 1.06629e-21)
(1.05827 -0.00171352 1.54105e-21)
(1.06458 -0.00269423 -2.83729e-22)
(1.06898 -0.00208191 -3.77526e-22)
(1.07159 -0.000682657 -1.91383e-22)
(1.0727 0.000895067 -1.90298e-22)
(1.07266 0.00226406 -4.49418e-23)
(1.07183 0.00320177 1.39531e-21)
(1.07052 0.00362211 0)
(1.06899 0.00353114 -1.007e-22)
(1.06738 0.0029723 -1.58131e-21)
(1.06583 0.0020223 2.05543e-22)
(1.06436 0.000739885 1.89283e-22)
(1.05374 -0.214075 2.46153e-22)
(0.975012 -0.290502 -5.12002e-21)
(0.902581 -0.326354 -1.75856e-20)
(0.834367 -0.355708 2.22647e-25)
(0.779626 -0.365171 1.24205e-20)
(0.743668 -0.361743 5.32236e-21)
(0.720197 -0.349523 -1.23547e-20)
(0.702404 -0.328397 6.37499e-20)
(0.692897 -0.293955 -4.73691e-20)
(0.693875 -0.241618 1.72533e-20)
(0.706598 -0.168921 -1.88964e-21)
(0.73142 -0.0765476 -2.05493e-22)
(0.766814 0.029178 -7.56782e-21)
(0.807349 0.135839 1.40679e-20)
(0.846532 0.231503 1.38183e-21)
(0.893923 0.297487 -8.38836e-21)
(0.944302 0.321632 8.7737e-20)
(0.980172 0.315296 1.74662e-20)
(1.00132 0.284559 2.47618e-21)
(1.01024 0.238663 -5.25796e-20)
(1.00986 0.185257 1.87107e-20)
(1.00249 0.12988 1.75308e-21)
(0.996819 0.0809803 -1.6702e-21)
(1.00253 0.0469798 2.80746e-21)
(1.01547 0.0245004 -2.80824e-22)
(1.02899 0.00920533 -4.8468e-22)
(1.04162 -0.000147574 -3.48001e-22)
(1.05255 -0.00473912 1.48217e-35)
(1.06125 -0.00593588 4.38205e-22)
(1.06748 -0.00497876 -1.10016e-21)
(1.0714 -0.00292198 -2.83334e-22)
(1.07332 -0.000550793 -6.66819e-22)
(1.0737 0.0015865 -3.93497e-23)
(1.07298 0.00319447 1.25547e-21)
(1.0716 0.00414744 0)
(1.06986 0.00444373 -1.69936e-22)
(1.06802 0.00416211 1.56462e-23)
(1.0662 0.00338848 1.01921e-21)
(1.06452 0.00224656 1.62432e-22)
(1.06294 0.000794325 -4.07716e-29)
(1.09973 -0.195633 -3.29822e-21)
(1.02591 -0.267096 -9.71945e-22)
(0.955523 -0.303508 3.55319e-21)
(0.882464 -0.335567 -1.07434e-20)
(0.81815 -0.34932 -2.33337e-20)
(0.766222 -0.349115 -9.88997e-21)
(0.729694 -0.337781 -7.24933e-21)
(0.704772 -0.315798 -1.2762e-20)
(0.686641 -0.281315 4.59473e-22)
(0.678179 -0.230439 -1.01704e-19)
(0.681028 -0.160175 4.87825e-20)
(0.69611 -0.0711143 -7.21609e-20)
(0.722847 0.031502 -1.78846e-20)
(0.758096 0.137922 -8.89975e-21)
(0.795717 0.233821 -1.00168e-20)
(0.829741 0.310922 3.79242e-20)
(0.871307 0.35129 -2.06946e-20)
(0.915299 0.350334 -2.61862e-20)
(0.946636 0.322714 1.03172e-20)
(0.966392 0.276706 7.03404e-21)
(0.976655 0.220631 -5.28216e-25)
(0.979462 0.160756 -1.53445e-21)
(0.977803 0.103131 -2.81859e-21)
(0.981999 0.0575807 -6.69061e-21)
(0.996391 0.028299 4.18631e-21)
(1.01393 0.00910293 5.22447e-26)
(1.03039 -0.0028424 -2.6341e-21)
(1.04489 -0.0088489 -2.31208e-21)
(1.05663 -0.0104236 1.01062e-22)
(1.06531 -0.00910748 2.16687e-21)
(1.07098 -0.00622443 -4.52119e-22)
(1.07403 -0.00284935 1.0016e-22)
(1.075 0.000304737 1.05087e-35)
(1.07448 0.00279745 -7.43046e-22)
(1.07302 0.00445657 3.31361e-22)
(1.07107 0.00527377 -1.63605e-22)
(1.06893 0.00533702 -1.11034e-27)
(1.06683 0.00479692 1.36208e-22)
(1.06485 0.00377495 -1.04184e-21)
(1.06306 0.0024381 3.98733e-23)
(1.06142 0.000832782 -1.92527e-22)
(1.13159 -0.174602 3.9825e-22)
(1.06725 -0.239363 -8.22705e-23)
(1.00351 -0.276177 -2.43343e-21)
(0.930825 -0.310319 6.40626e-35)
(0.861329 -0.327712 2.01482e-20)
(0.800262 -0.330921 1.76968e-20)
(0.749597 -0.321731 2.65733e-22)
(0.71242 -0.301191 8.0131e-21)
(0.687095 -0.266897 4.2575e-20)
(0.669918 -0.216895 -8.77125e-20)
(0.663588 -0.149141 4.0013e-20)
(0.669075 -0.0632528 -1.47318e-19)
(0.686692 0.0361616 -4.11364e-20)
(0.714708 0.140023 -2.43774e-20)
(0.748672 0.237453 4.57045e-20)
(0.782999 0.31536 -3.11784e-20)
(0.811885 0.367148 1.6913e-20)
(0.847759 0.380211 1.63002e-20)
(0.88607 0.357498 1.84635e-20)
(0.914084 0.313317 -5.22752e-20)
(0.933451 0.256007 -8.75418e-21)
(0.945805 0.192702 -3.23734e-21)
(0.952696 0.129023 -8.9498e-21)