/*--------------------------------*- C++ -*----------------------------------*\
| =========                 |                                                 |
| \\      /  F ield         | OpenFOAM: The Open Source CFD Toolbox           |
|  \\    /   O peration     | Version:  2506                                  |
|   \\  /    A nd           | Website:  www.openfoam.com                      |
|    \\/     M anipulation  |                                                 |
\*---------------------------------------------------------------------------*/
FoamFile
{
    version     2.0;
    format      ascii;
    arch        "LSB;label=32;scalar=64";
    class       volScalarField;
    location    "0";
    object      turbulenceProperties:L;
}
// * * * * * * * * * * * * * * * * * * * * * * * * * * * * * * * * * * * * * //

dimensions      [0 1 0 0 0 0 0];

internalField   nonuniform List<scalar> 
10720
(
0.00200389
0.00200477
0.00202318
0.00202469
0.00203765
0.0020567
0.00207337
0.00209296
0.00211479
0.00213547
0.00215701
0.00217823
0.00219788
0.00221689
0.0022345
0.00225016
0.00226392
0.00227541
0.00228421
0.00229055
0.0022944
0.00229571
0.00229483
0.00229237
0.00228936
0.00228603
0.00228222
0.00227794
0.00227334
0.00226858
0.00226373
0.00225882
0.00225401
0.00224937
0.00224481
0.0022403
0.00223558
0.00223046
0.00222367
0.00199777
0.00199133
0.00200432
0.00200395
0.0020123
0.00202887
0.00204835
0.00206824
0.00208988
0.00211345
0.00213443
0.00215279
0.00216897
0.0021831
0.00219458
0.00220452
0.00221289
0.00222028
0.0022267
0.00223264
0.00223845
0.00224433
0.00225047
0.00225721
0.00226347
0.00226898
0.00227373
0.00227774
0.00228107
0.00228378
0.00228593
0.00228756
0.00228874
0.00228958
0.00229013
0.00229039
0.00229046
0.00229033
0.00228937
3.3656e-13
3.24803e-13
3.07348e-13
4.30047e-13
4.90112e-13
2.80434e-13
1.75701e-13
2.8462e-13
2.76361e-13
3.42684e-13
2.87112e-13
4.29204e-13
2.72523e-13
9.74344e-14
5.03334e-13
1.94911e-13
3.74094e-13
4.17258e-13
2.09657e-14
3.31379e-13
1.12418e-13
1.5363e-13
2.56228e-13
9.85617e-14
2.89902e-14
9.4645e-14
2.69262e-13
3.83513e-14
5.47734e-13
4.71897e-14
1.28514e-13
1.69763e-14
1.27007e-12
1.07602e-12
1.10623e-13
6.88241e-13
2.2657e-13
1.12289e-12
1.85619e-12
3.49965e-13
2.10968e-13
2.50625e-13
9.79273e-13
2.76043e-13
7.15127e-13
1.16471e-12
6.66878e-13
4.96583e-13
7.92166e-14
4.14531e-13
4.55389e-13
3.44958e-13
2.91625e-13
2.20889e-13
2.57332e-13
1.95383e-13
3.61018e-13
3.86354e-13
2.48674e-14
1.14316e-13
2.89887e-13
1.56253e-13
1.65852e-13
3.94073e-13
1.01353e-13
4.90528e-13
1.23654e-13
3.13322e-13
5.11925e-13
9.87094e-14
6.63449e-14
6.08483e-13
1.11072e-12
1.30944e-13
1.64301e-13
5.24143e-13
6.77877e-13
4.04425e-13
6.43012e-13
1.08124e-12
4.5339e-13
1.1572e-13
2.80907e-13
3.29812e-13
5.50635e-13
4.01109e-13
1.77732e-13
3.28392e-13
8.95096e-15
5.7974e-14
5.85333e-13
2.03951e-14
1.99874e-13
1.56938e-13
4.53474e-13
2.38439e-13
3.19968e-13
3.36074e-13
1.15315e-13
1.68151e-13
4.30325e-13
4.0783e-13
1.21056e-13
5.84864e-14
1.60174e-14
8.99902e-15
4.31848e-13
2.0339e-13
1.27736e-13
2.3375e-13
4.2904e-14
3.94893e-14
3.2044e-13
2.55213e-12
8.09661e-13
9.278e-13
5.03767e-12
2.1187e-13
1.14955e-13
1.27714e-13
6.92618e-13
2.02487e-13
7.98059e-13
4.89532e-13
2.54638e-13
1.23771e-13
6.03459e-13
2.96342e-13
2.85568e-14
2.65744e-13
1.66715e-13
4.96461e-14
5.69268e-13
4.69258e-13
1.0517e-13
2.28449e-13
1.93928e-13
3.6473e-13
7.16686e-13
2.71083e-13
1.6548e-13
1.08221e-13
1.19358e-13
1.29797e-13
2.36334e-13
1.20041e-13
1.22017e-13
1.04313e-13
2.36994e-13
4.48325e-13
1.90194e-13
4.7053e-13
4.27837e-13
4.40062e-13
1.54023e-12
2.79923e-12
5.45384e-13
2.10227e-13
6.71519e-14
8.03199e-13
2.31946e-13
1.80271e-13
1.92079e-13
3.427e-13
1.76344e-13
3.50703e-13
1.8615e-13
4.00056e-13
1.57481e-13
4.23471e-13
3.17105e-13
4.82216e-14
3.08547e-13
1.04662e-13
2.20748e-13
1.40286e-13
2.26348e-13
9.50683e-14
2.13051e-13
8.8331e-14
2.82507e-13
4.04302e-14
6.99607e-14
4.87183e-14
3.46802e-13
9.28935e-14
3.28731e-13
5.04559e-13
4.17641e-13
3.3297e-13
7.55675e-13
3.51353e-13
1.15516e-12
2.25441e-12
2.21768e-12
2.47701e-13
4.58993e-13
4.72332e-13
5.27768e-13
5.2013e-13
5.96548e-13
3.77573e-13
1.80112e-13
9.14044e-14
2.22716e-13
3.27496e-13
8.42663e-14
3.66627e-13
3.29116e-13
5.00285e-13
1.1774e-14
9.65859e-14
3.70423e-14
1.34939e-14
1.13329e-13
1.06206e-13
1.61675e-13
4.44539e-14
3.98378e-13
1.11724e-13
9.29846e-14
7.0866e-14
1.03672e-13
3.0901e-14
1.0056e-13
6.09313e-14
8.5895e-14
9.16887e-14
2.80099e-13
4.60868e-13
6.69101e-13
1.48776e-12
4.03457e-13
2.60347e-13
6.43281e-13
3.1673e-13
3.25166e-13
1.57343e-13
3.42024e-13
5.66824e-13
4.22638e-13
3.28533e-14
1.30375e-13
1.05276e-13
6.91e-13
1.1206e-13
3.56657e-13
2.30282e-13
6.56469e-13
7.69641e-14
6.36639e-14
9.11092e-15
2.61001e-14
3.21226e-13
1.76359e-13
1.31076e-14
4.56842e-14
6.49709e-14
9.23448e-14
7.81768e-14
7.29158e-14
4.26503e-14
2.90827e-14
1.90338e-13
5.92553e-14
3.31517e-13
5.80983e-13
8.36941e-13
5.37466e-13
3.51885e-14
9.1403e-14
7.45086e-14
3.52465e-12
5.21675e-13
2.40384e-13
1.6483e-13
1.69667e-13
3.38631e-13
1.48368e-13
4.93487e-13
3.68324e-13
2.9182e-13
4.29631e-13
3.82096e-13
3.41907e-13
9.36803e-14
1.2941e-13
1.859e-13
3.84389e-13
8.17988e-14
3.7193e-13
2.55844e-13
2.89492e-13
5.98266e-14
8.15904e-14
1.44344e-13
1.80949e-13
1.17028e-13
6.51397e-14
2.32622e-13
2.88505e-13
2.93374e-14
5.30484e-13
8.50703e-14
1.062e-13
5.35628e-13
4.91488e-14
9.42366e-14
3.30543e-13
3.20306e-13
6.02386e-13
4.55486e-13
7.8189e-14
6.01965e-14
2.05448e-13
1.26666e-13
1.60126e-13
3.28897e-13
1.89142e-13
2.45254e-13
6.19439e-14
2.20711e-13
5.42781e-14
1.17628e-13
3.32903e-13
1.5428e-13
3.84596e-13
1.75126e-13
8.46863e-14
3.63935e-13
2.37322e-14
1.77043e-13
1.02478e-13
1.70159e-13
3.50516e-14
1.03724e-13
2.20686e-13
1.29448e-13
3.92857e-14
3.0816e-14
7.26769e-14
5.18781e-14
4.7656e-14
1.75177e-13
2.63681e-13
2.48045e-13
3.29588e-13
5.13101e-13
1.57535e-12
1.24128e-13
6.48039e-13
3.9059e-13
2.65212e-13
9.5763e-14
2.9071e-13
2.31467e-13
1.47375e-13
2.49733e-13
3.76697e-13
1.28209e-13
1.17341e-13
3.89513e-13
6.3162e-14
1.43432e-13
7.40106e-14
4.28905e-13
1.16265e-13
2.02728e-13
8.7032e-14
4.8819e-14
7.9041e-14
2.00675e-13
2.929e-14
1.67467e-13
1.52233e-13
1.30767e-13
1.12754e-13
1.1321e-13
2.68398e-14
3.69502e-14
7.22874e-14
6.17712e-13
7.7313e-14
6.58055e-14
5.06338e-14
9.29625e-14
4.95811e-13
1.11032e-12
7.33605e-13
7.75226e-14
8.46549e-14
3.01608e-13
4.54789e-14
2.26392e-13
1.82823e-13
1.35481e-13
4.42645e-14
1.48801e-13
3.03719e-13
6.32217e-14
2.70546e-13
9.99363e-14
5.13587e-13
4.62999e-13
6.84924e-13
1.29106e-13
1.90972e-13
7.28179e-14
4.39245e-14
1.04978e-14
1.13042e-13
2.90082e-13
1.01486e-13
1.98172e-13
2.78914e-13
7.45255e-14
1.35615e-13
5.33629e-15
9.46628e-14
2.11974e-13
1.70298e-13
1.41019e-13
3.15884e-13
1.02002e-13
2.51673e-13
1.24035e-12
1.81517e-13
1.10058e-13
3.31789e-13
3.42413e-13
2.06987e-13
9.2545e-14
6.57108e-13
1.21193e-13
1.52054e-14
2.11844e-13
1.94182e-13
5.36692e-13
9.92423e-14
3.41014e-14
1.28964e-13
2.36797e-14
1.34822e-13
1.40765e-13
3.36158e-13
5.39072e-13
3.28791e-13
4.90928e-14
1.94707e-13
5.26529e-14
1.74957e-13
2.26718e-13
1.15043e-13
1.69316e-13
1.68122e-14
2.74318e-14
9.28243e-14
5.85999e-14
9.60047e-14
6.21087e-14
1.33118e-13
2.43018e-13
1.53008e-13
3.01212e-14
4.96484e-13
6.85778e-13
1.97418e-14
9.14688e-13
8.87233e-14
3.49805e-14
2.64445e-13
5.62605e-13
1.34678e-13
3.10798e-13
7.53834e-15
5.9687e-13
3.50911e-13
2.60741e-13
3.18979e-13
1.56665e-13
4.72961e-13
8.03648e-13
1.70775e-13
3.28298e-13
4.30957e-13
2.98714e-13
1.18513e-13
3.08579e-13
1.64891e-13
1.47466e-13
1.28121e-13
1.19655e-13
3.32751e-14
4.20151e-14
6.42858e-14
1.50217e-14
3.99092e-14
1.32659e-13
4.91925e-13
3.9768e-13
3.61458e-13
1.24766e-13
1.33718e-13
1.19659e-12
4.57893e-13
3.0298e-13
1.51437e-12
6.05883e-14
4.07791e-13
5.82329e-13
3.10342e-13
2.11136e-13
1.03034e-14
4.33684e-13
2.89666e-13
1.45631e-13
4.20305e-13
4.85874e-13
4.58804e-14
2.52291e-13
1.03289e-13
9.72168e-14
3.81438e-13
3.29323e-13
4.909e-14
1.55989e-14
2.94403e-13
1.86643e-13
1.0149e-13
2.11543e-13
4.48869e-13
1.15474e-13
3.6342e-13
2.69041e-13
1.03725e-13
2.13859e-13
1.63737e-13
3.4262e-13
2.9249e-13
1.28656e-13
6.82524e-15
1.8872e-13
3.30699e-13
1.61341e-13
2.07782e-13
1.54616e-13
1.33915e-13
8.19205e-14
3.46666e-13
3.51331e-13
4.94898e-14
8.47809e-14
4.88732e-13
1.24127e-13
3.00633e-13
1.70544e-13
6.03564e-14
5.68902e-13
2.25833e-13
3.52077e-13
5.76983e-14
4.14692e-14
1.35907e-13
1.28267e-13
1.39979e-13
7.95726e-14
2.20447e-14
9.76411e-14
2.69427e-13
7.36041e-14
5.11649e-14
1.76208e-13
1.27116e-14
3.13552e-14
3.52552e-13
2.99915e-13
1.21177e-13
3.28211e-13
3.99753e-13
4.597e-13
5.35283e-13
3.09797e-13
2.77074e-13
1.48044e-12
8.43925e-13
2.72892e-13
6.16513e-14
1.12566e-13
1.66163e-13
1.61349e-13
4.31565e-13
2.75462e-14
1.01031e-13
2.11023e-13
1.44362e-13
2.30112e-13
8.86531e-14
4.21146e-13
1.82633e-13
2.76604e-13
1.62627e-13
2.78827e-13
3.99133e-14
1.77583e-13
1.05786e-13
5.56404e-14
2.90372e-13
8.90334e-14
1.7914e-13
2.34686e-13
7.32926e-14
1.06829e-13
2.39325e-14
1.28658e-13
2.82893e-14
1.73308e-13
6.91323e-14
4.19243e-13
5.32661e-13
8.77468e-14
1.84109e-14
5.2916e-14
1.41626e-13
6.55855e-14
1.11809e-13
1.33496e-13
1.20236e-13
1.58374e-13
2.30191e-13
2.21723e-13
1.01275e-12
2.59337e-13
3.00425e-13
2.73353e-13
2.12397e-13
2.81408e-13
8.9451e-14
3.70476e-14
2.40961e-14
2.72517e-13
2.41933e-13
2.58198e-13
1.81367e-13
3.55813e-14
2.65442e-13
1.98004e-14
5.15689e-14
1.09063e-13
2.08181e-14
4.58588e-14
2.11188e-14
9.7956e-15
2.47642e-13
1.17107e-13
2.16938e-13
1.93999e-13
1.49914e-13
6.17694e-14
2.08818e-13
2.91695e-13
2.37544e-13
2.70965e-13
1.10123e-12
2.95104e-13
1.38723e-13
1.31851e-13
4.87153e-14
1.07482e-13
4.48937e-13
3.88053e-13
3.97699e-14
3.09124e-13
1.73334e-13
3.76411e-13
2.5582e-13
3.38396e-14
9.46335e-14
1.42495e-13
2.17551e-13
3.46711e-14
4.56929e-14
1.75498e-13
1.316e-14
1.74488e-13
3.3416e-14
1.04456e-13
3.20518e-13
4.50593e-14
1.62026e-13
1.05704e-13
2.50213e-14
9.60415e-14
1.7524e-13
1.45648e-13
1.17926e-13
5.62124e-14
3.17092e-13
2.40764e-13
2.00417e-13
7.22802e-13
5.18705e-13
2.38341e-13
2.46087e-13
1.2005e-13
1.4733e-13
6.41462e-14
1.72744e-13
2.30507e-13
1.46248e-13
1.61401e-13
3.61207e-13
2.12601e-13
2.26823e-13
2.63317e-13
8.49873e-14
3.75348e-14
1.59214e-13
3.33624e-14
7.59278e-14
8.63928e-14
3.12321e-14
1.20501e-13
7.345e-14
1.44218e-13
1.05644e-13
1.88676e-13
7.06652e-14
7.07382e-14
2.0662e-14
3.15459e-13
1.32891e-13
1.69817e-13
2.48732e-14
3.29261e-13
4.46734e-13
5.09067e-14
1.54178e-13
6.78003e-14
3.50433e-13
7.80735e-14
2.81364e-13
2.64116e-13
1.38686e-13
1.25195e-13
9.03514e-14
1.58776e-13
3.80995e-13
1.18117e-13
1.67258e-13
2.4875e-13
9.99553e-14
5.29048e-13
2.40715e-13
1.52822e-13
6.44066e-14
4.86519e-14
1.09336e-13
3.71588e-14
8.29364e-14
1.57863e-13
6.4877e-14
1.55226e-13
5.64626e-14
1.88455e-13
1.05461e-13
8.06664e-14
7.2791e-14
2.53191e-14
8.80934e-14
1.04194e-13
1.96677e-14
1.25675e-13
1.55802e-13
1.95147e-13
1.67675e-13
4.45234e-13
1.10907e-13
8.90628e-13
1.06144e-12
2.71219e-13
2.28911e-13
1.03554e-13
1.19451e-13
3.50001e-13
1.10017e-13
1.09735e-13
2.50397e-13
1.92738e-13
3.22808e-13
1.36215e-13
5.99475e-14
4.46496e-14
1.29475e-13
3.0021e-13
5.74963e-14
1.22463e-13
1.05678e-13
8.02863e-14
1.25671e-13
1.85638e-14
2.05834e-13
1.9486e-14
3.61784e-13
4.65187e-14
6.16555e-14
2.35589e-13
4.74488e-14
1.96095e-13
1.00679e-13
2.06435e-13
6.56071e-15
3.2748e-13
1.07185e-13
1.30673e-13
3.33093e-13
1.18753e-13
1.98071e-13
1.1938e-13
1.07458e-12
2.3816e-13
1.17668e-13
2.43354e-13
1.67786e-13
1.52489e-13
1.33514e-13
6.08432e-14
1.11122e-13
4.91124e-13
2.40933e-13
1.08345e-13
2.6611e-13
7.81866e-14
2.28915e-13
7.15921e-15
5.4301e-14
1.74483e-13
1.1325e-13
8.40577e-14
2.00319e-13
1.11465e-13
1.25704e-13
7.60413e-14
5.7178e-14
3.77726e-14
7.728e-14
2.54295e-14
2.31448e-14
3.16343e-14
1.64509e-13
9.55335e-14
7.58106e-14
2.72749e-14
2.13658e-13
1.50722e-13
2.44456e-13
4.69388e-13
4.69675e-13
6.65976e-13
1.60385e-13
2.21316e-13
1.15907e-13
1.56221e-13
2.11083e-13
2.10089e-13
1.16507e-13
2.14247e-13
1.10579e-13
6.6847e-14
3.05894e-13
1.85197e-13
2.30246e-13
4.78003e-14
5.2859e-14
2.02181e-13
2.61811e-13
8.72095e-14
2.80271e-13
1.97523e-14
9.59418e-14
2.53403e-13
2.69399e-13
1.60625e-13
6.64412e-14
1.89702e-14
1.34716e-13
6.04376e-14
5.58619e-14
7.50532e-14
8.14522e-14
2.40705e-14
2.11834e-13
3.36223e-13
4.05438e-14
5.43181e-13
5.91482e-14
2.80238e-13
1.32211e-12
1.08832e-13
1.32708e-13
1.32313e-13
1.7543e-13
1.16377e-13
1.66285e-13
5.29642e-14
3.04454e-13
7.37454e-14
1.07032e-13
3.1575e-13
2.37824e-13
1.15626e-13
2.49341e-14
3.0467e-13
2.17584e-13
1.87799e-13
2.44133e-13
1.29223e-13
6.42075e-14
9.13214e-14
6.44957e-14
2.08907e-13
1.97831e-13
6.83219e-14
1.28572e-13
1.26272e-13
2.61277e-14
3.23781e-14
7.08033e-14
1.39693e-13
1.61985e-13
2.12347e-13
4.42199e-13
1.21432e-13
2.59839e-13
7.54717e-13
1.38665e-14
1.11127e-12
2.33982e-14
3.01645e-14
1.91113e-13
5.75095e-14
2.54205e-14
6.38516e-14
3.53339e-13
2.66394e-13
2.59616e-13
3.0421e-13
2.94296e-13
2.50078e-14
1.34243e-13
5.59085e-14
4.61255e-13
7.71839e-14
2.07804e-13
6.18792e-14
9.84126e-14
3.15971e-13
1.29852e-13
4.50612e-14
9.25574e-14
2.14398e-13
1.5415e-13
1.29835e-13
2.6897e-15
6.18096e-14
3.8675e-14
2.46069e-14
1.56797e-13
1.08838e-13
5.85299e-14
1.64562e-12
2.3215e-13
8.5986e-13
3.46341e-13
8.03607e-14
1.44234e-12
1.1832e-13
3.56681e-13
3.92427e-14
2.0401e-13
1.5194e-13
2.94956e-13
1.61393e-13
3.83466e-13
1.4582e-13
7.79585e-14
1.57647e-14
1.28303e-13
2.04947e-13
1.71872e-13
8.58679e-15
1.62243e-13
2.01547e-13
4.92429e-14
1.33388e-13
7.05423e-14
1.13927e-13
1.05699e-13
8.91052e-14
1.40026e-13
1.96694e-13
1.78509e-14
2.44901e-14
9.7798e-15
8.01965e-14
1.00309e-13
2.15788e-13
1.6312e-13
1.35312e-14
3.04956e-13
1.22844e-13
2.22295e-13
4.62786e-13
1.4893e-13
5.48416e-13
1.46684e-13
6.5151e-14
1.47443e-13
2.20392e-13
9.00583e-14
6.30995e-14
1.60764e-13
5.55783e-14
6.35194e-14
7.47987e-14
1.46771e-13
1.36676e-13
3.25608e-14
1.75908e-13
1.57805e-13
1.26438e-13
8.40198e-14
3.12794e-13
2.42913e-13
6.29717e-14
5.70514e-14
1.40221e-13
1.96952e-13
1.64598e-14
1.33327e-14
9.92845e-14
5.02391e-14
2.19812e-13
1.44744e-13
7.03083e-14
1.11863e-13
5.44299e-14
1.75208e-13
1.43838e-12
2.28579e-13
5.69727e-13
2.04677e-13
6.07861e-13
1.64897e-12
7.77733e-14
7.32749e-14
1.12421e-13
1.17868e-13
2.44149e-13
2.07573e-13
1.93562e-13
4.58685e-13
2.28959e-13
1.25494e-13
1.8683e-13
2.20902e-13
9.35813e-14
1.49876e-13
1.33306e-13
2.17499e-13
2.6521e-14
1.69019e-13
1.1965e-13
1.41523e-13
1.38532e-13
6.69684e-14
1.89764e-13
6.61189e-14
7.27402e-14
1.00617e-13
1.42556e-14
1.13593e-13
1.85052e-14
5.11735e-14
1.37208e-13
4.44843e-14
8.30914e-14
2.18274e-13
1.96222e-14
1.77645e-14
1.83008e-13
3.71489e-13
3.11036e-13
2.35229e-13
3.82821e-14
5.06099e-14
5.80329e-14
7.89848e-14
2.30738e-13
1.29845e-13
2.57107e-13
3.63527e-13
1.31226e-13
1.44282e-13
6.46952e-14
1.19884e-13
8.82069e-15
7.83288e-14
3.33235e-13
3.66335e-13
4.02553e-14
1.22103e-13
6.90249e-14
6.07956e-14
7.66981e-14
4.72535e-14
1.43269e-13
7.33333e-14
8.78401e-15
4.58057e-14
2.87168e-14
1.11754e-13
1.14351e-13
9.87355e-14
9.04129e-14
1.04578e-13
3.26573e-13
2.5417e-13
5.46138e-14
4.45012e-14
6.28417e-13
2.77378e-13
4.55823e-13
2.46538e-13
2.23742e-13
7.64086e-14
3.40097e-13
1.19417e-13
2.42866e-13
3.90643e-14
1.57823e-13
2.80921e-14
1.37794e-13
8.33093e-14
9.29836e-14
6.45379e-14
2.23249e-13
3.47474e-14
2.9766e-14
6.50184e-14
1.02328e-13
1.2903e-13
6.2635e-14
8.53259e-14
1.63548e-13
6.04712e-14
5.60092e-14
1.09676e-13
6.044e-14
8.4496e-14
6.89635e-14
1.21153e-14
2.78992e-14
4.47482e-14
1.52797e-13
6.30537e-13
3.35968e-14
8.10741e-14
2.50539e-13
5.02348e-13
2.33043e-13
9.63198e-14
6.72545e-14
8.14584e-14
2.43755e-14
1.05314e-13
2.11147e-13
4.45608e-13
1.22515e-13
2.46791e-13
8.2009e-14
7.5367e-14
1.50335e-13
1.6795e-13
1.14762e-14
1.14997e-13
4.9739e-14
2.98015e-13
1.29102e-13
8.66623e-14
1.01856e-14
1.18477e-13
5.31819e-14
5.89403e-14
1.23215e-13
3.88591e-14
4.08942e-14
1.02533e-13
1.61725e-13
3.84832e-14
6.87519e-14
1.28455e-13
4.24423e-14
1.63661e-13
1.24428e-14
2.10802e-14
6.49907e-14
8.45547e-14
6.02193e-14
1.549e-13
3.67335e-14
3.58861e-13
6.25799e-14
1.46579e-13
2.10504e-13
1.39639e-13
2.24734e-14
1.03287e-13
2.2161e-13
9.33039e-14
1.13347e-13
1.32235e-13
1.32893e-13
3.89942e-14
3.90105e-14
2.16208e-14
1.4496e-13
1.55781e-13
2.52065e-14
1.1991e-13
1.90456e-13
6.82905e-14
7.01955e-14
2.07334e-13
1.45152e-13
2.94736e-14
6.68577e-14
7.28165e-14
7.3367e-14
1.00686e-13
1.37711e-13
2.71464e-14
1.66401e-13
3.16035e-13
5.7021e-14
3.29976e-14
9.15659e-14
1.00438e-13
7.91926e-13
3.45265e-13
1.82172e-13
1.39078e-13
4.67335e-14
2.9741e-14
2.30911e-13
7.33102e-13
5.60625e-14
9.14668e-14
1.61076e-13
2.64729e-14
2.37561e-14
1.98245e-14
8.97608e-15
2.03514e-13
4.77995e-14
2.58268e-13
7.48864e-14
1.4916e-13
8.42686e-14
5.24228e-14
1.17949e-13
7.00143e-14
2.44851e-14
6.04722e-14
8.4499e-14
1.60379e-14
1.66393e-14
3.23973e-14
4.62091e-14
1.38245e-13
3.9131e-14
2.20439e-13
4.79098e-14
1.86102e-14
5.66163e-14
3.25187e-14
4.27779e-13
2.64399e-13
1.26898e-13
2.71147e-13
1.3593e-13
2.43768e-13
2.65127e-13
1.21059e-13
1.9194e-13
9.59368e-14
1.55204e-13
1.26914e-13
2.65183e-13
2.8923e-13
1.09619e-14
8.91135e-14
2.90034e-13
4.34475e-13
1.35742e-13
1.67236e-13
5.62689e-14
1.42133e-13
8.69494e-14
7.93086e-14
2.29222e-13
1.1956e-14
5.87564e-14
4.03751e-14
2.786e-14
5.42792e-15
4.35343e-15
2.59078e-14
1.49138e-13
2.51746e-13
1.65311e-13
1.79265e-14
2.0789e-13
1.38523e-13
3.94077e-13
2.30934e-13
5.59182e-13
8.99491e-14
1.27628e-13
7.27314e-14
4.29211e-14
8.48887e-14
2.05858e-13
9.12424e-14
1.06593e-13
1.33969e-13
9.26653e-14
1.6947e-13
4.9455e-14
5.61975e-14
8.24703e-15
6.95182e-14
4.15851e-14
2.91442e-13
4.71255e-14
9.54262e-14
9.01548e-14
1.36545e-13
1.50027e-13
3.39205e-14
3.58905e-14
9.6944e-14
3.37565e-14
6.18705e-14
3.79283e-15
3.67959e-14
9.15379e-14
5.4113e-14
8.44478e-14
8.77901e-14
2.66766e-14
1.74007e-13
1.78934e-13
9.96856e-14
3.01434e-13
8.36971e-13
2.79252e-13
9.97826e-14
2.26089e-13
8.64456e-14
2.26949e-13
7.9911e-14
1.17788e-13
1.01324e-13
5.01455e-13
8.28407e-14
7.36699e-14
3.98075e-14
1.20215e-13
1.46891e-13
1.71194e-13
6.75414e-14
1.33247e-13
6.22763e-14
2.92477e-13
3.04595e-13
1.23814e-13
3.82313e-14
1.54605e-13
6.65444e-14
1.31752e-13
1.19627e-13
7.23351e-14
6.05672e-14
1.74026e-14
8.33862e-14
2.64988e-14
1.48621e-13
5.47422e-15
8.76326e-14
5.6346e-14
2.91904e-13
7.74934e-14
1.4809e-13
1.08381e-12
1.30628e-13
2.19956e-14
2.60617e-13
5.87064e-14
3.69582e-14
5.01885e-14
8.01422e-14
2.19618e-13
1.04993e-13
1.08842e-13
2.13215e-14
1.98432e-14
5.96072e-14
2.44447e-13
7.74041e-14
9.28252e-14
1.04804e-13
1.7736e-13
1.91297e-13
1.38429e-13
9.89329e-14
1.06494e-13
5.36588e-14
4.2268e-14
1.14102e-13
2.85389e-14
9.90991e-14
1.31201e-13
2.98638e-14
1.58687e-13
8.76077e-14
2.69126e-14
1.42278e-13
8.53185e-14
4.3218e-14
1.7064e-13
1.19684e-13
5.04311e-14
9.35231e-14
1.43761e-13
4.47901e-14
1.32374e-13
5.78144e-14
1.68324e-13
5.14727e-14
1.87195e-13
1.40143e-13
1.04893e-13
1.04665e-13
1.90578e-13
8.85178e-14
7.90576e-14
4.22405e-14
3.88332e-14
1.69746e-15
9.89032e-14
8.09481e-14
6.25635e-15
2.58806e-14
1.50386e-14
6.17556e-14
1.01641e-13
3.1552e-14
8.5254e-14
9.6935e-14
1.35065e-13
7.93622e-15
3.99158e-15
1.00177e-13
2.03346e-13
2.34152e-14
1.42939e-14
2.27635e-13
1.8976e-13
1.27046e-13
2.75575e-13
1.55911e-13
5.83017e-13
4.94643e-14
1.23288e-13
3.68644e-14
6.82465e-14
2.00709e-14
1.15772e-13
1.5374e-13
7.7819e-14
6.91157e-14
6.78319e-14
2.33032e-13
3.65354e-13
3.89586e-13
1.02684e-13
1.13977e-13
1.91148e-13
1.29755e-13
2.80648e-14
1.70161e-13
2.68161e-14
9.90311e-14
1.89312e-13
2.91896e-14
1.57824e-13
9.70585e-14
9.80641e-14
2.21367e-14
9.36067e-14
2.5451e-14
1.97407e-14
1.92163e-14
6.72718e-14
1.48892e-13
5.79001e-14
1.27708e-13
1.15927e-14
9.36708e-14
4.02532e-13
2.52288e-13
4.59405e-14
6.56775e-14
4.38535e-14
4.85893e-14
1.25924e-13
7.43522e-14
9.1746e-14
7.33179e-14
1.48812e-13
2.29965e-13
2.46567e-14
1.26436e-13
2.12063e-13
1.426e-13
4.19319e-14
4.47554e-14
1.45861e-13
1.02114e-13
3.38845e-14
7.08142e-14
3.04442e-14
1.07009e-13
1.42998e-13
2.8752e-14
2.30009e-14
5.62491e-14
4.77482e-14
2.51537e-14
1.81866e-14
4.40658e-14
1.88237e-14
8.86552e-14
1.99495e-14
2.84114e-14
1.99968e-13
2.82167e-14
1.9115e-13
7.04026e-14
7.4322e-14
6.86226e-14
7.86223e-14
1.12004e-13
2.07952e-13
1.42475e-13
8.83881e-14
1.13839e-13
1.39161e-13
9.00849e-14
8.02713e-14
1.51833e-13
6.85475e-14
9.0484e-14
2.59432e-13
1.85942e-13
1.41511e-14
6.271e-14
1.14492e-13
9.68717e-14
7.63895e-14
1.26288e-13
9.24582e-14
3.03298e-14
1.48298e-14
4.2187e-14
7.33966e-14
2.05661e-14
4.41602e-14
1.08196e-13
1.5921e-14
5.51386e-14
1.44563e-13
2.96693e-13
3.7611e-14
2.03369e-14
8.71211e-14
7.33383e-14
6.4363e-14
9.41315e-14
1.39907e-13
5.10805e-14
3.82181e-14
7.38704e-14
4.42444e-14
4.21312e-13
3.35278e-14
5.16325e-13
5.27591e-14
3.59288e-13
2.47116e-13
8.88012e-14
8.25133e-14
1.97709e-14
2.71265e-14
9.35138e-14
1.95529e-14
2.11367e-14
9.40684e-14
1.21291e-13
3.347e-14
6.66041e-14
4.84879e-14
1.20732e-13
2.61811e-14
2.93063e-14
3.74781e-14
4.55504e-14
2.01411e-14
1.93705e-14
1.20845e-14
8.86015e-15
3.57846e-14
1.71046e-14
2.72049e-14
2.33621e-14
6.67002e-14
1.21112e-13
2.26638e-14
1.03871e-13
6.10798e-15
1.63312e-13
1.31489e-13
4.51244e-14
1.87882e-13
8.71182e-14
1.41048e-13
3.64136e-14
2.1349e-13
6.58578e-14
3.26984e-13
1.469e-13
1.39062e-15
1.12429e-13
3.72732e-14
2.46745e-14
1.17403e-13
9.74324e-14
1.36731e-13
2.81037e-14
3.1328e-14
9.12573e-14
3.31501e-14
6.32933e-14
1.06065e-13
4.14588e-15
1.70813e-14
1.62821e-14
3.9495e-14
2.63614e-14
1.17402e-13
7.89166e-14
1.17059e-13
1.66932e-13
2.2159e-13
6.99118e-14
4.74552e-14
2.98509e-13
4.46234e-14
5.28304e-14
1.37587e-13
1.42072e-13
5.4884e-14
1.2042e-13
1.67723e-13
1.83673e-13
1.49758e-13
1.03628e-13
6.35145e-14
1.80743e-13
6.14065e-14
1.3748e-13
3.11277e-14
9.48883e-14
1.50946e-14
5.34407e-14
9.51864e-14
1.40679e-13
3.70779e-14
3.83043e-14
2.35693e-14
1.71339e-14
6.69827e-14
1.0092e-14
6.86012e-14
1.69104e-14
1.13821e-14
4.20116e-14
1.08837e-14
2.31056e-14
2.00543e-13
3.56937e-14
6.39025e-14
6.89696e-14
2.70663e-14
1.5281e-13
8.43448e-14
9.71859e-14
1.00305e-13
3.97452e-14
6.2186e-14
6.32653e-14
1.12182e-13
9.65665e-14
1.91533e-13
1.88773e-13
2.29497e-13
3.31829e-14
3.39096e-13
8.99474e-14
4.94709e-13
6.47414e-14
4.50647e-14
9.93226e-14
2.96171e-14
3.21904e-14
1.68972e-13
1.58733e-14
1.00569e-13
4.34192e-14
5.57856e-15
2.35659e-14
3.90874e-14
3.188e-14
3.77859e-14
4.0678e-14
2.80829e-14
9.94009e-15
2.13082e-14
2.5194e-13
1.10469e-13
1.10788e-13
1.47933e-13
2.88e-14
8.23378e-14
1.79801e-13
1.65505e-13
6.14946e-14
3.41023e-14
8.27866e-14
6.85585e-14
2.45645e-13
4.17053e-13
7.79252e-14
3.23586e-14
1.14631e-13
1.98098e-13
9.86091e-14
1.08025e-13
1.24904e-13
1.27214e-13
9.80168e-15
4.26352e-14
5.44885e-15
6.65789e-14
1.05297e-13
5.97103e-14
4.15494e-14
3.96782e-14
5.90601e-14
2.37319e-14
6.67835e-14
1.6869e-14
1.55776e-14
2.48593e-14
1.02049e-13
1.43159e-14
1.04267e-13
2.03691e-13
8.59167e-14
5.62632e-15
5.42476e-14
4.25354e-14
3.36663e-13
7.46043e-14
6.31803e-14
9.20125e-14
1.22429e-13
3.0794e-14
1.27643e-13
2.02757e-13
2.49679e-13
1.86302e-13
1.56008e-14
1.98243e-13
8.97153e-14
8.0448e-14
1.52296e-13
3.67043e-13
2.12005e-13
7.30199e-14
1.08564e-13
1.20492e-13
2.80035e-14
2.98234e-14
7.30745e-15
3.55065e-14
3.7042e-14
9.32229e-15
1.85035e-14
1.56228e-14
7.34428e-14
5.12339e-14
1.52372e-14
5.18635e-14
7.81059e-14
1.90194e-14
1.98232e-14
7.26878e-14
6.75121e-14
2.59665e-14
1.26414e-13
1.57823e-13
2.17686e-13
1.13196e-13
6.06043e-14
1.0146e-13
7.87649e-14
3.79157e-14
1.20109e-13
2.80048e-13
2.2234e-13
1.7679e-13
3.84341e-14
7.17261e-14
1.64303e-13
8.2827e-14
1.00357e-13
1.34989e-13
5.32474e-14
6.13103e-14
3.16387e-14
4.28325e-14
1.09231e-13
1.2565e-13
5.86243e-14
3.7848e-14
6.84533e-14
1.30904e-13
6.56894e-14
4.58438e-15
4.72128e-14
4.34901e-14
1.31648e-14
1.44412e-14
6.44483e-14
4.38289e-14
2.46775e-14
2.8177e-14
3.04723e-14
1.04621e-13
1.24874e-13
3.45718e-14
4.03622e-14
2.77211e-14
7.86866e-14
7.45639e-14
1.18861e-14
1.01563e-13
1.33721e-13
6.09491e-14
6.2801e-14
1.73959e-14
4.91643e-14
2.19362e-13
1.58179e-14
7.97894e-14
3.88891e-14
1.90482e-13
7.3791e-14
8.33291e-14
2.44223e-14
3.24255e-14
6.23943e-14
9.30409e-14
2.5155e-14
2.12823e-14
1.34158e-14
2.03968e-14
1.04997e-14
6.60613e-14
2.25518e-14
8.74208e-14
5.07015e-14
8.99631e-14
3.33894e-14
6.81135e-14
1.5213e-13
2.26901e-14
5.62056e-14
2.95923e-13
1.87955e-13
8.44402e-14
6.98006e-14
7.71708e-14
6.21013e-14
1.40351e-13
1.86363e-13
8.60408e-14
1.75256e-14
6.33328e-14
7.26395e-14
8.33253e-14
6.80301e-14
5.43858e-14
1.89355e-13
1.93573e-13
8.85552e-14
1.84945e-13
7.46877e-14
3.85489e-14
6.09515e-14
2.75356e-14
5.1093e-14
1.03834e-13
4.28963e-14
3.00411e-14
3.33431e-14
5.32936e-14
1.74705e-14
5.10788e-15
7.67621e-15
2.92783e-14
1.44651e-13
5.32397e-14
3.88554e-14
4.28075e-14
1.30932e-13
1.25483e-14
1.85242e-13
8.66909e-14
1.63052e-14
1.91345e-13
4.39465e-14
1.05988e-13
1.55155e-13
1.8405e-14
2.16489e-13
1.25936e-13
1.09467e-13
2.26721e-13
1.04284e-13
7.27209e-14
1.19269e-13
1.10706e-13
2.51432e-14
8.22928e-14
4.99598e-14
3.05398e-14
1.19204e-13
2.3587e-14
5.2724e-14
2.19842e-14
5.31976e-14
3.88966e-15
3.06053e-14
1.26858e-14
2.17682e-14
2.97207e-14
7.94097e-15
1.43309e-14
6.19067e-14
7.48397e-14
8.55549e-15
2.57917e-14
2.54249e-14
3.46645e-14
2.27169e-13
1.28027e-14
9.73002e-14
6.08016e-14
1.42107e-13
7.17672e-14
9.8415e-14
4.56261e-14
8.50192e-14
2.86974e-14
6.17468e-14
3.27544e-13
3.72695e-14
6.49801e-14
2.13306e-13
3.06812e-13
1.27098e-13
2.18018e-14
1.00511e-13
3.55901e-14
7.04319e-14
6.02179e-14
1.15824e-14
2.39734e-14
1.58193e-14
1.00396e-14
1.74862e-13
3.04368e-14
8.29635e-15
2.32365e-14
2.21264e-14
1.30945e-14
4.78979e-14
4.57256e-14
8.5967e-14
1.22902e-13
2.40516e-14
7.90755e-14
6.29922e-14
5.64559e-14
1.52116e-13
2.72073e-13
4.28371e-14
2.6623e-13
7.4885e-14
1.84128e-13
1.37609e-14
6.88419e-14
1.26436e-14
1.82735e-13
7.42231e-14
2.66832e-13
5.50686e-14
5.98668e-14
3.27225e-14
1.81427e-13
1.08253e-13
1.15589e-13
3.46609e-14
2.09193e-13
6.31639e-14
5.23805e-14
7.11899e-14
7.05322e-14
3.3698e-14
1.5353e-14
1.21921e-14
3.30131e-14
3.33259e-14
4.35105e-15
8.32364e-14
2.89821e-14
1.19152e-14
8.73545e-14
8.03934e-14
3.20379e-14
9.49429e-14
3.91893e-14
9.04669e-14
2.07703e-14
1.93297e-13
7.25214e-14
4.74253e-14
3.80956e-14
7.90565e-14
6.00775e-14
2.41339e-13
7.79773e-14
1.63615e-13
3.58022e-13
1.41633e-13
1.74842e-14
6.59932e-14
2.6682e-13
3.82444e-14
3.84227e-14
5.8618e-14
6.60598e-14
1.43782e-13
1.44866e-14
4.54096e-14
1.09315e-13
1.2777e-13
6.13507e-14
8.60229e-14
1.34201e-14
3.74852e-14
1.02338e-14
1.01847e-14
1.74726e-15
2.78387e-14
1.77955e-14
2.22926e-14
1.21578e-13
4.05868e-14
8.45834e-14
1.11061e-14
9.45005e-15
1.25003e-13
1.30485e-13
1.38691e-14
7.71511e-15
4.56492e-14
1.10498e-13
1.68612e-14
7.77741e-14
9.14892e-14
4.49192e-14
2.26028e-13
2.1041e-13
2.25669e-13
4.24e-14
3.78418e-14
1.04592e-13
1.16211e-13
1.1131e-13
1.27146e-13
9.56434e-14
5.86909e-14
5.29779e-14
9.26102e-14
2.29925e-14
3.69337e-14
2.71524e-14
1.31453e-14
2.47048e-14
4.63436e-14
2.39124e-14
3.85375e-15
3.90022e-14
4.88809e-14
3.0627e-14
3.87159e-14
8.71513e-15
7.01329e-14
6.54237e-14
5.56866e-14
1.4608e-13
1.11452e-13
1.15157e-14
1.77784e-14
3.62711e-14
2.39489e-13
3.30422e-14
9.4102e-14
7.85733e-14
2.80804e-13
6.48406e-14
1.06057e-14
3.54895e-14
1.01289e-13
1.53764e-13
5.05967e-14
3.8988e-14
1.20459e-13
1.85287e-13
1.81371e-13
5.62878e-14
6.15281e-14
2.52465e-14
3.80969e-14
2.02403e-14
5.61418e-14
8.59396e-14
2.6614e-14
2.39361e-14
1.46684e-14
4.44777e-14
2.72828e-14
5.24953e-14
7.86457e-14
2.04832e-13
4.29472e-14
8.81228e-14
1.73279e-14
5.25818e-14
1.41848e-13
1.90535e-13
2.58459e-14
8.86209e-15
3.31425e-15
2.11368e-14
2.18006e-14
5.26858e-14
1.7289e-13
8.95825e-14
4.94119e-13
7.16066e-14
3.5551e-14
2.02518e-13
8.92946e-14
2.2733e-13
3.92464e-14
1.0198e-13
1.34507e-13
7.92519e-14
6.56303e-14
2.3522e-14
3.84457e-14
7.49902e-15
3.85573e-14
3.88403e-14
2.94913e-14
1.2651e-14
2.84842e-14
2.75548e-15
2.56717e-14
3.73384e-14
2.51631e-14
2.92038e-14
1.96518e-13
7.50676e-14
6.95093e-15
8.64938e-14
6.40803e-14
7.24596e-14
3.31579e-13
1.40424e-14
1.40425e-14
2.16809e-14
3.0187e-14
2.25061e-13
7.78383e-14
6.39553e-14
3.13286e-13
2.03085e-13
1.78776e-13
9.82979e-14
2.19513e-13
5.77876e-14
7.14082e-14
4.75941e-14
6.24855e-14
6.96268e-14
7.29155e-14
2.38229e-13
1.29749e-13
1.47582e-14
5.15914e-14
1.09275e-14
2.22049e-14
3.28495e-14
3.25962e-14
2.55458e-14
1.09907e-14
1.44906e-14
6.05356e-14
1.20521e-14
1.30541e-14
1.25475e-13
1.08352e-14
9.60443e-14
2.44054e-14
3.50693e-14
5.26949e-14
4.9542e-14
3.31461e-14
1.58227e-14
7.17266e-14
1.68597e-14
9.7543e-14
5.85698e-14
5.23725e-14
1.78175e-13
2.03352e-14
1.38457e-13
6.50213e-14
1.34603e-13
3.50371e-13
1.32978e-13
1.49477e-13
3.63754e-14
6.91207e-14
4.85971e-14
4.37625e-14
8.30641e-14
6.30925e-14
1.67897e-14
5.50095e-14
2.74209e-14
1.8794e-14
5.52408e-14
2.78638e-14
1.23477e-14
1.04576e-14
1.82233e-14
5.51076e-15
7.67002e-15
7.37056e-14
2.07079e-14
7.1055e-14
1.09259e-13
1.09553e-13
2.04768e-13
6.26024e-13
4.57103e-14
3.75683e-14
1.22202e-14
2.10742e-13
1.1263e-13
8.96239e-15
3.37364e-13
3.96097e-13
9.8002e-14
2.09048e-13
2.75118e-13
9.6952e-14
2.76471e-14
1.95135e-13
2.19365e-13
7.82244e-14
4.62202e-14
9.47861e-14
6.66556e-14
9.1224e-14
1.084e-13
6.08555e-14
1.10052e-14
6.35535e-14
1.13125e-14
2.28497e-14
8.76965e-15
1.89111e-15
1.99613e-14
9.52772e-15
2.20659e-14
4.78142e-14
5.85349e-14
7.71049e-14
9.67208e-15
2.07234e-14
1.37433e-14
5.29511e-14
1.75784e-13
3.93674e-14
1.83333e-14
4.87302e-14
6.23218e-14
8.37729e-14
1.50338e-13
5.8585e-14
4.42206e-14
8.74736e-14
5.18365e-14
8.94435e-14
1.65993e-15
4.46466e-14
3.46268e-14
1.95668e-13
1.74482e-14
1.62485e-13
6.78271e-14
8.32894e-14
4.12351e-14
8.27946e-14
2.84742e-14
2.87393e-14
7.31317e-15
9.89489e-15
8.42538e-15
1.30108e-14
3.28967e-14
1.9874e-14
3.9251e-14
1.46032e-14
5.87426e-14
1.38564e-13
2.28327e-14