/*--------------------------------*- C++ -*----------------------------------*\
| =========                 |                                                 |
| \\      /  F ield         | OpenFOAM: The Open Source CFD Toolbox           |
|  \\    /   O peration     | Version:  2506                                  |
|   \\  /    A nd           | Website:  www.openfoam.com                      |
|    \\/     M anipulation  |                                                 |
\*---------------------------------------------------------------------------*/
FoamFile
{
    version     2.0;
    format      ascii;
    arch        "LSB;label=32;scalar=64";
    class       volSymmTensorField;
    location    "0";
    object      turbulenceProperties:R;
}
// * * * * * * * * * * * * * * * * * * * * * * * * * * * * * * * * * * * * * //

dimensions      [0 2 -2 0 0 0 0];

internalField   nonuniform List<symmTensor> 
10720
(
(0.0109308 0.000160906 -8.457e-21 0.00821121 -1.18891e-21 0.00821955)
(0.0109334 8.07975e-05 3.67284e-20 0.00818658 5.16337e-21 0.00821753)
(0.0107486 -6.0818e-05 -8.76419e-20 0.00801192 -1.23209e-20 0.00808173)
(0.0107358 -0.00018488 1.2885e-19 0.00798113 1.81141e-20 0.00808549)
(0.0105954 -0.000294794 -9.00685e-20 0.00786647 -1.26621e-20 0.00800064)
(0.0103863 -0.000418838 -6.14875e-20 0.00771045 -8.64407e-21 0.00787779)
(0.0101985 -0.000531332 1.16799e-19 0.00758139 1.64198e-20 0.0077786)
(0.00997988 -0.00063413 -1.53883e-19 0.00743923 -2.16332e-20 0.00766331)
(0.00973748 -0.000733129 -1.16802e-20 0.00729002 -1.64203e-21 0.00753959)
(0.00950679 -0.0008218 7.05586e-20 0.00715732 9.91931e-21 0.00742944)
(0.00926872 -0.000902254 7.84233e-20 0.00702695 1.10249e-20 0.00731916)
(0.00903438 -0.000975034 -1.20185e-19 0.00690632 -1.68959e-20 0.0072164)
(0.00881399 -0.00104112 1.05897e-20 0.00680235 1.48872e-21 0.00712839)
(0.00859921 -0.0011005 5.4706e-20 0.00670854 7.69071e-21 0.00704861)
(0.00839535 -0.00115422 -7.80265e-20 0.00662881 -1.09692e-20 0.00698129)
(0.00820649 -0.00120234 -7.28355e-20 0.00656522 -1.02394e-20 0.00692853)
(0.00803009 -0.00124605 8.01321e-20 0.0065171 1.12652e-20 0.00688998)
(0.00786995 -0.00128456 1.84128e-19 0.0064851 2.58852e-20 0.00686611)
(0.00772683 -0.00131951 -8.37645e-20 0.00647152 -1.17758e-20 0.00685966)
(0.00760083 -0.00134969 -4.44458e-20 0.0064734 -6.2483e-21 0.00686738)
(0.00749119 -0.00137595 -3.10733e-20 0.00649076 -4.36836e-21 0.00688952)
(0.00740162 -0.0013978 4.90042e-20 0.00652172 6.88913e-21 0.00692417)
(0.00733033 -0.00141593 -5.11863e-20 0.00656403 -7.1959e-21 0.00696927)
(0.00727752 -0.00143005 5.83364e-21 0.00661181 8.20108e-22 0.007019)
(0.00723892 -0.00144032 -4.68671e-21 0.00665809 -6.58869e-22 0.00706647)
(0.0072074 -0.00144823 3.99297e-20 0.00670407 5.61342e-21 0.00711312)
(0.00718041 -0.00145469 7.41145e-22 0.00675251 1.04192e-22 0.00716189)
(0.00715899 -0.00145994 5.35107e-21 0.00680282 7.52267e-22 0.00721225)
(0.00714217 -0.00146409 5.42108e-20 0.00685426 7.6211e-21 0.00726351)
(0.00712887 -0.00146719 9.02439e-20 0.0069057 1.26867e-20 0.00731455)
(0.00711905 -0.00146944 -1.10874e-19 0.00695675 -1.55869e-20 0.00736504)
(0.00711236 -0.00147102 -7.88482e-20 0.00700704 -1.10847e-20 0.00741467)
(0.00710784 -0.00147195 1.87363e-19 0.00705567 2.634e-20 0.00746252)
(0.00710492 -0.00147231 -2.41047e-19 0.00710225 -3.38869e-20 0.00750825)
(0.00710362 -0.00147228 9.6602e-21 0.00714749 1.35806e-21 0.00755257)
(0.00710341 -0.00147187 2.1482e-19 0.00719207 3.01999e-20 0.00759617)
(0.00710424 -0.00147106 3.15835e-21 0.00723839 4.44009e-22 0.00764139)
(0.00710652 -0.00146986 -4.33988e-19 0.0072885 -6.10111e-20 0.00769023)
(0.00711192 -0.00146794 3.12954e-19 0.0073541 4.39958e-20 0.00775415)
(0.0109701 0.000295553 1.81287e-20 0.00829451 2.54858e-21 0.00826488)
(0.0110216 0.000372193 7.07701e-21 0.00836879 9.94903e-22 0.00831758)
(0.0108366 0.00050063 -7.13506e-20 0.00830111 -1.00307e-20 0.00821222)
(0.0107896 0.000629926 6.27944e-20 0.00834839 8.8278e-21 0.00822202)
(0.0106396 0.000752366 -4.12708e-20 0.00832815 -5.80195e-21 0.00816551)
(0.0103906 0.000874837 -2.42123e-20 0.0082506 -3.40382e-21 0.00805087)
(0.0101012 0.000996321 1.67681e-20 0.00816134 2.3573e-21 0.00792424)
(0.00980535 0.00110591 5.90501e-20 0.00807575 8.30141e-21 0.00780436)
(0.00950123 0.00119239 7.47453e-21 0.00797713 1.05079e-21 0.0076779)
(0.00918386 0.00126401 2.52255e-20 0.00786878 3.54626e-21 0.00754575)
(0.00890095 0.00132106 -1.16558e-20 0.00777933 -1.63861e-21 0.00743683)
(0.00865674 0.00136269 8.76312e-20 0.00770398 1.23194e-20 0.00734673)
(0.00844302 0.00139386 5.6503e-20 0.00764045 7.94333e-21 0.00727169)
(0.00825781 0.00141653 -3.90448e-20 0.00758672 -5.48902e-21 0.00720916)
(0.00810709 0.00143242 4.0378e-20 0.00754505 5.67644e-21 0.00716101)
(0.00797641 0.00144419 3.62765e-20 0.00751039 5.09985e-21 0.00712123)
(0.00786639 0.00145242 -2.72779e-20 0.0074819 -3.8348e-21 0.0070889)
(0.00776966 0.00145834 2.34454e-20 0.0074573 3.29601e-21 0.00706127)
(0.00768536 0.00146253 8.11743e-21 0.00743646 1.14117e-21 0.00703804)
(0.00760687 0.00146568 -2.82095e-20 0.00741786 -3.96576e-21 0.00701741)
(0.0075313 0.0014676 -5.74035e-20 0.00739931 -8.06993e-21 0.00699723)
(0.00745446 0.00146877 -1.69251e-20 0.00738104 -2.37937e-21 0.0069775)
(0.00737349 0.00146922 2.92616e-20 0.00736282 4.11367e-21 0.00695794)
(0.00728224 0.00146885 -2.96248e-20 0.00734434 -4.16473e-21 0.00693815)
(0.00719111 0.00146802 6.62046e-21 0.00733103 9.30721e-22 0.00692356)
(0.0071071 0.00146618 -8.84259e-20 0.0073215 -1.24311e-20 0.0069131)
(0.00702998 0.00146351 -2.35812e-20 0.0073158 -3.3151e-21 0.00690675)
(0.00695988 0.00146016 1.02414e-20 0.00731367 1.43976e-21 0.00690422)
(0.00689622 0.00145623 9.05015e-22 0.00731475 1.27229e-22 0.00690513)
(0.00683869 0.00145181 6.35629e-21 0.00731846 8.93583e-22 0.00690887)
(0.00678699 0.00144701 -4.08935e-20 0.00732433 -5.74892e-21 0.00691495)
(0.00674104 0.001442 1.49437e-20 0.00733221 2.10082e-21 0.00692317)
(0.00670016 0.00143685 -1.7781e-19 0.00734155 -2.49969e-20 0.00693296)
(0.00666366 0.00143158 -3.31655e-19 0.00735184 -4.66249e-20 0.00694379)
(0.00663076 0.00142622 1.03745e-19 0.00736294 1.45848e-20 0.00695552)
(0.00660065 0.00142072 1.04731e-19 0.00737526 1.47233e-20 0.00696853)
(0.00657123 0.00141471 1.59206e-19 0.00738899 2.23815e-20 0.00698308)
(0.00654148 0.00140789 -2.97446e-20 0.00740449 -4.18157e-21 0.00699958)
(0.00650895 0.00139927 -6.35297e-19 0.00742895 -8.93117e-20 0.00702532)
(1.0621e-18 -2.14344e-19 -7.44049e-23 1.03947e-18 -1.046e-23 1.12407e-18)
(1.15345e-18 -1.68754e-19 4.64587e-20 1.02647e-18 6.53129e-21 9.70166e-19)
(8.18167e-19 5.79075e-20 -2.84326e-20 1.11218e-18 -3.99713e-21 1.10585e-18)
(1.09449e-18 -2.01027e-19 -4.00851e-20 1.37005e-18 -5.63526e-21 1.33373e-18)
(1.62333e-18 3.85994e-21 1.31714e-19 1.26407e-18 1.85167e-20 1.25678e-18)
(1.13279e-18 -9.34889e-20 3.61011e-20 8.26236e-19 5.07518e-21 8.97222e-19)
(6.71839e-19 -6.03509e-21 1.43342e-19 7.22226e-19 2.01514e-20 6.97277e-19)
(1.12706e-18 5.54786e-21 -3.25051e-20 9.07525e-19 -4.56965e-21 8.50015e-19)
(1.10395e-18 -9.23125e-20 8.16767e-20 8.32616e-19 1.14823e-20 8.91959e-19)
(9.1458e-19 -1.40373e-19 1.89605e-20 1.18028e-18 2.66552e-21 1.1698e-18)
(1.02469e-18 -1.15551e-19 -1.38248e-19 9.6925e-19 -1.94352e-20 9.07471e-19)
(1.39813e-18 -1.69989e-19 1.56727e-19 1.17856e-18 2.20331e-20 1.21662e-18)
(9.38553e-19 -1.7473e-19 8.87032e-20 9.4058e-19 1.24701e-20 9.23146e-19)
(5.59214e-19 4.44171e-20 4.84046e-21 4.17243e-19 6.80484e-22 4.3516e-19)
(1.18244e-18 1.86916e-19 -4.52774e-20 1.53643e-18 -6.36521e-21 1.49952e-18)
(7.26462e-19 1.34784e-19 7.58504e-20 7.76431e-19 1.06632e-20 7.38233e-19)
(1.16709e-18 -2.34651e-19 4.66339e-20 1.11629e-18 6.5559e-21 1.17784e-18)
(1.37263e-18 3.89645e-20 -2.08079e-19 1.18917e-18 -2.92523e-20 1.16078e-18)
(1.50878e-19 7.09918e-21 2.95309e-20 1.8724e-19 4.15152e-21 1.68773e-19)
(9.81666e-19 1.99444e-19 6.28208e-20 1.11653e-18 8.83151e-21 1.09427e-18)
(4.50277e-19 -4.04126e-21 8.46357e-20 5.57081e-19 1.18983e-20 5.45503e-19)
(7.32325e-19 6.26564e-21 -6.71268e-20 6.07762e-19 -9.43686e-21 5.72232e-19)
(8.28661e-19 1.52768e-19 8.94506e-20 9.43673e-19 1.25752e-20 9.17092e-19)
(5.65978e-19 3.23608e-20 7.55961e-21 4.23613e-19 1.06275e-21 4.32894e-19)
(1.98625e-19 -9.74975e-22 -3.70914e-20 2.31882e-19 -5.2144e-21 1.98625e-19)
(4.79343e-19 -8.19119e-20 -3.24559e-20 4.23522e-19 -4.56274e-21 4.81681e-19)
(8.89058e-19 -1.90403e-19 -2.38719e-21 9.40217e-19 -3.35597e-22 9.50601e-19)
(2.90468e-19 -2.18911e-20 -1.59988e-20 2.40627e-19 -2.24915e-21 2.27068e-19)
(1.42339e-18 3.01218e-19 -3.78819e-20 1.57109e-18 -5.32553e-21 1.46847e-18)
(3.05216e-19 -3.51246e-20 -3.11497e-20 3.01158e-19 -4.37911e-21 2.64202e-19)
(5.68085e-19 -9.74954e-20 3.20129e-20 5.25734e-19 4.50045e-21 6.03935e-19)
(1.48464e-19 3.02423e-20 3.78019e-21 1.48731e-19 5.31428e-22 1.43162e-19)
(2.5512e-18 4.01168e-20 -5.40051e-19 2.66412e-18 -7.59218e-20 2.60327e-18)
(2.28952e-18 -1.3928e-19 4.65662e-19 2.37179e-18 6.5464e-20 2.33907e-18)
(5.75907e-19 8.65684e-21 -8.79574e-20 4.57049e-19 -1.23653e-20 5.03331e-19)
(1.7662e-18 -1.39618e-19 3.31744e-19 1.68761e-18 4.66373e-20 1.74299e-18)
(8.38962e-19 -3.07496e-20 -1.69352e-19 8.16892e-19 -2.38079e-20 8.2182e-19)
(2.40374e-18 -1.12137e-19 4.85778e-19 2.36236e-18 6.82918e-20 2.4361e-18)
(3.46748e-18 1.0251e-19 6.80332e-19 3.32279e-18 9.56428e-20 3.27883e-18)
(1.32175e-18 -5.16257e-20 2.33735e-20 9.86075e-19 3.2859e-21 1.00291e-18)
(8.17905e-19 -1.54022e-19 -5.37494e-20 7.69475e-19 -7.55622e-21 7.752e-19)
(7.65659e-19 4.49613e-20 -1.40081e-19 9.68093e-19 -1.96929e-20 9.16325e-19)
(2.40366e-18 -3.97906e-19 1.05467e-19 2.05886e-18 1.48268e-20 2.1117e-18)
(8.63712e-19 1.61662e-19 8.63389e-20 1.01435e-18 1.21377e-20 9.48295e-19)
(2.08258e-18 1.87643e-19 1.08845e-21 1.62504e-18 1.53018e-22 1.62364e-18)
(2.04917e-18 -2.07893e-19 -8.7869e-20 2.62579e-18 -1.23528e-20 2.70498e-18)
(1.93878e-18 1.333e-19 -1.71505e-19 1.60672e-18 -2.41106e-20 1.54319e-18)
(1.47231e-18 2.52966e-19 1.24139e-19 1.35163e-18 1.74518e-20 1.35664e-18)
(3.86603e-19 -1.93631e-20 -8.04762e-20 4.26666e-19 -1.13136e-20 4.16395e-19)
(9.88166e-19 -4.07053e-20 1.30458e-20 1.36679e-18 1.83401e-21 1.3514e-18)
(1.48452e-18 2.05314e-19 -3.34114e-20 1.23638e-18 -4.69705e-21 1.22517e-18)
(1.22534e-18 -1.91093e-19 1.07295e-21 1.00603e-18 1.50837e-22 1.04772e-18)
(7.78741e-19 -3.89222e-20 1.13558e-20 1.08964e-18 1.59643e-21 1.06336e-18)
(8.14922e-19 -1.6242e-19 3.94972e-20 7.86369e-19 5.55262e-21 8.34792e-19)
(9.9898e-19 -1.35089e-19 -8.51753e-20 8.42185e-19 -1.19742e-20 8.55984e-19)
(6.28191e-19 -5.14119e-20 9.45104e-20 8.35609e-19 1.32865e-20 7.80944e-19)
(1.13989e-18 2.34792e-19 -2.37709e-20 1.10031e-18 -3.34177e-21 1.13989e-18)
(1.18062e-18 -2.43434e-19 -4.69369e-20 1.16599e-18 -6.59851e-21 1.18983e-18)
(1.91899e-19 -1.55604e-20 -3.45092e-20 1.79987e-19 -4.85139e-21 1.96089e-19)
(5.63364e-19 -2.81973e-21 -8.33928e-20 5.29725e-19 -1.17236e-20 4.772e-19)
(9.94215e-19 -1.6416e-19 -1.04026e-19 9.17776e-19 -1.46242e-20 1.00808e-18)
(6.39541e-19 -2.39932e-20 -1.32114e-19 6.5494e-19 -1.85729e-20 6.39541e-19)
(6.64996e-19 1.24894e-19 6.52678e-20 6.70989e-19 9.17551e-21 6.76455e-19)
(1.17615e-18 2.42294e-19 -6.01737e-21 1.16696e-18 -8.45937e-22 1.24027e-18)
(4.55431e-19 8.23788e-20 5.34056e-20 5.04441e-19 7.50789e-21 4.89348e-19)
(1.37939e-18 -2.86613e-19 4.97203e-20 1.37287e-18 6.98981e-21 1.39428e-18)
(5.68018e-19 -1.15019e-19 1.95935e-21 5.43284e-19 2.7545e-22 5.43378e-19)
(1.06037e-18 -2.11793e-19 -5.63722e-22 9.79189e-19 -7.92494e-23 1.03585e-18)
(1.37472e-18 2.86697e-19 1.68144e-20 1.50681e-18 2.36381e-21 1.38471e-18)
(4.9299e-19 -1.39841e-21 9.21715e-20 4.39403e-19 1.29577e-20 4.91512e-19)
(3.08603e-19 3.60092e-20 4.22877e-20 4.09227e-19 5.94491e-21 3.74735e-19)
(1.60436e-18 -1.5461e-19 2.89927e-19 1.55078e-18 4.07587e-20 1.63199e-18)
(2.42276e-18 -2.86596e-19 4.01817e-19 2.30905e-18 5.64885e-20 2.41831e-18)
(5.63598e-19 -7.6543e-20 -9.01057e-20 5.68043e-19 -1.26673e-20 5.87455e-19)
(6.65541e-19 1.13223e-19 -7.92207e-20 6.52609e-19 -1.1137e-20 6.81718e-19)
(1.46746e-18 -2.27923e-19 -1.99106e-19 1.42368e-18 -2.79908e-20 1.44272e-18)
(1.68464e-18 2.97784e-20 -3.55631e-19 1.74725e-18 -4.99954e-20 1.7126e-18)
(1.20015e-18 1.47073e-19 -2.06654e-19 1.23893e-18 -2.90519e-20 1.20679e-18)
(1.59364e-18 3.44145e-19 2.09476e-21 1.71027e-18 2.94487e-22 1.66264e-18)
(2.6948e-18 -3.48271e-19 -4.26188e-20 2.11472e-18 -5.99146e-21 2.21348e-18)
(1.25887e-18 2.66535e-19 -4.04659e-21 1.38817e-18 -5.6888e-22 1.28746e-18)
(5.71818e-19 -7.41516e-20 3.11964e-20 5.33155e-19 4.38567e-21 4.78145e-19)
(1.12627e-18 -5.30607e-20 -7.68688e-20 8.57615e-19 -1.08064e-20 8.75575e-19)
(8.59956e-19 5.13114e-21 -6.38416e-20 1.15955e-18 -8.97502e-21 1.16289e-18)
(1.55447e-18 -2.79892e-19 -1.30675e-19 1.4454e-18 -1.83706e-20 1.47883e-18)
(1.45359e-18 3.57869e-20 -2.94187e-22 1.07502e-18 -4.13575e-23 1.0973e-18)
(5.97185e-19 -2.63488e-20 -8.95523e-20 7.51446e-19 -1.25895e-20 7.58794e-19)
(1.18847e-18 8.73455e-21 1.74394e-19 9.89589e-19 2.45168e-20 9.95189e-19)
(9.0737e-20 1.12184e-20 1.28031e-20 1.05927e-19 1.7999e-21 9.0737e-20)
(2.93774e-19 4.81214e-20 3.48147e-20 3.65248e-19 4.89434e-21 3.39592e-19)
(1.76642e-18 2.01526e-19 -1.26895e-19 1.45007e-18 -1.78393e-20 1.44843e-18)
(1.41393e-19 6.18488e-21 2.45628e-20 1.89004e-19 3.4531e-21 1.67255e-19)
(7.46663e-19 1.54628e-19 3.14394e-20 7.85684e-19 4.41983e-21 7.46663e-19)
(6.55293e-19 1.29391e-19 3.85521e-20 6.29079e-19 5.41976e-21 6.55293e-19)
(1.26367e-18 2.45877e-19 -1.08956e-19 1.37778e-18 -1.53173e-20 1.29354e-18)
(6.97801e-19 6.64246e-21 8.33802e-20 9.43725e-19 1.17218e-20 9.21936e-19)
(1.01091e-18 2.12442e-19 4.66033e-20 1.06362e-18 6.55161e-21 1.04422e-18)
(1.07584e-18 -1.92689e-19 -1.18012e-19 1.07086e-18 -1.65904e-20 1.07584e-18)
(5.76052e-19 2.02461e-20 9.28935e-20 5.0591e-19 1.30592e-20 4.97462e-19)
(6.94518e-19 -1.34082e-19 1.61472e-20 6.35602e-19 2.27001e-21 7.00873e-19)
(1.25886e-18 -2.66149e-19 2.21233e-20 1.27347e-18 3.11015e-21 1.26757e-18)
(1.16632e-18 -2.44215e-19 -2.67935e-20 1.23047e-18 -3.7667e-21 1.26951e-18)
(5.64161e-19 -1.05409e-19 1.34297e-20 5.03102e-19 1.88798e-21 5.64161e-19)
(3.34059e-19 1.29267e-20 -2.1972e-20 3.77057e-19 -3.08888e-21 2.93373e-19)
(1.17681e-19 1.50813e-20 4.07158e-21 1.52411e-19 5.72393e-22 1.53521e-19)
(1.01772e-19 -2.06992e-21 2.90242e-21 1.03803e-19 4.0803e-22 8.2853e-20)
(1.25947e-18 -2.57506e-19 -5.43521e-20 1.24733e-18 -7.64096e-21 1.30207e-18)
(7.14204e-19 1.53037e-19 -7.25673e-21 8.04261e-19 -1.02017e-21 7.87194e-19)
(5.43186e-19 -2.83611e-20 1.12237e-19 5.73381e-19 1.57786e-20 5.74329e-19)
(8.28325e-19 1.22635e-19 -1.26387e-19 8.48516e-19 -1.77678e-20 8.529e-19)
(2.75476e-19 -4.77131e-20 3.15248e-20 2.70646e-19 4.43183e-21 2.70913e-19)
(2.33023e-19 4.02408e-20 -6.25749e-21 2.60139e-19 -8.79693e-22 2.79925e-19)
(9.92618e-19 -2.44832e-20 2.06748e-19 1.05126e-18 2.90651e-20 1.07794e-18)
(4.14503e-18 6.97748e-20 -8.63899e-19 4.16701e-18 -1.21449e-19 4.13817e-18)
(1.96183e-18 -2.44027e-19 3.21246e-19 1.89762e-18 4.51616e-20 1.93187e-18)
(2.08184e-18 2.19336e-19 3.82646e-19 2.15371e-18 5.37934e-20 2.10624e-18)
(6.50474e-18 1.07987e-19 -1.35962e-18 6.54043e-18 -1.91139e-19 6.54606e-18)
(6.8632e-19 -7.96211e-20 -1.84909e-22 8.03873e-19 -2.5995e-23 8.79112e-19)
(4.2293e-19 2.61774e-20 -3.22815e-20 5.86477e-19 -4.53821e-21 5.66732e-19)
(5.10825e-19 6.13726e-20 8.62381e-20 5.95211e-19 1.21236e-20 5.8467e-19)
(1.84274e-18 -3.50778e-19 4.34472e-20 1.65035e-18 6.10792e-21 1.72571e-18)
(8.64943e-19 -7.7777e-21 -8.41755e-20 7.50841e-19 -1.18336e-20 6.83044e-19)
(1.60172e-18 2.44294e-19 -5.04263e-20 2.08592e-18 -7.08905e-21 2.04822e-18)
(1.48325e-18 1.11812e-19 2.46892e-19 1.31316e-18 3.47086e-20 1.3445e-18)
(1.01281e-18 1.10019e-19 9.16264e-20 8.23783e-19 1.28811e-20 8.41697e-19)
(6.18166e-19 -1.87906e-20 8.88503e-20 5.20807e-19 1.24908e-20 5.16753e-19)
(1.28733e-18 -5.30662e-20 -8.55585e-20 1.73492e-18 -1.2028e-20 1.73848e-18)
(8.97234e-19 1.77107e-19 -6.75728e-20 1.06272e-18 -9.49956e-21 1.00331e-18)
(1.85305e-19 -3.17103e-20 2.02781e-20 2.21215e-19 2.85074e-21 2.16328e-19)
(1.07313e-18 9.40316e-21 7.78613e-20 8.57351e-19 1.09459e-20 8.25129e-19)
(6.19659e-19 -2.44923e-20 1.17122e-19 6.81281e-19 1.64654e-20 7.18472e-19)
(3.532e-19 -1.88925e-20 -2.31493e-20 2.72934e-19 -3.25438e-21 2.74397e-19)
(1.32191e-18 2.41476e-19 -2.75162e-21 1.6344e-18 -3.8683e-22 1.62286e-18)
(1.33416e-18 -2.66811e-19 9.33359e-20 1.34709e-18 1.31214e-20 1.34453e-18)
(4.22967e-19 -1.47096e-20 3.26761e-21 5.0388e-19 4.59369e-22 5.58526e-19)
(9.76129e-19 2.17373e-20 8.06128e-20 7.56276e-19 1.13327e-20 7.58945e-19)
(8.7957e-19 -1.23692e-20 7.75514e-20 6.64543e-19 1.09024e-20 6.8947e-19)
(1.00012e-18 -3.36213e-20 1.93469e-19 1.21552e-18 2.71983e-20 1.18758e-18)
(1.70056e-18 2.90678e-19 2.23194e-19 1.84446e-18 3.13772e-20 1.794e-18)
(9.80058e-19 -1.50627e-19 1.15139e-19 8.99391e-19 1.61866e-20 9.12944e-19)
(6.91055e-19 1.28787e-19 2.39507e-20 6.21919e-19 3.36704e-21 6.96454e-19)
(4.55422e-19 8.34771e-20 -2.95693e-20 5.66766e-19 -4.15693e-21 4.9178e-19)
(5.44327e-19 1.68685e-21 1.11014e-19 5.23001e-19 1.56067e-20 5.48801e-19)
(6.11922e-19 -1.08915e-19 -3.06021e-20 5.33261e-19 -4.30212e-21 5.63851e-19)
(8.66562e-19 1.76066e-19 -2.49811e-20 8.2663e-19 -3.51191e-21 8.55158e-19)
(5.03437e-19 1.04587e-19 3.09496e-21 5.8862e-19 4.35097e-22 5.30228e-19)
(5.9494e-19 -9.84064e-20 -1.77812e-20 5.2995e-19 -2.49973e-21 5.15155e-19)
(3.97019e-19 3.71474e-20 -2.81835e-20 5.8152e-19 -3.96211e-21 4.98757e-19)
(8.64933e-19 -1.47092e-19 -7.1818e-20 7.94489e-19 -1.00963e-20 8.9367e-19)
(1.32261e-18 2.51584e-19 -9.38871e-20 1.31801e-18 -1.31989e-20 1.26454e-18)
(7.28811e-19 2.97992e-20 -1.4902e-19 7.53509e-19 -2.09496e-20 7.22498e-19)
(1.36024e-18 5.38294e-20 -2.73997e-19 1.31448e-18 -3.85192e-20 1.35833e-18)
(1.29133e-18 -2.55629e-19 5.20885e-20 1.26593e-18 7.32273e-21 1.22798e-18)
(1.29576e-18 -1.2316e-19 -2.37785e-19 1.26169e-18 -3.34284e-20 1.29956e-18)
(2.88248e-18 6.42573e-20 6.10669e-19 3.04292e-18 8.58494e-20 2.96591e-18)
(4.38856e-18 -3.41257e-19 8.55942e-19 4.40094e-18 1.2033e-19 4.45193e-18)
(1.26377e-18 -2.11404e-19 1.42017e-20 1.59711e-18 1.99652e-21 1.5893e-18)
(8.8502e-19 1.03685e-19 -1.8162e-20 7.60982e-19 -2.55327e-21 7.11043e-19)
(3.06674e-19 5.15078e-20 -1.6697e-21 4.10952e-19 -2.34731e-22 3.8378e-19)
(1.65825e-18 -2.79188e-19 7.19952e-20 2.04229e-18 1.01213e-20 2.05993e-18)
(7.04654e-19 -7.9715e-20 4.77555e-20 8.95649e-19 6.71359e-21 9.16407e-19)
(8.36417e-19 5.12278e-20 5.63503e-20 6.35172e-19 7.92187e-21 6.55857e-19)
(6.30012e-19 9.32896e-20 6.57405e-20 8.15013e-19 9.24197e-21 7.74342e-19)
(1.05933e-18 2.24732e-19 -2.74186e-20 1.12781e-18 -3.85457e-21 1.07763e-18)
(6.21493e-19 5.6642e-22 -1.14933e-19 7.26742e-19 -1.61576e-20 7.48207e-19)
(1.0218e-18 -1.66795e-19 9.42025e-20 1.10478e-18 1.32432e-20 1.18881e-18)
(8.32707e-19 2.9663e-20 9.6293e-20 6.69401e-19 1.35371e-20 6.71349e-19)
(1.06467e-18 1.62471e-19 1.29846e-19 1.28493e-18 1.8254e-20 1.26996e-18)
(6.18882e-19 2.49679e-20 -1.30125e-19 6.6784e-19 -1.82932e-20 6.57415e-19)
(1.42538e-18 1.14092e-20 -1.90322e-19 1.16481e-18 -2.67559e-20 1.16926e-18)
(1.0223e-18 1.49546e-19 1.56132e-19 1.03366e-18 2.19494e-20 1.04415e-18)
(2.91739e-19 2.625e-20 5.54521e-20 2.99745e-19 7.7956e-21 2.91739e-19)
(1.00972e-18 -2.13011e-19 -5.38987e-21 1.0062e-18 -7.57722e-22 1.02816e-18)
(4.86227e-19 2.23053e-20 -9.95236e-20 5.08138e-19 -1.39913e-20 4.86227e-19)
(8.09072e-19 -1.68149e-19 -4.80262e-21 7.93645e-19 -6.75164e-22 8.32324e-19)
(6.0097e-19 6.59423e-21 1.2514e-19 5.97974e-19 1.75925e-20 6.0097e-19)
(7.5587e-19 1.08502e-20 -1.57942e-19 8.68124e-19 -2.22039e-20 8.52057e-19)
(5.06329e-19 3.67697e-20 7.25975e-20 4.49205e-19 1.02059e-20 4.33136e-19)
(7.83381e-19 1.65934e-19 -1.29e-20 8.0862e-19 -1.81351e-21 7.86105e-19)
(3.85474e-19 -6.54505e-21 -5.69295e-20 5.1689e-19 -8.0033e-21 4.19897e-19)
(9.87052e-19 -1.9698e-19 3.0977e-20 9.25387e-19 4.35483e-21 9.57867e-19)
(2.88218e-19 2.85255e-20 -2.55184e-20 2.60029e-19 -3.58744e-21 2.37073e-19)
(3.44697e-19 6.1829e-20 -2.72034e-21 3.78509e-19 -3.82432e-22 4.08702e-19)
(3.26007e-19 -3.72846e-20 1.3735e-20 2.97578e-19 1.9309e-21 2.65692e-19)
(1.08627e-18 2.30036e-19 1.0558e-20 1.11822e-18 1.48427e-21 1.08627e-18)
(4.48659e-19 -8.6552e-20 1.70029e-20 4.37749e-19 2.39031e-21 4.81003e-19)
(1.04086e-18 -2.19007e-19 -1.85629e-20 1.09501e-18 -2.60962e-21 1.03956e-18)
(1.42177e-18 2.10361e-19 2.06618e-19 1.38644e-18 2.90468e-20 1.41702e-18)
(1.2857e-18 -1.04117e-19 2.34251e-19 1.21088e-18 3.29316e-20 1.22828e-18)
(1.11475e-18 2.04604e-19 -7.52116e-20 1.05055e-18 -1.05734e-20 1.03737e-18)
(1.85674e-18 9.52341e-20 -3.69462e-19 1.86678e-18 -5.194e-20 1.80742e-18)
(1.10021e-18 -4.51218e-20 2.22556e-19 1.08398e-18 3.12875e-20 1.13531e-18)
(2.44977e-18 1.10737e-19 -4.9786e-19 2.42112e-18 -6.99905e-20 2.46868e-18)
(3.85981e-18 -1.59875e-19 -7.79989e-19 3.75965e-18 -1.09653e-19 3.84262e-18)
(3.79738e-18 6.57965e-21 7.8903e-19 3.77478e-18 1.10924e-19 3.76509e-18)
(7.17492e-19 -9.40782e-20 -2.50366e-20 9.75765e-19 -3.51971e-21 9.36166e-19)
(1.06025e-18 -1.79128e-20 -1.71578e-21 1.45272e-18 -2.41209e-22 1.45389e-18)
(1.16078e-18 1.81043e-19 9.86021e-20 1.44574e-18 1.38617e-20 1.43682e-18)
(1.73484e-18 -7.53779e-20 -2.40843e-20 1.30207e-18 -3.38583e-21 1.31691e-18)
(1.18141e-18 -2.00298e-20 1.26156e-19 1.56094e-18 1.77353e-20 1.56936e-18)
(1.85887e-18 1.15501e-19 -6.72607e-20 1.43639e-18 -9.45568e-21 1.42906e-18)
(9.98857e-19 -1.3692e-19 -6.69352e-20 1.21833e-18 -9.40993e-21 1.26546e-18)
(5.69382e-19 -3.87498e-20 5.51171e-21 7.83651e-19 7.7485e-22 7.73163e-19)
(5.19494e-19 -1.40128e-20 2.53925e-20 4.35867e-19 3.56975e-21 3.97398e-19)
(8.1712e-19 -2.50228e-20 1.67126e-19 8.30905e-19 2.3495e-20 8.01469e-19)
(1.18221e-18 -1.83335e-19 1.21904e-20 9.78913e-19 1.71376e-21 1.00635e-18)
(3.5969e-19 -2.08259e-20 5.35363e-20 4.64725e-19 7.52627e-21 4.56966e-19)
(9.76573e-19 -3.22242e-20 -1.54008e-19 1.20814e-18 -2.16508e-20 1.2303e-18)
(1.15021e-18 -1.66241e-19 -1.00624e-19 1.02916e-18 -1.4146e-20 9.98541e-19)
(1.39912e-18 -2.93651e-19 3.18001e-20 1.40309e-18 4.47054e-21 1.39912e-18)
(1.10863e-19 -1.09631e-20 1.91812e-20 1.12752e-19 2.69654e-21 1.21415e-19)
(4.70327e-19 -1.47607e-20 -9.45109e-20 4.53052e-19 -1.32866e-20 4.80031e-19)
(2.23643e-19 -2.6816e-20 1.10606e-20 2.89076e-19 1.55493e-21 2.28091e-19)
(1.21275e-19 -4.2838e-21 -2.54763e-20 1.31246e-19 -3.58152e-21 1.25342e-19)
(4.70134e-19 -1.61148e-20 7.06241e-20 5.18544e-19 9.92851e-21 5.72565e-19)
(4.45132e-19 -2.54072e-20 -8.0251e-20 5.18266e-19 -1.12819e-20 5.31716e-19)
(6.68603e-19 -2.68592e-20 -1.31157e-19 6.32064e-19 -1.84383e-20 6.77837e-19)
(3.37521e-19 5.2121e-21 1.80697e-20 2.33161e-19 2.54028e-21 2.65913e-19)
(1.18937e-18 2.50225e-19 3.87054e-20 1.22053e-18 5.44131e-21 1.19954e-18)
(4.85948e-19 -2.58201e-21 9.8409e-20 5.17614e-19 1.38346e-20 5.42904e-19)
(4.54089e-19 -9.48001e-21 -9.47501e-20 4.55906e-19 -1.33202e-20 4.58309e-19)
(3.69655e-19 7.55064e-20 -1.43001e-20 4.02344e-19 -2.01034e-21 3.69655e-19)
(4.8042e-19 1.02576e-19 9.39676e-21 4.98322e-19 1.32102e-21 4.925e-19)
(1.84986e-19 -2.62143e-20 -4.32623e-21 2.58451e-19 -6.08192e-22 2.13047e-19)
(5.00516e-19 9.91165e-20 -6.14466e-21 4.5992e-19 -8.63832e-22 4.81209e-19)
(3.17653e-19 6.72583e-20 -1.0405e-20 3.63817e-19 -1.46276e-21 3.50822e-19)
(4.3582e-19 7.15535e-20 3.20205e-20 4.59394e-19 4.50153e-21 4.02625e-19)
(4.40307e-19 -3.53652e-20 8.41015e-20 4.46927e-19 1.18232e-20 4.68327e-19)
(9.94138e-19 -8.10537e-20 1.77285e-19 9.16686e-19 2.49231e-20 9.43151e-19)
(1.37068e-18 9.48424e-20 2.56984e-19 1.28448e-18 3.61274e-20 1.32249e-18)
(1.72354e-18 -2.53988e-19 -2.49638e-19 1.6773e-18 -3.50948e-20 1.69915e-18)
(2.90311e-18 1.69367e-19 5.8081e-19 2.90417e-18 8.16518e-20 2.88094e-18)
(1.23053e-18 3.65826e-20 -2.50284e-19 1.19642e-18 -3.51856e-20 1.2131e-18)
(9.47163e-19 9.12142e-20 -1.58976e-19 8.92313e-19 -2.23492e-20 8.78695e-19)
(1.92346e-18 2.04955e-19 -1.73667e-20 1.52027e-18 -2.44145e-21 1.52421e-18)
(1.24175e-18 4.1988e-20 4.57067e-21 9.15289e-19 6.42557e-22 9.40631e-19)
(1.16821e-18 1.6629e-19 1.60002e-20 1.01627e-18 2.24934e-21 9.67948e-19)
(5.67333e-19 3.14441e-20 -9.73413e-20 6.82233e-19 -1.36845e-20 6.93439e-19)
(1.24288e-18 -1.5888e-19 -6.64431e-20 9.80911e-19 -9.34074e-21 1.03668e-18)
(1.26549e-18 1.27725e-19 1.42275e-19 1.67472e-18 2.00013e-20 1.62584e-18)
(1.37262e-18 -1.94081e-19 -1.31197e-19 1.17717e-18 -1.84441e-20 1.20473e-18)
(2.35123e-19 -2.09009e-20 -4.01483e-20 2.13604e-19 -5.64414e-21 2.35123e-19)
(6.13823e-19 4.17988e-20 -1.04591e-19 5.38323e-19 -1.47037e-20 5.61965e-19)
(4.52324e-19 8.79198e-20 -3.61998e-20 5.38507e-19 -5.08906e-21 4.95546e-19)
(2.0562e-18 -1.61188e-19 1.28181e-20 1.56227e-18 1.80201e-21 1.59221e-18)
(5.26877e-19 2.02963e-20 -1.03752e-19 4.95813e-19 -1.45857e-20 5.26877e-19)
(9.88766e-19 1.03295e-20 1.97168e-19 1.20182e-18 2.77184e-20 1.16223e-18)
(7.50278e-19 -1.35536e-19 -1.89325e-20 8.54253e-19 -2.66158e-21 9.00132e-19)
(1.51551e-18 -2.57015e-19 -1.48872e-19 1.73741e-18 -2.09289e-20 1.78268e-18)
(4.00687e-19 4.57686e-20 7.06515e-20 4.04867e-19 9.93237e-21 4.00687e-19)
(3.65615e-19 2.59067e-20 -6.5235e-20 3.317e-19 -9.1709e-21 3.65615e-19)
(9.5585e-20 1.82174e-20 8.74714e-21 9.96452e-20 1.2297e-21 9.5585e-20)
(1.63423e-19 7.23971e-21 -2.41025e-21 2.3813e-19 -3.3884e-22 1.8504e-19)
(1.08733e-18 1.68683e-19 -1.29081e-19 1.02699e-18 -1.81466e-20 1.01259e-18)
(7.00569e-19 -1.18804e-19 8.3509e-20 6.83287e-19 1.17399e-20 7.12707e-19)
(1.18493e-19 2.5069e-20 -9.88488e-22 1.30846e-19 -1.38964e-22 1.21278e-19)
(2.39675e-19 2.68936e-20 1.84347e-20 3.02097e-19 2.5916e-21 3.10189e-19)
(3.65032e-19 1.89145e-20 7.09191e-20 3.45018e-19 9.96998e-21 3.67377e-19)
(4.66257e-19 -8.9845e-20 -2.46954e-20 4.55916e-19 -3.47175e-21 4.39848e-19)
(4.12258e-19 3.25337e-20 7.81338e-20 4.04947e-19 1.09842e-20 4.01675e-19)
(4.04004e-19 5.44273e-20 2.87263e-21 4.12288e-19 4.03841e-22 3.4727e-19)
(2.55894e-19 -3.16802e-20 -9.41994e-21 2.55518e-19 -1.32428e-21 3.02399e-19)
(1.89561e-19 3.49287e-20 7.52572e-21 2.15575e-19 1.05799e-21 2.25334e-19)
(7.40658e-19 2.66159e-20 -1.45277e-19 7.57883e-19 -2.04233e-20 7.07392e-19)
(2.99091e-19 3.25349e-21 -5.75358e-20 3.56957e-19 -8.08853e-21 3.57226e-19)
(1.06302e-18 2.15661e-19 2.90152e-20 1.10051e-18 4.07903e-21 1.02982e-18)
(1.56698e-18 -2.68553e-19 1.80156e-19 1.51191e-18 2.53268e-20 1.56289e-18)
(1.91141e-18 2.34599e-19 -3.32466e-19 2.05215e-18 -4.67389e-20 1.95713e-18)
(1.4673e-18 -2.99752e-20 3.03867e-19 1.45074e-18 4.27184e-20 1.48895e-18)
(2.19451e-19 3.48169e-20 -3.05114e-20 2.49907e-19 -4.28937e-21 2.46526e-19)
(4.34578e-19 -1.05503e-21 -7.53743e-20 4.98697e-19 -1.05963e-20 4.19469e-19)
(3.83269e-19 3.49926e-21 6.10595e-20 3.6712e-19 8.5839e-21 4.30058e-19)
(5.11999e-18 1.74908e-19 -1.06016e-18 5.19094e-18 -1.49039e-19 5.12926e-18)
(1.71187e-18 -2.63617e-20 8.62768e-21 1.32272e-18 1.2129e-21 1.28567e-18)
(8.01069e-19 -1.42744e-19 -4.77662e-20 8.52256e-19 -6.71509e-21 9.24057e-19)
(7.81161e-19 3.15345e-20 1.68969e-20 6.30708e-19 2.3754e-21 5.92293e-19)
(8.13207e-19 -2.99974e-20 -1.67108e-22 6.15463e-19 -2.34925e-23 6.14514e-19)
(1.06617e-18 -1.24804e-19 -1.8574e-19 1.07095e-18 -2.61118e-20 1.10176e-18)
(7.22087e-19 1.24514e-20 -8.06954e-20 5.68598e-19 -1.13444e-20 5.7771e-19)
(1.3148e-18 -3.78095e-20 2.78958e-19 1.45299e-18 3.92167e-20 1.3954e-18)
(1.25179e-18 -1.12436e-20 -2.02594e-19 1.0993e-18 -2.84812e-20 1.07445e-18)
(9.7667e-19 -2.01478e-19 1.90717e-21 9.50669e-19 2.68115e-22 1.00571e-18)
(1.53533e-18 1.75038e-20 3.76686e-21 1.09517e-18 5.29555e-22 1.16532e-18)
(9.27698e-19 -2.29792e-20 -2.67467e-20 1.31204e-18 -3.76011e-21 1.27066e-18)
(1.22901e-18 1.50832e-19 -4.25501e-20 1.03485e-18 -5.9818e-21 9.95864e-19)
(4.40635e-19 -8.72514e-21 -9.37796e-20 4.69641e-19 -1.31838e-20 4.64846e-19)
(5.69513e-19 -1.38105e-20 1.14467e-19 5.4955e-19 1.6092e-20 5.86578e-19)
(7.96768e-19 1.14649e-19 5.18752e-20 6.97972e-19 7.29275e-21 6.76766e-19)
(1.23945e-18 2.29812e-19 -1.09241e-20 1.16655e-18 -1.53574e-21 1.11844e-18)
(3.55e-19 -1.30288e-20 2.94355e-20 4.34577e-19 4.13812e-21 4.66665e-19)
(1.08987e-18 -2.21745e-19 -5.6679e-20 1.16132e-18 -7.96807e-21 1.19667e-18)
(8.2772e-19 1.70023e-19 3.97812e-20 9.29637e-19 5.59254e-21 9.29385e-19)
(1.0922e-18 -1.60931e-19 -4.16198e-20 9.01315e-19 -5.85101e-21 9.2391e-19)
(3.86188e-19 -7.48272e-21 4.93476e-20 3.19362e-19 6.93741e-21 3.14228e-19)
(3.55664e-19 -4.08048e-20 4.9938e-20 4.62767e-19 7.02041e-21 4.35677e-19)
(6.68318e-19 1.16538e-19 -1.09161e-20 5.62624e-19 -1.53462e-21 6.03518e-19)
(7.3357e-19 9.76594e-20 -9.8904e-20 7.24534e-19 -1.39042e-20 6.74678e-19)
(4.49914e-19 7.03389e-20 -3.12236e-20 5.81336e-19 -4.38949e-21 5.63779e-19)
(3.49383e-19 7.18771e-20 -1.02908e-20 3.80526e-19 -1.44671e-21 3.49383e-19)
(8.97942e-19 1.63167e-19 3.791e-20 8.06959e-19 5.32948e-21 8.16694e-19)
(9.05096e-19 -1.90021e-19 8.42466e-22 9.94403e-19 1.18436e-22 1.01129e-18)
(2.4054e-19 -3.4854e-20 -2.00639e-21 1.8935e-19 -2.82064e-22 2.04257e-19)
(1.52123e-18 -2.99959e-19 2.38536e-20 1.40599e-18 3.3534e-21 1.44153e-18)
(4.29883e-19 8.49746e-20 1.75709e-20 4.46367e-19 2.47016e-21 4.13267e-19)
(4.82644e-19 1.32909e-20 -8.40751e-20 4.73803e-19 -1.18195e-20 5.3861e-19)
(1.45382e-18 -2.22009e-19 -2.12049e-19 1.46384e-18 -2.98104e-20 1.47929e-18)
(3.08352e-19 -3.71853e-20 -4.09369e-20 3.07584e-19 -5.75502e-21 2.78571e-19)
(3.89198e-19 6.19639e-20 2.71888e-20 5.06127e-19 3.82227e-21 4.85236e-19)
(1.03438e-18 2.15126e-19 -5.21419e-20 1.09837e-18 -7.33023e-21 1.05434e-18)
(1.04109e-18 1.09615e-19 -1.86314e-19 1.05692e-18 -2.61926e-20 1.02293e-18)
(1.57588e-18 2.62974e-20 3.26536e-19 1.56208e-18 4.59052e-20 1.61713e-18)
(1.32021e-18 1.59842e-19 -2.23895e-19 1.32312e-18 -3.14758e-20 1.30329e-18)
(4.66265e-19 3.44757e-20 1.26025e-20 3.91642e-19 1.77169e-21 3.61099e-19)
(3.83518e-19 5.02212e-20 -3.12975e-20 3.12499e-19 -4.39988e-21 3.27958e-19)