/*--------------------------------*- C++ -*----------------------------------*\
| =========                 |                                                 |
| \\      /  F ield         | OpenFOAM: The Open Source CFD Toolbox           |
|  \\    /   O peration     | Version:  2506                                  |
|   \\  /    A nd           | Website:  www.openfoam.com                      |
|    \\/     M anipulation  |                                                 |
\*---------------------------------------------------------------------------*/
FoamFile
{
    version     2.0;
    format      ascii;
    arch        "LSB;label=32;scalar=64";
    class       volScalarField;
    location    "0";
    object      turbulenceProperties:I;
}
// * * * * * * * * * * * * * * * * * * * * * * * * * * * * * * * * * * * * * //

dimensions      [0 0 0 0 0 0 0];

internalField   nonuniform List<scalar> 
10720
(
0.00367268
0.00367106
0.00363766
0.00363496
0.00361183
0.00357838
0.0035496
0.00351639
0.00348008
0.00344638
0.00341197
0.00337874
0.00334852
0.00331981
0.00329365
0.00327073
0.00325084
0.00323442
0.00322197
0.00321305
0.00320766
0.00320582
0.00320706
0.0032105
0.00321473
0.00321941
0.00322478
0.00323083
0.00323738
0.00324416
0.00325112
0.00325818
0.00326513
0.00327187
0.00327852
0.00328512
0.00329205
0.00329962
0.00330968
0.00368393
0.00369586
0.0036719
0.00367257
0.00365733
0.00362747
0.00359297
0.00355841
0.00352156
0.0034823
0.00344806
0.00341865
0.00339316
0.00337119
0.00335355
0.00333844
0.0033258
0.00331475
0.00330519
0.0032964
0.00328784
0.00327922
0.00327028
0.0032605
0.00325149
0.0032436
0.00323681
0.00323112
0.00322641
0.00322258
0.00321954
0.00321725
0.00321558
0.00321441
0.00321363
0.00321327
0.00321318
0.00321335
0.00321471
3.98769e-11
3.9407e-11
3.86881e-11
4.32719e-11
4.51993e-11
3.75241e-11
3.21089e-11
3.77099e-11
3.73416e-11
4.01173e-11
3.78196e-11
4.32436e-11
3.71679e-11
2.63798e-11
4.56022e-11
3.32388e-11
4.13073e-11
4.28386e-11
1.58077e-11
3.96712e-11
2.76681e-11
3.07038e-11
3.64118e-11
2.64811e-11
1.7611e-11
2.61256e-11
3.7019e-11
1.93327e-11
4.69055e-11
2.07165e-11
2.89301e-11
1.47338e-11
6.20835e-11
5.87453e-11
2.752e-11
5.06151e-11
3.4949e-11
5.95861e-11
7.04543e-11
4.03994e-11
3.41276e-11
3.61445e-11
5.69292e-11
3.73272e-11
5.12658e-11
6.03169e-11
5.00859e-11
4.53974e-11
2.4621e-11
4.2745e-11
4.41057e-11
4.02058e-11
3.80168e-11
3.46544e-11
3.6464e-11
3.32656e-11
4.08203e-11
4.17537e-11
1.67331e-11
2.78229e-11
3.79411e-11
3.08776e-11
3.14973e-11
4.203e-11
2.67288e-11
4.52121e-11
2.85607e-11
3.89371e-11
4.58602e-11
2.64943e-11
2.32079e-11
4.85791e-11
5.93702e-11
2.91114e-11
3.13988e-11
4.62222e-11
5.03598e-11
4.23948e-11
4.94812e-11
5.88401e-11
4.4041e-11
2.79363e-11
3.75452e-11
3.96086e-11
4.69881e-11
4.22786e-11
3.22321e-11
3.95516e-11
1.1903e-11
2.21876e-11
4.79551e-11
1.5663e-11
3.35186e-11
3.09226e-11
4.40438e-11
3.55489e-11
3.92105e-11
3.98576e-11
2.79037e-11
3.16422e-11
4.32812e-11
4.25135e-11
2.83593e-11
2.22528e-11
1.4451e-11
1.19243e-11
4.33322e-11
3.3714e-11
2.88716e-11
3.53143e-11
2.00693e-11
1.95221e-11
3.92298e-11
7.83431e-11
5.3432e-11
5.59137e-11
9.8275e-11
3.41761e-11
2.78747e-11
2.887e-11
5.07222e-11
3.3664e-11
5.31755e-11
4.51815e-11
3.63363e-11
2.85698e-11
4.8445e-11
3.82206e-11
1.75228e-11
3.68571e-11
3.15519e-11
2.10699e-11
4.75123e-11
4.45489e-11
2.70601e-11
3.50453e-11
3.31828e-11
4.09598e-11
5.1303e-11
3.71023e-11
3.14738e-11
2.73194e-11
2.82261e-11
2.9026e-11
3.54439e-11
2.82798e-11
2.84342e-11
2.69865e-11
3.54769e-11
4.38764e-11
3.29685e-11
4.45892e-11
4.31976e-11
4.36052e-11
6.62057e-11
8.07941e-11
4.68383e-11
3.40876e-11
2.33016e-11
5.32894e-11
3.52232e-11
3.23848e-11
3.30771e-11
4.01179e-11
3.2148e-11
4.04278e-11
3.27332e-11
4.22416e-11
3.09582e-11
4.30502e-11
3.90932e-11
2.08664e-11
3.87383e-11
2.70166e-11
3.4647e-11
2.97878e-11
3.49375e-11
2.61645e-11
3.42395e-11
2.55312e-11
3.76163e-11
1.96759e-11
2.36221e-11
2.09378e-11
4.02773e-11
2.59634e-11
3.95652e-11
4.56391e-11
4.28517e-11
3.97346e-11
5.2217e-11
4.04528e-11
6.01516e-11
7.51699e-11
7.47595e-11
3.60033e-11
4.42217e-11
4.4646e-11
4.63285e-11
4.61039e-11
4.82594e-11
4.1435e-11
3.23753e-11
2.58239e-11
3.47497e-11
3.95156e-11
2.51334e-11
4.10306e-11
3.95807e-11
4.55099e-11
1.30419e-11
2.6303e-11
1.91102e-11
1.36483e-11
2.77426e-11
2.71487e-11
3.12306e-11
2.03081e-11
4.21825e-11
2.7611e-11
2.59719e-11
2.37235e-11
2.69311e-11
1.79897e-11
2.66589e-11
2.25587e-11
2.52943e-11
2.58507e-11
3.75092e-11
4.42818e-11
5.01415e-11
6.54452e-11
4.2361e-11
3.66059e-11
4.94881e-11
3.90778e-11
3.94217e-11
3.09492e-11
4.00915e-11
4.74442e-11
4.30219e-11
1.83609e-11
2.90691e-11
2.70693e-11
5.06827e-11
2.76387e-11
4.06553e-11
3.51388e-11
4.98239e-11
2.43854e-11
2.2891e-11
1.19735e-11
1.70052e-11
3.92618e-11
3.21489e-11
1.35168e-11
2.04938e-11
2.30466e-11
2.59122e-11
2.45128e-11
2.39501e-11
2.00297e-11
1.76297e-11
3.29768e-11
2.23499e-11
3.96767e-11
4.7836e-11
5.40254e-11
4.66105e-11
1.8786e-11
2.58238e-11
2.41232e-11
8.72447e-11
4.61495e-11
3.56453e-11
3.14325e-11
3.1737e-11
3.99585e-11
3.03492e-11
4.53028e-11
4.10939e-11
3.80252e-11
4.32579e-11
4.15998e-11
4.00869e-11
2.60365e-11
2.89972e-11
3.27185e-11
4.16828e-11
2.48857e-11
4.12275e-11
3.63936e-11
3.79238e-11
2.24215e-11
2.48645e-11
3.00723e-11
3.24254e-11
2.80412e-11
2.30665e-11
3.52574e-11
3.78807e-11
1.7681e-11
4.64078e-11
2.52131e-11
2.71482e-11
4.65573e-11
2.09993e-11
2.6088e-11
3.96378e-11
3.92243e-11
4.84163e-11
4.41088e-11
2.45141e-11
2.24676e-11
3.38273e-11
2.87908e-11
3.11306e-11
3.95719e-11
3.29076e-11
3.58844e-11
2.2683e-11
3.46451e-11
2.17058e-11
2.80891e-11
3.97319e-11
3.07471e-11
4.16903e-11
3.20738e-11
2.51751e-11
4.093e-11
1.64745e-11
3.21904e-11
2.68273e-11
3.17677e-11
1.87616e-11
2.69356e-11
3.46438e-11
2.90001e-11
1.94885e-11
1.79732e-11
2.39239e-11
2.1381e-11
2.07845e-11
3.20769e-11
3.67615e-11
3.602e-11
3.95996e-11
4.58953e-11
6.67051e-11
2.85972e-11
4.96098e-11
4.19058e-11
3.68325e-11
2.62281e-11
3.79769e-11
3.5199e-11
3.02813e-11
3.61015e-11
4.14029e-11
2.89073e-11
2.80662e-11
4.18672e-11
2.28307e-11
3.00088e-11
2.40694e-11
4.32335e-11
2.79801e-11
3.36773e-11
2.54054e-11
2.09522e-11
2.46028e-11
3.35633e-11
1.76715e-11
3.15992e-11
3.06105e-11
2.90982e-11
2.76956e-11
2.77329e-11
1.71643e-11
1.90944e-11
2.38811e-11
4.88235e-11
2.44222e-11
2.31448e-11
2.12087e-11
2.59698e-11
4.53738e-11
5.9363e-11
5.17036e-11
2.44442e-11
2.5172e-11
3.84457e-11
2.0463e-11
3.49398e-11
3.2537e-11
2.94437e-11
2.02793e-11
3.03787e-11
3.85352e-11
2.28379e-11
3.70778e-11
2.66036e-11
4.59097e-11
4.435e-11
5.05337e-11
2.89745e-11
3.30134e-11
2.39394e-11
2.02272e-11
1.25526e-11
2.77192e-11
3.79496e-11
2.67405e-11
3.34231e-11
3.74562e-11
2.41251e-11
2.94535e-11
1.0018e-11
2.61272e-11
3.41817e-11
3.17763e-11
2.98396e-11
3.90429e-11
2.67857e-11
3.61947e-11
6.15953e-11
3.24593e-11
2.74731e-11
3.96875e-11
4.01067e-11
3.39116e-11
2.59309e-11
4.98401e-11
2.837e-11
1.42026e-11
3.41748e-11
3.31973e-11
4.65881e-11
2.65419e-11
1.85905e-11
2.89639e-11
1.64624e-11
2.93959e-11
2.98217e-11
3.9861e-11
4.66569e-11
3.95676e-11
2.09913e-11
3.32272e-11
2.14869e-11
3.20635e-11
3.49566e-11
2.78818e-11
3.17151e-11
1.46862e-11
1.72896e-11
2.5957e-11
2.22672e-11
2.62501e-11
2.27031e-11
2.92715e-11
3.5775e-11
3.06623e-11
1.78371e-11
4.53944e-11
5.05547e-11
1.5494e-11
5.56491e-11
2.55689e-11
1.87489e-11
3.6797e-11
4.73262e-11
2.93854e-11
3.88323e-11
1.12407e-11
4.82681e-11
4.04358e-11
3.66243e-11
3.917e-11
3.09046e-11
4.46658e-11
5.32994e-11
3.18059e-11
3.95479e-11
4.33024e-11
3.83223e-11
2.81593e-11
3.87396e-11
3.14364e-11
3.02875e-11
2.89006e-11
2.82495e-11
1.84391e-11
1.99298e-11
2.29653e-11
1.41451e-11
1.95911e-11
2.92378e-11
4.5255e-11
4.21578e-11
4.08369e-11
2.86461e-11
2.93155e-11
6.08623e-11
4.41863e-11
3.85039e-11
6.5833e-11
2.25163e-11
4.25121e-11
4.78729e-11
3.88133e-11
3.41367e-11
1.24746e-11
4.33935e-11
3.79314e-11
3.01614e-11
4.29426e-11
4.50687e-11
2.05231e-11
3.62243e-11
2.68979e-11
2.63601e-11
4.15759e-11
3.95889e-11
2.09909e-11
1.4324e-11
3.81371e-11
3.2762e-11
2.67408e-11
3.41586e-11
4.38942e-11
2.79165e-11
4.09106e-11
3.70089e-11
2.69356e-11
3.42828e-11
3.13629e-11
4.01148e-11
3.80543e-11
2.89408e-11
1.08744e-11
3.28831e-11
3.9644e-11
3.12091e-11
3.39549e-11
3.07693e-11
2.93299e-11
2.4898e-11
4.02721e-11
4.04519e-11
2.10477e-11
2.51845e-11
4.51569e-11
2.85971e-11
3.84042e-11
3.17916e-11
2.24875e-11
4.75021e-11
3.4911e-11
4.04805e-11
2.21524e-11
1.98431e-11
2.94746e-11
2.89116e-11
2.9766e-11
2.46578e-11
1.60744e-11
2.63984e-11
3.70266e-11
2.40252e-11
2.12826e-11
3.21397e-11
1.33793e-11
1.80774e-11
4.04987e-11
3.83736e-11
2.83687e-11
3.95444e-11
4.22309e-11
4.42444e-11
4.65473e-11
3.87905e-11
3.73737e-11
6.53376e-11
5.41753e-11
3.71846e-11
2.26472e-11
2.76802e-11
3.1517e-11
3.12096e-11
4.33227e-11
1.73136e-11
2.67004e-11
3.41305e-11
3.00735e-11
3.51301e-11
2.55622e-11
4.29712e-11
3.25257e-11
3.73525e-11
3.12918e-11
3.74523e-11
1.95917e-11
3.22231e-11
2.71129e-11
2.18859e-11
3.79622e-11
2.55987e-11
3.2317e-11
3.53614e-11
2.39913e-11
2.72017e-11
1.65208e-11
2.89409e-11
1.74679e-11
3.19624e-11
2.35285e-11
4.29064e-11
4.64712e-11
2.54748e-11
1.51376e-11
2.15226e-11
2.98823e-11
2.3119e-11
2.7618e-11
2.92992e-11
2.82951e-11
3.10166e-11
3.51342e-11
3.4698e-11
5.75706e-11
3.65585e-11
3.83953e-11
3.72056e-11
3.42045e-11
3.75675e-11
2.56386e-11
1.91111e-11
1.65583e-11
3.71676e-11
3.57217e-11
3.65049e-11
3.24504e-11
1.88556e-11
3.68432e-11
1.55093e-11
2.13384e-11
2.73901e-11
1.57706e-11
2.05199e-11
1.58461e-11
1.22662e-11
3.60005e-11
2.80475e-11
3.44465e-11
3.31869e-11
3.04542e-11
2.26616e-11
3.40113e-11
3.80198e-11
3.55044e-11
3.70969e-11
5.92006e-11
3.81673e-11
2.96767e-11
2.91784e-11
2.09374e-11
2.7257e-11
4.38964e-11
4.18148e-11
1.95682e-11
3.87624e-11
3.1964e-11
4.13924e-11
3.63925e-11
1.85428e-11
2.61245e-11
2.99433e-11
3.44789e-11
1.86934e-11
2.04951e-11
3.20965e-11
1.35348e-11
3.20348e-11
1.84651e-11
2.69988e-11
3.9233e-11
2.03999e-11
3.12533e-11
2.71059e-11
1.67676e-11
2.62535e-11
3.20807e-11
3.01626e-11
2.81127e-11
2.19606e-11
3.90927e-11
3.5664e-11
3.35489e-11
5.14486e-11
4.60617e-11
3.5544e-11
3.5925e-11
2.82805e-11
3.02782e-11
2.29487e-11
3.19277e-11
3.51502e-11
3.02039e-11
3.1213e-11
4.08274e-11
3.42154e-11
3.4962e-11
3.67446e-11
2.52049e-11
1.91946e-11
3.10713e-11
1.84552e-11
2.42754e-11
2.53431e-11
1.80537e-11
2.83159e-11
2.40084e-11
3.00635e-11
2.71008e-11
3.28806e-11
2.37011e-11
2.37093e-11
1.5731e-11
3.90254e-11
2.92549e-11
3.17463e-11
1.67344e-11
3.95865e-11
4.38245e-11
2.12467e-11
3.07403e-11
2.33764e-11
4.04174e-11
2.4502e-11
3.75656e-11
3.67817e-11
2.96741e-11
2.86789e-11
2.57244e-11
3.10429e-11
4.15598e-11
2.81279e-11
3.15861e-11
3.60541e-11
2.66053e-11
4.63659e-11
3.56617e-11
3.06499e-11
2.29797e-11
2.09283e-11
2.74129e-11
1.91303e-11
2.50005e-11
3.09833e-11
2.30355e-11
3.08098e-11
2.19931e-11
3.28677e-11
2.70851e-11
2.47703e-11
2.39364e-11
1.68338e-11
2.55083e-11
2.69762e-11
1.54746e-11
2.87155e-11
3.08478e-11
3.32522e-11
3.16123e-11
4.37753e-11
2.75435e-11
5.51568e-11
5.84789e-11
3.71085e-11
3.50689e-11
2.69208e-11
2.82334e-11
4.04008e-11
2.74697e-11
2.74462e-11
3.61335e-11
3.31148e-11
3.93262e-11
2.94968e-11
2.24366e-11
2.03379e-11
2.9002e-11
3.83862e-11
2.21265e-11
2.84687e-11
2.71037e-11
2.47313e-11
2.87152e-11
1.51795e-11
3.38485e-11
1.54268e-11
4.08492e-11
2.06178e-11
2.26477e-11
3.54067e-11
2.07543e-11
3.3306e-11
2.66694e-11
3.38814e-11
1.07321e-11
3.9515e-11
2.72319e-11
2.90912e-11
3.97394e-11
2.81783e-11
3.34175e-11
2.82278e-11
5.87191e-11
3.5535e-11
2.80923e-11
3.57915e-11
3.16193e-11
3.06276e-11
2.93005e-11
2.25478e-11
2.75614e-11
4.52304e-11
3.56724e-11
2.73298e-11
3.6874e-11
2.45138e-11
3.50691e-11
1.1049e-11
2.17088e-11
3.20345e-11
2.77362e-11
2.51127e-11
3.35434e-11
2.75896e-11
2.87177e-11
2.42875e-11
2.20856e-11
1.9235e-11
2.44187e-11
1.68583e-11
1.63375e-11
1.81309e-11
3.14121e-11
2.62071e-11
2.42629e-11
1.72566e-11
3.4272e-11
3.05089e-11
3.58454e-11
4.4553e-11
4.45621e-11
5.00633e-11
3.11474e-11
3.46767e-11
2.79514e-11
3.08755e-11
3.41338e-11
3.40801e-11
2.79996e-11
3.43035e-11
2.75164e-11
2.32663e-11
3.86269e-11
3.26772e-11
3.5137e-11
2.08054e-11
2.15149e-11
3.3647e-11
3.66744e-11
2.54227e-11
3.75168e-11
1.54967e-11
2.62444e-11
3.62775e-11
3.70253e-11
3.11629e-11
2.32191e-11
1.52894e-11
2.93882e-11
2.24976e-11
2.19149e-11
2.41819e-11
2.48505e-11
1.65524e-11
3.41742e-11
3.98636e-11
1.96944e-11
4.67751e-11
2.23364e-11
3.75154e-11
6.292e-11
2.73707e-11
2.92414e-11
2.92124e-11
3.20924e-11
2.79891e-11
3.15247e-11
2.15292e-11
3.85663e-11
2.40406e-11
2.7219e-11
3.90374e-11
3.55183e-11
2.79288e-11
1.67481e-11
3.85754e-11
3.44807e-11
3.28295e-11
3.58296e-11
2.89832e-11
2.2956e-11
2.58161e-11
2.29902e-11
3.40161e-11
3.3404e-11
2.34362e-11
2.89344e-11
2.87609e-11
1.70111e-11
1.82719e-11
2.37165e-11
2.97457e-11
3.12506e-11
3.42018e-11
4.36757e-11
2.83886e-11
3.6582e-11
5.21949e-11
1.37728e-11
5.938e-11
1.63969e-11
1.78456e-11
3.30215e-11
2.21282e-11
1.68563e-11
2.29135e-11
4.05288e-11
3.68871e-11
3.65716e-11
3.8556e-11
3.81325e-11
1.67645e-11
2.93538e-11
2.19209e-11
4.42942e-11
2.44086e-11
3.39561e-11
2.26751e-11
2.64678e-11
3.90466e-11
2.90302e-11
2.04002e-11
2.59321e-11
3.43116e-11
3.07384e-11
2.90289e-11
7.97263e-12
2.26665e-11
1.9387e-11
1.66745e-11
3.09133e-11
2.73712e-11
2.22583e-11
6.76825e-11
3.52336e-11
5.45142e-11
4.02595e-11
2.4739e-11
6.47724e-11
2.8144e-11
4.06562e-11
1.94814e-11
3.37482e-11
3.05908e-11
3.8161e-11
3.12125e-11
4.16494e-11
3.01745e-11
2.449e-11
1.43746e-11
2.89143e-11
3.37998e-11
3.18739e-11
1.17393e-11
3.12672e-11
3.36118e-11
2.10127e-11
2.92913e-11
2.36874e-11
2.77913e-11
2.71055e-11
2.56056e-11
2.97693e-11
3.33398e-11
1.49826e-11
1.66481e-11
1.22596e-11
2.47221e-11
2.66367e-11
3.43855e-11
3.13234e-11
1.36609e-11
3.85875e-11
2.84982e-11
3.47278e-11
4.43432e-11
3.03875e-11
4.69249e-11
3.02339e-11
2.30678e-11
3.0286e-11
3.46284e-11
2.56965e-11
2.28231e-11
3.11719e-11
2.18777e-11
2.28737e-11
2.41545e-11
3.02399e-11
2.95301e-11
1.83062e-11
3.21215e-11
3.09794e-11
2.87735e-11
2.51089e-11
3.89152e-11
3.57698e-11
2.28077e-11
2.20693e-11
2.97832e-11
3.33544e-11
1.45828e-11
1.35938e-11
2.65457e-11
2.11534e-11
3.4598e-11
3.01e-11
2.36611e-11
2.76225e-11
2.1726e-11
3.20788e-11
6.47129e-11
3.5052e-11
4.7525e-11
3.3785e-11
4.85626e-11
6.77285e-11
2.44705e-11
2.39894e-11
2.76683e-11
2.81081e-11
3.58304e-11
3.39435e-11
3.31619e-11
4.42118e-11
3.50714e-11
2.87017e-11
3.2773e-11
3.46551e-11
2.60273e-11
3.04516e-11
2.92854e-11
3.44762e-11
1.70961e-11
3.16965e-11
2.82491e-11
2.98751e-11
2.96631e-11
2.32804e-11
3.29436e-11
2.31815e-11
2.39309e-11
2.66639e-11
1.39004e-11
2.77642e-11
1.51634e-11
2.12838e-11
2.95683e-11
2.03128e-11
2.50161e-11
3.45171e-11
1.54626e-11
1.49584e-11
3.2548e-11
4.12112e-11
3.88422e-11
3.53886e-11
1.93211e-11
2.12053e-11
2.21952e-11
2.4597e-11
3.5162e-11
2.90297e-11
3.64534e-11
4.09147e-11
2.91322e-11
3.00679e-11
2.30139e-11
2.82675e-11
1.1845e-11
2.45287e-11
3.97451e-11
4.10197e-11
1.96475e-11
2.84408e-11
2.35163e-11
2.25419e-11
2.43573e-11
2.07258e-11
2.99974e-11
2.39957e-11
1.18285e-11
2.05119e-11
1.75554e-11
2.76135e-11
2.78257e-11
2.64967e-11
2.57302e-11
2.70094e-11
3.94785e-11
3.63141e-11
2.17504e-11
2.03153e-11
4.91039e-11
3.73873e-11
4.41197e-11
3.59469e-11
3.48029e-11
2.43266e-11
4.00161e-11
2.82307e-11
3.57675e-11
1.94518e-11
3.09806e-11
1.74272e-11
2.96103e-11
2.50379e-11
2.59718e-11
2.29953e-11
3.47773e-11
1.87071e-11
1.77667e-11
2.30522e-11
2.68142e-11
2.89688e-11
2.2767e-11
2.52383e-11
3.13508e-11
2.25017e-11
2.19341e-11
2.74412e-11
2.24979e-11
2.51562e-11
2.35093e-11
1.31667e-11
1.73872e-11
2.03529e-11
3.06482e-11
4.91591e-11
1.84983e-11
2.48119e-11
3.61403e-11
4.55724e-11
3.52787e-11
2.62788e-11
2.33135e-11
2.48511e-11
1.6622e-11
2.70726e-11
3.41372e-11
4.37876e-11
2.84727e-11
3.59592e-11
2.4907e-11
2.42155e-11
3.04827e-11
3.16296e-11
1.2931e-11
2.78781e-11
2.1083e-11
3.82924e-11
2.89742e-11
2.53694e-11
1.24269e-11
2.81565e-11
2.15586e-11
2.23102e-11
2.85269e-11
1.94177e-11
1.97509e-11
2.68321e-11
3.12339e-11
1.93549e-11
2.34852e-11
2.89257e-11
1.99971e-11
3.1358e-11
1.32843e-11
1.58365e-11
2.30489e-11
2.5162e-11
2.24705e-11
3.07882e-11
1.9057e-11
4.07388e-11
2.27603e-11
3.02267e-11
3.41026e-11
2.97419e-11
1.61779e-11
2.68977e-11
3.4692e-11
2.60016e-11
2.77441e-11
2.92067e-11
2.92551e-11
1.94402e-11
1.94429e-11
1.59707e-11
3.0115e-11
3.08465e-11
1.68088e-11
2.82695e-11
3.29836e-11
2.34326e-11
2.36485e-11
3.39305e-11
3.01283e-11
1.77083e-11
2.32676e-11
2.39392e-11
2.39994e-11
2.667e-11
2.96044e-11
1.72294e-11
3.1532e-11
3.90492e-11
2.20654e-11
1.83877e-11
2.58391e-11
2.66481e-11
5.3039e-11
4.02177e-11
3.24983e-11
2.97021e-11
2.06495e-11
1.77617e-11
3.51707e-11
5.16918e-11
2.19411e-11
2.58298e-11
3.1192e-11
1.70857e-11
1.648e-11
1.55156e-11
1.19141e-11
3.37208e-11
2.08053e-11
3.65082e-11
2.41639e-11
3.04031e-11
2.51336e-11
2.14556e-11
2.81146e-11
2.36281e-11
1.66469e-11
2.25019e-11
2.51565e-11
1.44571e-11
1.46357e-11
1.82755e-11
2.0572e-11
2.96426e-11
1.94629e-11
3.46308e-11
2.08213e-11
1.51921e-11
2.20131e-11
1.82983e-11
4.31956e-11
3.67948e-11
2.88083e-11
3.71052e-11
2.94762e-11
3.58118e-11
3.68286e-11
2.83595e-11
3.3069e-11
2.62439e-11
3.08083e-11
2.88095e-11
3.68312e-11
3.79124e-11
1.27349e-11
2.56064e-11
3.79475e-11
4.34199e-11
2.94626e-11
3.15847e-11
2.1968e-11
2.9918e-11
2.53974e-11
2.46305e-11
3.50848e-11
1.31088e-11
2.2287e-11
1.9667e-11
1.73791e-11
1.0075e-11
9.36075e-12
1.69633e-11
3.04016e-11
3.61982e-11
3.1463e-11
1.50037e-11
3.39608e-11
2.96625e-11
4.20301e-11
3.51719e-11
4.723e-11
2.56861e-11
2.88635e-11
2.39299e-11
2.0072e-11
2.51951e-11
3.38498e-11
2.58087e-11
2.71817e-11
2.93338e-11
2.59421e-11
3.17247e-11
2.10428e-11
2.19587e-11
1.15824e-11
2.35722e-11
1.98615e-11
3.80088e-11
2.07071e-11
2.61973e-11
2.57057e-11
2.95206e-11
3.04619e-11
1.85576e-11
1.89101e-11
2.63354e-11
1.85276e-11
2.2674e-11
8.94035e-12
1.90678e-11
2.58365e-11
2.16837e-11
2.51514e-11
2.5479e-11
1.71295e-11
3.20053e-11
3.23046e-11
2.65814e-11
3.84383e-11
5.40261e-11
3.74713e-11
2.659e-11
3.49242e-11
2.53482e-11
3.49684e-11
2.46927e-11
2.81018e-11
2.67263e-11
4.55454e-11
2.49909e-11
2.40324e-11
1.95744e-11
2.82935e-11
3.02481e-11
3.1832e-11
2.33466e-11
2.9281e-11
2.27235e-11
3.80537e-11
3.85722e-11
2.85731e-11
1.93126e-11
3.07686e-11
2.32311e-11
2.91711e-11
2.82473e-11
2.38863e-11
2.25137e-11
1.48561e-11
2.50456e-11
1.70913e-11
3.03664e-11
1.01036e-11
2.54637e-11
2.1978e-11
3.80289e-11
2.44412e-11
3.03302e-11
5.88868e-11
2.90879e-11
1.60625e-11
3.66185e-11
2.22807e-11
1.90958e-11
2.11463e-11
2.47165e-11
3.45878e-11
2.7045e-11
2.73715e-11
1.58967e-11
1.55204e-11
2.23941e-11
3.5845e-11
2.44318e-11
2.59571e-11
2.70288e-11
3.22096e-11
3.30321e-11
2.96558e-11
2.65143e-11
2.71733e-11
2.16229e-11
1.99697e-11
2.78055e-11
1.75191e-11
2.65292e-11
2.91303e-11
1.77861e-11
3.10371e-11
2.54613e-11
1.71798e-11
2.99281e-11
2.52376e-11
2.01182e-11
3.17975e-11
2.82517e-11
2.11803e-11
2.60219e-11
3.00317e-11
2.03592e-11
2.92169e-11
2.21673e-11
3.1653e-11
2.13252e-11
3.27943e-11
2.97777e-11
2.70364e-11
2.70168e-11
3.29906e-11
2.55492e-11
2.46045e-11
1.99653e-11
1.94134e-11
6.83859e-12
2.65117e-11
2.47991e-11
1.05635e-11
1.69574e-11
1.41504e-11
2.26599e-11
2.67541e-11
1.81152e-11
2.52312e-11
2.63346e-11
2.94136e-11
1.1435e-11
9.09386e-12
2.6625e-11
3.37115e-11
1.64008e-11
1.39129e-11
3.50036e-11
3.29434e-11
2.88195e-11
3.73061e-11
3.0855e-11
4.78917e-11
2.10441e-11
2.85325e-11
1.90796e-11
2.34275e-11
1.55796e-11
2.79406e-11
3.07111e-11
2.44753e-11
2.35266e-11
2.338e-11
3.52781e-11
4.09831e-11
4.18698e-11
2.68452e-11
2.77954e-11
3.30235e-11
2.90229e-11
1.74216e-11
3.17677e-11
1.71593e-11
2.65231e-11
3.29175e-11
1.76513e-11
3.09807e-11
2.63458e-11
2.64365e-11
1.60967e-11
2.60297e-11
1.6863e-11
1.54937e-11
1.53552e-11
2.33155e-11
3.03849e-11
2.21782e-11
2.88695e-11
1.29746e-11
2.60356e-11
4.23286e-11
3.62242e-11
2.0532e-11
2.31298e-11
2.02163e-11
2.09193e-11
2.87344e-11
2.41063e-11
2.58561e-11
2.3994e-11
3.03794e-11
3.51227e-11
1.66857e-11
2.87733e-11
3.41865e-11
2.99507e-11
1.99166e-11
2.03539e-11
3.01773e-11
2.67955e-11
1.8551e-11
2.37178e-11
1.79006e-11
2.7217e-11
2.99785e-11
1.75626e-11
1.63035e-11
2.19654e-11
2.07979e-11
1.67971e-11
1.50759e-11
2.02489e-11
1.525e-11
2.55624e-11
1.55481e-11
1.7493e-11
3.35238e-11
1.74529e-11
3.30236e-11
2.36717e-11
2.41031e-11
2.34705e-11
2.45593e-11
2.7634e-11
3.39642e-11
2.99419e-11
2.55367e-11
2.77841e-11
2.9708e-11
2.56991e-11
2.47298e-11
3.05836e-11
2.34619e-11
2.5737e-11
3.6563e-11
3.2721e-11
1.38664e-11
2.27761e-11
2.78372e-11
2.63289e-11
2.43245e-11
2.87621e-11
2.59228e-11
1.78782e-11
1.40846e-11
1.99569e-11
2.40026e-11
1.57067e-11
2.02633e-11
2.73173e-11
1.4422e-11
2.18199e-11
3.00875e-11
3.82357e-11
1.92075e-11
1.56481e-11
2.54141e-11
2.39963e-11
2.29745e-11
2.60783e-11
2.9761e-11
2.12709e-11
1.93103e-11
2.40542e-11
2.02762e-11
4.29768e-11
1.84857e-11
4.59912e-11
2.15014e-11
4.0755e-11
3.59749e-11
2.55764e-11
2.49579e-11
1.55016e-11
1.72252e-11
2.60211e-11
1.54444e-11
1.58506e-11
2.60724e-11
2.83777e-11
1.8475e-11
2.32381e-11
2.09047e-11
2.83339e-11
1.70227e-11
1.76748e-11
1.91849e-11
2.04738e-11
1.55977e-11
1.53962e-11
1.31556e-11
1.18626e-11
1.88915e-11
1.47708e-11
1.72418e-11
1.63884e-11
2.32493e-11
2.83637e-11
1.62235e-11
2.69483e-11
1.04793e-11
3.13357e-11
2.91517e-11
2.04097e-11
3.28344e-11
2.54138e-11
2.98416e-11
1.90015e-11
3.4263e-11
2.3151e-11
3.9495e-11
3.02488e-11
6.39886e-12
2.7669e-11
1.91499e-11
1.66897e-11
2.80711e-11
2.63796e-11
2.9534e-11
1.74296e-11
1.80722e-11
2.58101e-11
1.8416e-11
2.28465e-11
2.71368e-11
9.20956e-12
1.47641e-11
1.45302e-11
1.9523e-11
1.70617e-11
2.80711e-11
2.45899e-11
2.80437e-11
3.15655e-11
3.4691e-11
2.36166e-11
2.07553e-11
3.83136e-11
2.03339e-11
2.1511e-11
2.95955e-11
2.99137e-11
2.17862e-11
2.83095e-11
3.16153e-11
3.25873e-11
3.04436e-11
2.69273e-11
2.28731e-11
3.24131e-11
2.26172e-11
2.95879e-11
1.80336e-11
2.6148e-11
1.4168e-11
2.15936e-11
2.61753e-11
2.98156e-11
1.91164e-11
1.93248e-11
1.64367e-11
1.47792e-11
2.3282e-11
1.23887e-11
2.34681e-11
1.47147e-11
1.28956e-11
1.99292e-11
1.27045e-11
1.63282e-11
3.35559e-11
1.88754e-11
2.29195e-11
2.351e-11
1.72125e-11
3.0649e-11
2.51412e-11
2.63573e-11
2.66363e-11
1.95642e-11
2.27125e-11
2.28431e-11
2.76487e-11
2.63012e-11
3.30457e-11
3.28862e-11
3.50988e-11
1.84221e-11
3.99767e-11
2.5686e-11
4.53402e-11
2.30194e-11
2.04007e-11
2.65491e-11
1.7737e-11
1.82365e-11
3.16936e-11
1.44075e-11
2.66597e-11
2.01493e-11
1.01673e-11
1.64359e-11
1.94557e-11
1.81777e-11
1.92373e-11
1.97161e-11
1.74253e-11
1.23262e-11
1.58934e-11
3.62075e-11
2.75072e-11
2.75337e-11
3.03195e-11
1.75724e-11
2.49402e-11
3.23567e-11
3.14753e-11
2.2628e-11
1.85907e-11
2.49854e-11
2.34632e-11
3.59035e-11
4.28316e-11
2.44865e-11
1.82682e-11
2.78485e-11
3.3419e-11
2.64854e-11
2.73029e-11
2.86567e-11
2.88322e-11
1.22688e-11
2.00273e-11
1.00879e-11
2.32352e-11
2.70711e-11
2.2407e-11
1.98558e-11
1.95532e-11
2.23254e-11
1.64744e-11
2.32589e-11
1.47027e-11
1.43175e-11
1.67313e-11
2.67898e-11
1.392e-11
2.69825e-11
3.37306e-11
2.52964e-11
1.01963e-11
2.17017e-11
2.00117e-11
3.98809e-11
2.41336e-11
2.28329e-11
2.58811e-11
2.84661e-11
1.79689e-11
2.88646e-11
3.3679e-11
3.60989e-11
3.27421e-11
1.43246e-11
3.34271e-11
2.56639e-11
2.47479e-11
3.06147e-11
4.10462e-11
3.41834e-11
2.39615e-11
2.73482e-11
2.83152e-11
1.74089e-11
1.77781e-11
1.11247e-11
1.88424e-11
1.91102e-11
1.20654e-11
1.5163e-11
1.43313e-11
2.40077e-11
2.12921e-11
1.42124e-11
2.1379e-11
2.45054e-11
1.53026e-11
1.55152e-11
2.39251e-11
2.33432e-11
1.69761e-11
2.87716e-11
3.09806e-11
3.4486e-11
2.77317e-11
2.25183e-11
2.67381e-11
2.45741e-11
1.92593e-11
2.82851e-11
3.75069e-11
3.47301e-11
3.21751e-11
1.93466e-11
2.38191e-11
3.13989e-11
2.49895e-11
2.66409e-11
2.94081e-11
2.15675e-11
2.26054e-11
1.81317e-11
2.00582e-11
2.74041e-11
2.87136e-11
2.22703e-11
1.92478e-11
2.34512e-11
2.91084e-11
2.31312e-11
9.52343e-12
2.07199e-11
2.01603e-11
1.35364e-11
1.39605e-11
2.29846e-11
2.02125e-11
1.66904e-11
1.74448e-11
1.79061e-11
2.7013e-11
2.86544e-11
1.86756e-11
1.96649e-11
1.73502e-11
2.4566e-11
2.41292e-11
1.30832e-11
2.67472e-11
2.93157e-11
2.25609e-11
2.27871e-11
1.48542e-11
2.10015e-11
3.45743e-11
1.43907e-11
2.46802e-11
1.94227e-11
3.29851e-11
2.40455e-11
2.50399e-11
1.66327e-11
1.82808e-11
2.27378e-11
2.59771e-11
1.67974e-11
1.58869e-11
1.36219e-11
1.56634e-11
1.25533e-11
2.31748e-11
1.61967e-11
2.54432e-11
2.12181e-11
2.56875e-11
1.84602e-11
2.34123e-11
3.06036e-11
1.62298e-11
2.19597e-11
3.82026e-11
3.28386e-11
2.51507e-11
2.36041e-11
2.44072e-11
2.27022e-11
2.97924e-11
3.27456e-11
2.53086e-11
1.4891e-11
2.28512e-11
2.39198e-11
2.50395e-11
2.34028e-11
2.17201e-11
3.292e-11
3.31626e-11
2.55528e-11
3.26623e-11
2.41425e-11
1.93659e-11
2.25612e-11
1.73114e-11
2.12726e-11
2.69451e-11
2.00681e-11
1.78213e-11
1.84517e-11
2.15737e-11
1.48754e-11
9.87295e-12
1.13088e-11
1.76691e-11
3.00936e-11
2.15664e-11
1.94171e-11
2.00543e-11
2.91105e-11
1.33218e-11
3.26799e-11
2.53722e-11
1.4537e-11
3.30349e-11
2.02306e-11
2.71302e-11
3.0805e-11
1.5136e-11
3.44228e-11
2.87353e-11
2.74238e-11
3.49567e-11
2.6984e-11
2.39287e-11
2.82191e-11
2.75269e-11
1.67947e-11
2.49357e-11
2.11142e-11
1.79193e-11
2.82139e-11
1.64409e-11
2.14966e-11
1.60597e-11
2.15608e-11
9.01579e-12
1.79321e-11
1.33702e-11
1.60069e-11
1.77577e-11
1.14373e-11
1.39249e-11
2.26784e-11
2.41589e-11
1.17251e-11
1.69379e-11
1.68573e-11
1.86923e-11
3.49797e-11
1.34112e-11
2.63677e-11
2.25427e-11
2.99161e-11
2.38237e-11
2.6468e-11
2.04851e-11
2.5208e-11
1.75515e-11
2.26589e-11
3.95175e-11
1.91492e-11
2.30477e-11
3.42532e-11
3.86656e-11
2.88235e-11
1.60151e-11
2.66546e-11
1.88572e-11
2.3675e-11
2.24703e-11
1.29708e-11
1.65302e-11
1.43912e-11
1.23672e-11
3.20577e-11
1.78992e-11
1.16055e-11
1.6359e-11
1.60942e-11
1.35123e-11
2.08196e-11
2.05e-11
2.53014e-11
2.85027e-11
1.65481e-11
2.46064e-11
2.28102e-11
2.19923e-11
3.06026e-11
3.71474e-11
2.00589e-11
3.68796e-11
2.41638e-11
3.26142e-11
1.37378e-11
2.34955e-11
1.33554e-11
3.25317e-11
2.40924e-11
3.69073e-11
2.18106e-11
2.24265e-11
1.83365e-11
3.24539e-11
2.73221e-11
2.79258e-11
1.86916e-11
3.40316e-11
2.28309e-11
2.14498e-11
2.37596e-11
2.36862e-11
1.85169e-11
1.42484e-11
1.31945e-11
1.83906e-11
1.84485e-11
9.35905e-12
2.50306e-11
1.76093e-11
1.30938e-11
2.54368e-11
2.47423e-11
1.82077e-11
2.6153e-11
1.94725e-11
2.57353e-11
1.57585e-11
3.31468e-11
2.39068e-11
2.07509e-11
1.92897e-11
2.46044e-11
2.24528e-11
3.56924e-11
2.44919e-11
3.13551e-11
4.07071e-11
2.98828e-11
1.48793e-11
2.31668e-11
3.69068e-11
1.93148e-11
1.93447e-11
2.22695e-11
2.31746e-11
3.00332e-11
1.39751e-11
2.04526e-11
2.74112e-11
2.88742e-11
2.26103e-11
2.53069e-11
1.36234e-11
1.91861e-11
1.24465e-11
1.24265e-11
6.90483e-12
1.73747e-11
1.49671e-11
1.61344e-11
2.84e-11
1.97013e-11
2.51649e-11
1.27905e-11
1.21202e-11
2.86642e-11
2.90773e-11
1.37737e-11
1.13279e-11
2.04885e-11
2.75096e-11
1.47004e-11
2.44706e-11
2.58319e-11
2.03787e-11
3.49211e-11
3.40975e-11
3.49025e-11
1.99904e-11
1.92468e-11
2.70106e-11
2.79758e-11
2.75769e-11
2.88271e-11
2.62171e-11
2.22787e-11
2.1531e-11
2.5937e-11
1.63016e-11
1.90915e-11
1.72307e-11
1.35298e-11
1.66966e-11
2.05919e-11
1.65161e-11
8.98796e-12
1.94415e-11
2.09611e-11
1.79364e-11
1.93938e-11
1.17975e-11
2.36414e-11
2.31e-11
2.18919e-11
3.01924e-11
2.75886e-11
1.29458e-11
1.49623e-11
1.89767e-11
3.5601e-11
1.8396e-11
2.60755e-11
2.45542e-11
3.75406e-11
2.30312e-11
1.25954e-11
1.88394e-11
2.67232e-11
3.07127e-11
2.12035e-11
1.94391e-11
2.83126e-11
3.26825e-11
3.24506e-11
2.19704e-11
2.26321e-11
1.68177e-11
1.92899e-11
1.56233e-11
2.19514e-11
2.52987e-11
1.7116e-11
1.65216e-11
1.40333e-11
2.03118e-11
1.72582e-11
2.14655e-11
2.45617e-11
3.37935e-11
2.0076e-11
2.55111e-11
1.48348e-11
2.14773e-11
2.9898e-11
3.29882e-11
1.69498e-11
1.18635e-11
8.5473e-12
1.58506e-11
1.60148e-11
2.14914e-11
3.19367e-11
2.56512e-11
4.53222e-11
2.38059e-11
1.88503e-11
3.36658e-11
2.56237e-11
3.4988e-11
1.9482e-11
2.67838e-11
2.9373e-11
2.46247e-11
2.31243e-11
1.64257e-11
1.93486e-11
1.12211e-11
1.93673e-11
1.94146e-11
1.77119e-11
1.3358e-11
1.75079e-11
8.03709e-12
1.69116e-11
1.9161e-11
1.67992e-11
1.76541e-11
3.33299e-11
2.41834e-11
1.09408e-11
2.53529e-11
2.29408e-11
2.39e-11
3.96792e-11
1.38308e-11
1.38308e-11
1.59855e-11
1.78501e-11
3.48712e-11
2.44774e-11
2.29259e-11
3.89356e-11
3.36971e-11
3.22951e-11
2.64575e-11
3.45823e-11
2.21638e-11
2.37839e-11
2.07755e-11
2.27489e-11
2.35844e-11
2.39501e-11
3.55385e-11
2.90225e-11
1.40619e-11
2.13416e-11
1.27216e-11
1.61132e-11
1.83601e-11
1.83129e-11
1.68839e-11
1.2746e-11
1.39764e-11
2.25097e-11
1.31438e-11
1.34984e-11
2.87003e-11
1.26856e-11
2.62537e-11
1.66288e-11
1.87647e-11
2.14926e-11
2.10551e-11
1.84153e-11
1.43922e-11
2.38192e-11
1.47e-11
2.63896e-11
2.22634e-11
2.14487e-11
3.22589e-11
1.56477e-11
2.96578e-11
2.30525e-11
2.938e-11
4.0415e-11
2.92613e-11
3.04246e-11
1.89949e-11
2.35272e-11
2.09204e-11
2.02023e-11
2.50133e-11
2.28223e-11
1.46796e-11
2.18028e-11
1.72873e-11
1.52419e-11
2.18333e-11
1.73799e-11
1.32504e-11
1.25365e-11
1.50861e-11
1.0126e-11
1.13057e-11
2.40363e-11
1.57427e-11
2.37446e-11
2.74064e-11
2.7431e-11
3.37899e-11
4.90415e-11
2.04977e-11
1.92003e-11
1.32046e-11
3.41154e-11
2.76854e-11
1.19081e-11
3.99086e-11
4.21018e-11
2.64309e-11
3.40238e-11
3.72855e-11
2.63362e-11
1.73347e-11
3.32516e-11
3.45745e-11
2.45178e-11
2.05736e-11
2.61386e-11
2.32441e-11
2.58069e-11
2.73344e-11
2.25493e-11
1.27517e-11
2.28777e-11
1.28692e-11
1.62677e-11
1.18221e-11
7.08934e-12
1.55512e-11
1.21534e-11
1.60796e-11
2.08075e-11
2.2259e-11
2.44002e-11
1.22144e-11
1.57466e-11
1.37319e-11
2.15274e-11
3.21139e-11
1.9502e-11
1.51163e-11
2.09395e-11
2.2729e-11
2.50843e-11
3.04829e-11
2.22653e-11
2.02725e-11
2.54483e-11
2.13753e-11
2.56379e-11
6.78782e-12
2.03374e-11
1.86855e-11
3.32818e-11
1.48691e-11
3.12827e-11
2.33795e-11
2.50359e-11
1.98056e-11
2.49862e-11
1.75059e-11
1.756e-11
1.11276e-11
1.23075e-11
1.16653e-11
1.34835e-11
1.83689e-11
1.55285e-11
1.94828e-11
1.40125e-11
2.22853e-11
2.96654e-11
1.62637e-11