/*--------------------------------*- C++ -*----------------------------------*\
| =========                 |                                                 |
| \\      /  F ield         | OpenFOAM: The Open Source CFD Toolbox           |
|  \\    /   O peration     | Version:  2506                                  |
|   \\  /    A nd           | Website:  www.openfoam.com                      |
|    \\/     M anipulation  |                                                 |
\*---------------------------------------------------------------------------*/
FoamFile
{
    version     2.0;
    format      ascii;
    arch        "LSB;label=32;scalar=64";
    class       volSymmTensorField;
    location    "0";
    object      turbulenceProperties:devReff;
}
// * * * * * * * * * * * * * * * * * * * * * * * * * * * * * * * * * * * * * //

dimensions      [0 2 -2 0 0 0 0];

internalField   nonuniform List<symmTensor> 
10720
(
(0.00362061 0.000321812 -1.6914e-20 -0.00181865 -2.37781e-21 -0.00180196)
(0.00364178 0.000161595 7.34568e-20 -0.00185185 1.03267e-20 -0.00178993)
(0.00360239 -0.000121636 -1.75284e-19 -0.001871 -2.46418e-20 -0.00173139)
(0.00360333 -0.000369759 2.57701e-19 -0.00190602 3.62282e-20 -0.0016973)
(0.00354907 -0.000589587 -1.80137e-19 -0.0019087 -2.53241e-20 -0.00164037)
(0.00345621 -0.000837676 -1.22975e-19 -0.00189544 -1.72881e-20 -0.00156077)
(0.00335799 -0.00106266 2.33597e-19 -0.00187621 3.28397e-20 -0.00148178)
(0.00323815 -0.00126826 -3.07766e-19 -0.00184316 -4.32665e-20 -0.001395)
(0.0030969 -0.00146626 -2.33604e-20 -0.00179802 -3.28407e-21 -0.00129888)
(0.00295121 -0.0016436 1.41117e-19 -0.00174772 1.98386e-20 -0.00120349)
(0.00279422 -0.00180451 1.56847e-19 -0.00168932 2.20499e-20 -0.0011049)
(0.00263069 -0.00195007 -2.4037e-19 -0.00162542 -3.37919e-20 -0.00100527)
(0.00246483 -0.00208224 2.11793e-20 -0.00155846 2.97744e-21 -0.000906376)
(0.00229418 -0.00220101 1.09412e-19 -0.00148716 1.53814e-20 -0.000807021)
(0.00212041 -0.00230845 -1.56053e-19 -0.00141268 -2.19383e-20 -0.00070773)
(0.00194614 -0.00240467 -1.45671e-19 -0.00133638 -2.04788e-20 -0.00060976)
(0.00176874 -0.0024921 1.60264e-19 -0.00125725 2.25303e-20 -0.000511492)
(0.00159246 -0.00256912 3.68256e-19 -0.00117724 5.17704e-20 -0.000415219)
(0.00141499 -0.00263902 -1.67529e-19 -0.00109563 -2.35517e-20 -0.000319357)
(0.00124058 -0.00269939 -8.88916e-20 -0.00101427 -1.24966e-20 -0.000226308)
(0.00106807 -0.0027519 -6.21466e-20 -0.000932796 -8.73673e-21 -0.000135275)
(0.0009049 -0.0027956 9.80083e-20 -0.000854899 1.37783e-20 -5.00008e-05)
(0.000751575 -0.00283185 -1.02373e-19 -0.000781032 -1.43918e-20 2.94568e-05)
(0.000616145 -0.00286011 1.16673e-20 -0.000715262 1.64022e-21 9.91176e-05)
(0.000502187 -0.00288064 -9.37341e-21 -0.00065947 -1.31774e-21 0.000157283)
(0.000398415 -0.00289645 7.98594e-20 -0.000608262 1.12268e-20 0.000209847)
(0.000297614 -0.00290938 1.48229e-21 -0.000558182 2.08384e-22 0.000260568)
(0.000201943 -0.00291988 1.07021e-20 -0.000510403 1.50453e-21 0.00030846)
(0.00011105 -0.00292818 1.08422e-19 -0.000464778 1.52422e-20 0.000353729)
(2.49946e-05 -0.00293438 1.80488e-19 -0.00042135 2.53734e-20 0.000396355)
(-5.57966e-05 -0.00293888 -2.21747e-19 -0.000380395 -3.11738e-20 0.000436192)
(-0.000131331 -0.00294204 -1.57696e-19 -0.000341959 -2.21694e-20 0.00047329)
(-0.00020168 -0.0029439 3.74727e-19 -0.000306011 5.268e-20 0.00050769)
(-0.000267111 -0.00294462 -4.82093e-19 -0.000272436 -6.77739e-20 0.000539547)
(-0.000328551 -0.00294456 1.93204e-20 -0.000240806 2.71611e-21 0.000569357)
(-0.000387616 -0.00294373 4.2964e-19 -0.000210291 6.03999e-20 0.000597907)
(-0.000447532 -0.00294212 6.3167e-21 -0.000179229 8.88017e-22 0.000626761)
(-0.000510457 -0.00293972 -8.67976e-19 -0.000146508 -1.22022e-19 0.000656965)
(-0.000589606 -0.00293588 6.25908e-19 -0.000105238 8.79917e-20 0.000694844)
(0.00358727 0.000591105 3.62575e-20 -0.001764 5.09716e-21 -0.00182327)
(0.00357126 0.000744386 1.4154e-20 -0.00173442 1.98981e-21 -0.00183684)
(0.00343993 0.00100126 -1.42701e-19 -0.00163107 -2.00613e-20 -0.00180886)
(0.00333919 0.00125985 1.25589e-19 -0.00154323 1.76556e-20 -0.00179597)
(0.00319042 0.00150473 -8.25416e-20 -0.00143257 -1.16039e-20 -0.00175785)
(0.00298653 0.00174967 -4.84246e-20 -0.00129354 -6.80765e-21 -0.001693)
(0.0027446 0.00199264 3.35361e-20 -0.00113519 4.7146e-21 -0.0016094)
(0.00248706 0.00221183 1.181e-19 -0.00097213 1.66028e-20 -0.00151493)
(0.00223162 0.00238479 1.49491e-20 -0.000816585 2.10158e-21 -0.00141503)
(0.0019688 0.00252803 5.04509e-20 -0.000661376 7.09252e-21 -0.00130742)
(0.00172382 0.00264213 -2.33117e-20 -0.000519409 -3.27722e-21 -0.00120441)
(0.00150851 0.00272539 1.75262e-19 -0.000397005 2.46388e-20 -0.00111151)
(0.00131593 0.00278772 1.13006e-19 -0.00028921 1.58867e-20 -0.00102672)
(0.0011465 0.00283306 -7.80896e-20 -0.000195696 -1.0978e-20 -0.000950804)
(0.00100541 0.00286485 8.0756e-20 -0.000118655 1.13529e-20 -0.000886754)
(0.000880799 0.00288837 7.25531e-20 -5.12458e-05 1.01997e-20 -0.000829553)
(0.000774653 0.00290485 -5.45558e-20 5.67889e-06 -7.6696e-21 -0.000780331)
(0.000680496 0.00291667 4.68908e-20 5.57848e-05 6.59203e-21 -0.000736281)
(0.000597479 0.00292505 1.62349e-20 9.96785e-05 2.28234e-21 -0.000697158)
(0.000518977 0.00293136 -5.64189e-20 0.00014096 -7.93151e-21 -0.000659937)
(0.000444035 0.00293519 -1.14807e-19 0.000180064 -1.61399e-20 -0.000624099)
(0.000366918 0.00293754 -3.38501e-20 0.000220081 -4.75874e-21 -0.000586999)
(0.000284138 0.00293844 5.85232e-20 0.000262811 8.22734e-21 -0.00054695)
(0.000187995 0.00293769 -5.92496e-20 0.00031219 -8.32945e-21 -0.000500186)
(8.50748e-05 0.00293605 1.32409e-20 0.000364932 1.86144e-21 -0.000450007)
(-1.36019e-05 0.00293236 -1.76852e-19 0.000415205 -2.48623e-20 -0.000401603)
(-0.000108387 0.00292702 -4.71624e-20 0.000463246 -6.63021e-21 -0.000354859)
(-0.000198751 0.00292032 2.04827e-20 0.000508821 2.87951e-21 -0.00031007)
(-0.000284958 0.00291246 1.81003e-21 0.000552096 2.54459e-22 -0.000267138)
(-0.000366634 0.00290362 1.27126e-20 0.000592902 1.78717e-21 -0.000226268)
(-0.000443532 0.00289402 -8.17871e-20 0.000631143 -1.14978e-20 -0.000187611)
(-0.000515533 0.00288401 2.98873e-20 0.000666807 4.20164e-21 -0.000151274)
(-0.000582797 0.00287369 -3.5562e-19 0.000699991 -4.99939e-20 -0.000117194)
(-0.00064553 0.00286317 -6.6331e-19 0.000730812 -9.32497e-20 -8.52825e-05)
(-0.000704624 0.00285244 2.07491e-19 0.000759733 2.91696e-20 -5.51091e-05)
(-0.000761664 0.00284145 2.09462e-19 0.000787561 2.94467e-20 -2.58965e-05)
(-0.000819747 0.00282942 3.18411e-19 0.000815781 4.4763e-20 3.96615e-06)
(-0.000880745 0.00281579 -5.94892e-20 0.000845277 -8.36314e-21 3.54681e-05)
(-0.000957581 0.00279854 -1.27059e-18 0.000882421 -1.78623e-19 7.51597e-05)
(-2.6223e-20 -4.28689e-19 -1.4881e-22 -7.14939e-20 -2.09201e-23 9.77169e-20)
(2.06847e-19 -3.37508e-19 9.29175e-20 -4.71219e-20 1.30626e-20 -1.59725e-19)
(-3.87792e-19 1.15815e-19 -5.68652e-20 2.00228e-19 -7.99425e-21 1.87565e-19)
(-3.43203e-19 -4.02055e-19 -8.01702e-20 2.07924e-19 -1.12705e-20 1.35279e-19)
(4.83875e-19 7.71988e-21 2.63428e-19 -2.34654e-19 3.70334e-20 -2.49221e-19)
(3.61415e-19 -1.86978e-19 7.22022e-20 -2.51694e-19 1.01504e-20 -1.09722e-19)
(-5.05503e-20 -1.20702e-20 2.86684e-19 5.02249e-20 4.03027e-20 3.25475e-22)
(3.31058e-19 1.10957e-20 -6.50102e-20 -1.08019e-19 -9.13929e-21 -2.23039e-19)
(3.22219e-19 -1.84625e-19 1.63353e-19 -2.20453e-19 2.29646e-20 -1.01766e-19)
(-3.47281e-19 -2.80745e-19 3.79211e-20 1.84122e-19 5.33104e-21 1.63159e-19)
(1.15106e-19 -2.31102e-19 -2.76495e-19 4.22614e-21 -3.88704e-20 -1.19332e-19)
(2.67384e-19 -3.39979e-19 3.13455e-19 -1.71758e-19 4.40663e-20 -9.56267e-20)
(8.91958e-21 -3.49461e-19 1.77406e-19 1.29735e-20 2.49402e-20 -2.18931e-20)
(1.7735e-19 8.88341e-20 9.68091e-21 -1.06593e-19 1.36097e-21 -7.07577e-20)
(-4.47381e-19 3.73832e-19 -9.05548e-20 2.60597e-19 -1.27304e-20 1.86784e-19)
(-4.116e-20 2.69569e-19 1.51701e-19 5.87775e-20 2.13265e-20 -1.76175e-20)
(2.67015e-20 -4.69302e-19 9.32677e-20 -7.49038e-20 1.31118e-20 4.82022e-20)
(2.63543e-19 7.7929e-20 -4.16158e-19 -1.03384e-19 -5.85046e-20 -1.60159e-19)
(-3.61712e-20 1.41984e-20 5.90617e-20 3.6553e-20 8.30305e-21 -3.81785e-22)
(-1.64974e-19 3.98888e-19 1.25642e-19 1.04745e-19 1.7663e-20 6.02289e-20)
(-1.34687e-19 -8.08252e-21 1.69271e-19 7.89204e-20 2.37966e-20 5.57662e-20)
(1.89771e-19 1.25313e-20 -1.34254e-19 -5.93555e-20 -1.88737e-20 -1.30416e-19)
(-1.3563e-19 3.05536e-19 1.78901e-19 9.43959e-20 2.51504e-20 4.12337e-20)
(1.83633e-19 6.47216e-20 1.51192e-20 -1.01097e-19 2.1255e-21 -8.25357e-20)
(-2.21713e-20 -1.94995e-21 -7.41828e-20 4.43426e-20 -1.04288e-20 -2.21713e-20)
(3.56551e-20 -1.63824e-19 -6.49119e-20 -7.59865e-20 -9.12548e-21 4.03314e-20)
(-7.5134e-20 -3.80806e-19 -4.77438e-21 2.71835e-20 -6.71194e-22 4.79505e-20)
(7.54936e-20 -4.37822e-20 -3.19976e-20 -2.41876e-20 -4.4983e-21 -5.1306e-20)
(-1.28522e-19 6.02436e-19 -7.57638e-20 1.66873e-19 -1.06511e-20 -3.83502e-20)
(3.0048e-20 -7.02491e-20 -6.22995e-20 2.1932e-20 -8.75822e-21 -5.19801e-20)
(4.33377e-21 -1.94991e-19 6.40257e-20 -8.03683e-20 9.0009e-21 7.60345e-20)
(3.35673e-21 6.04847e-20 7.56038e-21 3.89056e-21 1.06286e-21 -7.24729e-21)
(-1.09999e-19 8.02336e-20 -1.0801e-18 1.15842e-19 -1.51844e-19 -5.84304e-21)
(-8.78837e-20 -2.78561e-19 9.31325e-19 7.66595e-20 1.30928e-19 1.12242e-20)
(1.27623e-19 1.73137e-20 -1.75915e-19 -1.10094e-19 -2.47305e-20 -1.75292e-20)
(6.78593e-20 -2.79235e-19 6.63487e-19 -8.93084e-20 9.32747e-20 2.14492e-20)
(2.61412e-20 -6.14992e-20 -3.38703e-19 -1.79989e-20 -4.76157e-20 -8.1423e-21)
(6.01105e-21 -2.24275e-19 9.71555e-19 -7.6747e-20 1.36584e-19 7.0736e-20)
(2.22228e-19 2.0502e-19 1.36066e-18 -6.71485e-20 1.91286e-19 -1.55079e-19)
(4.36342e-19 -1.03251e-19 4.6747e-20 -2.3501e-19 6.57181e-21 -2.01332e-19)
(6.07566e-20 -3.08044e-19 -1.07499e-19 -3.6104e-20 -1.51124e-20 -2.46526e-20)
(-2.35401e-19 8.99226e-20 -2.80162e-19 1.69468e-19 -3.93858e-20 6.59326e-20)
(4.24502e-19 -7.95812e-19 2.10933e-19 -2.65095e-19 2.96535e-20 -1.59408e-19)
(-1.56812e-19 3.23325e-19 1.72678e-19 1.44459e-19 2.42755e-20 1.23529e-20)
(6.10986e-19 3.75285e-19 2.17691e-21 -3.04094e-19 3.06035e-22 -3.06892e-19)
(-8.21627e-19 -4.15786e-19 -1.75738e-19 3.31624e-19 -2.47057e-20 4.90002e-19)
(4.85102e-19 2.666e-19 -3.4301e-19 -1.79027e-19 -4.82212e-20 -3.06076e-19)
(1.57574e-19 5.05932e-19 2.48278e-19 -8.37949e-20 3.49036e-20 -7.37789e-20)
(-4.65701e-20 -3.87262e-20 -1.60952e-19 3.3556e-20 -2.26271e-20 1.30141e-20)
(-4.94568e-19 -8.14105e-20 2.60916e-20 2.62672e-19 3.66803e-21 2.31896e-19)
(3.3833e-19 4.10629e-19 -6.68227e-20 -1.57955e-19 -9.39411e-21 -1.80375e-19)
(2.64622e-19 -3.82185e-19 2.14589e-21 -1.74e-19 3.01675e-22 -9.06223e-20)
(-3.97013e-19 -7.78444e-20 2.27117e-20 2.24792e-19 3.19286e-21 1.72221e-19)
(5.78856e-21 -3.2484e-19 7.89944e-20 -5.13171e-20 1.11052e-20 4.55285e-20)
(1.99862e-19 -2.70179e-19 -1.70351e-19 -1.1373e-19 -2.39483e-20 -8.61318e-20)
(-2.40114e-19 -1.02824e-19 1.89021e-19 1.74721e-19 2.6573e-20 6.53929e-20)
(2.63853e-20 4.69584e-19 -4.75417e-20 -5.27706e-20 -6.68354e-21 2.63853e-20)
(3.62276e-21 -4.86868e-19 -9.38738e-20 -2.56505e-20 -1.3197e-20 2.20278e-20)
(5.14835e-21 -3.11208e-20 -6.90185e-20 -1.86756e-20 -9.70279e-21 1.35273e-20)
(7.98679e-20 -5.63947e-21 -1.66786e-19 1.25911e-20 -2.34472e-20 -9.2459e-20)
(4.17131e-20 -3.28321e-19 -2.08051e-19 -1.11165e-19 -2.92484e-20 6.94519e-20)
(-1.02658e-20 -4.79864e-20 -2.64227e-19 2.05317e-20 -3.71458e-20 -1.02658e-20)
(-1.16344e-20 2.49789e-19 1.30536e-19 3.50789e-22 1.8351e-20 1.12836e-20)
(-3.66173e-20 4.84588e-19 -1.20347e-20 -5.49985e-20 -1.69187e-21 9.16158e-20)
(-5.52836e-20 1.64758e-19 1.06811e-19 4.27349e-20 1.50158e-20 1.25487e-20)
(-5.58087e-21 -5.73226e-19 9.94406e-20 -1.86192e-20 1.39796e-20 2.42001e-20)
(3.29163e-20 -2.30038e-19 3.91869e-21 -1.65518e-20 5.509e-22 -1.63645e-20)
(7.0462e-20 -4.23585e-19 -1.12744e-21 -9.18949e-20 -1.58499e-22 2.14329e-20)
(-9.47219e-20 5.73394e-19 3.36287e-20 1.69459e-19 4.72761e-21 -7.47376e-20)
(3.67104e-20 -2.79682e-21 1.84343e-19 -7.0465e-20 2.59154e-20 3.37547e-20)
(-1.1117e-19 7.20184e-20 8.45754e-20 9.00766e-20 1.18898e-20 2.10936e-20)
(1.73041e-20 -3.09219e-19 5.79854e-19 -8.98617e-20 8.15174e-20 7.25576e-20)
(7.87703e-20 -5.73191e-19 8.03634e-19 -1.48647e-19 1.12977e-19 6.9877e-20)
(-1.88677e-20 -1.53086e-19 -1.80211e-19 -9.97826e-21 -2.53346e-20 2.8846e-20)
(-2.16314e-21 2.26446e-19 -1.58441e-19 -2.80278e-20 -2.22741e-20 3.0191e-20)
(4.56737e-20 -4.55846e-19 -3.98211e-19 -4.18759e-20 -5.59815e-20 -3.7978e-21)
(-6.0373e-20 5.95567e-20 -7.11261e-19 6.48353e-20 -9.99909e-20 -4.46227e-21)
(-3.02778e-20 2.94146e-19 -4.13308e-19 4.72862e-20 -5.81039e-20 -1.70084e-20)
(-1.23754e-19 6.8829e-19 4.18952e-21 1.09502e-19 5.88974e-22 1.42524e-20)
(7.07604e-19 -6.96542e-19 -8.52377e-20 -4.52568e-19 -1.19829e-20 -2.55036e-19)
(-1.05254e-19 5.33069e-19 -8.09318e-21 1.53331e-19 -1.13776e-21 -4.80767e-20)
(8.82239e-20 -1.48303e-19 6.23928e-20 1.08981e-20 8.77133e-21 -9.9122e-20)
(3.4623e-19 -1.06121e-19 -1.53738e-19 -1.91075e-19 -2.16128e-20 -1.55155e-19)
(-4.01682e-19 1.02623e-20 -1.27683e-19 1.97499e-19 -1.795e-20 2.04183e-19)
(1.23144e-19 -5.59784e-19 -2.6135e-19 -9.50022e-20 -3.67412e-20 -2.81421e-20)
(4.8991e-19 7.15738e-20 -5.88373e-22 -2.67232e-19 -8.2715e-23 -2.22677e-19)
(-2.1058e-19 -5.26977e-20 -1.79105e-19 9.79416e-20 -2.5179e-20 1.12638e-19)
(2.6144e-19 1.74691e-20 3.48788e-19 -1.3632e-19 4.90335e-20 -1.2512e-19)
(-1.01267e-20 2.24369e-20 2.56063e-20 2.02534e-20 3.59979e-21 -1.01267e-20)
(-7.81942e-20 9.62428e-20 6.96295e-20 6.47536e-20 9.78868e-21 1.34407e-20)
(4.22889e-19 4.03052e-19 -2.53791e-19 -2.09809e-19 -3.56785e-20 -2.1308e-19)
(-4.89827e-20 1.23698e-20 4.91256e-20 4.62403e-20 6.9062e-21 2.74238e-21)
(-2.60144e-20 3.09257e-19 6.28787e-20 5.20287e-20 8.83965e-21 -2.60144e-20)
(1.74762e-20 2.58782e-19 7.71043e-20 -3.49525e-20 1.08395e-20 1.74762e-20)
(-9.59947e-20 4.91753e-19 -2.17911e-19 1.32237e-19 -3.06345e-20 -3.62427e-20)
(-3.13373e-19 1.32849e-20 1.6676e-19 1.78476e-19 2.34436e-20 1.34898e-19)
(-5.73496e-20 4.24884e-19 9.32067e-20 4.80743e-20 1.31032e-20 9.27533e-21)
(3.3214e-21 -3.85379e-19 -2.36024e-19 -6.64281e-21 -3.31808e-20 3.3214e-21)
(9.91541e-20 4.04922e-20 1.85787e-19 -4.11285e-20 2.61184e-20 -5.80256e-20)
(3.50405e-20 -2.68164e-19 3.22944e-20 -8.27909e-20 4.54002e-21 4.77505e-20)
(-1.55456e-20 -5.32298e-19 4.42467e-20 1.36727e-20 6.22031e-21 1.87284e-21)
(-1.11556e-19 -4.88429e-19 -5.35871e-20 1.67464e-20 -7.53341e-21 9.48093e-20)
(4.0706e-20 -2.10817e-19 2.68593e-20 -8.14119e-20 3.77595e-21 4.0706e-20)
(-1.54184e-21 2.58534e-20 -4.3944e-20 8.44554e-20 -6.17775e-21 -8.29135e-20)
(-4.70467e-20 3.01627e-20 8.14316e-21 2.24135e-20 1.14479e-21 2.46332e-20)
(1.1259e-20 -4.13984e-21 5.80485e-21 1.53209e-20 8.1606e-22 -2.65799e-20)
(-2.03052e-20 -5.15012e-19 -1.08704e-19 -4.45815e-20 -1.52819e-20 6.48867e-20)
(-1.08699e-19 3.06073e-19 -1.45135e-20 7.14164e-20 -2.04034e-21 3.72822e-20)
(-4.0893e-20 -5.67222e-20 2.24474e-19 1.94985e-20 3.15572e-20 2.13946e-20)
(-2.98445e-20 2.4527e-19 -2.52774e-19 1.0538e-20 -3.55357e-20 1.93064e-20)
(6.26203e-21 -9.54261e-20 6.30496e-20 -3.39829e-21 8.86367e-21 -2.86374e-21)
(-4.93452e-20 8.04816e-20 -1.2515e-20 4.88582e-21 -1.75939e-21 4.44594e-20)
(-9.59736e-20 -4.89663e-20 4.13495e-19 2.1312e-20 5.81302e-20 7.46617e-20)
(-1.00764e-20 1.3955e-19 -1.7278e-18 3.38847e-20 -2.42898e-19 -2.38083e-20)
(6.27852e-20 -4.88054e-19 6.42492e-19 -6.56377e-20 9.03232e-20 2.85246e-21)
(-6.41802e-20 4.38671e-19 7.65293e-19 7.95593e-20 1.07587e-19 -1.53791e-20)
(-5.13479e-20 2.15974e-19 -2.71924e-18 2.00449e-20 -3.82278e-19 3.1303e-20)
(-2.06897e-19 -1.59242e-19 -3.69819e-22 2.82096e-20 -5.199e-23 1.78687e-19)
(-2.04899e-19 5.23547e-20 -6.4563e-20 1.22195e-19 -9.07642e-21 8.27038e-20)
(-1.05488e-19 1.22745e-19 1.72476e-19 6.32841e-20 2.42471e-20 4.22035e-20)
(2.06281e-19 -7.01557e-19 8.68945e-20 -1.78494e-19 1.22158e-20 -2.77873e-20)
(1.97334e-19 -1.55554e-20 -1.68351e-19 -3.08709e-20 -2.36672e-20 -1.66463e-19)
(-6.20465e-19 4.88588e-19 -1.00853e-19 3.47941e-19 -1.41781e-20 2.72524e-19)
(2.05884e-19 2.23623e-19 4.93783e-19 -1.34285e-19 6.94173e-20 -7.15991e-20)
(2.4009e-19 2.20037e-19 1.83253e-19 -1.37959e-19 2.57622e-20 -1.02132e-19)
(1.32514e-19 -3.75813e-20 1.77701e-19 -6.22026e-20 2.49816e-20 -7.03113e-20)
(-5.99164e-19 -1.06132e-19 -1.71117e-19 2.96023e-19 -2.40561e-20 3.03141e-19)
(-1.81042e-19 3.54214e-19 -1.35146e-19 1.49926e-19 -1.89991e-20 3.11158e-20)
(-4.46218e-20 -6.34206e-20 4.05562e-20 2.71977e-20 5.70149e-21 1.74241e-20)
(3.09191e-19 1.88063e-20 1.55723e-19 -1.22374e-19 2.18919e-20 -1.86817e-19)
(-1.06957e-19 -4.89846e-20 2.34245e-19 1.62868e-20 3.29307e-20 9.06699e-20)
(1.06046e-19 -3.77851e-20 -4.62985e-20 -5.44855e-20 -6.50876e-21 -5.15608e-20)
(-4.08967e-19 4.82951e-19 -5.50325e-21 2.16019e-19 -7.73661e-22 1.92948e-19)
(-1.55266e-20 -5.33622e-19 1.86672e-19 1.0321e-20 2.62428e-20 5.20554e-21)
(-1.44315e-19 -2.94192e-20 6.53522e-21 1.75121e-20 9.18738e-22 1.26803e-19)
(2.91358e-19 4.34745e-20 1.61226e-19 -1.48348e-19 2.26655e-20 -1.4301e-19)
(2.70084e-19 -2.47384e-20 1.55103e-19 -1.59969e-19 2.18047e-20 -1.10116e-19)
(-2.68581e-19 -6.72425e-20 3.86938e-19 1.6223e-19 5.43967e-20 1.06352e-19)
(-1.58232e-19 5.81357e-19 4.46388e-19 1.2958e-19 6.27544e-20 2.86515e-20)
(9.85212e-20 -3.01255e-19 2.30278e-19 -6.28143e-20 3.23731e-20 -3.57068e-20)
(4.24916e-20 2.57575e-19 4.79013e-20 -9.57806e-20 6.73409e-21 5.3289e-20)
(-9.84687e-20 1.66954e-19 -5.91386e-20 1.2422e-19 -8.31386e-21 -2.57509e-20)
(1.12343e-20 3.3737e-21 2.22029e-19 -3.14173e-20 3.12133e-20 2.0183e-20)
(8.44878e-20 -2.17831e-19 -6.12042e-20 -7.28339e-20 -8.60424e-21 -1.1654e-20)
(3.42238e-20 3.52132e-19 -4.99622e-20 -4.56407e-20 -7.02382e-21 1.14169e-20)
(-7.46496e-20 2.09175e-19 6.18991e-21 9.57171e-20 8.70193e-22 -2.10675e-20)
(9.65163e-20 -1.96813e-19 -3.55624e-20 -3.34635e-20 -4.99946e-21 -6.30528e-20)
(-1.90826e-19 7.42948e-20 -5.63671e-20 1.78176e-19 -7.92422e-21 1.26499e-20)
(2.78055e-20 -2.94185e-19 -1.43636e-19 -1.13083e-19 -2.01927e-20 8.5278e-20)
(4.17802e-20 5.03167e-19 -1.87774e-19 3.25787e-20 -2.63978e-20 -7.43589e-20)
(-1.22566e-20 5.95983e-20 -2.98039e-19 3.71398e-20 -4.18991e-20 -2.48832e-20)
(3.17803e-20 1.07659e-19 -5.47994e-19 -5.97326e-20 -7.70384e-20 2.79523e-20)
(5.91711e-20 -5.11258e-19 1.04177e-19 8.36421e-21 1.46455e-20 -6.75353e-20)
(2.01796e-20 -2.4632e-19 -4.7557e-19 -4.79549e-20 -6.68568e-20 2.77753e-20)
(-1.62578e-19 1.28515e-19 1.22134e-18 1.58295e-19 1.71699e-19 4.28261e-21)
(-5.0503e-20 -6.82514e-19 1.71188e-18 -2.57436e-20 2.40661e-19 7.62466e-20)
(-4.39249e-19 -4.22808e-19 2.84035e-20 2.27432e-19 3.99303e-21 2.11817e-19)
(1.98676e-19 2.07371e-19 -3.63241e-20 -4.9399e-20 -5.10653e-21 -1.49277e-19)
(-1.20922e-19 1.03016e-19 -3.33941e-21 8.76329e-20 -4.69462e-22 3.32893e-20)
(-5.23814e-19 -5.58375e-19 1.4399e-19 2.44265e-19 2.02425e-20 2.79548e-19)
(-2.68499e-19 -1.5943e-19 9.5511e-20 1.13491e-19 1.34272e-20 1.55007e-19)
(2.54537e-19 1.02456e-19 1.12701e-19 -1.47953e-19 1.58437e-20 -1.06583e-19)
(-2.19553e-19 1.86579e-19 1.31481e-19 1.50447e-19 1.84839e-20 6.91061e-20)
(-5.78579e-20 4.49464e-19 -5.48371e-20 7.91139e-20 -7.70914e-21 -2.12559e-20)
(-1.54643e-19 1.13284e-21 -2.29867e-19 5.58566e-20 -3.23153e-20 9.87866e-20)
(-1.66651e-19 -3.33589e-19 1.88405e-19 -7.01359e-22 2.64865e-20 1.67352e-19)
(2.16443e-19 5.9326e-20 1.92586e-19 -1.10169e-19 2.70742e-20 -1.06274e-19)
(-2.83702e-19 3.24942e-19 2.59691e-19 1.56823e-19 3.65081e-20 1.2688e-19)
(-5.83266e-20 4.99358e-20 -2.60249e-19 3.95882e-20 -3.65865e-20 1.87384e-20)
(3.44462e-19 2.28185e-20 -3.80643e-19 -1.76677e-19 -5.35118e-20 -1.67785e-19)
(-2.21327e-20 2.99092e-19 3.12263e-19 5.73315e-22 4.38988e-20 2.15594e-20)
(-5.33746e-21 5.25001e-20 1.10904e-19 1.06749e-20 1.55912e-20 -5.33746e-21)
(-9.94849e-21 -4.26023e-19 -1.07797e-20 -1.69801e-20 -1.51544e-21 2.69286e-20)
(-1.46073e-20 4.46107e-20 -1.99047e-19 2.92146e-20 -2.79826e-20 -1.46073e-20)
(-5.21638e-21 -3.36298e-19 -9.60524e-21 -3.60702e-20 -1.35033e-21 4.12866e-20)
(1.9973e-21 1.31885e-20 2.5028e-19 -3.9946e-21 3.5185e-20 1.9973e-21)
(-1.38961e-19 2.17004e-20 -3.15885e-19 8.55473e-20 -4.44079e-20 5.34135e-20)
(8.68782e-20 7.35394e-20 1.45195e-19 -2.73703e-20 2.04119e-20 -5.9508e-20)
(-1.8642e-20 3.31868e-19 -2.57999e-20 3.1836e-20 -3.62702e-21 -1.3194e-20)
(-1.1056e-19 -1.30901e-20 -1.13859e-19 1.52273e-19 -1.60066e-20 -4.17136e-20)
(6.05663e-20 -3.9396e-19 6.19541e-20 -6.2764e-20 8.70966e-21 2.19772e-21)
(5.2889e-20 5.70511e-20 -5.10368e-20 -3.48786e-21 -7.17489e-21 -4.94011e-20)
(-6.52114e-20 1.23658e-19 -5.44067e-21 2.41263e-21 -7.64863e-22 6.27987e-20)
(5.91633e-20 -7.45691e-20 2.747e-20 2.30476e-21 3.8618e-21 -6.14681e-20)
(-2.13018e-20 4.60071e-19 2.11159e-20 4.26037e-20 2.96853e-21 -2.13018e-20)
(-1.42892e-20 -1.73104e-19 3.40058e-20 -3.61094e-20 4.78062e-21 5.03987e-20)
(-3.5228e-20 -4.38014e-19 -3.71258e-20 7.30619e-20 -5.21923e-21 -3.78339e-20)
(2.67142e-20 4.20722e-19 4.13235e-19 -4.39406e-20 5.80937e-20 1.72264e-20)
(8.8159e-20 -2.08234e-19 4.68502e-19 -6.14818e-20 6.58631e-20 -2.66771e-20)
(9.43885e-20 4.09208e-19 -1.50423e-19 -3.40085e-20 -2.11469e-20 -6.038e-20)
(2.61813e-20 1.90468e-19 -7.38925e-19 4.62651e-20 -1.0388e-19 -7.24465e-20)
(-1.25817e-20 -9.02436e-20 4.45113e-19 -4.50371e-20 6.2575e-20 5.76188e-20)
(6.49125e-21 2.21473e-19 -9.95721e-19 -5.08096e-20 -1.39981e-19 4.43183e-20)
(7.82368e-20 -3.1975e-19 -1.55998e-18 -1.22091e-19 -2.19306e-19 4.38547e-20)
(3.66001e-20 1.31593e-20 1.57806e-18 -8.60597e-21 2.21848e-19 -2.79941e-20)
(-3.17964e-19 -1.88156e-19 -5.00733e-20 1.98581e-19 -7.03943e-21 1.19383e-19)
(-5.24077e-19 -3.58256e-20 -3.43156e-21 2.60876e-19 -4.82417e-22 2.63201e-19)
(-3.74003e-19 3.62085e-19 1.97204e-19 1.95929e-19 2.77235e-20 1.78074e-19)
(5.67139e-19 -1.50756e-19 -4.81686e-20 -2.984e-19 -6.77166e-21 -2.68739e-19)
(-5.11647e-19 -4.00596e-20 2.52312e-19 2.47412e-19 3.54706e-20 2.64236e-19)
(5.68197e-19 2.31002e-19 -1.34521e-19 -2.76775e-19 -1.89114e-20 -2.91422e-19)
(-3.24053e-19 -2.73841e-19 -1.3387e-19 1.14891e-19 -1.88199e-20 2.09161e-19)
(-2.78701e-19 -7.74996e-20 1.10234e-20 1.49838e-19 1.5497e-21 1.28862e-19)
(1.37149e-19 -2.80255e-20 5.07851e-20 -3.01056e-20 7.1395e-21 -1.07043e-19)
(1.24465e-21 -5.00456e-20 3.34251e-19 2.88134e-20 4.69899e-20 -3.0058e-20)
(2.52776e-19 -3.6667e-19 2.43808e-20 -1.53822e-19 3.42751e-21 -9.89541e-20)
(-1.34874e-19 -4.16518e-20 1.07073e-19 7.51955e-20 1.50525e-20 5.96786e-20)
(-3.23527e-19 -6.44483e-20 -3.08015e-19 1.39599e-19 -4.33016e-20 1.83928e-19)
(1.81805e-19 -3.32482e-19 -2.01248e-19 -6.02809e-20 -2.82919e-20 -1.21524e-19)
(-2.64151e-21 -5.87301e-19 6.36002e-20 5.28301e-21 8.94107e-21 -2.64151e-21)
(-8.2945e-21 -2.19263e-20 3.83623e-20 -4.51572e-21 5.39307e-21 1.28102e-20)
(5.04762e-21 -2.95213e-20 -1.89022e-19 -2.95034e-20 -2.65732e-20 2.44558e-20)
(-4.65877e-20 -5.3632e-20 2.21212e-20 8.4279e-20 3.10986e-21 -3.76913e-20)
(-9.35942e-21 -8.5676e-21 -5.09526e-20 1.05844e-20 -7.16305e-21 -1.22501e-21)
(-1.0056e-19 -3.22296e-20 1.41248e-19 -3.74093e-21 1.9857e-20 1.04301e-19)
(-1.0648e-19 -5.08145e-20 -1.60502e-19 3.97895e-20 -2.25638e-20 6.669e-20)
(1.82022e-20 -5.37184e-20 -2.62313e-19 -5.48744e-20 -3.68767e-20 3.66722e-20)
(1.17312e-19 1.04242e-20 3.61394e-20 -9.14085e-20 5.08056e-21 -2.59039e-20)
(-2.75516e-20 5.0045e-19 7.74109e-20 3.4763e-20 1.08826e-20 -7.21139e-21)
(-5.9081e-20 -5.16403e-21 1.96818e-19 4.25039e-21 2.76692e-20 5.48306e-20)
(-4.02407e-21 -1.896e-20 -1.895e-19 -3.91422e-22 -2.66404e-20 4.41549e-21)
(-2.17929e-20 1.51013e-19 -2.86002e-20 4.35857e-20 -4.02069e-21 -2.17929e-20)
(-1.99886e-20 2.05152e-19 1.87935e-20 1.58163e-20 2.64204e-21 4.17237e-21)
(-6.76842e-20 -5.24286e-20 -8.65245e-21 7.92468e-20 -1.21638e-21 -1.15626e-20)
(3.99359e-20 1.98233e-19 -1.22893e-20 -4.12579e-20 -1.72766e-21 1.32201e-21)
(-5.28882e-20 1.34517e-19 -2.081e-20 3.94392e-20 -2.92552e-21 1.3449e-20)
(6.41435e-21 1.43107e-19 6.40411e-20 5.3562e-20 9.00306e-21 -5.99763e-20)
(-2.30926e-20 -7.07305e-20 1.68203e-19 -9.85369e-21 2.36464e-20 3.29463e-20)
(8.56258e-20 -1.62107e-19 3.54569e-19 -6.92777e-20 4.98463e-20 -1.63481e-20)
(8.95968e-20 1.89685e-19 5.13967e-19 -8.2807e-20 7.22548e-20 -6.78979e-21)
(4.70831e-20 -5.07975e-19 -4.99276e-19 -4.53916e-20 -7.01895e-20 -1.69158e-21)
(1.40808e-20 3.38735e-19 1.16162e-18 1.61899e-20 1.63304e-19 -3.02707e-20)
(3.43626e-20 7.31651e-20 -5.00568e-19 -3.38619e-20 -7.03711e-20 -5.00693e-22)
(8.22121e-20 1.82428e-19 -3.17951e-19 -2.74876e-20 -4.46984e-20 -5.47246e-20)
(5.3496e-19 4.09909e-19 -3.47334e-20 -2.71414e-19 -4.8829e-21 -2.63546e-19)
(4.18387e-19 8.3976e-20 9.14134e-21 -2.34536e-19 1.28511e-21 -1.83851e-19)
(2.34805e-19 3.32581e-19 3.20003e-20 -6.90821e-20 4.49869e-21 -1.65723e-19)
(-1.6067e-19 6.28881e-20 -1.94683e-19 6.91297e-20 -2.7369e-20 9.15407e-20)
(3.12112e-19 -3.17761e-19 -1.32886e-19 -2.11822e-19 -1.86815e-20 -1.0029e-19)
(-5.13063e-19 2.5545e-19 2.84549e-19 3.05411e-19 4.00026e-20 2.07652e-19)
(2.42231e-19 -3.88161e-19 -2.62395e-19 -1.48667e-19 -3.68881e-20 -9.3564e-20)
(1.43463e-20 -4.18018e-20 -8.02965e-20 -2.86925e-20 -1.12883e-20 1.43463e-20)
(8.49048e-20 8.35975e-20 -2.09182e-19 -6.60949e-20 -2.94074e-20 -1.88099e-20)
(-8.62704e-20 1.7584e-19 -7.23996e-20 8.60969e-20 -1.01781e-20 1.7357e-22)
(6.38611e-19 -3.22376e-19 2.56363e-20 -3.49251e-19 3.60401e-21 -2.8936e-19)
(2.07091e-20 4.05926e-20 -2.07504e-19 -4.14182e-20 -2.91714e-20 2.07091e-20)
(-2.57679e-19 2.06591e-20 3.94336e-19 1.68432e-19 5.54368e-20 8.92468e-20)
(-1.6922e-19 -2.71072e-19 -3.7865e-20 3.87307e-20 -5.32316e-21 1.30489e-19)
(-3.26039e-19 -5.1403e-19 -2.97745e-19 1.17756e-19 -4.18577e-20 2.08283e-19)
(-2.78692e-21 9.15372e-20 1.41303e-19 5.57385e-21 1.98647e-20 -2.78692e-21)
(2.26097e-20 5.18134e-20 -1.3047e-19 -4.52195e-20 -1.83418e-20 2.26097e-20)
(-2.70683e-21 3.64349e-20 1.74943e-20 5.41366e-21 2.45939e-21 -2.70683e-21)
(-6.42149e-20 1.44794e-20 -4.82051e-21 8.51972e-20 -6.77679e-22 -2.09823e-20)
(9.00489e-20 3.37365e-19 -2.58163e-19 -3.06239e-20 -3.62932e-20 -5.9425e-20)
(3.42962e-21 -2.37607e-19 1.67018e-19 -3.11346e-20 2.34798e-20 2.7705e-20)
(-1.00923e-20 5.01381e-20 -1.97698e-21 1.46148e-20 -2.77928e-22 -4.52255e-21)
(-8.86232e-20 5.37872e-20 3.68695e-20 3.62196e-20 5.18321e-21 5.24036e-20)
(1.17796e-20 3.7829e-20 1.41838e-19 -2.82493e-20 1.994e-20 1.64697e-20)
(2.45001e-20 -1.7969e-19 -4.93909e-20 3.8183e-21 -6.94349e-21 -2.83184e-20)
(1.19292e-20 6.50674e-20 1.56268e-19 -2.69302e-21 2.19685e-20 -9.23622e-21)
(3.22994e-20 1.08855e-19 5.74525e-21 4.88681e-20 8.07682e-22 -8.11675e-20)
(-3.07523e-20 -6.33604e-20 -1.88399e-20 -3.15056e-20 -2.64856e-21 6.2258e-20)
(-4.11918e-20 6.98575e-20 1.50514e-20 1.08369e-20 2.11597e-21 3.03549e-20)
(1.06942e-20 5.32317e-20 -2.90553e-19 4.51445e-20 -4.08467e-20 -5.58387e-20)
(-7.73345e-20 6.50698e-21 -1.15072e-19 3.83989e-20 -1.61771e-20 3.89355e-20)
(-2.85958e-21 4.31322e-19 5.80305e-20 7.21162e-20 8.15807e-21 -6.92566e-20)
(3.94365e-20 -5.37106e-19 3.60312e-19 -7.07046e-20 5.06536e-20 3.1268e-20)
(-1.24306e-19 4.69197e-19 -6.64933e-19 1.57168e-19 -9.34779e-20 -3.28616e-20)
(-3.38695e-21 -5.99503e-20 6.07734e-19 -3.65211e-20 8.54367e-20 3.99081e-20)
(-3.83544e-20 6.96337e-20 -6.10228e-20 2.25581e-20 -8.57874e-21 1.57963e-20)
(-3.26738e-20 -2.11005e-21 -1.50749e-19 9.55648e-20 -2.11926e-20 -6.2891e-20)
(-2.04265e-20 6.99852e-21 1.22119e-19 -5.27251e-20 1.71678e-20 7.31517e-20)
(-5.34805e-20 3.49815e-19 -2.12031e-18 8.8421e-20 -2.98079e-19 -3.49405e-20)
(5.43563e-19 -5.27234e-20 1.72554e-20 -2.34727e-19 2.4258e-21 -3.08835e-19)
(-1.16117e-19 -2.85487e-19 -9.55324e-20 -1.37429e-20 -1.34302e-20 1.2986e-19)
(2.26213e-19 6.3069e-20 3.37937e-20 -7.46916e-20 4.7508e-21 -1.51522e-19)
(2.64291e-19 -5.99948e-20 -3.34217e-22 -1.31196e-19 -4.6985e-23 -1.33095e-19)
(-2.69142e-20 -2.49608e-19 -3.7148e-19 -1.73565e-20 -5.22236e-20 4.42707e-20)
(1.98578e-19 2.49029e-20 -1.61391e-19 -1.084e-19 -2.26887e-20 -9.01776e-20)
(-1.45866e-19 -7.56191e-20 5.57917e-19 1.30529e-19 7.84333e-20 1.53372e-20)
(2.19895e-19 -2.24872e-20 -4.05188e-19 -8.51018e-20 -5.69624e-20 -1.34793e-19)
(-2.02411e-21 -4.02955e-19 3.81434e-21 -5.40264e-20 5.3623e-22 5.60505e-20)
(5.40117e-19 3.50076e-20 7.53372e-21 -3.40207e-19 1.05911e-21 -1.9991e-19)
(-4.84871e-19 -4.59583e-20 -5.34933e-20 2.83812e-19 -7.52023e-21 2.01059e-19)
(2.84875e-19 3.01664e-19 -8.51002e-20 -1.03455e-19 -1.19636e-20 -1.8142e-19)
(-3.54778e-20 -1.74503e-20 -1.87559e-19 2.25338e-20 -2.63676e-20 1.2944e-20)
(1.93189e-21 -2.76209e-20 2.28934e-19 -3.79945e-20 3.21841e-20 3.60626e-20)
(1.45866e-19 2.29298e-19 1.0375e-19 -5.17268e-20 1.45855e-20 -9.4139e-20)
(1.29267e-19 4.59624e-19 -2.18483e-20 -1.65177e-20 -3.07149e-21 -1.12749e-19)
(-1.27494e-19 -2.60577e-20 5.8871e-20 3.16597e-20 8.27623e-21 9.58342e-20)
(-1.18831e-19 -4.4349e-19 -1.13358e-19 2.40667e-20 -1.59361e-20 9.47645e-20)
(-1.35722e-19 3.40046e-19 7.95624e-20 6.81128e-20 1.11851e-20 6.7609e-20)
(2.39451e-19 -3.21861e-19 -8.32395e-20 -1.4232e-19 -1.1702e-20 -9.71307e-20)
(9.25244e-20 -1.49654e-20 9.86951e-20 -4.11282e-20 1.38748e-20 -5.13962e-20)
(-1.24743e-19 -8.16096e-20 9.9876e-20 8.94617e-20 1.40408e-20 3.52817e-20)
(1.13662e-19 2.33075e-19 -2.18322e-20 -9.77248e-20 -3.06923e-21 -1.59376e-20)
(4.52855e-20 1.95319e-19 -1.97808e-19 2.72133e-20 -2.78083e-20 -7.24988e-20)
(-1.63524e-19 1.40678e-19 -6.24471e-20 9.93188e-20 -8.77898e-21 6.42052e-20)
(-2.07624e-20 1.43754e-19 -2.05817e-20 4.15248e-20 -2.89342e-21 -2.07624e-20)
(1.14821e-19 3.26334e-19 7.58199e-20 -6.71459e-20 1.0659e-20 -4.76749e-20)
(-1.30335e-19 -3.80042e-19 1.68493e-21 4.82779e-20 2.36872e-22 8.20568e-20)
(5.83152e-20 -6.9708e-20 -4.01279e-21 -4.40639e-20 -5.64128e-22 -1.42513e-20)
(1.2996e-19 -5.99919e-19 4.77072e-20 -1.0052e-19 6.7068e-21 -2.944e-20)
(8.78547e-23 1.69949e-19 3.51417e-20 3.30563e-20 4.94031e-21 -3.31441e-20)