/*--------------------------------*- C++ -*----------------------------------*\
| =========                 |                                                 |
| \\      /  F ield         | OpenFOAM: The Open Source CFD Toolbox           |
|  \\    /   O peration     | Version:  2506                                  |
|   \\  /    A nd           | Website:  www.openfoam.com                      |
|    \\/     M anipulation  |                                                 |
\*---------------------------------------------------------------------------*/
FoamFile
{
    version     2.0;
    format      ascii;
    arch        "LSB;label=32;scalar=64";
    class       volScalarField;
    location    "0";
    object      turbulenceProperties:k;
}
// * * * * * * * * * * * * * * * * * * * * * * * * * * * * * * * * * * * * * //

dimensions      [0 2 -2 0 0 0 0];

internalField   nonuniform List<scalar> 
10720
(
0.0136808
0.0136688
0.0134211
0.0134012
0.0132312
0.0129873
0.0127792
0.0125412
0.0122835
0.0120468
0.0118074
0.0115785
0.0113724
0.0111782
0.0110027
0.0108501
0.0107186
0.0106106
0.010529
0.0104708
0.0104357
0.0104238
0.0104318
0.0104542
0.0104817
0.0105123
0.0105474
0.010587
0.01063
0.0106746
0.0107204
0.010767
0.010813
0.0108577
0.0109018
0.0109458
0.010992
0.0110426
0.0111101
0.0137648
0.013854
0.013675
0.01368
0.0135667
0.0133461
0.0130934
0.0128427
0.0125781
0.0122992
0.0120586
0.0118537
0.0116776
0.0115268
0.0114066
0.011304
0.0112186
0.0111441
0.0110799
0.0110211
0.0109639
0.0109065
0.0108471
0.0107824
0.0107229
0.0106708
0.0106263
0.0105889
0.0105581
0.010533
0.0105131
0.0104982
0.0104873
0.0104796
0.0104746
0.0104722
0.0104716
0.0104728
0.0104816
1.61282e-18
1.57504e-18
1.51809e-18
1.89914e-18
2.07209e-18
1.42812e-18
1.04567e-18
1.4423e-18
1.41426e-18
1.63233e-18
1.45071e-18
1.89665e-18
1.40114e-18
7.05809e-19
2.10919e-18
1.12056e-18
1.73061e-18
1.86129e-18
2.53446e-19
1.59623e-18
7.76431e-19
9.5616e-19
1.34471e-18
7.11242e-19
3.14566e-19
6.92273e-19
1.38994e-18
3.79081e-19
2.23147e-18
4.35288e-19
8.48877e-19
2.20178e-19
3.90929e-18
3.50019e-18
7.68144e-19
2.5984e-18
1.23884e-18
3.60111e-18
5.03455e-18
1.65537e-18
1.18129e-18
1.32504e-18
3.28711e-18
1.41318e-18
2.66564e-18
3.68997e-18
2.54435e-18
2.09029e-18
6.14832e-19
1.85318e-18
1.97303e-18
1.63954e-18
1.46587e-18
1.21804e-18
1.34857e-18
1.12237e-18
1.69005e-18
1.76822e-18
2.83987e-19
7.85145e-19
1.46004e-18
9.67011e-19
1.00622e-18
1.79169e-18
7.2461e-19
2.07326e-18
8.2734e-19
1.53771e-18
2.13313e-18
7.11953e-19
5.46283e-19
2.39356e-18
3.57506e-18
8.59548e-19
9.99934e-19
2.16693e-18
2.57225e-18
1.82293e-18
2.48328e-18
3.5115e-18
1.96725e-18
7.91559e-19
1.42973e-18
1.59119e-18
2.23935e-18
1.81295e-18
1.05371e-18
1.58662e-18
1.43701e-19
4.99307e-19
2.33246e-18
2.48826e-19
1.13951e-18
9.69832e-19
1.9675e-18
1.28173e-18
1.55937e-18
1.61127e-18
7.89712e-19
1.0155e-18
1.89995e-18
1.83315e-18
8.15711e-19
5.02245e-19
2.11807e-19
1.44214e-19
1.90443e-18
1.15283e-18
8.45448e-19
1.26487e-18
4.08518e-19
3.86543e-19
1.56091e-18
6.22511e-18
2.89566e-18
3.17089e-18
9.79561e-18
1.18465e-18
7.88069e-19
8.45353e-19
2.6094e-18
1.14941e-18
2.86793e-18
2.07046e-18
1.33914e-18
8.27863e-19
2.38037e-18
1.48163e-18
3.11424e-19
1.37781e-18
1.00971e-18
4.50266e-19
2.28958e-18
2.01289e-18
7.42686e-19
1.24568e-18
1.11679e-18
1.70161e-18
2.66951e-18
1.3962e-18
1.00471e-18
7.56984e-19
8.08064e-19
8.54517e-19
1.27418e-18
8.11143e-19
8.20023e-19
7.38649e-19
1.27655e-18
1.95257e-18
1.10241e-18
2.01653e-18
1.89262e-18
1.92851e-18
4.44566e-18
6.62071e-18
2.22509e-18
1.17852e-18
5.50703e-19
2.88023e-18
1.25836e-18
1.06372e-18
1.10968e-18
1.63238e-18
1.04822e-18
1.6577e-18
1.08673e-18
1.80978e-18
9.72068e-19
1.87973e-18
1.55006e-18
4.41611e-19
1.52204e-18
7.40296e-19
1.21752e-18
8.99957e-19
1.23803e-18
6.94335e-19
1.18905e-18
6.61131e-19
1.43515e-18
3.9266e-19
5.65954e-19
4.44638e-19
1.64538e-18
6.83705e-19
1.58772e-18
2.11261e-18
1.86244e-18
1.60134e-18
2.76547e-18
1.65975e-18
3.66978e-18
5.73104e-18
5.66863e-18
1.31471e-18
1.98343e-18
2.02167e-18
2.17691e-18
2.15586e-18
2.36216e-18
1.74132e-18
1.0631e-18
6.76379e-19
1.22475e-18
1.58374e-18
6.4069e-19
1.7075e-18
1.58895e-18
2.10067e-18
1.72515e-19
7.01705e-19
3.70405e-19
1.88931e-19
7.80621e-19
7.47557e-19
9.89252e-19
4.18297e-19
1.80472e-18
7.73233e-19
6.84152e-19
5.70827e-19
7.35621e-19
3.28242e-19
7.20823e-19
5.16146e-19
6.48919e-19
6.77781e-19
1.42699e-18
1.98882e-18
2.55e-18
4.34411e-18
1.82002e-18
1.35909e-18
2.48397e-18
1.54883e-18
1.57621e-18
9.71502e-19
1.63023e-18
2.28303e-18
1.87726e-18
3.41925e-19
8.57055e-19
7.43188e-19
2.60534e-18
7.74784e-19
1.67641e-18
1.25233e-18
2.5178e-18
6.0312e-19
5.31465e-19
1.45408e-19
2.93296e-19
1.56346e-18
1.04828e-18
1.85308e-19
4.2598e-19
5.38714e-19
6.8101e-19
6.0944e-19
5.81781e-19
4.06906e-19
3.15235e-19
1.10297e-18
5.06637e-19
1.59667e-18
2.32089e-18
2.96034e-18
2.2035e-18
3.57942e-19
6.76372e-19
5.90224e-19
7.7201e-18
2.16013e-18
1.28869e-18
1.00208e-18
1.02159e-18
1.61944e-18
9.34198e-19
2.08159e-18
1.71277e-18
1.46652e-18
1.89791e-18
1.7552e-18
1.62986e-18
6.87561e-19
8.52821e-19
1.08575e-18
1.76222e-18
6.28121e-19
1.72393e-18
1.34337e-18
1.45871e-18
5.09888e-19
6.27054e-19
9.1723e-19
1.06639e-18
7.97514e-19
5.39646e-19
1.2608e-18
1.4554e-18
3.17073e-19
2.18437e-18
6.44759e-19
7.47529e-19
2.19847e-18
4.47254e-19
6.9028e-19
1.59354e-18
1.56047e-18
2.37754e-18
1.97331e-18
6.09503e-19
5.11988e-19
1.16059e-18
8.40723e-19
9.82923e-19
1.58825e-18
1.09834e-18
1.30604e-18
5.21849e-19
1.21739e-18
4.77854e-19
8.0024e-19
1.60112e-18
9.58854e-19
1.76285e-18
1.04339e-18
6.42817e-19
1.69913e-18
2.75278e-19
1.05099e-18
7.29958e-19
1.02357e-18
3.57013e-19
7.35864e-19
1.21729e-18
8.52989e-19
3.85214e-19
3.27639e-19
5.8051e-19
4.63662e-19
4.38151e-19
1.04359e-18
1.37067e-18
1.31593e-18
1.59047e-18
2.13639e-18
4.51298e-18
8.29453e-19
2.4962e-18
1.78112e-18
1.37597e-18
6.97714e-19
1.4628e-18
1.25662e-18
9.30025e-19
1.32189e-18
1.73863e-18
8.47537e-19
7.98937e-19
1.77784e-18
5.28668e-19
9.13362e-19
5.87591e-19
1.89577e-18
7.94043e-19
1.15033e-18
6.54633e-19
4.45251e-19
6.13922e-19
1.14255e-18
3.16732e-19
1.01274e-18
9.50354e-19
8.58773e-19
7.77978e-19
7.80075e-19
2.98812e-19
3.69791e-19
5.78434e-19
2.4177e-18
6.04942e-19
5.43317e-19
4.56218e-19
6.84044e-19
2.08812e-18
3.57418e-18
2.71136e-18
6.06035e-19
6.42658e-19
1.49913e-18
4.24703e-19
1.23819e-18
1.07374e-18
8.79288e-19
4.17108e-19
9.36017e-19
1.50612e-18
5.29001e-19
1.39435e-18
7.1784e-19
2.13774e-18
1.99495e-18
2.59004e-18
8.51482e-19
1.10541e-18
5.8126e-19
4.1497e-19
1.59812e-19
7.79301e-19
1.46069e-18
7.25242e-19
1.13303e-18
1.42296e-18
5.90312e-19
8.79869e-19
1.0179e-19
6.9236e-19
1.18504e-18
1.02412e-18
9.03089e-19
1.54607e-18
7.277e-19
1.32873e-18
3.84805e-18
1.06862e-18
7.65526e-19
1.59755e-18
1.63147e-18
1.16638e-18
6.81994e-19
2.51943e-18
8.16324e-19
2.04587e-19
1.18456e-18
1.11777e-18
2.20138e-18
7.14513e-19
3.50531e-19
8.50861e-19
2.74871e-19
8.76434e-19
9.02005e-19
1.61154e-18
2.20789e-18
1.58791e-18
4.46914e-19
1.11978e-18
4.68267e-19
1.04272e-18
1.23938e-18
7.88473e-19
1.02018e-18
2.18757e-19
3.0319e-19
6.83366e-19
5.02894e-19
6.98887e-19
5.22774e-19
8.69033e-19
1.29809e-18
9.53575e-19
3.22696e-19
2.09001e-18
2.5922e-18
2.43484e-19
3.14095e-18
6.63087e-19
3.5653e-19
1.37331e-18
2.27168e-18
8.75808e-19
1.52943e-18
1.28153e-19
2.36301e-18
1.65835e-18
1.36046e-18
1.55616e-18
9.68707e-19
2.02346e-18
2.88131e-18
1.02603e-18
1.58632e-18
1.90182e-18
1.48953e-18
8.04246e-19
1.52215e-18
1.00233e-18
9.30406e-19
8.47148e-19
8.09407e-19
3.44846e-19
4.02855e-19
5.3492e-19
2.02935e-19
3.89279e-19
8.67033e-19
2.0772e-18
1.80261e-18
1.69142e-18
8.32291e-19
8.71643e-19
3.75701e-18
1.98026e-18
1.50368e-18
4.39575e-18
5.14207e-19
1.83303e-18
2.32447e-18
1.52794e-18
1.18192e-18
1.57834e-19
1.90983e-18
1.4593e-18
9.22672e-19
1.87034e-18
2.06013e-18
4.27199e-19
1.3309e-18
7.33807e-19
7.04757e-19
1.75318e-18
1.58962e-18
4.46897e-19
2.08101e-19
1.47517e-18
1.08865e-18
7.25259e-19
1.18343e-18
1.95415e-18
7.90438e-19
1.69753e-18
1.38918e-18
7.35868e-19
1.19206e-18
9.97648e-19
1.63213e-18
1.46877e-18
8.49506e-19
1.19938e-19
1.09671e-18
1.59404e-18
9.8789e-19
1.16937e-18
9.60244e-19
8.72499e-19
6.28744e-19
1.64495e-18
1.65968e-18
4.4932e-19
6.43296e-19
2.0682e-18
8.2945e-19
1.4959e-18
1.02511e-18
5.12894e-19
2.2886e-18
1.23615e-18
1.66202e-18
4.97723e-19
3.99358e-19
8.81132e-19
8.4779e-19
8.98643e-19
6.16672e-19
2.62069e-19
7.06806e-19
1.39051e-18
5.85437e-19
4.59403e-19
1.04768e-18
1.81557e-19
3.3145e-19
1.66352e-18
1.49352e-18
8.16253e-19
1.58604e-18
1.80887e-18
1.98546e-18
2.19753e-18
1.52615e-18
1.41669e-18
4.32984e-18
2.97679e-18
1.4024e-18
5.20204e-19
7.77112e-19
1.00748e-18
9.87923e-19
1.9036e-18
3.04033e-19
7.23072e-19
1.18149e-18
9.17304e-19
1.25171e-18
6.62737e-19
1.87284e-18
1.07299e-18
1.41509e-18
9.93132e-19
1.42266e-18
3.89306e-19
1.05313e-18
7.45587e-19
4.85816e-19
1.46167e-18
6.64631e-19
1.05927e-18
1.26825e-18
5.83784e-19
7.50478e-19
2.76825e-19
8.49511e-19
3.09476e-19
1.03615e-18
5.61478e-19
1.86719e-18
2.19035e-18
6.58213e-19
2.32414e-19
4.69826e-19
9.05677e-19
5.42105e-19
7.73624e-19
8.70678e-19
8.12023e-19
9.75741e-19
1.252e-18
1.22111e-18
3.36161e-18
1.35557e-18
1.49521e-18
1.40398e-18
1.18662e-18
1.43143e-18
6.66708e-19
3.70441e-19
2.78084e-19
1.40112e-18
1.29422e-18
1.3516e-18
1.06803e-18
3.60601e-19
1.37676e-18
2.43965e-19
4.61818e-19
7.60907e-19
2.52255e-19
4.27065e-19
2.54678e-19
1.52604e-19
1.3145e-18
7.97873e-19
1.20347e-18
1.11707e-18
9.40676e-19
5.20868e-19
1.17325e-18
1.4661e-18
1.27852e-18
1.39579e-18
3.55466e-18
1.4775e-18
8.93259e-19
8.6351e-19
4.4462e-19
7.53533e-19
1.95435e-18
1.7734e-18
3.88372e-19
1.52394e-18
1.03626e-18
1.73775e-18
1.34328e-18
3.48735e-19
6.92217e-19
9.0938e-19
1.20574e-18
3.54424e-19
4.26034e-19
1.04486e-18
1.85802e-19
1.04085e-18
3.45819e-19
7.39325e-19
1.56116e-18
4.22086e-19
9.90685e-19
7.452e-19
2.85158e-19
6.99066e-19
1.04384e-18
9.22745e-19
8.01588e-19
4.89141e-19
1.55002e-18
1.29005e-18
1.14157e-18
2.68468e-18
2.15192e-18
1.28138e-18
1.30899e-18
8.11184e-19
9.29834e-19
5.34145e-19
1.03391e-18
1.25315e-18
9.25277e-19
9.88135e-19
1.69063e-18
1.18738e-18
1.23976e-18
1.3694e-18
6.44339e-19
3.73682e-19
9.79186e-19
3.45449e-19
5.97695e-19
6.51424e-19
3.30582e-19
8.13216e-19
5.84619e-19
9.16697e-19
7.44918e-19
1.09654e-18
5.69748e-19
5.7014e-19
2.50992e-19
1.54469e-18
8.68046e-19
1.02219e-18
2.84032e-19
1.58942e-18
1.94795e-18
4.57856e-19
9.58431e-19
5.54243e-19
1.65685e-18
6.08903e-19
1.43128e-18
1.37217e-18
8.931e-19
8.342e-19
6.71174e-19
9.77393e-19
1.75183e-18
8.02455e-19
1.0119e-18
1.31842e-18
7.17931e-19
2.18043e-18
1.28988e-18
9.52801e-19
5.3559e-19
4.44234e-19
7.62175e-19
3.71182e-19
6.33931e-19
9.73642e-19
5.38194e-19
9.62768e-19
4.90591e-19
1.09568e-18
7.44056e-19
6.2231e-19
5.81118e-19
2.87416e-19
6.59945e-19
7.38084e-19
2.42874e-19
8.36329e-19
9.65148e-19
1.12147e-18
1.01358e-18
1.94359e-18
7.69456e-19
3.08562e-18
3.46852e-18
1.39667e-18
1.24736e-18
7.3506e-19
8.08485e-19
1.65548e-18
7.65336e-19
7.64027e-19
1.32423e-18
1.11222e-18
1.56859e-18
8.82459e-19
5.10575e-19
4.19525e-19
8.53105e-19
1.4945e-18
4.9656e-19
8.22018e-19
7.4508e-19
6.20354e-19
8.36312e-19
2.33699e-19
1.16205e-18
2.41376e-19
1.69243e-18
4.31152e-19
5.20228e-19
1.2715e-18
4.3688e-19
1.1251e-18
7.21392e-19
1.16431e-18
1.16819e-19
1.58368e-18
7.52143e-19
8.58359e-19
1.60173e-18
8.05333e-19
1.13264e-18
8.08163e-19
3.49707e-18
1.28073e-18
8.00422e-19
1.29929e-18
1.01403e-18
9.51418e-19
8.70756e-19
5.15648e-19
7.70454e-19
2.07494e-18
1.29066e-18
7.57562e-19
1.37907e-18
6.0949e-19
1.24737e-18
1.23819e-19
4.77989e-19
1.04083e-18
7.80258e-19
6.39633e-19
1.1412e-18
7.72036e-19
8.36461e-19
5.9829e-19
4.94726e-19
3.75258e-19
6.0477e-19
2.88251e-19
2.70716e-19
3.33414e-19
1.00078e-18
6.96599e-19
5.9708e-19
3.02033e-19
1.19131e-18
9.44055e-19
1.3032e-18
2.01326e-18
2.01408e-18
2.54205e-18
9.83985e-19
1.21961e-18
7.92415e-19
9.66879e-19
1.18172e-18
1.17801e-18
7.95147e-19
1.1935e-18
7.67942e-19
5.49035e-19
1.5133e-18
1.08302e-18
1.2522e-18
4.39035e-19
4.69488e-19
1.14826e-18
1.36418e-18
6.55523e-19
1.42757e-18
2.4357e-19
6.98582e-19
1.33481e-18
1.39041e-18
9.84965e-19
5.46811e-19
2.37097e-19
8.75973e-19
5.13354e-19
4.87105e-19
5.93096e-19
6.26345e-19
2.77888e-19
1.18452e-18
1.61175e-18
3.93395e-19
2.21909e-18
5.06026e-19
1.42746e-18
4.01535e-18
7.59829e-19
8.67247e-19
8.65526e-19
1.0446e-18
7.94555e-19
1.00797e-18
4.70111e-19
1.50855e-18
5.86186e-19
7.51429e-19
1.54564e-18
1.27953e-18
7.91132e-19
2.84495e-19
1.50927e-18
1.20586e-18
1.09313e-18
1.30205e-18
8.51998e-19
5.34485e-19
6.7597e-19
5.36084e-19
1.17358e-18
1.13173e-18
5.57081e-19
8.49133e-19
8.38975e-19
2.93503e-19
3.38621e-19
5.70489e-19
8.97417e-19
9.90515e-19
1.18643e-18
1.93475e-18
8.17398e-19
1.35732e-18
2.76313e-18
1.92394e-19
3.57623e-18
2.72689e-19
3.23005e-19
1.10596e-18
4.96636e-19
2.88183e-19
5.32509e-19
1.66599e-18
1.38005e-18
1.35654e-18
1.50775e-18
1.47481e-18
2.85055e-19
8.73922e-19
4.87376e-19
1.98994e-18
6.04268e-19
1.16945e-18
5.21485e-19
7.10525e-19
1.54636e-18
8.5476e-19
4.22099e-19
6.82055e-19
1.19406e-18
9.58313e-19
8.54684e-19
6.44686e-20
5.21094e-19
3.81211e-19
2.82e-19
9.69252e-19
7.59858e-19
5.02494e-19
4.64621e-18
1.25909e-18
3.01414e-18
1.64392e-18
6.20737e-19
4.25525e-18
8.03375e-19
1.67648e-18
3.84932e-19
1.15517e-18
9.49134e-19
1.47701e-18
9.88103e-19
1.75939e-18
9.23472e-19
6.08305e-19
2.09573e-19
8.4795e-19
1.15871e-18
1.03042e-18
1.39776e-19
9.91569e-19
1.14585e-18
4.47825e-19
8.70207e-19
5.69087e-19
7.83362e-19
7.45177e-19
6.64988e-19
8.98843e-19
1.12738e-18
2.27677e-19
2.81108e-19
1.5244e-19
6.19891e-19
7.19625e-19
1.19921e-18
9.95138e-19
1.8928e-19
1.51021e-18
8.23722e-19
1.2232e-18
1.99434e-18
9.36556e-19
2.23333e-18
9.27117e-19
5.39709e-19
9.30312e-19
1.21621e-18
6.69722e-19
5.28319e-19
9.85532e-19
4.85455e-19
5.3066e-19
5.91755e-19
9.27484e-19
8.84452e-19
3.39893e-19
1.04649e-18
9.73402e-19
8.39714e-19
6.3944e-19
1.53598e-18
1.29771e-18
5.27605e-19
4.93995e-19
8.99679e-19
1.12837e-18
2.1569e-19
1.87424e-19
7.14715e-19
4.53844e-19
1.21408e-18
9.18922e-19
5.67828e-19
7.73873e-19
4.78745e-19
1.04371e-18
4.24744e-18
1.24615e-18
2.29081e-18
1.15769e-18
2.39193e-18
4.65251e-18
6.07341e-19
5.8369e-19
7.76443e-19
8.01325e-19
1.30211e-18
1.16858e-18
1.11539e-18
1.98254e-18
1.24753e-18
8.35528e-19
1.08937e-18
1.21809e-18
6.87076e-19
9.40516e-19
8.69854e-19
1.20554e-18
2.96441e-19
1.01899e-18
8.09384e-19
9.05238e-19
8.92441e-19
5.497e-19
1.10075e-18
5.45041e-19
5.80847e-19
7.21096e-19
1.95976e-19
7.81833e-19
2.33207e-19
4.59454e-19
8.86745e-19
4.18488e-19
6.34721e-19
1.20841e-18
2.425e-19
2.26942e-19
1.07447e-18
1.72257e-18
1.53022e-18
1.2702e-18
3.78625e-19
4.56075e-19
4.99645e-19
6.13632e-19
1.25398e-18
8.54731e-19
1.34779e-18
1.69787e-18
8.6078e-19
9.16965e-19
5.37189e-19
8.10436e-19
1.42303e-19
6.10229e-19
1.60218e-18
1.7066e-18
3.91526e-19
8.20407e-19
5.60897e-19
5.15379e-19
6.0173e-19
4.35681e-19
9.12669e-19
5.84e-19
1.41908e-19
4.26735e-19
3.12586e-19
7.7337e-19
7.85305e-19
7.12078e-19
6.71479e-19
7.39901e-19
1.58076e-18
1.3375e-18
4.79822e-19
4.18594e-19
2.44555e-18
1.41773e-18
1.97428e-18
1.31059e-18
1.2285e-18
6.00215e-19
1.6241e-18
8.08331e-19
1.29755e-18
3.83765e-19
9.73476e-19
3.08036e-19
8.89266e-19
6.3583e-19
6.84147e-19
5.36317e-19
1.2267e-18
3.54944e-19
3.20154e-19
5.38976e-19
7.29249e-19
8.51151e-19
5.25723e-19
6.4605e-19
9.96878e-19
5.13544e-19
4.87961e-19
7.63751e-19
5.13368e-19
6.41854e-19
5.60564e-19
1.75833e-19
3.06624e-19
4.20142e-19
9.52699e-19
2.45105e-18
3.47065e-19
6.24406e-19
1.32474e-18
2.10644e-18
1.26232e-18
7.00416e-19
5.51264e-19
6.26377e-19
2.8023e-19
7.43368e-19
1.18196e-18
1.94468e-18
8.2225e-19
1.31149e-18
6.29196e-19
5.94748e-19
9.42436e-19
1.01469e-18
1.69594e-19
7.88262e-19
4.50827e-19
1.48721e-18
8.51467e-19
6.52778e-19
1.56628e-19
8.04084e-19
4.71398e-19
5.0484e-19
8.25382e-19
3.8242e-19
3.95658e-19
7.30221e-19
9.89457e-19
3.7995e-19
5.59416e-19
8.48618e-19
4.05582e-19
9.97339e-19
1.78988e-19
2.54368e-19
5.38823e-19
6.42151e-19
5.12117e-19
9.6142e-19
3.68344e-19
1.6833e-18
5.25414e-19
9.26674e-19
1.17956e-18
8.97189e-19
2.65455e-19
7.33796e-19
1.22069e-18
6.85718e-19
7.80702e-19
8.65186e-19
8.68056e-19
3.83306e-19
3.83413e-19
2.58698e-19
9.19839e-19
9.65063e-19
2.86563e-19
8.10555e-19
1.10342e-18
5.56911e-19
5.6722e-19
1.16768e-18
9.2065e-19
3.18054e-19
5.49094e-19
5.81253e-19
5.84179e-19
7.21424e-19
8.88912e-19
3.01084e-19
1.00844e-18
1.54657e-18
4.9382e-19
3.42926e-19
6.77176e-19
7.20242e-19
2.85322e-18
1.64052e-18
1.07119e-18
8.94785e-19
4.32478e-19
3.19975e-19
1.25461e-18
2.71012e-18
4.88271e-19
6.76687e-19
9.86806e-19
2.96083e-19
2.75462e-19
2.44163e-19
1.43969e-19
1.1533e-18
4.3903e-19
1.35184e-18
5.92217e-19
9.3752e-19
6.40702e-19
4.66902e-19
8.01693e-19
5.66244e-19
2.81069e-19
5.1355e-19
6.41869e-19
2.11987e-19
2.17255e-19
3.38754e-19
4.29237e-19
8.91207e-19
3.84202e-19
1.21639e-18
4.39705e-19
2.34088e-19
4.91481e-19
3.396e-19
1.89245e-18
1.37315e-18
8.41746e-19
1.39642e-18
8.81228e-19
1.30076e-18
1.37567e-18
8.15724e-19
1.10915e-18
6.98557e-19
9.62676e-19
8.41818e-19
1.37587e-18
1.45783e-18
1.64488e-19
6.6503e-19
1.46053e-18
1.91215e-18
8.80418e-19
1.01181e-18
4.89468e-19
9.07841e-19
6.54219e-19
6.15307e-19
1.24848e-18
1.74289e-19
5.03789e-19
3.92302e-19
3.06337e-19
1.02952e-19
8.88724e-20
2.91854e-19
9.37429e-19
1.32898e-18
1.00403e-18
2.2832e-19
1.16977e-18
8.92403e-19
1.7917e-18
1.25469e-18
2.26246e-18
6.6918e-19
8.44974e-19
5.808e-19
4.08626e-19
6.43841e-19
1.16214e-18
6.7558e-19
7.49375e-19
8.72732e-19
6.82585e-19
1.0208e-18
4.49109e-19
4.89054e-19
1.36064e-19
5.63566e-19
4.00102e-19
1.46526e-18
4.34893e-19
6.96077e-19
6.702e-19
8.83886e-19
9.41148e-19
3.4929e-19
3.62687e-19
7.03438e-19
3.48164e-19
5.21436e-19
8.10689e-20
3.68761e-19
6.77037e-19
4.76884e-19
6.4161e-19
6.58429e-19
2.976e-19
1.03894e-18
1.05846e-18
7.16639e-19
1.49856e-18
2.96041e-18
1.42411e-18
7.17104e-19
1.23708e-18
6.51689e-19
1.24022e-18
6.18419e-19
8.00964e-19
7.24471e-19
2.10394e-18
6.33443e-19
5.85786e-19
3.88618e-19
8.11927e-19
9.27986e-19
1.02771e-18
5.52831e-19
8.69593e-19
5.23713e-19
1.46872e-18
1.50901e-18
8.28056e-19
3.7829e-19
9.60197e-19
5.47377e-19
8.63078e-19
8.09278e-19
5.78688e-19
5.14088e-19
2.23849e-19
6.36221e-19
2.96275e-19
9.35262e-19
1.03537e-19
6.57641e-19
4.89915e-19
1.4668e-18
6.05883e-19
9.33029e-19
3.51707e-18
8.58162e-19
2.61679e-19
1.36003e-18
5.03503e-19
3.69845e-19
4.53539e-19
6.19612e-19
1.21336e-18
7.41854e-19
7.59878e-19
2.56305e-19
2.44317e-19
5.08641e-19
1.30317e-18
6.05417e-19
6.8337e-19
7.40966e-19
1.05224e-18
1.10667e-18
8.91997e-19
7.13027e-19
7.48908e-19
4.74212e-19
4.0447e-19
7.84165e-19
3.11294e-19
7.13825e-19
8.60669e-19
3.20855e-19
9.77027e-19
6.57517e-19
2.99353e-19
9.08455e-19
6.46012e-19
4.10508e-19
1.02549e-18
8.09534e-19
4.55e-19
6.86791e-19
9.14756e-19
4.20404e-19
8.65794e-19
4.9839e-19
1.01619e-18
4.61243e-19
1.09079e-18
8.99346e-19
7.41386e-19
7.40307e-19
1.10389e-18
6.62063e-19
6.14009e-19
4.04295e-19
3.8225e-19
4.74327e-20
7.12884e-19
6.23759e-19
1.13177e-19
2.9165e-19
2.03088e-19
5.2079e-19
7.2598e-19
3.32836e-19
6.45687e-19
7.03395e-19
8.77486e-19
1.32624e-19
8.38768e-20
7.18993e-19
1.15266e-18
2.72821e-19
1.96327e-19
1.24271e-18
1.10073e-18
8.42402e-19
1.41158e-18
9.65598e-19
2.3263e-18
4.49165e-19
8.25705e-19
3.69218e-19
5.56671e-19
2.46183e-19
7.918e-19
9.56614e-19
6.07579e-19
5.61388e-19
5.54415e-19
1.26228e-18
1.70355e-18
1.77807e-18
7.30937e-19
7.83592e-19
1.10609e-18
8.54335e-19
3.07837e-19
1.02357e-18
2.98636e-19
7.13499e-19
1.099e-18
3.16008e-19
9.73483e-19
7.03992e-19
7.08847e-19
2.62797e-19
6.872e-19
2.88413e-19
2.43474e-19
2.39143e-19
5.51359e-19
9.36397e-19
4.98883e-19
8.45327e-19
1.7074e-19
6.87514e-19
1.81724e-18
1.33089e-18
4.27572e-19
5.42613e-19
4.14523e-19
4.43853e-19
8.37434e-19
5.89397e-19
6.78063e-19
5.83918e-19
9.36059e-19
1.25118e-18
2.82381e-19
8.39702e-19
1.18537e-18
9.09827e-19
4.02323e-19
4.20187e-19
9.23646e-19
7.28231e-19
3.49043e-19
5.70548e-19
3.24999e-19
7.51322e-19
9.11518e-19
3.12841e-19
2.69593e-19
4.89353e-19
4.38716e-19
2.86163e-19
2.30522e-19
4.1586e-19
2.35875e-19
6.62748e-19
2.45189e-19
3.10366e-19
1.13986e-18
3.08946e-19
1.1061e-18
5.68335e-19
5.89237e-19
5.58715e-19
6.11753e-19
7.74521e-19
1.17e-18
9.09292e-19
6.61416e-19
7.82959e-19
8.9514e-19
6.69854e-19
6.20277e-19
9.48688e-19
5.58307e-19
6.71831e-19
1.3559e-18
1.08592e-18
1.95017e-19
5.26142e-19
7.85951e-19
7.03088e-19
6.00115e-19
8.39048e-19
6.81568e-19
3.24184e-19
2.01204e-19
4.03953e-19
5.84336e-19
2.50215e-19
4.16453e-19
7.56867e-19
2.10957e-19
4.82891e-19
9.18156e-19
1.4828e-18
3.74187e-19
2.48352e-19
6.5508e-19
5.84027e-19
5.35348e-19
6.89767e-19
8.98337e-19
4.58897e-19
3.78203e-19
5.86848e-19
4.16983e-19
1.87333e-18
3.4659e-19
2.14533e-18
4.68897e-19
1.68464e-18
1.31264e-18
6.63475e-19
6.31773e-19
2.43723e-19
3.00936e-19
6.86746e-19
2.41928e-19
2.54822e-19
6.89458e-19
8.16768e-19
3.46191e-19
5.47704e-19
4.43235e-19
8.14253e-19
2.93903e-19
3.1685e-19
3.73305e-19
4.25148e-19
2.46756e-19
2.40421e-19
1.75536e-19
1.42727e-19
3.61973e-19
2.21286e-19
3.01516e-19
2.72408e-19
5.48231e-19
8.15963e-19
2.66952e-19
7.36558e-19
1.11381e-19
9.9592e-19
8.61931e-19
4.22493e-19
1.09346e-18
6.55066e-19
9.03214e-19
3.66203e-19
1.19068e-18
5.43605e-19
1.58209e-18
9.28026e-19
4.15289e-20
7.76481e-19
3.71943e-19
2.82517e-19
7.99218e-19
7.05799e-19
8.84687e-19
3.08121e-19
3.31259e-19
6.75653e-19
3.43981e-19
5.294e-19
7.46898e-19
8.60247e-20
2.21085e-19
2.14134e-19
3.86581e-19
2.95251e-19
7.99213e-19
6.13278e-19
7.97656e-19
1.01058e-18
1.22062e-18
5.65691e-19
4.3692e-19
1.48885e-18
4.1936e-19
4.69319e-19
8.88377e-19
9.07579e-19
4.81404e-19
8.1285e-19
1.01377e-18
1.07707e-18
9.40022e-19
7.3541e-19
5.30633e-19
1.06558e-18
5.18826e-19
8.87917e-19
3.29845e-19
6.93459e-19
2.03591e-19
4.72926e-19
6.9491e-19
9.01636e-19
3.70642e-19
3.78771e-19
2.74016e-19
2.21539e-19
5.49778e-19
1.55667e-19
5.58599e-19
2.19608e-19
1.68666e-19
4.02833e-19
1.63705e-19
2.70411e-19
1.14205e-18
3.6136e-19
5.32791e-19
5.60597e-19
3.00491e-19
9.5275e-19
6.41088e-19
7.04608e-19
7.19605e-19
3.88212e-19
5.23207e-19
5.29244e-19
7.75343e-19
7.01611e-19
1.10758e-18
1.09691e-18
1.24948e-18
3.44209e-19
1.62091e-18
6.69172e-19
2.08503e-18
5.37444e-19
4.2212e-19
7.14898e-19
3.19086e-19
3.3731e-19
1.0188e-18
2.10535e-19
7.20866e-19
4.11781e-19
1.04848e-19
2.7399e-19
3.83917e-19
3.35138e-19
3.75346e-19
3.94262e-19
3.07969e-19
1.54101e-19
2.56199e-19
1.32967e-18
7.6743e-19
7.68907e-19
9.3237e-19
3.1319e-19
6.30877e-19
1.06187e-18
1.00481e-18
5.19322e-19
3.50538e-19
6.33168e-19
5.58367e-19
1.30743e-18
1.86069e-18
6.08131e-19
3.38484e-19
7.86589e-19
1.13274e-18
7.1147e-19
7.5607e-19
8.32907e-19
8.43145e-19
1.52667e-19
4.06809e-19
1.03216e-19
5.47566e-19
7.43286e-19
5.09227e-19
3.99873e-19
3.87775e-19
5.05524e-19
2.75275e-19
5.48687e-19
2.19249e-19
2.07912e-19
2.83926e-19
7.27923e-19
1.96528e-19
7.38431e-19
1.15397e-18
6.49028e-19
1.05446e-19
4.77675e-19
4.06174e-19
1.61315e-18
5.90729e-19
5.2877e-19
6.79376e-19
8.21868e-19
3.27483e-19
8.4504e-19
1.15044e-18
1.3217e-18
1.08732e-18
2.08118e-19
1.1333e-18
6.68021e-19
6.21187e-19
9.50615e-19
1.7088e-18
1.18516e-18
5.82335e-19
7.58582e-19
8.13173e-19
3.07388e-19
3.20565e-19
1.25523e-19
3.60095e-19
3.70404e-19
1.47648e-19
2.33193e-19
2.08314e-19
5.84581e-19
4.59816e-19
2.04872e-19
4.63575e-19
6.09071e-19
2.37507e-19
2.44153e-19
5.80568e-19
5.52671e-19
2.92295e-19
8.39604e-19
9.73476e-19
1.20624e-18
7.80009e-19
5.14298e-19
7.25116e-19
6.12492e-19
3.76205e-19
8.11449e-19
1.42681e-18
1.22337e-18
1.04999e-18
3.79626e-19
5.75436e-19
9.99943e-19
6.33374e-19
7.19854e-19
8.77159e-19
4.71785e-19
5.18284e-19
3.33445e-19
4.08064e-19
7.61687e-19
8.36222e-19
5.03034e-19
3.75757e-19
5.57796e-19
8.5937e-19
5.42678e-19
9.19882e-20
4.3543e-19
4.12229e-19
1.85846e-19
1.97673e-19
5.35821e-19
4.14368e-19
2.8254e-19
3.08656e-19
3.25199e-19
7.40102e-19
8.32772e-19
3.53748e-19
3.92219e-19
3.05318e-19
6.12086e-19
5.90515e-19
1.73609e-19
7.25608e-19
8.71657e-19
5.16246e-19
5.26651e-19
2.23792e-19
4.47348e-19
1.21242e-18
2.10045e-19
6.17792e-19
3.82617e-19
1.10352e-18
5.86428e-19
6.35931e-19
2.80588e-19
3.38951e-19
5.24375e-19
6.84428e-19
2.86173e-19
2.55991e-19
1.88201e-19
2.4884e-19
1.59832e-19
5.44725e-19
2.66072e-19
6.56582e-19
4.56624e-19
6.6925e-19
3.45635e-19
5.55948e-19
9.49924e-19
2.67159e-19
4.89101e-19
1.48024e-18
1.09374e-18
6.41571e-19
5.65091e-19
6.042e-19
5.22732e-19
9.00235e-19
1.08756e-18
6.49653e-19
2.24902e-19
5.2962e-19
5.80311e-19
6.35911e-19
5.55494e-19
4.78486e-19
1.09917e-18
1.11543e-18
6.62249e-19
1.08203e-18
5.91169e-19
3.80382e-19
5.1626e-19
3.03955e-19
4.58972e-19
7.36384e-19
4.08469e-19
3.22124e-19
3.45315e-19
4.72058e-19
2.24431e-19
9.88642e-20
1.29711e-19
3.16647e-19
9.18529e-19
4.7174e-19
3.82396e-19
4.07905e-19
8.59495e-19
1.79999e-19
1.08319e-18
6.52921e-19
2.14337e-19
1.10685e-18
4.15108e-19
7.46534e-19
9.62474e-19
2.32364e-19
1.20181e-18
8.37486e-19
7.62781e-19
1.23939e-18
7.3851e-19
5.80744e-19
8.07666e-19
7.68528e-19
2.86083e-19
6.30648e-19
4.5216e-19
3.25678e-19
8.07368e-19
2.74154e-19
4.68689e-19
2.61589e-19
4.71491e-19
8.24428e-20
3.26144e-19
1.81311e-19
2.59873e-19
3.19829e-19
1.32677e-19
1.96666e-19
5.2164e-19
5.91971e-19
1.39436e-19
2.90981e-19
2.88216e-19
3.5438e-19
1.24102e-18
1.82423e-19
7.05161e-19
5.15413e-19
9.07727e-19
5.75655e-19
7.10536e-19
4.25619e-19
6.44501e-19
3.12445e-19
5.20741e-19
1.58389e-18
3.71918e-19
5.38765e-19
1.19e-18
1.51633e-18
8.42631e-19
2.6014e-19
7.2059e-19
3.6066e-19
5.68493e-19
5.12109e-19
1.70639e-19
2.7714e-19
2.10057e-19
1.55128e-19
1.04234e-18
3.24946e-19
1.36606e-19
2.71431e-19
2.62715e-19
1.85184e-19
4.39633e-19
4.26237e-19
6.49282e-19
8.23983e-19
2.77742e-19
6.14102e-19
5.2772e-19
4.90552e-19
9.49866e-19
1.3996e-18
4.08093e-19
1.37949e-18
5.92209e-19
1.07884e-18
1.91415e-19
5.59905e-19
1.80909e-19
1.07339e-18
5.88714e-19
1.38156e-18
4.82482e-19
5.10117e-19
3.41018e-19
1.06827e-18
7.57134e-19
7.90964e-19
3.54355e-19
1.17466e-18
5.28678e-19
4.66651e-19
5.72565e-19
5.69033e-19
3.47761e-19
2.05909e-19
1.76575e-19
3.43033e-19
3.45197e-19
8.88399e-20
6.35459e-19
3.14508e-19
1.73892e-19
6.56249e-19
6.20906e-19
3.36244e-19
6.93725e-19
3.84583e-19
6.71746e-19
2.51868e-19
1.11437e-18
5.79682e-19
4.36736e-19
3.77394e-19
6.14003e-19
5.11313e-19
1.2921e-18
6.08402e-19
9.97149e-19
1.68068e-18
9.05708e-19
2.24548e-19
5.4435e-19
1.38152e-18
3.78377e-19
3.79551e-19
5.02998e-19
5.44716e-19
9.14846e-19
1.98087e-19
4.24272e-19
7.62079e-19
8.456e-19
5.18512e-19
6.49563e-19
1.88241e-19
3.73352e-19
1.57122e-19
1.56619e-19
4.83561e-20
3.06181e-19
2.27206e-19
2.6403e-19
8.18056e-19
3.93673e-19
6.42297e-19
1.65928e-19
1.48994e-19
8.33346e-19
8.57536e-19
1.92418e-19
1.30149e-19
4.25762e-19
7.67563e-19
2.19182e-19
6.07345e-19
6.76797e-19
4.21211e-19
1.23686e-18
1.17921e-18
1.23555e-18
4.05312e-19
3.75716e-19
7.39967e-19
7.93798e-19
7.7132e-19
8.42842e-19
6.97133e-19
5.03415e-19
4.70192e-19
6.82314e-19
2.69528e-19
3.69681e-19
3.01128e-19
1.85663e-19
2.82748e-19
4.3007e-19
2.76669e-19
8.19346e-20
3.83358e-19
4.45627e-19
3.26299e-19
3.8148e-19
1.41165e-19
5.66883e-19
5.41214e-19
4.86085e-19
9.24569e-19
7.71976e-19
1.69983e-19
2.2706e-19
3.65246e-19
1.28549e-18
3.43235e-19
6.89622e-19
6.11499e-19
1.42938e-18
5.37993e-19
1.60906e-19
3.5998e-19
7.24304e-19
9.56712e-19
4.55995e-19
3.83265e-19
8.13029e-19
1.08337e-18
1.06805e-18
4.89578e-19
5.19511e-19
2.86867e-19
3.77403e-19
2.47565e-19
4.88731e-19
6.49144e-19
2.97134e-19
2.76852e-19
1.99741e-19
4.18447e-19
3.02091e-19
4.67332e-19
6.11874e-19
1.15827e-18
4.08791e-19
6.60092e-19
2.23208e-19
4.67846e-19
9.06626e-19
1.10373e-18
2.91389e-19
1.42748e-19
7.40973e-20
2.54823e-19
2.6013e-19
4.68462e-19
1.03449e-18
6.67361e-19
2.08337e-18
5.74797e-19
3.60396e-19
1.14953e-18
6.6593e-19
1.2416e-18
3.84957e-19
7.27595e-19
8.75068e-19
6.15015e-19
5.42352e-19
2.73649e-19
3.79703e-19
1.27707e-19
3.80437e-19
3.82297e-19
3.18182e-19
1.80979e-19
3.10895e-19
6.55154e-20
2.90078e-19
3.72377e-19
2.86234e-19
3.1611e-19
1.12671e-18
5.93172e-19
1.21406e-19
6.51932e-19
5.33779e-19
5.79352e-19
1.59687e-18
1.94017e-19
1.94018e-19
2.59178e-19
3.23166e-19
1.23333e-18
6.07679e-19
5.33085e-19
1.53759e-18
1.15168e-18
1.05784e-18
7.09972e-19
1.21298e-18
4.98236e-19
5.73734e-19
4.37771e-19
5.24886e-19
5.64152e-19
5.8178e-19
1.28098e-18
8.5431e-19
2.00555e-19
4.61952e-19
1.64145e-19
2.63336e-19
3.41899e-19
3.4014e-19
2.89129e-19
1.64777e-19
1.98124e-19
5.13909e-19
1.75221e-19
1.84803e-19
8.35445e-19
1.63219e-19
6.99079e-19
2.80459e-19
3.57133e-19
4.68516e-19
4.49636e-19
3.43954e-19
2.10087e-19
5.75439e-19
2.19169e-19
7.06333e-19
5.02722e-19
4.66603e-19
1.05547e-18
2.48339e-19
8.92117e-19
5.38992e-19
8.75487e-19
1.65665e-18
8.68423e-19
9.38849e-19
3.65946e-19
5.61415e-19
4.439e-19
4.13949e-19
6.34582e-19
5.2828e-19
2.18561e-19
4.82137e-19
3.03109e-19
2.35627e-19
4.83487e-19
3.06365e-19
1.78075e-19
1.59404e-19
2.30833e-19
1.03997e-19
1.29641e-19
5.85975e-19
2.51364e-19
5.71841e-19
7.61816e-19
7.63182e-19
1.15803e-18
2.43934e-18
4.26143e-19
3.73904e-19
1.76847e-19
1.18045e-18
7.77406e-19
1.43823e-19
1.61539e-18
1.79782e-18
7.08547e-19
1.17411e-18
1.41002e-18
7.03477e-19
3.04774e-19
1.12142e-18
1.21243e-18
6.09687e-19
4.29305e-19
6.9296e-19
5.47987e-19
6.75489e-19
7.57818e-19
5.15718e-19
1.64922e-19
5.3085e-19
1.67978e-19
2.6841e-19
1.41753e-19
5.09749e-20
2.45285e-19
1.49809e-19
2.62237e-19
4.3912e-19
5.02522e-19
6.03856e-19
1.51318e-19
2.51489e-19
1.91252e-19
4.70033e-19
1.046e-18
3.85748e-19
2.3176e-19
4.44711e-19
5.23969e-19
6.38187e-19
9.42449e-19
5.02809e-19
4.16833e-19
6.56846e-19
4.63414e-19
6.6667e-19
4.67311e-20
4.19505e-19
3.54122e-19
1.12346e-18
2.2424e-19
9.92554e-19
5.54389e-19
6.35729e-19
3.97854e-19
6.33208e-19
3.10823e-19
3.12749e-19
1.25588e-19
1.53634e-19
1.38019e-19
1.84395e-19
3.42226e-19
2.44569e-19
3.84987e-19
1.99148e-19
5.03711e-19
8.92577e-19
2.68277e-19
4.31911e-19
3.30717e-19
5.41818e-19
8.15429e-19
9.72474e-19
2.40492e-19
1.31821e-19