/*--------------------------------*- C++ -*----------------------------------*\
| =========                 |                                                 |
| \\      /  F ield         | OpenFOAM: The Open Source CFD Toolbox           |
|  \\    /   O peration     | Version:  2506                                  |
|   \\  /    A nd           | Website:  www.openfoam.com                      |
|    \\/     M anipulation  |                                                 |
\*---------------------------------------------------------------------------*/
FoamFile
{
    version     2.0;
    format      ascii;
    arch        "LSB;label=32;scalar=64";
    class       volScalarField;
    location    "0.3";
    object      Uy;
}
// * * * * * * * * * * * * * * * * * * * * * * * * * * * * * * * * * * * * * //

dimensions      [0 1 -1 0 0 0 0];

internalField   nonuniform List<scalar> 
400
(
-0.000250385
0.000111435
0.000564558
0.000884901
0.00104561
0.00106164
0.000957754
0.000760364
0.000494598
0.000184546
-0.000145251
-0.000468321
-0.000755347
-0.000974182
-0.0010911
-0.00107392
-0.000898055
-0.000556355
-9.03727e-05
0.000262354
-0.000169311
0.00164472
0.00361702
0.00503441
0.00574276
0.00575974
0.00517126
0.00409219
0.00264744
0.00096687
-0.000813134
-0.00254685
-0.00407831
-0.00524471
-0.00588614
-0.00586445
-0.00509442
-0.0035892
-0.00155906
0.000227417
0.00109156
0.00573588
0.0102237
0.0134067
0.0149451
0.0148377
0.0132547
0.0104554
0.00674152
0.00243873
-0.00210632
-0.00652492
-0.0104284
-0.0134201
-0.0151224
-0.0152246
-0.0135551
-0.0101783
-0.00555075
-0.000948798
0.0034796
0.0122198
0.0199203
0.025196
0.027595
0.0271355
0.0241072
0.0189525
0.0121947
0.00440484
-0.0038076
-0.0117956
-0.0188807
-0.0243745
-0.0276257
-0.0280998
-0.025496
-0.0198904
-0.011927
-0.00322468
0.00687731
0.0209522
0.0325081
0.0401004
0.0432872
0.0421898
0.0372749
0.029211
0.018776
0.00681337
-0.00577982
-0.0180533
-0.0290092
-0.03763
-0.042942
-0.0441259
-0.0406761
-0.0325904
-0.0205893
-0.00649776
0.0112148
0.0318724
0.0479485
0.0580679
0.0619327
0.0598768
0.0526245
0.0411229
0.0264353
0.00969238
-0.00791551
-0.02513
-0.0406218
-0.0530154
-0.0609618
-0.0632756
-0.059138
-0.0483412
-0.0315556
-0.0107279
0.0164759
0.0449711
0.0662287
0.0790538
0.0834403
0.0800683
0.0700193
0.0545809
0.0351293
0.013084
-0.0100854
-0.0328299
-0.0534955
-0.0703316
-0.0815594
-0.0855268
-0.0809583
-0.0672727
-0.0449367
-0.0159506
0.0226934
0.0602968
0.0873577
0.102989
0.107658
0.102554
0.0892378
0.069406
0.0447687
0.017019
-0.0121322
-0.0408898
-0.0673092
-0.0892667
-0.104505
-0.110789
-0.106206
-0.089574
-0.0609459
-0.0222763
0.0299451
0.0779517
0.111349
0.129741
0.134308
0.126965
0.109895
0.085276
0.0551636
0.021486
-0.0138732
-0.0489527
-0.0815874
-0.109316
-0.129373
-0.13882
-0.134879
-0.115463
-0.079891
-0.029888
0.0383574
0.0980838
0.138181
0.159036
0.162891
0.152663
0.131333
0.101634
0.0659538
0.0263885
-0.015111
-0.056541
-0.0956354
-0.129681
-0.155414
-0.169088
-0.166794
-0.145117
-0.102155
-0.0390454
0.0481264
0.120888
0.167744
0.190356
0.192547
0.178605
0.152504
0.117586
0.0765311
0.0314933
-0.0156571
-0.063046
-0.108484
-0.149162
-0.181406
-0.200597
-0.201415
-0.178566
-0.128168
-0.0501025
0.059569
0.146612
0.199748
0.222781
0.221882
0.203179
0.171832
0.131804
0.0859662
0.0363754
-0.0153689
-0.0677388
-0.11886
-0.16607
-0.205479
-0.231652
-0.237616
-0.215518
-0.158363
-0.0635502
0.0732265
0.175558
0.233564
0.254738
0.248722
0.224018
0.1871
0.142456
0.0929654
0.0403781
-0.014197
-0.0698173
-0.125205
-0.178173
-0.224965
-0.259579
-0.273321
-0.25506
-0.193086
-0.0801024
0.0900448
0.208016
0.267878
0.283599
0.269803
0.237833
0.195398
0.147228
0.0959061
0.0426186
-0.0122318
-0.0685039
-0.125789
-0.182763
-0.236317
-0.280439
-0.305018
-0.295153
-0.232373
-0.100835
0.111634
0.243958
0.300029
0.305087
0.280454
0.240376
0.193276
0.143545
0.0930332
0.0420941
-0.0097279
-0.0632086
-0.118986
-0.176952
-0.235279
-0.288876
-0.32719
-0.331789
-0.2754
-0.127346
0.140658
0.282143
0.324715
0.312469
0.274451
0.226766
0.177284
0.129132
0.0829107
0.0379462
-0.0070729
-0.0537567
-0.103749
-0.158316
-0.217498
-0.278356
-0.331787
-0.357679
-0.319292
-0.161973
0.181711
0.31777
0.33136
0.295398
0.244209
0.192377
0.145044
0.102969
0.0651364
0.0298909
-0.00467121
-0.0406273
-0.0802447
-0.125915
-0.179724
-0.242018
-0.307875
-0.360141
-0.356607
-0.208374
0.239176
0.335767
0.300502
0.240126
0.182947
0.135388
0.0973974
0.0668498
0.0413545
0.0187783
-0.00279396
-0.0252645
-0.0507867
-0.0820468
-0.122444
-0.175668
-0.24343
-0.319135
-0.368611
-0.267618
0.281861
0.294972
0.210972
0.143476
0.0971853
0.0657768
0.0442369
0.0288855
0.0171986
0.00748468
-0.00149402
-0.010845
-0.0218466
-0.0363344
-0.057259
-0.0893835
-0.139741
-0.216386
-0.311655
-0.299995
0.146091
0.127503
0.0760895
0.0437232
0.025572
0.0152421
0.00921222
0.00550932
0.00302713
0.00114933
-0.000499356
-0.002215
-0.00433847
-0.00742398
-0.0125321
-0.0217727
-0.0392828
-0.0726601
-0.127868
-0.149468
)
;

boundaryField
{
    movingWall
    {
        type            calculated;
        value           uniform 0;
    }
    fixedWalls
    {
        type            calculated;
        value           uniform 0;
    }
    frontAndBack
    {
        type            empty;
    }
}


// ************************************************************************* //
