/*--------------------------------*- C++ -*----------------------------------*\
| =========                 |                                                 |
| \\      /  F ield         | OpenFOAM: The Open Source CFD Toolbox           |
|  \\    /   O peration     | Version:  2506                                  |
|   \\  /    A nd           | Website:  www.openfoam.com                      |
|    \\/     M anipulation  |                                                 |
\*---------------------------------------------------------------------------*/
FoamFile
{
    version     2.0;
    format      ascii;
    arch        "LSB;label=32;scalar=64";
    class       volScalarField;
    location    "79.990692747563429";
    object      mag(vorticity);
}
// * * * * * * * * * * * * * * * * * * * * * * * * * * * * * * * * * * * * * //

dimensions      [0 0 -1 0 0 0 0];

internalField   nonuniform List<scalar> 
9700
(
2.89674e-05
2.49409e-05
0.000102759
7.85511e-05
0.000211358
7.8969e-05
0.000122323
0.000210267
0.000192257
4.91199e-05
0.000234131
0.00028404
0.00018131
0.000186462
2.25878e-05
0.000444702
0.000372894
0.000276656
0.000190408
0.000164932
4.17181e-06
0.000669351
0.000502124
0.000324248
0.000235173
0.000170841
0.000160623
1.89977e-05
0.000702456
0.000666391
0.000341301
0.000299491
0.000234254
0.000172466
0.0001586
4.21765e-05
5.36433e-05
0.000857631
0.000394486
0.000360904
0.000318117
0.000247616
0.000160396
0.000125666
6.02778e-05
0.000886497
0.00106881
0.000403199
0.000417467
0.000372991
0.000289206
0.000221441
0.000160042
0.000124508
6.80577e-05
0.00163626
0.0013644
0.000354265
0.000466868
0.000389013
0.000353501
0.000304094
0.000265246
0.00019818
0.000124726
7.65716e-05
0.00267548
0.00174843
0.00030264
0.000460797
0.00040261
0.000395007
0.000372806
0.000323374
0.000254707
0.000186252
9.54066e-05
6.64023e-05
0.00410015
0.00215221
0.000172052
0.000425707
0.000429336
0.000406714
0.00038815
0.000365644
0.000311187
0.000259409
0.000199893
9.81338e-05
6.66795e-05
0.00735505
0.00257235
2.30859e-05
0.000386921
0.000416687
0.000434863
0.000405956
0.000401004
0.000390086
0.000334167
0.00030056
0.000193145
9.63316e-05
6.08472e-05
0.00739944
0.00345179
0.000241465
0.000337884
0.000321639
0.000397707
0.000417949
0.000421056
0.000427398
0.000399132
0.000363542
0.000323224
0.000207958
7.20898e-05
3.40648e-05
0.0053682
0.00390714
0.000860943
0.000224884
0.000249411
0.000331599
0.00038755
0.000420355
0.000438288
0.000458083
0.000416505
0.000387258
0.000310011
0.000230369
9.6059e-05
4.73051e-06
0.0266993
0.00740545
0.00210675
0.000253755
3.85777e-05
0.000232086
0.00035439
0.000389445
0.000433687
0.00047635
0.000461537
0.000433426
0.000426511
0.000371769
0.000259768
0.000114773
7.20602e-06
0.0568404
0.0290539
0.00388724
0.00181583
0.00090322
0.00022355
0.000160387
0.000342145
0.000440129
0.000451502
0.000512675
0.000514973
0.000493359
0.000459519
0.000366827
0.000261172
9.26659e-05
4.35144e-05
0.11438
0.0757415
0.00317419
0.00462945
0.00333418
0.00187606
0.000686601
1.77367e-05
0.000343829
0.000462909
0.000507173
0.00053755
0.000528297
0.000517118
0.000464304
0.000372972
0.000283902
0.000107271
6.63983e-05
0.112725
0.157923
0.0123854
0.00729718
0.00733933
0.00530937
0.00316918
0.00138811
0.000308517
0.000292312
0.000506554
0.000552337
0.000578389
0.000561079
0.000556649
0.000511611
0.000428383
0.000298019
0.000114911
8.51208e-05
0.0393871
0.242061
0.0557
0.00443494
0.0124373
0.0101747
0.00737683
0.00456414
0.00230106
0.000782448
0.000179953
0.000565942
0.000636494
0.000607939
0.000623097
0.000604245
0.00053105
0.000439759
0.000315342
0.000117414
9.34504e-05
0.272981
0.24293
0.129055
0.0153718
0.0173374
0.0166928
0.0128725
0.00868249
0.00542938
0.00319471
0.00141824
1.71772e-05
0.000607838
0.000710749
0.000669534
0.000648349
0.000616603
0.000550429
0.000447006
0.00032126
0.000116785
0.000117554
0.442836
0.0977008
0.200371
0.0670123
0.0172774
0.0265072
0.0216171
0.0144227
0.00823687
0.00516984
0.00374577
0.00209902
0.000287438
0.000637176
0.000763514
0.00070586
0.000710803
0.000641244
0.000561502
0.000462344
0.000325504
0.000140726
0.000121861
0.498924
0.187802
0.200674
0.15054
0.0024513
0.0382975
0.0384291
0.0275329
0.0144134
0.00536305
0.00316243
0.00368029
0.00273886
0.000524757
0.000692683
0.000811337
0.000754334
0.000724403
0.000661313
0.000574141
0.000475313
0.0003181
0.00017311
0.000119463
0.50489
0.397099
0.103924
0.222462
0.0607087
0.0423941
0.0616104
0.0557768
0.0355859
0.0130837
9.2484e-05
0.000787861
0.00292776
0.00321267
0.000688096
0.000740756
0.000839783
0.000817602
0.000768084
0.000698592
0.000599634
0.000458104
0.000342484
0.000154911
0.000109341
0.467878
0.419804
0.0706313
0.23741
0.155657
0.0213424
0.0819357
0.0943933
0.0803233
0.0472536
0.0112253
0.00759919
0.00623059
0.00174731
0.00349115
0.000711655
0.00078561
0.000893403
0.000839769
0.000793244
0.000683898
0.000588752
0.000439906
0.000332047
0.000174072
0.000107674
0.416513
0.450789
0.190019
0.136003
0.24947
0.0525265
0.0879387
0.130506
0.139092
0.112355
0.0628846
0.00923089
0.016442
0.0120272
0.000637376
0.00354622
0.000562402
0.000830897
0.000895541
0.000847669
0.000781301
0.000705585
0.000577753
0.00043844
0.000323744
0.000158748
8.47506e-05
0.355239
0.446643
0.235557
0.0299716
0.266456
0.155222
0.0575078
0.154387
0.19459
0.193512
0.149079
0.0797192
0.00621909
0.0257599
0.0169195
6.81505e-05
0.00337269
0.000257761
0.000926803
0.000921692
0.000880598
0.000807092
0.000683602
0.000549333
0.00041454
0.00029305
0.000160537
9.07229e-05
0.276495
0.403279
0.272796
0.0393154
0.225436
0.267365
0.0160911
0.154038
0.235626
0.271566
0.251245
0.184212
0.0921778
0.000709867
0.0348337
0.0198177
0.000317669
0.00295178
0.000125786
0.000964636
0.000952263
0.000871339
0.000787566
0.00068114
0.000529802
0.000414206
0.000295581
0.000165377
6.64881e-05
0.201199
0.33223
0.219364
0.0588497
0.173959
0.309311
0.154398
0.115045
0.253345
0.333164
0.352781
0.303052
0.209751
0.0991961
0.0144774
0.0429226
0.020106
0.00118481
0.00231161
0.000490716
0.000998546
0.000951508
0.000893025
0.000770872
0.000648447
0.000518507
0.000379114
0.000253764
0.000163583
4.82639e-05
0.0710168
0.241385
0.182408
0.0520997
0.149784
0.324184
0.271375
0.0158491
0.240329
0.368259
0.437299
0.426701
0.339636
0.220233
0.0726933
0.0325971
0.0490095
0.0175677
0.00219029
0.00144053
0.000749312
0.00100595
0.000929575
0.000856677
0.000747984
0.000609018
0.000462924
0.000334662
0.000239001
0.0001254
2.58302e-05
0.0437033
0.174354
0.128318
0.0370837
0.151991
0.316249
0.362213
0.11942
0.181551
0.372606
0.493876
0.534025
0.481666
0.335435
0.221532
0.0317131
0.0513843
0.0512168
0.0127431
0.00271246
0.000580549
0.000890142
0.000974915
0.000920845
0.000819462
0.000698261
0.000541323
0.000422598
0.000293549
0.000210565
0.000118039
5.35977e-06
0.126412
0.102631
0.0472992
0.00574424
0.181928
0.320476
0.403519
0.258264
0.0766639
0.337766
0.516608
0.614866
0.609773
0.508124
0.322888
0.163097
2.64116e-05
0.0695549
0.0478078
0.00697089
0.00250407
0.000154392
0.000972622
0.000948484
0.000886701
0.000767799
0.000634331
0.000518231
0.00037742
0.000277397
0.000179104
0.00011547
2.24894e-05
0.142486
0.00901051
0.0258136
0.0795491
0.235832
0.346891
0.429151
0.358568
0.0535371
0.265019
0.496852
0.659573
0.714513
0.653991
0.508314
0.293741
0.107003
0.040401
0.0821998
0.038575
0.00201107
0.0016486
0.000638468
0.000945717
0.000920043
0.000825129
0.000728687
0.000598214
0.000466463
0.000343132
0.000243422
0.000157487
6.7616e-05
3.59069e-05
0.160133
0.106989
0.123987
0.184813
0.310959
0.396549
0.461956
0.430045
0.178424
0.192593
0.444641
0.65749
0.781663
0.778676
0.660163
0.480678
0.252019
0.041304
0.0823399
0.0835182
0.0257761
0.000952945
0.000624368
0.000856266
0.000903582
0.000862895
0.000783856
0.000646812
0.000538827
0.000423679
0.000297461
0.000199492
0.000134464
6.4417e-05
4.5718e-05
0.219472
0.18582
0.231673
0.310091
0.401163
0.464693
0.522771
0.49207
0.291726
0.106433
0.364667
0.626017
0.805053
0.865937
0.797486
0.625019
0.403629
0.160975
0.0322496
0.111973
0.0719069
0.0131419
0.00172583
0.000198042
0.000872474
0.000860191
0.0008069
0.000687634
0.000568777
0.000449477
0.000345876
0.00027048
0.00020033
0.000143219
2.75273e-05
4.87975e-05
0.278119
0.23925
0.343258
0.419729
0.497918
0.544472
0.569275
0.551782
0.409266
0.0180428
0.272935
0.55981
0.799086
0.92059
0.902036
0.766519
0.549315
0.299951
0.0614605
0.0986318
0.120788
0.0512708
0.00400295
0.00114488
0.000605159
0.000852661
0.000791933
0.00073471
0.000614645
0.000496343
0.000411749
0.000314709
0.000244975
0.00017878
0.000117078
1.58011e-05
4.4011e-05
0.356608
0.367587
0.469609
0.525192
0.590174
0.629378
0.636558
0.608387
0.459707
0.198882
0.179204
0.478591
0.742985
0.935516
0.981452
0.883961
0.686161
0.438587
0.180253
0.0395255
0.144627
0.107393
0.0288538
0.000454294
0.000226243
0.00069339
0.000751018
0.000719587
0.000643374
0.000533674
0.000454544
0.000353238
0.000271107
0.00019898
0.00015418
9.96183e-05
1.18563e-05
3.21453e-05
0.396574
0.475731
0.58087
0.625382
0.67731
0.706136
0.707983
0.665902
0.541838
0.254358
0.0503012
0.387135
0.667893
0.889362
1.00683
0.976707
0.802623
0.562966
0.30192
0.0506359
0.127989
0.160017
0.0779959
0.0114911
0.00137136
0.000321631
0.000644572
0.000663251
0.000606708
0.000543045
0.00044459
0.00036778
0.000299059
0.000245365
0.000170713
0.000157766
0.000101253
1.59722e-05
3.14905e-05
0.395655
0.5157
0.63201
0.706973
0.744991
0.777011
0.770637
0.721877
0.599352
0.336711
0.0183749
0.252668
0.587019
0.819266
0.972084
1.00169
0.890341
0.665319
0.41026
0.150753
0.0751639
0.186485
0.142542
0.0444361
0.00201149
0.000797829
0.00045443
0.000523398
0.000540477
0.000506984
0.000437112
0.000373033
0.000309459
0.000269265
0.000230172
0.000181971
0.000158884
9.81202e-05
1.55325e-06
1.18493e-06
0.344722
0.49134
0.62162
0.71809
0.811115
0.823495
0.814248
0.769154
0.644087
0.402379
0.0941924
0.0928225
0.50148
0.748403
0.917251
0.977355
0.922932
0.737917
0.496204
0.2422
0.00259641
0.178387
0.202383
0.101787
0.0181094
0.0010701
0.000200773
0.00033584
0.000397586
0.000420732
0.000410427
0.000369155
0.000312318
0.000279029
0.000243561
0.000219473
0.00018628
0.00015758
0.000126185
1.82673e-05
1.34464e-05
0.244129
0.414495
0.555787
0.680372
0.785198
0.856837
0.85738
0.791036
0.675776
0.447633
0.165907
0.0275001
0.412139
0.669102
0.859546
0.953417
0.92292
0.777979
0.553171
0.313142
0.069163
0.142885
0.238703
0.175586
0.0558918
0.00385547
0.00103709
2.25727e-05
0.000178259
0.000271216
0.00031543
0.00032005
0.000295469
0.00025846
0.000256722
0.000243381
0.000201896
0.00020775
0.000183885
0.000116885
1.13154e-05
3.07469e-05
0.147155
0.301193
0.447004
0.589193
0.716292
0.80788
0.840796
0.823474
0.686994
0.47519
0.237387
0.125814
0.316904
0.592032
0.786555
0.905624
0.91774
0.798449
0.57705
0.356035
0.125687
0.0972455
0.249189
0.242708
0.121498
0.0216239
0.000696657
0.000363181
2.07034e-05
6.05445e-05
0.000120328
0.000188759
0.000220802
0.000234264
0.000235206
0.000232312
0.000226606
0.00022649
0.000221682
0.000204813
0.000134725
5.16667e-05
4.67332e-05
0.0694881
0.186065
0.307039
0.456324
0.598336
0.711483
0.784924
0.772368
0.690612
0.487039
0.297901
0.186586
0.228079
0.517275
0.714661
0.842285
0.878276
0.797131
0.582194
0.368489
0.160273
0.0578068
0.239516
0.298963
0.196469
0.0634499
0.00478164
0.000791177
2.94087e-05
4.65964e-05
1.88539e-05
3.99116e-05
0.000107717
0.000160581
0.00018739
0.000219493
0.000259715
0.000245213
0.000259014
0.000274879
0.000245066
0.000191126
6.99927e-05
5.52298e-05
0.00940721
0.0831234
0.172889
0.296249
0.441855
0.571022
0.663743
0.695513
0.646928
0.483872
0.340055
0.21595
0.156821
0.444873
0.647008
0.777464
0.825611
0.772096
0.581701
0.294228
0.177486
0.0336905
0.226511
0.332625
0.280633
0.128109
0.0225434
0.00123935
0.000619801
0.000372759
0.0002248
6.40661e-05
1.29047e-05
3.7582e-05
0.000115023
0.000171801
0.000233297
0.000278651
0.000300121
0.000303074
0.000300466
0.000272984
0.000224114
6.80789e-05
6.64029e-05
0.0114536
0.00659762
0.0661399
0.146829
0.243591
0.4048
0.506876
0.569001
0.562425
0.443322
0.340658
0.214209
0.109944
0.380093
0.584125
0.714272
0.766424
0.728765
0.570951
0.288126
0.177594
0.0275268
0.221305
0.358478
0.352394
0.207452
0.0649989
0.00299898
0.00327594
0.00240752
0.00183822
0.000893578
0.000226908
2.35199e-06
4.11944e-05
9.42175e-05
0.000175347
0.000251328
0.000297436
0.000321524
0.000334887
0.000336629
0.000300472
0.000243167
9.68842e-05
7.57109e-05
0.00710219
0.0194491
0.00837117
0.0581687
0.12935
0.188504
0.337509
0.406126
0.434341
0.397898
0.298026
0.165824
0.0847185
0.329335
0.52627
0.654045
0.704454
0.671588
0.541769
0.272745
0.166916
0.0305458
0.240395
0.378049
0.42207
0.296326
0.116855
0.0213287
0.00481307
0.00771299
0.00731395
0.00503853
0.00233187
0.000642983
1.98643e-05
0.000100056
0.000115591
0.000193703
0.000285292
0.000351246
0.000389007
0.000406792
0.000393061
0.000364299
0.000285046
0.000116293
9.57331e-05
0.000882041
0.0112977
0.0307333
0.0235607
0.0136428
0.0875284
0.156802
0.228651
0.274804
0.272648
0.21275
0.099368
0.0795521
0.297135
0.478288
0.594868
0.639902
0.605369
0.492009
0.257908
0.14845
0.02055
0.261087
0.430279
0.46977
0.394761
0.195043
0.0465218
0.00381998
0.0149162
0.0177999
0.0156045
0.0101871
0.00485301
0.00150609
7.1891e-05
0.000203251
0.000188357
0.00023529
0.000343253
0.000420071
0.000462506
0.000470074
0.000434513
0.000388795
0.000298381
0.000161811
9.33034e-05
0.00292081
0.000975422
0.0167518
0.0380932
0.0450176
0.0336283
0.00675642
0.0665565
0.109191
0.125689
0.0982942
0.0226778
0.0981667
0.271739
0.4402
0.543378
0.571275
0.531465
0.425268
0.238116
0.0960384
0.0149046
0.283949
0.46164
0.559918
0.474704
0.290676
0.094261
0.00190649
0.023279
0.0323805
0.0332482
0.0262567
0.0165216
0.00820681
0.00291576
0.000330917
0.000282688
0.000239639
0.000307039
0.000423956
0.000471226
0.000517441
0.000504078
0.000481828
0.000426397
0.000334512
0.00017985
9.98618e-05
0.00141979
0.00379566
0.000748228
0.0186085
0.0431411
0.0618992
0.0635718
0.0444975
0.0230874
0.00964924
0.0212865
0.0657911
0.146581
0.254024
0.384822
0.483861
0.501707
0.449346
0.346624
0.19853
0.0489988
0.0482624
0.312055
0.485403
0.616134
0.585605
0.394219
0.161044
0.0200865
0.0319911
0.0512117
0.0580793
0.0513334
0.036456
0.0219752
0.0114803
0.00469005
0.000737195
0.000385301
0.000339219
0.00039347
0.000499876
0.000556715
0.000607225
0.000572266
0.000523419
0.000447725
0.000335841
0.000192945
8.6763e-05
0.000311678
0.00113515
0.00334284
0.00113071
0.018226
0.0442303
0.0693681
0.0841242
0.090985
0.0970673
0.109486
0.139934
0.18868
0.25976
0.330581
0.39108
0.412335
0.360002
0.260697
0.132707
0.0104486
0.111003
0.349475
0.514752
0.640298
0.693815
0.495941
0.257244
0.0517862
0.035434
0.0751092
0.093238
0.090482
0.0683989
0.0426534
0.023969
0.0134759
0.00639552
0.00116567
0.000433735
0.000406943
0.000478385
0.000577655
0.000647497
0.000641238
0.000618121
0.000542546
0.000460888
0.000325342
0.000204382
7.88433e-05
0.000158217
0.000862552
0.00119508
0.00306437
0.000681125
0.0157937
0.0406274
0.0685757
0.0944642
0.11864
0.141482
0.168399
0.203914
0.242326
0.29052
0.310226
0.302248
0.2614
0.173117
0.0601492
0.0712122
0.181438
0.39053
0.55194
0.672083
0.737913
0.649808
0.338667
0.113752
0.0312196
0.0972074
0.138409
0.148765
0.12716
0.0818297
0.0422945
0.0207964
0.0135605
0.0076324
0.00143701
0.000492866
0.000494812
0.000581231
0.000664522
0.000722159
0.000725385
0.000658874
0.000566092
0.000464913
0.000335276
0.000223133
0.000121113
0.000398337
0.00130073
0.00050411
0.000923509
0.00281527
8.74224e-05
0.0118263
0.0331585
0.0602314
0.0898905
0.119193
0.147458
0.174504
0.20067
0.219465
0.233239
0.216502
0.16496
0.0913814
0.00880013
0.130617
0.242288
0.436712
0.595999
0.701046
0.777682
0.732121
0.470286
0.173043
0.00652004
0.114158
0.18293
0.221287
0.213493
0.164819
0.0909207
0.0350261
0.0129139
0.0120507
0.00820256
0.00138118
0.000542119
0.000573117
0.000689762
0.000769787
0.000782604
0.000766863
0.000668707
0.000594012
0.000448946
0.000334196
0.000219132
7.8312e-05
0.000503915
0.00124709
0.000792204
0.000724126
0.000706619
0.00239766
0.000951297
0.00724879
0.0233118
0.0455315
0.0709772
0.0961346
0.119219
0.136181
0.14497
0.148374
0.129982
0.0924691
0.021768
0.0688018
0.184714
0.32828
0.488897
0.646628
0.77136
0.796265
0.7748
0.603255
0.261872
0.0269712
0.117102
0.223139
0.293819
0.314639
0.278668
0.200553
0.0930125
0.0221258
0.00270445
0.0101754
0.00799596
0.0010334
0.000600319
0.000681611
0.00077643
0.000854232
0.00083663
0.0008062
0.000697151
0.000550621
0.000438332
0.000318437
0.000210747
3.42743e-05
0.000552862
0.00113448
0.000691299
0.000971472
0.000705791
0.000359412
0.00183314
0.00155844
0.00314038
0.0133563
0.0282746
0.0453254
0.0614663
0.074347
0.0798777
0.0770765
0.064872
0.0274931
0.0265442
0.117105
0.233012
0.379502
0.543004
0.702091
0.828917
0.887606
0.827622
0.683654
0.373318
0.0816045
0.10775
0.248138
0.363326
0.418309
0.403833
0.330158
0.240889
0.0814494
0.00464494
0.00690197
0.00900869
0.006999
0.000438793
0.000647226
0.000773811
0.000894979
0.000907923
0.000897691
0.000802999
0.000677438
0.000542181
0.000421622
0.000291045
0.000188332
4.11078e-05
0.000528458
0.00103459
0.000605515
0.000874914
0.000932444
0.000817613
1.09681e-05
0.00118982
0.00164365
0.000304148
0.00549114
0.0133223
0.0221871
0.0295843
0.0333486
0.0315998
0.0184453
0.00550004
0.0595749
0.143468
0.269952
0.425461
0.596831
0.756297
0.885451
0.949325
0.914188
0.7625
0.482469
0.156233
0.0734336
0.260603
0.412166
0.519623
0.538048
0.467352
0.352346
0.192632
0.0617216
0.016109
0.0130434
0.00882142
0.00542496
9.63617e-05
0.000731435
0.000868332
0.000970868
0.000945339
0.000910508
0.000797328
0.000659542
0.000523208
0.000395308
0.000267456
0.000204687
3.67421e-05
0.000487942
0.0008974
0.00057076
0.000790058
0.000837211
0.000955304
0.00084206
0.000353242
0.000546707
0.00125004
0.00092866
0.000871543
0.0039125
0.00732101
0.00891575
0.00685153
6.38384e-05
0.0229564
0.0672743
0.152581
0.280954
0.453752
0.646275
0.80302
0.936974
1.00308
0.977257
0.83519
0.577032
0.243413
0.0246864
0.239443
0.453776
0.596955
0.66602
0.631302
0.491111
0.346924
0.17071
0.0299209
0.036597
0.0139099
0.00894418
0.00348729
0.00049832
0.000793854
0.000978094
0.0010036
0.00097569
0.000909589
0.000786649
0.000617532
0.000460725
0.000358719
0.000211903
0.000153597
4.02112e-05
0.00036175
0.00069012
0.000472171
0.000683794
0.000746891
0.000844971
0.000909265
0.000889162
0.000588188
2.33081e-05
0.000630733
0.000962592
0.000803501
8.02769e-05
0.000576857
0.00122268
0.00751997
0.0225257
0.0620946
0.141355
0.273039
0.447118
0.664807
0.85723
0.959717
1.05075
1.02805
0.899866
0.657283
0.331726
0.032493
0.20088
0.446363
0.685453
0.777518
0.774428
0.67866
0.521148
0.315032
0.128144
0.0128555
0.0515336
0.00961331
0.00822453
0.00166706
0.000720035
0.000908356
0.00106251
0.00102881
0.000989264
0.00087029
0.00072105
0.000563043
0.000424523
0.000291487
0.000200187
0.000132892
4.29437e-05
0.000215956
0.000464815
0.000365989
0.000583742
0.000681072
0.000768785
0.00084343
0.00089944
0.00087811
0.000719268
0.000406825
7.05097e-05
0.000513419
0.000814261
0.000835582
0.00177154
0.00658359
0.0182899
0.0479119
0.117743
0.242041
0.422063
0.626896
0.877072
0.999982
1.06045
1.06162
0.950834
0.724561
0.409859
0.0851143
0.15821
0.408614
0.687505
0.920954
0.92283
0.824183
0.66708
0.46126
0.242531
0.0603496
0.0571512
0.0556818
0.00244163
0.00622227
0.000336665
0.000861502
0.00101554
0.00109194
0.00105152
0.000947111
0.00082013
0.000687295
0.000517243
0.000367441
0.00024505
0.000168765
7.28868e-05
2.02158e-05
9.28875e-05
0.000180151
0.000251672
0.000475818
0.000559412
0.000671103
0.000776772
0.000818686
0.000887709
0.000864086
0.000787865
0.000598488
0.000296872
7.49042e-05
0.000351782
0.000737966
0.00361567
0.0123225
0.032676
0.08597
0.196921
0.366576
0.580862
0.795022
1.03698
1.05559
1.0775
0.973877
0.773051
0.46844
0.118464
0.112319
0.366703
0.644921
0.906853
1.08143
0.991948
0.805461
0.59158
0.35856
0.14853
0.0161557
0.0903199
0.0472817
0.00399209
0.00347278
0.000363616
0.000943861
0.00106337
0.00108736
0.00100695
0.000890235
0.000761583
0.000595063
0.00043567
0.000311832
0.000194638
0.000121317
5.66612e-05
2.42726e-05
9.99895e-05
6.56287e-06
0.000314073
0.000429598
0.000568396
0.000666162
0.000766452
0.000804732
0.000855655
0.000828627
0.000756941
0.000635341
0.000365446
0.000100226
0.000101344
0.00126656
0.00712944
0.0206823
0.0547271
0.141169
0.295112
0.499351
0.721314
0.925576
1.06485
1.03556
0.993317
0.791992
0.501582
0.15352
0.0653179
0.323394
0.600808
0.868198
1.03566
1.07728
0.952213
0.713461
0.46889
0.237004
0.0445446
0.0866108
0.102035
0.0304928
0.00696501
0.00105309
0.000670329
0.00102273
0.00107655
0.00106573
0.000960741
0.000814981
0.000664707
0.000525745
0.000367227
0.000252002
0.000179666
0.000100388
4.62299e-05
2.46074e-05
4.02123e-05
6.32418e-05
0.000308916
0.000447108
0.000569631
0.000661531
0.00073709
0.000785871
0.000797607
0.000769264
0.000705669
0.000576619
0.000345854
0.000111468
0.000234907
0.00304129
0.0125639
0.0318293
0.0867988
0.211854
0.399676
0.618512
0.818047
0.988244
0.985137
0.951448
0.792603
0.515337
0.169251
0.00644207
0.280633
0.558197
0.832075
1.03973
1.07217
0.963527
0.816104
0.564534
0.318998
0.104785
0.0579305
0.137691
0.0888766
0.0127625
0.00604809
0.000334048
0.00083673
0.00106525
0.00105756
0.00100176
0.000865077
0.000736345
0.000579885
0.000418897
0.000306764
0.000219078
0.000133055
6.60111e-05
4.12562e-05
3.73131e-05
7.76627e-05
8.43517e-05
0.000312381
0.00045703
0.000551357
0.000658652
0.000709464
0.0007544
0.000781836
0.000732538
0.000662197
0.000507738
0.000272541
6.00285e-05
0.000797301
0.00612154
0.018949
0.0460891
0.12993
0.289468
0.493279
0.701937
0.857161
0.960799
0.872102
0.765788
0.513598
0.188193
0.0603143
0.21473
0.519388
0.797211
1.0262
1.13493
1.06095
0.850787
0.639385
0.386652
0.157344
0.0279079
0.14504
0.157437
0.0588474
0.0014023
0.00243993
0.000723765
0.000918557
0.00103466
0.000990328
0.00090081
0.000764493
0.000612039
0.000464506
0.000347808
0.000235762
0.000158882
9.31268e-05
6.49574e-05
1.21963e-05
3.39812e-05
9.41906e-05
0.000113414
0.000314217
0.000459628
0.000559017
0.000635385
0.000686789
0.00072203
0.000700209
0.000674046
0.000552848
0.000411063
0.000186347
6.10796e-05
0.0020225
0.0100621
0.0248509
0.064663
0.181151
0.359799
0.557888
0.733138
0.833681
0.838169
0.717044
0.506242
0.22302
0.0697502
0.174845
0.494442
0.75718
1.01071
1.15759
1.13328
0.961155
0.690744
0.434717
0.196738
0.00459694
0.147898
0.200821
0.141127
0.0304175
0.0080624
0.000292695
0.000742392
0.000948334
0.00096943
0.000897317
0.000772498
0.000651936
0.000499205
0.000385489
0.000250801
0.000163039
0.000117014
6.15285e-05
6.51382e-05
4.08553e-06
3.44831e-05
0.000117984
0.000108553
0.000323626
0.000443837
0.000519783
0.000596497
0.000638143
0.000678357
0.000648829
0.000604586
0.000482642
0.000312295
9.42752e-05
0.000332873
0.00400247
0.0137355
0.029208
0.0883077
0.231433
0.398779
0.583886
0.706323
0.74258
0.668279
0.4958
0.264032
0.0572327
0.177633
0.467502
0.721912
0.970409
1.1495
1.17768
1.02013
0.751224
0.457864
0.216812
0.00838469
0.154857
0.238991
0.212115
0.0974052
0.0131733
0.00697001
0.000441674
0.000725642
0.000870427
0.000840133
0.00075318
0.000632329
0.00053228
0.000377176
0.000271703
0.000182039
0.000119654
9.45148e-05
7.18669e-05
4.94075e-05
1.84248e-06
2.81594e-05
0.000127735
0.0001084
0.000294672
0.000423236
0.000504582
0.000579959
0.000622415
0.000620132
0.000602123
0.000539637
0.000433366
0.000225902
3.31672e-05
0.000897771
0.00649152
0.0155233
0.0319029
0.11436
0.26901
0.402655
0.567282
0.625306
0.595721
0.47014
0.264955
0.0538003
0.176253
0.443246
0.693399
0.927924
1.10866
1.15858
1.06549
0.799133
0.477822
0.219536
0.00821559
0.168281
0.27843
0.283642
0.177667
0.0471428
0.00412617
0.00260322
0.00051394
0.000669099
0.000748075
0.00070087
0.000598438
0.000520233
0.00038569
0.000297462
0.000207836
0.000138097
0.000108202
7.15815e-05
7.3163e-05
6.44768e-05
1.08589e-05
3.58822e-05
0.000136218
0.000124058
0.000323564
0.000412377
0.000497368
0.000519241
0.00057945
0.000577095
0.000553762
0.000479174
0.000364625
0.000175864
4.47688e-05
0.00192169
0.00871266
0.0139706
0.0332977
0.139869
0.288106
0.418176
0.496055
0.499637
0.418158
0.256118
0.049161
0.175441
0.430653
0.668547
0.886062
1.06237
1.12843
1.04449
0.826744
0.500571
0.224504
0.0012404
0.188405
0.324019
0.355389
0.269845
0.114727
0.0130259
0.000202622
0.000306442
0.00043352
0.000569044
0.000613726
0.000550422
0.00045171
0.000369769
0.000288781
0.000222495
0.000138729
9.96562e-05
7.77133e-05
7.98747e-05
7.40385e-05
5.70042e-05
9.634e-06
3.12155e-05
0.000155555
0.000142816
0.000295023
0.000383567
0.000444475
0.000482644
0.000521893
0.000518797
0.00047142
0.000412161
0.000291602
0.000124697
0.00021098
0.00334794
0.00951407
0.00860791
0.0327618
0.145816
0.266994
0.35919
0.385893
0.343615
0.22508
0.0449717
0.17076
0.416038
0.652151
0.846258
1.00713
1.07727
1.01394
0.820856
0.51372
0.224612
0.00483099
0.215107
0.371127
0.439744
0.36654
0.203616
0.0522503
0.00103276
0.000778566
6.23904e-05
0.000252494
0.000351979
0.000426243
0.000356388
0.000324929
0.000241703
0.000197494
0.000148361
9.6293e-05
0.000100319
9.08685e-05
8.7503e-05
0.000122127
0.000111791
1.99937e-05
1.73177e-05
0.00015083
0.000152587
0.000285818
0.000363194
0.000398653
0.000440592
0.000465369
0.00047507
0.000441163
0.000363829
0.000249425
0.000125214
0.000590324
0.00490347
0.00775635
4.47083e-05
0.0272161
0.107131
0.210723
0.261485
0.251199
0.171762
0.0287164
0.158669
0.394002
0.635353
0.821223
0.943118
1.00771
0.953582
0.78356
0.509749
0.173686
0.0106461
0.221877
0.439722
0.51421
0.486878
0.30902
0.115529
0.0126118
0.00300454
0.000517712
0.000278618
2.11863e-05
8.34237e-05
0.000209622
0.000201553
0.000167607
0.000139344
0.00012954
9.10494e-05
0.000101048
8.7067e-05
0.000116406
0.000145604
0.000142722
0.00014784
7.13523e-05
9.11037e-06
0.000166253
0.000142925
0.000259268
0.000339212
0.000403848
0.000430071
0.000429645
0.000439953
0.000404747
0.000328439
0.000199017
9.36488e-05
0.00122371
0.0061283
0.00303513
0.0106867
0.0132701
0.0776941
0.13937
0.148778
0.10273
0.00360416
0.158889
0.347301
0.590004
0.798797
0.897933
0.92171
0.871697
0.714693
0.483172
0.158914
0.0232611
0.218379
0.465674
0.649208
0.584054
0.442651
0.206192
0.0437377
0.00134576
0.00124523
0.000254668
0.000528015
0.000285585
0.000178022
2.42552e-05
3.6845e-05
6.05361e-05
5.40877e-05
6.85937e-05
5.5272e-05
9.43865e-05
0.000116271
0.000154247
0.000181342
0.000178933
0.000181631
7.62407e-05
8.37324e-05
0.000136504
0.000153238
0.000255301
0.000309851
0.000353396
0.000367586
0.000390831
0.000394044
0.000348707
0.000287901
0.000195558
2.89098e-05
0.00210353
0.00644286
0.00377947
0.0225947
0.00788316
0.0334804
0.0512747
0.02723
0.0468258
0.167936
0.324079
0.492169
0.703918
0.837906
0.851997
0.762508
0.623353
0.42331
0.15388
0.0148943
0.201559
0.476277
0.70931
0.781157
0.574271
0.321291
0.101977
0.00788416
0.000736074
0.000574339
0.000236423
0.000476946
0.000454112
0.000393185
0.000210411
0.000110999
5.34011e-05
2.82059e-06
2.14094e-05
8.43395e-05
0.000113818
0.000151309
0.000196812
0.000216627
0.000230749
0.000210363
0.000121218
6.49188e-05
0.00013882
0.00015538
0.000226097
0.000283956
0.000344846
0.00033158
0.000349312
0.000349052
0.000344199
0.000264741
0.000211512
8.4975e-05
0.00315692
0.00571917
0.0109511
0.0350713
0.0351959
0.0261471
0.0405921
0.0906317
0.180654
0.301537
0.442724
0.559192
0.714013
0.739063
0.654016
0.511501
0.340043
0.138617
0.0147557
0.165563
0.473944
0.731698
0.906115
0.813388
0.457634
0.179204
0.0346608
0.0010791
0.00249202
0.000953772
0.000456377
0.000242207
0.000319772
0.00039909
0.000363246
0.000208149
0.00010903
2.40677e-05
4.5176e-05
0.000109414
0.000166367
0.000216659
0.000284922
0.000279196
0.000282385
0.000233951
0.000130465
7.76907e-05
0.000125404
0.000172452
0.000225284
0.000257632
0.000301406
0.000323434
0.000326971
0.000317011
0.000318545
0.0002712
0.000249947
0.000304345
0.00406811
0.0044457
0.0165026
0.0464925
0.0648893
0.0839014
0.121582
0.186559
0.277395
0.379334
0.483275
0.536386
0.536785
0.491697
0.383165
0.247039
0.10143
0.0569439
0.184479
0.488399
0.741117
0.942855
0.919338
0.647507
0.295455
0.0729129
0.00949139
0.00185793
0.000672203
0.00374321
0.00196387
0.00054947
2.72982e-05
0.000140345
0.000376437
0.000286532
0.000131572
2.97491e-05
8.12892e-05
0.000161287
0.000246842
0.000316155
0.000326966
0.000360172
0.000327431
0.000284813
0.000166412
6.63812e-05
0.000112409
0.000137289
0.000195555
0.000260886
0.00027667
0.000288662
0.000313846
0.000321193
0.000318559
0.000270765
0.000339966
0.000605358
0.00475895
0.00336095
0.0190287
0.0535215
0.0875649
0.124845
0.175721
0.241075
0.315796
0.380551
0.427691
0.422713
0.337182
0.258805
0.158367
0.0441261
0.0953972
0.237754
0.508026
0.76086
0.970725
1.0488
0.820935
0.378617
0.148403
0.0206808
0.000999838
0.0122949
0.0199771
0.0201697
0.0111026
0.00316061
0.000243333
0.000447449
0.000221143
0.00032802
0.000162408
1.26662e-05
0.000131272
0.000232276
0.000332601
0.000396725
0.000436083
0.000417674
0.000393928
0.000293635
0.000180851
5.86591e-05
8.54421e-05
0.00015216
0.000180753
0.000214196
0.000263635
0.000300542
0.000305291
0.000310048
0.000342727
0.000317335
0.000382239
0.000843182
0.00504573
0.00311299
0.0176528
0.0529655
0.0945626
0.138765
0.190443
0.241792
0.286574
0.308203
0.300625
0.265326
0.170809
0.0872953
0.00665595
0.132502
0.296285
0.525642
0.779838
1.01056
1.11291
1.01204
0.588812
0.197686
0.0525439
0.00848753
0.0345997
0.0588611
0.0643531
0.0533485
0.0297779
0.00976221
0.00046602
0.00109746
7.0927e-06
0.000320655
0.000113578
7.72675e-05
0.000225109
0.000326043
0.000446124
0.000475579
0.000509379
0.000497345
0.000426058
0.000334894
0.000204824
5.37002e-05
6.25733e-05
0.00013433
0.000159258
0.000210126
0.000237705
0.000292812
0.00031439
0.000351565
0.000331616
0.000387872
0.000445202
0.000979798
0.00494674
0.00369334
0.0127926
0.0437297
0.0833433
0.123202
0.164526
0.193659
0.206016
0.197081
0.16289
0.121707
0.0417688
0.0484601
0.169441
0.34002
0.555115
0.802701
1.04423
1.1867
1.11242
0.787047
0.312616
0.0802083