/*--------------------------------*- C++ -*----------------------------------*\
| =========                 |                                                 |
| \\      /  F ield         | OpenFOAM: The Open Source CFD Toolbox           |
|  \\    /   O peration     | Version:  2506                                  |
|   \\  /    A nd           | Website:  www.openfoam.com                      |
|    \\/     M anipulation  |                                                 |
\*---------------------------------------------------------------------------*/
FoamFile
{
    version     2.0;
    format      ascii;
    arch        "LSB;label=32;scalar=64";
    class       pointScalarField;
    location    "79.990692747563429";
    object      streamFunction;
}
// * * * * * * * * * * * * * * * * * * * * * * * * * * * * * * * * * * * * * //

dimensions      [0 3 -1 0 0 0 0];

internalField   nonuniform List<scalar> 
19880
(
0
-0.0737245
-0.14403
-0.20241
-0.241455
-0.254398
0
-0.0702554
-0.141766
-0.19854
-0.231008
-0.23332
0
-0.0563213
-0.117582
-0.162997
-0.181669
-0.167882
0
-0.0354484
-0.0788291
-0.105275
-0.10374
-0.067271
0
-0.0172034
-0.0399697
-0.044218
-0.0131408
0.0577028
0
-0.00972342
-0.0122358
0.0194491
0.0947474
0.200879
0
-0.0737245
-0.14403
-0.20241
-0.241455
-0.254398
0
-0.0702554
-0.141766
-0.19854
-0.231008
-0.23332
0
-0.0563213
-0.117582
-0.162997
-0.181669
-0.167882
0
-0.0354484
-0.0788291
-0.105275
-0.10374
-0.067271
0
-0.0172034
-0.0399697
-0.044218
-0.0131408
0.0577028
0
-0.00972342
-0.0122358
0.0194491
0.0947474
0.200879
3e-08
3e-08
-7e-08
-5e-08
0
0.112523
0.0769388
0.0352007
0.00483833
-0.00786287
0.254663
0.212177
0.150249
0.0810879
0.0226355
0.391672
0.348843
0.284199
0.19962
0.10435
0.526522
0.484588
0.418596
0.329129
0.217436
0.657745
0.617115
0.550775
0.458752
0.341544
3e-08
3e-08
-7e-08
-5e-08
0
0.112523
0.0769388
0.0352007
0.00483833
-0.00786287
0.254663
0.212177
0.150249
0.0810879
0.0226355
0.391672
0.348843
0.284199
0.19962
0.10435
0.526522
0.484588
0.418596
0.329129
0.217436
0.657745
0.617115
0.550775
0.458752
0.341544
7e-08
5.7e-07
-4e-07
2.3e-07
2.3e-07
0.121198
0.133989
0.141836
0.143143
0.134148
0.230874
0.257303
0.275244
0.283382
0.277457
0.332579
0.372737
0.401327
0.415857
0.413192
0.428444
0.482021
0.521099
0.542964
0.545447
0.520309
0.587168
0.636706
0.666234
0.673726
7e-08
5.7e-07
-4e-07
2.3e-07
2.3e-07
0.121198
0.133989
0.141836
0.143143
0.134148
0.230874
0.257303
0.275244
0.283382
0.277457
0.332579
0.372737
0.401327
0.415857
0.413192
0.428444
0.482021
0.521099
0.542964
0.545447
0.520309
0.587168
0.636706
0.666234
0.673726
0.0297682
0.0255711
0.0207451
0.0151137
0.00864287
-3e-08
0.139741
0.11613
0.091078
0.0638871
0.0336052
-3e-08
0.246834
0.204267
0.159542
0.111513
0.0588995
-3e-08
0.348023
0.287443
0.224093
0.156499
0.0831599
-3e-08
0.440387
0.363144
0.282562
0.196867
0.10413
-3.3e-07
0.0297682
0.0255711
0.0207451
0.0151137
0.00864287
-3e-08
0.139741
0.11613
0.091078
0.0638871
0.0336052
-3e-08
0.246834
0.204267
0.159542
0.111513
0.0588995
-3e-08
0.348023
0.287443
0.224093
0.156499
0.0831599
-3e-08
0.440387
0.363144
0.282562
0.196867
0.10413
-3.3e-07
-0.452622
-0.370283
-0.285473
-0.196778
-0.102674
-1.3e-07
-0.375672
-0.307666
-0.23767
-0.164399
-0.0865012
-1.3e-07
-0.28563
-0.233949
-0.180826
-0.125207
-0.0660435
-1.3e-07
-0.186082
-0.152146
-0.11738
-0.0810393
-0.0422453
-1.3e-07
-0.0799148
-0.0647701
-0.0494778
-0.0337296
-0.016926
-1.3e-07
-0.452622
-0.370283
-0.285473
-0.196778
-0.102674
-1.3e-07
-0.375672
-0.307666
-0.23767
-0.164399
-0.0865012
-1.3e-07
-0.28563
-0.233949
-0.180826
-0.125207
-0.0660435
-1.3e-07
-0.186082
-0.152146
-0.11738
-0.0810393
-0.0422453
-1.3e-07
-0.0799148
-0.0647701
-0.0494778
-0.0337296
-0.016926
-1.3e-07
-0.515164
-0.55954
-0.583163
-0.584277
-0.561419
-0.420201
-0.454761
-0.471511
-0.468885
-0.444562
-0.32266
-0.347335
-0.357504
-0.35136
-0.325868
-0.220928
-0.235398
-0.239468
-0.231755
-0.206257
-0.114045
-0.118976
-0.116129
-0.106248
-0.0833771
7e-08
3.7e-07
2e-08
2e-08
2e-08
-0.515164
-0.55954
-0.583163
-0.584277
-0.561419
-0.420201
-0.454761
-0.471511
-0.468885
-0.444562
-0.32266
-0.347335
-0.357504
-0.35136
-0.325868
-0.220928
-0.235398
-0.239468
-0.231755
-0.206257
-0.114045
-0.118976
-0.116129
-0.106248
-0.0833771
7e-08
3.7e-07
2e-08
2e-08
2e-08
-0.513485
-0.440118
-0.342928
-0.229688
-0.120417
-0.397293
-0.326526
-0.23595
-0.138393
-0.0609585
-0.279063
-0.210915
-0.130912
-0.058049
-0.0157143
-0.1597
-0.098005
-0.0412646
-0.00396014
0.0058622
-0.0478961
-0.0129867
0.00569634
0.0115236
0.0066874
2e-08
2e-08
2e-08
2e-08
2e-08
-0.513485
-0.440118
-0.342928
-0.229688
-0.120417
-0.397293
-0.326526
-0.23595
-0.138393
-0.0609585
-0.279063
-0.210915
-0.130912
-0.058049
-0.0157143
-0.1597
-0.098005
-0.0412646
-0.00396014
0.0058622
-0.0478961
-0.0129867
0.00569634
0.0115236
0.0066874
2e-08
2e-08
2e-08
2e-08
2e-08
2e-08
-0.0070431
-0.0116886
-0.0226465
-0.0455871
-0.079438
2e-08
-0.0268054
-0.0487647
-0.0697393
-0.0917552
-0.113164
2e-08
-0.0480092
-0.0905315
-0.127801
-0.157906
-0.17621
0
-0.0653585
-0.125212
-0.176026
-0.212772
-0.22989
2e-08
-0.0070431
-0.0116886
-0.0226465
-0.0455871
-0.079438
2e-08
-0.0268054
-0.0487647
-0.0697393
-0.0917552
-0.113164
2e-08
-0.0480092
-0.0905315
-0.127801
-0.157906
-0.17621
0
-0.0653585
-0.125212
-0.176026
-0.212772
-0.22989
-0.20723
-0.059909
0.126014
0.310534
0.48552
0.625824
0.684629
0.646765
0.532867
0.383572
0.230683
0.082338
-0.060484
-0.201479
-0.337338
-0.449772
-0.510649
-0.504662
-0.434672
-0.318829
-0.184342
-0.0484881
0.0846119
0.215203
0.344388
0.467509
0.569536
0.632577
0.64535
0.607426
0.526831
0.416727
0.291754
0.163963
0.0368818
-0.0878562
-0.206368
-0.309365
-0.384156
-0.420038
-0.412767
-0.36507
-0.284908
-0.182403
-0.0673356
0.0515604
0.16994
0.284183
0.387116
0.46897
0.520068
0.534393
0.511364
0.455471
0.374251
0.276006
0.168511
0.0589403
-0.0484877
-0.147293
-0.22849
-0.283565
-0.306703
-0.296276
-0.254844
-0.188104
-0.103155
-0.00716405
0.0921533
0.189647
0.278545
0.350151
0.397389
0.415927
0.404811
0.366353
0.305407
0.228213
0.141617
0.0529365
-0.0325564
-0.107494
-0.16467
-0.199105
-0.20862
-0.193766
-0.157424
-0.104395
-0.0419367
0.0215916
0.0809548
0.12703
0.154231
0.161107
0.149115
0.121806
0.0845545
0.0447087
0.00668595
0.130733
-0.171535
-0.0117809
0.180704
0.361324
0.527786
0.67396
0.756352
0.745655
0.652196
0.513618
0.363897
0.215084
0.06992
-0.07298
-0.209273
-0.320478
-0.380445
-0.374843
-0.305796
-0.190575
-0.0561021
0.0791809
0.210028
0.337097
0.462853
0.583721
0.685827
0.750884
0.766891
0.732166
0.654337
0.546556
0.423488
0.29647
0.169101
0.0433048
-0.0763042
-0.179796
-0.254698
-0.290966
-0.284659
-0.238321
-0.159747
-0.0588936
0.0544224
0.171548
0.287795
0.399666
0.50125
0.583266
0.635738
0.651991
0.63092
0.576604
0.496312
0.398292
0.290343
0.180107
0.0715023
-0.0286067
-0.110654
-0.166324
-0.19012
-0.180543
-0.140137
-0.0745885
0.00888745
0.102982
0.200476
0.295978
0.383073
0.45369
0.500485
0.518888
0.507767
0.469277
0.408032
0.330112
0.242327
0.152527
0.0653495
-0.0114792
-0.0705065
-0.106901
-0.118541
-0.105907
-0.0717926
-0.0208908
0.0401998
0.103382
0.162627
0.209023
0.236578
0.243454
0.231001
0.202912
0.164621
0.123455
0.0836711
0.0565569
-0.0977068
0.0594782
0.243657
0.413722
0.562969
0.701569
0.802334
0.823358
0.760872
0.643052
0.503053
0.358266
0.214519
0.0728296
-0.0619284
-0.172774
-0.236182
-0.236823
-0.175001
-0.0664508
0.0636842
0.195921
0.322706
0.444404
0.564351
0.681037
0.783029
0.85225
0.875348
0.848904
0.779038
0.678106
0.560198
0.436179
0.310498
0.185633
0.0663554
-0.0374686
-0.113845
-0.153057
-0.150852
-0.109361
-0.0357838
0.0606515
0.17019
0.284095
0.396921
0.505398
0.605016
0.68743
0.742473
0.76273
0.746148
0.695967
0.618955
0.523098
0.4164
0.306595
0.19797
0.097109
0.0139331
-0.0432851
-0.0691123
-0.062096
-0.0244938
0.0382812
0.119027
0.210298
0.305125
0.398011
0.483108
0.552966
0.600109
0.61947
0.609566
0.572227
0.511835
0.434112
0.345965
0.255594
0.167276
0.0885221
0.0272356
-0.0117398
-0.026211
-0.0165022
0.0147899
0.0630516
0.122003
0.18418
0.243257
0.290632
0.31959
0.327577
0.315612
0.287415
0.248366
0.205754
0.1637
0.13299
0.00382685
0.147692
0.313386
0.468469
0.602378
0.7237
0.828153
0.878798
0.853031
0.76478
0.642471
0.507013
0.368463
0.230585
0.0986877
-0.0128013
-0.0822576
-0.0933003
-0.044166
0.0524564
0.174461
0.30142
0.423115
0.538632
0.651299
0.761839
0.862481
0.936934
0.970031
0.955868
0.898421
0.808371
0.698776
0.580252
0.458291
0.336098
0.218481
0.114519
0.0356131
-0.00840285
-0.0128195
0.0207141
0.0862539
0.175809
0.279906
0.389367
0.497939
0.602303
0.699127
0.781706
0.840203
0.866138
0.856176
0.812462
0.740946
0.649394
0.545705
0.437376
0.329633
0.228783
0.144507
0.0851636
0.0561099
0.059003
0.0921434
0.150654
0.227634
0.315348
0.40682
0.496555
0.579315
0.648528
0.696748
0.718172
0.710624
0.675565
0.617012
0.540547
0.453027
0.362613
0.273692
0.193236
0.129497
0.0875048
0.0696614
0.0758539
0.103767
0.148968
0.205428
0.266151
0.324638
0.373076
0.404177
0.414357
0.403932
0.376393
0.336999
0.292936
0.248421
0.213741
0.125947
0.245885
0.386161
0.52342
0.645782
0.752347
0.847359
0.914276
0.924371
0.87153
0.774727
0.65485
0.525586
0.393825
0.265791
0.153605
0.0770196
0.0518524
0.0838555
0.165052
0.276167
0.39595
0.511906
0.621302
0.726568
0.829754
0.927019
1.00593
1.05065
1.05165
1.01002
0.934057
0.835588
0.724989
0.608687
0.490682
0.375791
0.272132
0.190488
0.140568
0.127287
0.150267
0.205518
0.28641
0.383684
0.487738
0.591563
0.691448
0.784756
0.866668
0.92869
0.961584
0.960083
0.924913
0.860903
0.775478
0.676414
0.570958
0.465001
0.364892
0.27979
0.218053
0.184906
0.182353
0.20964
0.262801
0.335072
0.418563
0.506176
0.592401
0.672449
0.740705
0.790299
0.814756
0.810768
0.779147
0.723599
0.649521
0.563635
0.473752
0.384805
0.303112
0.237021
0.191821
0.170155
0.172348
0.196423
0.238169
0.291711
0.350442
0.407921
0.457166
0.490804
0.504197
0.496498
0.470573
0.43146
0.386227
0.339314
0.300561
0.253952
0.344554
0.457875
0.575893
0.686893
0.78462
0.869141
0.937177
0.969843
0.952426
0.887625
0.790613
0.676241
0.554034
0.431677
0.319937
0.23607
0.196043
0.208991
0.272186
0.369256
0.479542
0.588999
0.692767
0.791635
0.887671
0.979784
1.0601
1.11498
1.13212
1.10868
1.04975
0.965268
0.865164
0.756596
0.644335
0.533269
0.430753
0.346738
0.290489
0.267314
0.278389
0.321967
0.392657
0.481684
0.579364
0.678076
0.773447
0.862993
0.943283
1.00769
1.04745
1.05539
1.03059
0.976179
0.898822
0.805986
0.704898
0.601781
0.503188
0.417725
0.353538
0.315751
0.306977
0.327718
0.374802
0.441577
0.520231
0.603569
0.686082
0.763268
0.830156
0.880697
0.908439
0.909118
0.88228
0.831015
0.760468
0.677255
0.588683
0.500292
0.418022
0.34999
0.30163
0.275987
0.273928
0.293876
0.331855
0.382132
0.4384
0.494422
0.543911
0.579907
0.597103
0.593304
0.570242
0.532368
0.486563
0.437572
0.206224
-0.20723
-0.059909
0.126014
0.310534
0.48552
0.625824
0.684629
0.646765
0.532867
0.383572
0.230683
0.082338
-0.060484
-0.201479
-0.337338
-0.449772
-0.510649
-0.504662
-0.434672
-0.318829
-0.184342
-0.0484881
0.0846119
0.215203
0.344388
0.467509
0.569536
0.632577
0.64535
0.607426
0.526831
0.416727
0.291754
0.163963
0.0368818
-0.0878562
-0.206368
-0.309365
-0.384156
-0.420038
-0.412767
-0.36507
-0.284908
-0.182403
-0.0673356
0.0515604
0.16994
0.284183
0.387116
0.46897
0.520068
0.534393
0.511364
0.455471
0.374251
0.276006
0.168511
0.0589403
-0.0484877
-0.147293
-0.22849
-0.283565
-0.306703
-0.296276
-0.254844
-0.188104
-0.103155
-0.00716405
0.0921533
0.189647
0.278545
0.350151
0.397389
0.415927
0.404811
0.366353
0.305407
0.228213
0.141617
0.0529365
-0.0325564
-0.107494
-0.16467
-0.199105
-0.20862
-0.193766
-0.157424
-0.104395
-0.0419367
0.0215916
0.0809548
0.12703
0.154231
0.161107
0.149115
0.121806
0.0845545
0.0447087
0.00668595
0.130733
-0.171535
-0.0117809
0.180704
0.361324
0.527786
0.67396
0.756352
0.745655
0.652196
0.513618
0.363897
0.215084
0.06992
-0.07298
-0.209273
-0.320478
-0.380445
-0.374843
-0.305796
-0.190575
-0.0561021
0.0791809
0.210028
0.337097
0.462853
0.583721
0.685827
0.750884
0.766891
0.732166
0.654337
0.546556
0.423488
0.29647
0.169101
0.0433048
-0.0763042
-0.179796
-0.254698
-0.290966
-0.284659
-0.238321
-0.159747
-0.0588936
0.0544224
0.171548
0.287795
0.399666
0.50125
0.583266
0.635738
0.651991
0.63092
0.576604
0.496312
0.398292
0.290343
0.180107
0.0715023
-0.0286067
-0.110654
-0.166324
-0.19012
-0.180543
-0.140137
-0.0745885
0.00888745
0.102982
0.200476
0.295978
0.383073
0.45369
0.500485
0.518888
0.507767
0.469277
0.408032
0.330112
0.242327
0.152527
0.0653495
-0.0114792
-0.0705065
-0.106901
-0.118541
-0.105907
-0.0717926
-0.0208908
0.0401998
0.103382
0.162627
0.209023
0.236578
0.243454
0.231001
0.202912
0.164621
0.123455
0.0836711
0.0565569
-0.0977068
0.0594782
0.243657
0.413722
0.562969
0.701569
0.802334
0.823358
0.760872
0.643052
0.503053
0.358266
0.214519
0.0728296
-0.0619284
-0.172774
-0.236182
-0.236823
-0.175001
-0.0664508
0.0636842
0.195921
0.322706
0.444404
0.564351
0.681037
0.783029
0.85225
0.875348
0.848904
0.779038
0.678106
0.560198
0.436179
0.310498
0.185633
0.0663554
-0.0374686
-0.113845
-0.153057
-0.150852
-0.109361
-0.0357838
0.0606515
0.17019
0.284095
0.396921
0.505398
0.605016
0.68743
0.742473
0.76273
0.746148
0.695967
0.618955
0.523098
0.4164
0.306595
0.19797
0.097109
0.0139331
-0.0432851
-0.0691123
-0.062096
-0.0244938
0.0382812
0.119027
0.210298
0.305125
0.398011
0.483108
0.552966
0.600109
0.61947
0.609566
0.572227
0.511835
0.434112
0.345965
0.255594
0.167276
0.0885221
0.0272356
-0.0117398
-0.026211
-0.0165022
0.0147899
0.0630516
0.122003
0.18418
0.243257
0.290632
0.31959
0.327577
0.315612
0.287415
0.248366
0.205754
0.1637
0.13299
0.00382685
0.147692
0.313386
0.468469
0.602378
0.7237
0.828153
0.878798
0.853031
0.76478
0.642471
0.507013
0.368463
0.230585
0.0986877
-0.0128013
-0.0822576
-0.0933003
-0.044166
0.0524564
0.174461
0.30142
0.423115
0.538632
0.651299
0.761839
0.862481
0.936934
0.970031
0.955868
0.898421
0.808371
0.698776
0.580252
0.458291
0.336098
0.218481
0.114519
0.0356131
-0.00840285
-0.0128195
0.0207141
0.0862539
0.175809
0.279906
0.389367
0.497939
0.602303
0.699127
0.781706
0.840203
0.866138
0.856176
0.812462
0.740946
0.649394
0.545705
0.437376
0.329633
0.228783
0.144507
0.0851636
0.0561099
0.059003
0.0921434
0.150654
0.227634
0.315348
0.40682
0.496555
0.579315
0.648528
0.696748
0.718172
0.710624
0.675565
0.617012
0.540547
0.453027
0.362613
0.273692
0.193236
0.129497
0.0875048
0.0696614
0.0758539
0.103767
0.148968
0.205428
0.266151
0.324638
0.373076
0.404177
0.414357
0.403932
0.376393
0.336999
0.292936
0.248421
0.213741
0.125947
0.245885
0.386161
0.52342
0.645782
0.752347
0.847359
0.914276
0.924371
0.87153
0.774727
0.65485
0.525586
0.393825
0.265791
0.153605
0.0770196
0.0518524
0.0838555
0.165052
0.276167
0.39595
0.511906
0.621302
0.726568
0.829754
0.927019
1.00593
1.05065
1.05165
1.01002
0.934057
0.835588
0.724989
0.608687
0.490682
0.375791
0.272132
0.190488
0.140568
0.127287
0.150267
0.205518
0.28641
0.383684
0.487738
0.591563
0.691448
0.784756
0.866668
0.92869
0.961584
0.960083
0.924913
0.860903
0.775478
0.676414
0.570958
0.465001
0.364892
0.27979
0.218053
0.184906
0.182353
0.20964
0.262801
0.335072
0.418563
0.506176
0.592401
0.672449
0.740705
0.790299
0.814756
0.810768
0.779147
0.723599
0.649521
0.563635
0.473752
0.384805
0.303112
0.237021
0.191821
0.170155
0.172348
0.196423
0.238169
0.291711
0.350442
0.407921
0.457166
0.490804
0.504197
0.496498
0.470573
0.43146
0.386227
0.339314
0.300561
0.253952
0.344554
0.457875
0.575893
0.686893
0.78462
0.869141
0.937177
0.969843
0.952426
0.887625
0.790613
0.676241
0.554034
0.431677
0.319937
0.23607
0.196043
0.208991
0.272186
0.369256
0.479542
0.588999
0.692767
0.791635
0.887671
0.979784
1.0601
1.11498
1.13212
1.10868
1.04975
0.965268
0.865164
0.756596
0.644335
0.533269
0.430753
0.346738
0.290489
0.267314
0.278389
0.321967
0.392657
0.481684
0.579364
0.678076
0.773447
0.862993
0.943283
1.00769
1.04745
1.05539
1.03059
0.976179
0.898822
0.805986
0.704898
0.601781
0.503188
0.417725
0.353538
0.315751
0.306977
0.327718
0.374802
0.441577
0.520231
0.603569
0.686082
0.763268
0.830156
0.880697
0.908439
0.909118
0.88228
0.831015
0.760468
0.677255
0.588683
0.500292
0.418022
0.34999
0.30163
0.275987
0.273928
0.293876
0.331855
0.382132
0.4384
0.494422
0.543911
0.579907
0.597103
0.593304
0.570242
0.532368
0.486563
0.437572
0.206224
0.51508
0.557403
0.623989
0.704873
0.789795
0.871015
0.943268
1.00185
1.04208
1.05943
1.0476
1.00305
0.930447
0.838511
0.736159
0.63269
0.539541
0.472151
0.445051
0.466937
0.529355
0.61602
0.710867
0.804028
0.892446
0.976483
1.05703
1.13306
1.1991
1.24528
1.26249
1.2452
1.19717
1.12546
1.03809
0.941649
0.84124
0.74209
0.651127
0.576644
0.526155
0.504769
0.514658
0.55397
0.617369
0.696887
0.783883
0.871396
0.955328
1.03351
1.10324
1.15941
1.19519
1.20422
1.18375
1.13613
1.06657
0.981662
0.888194
0.792482
0.701347
0.622468
0.562794
0.526983
0.518039
0.53681
0.579611
0.640098
0.711186
0.786324
0.86041
0.929433
0.989282
1.03499
1.06096
1.0628
1.03909
0.991904
0.925799
0.84693
0.761802
0.676281
0.596312
0.528834
0.479214
0.450934
0.445066
0.460197
0.492745
0.537531
0.588768
0.640712
0.687889
0.724651
0.745842
0.747907
0.730468
0.69631
0.651269
0.600536
0.364242
0.804622
0.836379
0.883844
0.941302
1.00209
1.0605
1.11216
1.15295
1.17764
1.1818
1.16568
1.13025
1.07608
1.00589
0.925461
0.843572
0.771932
0.725199
0.715615
0.743885
0.800337
0.872161
0.948461
1.02377
1.09637
1.16587
1.23201
1.29369
1.34727
1.38554
1.40066
1.38866
1.35059
1.29125
1.21689
1.13336
1.04579
0.959417
0.880505
0.816
0.772444
0.75458
0.763751
0.798002
0.852824
0.921466
0.996425
1.07157
1.14328
1.2098
1.26918
1.31737
1.34855
1.35726
1.34085
1.30025
1.23931
1.16356
1.07919
0.992408
0.909827
0.838239
0.783887
0.751534
0.743817
0.760324
0.79766
0.850505
0.912803
0.978699
1.04352
1.10373
1.15607
1.19659
1.22044
1.22331
1.20317
1.16111
1.10079
1.02763
0.947531
0.866317
0.789882
0.724328
0.674779
0.644713
0.635308
0.645387
0.67194
0.710519
0.755923
0.802841
0.846382
0.882008
0.905502
0.913128
0.902781
0.875054
0.833818
0.78363
0.18412
1.07422
1.09783
1.13198
1.17287
1.21625
1.25802
1.29452
1.3224
1.33809
1.33784
1.32051
1.28809
1.24335
1.1889
1.12875
1.07008
1.02313
0.998089
0.999456
1.02575
1.07077
1.12585
1.1849
1.24467
1.30344
1.35996
1.41309
1.46164
1.50351
1.53448
1.54859
1.54121
1.51188
1.4638
1.40186
1.3312
1.2567
1.18337
1.11674
1.06252
1.02609
1.01121
1.01883
1.04753
1.09371
1.15149
1.21439
1.27721
1.3369
1.39198
1.44106
1.48124
1.50803
1.51663
1.50399
1.4702
1.41805
1.35207
1.27781
1.20109
1.12803
1.06468
1.01664
0.987976
0.980605
0.994047
1.02549
1.07043
1.12361
1.17991
1.23518
1.28633
1.33078
1.36565
1.38709
1.39106
1.37492
1.33877
1.2853
1.21909
1.14549
1.07008
0.998458
0.936152
0.887827
0.856696
0.844045
0.849156
0.869636
0.901709
0.940763
0.981955
1.02084
1.05363
1.07712
1.08838
1.08481
1.06528
1.03131
0.985653
0.385989
1.33043
1.34777
1.37241
1.40172
1.43278
1.46261
1.48838
1.50745
1.51735
1.5159
1.50186
1.47593
1.44059
1.39915
1.35586
1.31657
1.28812
1.27549
1.28002
1.30047
1.33342
1.37434
1.41952
1.46647
1.51334
1.5586
1.60079
1.63852
1.6702
1.69352
1.70503
1.70106
1.67983
1.64254
1.59264
1.53451
1.47272
1.4119
1.35685
1.31231
1.28233
1.26979
1.27602
1.29996
1.33811
1.38537
1.43654
1.48756
1.536
1.58057
1.62014
1.65262
1.67471
1.68256
1.67328
1.64616
1.60291
1.54712
1.48356
1.41748
1.35437
1.29951
1.25772
1.23257
1.22558
1.2361
1.26169
1.29863
1.34256
1.38919
1.43499
1.47727
1.51393
1.54287
1.56125
1.56573
1.55355
1.52384
1.47815
1.42007
1.35429
1.28597
1.22028
1.16227
1.11611
1.08479
1.06971
1.07045
1.08512
1.1106
1.14293
1.17786
1.21142
1.24026
1.26188
1.27419
1.27527
1.26348
1.23863
1.20168
0.166064
1.57756
1.59019
1.60793
1.62888
1.65096
1.67204
1.69001
1.70295
1.7092
1.7075
1.69724
1.6788
1.65373
1.62463
1.59502
1.56913
1.55105
1.54347
1.54725
1.56194
1.58586
1.61646
1.65121
1.688
1.72507
1.76088
1.79403
1.82313
1.84679
1.86353
1.87155
1.86875
1.85352
1.82574
1.78724
1.74121
1.69154
1.64234
1.59781
1.56194
1.53796
1.52795
1.53307
1.55247
1.58292
1.62029
1.66067
1.70105
1.7395
1.77481
1.80596
1.83147
1.84906
1.85585
1.84925
1.82818
1.79349
1.74778
1.69499
1.63963
1.58648
1.54007
1.50451
1.4828
1.47598
1.48337
1.50315
1.53232
1.56735
1.60474
1.64154
1.67548
1.70479
1.72796
1.74297
1.7473
1.73844
1.71501
1.6775
1.62838
1.57146
1.51128
1.45253
1.39973
1.35664
1.32607
1.30943
1.30648
1.31579
1.33487
1.36042
1.38879
1.41656
1.4408
1.45941
1.47094
1.4742
1.468
1.45154
1.42508
0.397668
1.81817
1.82723
1.83989
1.85477
1.87041
1.88525
1.89776
1.90655
1.91047
1.90874
1.90115
1.88814
1.87086
1.85114
1.83136
1.81423
1.80235
1.79765
1.80095
1.81219
1.83033
1.85374
1.88063
1.90934
1.93841
1.96649
1.99233
2.01469
2.03235
2.04409
2.04878
2.04544
2.03337
2.01244
1.98348
1.94839
1.90997
1.87153
1.83657
1.80844
1.78981
1.78244
1.78691
1.80218
1.82569
1.85436
1.88541
1.9167
1.94669
1.9742
1.99824
2.01764
2.03093
2.0362
2.03151
2.01565
1.9888
1.95265
1.91022
1.86523
1.82171
1.78354
1.75398
1.73508
1.72796
1.7325
1.747
1.76902
1.79588
1.82482
1.85346
1.87987
1.90255
1.9203
1.93178
1.93525
1.92878
1.91089
1.88128
1.84136
1.79389
1.74263
1.69161
1.64479
1.60554
1.57659
1.5593
1.55346
1.55809
1.57126
1.59027
1.6121
1.63388
1.65318
1.66823
1.6779
1.68144
1.67829
1.66778
1.6503
0.16254
2.05401
2.0604
2.06934
2.07985
2.09085
2.10124
2.10991
2.11587
2.11834
2.11684
2.11127
2.10206
2.09009
2.07668
2.06347
2.05227
2.04481
2.04242
2.04572
2.05471
2.06876
2.08682
2.10767
2.13005
2.15277
2.17468
2.19472
2.21183
2.22504
2.23337
2.23594
2.2321
2.22169
2.20501
2.18277
2.15621
2.12722
2.0982
2.07186
2.05082
2.03719
2.03221
2.03597
2.0475
2.06497
2.08635
2.10977
2.13365
2.15671
2.17785
2.19611
2.21051
2.22003
2.22349
2.21971
2.20778
2.18757
2.15998
2.1271
2.09173
2.05712
2.02641
2.0022
1.98611
1.97902
1.98089
1.99055
2.00626
2.02598
2.04761
2.06919
2.0891
2.10603
2.11902
2.12715
2.12932
2.1242
2.11057
2.08783
2.05653
2.01847
1.9764
1.93362
1.8935
1.85897
1.83233
1.81495
1.80701
1.80778
1.81573
1.82871
1.84432
1.86027
1.87462
1.88594
1.89331
1.89616
1.89423
1.88716
1.87556
0.396401
2.28638
2.29077
2.297
2.30434
2.31202
2.31925
2.32523
2.32928
2.33084
2.32963
2.32564
2.3192
2.31098
2.30192
2.29319
2.28603
2.2816
2.28079
2.28406
2.29142
2.30252
2.31663
2.3329
2.35037
2.3681
2.38515
2.40065
2.41374
2.42361
2.42955
2.43093
2.42732
2.41866
2.40529
2.38793
2.36763
2.34584
2.32434
2.30507
2.28988
2.28017
2.2767
2.27941
2.28764
2.30027
2.31598
2.33345
2.35149
2.36902
2.38505
2.3987
2.40913
2.41558
2.41734
2.41377
2.4044
2.38914
2.36847
2.34368
2.31673
2.28997
2.2658
2.24623
2.23263
2.22574
2.22559
2.23149
2.2422
2.25621
2.27186
2.28762
2.30215
2.31435
2.32341
2.32862
2.32927
2.32459
2.3138
2.29635
2.27235
2.24278
2.20949
2.1749
2.14173
2.11242
2.0887
2.07186
2.06258
2.06039
2.06399
2.07174
2.08181
2.09248
2.10229
2.1101
2.11516
2.11696
2.11532
2.11005
2.10177
0.164087
2.51618
2.51908
2.52333
2.52838
2.53368
2.53867
2.54277
2.54551
2.54651
2.54559
2.54279
2.53837
2.5328
2.5268
2.52116
2.51674
2.51434
2.51456
2.51773
2.52387
2.53274
2.54387
2.55663
2.57029
2.58413
2.59739
2.60937
2.61938
2.62681
2.63112
2.63188
2.62883
2.62196
2.61155
2.59823
2.58285
2.56657
2.5507
2.5366
2.5255
2.51831
2.51554
2.51719
2.52288
2.53192
2.5434
2.55637
2.56989
2.58306
2.59506
2.60512
2.61256
2.61678
2.6173
2.61375
2.60595
2.59394
2.57815
2.55945
2.53912
2.51877
2.50007
2.48455
2.47331
2.46699
2.46571
2.46903
2.47608
2.4857
2.49666
2.50777
2.51799
2.52643
2.53238
2.53527
2.53458
2.52988
2.52075
2.50691
2.48838
2.46569
2.43996
2.41283
2.38627
2.36216
2.34193
2.32663
2.31685
2.31242
2.31249
2.31588
2.32133
2.32761
2.33363
2.33849
2.34153
2.34229
2.34057
2.33623
2.32982
0.396063
2.74406
2.74588
2.74868
2.75209
2.7557
2.7591
2.76188
2.76373
2.76437
2.76371
2.76179
2.75881
2.75512
2.75124
2.74771
2.74515
2.7441
2.74496
2.74797
2.75316
2.76035
2.7692
2.77926
2.78999
2.80081
2.81113
2.8204
2.82808
2.8337
2.83685
2.83726
2.83477
2.82942
2.82147
2.81139
2.79987
2.78774
2.77596
2.76548
2.75717
2.75167
2.74935
2.75028
2.75421
2.76069
2.76908
2.77866
2.7887
2.7985
2.80738
2.81474
2.82
2.82268
2.82242
2.81896
2.81227
2.80252
2.79008
2.77565
2.76011
2.74459
2.73022
2.71811
2.70908
2.70362
2.70186
2.70347
2.70784
2.71416
2.72151
2.72903
2.73591
2.74144
2.74503
2.74617
2.74449
2.73967
2.73155
2.72003
2.70524
2.68754
2.66764
2.64657
2.62567
2.60623
2.58938
2.57594
2.56636
2.56062
2.55827
2.55857
2.56069
2.56377
2.56697
2.56957
2.57102
2.57089
2.56897
2.56517
2.55984
0.16368
2.97049
2.97152
2.97328
2.97552
2.97792
2.98019
2.98206
2.9833
2.98372
2.98327
2.98198
2.98003
2.97766
2.97524
2.97316
2.97184
2.97166
2.9729
2.97572
2.98012
2.986
2.99309
3.00107
3.00952
3.018
3.02606
3.03324
3.03916
3.04343
3.04578
3.046
3.04401
3.03987
3.0338
3.02618
3.01752
3.00845
2.99965
2.99181
2.98554
2.98132
2.97942
2.9799
2.98262
2.98725
2.99335
3.00037
3.00776
3.01497
3.02146
3.02674
3.03036
3.03197
3.03129
3.02815
3.02253
3.0146
3.00471
2.99339
2.98133
2.96935
2.95823
2.94877
2.94153
2.93685
2.93482
2.93522
2.93764
2.94151
2.94618
2.95102
2.95539
2.95874
2.96057
2.96048
2.95814
2.95333
2.94597
2.93607
2.9238
2.90951
2.8937
2.87709
2.86052
2.84489
2.83096
2.81936
2.81045
2.80428
2.80067
2.79915
2.79918
2.80013
2.80137
2.80233
2.80256
2.80171
2.79961
2.79615
2.79156
0.396886
3.19579
3.19625
3.19728
3.19867
3.20022
3.20171
3.20294
3.20375
3.20404
3.20374
3.20292
3.20169
3.20023
3.19881
3.19771
3.19721
3.19758
3.19901
3.20159
3.20535
3.21019
3.21591
3.22227
3.22896
3.23563
3.24193
3.24753
3.2521
3.25538
3.25715
3.25727
3.25571
3.25253
3.2479
3.24213
3.2356
3.22878
3.22218
3.21628
3.21154
3.20829
3.20674
3.20695
3.20881
3.2121
3.2165
3.22161
3.227
3.23225
3.23693
3.24066
3.24309
3.24395
3.24302
3.24022
3.23554
3.22914
3.22128
3.21239
3.20297
3.19362
3.18491
3.1774
3.17147
3.16737
3.16517
3.16473
3.16577
3.1679
3.17065
3.17352
3.17605
3.17779
3.17835
3.1774
3.17469
3.17005
3.16341
3.15482
3.14446
3.13261
3.11969
3.10622
3.09281
3.08005
3.06848
3.05856
3.05057
3.04458
3.0405
3.03804
3.03682
3.03638
3.03628
3.03606
3.0354
3.03403
3.03178
3.02858
3.02457
0.162803
3.42022
3.42029
3.4208
3.42161
3.42255
3.42349
3.42428
3.42481
3.42499
3.42482
3.42433
3.42359
3.42277
3.42202
3.42157
3.42159
3.42228
3.42377
3.42612
3.42932
3.43332
3.43797
3.44306
3.44838
3.45364
3.45859
3.46296
3.46652
3.46905
3.47041
3.47049
3.46928
3.46685
3.46333
3.45896
3.45403
3.44889
3.44391
3.43946
3.43585
3.43334
3.43207
3.4321
3.43335
3.43567
3.43882
3.4425
3.44639
3.45016
3.45348
3.45605
3.45761
3.45795
3.45691
3.45444
3.45055
3.44537
3.43911
3.43208
3.42467
3.4173
3.41039
3.40433
3.39939
3.39578
3.39352
3.39255
3.39266
3.39358
3.39496
3.39643
3.39764
3.39822
3.39789
3.39638
3.3935
3.38912
3.38319
3.37575
3.36696
3.35705
3.34635
3.33525
3.3242
3.31364
3.30395
3.29547
3.2884
3.28281
3.27864
3.27569
3.27372
3.27238
3.27137
3.27035
3.26907
3.26734
3.26502
3.26205
3.2585
0.39754
3.64394
3.64375
3.6439
3.6443
3.64483
3.64539
3.64587
3.6462
3.64633
3.64624
3.64597
3.64559
3.64518
3.64488
3.64484
3.64518
3.64604
3.64751
3.64961
3.65235
3.65566
3.65945
3.66355
3.66779
3.67196
3.67586
3.67929
3.68207
3.68404
3.6851
3.68517
3.68425
3.68239
3.67972
3.67641
3.67268
3.6688
3.66503
3.66165
3.6589
3.65694
3.65591
3.65582
3.65664
3.65825
3.66048
3.6631
3.66587
3.66854
3.67085
3.67258
3.67351
3.6735
3.67243
3.67026
3.66702
3.6628
3.65777
3.65217
3.64628
3.64042
3.63487
3.62993
3.62579
3.6226
3.62039
3.61911
3.61861
3.61871
3.61914
3.61963
3.61991
3.6197
3.61877
3.61693
3.61401
3.60994
3.60467
3.59826
3.59081
3.58251
3.57361
3.5644
3.55523
3.54642
3.53825
3.53097
3.52473
3.51957
3.51548
3.51231
3.5099
3.50801
3.50642
3.50489
3.50324
3.5013
3.49898
3.49621
3.49305
0.16236
3.86712
3.86675
3.86668
3.8668
3.86705
3.86734
3.86762
3.86781
3.8679
3.86787
3.86776
3.86759
3.86746
3.86745
3.86766
3.86819
3.86911
3.87049
3.87236
3.87469
3.87744
3.88053
3.88384
3.88723
3.89055
3.89364
3.89634
3.89852
3.90007
3.9009
3.90097
3.90028
3.89887
3.89685
3.89434
3.89152
3.88858
3.88572
3.88315
3.88104
3.87951
3.87865
3.8785
3.87902
3.88011
3.88167
3.88351
3.88545
3.8873
3.88887
3.88998
3.89048
3.89024
3.88919
3.8873
3.88458
3.88114
3.87707
3.87258
3.86786
3.86315
3.85866
3.8546
3.85111
3.8483
3.8462
3.84476
3.8439
3.84345
3.84325
3.84307
3.84272
3.84199
3.8407
3.83869
3.83586
3.83212
3.82747
3.82193
3.81561
3.80865
3.80123
3.79357
3.78594
3.77855
3.77164
3.76538
3.75987
3.75517
3.75127
3.74807
3.74547
3.74329
3.74138
3.73956
3.7377
3.73569
3.73342
3.73086
3.72803
0.397858
4.08984
4.08938
4.08915
4.0891
4.08916
4.08928
4.08941
4.08952
4.08958
4.08959
4.08957
4.08955
4.0896
4.08976
4.09011
4.09072
4.09164
4.09291
4.09454
4.09652
4.0988
4.10133
4.104
4.10672
4.10936
4.11181
4.11394
4.11566
4.11689
4.11755
4.11762
4.1171
4.11605
4.11452
4.11262
4.11048
4.10825
4.10608
4.10412
4.10249
4.10129
4.10059
4.1004
4.1007
4.10143
4.10249
4.10376
4.1051
4.10636
4.10739
4.10806
4.10826
4.10788
4.10688
4.10524
4.10297
4.10015
4.09685
4.09322
4.08943
4.08562
4.08196
4.07861
4.07566
4.07319
4.07123
4.06975
4.06868
4.06791
4.0673
4.0667
4.06596
4.06492
4.06343
4.06139
4.05871
4.05533
4.05124
4.04648
4.04112
4.03527
4.02907
4.02269
4.01631
4.01012
4.00426
3.99888
3.99406
3.98983
3.98621
3.98312
3.9805
3.97823
3.97619
3.97425
3.97233
3.97032
3.96817
3.96582
3.9633
0.162158
4.31217
4.31167
4.31137
4.3112
4.31115
4.31116
4.3112
4.31125
4.31129
4.31132
4.31136
4.31143
4.31157
4.31183
4.31225
4.31287
4.31374
4.31488
4.31629
4.31795
4.31984
4.3219
4.32406
4.32624
4.32835
4.33029
4.33197
4.33333
4.3343
4.33483
4.3349
4.33453
4.33374
4.33258
4.33115
4.32953
4.32784
4.32619
4.32469
4.32344
4.3225
4.32191
4.32171
4.32187
4.32233
4.32304
4.3239
4.3248
4.32563
4.32628
4.32665
4.32664
4.3262
4.32528
4.32386
4.32197
4.31965
4.31697
4.31404
4.31097
4.30788
4.3049
4.30212
4.29963
4.29748
4.2957
4.29425
4.2931
4.29215
4.29132
4.29048
4.28952
4.28832
4.28677
4.28479
4.28232
4.27931
4.27575
4.27168
4.26715
4.26224
4.25707
4.25175
4.24643
4.24124
4.23629
4.23169
4.22751
4.22377
4.22048
4.2176
4.21509
4.21285