/*--------------------------------*- C++ -*----------------------------------*\
| =========                 |                                                 |
| \\      /  F ield         | OpenFOAM: The Open Source CFD Toolbox           |
|  \\    /   O peration     | Version:  2506                                  |
|   \\  /    A nd           | Website:  www.openfoam.com                      |
|    \\/     M anipulation  |                                                 |
\*---------------------------------------------------------------------------*/
FoamFile
{
    version     2.0;
    format      ascii;
    arch        "LSB;label=32;scalar=64";
    class       surfaceScalarField;
    location    "25";
    object      phi;
}
// * * * * * * * * * * * * * * * * * * * * * * * * * * * * * * * * * * * * * //

dimensions      [0 3 -1 0 0 0 0];

oriented        oriented;

internalField   nonuniform List<scalar> 
760
(
1.31004e-05
-1.31001e-05
2.40862e-05
-1.09858e-05
2.45873e-05
-5.01043e-07
1.24057e-05
1.21816e-05
-1.59891e-05
2.83947e-05
-6.62037e-05
5.02147e-05
-0.000141219
7.5015e-05
-0.000233982
9.27636e-05
-0.000326713
9.27304e-05
-0.000397777
7.10643e-05
-0.000430592
3.28151e-05
-0.00041564
-1.49519e-05
-0.000346372
-6.92678e-05
-0.0002332
-0.000113172
-9.76951e-05
-0.000135505
2.4712e-05
-0.000122407
9.73736e-05
-7.26616e-05
9.51642e-05
2.20943e-06
4.29703e-05
5.21938e-05
4.29703e-05
8.4799e-06
-2.158e-05
5.19884e-07
-3.02576e-06
-3.49664e-05
3.49853e-05
-0.000106895
8.411e-05
-0.000220006
0.000141506
-0.000368415
0.000198624
-0.000530866
0.000237466
-0.000678622
0.000240519
-0.00078909
0.000203199
-0.000850264
0.000132238
-0.000856974
3.95246e-05
-0.000806297
-6.56289e-05
-0.000701277
-0.000174287
-0.000544938
-0.000269511
-0.000350981
-0.000329463
-0.000148515
-0.000324874
1.1516e-05
-0.000232692
7.88433e-05
-6.51178e-05
4.92917e-05
8.17454e-05
9.22621e-05
-1.50498e-05
-6.53025e-06
-6.39184e-05
4.58429e-05
-0.000155526
0.000126593
-0.000294464
0.000223048
-0.000471757
0.000318798
-0.000661989
0.000388856
-0.000835521
0.000410998
-0.000973308
0.000378306
-0.00106857
0.000298463
-0.00111981
0.00018348
-0.00112265
4.23584e-05
-0.00108045
-0.000107823
-0.000992306
-0.000262436
-0.000853049
-0.000408767
-0.000660658
-0.000521854
-0.000424132
-0.0005614
-0.000181793
-0.000475031
-9.6889e-06
-0.000237222
2.83271e-05
4.37294e-05
0.000120589
-4.7332e-05
4.08017e-05
-0.000145862
0.000144373
-0.000289305
0.000270037
-0.000471292
0.000405035
-0.000670208
0.000517714
-0.000857628
0.000576276
-0.00101257
0.000565936
-0.00112845
0.000494194
-0.00120702
0.000377033
-0.00125134
0.000227793
-0.00126025
5.12769e-05
-0.0012386
-0.000129479
-0.00118358
-0.000317457
-0.00108525
-0.000507093
-0.000930904
-0.000676201
-0.000708458
-0.000783846
-0.000422466
-0.000761023
-0.000132876
-0.000526812
1.14067e-05
-0.000100553
0.000131996
-7.89702e-05
0.000119772
-0.000216812
0.000282214
-0.000390081
0.000443305
-0.000583149
0.000598104
-0.000770769
0.000705333
-0.000930421
0.000735928
-0.00105224
0.000687758
-0.00113713
0.000579077
-0.00119051
0.000430412
-0.00121935
0.000256635
-0.00123201
6.39349e-05
-0.00122883
-0.000132657
-0.00120867
-0.00033761
-0.00116362
-0.00055215
-0.00107535
-0.000764471
-0.000915716
-0.000943478
-0.000656549
-0.00102019
-0.000309177
-0.000874183
-2.55048e-05
-0.000384226
0.000106491
-9.84257e-05
0.000218198
-0.000254697
0.000438485
-0.000431827
0.000620436
-0.000609697
0.000775973
-0.000766664
0.000862301
-0.00088811
0.000857374
-0.000971289
0.000770936
-0.00102134
0.000629124
-0.00104668
0.000455758
-0.00105723
0.000267186
-0.00106504
7.17381e-05
-0.00107079
-0.0001269
-0.00107544
-0.000332964
-0.00107615
-0.000551435
-0.00105738
-0.000783245
-0.000986334
-0.00101452
-0.000814726
-0.0011918
-0.000503753
-0.00118516
-0.000111071
-0.000776908
-4.57939e-06
-0.000100232
0.00031843
-0.000252597
0.00059085
-0.000413002
0.000780841
-0.000561496
0.000924467
-0.000682052
0.000982857
-0.000766514
0.000941837
-0.000816542
0.000820964
-0.000839691
0.000652273
-0.000845955
0.000462022
-0.000845352
0.000266583
-0.000846886
7.32716e-05
-0.000853607
-0.000120179
-0.000867691
-0.00031888
-0.000890474
-0.000528653
-0.000915817
-0.000757902
-0.000919562
-0.00101078
-0.000849421
-0.00126194
-0.000632039
-0.00140254
-0.000232182
-0.00117677
-0.000236761
-8.44416e-05
0.000402871
-0.000215499
0.000721907
-0.000347406
0.000912748
-0.000462172
0.00103923
-0.000549081
0.00106977
-0.00060475
0.000997505
-0.000633243
0.000849457
-0.000642799
0.000661829
-0.000642926
0.000462149
-0.000641504
0.000265162
-0.000642941
7.47079e-05
-0.000649441
-0.000113679
-0.000663726
-0.000304594
-0.00068948
-0.000502899
-0.000728463
-0.000718919
-0.000770484
-0.000968757
-0.000772768
-0.00125965
-0.000653552
-0.00152175
-0.000344326
-0.00148599
-0.000581087
-5.63231e-05
0.000459194
-0.000155232
0.000820816
-0.000253829
0.00101135
-0.000335627
0.00112103
-0.00039442
0.00112856
-0.000430001
0.00103309
-0.000447162
0.000866618
-0.000453173
0.00066784
-0.000455328
0.000464304
-0.000458421
0.000268255
-0.000463837
8.01243e-05
-0.000472391
-0.000105125
-0.000485625
-0.000291361
-0.000507246
-0.000481277
-0.000543683
-0.000682483
-0.000595997
-0.000916443
-0.000639908
-0.00121574
-0.000599344
-0.00156232
-0.000381868
-0.00170347
-0.000962955
-2.08523e-05
0.000480047
-8.23229e-05
0.000882287
-0.000146409
0.00107543
-0.000197868
0.00117249
-0.000233412
0.0011641
-0.000254798
0.00105447
-0.000266353
0.000878172
-0.000273136
0.000674624
-0.000279566
0.000470734
-0.000287989
0.000276678
-0.000298644
9.07789e-05
-0.000311423
-9.23457e-05
-0.000326642
-0.000276142
-0.000346332
-0.000461587
-0.000377027
-0.000651788
-0.000427776
-0.000865694
-0.000491389
-0.00115213
-0.000504345
-0.00154936
-0.000349973
-0.00185784
-0.00131293
1.48509e-05
0.000465196
-6.38225e-06
0.00090352
-3.78552e-05
0.0011069
-6.19339e-05
0.00119657
-7.68438e-05
0.00117901
-8.54308e-05
0.00106306
-9.15639e-05
0.000884305
-9.84699e-05
0.00068153
-0.000107689
0.000479953
-0.00011979
0.000288779
-0.000134714
0.000105702
-0.000152492
-7.4568e-05
-0.000173068
-0.000255566
-0.000196764
-0.000437891
-0.000227618
-0.000620934
-0.000276687
-0.000816624
-0.000349588
-0.00107923
-0.000398877
-0.00150007
-0.000299918
-0.0019568
-0.00161285
4.48422e-05
0.000420353
6.32571e-05
0.000885105
6.77822e-05
0.00110238
7.21602e-05
0.00119219
7.78324e-05
0.00117334
8.18056e-05
0.00105909
8.16753e-05
0.000884435
7.65841e-05
0.000686621
6.68349e-05
0.000489702
5.31108e-05
0.000302503
3.53232e-05
0.00012349
1.30409e-05
-5.22857e-05
-1.40018e-05
-0.000228523
-4.66699e-05
-0.000405223
-8.60598e-05
-0.000581544
-0.000138481
-0.000764203
-0.000219284
-0.000998427
-0.000296254
-0.0014231
-0.000246573
-0.00200648
-0.00185942
6.69429e-05
0.000353411
0.00012214
0.000829908
0.000159844
0.00106468
0.000193059
0.00115897
0.000222016
0.00114439
0.000242517
0.00103858
0.000252776
0.000874177
0.00025365
0.000685747
0.000246914
0.000496439
0.000233819
0.000315597
0.000214202
0.000143107
0.000186791
-2.48747e-05
0.000151629
-0.000193361
0.000108255
-0.000361849
5.58952e-05
-0.000529184
-1.17917e-05
-0.000696516
-0.000100335
-0.000909884
-0.000197672
-0.00132576
-0.000195252
-0.0020089
-0.00205467
7.62754e-05
0.000277135
0.000162129
0.000744055
0.000232281
0.000994522
0.000295393
0.00109586
0.000351265
0.00108851
0.000394356
0.000995494
0.000421825
0.000846707
0.000434519
0.000673053
0.000434884
0.000496074
0.000424879
0.000325602
0.000404727
0.00016326
0.000372479
7.3735e-06
0.000328644
-0.000149526
0.000271868
-0.000305074
0.00020212
-0.000459436
0.000120527
-0.000614922
1.65386e-05
-0.000805896
-0.00010531
-0.00120392
-0.000147241
-0.00196697
-0.00220191
6.98171e-05
0.000207318
0.000173025
0.000640846
0.000270421
0.000897127
0.000364633
0.00100165
0.000451975
0.00100117
0.000524753
0.000922715
0.000577707
0.000793754
0.000610244
0.000640516
0.000624309
0.000482009
0.000622021
0.000327889
0.00060381
0.000181471
0.000569082
4.21013e-05
0.000515807
-9.62514e-05
0.000444463
-0.00023373
0.000354663
-0.000369635
0.00024955
-0.00050981
0.000123641
-0.000679986
-2.47281e-05
-0.00105555
-9.82201e-05
-0.00189348
-0.00230013
4.91608e-05
0.000158157
0.000153379
0.000536629
0.000276581
0.000773925
0.00040445
0.000873782
0.000527494
0.000878127
0.000635021
0.000815188
0.000719133
0.000709642
0.00077737
0.000582279
0.000810452
0.000448926
0.000820093
0.000318249
0.000807148
0.000194415
0.000771795
7.74547e-05
0.000709972
-3.44284e-05
0.000623882
-0.00014764
0.000512733
-0.000258486
0.000381516
-0.000378593
0.000235289
-0.000533759
7.83638e-05
-0.000898621
-2.27517e-05
-0.00179236
-0.00232288
1.00232e-05
0.000148134
8.46801e-05
0.000461972
0.000219002
0.000639603
0.000379838
0.000712945
0.000544286
0.000713679
0.00069364
0.000665835
0.000816411
0.00058687
0.000908404
0.000490286
0.00096831
0.00038902
0.000997166
0.000289393
0.000995377
0.000196204
0.000963875
0.000108957
0.000900084
2.93625e-05
0.000804049
-5.16054e-05
0.000677502
-0.000131939
0.000525628
-0.000226719
0.000363977
-0.000372108
0.000207157
-0.000741802
5.86316e-05
-0.00164384
-0.00226425
-4.86175e-05
0.000196752
1.09167e-05
0.000402438
0.000148356
0.000502164
0.000337182
0.000524119
0.000539041
0.00051182
0.000726131
0.000478745
0.000883778
0.000429223
0.00100677
0.000367296
0.00109228
0.000303506
0.00114171
0.000239968
0.00115533
0.000182583
0.00113545
0.000128836
0.00108343
8.1378e-05
0.000999026
3.28035e-05
0.000883594
-1.65074e-05
0.000742815
-8.59398e-05
0.000595942
-0.000225236
0.000428483
-0.000574343
0.000198319
-0.00141367
-0.00206593
-0.000414841
0.000611592
-0.000365252
0.000352849
-0.00013888
0.000275792
0.00012464
0.000260599
0.000383465
0.000252995
0.000624907
0.000237303
0.00083829
0.00021584
0.00101724
0.000188349
0.00115922
0.00016152
0.00126626
0.000132936
0.00133968
0.000109155
0.00138378
8.47421e-05
0.00139801
6.71414e-05
0.0013845
4.63215e-05
0.0013406
2.73903e-05
0.00126785
-1.3196e-05
0.0011681
-0.000125477
0.00100037
-0.000406619
0.000559276
-0.000972576
-0.00150666
0.000611593
0.000964441
0.00124023
0.00150083
0.00175383
0.00199113
0.00220697
0.00239532
0.00255684
0.00268978
0.00279893
0.00288367
0.00295081
0.00299714
0.00302453
0.00301133
0.00288585
0.00247923
0.00150666
)
;

boundaryField
{
    movingWall
    {
        type            calculated;
        value           uniform 0;
    }
    fixedWalls
    {
        type            calculated;
        value           uniform 0;
    }
    frontAndBack
    {
        type            empty;
    }
}


// ************************************************************************* //
