/*--------------------------------*- C++ -*----------------------------------*\
| =========                 |                                                 |
| \\      /  F ield         | OpenFOAM: The Open Source CFD Toolbox           |
|  \\    /   O peration     | Version:  2506                                  |
|   \\  /    A nd           | Website:  www.openfoam.com                      |
|    \\/     M anipulation  |                                                 |
\*---------------------------------------------------------------------------*/
FoamFile
{
    version     2.0;
    format      ascii;
    arch        "LSB;label=32;scalar=64";
    class       pointScalarField;
    location    "25";
    object      streamFunction;
}
// * * * * * * * * * * * * * * * * * * * * * * * * * * * * * * * * * * * * * //

dimensions      [0 3 -1 0 0 0 0];

internalField   nonuniform List<scalar> 
882
(
0
0
0
0
0
0
0
0
0
0
0
0
0
0
0
0
0
0
0
0
0
0
0.000130998
0.000240868
0.000245894
0.000124087
-0.000159916
-0.000662038
-0.00141215
-0.00233982
-0.0032671
-0.00397789
-0.00430581
-0.00415642
-0.00346359
-0.0023321
-0.000976964
0.000247177
0.000973734
0.000951689
0.000429685
0
0
0.000215797
0.000246066
-0.00010377
-0.000944863
-0.00235998
-0.00434619
-0.00672081
-0.00912604
-0.011158
-0.0124805
-0.0128756
-0.0122194
-0.0104764
-0.00778148
-0.00448677
-0.00123797
0.00108889
0.00174012
0.000922602
0
0
6.5299e-05
-0.000393118
-0.00165903
-0.0038895
-0.00707755
-0.0109661
-0.015076
-0.0188591
-0.0218437
-0.0236786
-0.0241021
-0.0230239
-0.0203994
-0.016312
-0.0110934
-0.00547929
-0.000729036
0.00164323
0.00120587
0
0
-0.000408021
-0.00185174
-0.00455208
-0.00860242
-0.0137796
-0.0195424
-0.0252017
-0.0301436
-0.0339139
-0.036192
-0.0367046
-0.0354099
-0.0322352
-0.0271645
-0.0204024
-0.0125639
-0.0049537
0.000314473
0.00131994
0
0
-0.00119772
-0.00401986
-0.00845289
-0.0144339
-0.0214873
-0.0288466
-0.0357241
-0.0415149
-0.045819
-0.0483855
-0.0490247
-0.0476982
-0.0443219
-0.0388007
-0.0311559
-0.021721
-0.0115192
-0.0027773
0.00106489
0
0
-0.00218198
-0.00656683
-0.0127712
-0.0205309
-0.029154
-0.0377277
-0.045437
-0.0517283
-0.0562858
-0.0589578
-0.0596751
-0.0584061
-0.0550763
-0.0495622
-0.0417297
-0.0315844
-0.0196664
-0.00781483
-4.5818e-05
0
0
-0.0031843
-0.0090928
-0.0169012
-0.0261458
-0.0359745
-0.0453928
-0.0536024
-0.0601252
-0.0647453
-0.0674113
-0.0681439
-0.0669422
-0.0637532
-0.0584669
-0.0508879
-0.04078
-0.0281607
-0.0141352
-0.00236764
0
0
-0.00402872
-0.0112478
-0.0203752
-0.0307676
-0.0414653
-0.0514403
-0.0599349
-0.0665532
-0.0711746
-0.0738264
-0.0745733
-0.0734366
-0.0703905
-0.0653617
-0.0581725
-0.0484848
-0.0358883
-0.0206707
-0.0058109
0
0
-0.00459195
-0.0128001
-0.0229135
-0.0341238
-0.0454095
-0.0557403
-0.0644065
-0.071085
-0.0757279
-0.0784106
-0.0792117
-0.0781605
-0.0752467
-0.0704342
-0.0636093
-0.0544448
-0.0422874
-0.0266642
-0.00962958
0
0
-0.00480047
-0.0136233
-0.0243776
-0.0361025
-0.0477436
-0.0582883
-0.06707
-0.0738163
-0.0785235
-0.0812905
-0.0821981
-0.0812747
-0.0785132
-0.0738975
-0.0673796
-0.0587226
-0.0472013
-0.0317076
-0.0131293
0
0
-0.00465196
-0.0136872
-0.0247562
-0.0367219
-0.048512
-0.0591426
-0.0679857
-0.074801
-0.0796004
-0.0824884
-0.0835453
-0.0827996
-0.0802438
-0.0758651
-0.0696558
-0.0614894
-0.0506972
-0.0356964
-0.0161285
0
0
-0.00420354
-0.0130546
-0.0240783
-0.0360002
-0.0477337
-0.0583246
-0.0671689
-0.0740352
-0.0789321
-0.0819573
-0.083192
-0.0826692
-0.0803839
-0.0763318
-0.0705164
-0.0628742
-0.05289
-0.0386589
-0.0185942
0
0
-0.00353411
-0.0118332
-0.0224799
-0.0340697
-0.0455136
-0.0558994
-0.0646411
-0.0714987
-0.076463
-0.0796191
-0.08105
-0.0808013
-0.0788676
-0.0752493
-0.0699574
-0.0629922
-0.0538934
-0.0406357
-0.0205467
0
0
-0.00277136
-0.0102119
-0.0201571
-0.0311157
-0.0420009
-0.0519558
-0.0604229
-0.0671535
-0.0721141
-0.0753703
-0.0770027
-0.0770765
-0.0755811
-0.0725306
-0.0679362
-0.0617869
-0.053728
-0.0416888
-0.0220191
0
0
-0.00207318
-0.00848165
-0.0174529
-0.0274694
-0.0374812
-0.0467083
-0.0546458
-0.061051
-0.065871
-0.0691501
-0.0709647
-0.0713857
-0.0704231
-0.068086
-0.0643896
-0.0592914
-0.0524916
-0.041936
-0.0230013
0
0
-0.00158158
-0.00694786
-0.0146871
-0.0234249
-0.0322062
-0.0403581
-0.0474545
-0.0532773
-0.0577665
-0.0609492
-0.0628932
-0.0636678
-0.0633233
-0.0618472
-0.0592623
-0.0554762
-0.0501387
-0.0411524
-0.0232289
0
0
-0.00148135
-0.00610106
-0.0124971
-0.0196265
-0.0267634
-0.0334217
-0.0392904
-0.0441933
-0.0480834
-0.0509775
-0.0529394
-0.054029
-0.0543225
-0.0538067
-0.0524872
-0.0502199
-0.0464989
-0.0390808
-0.0226426
0
0
-0.00196752
-0.00599189
-0.0110135
-0.0162547
-0.0213729
-0.0261604
-0.0304526
-0.0341256
-0.0371606
-0.0395604
-0.0413861
-0.0426745
-0.0434882
-0.0438164
-0.0436513
-0.0427918
-0.0405395
-0.034796
-0.0206594
0
0
-0.00611593
-0.00964441
-0.0124023
-0.0150083
-0.0175383
-0.0199113
-0.0220697
-0.0239532
-0.0255684
-0.0268978
-0.0279893
-0.0288367
-0.0295081
-0.0299714
-0.0302453
-0.0301133
-0.0288585
-0.0247923
-0.0150666
0
0
0
0
0
0
0
0
0
0
0
0
0
0
0
0
0
0
0
0
0
0
0
0
0
0
0
0
0
0
0
0
0
0
0
0
0
0
0
0
0
0
0
0
0.000130998
0.000240868
0.000245894
0.000124087
-0.000159916
-0.000662038
-0.00141215
-0.00233982
-0.0032671
-0.00397789
-0.00430581
-0.00415642
-0.00346359
-0.0023321
-0.000976964
0.000247177
0.000973734
0.000951689
0.000429685
0
0
0.000215797
0.000246066
-0.00010377
-0.000944863
-0.00235998
-0.00434619
-0.00672081
-0.00912604
-0.011158
-0.0124805
-0.0128756
-0.0122194
-0.0104764
-0.00778148
-0.00448677
-0.00123797
0.00108889
0.00174012
0.000922602
0
0
6.5299e-05
-0.000393118
-0.00165903
-0.0038895
-0.00707755
-0.0109661
-0.015076
-0.0188591
-0.0218437
-0.0236786
-0.0241021
-0.0230239
-0.0203994
-0.016312
-0.0110934
-0.00547929
-0.000729036
0.00164323
0.00120587
0
0
-0.000408021
-0.00185174
-0.00455208
-0.00860242
-0.0137796
-0.0195424
-0.0252017
-0.0301436
-0.0339139
-0.036192
-0.0367046
-0.0354099
-0.0322352
-0.0271645
-0.0204024
-0.0125639
-0.0049537
0.000314473
0.00131994
0
0
-0.00119772
-0.00401986
-0.00845289
-0.0144339
-0.0214873
-0.0288466
-0.0357241
-0.0415149
-0.045819
-0.0483855
-0.0490247
-0.0476982
-0.0443219
-0.0388007
-0.0311559
-0.021721
-0.0115192
-0.0027773
0.00106489
0
0
-0.00218198
-0.00656683
-0.0127712
-0.0205309
-0.029154
-0.0377277
-0.045437
-0.0517283
-0.0562858
-0.0589578
-0.0596751
-0.0584061
-0.0550763
-0.0495622
-0.0417297
-0.0315844
-0.0196664
-0.00781483
-4.5818e-05
0
0
-0.0031843
-0.0090928
-0.0169012
-0.0261458
-0.0359745
-0.0453928
-0.0536024
-0.0601252
-0.0647453
-0.0674113
-0.0681439
-0.0669422
-0.0637532
-0.0584669
-0.0508879
-0.04078
-0.0281607
-0.0141352
-0.00236764
0
0
-0.00402872
-0.0112478
-0.0203752
-0.0307676
-0.0414653
-0.0514403
-0.0599349
-0.0665532
-0.0711746
-0.0738264
-0.0745733
-0.0734366
-0.0703905
-0.0653617
-0.0581725
-0.0484848
-0.0358883
-0.0206707
-0.0058109
0
0
-0.00459195
-0.0128001
-0.0229135
-0.0341238
-0.0454095
-0.0557403
-0.0644065
-0.071085
-0.0757279
-0.0784106
-0.0792117
-0.0781605
-0.0752467
-0.0704342
-0.0636093
-0.0544448
-0.0422874
-0.0266642
-0.00962958
0
0
-0.00480047
-0.0136233
-0.0243776
-0.0361025
-0.0477436
-0.0582883
-0.06707
-0.0738163
-0.0785235
-0.0812905
-0.0821981
-0.0812747
-0.0785132
-0.0738975
-0.0673796
-0.0587226
-0.0472013
-0.0317076
-0.0131293
0
0
-0.00465196
-0.0136872
-0.0247562
-0.0367219
-0.048512
-0.0591426
-0.0679857
-0.074801
-0.0796004
-0.0824884
-0.0835453
-0.0827996
-0.0802438
-0.0758651
-0.0696558
-0.0614894
-0.0506972
-0.0356964
-0.0161285
0
0
-0.00420354
-0.0130546
-0.0240783
-0.0360002
-0.0477337
-0.0583246
-0.0671689
-0.0740352
-0.0789321
-0.0819573
-0.083192
-0.0826692
-0.0803839
-0.0763318
-0.0705164
-0.0628742
-0.05289
-0.0386589
-0.0185942
0
0
-0.00353411
-0.0118332
-0.0224799
-0.0340697
-0.0455136
-0.0558994
-0.0646411
-0.0714987
-0.076463
-0.0796191
-0.08105
-0.0808013
-0.0788676
-0.0752493
-0.0699574
-0.0629922
-0.0538934
-0.0406357
-0.0205467
0
0
-0.00277136
-0.0102119
-0.0201571
-0.0311157
-0.0420009
-0.0519558
-0.0604229
-0.0671535
-0.0721141
-0.0753703
-0.0770027
-0.0770765
-0.0755811
-0.0725306
-0.0679362
-0.0617869
-0.053728
-0.0416888
-0.0220191
0
0
-0.00207318
-0.00848165
-0.0174529
-0.0274694
-0.0374812
-0.0467083
-0.0546458
-0.061051
-0.065871
-0.0691501
-0.0709647
-0.0713857
-0.0704231
-0.068086
-0.0643896
-0.0592914
-0.0524916
-0.041936
-0.0230013
0
0
-0.00158158
-0.00694786
-0.0146871
-0.0234249
-0.0322062
-0.0403581
-0.0474545
-0.0532773
-0.0577665
-0.0609492
-0.0628932
-0.0636678
-0.0633233
-0.0618472
-0.0592623
-0.0554762
-0.0501387
-0.0411524
-0.0232289
0
0
-0.00148135
-0.00610106
-0.0124971
-0.0196265
-0.0267634
-0.0334217
-0.0392904
-0.0441933
-0.0480834
-0.0509775
-0.0529394
-0.054029
-0.0543225
-0.0538067
-0.0524872
-0.0502199
-0.0464989
-0.0390808
-0.0226426
0
0
-0.00196752
-0.00599189
-0.0110135
-0.0162547
-0.0213729
-0.0261604
-0.0304526
-0.0341256
-0.0371606
-0.0395604
-0.0413861
-0.0426745
-0.0434882
-0.0438164
-0.0436513
-0.0427918
-0.0405395
-0.034796
-0.0206594
0
0
-0.00611593
-0.00964441
-0.0124023
-0.0150083
-0.0175383
-0.0199113
-0.0220697
-0.0239532
-0.0255684
-0.0268978
-0.0279893
-0.0288367
-0.0295081
-0.0299714
-0.0302453
-0.0301133
-0.0288585
-0.0247923
-0.0150666
0
0
0
0
0
0
0
0
0
0
0
0
0
0
0
0
0
0
0
0
0
0
)
;

boundaryField
{
    movingWall
    {
        type            calculated;
    }
    fixedWalls
    {
        type            calculated;
    }
    frontAndBack
    {
        type            empty;
    }
}


// ************************************************************************* //
