/*--------------------------------*- C++ -*----------------------------------*\
| =========                 |                                                 |
| \\      /  F ield         | OpenFOAM: The Open Source CFD Toolbox           |
|  \\    /   O peration     | Version:  2506                                  |
|   \\  /    A nd           | Website:  www.openfoam.com                      |
|    \\/     M anipulation  |                                                 |
\*---------------------------------------------------------------------------*/
FoamFile
{
    version     2.0;
    format      ascii;
    arch        "LSB;label=32;scalar=64";
    class       volVectorField;
    location    "25";
    object      U;
}
// * * * * * * * * * * * * * * * * * * * * * * * * * * * * * * * * * * * * * //

dimensions      [0 1 -1 0 0 0 0];

internalField   nonuniform List<vector> 
400
(
(0.00142559 -0.00146817 0)
(0.00403069 -0.00162225 0)
(0.00535726 -0.00105264 0)
(0.00436061 -0.000477294 0)
(0.000478479 0.000266514 0)
(-0.00729922 0.00169464 0)
(-0.0199406 0.00433797 0)
(-0.0372962 0.00778859 0)
(-0.0569768 0.0102066 0)
(-0.0743322 0.00976396 0)
(-0.0848742 0.00649834 0)
(-0.0860889 0.00177432 0)
(-0.0770115 -0.00319637 0)
(-0.0582718 -0.00765633 0)
(-0.0334046 -0.0101731 0)
(-0.00662568 -0.00927776 0)
(0.0144668 -0.00473939 0)
(0.0222398 0.00239003 0)
(0.0149968 0.00594393 0)
(0.00407625 0.00438959 0)
(0.00127894 -0.00413692 0)
(0.00198626 -0.00307339 0)
(-0.0018367 0.000908194 0)
(-0.0120644 0.00611751 0)
(-0.0304324 0.0129582 0)
(-0.0575456 0.0216797 0)
(-0.0905747 0.0302375 0)
(-0.123362 0.0344586 0)
(-0.15003 0.0317665 0)
(-0.167102 0.022731 0)
(-0.172994 0.00945008 0)
(-0.167554 -0.00579282 0)
(-0.151341 -0.0212374 0)
(-0.12497 -0.0345145 0)
(-0.0906411 -0.042079 0)
(-0.0510496 -0.0398293 0)
(-0.0119328 -0.0255148 0)
(0.0151651 -0.00199111 0)
(0.0166148 0.0148387 0)
(0.00527914 0.0138424 0)
(-0.000593135 -0.00414097 0)
(-0.0059008 0.00206524 0)
(-0.0193353 0.0137499 0)
(-0.0421638 0.0287261 0)
(-0.0749401 0.0452979 0)
(-0.113915 0.0594687 0)
(-0.152241 0.0661885 0)
(-0.184345 0.0629241 0)
(-0.207744 0.0505557 0)
(-0.221649 0.0313585 0)
(-0.225948 0.0076226 0)
(-0.221188 -0.0186184 0)
(-0.207679 -0.0452624 0)
(-0.184976 -0.0688422 0)
(-0.152815 -0.0844166 0)
(-0.111235 -0.0852033 0)
(-0.0621434 -0.0646449 0)
(-0.0137142 -0.022969 0)
(0.00891395 0.0160166 0)
(0.00411681 0.0221372 0)
(-0.00334219 0.00210797 0)
(-0.0165033 0.0174762 0)
(-0.0405622 0.0386282 0)
(-0.073792 0.0626853 0)
(-0.114073 0.0844089 0)
(-0.15508 0.0974724 0)
(-0.190478 0.097992 0)
(-0.217712 0.0865075 0)
(-0.236744 0.0658707 0)
(-0.248048 0.0387471 0)
(-0.252375 0.00706214 0)
(-0.250524 -0.0278194 0)
(-0.242484 -0.0637901 0)
(-0.227243 -0.0979591 0)
(-0.202879 -0.125095 0)
(-0.166777 -0.136686 0)
(-0.116645 -0.121004 0)
(-0.0546031 -0.0690603 0)
(-0.00116852 0.00192123 0)
(0.00468888 0.0266005 0)
(-0.00611923 0.0154087 0)
(-0.0263356 0.0421583 0)
(-0.0581427 0.07142 0)
(-0.0963662 0.100859 0)
(-0.137072 0.122853 0)
(-0.173677 0.131194 0)
(-0.202163 0.124512 0)
(-0.222318 0.1057 0)
(-0.235254 0.0785189 0)
(-0.242546 0.0457937 0)
(-0.24589 0.0091686 0)
(-0.246306 -0.0305279 0)
(-0.243689 -0.0721812 0)
(-0.237388 -0.114474 0)
(-0.224724 -0.153628 0)
(-0.201132 -0.181441 0)
(-0.160815 -0.183019 0)
(-0.0994136 -0.138194 0)
(-0.0213875 -0.038664 0)
(0.00702742 0.0254919 0)
(-0.00770577 0.0336183 0)
(-0.0319945 0.0720755 0)
(-0.0669565 0.10674 0)
(-0.104701 0.137821 0)
(-0.140826 0.156843 0)
(-0.169818 0.158872 0)
(-0.189883 0.144962 0)
(-0.202131 0.119678 0)
(-0.20841 0.0874086 0)
(-0.211112 0.051258 0)
(-0.212354 0.0128446 0)
(-0.213288 -0.0273825 0)
(-0.214219 -0.0698549 0)
(-0.215184 -0.115063 0)
(-0.214027 -0.16192 0)
(-0.205625 -0.205077 0)
(-0.181987 -0.230517 0)
(-0.134769 -0.211473 0)
(-0.0599393 -0.115032 0)
(0.00536024 0.0131707 0)
(-0.0074751 0.0536481 0)
(-0.0320834 0.102946 0)
(-0.0658329 0.140266 0)
(-0.0992899 0.17013 0)
(-0.128498 0.184367 0)
(-0.149402 0.179576 0)
(-0.161874 0.158825 0)
(-0.167741 0.127922 0)
(-0.169301 0.091806 0)
(-0.169095 0.0537272 0)
(-0.168876 0.0151403 0)
(-0.169482 -0.023844 0)
(-0.171556 -0.0643851 0)
(-0.175711 -0.108013 0)
(-0.181265 -0.15606 0)
(-0.184445 -0.207491 0)
(-0.177214 -0.253223 0)
(-0.149617 -0.267049 0)
(-0.0955107 -0.199541 0)
(-0.00844353 -0.0148066 0)
(-0.00552691 0.0722794 0)
(-0.0270448 0.131336 0)
(-0.0563569 0.169455 0)
(-0.0835852 0.196488 0)
(-0.105545 0.2053 0)
(-0.119611 0.193927 0)
(-0.126685 0.167113 0)
(-0.128894 0.131646 0)
(-0.128633 0.0928331 0)
(-0.128012 0.0537495 0)
(-0.127942 0.015401 0)
(-0.128678 -0.0224952 0)
(-0.130766 -0.0610383 0)
(-0.135055 -0.101732 0)
(-0.14222 -0.146939 0)
(-0.150837 -0.199334 0)
(-0.154616 -0.256828 0)
(-0.143054 -0.299369 0)
(-0.108989 -0.269426 0)
(-0.0295101 -0.0726363 0)
(-0.00245519 0.0867178 0)
(-0.0185034 0.154654 0)
(-0.0414211 0.192676 0)
(-0.0617629 0.21622 0)
(-0.0771128 0.219916 0)
(-0.0860123 0.203091 0)
(-0.0898443 0.171679 0)
(-0.0906505 0.133108 0)
(-0.0905277 0.0928228 0)
(-0.090849 0.0535291 0)
(-0.0917754 0.0156358 0)
(-0.0931925 -0.0215689 0)
(-0.0953324 -0.0589407 0)
(-0.09886 -0.0973784 0)
(-0.105105 -0.138956 0)
(-0.114872 -0.188237 0)
(-0.124699 -0.249835 0)
(-0.123876 -0.31412 0)
(-0.105063 -0.325676 0)
(-0.0362273 -0.157061 0)
(0.00108586 0.0949059 0)
(-0.00804991 0.17123 0)
(-0.0234758 0.209407 0)
(-0.0369078 0.229988 0)
(-0.0464572 0.229785 0)
(-0.0515561 0.209096 0)
(-0.053588 0.174634 0)
(-0.0541627 0.134259 0)
(-0.0548217 0.0934267 0)
(-0.0562735 0.0543733 0)
(-0.0582945 0.0169333 0)
(-0.0606585 -0.0199004 0)
(-0.0633794 -0.0568046 0)
(-0.0667656 -0.0940944 0)
(-0.0719686 -0.132849 0)
(-0.0808238 -0.177562 0)
(-0.0933019 -0.237326 0)
(-0.0991316 -0.314539 0)
(-0.0937526 -0.362932 0)
(-0.0304647 -0.234911 0)
(0.00453499 0.095867 0)
(0.00275015 0.180045 0)
(-0.00485225 0.219319 0)
(-0.0116008 0.237703 0)
(-0.0159762 0.234841 0)
(-0.017906 0.212001 0)
(-0.0185776 0.176246 0)
(-0.019027 0.135451 0)
(-0.0201909 0.0948535 0)
(-0.0223358 0.0563294 0)
(-0.0251139 0.0194135 0)
(-0.0283608 -0.0169885 0)
(-0.0320851 -0.0535422 0)
(-0.0363151 -0.090296 0)
(-0.0417532 -0.127417 0)
(-0.0499793 -0.168143 0)
(-0.0639643 -0.223539 0)
(-0.0737074 -0.307597 0)
(-0.0805459 -0.387026 0)
(-0.0227975 -0.298696 0)
(0.00737523 0.0899946 0)
(0.0128671 0.180846 0)
(0.0129872 0.222586 0)
(0.0127306 0.240264 0)
(0.0134134 0.236405 0)
(0.014724 0.213098 0)
(0.0156934 0.177422 0)
(0.0158006 0.137069 0)
(0.0146838 0.0970338 0)
(0.0123723 0.0590961 0)
(0.00920281 0.0228177 0)
(0.00523039 -0.0128676 0)
(0.00034242 -0.0486885 0)
(-0.00538743 -0.0846968 0)
(-0.0123873 -0.12062 0)
(-0.0211579 -0.158116 0)
(-0.0371353 -0.207891 0)
(-0.0493185 -0.293639 0)
(-0.0680291 -0.399004 0)
(-0.0146116 -0.351494 0)
(0.00883191 0.0784682 0)
(0.0209332 0.173738 0)
(0.0283598 0.218737 0)
(0.0342077 0.236653 0)
(0.0399176 0.232933 0)
(0.0450732 0.210591 0)
(0.0487058 0.176365 0)
(0.0504576 0.13749 0)
(0.0503003 0.0987197 0)
(0.0484685 0.0618554 0)
(0.0452839 0.0266646 0)
(0.0407285 -0.00782036 0)
(0.034675 -0.0423363 0)
(0.0271479 -0.077019 0)
(0.0174992 -0.111503 0)
(0.00658262 -0.146434 0)
(-0.0126019 -0.191178 0)
(-0.0258561 -0.275294 0)
(-0.0565971 -0.401723 0)
(-0.00648375 -0.393719 0)
(0.00830006 0.0633997 0)
(0.0256015 0.159262 0)
(0.0400983 0.208213 0)
(0.0522215 0.227888 0)
(0.0633994 0.225703 0)
(0.0732442 0.205658 0)
(0.0806974 0.174024 0)
(0.0852936 0.137428 0)
(0.0870807 0.10042 0)
(0.0863866 0.0649671 0)
(0.0835806 0.0312098 0)
(0.0785774 -0.00164444 0)
(0.0712317 -0.034102 0)
(0.0617246 -0.0666366 0)
(0.0489738 -0.0989969 0)
(0.0345468 -0.131305 0)
(0.0107321 -0.171178 0)
(-0.00250628 -0.252184 0)
(-0.0461212 -0.398 0)
(0.00221403 -0.428968 0)
(0.00575928 0.0480247 0)
(0.0254342 0.139651 0)
(0.045607 0.190689 0)
(0.0636445 0.211461 0)
(0.0807291 0.21087 0)
(0.0963865 0.19383 0)
(0.109193 0.165974 0)
(0.118288 0.133041 0)
(0.123508 0.0991774 0)
(0.125104 0.0664075 0)
(0.123371 0.0352396 0)
(0.11845 0.00512472 0)
(0.109898 -0.0242115 0)
(0.0983009 -0.0534485 0)
(0.0817766 -0.082588 0)
(0.0631732 -0.112364 0)
(0.0341086 -0.148443 0)
(0.020664 -0.226546 0)
(-0.0362142 -0.391074 0)
(0.0126398 -0.45849 0)
(0.00190339 0.035344 0)
(0.0200283 0.117494 0)
(0.0447485 0.169034 0)
(0.0688883 0.190949 0)
(0.0925862 0.192085 0)
(0.114943 0.178254 0)
(0.134198 0.154729 0)
(0.148975 0.1263 0)
(0.158736 0.0965669 0)
(0.163629 0.0674603 0)
(0.163635 0.0397788 0)
(0.159431 0.0133341 0)
(0.149812 -0.0121137 0)
(0.13628 -0.0371047 0)
(0.115711 -0.0619535 0)
(0.0929597 -0.0883435 0)
(0.0584979 -0.121701 0)
(0.0432552 -0.198351 0)
(-0.0250129 -0.381222 0)
(0.0273246 -0.481329 0)
(-0.00318484 0.0309288 0)
(0.00729483 0.0981759 0)
(0.0311319 0.140161 0)
(0.0607069 0.159182 0)
(0.0919254 0.161149 0)
(0.122421 0.150839 0)
(0.14963 0.132598 0)
(0.17171 0.110108 0)
(0.187537 0.0863268 0)
(0.197276 0.0628879 0)
(0.200241 0.0407224 0)
(0.197904 0.0198176 0)
(0.188042 3.4079e-05 0)
(0.173768 -0.0191726 0)
(0.149987 -0.0381887 0)
(0.124586 -0.0602872 0)
(0.0851892 -0.0927914 0)
(0.0656955 -0.172324 0)
(-0.00685548 -0.366162 0)
(0.0509127 -0.489213 0)
(-0.0122565 0.0209462 0)
(-0.00782772 0.0878331 0)
(0.0147354 0.119553 0)
(0.0486724 0.130353 0)
(0.0869384 0.129606 0)
(0.124988 0.121369 0)
(0.159584 0.108145 0)
(0.188276 0.0918038 0)
(0.209607 0.0746136 0)
(0.224259 0.0575385 0)
(0.230411 0.041705 0)
(0.231372 0.0269596 0)
(0.222823 0.0137301 0)
(0.211573 0.000945222 0)
(0.188223 -0.0118323 0)
(0.166266 -0.0298181 0)
(0.124735 -0.0618637 0)
(0.102843 -0.141924 0)
(0.0350545 -0.32518 0)
(0.0914382 -0.455194 0)
(-0.104933 0.0841497 0)
(-0.0773039 0.0698439 0)
(-0.0501215 0.0711357 0)
(-0.000732119 0.0740546 0)
(0.0496018 0.0738566 0)
(0.0994827 0.0699136 0)
(0.144485 0.0633389 0)
(0.185167 0.0547832 0)
(0.216453 0.0459662 0)
(0.244034 0.0370389 0)
(0.259956 0.0291109 0)
(0.275322 0.0217269 0)
(0.276677 0.0156534 0)
(0.28171 0.00978937 0)
(0.26748 0.00351431 0)
(0.262058 -0.00743597 0)
(0.224997 -0.0329821 0)
(0.214184 -0.0939651 0)
(0.149006 -0.229533 0)
(0.170423 -0.341476 0)
(0.130688 0.104432 0)
(0.159878 0.0767595 0)
(0.214452 0.0547776 0)
(0.272494 0.0427152 0)
(0.323717 0.0365098 0)
(0.374225 0.0322005 0)
(0.416991 0.0290238 0)
(0.460667 0.0256509 0)
(0.4927 0.0230305 0)
(0.527234 0.0198968 0)
(0.5465 0.0178365 0)
(0.572402 0.0149633 0)
(0.579071 0.0136339 0)
(0.598135 0.0108803 0)
(0.59071 0.0100201 0)
(0.600456 0.00560063 0)
(0.566109 0.000672408 0)
(0.547516 -0.0178637 0)
(0.436702 -0.0502213 0)
(0.337369 -0.101357 0)
)
;

boundaryField
{
    movingWall
    {
        type            fixedValue;
        value           uniform (1 0 0);
    }
    fixedWalls
    {
        type            noSlip;
    }
    frontAndBack
    {
        type            empty;
    }
}


// ************************************************************************* //
