/*--------------------------------*- C++ -*----------------------------------*\
| =========                 |                                                 |
| \\      /  F ield         | OpenFOAM: The Open Source CFD Toolbox           |
|  \\    /   O peration     | Version:  2506                                  |
|   \\  /    A nd           | Website:  www.openfoam.com                      |
|    \\/     M anipulation  |                                                 |
\*---------------------------------------------------------------------------*/
FoamFile
{
    version     2.0;
    format      ascii;
    arch        "LSB;label=32;scalar=64";
    class       volScalarField;
    location    "500";
    object      div(phi);
}
// * * * * * * * * * * * * * * * * * * * * * * * * * * * * * * * * * * * * * //

dimensions      [0 0 -1 0 0 0 0];

internalField   nonuniform List<scalar> 
1340
(
6.68469e-06
-4.95881e-06
3.61199e-06
-2.94181e-06
2.26039e-06
5.4716e-07
3.13029e-06
1.71234e-06
7.50015e-07
-6.91293e-07
-8.89273e-07
-1.12517e-06
-7.00136e-07
-6.85555e-07
-4.14095e-07
-5.65088e-07
-4.12845e-07
-7.33126e-07
-4.04037e-07
-9.25966e-07
3.76919e-07
5.95618e-08
5.30907e-06
7.03781e-06
8.00192e-06
6.96392e-06
3.53207e-06
2.29322e-06
3.92096e-06
4.00956e-06
-6.2522e-06
2.08935e-05
3.20531e-06
2.48297e-07
-8.89164e-06
-5.18813e-06
5.73055e-06
1.37267e-07
1.23658e-06
1.06392e-06
-4.25379e-06
-1.76147e-06
3.28184e-06
-1.36562e-06
2.31865e-06
-2.19567e-06
2.41788e-06
1.20001e-06
2.39467e-06
1.67559e-06
1.1156e-07
-7.80306e-07
-9.43807e-07
-1.02486e-06
-6.65707e-07
-6.95671e-07
-4.38977e-07
-6.19253e-07
-4.48557e-07
-6.96805e-07
-4.29196e-07
-6.40407e-07
1.67999e-07
3.74387e-07
2.65229e-06
3.40898e-06
4.26952e-06
3.53452e-06
3.0041e-06
2.61919e-06
3.43001e-06
3.49252e-06
-1.71148e-06
1.28492e-05
4.84583e-06
4.15981e-06
-5.3484e-08
-7.55238e-08
2.75256e-06
-9.89573e-07
6.87627e-07
-2.29015e-06
-6.1025e-07
-5.87347e-06
3.84833e-06
-3.77678e-06
2.81079e-06
-4.77338e-07
2.57273e-06
1.90397e-06
7.02365e-07
-3.00241e-07
-6.82545e-07
-1.16983e-06
-8.56633e-07
-9.0208e-07
-5.98715e-07
-6.54059e-07
-5.42862e-07
-6.36505e-07
-6.74455e-07
-6.80908e-07
-7.36825e-07
-3.69411e-07
-1.12172e-07
1.48639e-06
2.43216e-06
2.8605e-06
2.95661e-06
2.48043e-06
7.38868e-07
1.63974e-06
1.57831e-06
-3.25445e-06
1.05126e-05
5.51061e-07
-1.71725e-06
-7.60336e-06
4.26997e-06
-2.76397e-06
4.73016e-07
-2.40089e-06
-8.62255e-07
-1.59993e-06
2.88243e-06
-2.41573e-06
1.18946e-06
-7.57297e-07
2.08816e-06
1.61135e-06
1.1027e-06
3.83539e-07
-3.87758e-07
-8.85249e-07
-1.01278e-06
-8.45752e-07
-8.49833e-07
-5.98567e-07
-7.57927e-07
-5.56148e-07
-8.11057e-07
-6.38119e-07
-8.68515e-07
-6.07366e-07
-5.32656e-07
2.52061e-07
1.34941e-06
2.72333e-06
3.23692e-06
3.51669e-06
3.01485e-06
2.88185e-06
2.88561e-06
2.83079e-06
1.92045e-07
8.91193e-06
4.57156e-06
3.94045e-06
1.01244e-06
-1.94521e-06
-5.38935e-07
-2.12581e-06
-1.85874e-06
-1.18809e-06
1.20426e-06
-1.68942e-07
-1.82939e-07
1.25709e-06
1.04077e-06
1.50678e-06
7.63497e-07
-6.60065e-08
-3.83935e-07
-9.40129e-07
-8.01971e-07
-9.72281e-07
-6.97789e-07
-8.34883e-07
-6.39951e-07
-7.76582e-07
-6.82124e-07
-8.28518e-07
-7.6391e-07
-8.28018e-07
-5.79026e-07
-2.61382e-07
7.95856e-07
1.7958e-06
2.3218e-06
3.4214e-06
2.45007e-06
1.72106e-06
1.19818e-06
1.51556e-06
-1.91435e-06
7.43713e-06
4.7658e-07
-3.47791e-06
-8.16711e-06
-1.58244e-06
-1.32495e-06
-2.58103e-06
-9.08966e-07
-1.03697e-06
-7.93268e-07
7.18584e-08
1.14678e-06
1.65989e-07
1.51769e-06
7.14312e-07
3.01699e-07
3.76056e-08
-5.97585e-07
-7.37109e-07
-8.03959e-07
-7.75266e-07
-6.88339e-07
-8.05009e-07
-6.55297e-07
-8.38895e-07
-6.78453e-07
-9.19998e-07
-7.07954e-07
-8.95004e-07
-4.58042e-07
-2.60908e-07
8.68564e-07
1.60484e-06
2.72508e-06
2.98181e-06
3.33413e-06
3.18309e-06
3.45059e-06
3.02111e-06
1.42952e-06
7.80015e-06
5.14257e-06
4.28897e-06
1.25619e-06
-8.80114e-07
-2.08744e-06
-1.93742e-06
-9.61547e-07
-1.86993e-06
1.33916e-06
2.98596e-08
1.10756e-06
5.34289e-07
5.29962e-07
2.38998e-07
-1.77586e-07
-5.17008e-07
-5.73009e-07
-7.34476e-07
-6.03369e-07
-8.12393e-07
-6.93261e-07
-8.65043e-07
-7.19222e-07
-8.49293e-07
-7.59576e-07
-8.45753e-07
-7.4536e-07
-6.87948e-07
-3.62363e-07
2.15156e-07
9.51114e-07
1.5499e-06
2.52346e-06
2.60587e-06
1.55094e-06
1.78411e-06
1.04992e-06
-1.16262e-06
5.37874e-06
-4.81928e-07
-4.33876e-06
-9.54608e-06
-6.449e-07
-2.54189e-06
-5.14921e-07
-1.50211e-06
1.17133e-06
6.9295e-07
6.87384e-07
6.30359e-07
4.38138e-07
2.66462e-07
1.31177e-07
-1.89739e-07
-3.63597e-07
-6.10459e-07
-4.84368e-07
-5.35817e-07
-6.72412e-07
-6.82288e-07
-8.3203e-07
-6.95681e-07
-8.75507e-07
-6.95895e-07
-8.92897e-07
-6.23819e-07
-7.05933e-07
-1.61462e-07
1.58502e-07
1.10881e-06
1.60541e-06
2.44953e-06
2.71692e-06
3.29695e-06
3.45889e-06
3.30988e-06
1.92588e-06
6.441e-06
5.23379e-06
4.20628e-06
1.39252e-06
-1.6633e-06
-3.75139e-07
-1.7333e-06
2.01577e-06
1.82594e-07
3.69887e-07
1.02098e-06
3.78829e-07
4.30197e-07
2.69093e-07
6.13413e-08
-1.03062e-07
-3.84762e-07
-2.89194e-07
-3.89586e-07
-5.31483e-07
-5.4545e-07
-8.28307e-07
-7.30884e-07
-8.81072e-07
-7.12926e-07
-8.52891e-07
-6.79315e-07
-8.0339e-07
-5.58718e-07
-5.84212e-07
5.10985e-09
1.4728e-07
9.20714e-07
1.30799e-06
2.14544e-06
1.32671e-06
1.91811e-06
8.84233e-07
-4.01908e-07
2.92446e-06
-6.65626e-07
-5.57615e-06
-9.21607e-06
2.03134e-07
-1.66019e-06
1.43912e-06
2.91158e-07
9.33238e-08
9.33505e-08
-9.13386e-08
-7.55876e-08
-7.9475e-07
-1.66228e-09
-3.2289e-07
-5.18654e-07
-6.99125e-07
-7.07835e-07
-8.09925e-07
-7.01871e-07
-7.83705e-07
-6.58777e-07
-6.77132e-07
-4.97914e-07
-3.15724e-07
4.81946e-08
5.4454e-07
1.00981e-06
1.69392e-06
2.10231e-06
2.9593e-06
3.18586e-06
3.52765e-06
1.87906e-06
5.52912e-06
5.17077e-06
3.94792e-06
1.51237e-06
1.32683e-07
1.31145e-07
-9.70065e-07
2.46995e-07
-2.89189e-07
-3.8462e-08
-4.72779e-07
-5.75379e-07
-8.25993e-07
-7.10789e-07
-8.55872e-07
-6.25835e-07
-8.04744e-07
-5.11294e-07
-7.56229e-07
-2.97036e-07
-5.29961e-07
1.84708e-07
-1.75497e-07
1.06222e-06
6.01607e-07
1.64103e-06
9.10052e-07
1.66635e-06
-1.40248e-06
1.9491e-06
-1.56925e-06
-5.6452e-06
-8.57395e-06
3.48542e-07
-9.13895e-07
2.7769e-07
1.97658e-08
-2.96155e-07
-5.03952e-07
-6.56374e-07
-7.48802e-07
-6.82503e-07
-6.90334e-07
-5.58e-07
-5.72025e-07
-3.56754e-07
-2.98085e-07
4.28084e-08
2.42914e-07
6.71729e-07
1.08491e-06
1.55386e-06
2.32561e-06
2.77356e-06
3.2243e-06
1.82374e-06
4.77002e-06
5.2909e-06
3.81788e-06
1.64636e-06
4.82271e-07
5.78724e-09
-7.44868e-09
-1.85954e-07
-4.89569e-07
-6.05762e-07
-8.03112e-07
-6.79428e-07
-7.64069e-07
-5.23713e-07
-6.64387e-07
-3.76235e-07
-5.72193e-07
-1.73361e-07
-4.20392e-07
1.3023e-08
-7.70286e-08
5.12937e-07
3.43878e-07
1.00883e-06
5.8488e-07
-1.20741e-06
3.81831e-07
-1.84203e-06
-6.187e-06
-7.77231e-06
9.16571e-08
-3.01694e-09
-9.48808e-08
-3.41441e-07
-6.07531e-07
-6.34676e-07
-7.3504e-07
-4.9292e-07
-5.83766e-07
-3.00048e-07
-3.76223e-07
-3.7309e-08
-8.37628e-08
3.16117e-07
3.0209e-07
8.65543e-07
9.29828e-07
1.84716e-06
1.99971e-06
2.81022e-06
1.5753e-06
4.32037e-06
5.02855e-06
3.97963e-06
1.5181e-06
1.27864e-07
7.7699e-08
-5.91608e-08
-3.00557e-07
-5.61043e-07
-7.04159e-07
-7.05114e-07
-6.12025e-07
-5.54366e-07
-4.1906e-07
-4.23797e-07
-2.71038e-07
-3.41043e-07
-1.86471e-07
-3.82662e-07
-7.47872e-08
-3.13935e-07
1.69336e-07
-1.12676e-07
2.8708e-07
-1.74395e-06
-5.56615e-07
-2.11245e-06
-7.02188e-06
-7.09049e-06
2.24502e-07
-8.91418e-08
-2.10929e-07
-4.91984e-07
-6.69481e-07
-5.25535e-07
-5.5105e-07
-2.85836e-07
-3.66554e-07
-5.26218e-08
-1.35196e-07
1.87581e-07
8.14163e-08
4.10771e-07
4.10594e-07
7.98243e-07
1.11422e-06
1.58014e-06
1.97232e-06
1.59881e-06
3.60686e-06
4.73609e-06
3.81158e-06
1.43032e-06
1.90555e-07
-1.89258e-07
-5.07515e-07
-5.72218e-07
-6.28702e-07
-4.59825e-07
-4.57668e-07
-2.91999e-07
-2.99471e-07
-1.68965e-07
-2.3515e-07
-1.73069e-07
-3.44648e-07
-2.56124e-07
-5.05953e-07
-2.57886e-07
-6.34238e-07
-3.2941e-07
-2.00308e-06
-8.99059e-07
-2.76012e-06
-6.48746e-06
-7.49392e-06
3.10749e-08
-2.57993e-07
-3.77175e-07
-4.80256e-07
-4.59055e-07
-2.88866e-07
-2.97397e-07
-1.11741e-07
-9.73602e-08
9.56423e-08
9.16503e-08
2.20142e-07
2.23477e-07
3.6325e-07
4.98521e-07
7.71598e-07
1.09824e-06
1.37554e-06
1.5283e-06
3.00112e-06
4.11879e-06
3.54056e-06
1.24129e-06
-7.06534e-08
-2.96728e-07
-4.3601e-07
-3.35438e-07
-3.86104e-07
-2.20498e-07
-2.9591e-07
-8.01798e-08
-1.93124e-07
-2.12316e-08
-2.42739e-07
-1.31771e-07
-4.50801e-07
-3.36068e-07
-6.98515e-07
-5.47183e-07
-1.09443e-06
-1.36773e-06
-1.55273e-06
-2.31704e-06
-6.24525e-06
-7.2138e-06
-1.50863e-07
-2.92952e-07
-2.87911e-07
-1.73999e-07
-1.67597e-07
-1.41506e-07
-8.40433e-08
1.39557e-08
1.08286e-07
1.6339e-07
1.95591e-07
2.16078e-07
2.63498e-07
3.92709e-07
5.17694e-07
8.33412e-07
9.72195e-07
1.50524e-06
2.39048e-06
3.47265e-06
2.98051e-06
1.00221e-06
-1.72749e-07
-2.84625e-08
-1.88331e-07
-1.19913e-07
-2.18063e-07
-9.19959e-08
-1.32935e-07
1.93924e-08
-8.17835e-08
-6.85171e-09
-1.93714e-07
-1.9658e-07
-4.28543e-07
-4.74456e-07
-7.25246e-07
-8.8447e-07
-1.23358e-06
-1.2647e-06
-2.21527e-06
-5.03848e-06
-6.89396e-06
4.84083e-08
-5.24694e-07
7.43395e-08
-2.68963e-08
-7.1145e-08
-5.36707e-08
6.96417e-08
1.28604e-07
2.05409e-07
2.03452e-07
2.18325e-07
2.47921e-07
3.32531e-07
4.29243e-07
6.64886e-07
8.19026e-07
1.37677e-06
1.93868e-06
2.81998e-06
2.37682e-06
8.06497e-07
4.56163e-07
2.62029e-07
7.81401e-08
-4.73943e-08
-9.82077e-08
-4.35859e-09
1.40942e-08
7.4939e-08
1.14075e-08
4.36727e-09
-1.36606e-07
-1.87206e-07
-4.0373e-07
-4.4361e-07
-7.7577e-07
-7.59504e-07
-1.11552e-06
-1.71503e-06
-3.79306e-06
-6.00026e-06
-3.34675e-07
4.42739e-07
3.20494e-07
4.11571e-08
2.05168e-08
7.02778e-08
1.88651e-07
2.05962e-07
2.5611e-07
2.07858e-07
2.89638e-07
2.81277e-07
4.4014e-07
5.36874e-07
7.7869e-07
1.18449e-06
1.59714e-06
2.28646e-06
1.78773e-06
9.12685e-07
1.02354e-06
4.13718e-07
2.40183e-07
1.17491e-08
-1.96557e-08
2.4776e-08
9.68456e-08
1.15775e-07
1.24283e-07
8.09942e-08
3.88834e-08
-7.3376e-08
-1.53143e-07
-2.89638e-07
-4.39899e-07
-4.97741e-07
-7.80605e-07
-1.18589e-06
-2.82284e-06
-4.37496e-06
8.82865e-07
1.68269e-07
6.59524e-08
1.72234e-08
1.33025e-07
1.65983e-07
2.67202e-07
2.21088e-07
2.72115e-07
2.39828e-07
3.229e-07
3.69647e-07
4.98752e-07
6.87189e-07
9.90751e-07
1.34737e-06
1.78401e-06
1.36626e-06
1.47127e-06
2.43586e-07
1.71487e-07
-4.546e-09
2.01414e-08
4.92646e-08
1.39387e-07
1.43474e-07
1.80695e-07
1.46144e-07
1.35728e-07
4.87484e-08
1.30218e-09
-1.16754e-07
-1.87161e-07
-2.73475e-07
-4.41928e-07
-7.92528e-07
-1.87487e-06
-2.98232e-06
7.42242e-07
-3.36112e-07
5.23024e-09
4.55401e-08
9.67579e-08
2.00369e-07
2.20819e-07
2.50451e-07
2.27811e-07
2.52004e-07
2.70649e-07
3.36057e-07
4.14353e-07
5.88526e-07
7.98545e-07
1.09855e-06
1.40262e-06
8.85107e-07
2.09591e-06
5.10018e-07
1.86246e-07
7.96504e-08
1.31346e-07
1.24901e-07
1.92567e-07
1.63585e-07
2.06819e-07
1.5132e-07
1.45089e-07
6.73105e-08
3.32427e-08
-3.98265e-08
-8.4708e-08
-1.84681e-07
-5.47321e-07
-1.05977e-06
-3.38306e-07
-2.34664e-07
1.80918e-07
3.05004e-07
1.87939e-07
2.15151e-07
2.18098e-07
2.27297e-07
2.06896e-07
2.12471e-07
2.29464e-07
2.67805e-07
3.36646e-07
4.59229e-07
6.21891e-07
8.39981e-07
1.05019e-06
1.23482e-06
-1.09562e-07
6.75096e-07
2.415e-07
2.20229e-07
1.7937e-07
1.95389e-07
1.74733e-07
1.9661e-07
1.8014e-07
1.87712e-07
1.46836e-07
1.31683e-07
8.50181e-08
6.55627e-08
1.93573e-08
-3.17648e-08
-2.40832e-07
-1.39337e-06
1.12379e-06
5.8493e-07
2.03575e-07
2.11065e-07
2.13669e-07
2.21624e-07
1.97253e-07
1.86336e-07
1.67244e-07
1.85152e-07
1.99829e-07
2.54457e-07
3.30797e-07
4.51126e-07
5.97513e-07
5.71322e-07
1.34093e-06
-2.22952e-06
-7.84948e-08
1.70053e-07
2.09688e-07
2.07872e-07
1.90578e-07
1.73503e-07
1.7429e-07
1.656e-07
1.5371e-07
1.3716e-07
1.19098e-07
9.95941e-08
7.16428e-08
1.79415e-08
-8.07573e-08
-1.59167e-06
2.67618e-06
4.75903e-07
4.88699e-08
1.87647e-07
2.2349e-07
1.92325e-07
1.81444e-07
1.42054e-07
1.39271e-07
1.43375e-07
1.52954e-07
1.79801e-07
2.20159e-07
2.96769e-07
3.70167e-07
2.4614e-07
1.34e-06
3.66447e-07
2.09931e-07
1.89738e-07
1.63628e-07
1.3591e-07
1.44219e-07
1.49734e-07
1.54721e-07
1.4493e-07
1.30041e-07
1.0974e-07
8.39321e-08
2.63632e-08
8.18288e-09
-1.04218e-06
-1.87994e-08
1.39221e-07
1.56963e-07
1.52125e-07
1.23007e-07
1.21138e-07
1.35126e-07
1.34278e-07
1.38411e-07
1.29854e-07
1.41101e-07
1.73636e-07
2.02552e-07
5.76331e-08
1.02425e-06
4.1355e-07
2.3451e-07
1.76133e-07
1.09435e-07
1.12058e-07
1.36045e-07
1.66053e-07
1.77233e-07
1.58175e-07
1.34303e-07
1.06315e-07
7.74081e-08
2.36593e-08
8.22104e-08
-8.62858e-07
-6.70309e-08
1.2345e-07
2.41774e-07
1.51926e-07
1.3309e-07
1.57307e-07
1.67423e-07
1.68175e-07
1.35371e-07
1.02386e-07
8.66801e-08
9.42601e-08
9.23188e-08
-8.3009e-08
8.70665e-07
3.92373e-07
3.79469e-07
1.51464e-07
1.35082e-07
1.39328e-07
1.74475e-07
2.09399e-07
1.85658e-07
1.53479e-07
1.10022e-07
8.70009e-08
5.75581e-08
5.65463e-09
1.54158e-07
-7.40146e-07
2.38984e-07
2.19229e-07
1.6144e-07
1.80277e-07
1.96039e-07
1.96849e-07
1.6313e-07
1.073e-07
6.40252e-08
4.17888e-08
3.65613e-08
4.25071e-08
-2.0202e-07
8.12462e-07
3.28823e-07
1.45158e-07
1.41322e-07
1.46953e-07
2.00579e-07
1.764e-07
1.41474e-07
9.11534e-08
5.92513e-08
4.96709e-08
4.21425e-08
-4.54554e-08
2.69379e-07
-3.7116e-07
3.0831e-07
1.01757e-07
1.16562e-07
1.8769e-07
1.14099e-07
1.1369e-07
9.04681e-08
4.27225e-08
1.81804e-08
1.39155e-08
-1.59547e-08
6.11862e-08
1.00567e-07
4.05799e-07
-1.50391e-07
3.96251e-08
1.25652e-07
-1.6486e-08
2.98795e-08
7.91105e-08
3.70514e-08
2.47704e-08
1.86962e-08
1.18447e-08
3.69553e-08
1.36696e-07
-1.05372e-07
-1.13512e-07
1.73887e-07
-2.61683e-08
-5.53626e-08
-6.09931e-08
3.09531e-08
-3.37733e-08
3.83116e-08
1.75019e-08
-2.43226e-09
3.99764e-09
2.60828e-08
-1.68998e-07
1.86651e-07
-1.27722e-07
8.84212e-08
-1.33442e-07
-4.18415e-08
-1.59104e-07
3.30475e-08
3.31858e-08
-2.3271e-09
3.80587e-09
-1.62224e-10
-3.34731e-08
1.68188e-07
-3.76206e-07
1.12412e-07
-2.33837e-07
-7.70977e-08
-2.11134e-07
-2.03129e-08
4.18144e-08
-3.93125e-10
1.32782e-08
-2.1867e-08
-1.62938e-09
3.24568e-08
-2.33703e-07
2.51581e-07
7.16894e-08
-1.67618e-07
-9.35486e-08
-8.91571e-09
-1.98856e-08
1.28596e-09
-5.49315e-08
-2.00972e-08
-3.6111e-08
-5.08624e-08
1.479e-07
-1.9972e-07
-2.92298e-07
-1.02781e-07
-4.66985e-08
-3.34804e-08
-8.98325e-09
-5.33412e-08
-1.86223e-08
-7.48041e-08
-1.42173e-08
1.33001e-08
-1.68479e-07
1.68019e-07
1.16916e-07
-8.15408e-08
-6.58558e-08
-3.80858e-08
-2.94441e-08
-2.62442e-08
-6.97885e-08
-2.8059e-08
-7.26203e-08
-3.77538e-08
1.25843e-07
-1.22577e-07
4.80287e-08
-8.9229e-08
-8.16617e-10
-5.12656e-08
-5.88293e-10
-1.86387e-08
-3.75019e-08
7.08962e-08
2.00429e-08
-9.02214e-08
1.11702e-07
-2.13561e-07
-2.30323e-08
-6.17103e-08
3.16448e-08
4.95897e-09
2.1252e-08
1.15083e-07
-2.25036e-08
2.20789e-08
6.47788e-08
-8.90106e-08
1.82028e-08
-2.57507e-08
1.04981e-08
2.18597e-08
3.17982e-08
9.08091e-08
5.47306e-09
7.89583e-08
-4.63717e-09
-1.26452e-07
2.2457e-08
-1.26691e-07
-1.43393e-08
8.42491e-09
1.99309e-08
4.48892e-08
3.02851e-08
6.06799e-08
3.51412e-10
-6.33116e-08
7.2434e-08
-5.20754e-08
5.30392e-08
-1.6517e-09
1.79785e-08
2.02061e-08
3.24141e-08
3.63833e-08
3.75919e-08
8.66561e-09
8.93434e-08
-5.47927e-08
9.54494e-08
-1.16635e-07
2.75715e-08
-2.26531e-09
3.4568e-08
1.12319e-08
4.07247e-08
1.97513e-08
5.58814e-08
-1.3226e-10
1.08914e-07
1.55262e-07
-5.75466e-08
2.03753e-08
-1.06615e-08
2.67477e-08
9.7673e-09
1.98351e-08
5.65575e-08
1.42541e-08
2.19286e-08
9.58791e-08
-2.77362e-09
1.03882e-08
8.71675e-09
9.36281e-09
4.73984e-08
-9.26148e-09
6.54914e-08
-3.02244e-08
-4.43684e-08
-2.51712e-09
4.26024e-09
1.01515e-08
2.12413e-08
-3.9861e-09
6.461e-08
-1.73715e-08
5.80049e-08
3.72862e-08
3.03424e-09
1.30858e-08
1.67781e-08
1.20562e-08
4.08342e-08
-1.12195e-08
3.73714e-08
-1.71639e-08
-4.36174e-08
3.86872e-09
7.44772e-09
1.27085e-08
1.83216e-08
-3.37586e-09
1.69914e-08
-9.53005e-09
1.81484e-08
2.7607e-08
1.17849e-09
1.21924e-08
1.12939e-08
9.28728e-09
8.85312e-09
7.04812e-09
6.8478e-09
1.23046e-08
-3.6723e-08
2.60743e-09
6.55538e-09
7.53512e-09
1.1716e-08
1.26315e-08
7.84716e-09
1.5733e-08
1.11658e-09
-5.32459e-10
1.20058e-09
9.53155e-09
5.62356e-09
4.84441e-09
1.75413e-08
6.21843e-09
-2.86334e-08
-3.5686e-09
6.62453e-09
2.98348e-10
2.06013e-09
2.25344e-08
1.97703e-10
2.41444e-08
-1.5881e-08
1.89967e-09
-9.65103e-10
1.82622e-08
-9.7999e-09
2.29345e-08
-1.30937e-08
2.73939e-08
1.58622e-09
5.93328e-09
-1.1622e-08
1.59578e-08
-1.64024e-08
1.63002e-08
-1.27632e-08
7.42638e-10
-1.16123e-09
1.30699e-08
-6.51509e-09
1.08775e-08
-1.46108e-08
1.58067e-08
-1.33381e-10
4.53714e-09
-7.4369e-10
1.36946e-09
-8.45874e-09
-4.87706e-11
-2.17943e-08
-2.62434e-09
-1.66202e-09
7.78026e-10
5.60172e-10
-1.66643e-09
8.51313e-09
-2.15662e-09
1.86845e-09
2.34548e-09
-9.38737e-10
4.56007e-09
-2.04799e-08
-2.60426e-09
-2.62787e-09
-7.08689e-11
2.73432e-09
-2.82278e-10
5.98377e-09
-3.57806e-09
-4.35956e-10
-5.21817e-11
-1.33964e-09
2.83592e-09
-2.35493e-08
-1.58172e-10
-2.67434e-09
-2.17013e-09
1.51268e-09
-2.5467e-09
1.9205e-08
-1.01005e-08
-5.01338e-09
2.17451e-09
-4.13295e-09
4.13618e-09
7.11174e-09
-1.56695e-11
-9.38819e-09
2.29112e-09
-1.1403e-08
-1.84467e-08
-1.341e-08
-7.77529e-09
-1.53715e-08
-5.38127e-09
-3.44366e-09
-8.85734e-09
-9.77477e-09
-6.13536e-09
-9.26761e-09
-2.06123e-08
-6.73837e-09
-5.60389e-09
-6.75945e-09
-1.10316e-08
-8.16385e-09
-5.3112e-09
-6.17124e-09
-2.28024e-08
-6.61519e-09
-4.99961e-09
-5.60788e-09
)
;

boundaryField
{
    inlet
    {
        type            extrapolatedCalculated;
        value           nonuniform List<scalar> 4(-2.28024e-08 -6.61519e-09 -4.99961e-09 -5.60788e-09);
    }
    outlet
    {
        type            extrapolatedCalculated;
        value           nonuniform List<scalar> 0();
    }
    walls
    {
        type            extrapolatedCalculated;
        value           nonuniform List<scalar> 
42
(
6.68469e-06
-4.95881e-06
3.61199e-06
-2.94181e-06
2.26039e-06
5.4716e-07
3.13029e-06
1.71234e-06
7.50015e-07
-6.91293e-07
-8.89273e-07
-1.12517e-06
-7.00136e-07
-6.85555e-07
-4.14095e-07
-5.65088e-07
-4.12845e-07
-7.33126e-07
-4.04037e-07
-9.25966e-07
3.76919e-07
5.95618e-08
5.30907e-06
7.03781e-06
8.00192e-06
6.96392e-06
3.53207e-06
2.29322e-06
3.92096e-06
4.00956e-06
-6.2522e-06
2.08935e-05
3.20531e-06
2.48297e-07
-8.89164e-06
-5.18813e-06
5.73055e-06
1.37267e-07
1.23658e-06
1.06392e-06
-4.25379e-06
-1.76147e-06
)
;
    }
    frontAndBack
    {
        type            empty;
    }
    procBoundary5to0
    {
        type            processor;
        value           nonuniform List<scalar> 4(8.42596e-07 -1.08882e-06 2.4494e-08 -1.84293e-06);
    }
    procBoundary5to1
    {
        type            processor;
        value           nonuniform List<scalar> 
13
(
-6.50821e-06
-4.91702e-06
-4.91702e-06
-1.14309e-06
-1.48047e-06
-1.48047e-06
-2.83106e-07
-1.6054e-06
-1.6054e-06
3.63141e-07
-1.12725e-06
-2.64176e-06
-2.64176e-06
)
;
    }
    procBoundary5to4
    {
        type            processor;
        value           nonuniform List<scalar> 
95
(
1.56071e-06
7.21408e-07
8.66769e-07
8.66769e-07
3.26384e-07
2.42058e-07
2.42058e-07
2.8088e-07
-4.46939e-07
-4.46939e-07
-1.30131e-06
-1.30131e-06
-7.40416e-07
-7.40416e-07
-9.20892e-08
-9.25775e-08
-9.25775e-08
3.3615e-08
3.3615e-08
1.15348e-07
-6.87256e-09
-6.87256e-09
-5.46471e-08
-2.19081e-07
-2.19081e-07
-6.486e-08
-6.49151e-07
-6.49151e-07
4.51107e-07
-2.54326e-07
1.38727e-07
1.38727e-07
7.00251e-07
9.54639e-08
-2.87867e-07
-2.87867e-07
4.6123e-07
-2.50261e-07
-1.66576e-07
-1.66576e-07
4.63503e-07
-1.90903e-07
-7.00149e-08
-7.00149e-08
2.60775e-07
-2.03574e-07
3.99628e-07
-1.34467e-07
2.68837e-07
2.68837e-07
1.73899e-07
5.80908e-09
2.51556e-07
-2.28609e-07
-2.02496e-07
-2.02496e-07
7.97062e-08
-2.28866e-07
1.56372e-07
-1.85688e-07
-2.2256e-07
-2.2256e-07
4.79666e-08
-1.64154e-07
5.10417e-08
-1.19804e-07
1.10164e-07
-1.18626e-07
-1.3922e-07
-1.3922e-07
5.02485e-08
-6.72881e-08
4.20082e-08
-5.48967e-08
2.74346e-08
-4.49973e-08
-4.3611e-09
1.34153e-08
1.34153e-08
-1.77254e-08
2.27066e-08
-2.65918e-08
1.65528e-08
-2.40909e-08
1.2711e-08
-2.41184e-08
1.78301e-08
-2.33626e-08
-2.79763e-08
-2.79763e-08
5.35049e-09
-2.1579e-08
1.84002e-09
-1.74938e-08
-9.62601e-09
)
;
    }
    procBoundary5to6
    {
        type            processor;
        value           nonuniform List<scalar> 
86
(
3.00808e-05
1.21365e-05
1.94098e-05
7.99569e-06
1.99354e-05
9.17794e-06
2.24097e-05
1.09348e-05
2.16819e-05
1.08923e-05
1.83115e-05
1.01849e-05
1.48646e-05
9.27409e-06
1.15764e-05
7.95563e-06
8.79439e-06
6.30614e-06
6.44788e-06
4.61154e-06
4.80094e-06
3.29456e-06
3.83404e-06
2.28001e-06
2.62703e-06
1.73195e-06
1.85093e-06
1.29983e-06
1.26437e-06
1.6394e-06
8.7035e-08
1.46411e-06
-1.48574e-07
-2.9448e-06
-2.9448e-06
1.6305e-06
-1.08028e-06
1.28768e-06
-9.44202e-07
1.08821e-06
-8.31303e-07
9.05899e-07
-4.20986e-07
3.48271e-07
-3.04799e-07
1.95613e-07
-3.00347e-07
-3.00347e-07
5.8106e-08
-4.12524e-08
6.04757e-08
1.63235e-08
-9.67095e-09
-1.18398e-08
-1.29153e-08
1.89284e-08
-3.80465e-08
-3.80465e-08
-2.47609e-08
4.12385e-08
-4.67739e-09
3.80139e-08
5.66479e-09
1.57582e-08
2.15521e-08
2.15521e-08
2.34392e-08
1.018e-08
2.32289e-08
-1.5605e-08
7.39921e-09
-1.24871e-08
-6.64056e-09
-6.64056e-09
1.58397e-09
4.61001e-09
1.1808e-09
6.26662e-10
-4.0594e-09
-7.73148e-10
-2.19741e-08
-1.31535e-08
-1.18609e-08
-1.18609e-08
-9.86771e-09
-1.10441e-08
)
;
    }
}


// ************************************************************************* //
