/*--------------------------------*- C++ -*----------------------------------*\
| =========                 |                                                 |
| \\      /  F ield         | OpenFOAM: The Open Source CFD Toolbox           |
|  \\    /   O peration     | Version:  2506                                  |
|   \\  /    A nd           | Website:  www.openfoam.com                      |
|    \\/     M anipulation  |                                                 |
\*---------------------------------------------------------------------------*/
FoamFile
{
    version     2.0;
    format      ascii;
    arch        "LSB;label=32;scalar=64";
    class       volScalarField;
    location    "500";
    object      turbulenceProperties:L;
}
// * * * * * * * * * * * * * * * * * * * * * * * * * * * * * * * * * * * * * //

dimensions      [0 1 0 0 0 0 0];

internalField   nonuniform List<scalar> 
1340
(
0.00178916
0.00171338
0.00164699
0.00158336
0.00154548
0.00152527
0.00152699
0.0015552
0.00161195
0.0017001
0.00182524
0.0019934
0.00221098
0.00249244
0.00286019
0.00334528
0.00400926
0.00491162
0.00628111
0.00817044
0.0117151
0.016691
0.0291027
0.0467099
0.0546917
0.0564659
0.0575874
0.0591752
0.0606019
0.0614572
0.0618537
0.0620468
0.0621885
0.0623454
0.0625863
0.0018828
0.00198104
0.00214047
0.00233276
0.00260318
0.0029897
0.00351488
0.00386726
0.00387791
0.00390033
0.00395797
0.00405249
0.00417004
0.00432273
0.00451617
0.00473544
0.00498438
0.0052624
0.00548441
0.00552549
0.00534579
0.0050019
0.00478965
0.00499055
0.00555565
0.00656893
0.00776506
0.0101223
0.0130482
0.0187078
0.0300881
0.0414482
0.0541518
0.0690641
0.085369
0.101204
0.115567
0.129251
0.143036
0.155777
0.166558
0.175303
0.00388514
0.00391215
0.00396875
0.00405742
0.00418866
0.00438254
0.00473349
0.00475256
0.00480736
0.00489476
0.00499151
0.00510471
0.00522736
0.00534568
0.00545431
0.00554361
0.00561617
0.00566
0.00567346
0.00565267
0.00564409
0.00572324
0.00618897
0.0067572
0.117498
0.0057261
0.0134268
0.00675494
0.0340583
0.0157268
0.0253887
0.0341312
0.0445086
0.058797
0.0773341
0.098382
0.119613
0.139436
0.158522
0.178006
0.197613
0.00471494
0.00471755
0.0047236
0.00476587
0.00484411
0.00498485
0.00514935
0.005144
0.00515695
0.00517856
0.00522403
0.00529399
0.0053853
0.00550622
0.00565495
0.00583439
0.00604764
0.00630024
0.00660063
0.00695714
0.00738482
0.00793136
0.0086181
0.0093672
0.0107052
0.0129607
0.036707
0.0247731
0.118656
0.00643782
0.0154521
0.0126948
0.0131309
0.0405033
0.0746565
0.082296
0.103117
0.127596
0.152185
0.175414
0.198493
0.00517721
0.0052203
0.00529015
0.0053781
0.00549484
0.00594552
0.00595079
0.00597417
0.00601655
0.00608395
0.00617905
0.00630018
0.00644968
0.00662767
0.00682784
0.00704718
0.00727877
0.00751144
0.00773429
0.00793573
0.00811803
0.00832438
0.00860871
0.00897055
0.0095842
0.0104674
0.016498
0.0768404
0.263701
0
0.112476
0.00741875
0.00913618
0.0208126
0.0170005
0.0350939
0.127131
0.187041
0.184926
0.202608
0.00595323
0.00597438
0.00601722
0.00608774
0.00619157
0.00656695
0.00655299
0.00655432
0.00656605
0.00659855
0.00665224
0.00672626
0.00682574
0.00695176
0.00710484
0.0072884
0.0075038
0.00775225
0.00803621
0.00835807
0.00873622
0.00921303
0.00979373
0.010456
0.0111561
0.0117202
0.0126788
0.0140308
0.033207
0.120545
0.215192
0.694736
0
0
0.0100301
0.0161144
0.0348018
0.017115
0.106111
0.312508
0.0065969
0.00663897
0.00670166
0.00678716
0.00730141
0.00728544
0.0072829
0.00729213
0.00732135
0.00737279
0.00744657
0.00754702
0.00767638
0.00783505
0.00802511
0.00824731
0.00850056
0.00878306
0.00909294
0.00942284
0.00975525
0.0100987
0.0104901
0.0109564
0.01146
0.0119359
0.0123387
0.0134781
0.0166183
0.0244404
0.0810376
0.173584
0.259962
1.59024
0
0
0.0109844
0.0443931
0.0415587
0.00733156
0.00737299
0.00743457
0.00752193
0.00802
0.00799277
0.00797674
0.0079703
0.00798123
0.00801132
0.00806001
0.00813202
0.00822925
0.00835218
0.00850432
0.00868698
0.00890151
0.00915009
0.00943469
0.00975635
0.0101278
0.0105732
0.0110897
0.0116569
0.0122414
0.0127674
0.0131809
0.0135111
0.014211
0.0155479
0.0179461
0.0222394
0.0300111
0.183503
0.234123
2.4761
0
0
0.0253016
0.00806143
0.00811222
0.00818187
0.00827714
0.00878105
0.00874665
0.00872185
0.00870646
0.00870701
0.00872574
0.00876257
0.00882236
0.00890708
0.00901804
0.00915853
0.00933037
0.0095352
0.00977519
0.0100513
0.0103659
0.0107187
0.0111018
0.011518
0.0119728
0.0124645
0.0129712
0.0134627
0.0139329
0.0144959
0.0152969
0.0163412
0.0177107
0.0192234
0.0224359
0.0279475
0.255311
0.35446
0
0
0.00882884
0.00888514
0.00895955
0.00944415
0.00944742
0.00946717
0.00950817
0.00957192
0.00965988
0.00977552
0.00992059
0.010097
0.0103073
0.0105536
0.0108385
0.0111631
0.0115362
0.011966
0.0124443
0.0129511
0.0134625
0.0139632
0.0144848
0.0151146
0.0159462
0.0169696
0.0180608
0.0190729
0.0200384
0.021106
0.024521
0.040102
0.229405
0
0.0102143
0.0102401
0.0102879
0.010359
0.0104571
0.0105841
0.0107424
0.0109348
0.0111634
0.0114305
0.0117388
0.0120886
0.0124792
0.0129096
0.013371
0.0138526
0.0143476
0.0148823
0.0155329
0.0163819
0.0174407
0.0186037
0.019728
0.0206905
0.0215099
0.022097
0.0235342
0.0308957
0.204986
0.0110288
0.0110812
0.0111593
0.011265
0.0114008
0.0115694
0.0117734
0.0120153
0.0122975
0.0126209
0.0129907
0.0134072
0.0138585
0.014332
0.0148234
0.0153563
0.0159959
0.0168161
0.0178369
0.0189864
0.0201547
0.0212674
0.0223216
0.0231129
0.0235757
0.0240895
0.0295275
0.0118429
0.0119028
0.0119893
0.0121051
0.0122532
0.0124361
0.0126564
0.0129168
0.0132178
0.0135614
0.0139481
0.0143718
0.0148242
0.0153049
0.0158341
0.0164645
0.0172581
0.0182344
0.0193374
0.0204765
0.0216055
0.0227323
0.0238168
0.0246807
0.0250819
0.0246788
0.0126811
0.0127483
0.0128436
0.0129701
0.0131303
0.013327
0.0135633
0.0138394
0.0141578
0.014521
0.0149253
0.0153618
0.0158316
0.0163528
0.0169698
0.0177357
0.0186695
0.0197261
0.0208258
0.0219259
0.0230309
0.0241438
0.0252118
0.0261023
0.0263549
0.0134991
0.0135473
0.0136228
0.0137284
0.0138673
0.0140418
0.0142546
0.0145074
0.0148008
0.0151377
0.0155184
0.0159351
0.0163901
0.0168999
0.0175013
0.0182395
0.0191335
0.0201478
0.0212132
0.0222861
0.0233645
0.0244419
0.0255172
0.0264252
0.0278109
0.0143866
0.0144425
0.0145277
0.0146446
0.0147963
0.0149855
0.0152143
0.0154825
0.0157943
0.0161521
0.0165495
0.0169885
0.017484
0.0180674
0.0187773
0.0196317
0.0206038
0.0216352
0.0226834
0.0237413
0.024794
0.0258454
0.0267204
0.027974
0.0153055
0.0153701
0.0154656
0.0155949
0.0157608
0.0159659
0.0162096
0.0164961
0.0168295
0.0172059
0.0176268
0.0181051
0.018668
0.0193489
0.0201645
0.0210948
0.0220913
0.0231139
0.0241521
0.0251903
0.0262159
0.0271438
0.0279407
0.016213
0.0162575
0.0163319
0.016439
0.0165816
0.0167627
0.0169821
0.0172435
0.0175519
0.0179068
0.0183081
0.0187668
0.0193072
0.0199583
0.0207355
0.0216241
0.0225844
0.0235797
0.024596
0.0256208
0.0266244
0.0276015
0.028231
0.0171928
0.017246
0.017331
0.0174505
0.0176074
0.0178028
0.018039
0.0183223
0.0186547
0.0190346
0.0194716
0.0199877
0.0206084
0.0213476
0.0221951
0.0231182
0.0240844
0.0250772
0.0260854
0.0270751
0.028054
0.0287587
0.018177
0.0182092
0.0182721
0.0183687
0.0185018
0.0186735
0.0188849
0.0191424
0.019451
0.0198084
0.0202223
0.0207126
0.021302
0.0220035
0.0228102
0.0236957
0.0246313
0.0255997
0.0265882
0.0275693
0.028525
0.0293571
0.0192251
0.0192661
0.01934
0.0194494
0.019597
0.0197829
0.0200145
0.0202983
0.0206319
0.0210213
0.0214844
0.0220419
0.022706
0.0234723
0.0243198
0.0252234
0.0261663
0.0271338
0.0281065
0.0290422
0.0299531
0.0202958
0.020315
0.020366
0.0204515
0.0205748
0.0207358
0.0209416
0.0211997
0.0215084
0.0218722
0.0223068
0.0228317
0.0234585
0.0241846
0.0249937
0.0258645
0.0267804
0.0277263
0.0286875
0.0296148
0.0305517
0.0214214
0.0214496
0.0215114
0.0216104
0.0217467
0.0219265
0.0221579
0.0224408
0.0227779
0.0231831
0.0236749
0.0242644
0.0249507
0.0257211
0.026558
0.027446
0.02837
0.0293175
0.0302436
0.0311823
0.0225886
0.0225939
0.0226321
0.0227065
0.0228179
0.0229715
0.0231754
0.0234317
0.0237412
0.0241165
0.0245749
0.0251274
0.025774
0.0265059
0.027308
0.028167
0.0290684
0.030001
0.0309278
0.0318671
0.0238196
0.0238021
0.0238165
0.0238661
0.0239527
0.0240797
0.024256
0.0244854
0.0247669
0.0251113
0.0255358
0.0260512
0.0266585
0.0273516
0.0281187
0.0289478
0.0298259
0.0307432
0.0316696
0.0326155
0.0250775
0.0250679
0.0250927
0.0251543
0.0252549
0.0254029
0.0256046
0.0258571
0.0261705
0.0265613
0.0270399
0.0276085
0.0282628
0.0289944
0.0297931
0.0306475
0.0315489
0.0324749
0.0334313
0.0264238
0.0263901
0.02639
0.0264262
0.0265001
0.0266199
0.0267931
0.0270165
0.0272987
0.0276556
0.0280977
0.0286279
0.0292439
0.0299397
0.0307076
0.031538
0.0324235
0.0333477
0.0343181
0.027845
0.0277872
0.0277618
0.0277724
0.0278192
0.027911
0.0280552
0.0282495
0.0285003
0.0288232
0.0292292
0.0297214
0.0302994
0.0309597
0.0316964
0.0325021
0.0333727
0.0342941
0.0352793
0.0292628
0.029212
0.0291966
0.0292167
0.0292801
0.0293954
0.0295598
0.0297795
0.0300692
0.0304394
0.0308942
0.0314347
0.0320596
0.0327652
0.0335462
0.0344008
0.0353211
0.03632
0.0308215
0.0307451
0.0307036
0.0306967
0.0307319
0.0308179
0.0309527
0.0311414
0.031398
0.031733
0.0321512
0.0326549
0.0332448
0.0339194
0.0346762
0.0355151
0.0364333
0.0374474
0.0324681
0.0323662
0.0322982
0.0322642
0.0322712
0.0323277
0.0324328
0.0325911
0.0328151
0.0331154
0.0334979
0.0339657
0.0345212
0.0351653
0.0358976
0.0367215
0.0376379
0.0386673
0.0340801
0.0339851
0.033924
0.0339027
0.0339301
0.0340059
0.034134
0.0343261
0.0345928
0.0349402
0.0353729
0.035895
0.0365092
0.0372179
0.0380265
0.0389417
0.0399863
0.0358914
0.0357697
0.0356817
0.0356322
0.0356303
0.0356774
0.0357759
0.0359371
0.0361709
0.0364844
0.0368832
0.0373727
0.0379577
0.0386433
0.0394377
0.0403513
0.0414115
0.0378072
0.0376584
0.0375433
0.0374656
0.0374348
0.0374535
0.0375231
0.0376537
0.0378558
0.0381368
0.038503
0.0389611
0.0395181
0.0401813
0.040962
0.0418746
0.0396565
0.0395144
0.0394088
0.0393495
0.0393403
0.0393815
0.0394829
0.0396547
0.0399045
0.0402394
0.0406674
0.0411976
0.0418396
0.0426071
0.0435192
0.0417712
0.0416017
0.0414685
0.0413811
0.0413445
0.0413585
0.0414318
0.0415744
0.0417942
0.0420994
0.0424991
0.043004
0.0436258
0.0443813
0.045293
0.044009
0.0438124
0.0436517
0.043537
0.0434734
0.0434608
0.0435073
0.0436223
0.0438139
0.044091
0.0444642
0.0449452
0.0455482
0.0462926
0.0472044
0.046377
0.0461528
0.0459653
0.0458241
0.0457345
0.0456967
0.0457175
0.0458062
0.0459713
0.0462224
0.0465706
0.0470295
0.0476154
0.0483497
0.0492621
0.0488831
0.0486317
0.0484178
0.0482507
0.0481358
0.0480736
0.0480701
0.0481343
0.0482747
0.0485016
0.048827
0.0492657
0.049836
0.0505616
0.0514749
0.0512568
0.0510167
0.0508241
0.050685
0.0505997
0.0505738
0.0506152
0.0507328
0.0509374
0.0512421
0.0516627
0.052219
0.0529372
0.0538521
0.0540362
0.0537705
0.0535536
0.0533917
0.0532846
0.0532372
0.0532575
0.0533543
0.0535389
0.053825
0.0542296
0.054774
0.055486
0.056403
0.0569794
0.0566886
0.0564479
0.056264
0.0561363
0.0560692
0.0560706
0.0561489
0.0563155
0.0565852
0.056976
0.0575104
0.0582177
0.0591373
0.0600948
0.0597793
0.059516
0.0593115
0.0591651
0.0590801
0.0590639
0.0591258
0.0592768
0.0595324
0.0599116
0.0604379
0.0611419
0.0620649
0.0633922
0.063053
0.0627679
0.0625437
0.0623799
0.0622786
0.0622472
0.0622946
0.0624325
0.0626764
0.0630463
0.0635664
0.0642687
0.0651956
0.0665191
0.0662132
0.0659706
0.0657908
0.0656755
0.0656308
0.065666
0.0657928
0.0660275
0.0663903
0.0669063
0.0676082
0.0685398
0.0701876
0.0698619
0.0696025
0.0694085
0.0692806
0.0692247
0.0692497
0.069368
0.0695958
0.0699539
0.0704677
0.0711708
0.0740684
0.0737244
0.0734498
0.073243
0.0731043
0.0730392
0.0730564
0.0731685
0.073392
0.0737475
0.0742612
0.0749672
0.078173
0.0778114
0.0775228
0.077305
0.0771575
0.077085
0.0770966
0.0772049
0.0774263
0.0777816
0.0782972
0.0790076
0.0825115
0.0821333
0.0818321
0.0816052
0.0814506
0.0813731
0.0813814
0.0814881
0.0817097
0.0820671
0.0825866
0.0833028
0.0867012
0.0863888
0.0861541
0.0859946
0.0859142
0.0859214
0.0860287
0.0862529
0.0866146
0.0871401
0.0878635
0.091526
0.0912038
0.0909631
0.0908005
0.090719
0.0907271
0.0908375
0.0910665
0.0914348
0.0919684
0.0927008
0.0966183
0.0962879
0.0960429
0.0958789
0.0957983
0.0958098
0.0959256
0.0961617
0.0965387
0.0970821
0.0978254
0.101989
0.101652
0.101404
0.101241
0.101164
0.10118
0.101304
0.101549
0.101937
0.102493
0.103248
0.107649
0.107307
0.107059
0.106898
0.106825
0.10685
0.106983
0.10724
0.107641
0.108211
0.108981
0.113609
0.113263
0.113016
0.112859
0.112795
0.112829
0.112974
0.113245
0.113662
0.114248
0.119879
0.119531
0.119286
0.119136
0.11908
0.119127
0.119287
0.119575
0.12001
0.120614
0.126118
0.125878
0.125736
0.125692
0.125754
0.125931
0.126239
0.126694
0.12732
0.133031
0.132798
0.132667
0.132638
0.132717
0.132914
0.133244
0.133724
0.134375
0.140285
0.140059
0.139941
0.139928
0.140026
0.140247
0.140602
0.141108
0.141786
0.147903
0.147687
0.147582
0.147587
0.147707
0.147951
0.148332
0.148866
0.149573
0.155933
0.155728
0.155637
0.155659
0.1558
0.156067
0.156474
0.157035
0.15777
0.164421
0.164228
0.164154
0.164195
0.164357
0.164649
0.165081
0.165668
0.173373
0.173196
0.173143
0.173209
0.173399
0.173721
0.174184
0.174802
0.182758
0.182604
0.182579
0.182679
0.182907
0.18327
0.183776
0.184438
0.192389
0.192401
0.192546
0.192824
0.193242
0.193808
0.194529
0.202565
0.202625
0.202826
0.203166
0.203655
0.204299
0.2051
0.213001
0.213082
0.213311
0.213669
0.214201
0.214904
0.215734
0.222484
0.222605
0.222892
0.223278
0.223876
0.224676
0.225531
0.231169
0.231358
0.231751
0.232243
0.232985
0.233984
0.240368
0.240542
0.240949
0.241471
0.242262
0.243358
0.250563
0.250848
0.251408
0.252105
0.253064
0.25442
0.261283
0.261455
0.261918
0.262566
0.263461
0.264703
0.274594
0.275282
0.276326
0.277522
0.278925
0.281106
0.284306
0.284246
0.284566
0.28536
0.286292
0.287159
0.308408
0.310498
0.312275
0.314428
0.319262
0.299678
0.298852
0.299745
0.300006
0.297256
0.337822
0.337468
0.334974
0.335998
0.342814
0.274285
0.270534
0.270883
0.269308
0.262503
0.259222
0.255501
0.250444
0.21692
0.210855
0.214738
0.220388
)
;

boundaryField
{
    inlet
    {
        type            calculated;
        value           nonuniform List<scalar> 4(0.103219 0.100063 0.0994275 0.0988518);
    }
    outlet
    {
        type            calculated;
        value           nonuniform List<scalar> 0();
    }
    walls
    {
        type            calculated;
        value           uniform 0;
    }
    frontAndBack
    {
        type            empty;
    }
    procBoundary5to0
    {
        type            processor;
        value           nonuniform List<scalar> 4(0.00956368 0.00962026 0.00968375 0.00976469);
    }
    procBoundary5to1
    {
        type            processor;
        value           nonuniform List<scalar> 
13
(
0.00403409
0.00464794
0.00464794
0.0052009
0.00565982
0.00565982
0.00634814
0.00690188
0.00690188
0.00764003
0.0084014
0.00906132
0.00906132
)
;
    }
    procBoundary5to4
    {
        type            processor;
        value           nonuniform List<scalar> 
95
(
0.00952016
0.00948432
0.00945685
0.00945685
0.0102184
0.0102084
0.0102084
0.0109887
0.0109984
0.0109984
0.0118078
0.0118078
0.0126396
0.0126396
0.0134756
0.014357
0.014357
0.0152693
0.0152693
0.016196
0.0171683
0.0171683
0.0181728
0.0192138
0.0192138
0.0203056
0.021424
0.021424
0.0226131
0.0238664
0.0251181
0.0251181
0.0264876
0.0279325
0.029345
0.029345
0.0309287
0.0326002
0.0342081
0.0342081
0.0360459
0.037988
0.0398327
0.0398327
0.0419747
0.04424
0.0466356
0.0491695
0.0515352
0.0515352
0.0543416
0.0573112
0.0604528
0.0637761
0.0668814
0.0668814
0.0705725
0.0744752
0.0786006
0.0829594
0.0870945
0.0870945
0.091933
0.0970382
0.102421
0.108091
0.114061
0.12034
0.126467
0.126467
0.13338
0.14063
0.148245
0.15627
0.164749
0.173692
0.183063
0.192513
0.192513
0.202652
0.213077
0.222542
0.231195
0.240427
0.250552
0.261397
0.274214
0.28481
0.306752
0.306752
0.30089
0.338888
0.27774
0.267622
0.217131
)
;
    }
    procBoundary5to6
    {
        type            processor;
        value           nonuniform List<scalar> 
86
(
0.0629524
0.182076
0.216526
0.222856
0.224485
0.25015
0.222155
0.0852346
0
0
0
0.240273
0.0344847
0.0244189
0.0253281
0.0278446
0.0296839
0.0301032
0.0300219
0.0301493
0.0305893
0.0312268
0.0319536
0.0327226
0.0335298
0.0343911
0.0353184
0.0363199
0.0374036
0.0385732
0.0398337
0.0411941
0.0426592
0.0429502
0.0429502
0.0446097
0.0463988
0.0483254
0.0503974
0.0526244
0.0550153
0.0575793
0.060326
0.0632653
0.0664071
0.0697622
0.0721077
0.0721077
0.0759099
0.079957
0.0842599
0.0888292
0.0936758
0.0988115
0.104247
0.109993
0.115034
0.115034
0.121419
0.128146
0.135225
0.142664
0.15048
0.158704
0.166429
0.166429
0.175593
0.185271
0.19542
0.20607
0.216747
0.226564
0.234994
0.234994
0.244496
0.255804
0.266167
0.283074
0.289198
0.321555
0.300159
0.340155
0.258797
0.258797
0.249875
0.192089
)
;
    }
}


// ************************************************************************* //
