/*--------------------------------*- C++ -*----------------------------------*\
| =========                 |                                                 |
| \\      /  F ield         | OpenFOAM: The Open Source CFD Toolbox           |
|  \\    /   O peration     | Version:  2506                                  |
|   \\  /    A nd           | Website:  www.openfoam.com                      |
|    \\/     M anipulation  |                                                 |
\*---------------------------------------------------------------------------*/
FoamFile
{
    version     2.0;
    format      ascii;
    arch        "LSB;label=32;scalar=64";
    class       volSymmTensorField;
    location    "500";
    object      turbulenceProperties:R;
}
// * * * * * * * * * * * * * * * * * * * * * * * * * * * * * * * * * * * * * //

dimensions      [0 2 -2 0 0 0 0];

internalField   nonuniform List<symmTensor> 
1340
(
(0.0144987 0.00306874 -6.84737e-22 0.0120404 -1.6136e-20 0.0134172)
(0.0172866 0.00364567 -9.29464e-23 0.0136447 1.04863e-19 0.0155754)
(0.0210786 0.00423414 -2.14381e-20 0.0153257 -3.37287e-19 0.0184316)
(0.0262503 0.00499592 9.57184e-20 0.0176186 7.06455e-19 0.0222311)
(0.0326216 0.00571449 -1.87824e-19 0.0200522 -6.93567e-19 0.0266719)
(0.0409537 0.00622484 -1.47709e-19 0.0227818 -3.86291e-19 0.0323711)
(0.0517329 0.00649514 2.87122e-19 0.0261171 1.10314e-18 0.0395674)
(0.0651913 0.006181 -7.49143e-19 0.0300846 -2.03779e-18 0.0484255)
(0.0821902 0.0049164 -1.89717e-19 0.0351309 5.55269e-19 0.0596894)
(0.10357 0.00243289 5.72954e-19 0.0419321 1.17571e-18 0.0740118)
(0.130614 -0.00179553 1.4945e-18 0.0513612 5.46518e-19 0.0925367)
(0.165468 -0.00835549 -3.39844e-18 0.0647916 -3.1563e-18 0.117021)
(0.211089 -0.0181758 6.49696e-19 0.0840949 8.38586e-19 0.1499)
(0.272353 -0.032849 2.6147e-18 0.112291 1.23916e-18 0.195176)
(0.357552 -0.0550344 -3.9951e-18 0.154535 -6.24079e-18 0.259668)
(0.479504 -0.0890628 -4.30058e-18 0.21919 -2.54665e-18 0.354038)
(0.663284 -0.143542 1.90116e-17 0.322812 1.76039e-17 0.49944)
(0.940196 -0.230775 1.7732e-17 0.488982 3.35506e-17 0.723347)
(1.41739 -0.38714 -3.52288e-17 0.789747 -5.46081e-17 1.11644)
(2.14075 -0.639966 -1.37398e-18 1.27809 1.45134e-17 1.72763)
(3.75085 -1.21245 -2.71841e-17 2.39978 5.19723e-17 3.10437)
(6.10107 -2.11296 -1.24324e-17 4.18523 4.18537e-17 5.18229)
(13.8364 -5.12758 -1.43109e-16 10.2538 -6.4175e-16 12.1233)
(25.9897 -10.3102 3.314e-16 21.0498 5.58869e-16 23.6447)
(27.6372 -11.6464 4.23693e-17 24.5399 -7.12281e-16 26.1501)
(25.5067 -11.2291 3.65786e-16 24.4655 5.81055e-16 24.9691)
(24.4041 -11.0462 -8.18271e-17 24.7255 -7.84199e-17 24.5203)
(24.3358 -11.2299 2.745e-16 25.6902 2.30521e-16 24.976)
(24.4207 -11.4435 7.29098e-16 26.7093 1.20846e-15 25.5405)
(24.1243 -11.4553 4.0056e-16 27.2756 1.99767e-15 25.6876)
(23.3959 -11.24 -1.41144e-15 27.3095 -1.9315e-15 25.3553)
(22.3226 -10.8333 -4.74851e-16 26.8589 -7.2614e-16 24.6065)
(20.8797 -10.2199 -3.23512e-17 25.8517 -4.36802e-15 23.3881)
(19.0953 -9.41338 -2.58302e-15 24.29 -7.29941e-15 21.7158)
(16.9509 -8.40536 1.00626e-15 22.1151 9.23158e-16 19.5543)
(0.01203 0.00257345 1.65925e-21 0.0106522 3.85337e-20 0.0113951)
(0.0101308 0.00212441 -2.3732e-21 0.00934046 1.70532e-23 0.00982535)
(0.00808312 0.00164666 -1.23391e-20 0.00782728 -8.64903e-20 0.00799973)
(0.00638588 0.00123967 2.95492e-21 0.00644522 5.55272e-20 0.00644592)
(0.0048637 0.000879182 2.15762e-21 0.00505102 -1.00496e-20 0.00497246)
(0.00355262 0.000586709 -1.70191e-20 0.00372634 5.57118e-20 0.00363918)
(0.00253012 0.000377466 -9.14019e-20 0.00261695 7.3565e-20 0.00255719)
(0.00226707 -0.000155249 4.14166e-23 0.00189643 1.34947e-21 0.00205172)
(0.00222406 -0.000181973 9.65227e-21 0.00191883 2.33896e-20 0.00203798)
(0.00215863 -0.000204454 -8.83521e-21 0.0019412 -1.55767e-20 0.00201037)
(0.00205931 -0.00021172 -5.88762e-21 0.0019265 -1.67695e-20 0.00194814)
(0.00192972 -0.000206755 3.91872e-20 0.00187661 7.60562e-20 0.00185481)
(0.00178982 -0.00019331 1.50776e-20 0.00180978 2.33914e-20 0.00174787)
(0.00164015 -0.000173016 7.08532e-20 0.00171467 6.50922e-20 0.00162238)
(0.00148395 -0.000149084 -3.63229e-20 0.00159447 -6.98999e-21 0.00148233)
(0.00133653 -0.000125537 5.11405e-20 0.001468 3.54371e-20 0.00134398)
(0.00119891 -0.000104531 -1.82199e-21 0.00133681 7.77952e-23 0.00120848)
(0.00107268 -8.69447e-05 -6.96684e-20 0.00120611 -5.95212e-20 0.00107993)
(0.000987018 -7.80233e-05 9.33782e-20 0.00111434 1.16246e-19 0.00098911)
(0.000976209 -8.37159e-05 6.53833e-20 0.0011064 3.28555e-20 0.000969183)
(0.00107581 -0.000114015 -1.70902e-20 0.00122303 9.26942e-21 0.00104862)
(0.00141247 -0.000214138 -1.40973e-19 0.00159268 2.32059e-20 0.00132275)
(0.00229544 -0.00051791 3.7539e-19 0.00244941 4.29573e-19 0.00199403)
(0.00462254 -0.00138355 7.64232e-19 0.00434271 -8.35684e-19 0.00368193)
(0.0101291 -0.00334421 -4.16373e-18 0.0082433 -5.39676e-18 0.00776868)
(0.0249762 -0.00840503 4.9018e-19 0.0184444 7.23174e-18 0.0192867)
(0.061419 -0.0207821 7.24226e-18 0.0433583 -2.03392e-18 0.0485812)
(0.180763 -0.0621699 1.53973e-17 0.126523 6.10184e-18 0.147067)
(0.49189 -0.174086 -2.34841e-17 0.350454 -2.24883e-17 0.411878)
(1.47991 -0.545437 7.42442e-17 1.09733 1.87397e-16 1.27693)
(4.61921 -1.78229 1.58216e-19 3.61386 -1.54566e-16 4.11242)
(8.79404 -3.5402 -2.72808e-16 7.27518 1.69358e-16 8.07021)
(12.8965 -5.38643 -9.70654e-17 11.2647 -6.59077e-16 12.162)
(16.5415 -7.14282 1.17736e-18 15.2631 7.56272e-17 16.0099)
(18.8592 -8.39035 -2.94455e-16 18.3748 -4.44657e-16 18.7301)
(18.9016 -8.63415 -4.93668e-16 19.4268 -2.83264e-15 19.2629)
(16.9076 -7.89659 -1.67042e-16 18.2808 -3.54693e-15 17.6558)
(14.0809 -6.69158 5.22974e-16 15.9353 4.897e-15 15.0206)
(11.3791 -5.47791 -9.55241e-16 13.394 -3.75738e-17 12.3592)
(9.25572 -4.49819 -7.18893e-15 11.2545 1.34202e-15 10.2104)
(7.67123 -3.75338 8.7719e-15 9.56259 1.59513e-14 8.57244)
(6.47986 -3.18628 -1.48861e-15 8.23153 -8.63716e-16 7.31968)
(0.00227291 -0.000117567 3.19295e-21 0.00184999 7.89803e-21 0.00203578)
(0.00226157 -7.76371e-05 -4.39124e-21 0.00180466 -3.31924e-20 0.00200878)
(0.00221 -2.67194e-05 -6.52089e-21 0.0017391 -3.88994e-20 0.00195512)
(0.00211612 3.07932e-05 -2.5306e-21 0.00166073 5.87262e-20 0.00187426)
(0.00197222 8.48926e-05 6.95062e-22 0.00156958 1.5678e-20 0.00176326)
(0.00177352 0.0001278 1.38547e-20 0.00146038 -5.32128e-20 0.00161494)
(0.00151784 -0.000120502 6.64822e-22 0.00125059 9.19759e-22 0.00139946)
(0.00147803 -0.000143657 -1.0533e-20 0.00126633 -2.55916e-20 0.00139063)
(0.00140943 -0.000159865 -2.32742e-21 0.00127072 -1.17245e-21 0.0013616)
(0.0013199 -0.000165123 8.82558e-21 0.00126219 1.90636e-20 0.00131711)
(0.00122892 -0.000160346 -2.79862e-20 0.00125142 -5.69224e-20 0.00126979)
(0.0011352 -0.000144947 -3.19398e-20 0.00123354 -5.23477e-20 0.00121757)
(0.00104698 -0.000120401 -6.4951e-20 0.00120871 -9.60032e-20 0.00116503)
(0.000973121 -9.03613e-05 -5.24978e-21 0.00118112 -7.80403e-22 0.00111757)
(0.000915121 -5.71727e-05 -2.87274e-20 0.00115183 -6.84139e-20 0.0010768)
(0.000875397 -2.41351e-05 1.20772e-19 0.00112359 1.37431e-19 0.00104541)
(0.000850745 6.58747e-06 -1.98841e-20 0.00109582 2.70453e-20 0.001021)
(0.000842039 3.35384e-05 1.36418e-20 0.00107454 8.39403e-21 0.00100687)
(0.00084679 5.60632e-05 -9.39943e-20 0.00106206 -1.19631e-19 0.00100261)
(0.000864147 7.53485e-05 6.12926e-20 0.00106204 -5.69014e-21 0.00101031)
(0.000878241 8.92815e-05 1.78116e-20 0.00105603 5.52735e-20 0.0010115)
(0.000863902 9.31605e-05 2.09385e-20 0.00101396 1.00492e-20 0.00097711)
(0.000751111 7.33397e-05 -7.7729e-20 0.000850254 -4.52712e-20 0.000825755)
(0.000646666 5.63372e-05 5.25435e-20 0.000712869 3.91675e-20 0.000695812)
(1.24574e-05 2.06082e-08 6.18362e-24 1.24791e-05 8.08028e-26 1.24731e-05)
(0.000897692 0.000127282 -1.63299e-19 0.00102293 -2.45684e-20 0.000984302)
(0.000214265 8.30072e-06 1.25952e-20 0.000222125 -4.94657e-21 0.000219402)
(0.000749577 0.000164212 9.14479e-21 0.000904903 1.56789e-19 0.000843507)
(2.88515e-05 1.33967e-06 5.19484e-21 3.12753e-05 -7.67261e-21 2.99446e-05)
(0.0125418 -0.00488976 -2.3838e-18 0.01017 -2.54721e-18 0.010974)
(0.134912 -0.0539779 4.4688e-18 0.112324 1.57765e-17 0.120869)
(0.466982 -0.193231 -2.85502e-17 0.406789 7.81234e-18 0.430634)
(1.15736 -0.494045 1.4839e-17 1.05629 1.153e-18 1.09772)
(2.54142 -1.11323 -1.42951e-17 2.42098 7.63283e-17 2.47034)
(4.91725 -2.20126 -4.40585e-16 4.87353 2.46343e-16 4.88516)
(7.95868 -3.63341 2.17089e-16 8.20207 3.53388e-16 8.07557)
(10.5694 -4.91553 1.56402e-15 11.3391 -5.86904e-16 10.9621)
(11.6793 -5.52476 -2.76499e-15 13.0489 2.16252e-15 12.3857)
(11.1881 -5.3676 5.13783e-16 12.9838 9.32755e-15 12.1096)
(9.87557 -4.78735 -4.86475e-17 11.8335 -6.36749e-15 10.8671)
(8.45598 -4.1283 3.05748e-15 10.3843 -2.30076e-15 9.42236)
(0.0015522 -9.11044e-05 -1.3629e-21 0.00123878 -2.59439e-21 0.00140939)
(0.00156568 -5.92717e-05 -5.15643e-21 0.0012237 -7.29602e-21 0.00140584)
(0.0015711 -2.04301e-05 2.13536e-20 0.00121257 4.60391e-20 0.00140042)
(0.00154388 2.08073e-05 4.37931e-21 0.00119225 -5.18727e-21 0.00137349)
(0.00148458 6.12863e-05 3.01557e-21 0.00116497 -3.39741e-20 0.00132791)
(0.00138226 9.45469e-05 -9.39709e-21 0.0011207 2.42905e-20 0.00125262)
(0.00128851 -9.76977e-05 3.60022e-21 0.00106031 6.15888e-21 0.00116908)
(0.00127314 -0.000115777 -5.01347e-21 0.00108091 -9.03767e-21 0.00117113)
(0.00124326 -0.000131401 -2.27991e-21 0.00110008 -1.25637e-21 0.00116414)
(0.00120671 -0.000141543 2.70848e-20 0.00111814 3.96382e-20 0.00115342)
(0.00115892 -0.000144743 1.72144e-20 0.00112689 3.12031e-20 0.0011322)
(0.00110138 -0.000141115 2.18408e-20 0.00112596 4.19419e-20 0.00110097)
(0.00103935 -0.000131397 3.33735e-20 0.00111479 3.86112e-20 0.00106236)
(0.000972773 -0.000116712 -1.9162e-20 0.00108965 -2.97579e-20 0.00101448)
(0.000904793 -9.88104e-05 -6.86079e-20 0.00105273 -6.79745e-20 0.000959838)
(0.000836921 -7.97129e-05 8.92102e-20 0.00100427 5.02401e-20 0.000899698)
(0.000769938 -6.08835e-05 7.51611e-20 0.000946101 6.36552e-20 0.000835245)
(0.000703905 -4.35107e-05 9.75094e-20 0.000879743 4.67116e-20 0.000767498)
(0.000638511 -2.83862e-05 -1.60976e-19 0.000806696 -5.15539e-20 0.000697218)
(0.000573922 -1.58323e-05 -1.37495e-19 0.000729263 -9.23626e-20 0.000625778)
(0.000509985 -5.80893e-06 1.82868e-19 0.000648908 5.75179e-20 0.0005537)
(0.000443453 2.89849e-06 3.71423e-20 0.000563065 2.28727e-20 0.000478727)
(0.000377729 1.02103e-05 -2.72205e-20 0.000474876 2.8095e-21 0.000404363)
(0.000322605 1.59278e-05 -8.52007e-20 0.000397613 -5.58201e-20 0.000341755)
(0.000253289 1.57601e-05 1.49334e-20 0.000296248 -5.72962e-21 0.000263946)
(0.00018751 1.05602e-05 3.60987e-20 0.000205903 1.11372e-20 0.000192382)
(4.54358e-05 5.87637e-07 -2.22782e-21 4.61581e-05 -6.40799e-22 4.56605e-05)
(8.27551e-05 1.71282e-06 2.6258e-21 8.43778e-05 3.75067e-22 8.33418e-05)
(1.06157e-05 2.52118e-08 -9.84159e-24 1.06339e-05 -2.13395e-24 1.06227e-05)
(0.00261797 0.00108215 -8.40174e-19 0.00313951 4.12066e-19 0.00280981)
(0.0139199 0.00647286 3.59374e-18 0.015396 -1.14704e-18 0.0142456)
(0.000206881 1.4619e-05 -8.4967e-21 0.000206394 1.12747e-20 0.00020563)
(0.00287276 0.00114973 9.85838e-21 0.00249205 -2.27146e-20 0.00258836)
(0.00489161 0.00142458 1.91926e-18 0.00298344 -6.81442e-19 0.0036841)
(0.0323132 -0.0115407 7.05288e-18 0.0233789 1.78466e-17 0.027001)
(0.255438 -0.109974 2.72097e-17 0.236477 -1.23212e-16 0.244071)
(1.06387 -0.478888 -6.6552e-17 1.06678 -3.96751e-16 1.06203)
(2.81517 -1.29905 2.07713e-15 2.97156 5.51588e-16 2.88932)
(5.1543 -2.42369 2.97007e-15 5.68222 6.72477e-16 5.41696)
(7.00312 -3.34371 -1.64313e-15 8.02788 -2.23402e-15 7.52063)
(7.7064 -3.72225 -7.33241e-15 9.13132 1.42192e-15 8.4278)
(0.00128954 -7.51058e-05 -5.52712e-21 0.00103296 -1.12538e-20 0.00115766)
(0.00127903 -5.12169e-05 -1.90129e-21 0.00100504 7.68435e-21 0.00113892)
(0.00125241 -2.16722e-05 1.83045e-20 0.000970773 3.49006e-20 0.00111007)
(0.00121286 9.52564e-06 -7.83638e-21 0.000937747 -4.40085e-22 0.00107456)
(0.0011558 3.99811e-05 6.82799e-21 0.000903922 4.32682e-20 0.00102992)
(0.000964183 -7.43941e-05 -5.1339e-21 0.000794144 -7.64719e-21 0.000880879)
(0.000948036 -8.78633e-05 1.00848e-21 0.000806674 1.60685e-21 0.000879836)
(0.000922323 -9.91031e-05 6.11157e-21 0.000818488 6.63757e-21 0.000873156)
(0.000888686 -0.000105918 -3.75458e-20 0.000827165 -5.33656e-20 0.000861433)
(0.000847358 -0.000107502 -2.74899e-20 0.000830127 -3.2151e-20 0.000843039)
(0.000799173 -0.000103634 6.42542e-20 0.000826518 7.69153e-20 0.000817872)
(0.000747513 -9.45867e-05 -6.82382e-20 0.000815504 -8.4734e-20 0.000787526)
(0.00069433 -8.11871e-05 -3.08597e-20 0.000796209 -2.05295e-20 0.000752343)
(0.000641643 -6.4565e-05 -7.33983e-20 0.000769004 -5.49259e-20 0.000713452)
(0.000592379 -4.63118e-05 -1.36858e-20 0.000735704 -2.49033e-20 0.000673371)
(0.000547813 -2.77255e-05 9.19856e-21 0.000697763 -3.31923e-21 0.000633321)
(0.000509147 -1.00034e-05 -5.03838e-20 0.000657262 -6.68227e-20 0.000594941)
(0.00047737 5.89105e-06 1.64256e-19 0.000616748 1.12498e-19 0.000559947)
(0.000452671 1.93869e-05 -5.41623e-20 0.00057828 -9.47197e-21 0.000529343)
(0.000434926 3.04254e-05 -1.33061e-19 0.000543492 -5.8186e-20 0.0005039)
(0.000422117 3.85833e-05 8.8471e-20 0.000512419 1.77046e-21 0.000482212)
(0.000408322 4.36353e-05 -6.45486e-20 0.000480618 -3.72301e-20 0.000458826)
(0.000388509 4.56087e-05 8.83193e-22 0.000442938 4.72222e-20 0.000428866)
(0.000364099 4.54675e-05 -1.5519e-20 0.000402315 -1.21922e-20 0.000394804)
(0.000323957 4.03973e-05 -1.03806e-19 0.000346504 -7.17213e-20 0.000344284)
(0.000275288 3.19874e-05 6.69364e-20 0.000286265 6.4982e-20 0.00028678)
(0.000129275 7.29224e-06 3.81472e-22 0.000130821 -1.17608e-20 0.000131089)
(1.59017e-05 1.02028e-07 5.6104e-23 1.59147e-05 1.71668e-23 1.59183e-05)
(3.20081e-06 3.64173e-09 5.09216e-24 3.20087e-06 -2.28135e-25 3.20109e-06)
(0 0 -0 0 -0 0)
(1.03756e-05 3.38768e-08 4.81338e-23 1.03676e-05 7.68709e-24 1.03728e-05)
(0.000621166 0.000104784 -8.14006e-21 0.000589717 1.85922e-22 0.000607595)
(0.0038287 0.00152954 -2.43245e-19 0.0033183 -1.50547e-19 0.00358855)
(0.0193951 0.00792097 2.58314e-20 0.0164215 2.04387e-18 0.017928)
(0.0102122 0.00406932 -1.18595e-17 0.00836752 9.79176e-19 0.00927734)
(0.0229876 0.0086835 -1.10074e-17 0.0175216 1.84067e-18 0.0201852)
(0.0461759 0.0120743 2.78193e-17 0.0251797 -1.62376e-16 0.0353353)
(0.241152 -0.098384 5.75896e-16 0.204496 -7.06678e-16 0.22158)
(1.27338 -0.583931 -2.98175e-15 1.32658 1.58923e-16 1.297)
(3.15286 -1.48953 4.8337e-15 3.51889 1.81614e-15 3.33315)
(0.000973466 -5.79983e-05 3.27632e-21 0.000780253 1.33925e-21 0.000878656)
(0.000975237 -4.04187e-05 -1.18514e-20 0.00076659 -1.70412e-20 0.000871922)
(0.000967263 -1.88375e-05 1.51339e-21 0.000749905 7.7116e-21 0.000859506)
(0.000946606 4.46415e-06 6.46301e-21 0.000731287 -2.15633e-20 0.000839415)
(0.000911513 2.7723e-05 -5.25595e-20 0.000710672 -7.55782e-20 0.000811421)
(0.000790888 -6.10369e-05 4.49952e-21 0.000651711 5.22684e-21 0.000720667)
(0.000783252 -7.19175e-05 -1.13148e-20 0.000665456 -1.36e-20 0.000723782)
(0.000768841 -8.14804e-05 -9.13694e-22 0.00067951 -1.89064e-21 0.000723263)
(0.000750132 -8.80968e-05 -4.716e-21 0.000693159 -2.45938e-21 0.00072057)
(0.000725967 -9.09726e-05 3.73925e-20 0.000703296 4.30341e-20 0.000713341)
(0.000696862 -8.99693e-05 2.86742e-20 0.000709706 2.36586e-20 0.000701591)
(0.000664843 -8.51191e-05 3.6464e-22 0.00071121 1.1563e-20 0.000685969)
(0.000630415 -7.68323e-05 7.11428e-20 0.000706162 6.89332e-20 0.000665792)
(0.000594641 -6.58152e-05 -8.88552e-21 0.000694361 -1.18647e-21 0.000641438)
(0.000558768 -5.31294e-05 -2.4573e-20 0.000675782 -1.15384e-20 0.00061362)
(0.000523167 -3.97212e-05 4.82709e-20 0.000650568 1.80139e-20 0.000582541)
(0.000488366 -2.64975e-05 -6.49867e-20 0.000619627 -2.51869e-20 0.00054893)
(0.000454737 -1.42771e-05 -1.1472e-19 0.000584127 -8.96762e-20 0.000513598)
(0.000422333 -3.55648e-06 -4.79316e-20 0.000545256 1.23546e-20 0.000477153)
(0.000391159 5.3686e-06 2.06902e-19 0.00050425 9.34428e-20 0.00044027)
(0.000359898 1.22824e-05 -1.49586e-19 0.000460629 -6.81805e-20 0.000402106)
(0.000326208 1.7612e-05 -3.598e-20 0.000412301 3.12018e-20 0.000360944)
(0.000291862 2.13308e-05 6.73162e-20 0.000362132 4.38777e-20 0.000319043)
(0.000259705 2.36415e-05 -4.25137e-20 0.000314304 -3.45004e-22 0.000279821)
(0.000232067 2.48766e-05 -1.40288e-20 0.000272389 3.51234e-20 0.000246059)
(0.000214775 2.65687e-05 2.08083e-20 0.000243707 -1.33675e-20 0.000224001)
(0.000187074 2.34548e-05 -1.3932e-19 0.000202206 1.34866e-20 0.000191155)
(0.000155982 1.73806e-05 1.00579e-21 0.000160129 -1.6877e-20 0.000156322)
(4.12909e-05 1.23077e-06 -4.9259e-21 4.11245e-05 4.95525e-22 4.11371e-05)
(7.23166e-06 3.63474e-08 3.93382e-23 7.21538e-06 1.15242e-23 7.22228e-06)
(3.3324e-06 7.5149e-09 -2.62108e-24 3.32739e-06 -1.10477e-23 3.32967e-06)
(6.97294e-07 3.25089e-10 -2.41566e-26 6.97047e-07 -2.2617e-27 6.97161e-07)
(0 0 0 0 0 0)
(0 0 0 0 -0 0)
(0.00148449 0.000501648 5.39816e-19 0.0011611 8.69798e-19 0.00131831)
(0.00548115 0.00206613 -6.03327e-19 0.00419286 1.24655e-18 0.00481939)
(0.0281521 0.0105986 -3.53612e-17 0.0213662 1.1489e-17 0.0246761)
(0.00538998 0.00196332 -1.0469e-17 0.00394926 -7.05704e-18 0.00465814)
(0.073921 0.0234811 -9.20316e-17 0.0467426 1.01721e-16 0.0602043)
(0.164149 -0.0498875 6.48418e-16 0.0998981 -7.43368e-16 0.131542)
(0.000792765 -4.80001e-05 -4.92777e-21 0.000636441 -7.21169e-21 0.000714459)
(0.000789482 -3.41682e-05 1.75313e-21 0.00062175 4.84248e-22 0.00070534)
(0.000779552 -1.72546e-05 4.69967e-21 0.000605173 4.77318e-21 0.000692443)
(0.000761697 1.01202e-06 -4.23464e-21 0.000588401 -1.96851e-20 0.000675065)
(0.000639182 -4.98186e-05 -2.21411e-21 0.000527373 -2.08502e-21 0.00058339)
(0.00063308 -5.84617e-05 6.33374e-23 0.000538446 -5.61294e-22 0.000586105)
(0.000622173 -6.61051e-05 1.57117e-20 0.000550204 1.71349e-20 0.00058648)
(0.000607744 -7.14359e-05 6.15396e-22 0.000561572 -3.3074e-22 0.00058509)
(0.000589316 -7.38853e-05 -5.41818e-20 0.000570599 -5.75495e-20 0.000580517)
(0.000566912 -7.32727e-05 1.24508e-20 0.000576816 1.46755e-20 0.000572506)
(0.000541867 -6.95307e-05 1.21534e-20 0.000579186 7.52734e-21 0.000561339)
(0.000514739 -6.29108e-05 -2.81429e-20 0.000576524 -4.09755e-20 0.000546647)
(0.000486226 -5.38534e-05 -4.20517e-20 0.00056842 -2.48123e-20 0.000528532)
(0.000457397 -4.31086e-05 1.59571e-20 0.00055476 2.10121e-20 0.000507553)
(0.000428834 -3.13952e-05 -9.55828e-20 0.000535709 -7.90979e-20 0.000484046)
(0.000401135 -1.94432e-05 6.36612e-20 0.000511857 4.05278e-20 0.000458604)
(0.000374895 -7.98439e-06 1.29394e-19 0.000484176 7.33449e-20 0.000432035)
(0.000350508 2.47435e-06 1.66813e-19 0.000453806 6.28614e-20 0.00040509)
(0.000328181 1.15396e-05 -2.23184e-19 0.000421811 -1.67166e-19 0.000378413)
(0.000308308 1.89993e-05 1.20117e-19 0.000389577 9.18385e-20 0.000352927)
(0.000291582 2.46456e-05 1.28571e-19 0.000359137 2.97137e-20 0.000329744)
(0.000276644 2.82845e-05 8.20757e-20 0.000330372 -1.78903e-20 0.00030793)
(0.000261061 2.99898e-05 4.19504e-20 0.000301533 2.23744e-20 0.000285401)
(0.000243696 2.99699e-05 -5.48898e-21 0.00027217 3.06931e-20 0.000261467)
(0.000226747 2.91534e-05 4.22365e-20 0.000245309 -6.96657e-21 0.00023886)
(0.000212952 2.84046e-05 1.45762e-19 0.000223354 6.13768e-20 0.00022029)
(0.000203954 2.81082e-05 -6.53718e-20 0.000206309 -8.81081e-21 0.000206691)
(0.000173572 2.15438e-05 1.48968e-19 0.000167931 3.51056e-20 0.000171687)
(0.000116932 1.03456e-05 -1.3711e-20 0.000109824 5.34151e-22 0.000113769)
(6.06095e-05 2.96063e-06 -1.94609e-21 5.71199e-05 1.35443e-21 5.89661e-05)
(1.05681e-05 9.78567e-08 2.48112e-23 1.04037e-05 1.07459e-23 1.04892e-05)
(3.63496e-06 1.20106e-08 -1.40569e-23 3.61016e-06 5.97135e-24 3.62305e-06)
(2.07066e-06 4.04027e-09 -1.25926e-23 2.0618e-06 -7.19947e-24 2.06642e-06)
(1.85317e-07 3.3471e-11 -8.69989e-27 1.85249e-07 6.8032e-26 1.85284e-07)
(0 0 0 0 -0 0)
(0 0 0 0 0 0)
(0.000709698 0.000187452 -1.47864e-18 0.000517288 1.38922e-18 0.000614076)
(0.0225958 0.00778016 -1.63164e-17 0.0154545 1.00613e-17 0.0190207)
(0.0172665 0.00579016 -3.76707e-17 0.0114881 1.46386e-18 0.0143874)
(0.000641261 -3.95807e-05 7.01724e-22 0.000515588 2.30604e-21 0.000578728)
(0.000639596 -2.8712e-05 1.07061e-20 0.000504439 9.46091e-21 0.000572082)
(0.000633082 -1.5425e-05 -1.06858e-20 0.000491983 -3.84851e-21 0.000562747)
(0.000620129 -9.55757e-07 2.64168e-20 0.000479049 2.55193e-20 0.000549653)
(0.00052952 -4.1641e-05 -9.91238e-23 0.000437483 -2.88156e-22 0.000483398)
(0.000525891 -4.87229e-05 -6.95128e-22 0.000447645 -5.68921e-22 0.000486765)
(0.000518791 -5.50864e-05 -2.04959e-21 0.000458736 -1.82404e-21 0.000488655)
(0.000509194 -5.96903e-05 -1.13313e-20 0.000469902 -1.04507e-20 0.000489455)
(0.000496771 -6.20805e-05 1.40268e-20 0.000479658 1.56792e-20 0.000488101)
(0.000481442 -6.21175e-05 7.33362e-20 0.00048771 6.20524e-20 0.000484394)
(0.000464248 -5.97103e-05 -4.42356e-21 0.000493255 -1.20986e-20 0.000478533)
(0.000445452 -5.4997e-05 -3.2103e-20 0.000495208 -2.65645e-20 0.000470054)
(0.00042547 -4.82566e-05 8.48511e-20 0.000493164 7.80551e-20 0.000458941)
(0.00040504 -4.00251e-05 3.41582e-20 0.000486823 2.15904e-20 0.000445461)
(0.000384389 -3.08241e-05 -2.78238e-20 0.000475949 -4.74826e-21 0.000429565)
(0.000363879 -2.12083e-05 -1.03701e-19 0.000460787 -5.03435e-20 0.000411565)
(0.000343793 -1.17675e-05 -1.94567e-19 0.000441749 -1.48147e-19 0.000391823)
(0.000324236 -2.96069e-06 -2.24048e-19 0.000419389 -1.3384e-19 0.000370642)
(0.000305262 4.84011e-06 -1.26643e-20 0.000394398 5.11667e-20 0.000348401)
(0.000286928 1.13456e-05 1.11577e-20 0.000367625 -2.42149e-20 0.000325548)
(0.000268613 1.64039e-05 -1.68055e-19 0.000339114 -7.7153e-20 0.000301808)
(0.000249412 2.00381e-05 -1.09365e-19 0.000308414 -4.71115e-20 0.000276711)
(0.000230097 2.23381e-05 2.79081e-20 0.000277082 2.55644e-21 0.000251438)
(0.000211848 2.34356e-05 1.16157e-19 0.000247154 1.56296e-20 0.000227588)
(0.000195741 2.35841e-05 -4.87166e-20 0.000220343 -2.01806e-20 0.00020648)
(0.000183544 2.33293e-05 -3.04968e-20 0.000198902 -5.74572e-20 0.000190036)
(0.000176035 2.31296e-05 5.92707e-21 0.000183013 2.18947e-21 0.000178684)
(0.000172149 2.30455e-05 -5.76375e-20 0.000170519 -5.59197e-20 0.000170796)
(0.00015985 2.03778e-05 4.10713e-20 0.000149969 8.8289e-21 0.000154599)
(0.000136127 1.51719e-05 1.23818e-20 0.000121657 -8.86452e-21 0.000128663)
(0.000102964 9.02228e-06 4.25516e-22 8.95637e-05 -2.89439e-21 9.60812e-05)
(6.79743e-05 4.09735e-06 7.20684e-21 5.93499e-05 2.17426e-21 6.35686e-05)
(3.9756e-05 1.3992e-06 2.29763e-21 3.56709e-05 1.67567e-21 3.76872e-05)
(2.93872e-06 7.45436e-09 1.51497e-22 2.90778e-06 8.08843e-24 2.92315e-06)
(2.05838e-06 2.98686e-09 -3.71994e-23 2.04094e-06 4.24859e-23 2.04963e-06)
(8.70191e-08 5.22161e-12 1.80563e-25 8.69862e-08 -2.43468e-25 8.70027e-08)
(0 0 0 0 0 0)
(0 0 -0 0 0 0)
(0.0026147 0.000759038 4.81611e-18 0.00153803 -2.20356e-18 0.00207658)
(0.000530056 -3.33572e-05 -1.83622e-21 0.000426906 -2.82426e-21 0.000478562)
(0.000527993 -2.45763e-05 -5.78025e-21 0.000417098 -4.04186e-21 0.000472505)
(0.000522468 -1.38758e-05 8.98248e-21 0.000406499 3.38166e-21 0.000464599)
(0.000512101 -2.16584e-06 -3.71993e-20 0.000395672 -2.71692e-20 0.000453895)
(0.000441363 -3.50944e-05 -3.49997e-21 0.000365244 -2.55667e-21 0.000403278)
(0.000438826 -4.09188e-05 -1.10347e-20 0.000374073 -9.90376e-21 0.00040652)
(0.000433697 -4.61852e-05 -2.54099e-21 0.000383869 -2.54933e-21 0.000408801)
(0.000426601 -5.00467e-05 3.78307e-20 0.000393827 3.32019e-20 0.000410276)
(0.000417442 -5.2147e-05 -2.52655e-20 0.000402869 -2.24208e-20 0.000410236)
(0.000406033 -5.23732e-05 -2.66126e-20 0.000410763 -2.77081e-20 0.000408472)
(0.000393127 -5.06212e-05 -6.54641e-20 0.000416793 -4.75121e-20 0.000405069)
(0.000378888 -4.69685e-05 -4.48005e-20 0.000420065 -3.12236e-20 0.000399622)
(0.000363605 -4.15963e-05 4.94259e-20 0.000420209 3.22449e-20 0.000392069)
(0.00034778 -3.48862e-05 1.36659e-20 0.000416826 -6.42532e-22 0.000382516)
(0.000331611 -2.72159e-05 2.13422e-20 0.000409681 2.40712e-20 0.000370908)
(0.000315374 -1.90065e-05 1.92543e-19 0.000398823 1.17134e-19 0.000357413)
(0.000299324 -1.0739e-05 -6.58066e-20 0.000384459 -7.35967e-21 0.000342285)
(0.000283598 -2.80847e-06 1.4439e-19 0.000366953 1.24523e-19 0.000325755)
(0.000268348 4.43575e-06 1.92531e-20 0.000346866 1.48453e-20 0.000308193)
(0.00025359 1.06949e-05 -3.4069e-20 0.000324739 -1.66092e-20 0.000289889)
(0.000239433 1.58152e-05 1.02729e-19 0.000301297 7.07912e-20 0.000271271)
(0.000226202 1.96218e-05 3.91107e-20 0.000277727 2.84417e-20 0.00025301)
(0.000213605 2.20651e-05 1.87631e-20 0.000254516 -9.3514e-21 0.000235108)
(0.000201275 2.32393e-05 -6.85484e-20 0.000231976 -5.9855e-20 0.000217575)
(0.000189222 2.33707e-05 -7.96436e-22 0.000210593 1.52895e-21 0.000200673)
(0.000178076 2.27977e-05 -3.84029e-20 0.000191203 1.34578e-21 0.000185198)
(0.000168621 2.18525e-05 -5.65581e-20 0.000174286 -3.10577e-21 0.000171836)
(0.000160947 2.07324e-05 1.50984e-20 0.00015945 1.95066e-20 0.000160485)
(0.000152378 1.90342e-05 -2.67514e-21 0.000144044 -1.66057e-20 0.00014844)
(0.000140258 1.64417e-05 -4.71228e-20 0.000126452 1.56303e-21 0.00013349)
(0.000125717 1.34882e-05 -4.65716e-21 0.000108603 1.72396e-21 0.000117192)
(0.000108625 1.02795e-05 1.44251e-21 9.08589e-05 -3.47935e-21 9.97366e-05)
(9.31128e-05 7.49322e-06 -9.7195e-21 7.59641e-05 1.70933e-21 8.45525e-05)
(6.75175e-05 3.78328e-06 9.11374e-21 5.5583e-05 -4.62223e-20 6.15667e-05)
(4.39722e-05 1.34878e-06 3.67496e-20 3.7334e-05 -7.14439e-21 4.06575e-05)
(1.75542e-06 1.39881e-09 -1.86542e-22 1.7404e-06 -8.13878e-24 1.74791e-06)
(1.10314e-06 -1.97983e-11 9.85567e-23 1.09662e-06 -5.46895e-23 1.09989e-06)
(0 -0 0 0 -0 0)
(0 0 -0 0 0 0)
(0.000441559 -2.83427e-05 2.25749e-21 0.000356259 2.98746e-21 0.000398999)
(0.000439808 -2.11778e-05 1.69841e-20 0.000347994 1.14942e-20 0.000393887)
(0.000435479 -1.24535e-05 -1.089e-20 0.000339212 -1.20956e-20 0.000387449)
(0.000354875 -4.43174e-05 1.58507e-20 0.000342419 1.3939e-20 0.000348652)
(0.000346591 -4.46837e-05 2.25068e-20 0.000350235 1.88421e-20 0.000348394)
(0.000337185 -4.34478e-05 9.51549e-20 0.000356731 7.31654e-20 0.000346946)
(0.000326761 -4.06557e-05 -1.61654e-20 0.000361186 -1.23737e-20 0.000343958)
(0.000315529 -3.64318e-05 3.32225e-20 0.000363296 1.5982e-20 0.000339378)
(0.000303845 -3.105e-05 -6.56992e-20 0.000362678 -3.8031e-20 0.000333222)
(0.000291818 -2.47917e-05 4.87322e-20 0.000359041 2.69501e-20 0.000325371)
(0.000279643 -1.79791e-05 -1.21692e-19 0.000352341 -9.51341e-20 0.000315903)
(0.000267482 -1.09845e-05 4.26723e-21 0.000342631 1.28798e-20 0.00030494)
(0.000255412 -4.13536e-06 1.9469e-20 0.000330087 -1.05198e-20 0.000292594)
(0.000243503 2.24575e-06 3.24865e-20 0.000315028 6.49906e-21 0.00027906)
(0.000231754 7.88658e-06 5.30011e-21 0.000297844 4.6132e-21 0.000264536)
(0.000220209 1.25917e-05 -3.9278e-20 0.000279102 -3.66518e-20 0.000249311)
(0.000208577 1.62193e-05 -7.57467e-20 0.00025902 -2.38716e-20 0.000233381)
(0.000196707 1.87463e-05 -6.5137e-20 0.000237954 -1.90532e-20 0.00021687)
(0.000184987 2.02293e-05 -4.75851e-20 0.000216919 1.30655e-20 0.000200508)
(0.000174023 2.08318e-05 -3.02067e-20 0.000197025 -3.2046e-21 0.000185141)
(0.000164285 2.07444e-05 -3.23594e-21 0.00017907 1.40934e-20 0.000171382)
(0.000155947 2.01459e-05 3.70105e-20 0.000163174 2.33753e-20 0.000159355)
(0.000148169 1.90207e-05 -2.65423e-21 0.000148327 -1.46279e-20 0.000148142)
(0.000139231 1.723e-05 -2.00999e-20 0.000133066 -3.09659e-21 0.000136114)
(0.00012787 1.48046e-05 3.51076e-20 0.000116849 1.03791e-20 0.000122328)
(0.000115125 1.22257e-05 4.68498e-21 0.000101148 1.70643e-21 0.000108077)
(0.000103333 9.9968e-06 5.676e-21 8.78725e-05 -5.85106e-21 9.55443e-05)
(9.41208e-05 8.24962e-06 4.0501e-21 7.7747e-05 -1.96974e-21 8.59111e-05)
(8.66287e-05 6.69148e-06 -1.00803e-19 6.95859e-05 3.39046e-20 7.81085e-05)
(7.92114e-05 5.04104e-06 -8.70708e-20 6.19969e-05 -2.51187e-20 7.06031e-05)
(5.72142e-05 2.20604e-06 4.47697e-20 4.5856e-05 9.19102e-20 5.15297e-05)
(2.31689e-05 2.18554e-07 -1.80879e-20 2.06623e-05 -2.18957e-20 2.19151e-05)
(1.93162e-06 -7.39215e-10 4.83463e-23 1.91029e-06 -1.31881e-22 1.92094e-06)
(0 -0 0 0 0 0)
(0.000289785 -3.73523e-05 -3.6015e-20 0.000306307 -2.92317e-20 0.000298067)
(0.000281944 -3.51503e-05 -4.32375e-20 0.000311144 -2.78286e-20 0.000296572)
(0.000273444 -3.17452e-05 -9.70695e-21 0.000314146 -1.20069e-20 0.00029382)
(0.000264558 -2.73406e-05 8.00778e-20 0.000314985 5.48906e-20 0.000289808)
(0.000255344 -2.2142e-05 -3.00139e-21 0.00031337 -1.20235e-20 0.000284401)
(0.000245938 -1.63924e-05 3.18174e-20 0.0003092 3.68425e-20 0.000277621)
(0.00023646 -1.0388e-05 3.96887e-21 0.000302434 1.04523e-20 0.000269511)
(0.000226959 -4.40073e-06 3.98675e-20 0.000293132 1.43866e-21 0.000260119)
(0.0002175 1.30356e-06 -2.61063e-20 0.000281497 -1.02663e-20 0.000249589)
(0.000208111 6.47321e-06 -3.01945e-20 0.000267816 -7.85049e-21 0.000238079)
(0.000198786 1.09119e-05 9.02767e-21 0.000252445 1.63625e-20 0.000225759)
(0.000189568 1.44756e-05 7.83634e-20 0.000235889 3.0349e-20 0.000212921)
(0.000180496 1.7073e-05 3.70923e-20 0.000218728 1.10694e-20 0.000199819)
(0.000171558 1.86991e-05 3.77084e-20 0.00020149 1.66406e-20 0.000186719)
(0.000162948 1.9466e-05 8.20733e-21 0.000184822 2.80313e-20 0.00017404)
(0.000154843 1.9528e-05 3.02101e-20 0.000169186 4.10114e-21 0.000162128)
(0.000147367 1.90421e-05 -5.96577e-22 0.000154707 -8.62678e-21 0.000151113)
(0.000139985 1.80184e-05 -4.54453e-20 0.000140776 -1.09381e-20 0.000140445)
(0.000131397 1.63468e-05 4.76099e-22 0.000126331 7.6595e-21 0.000128929)
(0.000120663 1.40701e-05 -2.01596e-20 0.000111054 -1.22683e-20 0.000115896)
(0.000108415 1.15657e-05 -3.43806e-21 9.60442e-05 -2.63421e-21 0.000102224)
(9.66821e-05 9.32249e-06 -1.81194e-20 8.30493e-05 3.82609e-22 8.98441e-05)
(8.70197e-05 7.52642e-06 -1.01649e-20 7.28689e-05 -8.33761e-21 7.99378e-05)