/*--------------------------------*- C++ -*----------------------------------*\
| =========                 |                                                 |
| \\      /  F ield         | OpenFOAM: The Open Source CFD Toolbox           |
|  \\    /   O peration     | Version:  2506                                  |
|   \\  /    A nd           | Website:  www.openfoam.com                      |
|    \\/     M anipulation  |                                                 |
\*---------------------------------------------------------------------------*/
FoamFile
{
    version     2.0;
    format      ascii;
    arch        "LSB;label=32;scalar=64";
    class       volScalarField;
    location    "350";
    object      turbulenceProperties:k;
}
// * * * * * * * * * * * * * * * * * * * * * * * * * * * * * * * * * * * * * //

dimensions      [0 2 -2 0 0 0 0];

internalField   nonuniform List<scalar> 
1340
(
0.00051467
0.000518567
0.000521583
0.000437376
0.000441299
0.000444611
0.000446734
0.00044761
0.00037419
0.000378019
0.000381427
0.000383987
0.000385652
0.000386296
0.000385613
0.000321884
0.000325524
0.000328877
0.000331608
0.000333695
0.000335039
0.00033536
0.00033456
0.000278235
0.000281647
0.000284869
0.000287633
0.000289952
0.000291714
0.000292687
0.000292799
0.000291973
0.000241517
0.000244688
0.000247721
0.000250427
0.000252836
0.000254815
0.00025619
0.000256902
0.000256869
0.000210428
0.000213348
0.000216172
0.000218776
0.000221173
0.000223251
0.000224864
0.000225964
0.000226477
0.000226298
0.000183943
0.000186612
0.00018923
0.000191694
0.000194021
0.000196114
0.000197849
0.000199178
0.000200045
0.000200359
0.000200065
0.000161258
0.000163687
0.000166104
0.000168405
0.000170633
0.000172682
0.000174456
0.000175913
0.000177008
0.000177658
0.000177825
0.000141729
0.000143944
0.000146156
0.000148299
0.000150401
0.000152378
0.000154132
0.000155646
0.000156872
0.00015774
0.000158214
0.000158254
0.000124851
0.000126863
0.000128887
0.000130867
0.000132838
0.000134712
0.000136419
0.000137936
0.000139223
0.000140223
0.000140909
0.000141242
0.00011021
0.000112033
0.000113879
0.000115703
0.000117536
0.000119297
0.000120931
0.000122417
0.00012372
0.000124793
0.000125612
0.000126145
0.000126353
9.7461e-05
9.91149e-05
0.000100793
0.000102469
0.000104165
0.000105809
0.000107356
0.000108788
0.000110073
0.000111173
0.000112068
0.000112732
0.00011313
8.63286e-05
8.78252e-05
8.93507e-05
9.08866e-05
9.24476e-05
9.39761e-05
9.54266e-05
9.679e-05
9.80355e-05
9.91324e-05
0.000100064
0.000100809
0.000101337
0.000101628
7.65797e-05
7.79325e-05
7.93196e-05
8.07209e-05
8.21552e-05
8.35678e-05
8.49213e-05
8.62052e-05
8.7397e-05
8.84671e-05
8.94057e-05
9.01909e-05
9.08019e-05
9.122e-05
6.80208e-05
6.92428e-05
7.05034e-05
7.178e-05
7.30945e-05
7.43951e-05
7.56503e-05
7.68529e-05
7.79804e-05
7.90105e-05
7.9934e-05
8.07334e-05
8.13919e-05
8.18915e-05
6.04901e-05
6.15937e-05
6.27367e-05
6.38992e-05
6.51001e-05
6.62945e-05
6.74528e-05
6.85731e-05
6.96317e-05
7.06124e-05
7.15058e-05
7.23001e-05
7.2978e-05
7.35279e-05
7.3933e-05
5.38499e-05
5.48471e-05
5.58819e-05
5.69386e-05
5.80343e-05
5.91272e-05
6.01942e-05
6.12316e-05
6.22202e-05
6.31448e-05
6.39991e-05
6.47731e-05
6.54525e-05
6.60288e-05
6.6486e-05
4.79838e-05
4.88852e-05
4.98209e-05
5.07807e-05
5.17791e-05
5.27766e-05
5.37571e-05
5.47132e-05
5.5632e-05
5.64976e-05
5.73068e-05
5.80493e-05
5.8717e-05
5.92998e-05
5.97855e-05
4.27939e-05
4.3607e-05
4.44534e-05
4.53238e-05
4.62314e-05
4.71415e-05
4.80389e-05
4.8918e-05
4.97671e-05
5.05734e-05
5.13333e-05
5.20401e-05
5.26856e-05
5.32622e-05
5.37604e-05
5.41683e-05
3.81947e-05
3.89275e-05
3.96928e-05
4.04818e-05
4.13052e-05
4.21345e-05
4.2954e-05
4.37605e-05
4.45424e-05
4.52901e-05
4.59997e-05
4.66662e-05
4.72822e-05
4.78432e-05
4.83393e-05
4.87632e-05
3.41129e-05
3.47737e-05
3.54646e-05
3.6179e-05
3.69262e-05
3.76799e-05
3.84271e-05
3.91653e-05
3.98834e-05
4.05733e-05
4.12324e-05
4.18562e-05
4.2439e-05
4.29772e-05
4.34637e-05
4.38908e-05
2.99515e-05
3.04862e-05
3.10813e-05
3.17049e-05
3.23511e-05
3.30281e-05
3.37123e-05
3.43925e-05
3.50666e-05
3.5724e-05
3.63588e-05
3.69683e-05
3.75489e-05
3.80964e-05
3.86076e-05
3.90768e-05
3.94976e-05
3.98619e-05
2.67786e-05
2.72598e-05
2.77953e-05
2.83581e-05
2.8942e-05
2.95548e-05
3.01754e-05
3.07938e-05
3.14079e-05
3.20089e-05
3.25911e-05
3.31526e-05
3.36904e-05
3.42012e-05
3.46824e-05
3.51299e-05
3.55381e-05
3.59008e-05
2.39537e-05
2.43865e-05
2.48682e-05
2.53757e-05
2.5903e-05
2.64573e-05
2.70194e-05
2.75809e-05
2.81396e-05
2.86882e-05
2.92205e-05
2.97361e-05
3.02325e-05
3.07066e-05
3.11567e-05
3.15793e-05
3.19701e-05
3.23239e-05
2.14362e-05
2.18251e-05
2.22582e-05
2.27155e-05
2.31916e-05
2.36923e-05
2.4201e-05
2.47101e-05
2.5218e-05
2.57174e-05
2.62033e-05
2.66757e-05
2.7132e-05
2.75701e-05
2.79884e-05
2.83845e-05
2.87551e-05
2.90951e-05
2.93994e-05
1.91909e-05
1.954e-05
1.99291e-05
2.03409e-05
2.07703e-05
2.12224e-05
2.16826e-05
2.2144e-05
2.26049e-05
2.30584e-05
2.35013e-05
2.39329e-05
2.4351e-05
2.47541e-05
2.51413e-05
2.55103e-05
2.58583e-05
2.61815e-05
2.64754e-05
1.71864e-05
1.74995e-05
1.78491e-05
1.82196e-05
1.86067e-05
1.90147e-05
1.94305e-05
1.98484e-05
2.02657e-05
2.06777e-05
2.10806e-05
2.14741e-05
2.18563e-05
2.2226e-05
2.25828e-05
2.29246e-05
2.3249e-05
2.35533e-05
2.38335e-05
1.53955e-05
1.56764e-05
1.59901e-05
1.63231e-05
1.6672e-05
1.704e-05
1.74155e-05
1.77933e-05
1.81713e-05
1.85451e-05
1.89112e-05
1.9269e-05
1.96176e-05
1.99557e-05
2.02833e-05
2.05984e-05
2.08993e-05
2.11835e-05
2.14478e-05
1.37945e-05
1.40462e-05
1.43275e-05
1.46268e-05
1.4941e-05
1.52728e-05
1.56118e-05
1.59531e-05
1.62955e-05
1.66339e-05
1.69659e-05
1.72911e-05
1.76084e-05
1.7917e-05
1.82166e-05
1.85058e-05
1.87835e-05
1.90472e-05
1.92943e-05
1.23624e-05
1.25877e-05
1.28397e-05
1.31087e-05
1.33914e-05
1.36905e-05
1.39963e-05
1.43048e-05
1.46143e-05
1.49206e-05
1.52216e-05
1.55168e-05
1.58051e-05
1.6086e-05
1.63592e-05
1.66239e-05
1.68789e-05
1.71222e-05
1.73513e-05
1.75635e-05
1.10807e-05
1.12821e-05
1.15077e-05
1.17494e-05
1.20037e-05
1.22731e-05
1.25489e-05
1.28276e-05
1.31074e-05
1.33846e-05
1.36572e-05
1.39246e-05
1.41861e-05
1.44414e-05
1.46901e-05
1.49315e-05
1.51647e-05
1.53879e-05
1.55994e-05
1.57963e-05
9.93274e-06
1.01128e-05
1.03146e-05
1.05316e-05
1.07603e-05
1.10029e-05
1.12517e-05
1.15033e-05
1.17562e-05
1.20069e-05
1.22535e-05
1.24957e-05
1.27328e-05
1.29643e-05
1.31902e-05
1.34098e-05
1.36223e-05
1.38264e-05
1.40204e-05
1.42017e-05
8.90427e-06
9.06492e-06
9.24545e-06
9.4401e-06
9.64587e-06
9.86429e-06
1.00887e-05
1.0316e-05
1.05444e-05
1.07711e-05
1.09943e-05
1.12135e-05
1.1428e-05
1.16378e-05
1.18426e-05
1.20419e-05
1.2235e-05
1.24209e-05
1.25978e-05
1.2764e-05
7.98241e-06
8.12558e-06
8.287e-06
8.46156e-06
8.64663e-06
8.84334e-06
9.0458e-06
9.25101e-06
9.45752e-06
9.66248e-06
9.86429e-06
1.00625e-05
1.02567e-05
1.04465e-05
1.06319e-05
1.08124e-05
1.09875e-05
1.11562e-05
1.13171e-05
1.14684e-05
7.15575e-06
7.28322e-06
7.42744e-06
7.58399e-06
7.7504e-06
7.9276e-06
8.11034e-06
8.29572e-06
8.48245e-06
8.66774e-06
8.85029e-06
9.02965e-06
9.20526e-06
9.37685e-06
9.54449e-06
9.7077e-06
9.86607e-06
1.00187e-05
1.01645e-05
1.03017e-05
1.04282e-05
6.41416e-06
6.52756e-06
6.6563e-06
6.79674e-06
6.94638e-06
7.1061e-06
7.27107e-06
7.43868e-06
7.60761e-06
7.77528e-06
7.94042e-06
8.10267e-06
8.26138e-06
8.41649e-06
8.56795e-06
8.71537e-06
8.85833e-06
8.99609e-06
9.12765e-06
9.25153e-06
9.36589e-06
5.74868e-06
5.84945e-06
5.96436e-06
6.09029e-06
6.22494e-06
6.36898e-06
6.51803e-06
6.66975e-06
6.82267e-06
6.97443e-06
7.12393e-06
7.27071e-06
7.41422e-06
7.55439e-06
7.69114e-06
7.82415e-06
7.95304e-06
8.07723e-06
8.19568e-06
8.30716e-06
8.41003e-06
5.1513e-06
5.24076e-06
5.34327e-06
5.45622e-06
5.57744e-06
5.70744e-06
5.84229e-06
5.9797e-06
6.11826e-06
6.25584e-06
6.39127e-06
6.52419e-06
6.65402e-06
6.78069e-06
6.9041e-06
7.02403e-06
7.14011e-06
7.25177e-06
7.35818e-06
7.45821e-06
7.55036e-06
4.61491e-06
4.69425e-06
4.78565e-06
4.88697e-06
4.99622e-06
5.11368e-06
5.23585e-06
5.36046e-06
5.48622e-06
5.61108e-06
5.73392e-06
5.85434e-06
5.97187e-06
6.08633e-06
6.19773e-06
6.30583e-06
6.41027e-06
6.51055e-06
6.60599e-06
6.69553e-06
6.77779e-06
4.13315e-06
4.20343e-06
4.28491e-06
4.37588e-06
4.47437e-06
4.58069e-06
4.69153e-06
4.80478e-06
4.91912e-06
5.03257e-06
5.14413e-06
5.25335e-06
5.35982e-06
5.46338e-06
5.56398e-06
5.66138e-06
5.75532e-06
5.84533e-06
5.93078e-06
6.01074e-06
6.08402e-06
6.14948e-06
3.70036e-06
3.76254e-06
3.83518e-06
3.91689e-06
4.00582e-06
4.10221e-06
4.20299e-06
4.30611e-06
4.41025e-06
4.51352e-06
4.61499e-06
4.71421e-06
4.81079e-06
4.90455e-06
4.99544e-06
5.08325e-06
5.16776e-06
5.24851e-06
5.32491e-06
5.39619e-06
5.46131e-06
5.5192e-06
3.31148e-06
3.36644e-06
3.43119e-06
3.50464e-06
3.5851e-06
3.67266e-06
3.7645e-06
3.85859e-06
3.95363e-06
4.04786e-06
4.14035e-06
4.23065e-06
4.31837e-06
4.40335e-06
4.48554e-06
4.56476e-06
4.64079e-06
4.71319e-06
4.78146e-06
4.84495e-06
4.90268e-06
4.95373e-06
2.96198e-06
3.01051e-06
3.06822e-06
3.13435e-06
3.20729e-06
3.28702e-06
3.37093e-06
3.457e-06
3.54397e-06
3.63014e-06
3.7146e-06
3.79695e-06
3.87678e-06
3.95393e-06
4.02834e-06
4.09985e-06
4.16826e-06
4.2332e-06
4.29423e-06
4.3507e-06
4.4018e-06
4.44673e-06
2.64784e-06
2.69063e-06
2.74208e-06
2.80172e-06
2.86799e-06
2.94079e-06
3.01768e-06
3.09664e-06
3.17644e-06
3.25544e-06
3.33277e-06
3.40803e-06
3.4808e-06
3.55096e-06
3.61844e-06
3.68308e-06
3.74469e-06
3.803e-06
3.85754e-06
3.90773e-06
3.95291e-06
3.99239e-06
2.36544e-06
2.40311e-06
2.44902e-06
2.5029e-06
2.56326e-06
2.62998e-06
2.70064e-06
2.7733e-06
2.84673e-06
2.91938e-06
2.99037e-06
3.0593e-06
3.12579e-06
3.18971e-06
3.25102e-06
3.30955e-06
3.36512e-06
3.41747e-06
3.46622e-06
3.51085e-06
3.55079e-06
3.58541e-06
2.11155e-06
2.14467e-06
2.18564e-06
2.23444e-06
2.28964e-06
2.35096e-06
2.41611e-06
2.4832e-06
2.55099e-06
2.61798e-06
2.68333e-06
2.74663e-06
2.80754e-06
2.86593e-06
2.92172e-06
2.97479e-06
3.02499e-06
3.07208e-06
3.11569e-06
3.15542e-06
3.1907e-06
3.22103e-06
1.88326e-06
1.91235e-06
1.94895e-06
1.99329e-06
2.04393e-06
2.10048e-06
2.16078e-06
2.22294e-06
2.28572e-06
2.34768e-06
2.40801e-06
2.46633e-06
2.52227e-06
2.57571e-06
2.62661e-06
2.67486e-06
2.72033e-06
2.76276e-06
2.80186e-06
2.83725e-06
2.86844e-06
2.895e-06
2.91647e-06
1.67801e-06
1.7035e-06
1.73624e-06
1.77667e-06
1.8233e-06
1.87566e-06
1.93168e-06
1.98946e-06
2.0478e-06
2.10529e-06
2.16117e-06
2.21506e-06
2.26659e-06
2.31564e-06
2.36221e-06
2.40621e-06
2.44749e-06
2.48583e-06
2.52096e-06
2.55253e-06
2.58014e-06
2.6034e-06
2.62197e-06
1.49345e-06
1.51575e-06
1.5451e-06
1.58213e-06
1.62522e-06
1.67389e-06
1.72613e-06
1.78001e-06
1.83442e-06
1.88795e-06
1.93988e-06
1.98984e-06
2.03744e-06
2.0826e-06
2.12534e-06
2.16559e-06
2.20319e-06
2.23792e-06
2.26953e-06
2.29773e-06
2.32216e-06
2.34254e-06
2.35857e-06
1.32752e-06
1.34699e-06
1.37335e-06
1.40743e-06
1.4474e-06
1.49283e-06
1.54174e-06
1.59214e-06
1.64306e-06
1.69303e-06
1.74147e-06
1.78797e-06
1.83208e-06
1.87376e-06
1.91312e-06
1.95004e-06
1.98432e-06
2.01576e-06
2.04418e-06
2.06931e-06
2.09089e-06
2.10868e-06
2.12247e-06
1.17835e-06
1.19531e-06
1.21907e-06
1.25058e-06
1.2878e-06
1.33041e-06
1.37632e-06
1.42361e-06
1.47144e-06
1.5182e-06
1.56355e-06
1.60702e-06
1.64802e-06
1.68656e-06
1.72282e-06
1.75663e-06
1.78779e-06
1.81613e-06
1.84153e-06
1.86382e-06
1.88278e-06
1.89823e-06
1.91006e-06
1.04426e-06
1.05901e-06
1.08051e-06
1.10979e-06
1.14459e-06
1.18474e-06
1.22794e-06
1.27246e-06
1.31753e-06
1.36134e-06
1.40406e-06
1.4449e-06
1.48293e-06
1.51844e-06
1.5517e-06
1.58252e-06
1.61066e-06
1.63606e-06
1.65868e-06
1.67839e-06
1.695e-06
1.70839e-06
1.71848e-06
9.23781e-07
9.36601e-07
9.56145e-07
9.83478e-07
1.01611e-06
1.05414e-06
1.09478e-06
1.13688e-06
1.17944e-06
1.22046e-06
1.26122e-06
1.29972e-06
1.3346e-06
1.3669e-06
1.39724e-06
1.42525e-06
1.45063e-06
1.47342e-06
1.49365e-06
1.51118e-06
1.52582e-06
1.53745e-06
1.54606e-06
8.1563e-07
8.26787e-07
8.44625e-07
8.70234e-07
9.00931e-07
9.37075e-07
9.75162e-07
1.01526e-06
1.05535e-06
1.09363e-06
1.1331e-06
1.16936e-06
1.20077e-06
1.22988e-06
1.25768e-06
1.28337e-06
1.30652e-06
1.32725e-06
1.34559e-06
1.36136e-06
1.37437e-06
1.38451e-06
1.39181e-06
7.18617e-07
7.28332e-07
7.44714e-07
7.68795e-07
7.97826e-07
8.32258e-07
8.67724e-07
9.06403e-07
9.43482e-07
9.79058e-07
1.01796e-06
1.05164e-06
1.07941e-06
1.10604e-06
1.1322e-06
1.15627e-06
1.17775e-06
1.19693e-06
1.21381e-06
1.22815e-06
1.23978e-06
1.24864e-06
1.2548e-06
1.25851e-06
6.31771e-07
6.40204e-07
6.55375e-07
6.78157e-07
7.05752e-07
7.38559e-07
7.71504e-07
8.0945e-07
8.41636e-07
8.76022e-07
9.16232e-07
9.459e-07
9.69047e-07
9.94289e-07
1.02e-06
1.04292e-06
1.06294e-06
1.08077e-06
1.0964e-06
1.10948e-06
1.11987e-06
1.1276e-06
1.13281e-06
1.13571e-06
5.55376e-07
5.62643e-07
5.76747e-07
5.9822e-07
6.24317e-07
6.55149e-07
6.85601e-07
7.22717e-07
7.47221e-07
7.83406e-07
8.27363e-07
8.51641e-07
8.68461e-07
8.93545e-07
9.20292e-07
9.42575e-07
9.61284e-07
9.77958e-07
9.92511e-07
1.00448e-06
1.01375e-06
1.02047e-06
1.02486e-06
1.02728e-06
4.94046e-07
5.00221e-07
5.13034e-07
5.32423e-07
5.56135e-07
5.83283e-07
6.1003e-07
6.43265e-07
6.58349e-07
6.96252e-07
7.42615e-07
7.62438e-07
7.76141e-07
8.03862e-07
8.33666e-07
8.57133e-07
8.76149e-07
8.9304e-07
9.0775e-07
9.19722e-07
9.28897e-07
9.35398e-07
9.39551e-07
9.41739e-07
4.45534e-07
4.50707e-07
4.61846e-07
4.7853e-07
4.98964e-07
5.21044e-07
5.43218e-07
5.69007e-07
5.77731e-07
6.10426e-07
6.55728e-07
6.7441e-07
6.90969e-07
7.22228e-07
7.55078e-07
7.81029e-07
8.01962e-07
8.20353e-07
8.3632e-07
8.49291e-07
8.59168e-07
8.66093e-07
8.70473e-07
8.72555e-07
4.011e-07
4.05443e-07
4.14992e-07
4.29212e-07
4.46483e-07
4.63946e-07
4.82084e-07
5.00501e-07
5.05442e-07
5.29729e-07
5.71585e-07
5.90714e-07
6.12443e-07
6.45904e-07
6.80302e-07
7.08453e-07
7.31447e-07
7.51351e-07
7.6848e-07
7.82349e-07
7.92801e-07
8.0006e-07
8.04596e-07
8.06817e-07
3.57706e-07
3.61366e-07
3.69513e-07
3.81561e-07
3.95936e-07
4.09484e-07
4.24255e-07
4.36302e-07
4.38876e-07
4.5622e-07
4.946e-07
5.13565e-07
5.40449e-07
5.7556e-07
6.1053e-07
6.40071e-07
6.64653e-07
6.85687e-07
7.03586e-07
7.18069e-07
7.28952e-07
7.36459e-07
7.4099e-07
7.42916e-07
3.16468e-07
3.1956e-07
3.26437e-07
3.36518e-07
3.48142e-07
3.58377e-07
3.70017e-07
3.76584e-07
3.77545e-07
3.88995e-07
4.2405e-07
4.42199e-07
4.73869e-07
5.1053e-07
5.45535e-07
5.75757e-07
6.01476e-07
6.23365e-07
6.41772e-07
6.56585e-07
6.67702e-07
6.75402e-07
6.80173e-07
6.82545e-07
2.77607e-07
2.80209e-07
2.8587e-07
2.94078e-07
3.0303e-07
3.10506e-07
3.19038e-07
3.21139e-07
3.20952e-07
3.27431e-07
3.59322e-07
3.76528e-07
4.12216e-07
4.50217e-07
4.85057e-07
5.15549e-07
5.42068e-07
5.64676e-07
5.83514e-07
5.98489e-07
6.09442e-07
6.16465e-07
6.19849e-07
6.20223e-07
2.41635e-07
2.43769e-07
2.48127e-07
2.5432e-07
2.6054e-07
2.65631e-07
2.70898e-07
2.69864e-07
2.68695e-07
2.7113e-07
2.99707e-07
3.16292e-07
3.55076e-07
3.94265e-07
4.29038e-07
4.59647e-07
4.86703e-07
5.09864e-07
5.29145e-07
5.44658e-07
5.5653e-07
5.65107e-07
5.71034e-07
5.7494e-07
2.08915e-07
2.10593e-07
2.13528e-07
2.17398e-07
2.2067e-07
2.23292e-07
2.24878e-07
2.22304e-07
2.19791e-07
2.19678e-07
2.44997e-07
2.6162e-07
3.02431e-07
3.42662e-07
3.77585e-07
4.08427e-07
4.36046e-07
4.59521e-07
4.78255e-07
4.92157e-07
5.01204e-07
5.05365e-07
5.0488e-07
5.00966e-07
4.95634e-07
1.7943e-07
1.80715e-07
1.82208e-07
1.83546e-07
1.83681e-07
1.83307e-07
1.80647e-07
1.77845e-07
1.72405e-07
1.72949e-07
1.95788e-07
2.12883e-07
2.54813e-07
2.96006e-07
3.30985e-07
3.61971e-07
3.90797e-07
4.16636e-07
4.38676e-07
4.56907e-07
4.7184e-07
4.84531e-07
4.96317e-07
5.0722e-07
5.15148e-07
1.53347e-07
1.54131e-07
1.53817e-07
1.52215e-07
1.4909e-07
1.4541e-07
1.39158e-07
1.37293e-07
1.2711e-07
1.35139e-07
1.54218e-07
1.70411e-07
2.12827e-07
2.55374e-07
2.90492e-07
3.20459e-07
3.47397e-07
3.70617e-07
3.89324e-07
4.03182e-07
4.11607e-07
4.14124e-07
4.1146e-07
4.0723e-07
4.06107e-07
1.32651e-07
1.32285e-07
1.2865e-07
1.22368e-07
1.14821e-07
1.07623e-07
1.0047e-07
1.01696e-07
9.00732e-08
1.14522e-07
1.23885e-07
1.3525e-07
1.75521e-07
2.18746e-07
2.57514e-07
2.95059e-07
3.32642e-07
3.68763e-07
4.02628e-07
4.35019e-07
4.67792e-07
5.0331e-07
5.42063e-07
5.78496e-07
6.04634e-07
1.20391e-07
1.18302e-07
1.10019e-07
9.68308e-08
8.17647e-08
6.81778e-08
6.08798e-08
6.70163e-08
6.50768e-08
1.03926e-07
1.06078e-07
1.15198e-07
1.48052e-07
1.84855e-07
2.21811e-07
2.64095e-07
3.12005e-07
3.62683e-07
4.13916e-07
4.64156e-07
5.11639e-07
5.54797e-07
5.92996e-07
6.24941e-07
6.51226e-07
1.14723e-07
1.115e-07
1.00152e-07
8.17952e-08
5.89968e-08
3.46194e-08
2.2472e-08
3.78183e-08
5.54922e-08
8.58186e-08
7.28231e-08
1.14798e-07
1.82477e-07
2.56168e-07
3.33101e-07
4.13096e-07
4.96123e-07
5.81266e-07
6.66582e-07
7.49698e-07
8.26824e-07
8.92887e-07
9.41584e-07
9.70086e-07
9.89374e-07
)
;

boundaryField
{
    inlet
    {
        type            calculated;
        value           nonuniform List<scalar> 
25
(
1.14265e-07
1.10842e-07
9.92426e-08
8.03693e-08
5.63492e-08
2.96548e-08
1.89893e-08
4.25414e-08
6.92213e-08
6.48572e-08
1.36363e-07
2.5907e-07
4.4311e-07
6.65936e-07
9.20064e-07
1.20232e-06
1.51126e-06
1.84412e-06
2.19682e-06
2.56345e-06
2.93557e-06
3.29988e-06
3.64023e-06
3.93843e-06
4.19011e-06
)
;
    }
    outlet
    {
        type            calculated;
        value           nonuniform List<scalar> 0();
    }
    walls
    {
        type            calculated;
        value           nonuniform List<scalar> 0();
    }
    frontAndBack
    {
        type            empty;
    }
    procBoundary4to0
    {
        type            processor;
        value           nonuniform List<scalar> 
72
(
0.000509997
0.000433
0.000370114
0.000318131
0.000274809
0.000238411
0.000207612
0.000181391
0.00015895
0.000139651
0.000122979
0.000108522
9.59404e-05
8.49581e-05
7.53457e-05
6.69099e-05
5.94888e-05
5.29476e-05
4.71718e-05
4.20622e-05
3.75352e-05
3.35191e-05
3.35191e-05
2.94357e-05
2.63161e-05
2.35393e-05
2.1065e-05
1.88582e-05
1.68887e-05
1.51295e-05
1.35569e-05
1.21504e-05
1.08916e-05
9.76448e-06
8.75472e-06
7.84964e-06
7.03806e-06
6.31004e-06
5.65674e-06
5.0703e-06
4.54369e-06
4.07066e-06
3.64567e-06
3.26375e-06
2.92046e-06
2.61184e-06
2.33434e-06
2.08479e-06
1.86035e-06
1.65849e-06
1.47693e-06
1.31364e-06
1.16677e-06
1.0347e-06
9.16008e-07
8.09425e-07
7.13768e-07
6.28059e-07
5.52518e-07
4.9165e-07
4.43422e-07
3.99284e-07
3.56169e-07
3.15175e-07
2.76482e-07
2.40571e-07
2.07792e-07
1.78125e-07
1.51649e-07
1.30263e-07
1.17269e-07
1.11289e-07
)
;
    }
    procBoundary4to5
    {
        type            processor;
        value           nonuniform List<scalar> 
95
(
0.000609725
0.000613198
0.000615368
0.000522986
0.000522986
0.000522623
0.00044709
0.00044709
0.000444841
0.00038349
0.00038349
0.000332578
0.000332578
0.000290067
0.000255975
0.000255975
0.000225367
0.000225367
0.00019912
0.000177452
0.000177452
0.000157803
0.000141177
0.000141177
0.000126205
0.00011324
0.00011324
0.000101653
9.14184e-05
8.22134e-05
8.22134e-05
7.41731e-05
6.68074e-05
6.01616e-05
6.01616e-05
5.44734e-05
4.91031e-05
4.42488e-05
4.42488e-05
4.01621e-05
3.62106e-05
3.26338e-05
3.26338e-05
2.96612e-05
2.6734e-05
2.40844e-05
2.16877e-05
1.9521e-05
1.9521e-05
1.77548e-05
1.59753e-05
1.43676e-05
1.29166e-05
1.16078e-05
1.16078e-05
1.05421e-05
9.46892e-06
8.50266e-06
7.63321e-06
6.85158e-06
6.85158e-06
6.20541e-06
5.56841e-06
4.99689e-06
4.48448e-06
4.02528e-06
3.614e-06
3.24583e-06
3.24583e-06
2.93263e-06
2.63573e-06
2.3702e-06
2.13229e-06
1.91832e-06
1.72537e-06
1.55176e-06
1.39646e-06
1.39646e-06
1.26014e-06
1.13669e-06
1.02801e-06
9.42232e-07
8.72753e-07
8.07219e-07
7.42856e-07
6.8314e-07
6.18511e-07
5.7698e-07
5.7698e-07
4.90327e-07
5.19325e-07
4.08675e-07
6.19963e-07
6.76878e-07
9.91303e-07
)
;
    }
}


// ************************************************************************* //
