/*--------------------------------*- C++ -*----------------------------------*\
| =========                 |                                                 |
| \\      /  F ield         | OpenFOAM: The Open Source CFD Toolbox           |
|  \\    /   O peration     | Version:  2506                                  |
|   \\  /    A nd           | Website:  www.openfoam.com                      |
|    \\/     M anipulation  |                                                 |
\*---------------------------------------------------------------------------*/
FoamFile
{
    version     2.0;
    format      ascii;
    arch        "LSB;label=32;scalar=64";
    class       volScalarField;
    location    "100";
    object      magR;
}
// * * * * * * * * * * * * * * * * * * * * * * * * * * * * * * * * * * * * * //

dimensions      [0 2 -2 0 0 0 0];

internalField   nonuniform List<scalar> 
1340
(
0.0041971
0.00569733
0.00819088
0.0119239
0.0173037
0.024928
0.0356084
0.0504034
0.0711632
0.101136
0.146196
0.217167
0.332892
0.533345
0.884749
1.57025
2.8549
5.77793
11.6002
26.2736
48.528
63.4515
69.0876
70.5
70.5988
70.0714
69.0417
67.5807
0.00227418
0.00203686
0.00178097
0.00153517
0.00131236
0.00111411
0.000938503
0.000784069
0.000651074
0.000539297
0.0004448
0.000365398
0.000295618
0.000231222
0.000166097
0.000100405
4.27205e-05
1.37252e-05
0.000321385
0.00371125
0.0234029
0.142185
0.396817
0.709408
1.01272
1.26696
1.46893
1.63707
1.78666
0.00182184
0.00166519
0.00148327
0.00128072
0.00107563
0.000885103
0.000717016
0.000573908
0.000459353
0.000371088
0.000306055
0.000259741
0.000228452
0.000208014
0.00019558
0.000189696
0.000189402
0.000193263
0.00019836
0.00020048
0.000200991
0.000135249
0.0017254
0.00788911
0.0193423
0.0403792
0.0928288
0.188197
0.320402
0.00153363
0.00143526
0.00132174
0.00119167
0.00105558
0.000923805
0.000803371
0.000696335
0.000602878
0.00052363
0.000457168
0.000402492
0.00035786
0.000322126
0.000293002
0.000269298
0.000249188
0.000230781
0.000210648
0.000189425
0.000172021
0.000158647
0.0001506
0.000128623
0.000142132
3.25174e-05
5.03568e-05
0.000540955
0.000754672
0.00415546
0.00122035
0.00115168
0.00107228
0.000981909
0.000885536
0.000787258
0.000691274
0.000600276
0.000515977
0.000440271
0.000374108
0.000317846
0.00027122
0.000233724
0.000204104
0.000181201
0.000163503
0.000149398
0.000136165
0.000122213
0.000108937
9.89001e-05
9.26252e-05
9.13589e-05
8.41983e-05
0.00010804
8.92251e-07
0.000245075
3.69476e-06
0.00213234
0.0010286
0.000984844
0.000935973
0.000878839
0.000814049
0.000744668
0.000673193
0.000602596
0.000535144
0.000472259
0.000415232
0.000364948
0.000321643
0.000285073
0.00025474
0.000229761
0.000209126
0.00019155
0.000175576
0.000159122
0.00014124
0.0001237
0.000108215
9.52195e-05
8.43414e-05
7.52819e-05
6.72921e-05
5.88955e-05
4.51127e-05
2.31375e-05
1.67405e-06
0.000837563
0.000806056
0.000770212
0.000728367
0.000681439
0.000630991
0.000578318
0.00052512
0.000472851
0.000422533
0.000375217
0.000331813
0.000292841
0.000258564
0.000229025
0.000203906
0.000182707
0.000164648
0.000148682
0.000133262
0.0001174
0.000101986
8.83312e-05
7.69484e-05
6.76324e-05
6.02259e-05
5.48604e-05
5.1493e-05
4.8758e-05
4.45258e-05
3.73346e-05
0.000690416
0.00066705
0.000640294
0.000609125
0.000574566
0.000537387
0.000498197
0.000458147
0.00041821
0.000379115
0.000341679
0.000306738
0.000274817
0.000246301
0.000221331
0.000199741
0.000181124
0.000164838
0.00015
0.000135422
0.000120386
0.000105576
9.20226e-05
8.01066e-05
6.96195e-05
6.03355e-05
5.2235e-05
4.51506e-05
3.89563e-05
3.36511e-05
2.94774e-05
0.000591219
0.000575176
0.000557376
0.000537042
0.000513526
0.000487696
0.00045998
0.000430641
0.000400342
0.000369697
0.000339158
0.000309272
0.000280655
0.000253813
0.000229116
0.000206806
0.000186922
0.0001693
0.000153544
0.000139051
0.000125009
0.000110902
9.71224e-05
8.44912e-05
7.34033e-05
6.37667e-05
5.5395e-05
4.82641e-05
4.24703e-05
3.79049e-05
3.45014e-05
3.21702e-05
0.000483567
0.0004697
0.000453915
0.000435951
0.000416422
0.000395501
0.000373338
0.000350333
0.000326806
0.00030301
0.000279341
0.000256256
0.000234147
0.000213394
0.000194239
0.000176806
0.000161044
0.000146697
0.000133324
0.000120364
0.000107415
9.47504e-05
8.2999e-05
7.25003e-05
6.31927e-05
5.49085e-05
4.7598e-05
4.12513e-05
3.57884e-05
3.1286e-05
2.7651e-05
0.000398821
0.000386346
0.000372413
0.000357457
0.000341537
0.000324641
0.000307056
0.000288949
0.000270428
0.000251717
0.000233133
0.000214963
0.000197503
0.000181012
0.000165631
0.000151378
0.00013813
0.000125614
0.000113462
0.000101416
8.9677e-05
7.87146e-05
6.88465e-05
6.00736e-05
5.22901e-05
4.54651e-05
3.96392e-05
3.47982e-05
3.09607e-05
2.80199e-05
0.000330902
0.00031996
0.000308354
0.000296084
0.000283102
0.00026958
0.000255595
0.000241148
0.00022639
0.000211507
0.000196682
0.00018215
0.000168112
0.000154739
0.000142103
0.000130151
0.000118704
0.000107529
9.64991e-05
8.57483e-05
7.56384e-05
6.64388e-05
5.8184e-05
5.07966e-05
4.42462e-05
3.85453e-05
3.36759e-05
2.96767e-05
2.64917e-05
0.000276289
0.00026718
0.000257634
0.000247578
0.000237093
0.00022623
0.000214959
0.000203307
0.000191401
0.00017935
0.000167318
0.000155455
0.000143908
0.000132763
0.000122016
0.000111578
0.000101329
9.12142e-05
8.13526e-05
7.20166e-05
6.34438e-05
5.56965e-05
4.87341e-05
4.25405e-05
3.71445e-05
3.25608e-05
2.88171e-05
2.58481e-05
0.000232414
0.000224917
0.000217057
0.000208889
0.000200416
0.00019158
0.000182387
0.00017288
0.00016311
0.000153193
0.000143237
0.00013335
0.00012361
0.000114049
0.000104636
9.53339e-05
8.61389e-05
7.71522e-05
6.85916e-05
6.06584e-05
5.34288e-05
4.68888e-05
4.10306e-05
3.58849e-05
3.1461e-05
2.77887e-05
2.48156e-05
0.000196897
0.000190767
0.00018435
0.000177702
0.000170757
0.000163485
0.000155899
0.000148005
0.000139856
0.000131531
0.000123107
0.000114662
0.000106233
9.78176e-05
8.94126e-05
8.10737e-05
7.2905e-05
6.50776e-05
5.77571e-05
5.10315e-05
4.49069e-05
3.93896e-05
3.45148e-05
3.03037e-05
2.67862e-05
2.3912e-05
0.00017281
0.000167958
0.00016293
0.000157703
0.000152222
0.000146462
0.000140394
0.000134015
0.000127339
0.00012041
0.000113281
0.000106005
9.86241e-05
9.11517e-05
8.36235e-05
7.61142e-05
6.87278e-05
6.16022e-05
5.48808e-05
4.86529e-05
4.2941e-05
3.77612e-05
3.31517e-05
2.91357e-05
2.57412e-05
2.29244e-05
0.000148095
0.000144169
0.000140033
0.000135704
0.00013113
0.000126285
0.000121133
0.000115681
0.000109936
0.000103933
9.77049e-05
9.12825e-05
8.46902e-05
7.79848e-05
7.12558e-05
6.45992e-05
5.81367e-05
5.19906e-05
4.6245e-05
4.09372e-05
3.60904e-05
3.17462e-05
2.79322e-05
2.46758e-05
2.19359e-05
0.000130737
0.000127649
0.000124401
0.000120972
0.000117341
0.000113469
0.000109315
0.000104869
0.000100124
9.50883e-05
8.97861e-05
8.4241e-05
7.84719e-05
7.25314e-05
6.65203e-05
6.05487e-05
5.47143e-05
4.91185e-05
4.38417e-05
3.89281e-05
3.44094e-05
3.03267e-05
2.67118e-05
2.35892e-05
2.09204e-05
0.00011308
0.000110544
0.000107823
0.000104943
0.000101851
9.85075e-05
9.48881e-05
9.098e-05
8.67787e-05
8.22863e-05
7.75157e-05
7.24873e-05
6.72593e-05
6.19303e-05
5.65975e-05
5.135e-05
4.6274e-05
4.14463e-05
3.69136e-05
3.27146e-05
2.88887e-05
2.54694e-05
2.2483e-05
1.98918e-05
0.000100224
9.82286e-05
9.60911e-05
9.38061e-05
9.13357e-05
8.86462e-05
8.57079e-05
8.2495e-05
7.89975e-05
7.52111e-05
7.11351e-05
6.67798e-05
6.22032e-05
5.7499e-05
5.27556e-05
4.80539e-05
4.34694e-05
3.90701e-05
3.49057e-05
3.10166e-05
2.74428e-05
2.42149e-05
2.13655e-05
1.88539e-05
8.88764e-05
8.73001e-05
8.562e-05
8.38032e-05
8.18289e-05
7.96649e-05
7.72822e-05
7.46502e-05
7.17506e-05
6.85682e-05
6.51027e-05
6.13557e-05
5.73721e-05
5.32341e-05
4.90327e-05
4.48386e-05
4.07155e-05
3.67227e-05
3.29108e-05
2.93206e-05
2.59918e-05
2.29549e-05
2.02425e-05
1.78135e-05
7.76054e-05
7.6288e-05
7.48277e-05
7.32489e-05
7.1508e-05
6.95743e-05
6.742e-05
6.50223e-05
6.23628e-05
5.94278e-05
5.62159e-05
5.27635e-05
4.91469e-05
4.54442e-05
4.17176e-05
3.8023e-05
3.4413e-05
3.09357e-05
2.76326e-05
2.45413e-05
2.16934e-05
1.91168e-05
1.67731e-05
6.90113e-05
6.79503e-05
6.67942e-05
6.55231e-05
6.41167e-05
6.25469e-05
6.0784e-05
5.88042e-05
5.65873e-05
5.41131e-05
5.13731e-05
4.83965e-05
4.52483e-05
4.19985e-05
3.86986e-05
3.54006e-05
3.21494e-05
2.89895e-05
2.59612e-05
2.30992e-05
2.04353e-05
1.79933e-05
1.57393e-05
6.05275e-05
5.9608e-05
5.8572e-05
5.74364e-05
5.61605e-05
5.47176e-05
5.30861e-05
5.12422e-05
4.91622e-05
4.68327e-05
4.4275e-05
4.15438e-05
3.86997e-05
3.57918e-05
3.28593e-05
2.99424e-05
2.70818e-05
2.43143e-05
2.16728e-05
1.91881e-05
1.68796e-05
1.4718e-05
5.39156e-05
5.31697e-05
5.23358e-05
5.14138e-05
5.0372e-05
4.919e-05
4.78428e-05
4.63086e-05
4.45624e-05
4.25885e-05
4.03991e-05
3.80409e-05
3.55616e-05
3.30074e-05
3.04087e-05
2.78013e-05
2.52202e-05
2.26993e-05
2.02691e-05
1.7958e-05
1.57824e-05
1.37165e-05
4.80244e-05
4.74182e-05
4.67461e-05
4.59902e-05
4.51348e-05
4.41636e-05
4.30509e-05
4.17745e-05
4.03097e-05
3.86387e-05
3.6769e-05
3.47374e-05
3.25855e-05
3.03483e-05
2.80541e-05
2.57312e-05
2.341e-05
2.11218e-05
1.88934e-05
1.67493e-05
1.47058e-05
1.27385e-05
4.22755e-05
4.17357e-05
4.11056e-05
4.04055e-05
3.96041e-05
3.86828e-05
3.76216e-05
3.63959e-05
3.49841e-05
3.33913e-05
3.16449e-05
2.97802e-05
2.78261e-05
2.58056e-05
2.3742e-05
2.16616e-05
1.95906e-05
1.75532e-05
1.55704e-05
1.36572e-05
1.17919e-05
3.7684e-05
3.72341e-05
3.67179e-05
3.61407e-05
3.54779e-05
3.47156e-05
3.38322e-05
3.28057e-05
3.1613e-05
3.02562e-05
2.87573e-05
2.71444e-05
2.54413e-05
2.36669e-05
2.18391e-05
1.99801e-05
1.81116e-05
1.62547e-05
1.44268e-05
1.26417e-05
1.08809e-05
3.35792e-05
3.32042e-05
3.2783e-05
3.23019e-05
3.17527e-05
3.11194e-05
3.03836e-05
2.95218e-05
2.8513e-05
2.73576e-05
2.60717e-05
2.46799e-05
2.31989e-05
2.16443e-05
2.00297e-05
1.83727e-05
1.66917e-05
1.50042e-05
1.33241e-05
1.16642e-05
1.00101e-05
2.95982e-05
2.9254e-05
2.88473e-05
2.83908e-05
2.78636e-05
2.72495e-05
2.65246e-05
2.5671e-05
2.46878e-05
2.35869e-05
2.23861e-05
2.11003e-05
1.97404e-05
1.83169e-05
1.68434e-05
1.53349e-05
1.38056e-05
1.22663e-05
1.07286e-05
9.18201e-06
2.63757e-05
2.60799e-05
2.57459e-05
2.53642e-05
2.49241e-05
2.44089e-05
2.37982e-05
2.30751e-05
2.22372e-05
2.12949e-05
2.026e-05
1.91451e-05
1.79571e-05
1.67042e-05
1.53967e-05
1.40462e-05
1.26648e-05
1.12595e-05
9.84142e-06
8.40287e-06
2.32432e-05
2.29676e-05
2.26407e-05
2.22726e-05
2.18395e-05
2.13244e-05
2.07115e-05
1.99978e-05
1.91902e-05
1.82986e-05
1.73315e-05
1.62946e-05
1.51933e-05
1.40356e-05
1.28297e-05
1.15849e-05
1.03066e-05
9.00502e-06
7.67384e-06
2.07072e-05
2.04698e-05
2.01957e-05
1.98863e-05
1.9521e-05
1.90857e-05
1.85652e-05
1.79565e-05
1.72638e-05
1.64946e-05
1.56558e-05
1.47518e-05
1.37856e-05
1.27621e-05
1.16878e-05
1.05695e-05
9.41134e-06
8.22269e-06
6.99745e-06
1.84394e-05
1.8236e-05
1.80072e-05
1.77433e-05
1.74338e-05
1.7064e-05
1.66208e-05
1.60997e-05
1.55049e-05
1.48415e-05
1.41146e-05
1.33268e-05
1.24797e-05
1.15764e-05
1.06216e-05
9.6201e-06
8.57479e-06
7.49401e-06
6.37235e-06
1.62401e-05
1.60485e-05
1.5818e-05
1.55553e-05
1.52412e-05
1.48629e-05
1.44169e-05
1.39058e-05
1.33328e-05
1.27025e-05
1.2016e-05
1.12741e-05
1.04787e-05
9.6321e-06
8.73803e-06
7.79875e-06
6.82046e-06
5.80002e-06
1.44585e-05
1.42897e-05
1.40937e-05
1.38698e-05
1.3601e-05
1.32782e-05
1.28967e-05
1.24563e-05
1.19606e-05
1.14132e-05
1.08151e-05
1.01663e-05
9.46676e-06
8.718e-06
7.92252e-06
7.08172e-06
6.20046e-06
5.27732e-06
1.28663e-05
1.27193e-05
1.25533e-05
1.23592e-05
1.21296e-05
1.18533e-05
1.1525e-05
1.11449e-05
1.07152e-05
1.02397e-05
9.71919e-06
9.15238e-06
8.53835e-06
7.87821e-06
7.17293e-06
6.42354e-06
5.63353e-06
4.80381e-06
1.13197e-05
1.11779e-05
1.10068e-05
1.08093e-05
1.05726e-05
1.02901e-05
9.9611e-06
9.5887e-06
9.17608e-06
8.72329e-06
8.22853e-06
7.69085e-06
7.11015e-06
6.48691e-06
5.82215e-06
5.11822e-06
4.37878e-06
1.00732e-05
9.94621e-06
9.79775e-06
9.62893e-06
9.42621e-06
9.18212e-06
8.89671e-06
8.57365e-06
8.21535e-06
7.82131e-06
7.38983e-06
6.91982e-06
6.41046e-06
5.8619e-06
5.27494e-06
4.65221e-06
8.96066e-06
8.84828e-06
8.72342e-06
8.57773e-06
8.40145e-06
8.1892e-06
7.9418e-06
7.66138e-06
7.35001e-06
7.00715e-06
6.63124e-06
6.22106e-06
5.77557e-06
5.29449e-06
4.77846e-06
4.22958e-06
7.87462e-06
7.76813e-06
7.63818e-06
7.48464e-06
7.30083e-06
7.08623e-06
6.84313e-06
6.57272e-06
6.27443e-06
5.94719e-06
5.58997e-06
5.20138e-06
4.78115e-06
4.32961e-06
3.8483e-06
7.00941e-06
6.91333e-06
6.79986e-06
6.6668e-06
6.50709e-06
6.32161e-06
6.11124e-06
5.87578e-06
5.61609e-06
5.33163e-06
5.02118e-06
4.68339e-06
4.31772e-06
3.92448e-06
3.50478e-06
6.23686e-06
6.1521e-06
6.05502e-06
5.93821e-06
5.80049e-06
5.6403e-06
5.45662e-06
5.25134e-06
5.02567e-06
4.77892e-06
4.50986e-06
4.21728e-06
3.90036e-06
3.55967e-06
3.19595e-06
5.47669e-06
5.39215e-06
5.29083e-06
5.1722e-06
5.03187e-06
4.87155e-06
4.69336e-06
4.49781e-06
4.2843e-06
4.05167e-06
3.79892e-06
3.52544e-06
3.23136e-06
2.91782e-06
4.87627e-06
4.8035e-06
4.71665e-06
4.61278e-06
4.49034e-06
4.35117e-06
4.19691e-06
4.0276e-06
3.84267e-06
3.64176e-06
3.42401e-06
3.18871e-06
2.93588e-06
2.66698e-06
4.34465e-06
4.28147e-06
4.207e-06
4.11643e-06
4.00984e-06
3.88915e-06
3.75534e-06
3.60845e-06
3.44858e-06
3.27544e-06
3.08828e-06
2.88641e-06
2.66985e-06
2.43982e-06
3.8186e-06
3.75492e-06
3.67524e-06
3.58247e-06
3.47786e-06
3.36224e-06
3.23539e-06
3.09749e-06
2.94873e-06
2.78847e-06
2.6156e-06
2.43053e-06
2.23431e-06
3.40739e-06
3.35195e-06
3.28286e-06
3.20235e-06
3.1123e-06
3.01253e-06
2.90295e-06
2.78484e-06
2.65791e-06
2.52054e-06
2.37268e-06
2.2148e-06
2.04784e-06
3.04193e-06
2.99386e-06
2.93451e-06
2.86541e-06
2.78718e-06
2.70059e-06
2.60733e-06
2.50702e-06
2.398e-06
2.28014e-06
2.15398e-06
2.01969e-06
1.87802e-06
2.71728e-06
2.67591e-06
2.62607e-06
2.56577e-06
2.49763e-06
2.42418e-06
2.34514e-06
2.2588e-06
2.16505e-06
2.06435e-06
1.95703e-06
1.84322e-06
1.7231e-06
2.3954e-06
2.35255e-06
2.29958e-06
2.24138e-06
2.179e-06
2.11101e-06
2.03692e-06
1.95681e-06
1.8712e-06
1.78023e-06
1.68385e-06
1.58236e-06
2.14688e-06
2.10964e-06
2.06437e-06
2.01429e-06
1.96042e-06
1.90207e-06
1.83883e-06
1.77086e-06
1.69823e-06
1.62118e-06
1.53961e-06
1.45359e-06
1.926e-06
1.89427e-06
1.85514e-06
1.81162e-06
1.76501e-06
1.71509e-06
1.66138e-06
1.60368e-06
1.54209e-06
1.47654e-06
1.40761e-06
1.72876e-06
1.70148e-06
1.66778e-06
1.62985e-06
1.58974e-06
1.54702e-06
1.50125e-06
1.45219e-06
1.39967e-06
1.34412e-06
1.28625e-06
1.52841e-06
1.4991e-06
1.46616e-06
1.43142e-06
1.39475e-06
1.35583e-06
1.31387e-06
1.26897e-06
1.22227e-06
1.1739e-06
1.37245e-06
1.34694e-06
1.31802e-06
1.28773e-06
1.25653e-06
1.22325e-06
1.1873e-06
1.14978e-06
1.11099e-06
1.07057e-06
1.2316e-06
1.20924e-06
1.1842e-06
1.15833e-06
1.13145e-06
1.10289e-06
1.07291e-06
1.04154e-06
1.00886e-06
9.74801e-07
1.10438e-06
1.08532e-06
1.06413e-06
1.04193e-06
1.01882e-06
9.94798e-07
9.69455e-07
9.43161e-07
9.15868e-07
8.87386e-07
9.90376e-07
9.74183e-07
9.5626e-07
9.37519e-07
9.1803e-07
8.97501e-07
8.76419e-07
8.54453e-07
8.31359e-07
8.07215e-07
8.74853e-07
8.59697e-07
8.43781e-07
8.2701e-07
8.10006e-07
7.92334e-07
7.73808e-07
7.54411e-07
7.34094e-07
7.86022e-07
7.72752e-07
7.58726e-07
7.44536e-07
7.30286e-07
7.1568e-07
7.00356e-07
6.83838e-07
6.6652e-07
7.0531e-07
6.93293e-07
6.80991e-07
6.68688e-07
6.56785e-07
6.44586e-07
6.31504e-07
6.17631e-07
6.30662e-07
6.19764e-07
6.08626e-07
5.97793e-07
5.87341e-07
5.76931e-07
5.66118e-07
5.54821e-07
5.61032e-07
5.50675e-07
5.40628e-07
5.30903e-07
5.21688e-07
5.12712e-07
5.03645e-07
4.94383e-07
4.96092e-07
4.86301e-07
4.7719e-07
4.68555e-07
4.60197e-07
4.52139e-07
4.44503e-07
4.37076e-07
4.27726e-07
4.19259e-07
4.11206e-07
4.03402e-07
3.96165e-07
3.89638e-07
3.83482e-07
3.76685e-07
3.68847e-07
3.61294e-07
3.54015e-07
3.47471e-07
3.41671e-07
3.36297e-07
3.35133e-07
3.28173e-07
3.21422e-07
3.14872e-07
3.08883e-07
3.03506e-07
2.98594e-07
3.0176e-07
2.9553e-07
2.89568e-07
2.83638e-07
2.78128e-07
2.73135e-07
2.68504e-07
2.72264e-07
2.66719e-07
2.61373e-07
2.56134e-07
2.51099e-07
2.46338e-07
2.41811e-07
2.44769e-07
2.39603e-07
2.34801e-07
2.30014e-07
2.25378e-07
2.21025e-07
2.16916e-07
2.19753e-07
2.14578e-07
2.09694e-07
2.04855e-07
2.0024e-07
1.9579e-07
1.95466e-07
1.89801e-07
1.8464e-07
1.79595e-07
1.74648e-07
1.69795e-07
1.6594e-07
1.58113e-07
1.50953e-07
1.44307e-07
1.38036e-07
1.32282e-07
1.21013e-07
1.10345e-07
9.99179e-08
8.95292e-08
7.9523e-08
8.35948e-08
7.2769e-08
6.33483e-08
5.59616e-08
5.16589e-08
1.28451e-07
1.29345e-07
1.31978e-07
1.35742e-07
1.40144e-07
2.63104e-07
2.82876e-07
3.0212e-07
3.20224e-07
3.3675e-07
6.69048e-07
6.78146e-07
6.85019e-07
6.89717e-07
6.92578e-07
1.30271e-06
1.31385e-06
1.32086e-06
1.32409e-06
1.32423e-06
)
;

boundaryField
{
    inlet
    {
        type            calculated;
        value           nonuniform List<scalar> 5(4.16022e-06 4.25647e-06 4.34129e-06 4.41512e-06 4.47841e-06);
    }
    outlet
    {
        type            calculated;
        value           nonuniform List<scalar> 0();
    }
    walls
    {
        type            calculated;
        value           nonuniform List<scalar> 
28
(
0.0637781
0.134483
0.230141
0.333357
0.433781
0.526703
0.609818
0.683288
0.748721
0.807812
0.862229
0.913752
0.963445
1.0123
1.06074
1.10842
1.15216
1.18587
1.20836
1.22266
1.23152
1.23624
1.23745
1.23301
1.22218
1.20485
1.18158
1.15251
)
;
    }
    frontAndBack
    {
        type            empty;
    }
    procBoundary1to0
    {
        type            processor;
        value           nonuniform List<scalar> 
94
(
0.000496092
0.000496092
0.000409857
0.000409857
0.000340921
0.000340921
0.000285025
0.000285025
0.000239657
0.000239657
0.000202859
0.000202859
0.000177491
0.000151914
0.000151914
0.000133725
0.000115501
0.000115501
0.000102138
9.04093e-05
7.88625e-05
7.88625e-05
7.00233e-05
6.13842e-05
6.13842e-05
5.46115e-05
4.85923e-05
4.27726e-05
4.27726e-05
3.80929e-05
3.39181e-05
2.99116e-05
2.99116e-05
2.66389e-05
2.34915e-05
2.34915e-05
2.09179e-05
1.86201e-05
1.64127e-05
1.64127e-05
1.46065e-05
1.29958e-05
1.14463e-05
1.14463e-05
1.01829e-05
9.05784e-06
7.97004e-06
7.97004e-06
7.09137e-06
6.30967e-06
5.54989e-06
5.54989e-06
4.93988e-06
4.39805e-06
3.87213e-06
3.87213e-06
3.45269e-06
3.08068e-06
2.75102e-06
2.42973e-06
2.42973e-06
2.17558e-06
1.94989e-06
1.74886e-06
1.55158e-06
1.55158e-06
1.3923e-06
1.24863e-06
1.11877e-06
1.00234e-06
8.88577e-07
8.88577e-07
7.97783e-07
7.15893e-07
6.4049e-07
5.70447e-07
5.05272e-07
4.36816e-07
4.36816e-07
3.84787e-07
3.42327e-07
3.08231e-07
2.78131e-07
2.50324e-07
2.25378e-07
2.0157e-07
1.74133e-07
1.31803e-07
1.31803e-07
9.52613e-08
1.29814e-07
2.42742e-07
6.58208e-07
1.28683e-06
)
;
    }
    procBoundary1to2
    {
        type            processor;
        value           nonuniform List<scalar> 
84
(
65.8122
1.93483
0.472986
0.01826
8.69333e-06
1.91073e-06
2.10443e-05
2.39522e-05
3.16233e-05
2.59778e-05
2.66904e-05
2.4767e-05
2.41862e-05
2.30227e-05
2.20843e-05
2.10276e-05
1.99986e-05
1.89431e-05
1.78894e-05
1.68364e-05
1.57933e-05
1.47601e-05
1.37462e-05
1.27559e-05
1.17959e-05
1.08701e-05
9.9864e-06
9.14667e-06
8.35569e-06
7.61496e-06
6.9294e-06
6.29853e-06
5.72348e-06
5.20151e-06
4.73235e-06
4.31153e-06
3.93779e-06
3.60517e-06
3.99615e-06
3.99615e-06
3.64972e-06
3.34053e-06
3.06332e-06
2.81446e-06
2.58956e-06
2.38546e-06
2.19943e-06
2.02938e-06
1.87346e-06
1.73e-06
1.59769e-06
1.47608e-06
1.36385e-06
1.3355e-06
1.3355e-06
1.22581e-06
1.12336e-06
1.02809e-06
9.39313e-07
8.57658e-07
7.82084e-07
7.1296e-07
6.48777e-07
6.03293e-07
6.03293e-07
5.43021e-07
4.84907e-07
4.29568e-07
3.7744e-07
3.31172e-07
2.94032e-07
2.64215e-07
2.37496e-07
2.12953e-07
1.91451e-07
1.91451e-07
1.65092e-07
1.27402e-07
7.06494e-08
5.17225e-08
1.44602e-07
3.51428e-07
6.9412e-07
1.32186e-06
)
;
    }
    procBoundary1to5
    {
        type            processor;
        value           nonuniform List<scalar> 
13
(
0.00362428
0.00362428
0.00249475
0.00197793
0.00197793
0.00162466
0.00128279
0.00128279
0.00106535
0.000865017
0.00071131
0.00071131
0.000605295
)
;
    }
}


// ************************************************************************* //
