/*--------------------------------*- C++ -*----------------------------------*\
| =========                 |                                                 |
| \\      /  F ield         | OpenFOAM: The Open Source CFD Toolbox           |
|  \\    /   O peration     | Version:  2506                                  |
|   \\  /    A nd           | Website:  www.openfoam.com                      |
|    \\/     M anipulation  |                                                 |
\*---------------------------------------------------------------------------*/
FoamFile
{
    version     2.0;
    format      ascii;
    arch        "LSB;label=32;scalar=64";
    class       volVectorField;
    location    "100";
    object      momentError;
}
// * * * * * * * * * * * * * * * * * * * * * * * * * * * * * * * * * * * * * //

dimensions      [0 1 -2 0 0 0 0];

internalField   nonuniform List<vector> 
1340
(
(0.263468 -0.370162 -7.9831e-14)
(0.639384 -0.808696 -1.08235e-13)
(0.836693 -0.811929 9.0402e-14)
(0.86031 -0.683383 -4.84672e-14)
(0.844086 -0.57189 -1.24183e-13)
(0.812253 -0.47668 -1.35938e-13)
(0.760191 -0.390479 9.73306e-15)
(0.696306 -0.318187 1.0418e-13)
(0.633661 -0.263256 2.95992e-14)
(0.578744 -0.219997 -3.73526e-14)
(0.528419 -0.185318 -2.44722e-14)
(0.483713 -0.156932 -1.58512e-14)
(0.443951 -0.133822 2.6367e-14)
(0.40979 -0.11431 9.70944e-15)
(0.380014 -0.098134 1.37389e-14)
(0.355101 -0.0841495 -1.50209e-14)
(0.333802 -0.0717477 -9.10682e-15)
(0.314019 -0.0580817 4.39751e-15)
(0.293217 -0.047914 -3.95398e-15)
(0.276528 -0.0379838 -3.89541e-15)
(0.266528 -0.0230935 1.32517e-15)
(0.255816 -0.00949726 4.071e-16)
(0.261003 -0.00169886 2.55267e-15)
(0.261842 0.00487876 -2.82083e-15)
(0.263693 0.0106723 -9.97984e-15)
(0.269087 0.0160687 3.87313e-15)
(0.281567 0.0216882 -4.63435e-14)
(0.307294 0.0287459 -5.98299e-14)
(0.321913 -0.343853 3.08067e-14)
(0.507187 -0.639838 1.57425e-13)
(0.705421 -0.767457 -1.68168e-14)
(0.887341 -0.67238 -5.01373e-14)
(0.956234 -0.527009 9.18569e-14)
(0.961007 -0.402389 -7.16999e-15)
(0.932512 -0.296772 1.41667e-14)
(0.880102 -0.2104 -1.71124e-14)
(0.81489 -0.148211 -2.57202e-14)
(0.746013 -0.10903 8.44885e-15)
(0.682586 -0.0819298 1.50415e-14)
(0.624118 -0.0636207 -4.34522e-14)
(0.571773 -0.0504544 1.97674e-14)
(0.524887 -0.0415182 1.26927e-14)
(0.484023 -0.0343841 1.04238e-14)
(0.44807 -0.0291273 2.02558e-14)
(0.416997 -0.0242489 1.99648e-14)
(0.389023 -0.0186074 8.3003e-15)
(0.363907 -0.00898996 -5.81655e-15)
(0.33965 0.0021399 1.19659e-15)
(0.317481 0.00967708 4.01592e-15)
(0.30085 0.0141621 2.49903e-15)
(0.289425 0.0156893 -8.36077e-16)
(0.267251 0.021065 -8.72643e-16)
(0.255158 0.0250845 4.73459e-15)
(0.246953 0.0288294 4.49222e-15)
(0.242557 0.0323079 8.73294e-15)
(0.242607 0.0360941 2.99673e-14)
(0.251723 0.0410543 1.88913e-14)
(0.457215 -0.626595 2.72754e-14)
(0.629623 -0.780552 -1.23779e-13)
(0.760413 -0.795278 -9.92696e-14)
(0.861859 -0.719693 -7.15335e-14)
(0.909572 -0.618236 1.00063e-13)
(0.908368 -0.514317 2.1191e-14)
(0.87717 -0.416923 -1.94178e-14)
(0.827821 -0.332566 -7.36736e-14)
(0.768407 -0.266188 -4.91095e-14)
(0.704783 -0.21616 3.14674e-14)
(0.644439 -0.177553 -1.761e-14)
(0.589199 -0.147717 -3.38179e-14)
(0.539671 -0.124317 -2.38328e-15)
(0.495495 -0.105827 -2.78355e-14)
(0.457144 -0.0904756 -2.79858e-14)
(0.423487 -0.0776381 -5.05973e-14)
(0.393877 -0.0658004 -3.29773e-14)
(0.366672 -0.0536202 -6.25326e-15)
(0.341856 -0.0392126 -4.22722e-17)
(0.317987 -0.0252413 2.39968e-15)
(0.294465 -0.0149675 1.6717e-15)
(0.27433 -0.00682341 -3.07296e-15)
(0.258646 0.0012677 -9.43479e-16)
(0.246914 0.0077211 2.81263e-16)
(0.241018 0.0116557 -1.64758e-15)
(0.238194 0.0159895 -4.6703e-15)
(0.238966 0.0202803 -7.08891e-15)
(0.244985 0.0250211 -7.33796e-15)
(0.261466 0.0314582 -2.23492e-14)
(0.515206 -0.858534 6.00353e-14)
(0.533324 -0.803944 -1.682e-13)
(0.667506 -0.857167 1.55438e-13)
(0.770444 -0.827926 -3.04436e-16)
(0.84002 -0.742842 -1.08424e-13)
(0.880156 -0.634767 -8.07122e-14)
(0.883858 -0.521936 -1.91878e-14)
(0.859516 -0.416086 3.97634e-14)
(0.818412 -0.323571 1.17469e-13)
(0.767088 -0.24799 2.06796e-14)
(0.70938 -0.188912 -3.91887e-14)
(0.652896 -0.14414 1.68263e-14)
(0.599486 -0.110757 3.828e-14)
(0.550658 -0.0862087 -3.3488e-15)
(0.506309 -0.0682313 -4.92157e-15)
(0.467333 -0.0547934 -1.47825e-14)
(0.432537 -0.044448 3.21717e-14)
(0.401099 -0.0356399 1.69815e-14)
(0.371715 -0.0268587 -6.81996e-15)
(0.345064 -0.0163391 -4.0642e-15)
(0.320459 -0.00570565 -2.6014e-15)
(0.296518 0.00234251 -1.31967e-15)
(0.275113 0.0083219 2.55136e-16)
(0.256894 0.0130911 6.96701e-16)
(0.241891 0.0159038 -5.47849e-16)
(0.23276 0.022598 -1.8773e-15)
(0.228131 0.0280137 -1.07987e-15)
(0.226824 0.0328359 4.09e-15)
(0.229771 0.0366473 1.08617e-14)
(0.244063 0.0467746 2.62214e-14)
(0.503639 -0.920661 -1.19473e-14)
(0.559333 -0.889912 -8.16609e-14)
(0.671022 -0.893867 7.41902e-14)
(0.757539 -0.839751 1.50014e-13)
(0.812736 -0.748478 1.67823e-14)
(0.845526 -0.645147 -3.82272e-14)
(0.849975 -0.5401 4.80152e-14)
(0.828657 -0.440556 4.6297e-14)
(0.792143 -0.352578 2.4626e-15)
(0.746356 -0.27936 -8.29376e-14)
(0.692981 -0.220228 3.26534e-16)
(0.639853 -0.174506 2.71889e-15)
(0.588422 -0.139666 -2.10792e-16)
(0.541029 -0.113261 1.20927e-14)
(0.497477 -0.0929937 -5.60232e-15)
(0.458922 -0.0771196 8.51117e-15)
(0.424366 -0.0640653 -1.69749e-14)
(0.392868 -0.0524227 -8.05466e-15)
(0.36314 -0.0409297 6.711e-15)
(0.336427 -0.0286264 7.10489e-15)
(0.312399 -0.0165861 -8.69019e-16)
(0.289372 -0.00678652 7.61956e-16)
(0.268724 0.000782902 1.18879e-15)
(0.251033 0.00702786 -6.74638e-16)
(0.236399 0.0128547 5.98238e-16)
(0.225305 0.0155708 4.67516e-15)
(0.220583 0.0197317 1.18339e-15)
(0.21829 0.023118 -1.81185e-14)
(0.219842 0.0284626 -1.99619e-14)
(0.228463 0.0277613 2.34684e-15)
(0.456951 -1.07254 2.55891e-14)
(0.471348 -0.924235 -8.7952e-14)
(0.551938 -0.919264 -3.67497e-14)
(0.649686 -0.899107 -6.40793e-15)
(0.727017 -0.835202 3.32959e-14)
(0.775807 -0.742982 1.24126e-13)
(0.805606 -0.643457 -2.48476e-14)
(0.812834 -0.543394 -5.84085e-14)
(0.796915 -0.447001 1.00419e-14)
(0.766898 -0.360391 -4.85535e-14)
(0.72768 -0.286629 1.1461e-14)
(0.680301 -0.225148 2.21078e-14)
(0.631642 -0.176054 3.43737e-14)
(0.583528 -0.137655 1.15312e-14)
(0.538223 -0.107965 -1.42383e-14)
(0.49602 -0.0849641 1.53688e-14)
(0.458025 -0.0669933 1.68597e-14)
(0.423496 -0.0525695 1.12456e-14)
(0.391577 -0.0403379 1.90936e-15)
(0.361193 -0.0290767 -7.35367e-15)
(0.333813 -0.017775 4.17691e-15)
(0.309717 -0.00697534 1.96292e-15)
(0.28696 0.00185873 -1.30028e-15)
(0.266511 0.00855949 1.03767e-17)
(0.248933 0.0139751 6.85925e-16)
(0.234292 0.018419 -7.66664e-16)
(0.223058 0.0229952 -4.83369e-15)
(0.218829 0.029505 1.66155e-15)
(0.21757 0.0353236 1.15957e-14)
(0.219774 0.0407772 8.76183e-16)
(0.229184 0.0502213 -6.36758e-15)
(0.40099 -1.00255 2.61691e-15)
(0.436721 -0.913422 1.97411e-14)
(0.528007 -0.905811 6.2464e-14)
(0.616757 -0.875895 -1.02066e-13)
(0.687753 -0.813636 -3.70544e-14)
(0.733819 -0.726464 -2.19149e-14)
(0.763415 -0.633365 1.06352e-13)
(0.773239 -0.540101 -3.61906e-14)
(0.762336 -0.449692 -1.31657e-14)
(0.738505 -0.367722 1.3547e-14)
(0.705227 -0.296743 1.61223e-14)
(0.663204 -0.236216 1.32137e-14)
(0.619043 -0.186837 -6.01838e-14)
(0.574209 -0.147438 -2.34286e-14)
(0.530986 -0.116452 2.79344e-14)
(0.490118 -0.0920811 1.73051e-15)
(0.452885 -0.0728252 2.54431e-14)
(0.418539 -0.0572211 -5.27136e-15)
(0.386506 -0.0439704 -3.49872e-16)
(0.35587 -0.0319503 1.37666e-14)
(0.328398 -0.0204055 -8.75232e-15)
(0.304523 -0.00961225 -2.47856e-15)
(0.282282 -0.000559349 5.75659e-16)
(0.262304 0.00658281 -5.75014e-16)
(0.245066 0.0124634 -2.09775e-16)
(0.230713 0.0174186 9.52372e-16)
(0.219594 0.0223418 -3.45814e-15)
(0.214627 0.0255851 1.00566e-15)
(0.213969 0.0296103 8.24595e-15)
(0.216285 0.0341275 1.29106e-15)
(0.226265 0.0399535 8.38196e-15)
(0.359527 -0.962548 6.7122e-15)
(0.410861 -0.903524 8.98482e-14)
(0.501751 -0.893509 1.31404e-13)
(0.57837 -0.839235 -3.11265e-14)
(0.644585 -0.778396 -7.06675e-14)
(0.688911 -0.699568 -4.81073e-14)
(0.719375 -0.615441 -8.74735e-14)
(0.73232 -0.530012 2.40934e-16)
(0.726362 -0.445894 -3.58132e-14)
(0.708609 -0.368734 5.51227e-14)
(0.681197 -0.300639 1.72821e-14)
(0.644783 -0.241222 -2.6512e-14)
(0.605406 -0.19162 -6.27175e-15)
(0.564228 -0.151077 -1.97178e-14)
(0.523581 -0.118472 2.62739e-15)
(0.484426 -0.0923779 -1.17564e-14)
(0.44821 -0.0715417 -2.44894e-14)
(0.414359 -0.0546014 1.03086e-14)
(0.382406 -0.0403714 -1.72541e-14)
(0.351663 -0.0278064 -5.7364e-15)
(0.324229 -0.0162667 2.74017e-15)
(0.300509 -0.00575858 9.46357e-16)
(0.278632 0.00307482 6.68992e-17)
(0.259014 0.0101127 5.07124e-17)
(0.242008 0.0157855 1.74326e-16)
(0.227856 0.0206658 -1.51739e-16)
(0.216812 0.0246992 5.09214e-15)
(0.211294 0.0306402 -4.36624e-15)
(0.211351 0.0369879 -1.75719e-14)
(0.214074 0.0440781 -1.18216e-15)
(0.224249 0.0527023 -5.32136e-15)
(0.280344 -1.0475 1.11262e-13)
(0.321921 -0.912494 6.57097e-14)
(0.382838 -0.872751 -1.53723e-13)
(0.467616 -0.860148 -9.28094e-14)
(0.544698 -0.814941 -3.64059e-14)
(0.601242 -0.740132 4.87612e-14)
(0.643673 -0.665199 5.91235e-14)
(0.675071 -0.590475 1.72154e-14)
(0.690942 -0.513998 5.1381e-15)
(0.689662 -0.437253 -2.08725e-14)
(0.677628 -0.365863 -7.8321e-14)
(0.655659 -0.301626 9.41386e-15)
(0.624655 -0.244567 2.21782e-14)
(0.590025 -0.195997 1.49213e-14)
(0.552391 -0.15542 4.1288e-14)
(0.514517 -0.122209 -2.19277e-14)
(0.477289 -0.09521 -1.65839e-14)
(0.442238 -0.0734032 -9.45565e-15)
(0.40898 -0.0555507 -2.85617e-15)
(0.377288 -0.0405316 1.58347e-14)
(0.346668 -0.027417 9.09754e-15)
(0.319432 -0.0156754 9.34171e-15)
(0.29599 -0.00522823 2.37723e-15)
(0.274539 0.00359877 -5.63462e-16)
(0.255311 0.0107204 1.69852e-16)
(0.238603 0.0165425 -8.86622e-17)
(0.224668 0.0215065 -4.8769e-16)
(0.213756 0.0261727 6.73754e-16)
(0.207411 0.0304845 -7.70756e-16)
(0.208128 0.0361022 9.37823e-15)
(0.211244 0.0424482 1.5162e-15)
(0.221679 0.0501921 -1.70963e-14)
(0.287486 -0.857087 1.20575e-13)
(0.355389 -0.836579 1.67986e-14)
(0.433285 -0.814124 -2.65227e-14)
(0.505843 -0.77587 -9.10825e-14)
(0.564822 -0.713785 -2.87447e-14)
(0.601295 -0.632337 6.38502e-14)
(0.632181 -0.561805 6.22612e-14)
(0.650186 -0.493311 1.03494e-13)
(0.652821 -0.424087 8.98014e-14)
(0.645913 -0.358931 -1.72383e-14)
(0.629321 -0.299193 -8.33784e-15)
(0.603375 -0.244957 1.59004e-14)
(0.573353 -0.19792 2.86865e-15)
(0.539456 -0.15772 5.9656e-15)
(0.504456 -0.124148 2.41867e-14)
(0.469332 -0.096418 -1.77232e-15)
(0.435679 -0.0736983 -9.92952e-15)
(0.403234 -0.0549207 -4.92257e-15)
(0.371988 -0.0390949 2.97984e-15)
(0.341642 -0.0254102 1.07685e-15)
(0.314781 -0.013394 -1.37049e-15)
(0.291668 -0.0029352 -3.85711e-15)
(0.270625 0.00588585 7.21743e-16)
(0.251779 0.0130597 -4.70555e-17)
(0.23535 0.0189359 7.24987e-18)
(0.221622 0.0239712 1.40039e-16)
(0.210802 0.0284683 -2.40513e-16)
(0.203605 0.0336168 -3.50721e-15)
(0.2049 0.0403688 -6.16979e-15)
(0.208301 0.0481048 6.23506e-15)
(0.218802 0.0574497 1.76113e-14)
(0.323925 -0.78349 2.10491e-14)
(0.403301 -0.77402 7.97082e-14)
(0.468231 -0.726992 -7.99247e-14)
(0.524505 -0.676589 -1.35435e-14)
(0.563362 -0.60493 1.15378e-14)
(0.592926 -0.534623 -9.09693e-14)
(0.611979 -0.470972 -1.42819e-13)
(0.617432 -0.408203 1.37099e-14)
(0.614654 -0.348997 2.34453e-14)
(0.602626 -0.293961 -1.5735e-14)
(0.581339 -0.243061 -1.32948e-14)
(0.555614 -0.198053 -3.12467e-14)
(0.525443 -0.158838 2.95062e-14)
(0.493409 -0.125475 2.38464e-14)
(0.460485 -0.0974418 7.56173e-15)
(0.428337 -0.0741938 2.30735e-14)
(0.396868 -0.0548164 1.99989e-14)
(0.366111 -0.0384341 9.49891e-16)
(0.336268 -0.0243022 -2.60236e-14)
(0.30989 -0.0120584 -5.22769e-15)
(0.287206 -0.00153933 -6.68109e-16)
(0.266593 0.00731298 -2.6073e-15)
(0.248148 0.014585 3.14064e-16)
(0.232017 0.0205644 3.8942e-17)
(0.218498 0.0256889 -1.08098e-16)
(0.207759 0.0303954 1.51349e-17)
(0.200023 0.0351038 1.09665e-15)
(0.201506 0.0417305 1.65962e-15)
(0.2052 0.0495193 7.41243e-15)
(0.2158 0.0590049 -3.81928e-15)
(0.365248 -0.709446 -6.81902e-14)
(0.438426 -0.690909 6.29198e-14)
(0.485925 -0.631044 5.12893e-14)
(0.527189 -0.576524 8.58646e-14)
(0.55592 -0.509686 6.76778e-14)
(0.576092 -0.448536 -5.85657e-14)
(0.583946 -0.390819 -5.2096e-14)
(0.584483 -0.337091 4.00945e-14)
(0.576425 -0.286665 9.52151e-15)
(0.559125 -0.239124 3.7309e-15)
(0.537327 -0.19644 -3.81938e-15)
(0.510638 -0.158553 -6.33939e-14)
(0.481511 -0.125743 -2.84698e-14)
(0.450866 -0.0977157 -1.01521e-14)
(0.420384 -0.0741474 -2.30786e-14)
(0.389959 -0.0543006 -1.03995e-14)
(0.359828 -0.0374315 1.60936e-15)
(0.330622 -0.022909 1.53915e-14)
(0.30484 -0.0104067 3.90483e-16)
(0.282662 0.000248317 5.37381e-15)
(0.262513 0.00919915 2.85801e-15)
(0.244487 0.0166047 3.64514e-17)
(0.228668 0.0227085 -1.95542e-16)
(0.215359 0.0279428 1.87446e-16)
(0.204709 0.0327087 3.65218e-18)
(0.196884 0.0375573 2.41856e-16)
(0.197863 0.04466 1.67797e-15)
(0.201837 0.0532357 -5.12559e-15)
(0.212379 0.0637052 -6.42082e-15)
(0.395472 -0.623834 8.82219e-14)
(0.457923 -0.601155 1.65308e-14)
(0.490349 -0.539242 -5.33332e-14)
(0.521916 -0.486426 3.5483e-14)
(0.541935 -0.427358 9.24029e-14)
(0.551593 -0.37236 1.48338e-14)
(0.555023 -0.32311 -6.09958e-14)
(0.550334 -0.277035 2.81504e-14)
(0.536784 -0.233115 1.25655e-14)
(0.51857 -0.193031 -1.83067e-15)
(0.495225 -0.156859 1.20977e-15)
(0.468814 -0.124973 -4.16276e-14)
(0.440449 -0.0973154 4.0545e-15)
(0.411724 -0.0737157 2.10727e-15)
(0.382468 -0.0536151 -4.58178e-16)
(0.353167 -0.0364236 4.08394e-16)
(0.324649 -0.0216343 5.84805e-15)
(0.29957 -0.00894063 1.06896e-14)
(0.277985 0.00183454 -4.24252e-15)
(0.25834 0.0108973 -2.43529e-15)
(0.240757 0.0184353 6.55234e-16)
(0.225265 0.0246787 -5.83165e-17)
(0.212185 0.0300417 2.10781e-16)
(0.201655 0.034911 -6.65338e-16)
(0.193832 0.0399288 3.18566e-15)
(0.194011 0.0468935 -3.01289e-15)
(0.198286 0.0558297 -3.51349e-15)
(0.208725 0.0668377 1.3407e-14)
(0.412036 -0.536196 -1.51487e-14)
(0.465779 -0.517821 2.91363e-14)
(0.4889 -0.458127 -1.75111e-14)
(0.509586 -0.406485 -3.05101e-14)
(0.520902 -0.354237 1.03073e-14)
(0.527042 -0.308443 3.13963e-14)
(0.525313 -0.266226 -3.88347e-14)
(0.514882 -0.225675 8.67975e-15)
(0.499811 -0.188283 2.45627e-14)
(0.479493 -0.154024 2.39103e-14)
(0.455661 -0.123299 2.17377e-14)
(0.429483 -0.0962187 9.88736e-15)
(0.402474 -0.0727954 5.5516e-15)
(0.374512 -0.0526163 6.65826e-15)
(0.346136 -0.0352437 7.33853e-15)
(0.318418 -0.0202532 -8.34917e-15)
(0.294113 -0.00739195 -9.71024e-15)
(0.273186 0.00351084 -1.78094e-16)
(0.254082 0.012691 -1.3694e-15)
(0.236956 0.020385 -3.58147e-16)
(0.221821 0.0267912 4.3823e-17)
(0.208974 0.0323061 -6.11491e-17)
(0.198562 0.0373165 -1.16488e-15)
(0.190731 0.042464 1.71815e-15)
(0.190027 0.0495256 5.46193e-15)
(0.194531 0.0590394 -6.27616e-15)
(0.204743 0.0708108 -5.88426e-15)
(0.424902 -0.46632 -3.55838e-14)
(0.461768 -0.434905 -5.10513e-14)
(0.479485 -0.385043 -2.2404e-14)
(0.491753 -0.337334 -1.80351e-14)
(0.499846 -0.293691 -1.4678e-15)
(0.500754 -0.254439 1.88864e-15)
(0.49332 -0.216983 -3.86489e-14)
(0.481012 -0.182186 6.26879e-15)
(0.463423 -0.14997 -1.96407e-14)
(0.44207 -0.120646 -1.38762e-14)
(0.418043 -0.0943973 2.39237e-14)
(0.392765 -0.0713658 -1.32124e-14)
(0.366164 -0.0512871 -2.29087e-14)
(0.338776 -0.0338659 2.32418e-15)
(0.311923 -0.0187793 1.06009e-14)
(0.288515 -0.0058263 1.68146e-15)
(0.26827 0.00516773 -2.43404e-15)
(0.249741 0.0144473 3.70274e-16)
(0.233091 0.0222861 1.79934e-16)
(0.218326 0.0288615 -1.71618e-16)
(0.205718 0.0345458 -1.65458e-16)
(0.19543 0.039721 8.72284e-16)
(0.187578 0.0450332 -8.20348e-16)
(0.185925 0.0520301 6.92328e-16)
(0.19058 0.062003 -9.88248e-16)
(0.200482 0.0744007 -7.5491e-15)
(0.385845 -0.41979 -1.80139e-14)
(0.435277 -0.40897 -5.41888e-14)
(0.44989 -0.360055 -1.05527e-14)
(0.4636 -0.31971 2.28325e-15)
(0.473809 -0.279386 -2.67832e-14)
(0.477345 -0.242505 4.79632e-14)
(0.472524 -0.207721 5.0788e-14)
(0.462827 -0.175382 -7.60599e-16)
(0.447517 -0.14511 1.53073e-14)
(0.428434 -0.117262 -1.12014e-14)
(0.406363 -0.0919752 1.12697e-14)
(0.382764 -0.0694849 2.77826e-14)
(0.357551 -0.0496412 1.01257e-15)
(0.331191 -0.0322602 -1.84823e-14)
(0.305251 -0.017151 -5.3827e-15)
(0.28273 -0.00416214 5.28746e-15)
(0.26322 0.0068792 1.56366e-15)
(0.245284 0.0162508 3.49836e-15)
(0.229124 0.0242223 -1.31001e-15)
(0.214745 0.0309767 -4.25469e-17)
(0.202386 0.0368445 9.33072e-17)
(0.192224 0.0422137 -2.63882e-16)
(0.184348 0.0476976 -4.77878e-16)
(0.181701 0.0546402 5.8277e-16)
(0.186448 0.0651224 1.05659e-14)
(0.195924 0.0781802 1.09236e-14)
(0.397429 -0.365646 -4.17679e-14)
(0.429715 -0.344447 4.69214e-15)
(0.436859 -0.300809 3.84559e-14)
(0.448554 -0.264867 2.70275e-14)
(0.454269 -0.230089 -1.47781e-14)
(0.451926 -0.197686 1.61705e-14)
(0.444763 -0.167723 -1.23496e-14)
(0.431678 -0.139408 1.48688e-16)
(0.41467 -0.113086 1.62191e-14)
(0.394471 -0.0888888 -1.19861e-14)
(0.372457 -0.0670823 1.37283e-14)
(0.348581 -0.0476318 9.76692e-15)
(0.323288 -0.0304315 6.53015e-15)
(0.298337 -0.0153871 -5.66708e-15)
(0.276756 -0.00239459 -4.56333e-15)
(0.25801 0.00866636 -1.11123e-15)
(0.240681 0.0180804 -2.41708e-15)
(0.22503 0.0261584 1.67923e-16)
(0.211046 0.0330761 6.6026e-16)
(0.198955 0.0391382 -9.50121e-19)
(0.188923 0.0447065 -1.34804e-16)
(0.181026 0.0503815 5.33121e-16)
(0.177345 0.0572041 -1.26265e-15)
(0.1821 0.0681668 -6.07421e-15)
(0.191055 0.0818317 -5.25627e-15)
(0.36252 -0.328316 -6.69917e-14)
(0.406973 -0.323711 -3.67675e-14)
(0.412929 -0.281693 1.30027e-14)
(0.424797 -0.250272 -9.75111e-15)
(0.431893 -0.217837 -3.13145e-14)
(0.431656 -0.187246 -4.46661e-14)
(0.426678 -0.159379 1.90549e-14)
(0.415809 -0.132964 -1.8134e-14)
(0.40075 -0.108166 -9.2695e-15)
(0.382321 -0.0851462 -1.73216e-14)
(0.36188 -0.0641749 -3.16969e-14)
(0.339292 -0.0452331 -9.61651e-15)
(0.315067 -0.0283223 9.59052e-15)
(0.291088 -0.0134292 8.16031e-15)
(0.270539 -0.000509843 2.6187e-17)
(0.252587 0.0105367 2.67869e-15)
(0.235899 0.0199764 -1.46458e-15)
(0.220774 0.0281433 -3.03085e-17)
(0.207202 0.0352072 3.09094e-16)
(0.195388 0.0414626 -5.63268e-17)
(0.185504 0.0472382 3.66301e-17)
(0.177586 0.0531195 -3.43662e-16)
(0.172856 0.0597934 2.27247e-16)
(0.177557 0.0712288 8.33662e-16)
(0.185911 0.085476 -2.8914e-15)
(0.372452 -0.287996 -8.06595e-14)
(0.396852 -0.270602 -1.42534e-14)
(0.401289 -0.234052 6.81764e-15)
(0.410399 -0.205241 3.97636e-14)
(0.412042 -0.176596 1.09506e-14)
(0.409095 -0.15068 -1.57821e-14)
(0.400345 -0.126047 2.58851e-14)
(0.387154 -0.102714 3.89764e-16)
(0.370283 -0.0808822 1.89926e-14)
(0.351193 -0.0608195 8.52199e-15)
(0.329816 -0.0425123 2.35305e-15)
(0.306629 -0.0259885 1.67457e-15)
(0.28367 -0.01131 -4.81052e-15)
(0.264096 0.00149588 -1.80406e-15)
(0.246988 0.0125002 8.89615e-16)
(0.230972 0.0219417 5.38872e-16)
(0.216381 0.0301647 3.88712e-16)
(0.203227 0.0373554 -2.99588e-16)
(0.191703 0.0437875 -5.98965e-17)
(0.181971 0.0497699 1.96617e-16)
(0.173987 0.0558267 -5.40946e-16)
(0.168357 0.0623757 -1.30659e-15)
(0.172884 0.0742425 8.16117e-16)
(0.180497 0.0889744 2.39283e-15)
(0.346602 -0.262854 2.25564e-14)
(0.372012 -0.248094 -1.51332e-15)
(0.380272 -0.218175 2.30462e-14)
(0.390192 -0.192961 -1.80904e-14)
(0.393097 -0.166371 1.04722e-14)
(0.391998 -0.141933 -1.17241e-14)
(0.385175 -0.118762 7.70318e-15)
(0.373652 -0.0968058 1.05907e-14)
(0.358249 -0.0761758 -3.32642e-15)
(0.340423 -0.0570589 1.28205e-14)
(0.320135 -0.039456 -7.29467e-15)
(0.297944 -0.0234227 -7.73126e-15)
(0.276014 -0.00905511 6.17246e-15)
(0.257461 0.00361163 -2.45701e-15)
(0.24123 0.0145649 -5.09406e-15)
(0.225901 0.0239912 2.19255e-16)
(0.211853 0.03225 2.9323e-16)
(0.19912 0.0395446 -3.59311e-16)
(0.187889 0.0461366 1.9479e-16)
(0.178301 0.0523177 -5.22499e-17)
(0.170285 0.0585384 -1.57813e-16)
(0.164222 0.0651533 6.92594e-16)
(0.167948 0.0771902 -7.05062e-16)
(0.174802 0.0923372 -2.74164e-16)
(0.317996 -0.234926 1.64329e-14)
(0.352842 -0.229958 -5.75956e-15)
(0.359681 -0.201353 2.80641e-15)
(0.370404 -0.18049 6.11432e-15)
(0.374733 -0.156253 -9.97653e-15)
(0.375398 -0.133163 1.21362e-14)
(0.370365 -0.111343 -3.79925e-15)
(0.360365 -0.0906369 4.48737e-15)
(0.34635 -0.0711412 -1.60205e-14)
(0.32966 -0.0529818 -3.05911e-15)
(0.310444 -0.0361288 1.21433e-14)
(0.289158 -0.0206309 -6.19439e-15)
(0.268198 -0.00662134 -6.71469e-15)
(0.25068 0.00585394 3.17807e-15)
(0.235331 0.0167233 3.13098e-15)
(0.220695 0.0261166 1.72674e-15)
(0.207199 0.0343925 -1.07838e-15)
(0.194884 0.0417629 1.73835e-16)
(0.18394 0.0484888 4.13246e-17)
(0.174497 0.0548459 1.53999e-16)
(0.166509 0.0612325 1.31322e-16)
(0.160261 0.0680525 1.09414e-16)
(0.162663 0.079995 9.60694e-17)
(0.168806 0.095528 -5.85502e-16)
(0.322721 -0.201456 -5.18201e-15)
(0.347978 -0.191566 1.16075e-14)
(0.351324 -0.166979 5.60428e-15)
(0.356928 -0.145978 -2.15963e-14)
(0.358908 -0.124133 -1.9505e-14)
(0.355512 -0.103549 -1.12943e-14)
(0.347136 -0.084093 6.03079e-15)
(0.334517 -0.0657248 1.77968e-14)
(0.318893 -0.0485424 -1.13811e-14)
(0.300677 -0.0324941 -2.12679e-15)
(0.280258 -0.0176191 6.33956e-15)
(0.260241 -0.00403855 -1.30716e-15)
(0.243712 0.00819533 -1.90005e-16)
(0.229238 0.0189567 4.60901e-16)
(0.215318 0.0283058 2.57912e-15)
(0.202377 0.0365893 -5.0916e-16)
(0.190481 0.0440133 -6.5146e-16)
(0.179831 0.0508497 -6.69891e-17)
(0.170534 0.057361 3.81793e-17)
(0.162569 0.0639046 3.26722e-16)
(0.156136 0.0709256 -9.7598e-17)
(0.157228 0.082709 1.43524e-16)
(0.162596 0.0985595 2.24768e-16)
(0.297419 -0.179893 -4.33081e-14)
(0.330953 -0.176815 -2.36625e-14)
(0.33441 -0.15338 3.15127e-16)
(0.340089 -0.135386 -1.66352e-15)
(0.342948 -0.115322 -2.59917e-15)
(0.340875 -0.0957252 1.02845e-14)
(0.333952 -0.0774134 -6.6319e-16)
(0.322603 -0.0601299 -3.46983e-15)
(0.308075 -0.0438814 -2.54665e-15)
(0.290772 -0.0286334 2.06024e-15)
(0.271196 -0.0144173 3.86987e-15)
(0.252063 -0.00131992 3.02316e-15)
(0.23651 0.0106367 2.67818e-15)
(0.222922 0.0212682 1.41751e-15)
(0.209709 0.0305519 1.21101e-15)
(0.197371 0.0388218 1.65774e-16)
(0.185904 0.0462771 2.66655e-17)
(0.175543 0.0531925 5.73462e-17)
(0.1664 0.0598293 3.51942e-16)
(0.158466 0.0665167 1.26974e-16)
(0.151839 0.0736997 -4.10734e-16)
(0.151623 0.085247 -1.94382e-17)
(0.156162 0.101382 1.20738e-16)
(0.30364 -0.153815 -1.27519e-15)
(0.324861 -0.145831 7.49346e-15)
(0.322791 -0.123842 1.61386e-14)
(0.327368 -0.106245 -5.1445e-15)
(0.326515 -0.0878204 9.11851e-15)
(0.32087 -0.0706749 7.22056e-15)
(0.310843 -0.054421 3.2502e-15)
(0.297401 -0.0390424 1.1104e-15)
(0.280942 -0.0245976 -6.41433e-15)
(0.262109 -0.0110771 -3.76073e-15)
(0.243783 0.00149121 1.98165e-15)
(0.229124 0.0131344 9.67003e-16)
(0.216438 0.023615 -4.45711e-15)
(0.203935 0.0328176 -3.96491e-15)
(0.19218 0.0410644 1.23317e-15)
(0.181157 0.0485374 -3.07622e-16)
(0.171098 0.0555115 1.78182e-16)
(0.162094 0.0622473 -7.42911e-16)
(0.15417 0.0690549 4.59971e-17)
(0.147369 0.0763762 1.27879e-15)
(0.145863 0.0875993 -3.09627e-16)
(0.149558 0.103974 -1.89416e-17)
(0.284734 -0.138768 -3.51509e-15)
(0.306834 -0.131571 -1.14788e-14)
(0.307191 -0.112395 -2.62179e-14)
(0.312392 -0.0970041 7.6767e-15)
(0.312346 -0.0801403 -7.7525e-15)
(0.307937 -0.0639709 4.82663e-15)
(0.299214 -0.0486066 -1.22722e-14)
(0.286842 -0.0340973 -6.42742e-15)
(0.271184 -0.0204475 1.71486e-14)
(0.25303 -0.00761884 -9.68618e-15)
(0.235419 0.00440966 -4.06112e-15)
(0.221647 0.0157053 -1.14304e-15)
(0.20978 0.0259891 -1.57138e-15)
(0.198038 0.0350927 3.54603e-15)
(0.186844 0.0432919 1.14597e-15)
(0.176257 0.0507604 5.65401e-16)
(0.166492 0.0577732 -4.24504e-17)
(0.157637 0.0645817 6.59574e-16)
(0.149703 0.0714701 -3.97703e-16)
(0.14273 0.0788937 -1.41632e-15)
(0.139973 0.0897252 1.14155e-16)
(0.142774 0.106271 6.40792e-16)
(0.263891 -0.122723 3.89895e-15)
(0.292018 -0.119336 1.42276e-14)
(0.29272 -0.101377 7.76727e-15)
(0.297957 -0.0881029 -5.8119e-15)
(0.29863 -0.0726317 -1.618e-15)
(0.295297 -0.057294 -1.2054e-14)
(0.287556 -0.0427909 1.51773e-14)
(0.276156 -0.0291169 3.31827e-15)
(0.261296 -0.0161941 -4.49218e-16)
(0.243866 -0.00402333 1.19683e-14)
(0.226974 0.00744107 1.70161e-15)
(0.214047 0.0183521 -9.83707e-16)
(0.202936 0.0283843 -6.56166e-16)
(0.191921 0.0373462 9.31446e-16)
(0.181323 0.0454775 6.62679e-17)
(0.171177 0.0529295 -3.34224e-16)
(0.161682 0.0599503 -1.99618e-16)
(0.152978 0.06681 -9.42846e-17)
(0.145062 0.0737706 -6.02987e-16)
(0.137899 0.081252 -1.74257e-15)
(0.133977 0.0916243 -1.13255e-15)
(0.135848 0.108236 -9.39365e-16)
(0.268158 -0.101897 -5.55187e-15)
(0.285181 -0.0948365 1.17253e-15)
(0.283116 -0.0786504 1.75992e-14)
(0.285229 -0.0650563 -7.48335e-15)
(0.282777 -0.0505869 -8.29057e-16)
(0.275925 -0.0369844 7.31321e-15)
(0.265521 -0.0240607 -1.69421e-15)
(0.251494 -0.0117875 -3.0302e-15)
(0.234785 -0.000265594 1.55536e-15)
(0.218583 0.0106053 -5.26415e-16)
(0.206375 0.0210671 -4.20054e-15)
(0.195976 0.0307944 1.9326e-15)
(0.185616 0.0395598 -1.94872e-16)
(0.175581 0.0475885 -3.59115e-16)
(0.165871 0.0550008 -9.35345e-17)
(0.156672 0.0620183 -5.73805e-17)
(0.148122 0.0689005 -3.21325e-16)
(0.140215 0.0758981 1.02217e-15)
(0.132879 0.0833996 2.90323e-15)
(0.127843 0.0932286 1.99036e-15)
(0.12881 0.109853 1.10527e-15)
(0.252006 -0.0905212 1.78528e-14)
(0.269355 -0.0837823 -1.21199e-15)
(0.269673 -0.0693698 -1.40936e-14)
(0.272467 -0.0573582 9.56651e-15)
(0.270434 -0.0441654 1.51063e-14)
(0.264378 -0.0313287 -6.4488e-15)
(0.254911 -0.0190012 2.62064e-15)
(0.241771 -0.00732749 -2.33898e-16)
(0.225744 0.00356249 -1.37348e-14)
(0.210184 0.0138179 3.21663e-15)
(0.19863 0.023804 3.70083e-15)
(0.188876 0.0331843 -5.20604e-16)
(0.179135 0.0417079 2.32539e-16)
(0.169647 0.049599 -5.87607e-16)
(0.160358 0.0569455 -7.10038e-16)
(0.151458 0.0639458 1.56525e-16)
(0.143052 0.0708282 -1.62231e-16)
(0.135176 0.0778365 5.2971e-16)
(0.127692 0.0853323 -1.15045e-15)
(0.121619 0.0945454 -2.36577e-15)
(0.121679 0.111057 2.84449e-16)
(0.234396 -0.0787657 4.53951e-15)
(0.255908 -0.0739017 1.79833e-14)
(0.256632 -0.0602627 -7.45197e-16)
(0.259676 -0.0498133 -2.29488e-14)
(0.258233 -0.037878 -1.00754e-14)
(0.252916 -0.0257342 6.76954e-15)
(0.244303 -0.0140282 -4.99989e-15)
(0.232046 -0.0029523 -1.20656e-15)
(0.216729 0.0073204 -3.96364e-15)
(0.201813 0.0169792 -2.51755e-15)
(0.190869 0.0264898 2.98786e-15)
(0.181718 0.0355124 -2.13299e-15)
(0.172514 0.0437622 -3.01571e-15)
(0.163543 0.0514884 -5.0511e-16)
(0.154674 0.0587474 7.06364e-16)
(0.146077 0.0657112 -5.51895e-16)
(0.137819 0.0725623 -1.73544e-16)
(0.129964 0.0795487 -5.54168e-16)
(0.122345 0.0869931 1.51619e-15)
(0.115334 0.0955308 3.61221e-15)
(0.11454 0.11184 -1.47236e-16)
(0.234817 -0.0610493 3.9197e-15)
(0.249985 -0.0542638 -1.14469e-14)
(0.246854 -0.0420572 3.6514e-15)
(0.246278 -0.0316013 2.27733e-16)
(0.241427 -0.0201948 -1.02875e-14)
(0.233505 -0.00914194 9.24134e-15)
(0.222108 0.00130984 -8.11524e-16)
(0.207616 0.0109641 8.12485e-15)
(0.193419 0.0200481 -2.02329e-16)
(0.183077 0.0291036 3.32233e-15)
(0.174501 0.0377724 5.08585e-15)
(0.165797 0.0457283 2.36913e-15)
(0.157298 0.0532551 1.30534e-15)
(0.148826 0.060395 -2.62205e-16)
(0.140517 0.0672928 6.51775e-16)
(0.13243 0.0741025 4.27065e-16)
(0.12459 0.0810229 -1.10187e-16)
(0.116823 0.0883285 -1.03375e-15)
(0.109214 0.0963526 -3.32402e-15)
(0.107445 0.112221 -1.15473e-15)
(0.218937 -0.0519246 7.61943e-16)
(0.23738 -0.0463988 2.28988e-15)
(0.235359 -0.0346618 1.1182e-14)
(0.23472 -0.0252409 1.62648e-14)
(0.2301 -0.014849 -1.55326e-15)
(0.222763 -0.00444164 -1.00285e-14)
(0.212131 0.00536052 -1.08174e-15)
(0.198432 0.0143741 -1.00494e-14)
(0.184974 0.022928 -5.13707e-16)
(0.175273 0.0315903 3.59574e-16)
(0.167212 0.0399237 -9.46577e-16)
(0.158999 0.0475904 -2.29206e-15)
(0.150924 0.0548953 -1.69286e-15)
(0.142818 0.0618831 3.20854e-16)
(0.134787 0.0686782 -3.24086e-16)
(0.126869 0.0753999 -3.84106e-16)
(0.119073 0.0822307 5.33455e-16)
(0.111207 0.0893461 -3.93543e-16)
(0.103312 0.09709 2.32267e-15)
(0.100284 0.112098 2.31488e-15)
(0.218377 -0.0364907 1.85002e-14)
(0.228852 -0.0295642 4.12237e-15)
(0.222524 -0.0189843 -1.00164e-14)
(0.218916 -0.00965498 -1.01165e-14)
(0.21215 5.46888e-05 6.35105e-15)
(0.202136 0.00910819 1.22672e-15)
(0.189204 0.017509 2.83316e-15)
(0.176539 0.0256043 -1.73417e-15)
(0.167494 0.0339284 -1.70623e-15)
(0.159926 0.0419627 -1.08839e-15)
(0.152144 0.0493448 -1.78382e-16)
(0.144439 0.0564045 4.78746e-16)
(0.136657 0.0632033 -7.13879e-16)
(0.1289 0.0698638 4.41058e-16)
(0.121147 0.0764622 -2.59467e-16)
(0.113404 0.0831578 -3.07602e-16)
(0.105502 0.0900763 9.31525e-16)
(0.0974178 0.0975806 -1.52202e-15)
(0.0931271 0.111492 -8.91404e-16)
(0.205535 -0.0295537 -2.01603e-14)
(0.2161 -0.0228771 -8.61525e-15)
(0.211257 -0.0130666 6.5467e-16)
(0.208116 -0.00458476 6.43503e-15)
(0.201598 0.00416724 8.90493e-15)
(0.192124 0.0125529 2.07605e-15)
(0.179963 0.0204284 -3.99994e-15)
(0.168085 0.0280853 6.98176e-16)
(0.159683 0.0360926 -3.06498e-15)
(0.152611 0.0438478 2.21122e-15)
(0.145217 0.050947 -5.64047e-17)
(0.137868 0.0577608 -6.32916e-17)
(0.130395 0.0643493 5.41519e-16)
(0.122897 0.0708418 3.04074e-16)
(0.115312 0.077273 5.96573e-16)
(0.107635 0.0837833 -1.48144e-15)
(0.0997207 0.0904748 -1.40511e-15)
(0.0914816 0.097681 -3.91966e-16)
(0.0861067 0.110446 -5.29578e-16)
(0.191874 -0.0228992 4.83529e-17)
(0.204507 -0.0168336 -3.62729e-15)
(0.20063 -0.00759249 4.24869e-15)
(0.197503 0.000116198 2.38345e-15)
(0.191238 0.0080529 6.36109e-15)
(0.182229 0.0158189 6.68799e-15)
(0.170697 0.0231102 2.05683e-16)
(0.159523 0.0303039 -4.81949e-15)
(0.151782 0.0380188 2.9988e-16)
(0.145222 0.0455354 -1.19443e-15)
(0.138244 0.0523834 3.90687e-16)
(0.131235 0.0589483 7.5456e-16)
(0.124055 0.0653091 -6.52639e-16)
(0.116792 0.0715914 -4.25914e-16)
(0.109396 0.0778329 2.01439e-16)
(0.101797 0.0841194 6.31298e-18)
(0.0938875 0.0905462 1.90097e-15)
(0.0855418 0.0974013 3.7791e-15)
(0.0792496 0.108963 -3.39988e-15)
(0.187905 -0.0102093 -7.03578e-15)
(0.194134 -0.00349148 -9.93128e-15)
(0.186498 0.00458433 6.78894e-15)
(0.181029 0.0117351 3.38717e-15)
(0.172452 0.0188584 -3.5234e-15)
(0.161408 0.0255212 -2.52333e-15)