/*--------------------------------*- C++ -*----------------------------------*\
| =========                 |                                                 |
| \\      /  F ield         | OpenFOAM: The Open Source CFD Toolbox           |
|  \\    /   O peration     | Version:  2506                                  |
|   \\  /    A nd           | Website:  www.openfoam.com                      |
|    \\/     M anipulation  |                                                 |
\*---------------------------------------------------------------------------*/
FoamFile
{
    version     2.0;
    format      ascii;
    arch        "LSB;label=32;scalar=64";
    class       surfaceScalarField;
    location    "50.00229049822";
    object      ddtCorrDdt0(phi);
}
// * * * * * * * * * * * * * * * * * * * * * * * * * * * * * * * * * * * * * //

dimensions      [0 3 -2 0 0 0 0];

oriented        oriented;

internalField   nonuniform List<scalar> 
19160
(
0.000296028
0.000674469
0.000609407
0.000669362
0.000318399
0.00035607
0.000950222
0.000680745
0.000652013
0.000335748
0.000313061
4.30095e-05
0.00133633
0.000708259
0.00101406
0.0003187
0.000639779
9.02902e-06
0.000300075
-0.000257065
0.00178672
0.000746115
0.00142135
0.000300969
0.000992521
-3.40419e-05
0.000611809
-0.000302705
0.000276456
-0.000533521
0.00232106
0.000791468
0.00189125
0.000276214
0.00138744
-9.39547e-05
0.000947234
-0.000369467
0.000560902
-0.000587151
0.000243958
-0.000777478
0.00296047
0.000837403
0.00244319
0.000239527
0.00184085
-0.000177191
0.0013214
-0.000468126
0.000866989
-0.000675554
0.000491088
-0.000834281
0.00019828
-0.000975759
0.00373064
0.000878743
0.00309682
0.000183774
0.00237065
-0.000290272
0.00174947
-0.000605253
0.00120743
-0.000808567
0.000757845
-0.000942311
0.000403727
-0.00103973
0.000150379
-0.00112614
0.00466036
0.000907138
0.00387452
0.00010104
0.00299575
-0.000441323
0.00224757
-0.000788376
0.00159619
-0.000994012
0.001054
-0.00110472
0.000622112
-0.0011607
0.000303447
-0.00119279
9.62796e-05
-0.00122242
0.00577877
0.000907603
0.00480091
-1.92508e-05
0.00373657
-0.00063978
0.00283307
-0.00102682
0.00204777
-0.00123996
0.00139184
-0.00133185
0.000864416
-0.00134702
0.000466099
-0.00132335
0.000192969
-0.00128948
3.91863e-05
-0.0012616
0.00711176
0.000851381
0.00590107
-0.000192558
0.0046148
-0.000897485
0.00352473
-0.00133144
0.00257794
-0.00155699
0.00178434
-0.00163247
0.00114064
-0.00160808
0.0006465
-0.00152742
0.000294608
-0.00142499
7.59687e-05
-0.00132627
-1.9031e-05
-0.00124257
0.00868704
0.000692267
0.00719565
-0.000443197
0.00565235
-0.00123011
0.00434218
-0.00171494
0.00320372
-0.00195721
0.00224556
-0.0020182
0.00146211
-0.00195393
0.000852331
-0.00181391
0.000406814
-0.00163963
0.000112905
-0.00146192
-4.29848e-05
-0.00130231
-7.60509e-05
-0.00116652
0.0105625
0.00039608
0.00869596
-0.000808038
0.00686803
-0.00165888
0.00530484
-0.00219277
0.0039431
-0.00245432
0.00279119
-0.00250284
0.00184123
-0.00239732
0.00109276
-0.00219436
0.000534993
-0.00194209
0.000152629
-0.00167935
-7.20078e-05
-0.0014329
-0.000159424
-0.00121894
-0.000129559
-0.00103696
0.0128646
1.73556e-05
0.0104169
-0.00132484
0.00827266
-0.00221266
0.0064293
-0.00278334
0.00481452
-0.00306419
0.00343817
-0.0031013
0.00229232
-0.00295394
0.00137825
-0.00268282
0.000685662
-0.00234503
0.000197711
-0.00198717
-0.00010653
-0.00164483
-0.000253223
-0.0013391
-0.000268692
-0.00107981
-0.000177002
-0.00085996
0.0157661
-0.000244589
0.0124248
-0.00199053
0.0098716
-0.00292378
0.00772467
-0.00350804
0.00583404
-0.00380286
0.00420452
-0.00383054
0.00283164
-0.00364062
0.00172156
-0.00329725
0.000866881
-0.00286404
0.000251568
-0.00239889
-0.000147314
-0.00194639
-0.000361178
-0.00153687
-0.000423525
-0.00118427
-0.000365502
-0.000891305
-0.000216394
-0.000643565
0.0193507
-0.000125051
0.014884
-0.0027038
0.0116877
-0.00380661
0.00919255
-0.00439165
0.00701339
-0.00468739
0.00510817
-0.00470651
0.00347773
-0.00447662
0.00213818
-0.00405723
0.00108926
-0.00351963
0.000319138
-0.00293161
-0.00019458
-0.00235162
-0.000487739
-0.00181982
-0.000601224
-0.00135918
-0.000574627
-0.000975143
-0.000445658
-0.000662041
-0.000245694
-0.000397871
0.0234974
0.000498888
0.0180089
-0.00324994
0.013804
-0.00482017
0.010836
-0.0054501
0.00835557
-0.00573383
0.00616436
-0.00574358
0.00425081
-0.00547958
0.00264726
-0.00498571
0.00136689
-0.00433487
0.000407939
-0.00360843
-0.000247363
-0.00287883
-0.00063732
-0.00220204
-0.000810155
-0.00161089
-0.000814891
-0.00111891
-0.000699867
-0.000720934
-0.00050523
-0.000402505
-0.000262822
-0.000135049
0.0279425
0.00159683
0.0219082
-0.00340049
0.01639
-0.00583588
0.0126879
-0.00667205
0.00985622
-0.00695075
0.007383
-0.00695246
0.00517175
-0.00666453
0.00327189
-0.00610421
0.00171885
-0.00533766
0.000529442
-0.00445637
-0.000302466
-0.00355332
-0.000813822
-0.00270232
-0.00105935
-0.00195284
-0.00109858
-0.00132721
-0.000992555
-0.000826223
-0.000792963
-0.0004332
-0.00054022
-0.000125107
-0.00026753
0.000132481
0.0322881
0.00288395
0.0265601
-0.00305507
0.0196273
-0.00663781
0.0148401
-0.0079881
0.0115164
-0.0083322
0.00876473
-0.00833248
0.00625961
-0.00804032
0.00403914
-0.00743178
0.00217047
-0.00655583
0.000700835
-0.00550905
-0.000352876
-0.00440596
-0.00101978
-0.00334737
-0.00135838
-0.00240329
-0.00143949
-0.00161193
-0.00133962
-0.000980143
-0.00112503
-0.000494157
-0.000847583
-0.000125837
-0.000549367
0.00015673
-0.000259408
0.00039189
0.0361456
0.00386925
0.0317101
-0.00226605
0.0236337
-0.00706148
0.0174454
-0.00924308
0.0133651
-0.00983682
0.0103017
-0.00986912
0.00752596
-0.00959883
0.00497784
-0.00897902
0.00275391
-0.00801521
0.000947649
-0.00680265
-0.000385793
-0.00547613
-0.00125482
-0.00417092
-0.00171686
-0.00298889
-0.00185334
-0.00198945
-0.00175944
-0.0011921
-0.0015203
-0.000584867
-0.00120298
-0.000138764
-0.000861523
0.000186319
-0.000532026
0.000429348
-0.000238432
0.000630322
0.0393292
0.00428208
0.0369251
-0.0013457
0.028334
-0.00696629
0.0206634
-0.0102795
0.0154827
-0.0113607
0.0119839
-0.011519
0.00896807
-0.0113112
0.00611159
-0.0107326
0.00350538
-0.00973049
0.00130345
-0.00837101
-0.00037972
-0.00680872
-0.00151366
-0.00521729
-0.00214335
-0.00374443
-0.00235775
-0.00248448
-0.00227382
-0.00147508
-0.00200108
-0.000711329
-0.00162723
-0.000160613
-0.00122291
0.000222626
-0.000833705
0.000487998
-0.000488192
0.000679109
-0.000206102
0.000836423
0.0418126
0.00422452
0.0418502
-0.000642997
0.0334374
-0.00644909
0.0245948
-0.0108977
0.0179691
-0.0127659
0.0138198
-0.0131966
0.0105618
-0.0131128
0.00744525
-0.0126449
0.00445537
-0.0116826
0.00180522
-0.0102323
-0.000306176
-0.00844456
-0.00178516
-0.00653722
-0.00264409
-0.00471656
-0.0029721
-0.00313008
-0.00290868
-0.00184962
-0.00259448
-0.000881671
-0.0021455
-0.000193061
-0.00165519
0.000271664
-0.00118308
0.000571999
-0.000764096
0.000763902
-0.000421012
0.000894019
-0.00016402
0.00100044
0.0436368
0.0039318
0.0462104
-0.000135681
0.0386216
-0.00582723
0.029117
-0.0109712
0.0209695
-0.0138981
0.0158358
-0.0147819
0.0122678
-0.0149026
0.00895108
-0.0146186
0.00560865
-0.0137982
0.00247821
-0.0123556
-0.00013821
-0.0104002
-0.00205498
-0.00817474
-0.00322351
-0.00595779
-0.00371729
-0.00397136
-0.00369501
-0.00234374
-0.00333411
-0.00110999
-0.00278867
-0.000238501
-0.00218474
0.000336492
-0.00160133
0.000689916
-0.00108335
0.000891251
-0.00065768
0.00100057
-0.000333857
0.00106386
-0.000114503
0.00111495
0.0449406
0.00355096
0.0499626
0.000179552
0.0435738
-0.00508787
0.0339751
-0.0106853
0.0245022
-0.014504
0.0180715
-0.0161338
0.0140411
-0.0165552
0.0105652
-0.0165168
0.006929
-0.0159389
0.00331126
-0.0146312
0.000125678
-0.0126195
-0.00232079
-0.0101344
-0.00389139
-0.00750687
-0.00461827
-0.00505682
-0.00467007
-0.0029963
-0.00426192
-0.00141593
-0.00359603
-0.000302631
-0.00284431
0.000421066
-0.00211431
0.000849474
-0.00146528
0.00107185
-0.000930876
0.00116445
-0.000519865
0.00118658
-0.000231558
0.00118091
-6.00204e-05
0.00117497
0.0458194
0.00314604
0.053185
0.000328622
0.0480904
-0.00433704
0.0389286
-0.0100414
0.0284314
-0.0146145
0.0206157
-0.0170482
0.0158293
-0.0179221
0.0121934
-0.0181833
0.0083359
-0.0179237
0.00424704
-0.0168747
0.000440334
-0.0149459
-0.00262585
-0.0123144
-0.00468756
-0.00933824
-0.00571716
-0.00640797
-0.00588337
-0.00384352
-0.00543107
-0.00182714
-0.0046176
-0.000394359
-0.00367616
0.000529218
-0.00275428
0.00106103
-0.00193339
0.00131758
-0.00125686
0.00139784
-0.000733563
0.00137815
-0.000358388
0.00131341
-0.000119262
0.00124015
-3.57375e-06
0.00117854
0.045984
0.00207903
0.055785
0.000545957
0.0521085
-0.00368952
0.0437141
-0.00912251
0.0326516
-0.0142616
0.0234503
-0.0174492
0.0176588
-0.0188776
0.0137405
-0.0194691
0.00971996
-0.0195674
0.0051903
-0.0188669
0.00071834
-0.0171527
-0.00305996
-0.0145118
-0.00571396
-0.011288
-0.00710667
-0.00794873
-0.00741498
-0.00487636
-0.00691535
-0.00235923
-0.00591991
-0.000524837
-0.00473494
0.000664428
-0.0035631
0.00133804
-0.00251704
0.00164469
-0.00165521
0.00171593
-0.00098717
0.00165144
-0.000502712
0.00152247
-0.000181503
0.00137565
-3.17809e-06
0.00123976
5.21545e-05
0.00112639
0.0461248
0.00182537
0.0567799
0.00108414
0.0555663
-0.00291187
0.0481135
-0.00808888
0.0369469
-0.0134178
0.0265213
-0.0173326
0.0195448
-0.0193352
0.015146
-0.0202832
0.0109783
-0.0207275
0.00604989
-0.020427
0.000859628
-0.0190082
-0.00373157
-0.0164811
-0.00710181
-0.0131239
-0.00894141
-0.00945327
-0.00941039
-0.00595332
-0.00883203
-0.00295969
-0.00759388
-0.000685264
-0.0060933
0.000833522
-0.0045955
0.00169682
-0.00325417
0.00207517
-0.00215011
0.00213959
-0.00129507
0.00202383
-0.00067208
0.00182081
-0.000250398
0.00159136
9.01927e-07
0.00137157
0.000111157
0.00118075
0.00010445
0.00102194
0.0462292
0.00182054
0.0574549
0.00115039
0.0571467
-0.000496186
0.0520375
-0.00683589
0.0410543
-0.0121962
0.0297385
-0.016635
0.0214568
-0.0192446
0.0163754
-0.0205646
0.0120333
-0.0213381
0.00676892
-0.0214465
0.000834201
-0.0204016
-0.00471032
-0.0180295
-0.00894574
-0.0146372
-0.0113707
-0.0106946
-0.0120572
-0.00680649
-0.0113693
-0.00341607
-0.00977902
-0.000774538
-0.00785092
0.00107236
-0.00592493
0.00216295
-0.00419486
0.00263751
-0.00277259
0.00269766
-0.0016746
0.00251911
-0.000874933
0.00222668
-0.000328584
0.001899
9.04985e-06
0.00158322
0.000180043
0.00130268
0.000218173
0.00106703
0.000151064
0.000870873
0.0463245
0.00181895
0.058068
0.00120747
0.0583649
-6.78545e-05
0.0540821
-0.00254079
0.044856
-0.0106376
0.0329238
-0.0153815
0.023389
-0.0185672
0.0174136
-0.0202827
0.0128197
-0.021351
0.00731079
-0.02188
0.000677617
-0.02129
-0.0059214
-0.0191905
-0.0112195
-0.0157557
-0.0144239
-0.011584
-0.0154744
-0.00727731
-0.0147357
-0.00344006
-0.0126708
-0.000524338
-0.010148
0.0015225
-0.00764961
0.00279703
-0.00540608
0.00337418
-0.00356337
0.00342829
-0.00214749
0.00317056
-0.00112079
0.00276497
-0.000418335
0.00231643
2.33868e-05
0.00188466
0.000262963
0.0015003
0.00034714
0.00117372
0.000313331
0.000904765
0.000190061
0.000680812
0.0464618
0.001699
0.0586589
0.00122804
0.0594492
0.000123132
0.0559392
-0.00192496
0.0471189
-0.00480371
0.0359515
-0.0136652
0.0252926
-0.0172851
0.0182628
-0.0194165
0.0132979
-0.0207609
0.00762661
-0.0216669
0.000421681
-0.0216241
-0.00721772
-0.0199936
-0.0137221
-0.0166878
-0.017972
-0.0122076
-0.0195104
-0.00754811
-0.0189984
-0.00301461
-0.0164404
0.000329591
-0.0131417
0.0024694
-0.00989314
0.00376604
-0.00697504
0.00436599
-0.00457652
0.00438732
-0.00274164
0.00402243
-0.00142083
0.00347059
-0.000521187
0.00286782
4.7507e-05
0.00229231
0.000366337
0.00178129
0.000498808
0.00134863
0.000495114
0.000991935
0.00039279
0.000702036
0.000220164
0.000460648
0.0465876
0.00156618
0.0591364
0.00122151
0.0603776
0.000299695
0.057426
-0.00136364
0.0491438
-0.00394992
0.037931
-0.00678324
0.0270797
-0.0154524
0.0189483
-0.0179707
0.0134393
-0.0195579
0.00766897
-0.0208032
6.11802e-05
-0.0213064
-0.00852065
-0.0203211
-0.0162385
-0.0174773
-0.0216365
-0.0130234
-0.0240466
-0.00767138
-0.0237457
-0.00280084
-0.0210386
0.00158356
-0.0168868
0.00407464
-0.0127574
0.00533363
-0.00899279
0.00578379
-0.00587703
0.0056665
-0.00349292
0.0051386
-0.00178828
0.00438989
-0.000637617
0.00358702
8.72997e-05
0.00282803
0.000498925
0.00215972
0.000683189
0.00159691
0.000706642
0.0011371
0.000618042
0.000766683
0.000453945
0.000468255
0.000240312
0.000220337
0.0467075
0.00135931
0.0594447
0.00125789
0.0610183
0.000580767
0.0585359
-0.000810211
0.0508236
-0.00304343
0.0397388
-0.00575775
0.0283605
-0.008064
0.0194358
-0.0159398
0.0132692
-0.0178006
0.00737996
-0.0192689
-0.000429883
-0.0203121
-0.00979708
-0.0200299
-0.0186981
-0.0178615
-0.0252347
-0.013879
-0.0285224
-0.00854757
-0.0284256
-0.0029915
-0.0261538
0.00231434
-0.021153
0.00584979
-0.0161999
0.00751719
-0.0114978
0.00783866
-0.00751195
0.00741871
-0.00443797
0.00661156
-0.00223836
0.00558868
-0.00076624
0.00451851
0.000151998
0.00352232
0.000672942
0.00265402
0.000913223
0.00192969
0.000960679
0.00134287
0.000878268
0.000876876
0.000712006
0.000508622
0.000494181
0.000214385
0.000250632
-3.02953e-05
0.0467596
0.00112036
0.0596009
0.00120312
0.0614569
0.000819378
0.0593729
-0.000256276
0.0521747
-0.00216125
0.0413532
-0.00465778
0.029613
-0.00701026
0.0198842
-0.00851238
0.0127684
-0.015439
0.00675499
-0.0171756
-0.00110983
-0.0185889
-0.0110406
-0.0190686
-0.0210476
-0.0176804
-0.0287926
-0.0143036
-0.0329532
-0.00944821
-0.0332267
-0.00374645
-0.0306342
0.00148891
-0.0257831
0.00694451
-0.019999
0.00964883
-0.0144104
0.0104298
-0.00945323
0.00977993
-0.00557838
0.00855912
-0.00277868
0.00715188
-0.00090194
0.00572438
0.000255991
0.00441452
0.000905603
0.00328966
0.00120599
0.00236125
0.00127324
0.00161713
0.00118811
0.00103303
0.00100842
0.000580463
0.000773168
0.000229635
0.000513304
-4.8287e-05
0.000251069
-0.000281365
0.0467204
0.000821586
0.0595412
0.00117999
0.0615836
0.00107635
0.0598799
0.000312409
0.0531719
-0.00125346
0.0426843
-0.00349235
0.0307725
-0.00581728
0.0203222
-0.00744824
0.0125502
-0.00829417
0.00575906
-0.0144431
-0.00198959
-0.0162959
-0.0122761
-0.0173534
-0.0232561
-0.0168601
-0.03224
-0.0142331
-0.0374647
-0.00979205
-0.0383682
-0.0043067
-0.035574
0.00119331
-0.0308854
0.00659121
-0.0240006
0.0109461
-0.0176282
0.0128666
-0.0116026
0.0125792
-0.00683295
0.0110345
-0.00337446
0.0091549
-0.00102679
0.00727673
0.000421914
0.00555846
0.00122154
0.00409858
0.00158452
0.00291113
0.00166471
0.00196977
0.00156553
0.00123971
0.00135891
0.000682547
0.00109196
0.000261671
0.000801407
-5.84684e-05
0.000511344
-0.000308562
0.000238807
-0.000520172
0.0465195
0.000476391
0.0592371
0.00112575
0.061447
0.00131658
0.0600779
0.000878362
0.053805
-0.000320693
0.0437245
-0.0022937
0.031791
-0.00451089
0.0207263
-0.00622145
0.0122388
-0.00713687
0.0053069
-0.00784201
-0.00312552
-0.0133072
-0.0134801
-0.0150918
-0.0252755
-0.0153341
-0.0355341
-0.013566
-0.0419313
-0.00976661
-0.0436655
-0.00449469
-0.0411519
0.00127123
-0.0360969
0.00640477
-0.0289087
0.0114993
-0.0211295
0.0144474
-0.0139473
0.0152112
-0.00809696
0.0138432
-0.00391404
0.0115741
-0.00108335
0.00921146
0.000687527
0.00701112
0.00165657
0.00512342
0.00208033
0.00360277
0.00216171
0.00241414
0.00203275
0.00150255
0.00178236
0.000816251
0.00146679
0.00030772
0.00112906
-6.59782e-05
0.000796751
-0.000343875
0.000487976
-0.000557731
0.000218234
-0.000738406
0.0453587
0.000510427
0.0587312
0.0009823
0.061025
0.00154781
0.0599367
0.00145779
0.0540654
0.000617878
0.0444413
-0.00103752
0.0326142
-0.00311684
0.0210714
-0.00485597
0.0118125
-0.00579507
0.004654
-0.00648397
-0.00342204
-0.00754549
-0.0147662
-0.0120211
-0.0270232
-0.0133442
-0.0385032
-0.012365
-0.0462963
-0.00920086
-0.0489736
-0.00445854
-0.0468217
0.00117511
-0.0413597
0.00653406
-0.0338542
0.0113503
-0.0248829
0.0152528
-0.0165939
0.017094
-0.00944017
0.0165544
-0.00429183
0.014221
-0.000951968
0.0114427
0.00112029
0.0087787
0.00226203
0.00640566
0.0027374
0.00446635
0.00279939
0.00296509
0.00261794
0.00182895
0.00230156
0.00098335
0.00191649
0.000366553
0.00151255
-7.57694e-05
0.00112017
-0.000389396
0.000759245
-0.000615145
0.000445628
-0.000785125
0.000189779
-0.000928186
0.0436552
-0.000476009
0.0567141
0.00252745
0.0603248
0.00168243
0.0594543
0.00203019
0.0539713
0.00155188
0.0448248
0.000234377
0.0332552
-0.00167859
0.0213678
-0.00341319
0.0112471
-0.00429061
0.00378896
-0.00493002
-0.00385312
-0.00605289
-0.0148876
-0.00742407
-0.0286811
-0.0103632
-0.0410743
-0.010773
-0.0502512
-0.00841013
-0.0541922
-0.00398233
-0.0525776
0.00129734
-0.0468574
0.0066728
-0.0386961
0.0113759
-0.0290499
0.0155173
-0.0195844
0.0182434
-0.0111314
0.0187852
-0.00462512
0.0168877
-0.000522184
0.0137912
0.00183
0.010733
0.00310707
0.00793366
0.0036146
0.00552846
0.00362509
0.00364065
0.00335706
0.00222597
0.00294458
0.00118593
0.00246337
0.000436466
0.00196991
-9.08077e-05
0.00149739
-0.000452992
0.00106634
-0.000696492
0.000692369
-0.000861886
0.000386155
-0.000981502
0.00015377
-0.00108196
0.041421
-0.00157739
0.0538043
0.00243388
0.0580314
0.00482085
0.0586189
0.00251778
0.0535045
0.00249703
0.0448174
0.0015593
0.0335568
-6.71482e-05
0.0215742
-0.001885
0.0105248
-0.00269092
0.00265521
-0.00315686
-0.00427752
-0.00450563
-0.0152725
-0.00566803
-0.0287072
-0.0073979
-0.0433602
-0.00807732
-0.0539222
-0.00710193
-0.0590092
-0.00359304
-0.0581786
0.00161873
-0.0525264
0.00696632
-0.0438129
0.0117896
-0.0335048
0.0158308
-0.0229983
0.0189311
-0.0133223
0.0204343
-0.00527581
0.0194359
0.000109901
0.0162556
0.00293331
0.0126879
0.00428067
0.00955939
0.00477888
0.00676938
0.00469985
0.0044537
0.00429687
0.00270084
0.00374609
0.00142446
0.0031342
0.0005151
0.0025223
-0.000115924
0.00194505
-0.000538464
0.00142219
-0.000808839
0.00097074
-0.000974864
0.000599098
-0.00107483
0.000312025
-0.00113976
0.000111613
-0.00119357
0.0387085
-0.00251917
0.0503525
0.00187437
0.054917
0.00554835
0.0563802
0.00705956
0.0526091
0.0034132
0.0444286
0.00288581
0.0335063
0.00160975
0.0216051
-9.80754e-05
0.0094986
-0.000858781
0.00111087
-0.00114657
-0.00455241
-0.00288198
-0.0159276
-0.00385051
-0.0289216
-0.00545365
-0.0434402
-0.0073179
-0.0569691
-0.00503051
-0.0637714
-0.00233981
-0.0635516
0.00177989
-0.0579601
0.00705247
-0.0489738
0.0121272
-0.0380056
0.0162904
-0.0266324
0.0194649
-0.0159026
0.0215114
-0.00647949
0.021638
0.000573651
0.0189721
0.00441417
0.0147748
0.00589469
0.0110739
0.00629566
0.00804261
0.00608734
0.0053819
0.00549595
0.00325462
0.00474954
0.00169739
0.00396096
0.000597698
0.0031944
-0.000157007
0.0024827
-0.000653575
0.00184354
-0.00095981
0.00129367
-0.00113177
0.000839119
-0.00121488
0.000483234
-0.00124604
0.000225556
-0.0012537
6.51636e-05
-0.00125873
0.0356216
-0.00344399
0.0464254
0.00140792
0.0511848
0.00560651
0.0534624
0.00846616
0.0507466
0.00892204
0.0436449
0.00419696
0.033094
0.00329811
0.0212757
0.0019391
0.00830874
0.00109179
-0.000289967
0.000542052
-0.00461119
-0.00108778
-0.0168493
-0.00196032
-0.029323
-0.00344916
-0.043475
-0.00541884
-0.0571973
-0.00708966
-0.0673247
-0.00147719
-0.0687591
0.00286772
-0.0632846
0.00710441
-0.0539098
0.0119885
-0.0423632
0.0164849
-0.0301868
0.0198449
-0.0185647
0.022127
-0.00810562
0.0231376
0.00051665
0.021695
0.00598582
0.0174005
0.00803219
0.0126373
0.00825224
0.0091173
0.00783427
0.00629568
0.00701399
0.00386386
0.00600768
0.00199649
0.0049822
0.000676145
0.00401484
-0.00022274
0.00313261
-0.000806918
0.00234759
-0.00115763
0.00167477
-0.00134091
0.00111723
-0.00140988
0.000676222
-0.00140787
0.000348419
-0.0013689
0.000130455
-0.00131899
1.6094e-05
-0.00127483
0.0322443
-0.00417335
0.0421592
0.000822232
0.0470433
0.0055494
0.0497891
0.00927985
0.0482373
0.0109755
0.0420894
0.0104775
0.032425
0.00486601
0.0207397
0.0038342
0.0075899
0.00265794
-0.000924188
0.00172601
-0.00507929
0.00101014
-0.0179168
-2.02304e-05
-0.0299406
-0.00134267
-0.0435607
-0.00336352
-0.0571851
-0.00543104
-0.0677571
-0.00665726
-0.0722283
0.00199206
-0.0674435
0.00702656
-0.0584408
0.0116355
-0.0464842
0.0161095
-0.033516
0.019814
-0.0210596
0.0223398
-0.00980664
0.023828
-5.35545e-05
0.0237078
0.00719323
0.0204876
0.0105796
0.014853
0.0108017
0.0100878
0.00998829
0.00696329
0.00888666
0.004423
0.00757477
0.00229677
0.00624301
0.000735679
0.0050168
-0.000325812
0.00391985
-0.00100998
0.00295402
-0.00141335
0.00212952
-0.00161238
0.0014454
-0.00166908
0.000900022
-0.00163368
0.000487088
-0.00154654
0.000200345
-0.00143879
3.00573e-05
-0.00133296
-3.37412e-05
-0.00124109
0.0287524
-0.00460811
0.0376944
0.000291448
0.0425696
0.005296
0.0457004
0.00963807
0.0450186
0.0124986
0.0400718
0.0129931
0.031311
0.0115914
0.0200725
0.00553322
0.00731088
0.00411322
-0.00137123
0.00310499
-0.00657839
0.00322511
-0.0188965
0.00198979
-0.0307563
0.000795496
-0.0437841
-0.00111922
-0.0571543
-0.00339429
-0.0679517
-0.00523638
-0.0731322
-0.00575339
-0.0706842
0.00523274
-0.0616803
0.010266
-0.050067
0.0152182
-0.0365782
0.0191716
-0.0232946
0.0220491
-0.0113266
0.0238597
-0.000828856
0.0246033
0.00780764
0.0230934
0.01308
0.0179872
0.0140437
0.0116111
0.0127153
0.00736076
0.0111221
0.00472787
0.00948116
0.0025166
0.00779037
0.000749412
0.00623739
-0.000484914
0.00487249
-0.00127845
0.00368453
-0.00174049
0.00267518
-0.00195901
0.00183687
-0.00200386
0.00116455
-0.0019336
0.000648417
-0.00179501
0.000279529
-0.00162573
4.41095e-05
-0.00145284
-7.1862e-05
-0.00129484
-8.23379e-05
-0.00115875
0.0252331
-0.00472251
0.0331724
-8.61555e-05
0.0379634
0.00489761
0.0412965
0.00969986
0.0413382
0.0133185
0.0375424
0.015028
0.0298393
0.0144649
0.0193599
0.0123039
0.00707912
0.00576499
-0.00204678
0.00478877
-0.00860665
0.00513324
-0.0198472
0.00417587
-0.0316578
0.00289127
-0.0441798
0.00119115
-0.0571467
-0.00112685
-0.0680441
-0.00330196
-0.0738657
-0.00450284
-0.0725938
-0.00384372
-0.0648797
0.00843221
-0.0530434
0.0132424
-0.0392013
0.0178414
-0.0252507
0.0211277
-0.012586
0.0233085
-0.00152409
0.0245549
0.00798763
0.0244233
0.0150413
0.0211321
0.0176888
0.0143421
0.0162737
0.00805271
0.013847
0.00463586
0.0117123
0.00249674
0.0096518
0.000655172
0.00771515
-0.00072834
0.00602045
-0.00163288
0.00456273
-0.00215664
0.0033305
-0.00239581
0.00230652
-0.00242866
0.00148085
-0.00232016
0.000840037
-0.00212522
0.000372463
-0.00188795
6.04837e-05
-0.0016421
-0.00011451
-0.0014102
-0.000171246
-0.00120593
-0.000127726
-0.00103103
0.0219846
-0.00391496
0.0286828
-0.000232919
0.0333881
0.00448912
0.036775
0.00941918
0.0373575
0.0136805
0.0345586
0.0163023
0.0280563
0.0168109
0.0185604
0.0152644
0.00737342
0.0120096
-0.0028594
0.0065776
-0.0106316
0.00681373
-0.0209099
0.00619593
-0.0324789
0.00499693
-0.0446888
0.00340028
-0.0571568
0.00120128
-0.0679763
-0.00119459
-0.0742672
-0.00290052
-0.0739771
-0.00311962
-0.0672663
-0.0014571
-0.0557024
0.0110912
-0.0414954
0.0155365
-0.0268553
0.019446
-0.0135792
0.0221209
-0.00203389
0.0238183
0.00801958
0.024523
0.0163428
0.0231218
0.0210957
0.0177251
0.0206915
0.00992423
0.0173533
0.00454643
0.0143253
0.00202288
0.0118115
0.000337075
0.00947464
-0.00110433
0.00739372
-0.00210161
0.00561287
-0.00268302
0.00411558
-0.00294172
0.00287059
-0.00295988
0.00186147
-0.00280928
0.00107061
-0.00255073
0.000484247
-0.00223701
8.10116e-05
-0.00190847
-0.000162136
-0.00159448
-0.000269288
-0.00131215
-0.000264075
-0.00106958
-0.000168107
-0.00086292
0.0189173
-0.00315948
0.0252914
-0.0005235
0.0289608
0.00419446
0.0323125
0.00895164
0.0331936
0.0135831
0.0312639
0.0169752
0.0259165
0.0184421
0.0175377
0.0178336
0.00719471
0.0154431
-0.00330077
0.012451
-0.0123706
0.00831655
-0.0221021
0.00800592
-0.0332806
0.00699764
-0.0452229
0.00553101
-0.0571821
0.00342556
-0.0677088
0.000933748
-0.0742432
-0.00121854
-0.0747404
-0.00213721
-0.0688497
-0.00153626
-0.0577746
0.00061513
-0.0432115
0.0128073
-0.0281605
0.0168416
-0.0142876
0.0201544
-0.00236847
0.0224555
0.00805995
0.0237779
0.0171796
0.0236863
0.0237851
0.0204324
0.025429
0.0129877
0.0220018
0.00527569
0.0175295
0.0013422
0.0142458
-0.000411468
0.0115093
-0.00169754
0.00901248
-0.00272308
0.00685793
-0.00334668
0.00505071
-0.00361815
0.00354659
-0.00361772
0.00232046
-0.00341887
0.00135032
-0.00308899
0.000620924
-0.00268741
0.000107969
-0.00226397
-0.000215756
-0.00185485
-0.000379739
-0.00148403
-0.000414015
-0.00116221
-0.000346569
-0.00089112
-0.000201454
-0.000661466
0.0156107
-0.00273225
0.0217782
0.000353662
0.0247975
0.00363971
0.0280272
0.00847976
0.028976
0.0131692
0.0277374
0.0171096
0.0234729
0.0194188
0.016232
0.0197478
0.00678935
0.018239
-0.00352582
0.0156681
-0.0133454
0.0134258
-0.0233547
0.00956916
-0.0340928
0.00881813
-0.0456865
0.00746133
-0.0571954
0.00554431
-0.0673581
0.00307489
-0.0738647
0.000555238
-0.0748578
-0.00110116
-0.0696733
-0.00131363
-0.0591993
-0.000111549
-0.0449633
0.00236686
-0.0289694
0.0136162
-0.0147668
0.0173209
-0.00257908
0.020365
0.00809012
0.0224253
0.0177621
0.0231954
0.0257155
0.0217558
0.029708
0.0161534
0.0276135
0.00737606
0.0218889
0.000916263
0.0170937
-0.00150565
0.0137459
-0.00264814
0.0108767
-0.00356173
0.00831455
-0.0041797
0.00615432
-0.00445028
0.00435238
-0.00442395
0.00287345
-0.00417071
0.0016911
-0.00375965
0.000790061
-0.00325813
0.000144418
-0.00272386
-0.000276235
-0.00220349
-0.000506645
-0.00172795
-0.000583667
-0.00131437
-0.000542792
-0.000965992
-0.000414462
-0.000678113
-0.000226462
-0.000435006
0.0125193
-0.00242907
0.0178766
0.0011694
0.0208645
0.00428668
0.0233171
0.00834981
0.0248069
0.0126488
0.0240684
0.0168382
0.0207749
0.0198075
0.014653
0.0209979
0.0061789
0.0203583
-0.00364795
0.0183611
-0.0137187
0.0160415
-0.0238276
0.0138987
-0.0349602
0.0104365
-0.0460701
0.00920168
-0.0571353
0.00740127
-0.0668265
0.00501269
-0.0730956
0.00230576
-0.0743699
6.73905e-05
-0.0697802
-0.00099426
-0.0598838
-0.000629149
-0.0462029
0.00112813
-0.0306197
0.00401718
-0.0149786
0.013828
-0.00277838
0.0175202
0.00798575
0.0204694
0.0181119
0.0220755
0.0270942
0.0218167
0.0331324
0.0183314
0.0333634
0.0104035
0.0276266
0.0016384
0.0208175
-0.00280761
0.0162866
-0.00404637
0.012915
-0.00468642
0.0099817
-0.00522888
0.0074404
-0.00546578
0.00530456
-0.00540245
0.00353719
-0.00508768
0.00210702
-0.00458664
0.00100125
-0.00397084
0.000194847
-0.00330856
-0.000343953
-0.00265614
-0.000654308
-0.00205582
-0.000780208
-0.00153141
-0.000765582
-0.00109159
-0.000648872
-0.000731582
-0.00046502
-0.000439556
-0.000241979
-0.000193028
0.00991213
-0.00252881
0.0143393
0.00110823
0.0173389
0.00469506
0.0194508
0.00815296
0.02082
0.0123368
0.0204061
0.0163111
0.0178973
0.0197159
0.0128229
0.0216375
0.0053628
0.021814
-0.00377337
0.0204837
-0.0136747
0.0183171
-0.0238509
0.0160648
-0.0346475
0.013586
-0.0464176
0.0107841
-0.0569322
0.00899858
-0.0661463
0.0067211
-0.0719805
0.00389762
-0.0732571
0.0011929
-0.0691498
-0.00056298
-0.0598618
-0.00101619
-0.0467806
-5.14571e-05
-0.0318666
0.00237502
-0.0165375
0.00557606
-0.00294112
0.0139907
0.00755103
0.0179549
0.0181076
0.0204736
0.0280306
0.0211392
0.0357594
0.0191898
0.0385369
0.013158
0.0342471
0.00378299
0.0258922
-0.0034363
0.0192829
-0.00580389
0.0151537
-0.00628508
0.0118263
-0.00653105
0.00890833
-0.00669681
0.00641671
-0.00657793
0.00432859
-0.00619386
0.00261443
-0.0055951
0.00126688
-0.00485226
0.000265915
-0.00404191
-0.000418177
-0.00323433
-0.000827042
-0.00248341
-0.00101159
-0.00182444
-0.00102522
-0.00127177
-0.000915831
-0.000824628
-0.000727879
-0.000468725
-0.00049581
-0.000185726
-0.000246402
5.33724e-05
0.00780155
-0.00254996
0.0113148
0.000495674
0.0141219
0.00432519
0.0162442
0.00790163
0.0173207
0.0116522
0.0170937
0.0156492
0.0149794
0.019229
0.0108019
0.0217369
0.00434561
0.0226547
-0.00396293
0.0220036
-0.0134055
0.0202145
-0.0234046
0.0178708
-0.0339172
0.0153346
-0.0451038
0.0122721
-0.0565678
0.0104196
-0.0651564
0.00800869
-0.0704885
0.00522913
-0.0715699
0.00221048
-0.067775
-0.000181952
-0.0590353
-0.0013895
-0.0466281
-0.00116872
-0.0325235
0.00060538
-0.0180098
0.00384733
-0.00424493
0.00687988
0.00672239
0.0148194
0.0175243
0.0185383
0.0285149
0.0199892
0.0377561
0.0191424
0.0428618
0.0148649
0.0409683
0.00643674
0.0324051
-0.00272987
0.0232582
-0.00741161
0.0175692
-0.00821937
0.0137631
-0.00822182
0.0105439
-0.0081666
0.00769244
-0.00797254
0.00526365
-0.00751299
0.00323195
-0.00681138
0.00160295
-0.00593117
0.000367566
-0.00495391
-0.000496159
-0.00396393
-0.00102866
-0.00303271
-0.00128651
-0.00220849
-0.00133338
-0.00151628
-0.00122849
-0.000959107
-0.00102802
-0.000524483
-0.000775823
-0.000188713
-0.000504341
7.22119e-05
-0.000239145
0.000292516
0.00613408
-0.00233154
0.00885472
-8.98817e-05
0.0112399
0.00337769
0.0133133
0.00725615
0.0143113
0.0109111
0.0140768
0.0146691
0.0122749
0.0183536
0.00872643
0.0213045
0.00318304
0.0228994
-0.00423737
0.0229292
-0.0130209
0.021619
-0.0226153
0.0194252
-0.0327291
0.0166826
-0.0432967
0.0135275
-0.054059
0.00976341
-0.0637515
0.00901463
-0.0687132
0.0062333
-0.0693772
0.00303637
-0.0657306
0.000166079
-0.0575018
-0.00171543
-0.0457797
-0.00223794
-0.0325428
-0.0011494
-0.0192081
0.00180369
-0.00519895
0.00480135
0.00464621
0.00895606
0.0162817
0.0160619
0.0283617
0.0186915
0.0392705
0.0184749
0.0464242
0.01558
0.0471393
0.00869383
0.0398423
-0.00100043
0.0287396
-0.00821128
0.0204787
-0.0103212
0.0157659
-0.0102222
0.0122577
-0.00993561
0.00912585
-0.00960001
0.00635328
-0.00906217
0.0039803
-0.00826133
0.00203011
-0.00723854
0.000514595
-0.0060782
-0.000571789
-0.00487828
-0.00126159
-0.003731
-0.00161412
-0.0027051
-0.0017034
-0.00183848
-0.00160204
-0.00114274
-0.00138101
-0.00060612
-0.00109628
-0.000204022
-0.000788687
9.56319e-05
-0.000490627
0.000323693
-0.000221258
0.000513772
0.00483673
-0.00198785
0.00693059
-0.000407409
0.00884026
0.00230973
0.0106959
0.00599507
0.0117468
0.00982066
0.0115569
0.013431
0.00995287
0.0169911
0.00684387
0.0202362
0.00203225
0.0224553
-0.00453266
0.0231947
-0.0125488
0.0224571
-0.0215492
0.0205529
-0.0311484
0.0178445
-0.0410452
0.0144311
-0.0509538
0.0104223
-0.0600292
0.00604114
-0.0666373
0.00693873
-0.0669373
0.00379346
-0.0630714
0.000377228
-0.0552227
-0.00211309
-0.0442341