/*--------------------------------*- C++ -*----------------------------------*\
| =========                 |                                                 |
| \\      /  F ield         | OpenFOAM: The Open Source CFD Toolbox           |
|  \\    /   O peration     | Version:  2506                                  |
|   \\  /    A nd           | Website:  www.openfoam.com                      |
|    \\/     M anipulation  |                                                 |
\*---------------------------------------------------------------------------*/
FoamFile
{
    version     2.0;
    format      ascii;
    arch        "LSB;label=32;scalar=64";
    class       pointScalarField;
    location    "50.00229049822";
    object      streamFunction;
}
// * * * * * * * * * * * * * * * * * * * * * * * * * * * * * * * * * * * * * //

dimensions      [0 3 -1 0 0 0 0];

internalField   nonuniform List<scalar> 
19880
(
0
-0.0143599
-0.0374625
-0.0635975
-0.0913476
-0.119456
0
-0.0161123
-0.0427222
-0.0722485
-0.102369
-0.131616
0
-0.0144886
-0.0395181
-0.066515
-0.0920282
-0.114076
0
-0.0112398
-0.0304892
-0.0497396
-0.0645887
-0.0719356
0
-0.00889114
-0.0210162
-0.0294524
-0.0288884
-0.0147681
0
-0.00761006
-0.0117828
-0.00410321
0.0205504
0.0635148
0
-0.0143599
-0.0374625
-0.0635975
-0.0913476
-0.119456
0
-0.0161123
-0.0427222
-0.0722485
-0.102369
-0.131616
0
-0.0144886
-0.0395181
-0.066515
-0.0920282
-0.114076
0
-0.0112398
-0.0304892
-0.0497396
-0.0645887
-0.0719356
0
-0.00889114
-0.0210162
-0.0294524
-0.0288884
-0.0147681
0
-0.00761006
-0.0117828
-0.00410321
0.0205504
0.0635148
1.4e-07
4e-08
4e-08
1e-09
0
0.0466065
0.027165
0.011689
0.00090824
-0.00513471
0.155043
0.114502
0.0710388
0.0322552
0.00427
0.28238
0.231551
0.167271
0.0986281
0.0385236
0.410911
0.356684
0.281355
0.190714
0.0982287
0.537212
0.481825
0.400762
0.296727
0.178752
1.4e-07
4e-08
4e-08
1e-09
0
0.0466065
0.027165
0.011689
0.00090824
-0.00513471
0.155043
0.114502
0.0710388
0.0322552
0.00427
0.28238
0.231551
0.167271
0.0986281
0.0385236
0.410911
0.356684
0.281355
0.190714
0.0982287
0.537212
0.481825
0.400762
0.296727
0.178752
1.1e-07
1.2e-07
8e-08
1.4e-07
1.4e-07
0.0848724
0.0901208
0.0882942
0.0800903
0.0655029
0.185301
0.202116
0.208636
0.203942
0.1859
0.281572
0.311646
0.328534
0.330387
0.315407
0.373434
0.416705
0.44416
0.453451
0.44282
0.462197
0.518549
0.55638
0.57317
0.567228
1.1e-07
1.2e-07
8e-08
1.4e-07
1.4e-07
0.0848724
0.0901208
0.0882942
0.0800903
0.0655029
0.185301
0.202116
0.208636
0.203942
0.1859
0.281572
0.311646
0.328534
0.330387
0.315407
0.373434
0.416705
0.44416
0.453451
0.44282
0.462197
0.518549
0.55638
0.57317
0.567228
0.0104709
0.0087968
0.00692561
0.00481075
0.00240111
1.1e-07
0.113743
0.0927299
0.0707674
0.0473536
0.0220363
1.1e-07
0.213759
0.173932
0.132508
0.0886595
0.0416816
1.1e-07
0.307322
0.249672
0.189868
0.126883
0.0597885
1.1e-07
0.391323
0.317185
0.240449
0.160004
0.0746868
1.1e-07
0.0104709
0.0087968
0.00692561
0.00481075
0.00240111
1.1e-07
0.113743
0.0927299
0.0707674
0.0473536
0.0220363
1.1e-07
0.213759
0.173932
0.132508
0.0886595
0.0416816
1.1e-07
0.307322
0.249672
0.189868
0.126883
0.0597885
1.1e-07
0.391323
0.317185
0.240449
0.160004
0.0746868
1.1e-07
-0.440788
-0.355701
-0.267901
-0.176314
-0.0809815
-3e-07
-0.37004
-0.299447
-0.226607
-0.150417
-0.0702092
2.1e-07
-0.286198
-0.232008
-0.176046
-0.117356
-0.0551414
2.1e-07
-0.192746
-0.156321
-0.118697
-0.0791488
-0.037092
2.1e-07
-0.0927881
-0.0751408
-0.0569436
-0.0377971
-0.0173766
2.1e-07
-0.440788
-0.355701
-0.267901
-0.176314
-0.0809815
-3e-07
-0.37004
-0.299447
-0.226607
-0.150417
-0.0702092
2.1e-07
-0.286198
-0.232008
-0.176046
-0.117356
-0.0551414
2.1e-07
-0.192746
-0.156321
-0.118697
-0.0791488
-0.037092
2.1e-07
-0.0927881
-0.0751408
-0.0569436
-0.0377971
-0.0173766
2.1e-07
-0.496949
-0.534714
-0.55166
-0.546242
-0.517361
-0.398999
-0.426602
-0.436292
-0.426493
-0.396094
-0.298163
-0.315381
-0.317834
-0.303917
-0.272643
-0.193379
-0.200286
-0.196268
-0.179374
-0.150326
-0.0863396
-0.0849066
-0.077353
-0.0635961
-0.0458924
-9e-07
-1.06e-06
-1.06e-06
-1.06e-06
-1.06e-06
-0.496949
-0.534714
-0.55166
-0.546242
-0.517361
-0.398999
-0.426602
-0.436292
-0.426493
-0.396094
-0.298163
-0.315381
-0.317834
-0.303917
-0.272643
-0.193379
-0.200286
-0.196268
-0.179374
-0.150326
-0.0863396
-0.0849066
-0.077353
-0.0635961
-0.0458924
-9e-07
-1.06e-06
-1.06e-06
-1.06e-06
-1.06e-06
-0.464155
-0.387105
-0.290259
-0.184271
-0.08554
-0.344531
-0.273641
-0.189858
-0.106909
-0.040558
-0.224653
-0.164576
-0.101313
-0.0469553
-0.00986232
-0.112343
-0.0719234
-0.0360406
-0.0100012
0.0048789
-0.0278598
-0.0134734
-0.00321951
0.00302013
0.00595852
-1.06e-06
-1.06e-06
-1.06e-06
-1.06e-06
-1.06e-06
-0.464155
-0.387105
-0.290259
-0.184271
-0.08554
-0.344531
-0.273641
-0.189858
-0.106909
-0.040558
-0.224653
-0.164576
-0.101313
-0.0469553
-0.00986232
-0.112343
-0.0719234
-0.0360406
-0.0100012
0.0048789
-0.0278598
-0.0134734
-0.00321951
0.00302013
0.00595852
-1.06e-06
-1.06e-06
-1.06e-06
-1.06e-06
-1.06e-06
-1.06e-06
0.00555366
0.00848097
0.00460208
-0.00886197
-0.0326778
-1.06e-06
0.00218379
0.00244043
-0.00076327
-0.00885357
-0.0226115
-1.06e-06
-0.00326648
-0.0101776
-0.0195865
-0.0317747
-0.0462375
0
-0.00946357
-0.0251945
-0.0435771
-0.0640025
-0.085618
-1.06e-06
0.00555366
0.00848097
0.00460208
-0.00886197
-0.0326778
-1.06e-06
0.00218379
0.00244043
-0.00076327
-0.00885357
-0.0226115
-1.06e-06
-0.00326648
-0.0101776
-0.0195865
-0.0317747
-0.0462375
0
-0.00946357
-0.0251945
-0.0435771
-0.0640025
-0.085618
-0.17039
-0.208196
-0.217104
-0.190192
-0.127256
-0.036952
0.0696214
0.183301
0.294631
0.390509
0.456132
0.481789
0.466064
0.414909
0.33827
0.246847
0.150053
0.0525665
-0.0435826
-0.137818
-0.229465
-0.314132
-0.382739
-0.425096
-0.434368
-0.409741
-0.35628
-0.282794
-0.199209
-0.113326
-0.0277551
0.0562392
0.138599
0.219512
0.29759
0.368556
0.425766
0.462322
0.473382
0.457534
0.417127
0.357594
0.285954
0.209303
0.131854
0.054828
-0.0210875
-0.0955408
-0.167385
-0.233795
-0.29037
-0.332156
-0.355011
-0.356608
-0.336896
-0.298103
-0.244232
-0.18013
-0.110529
-0.0393106
0.0318648
0.102159
0.170357
0.23455
0.29189
0.338828
0.37184
0.388236
0.386698
0.367509
0.332495
0.284639
0.227478
0.16452
0.0990101
0.0332761
-0.0315844
-0.0938027
-0.151153
-0.201013
-0.240531
-0.267108
-0.278908
-0.275175
-0.256353
-0.22402
-0.180578
-0.128828
-0.0715912
-0.0116684
0.0485121
0.107566
0.163376
0.213583
0.255752
0.287533
0.306991
0.312872
0.305542
0.502358
-0.182072
-0.214321
-0.215178
-0.180235
-0.109635
-0.0137717
0.0943853
0.206149
0.316725
0.418506
0.497209
0.539768
0.541101
0.504603
0.439088
0.354991
0.261697
0.164942
0.0673454
-0.0297652
-0.124504
-0.210668
-0.278152
-0.317161
-0.321832
-0.292333
-0.234638
-0.158111
-0.0730387
0.0129547
0.0975539
0.179524
0.259096
0.336875
0.412134
0.481377
0.538392
0.576226
0.589693
0.576961
0.539925
0.483591
0.414581
0.339429
0.262387
0.185017
0.108056
0.0321232
-0.0412616
-0.108974
-0.166514
-0.208892
-0.232082
-0.233803
-0.213953
-0.174774
-0.12036
-0.0557327
0.0141552
0.0851464
0.155669
0.22477
0.291502
0.354345
0.410656
0.45705
0.49
0.506748
0.505868
0.487557
0.453531
0.406617
0.350259
0.287828
0.22244
0.156488
0.0910386
0.0279963
-0.0301569
-0.0806749
-0.120685
-0.147567
-0.159546
-0.155897
-0.137079
-0.104729
-0.0613028
-0.00968856
0.0472048
0.106603
0.166148
0.224248
0.278976
0.328189
0.369488
0.400573
0.419478
0.424898
0.417139
0.391289
-0.158781
-0.184904
-0.180494
-0.141617
-0.0684556
0.0281674
0.134222
0.240355
0.343045
0.44046
0.524793
0.581961
0.601687
0.58329
0.532946
0.459972
0.373418
0.279801
0.182772
0.0848422
-0.0110105
-0.0975621
-0.164086
-0.201239
-0.203884
-0.172603
-0.113636
-0.0365947
0.0481558
0.133357
0.216262
0.29574
0.372122
0.446258
0.518117
0.585248
0.642256
0.682279
0.699683
0.691969
0.660245
0.608838
0.543829
0.471279
0.395453
0.318412
0.241145
0.164476
0.0900512
0.0212579
-0.0373562
-0.0809231
-0.105443
-0.108583
-0.0900287
-0.0517995
0.00201199
0.0662194
0.135662
0.206084
0.275626
0.343256
0.408276
0.469501
0.524712
0.570704
0.603958
0.621644
0.622187
0.605577
0.573333
0.528131
0.473214
0.411865
0.347068
0.281192
0.215633
0.152124
0.0934174
0.0423661
0.00188889
-0.0254568
-0.0379012
-0.0347112
-0.0163378
0.0155891
0.0586104
0.109756
0.166023
0.224605
0.283251
0.340209
0.393706
0.441742
0.482089
0.512445
0.530856
0.535932
0.527923
0.501753
-0.105518
-0.12416
-0.116203
-0.0765273
-0.00556294
0.0868365
0.187752
0.287545
0.381523
0.469157
0.549
0.612799
0.648317
0.649047
0.616756
0.558391
0.482051
0.394588
0.300712
0.204146
0.109164
0.0232611
-0.0426562
-0.0796462
-0.0829537
-0.0529724
0.00449919
0.0798625
0.162856
0.246408
0.327196
0.404074
0.477282
0.547685
0.615772
0.680263
0.737036
0.779695
0.802127
0.800954
0.776184
0.731251
0.671576
0.602795
0.529218
0.453345
0.376537
0.299869
0.225029
0.155446
0.095661
0.0504523
0.0237729
0.0180644
0.0340001
0.0699551
0.12204
0.185012
0.253441
0.32296
0.391277
0.45728
0.520439
0.579924
0.633937
0.679583
0.713492
0.732638
0.735263
0.721092
0.691377
0.648573
0.595751
0.536064
0.47238
0.407051
0.341682
0.278164
0.219237
0.167845
0.126932
0.0990368
0.0859062
0.0883035
0.105856
0.136984
0.179232
0.229584
0.284965
0.34255
0.400064
0.455717
0.507844
0.554614
0.593937
0.623579
0.641569
0.646463
0.638442
0.612233
-0.0338863
-0.0427678
-0.0312668
0.00740384
0.07272
0.157118
0.25025
0.343237
0.430315
0.509317
0.580403
0.641264
0.684308
0.701381
0.68793
0.646871
0.584065
0.50603
0.418228
0.325365
0.232864
0.148476
0.0827798
0.0444434
0.037988
0.0639644
0.117585
0.189506
0.269649
0.350813
0.429275
0.503695
0.574082
0.641111
0.705483
0.766891
0.822749
0.867806
0.895732
0.902189
0.885697
0.848613
0.795562
0.73175
0.66152
0.587762
0.512224
0.436255
0.361653
0.291646
0.230736
0.183595
0.154114
0.144851
0.15702
0.189624
0.239046
0.300007
0.366918
0.435214
0.50218
0.566549
0.627856
0.685559
0.738323
0.783649
0.818379
0.839405
0.844684
0.833598
0.807075
0.767324
0.717214
0.659748
0.597666
0.533348
0.468645
0.405562
0.346788
0.295308
0.254071
0.225591
0.211604
0.212943
0.229377
0.259413
0.300588
0.349877
0.404154
0.460567
0.516796
0.571035
0.621707
0.667141
0.705417
0.734372
0.752054
0.756952
0.749137
0.723162
0.0535431
0.0524496
0.0668579
0.102023
0.158674
0.232407
0.315716
0.401041
0.482384
0.555898
0.620344
0.675037
0.716793
0.741461
0.743307
0.720326
0.673887
0.6087
0.530255
0.443866
0.355677
0.273756
0.208212
0.167452
0.156401
0.176456
0.224239
0.291009
0.367076
0.445173
0.521194
0.593434
0.661563
0.725939
0.787163
0.845455
0.899607
0.945987
0.978872
0.992904
0.985607
0.957696
0.912678
0.855203
0.789583
0.719033
0.645681
0.571166
0.497414
0.427435
0.365639
0.316548
0.283928
0.270396
0.277972
0.30641
0.352397
0.410646
0.475534
0.542307
0.60791
0.670756
0.730361
0.786406
0.837863
0.882772
0.918306
0.941442
0.949746
0.942249
0.919526
0.883457
0.836653
0.781968
0.722068
0.659351
0.595815
0.533575
0.475354
0.424099
0.382742
0.35373
0.338807
0.338933
0.354061
0.382775
0.422636
0.470658
0.523654
0.578766
0.633624
0.686429
0.735615
0.779686
0.816888
0.845184
0.862651
0.867709
0.860371
0.611334
-0.17039
-0.208196
-0.217104
-0.190192
-0.127256
-0.036952
0.0696214
0.183301
0.294631
0.390509
0.456132
0.481789
0.466064
0.414909
0.33827
0.246847
0.150053
0.0525665
-0.0435826
-0.137818
-0.229465
-0.314132
-0.382739
-0.425096
-0.434368
-0.409741
-0.35628
-0.282794
-0.199209
-0.113326
-0.0277551
0.0562392
0.138599
0.219512
0.29759
0.368556
0.425766
0.462322
0.473382
0.457534
0.417127
0.357594
0.285954
0.209303
0.131854
0.054828
-0.0210875
-0.0955408
-0.167385
-0.233795
-0.29037
-0.332156
-0.355011
-0.356608
-0.336896
-0.298103
-0.244232
-0.18013
-0.110529
-0.0393106
0.0318648
0.102159
0.170357
0.23455
0.29189
0.338828
0.37184
0.388236
0.386698
0.367509
0.332495
0.284639
0.227478
0.16452
0.0990101
0.0332761
-0.0315844
-0.0938027
-0.151153
-0.201013
-0.240531
-0.267108
-0.278908
-0.275175
-0.256353
-0.22402
-0.180578
-0.128828
-0.0715912
-0.0116684
0.0485121
0.107566
0.163376
0.213583
0.255752
0.287533
0.306991
0.312872
0.305542
0.502358
-0.182072
-0.214321
-0.215178
-0.180235
-0.109635
-0.0137717
0.0943853
0.206149
0.316725
0.418506
0.497209
0.539768
0.541101
0.504603
0.439088
0.354991
0.261697
0.164942
0.0673454
-0.0297652
-0.124504
-0.210668
-0.278152
-0.317161
-0.321832
-0.292333
-0.234638
-0.158111
-0.0730387
0.0129547
0.0975539
0.179524
0.259096
0.336875
0.412134
0.481377
0.538392
0.576226
0.589693
0.576961
0.539925
0.483591
0.414581
0.339429
0.262387
0.185017
0.108056
0.0321232
-0.0412616
-0.108974
-0.166514
-0.208892
-0.232082
-0.233803
-0.213953
-0.174774
-0.12036
-0.0557327
0.0141552
0.0851464
0.155669
0.22477
0.291502
0.354345
0.410656
0.45705
0.49
0.506748
0.505868
0.487557
0.453531
0.406617
0.350259
0.287828
0.22244
0.156488
0.0910386
0.0279963
-0.0301569
-0.0806749
-0.120685
-0.147567
-0.159546
-0.155897
-0.137079
-0.104729
-0.0613028
-0.00968856
0.0472048
0.106603
0.166148
0.224248
0.278976
0.328189
0.369488
0.400573
0.419478
0.424898
0.417139
0.391289
-0.158781
-0.184904
-0.180494
-0.141617
-0.0684556
0.0281674
0.134222
0.240355
0.343045
0.44046
0.524793
0.581961
0.601687
0.58329
0.532946
0.459972
0.373418
0.279801
0.182772
0.0848422
-0.0110105
-0.0975621
-0.164086
-0.201239
-0.203884
-0.172603
-0.113636
-0.0365947
0.0481558
0.133357
0.216262
0.29574
0.372122
0.446258
0.518117
0.585248
0.642256
0.682279
0.699683
0.691969
0.660245
0.608838
0.543829
0.471279
0.395453
0.318412
0.241145
0.164476
0.0900512
0.0212579
-0.0373562
-0.0809231
-0.105443
-0.108583
-0.0900287
-0.0517995
0.00201199
0.0662194
0.135662
0.206084
0.275626
0.343256
0.408276
0.469501
0.524712
0.570704
0.603958
0.621644
0.622187
0.605577
0.573333
0.528131
0.473214
0.411865
0.347068
0.281192
0.215633
0.152124
0.0934174
0.0423661
0.00188889
-0.0254568
-0.0379012
-0.0347112
-0.0163378
0.0155891
0.0586104
0.109756
0.166023
0.224605
0.283251
0.340209
0.393706
0.441742
0.482089
0.512445
0.530856
0.535932
0.527923
0.501753
-0.105518
-0.12416
-0.116203
-0.0765273
-0.00556294
0.0868365
0.187752
0.287545
0.381523
0.469157
0.549
0.612799
0.648317
0.649047
0.616756
0.558391
0.482051
0.394588
0.300712
0.204146
0.109164
0.0232611
-0.0426562
-0.0796462
-0.0829537
-0.0529724
0.00449919
0.0798625
0.162856
0.246408
0.327196
0.404074
0.477282
0.547685
0.615772
0.680263
0.737036
0.779695
0.802127
0.800954
0.776184
0.731251
0.671576
0.602795
0.529218
0.453345
0.376537
0.299869
0.225029
0.155446
0.095661
0.0504523
0.0237729
0.0180644
0.0340001
0.0699551
0.12204
0.185012
0.253441
0.32296
0.391277
0.45728
0.520439
0.579924
0.633937
0.679583
0.713492
0.732638
0.735263
0.721092
0.691377
0.648573
0.595751
0.536064
0.47238
0.407051
0.341682
0.278164
0.219237
0.167845
0.126932
0.0990368
0.0859062
0.0883035
0.105856
0.136984
0.179232
0.229584
0.284965
0.34255
0.400064
0.455717
0.507844
0.554614
0.593937
0.623579
0.641569
0.646463
0.638442
0.612233
-0.0338863
-0.0427678
-0.0312668
0.00740384
0.07272
0.157118
0.25025
0.343237
0.430315
0.509317
0.580403
0.641264
0.684308
0.701381
0.68793
0.646871
0.584065
0.50603
0.418228
0.325365
0.232864
0.148476
0.0827798
0.0444434
0.037988
0.0639644
0.117585
0.189506
0.269649
0.350813
0.429275
0.503695
0.574082
0.641111
0.705483
0.766891
0.822749
0.867806
0.895732
0.902189
0.885697
0.848613
0.795562
0.73175
0.66152
0.587762
0.512224
0.436255
0.361653
0.291646
0.230736
0.183595
0.154114
0.144851
0.15702
0.189624
0.239046
0.300007
0.366918
0.435214
0.50218
0.566549
0.627856
0.685559
0.738323
0.783649
0.818379
0.839405
0.844684
0.833598
0.807075
0.767324
0.717214
0.659748
0.597666
0.533348
0.468645
0.405562
0.346788
0.295308
0.254071
0.225591
0.211604
0.212943
0.229377
0.259413
0.300588
0.349877
0.404154
0.460567
0.516796
0.571035
0.621707
0.667141
0.705417
0.734372
0.752054
0.756952
0.749137
0.723162
0.0535431
0.0524496
0.0668579
0.102023
0.158674
0.232407
0.315716
0.401041
0.482384
0.555898
0.620344
0.675037
0.716793
0.741461
0.743307
0.720326
0.673887
0.6087
0.530255
0.443866
0.355677
0.273756
0.208212
0.167452
0.156401
0.176456
0.224239
0.291009
0.367076
0.445173
0.521194
0.593434
0.661563
0.725939
0.787163
0.845455
0.899607
0.945987
0.978872
0.992904
0.985607
0.957696
0.912678
0.855203
0.789583
0.719033
0.645681
0.571166
0.497414
0.427435
0.365639
0.316548
0.283928
0.270396
0.277972
0.30641
0.352397
0.410646
0.475534
0.542307
0.60791
0.670756
0.730361
0.786406
0.837863
0.882772
0.918306
0.941442
0.949746
0.942249
0.919526
0.883457
0.836653
0.781968
0.722068
0.659351
0.595815
0.533575
0.475354
0.424099
0.382742
0.35373
0.338807
0.338933
0.354061
0.382775
0.422636
0.470658
0.523654
0.578766
0.633624
0.686429
0.735615
0.779686
0.816888
0.845184
0.862651
0.867709
0.860371
0.611334
0.314686
0.304866
0.306854
0.323483
0.356214
0.404683
0.465284
0.532544
0.600883
0.665599
0.723082
0.770868
0.806998
0.8295
0.839081
0.836136
0.817484
0.780733
0.727433
0.661226
0.587418
0.513127
0.447028
0.398181
0.373132
0.375637
0.404816
0.455422
0.519475
0.589385
0.659817
0.72786
0.792334
0.852981
0.909912
0.963336
1.01332
1.05922
1.09887
1.12825
1.14267
1.13876
1.11647
1.07798
1.02687
0.966879
0.901117
0.831922
0.761277
0.691463
0.625605
0.567808
0.522176
0.492181
0.480152
0.488675
0.516842
0.561252
0.616793
0.678161
0.740894
0.802077
0.86018
0.914772
0.965688
1.01223
1.05292
1.08539
1.10696
1.11543
1.10943
1.08933
1.05658
1.01338
0.962269
0.905713
0.846046
0.785374
0.725935
0.670405
0.621594
0.582238
0.554604
0.540352
0.540446
0.554779
0.581955
0.619664
0.665085
0.71516
0.767109
0.818596
0.867871
0.913506
0.954238
0.988596
1.0148
1.03109
1.03587
1.02911
0.78127
0.592212
0.584805
0.587029
0.601335
0.628329
0.666687
0.713529
0.765033
0.817158
0.86628
0.909384
0.943959
0.967705
0.978836
0.977131
0.964157
0.941035
0.907211
0.862519
0.808689
0.749893
0.692598
0.644622
0.613609
0.604891
0.619137
0.653254
0.701916
0.759235
0.820072
0.880904
0.939779
0.995806
1.04864
1.09813
1.14412
1.18645
1.22463
1.25742
1.28221
1.29541
1.29396
1.2767
1.24457
1.20007
1.14628
1.08612
1.02207
0.956367
0.891542
0.830697
0.777614
0.736072
0.709511
0.700485
0.710251
0.737702
0.779608
0.83131
0.887963
0.945508
1.00131
1.05398
1.10313
1.14865
1.19008
1.22634
1.25552
1.27531
1.28356
1.279
1.26156
1.23229
1.19299
1.14589
1.09325
1.03734
0.9803
0.924405
0.872242
0.826438
0.789531
0.763668
0.750439
0.750582
0.76386
0.789011
0.823973
0.866154
0.912672
0.960859
1.00845
1.05376
1.09549
1.13258
1.16383
1.18774
1.20273
1.20725
1.20121
0.607592
0.867316
0.861758
0.864212
0.875782
0.896652
0.925678
0.960765
0.999241
1.03823
1.07498
1.10704
1.13223
1.1486
1.15441
1.14866
1.13195
1.10598
1.0724
1.03268
0.988814
0.944167
0.903705
0.873225
0.857945
0.8604
0.879214
0.91166
0.954169
1.00263
1.05365
1.10487
1.15487
1.20281
1.2482
1.29062
1.3297
1.365
1.39607
1.42217
1.44187
1.45291
1.4527
1.43951
1.41325
1.37533
1.32813
1.27424
1.21617
1.15634
1.09742
1.04244
0.994912
0.958301
0.935717
0.929309
0.93986
0.966153
1.00509
1.05235
1.10359
1.15527
1.20516
1.25206
1.29559
1.33564
1.37187
1.40354
1.42922
1.44703
1.45502
1.45183
1.43705
1.41134
1.37615
1.33339
1.28512
1.23354
1.18076
1.12903
1.08079
1.03849
1.00444
0.980598
0.968358
0.968331
0.980307
1.00317
1.03506
1.07359
1.11611
1.1601
1.20342
1.24447
1.28206
1.31532
1.34328
1.36474
1.37833
1.38259
1.37739
0.785721
1.13336
1.12877
1.13081
1.13971
1.15545
1.17717
1.20333
1.23203
1.26114
1.28859
1.31243
1.33092
1.34253
1.34598
1.34041
1.32578
1.30302
1.27387
1.24057
1.2058
1.1728
1.14536
1.12723
1.12086
1.12682
1.14454
1.17225
1.20709
1.24643
1.28811
1.33047
1.37231
1.41281
1.45131
1.48726
1.52012
1.54934
1.57435
1.59452
1.60908
1.61683
1.61619
1.60561
1.58433
1.55276
1.5124
1.46536
1.41401
1.36083
1.30852
1.25999
1.21849
1.18714
1.16872
1.16503
1.17639
1.20131
1.23679
1.27899
1.32421
1.36957
1.41325
1.45425
1.4922
1.52692
1.55812
1.58525
1.6073
1.62285
1.63027
1.6282
1.61601
1.59394
1.56303
1.5249
1.4814
1.4346
1.38656
1.33942
1.29549
1.25698
1.22599
1.20426
1.19303
1.19282
1.20343
1.22385
1.25243
1.28703
1.32522
1.36471
1.4035
1.44011
1.47346
1.5028
1.52739
1.54628
1.55836
1.5623
1.55797
0.602933
1.39106
1.3869
1.38819
1.3948
1.40652
1.42269
1.44217
1.46354
1.48524
1.50568
1.52338
1.537
1.54538
1.54765
1.54328
1.53223
1.51508
1.49307
1.46804
1.4424
1.41885
1.40021
1.38887
1.38601
1.39195
1.40652
1.42849
1.4561
1.4876
1.52144
1.55631
1.59114
1.62509
1.65748
1.68766
1.71507
1.73909
1.75911
1.77452
1.7847
1.78905
1.78678
1.77704
1.75912
1.73289
1.69907
1.6591
1.61498
1.56904
1.52388
1.48227
1.44718
1.42142
1.40737
1.40638
1.41824
1.44127
1.47277
1.50948
1.54842
1.58734
1.62485
1.6601
1.69271
1.72241
1.74889
1.77171
1.79018
1.80328
1.80978
1.80848
1.79861
1.78008
1.75354
1.72023
1.68178
1.64009
1.5971
1.55484
1.51544
1.48089
1.45308
1.43352
1.42332
1.42291
1.43209
1.44999
1.47516
1.5057
1.53942
1.57426
1.60841
1.64053
1.66964
1.6951
1.71633
1.73262
1.74308
1.7466
1.74304
0.790345
1.6424
1.63849
1.63899
1.64366
1.65222
1.66414
1.67857
1.69443
1.71055
1.72573
1.73885
1.74888
1.75498
1.75655
1.75326
1.7452
1.73285
1.71714
1.69943
1.68145
1.66516
1.65252
1.64512
1.64391
1.64924
1.66099
1.67846
1.7005
1.72588
1.75344
1.78211
1.81099
1.83929
1.86633
1.89149
1.91418
1.93384
1.94985
1.96162
1.96858
1.97025
1.96623
1.95623
1.94003
1.91757
1.88918
1.85579
1.81887
1.78041
1.74273
1.70838
1.67998
1.65993
1.65019
1.65159
1.66342
1.68401
1.71114
1.74218
1.77488
1.80759
1.83923
1.8691
1.89675
1.92187
1.94406
1.96296
1.97805
1.98865
1.9939
1.99288
1.98486
1.96956
1.94725
1.91882
1.88558
1.8492
1.81146
1.77424
1.73946
1.70893
1.68429
1.6669
1.65772
1.65713
1.66494
1.68037
1.70218
1.72867
1.75792
1.7881
1.81764
1.84534
1.87033
1.89206
1.91005
1.92376
1.93253
1.93549
1.93255
0.598551
1.88881
1.88508
1.88489
1.88797
1.89407
1.90274
1.91333
1.92503
1.93695
1.94818
1.95787
1.96527
1.96973
1.97086
1.96845
1.96263
1.95381
1.94271
1.93035
1.91796
1.90692
1.89857
1.89404
1.89408
1.89903
1.90882
1.923
1.94083
1.96145
1.98399
2.00758
2.03147
2.05496
2.07743
2.09829
2.117
2.13302
2.14582
2.15487
2.15965
2.15972
2.15476
2.14469
2.1296
2.10973
2.08547
2.05754
2.0271
1.99574
1.96541
1.93827
1.91651
1.90201
1.89604
1.8988
1.90972
1.92743
1.95
1.9755
2.00236
2.02937
2.05569
2.08068
2.10388
2.12489
2.14331
2.15877
2.17086
2.17909
2.18291
2.18172
2.17495
2.16229
2.1438
2.12002
2.09193
2.06089
2.02846
1.9963
1.96616
1.93961
1.91811
1.90286
1.89474
1.89406
1.90058
1.91369
1.93227
1.95486
1.97978
2.00545
2.03053
2.054
2.0751
2.09333
2.10829
2.11956
2.12666
2.12891
2.12633
0.794413
2.13128
2.12771
2.12695
2.12879
2.13299
2.13918
2.14686
2.15542
2.16418
2.17246
2.1796
2.18506
2.18836
2.18922
2.18753
2.18339
2.17716
2.1694
2.16085
2.15243
2.14511
2.13985
2.13744
2.13844
2.14312
2.15148
2.16322
2.17784
2.19474
2.21325
2.23269
2.25244
2.27189
2.29049
2.30772
2.32309
2.33612
2.34636
2.35336
2.3567
2.35601
2.35104
2.34172
2.32819
2.31078
2.29003
2.26671
2.24182
2.21671
2.19295
2.17223
2.15624
2.14623
2.14278
2.14592
2.15527
2.16971
2.18781
2.20827
2.22998
2.25203
2.2737
2.2944
2.31366
2.33108
2.34624
2.35878
2.36834
2.37454
2.37699
2.37534
2.36925
2.35853
2.34316
2.32347
2.30013
2.2742
2.24693
2.21974
2.19414
2.17151
2.15314
2.14006
2.13302
2.13229
2.13773
2.14874
2.16435
2.18327
2.20409
2.22551
2.24641
2.26595
2.28347
2.29852
2.31074
2.31978
2.32528
2.32675
2.32427
0.59474
2.37055
2.36712
2.36593
2.36682
2.36956
2.37387
2.37936
2.38556
2.39195
2.39802
2.40328
2.40732
2.40979
2.41049
2.40937
2.40651
2.40221
2.39687
2.39108
2.3855
2.38083
2.37774
2.37683
2.37848
2.38293
2.39018
2.40003
2.41215
2.42609
2.44135
2.4574
2.47372
2.4898
2.50517
2.51937
2.53198
2.54258
2.55078
2.55625
2.55863
2.55769
2.55321
2.54517
2.53368
2.51907
2.50186
2.48279
2.4628
2.44299
2.42463
2.40898
2.39719
2.39007
2.38794
2.39075
2.39815
2.40942
2.42363
2.43984
2.45724
2.47509
2.4928
2.50981
2.52567
2.53999
2.55237
2.56248
2.56997
2.57453
2.57589
2.57381
2.56812
2.55876
2.54575
2.52937
2.51008
2.48868
2.46614
2.44361
2.42234
2.40351
2.38824
2.37738
2.37146
2.3708
2.37534
2.3845
2.39737
2.4129
2.42994
2.44746
2.46457
2.48056
2.49488
2.50711
2.51692
2.524
2.52808
2.52878
2.52624
0.798074
2.60726
2.60397
2.60248
2.60264
2.60429
2.60718
2.61102
2.61545
2.62007
2.62449
2.62836
2.63135
2.63323
2.63384
2.63316
2.63126
2.62838
2.62482
2.62102
2.61746
2.61466
2.61311
2.61322
2.61528
2.61948
2.62582
2.63418
2.64431
2.65588
2.66851
2.68178
2.69527
2.70856
2.72125
2.73294
2.74327
2.7519
2.75851
2.7628
2.76455
2.76357
2.75974
2.75306
2.74367
2.73184
2.71804
2.70288
2.68714
2.67172
2.65759
2.64566
2.63672
2.63133
2.62972
2.63186
2.6375
2.64617
2.65724
2.67003
2.68392
2.69831
2.71269
2.72658
2.73955
2.75124
2.76128
2.76938
2.77522
2.77855
2.77915
2.77685
2.77156
2.76328
2.75212
2.73833
2.72232
2.70471
2.68626
2.66786
2.65052
2.6352
2.62282
2.61407
2.60939
2.60897
2.61271
2.62012
2.63047
2.64293
2.65659
2.67066
2.68442
2.69731
2.70883
2.71862
2.72637
2.7318
2.73467
2.7347
2.73204
0.591208
2.84188
2.83875
2.83705
2.83669
2.83752
2.83936
2.84197
2.84507
2.84837
2.85157
2.8544
2.85663
2.85807
2.85862
2.85827
2.85709
2.85524
2.85297
2.8506
2.84848
2.847
2.8465
2.84728
2.84958
2.85351
2.85908
2.86622
2.87474
2.88439
2.89488
2.90588
2.91704
2.92803
2.9385
2.94812
2.95659
2.96363
2.96897
2.97238
2.9737
2.97279
2.96959
2.96414
2.95659
2.94716
2.93626
2.92438
2.91213
2.9002
2.8893
2.88011
2.8732
2.86898
2.86764
2.8692
2.87348
2.88015
2.88879
2.89889
2.90996
2.92152
2.93315
2.94441
2.95495
2.96444
2.97254
2.979
2.98356
2.98599
2.98611
2.9838
2.97901
2.97178
2.96223
2.95062
2.93732
2.92285
2.90781
2.89292
2.87897
2.86673
2.85688
2.84997
2.84633
2.84605
2.84901
2.85483
2.86294
2.8727
2.88345
2.89456
2.90547
2.91572
2.92487
2.9326
2.93862
2.94268
2.94458
2.94409
2.94135
0.80137
3.0748
3.07183
3.07003
3.0693
3.06954
3.0706
3.07229
3.07441
3.07673
3.07902
3.08108
3.08274
3.08386
3.08437
3.08427
3.0836
3.0825
3.08115
3.07979
3.07869
3.07811
3.07832
3.07954
3.08192
3.08556
3.09048
3.0966
3.1038
3.11188
3.12062
3.12975
3.139
3.14808
3.15672
3.16464
3.1716
3.17735
3.18168
3.18443
3.18545
3.18467
3.18205
3.17765
3.17161
3.16414
3.15556
3.14627
3.13674
3.1275
3.11908
3.11197
3.10661
3.1033
3.1022
3.10335
3.10662
3.1118
3.11856
3.12654
3.13535
3.14462
3.15398
3.16308
3.1716
3.17925
3.18576
3.19089
3.19442
3.19619
3.19604
3.19388
3.18969
3.18351
3.17547
3.16581
3.15485
3.14302
3.13084
3.11887
3.10774
3.09801
3.09022
3.08475
3.08184
3.08154
3.08373
3.08813
3.09432
3.10184
3.11016
3.11882
3.12737
3.13541
3.14258
3.14859
3.15319
3.15616
3.1573
3.15645
3.15372
0.588258
3.30635
3.30356
3.30172
3.30075
3.30057
3.30106
3.30209
3.30349
3.30508
3.3067
3.30819
3.30943
3.31031
3.31078
3.31085
3.31055
3.30998
3.30929
3.30864
3.30823
3.30826
3.30893
3.31039
3.31276
3.3161
3.32043
3.3257
3.3318
3.33859
3.34588
3.35348
3.36114
3.36865
3.37579
3.38231
3.38802
3.39274
3.39628
3.39851
3.39933
3.39869
3.39659
3.39307
3.38826
3.38236
3.37561
3.36834
3.36093
3.35375
3.34723
3.34173
3.33757
3.33499
3.33412
3.33498
3.33751
3.34155
3.34686
3.35317
3.36019
3.3676
3.37511
3.38243
3.38928
3.39542
3.40062
3.40467
3.40741
3.40868
3.40838
3.40644
3.40285
3.39767
3.39101
3.38308
3.37416
3.36459
3.35479
3.34522
3.33635
3.32861
3.3224
3.31799
3.31557
3.31515
3.31666
3.31988
3.32451
3.33021
3.33658
3.34326
3.34988
3.35612
3.36167
3.36628
3.36973
3.37182
3.3724
3.37133
3.36869
0.803913
3.53676
3.53417
3.53234
3.53123
3.53077
3.53086
3.53141
3.53228
3.53334
3.53446
3.53553
3.53646
3.53716
3.5376
3.53778
3.53773
3.53753
3.53729
3.53712
3.53718
3.53761
3.53855
3.54012
3.5424
3.54544
3.54925
3.55378
3.55896
3.56466
3.57076
3.57708
3.58343
3.58965
3.59554
3.60092
3.60561
3.60948
3.61238
3.61422
3.6149
3.61441
3.61274
3.60995
3.60615
3.6015
3.5962
3.59053
3.58475
3.57918
3.57412
3.56985
3.56663
3.56463
3.56395
3.56461
3.56659
3.56975
3.57394
3.57893
3.5845
3.59041
3.59642
3.60228
3.60777
3.61268
3.61681
3.62
3.62211
3.62302
3.62264
3.62093
3.61791
3.61361
3.60815
3.6017
3.59448
3.5868
3.57895
3.57131
3.56424
3.55806
3.55306
3.54946
3.54738
3.54685
3.54781
3.55011
3.55353
3.5578
3.56263
3.56773
3.57281
3.5776
3.58184
3.58533
3.58786
3.58928
3.58944
3.58825
3.58576
0.58619
3.76625
3.76386
3.7621
3.76092
3.76029
3.76011
3.76032
3.76081
3.76149
3.76225
3.76301
3.7637
3.76426
3.76467
3.76492
3.76504
3.76508
3.76513
3.76528
3.76564
3.76631
3.76739
3.76898
3.77112
3.77386
3.77719
3.78108
3.78547
3.79027
3.79536
3.80061
3.80588
3.81102
3.81588
3.82031
3.82418
3.82736
3.82975
3.83126
3.83185
3.83148
3.83018
3.82799
3.825
3.82135
3.81721
3.81278
3.80829
3.80396
3.80004
3.79674
3.79424
3.79269
3.79217
3.79269
3.79424
3.79672
3.80003
3.80397
3.8084
3.8131
3.81789
3.82257
3.82694
3.83084
3.83411
3.83662
3.83823
3.83887
3.83846
3.83699
3.83445
3.83091
3.82645
3.82123
3.81542
3.80925
3.80299
3.79689
3.79124
3.78628
3.78224
3.77927
3.77748
3.77689
3.77745
3.77905
3.78154
3.78472
3.78835
3.79221
3.79607
3.79971
3.80291
3.8055
3.80731
3.80821
3.80809
3.80685
3.80456
0.805589
3.99497
3.99279
3.99113
3.98996
3.98923
3.98888
3.98886
3.98909
3.98949
3.98999
3.99052
3.99104
3.99149
3.99186
3.99214
3.99237
3.99257
3.99281
3.99315
3.99368
3.99448
3.99561
3.99714
3.9991
4.00154
4.00443
4.00776
4.01147
4.0155
4.01975
4.02411
4.02847
4.03271
4.03671
4.04036
4.04353
4.04615
4.04812
4.04938
4.04988
4.04963
4.04863
4.04692
4.04459
4.04174
4.03852
4.03507
4.03158
4.02822
4.02519
4.02263
4.02071
4.01951
4.01911
4.01953
4.02075
4.02271
4.02531
4.02843
4.03193
4.03566
4.03946
4.04318
4.04664
4.04974
4.05231
4.05426
4.05549
4.05593
4.05553
4.05426
4.05216
4.04925
4.04563
4.04141
4.03674
4.0318
4.02679
4.02193
4.01741
4.01343
4.01016
4.00771
4.00618
4.00556
4.00584
4.00694
4.00873
4.01107
4.01377
4.01667
4.01957
4.02229
4.02468
4.02656
4.02782
4.02834
4.02802
4.0268
4.02472
0.584867
4.22304
4.22109
4.21956
4.21843
4.21767
4.21723
4.21706
4.21711
4.21732
4.21764
4.218
4.21839
4.21875
4.21908
4.21938
4.21965
4.21994
4.22029
4.22074
4.22135
4.22219
4.2233
4.22472
4.22649
4.22863
4.23112
4.23395
4.23708
4.24044
4.24396
4.24757
4.25116
4.25465
4.25794
4.26092
4.26353
4.26567
4.26729
4.26834
4.26878
4.26862
4.26786
4.26655
4.26474
4.26253
4.26003
4.25736
4.25465