/*--------------------------------*- C++ -*----------------------------------*\
| =========                 |                                                 |
| \\      /  F ield         | OpenFOAM: The Open Source CFD Toolbox           |
|  \\    /   O peration     | Version:  2506                                  |
|   \\  /    A nd           | Website:  www.openfoam.com                      |
|    \\/     M anipulation  |                                                 |
\*---------------------------------------------------------------------------*/
FoamFile
{
    version     2.0;
    format      ascii;
    arch        "LSB;label=32;scalar=64";
    class       volVectorField;
    location    "50.00229049822";
    object      U_0;
}
// * * * * * * * * * * * * * * * * * * * * * * * * * * * * * * * * * * * * * //

dimensions      [0 1 -1 0 0 0 0];

internalField   nonuniform List<vector> 
9700
(
(1.06182 0.00086189 1.79228e-22)
(1.06153 0.0026661 1.04918e-24)
(1.0597 0.000629739 4.39042e-28)
(1.06091 0.00444486 -2.48499e-22)
(1.05938 0.00196548 -3.72813e-24)
(1.05894 0.000485461 -1.81407e-22)
(1.05993 0.00632889 -8.70307e-24)
(1.05873 0.00323802 -1.66799e-35)
(1.05863 0.00152464 -1.7968e-22)
(1.05808 0.000327974 0)
(1.05853 0.0083009 1.88739e-22)
(1.05768 0.00456493 9.51056e-24)
(1.05799 0.00247789 -1.38984e-21)
(1.0578 0.00104037 -4.78174e-23)
(1.05762 0.000180842 1.69372e-22)
(1.05665 0.0104283 2.11732e-22)
(1.0562 0.00589247 -4.77281e-27)
(1.05696 0.00345147 -2.10537e-22)
(1.05719 0.00164955 3.92934e-35)
(1.05738 0.000587121 1.7908e-22)
(1.0574 4.29953e-05 7.41163e-28)
(1.05419 0.0127302 1.07166e-22)
(1.0542 0.00726285 6.40851e-27)
(1.05549 0.00437726 -2.16482e-22)
(1.0562 0.00224118 1.19026e-22)
(1.05683 0.000877789 1.25633e-21)
(1.0572 0.000173206 -7.39472e-24)
(1.05742 -7.57468e-05 -1.54494e-22)
(1.05102 0.0152512 3.09241e-22)
(1.05159 0.00866088 2.2509e-22)
(1.05353 0.00527792 -1.79e-22)
(1.05478 0.00273366 0)
(1.05591 0.00111581 1.48711e-22)
(1.05672 0.00017366 -5.72188e-36)
(1.05727 -0.000184867 -1.48716e-22)
(1.05763 -0.000170119 -1.26971e-21)
(1.047 0.018027 -1.28991e-22)
(1.04826 0.0100939 -4.26866e-22)
(1.05096 0.00612012 2.8068e-23)
(1.05288 0.00312902 0)
(1.05461 0.00120823 1.49e-22)
(1.05592 9.0884e-05 1.82851e-23)
(1.05689 -0.00043371 -1.06125e-25)
(1.05754 -0.000475099 -1.47533e-21)
(1.058 -0.000237762 -4.65971e-25)
(1.04193 0.0210981 -3.58553e-22)
(1.04405 0.0115508 -4.04663e-22)
(1.0477 0.00689034 -2.51317e-21)
(1.05042 0.00337454 -4.26873e-37)
(1.05287 0.00113816 2.07886e-22)
(1.05478 -0.000179041 -9.13639e-27)
(1.05623 -0.000792235 -1.79563e-22)
(1.05727 -0.000922666 -1.97136e-22)
(1.05797 -0.000687139 1.98339e-22)
(1.05847 -0.000277157 1.2028e-21)
(1.03555 0.0244898 3.15073e-22)
(1.03878 0.01302 4.65802e-23)
(1.04358 0.00755404 3.00682e-22)
(1.04728 0.00343345 1.2778e-22)
(1.0506 0.000835868 4.85405e-22)
(1.05325 -0.000670446 1.21111e-26)
(1.0553 -0.00137264 -1.78916e-22)
(1.05678 -0.0015032 -1.4454e-21)
(1.05782 -0.00127684 1.9044e-22)
(1.0585 -0.000813745 1.25191e-21)
(1.05899 -0.000287089 0)
(1.02754 0.0281976 2.59519e-23)
(1.03221 0.0144717 5.86408e-23)
(1.03844 0.00807278 2.16803e-21)
(1.04334 0.00324651 5.20513e-22)
(1.04772 0.000243459 1.92936e-21)
(1.05126 -0.0014683 4.2165e-22)
(1.05404 -0.0022254 -1.20802e-22)
(1.05609 -0.00233193 -1.27077e-21)
(1.05752 -0.00201711 2.24692e-23)
(1.05847 -0.00148406 -9.57381e-26)
(1.05908 -0.000850871 -9.02093e-37)
(1.0595 -0.000267556 1.38806e-22)
(1.01753 0.0321836 2.87886e-21)
(1.02404 0.0158469 4.4751e-22)
(1.03205 0.00838793 -3.06958e-22)
(1.03842 0.00274756 -2.02695e-22)
(1.0441 -0.000720536 -8.85367e-22)
(1.04873 -0.00265001 -5.37285e-23)
(1.0524 -0.00344844 1.47265e-22)
(1.05515 -0.00347444 -1.235e-21)
(1.05709 -0.00302331 1.14794e-27)
(1.05838 -0.00231592 1.18744e-21)
(1.05918 -0.00153762 2.30993e-36)
(1.05965 -0.000798163 1.4165e-22)
(1.05995 -0.000219812 1.39908e-28)
(1.00525 0.0364588 -5.45983e-23)
(1.01395 0.0170334 1.18549e-34)
(1.02416 0.00841685 -2.05874e-22)
(1.03234 0.00184972 -8.07806e-22)
(1.0396 -0.00214708 -1.56965e-21)
(1.04555 -0.00431738 -7.35754e-22)
(1.05031 -0.00513703 -1.63459e-21)
(1.05392 -0.00503901 -1.3231e-21)
(1.05651 -0.00437352 -1.48058e-27)
(1.05823 -0.00342205 1.14802e-21)
(1.05929 -0.00238961 -8.47832e-37)
(1.05987 -0.00143711 9.19736e-26)
(1.06015 -0.000659016 -1.23287e-24)
(1.0603 -0.000146415 -1.35987e-22)
(0.990793 0.0412462 1.16115e-22)
(1.00163 0.0178857 -6.8574e-22)
(1.01447 0.0080355 -4.92088e-21)
(1.02486 0.000444662 -8.67603e-22)
(1.03402 -0.00414775 1.60506e-22)
(1.04158 -0.0065845 8.28013e-23)
(1.04768 -0.00741155 -1.5746e-21)
(1.05235 -0.0071368 -1.33815e-21)
(1.05574 -0.00618378 3.87822e-22)
(1.05803 -0.00488963 1.12514e-21)
(1.05944 -0.0035139 0)
(1.06018 -0.0022372 1.26646e-22)
(1.06049 -0.00118852 -6.47099e-36)
(1.06053 -0.000440833 -1.36522e-22)
(1.06049 -5.10332e-05 -1.76865e-22)
(0.974625 0.0470423 4.14189e-21)
(0.98694 0.0183412 -3.03299e-22)
(1.0027 0.007083 -5.25319e-22)
(1.01571 -0.00161049 1.4072e-34)
(1.02717 -0.00685274 3.17495e-22)
(1.03667 -0.00958676 1.00592e-22)
(1.04439 -0.0104082 1.07611e-21)
(1.05036 -0.00990507 -8.3778e-22)
(1.05475 -0.00857845 7.71088e-22)
(1.05775 -0.00683936 1.19505e-21)
(1.05962 -0.00500283 0)
(1.06061 -0.0032967 1.22323e-22)
(1.06099 -0.00186698 1.93546e-24)
(1.06097 -0.00080464 -9.96031e-22)
(1.06075 -0.000154847 -3.11146e-22)
(1.06048 6.15333e-05 1.60059e-29)
(0.957355 0.0544357 5.41314e-22)
(0.970082 0.0185742 -1.28709e-22)
(0.988638 0.00541516 -1.83094e-21)
(1.00463 -0.00449104 1.205e-21)
(1.01881 -0.0104191 2.79983e-21)
(1.03062 -0.0134774 7.26349e-22)
(1.04029 -0.0142859 -1.43143e-22)
(1.04785 -0.0135011 4.37294e-22)
(1.05348 -0.0117096 8.87776e-22)
(1.05739 -0.00940541 -2.71233e-23)
(1.05985 -0.00697803 -4.83801e-36)
(1.06118 -0.00470859 1.27307e-22)
(1.06169 -0.00278077 -5.25292e-28)
(1.06164 -0.00129731 -1.31756e-22)
(1.06127 -0.000304891 -1.77348e-22)
(1.06076 0.000184472 1.37043e-22)
(1.06026 0.000184964 1.77987e-22)
(0.939532 0.063856 4.34706e-21)
(0.951556 0.0190361 1.22612e-21)
(0.972264 0.00300643 7.63235e-22)
(0.991369 -0.00838015 0)
(1.00868 -0.0150273 2.48129e-23)
(1.02321 -0.018431 1.89587e-35)
(1.03521 -0.0192229 9.59684e-24)
(1.04471 -0.0181082 -1.3851e-21)
(1.05186 -0.0157544 -4.75056e-22)
(1.0569 -0.0127516 2.38449e-23)
(1.06013 -0.00957907 -1.32438e-22)
(1.06192 -0.00659097 1.52092e-22)
(1.06262 -0.00401854 4.00137e-31)
(1.06257 -0.00199028 -1.26435e-22)
(1.06207 -0.00055635 -3.29818e-22)
(1.06133 0.000285655 1.19002e-21)
(1.06055 0.000559596 1.78667e-22)
(1.0598 0.000312805 -1.78992e-22)
(0.921388 0.0754282 -9.43251e-21)
(0.931881 0.0203598 -1.79795e-21)
(0.953844 4.5344e-05 1.04684e-21)
(0.975798 -0.0134104 -1.0881e-34)
(0.996541 -0.0208722 -1.34131e-21)
(1.01422 -0.0246362 -9.4846e-22)
(1.02895 -0.0254169 -5.36392e-22)
(1.04077 -0.0239329 -5.76189e-22)
(1.04979 -0.0209208 -5.054e-22)
(1.05625 -0.0170727 5.76393e-22)
(1.06047 -0.0129773 1.27631e-22)
(1.06285 -0.00908337 1.07633e-21)
(1.06384 -0.00568985 -2.88616e-23)
(1.06384 -0.00296273 -1.289e-22)
(1.0632 -0.00096312 -1.70734e-22)
(1.06223 0.000319223 1.42429e-22)
(1.06114 0.000936529 -1.02313e-21)
(1.06008 0.000950869 -3.14427e-22)
(1.05911 0.000438633 6.46058e-30)
(0.902231 0.088482 -1.93717e-21)
(0.91168 0.0230437 -8.53473e-22)
(0.933821 -0.00293239 -3.69985e-21)
(0.957977 -0.0195917 1.05773e-35)
(0.982198 -0.0281308 -3.72559e-23)
(1.00338 -0.0322888 -3.8621e-22)
(1.02128 -0.0330743 -1.81744e-22)
(1.03584 -0.0312029 -3.47775e-23)
(1.04714 -0.0274469 5.60966e-22)
(1.05536 -0.0226001 3.38059e-22)
(1.06083 -0.0173805 1.14921e-22)
(1.06401 -0.0123585 7.03707e-22)
(1.06539 -0.00792757 7.92016e-24)
(1.06548 -0.00431025 -1.92355e-22)
(1.06474 -0.00158982 -1.65617e-22)
(1.06351 0.00025072 -4.53255e-28)
(1.0621 0.00128457 1.86401e-22)
(1.06067 0.00161371 -1.8314e-22)
(1.05936 0.00133786 -5.65936e-25)
(1.05819 0.00055582 1.78442e-22)
(0.881857 0.102004 1.72703e-20)
(0.89096 0.0273904 1.38734e-21)
(0.912769 -0.00565041 6.59921e-21)
(0.938182 -0.026556 1.47995e-35)
(0.965573 -0.036906 1.64529e-21)
(0.990477 -0.0415698 8.05983e-26)
(1.01194 -0.0423979 -1.18411e-21)
(1.02969 -0.0401541 1.52223e-22)
(1.04373 -0.0355976 -1.46023e-23)
(1.05414 -0.0296057 5.53035e-23)
(1.06121 -0.0230398 -6.77211e-23)
(1.06542 -0.0166305 -4.77012e-22)
(1.06734 -0.0108981 1.7615e-22)
(1.0676 -0.00615164 -1.13842e-21)
(1.06674 -0.00251267 -2.80857e-22)
(1.06525 3.47625e-05 7.69913e-28)
(1.06346 0.00158953 1.88623e-22)
(1.06164 0.00228928 -3.55873e-22)
(1.05992 0.00228191 3.8614e-35)
(1.0584 0.00169996 3.18924e-22)
(1.05705 0.000658176 4.38269e-25)
(0.860564 0.115111 -4.10579e-22)
(0.869858 0.0327332 -1.944e-22)
(0.891061 -0.00724087 2.61117e-22)
(0.916857 -0.0342618 0)
(0.946786 -0.0470365 7.77872e-22)
(0.975347 -0.0526008 1.28011e-21)
(1.00067 -0.0535608 8.13327e-23)
(1.02205 -0.0510084 6.02525e-22)
(1.03932 -0.0456488 -5.87015e-22)
(1.05243 -0.038395 -1.39331e-23)
(1.06153 -0.0302597 1.01241e-37)
(1.0671 -0.022163 3.10267e-23)
(1.06977 -0.0148117 -2.88641e-23)
(1.07028 -0.00863757 4.19462e-22)
(1.06933 -0.00382868 -9.07798e-22)
(1.06752 -0.000380724 1.03747e-22)
(1.06531 0.00182902 1.66606e-22)
(1.06302 0.00298348 -1.85667e-22)
(1.06085 0.00328087 3.39876e-24)
(1.0589 0.00290553 1.84842e-22)
(1.05722 0.00201785 2.22171e-24)
(1.05575 0.000740343 -1.63602e-21)
(0.839184 0.126859 4.79731e-22)
(0.848729 0.0387566 1.15257e-21)
(0.869171 -0.00831595 -6.19204e-21)
(0.894548 -0.0415061 3.31931e-36)
(0.926041 -0.0586119 -1.19675e-21)
(0.957965 -0.0653625 -1.62745e-21)
(0.987236 -0.0666656 1.04327e-21)
(1.01259 -0.0639346 1.76839e-22)
(1.0336 -0.0578516 2.98862e-27)
(1.04997 -0.0492893 -9.67625e-22)
(1.06167 -0.0393825 2.61626e-36)
(1.06903 -0.029284 -5.76761e-23)
(1.07274 -0.0199341 -4.84563e-23)
(1.07365 -0.0119623 5.97707e-22)
(1.07263 -0.00566261 -3.48999e-22)
(1.07046 -0.00106358 8.78006e-22)
(1.06774 0.00197882 1.70517e-23)
(1.06489 0.00369926 -1.88104e-22)
(1.06218 0.00435942 -3.37257e-28)
(1.05974 0.00420623 3.30897e-22)
(1.05764 0.00345123 4.46181e-22)
(1.05585 0.00227476 -1.86206e-21)
(1.0543 0.000798011 -3.39754e-25)
(0.818868 0.136792 1.03085e-21)
(0.82832 0.0445075 2.24681e-22)
(0.847514 -0.00838326 -1.7752e-21)
(0.872161 -0.0488946 8.68586e-36)
(0.90385 -0.0704865 0)
(0.938447 -0.079872 -3.16946e-22)
(0.971486 -0.0817091 1.13065e-21)
(1.001 -0.0790002 2.10276e-21)
(1.02617 -0.0723729 1.63368e-21)
(1.0464 -0.0625673 -1.53492e-21)
(1.06135 -0.0507699 6.31948e-36)
(1.07111 -0.0383612 -5.30646e-22)
(1.07629 -0.0265979 -4.72569e-22)
(1.07783 -0.0163777 -2.21854e-23)
(1.07682 -0.00817869 5.28959e-23)
(1.07424 -0.00210278 -3.08387e-22)
(1.0709 0.00200615 3.44744e-23)
(1.06736 0.00444235 -3.3899e-22)
(1.06398 0.00554671 6.34725e-28)
(1.06095 0.00564323 1.93104e-22)
(1.05835 0.00501565 -3.52127e-24)
(1.05617 0.00389021 -1.80691e-22)
(1.05435 0.00245721 5.77296e-23)
(1.05278 0.00082814 1.52899e-21)
(0.802614 0.14392 2.39267e-23)
(0.809653 0.0501051 4.5687e-22)
(0.826956 -0.00844609 2.45534e-22)
(0.849946 -0.055278 6.13601e-36)
(0.88131 -0.0831257 7.70715e-24)
(0.917271 -0.0953365 -7.67153e-22)
(0.953389 -0.0985285 -3.18239e-21)
(0.987 -0.0961367 4.06904e-22)
(1.01658 -0.0892336 -5.00649e-22)
(1.04119 -0.0783843 -2.61803e-21)
(1.06012 -0.064707 0)
(1.07305 -0.0497738 -3.6372e-23)
(1.08033 -0.035175 -1.54746e-35)
(1.08292 -0.0221966 -1.21267e-22)
(1.08206 -0.0115943 7.27456e-22)
(1.07905 -0.00361819 -6.73841e-22)
(1.07496 0.0018661 6.77727e-22)
(1.07056 0.00521862 -1.19144e-21)
(1.06635 0.00687846 -2.34328e-23)
(1.06259 0.00727088 2.00286e-22)
(1.05938 0.00676544 -1.85258e-24)
(1.05672 0.00566622 -1.90981e-21)
(1.05455 0.0041994 1.52268e-21)
(1.05275 0.00255558 1.64702e-21)
(1.05122 0.000829149 1.53927e-22)
(0.79116 0.148576 3.0846e-21)
(0.794363 0.0541018 -8.8528e-21)
(0.808514 -0.00791481 3.63465e-21)
(0.829023 -0.061478 -4.66844e-21)
(0.858633 -0.0952399 -2.14549e-21)
(0.894723 -0.111865 -3.54736e-22)
(0.933193 -0.116858 2.14561e-22)
(0.970433 -0.115112 5.25341e-21)
(1.00439 -0.108277 -1.28461e-22)
(1.03373 -0.0966965 -4.61931e-21)
(1.05727 -0.0813109 -1.44213e-35)
(1.07423 -0.0637688 1.23317e-21)
(1.0845 -0.0460181 1.11249e-21)
(1.08881 -0.0297618 6.53661e-22)
(1.08848 -0.0161773 9.8832e-22)
(1.08511 -0.00577225 1.47678e-22)
(1.08015 0.00149538 1.11462e-21)
(1.0747 0.00603249 -4.42046e-22)
(1.06944 0.00840003 -3.8754e-23)
(1.06475 0.00915282 3.72062e-22)
(1.06078 0.00877752 -4.74898e-25)
(1.05752 0.00766626 -1.86369e-21)
(1.05491 0.00612373 -1.27445e-22)
(1.05283 0.00436261 9.19422e-22)
(1.05113 0.00256477 2.1332e-22)
(1.04968 0.000800943 1.46375e-28)
(0.784933 0.150841 -9.89147e-22)
(0.785588 0.0572901 -4.38136e-21)
(0.793648 -0.00873153 7.5826e-23)
(0.81052 -0.0665488 1.29595e-25)
(0.837077 -0.107174 8.2069e-22)
(0.871927 -0.128484 3.20222e-21)
(0.911412 -0.136159 5.2095e-21)
(0.951429 -0.135538 6.48861e-21)
(0.989306 -0.129142 1.76882e-21)
(1.02338 -0.117246 2.05714e-23)
(1.052 -0.100444 2.17048e-35)
(1.07377 -0.0803881 2.379e-22)
(1.08802 -0.0592707 6.14764e-22)
(1.09501 -0.0393368 3.68681e-22)
(1.09595 -0.0221966 7.54907e-24)
(1.09257 -0.00875704 -9.22277e-23)
(1.08673 0.000804646 2.03347e-22)
(1.08001 0.00688521 5.60403e-24)
(1.07343 0.0101666 -6.99273e-36)
(1.06756 0.0113718 1.19973e-21)
(1.06261 0.0111393 -3.6727e-23)
(1.0586 0.00998569 -1.96159e-21)
(1.05544 0.00829826 2.98138e-27)
(1.05299 0.0063644 1.58802e-21)
(1.05107 0.00437148 -2.26795e-21)
(1.04953 0.0024842 -1.17071e-22)
(1.04822 0.000744862 -1.34496e-22)
(0.781965 0.151802 2.64966e-22)
(0.782171 0.0591594 1.34771e-20)
(0.785338 -0.00843411 1.3896e-20)
(0.795577 -0.0723808 -5.18787e-21)
(0.817969 -0.117869 2.74409e-21)
(0.849852 -0.145047 4.57695e-22)
(0.888797 -0.155898 -2.31798e-21)
(0.930326 -0.156946 7.84306e-21)
(0.971345 -0.151345 1.07411e-21)
(1.0097 -0.13955 -9.24383e-21)
(1.04346 -0.121751 1.21034e-38)
(1.0706 -0.099376 -3.53438e-21)
(1.08974 -0.0748745 -1.77409e-25)
(1.10053 -0.0509017 3.15623e-21)
(1.10378 -0.0297578 -2.1414e-21)
(1.10117 -0.0127212 4.08435e-22)
(1.0948 -0.000297511 -2.39388e-23)
(1.08674 0.00777224 8.0925e-22)
(1.07856 0.0122466 9.62553e-23)
(1.07119 0.0140309 -3.18336e-22)
(1.06499 0.0139659 -2.21891e-21)
(1.06002 0.01273 -2.30744e-21)
(1.05616 0.0108317 -3.29945e-27)
(1.05323 0.00862894 1.7627e-21)
(1.05103 0.00637626 3.90518e-23)
(1.04935 0.0042256 7.52308e-35)
(1.04802 0.00231765 -6.28831e-23)
(1.04688 0.000663581 0)
(0.782096 0.151705 2.96773e-21)
(0.781288 0.0599198 1.07576e-20)
(0.782268 -0.0078993 -2.75021e-21)
(0.787284 -0.0753935 2.40286e-20)
(0.802297 -0.128696 2.26789e-20)
(0.829941 -0.160495 7.99381e-22)
(0.866347 -0.175668 1.84135e-21)
(0.90791 -0.17873 7.09029e-21)
(0.950792 -0.174316 5.41475e-21)
(0.992618 -0.163063 -7.50373e-21)
(1.03108 -0.1447 0)
(1.06374 -0.120319 -4.70708e-21)
(1.08841 -0.092462 -4.12922e-21)
(1.10401 -0.0642994 -9.15443e-22)
(1.11077 -0.0386659 1.88625e-22)
(1.11002 -0.0175579 3.67462e-22)
(1.10396 -0.00180067 -7.83082e-22)
(1.09493 0.00871654 9.53156e-22)
(1.08505 0.0147246 1.4754e-22)
(1.07584 0.0172626 4.19773e-22)
(1.06806 0.0174013 -3.51788e-22)
(1.06185 0.016039 -1.32702e-21)
(1.0571 0.0138406 1.6908e-22)
(1.05355 0.0112725 1.86556e-21)
(1.05097 0.00864257 1.73343e-22)
(1.0491 0.00615928 2.7022e-22)
(1.04772 0.00393208 7.59804e-22)
(1.04664 0.00207285 4.89565e-23)
(1.04572 0.000560903 -1.05467e-21)
(0.786586 0.15016 -1.54058e-21)
(0.783898 0.0600268 -4.19474e-21)
(0.781588 -0.008139 -1.92802e-20)
(0.783838 -0.0767129 1.4563e-20)
(0.793148 -0.135422 8.99526e-21)
(0.813177 -0.175591 4.15795e-21)
(0.845564 -0.194466 -6.48285e-21)
(0.885106 -0.200398 -2.29691e-21)
(0.928387 -0.197433 -8.11678e-21)
(0.972356 -0.18711 -2.11208e-20)
(1.01472 -0.168752 -1.33953e-36)
(1.05256 -0.142752 1.18701e-20)
(1.08303 -0.111652 8.45729e-21)
(1.10407 -0.0790895 -4.71889e-21)
(1.11545 -0.0486651 -3.74817e-21)
(1.11774 -0.0229125 -4.18091e-21)
(1.11304 -0.00337196 5.03056e-22)
(1.10397 0.00989582 -2.28213e-22)
(1.09285 0.0177401 -1.71541e-22)
(1.08172 0.0212372 1.10049e-21)
(1.07198 0.0216332 -1.58051e-21)
(1.0642 0.0200873 -1.59164e-21)
(1.05829 0.0174805 2.0781e-21)
(1.05396 0.0144155 1.97171e-21)
(1.05089 0.0112883 1.83344e-22)
(1.04875 0.00834024 -1.70789e-27)
(1.04728 0.00572465 -3.17143e-22)
(1.04624 0.00350488 -5.67527e-22)
(1.04544 0.00176074 -1.08589e-21)
(1.04476 0.00044151 -9.23202e-25)
(0.794837 0.147609 -9.1917e-21)
(0.790439 0.0589721 -6.60247e-21)
(0.78477 -0.00888266 -1.59661e-22)
(0.783872 -0.0784793 -1.40678e-20)
(0.789127 -0.139123 -1.78203e-20)
(0.802741 -0.185739 -8.23306e-21)
(0.827484 -0.212566 8.34519e-23)
(0.863402 -0.221079 -7.89064e-21)
(0.905015 -0.220078 -1.02214e-20)
(0.949644 -0.211036 -1.50055e-20)
(0.994537 -0.193175 -2.57572e-34)
(1.03685 -0.166247 6.44525e-21)
(1.07296 -0.132197 6.22962e-21)
(1.09994 -0.0950755 5.49678e-21)
(1.1165 -0.0593695 9.73552e-22)
(1.12302 -0.0284036 7.17482e-22)
(1.12059 -0.00448264 4.43194e-21)
(1.11244 0.0118219 -3.19726e-21)
(1.10112 0.021616 4.61214e-36)
(1.08864 0.0262009 1.68021e-21)
(1.0769 0.0269049 2.19125e-23)
(1.06718 0.0251037 -2.88962e-22)
(1.05979 0.021944 -2.23124e-21)
(1.05447 0.0182193 1.8554e-21)
(1.05076 0.0144309 5.97253e-22)
(1.04828 0.0108826 2.11796e-27)
(1.04666 0.00773871 -1.49126e-22)
(1.04563 0.00509363 2.14189e-22)
(1.04496 0.00296345 3.72056e-22)
(1.04447 0.00139477 7.71201e-23)
(1.04403 0.00031066 8.37476e-22)
(0.806936 0.14386 1.51026e-21)
(0.80082 0.0571138 2.41074e-21)
(0.791776 -0.0102047 7.39511e-21)
(0.787312 -0.0803729 9.49641e-21)
(0.788437 -0.142904 -2.06903e-20)
(0.797494 -0.191826 -4.7855e-21)
(0.815529 -0.225215 5.07572e-21)
(0.843845 -0.240698 9.33808e-21)
(0.882182 -0.241514 1.23181e-20)
(0.925335 -0.234064 -3.8192e-21)
(0.971234 -0.217316 -4.24135e-35)
(1.01663 -0.190047 -1.70566e-20)
(1.05789 -0.153833 -2.0985e-20)
(1.09101 -0.11239 -1.08987e-20)
(1.11342 -0.0709256 -3.35474e-21)
(1.12461 -0.034199 -1.29434e-22)
(1.12576 -0.00469899 -1.24803e-21)
(1.119 0.0151325 -2.50636e-22)
(1.10826 0.0269711 3.60086e-22)
(1.09555 0.0325824 3.7999e-22)
(1.08251 0.0335471 -1.19335e-22)
(1.07086 0.0313848 -3.14075e-21)
(1.06168 0.0274836 2.52231e-21)
(1.05508 0.0228816 1.68458e-21)
(1.05057 0.018228 2.04235e-22)
(1.04764 0.0138941 -5.35476e-23)
(1.04583 0.0100796 -1.56429e-22)
(1.04478 0.0068686 0)
(1.04422 0.00429552 -1.16783e-21)
(1.04392 0.00233146 -4.32351e-22)
(1.04374 0.000990464 8.10096e-22)
(1.04356 0.000173205 -7.28918e-22)
(0.822769 0.138994 -1.51452e-21)
(0.815028 0.0543449 -1.10122e-20)
(0.802618 -0.0120729 -4.06736e-21)
(0.794483 -0.0823558 4.80016e-21)
(0.791249 -0.146254 2.05331e-20)
(0.795549 -0.197634 1.53523e-20)
(0.808727 -0.23324 5.00802e-21)
(0.830257 -0.254624 1.90752e-21)
(0.860885 -0.261374 8.52796e-21)
(0.901009 -0.255575 -4.69681e-21)
(0.945626 -0.240216 -7.75339e-21)
(0.992601 -0.213578 -7.89219e-21)
(1.03768 -0.175777 -2.06337e-21)
(1.07663 -0.130856 6.13532e-21)
(1.10556 -0.0838785 -9.00999e-22)
(1.12257 -0.0407714 -2.84356e-21)
(1.12706 -0.00529593 -7.16478e-21)
(1.12365 0.0199468 3.04546e-21)
(1.11325 0.0344062 -4.12907e-21)
(1.10077 0.0410385 -1.56144e-21)
(1.0876 0.0420412 2.42961e-21)
(1.07484 0.0393131 -4.01368e-21)
(1.06394 0.0344247 2.23139e-22)
(1.0558 0.0286597 2.8852e-21)
(1.05028 0.0228697 2.04906e-21)
(1.04678 0.0175208 -6.22668e-23)
(1.04471 0.0128406 4.27883e-22)
(1.04363 0.00892236 0)
(1.04317 0.00577139 -1.19317e-21)
(1.04308 0.00336565 -4.50812e-22)
(1.04316 0.00163586 4.85452e-22)
(1.04327 0.000564668 -6.6092e-22)
(1.04335 3.07421e-05 -8.55083e-25)
(0.841989 0.133141 -2.48442e-20)
(0.832881 0.0507108 -7.57487e-21)
(0.817227 -0.014434 -2.37452e-21)
(0.805465 -0.0844688 -2.89053e-22)
(0.797767 -0.149209 2.09769e-20)
(0.797107 -0.202617 8.31723e-22)
(0.805065 -0.240723 -6.39367e-21)
(0.821785 -0.263748 -3.02228e-21)
(0.845518 -0.27545 2.93996e-21)
(0.877564 -0.274846 4.9302e-21)
(0.919417 -0.261396 1.37015e-25)
(0.965477 -0.235678 -6.42406e-22)
(1.01294 -0.197627 9.79767e-21)
(1.05652 -0.149622 1.62228e-20)
(1.0919 -0.0980173 8.85008e-22)
(1.11571 -0.0485004 8.30547e-21)
(1.12617 -0.00693279 8.10958e-22)
(1.12673 0.0247999 -3.90239e-22)
(1.11685 0.043632 3.09741e-25)
(1.10376 0.0520763 5.37961e-22)
(1.09049 0.053008 2.65964e-22)
(1.07782 0.0493667 1.03754e-22)
(1.06612 0.0431677 -6.05678e-22)
(1.05656 0.0358827 2.98162e-21)
(1.04983 0.0286012 -2.4928e-21)
(1.04562 0.0219346 2.75534e-36)
(1.04324 0.0161492 1.20107e-22)
(1.04211 0.0113298 1.68248e-22)
(1.04177 0.00746777 -1.1409e-21)
(1.04189 0.00449648 9.52901e-27)
(1.04225 0.00234411 9.82418e-22)
(1.04268 0.00090519 2.47514e-22)
(1.04308 0.000134521 1.45515e-22)
(1.04341 -0.000106903 5.27303e-22)
(0.864113 0.126269 1.41647e-20)
(0.853988 0.0464728 -5.37873e-22)
(0.835408 -0.0172992 -1.10109e-20)
(0.820184 -0.0866363 -9.73894e-21)
(0.808062 -0.151813 2.31107e-22)
(0.802326 -0.206743 -1.04004e-20)
(0.804824 -0.24714 -1.13917e-21)
(0.816226 -0.272183 9.37613e-21)
(0.835297 -0.284785 3.29648e-21)
(0.860171 -0.288374 -3.47872e-21)
(0.893374 -0.279656 5.9501e-21)
(0.937141 -0.256114 2.27802e-20)
(0.984291 -0.21798 7.93916e-22)
(1.03122 -0.168574 -7.20387e-21)
(1.07199 -0.112357 -2.16164e-20)
(1.10265 -0.0572769 -1.55393e-20)
(1.12059 -0.00887948 1.01208e-22)
(1.12573 0.0287003 1.25954e-21)
(1.11986 0.0538057 -1.97254e-34)
(1.10593 0.0653108 -7.23495e-21)
(1.09107 0.0668801 3.11096e-21)
(1.07813 0.0620649 -5.77647e-21)
(1.06686 0.0541423 -2.62775e-21)
(1.05687 0.0449386 3.68503e-21)
(1.04911 0.0357324 -1.69288e-22)
(1.04408 0.0273545 7.7172e-23)
(1.04132 0.0201515 1.63917e-21)
(1.04012 0.0141954 1.14174e-22)
(1.03991 0.00943882 -8.05337e-22)
(1.04029 0.00578271 -1.20424e-26)
(1.04097 0.0030993 8.5271e-22)
(1.04175 0.00127321 -9.30117e-22)
(1.0425 0.000167955 1.19334e-35)
(1.04316 -0.000283367 6.12254e-22)
(1.0437 -0.000234159 0)
(0.894853 0.116566 2.58295e-22)
(0.877858 0.0413281 1.58842e-20)
(0.856728 -0.0203523 1.28903e-20)
(0.838399 -0.0888803 -1.16565e-21)
(0.822055 -0.153983 -1.28873e-20)
(0.811272 -0.210039 9.77535e-21)
(0.808171 -0.252343 3.32278e-21)
(0.81394 -0.279413 1.08043e-20)
(0.827769 -0.293265 9.79061e-21)
(0.848023 -0.297357 -1.38178e-20)
(0.873655 -0.292456 -1.0519e-20)
(0.908168 -0.273062 -5.14974e-22)
(0.953829 -0.237061 8.44434e-22)
(1.00121 -0.185982 4.30233e-21)
(1.04626 -0.127177 2.9221e-21)
(1.08298 -0.066145 7.02777e-21)
(1.10799 -0.0114605 1.05597e-20)
(1.11981 0.0326279 3.10711e-22)
(1.11941 0.0636891 -2.76867e-21)
(1.10808 0.0800267 1.4344e-21)
(1.09144 0.0833978 4.39145e-21)
(1.07604 0.0777885 -8.98483e-21)
(1.06458 0.0677251 1.90835e-21)
(1.05543 0.0561843 -1.00341e-22)
(1.04762 0.0446153 3.81888e-22)
(1.04196 0.0340528 8.089e-23)
(1.03879 0.0250301 1.86609e-22)
(1.03753 0.0176343 3.82343e-23)
(1.0375 0.0117632 -1.72103e-22)
(1.03819 0.00725665 6.71239e-22)
(1.03925 0.00394127 8.44913e-22)
(1.04043 0.00163788 -7.05443e-22)
(1.04159 0.000194806 -3.46546e-22)
(1.04262 -0.000546902 -1.72002e-22)
(1.0435 -0.0006736 -4.16927e-23)
(1.04423 -0.000347247 -3.79571e-23)
(0.934581 0.104022 -4.35546e-21)
(0.910233 0.034753 9.35016e-23)
(0.880665 -0.0239505 -1.85216e-21)
(0.859675 -0.0909107 1.20064e-20)
(0.839493 -0.155747 -1.8773e-20)
(0.823873 -0.212428 2.1171e-21)
(0.815196 -0.256353 7.41408e-23)
(0.815146 -0.285237 -8.78322e-22)
(0.823358 -0.300399 -7.6951e-21)
(0.838334 -0.305162 1.205e-21)
(0.85935 -0.301064 3.28799e-21)
(0.885864 -0.285192 5.81039e-21)
(0.921789 -0.252218 2.29476e-21)
(0.968889 -0.202882 -2.15687e-20)
(1.01521 -0.14031 -2.67678e-20)
(1.0569 -0.0756875 1.26391e-21)
(1.08856 -0.0141619 3.12552e-21)
(1.10755 0.0363168 -2.38394e-22)
(1.11361 0.0732751 8.97482e-21)
(1.10783 0.0950764 -4.36649e-21)
(1.09267 0.101765 -5.87924e-21)
(1.07419 0.0965074 9.29947e-21)
(1.05967 0.0842518 -4.29015e-21)
(1.05069 0.0698384 4.65945e-21)
(1.04417 0.0555295 -4.13566e-22)
(1.03883 0.0423289 -6.02835e-22)
(1.03546 0.0310074 -1.24001e-21)
(1.03419 0.0217871 -2.48453e-21)
(1.0344 0.0145228 -2.46834e-21)
(1.03548 0.00897015 -1.58105e-22)
(1.03701 0.0048804 8.94841e-22)
(1.03867 0.0020202 -6.78051e-22)
(1.04029 0.000169285 8.86473e-27)
(1.04175 -0.000849478 3.00914e-22)
(1.04301 -0.00121232 8.6122e-36)
(1.04406 -0.00102196 2.45512e-23)
(1.04494 -0.000442325 -1.16259e-28)
(0.974418 0.0903191 -5.52354e-20)
(0.951286 0.0277661 2.22749e-21)
(0.91297 -0.0281407 3.55378e-22)
(0.883553 -0.0929988 1.19087e-24)
(0.859928 -0.156829 3.60948e-21)
(0.839858 -0.213914 -5.14831e-21)
(0.825809 -0.259075 -6.97048e-21)
(0.819914 -0.289686 6.23146e-21)
(0.822356 -0.306044 -8.21827e-21)
(0.831546 -0.311398 -6.38009e-21)
(0.847297 -0.308104 8.61833e-21)
(0.869262 -0.293703 2.20903e-21)
(0.89667 -0.263601 9.87469e-22)
(0.933834 -0.215435 -2.47879e-22)
(0.981439 -0.154092 9.25411e-21)
(1.02523 -0.0833431 5.66933e-21)
(1.06222 -0.0175173 -1.23148e-20)
(1.08823 0.0399444 4.85898e-21)
(1.10143 0.0828269 -1.59791e-20)
(1.10234 0.109928 -1.07196e-21)
(1.09214 0.120955 9.09295e-22)
(1.07397 0.117622 -5.45214e-21)
(1.05517 0.104001 -4.68497e-21)
(1.04297 0.0861665 6.15422e-21)
(1.03725 0.0685429 5.14269e-22)
(1.03363 0.052393 9.81536e-35)
(1.0309 0.0383196 -1.86258e-22)
(1.02985 0.0268202 -9.64628e-23)
(1.03042 0.0178143 -1.14908e-22)
(1.03202 0.0109715 9.40404e-22)
(1.03412 0.00594203 7.05353e-22)
(1.03637 0.00240935 -7.18403e-22)
(1.03855 9.42752e-05 -1.11502e-26)
(1.04052 -0.00125014 4.34786e-22)
(1.04223 -0.00182054 9.55748e-23)
(1.04366 -0.00180449 1.09133e-22)
(1.04484 -0.00131601 9.39548e-24)
(1.04582 -0.000516141 2.44058e-23)
(1.01382 0.0770056 9.1082e-22)
(0.991341 0.0195045 7.26319e-22)
(0.953622 -0.0303825 -1.67182e-20)
(0.915376 -0.0949739 6.13046e-22)
(0.882631 -0.15762 9.73914e-22)
(0.858754 -0.214222 -1.2163e-21)
(0.839687 -0.260408 -2.65663e-21)
(0.82804 -0.292546 -1.25118e-21)
(0.824663 -0.310216 -4.11642e-22)
(0.828091 -0.315716 1.16916e-21)
(0.837941 -0.313382 1.94254e-21)
(0.854842 -0.30021 -1.02545e-20)
(0.877667 -0.27221 9.77128e-22)
(0.905762 -0.225809 -1.15846e-21)
(0.943544 -0.16273 5.05507e-21)
(0.990276 -0.0931179 2.3098e-20)
(1.03033 -0.0190665 7.00284e-21)
(1.06178 0.0432059 -5.16281e-22)
(1.08206 0.0925168 1.90665e-21)
(1.09001 0.124931 9.51966e-22)
(1.08644 0.140402 3.18332e-35)
(1.07275 0.140135 1.0695e-20)
(1.05294 0.126785 -2.48397e-21)
(1.03545 0.105748 -8.9069e-21)
(1.02694 0.0838014 1.11733e-21)
(1.02492 0.0641898 2.8764e-22)
(1.02424 0.0471194 4.08991e-21)
(1.02415 0.0329009 1.03575e-21)
(1.02533 0.0217476 -1.57177e-21)
(1.0276 0.0133149 -5.33105e-22)
(1.03044 0.00714219 -2.49828e-22)
(1.03342 0.00280544 -8.36107e-22)
(1.03629 -6.09436e-05 6.94536e-22)
(1.03888 -0.00176349 3.73207e-22)
(1.04112 -0.00256781 0)
(1.04299 -0.00268372 -1.67581e-22)
(1.04452 -0.00230259 -2.24473e-22)
(1.04577 -0.00154538 -1.28015e-24)
(1.04682 -0.000566104 1.94545e-23)
(1.04896 0.0640274 -4.36046e-22)
(1.02898 0.012387 -4.3213e-21)
(0.993504 -0.0338266 1.38824e-20)
(0.954843 -0.0927106 8.93267e-26)
(0.912912 -0.157209 0)
(0.879805 -0.213816 2.31508e-21)
(0.856361 -0.260094 -8.11578e-22)
(0.839197 -0.293579 -4.89109e-21)
(0.829885 -0.312316 1.75528e-21)
(0.827876 -0.317854 1.04285e-22)
(0.831687 -0.316763 -5.83941e-22)
(0.843108 -0.304898 -5.39933e-21)
(0.860857 -0.278179 -1.35147e-20)
(0.884396 -0.234716 1.25866e-20)
(0.912717 -0.171772 -3.13183e-22)
(0.95011 -0.096056 -2.55427e-21)
(0.994122 -0.0239275 -6.98782e-21)
(1.02986 0.0475071 -1.17167e-20)
(1.05574 0.102117 2.24699e-21)
(1.07055 0.140118 -2.13435e-20)
(1.0739 0.160107 1.87711e-20)
(1.06672 0.163252 -6.9207e-21)
(1.05061 0.151642 -1.57151e-20)
(1.0306 0.128929 1.22444e-20)
(1.01621 0.102061 -5.51295e-22)
(1.01242 0.0777007 1.7989e-23)
(1.01418 0.0572665 -4.30333e-22)
(1.01635 0.0401339 4.49746e-35)
(1.01877 0.0264205 -1.55292e-21)
(1.02201 0.0160565 -1.38525e-21)
(1.02579 0.00849601 -3.10596e-22)
(1.02969 0.00319475 3.27255e-22)
(1.0334 -0.000319565 3.42379e-22)
(1.03675 -0.00243804 2.28162e-22)
(1.03963 -0.00348537 0)
(1.04204 -0.00373722 -2.23383e-23)
(1.04399 -0.0034086 -2.09611e-23)
(1.04556 -0.00268904 1.05785e-22)
(1.04682 -0.00170212 4.71132e-23)
(1.04789 -0.00059068 4.52426e-29)
(1.07807 0.0520979 1.63443e-21)
(1.06205 0.00565128 -1.02308e-21)
(1.03077 -0.0358455 5.97096e-21)
(0.994225 -0.0911964 -6.93302e-21)
(0.951184 -0.151309 -6.41258e-21)
(0.908341 -0.210707 -1.21475e-21)
(0.875199 -0.258621 -4.38041e-21)
(0.853106 -0.292509 -1.47094e-21)
(0.838059 -0.312283 -3.19511e-21)
(0.830529 -0.318315 -2.56727e-21)
(0.828873 -0.318398 8.9016e-21)
(0.8344 -0.30764 -8.7316e-21)
(0.846749 -0.281997 -2.17332e-21)
(0.865179 -0.240388 1.25391e-20)
(0.889467 -0.181028 -4.09177e-21)
(0.917373 -0.103868 -1.19501e-20)
(0.953255 -0.0196628 -4.55187e-21)
(0.992612 0.0486895 -1.30766e-21)
(1.02391 0.111674 6.91911e-21)
(1.04456 0.155201 2.70272e-21)
(1.05449 0.179869 -9.81575e-25)
(1.05406 0.18658 -1.27776e-21)
(1.04416 0.177393 1.03343e-20)
(1.02669 0.154938 -1.01647e-20)
(1.00815 0.124234 -1.39697e-21)
(0.998619 0.0936541 -1.04066e-26)
(1.00008 0.068574 -6.59405e-22)
(1.00537 0.0483295 -5.70773e-22)
(1.01018 0.0318943 -1.89504e-22)
(1.0149 0.0192303 2.26897e-21)
(1.01993 0.0100113 6.36083e-22)
(1.02499 0.00355755 1.02522e-21)
(1.02975 -0.000721974 -8.95096e-36)
(1.03403 -0.00331823 -8.65402e-22)
(1.03771 -0.00463686 -5.56797e-22)
(1.04077 -0.00501119 -1.34718e-23)
(1.04324 -0.00471765 1.26168e-27)
(1.04519 -0.00396979 6.62083e-23)
(1.04673 -0.00295058 -7.86395e-23)
(1.04795 -0.00178122 -3.3638e-23)
(1.04898 -0.000589346 -1.326e-23)
(1.09844 0.0412859 -1.51648e-21)
(1.08894 6.27935e-05 -1.42893e-22)
(1.06348 -0.0374194 7.49323e-22)
(1.03066 -0.0880997 -3.70335e-36)
(0.989403 -0.145127 5.59525e-21)
(0.944515 -0.202443 6.06159e-21)
(0.901553 -0.253662 5.69436e-23)
(0.869272 -0.289977 2.85697e-21)
(0.849108 -0.31039 -4.73805e-22)
(0.836299 -0.317635 -6.29591e-21)
(0.829614 -0.317868 4.92404e-21)
(0.828916 -0.30825 -2.1138e-20)
(0.835611 -0.283607 -9.33206e-21)
(0.848614 -0.243757 -2.43223e-20)
(0.868181 -0.186576 3.40994e-20)
(0.892942 -0.113246 9.4539e-21)
(0.920147 -0.0270773 -3.51616e-21)
(0.952497 0.0590115 0)
(0.986781 0.119072 1.05043e-20)