/*--------------------------------*- C++ -*----------------------------------*\
| =========                 |                                                 |
| \\      /  F ield         | OpenFOAM: The Open Source CFD Toolbox           |
|  \\    /   O peration     | Version:  2506                                  |
|   \\  /    A nd           | Website:  www.openfoam.com                      |
|    \\/     M anipulation  |                                                 |
\*---------------------------------------------------------------------------*/
FoamFile
{
    version     2.0;
    format      ascii;
    arch        "LSB;label=32;scalar=64";
    class       volVectorField;
    location    "24";
    object      U;
}
// * * * * * * * * * * * * * * * * * * * * * * * * * * * * * * * * * * * * * //

dimensions      [0 1 -1 0 0 0 0];

internalField   nonuniform List<vector> 
400
(
(0.00137697 -0.00142289 0)
(0.00386541 -0.00155914 0)
(0.00509815 -0.00102809 0)
(0.00408585 -0.000461916 0)
(0.000249048 0.000279122 0)
(-0.00740915 0.00168485 0)
(-0.0198414 0.00425863 0)
(-0.0369178 0.00762191 0)
(-0.0563234 0.0100124 0)
(-0.0735064 0.0096232 0)
(-0.0840046 0.00643214 0)
(-0.0852736 0.00176535 0)
(-0.0763318 -0.00315833 0)
(-0.0577855 -0.00758086 0)
(-0.0331497 -0.0100731 0)
(-0.00661931 -0.00918135 0)
(0.014267 -0.00468919 0)
(0.0219629 0.00235602 0)
(0.0148228 0.00587326 0)
(0.00403535 0.00433821 0)
(0.00119842 -0.00395351 0)
(0.00173476 -0.00288401 0)
(-0.00214768 0.000974433 0)
(-0.0122241 0.00605522 0)
(-0.030266 0.0127488 0)
(-0.0568938 0.0212907 0)
(-0.0894396 0.0297262 0)
(-0.121923 0.0339982 0)
(-0.148484 0.0314745 0)
(-0.165578 0.022616 0)
(-0.171569 0.00947865 0)
(-0.166267 -0.00565028 0)
(-0.150226 -0.0209909 0)
(-0.124052 -0.0341831 0)
(-0.0899522 -0.0416936 0)
(-0.0506273 -0.0394592 0)
(-0.0118131 -0.0252747 0)
(0.0150199 -0.00199602 0)
(0.016458 0.0146758 0)
(0.00523842 0.0136993 0)
(-0.000665178 -0.00382569 0)
(-0.00601534 0.00231157 0)
(-0.0192956 0.0136655 0)
(-0.0417262 0.0282531 0)
(-0.0739268 0.0445135 0)
(-0.112377 0.0585788 0)
(-0.150428 0.0654468 0)
(-0.182496 0.0624671 0)
(-0.205988 0.0503753 0)
(-0.220033 0.0313951 0)
(-0.224477 0.00782689 0)
(-0.219844 -0.0182682 0)
(-0.206449 -0.0447755 0)
(-0.183863 -0.0682321 0)
(-0.151839 -0.0837183 0)
(-0.110437 -0.0845018 0)
(-0.0616146 -0.0641038 0)
(-0.0135457 -0.0227946 0)
(0.00886221 0.015839 0)
(0.00410223 0.0219369 0)
(-0.00331454 0.00243011 0)
(-0.0163107 0.0175431 0)
(-0.0399988 0.0381001 0)
(-0.0726704 0.0616432 0)
(-0.112405 0.08316 0)
(-0.153136 0.0963803 0)
(-0.188574 0.0972866 0)
(-0.216003 0.0861947 0)
(-0.235269 0.0658554 0)
(-0.246782 0.0389336 0)
(-0.251257 0.00739103 0)
(-0.249494 -0.0273663 0)
(-0.241505 -0.0632165 0)
(-0.226293 -0.0972454 0)
(-0.20196 -0.124241 0)
(-0.165912 -0.13574 0)
(-0.115918 -0.120123 0)
(-0.0541527 -0.0685182 0)
(-0.00114102 0.00185372 0)
(0.00466552 0.0263848 0)
(-0.00601503 0.0155422 0)
(-0.0258811 0.0418127 0)
(-0.0571656 0.0703619 0)
(-0.0948449 0.0993611 0)
(-0.135219 0.121388 0)
(-0.171855 0.130143 0)
(-0.20062 0.123994 0)
(-0.221114 0.10561 0)
(-0.234359 0.0787003 0)
(-0.241871 0.0461177 0)
(-0.245333 0.00955964 0)
(-0.245787 -0.0300973 0)
(-0.243165 -0.0716945 0)
(-0.236811 -0.113873 0)
(-0.224084 -0.152861 0)
(-0.200438 -0.180494 0)
(-0.160124 -0.181975 0)
(-0.0988413 -0.137295 0)
(-0.0211762 -0.0383673 0)
(0.00698306 0.0253175 0)
(-0.00755581 0.0333984 0)
(-0.0313994 0.071239 0)
(-0.0658115 0.105222 0)
(-0.103136 0.136047 0)
(-0.139159 0.155363 0)
(-0.168395 0.158015 0)
(-0.188849 0.144723 0)
(-0.201471 0.119856 0)
(-0.20804 0.0877975 0)
(-0.21091 0.0517021 0)
(-0.212222 0.0132624 0)
(-0.213156 -0.0270114 0)
(-0.214042 -0.0694855 0)
(-0.214921 -0.114623 0)
(-0.213668 -0.161335 0)
(-0.205173 -0.204296 0)
(-0.181466 -0.229543 0)
(-0.134236 -0.210428 0)
(-0.0595085 -0.114266 0)
(0.00533257 0.0130887 0)
(-0.00732685 0.0530374 0)
(-0.0314864 0.101649 0)
(-0.0647361 0.138406 0)
(-0.0979101 0.16823 0)
(-0.127171 0.182992 0)
(-0.148399 0.178978 0)
(-0.16125 0.158888 0)
(-0.16743 0.128366 0)
(-0.169187 0.0923845 0)
(-0.169058 0.0542783 0)
(-0.168843 0.0155964 0)
(-0.169415 -0.0234787 0)
(-0.171425 -0.0640493 0)
(-0.17551 -0.107633 0)
(-0.180998 -0.155561 0)
(-0.184125 -0.206824 0)
(-0.17685 -0.252367 0)
(-0.149219 -0.266047 0)
(-0.0950921 -0.198615 0)
(-0.00833609 -0.0147337 0)
(-0.00541986 0.0713104 0)
(-0.0265511 0.129649 0)
(-0.0554444 0.167351 0)
(-0.0824882 0.194537 0)
(-0.104559 0.20406 0)
(-0.118919 0.193576 0)
(-0.126282 0.167438 0)
(-0.12869 0.132304 0)
(-0.128511 0.0935485 0)
(-0.127887 0.0543671 0)
(-0.12779 0.0158744 0)
(-0.128489 -0.0221374 0)
(-0.130524 -0.0607229 0)
(-0.134768 -0.101371 0)
(-0.141906 -0.14645 0)
(-0.150519 -0.198677 0)
(-0.154309 -0.255997 0)
(-0.14276 -0.298386 0)
(-0.108691 -0.268434 0)
(-0.0293461 -0.0721969 0)
(-0.00240952 0.0854663 0)
(-0.0181636 0.152653 0)
(-0.040749 0.190394 0)
(-0.0609573 0.214245 0)
(-0.0763999 0.218787 0)
(-0.0854996 0.202921 0)
(-0.0894982 0.17218 0)
(-0.0903839 0.133889 0)
(-0.0902481 0.0935939 0)
(-0.0905221 0.0541491 0)
(-0.0914146 0.0160862 0)
(-0.0928058 -0.0212379 0)
(-0.0949221 -0.0586502 0)
(-0.0984422 -0.0970331 0)
(-0.104703 -0.138461 0)
(-0.114516 -0.187554 0)
(-0.124408 -0.248981 0)
(-0.123646 -0.313126 0)
(-0.104831 -0.324597 0)
(-0.0361384 -0.156285 0)
(0.00105931 0.0934865 0)
(-0.00789076 0.169003 0)
(-0.0230696 0.20699 0)
(-0.0363883 0.22797 0)
(-0.0459681 0.228686 0)
(-0.0511429 0.208991 0)
(-0.0532131 0.175196 0)
(-0.0537631 0.135068 0)
(-0.0543432 0.0941885 0)
(-0.0557229 0.0549708 0)
(-0.0577084 0.0173713 0)
(-0.0600584 -0.019563 0)
(-0.062786 -0.0564898 0)
(-0.0662022 -0.0937104 0)
(-0.0714609 -0.13229 0)
(-0.0804086 -0.176784 0)
(-0.0930067 -0.236377 0)
(-0.0989627 -0.3135 0)
(-0.0935884 -0.361832 0)
(-0.0304249 -0.234027 0)
(0.00442984 0.094412 0)
(0.0027169 0.177668 0)
(-0.00472274 0.216785 0)
(-0.0113612 0.235614 0)
(-0.0156894 0.233698 0)
(-0.0175708 0.211859 0)
(-0.0181666 0.176764 0)
(-0.0185132 0.136209 0)
(-0.0195558 0.0955635 0)
(-0.0216118 0.0568917 0)
(-0.0243523 0.019846 0)
(-0.0275931 -0.0166245 0)
(-0.0313545 -0.0531699 0)
(-0.0356525 -0.0898325 0)
(-0.0411799 -0.126757 0)
(-0.0495293 -0.167238 0)
(-0.0636688 -0.222448 0)
(-0.0735901 -0.306454 0)
(-0.0804308 -0.385846 0)
(-0.0227784 -0.297693 0)
(0.00718171 0.0886469 0)
(0.0126301 0.178418 0)
(0.0128292 0.219972 0)
(0.0126632 0.238074 0)
(0.0134474 0.235133 0)
(0.0149058 0.212805 0)
(0.0160494 0.17779 0)
(0.0163269 0.137698 0)
(0.0153626 0.0976551 0)
(0.0131533 0.0596108 0)
(0.0100262 0.0232429 0)
(0.00605678 -0.0124727 0)
(0.00111194 -0.0482445 0)
(-0.0047167 -0.084108 0)
(-0.0118266 -0.119815 0)
(-0.020735 -0.15705 0)
(-0.0368817 -0.206642 0)
(-0.0492828 -0.292405 0)
(-0.0679803 -0.3978 0)
(-0.0146178 -0.350434 0)
(0.00856834 0.0773787 0)
(0.0204891 0.171381 0)
(0.0279058 0.216082 0)
(0.0338115 0.234344 0)
(0.0396435 0.231472 0)
(0.0449998 0.210077 0)
(0.0488685 0.176526 0)
(0.0508396 0.13796 0)
(0.0508562 0.0992392 0)
(0.0491319 0.0623197 0)
(0.0459929 0.0270815 0)
(0.0414256 -0.00740009 0)
(0.0353211 -0.0418303 0)
(0.0276908 -0.0763253 0)
(0.0179221 -0.110564 0)
(0.00687984 -0.145214 0)
(-0.0124507 -0.189767 0)
(-0.0259211 -0.27395 0)
(-0.056617 -0.400486 0)
(-0.00651298 -0.392639 0)
(0.00802887 0.0626965 0)
(0.0249811 0.157138 0)
(0.039343 0.205621 0)
(0.0514521 0.225495 0)
(0.0627188 0.224021 0)
(0.0727596 0.204844 0)
(0.0804647 0.17389 0)
(0.0853033 0.137663 0)
(0.0872807 0.100784 0)
(0.0867012 0.0653477 0)
(0.0839354 0.031597 0)
(0.0789314 -0.00119791 0)
(0.0715494 -0.033522 0)
(0.0619567 -0.0658506 0)
(0.0491197 -0.0979555 0)
(0.0346018 -0.129972 0)
(0.010694 -0.169645 0)
(-0.00269783 -0.250776 0)
(-0.0462215 -0.396783 0)
(0.00215553 -0.427941 0)
(0.0055615 0.047754 0)
(0.024724 0.137911 0)
(0.0445986 0.188271 0)
(0.0625161 0.209062 0)
(0.0796133 0.209025 0)
(0.0954032 0.19275 0)
(0.108419 0.165556 0)
(0.117733 0.133044 0)
(0.123134 0.0993879 0)
(0.124847 0.0667101 0)
(0.123162 0.0356052 0)
(0.118256 0.00559625 0)
(0.109681 -0.0235924 0)
(0.0980391 -0.0526246 0)
(0.0814977 -0.0815158 0)
(0.0628742 -0.11101 0)
(0.0338012 -0.146867 0)
(0.0203533 -0.225112 0)
(-0.0363964 -0.389918 0)
(0.0125388 -0.457591 0)
(0.00181888 0.0354473 0)
(0.0193769 0.1163 0)
(0.0435942 0.166992 0)
(0.067444 0.188718 0)
(0.0910095 0.190194 0)
(0.113364 0.176963 0)
(0.13272 0.154025 0)
(0.147648 0.126029 0)
(0.157558 0.0965637 0)
(0.162566 0.0676218 0)
(0.162642 0.040061 0)
(0.158482 0.013753 0)
(0.148896 -0.0115398 0)
(0.135386 -0.0363256 0)
(0.114896 -0.0609402 0)
(0.0922167 -0.0870717 0)
(0.05786 -0.12021 0)
(0.0428228 -0.197034 0)
(-0.0252964 -0.380294 0)
(0.0271672 -0.480635 0)
(-0.00315726 0.0313122 0)
(0.00679176 0.09755 0)
(0.0300221 0.138574 0)
(0.0591571 0.157276 0)
(0.0900761 0.159412 0)
(0.120394 0.149539 0)
(0.147544 0.131783 0)
(0.169651 0.109698 0)
(0.185551 0.0862041 0)
(0.195362 0.0629666 0)
(0.198407 0.0409568 0)
(0.196117 0.0201959 0)
(0.186357 0.000574358 0)
(0.172176 -0.0184637 0)
(0.148578 -0.0373021 0)
(0.12336 -0.0592101 0)
(0.0842264 -0.0915238 0)
(0.0651391 -0.171177 0)
(-0.00721055 -0.365514 0)
(0.0507334 -0.488769 0)
(-0.0119637 0.0213609 0)
(-0.00790591 0.0877567 0)
(0.0138995 0.118699 0)
(0.0472187 0.129074 0)
(0.0849452 0.12828 0)
(0.122588 0.120255 0)
(0.156929 0.107341 0)
(0.185492 0.0913013 0)
(0.206808 0.0743597 0)
(0.221477 0.0574755 0)
(0.227728 0.0418047 0)
(0.22877 0.0271951 0)
(0.220412 0.0141174 0)
(0.209299 0.00145614 0)
(0.186259 -0.0111684 0)
(0.164625 -0.0290337 0)
(0.1235 -0.0609832 0)
(0.102106 -0.141263 0)
(0.0346698 -0.324963 0)
(0.0912894 -0.455025 0)
(-0.104747 0.0844488 0)
(-0.0772357 0.0699869 0)
(-0.0504217 0.0707456 0)
(-0.00157404 0.0733706 0)
(0.0481754 0.0730814 0)
(0.0975471 0.0692129 0)
(0.142182 0.0627943 0)
(0.182611 0.0544096 0)
(0.213806 0.045752 0)
(0.241348 0.0369509 0)
(0.25736 0.0291374 0)
(0.272809 0.0218385 0)
(0.27438 0.0158568 0)
(0.279584 0.0100553 0)
(0.265735 0.00387 0)
(0.260561 -0.00706679 0)
(0.223847 -0.0326048 0)
(0.213507 -0.0937208 0)
(0.148749 -0.229479 0)
(0.170357 -0.341445 0)
(0.130811 0.104554 0)
(0.160151 0.0770219 0)
(0.214846 0.0550432 0)
(0.272801 0.0429012 0)
(0.32378 0.0366072 0)
(0.373941 0.0322375 0)
(0.416385 0.0290359 0)
(0.459779 0.0256575 0)
(0.491645 0.0230469 0)
(0.526071 0.0199213 0)
(0.545333 0.0178763 0)
(0.571257 0.0150101 0)
(0.578033 0.0136974 0)
(0.597207 0.0109489 0)
(0.589976 0.0101028 0)
(0.599895 0.0056718 0)
(0.565779 0.0007478 0)
(0.547418 -0.0177969 0)
(0.436781 -0.0501785 0)
(0.337429 -0.101334 0)
)
;

boundaryField
{
    movingWall
    {
        type            fixedValue;
        value           uniform (1 0 0);
    }
    fixedWalls
    {
        type            noSlip;
    }
    frontAndBack
    {
        type            empty;
    }
}


// ************************************************************************* //
