/*--------------------------------*- C++ -*----------------------------------*\
| =========                 |                                                 |
| \\      /  F ield         | OpenFOAM: The Open Source CFD Toolbox           |
|  \\    /   O peration     | Version:  2506                                  |
|   \\  /    A nd           | Website:  www.openfoam.com                      |
|    \\/     M anipulation  |                                                 |
\*---------------------------------------------------------------------------*/
FoamFile
{
    version     2.0;
    format      ascii;
    arch        "LSB;label=32;scalar=64";
    class       surfaceScalarField;
    location    "100";
    object      phi;
}
// * * * * * * * * * * * * * * * * * * * * * * * * * * * * * * * * * * * * * //

dimensions      [0 3 -1 0 0 0 0];

oriented        oriented;

internalField   nonuniform List<scalar> 
2584
(
0.210862
-0.250511
0.245434
-0.274726
-0.246485
0.214973
-0.28242
0.251459
-0.311212
0.283196
-0.278222
0.314253
-0.271924
-0.261749
0.219707
-0.316074
0.258217
-0.349722
0.291554
-0.311558
0.324199
-0.304569
0.356054
-0.293604
0.384595
-0.264819
-0.243276
0.224895
-0.351576
0.265547
-0.390374
0.300709
-0.34672
0.335082
-0.338942
0.368556
-0.327078
0.398486
-0.294749
0.426038
-0.270827
-0.245149
0.230599
-0.389031
0.273534
-0.433309
0.310568
-0.383754
0.34671
-0.375083
0.38192
-0.362288
0.413367
-0.326196
0.442209
-0.299671
0.468489
-0.271428
-0.240991
0.236786
-0.428507
0.282116
-0.47864
0.321099
-0.422737
0.359156
-0.41314
0.396284
-0.399416
0.429246
-0.359157
0.459502
-0.329927
0.487098
-0.299024
-0.265439
0.243451
-0.47011
0.291288
-0.526476
0.332329
-0.463778
0.372475
-0.453286
0.411541
-0.438482
0.446184
-0.393799
0.477971
-0.361714
0.50684
-0.327893
0.532358
-0.290957
-0.260107
0.250566
-0.514029
0.301066
-0.576976
0.344328
-0.50704
0.386616
-0.495574
0.427705
-0.479572
0.464176
-0.43027
0.497547
-0.395085
0.527778
-0.358124
0.554497
-0.317677
0.578593
-0.284202
-0.251235
0.258246
-0.560376
0.31144
-0.63017
0.357135
-0.552735
0.401596
-0.540035
0.444924
-0.5229
0.48323
-0.468576
0.518294
-0.430149
0.550035
-0.389865
0.57803
-0.345672
0.603095
-0.309268
-0.273689
0.266312
-0.609199
0.322542
-0.6864
0.370561
-0.600753
0.417509
-0.586983
0.463094
-0.568485
0.503474
-0.508956
0.540257
-0.466932
0.573556
-0.423163
0.60286
-0.374977
0.629162
-0.335569
0.652522
-0.297049
-0.260494
0.27493
-0.66069
0.334207
-0.745677
0.384921
-0.651467
0.43431
-0.636372
0.482395
-0.616569
0.524787
-0.551348
0.563492
-0.505637
0.598463
-0.458134
0.629219
-0.405733
0.656674
-0.363024
0.681144
-0.32152
-0.282121
0.284097
-0.715019
0.346633
-0.808214
0.400037
-0.704871
0.452125
-0.68846
0.502714
-0.667158
0.547376
-0.59601
0.588067
-0.546328
0.624799
-0.494867
0.65696
-0.437894
0.68576
-0.391825
0.711267
-0.347027
0.733832
-0.304687
-0.266197
0.293767
-0.772291
0.359738
-0.874184
0.41605
-0.761183
0.470903
-0.743313
0.524224
-0.720479
0.5712
-0.642986
0.614045
-0.589173
0.652597
-0.533418
0.686412
-0.47171
0.716519
-0.421932
0.743224
-0.373732
0.76677
-0.328234
-0.287023
0.304041
-0.832727
0.3736
-0.943743
0.432889
-0.820472
0.490791
-0.801215
0.546917
-0.776605
0.596384
-0.692453
0.641367
-0.634156
0.681977
-0.574029
0.71741
-0.507143
0.749001
-0.453522
0.776914
-0.401645
0.801492
-0.352812
0.823257
-0.308788
-0.265489
0.314853
-0.896427
0.388223
-1.01711
0.450771
-0.88302
0.5117
-0.862144
0.570853
-0.835757
0.622934
-0.744534
0.670334
-0.681556
0.712899
-0.616594
0.750119
-0.544363
0.783214
-0.486618
0.81249
-0.430921
0.838186
-0.378508
0.860899
-0.331501
-0.285368
0.326306
-0.963578
0.403673
-1.09448
0.469612
-0.948959
0.533814
-0.926346
0.59616
-0.898103
0.650989
-0.799363
0.700799
-0.731365
0.745609
-0.661404
0.784695
-0.58345
0.819424
-0.521347
0.850035
-0.461532
0.876852
-0.405325
0.900568
-0.355217
-0.30607
0.338355
-1.03437
0.41994
-1.17606
0.489431
-1.01845
0.557108
-0.994022
0.622774
-0.963768
0.680518
-0.857107
0.732954
-0.783801
0.780074
-0.708524
0.821099
-0.624475
0.857556
-0.557804
0.889655
-0.493631
0.917745
-0.433415
0.942513
-0.379984
0.964088
-0.327644
-0.277761
0.351144
-1.10907
0.43716
-1.26208
0.510417
-1.09171
0.581734
-1.06534
0.650903
-1.03294
0.711696
-0.917899
0.766878
-0.838982
0.816455
-0.758102
0.859569
-0.66759
0.8978
-0.596035
0.931394
-0.527225
0.960873
-0.462893
0.986549
-0.405659
1.00928
-0.35037
-0.297241
0.364549
-1.18775
0.455298
-1.35283
0.532475
-1.16889
0.607634
-1.1405
0.680537
-1.10584
0.744501
-0.981863
0.802623
-0.897105
0.854731
-0.81021
0.900057
-0.712915
0.940147
-0.636126
0.975536
-0.562613
1.0061
-0.493461
1.03335
-0.432903
1.05671
-0.373732
-0.317619
0.378767
-1.27077
0.474408
-1.44847
0.555754
-1.25023
0.63495
-1.21969
0.711756
-1.18265
0.779171
-1.04928
0.840323
-0.958255
0.895136
-0.865024
0.942885
-0.760664
0.985031
-0.678271
1.02189
-0.599468
1.0543
-0.525873
1.0824
-0.460998
1.10701
-0.398342
1.12812
-0.338727
-0.27981
0.39373
-1.35828
0.49455
-1.54929
0.580326
-1.33601
0.663798
-1.30317
0.744696
-1.26354
0.815711
-1.12029
0.880089
-1.02263
0.937771
-0.922705
0.987735
-0.810628
1.03215
-0.722685
1.07096
-0.638276
1.10471
-0.559626
1.13433
-0.490616
1.15995
-0.423958
1.18204
-0.360825
-0.298672
0.409477
-1.45054
0.515805
-1.65562
0.606185
-1.42639
0.694144
-1.39112
0.779411
-1.34881
0.854189
-1.19507
0.921958
-1.0904
0.982631
-0.983379
1.03541
-0.863403
1.08184
-0.769123
1.12265
-0.67908
1.15806
-0.59504
1.18904
-0.521594
1.21586
-0.450778
1.23879
-0.383747
-0.318201
0.328833
-1.53183
0.426117
-1.54782
0.538204
-1.7677
0.633465
-1.52165
0.726165
-1.48383
0.816003
-1.43865
0.894748
-1.27381
0.966106
-1.16176
1.03005
-1.04732
1.08538
-0.918735
1.13436
-0.818102
1.17704
-0.721759
1.2142
-0.632195
1.24662
-0.554018
1.27465
-0.478805
1.2988
-0.407893
1.31903
-0.338433
-0.270106
0.341098
-1.63364
0.443657
-1.65038
0.561803
-1.88585
0.662233
-1.62208
0.759934
-1.58153
0.854594
-1.53331
0.93758
-1.3568
1.01273
-1.23691
1.07991
-1.11451
1.13815
-0.976977
1.18961
-0.869566
1.23455
-0.766697
1.2735
-0.671145
1.30752
-0.588036
1.33674
-0.508023
1.36192
-0.433067
1.38305
-0.359572
-0.287584
0.354008
-1.74099
0.462137
-1.75851
0.586718
-2.01043
0.692562
-1.72792
0.795509
-1.68447
0.895271
-1.63307
0.982644
-1.44417
1.06181
-1.31608
1.13254
-1.18523
1.19393
-1.03837
1.24787
-0.923501
1.29501
-0.81384
1.33594
-0.712069
1.3716
-0.623704
1.40235
-0.538763
1.42842
-0.459144
1.45056
-0.381703
-0.30585
0.36761
-1.85414
0.481618
-1.87252
0.612943
-2.14176
0.724524
-1.8395
0.833024
-1.79297
0.938118
-1.73816
1.03022
-1.53627
1.11342
-1.39928
1.18806
-1.25987
1.25246
-1.10277
1.30938
-0.980417
1.35895
-0.863411
1.4019
-0.755022
1.43912
-0.660924
1.47126
-0.570898
1.49885
-0.486732
1.52187
-0.404728
1.54071
-0.324682
-0.244823
0.381969
-1.97349
0.502139
-1.99269
0.64062
-2.28024
0.758228
-1.95711
0.872591
-1.90733
0.983325
-1.8489
1.08022
-1.63317
1.16806
-1.48712
1.2466
-1.33841
1.31443
-1.17059
1.37404
-1.04003
1.42631
-0.915686
1.47141
-0.800121
1.51063
-0.700136
1.54425
-0.604516
1.57292
-0.515404
1.59704
-0.428842
1.61672
-0.344372
-0.260361
0.39708
-2.09932
0.523785
-2.11939
0.669746
-2.4262
0.793729
-2.08109
0.914243
-2.02785
1.03095
-1.9656
1.13317
-1.73539
1.22569
-1.57964
1.30816
-1.42088
1.37963
-1.24206
1.44253
-1.10293
1.49727
-0.970427
1.54453
-0.847373
1.58571
-0.74132
1.62093
-0.639737
1.65105
-0.545522
1.6761
-0.453894
1.69674
-0.365006
-0.27642
0.413032
-2.23197
0.546608
-2.25297
0.700539
-2.58013
0.831196
-2.21175
0.95823
-2.15488
1.08127
-2.08864
1.18894
-1.84306
1.28622
-1.67692
1.37317
-1.50783
1.4484
-1.31729
1.51457
-1.1691
1.57208
-1.02794
1.62193
-0.897217
1.66493
-0.784325
1.70212
-0.67692
1.73339
-0.576798
1.75975
-0.480246
1.78112
-0.386381
-0.293328
0.429818
-2.37184
0.570689
-2.39384
0.732927
-2.74237
0.870663
-2.34949
1.00459
-2.28881
1.13417
-2.21821
1.24765
-1.95655
1.35014
-1.7794
1.4418
-1.59949
1.52093
-1.39642
1.59047
-1.23865
1.65109
-1.08855
1.70321
-0.949338
1.74869
-0.829805
1.78736
-0.715591
1.82032
-0.609756
1.8478
-0.507724
1.8702
-0.408776
-0.310811
0.447538
-2.51933
0.596026
-2.54233
0.767102
-2.91345
0.912294
-2.49468
1.05338
-2.4299
1.19007
-2.3549
1.30945
-2.07593
1.41757
-1.88752
1.51397
-1.69589
1.59727
-1.47972
1.67052
-1.3119
1.7343
-1.15233
1.78927
-1.00431
1.83672
-0.877261
1.87757
-0.756432
1.91212
-0.644309
1.94082
-0.536416
1.96408
-0.432042
1.98228
-0.32901
-0.228327
0.4662
-2.67483
0.622781
-2.69891
0.803147
-3.09381
0.956199
-2.64773
1.105
-2.5787
1.24891
-2.4988
1.37492
-2.20194
1.48873
-2.00134
1.5903
-1.79745
1.67801
-1.56744
1.75507
-1.38896
1.82203
-1.21929
1.87987
-1.06214
1.92985
-0.927239
1.97252
-0.79911
2.00881
-0.680592
2.03895
-0.566564
2.06327
-0.456357
2.08231
-0.348049
-0.241974
0.48591
-2.83882
0.650986
-2.86399
0.841134
-3.28396
1.0025
-2.8091
1.15932
-2.73553
1.31104
-2.65052
1.4437
-2.33459
1.56363
-2.12128
1.67068
-1.9045
1.76298
-1.65973
1.8441
-1.47008
1.91465
-1.28985
1.97538
-1.12287
2.02793
-0.979783
2.0728
-0.843982
2.11075
-0.718547
2.14222
-0.598028
2.1678
-0.48194
2.18748
-0.367725
-0.256457
0.506653
-3.01171
0.680735
-3.03807
0.881198
-3.48442
1.05133
-2.97924
1.21654
-2.90073
1.37654
-2.81053
1.51642
-2.47447
1.64279
-2.24765
1.75539
-2.01711
1.85276
-1.75709
1.93807
-1.55539
2.01226
-1.36404
2.07614
-1.18675
2.13139
-1.03503
2.17856
-0.891149
2.21827
-0.758263
2.25133
-0.631092
2.27796
-0.508563
2.29863
-0.388395
-0.271576
0.528545
-3.19403
0.712075
-3.2216
0.923459
-3.69581
1.10274
-3.15851
1.27706
-3.07505
1.44561
-2.97908
1.59292
-2.62177
1.72601
-2.38074
1.84491
-2.13601
1.94724
-1.85943
2.0372
-1.64535
2.11516
-1.442
2.18249
-1.25409
2.24049
-1.09303
2.29004
-0.940697
2.33188
-0.800113
2.36657
-0.665777
2.39436
-0.536356
2.41603
-0.410057
-0.287005
0.551618
-3.38627
0.745136
-3.41512
0.968036
-3.91871
1.15715
-3.34763
1.34081
-3.25871
1.51837
-3.15664
1.67385
-2.77726
1.814
-2.52089
1.93904
-2.26105
2.04699
-1.96738
2.1416
-1.73996
2.22386
-1.52426
2.29456
-1.32478
2.35565
-1.15412
2.40765
-0.992704
2.45143
-0.843892
2.48779
-0.702144
2.51719
-0.565746
2.53963
-0.432502
2.55587
-0.303249
-0.178124
0.575974
-3.58899
0.780037
-3.61918
1.015
-4.15367
1.21428
-3.54691
1.40795
-3.45238
1.59525
-3.34393
1.75886
-2.94087
1.9067
-2.66873
2.03861
-2.39296
2.15223
-2.081
2.25197
-1.8397
2.33847
-1.61075
2.41273
-1.39904
2.47691
-1.2183
2.53171
-1.0475
2.5779
-0.890084
2.61593
-0.740168
2.64654
-0.596367
2.67014
-0.456095
2.68704
-0.320159
-0.188765
0.601646
-3.80277
0.816794
-3.83433
1.06458
-4.40146
1.27477
-3.7571
1.47878
-3.65639
1.6763
-3.54146
1.84878
-3.11335
2.00465
-2.8246
2.14333
-2.53164
2.26309
-2.20076
2.36809
-1.94469
2.45911
-1.70178
2.53745
-1.47739
2.60504
-1.28589
2.66246
-1.10493
2.71091
-0.938532
2.75103
-0.780293
2.78313
-0.628468
2.80766
-0.48063
2.82543
-0.337928
-0.19992
0.628707
-4.0282
0.855596
-4.06122
1.11686
-4.66273
1.33839
-3.97863
1.55364
-3.87164
1.7617
-3.74952
1.94363
-3.29528
2.10773
-2.9887
2.25409
-2.67799
2.38007
-2.32675
2.4907
-2.05532
2.58656
-1.79763
2.669
-1.55983
2.74018
-1.35707
2.80057
-1.16532
2.85159
-0.989562
2.89351
-0.822207
2.92717
-0.662134
2.95305
-0.506511
2.97149
-0.35637
-0.211551
0.657283
-4.2659
0.896534
-4.30047
1.17201
-4.93821
1.4056
-4.21221
1.63243
-4.09848
1.85189
-3.96898
2.04351
-3.48691
2.21653
-3.16171
2.37059
-2.83206
2.50353
-2.45968
2.61994
-2.17173
2.72113
-1.89882
2.80779
-1.64649
2.88252
-1.4318
2.94623
-1.22903
2.99962
-1.04295
3.04383
-0.866416
3.07927
-0.69757
3.10638
-0.53363
3.12546
-0.375449
-0.223591
0.687411
-4.51659
0.939699
-4.55276
1.23018
-5.22869
1.47645
-4.45848
1.71571
-4.33774
1.94696
-4.20022
2.14894
-3.68889
2.33123
-3.34401
2.49373
-2.99456
2.63379
-2.59975
2.75644
-2.29437
2.86266
-2.00504
2.95412
-1.73795
3.03285
-1.51053
3.09978
-1.29596
3.15606
-1.09923
3.20248
-0.912835
3.23961
-0.734706
3.26794
-0.561965
3.28813
-0.395636
3.30068
-0.23614
-0.089448
0.71916
-4.78095
0.985226
-4.81883
1.29145
-5.53492
1.55124
-4.71827
1.8034
-4.5899
2.04711
-4.44393
2.26008
-3.90186
2.45237
-3.53629
2.62366
-3.16585
2.77104
-2.74713
2.90033
-2.42366
3.0123
-2.11701
3.10849
-1.83414
3.19134
-1.59338
3.26183
-1.36646
3.32102
-1.15843
3.36987
-0.961681
3.40876
-0.773595
3.43851
-0.591718
3.45963
-0.416758
3.47277
-0.249283
-0.0952938
0.752723
-5.05975
1.03325
-5.09935
1.35632
-5.85799
1.63006
-4.99201
1.89587
-4.85572
2.15303
-4.70108
2.37742
-4.12626
2.58003
-3.73891
2.76038
-3.3462
2.91581
-2.90256
3.05197
-2.55982
3.17002
-2.23507
3.27137
-1.9355
3.3586
-1.68061
3.43275
-1.44061
3.49507
-1.22075
3.54624
-1.01285
3.58716
-0.814516
3.61852
-0.623076
3.64064
-0.438883
3.65417
-0.262815
-0.101626
0.788074
-5.35378
1.08395
-5.39523
1.42452
-6.19856
1.71322
-5.2807
1.99366
-5.13616
2.26458
-4.97201
2.50127
-4.36294
2.71461
-3.95225
2.90488
-3.53647
3.06868
-3.06637
3.21213
-2.70326
3.33646
-2.3594
3.44319
-2.04223
3.535
-1.77241
3.61295
-1.51856
3.6786
-1.2864
3.73248
-1.06674
3.77554
-0.857575
3.80834
-0.655879
3.83153
-0.462068
3.8458
-0.277089
-0.107992
0.825388
-5.66386
1.1374
-5.70725
1.49656
-6.55772
1.80107
-5.58522
2.09659
-5.43167
2.38224
-5.25766
2.63179
-4.61249
2.85684
-4.17731
3.05723
-3.73685
3.22969
-3.23883
3.38101
-2.85458
3.51191
-2.4903
3.6243
-2.15462
3.72105
-1.86917
3.8033
-1.6008
3.87216
-1.35526
3.9289
-1.12348
3.97422
-0.902896
4.00862
-0.690277
4.03282
-0.486269
4.0479
-0.292168
-0.114595
0.864779
-5.9909
1.19382
-6.03629
1.57259
-6.93648
1.89363
-5.90626
2.20521
-5.74326
2.50635
-5.5588
2.76929
-4.87543
3.00654
-4.41455
3.21783
-3.94815
3.39979
-3.42078
3.55901
-3.01381
3.69706
-2.62835
3.81534
-2.2729
3.9173
-1.97112
4.00371
-1.68722
4.0764
-1.42795
4.13608
-1.18316
4.1837
-0.950513
4.21979
-0.726376
4.24545
-0.511922
4.26102
-0.307738
-0.121515
0.906309
-6.3358
1.2533
-6.38328
1.65273
-7.33592
1.99118
-6.24471
2.31979
-6.07187
2.63747
-5.87648
2.91469
-5.15265
3.16477
-4.66463
3.38742
-4.1708
3.57916
-3.61253
3.74702
-3.18166
3.89237
-2.77371
4.01706
-2.3976
4.1244
-2.07846
4.21546
-1.77827
4.2918
-1.50429
4.35468
-1.24604
4.40481
-1.00064
4.44287
-0.764439
4.46966
-0.538717
4.48604
-0.324108
-0.128577
0.950137
-6.69955
1.31611
-6.74925
1.7373
-7.75711
2.09425
-6.60167
2.44078
-6.4184
2.77555
-6.21125
3.06782
-5.44492
3.33145
-4.92827
3.56626
-4.40561
3.76825
-3.81453
3.94513
-3.35853
4.09825
-2.92682
4.2298
-2.52915
4.34271
-2.19137
4.43872
-1.87429
4.51917
-1.58474
4.58526
-1.31213
4.63788
-1.05326
4.67801
-0.80457
4.70612
-0.566825
4.72322
-0.341214
4.73087
-0.13622
0.0375654
0.996405
-7.08321
1.38237
-7.13522
1.82663
-8.20137
2.20297
-6.978
2.56831
-6.78374
2.9213
-6.56423
3.2295
-5.75312
3.50746
-5.20623
3.75475
-4.6529
3.96761
-4.02739
4.1541
-3.54502
4.31562
-3.08835
4.45395
-2.66747
4.57309
-2.31052
4.67406
-1.97525
4.75891
-1.6696
4.82856
-1.38177
4.88388
-1.10859
4.926
-0.846692
4.95559
-0.59641
4.97362
-0.35925
4.98141
-0.144004
0.0379055
1.0452
-7.48786
1.45224
-7.54226
1.9206
-8.66973
2.31768
-7.37508
2.70285
-7.16891
3.0751
-6.93648
3.39999
-6.07802
3.69287
-5.4991
3.95368
-4.91371
4.17826
-4.25197
4.37458
-3.74135
4.54473
-3.25849
4.69058
-2.81332
4.81618
-2.43612
4.92254
-2.08162
5.01174
-1.75879
5.08502
-1.45506
5.14351
-1.16708
5.18773
-0.89091
5.21876
-0.627434
5.23777
-0.378265
5.24582
-0.152051
0.0382707
1.09671
-7.9146
1.52607
-7.97163
2.02009
-9.16375
2.43861
-7.79359
2.84481
-7.57512
3.23727
-7.32894
3.57978
-6.42053
3.88863
-5.80795
4.16362
-5.1887
4.40006
-4.48842
4.60735
-3.94864
4.78657
-3.43771
4.94032
-2.96707
5.07233
-2.56814
5.18452
-2.19381
5.27851
-1.85278
5.35571
-1.53225
5.41708
-1.22846
5.46362
-0.937448
5.49636
-0.660172
5.51625
-0.39815
5.52483
-0.160633
0.0388966
1.15106
-8.36473
1.60384
-8.42441
2.1249
-9.6848
2.56621
-8.23491
2.99465
-8.00355
3.40839
-7.74269
3.76953
-6.78168
4.09524
-6.13366
4.38496
-5.47842
4.63432
-4.73777
4.85252
-4.16685
5.04141
-3.62661
5.20342
-3.12908
5.34277
-2.70749
5.46092
-2.31196
5.55987
-1.95173
5.64113
-1.61351
5.70585
-1.29318
5.75485
-0.986449
5.78935
-0.694665
5.81017
-0.418976
5.81915
-0.16961
0.039468
1.20838
-8.83949
1.68586
-8.90189
2.2354
-10.2343
2.70091
-8.70041
3.15254
-8.45519
3.58889
-8.17903
3.96961
-7.1624
4.31289
-6.47694
4.61836
-5.7839
4.88128
-5.00068
5.11136
-4.39693
5.31055
-3.8258
5.4812
-3.29972
5.62795
-2.85424
5.75233
-2.43634
5.85679
-2.05619
5.94227
-1.69899
6.01046
-1.36137
6.06209
-1.03808
6.09822
-0.730794
6.12014
-0.440897
6.12958
-0.17905
0.0401846
1.26909
-9.34035
1.77257
-9.40538
2.35205
-10.8138
2.84296
-9.19132
3.31939
-8.93162
3.77933
-8.63897
4.18088
-7.56396
4.54274
-6.83879
4.86475
-6.10591
5.14185
-5.27779
5.3843
-4.63938
5.59419
-4.03569
5.77402
-3.47955
5.92868
-3.0089
6.05983
-2.56749
6.16963
-2.166
6.26001
-1.78937
6.33159
-1.43295
6.38601
-1.09251
6.42408
-0.768862
6.44725
-0.46406
6.45704
-0.18885
0.0408647
1.33278
-9.86848
1.86412
-9.93672
2.47517
-11.4249
2.99293
-9.70908
3.49504
-9.43373
3.98024
-9.12418
4.40349
-7.98721
4.78508
-7.22038
5.12466
-6.44549
5.41676
-5.56989
5.67232
-4.89493
5.89345
-4.25682
6.08311
-3.66921
6.24608
-3.17188
6.38426
-2.70566
6.5001
-2.28184
6.595
-1.88427
6.67059
-1.50854
6.72791
-1.14982
6.76794
-0.808898
6.79227
-0.488391
6.80259
-0.19917
0.0417246
1.40024
-10.4256
1.96059
-10.4971
2.60514
-12.0694
3.15111
-10.255
3.68047
-9.96309
4.19233
-9.63603
4.63847
-8.43335
5.0407
-7.62261
5.39864
-6.80343
5.70657
-5.87782
5.9759
-5.16427
6.20903
-4.48995
6.40892
-3.8691
6.58069
-3.34365
6.72644
-2.85142
6.84843
-2.40383
6.94859
-1.98443
7.02822
-1.58817
7.08783
-1.20943
7.13086
-0.851932
7.1565
-0.514032
7.16684
-0.209514
7.1666
0.0419666
0.22691
1.47152
-11.0133
2.06216
-11.0877
2.74206
-12.7493
3.31779
-10.8308
3.87645
-10.5218
4.41563
-10.1752
4.8863
-8.90402
5.31049
-8.0468
5.6879
-7.18085
6.01243
-6.20235
6.29646
-5.4483
6.5422
-4.73568
6.75297
-4.07986
6.93392
-3.52461
7.08743
-3.00493
7.21598
-2.53238
7.32128
-2.08973
7.40547
-1.67237
7.46929
-1.27325
7.5135
-0.896139
7.54016
-0.540693
7.55162
-0.220976
7.55008
0.0435061
0.234849
1.54644
-11.633
2.17002
-11.7113
2.88675
-13.4661
3.4939
-11.4379
4.08289
-11.1107
4.65175
-10.7441
5.14794
-9.40021
5.59512
-8.49398
5.9931
-7.57883
6.33499
-6.54424
6.63442
-5.74774
6.89361
-4.99487
7.11556
-4.30182
7.30645
-3.71549
7.46851
-3.16699
7.60313
-2.667
7.71462
-2.20122
7.80318
-1.76093
7.87068
-1.34075
7.91622
-0.941677
7.94434
-0.568811
7.9574
-0.234034
7.95644
0.0444615
0.245844
1.1178
-12.0835
1.59331
-12.1868
2.19405
-14.0668
2.77578
-12.0197
3.43705
-11.772
4.20888
-11.5159
5.03928
-10.2306
5.97299
-9.42769
7.02287
-8.62871
8.59953
-8.12089
8.21195
-5.36016
7.82218
-4.6051
7.48713
-3.96677
7.19325
-3.42161
6.93722
-2.91096
6.71373
-2.44351
6.51755
-2.00504
6.34702
-1.5904
6.19964
-1.19337
6.07709
-0.819128
5.97372
-0.465433
5.8907
-0.151022
5.82674
0.108428
0.291648
1.22686
-12.5791
1.74959
-12.7095
2.40998
-14.7272
3.04945
-12.6591
3.77613
-12.4987
4.62397
-12.3637
5.53647
-11.1431
6.5618
-10.453
7.71508
-9.782
9.44621
-9.85202
9.02109
-4.93504
8.59345
-4.17747
8.22574
-3.59905
7.9049
-3.10077
7.62336
-2.62943
7.37761
-2.19776
7.16259
-1.79002
6.97514
-1.40295
6.81526
-1.0335
6.67812
-0.681989
6.56573
-0.353047
6.47549
-0.0607797
6.40599
0.177925
0.343794
1.34609
-13.1241
1.92073
-13.2842
2.64716
-15.4536
3.34976
-13.3617
4.14853
-13.2975
5.08055
-13.2958
6.08268
-12.1452
7.20901
-11.5793
8.47554
-11.0485
10.3773
-11.7538
9.90993
-4.46769
9.44214
-3.70968
9.03889
-3.1958
8.68611
-2.74799
8.378
-2.32132
8.10801
-1.92777
7.87222
-1.55424
7.66735
-1.19808
7.49064
-0.856795
7.33977
-0.531113
7.21675
-0.230035
7.11631
0.0396663
7.03841
0.255817
0.398618
1.47704
-13.7236
2.10914
-13.9163
2.90734
-16.2518
3.68002
-14.1344
4.55779
-14.1752
5.5818
-14.3198
6.68296
-13.2464
7.92055
-12.8169
9.31144
-12.4394
11.3996
-13.842
10.8879
-3.95596
10.3752
-3.19694
9.9305
-2.75114
9.54348
-2.36097
9.20656
-1.98441
8.90904
-1.63025
8.65057
-1.29577
8.42508
-0.972599
8.23105
-0.66276
8.0673
-0.367368
7.93063
-0.0933607
7.82096
0.149332
7.73826
0.338517
0.461582
1.62052
-14.3828
2.31597
-14.6117
3.19336
-17.1292
4.04274
-14.9838
5.00741
-15.1399
6.13274
-15.4451
7.34284
-14.4565
8.70246
-14.1766
10.231
-13.968
12.5252
-16.1361
11.9643
-3.39512
11.399
-2.63158
10.9141
-2.26631
10.4892
-1.936
10.116
-1.61129
9.79271
-1.30692
9.50694
-1.01
9.26025
-0.725903
9.04699
-0.449508
8.86729
-0.187667
8.71652
0.0574112
8.5972
0.268651
8.50284
0.432878
0.527766
1.77807
-15.1078
2.5424
-15.3761
3.50765
-18.0945
4.44108
-15.9172
5.50154
-16.2004
6.73821
-16.6818
8.06834
-15.7866
9.5624
-15.6706
11.241
-15.6466
13.7616
-18.6567
13.1455
-2.77903
12.5263
-2.01238
11.9933
-1.73329
11.5264
-1.46906
11.1185
-1.20347
10.7607
-0.949085
10.4494
-0.69872
10.1769
-0.453361
9.94252
-0.215164
9.74369
0.0111611
9.5796
0.2215
9.44763
0.400626
9.34643
0.534079
0.60269
1.95109
-15.9053
2.79154
-16.2165
3.8524
-19.1553
4.87879
-16.9436
6.04459
-17.3662
7.40402
-18.0412
8.86566
-17.2483
10.5083
-17.3132
12.354
-17.4923
15.1248
-21.4275
14.4472
-2.10142
13.7672
-1.33239
13.1802
-1.14629
12.6674
-0.956285
12.2198
-0.755851
11.8264
-0.555717
11.4822
-0.354515
11.1843
-0.155511
10.9282
0.0410198
10.7096
0.229743
10.5291
0.401997
10.384
0.545718
10.273
0.645109
0.685356
2.14059
-16.7823
3.06477
-17.1407
4.23166
-20.3222
5.36006
-18.072
6.6415
-18.6476
8.13608
-19.5358
9.74288
-18.8551
11.5481
-19.1184
13.5765
-19.5207
16.6245
-24.4755
15.8774
-1.35428
15.1297
-0.584662
14.4854
-0.502008
13.9213
-0.392165
13.4296
-0.264154
12.9981
-0.124261
12.6212
0.0223358
12.2933
0.17247
12.0106
0.323694
11.7716
0.468767
11.5727
0.600884
11.4138
0.704563
11.2898
0.769115
11.2002
0.775013
0.770669
2.34859
-17.7467
3.36502
-18.1571
4.64773
-21.6049
5.88859
-19.3129
7.29758
-20.0566
8.94093
-21.1791
10.7081
-20.6222
12.6931
-21.1035
14.9239
-21.7515
18.2746
-27.8261
17.4549
-0.534572
16.6318
0.238412
15.9229
0.206858
15.3037
0.227095
14.7616
0.27793
14.2868
0.350572
13.8722
0.436902
13.5105
0.534177
13.2005
0.633714
12.9377
0.731527
12.7186
0.819956
12.5444
0.878747
12.4099
0.90364
12.312
0.872874
0.843716
2.57672
-18.8073
3.69446
-19.2749
5.10517
-23.0156
6.46967
-20.6774
8.01921
-21.6061
9.82621
-22.9861
11.7694
-22.5654
13.952
-23.2861
16.4071
-24.2067
20.0932
-31.5122
19.1901
0.368598
18.2836
1.14489
17.5031
0.987385
16.8206
0.90957
16.2243
0.874219
15.7034
0.871478
15.2471
0.893207
14.8504
0.930864
14.5093
0.974851
14.219
1.02176
13.9798
1.05914
13.7863
1.07228
13.6371
1.05285
13.5281
0.98185
0.92308
2.82722
-19.9737
4.05647
-20.5041
5.60785
-24.567
7.10832
-22.1778
8.8127
-23.3105
10.8009
-24.9743
12.938
-24.7025
15.3406
-25.6887
18.041
-26.9071
22.0975
-35.5687
21.1017
1.36439
20.1036
2.14299
19.2434
1.8476
18.4919
1.66109
17.8359
1.53013
17.2616
1.44577
16.7584
1.39649
16.3231
1.36617
15.9476
1.35035
15.631
1.33834
15.3669
1.32318
15.1566
1.28258
14.996
1.21345
14.8781
1.09982
1.0097
3.10133
-21.2565
4.4535
-21.8563
6.16004
-26.2735
7.81073
-23.8285
9.68583
-25.1856
11.8728
-27.1613
14.2244
-27.0541
16.8679
-28.3321
19.8408
-29.88
24.3046
-40.0325
23.2072
2.46176
22.106
3.24416
21.1585
2.79514
20.3318
2.48775
19.6095
2.25247
18.9744
2.08089
18.423
1.94794
17.9415
1.84766
17.529
1.76284
17.1764
1.69088
16.8861
1.61353
16.6511
1.51757
16.4688
1.39575
16.336
1.23264
1.10798
3.40175
4.88894
6.76651
8.58321
10.6467
13.0545
15.644
18.5532
21.8252
26.7368
25.5278
24.3128
23.2674
22.3531
21.5559
20.8591
20.2496
19.7222
19.2684
18.8869
18.5725
18.3246
18.1345
17.9963
)
;

boundaryField
{
    inlet
    {
        type            calculated;
        value           nonuniform List<scalar> 
25
(
-22.667
-23.3435
-28.1511
-25.6452
-27.2491
-29.569
-29.6436
-31.2414
-33.152
-44.9442
3.67079
4.45921
3.84052
3.40206
3.04969
2.77768
2.55741
2.37504
2.21666
2.07238
1.92798
1.76548
1.58584
1.37086
1.20888
)
;
    }
    outlet
    {
        type            calculated;
        value           nonuniform List<scalar> 0();
    }
    walls
    {
        type            calculated;
        value           nonuniform List<scalar> 0();
    }
    frontAndBack
    {
        type            empty;
    }
    procBoundary4to0
    {
        type            processor;
        value           nonuniform List<scalar> 
72
(
-0.180531
-0.183063
-0.186052
-0.189392
-0.193144
-0.197309
-0.201848
-0.206647
-0.211899
-0.217489
-0.223439
-0.229768
-0.236495
-0.243605
-0.251153
-0.259155
-0.267567
-0.276441
-0.285864
-0.295755
-0.306212
-0.317226
1.43529
-0.232293
-0.239287
-0.246655
-0.254459
-0.262621
-0.271252
-0.28038
-0.289954
-0.300051
-0.310699
-0.321921
-0.333764
-0.346225
-0.359377
-0.373258
-0.387866
-0.403286
-0.41958
-0.436719
-0.454806
-0.473925
-0.494046
-0.515309
-0.537742
-0.561409
-0.586384
-0.612748
-0.640558
-0.669963
-0.700941
-0.733615
-0.768238
-0.804642
-0.843145
-0.883841
-0.92671
-0.667262
-0.731239
-0.801099
-0.877583
-0.96134
-1.05303
-1.15364
-1.26356
-1.38422
-1.51611
-1.66078
-1.81856
-1.9912
)
;
    }
    procBoundary4to5
    {
        type            processor;
        value           nonuniform List<scalar> 
95
(
0.220181
0.240155
0.216387
0.275533
0.240867
0.231446
0.344557
0.236279
0.217017
0.410854
0.22006
0.451125
0.217609
0.491871
0.511546
0.2371
0.555364
0.229773
0.600054
0.625549
0.239716
0.673299
0.702772
0.246105
0.753924
0.787596
0.246373
0.842371
0.880779
0.92127
0.258956
0.982894
1.02876
1.07709
0.26181
1.14612
1.20091
1.25831
0.253293
1.33585
1.40053
1.46882
0.229731
1.5558
1.63226
1.7128
1.79803
1.88768
0.214822
1.99579
2.09596
2.20196
2.31375
2.43145
0.167754
2.56623
2.69768
2.83658
2.98312
3.13749
0.083618
3.3065
3.47861
3.6605
3.85216
4.0545
4.26794
4.49309
-0.037241
4.73054
4.98107
5.24545
5.5242
5.81858
6.12887
6.45636
6.80173
-0.217241
7.15693
7.54214
7.94545
5.78093
6.35385
6.98359
7.6753
8.43665
9.2715
10.1903
-0.705167
11.1347
12.239
13.4487
14.7914
16.2377
17.8954
)
;
    }
}


// ************************************************************************* //
