/*--------------------------------*- C++ -*----------------------------------*\
| =========                 |                                                 |
| \\      /  F ield         | OpenFOAM: The Open Source CFD Toolbox           |
|  \\    /   O peration     | Version:  2506                                  |
|   \\  /    A nd           | Website:  www.openfoam.com                      |
|    \\/     M anipulation  |                                                 |
\*---------------------------------------------------------------------------*/
FoamFile
{
    version     2.0;
    format      ascii;
    arch        "LSB;label=32;scalar=64";
    class       volSymmTensorField;
    location    "100";
    object      turbulenceProperties:devReff;
}
// * * * * * * * * * * * * * * * * * * * * * * * * * * * * * * * * * * * * * //

dimensions      [0 2 -2 0 0 0 0];

internalField   nonuniform List<symmTensor> 
1340
(
(7.33497e-05 -7.3272e-05 4.34401e-21 -7.33811e-05 -1.05706e-21 3.13904e-08)
(5.99144e-05 -8.55845e-05 5.35003e-20 -5.99126e-05 3.7052e-20 -1.78714e-09)
(4.39188e-05 -9.53816e-05 -2.53689e-20 -4.39217e-05 -1.24854e-20 2.98532e-09)
(6.1563e-05 -6.25608e-05 1.57494e-20 -6.15878e-05 1.0196e-20 2.48491e-08)
(5.03102e-05 -7.28982e-05 -1.33237e-20 -5.0318e-05 -6.22515e-21 7.82009e-09)
(3.69192e-05 -8.11828e-05 -3.71724e-20 -3.69282e-05 -2.41533e-20 8.99827e-09)
(2.22702e-05 -8.67902e-05 2.25992e-19 -2.22787e-05 1.44216e-19 8.49236e-09)
(6.26077e-06 -8.95701e-05 -5.16026e-20 -6.26495e-06 -2.96262e-20 4.18132e-09)
(5.19638e-05 -5.3797e-05 6.12281e-21 -5.19772e-05 4.71119e-21 1.34341e-08)
(4.24395e-05 -6.25254e-05 -2.70844e-20 -4.24434e-05 -1.18838e-20 3.84705e-09)
(3.11176e-05 -6.95561e-05 -1.136e-19 -3.11221e-05 -6.6159e-20 4.4415e-09)
(1.87597e-05 -7.43736e-05 -1.53289e-20 -1.87586e-05 -9.97131e-21 -1.03099e-09)
(5.24143e-06 -7.68691e-05 -1.45148e-20 -5.23587e-06 -8.52282e-21 -5.55975e-09)
(-8.57408e-06 -7.67108e-05 1.46073e-19 8.57346e-06 8.30258e-20 6.21878e-10)
(-2.19492e-05 -7.38813e-05 2.94554e-20 2.19391e-05 2.15101e-20 1.00375e-08)
(4.40811e-05 -4.65506e-05 -1.43086e-20 -4.40887e-05 -4.77645e-21 7.68425e-09)
(3.59398e-05 -5.39541e-05 -8.67994e-20 -3.59444e-05 -4.7748e-20 4.59608e-09)
(2.62875e-05 -5.99349e-05 3.65563e-20 -2.62913e-05 1.78906e-20 3.8396e-09)
(1.57794e-05 -6.40643e-05 2.5224e-20 -1.57781e-05 1.2907e-20 -1.3549e-09)
(4.2789e-06 -6.62636e-05 1.07025e-19 -4.2764e-06 5.82269e-20 -2.49671e-09)
(-7.49152e-06 -6.62566e-05 -1.54198e-19 7.48877e-06 -8.90489e-20 2.75004e-09)
(-1.89376e-05 -6.40233e-05 1.90508e-19 1.89313e-05 9.23229e-20 6.34499e-09)
(-2.97452e-05 -5.96322e-05 -4.85402e-19 2.97427e-05 -2.50553e-19 2.49441e-09)
(3.75712e-05 -4.05066e-05 2.5384e-20 -3.75761e-05 1.21859e-20 4.87482e-09)
(3.05526e-05 -4.6816e-05 2.40201e-20 -3.05563e-05 1.19256e-20 3.68934e-09)
(2.22594e-05 -5.19173e-05 6.3242e-21 -2.22627e-05 5.84979e-21 3.34852e-09)
(1.32569e-05 -5.54568e-05 -1.26223e-20 -1.32538e-05 -7.94227e-21 -3.13756e-09)
(3.40867e-06 -5.7378e-05 9.12625e-20 -3.40412e-06 4.53802e-20 -4.55312e-09)
(-6.67659e-06 -5.74429e-05 -7.21486e-20 6.67603e-06 -3.87438e-20 5.6561e-10)
(-1.6511e-05 -5.56401e-05 -2.54736e-19 1.65074e-05 -1.30852e-19 3.56502e-09)
(-2.58416e-05 -5.20151e-05 2.69888e-19 2.58434e-05 1.57465e-19 -1.74981e-09)
(-3.42328e-05 -4.67592e-05 9.34604e-20 3.42277e-05 5.10038e-20 5.06737e-09)
(3.21523e-05 -3.54192e-05 -5.35086e-21 -3.21559e-05 -6.14912e-22 3.57142e-09)
(2.60618e-05 -4.08199e-05 -1.11973e-20 -2.6065e-05 -4.72715e-21 3.16475e-09)
(1.88874e-05 -4.51815e-05 -4.99995e-20 -1.88914e-05 -2.26097e-20 3.95855e-09)
(1.11222e-05 -4.82163e-05 2.41244e-20 -1.11185e-05 8.85042e-21 -3.70688e-09)
(2.63995e-06 -4.98799e-05 -7.75546e-20 -2.63606e-06 -3.80939e-20 -3.889e-09)
(-6.0488e-06 -4.99691e-05 1.71195e-19 6.04711e-06 8.40604e-20 1.69674e-09)
(-1.45308e-05 -4.84817e-05 -2.01283e-21 1.45282e-05 1.22083e-20 2.64907e-09)
(-2.26047e-05 -4.54548e-05 8.41709e-20 2.26072e-05 2.17258e-20 -2.43228e-09)
(-2.99086e-05 -4.10375e-05 6.83785e-20 2.99049e-05 1.92387e-20 3.73502e-09)
(2.76053e-05 -3.10927e-05 -5.24771e-20 -2.76064e-05 -2.54066e-20 1.08928e-09)
(2.22939e-05 -3.57335e-05 8.06957e-20 -2.22969e-05 3.57398e-20 2.95864e-09)
(1.60512e-05 -3.9476e-05 -5.8336e-20 -1.6055e-05 -2.54132e-20 3.81999e-09)
(9.31939e-06 -4.20813e-05 3.28371e-20 -9.31426e-06 1.25725e-20 -5.12914e-09)
(1.97616e-06 -4.35133e-05 -1.92563e-19 -1.97323e-06 -8.71541e-20 -2.92878e-09)
(-5.54442e-06 -4.36029e-05 9.75081e-20 5.54437e-06 4.24194e-20 5.22646e-11)
(-1.28914e-05 -4.23512e-05 2.65038e-19 1.28905e-05 1.15635e-19 8.55662e-10)
(-1.99003e-05 -3.97917e-05 -3.69096e-19 1.99025e-05 -1.70924e-19 -2.24629e-09)
(-2.62713e-05 -3.60431e-05 -1.86395e-19 2.62712e-05 -7.7795e-20 9.24168e-11)
(-3.18166e-05 -3.12384e-05 1.50974e-19 3.18152e-05 5.85599e-20 1.37682e-09)
(2.37568e-05 -2.73755e-05 2.72211e-20 -2.37562e-05 1.0627e-20 -6.32397e-10)
(1.91076e-05 -3.13778e-05 1.2408e-20 -1.91117e-05 6.93313e-21 4.01341e-09)
(1.36534e-05 -3.46012e-05 4.1473e-20 -1.36561e-05 1.78679e-20 2.6599e-09)
(7.79241e-06 -3.68399e-05 -1.14642e-19 -7.78828e-06 -5.01076e-20 -4.12611e-09)
(1.40589e-06 -3.80691e-05 2.1825e-19 -1.40324e-06 9.43269e-20 -2.64944e-09)
(-5.13096e-06 -3.81456e-05 -3.93705e-19 5.13063e-06 -1.69707e-19 3.28932e-10)
(-1.15141e-05 -3.70761e-05 -1.71702e-19 1.1514e-05 -7.35901e-20 9.59612e-11)
(-1.76155e-05 -3.48856e-05 2.14873e-19 1.76175e-05 1.06353e-19 -2.07658e-09)
(-2.31822e-05 -3.16787e-05 1.11986e-19 2.31817e-05 4.9954e-20 5.51318e-10)
(-2.80499e-05 -2.75643e-05 -1.01297e-19 2.80496e-05 -5.33713e-20 3.26296e-10)
(-3.20995e-05 -2.26527e-05 -2.89642e-20 3.20992e-05 -1.14596e-20 2.84256e-10)
(2.04822e-05 -2.41534e-05 -2.82813e-20 -2.04812e-05 -1.00288e-20 -1.0158e-09)
(1.63989e-05 -2.76184e-05 -2.092e-20 -1.64025e-05 -1.05331e-20 3.59821e-09)
(1.16205e-05 -3.04022e-05 6.8954e-20 -1.1623e-05 2.75324e-20 2.43599e-09)
(6.49781e-06 -3.23289e-05 1.67766e-20 -6.49376e-06 7.42983e-21 -4.046e-09)
(9.24034e-07 -3.33832e-05 9.10025e-20 -9.21887e-07 3.7593e-20 -2.14699e-09)
(-4.77623e-06 -3.34407e-05 5.72061e-19 4.77598e-06 2.43686e-19 2.45158e-10)
(-1.03415e-05 -3.25131e-05 1.00859e-19 1.0341e-05 4.33921e-20 5.33082e-10)
(-1.5665e-05 -3.06238e-05 9.27122e-20 1.56672e-05 2.84809e-20 -2.24543e-09)
(-2.05328e-05 -2.78627e-05 -7.58807e-20 2.05333e-05 -3.17139e-20 -4.98291e-10)
(-2.4814e-05 -2.43172e-05 -6.61053e-20 2.48144e-05 -2.31181e-20 -3.77469e-10)
(-2.84021e-05 -2.00827e-05 -5.71745e-20 2.84021e-05 -2.14045e-20 -8.18545e-11)
(1.76845e-05 -2.13504e-05 2.32045e-20 -1.76836e-05 6.90362e-21 -9.18862e-10)
(1.40888e-05 -2.43581e-05 7.36735e-20 -1.40914e-05 2.79982e-20 2.59709e-09)
(9.89036e-06 -2.67649e-05 7.61978e-20 -9.89327e-06 3.19316e-20 2.91004e-09)
(5.39972e-06 -2.84268e-05 -1.14317e-19 -5.39542e-06 -4.4454e-20 -4.299e-09)
(5.21178e-07 -2.93275e-05 -1.91388e-19 -5.19365e-07 -7.88955e-20 -1.81332e-09)
(-4.46352e-06 -2.93653e-05 -1.33111e-19 4.46363e-06 -6.07353e-20 -1.03452e-10)
(-9.32818e-06 -2.8551e-05 -1.29829e-19 9.32824e-06 -5.06809e-20 -5.74897e-11)
(-1.39846e-05 -2.69083e-05 -7.92122e-20 1.39868e-05 -3.60497e-20 -2.17369e-09)
(-1.82498e-05 -2.45145e-05 1.23926e-19 1.82501e-05 5.17185e-20 -3.92963e-10)
(-2.20137e-05 -2.1446e-05 -5.04398e-21 2.20144e-05 -2.0611e-21 -7.09753e-10)
(-2.51887e-05 -1.77763e-05 2.50267e-20 2.51891e-05 1.0653e-20 -3.71804e-10)
(-2.76808e-05 -1.36189e-05 -6.39463e-20 2.768e-05 -2.65846e-20 7.82516e-10)
(1.52924e-05 -1.89098e-05 -9.24089e-21 -1.52909e-05 -1.59397e-21 -1.50896e-09)
(1.21163e-05 -2.15221e-05 -7.09847e-20 -1.21193e-05 -2.56611e-20 3.00893e-09)
(8.41676e-06 -2.36064e-05 -8.11989e-20 -8.41921e-06 -3.1377e-20 2.45661e-09)
(4.46916e-06 -2.50381e-05 -1.50955e-20 -4.46534e-06 -5.04118e-21 -3.82568e-09)
(1.87261e-07 -2.58055e-05 6.23837e-20 -1.85583e-07 2.34621e-20 -1.67815e-09)
(-4.18285e-06 -2.5821e-05 -4.77688e-20 4.18251e-06 -1.81106e-20 3.42532e-10)
(-8.44528e-06 -2.50992e-05 2.24645e-19 8.44573e-06 8.71519e-20 -4.5714e-10)
(-1.2524e-05 -2.3661e-05 -1.67532e-19 1.25259e-05 -6.23428e-20 -1.89471e-09)
(-1.62644e-05 -2.15751e-05 -2.52006e-20 1.6265e-05 -1.35583e-20 -5.4956e-10)
(-1.95746e-05 -1.89064e-05 -6.01598e-20 1.95757e-05 -1.22515e-20 -1.10511e-09)
(-2.23838e-05 -1.57166e-05 6.20365e-20 2.23857e-05 6.7047e-21 -1.84943e-09)
(-2.46083e-05 -1.21012e-05 -1.1046e-19 2.4609e-05 -2.54655e-20 -7.64075e-10)
(1.32472e-05 -1.67825e-05 -4.3868e-20 -1.32455e-05 -1.56337e-20 -1.71772e-09)
(1.04321e-05 -1.9053e-05 3.85014e-20 -1.04346e-05 1.2714e-20 2.53525e-09)
(7.16207e-06 -2.08583e-05 -1.22159e-20 -7.16467e-06 -4.11112e-21 2.59561e-09)
(3.68188e-06 -2.20907e-05 -2.83741e-20 -3.67816e-06 -8.71397e-21 -3.71908e-09)
(-8.55981e-08 -2.27404e-05 -9.59454e-20 8.66997e-08 -3.55492e-20 -1.10153e-09)
(-3.9261e-06 -2.27333e-05 -7.49403e-20 3.92577e-06 -2.66928e-20 3.29581e-10)
(-7.66761e-06 -2.20866e-05 9.68945e-20 7.66799e-06 3.41865e-20 -3.73867e-10)
(-1.12472e-05 -2.08187e-05 5.20895e-20 1.12485e-05 2.2279e-20 -1.37379e-09)
(-1.45319e-05 -1.89905e-05 -8.10475e-20 1.45321e-05 -2.77676e-20 -1.18337e-10)
(-1.74449e-05 -1.6659e-05 2.75473e-19 1.74456e-05 9.64813e-20 -6.52298e-10)
(-1.99275e-05 -1.38763e-05 -3.45112e-19 1.99289e-05 -1.19454e-19 -1.31982e-09)
(-2.19093e-05 -1.07183e-05 3.50652e-19 2.19098e-05 1.18473e-19 -5.2925e-10)
(-2.33378e-05 -7.25854e-06 -2.96161e-19 2.33379e-05 -7.18354e-20 -8.87344e-11)
(1.14945e-05 -1.49241e-05 -2.38946e-21 -1.14927e-05 -7.6367e-22 -1.85208e-09)
(8.99206e-06 -1.69005e-05 -5.4691e-20 -8.99449e-06 -1.78276e-20 2.42731e-09)
(6.09374e-06 -1.84634e-05 1.07517e-20 -6.09619e-06 3.08724e-21 2.45207e-09)
(3.01783e-06 -1.9523e-05 4.16934e-20 -3.01407e-06 1.51969e-20 -3.7697e-09)
(-3.05667e-07 -2.00692e-05 3.6856e-20 3.06546e-07 1.36186e-20 -8.78786e-10)
(-3.68825e-06 -2.00406e-05 1.24934e-19 3.68801e-06 4.53821e-20 2.37856e-10)
(-6.97791e-06 -1.94555e-05 1.9028e-19 6.97847e-06 6.14773e-20 -5.53854e-10)
(-1.01234e-05 -1.83306e-05 8.5544e-20 1.01251e-05 2.543e-20 -1.678e-09)
(-1.30106e-05 -1.67204e-05 -1.0498e-19 1.30111e-05 -2.92212e-20 -5.27498e-10)
(-1.55747e-05 -1.46746e-05 -8.45256e-21 1.55754e-05 -1.25029e-20 -7.29e-10)
(-1.77671e-05 -1.22373e-05 2.14811e-20 1.77682e-05 2.8903e-20 -1.0563e-09)
(-1.9529e-05 -9.47431e-06 -9.13354e-20 1.95301e-05 -4.78516e-20 -1.03552e-09)
(-2.0815e-05 -6.44363e-06 3.0334e-19 2.08149e-05 1.11385e-19 1.46634e-10)
(9.98827e-06 -1.32943e-05 1.21546e-20 -9.98628e-06 4.98847e-21 -1.99371e-09)
(7.75841e-06 -1.50167e-05 -9.11407e-20 -7.7608e-06 -2.92498e-20 2.39064e-09)
(5.18187e-06 -1.63713e-05 9.10711e-20 -5.1842e-06 2.96289e-20 2.33332e-09)
(2.45734e-06 -1.7281e-05 -5.25983e-20 -2.45403e-06 -1.66068e-20 -3.31187e-09)
(-4.81245e-07 -1.77371e-05 -5.05312e-20 4.81847e-07 -1.72828e-20 -6.01939e-10)
(-3.46608e-06 -1.76889e-05 1.35445e-19 3.46593e-06 4.32403e-20 1.51159e-10)
(-6.3646e-06 -1.71542e-05 -1.7955e-19 6.36487e-06 -6.76569e-20 -2.68602e-10)
(-9.13281e-06 -1.615e-05 -5.5987e-20 9.13414e-06 -1.80881e-20 -1.33492e-09)
(-1.16722e-05 -1.47248e-05 2.75939e-19 1.16727e-05 8.6728e-20 -5.32601e-10)
(-1.39293e-05 -1.2923e-05 -1.06349e-19 1.39303e-05 -3.61046e-20 -1.00876e-09)
(-1.58641e-05 -1.07811e-05 3.61585e-19 1.58656e-05 1.02405e-19 -1.48603e-09)
(-1.74279e-05 -8.35623e-06 -1.91848e-19 1.74288e-05 -5.43357e-20 -9.38405e-10)
(-1.85802e-05 -5.69456e-06 2.35524e-20 1.8581e-05 -2.48286e-20 -7.91551e-10)
(-1.92872e-05 -2.85186e-06 4.25609e-20 1.92877e-05 1.17259e-20 -5.01815e-10)
(8.68812e-06 -1.18579e-05 3.75107e-20 -8.68644e-06 1.21442e-20 -1.68382e-09)
(6.69805e-06 -1.33618e-05 -5.02949e-20 -6.70038e-06 -1.52103e-20 2.32941e-09)
(4.40366e-06 -1.45369e-05 -1.26423e-20 -4.40551e-06 -4.20171e-21 1.85774e-09)
(1.98521e-06 -1.53167e-05 -8.56585e-20 -1.98256e-06 -2.70966e-20 -2.65136e-09)
(-6.18376e-07 -1.56956e-05 -1.2893e-19 6.18955e-07 -4.06167e-20 -5.79044e-10)
(-3.25702e-06 -1.56301e-05 1.2153e-19 3.25655e-06 3.4599e-20 4.68525e-10)
(-5.81429e-06 -1.5139e-05 -2.13979e-19 5.81469e-06 -6.60586e-20 -3.98897e-10)
(-8.25362e-06 -1.42375e-05 -1.01425e-19 8.25457e-06 -3.24173e-20 -9.47215e-10)
(-1.04901e-05 -1.29702e-05 -2.82788e-19 1.04904e-05 -9.17012e-20 -2.59303e-10)
(-1.24778e-05 -1.13761e-05 -7.62265e-20 1.24782e-05 -2.73632e-20 -4.76213e-10)
(-1.41843e-05 -9.48799e-06 -3.71279e-19 1.41852e-05 -1.27477e-19 -8.73232e-10)
(-1.55678e-05 -7.35428e-06 9.81624e-20 1.55684e-05 4.25388e-20 -6.34129e-10)
(-1.65972e-05 -5.01299e-06 -5.0384e-19 1.65981e-05 -1.33274e-19 -8.49868e-10)
(-1.7241e-05 -2.51119e-06 8.75953e-20 1.72418e-05 4.12828e-20 -7.67948e-10)
(7.56223e-06 -1.05869e-05 -2.75085e-20 -7.56069e-06 -8.20456e-21 -1.53861e-09)
(5.78374e-06 -1.19018e-05 5.59415e-20 -5.78583e-06 1.72267e-20 2.09098e-09)
(3.7381e-06 -1.29219e-05 1.04075e-20 -3.73981e-06 3.66444e-21 1.71442e-09)
(1.58755e-06 -1.35903e-05 -1.79644e-19 -1.58503e-06 -5.40836e-20 -2.51967e-09)
(-7.22357e-07 -1.39031e-05 2.02654e-19 7.22895e-07 6.28545e-20 -5.37631e-10)
(-3.05841e-06 -1.38235e-05 -2.82412e-19 3.05813e-06 -8.94102e-20 2.76999e-10)
(-5.31831e-06 -1.33704e-05 2.4195e-19 5.3186e-06 7.75968e-20 -2.83455e-10)
(-7.47045e-06 -1.25581e-05 -4.04721e-20 7.47153e-06 -9.39091e-21 -1.08166e-09)
(-9.44092e-06 -1.14273e-05 2.1748e-19 9.44119e-06 7.14467e-20 -2.72377e-10)
(-1.11917e-05 -1.0013e-05 -1.60448e-19 1.11925e-05 -4.93586e-20 -7.83241e-10)
(-1.26963e-05 -8.3434e-06 -1.35314e-19 1.26972e-05 -1.83151e-20 -9.09139e-10)
(-1.39201e-05 -6.45945e-06 2.32789e-19 1.39204e-05 7.16603e-20 -3.72659e-10)
(-1.48362e-05 -4.39571e-06 4.11355e-19 1.48366e-05 1.33464e-19 -4.2706e-10)
(-1.54178e-05 -2.18992e-06 2.82221e-19 1.54179e-05 6.72804e-20 -1.02084e-10)
(6.58518e-06 -9.45948e-06 2.76721e-20 -6.5836e-06 7.80584e-21 -1.58115e-09)
(4.99385e-06 -1.061e-05 -2.72955e-20 -4.99581e-06 -7.23123e-21 1.96579e-09)
(3.1678e-06 -1.14954e-05 1.65659e-20 -3.16952e-06 5.24439e-21 1.72056e-09)
(1.25273e-06 -1.20683e-05 1.50233e-20 -1.25047e-06 5.89958e-21 -2.26016e-09)
(-7.99145e-07 -1.23247e-05 -1.37766e-19 7.99428e-07 -4.16724e-20 -2.83086e-10)
(-2.86977e-06 -1.22342e-05 -1.52561e-19 2.86933e-06 -4.32677e-20 4.40845e-10)
(-4.8692e-06 -1.18147e-05 -1.14105e-19 4.86946e-06 -3.48713e-20 -2.63599e-10)
(-6.76974e-06 -1.10808e-05 -3.35246e-20 6.77052e-06 -5.38216e-21 -7.77957e-10)
(-8.50793e-06 -1.0068e-05 1.02718e-20 8.508e-06 3.4877e-21 -7.82279e-11)
(-1.00508e-05 -8.80925e-06 -3.8262e-21 1.00513e-05 3.84192e-21 -4.30802e-10)
(-1.13765e-05 -7.32922e-06 2.63672e-19 1.13771e-05 7.69622e-20 -6.00307e-10)
(-1.24565e-05 -5.6635e-06 4.91011e-20 1.24572e-05 -1.05261e-21 -7.01922e-10)
(-1.32692e-05 -3.84088e-06 -9.81083e-20 1.32694e-05 -3.79087e-20 -1.38664e-10)
(-1.37911e-05 -1.89253e-06 -7.16869e-20 1.37914e-05 -3.17571e-20 -3.23356e-10)
(-1.4002e-05 1.38585e-07 -3.93117e-19 1.40012e-05 -9.35596e-20 7.36768e-10)
(5.73685e-06 -8.45714e-06 3.61607e-20 -5.73533e-06 9.76437e-21 -1.52123e-09)
(4.31112e-06 -9.46447e-06 8.59178e-20 -4.31276e-06 2.50481e-20 1.64006e-09)
(2.67924e-06 -1.02331e-05 -1.29474e-19 -2.68097e-06 -3.64521e-20 1.73482e-09)
(9.72497e-07 -1.07236e-05 1.88144e-19 -9.70428e-07 5.42683e-20 -2.06876e-09)
(-8.52253e-07 -1.09323e-05 3.17213e-20 8.52463e-07 1.0765e-20 -2.1052e-10)
(-2.68954e-06 -1.08333e-05 2.41579e-19 2.68898e-06 7.22e-20 5.66558e-10)
(-4.46029e-06 -1.04446e-05 1.84274e-19 4.46067e-06 5.17543e-20 -3.80206e-10)
(-6.14005e-06 -9.77949e-06 1.44379e-19 6.14067e-06 4.42973e-20 -6.17265e-10)
(-7.6742e-06 -8.87048e-06 2.18743e-19 7.67449e-06 5.67489e-20 -2.91371e-10)
(-9.0342e-06 -7.74762e-06 -9.41721e-20 9.03458e-06 -2.8291e-20 -3.78086e-10)
(-1.02025e-05 -6.43201e-06 -1.17782e-19 1.02031e-05 -4.3334e-20 -5.86007e-10)
(-1.11554e-05 -4.95531e-06 -1.55469e-19 1.11556e-05 -4.19278e-20 -2.13891e-10)
(-1.18739e-05 -3.34285e-06 1.84785e-19 1.18741e-05 4.58634e-20 -2.44074e-10)
(-1.234e-05 -1.61983e-06 6.89353e-20 1.23402e-05 1.44692e-20 -2.19019e-10)
(-1.25347e-05 1.77061e-07 1.46295e-19 1.25342e-05 5.95328e-20 5.52793e-10)
(4.99947e-06 -7.56604e-06 -7.00963e-20 -4.99825e-06 -1.83507e-20 -1.22476e-09)
(3.72029e-06 -8.44783e-06 -8.45171e-21 -3.72157e-06 -2.96686e-21 1.27771e-09)
(2.26053e-06 -9.11487e-06 2.1552e-19 -2.26213e-06 5.9556e-20 1.5988e-09)
(7.38258e-07 -9.53436e-06 -5.32795e-21 -7.36361e-07 -8.44607e-22 -1.89724e-09)
(-8.85648e-07 -9.70243e-06 -9.45724e-20 8.85854e-07 -2.57178e-20 -2.05464e-10)
(-2.51791e-06 -9.59702e-06 -3.15224e-20 2.51734e-06 -1.2335e-20 5.68766e-10)
(-4.08744e-06 -9.23624e-06 -2.37706e-19 4.08774e-06 -6.83949e-20 -3.00256e-10)
(-5.57331e-06 -8.63189e-06 6.36982e-20 5.57375e-06 1.87762e-20 -4.36722e-10)
(-6.92818e-06 -7.81422e-06 -2.79345e-19 6.92834e-06 -7.72369e-20 -1.58069e-10)
(-8.12747e-06 -6.80987e-06 6.03472e-20 8.12768e-06 1.44492e-20 -2.11506e-10)
(-9.15644e-06 -5.63865e-06 -1.1577e-19 9.15673e-06 -2.63817e-20 -2.85405e-10)
(-9.99544e-06 -4.32752e-06 -2.11265e-20 9.99568e-06 -1.04038e-21 -2.39189e-10)
(-1.06297e-05 -2.8983e-06 -2.42984e-19 1.06297e-05 -7.57511e-20 -3.12543e-12)
(-1.10434e-05 -1.37303e-06 -1.2795e-19 1.10435e-05 -2.56512e-20 -1.08746e-10)
(-1.12202e-05 2.17313e-07 1.46619e-19 1.12199e-05 2.42069e-20 2.92324e-10)
(4.35783e-06 -6.77358e-06 1.41466e-20 -4.35674e-06 3.99598e-21 -1.08975e-09)
(3.20884e-06 -7.54513e-06 -8.73591e-20 -3.21006e-06 -2.25492e-20 1.22156e-09)
(1.90218e-06 -8.12383e-06 -1.39714e-19 -1.90361e-06 -3.777e-20 1.42611e-09)
(5.4325e-07 -8.4816e-06 -2.89836e-20 -5.41601e-07 -7.54747e-21 -1.64882e-09)
(-9.03327e-07 -8.61478e-06 1.3219e-19 9.03284e-07 3.58415e-20 4.30143e-11)
(-2.35424e-06 -8.50501e-06 -1.50731e-19 2.35376e-06 -4.02468e-20 4.74732e-10)
(-3.74627e-06 -8.16957e-06 -1.38935e-20 3.74635e-06 1.83332e-21 -8.23756e-11)
(-5.06171e-06 -7.61917e-06 2.69098e-19 5.06203e-06 6.8303e-20 -3.13432e-10)
(-6.25822e-06 -6.88236e-06 2.01645e-19 6.25817e-06 5.57822e-20 5.3093e-11)
(-7.31588e-06 -5.98253e-06 -2.44292e-19 7.31606e-06 -6.58956e-20 -1.80121e-10)
(-8.22205e-06 -4.93759e-06 9.49663e-20 8.22205e-06 3.46825e-20 -6.9902e-12)
(-8.96059e-06 -3.77139e-06 6.07815e-20 8.96066e-06 1.62394e-20 -7.26319e-11)
(-9.51893e-06 -2.50326e-06 -1.82514e-19 9.5188e-06 -2.98011e-20 1.31107e-10)
(-9.88433e-06 -1.15089e-06 1.90164e-19 9.88446e-06 4.8331e-20 -1.24505e-10)
(-1.00427e-05 2.59091e-07 -1.64077e-19 1.00424e-05 -4.89428e-20 3.23424e-10)
(-9.98186e-06 1.70201e-06 1.45034e-19 9.98191e-06 4.05717e-20 -5.27801e-11)
(3.79916e-06 -6.06735e-06 6.6405e-21 -3.79816e-06 1.66704e-21 -1.00075e-09)
(2.76635e-06 -6.74254e-06 2.92836e-21 -2.76728e-06 7.00979e-22 9.30534e-10)
(1.596e-06 -7.24441e-06 -4.39099e-20 -1.59737e-06 -1.14851e-20 1.37568e-09)
(3.8219e-07 -7.54888e-06 3.9301e-20 -3.80669e-07 1.04273e-20 -1.52092e-09)
(-9.07462e-07 -7.65225e-06 -9.60935e-20 9.07433e-07 -2.39449e-20 2.89166e-11)
(-2.1982e-06 -7.53968e-06 2.03118e-19 2.19775e-06 5.42794e-20 4.50977e-10)
(-3.43361e-06 -7.22731e-06 1.31558e-19 3.43378e-06 2.95642e-20 -1.70727e-10)
(-4.59861e-06 -6.72549e-06 -4.5799e-19 4.59894e-06 -1.24021e-19 -3.27225e-10)
(-5.65582e-06 -6.0602e-06 4.51998e-20 5.65573e-06 1.54002e-20 8.55273e-11)
(-6.58861e-06 -5.25266e-06 1.74256e-20 6.58878e-06 8.36607e-21 -1.74079e-10)
(-7.38636e-06 -4.31881e-06 2.31791e-19 7.3865e-06 5.39048e-20 -1.37157e-10)
(-8.03554e-06 -3.28034e-06 1.50299e-19 8.03555e-06 2.65291e-20 -7.68377e-12)
(-8.52619e-06 -2.15278e-06 2.82705e-19 8.52608e-06 7.71101e-20 1.09527e-10)
(-8.84733e-06 -9.53115e-07 -8.24175e-20 8.8474e-06 -2.29309e-20 -7.06259e-11)
(-8.98723e-06 2.97659e-07 -9.74744e-20 8.98714e-06 -1.66308e-20 9.00418e-11)
(-8.93541e-06 1.57694e-06 2.13103e-19 8.93558e-06 4.11435e-20 -1.62717e-10)
(3.31178e-06 -5.43736e-06 1.96231e-20 -3.31088e-06 4.34368e-21 -9.00374e-10)
(2.38364e-06 -6.02786e-06 1.18965e-19 -2.38426e-06 2.98439e-20 6.16633e-10)
(1.3347e-06 -6.46298e-06 7.89967e-21 -1.33601e-06 2.66834e-21 1.30716e-09)
(2.49445e-07 -6.7214e-06 1.112e-19 -2.48128e-07 2.86754e-20 -1.31706e-09)
(-9.01181e-07 -6.7996e-06 2.19442e-20 9.01181e-07 5.89959e-21 9.00857e-13)
(-2.04997e-06 -6.68543e-06 -1.03803e-19 2.0495e-06 -2.90155e-20 4.67885e-10)
(-3.14703e-06 -6.39444e-06 -2.25554e-19 3.14716e-06 -5.87368e-20 -1.32452e-10)
(-4.17903e-06 -5.93624e-06 -2.02151e-20 4.17936e-06 3.78087e-21 -3.28837e-10)
(-5.11348e-06 -5.33443e-06 1.84665e-19 5.11342e-06 4.77383e-20 6.53066e-11)
(-5.93591e-06 -4.60876e-06 -1.00108e-19 5.93601e-06 -2.6055e-20 -9.98934e-11)
(-6.63789e-06 -3.773e-06 -1.67137e-19 6.63794e-06 -4.77339e-20 -4.50255e-11)
(-7.20796e-06 -2.84664e-06 -3.72233e-19 7.20787e-06 -9.05786e-20 9.68905e-11)
(-7.63799e-06 -1.84366e-06 1.99624e-19 7.6378e-06 4.28561e-20 1.89038e-10)
(-7.9189e-06 -7.77823e-07 2.18379e-19 7.91886e-06 4.29091e-20 4.03909e-11)
(-8.04121e-06 3.32256e-07 -5.51249e-20 8.04111e-06 -1.21163e-20 1.01048e-10)
(-7.99539e-06 1.46711e-06 -3.85622e-20 7.99518e-06 -7.17648e-21 2.0881e-10)
(3.55128e-06 -4.29216e-06 -3.14909e-21 -3.55198e-06 -1.08339e-21 7.02256e-10)
(2.88666e-06 -4.87417e-06 6.71787e-21 -2.88581e-06 1.97777e-21 -8.57163e-10)
(2.05264e-06 -5.39087e-06 -7.11438e-20 -2.05323e-06 -1.69015e-20 5.88834e-10)
(1.11178e-06 -5.76779e-06 -5.21227e-20 -1.11296e-06 -1.29361e-20 1.18177e-09)
(1.40887e-07 -5.98645e-06 1.32546e-19 -1.39712e-07 3.24175e-20 -1.17487e-09)
(-8.86241e-07 -6.04348e-06 -2.0414e-19 8.86165e-07 -4.99609e-20 7.63045e-11)
(-1.90937e-06 -5.92892e-06 6.92572e-21 1.90887e-06 2.92058e-21 5.02022e-10)
(-2.88405e-06 -5.65764e-06 -5.10654e-20 2.88408e-06 -8.05171e-21 -3.59337e-11)
(-3.79854e-06 -5.23881e-06 1.37175e-19 3.79867e-06 3.34752e-20 -1.32496e-10)
(-4.62442e-06 -4.69383e-06 1.08305e-19 4.62417e-06 2.45561e-20 2.49572e-10)
(-5.3494e-06 -4.04078e-06 1.2814e-19 5.34938e-06 3.29669e-20 1.81717e-11)
(-5.96668e-06 -3.29198e-06 7.5428e-21 5.96663e-06 1.00248e-21 4.72857e-11)
(-6.46654e-06 -2.465e-06 1.33158e-20 6.46642e-06 1.20619e-20 1.21988e-10)
(-6.84271e-06 -1.5717e-06 -3.50829e-20 6.84257e-06 -1.51212e-20 1.34614e-10)
(-7.08753e-06 -6.24037e-07 -2.50256e-19 7.08744e-06 -5.83062e-20 8.4421e-11)
(-7.19295e-06 3.61499e-07 -1.23169e-20 7.19279e-06 6.34611e-21 1.57529e-10)
(-7.1507e-06 1.36871e-06 2.40886e-19 7.15061e-06 4.56573e-20 9.56801e-11)
(-6.95538e-06 2.37689e-06 2.57708e-20 6.95479e-06 -2.94832e-21 5.89728e-10)
(3.1152e-06 -3.85746e-06 8.97218e-21 -3.11582e-06 2.18873e-21 6.13626e-10)
(2.516e-06 -4.37003e-06 -4.66685e-20 -2.51517e-06 -1.0605e-20 -8.30136e-10)
(1.76595e-06 -4.8224e-06 -5.68237e-20 -1.76641e-06 -1.36884e-20 4.66066e-10)
(9.21818e-07 -5.14872e-06 4.59315e-20 -9.22889e-07 1.09245e-20 1.07152e-09)
(5.27967e-08 -5.33314e-06 -8.96562e-20 -5.17615e-08 -2.12293e-20 -1.03513e-09)
(-8.64465e-07 -5.37242e-06 1.38493e-19 8.64418e-07 3.4245e-20 4.71837e-11)
(-1.77589e-06 -5.2587e-06 8.1204e-20 1.77547e-06 2.06158e-20 4.27742e-10)
(-2.64203e-06 -5.00598e-06 2.39743e-19 2.64212e-06 5.75728e-20 -9.64976e-11)
(-3.45256e-06 -4.62274e-06 -2.02891e-19 3.45263e-06 -5.05328e-20 -6.94186e-11)
(-4.18263e-06 -4.12867e-06 -1.524e-20 4.18249e-06 -4.20708e-21 1.37406e-10)
(-4.82173e-06 -3.54037e-06 9.69727e-20 4.82162e-06 1.6242e-20 1.06588e-10)
(-5.36429e-06 -2.86853e-06 -2.05388e-19 5.36421e-06 -4.49659e-20 8.08414e-11)
(-5.8023e-06 -2.12916e-06 2.68621e-20 5.802e-06 7.76428e-21 3.04437e-10)
(-6.13048e-06 -1.33287e-06 9.31338e-21 6.13014e-06 4.97261e-21 3.39903e-10)
(-6.34266e-06 -4.89919e-07 1.54211e-19 6.34257e-06 3.8074e-20 8.24136e-11)
(-6.43242e-06 3.85319e-07 1.33991e-19 6.43218e-06 1.83099e-20 2.38424e-10)
(-6.39259e-06 1.2799e-06 -2.32209e-19 6.39252e-06 -5.26907e-20 7.16819e-11)
(-6.21851e-06 2.17453e-06 -1.30278e-19 6.21823e-06 -1.54937e-20 2.80784e-10)
(2.73301e-06 -3.46749e-06 -2.32747e-21 -2.73359e-06 -1.22784e-21 5.72528e-10)
(2.1925e-06 -3.91901e-06 4.66872e-21 -2.19172e-06 8.69259e-22 -7.81692e-10)
(1.51767e-06 -4.31488e-06 2.05554e-20 -1.51804e-06 4.59584e-21 3.7826e-10)
(7.60079e-07 -4.59704e-06 1.50693e-19 -7.61052e-07 3.53858e-20 9.73575e-10)
(-1.81108e-08 -4.75195e-06 4.13002e-20 1.90728e-08 9.66324e-21 -9.61946e-10)
(-8.37528e-07 -4.77654e-06 5.70988e-20 8.37466e-07 1.22663e-20 6.23062e-11)
(-1.64981e-06 -4.66443e-06 -3.45384e-20 1.64939e-06 -8.75546e-21 4.14396e-10)
(-2.41966e-06 -4.42905e-06 4.03543e-20 2.41975e-06 1.14648e-20 -9.00611e-11)
(-3.13807e-06 -4.07827e-06 1.103e-20 3.13818e-06 4.24368e-21 -1.03484e-10)
(-3.78349e-06 -3.63008e-06 -6.27144e-20 3.78332e-06 -1.71532e-20 1.6683e-10)
(-4.34662e-06 -3.09942e-06 -1.87321e-19 4.34653e-06 -4.3155e-20 8.95773e-11)
(-4.82304e-06 -2.49643e-06 1.80625e-19 4.82298e-06 4.71529e-20 6.29743e-11)
(-5.20622e-06 -1.83508e-06 -2.27297e-20 5.20609e-06 -3.70886e-21 1.27476e-10)
(-5.49206e-06 -1.12457e-06 9.53325e-20 5.49181e-06 1.52901e-20 2.5158e-10)
(-5.67542e-06 -3.73852e-07 -1.25651e-19 5.67521e-06 -3.16459e-20 2.04729e-10)
(-5.75065e-06 4.04057e-07 -2.68064e-19 5.75036e-06 -6.33533e-20 2.9486e-10)
(-5.71215e-06 1.19837e-06 1.56557e-19 5.71206e-06 4.09198e-20 9.05854e-11)
(-5.55582e-06 1.99238e-06 3.09226e-19 5.55549e-06 6.05553e-20 3.32174e-10)
(2.39777e-06 -3.11748e-06 -4.60425e-21 -2.39831e-06 -7.09503e-22 5.45534e-10)
(1.91009e-06 -3.51522e-06 4.36565e-20 -1.90938e-06 9.65689e-21 -7.159e-10)
(1.30269e-06 -3.86151e-06 3.58999e-20 -1.303e-06 8.36095e-21 3.09145e-10)
(6.22532e-07 -4.10513e-06 -7.18548e-20 -6.23455e-07 -1.60115e-20 9.2352e-10)
(-7.44792e-08 -4.23467e-06 -8.81588e-20 7.53652e-08 -2.09734e-20 -8.86017e-10)
(-8.06681e-07 -4.247e-06 -1.94059e-19 8.0659e-07 -4.39383e-20 9.16431e-11)
(-1.53078e-06 -4.13728e-06 -6.03061e-20 1.53035e-06 -1.13062e-20 4.25274e-10)
(-2.21515e-06 -3.91816e-06 4.76876e-19 2.21515e-06 1.07811e-19 3.86724e-12)
(-2.85206e-06 -3.5969e-06 4.73774e-20 2.85209e-06 5.82212e-21 -2.68152e-11)
(-3.42244e-06 -3.19e-06 -6.4945e-20 3.42223e-06 -1.53436e-20 2.07675e-10)
(-3.91852e-06 -2.71113e-06 -3.68481e-20 3.9184e-06 -2.91739e-21 1.17838e-10)
(-4.33677e-06 -2.16922e-06 1.05969e-19 4.33659e-06 1.77265e-20 1.75989e-10)
(-4.67166e-06 -1.57703e-06 9.4539e-20 4.67134e-06 1.8895e-20 3.18343e-10)
(-4.91978e-06 -9.42881e-07 -1.773e-19 4.91948e-06 -4.28936e-20 2.99028e-10)
(-5.07721e-06 -2.74488e-07 6.56451e-20 5.07707e-06 1.59829e-20 1.36402e-10)
(-5.13948e-06 4.17287e-07 -1.82197e-19 5.13919e-06 -2.97732e-20 2.94537e-10)
(-5.10177e-06 1.1227e-06 -5.03685e-20 5.10169e-06 -6.08391e-21 8.07489e-11)
(-4.96024e-06 1.82728e-06 -1.67533e-19 4.95998e-06 -3.09439e-20 2.5187e-10)
(-4.71231e-06 2.51772e-06 1.52074e-19 4.71196e-06 7.93479e-21 3.46064e-10)
(2.10362e-06 -2.80312e-06 -1.19347e-20 -2.10412e-06 -2.55946e-21 5.02482e-10)
(1.66349e-06 -3.15341e-06 -2.6419e-20 -1.66284e-06 -5.84692e-21 -6.48918e-10)
(1.11667e-06 -3.45623e-06 4.88369e-20 -1.11692e-06 1.07605e-20 2.52797e-10)
(5.05909e-07 -3.66626e-06 5.17243e-20 -5.06739e-07 1.15511e-20 8.29945e-10)
(-1.18527e-07 -3.77396e-06 9.04752e-20 1.19355e-07 2.01665e-20 -8.27884e-10)
(-7.72894e-07 -3.77633e-06 1.95812e-19 7.72819e-07 4.49692e-20 7.4083e-11)
(-1.41832e-06 -3.66968e-06 3.62446e-20 1.41796e-06 4.64914e-21 3.57141e-10)
(-2.0269e-06 -3.46577e-06 -1.35545e-19 2.02701e-06 -3.43723e-20 -1.16277e-10)
(-2.59153e-06 -3.17156e-06 -1.9365e-19 2.59153e-06 -4.39019e-20 -2.72709e-12)
(-3.09563e-06 -2.80183e-06 -7.40643e-20 3.09543e-06 -1.01676e-20 2.01321e-10)
(-3.53248e-06 -2.3694e-06 7.76745e-20 3.53233e-06 1.50429e-20 1.49705e-10)
(-3.89919e-06 -1.88243e-06 -2.41103e-19 3.89904e-06 -5.32192e-20 1.48761e-10)
(-4.19145e-06 -1.3518e-06 -1.02864e-21 4.19117e-06 -1.36864e-21 2.71355e-10)
(-4.40656e-06 -7.8519e-07 -1.50502e-19 4.4062e-06 -2.59855e-20 3.5589e-10)
(-4.54122e-06 -1.89489e-07 -4.19769e-20 4.54093e-06 -1.3264e-20 2.87963e-10)
(-4.59178e-06 4.25683e-07 3.27446e-20 4.59141e-06 1.03642e-20 3.74519e-10)
(-4.55421e-06 1.05213e-06 2.75867e-19 4.55405e-06 5.97657e-20 1.54752e-10)
(-4.42556e-06 1.67757e-06 3.25888e-19 4.4252e-06 6.02725e-20 3.64818e-10)
(-4.20367e-06 2.28958e-06 -2.07922e-19 4.20336e-06 -3.76625e-20 3.11095e-10)
(1.84533e-06 -2.52051e-06 2.3189e-21 -1.84585e-06 1.56277e-22 5.17788e-10)
(1.44805e-06 -2.82905e-06 1.87221e-20 -1.44747e-06 4.25525e-21 -5.80681e-10)
(9.55689e-07 -3.0937e-06 -9.61127e-20 -9.55909e-07 -2.04028e-20 2.19722e-10)
(4.07147e-07 -3.27449e-06 6.34087e-20 -4.07947e-07 1.32259e-20 7.99978e-10)
(-1.52363e-07 -3.36346e-06 -1.56563e-19 1.53105e-07 -3.37776e-20 -7.42285e-10)
(-7.37286e-07 -3.35771e-06 1.42107e-19 7.37208e-07 2.87128e-20 7.7355e-11)
(-1.31278e-06 -3.25452e-06 -5.18352e-19 1.31244e-06 -1.13255e-19 3.39985e-10)
(-1.85391e-06 -3.06499e-06 3.09068e-20 1.85396e-06 9.03423e-21 -4.92721e-11)
(-2.35436e-06 -2.79536e-06 -5.90775e-20 2.35428e-06 -9.13802e-21 8.25617e-11)
(-2.79964e-06 -2.45955e-06 3.84479e-19 2.79945e-06 7.99132e-20 1.82711e-10)
(-3.18419e-06 -2.06893e-06 -1.14898e-19 3.18407e-06 -2.72081e-20 1.21155e-10)
(-3.50564e-06 -1.63081e-06 2.65746e-20 3.50541e-06 1.00367e-20 2.37373e-10)
(-3.7603e-06 -1.15526e-06 -2.10897e-21 3.76005e-06 2.02304e-21 2.46119e-10)
(-3.94619e-06 -6.49047e-07 1.09298e-19 3.94585e-06 2.68746e-20 3.38732e-10)
(-4.06071e-06 -1.17969e-07 -2.14687e-19 4.0605e-06 -4.46379e-20 2.15233e-10)
(-4.10098e-06 4.2927e-07 -9.81121e-20 4.10057e-06 -1.44082e-20 4.11451e-10)
(-4.06342e-06 9.85725e-07 1.2241e-19 4.06319e-06 1.67022e-20 2.27337e-10)
(-3.94591e-06 1.54046e-06 -1.44452e-19 3.94554e-06 -3.79701e-20 3.65064e-10)
(-3.74642e-06 2.08338e-06 2.14283e-19 3.74601e-06 3.97895e-20 4.07113e-10)
(1.61849e-06 -2.26632e-06 -5.74214e-21 -1.619e-06 -1.01847e-21 5.11738e-10)
(1.2599e-06 -2.53805e-06 -5.04559e-20 -1.25935e-06 -1.0571e-20 -5.51601e-10)
(8.16553e-07 -2.76922e-06 5.72709e-20 -8.16746e-07 1.20692e-20 1.93081e-10)
(3.23798e-07 -2.92455e-06 -1.08633e-19 -3.2455e-07 -2.27441e-20 7.5216e-10)
(-1.77532e-07 -2.99753e-06 1.9994e-19 1.78235e-07 4.20929e-20 -7.02935e-10)
(-7.00456e-07 -2.98529e-06 -2.46897e-20 7.00362e-07 -6.31677e-21 9.32508e-11)
(-1.21356e-06 -2.88593e-06 4.34693e-20 1.21322e-06 1.21234e-20 3.4031e-10)
(-1.69456e-06 -2.70989e-06 3.43942e-20 1.69461e-06 7.90275e-21 -5.04021e-11)
(-2.13812e-06 -2.46298e-06 -6.43089e-20 2.13812e-06 -1.44501e-20 -2.51602e-12)