/*--------------------------------*- C++ -*----------------------------------*\
| =========                 |                                                 |
| \\      /  F ield         | OpenFOAM: The Open Source CFD Toolbox           |
|  \\    /   O peration     | Version:  2506                                  |
|   \\  /    A nd           | Website:  www.openfoam.com                      |
|    \\/     M anipulation  |                                                 |
\*---------------------------------------------------------------------------*/
FoamFile
{
    version     2.0;
    format      ascii;
    arch        "LSB;label=32;scalar=64";
    class       volScalarField;
    location    "400";
    object      turbulenceProperties:nut;
}
// * * * * * * * * * * * * * * * * * * * * * * * * * * * * * * * * * * * * * //

dimensions      [0 2 -1 0 0 0 0];

internalField   nonuniform List<scalar> 
1340
(
0.0869111
0.0784474
0.0683166
0.0332553
0.153843
0.148531
0.13951
0.139923
0.206338
0.207581
0.201488
0.210284
0.215374
0.231957
0.239153
0.25525
0.175081
0.217193
0.24805
0.278275
0.0933198
0.16042
0.223995
0.278325
0.0217562
0.0782505
0.16621
0.25232
0.00542556
0.016168
0.0904758
0.200084
0
0.00442824
0.0309948
0.132953
0
0
0.00871561
0.0716775
0
0
0.000680803
0.0326361
1.05176e-08
0
0.000278199
0.0129045
2.51228e-06
5.25646e-12
7.1281e-05
0.00427741
1.02546e-05
1.13804e-11
1.23603e-06
0.00108286
9.24566e-06
2.65252e-06
2.61092e-10
5.8224e-05
6.45522e-06
9.72283e-06
5.02411e-11
4.69077e-07
5.26892e-06
1.21124e-05
3.69896e-10
2.24509e-16
5.3099e-06
9.47907e-06
1.60763e-06
4.93506e-10
5.7434e-06
6.92924e-06
6.83879e-06
8.15888e-08
6.07667e-06
5.87581e-06
8.49196e-06
1.67718e-06
6.19496e-06
5.73211e-06
7.57749e-06
4.59073e-06
6.18562e-06
5.89146e-06
6.61675e-06
6.1468e-06
6.1462e-06
6.04409e-06
6.17142e-06
6.41513e-06
6.1195e-06
6.1138e-06
6.06173e-06
6.28518e-06
6.10952e-06
6.12729e-06
6.07391e-06
6.16486e-06
6.10825e-06
6.12156e-06
6.10047e-06
6.11766e-06
6.10919e-06
6.11514e-06
6.11322e-06
6.11083e-06
6.10979e-06
6.11209e-06
6.11533e-06
6.11432e-06
6.1098e-06
6.11123e-06
6.11392e-06
6.11669e-06
6.10956e-06
6.11107e-06
6.1125e-06
6.1168e-06
6.10932e-06
6.11095e-06
6.11174e-06
6.11601e-06
6.10916e-06
6.11076e-06
6.11137e-06
6.11522e-06
6.10908e-06
6.11058e-06
6.11114e-06
6.11462e-06
6.10831e-06
6.10905e-06
6.11045e-06
6.11096e-06
6.11418e-06
6.10837e-06
6.10907e-06
6.11036e-06
6.11082e-06
6.11383e-06
6.10846e-06
6.10911e-06
6.11033e-06
6.11073e-06
6.11355e-06
6.10859e-06
6.10919e-06
6.11033e-06
6.11069e-06
6.11332e-06
6.10873e-06
6.1093e-06
6.11037e-06
6.1107e-06
6.11315e-06
6.1089e-06
6.10944e-06
6.11045e-06
6.11074e-06
6.11303e-06
6.10908e-06
6.1096e-06
6.11055e-06
6.11082e-06
6.11296e-06
6.10927e-06
6.10977e-06
6.11067e-06
6.11094e-06
6.11294e-06
6.10947e-06
6.10996e-06
6.11082e-06
6.11108e-06
6.11295e-06
6.10967e-06
6.11015e-06
6.11097e-06
6.11124e-06
6.113e-06
6.10986e-06
6.11034e-06
6.11113e-06
6.11141e-06
6.11307e-06
6.11004e-06
6.11052e-06
6.11129e-06
6.11158e-06
6.11317e-06
6.10971e-06
6.1102e-06
6.11068e-06
6.11144e-06
6.11175e-06
6.11327e-06
6.10983e-06
6.11032e-06
6.11082e-06
6.11157e-06
6.11191e-06
6.11337e-06
6.10991e-06
6.11042e-06
6.11092e-06
6.11167e-06
6.11204e-06
6.11345e-06
6.10994e-06
6.11046e-06
6.11099e-06
6.11174e-06
6.11214e-06
6.11352e-06
6.10992e-06
6.11046e-06
6.11101e-06
6.11176e-06
6.1122e-06
6.11356e-06
6.10983e-06
6.11039e-06
6.11096e-06
6.11173e-06
6.11221e-06
6.11354e-06
6.10967e-06
6.11025e-06
6.11085e-06
6.11163e-06
6.11216e-06
6.11345e-06
6.10942e-06
6.11003e-06
6.11066e-06
6.11145e-06
6.11204e-06
6.1133e-06
6.10908e-06
6.10972e-06
6.11037e-06
6.11118e-06
6.11182e-06
6.11307e-06
6.10803e-06
6.10864e-06
6.1093e-06
6.10998e-06
6.11081e-06
6.11151e-06
6.11274e-06
6.10745e-06
6.10808e-06
6.10876e-06
6.10948e-06
6.11033e-06
6.11108e-06
6.11231e-06
6.10675e-06
6.10741e-06
6.10811e-06
6.10885e-06
6.10973e-06
6.11052e-06
6.11176e-06
6.10594e-06
6.10662e-06
6.10734e-06
6.1081e-06
6.109e-06
6.10984e-06
6.11108e-06
6.10502e-06
6.10571e-06
6.10645e-06
6.10724e-06
6.10815e-06
6.10903e-06
6.11028e-06
6.10393e-06
6.10466e-06
6.10543e-06
6.10624e-06
6.10718e-06
6.1081e-06
6.10934e-06
6.10259e-06
6.10336e-06
6.10418e-06
6.10504e-06
6.10602e-06
6.107e-06
6.10826e-06
6.10008e-06
6.10086e-06
6.10169e-06
6.10257e-06
6.1035e-06
6.10455e-06
6.10561e-06
6.10694e-06
6.09787e-06
6.09869e-06
6.09956e-06
6.10049e-06
6.10149e-06
6.10262e-06
6.1038e-06
6.10522e-06
6.09534e-06
6.09616e-06
6.09704e-06
6.09799e-06
6.09903e-06
6.1002e-06
6.10146e-06
6.10298e-06
6.0927e-06
6.09349e-06
6.09433e-06
6.09526e-06
6.09627e-06
6.09744e-06
6.09871e-06
6.10027e-06
6.09003e-06
6.09077e-06
6.09157e-06
6.09244e-06
6.09339e-06
6.0945e-06
6.09572e-06
6.09723e-06
6.08739e-06
6.08812e-06
6.0889e-06
6.08974e-06
6.09065e-06
6.09168e-06
6.09283e-06
6.09423e-06
6.0849e-06
6.08565e-06
6.08645e-06
6.0873e-06
6.08822e-06
6.08925e-06
6.09038e-06
6.09171e-06
6.08166e-06
6.08234e-06
6.08308e-06
6.08387e-06
6.08473e-06
6.08567e-06
6.08672e-06
6.08788e-06
6.08923e-06
6.07898e-06
6.07959e-06
6.08025e-06
6.08098e-06
6.08178e-06
6.08266e-06
6.08368e-06
6.08482e-06
6.08617e-06
6.07626e-06
6.07678e-06
6.07735e-06
6.07798e-06
6.07867e-06
6.07945e-06
6.08035e-06
6.08137e-06
6.08261e-06
6.07354e-06
6.07398e-06
6.07446e-06
6.07499e-06
6.07558e-06
6.07625e-06
6.07703e-06
6.07792e-06
6.07901e-06
6.07117e-06
6.07139e-06
6.07166e-06
6.07199e-06
6.07238e-06
6.07285e-06
6.07343e-06
6.07411e-06
6.075e-06
6.07139e-06
6.07127e-06
6.07116e-06
6.0711e-06
6.07109e-06
6.07114e-06
6.07129e-06
6.07153e-06
6.07196e-06
6.07421e-06
6.07404e-06
6.07386e-06
6.07367e-06
6.07346e-06
6.07325e-06
6.07303e-06
6.07284e-06
6.07268e-06
6.07753e-06
6.07737e-06
6.07716e-06
6.07691e-06
6.07662e-06
6.07629e-06
6.0759e-06
6.07547e-06
6.07494e-06
6.08166e-06
6.08176e-06
6.08185e-06
6.08192e-06
6.08198e-06
6.08202e-06
6.08199e-06
6.082e-06
6.08186e-06
6.08489e-06
6.08493e-06
6.08487e-06
6.08473e-06
6.08455e-06
6.08431e-06
6.08409e-06
6.08383e-06
6.08371e-06
6.0836e-06
6.0905e-06
6.0914e-06
6.0924e-06
6.09345e-06
6.09453e-06
6.09563e-06
6.09679e-06
6.09793e-06
6.09937e-06
6.1007e-06
6.10004e-06
6.10024e-06
6.10035e-06
6.10039e-06
6.10038e-06
6.10035e-06
6.10045e-06
6.1007e-06
6.10118e-06
6.10157e-06
0.172359
0.214964
0.255363
0.299998
0.326401
0.32941
0.307347
0.258857
0.186649
0.105743
0.0436582
0.015418
0.0047885
0.00110382
2.82409e-05
1.28572e-07
0
1.72208e-11
8.65806e-09
1.12546e-06
4.17346e-06
6.09436e-06
6.48566e-06
6.34314e-06
6.1908e-06
6.12588e-06
6.11363e-06
6.11698e-06
6.12007e-06
6.12041e-06
6.11943e-06
6.11833e-06
6.11745e-06
6.11676e-06
6.11619e-06
6.1157e-06
6.11528e-06
6.11493e-06
6.11463e-06
6.1144e-06
6.11422e-06
6.11409e-06
6.114e-06
6.11395e-06
6.11392e-06
6.11391e-06
6.11391e-06
6.11391e-06
6.11389e-06
6.11385e-06
6.11384e-06
6.1138e-06
6.1137e-06
6.11351e-06
6.11322e-06
6.11283e-06
6.11232e-06
6.11167e-06
6.11089e-06
6.10998e-06
6.10892e-06
6.10764e-06
6.10597e-06
6.10377e-06
6.10107e-06
6.09799e-06
6.09494e-06
6.09239e-06
6.0899e-06
6.08683e-06
6.08323e-06
6.07954e-06
6.07545e-06
6.07215e-06
6.07259e-06
6.07476e-06
6.08176e-06
6.08348e-06
6.10157e-06
6.10177e-06
0.213616
0.258511
0.288543
0.316992
0.345769
0.357758
0.34541
0.305927
0.239511
0.153096
0.0688562
0.0208133
0.0056364
0.00139206
5.94889e-05
4.62477e-07
0
4.15912e-12
2.04044e-09
8.34454e-07
3.89015e-06
6.02528e-06
6.5118e-06
6.37561e-06
6.20712e-06
6.13092e-06
6.11472e-06
6.11763e-06
6.121e-06
6.12143e-06
6.12034e-06
6.11906e-06
6.11804e-06
6.11732e-06
6.11674e-06
6.11623e-06
6.11579e-06
6.11542e-06
6.11511e-06
6.11486e-06
6.11466e-06
6.11451e-06
6.11441e-06
6.11434e-06
6.11431e-06
6.11429e-06
6.11428e-06
6.11427e-06
6.11426e-06
6.11422e-06
6.11421e-06
6.11419e-06
6.11411e-06
6.11394e-06
6.11368e-06
6.1133e-06
6.1128e-06
6.11217e-06
6.11139e-06
6.11049e-06
6.10944e-06
6.10817e-06
6.10651e-06
6.10433e-06
6.10162e-06
6.09852e-06
6.09543e-06
6.09284e-06
6.09034e-06
6.08726e-06
6.08363e-06
6.07987e-06
6.07574e-06
6.07226e-06
6.07253e-06
6.07472e-06
6.08167e-06
6.08344e-06
6.10214e-06
0.217803
0.269157
0.303804
0.326789
0.347924
0.366403
0.368565
0.346322
0.296188
0.219105
0.124833
0.0438986
0.00720575
0.000795784
8.38424e-12
2.27875e-14
0
2.83083e-14
1.35599e-11
4.21466e-07
3.28717e-06
5.87449e-06
6.55355e-06
6.42484e-06
6.2315e-06
6.13822e-06
6.11513e-06
6.11683e-06
6.12088e-06
6.12188e-06
6.12094e-06
6.11965e-06
6.11859e-06
6.11786e-06
6.11728e-06
6.11678e-06
6.11634e-06
6.11596e-06
6.11564e-06
6.11538e-06
6.11517e-06
6.11502e-06
6.11491e-06
6.11484e-06
6.1148e-06
6.11478e-06
6.11477e-06
6.11477e-06
6.11475e-06
6.11471e-06
6.11471e-06
6.1147e-06
6.11463e-06
6.11447e-06
6.11422e-06
6.11385e-06
6.11336e-06
6.11272e-06
6.11196e-06
6.11105e-06
6.11e-06
6.10874e-06
6.10709e-06
6.10491e-06
6.1022e-06
6.09906e-06
6.09593e-06
6.09331e-06
6.09079e-06
6.08768e-06
6.08403e-06
6.0802e-06
6.07604e-06
6.07238e-06
6.07247e-06
6.07469e-06
6.08156e-06
6.08339e-06
0.202672
0.258541
0.300427
0.328258
0.346548
0.362733
0.374834
0.371393
0.344304
0.289431
0.207445
0.110609
0.0326261
0.000694413
0.000188006
0
0
0
3.66552e-10
1.64799e-07
2.33712e-06
5.3701e-06
6.53763e-06
6.51641e-06
6.28049e-06
6.15026e-06
6.11527e-06
6.11551e-06
6.12038e-06
6.12226e-06
6.12169e-06
6.1204e-06
6.11929e-06
6.11852e-06
6.11794e-06
6.11743e-06
6.11698e-06
6.11659e-06
6.11626e-06
6.11599e-06
6.11578e-06
6.11561e-06
6.1155e-06
6.11542e-06
6.11537e-06
6.11535e-06
6.11534e-06
6.11534e-06
6.11532e-06
6.11529e-06
6.11527e-06
6.11527e-06
6.1152e-06
6.11505e-06
6.11481e-06
6.11444e-06
6.11396e-06
6.11333e-06
6.11256e-06
6.11165e-06
6.1106e-06
6.10934e-06
6.10771e-06
6.10553e-06
6.10281e-06
6.09963e-06
6.09646e-06
6.0938e-06
6.09127e-06
6.08814e-06
6.08445e-06
6.08055e-06
6.07636e-06
6.07252e-06
6.07241e-06
6.07465e-06
6.08144e-06
0.172728
0.232728
0.281682
0.317742
0.341554
0.356954
0.3699
0.378334
0.372143
0.34324
0.286851
0.203286
0.106172
0.027838
0.00147761
0.000399514
0
0
0
2.97674e-09
9.61906e-07
4.81556e-06
6.52219e-06
6.59412e-06
6.3597e-06
6.18392e-06
6.11741e-06
6.11217e-06
6.11936e-06
6.12259e-06
6.12243e-06
6.12127e-06
6.12014e-06
6.1193e-06
6.11868e-06
6.11817e-06
6.11771e-06
6.1173e-06
6.11695e-06
6.11667e-06
6.11644e-06
6.11626e-06
6.11613e-06
6.11605e-06
6.116e-06
6.11597e-06
6.11596e-06
6.11595e-06
6.11594e-06
6.1159e-06
6.11589e-06
6.11588e-06
6.11582e-06
6.11568e-06
6.11543e-06
6.11508e-06
6.11459e-06
6.11397e-06
6.1132e-06
6.11229e-06
6.11124e-06
6.10998e-06
6.10835e-06
6.10619e-06
6.10345e-06
6.10024e-06
6.09702e-06
6.09433e-06
6.09177e-06
6.08862e-06
6.0849e-06
6.08092e-06
6.0767e-06
6.07269e-06
6.07236e-06
6.07461e-06
0.130145
0.19369
0.249334
0.294179
0.327102
0.34883
0.36262
0.373431
0.379823
0.372563
0.343521
0.287351
0.204127
0.106465
0.0305494
0.0024615
0.000585347
0
0
0
6.20906e-09
1.74815e-06
6.51709e-06
6.99548e-06
6.45639e-06
6.21741e-06
6.13615e-06
6.11123e-06
6.11509e-06
6.12236e-06
6.12376e-06
6.12234e-06
6.12098e-06
6.12013e-06
6.1195e-06
6.11896e-06
6.11848e-06
6.11806e-06
6.11769e-06
6.11739e-06
6.11714e-06
6.11695e-06
6.11681e-06
6.11671e-06
6.11665e-06
6.11662e-06
6.11661e-06
6.1166e-06
6.11659e-06
6.11655e-06
6.11653e-06
6.11652e-06
6.11647e-06
6.11633e-06
6.1161e-06
6.11575e-06
6.11527e-06
6.11465e-06
6.11388e-06
6.11296e-06
6.11191e-06
6.11065e-06
6.10903e-06
6.10687e-06
6.10413e-06
6.10089e-06
6.09762e-06
6.09488e-06
6.0923e-06
6.08912e-06
6.08537e-06
6.08132e-06
6.07706e-06
6.07287e-06
0.0788504
0.142595
0.2039
0.257105
0.299977
0.331601
0.352575
0.365633
0.375002
0.380332
0.37305
0.344933
0.29016
0.208021
0.111224
0.0360259
0.000756731
0.000200708
0
0
0
9.05358e-09
2.42624e-06
7.58743e-06
7.26396e-06
6.29474e-06
6.09934e-06
6.1175e-06
6.11862e-06
6.11792e-06
6.12239e-06
6.12383e-06
6.12243e-06
6.12106e-06
6.12032e-06
6.11981e-06
6.11932e-06
6.11887e-06
6.11848e-06
6.11815e-06
6.11788e-06
6.11767e-06
6.11752e-06
6.11741e-06
6.11734e-06
6.11731e-06
6.11729e-06
6.11728e-06
6.11727e-06
6.11723e-06
6.11721e-06
6.1172e-06
6.11715e-06
6.11702e-06
6.11679e-06
6.11645e-06
6.11598e-06
6.11536e-06
6.11459e-06
6.11367e-06
6.11262e-06
6.11136e-06
6.10975e-06
6.1076e-06
6.10486e-06
6.10157e-06
6.09825e-06
6.09547e-06
6.09287e-06
6.08966e-06
6.08588e-06
6.08175e-06
0.0299813
0.0828726
0.145812
0.206072
0.25851
0.301027
0.332698
0.35391
0.366902
0.375324
0.380232
0.373625
0.347165
0.294552
0.214398
0.119876
0.0403795
0.00136742
0.000410063
0
0
0
7.66976e-09
1.93098e-06
8.00055e-06
7.59239e-06
6.2122e-06
5.99257e-06
6.10645e-06
6.13862e-06
6.12582e-06
6.12163e-06
6.12278e-06
6.12246e-06
6.1214e-06
6.12068e-06
6.12018e-06
6.11973e-06
6.11931e-06
6.11896e-06
6.11867e-06
6.11844e-06
6.11827e-06
6.11814e-06
6.11807e-06
6.11802e-06
6.118e-06
6.11799e-06
6.11798e-06
6.11795e-06
6.11792e-06
6.11791e-06
6.11787e-06
6.11775e-06
6.11753e-06
6.11719e-06
6.11672e-06
6.1161e-06
6.11534e-06
6.11442e-06
6.11336e-06
6.1121e-06
6.1105e-06
6.10837e-06
6.10562e-06
6.1023e-06
6.09892e-06
6.09609e-06
6.09346e-06
0.00321792
0.0283183
0.0794247
0.141531
0.201876
0.254893
0.298304
0.331073
0.353321
0.366801
0.374656
0.379551
0.374096
0.349836
0.299955
0.222951
0.129894
0.0472862
0.0038814
0.00108892
0
0
0
3.42491e-09
8.07571e-07
7.56544e-06
8.15364e-06
6.28617e-06
5.87497e-06
6.05219e-06
6.14482e-06
6.13633e-06
6.12328e-06
6.122e-06
6.12243e-06
6.12185e-06
6.12116e-06
6.12065e-06
6.1202e-06
6.11982e-06
6.1195e-06
6.11925e-06
6.11905e-06
6.11892e-06
6.11883e-06
6.11877e-06
6.11875e-06
6.11873e-06
6.11872e-06
6.1187e-06
6.11867e-06
6.11865e-06
6.11861e-06
6.1185e-06
6.11829e-06
6.11796e-06
6.1175e-06
6.11689e-06
6.11612e-06
6.11521e-06
6.11414e-06
6.11288e-06
6.1113e-06
6.10917e-06
6.10642e-06
6.10308e-06
0.00042515
0.00169072
0.0229204
0.0700712
0.131027
0.192223
0.246884
0.292226
0.326982
0.350987
0.36555
0.373565
0.378537
0.374404
0.352656
0.306068
0.232517
0.140762
0.0557975
0.00778201
0.00211617
0
0
0
4.65449e-10
8.83516e-08
5.75221e-06
8.71396e-06
6.76584e-06
5.90314e-06
5.99411e-06
6.12993e-06
6.141e-06
6.12571e-06
6.12191e-06
6.12244e-06
6.12224e-06
6.12165e-06
6.12116e-06
6.12075e-06
6.1204e-06
6.12011e-06
6.11989e-06
6.11973e-06
6.11963e-06
6.11956e-06
6.11953e-06
6.11952e-06
6.11951e-06
6.11948e-06
6.11945e-06
6.11943e-06
6.1194e-06
6.1193e-06
6.1191e-06
6.11878e-06
6.11832e-06
6.11772e-06
6.11695e-06
6.11603e-06
6.11496e-06
6.11371e-06
0
2.06929e-07
0.00397044
0.0159913
0.0571284
0.115611
0.17773
0.23477
0.28291
0.320474
0.346997
0.363431
0.372567
0.377579
0.374701
0.355561
0.312553
0.242486
0.152379
0.0655506
0.0128916
0.00345097
6.20107e-07
0
0
5.34742e-13
3.93529e-12
3.19752e-06
8.26463e-06
7.10671e-06
6.03171e-06
5.97415e-06
6.11211e-06
6.14172e-06
6.12823e-06
6.12279e-06
6.12303e-06
6.12284e-06
6.12218e-06
6.12168e-06
6.12132e-06
6.12102e-06
6.12078e-06
6.1206e-06
6.12047e-06
6.1204e-06
6.12035e-06
6.12033e-06
6.12032e-06
6.1203e-06
6.12027e-06
6.12025e-06
6.12022e-06
6.12013e-06
6.11994e-06
6.11963e-06
6.11918e-06
0
0
0
0.00252004
0.0100849
0.0426874
0.0968215
0.159092
0.218754
0.270354
0.311495
0.341324
0.360436
0.37117
0.37642
0.374836
0.358388
0.319036
0.252585
0.164462
0.0762169
0.0191644
0.000821816
0.000258477
0
0
4.28351e-18
7.91165e-09
1.89396e-06
7.58988e-06
7.36697e-06
6.15543e-06
5.96695e-06
6.09611e-06
6.13988e-06
6.12849e-06
6.12239e-06
6.12328e-06
6.12363e-06
6.12301e-06
6.12243e-06
6.12201e-06
6.12171e-06
6.1215e-06
6.12136e-06
6.12128e-06
6.12122e-06
6.1212e-06
6.12118e-06
6.12116e-06
1.45089e-08
3.78674e-17
0
0
0.00120078
0.00469589
0.0287975
0.0763332
0.137243
0.199205
0.254645
0.299995
0.333813
0.356231
0.369034
0.374792
0.374584
0.36089
0.325269
0.262583
0.176728
0.0878248
0.026049
0.00282983
0.000698488
0
0
0
4.37871e-09
1.06596e-06
7.01348e-06
7.66183e-06
6.30153e-06
5.96595e-06
6.08871e-06
6.14852e-06
6.13457e-06
6.12303e-06
)
;

boundaryField
{
    inlet
    {
        type            freestream;
        freestreamValue uniform 1e-05;
        value           nonuniform List<scalar> 
11
(
6.10004e-06
6.10024e-06
6.10035e-06
6.10039e-06
6.10038e-06
6.10035e-06
6.10045e-06
6.1007e-06
6.10118e-06
6.10157e-06
6.10177e-06
)
;
    }
    outlet
    {
        type            freestream;
        freestreamValue nonuniform List<scalar> 0();
        value           nonuniform List<scalar> 0();
    }
    walls
    {
        type            nutUSpaldingWallFunction;
        value           nonuniform List<scalar> 4(0.00176414 0.00156471 0.00134141 0.000606101);
    }
    frontAndBack
    {
        type            empty;
    }
    procBoundary6to2
    {
        type            processor;
        value           nonuniform List<scalar> 
13
(
0.126582
0.14986
0.151242
0.135168
0.104409
0.0649745
0.0258267
0.00297821
0.000805729
0
0
1.16655e-08
3.34926e-06
)
;
    }
    procBoundary6to3
    {
        type            processor;
        value           uniform 5.91197e-06;
    }
    procBoundary6to5
    {
        type            processor;
        value           nonuniform List<scalar> 
86
(
0.0927936
0.159345
0.203455
0.193236
0.124151
0.0381048
0.00168635
0.000387816
0
0
1.57038e-08
3.98863e-06
8.51475e-06
6.69316e-06
5.63967e-06
5.82076e-06
6.19349e-06
6.31266e-06
6.24484e-06
6.15244e-06
6.10403e-06
6.0944e-06
6.1003e-06
6.10685e-06
6.10984e-06
6.11018e-06
6.10957e-06
6.10897e-06
6.1086e-06
6.10841e-06
6.10832e-06
6.10828e-06
6.10827e-06
6.10827e-06
6.1076e-06
6.10771e-06
6.10784e-06
6.108e-06
6.10818e-06
6.10837e-06
6.10857e-06
6.10878e-06
6.10899e-06
6.10919e-06
6.10939e-06
6.10956e-06
6.10956e-06
6.10929e-06
6.10939e-06
6.10945e-06
6.10947e-06
6.10943e-06
6.10932e-06
6.10913e-06
6.10886e-06
6.1085e-06
6.1085e-06
6.10745e-06
6.10685e-06
6.10613e-06
6.1053e-06
6.10436e-06
6.10324e-06
6.10186e-06
6.10186e-06
6.09934e-06
6.0971e-06
6.09458e-06
6.09197e-06
6.08934e-06
6.08671e-06
6.08419e-06
6.08419e-06
6.08103e-06
6.07842e-06
6.07578e-06
6.07316e-06
6.071e-06
6.07151e-06
6.07434e-06
6.07764e-06
6.08156e-06
6.08156e-06
6.08461e-06
6.08978e-06
6.09971e-06
)
;
    }
    procBoundary6to7
    {
        type            processor;
        value           nonuniform List<scalar> 
91
(
6.10199e-06
6.10199e-06
6.10274e-06
6.10274e-06
6.08333e-06
6.08333e-06
6.08133e-06
6.07231e-06
6.08133e-06
6.07456e-06
6.07744e-06
6.07231e-06
6.07309e-06
6.09024e-06
6.08641e-06
6.07744e-06
6.08221e-06
6.09963e-06
6.09674e-06
6.09024e-06
6.0941e-06
6.11213e-06
6.11002e-06
6.10728e-06
6.09963e-06
6.1039e-06
6.11859e-06
6.11783e-06
6.1169e-06
6.11583e-06
6.11213e-06
6.11457e-06
6.12113e-06
6.12111e-06
6.12108e-06
6.121e-06
6.12082e-06
6.12053e-06
6.11859e-06
6.12009e-06
6.1227e-06
6.12347e-06
6.12328e-06
6.12303e-06
6.12281e-06
6.12254e-06
6.12231e-06
6.12219e-06
6.12213e-06
6.1221e-06
6.12209e-06
6.12113e-06
6.12207e-06
7.29565e-09
3.28507e-11
0
0
0.000142285
0.000455479
0.0161181
0.055214
0.112695
0.176125
0.235552
0.285664
0.324124
0.350468
0.365869
0.372677
0.373811
0.362818
0.330968
0.272181
0.189049
0.0999441
0.0339273
0.00196427
0.000543385
0
0
0
1.86415e-09
4.40367e-07
6.25532e-06
8.03997e-06
6.46401e-06
5.90877e-06
6.03352e-06
6.14176e-06
6.1227e-06
6.14191e-06
)
;
    }
}


// ************************************************************************* //
