/*--------------------------------*- C++ -*----------------------------------*\
| =========                 |                                                 |
| \\      /  F ield         | OpenFOAM: The Open Source CFD Toolbox           |
|  \\    /   O peration     | Version:  2506                                  |
|   \\  /    A nd           | Website:  www.openfoam.com                      |
|    \\/     M anipulation  |                                                 |
\*---------------------------------------------------------------------------*/
FoamFile
{
    version     2.0;
    format      ascii;
    arch        "LSB;label=32;scalar=64";
    class       volScalarField;
    location    "11";
    object      p;
}
// * * * * * * * * * * * * * * * * * * * * * * * * * * * * * * * * * * * * * //

dimensions      [0 2 -2 0 0 0 0];

internalField   nonuniform List<scalar> 
400
(
-2.76787e-08
-0.00010021
-0.000197727
-0.0003141
-0.00044789
-0.000577495
-0.000659425
-0.000628663
-0.000405877
8.21354e-05
0.000869941
0.00192351
0.00311087
0.00412712
0.00468491
0.00465868
0.0040705
0.00339558
0.0029155
0.00281459
0.000120786
1.53646e-05
-6.20155e-05
-0.000157454
-0.000276939
-0.000402727
-0.000502469
-0.000525908
-0.000400145
-3.93809e-05
0.000619431
0.00157317
0.00269578
0.00371315
0.00431054
0.004317
0.00381981
0.00315445
0.00273748
0.00267905
0.000180431
5.40829e-05
-2.16264e-05
-0.00012719
-0.000283271
-0.000484529
-0.000714123
-0.000931362
-0.00105109
-0.000940111
-0.000465534
0.000412846
0.00158026
0.00275967
0.00359503
0.00382624
0.00346539
0.00283194
0.00228494
0.00217008
0.000102728
-4.65277e-05
-0.000137447
-0.000284943
-0.000528997
-0.00088805
-0.00137728
-0.00198345
-0.00261835
-0.00308277
-0.0031054
-0.00251305
-0.0014093
2.50714e-05
0.00143609
0.00240662
0.00267892
0.00233646
0.0016948
0.00130387
-0.000214683
-0.000385916
-0.000512659
-0.000739358
-0.0011312
-0.0017503
-0.00268171
-0.00398627
-0.00559018
-0.00717092
-0.00818933
-0.00821832
-0.00740205
-0.00573774
-0.00351329
-0.00122609
0.000527794
0.00129579
0.00108683
-3.30481e-05
-0.000839797
-0.00103517
-0.00122368
-0.00157429
-0.00218799
-0.00320035
-0.0048157
-0.00719795
-0.0102248
-0.0133277
-0.0156898
-0.0167438
-0.016278
-0.0144281
-0.0114219
-0.00768189
-0.00388902
-0.00103035
-8.98249e-05
-0.00184865
-0.00179144
-0.00201472
-0.00229344
-0.00281635
-0.00373052
-0.00526644
-0.00776268
-0.011448
-0.0160534
-0.0206739
-0.0242256
-0.0260792
-0.0259624
-0.0240532
-0.0206244
-0.0159333
-0.0103888
-0.00514822
-0.00241901
-0.00358463
-0.00303244
-0.00328487
-0.00367546
-0.00440452
-0.00566286
-0.00776804
-0.0111555
-0.0160378
-0.0219505
-0.0276672
-0.0319022
-0.0340566
-0.0340301
-0.032092
-0.0286075
-0.0237567
-0.0175653
-0.0106974
-0.00561522
-0.00403029
-0.00447278
-0.00474761
-0.00525159
-0.00618351
-0.0077587
-0.0103467
-0.0144197
-0.0201282
-0.026869
-0.0332125
-0.0377632
-0.0399746
-0.0398962
-0.0378673
-0.0343818
-0.0297422
-0.0238112
-0.0165253
-0.00944416
-0.00489422
-0.00598941
-0.00626765
-0.00685838
-0.0079432
-0.00973421
-0.0126103
-0.0170348
-0.0231054
-0.0301977
-0.0368211
-0.0415347
-0.0437873
-0.0436468
-0.0414836
-0.0379134
-0.0334839
-0.0281682
-0.0214486
-0.0138991
-0.00748727
-0.00746036
-0.00770766
-0.00833426
-0.0094818
-0.0113382
-0.0142584
-0.0186743
-0.0246636
-0.0316774
-0.0382787
-0.0430415
-0.0453452
-0.0451884
-0.0429155
-0.0392287
-0.0349433
-0.0303062
-0.0246093
-0.0178552
-0.0109775
-0.00877503
-0.00896667
-0.00955582
-0.0106484
-0.0124064
-0.0151405
-0.0192314
-0.0247652
-0.0312684
-0.0375048
-0.0421515
-0.0444819
-0.0443791
-0.0421178
-0.0384033
-0.0342774
-0.0303157
-0.0256937
-0.0201097
-0.0134493
-0.00988059
-0.00999001
-0.0104594
-0.011377
-0.0128937
-0.0152602
-0.0187737
-0.023537
-0.0291893
-0.0347541
-0.0390643
-0.0413369
-0.0413472
-0.0392778
-0.0358149
-0.0319456
-0.0285654
-0.0248018
-0.0202929
-0.013879
-0.010765
-0.010775
-0.0110428
-0.0116748
-0.0128316
-0.0147138
-0.0175345
-0.0213839
-0.0260208
-0.0307215
-0.0345164
-0.036644
-0.0368453
-0.035091
-0.0320521
-0.028598
-0.0256414
-0.0224372
-0.0189149
-0.012268
-0.0114567
-0.0113584
-0.0113527
-0.0116096
-0.0123396
-0.0137131
-0.0158727
-0.0188731
-0.0225488
-0.026381
-0.0296027
-0.0315121
-0.0317579
-0.0304816
-0.0279606
-0.0249632
-0.0223474
-0.0194038
-0.0171437
-0.00899463
-0.0120302
-0.0117998
-0.0113955
-0.0111964
-0.0114958
-0.0124273
-0.0140695
-0.0164316
-0.0193757
-0.02252
-0.0252747
-0.0270345
-0.027436
-0.0264532
-0.0243693
-0.0217421
-0.0193127
-0.0164129
-0.0154318
-0.00308763
-0.0125248
-0.0121989
-0.0112973
-0.010589
-0.0104814
-0.0110657
-0.01236
-0.0143226
-0.0168144
-0.0195261
-0.0219954
-0.0236965
-0.0242657
-0.0235592
-0.0217802
-0.0193136
-0.0167491
-0.0135087
-0.0110821
0.0107501
-0.0139643
-0.0127014
-0.0107587
-0.00956004
-0.00918796
-0.00960378
-0.0107527
-0.0125504
-0.0148603
-0.0174007
-0.0197958
-0.0215603
-0.0223575
-0.0219346
-0.0203797
-0.0176565
-0.0141424
-0.00798045
0.00421956
0.0452906
-0.0126221
-0.013842
-0.0109075
-0.00895838
-0.00823663
-0.00851521
-0.00960391
-0.0113542
-0.013648
-0.0161871
-0.0186647
-0.020573
-0.021616
-0.0213574
-0.0197113
-0.0158908
-0.00862704
0.00771457
0.0433651
0.113937
-0.0301375
-0.0139719
-0.00761621
-0.00588572
-0.00570995
-0.00628391
-0.00756795
-0.00948419
-0.0119399
-0.0146149
-0.017234
-0.0193219
-0.0205955
-0.0204835
-0.0182972
-0.0118022
0.00341848
0.0380253
0.106112
0.210323
)
;

boundaryField
{
    movingWall
    {
        type            zeroGradient;
    }
    fixedWalls
    {
        type            zeroGradient;
    }
    frontAndBack
    {
        type            empty;
    }
}


// ************************************************************************* //
