# static(p)_coeff  POINT_DATA 156
# x y z  static(p)_coeff
-17.5492 0.306481 0.05 -0.0780858
-17.5492 0.306481 0 -0.0780858
-17.5472 0.397851 0 -0.285813
-17.5472 0.397851 0.05 -0.285813
-17.5391 0.49775 0 -0.514201
-17.5391 0.49775 0.05 -0.514201
-17.5189 0.60624 0 -0.760287
-17.5189 0.60624 0.05 -0.760287
-17.4861 0.723342 0 -0.995853
-17.4861 0.723342 0.05 -0.995853
-17.44 0.848679 0 -1.22353
-17.44 0.848679 0.05 -1.22353
-17.377 0.981445 0 -1.4411
-17.377 0.981445 0.05 -1.4411
-17.2959 1.12134 0 -1.62954
-17.2959 1.12134 0.05 -1.62954
-17.1951 1.26784 0 -1.79012
-17.1951 1.26784 0.05 -1.79012
-17.0722 1.42 0 -1.92349
-17.0722 1.42 0.05 -1.92349
-16.9255 1.57744 0 -2.02669
-16.9255 1.57744 0.05 -2.02669
-16.7528 1.73942 0 -2.10424
-16.7528 1.73942 0.05 -2.10424
-16.5519 1.90501 0 -2.15999
-16.5519 1.90501 0.05 -2.15999
-16.3202 2.07341 0 -2.19673
-16.3202 2.07341 0.05 -2.19673
-16.0549 2.24347 0 -2.21584
-16.0549 2.24347 0.05 -2.21584
-15.753 2.41374 0 -2.21667
-15.753 2.41374 0.05 -2.21667
-15.4112 2.58276 0 -2.19948
-15.4112 2.58276 0.05 -2.19948
-15.0259 2.74838 0 -2.16422
-15.0259 2.74838 0.05 -2.16422
-14.5933 2.90861 0 -2.11125
-14.5933 2.90861 0.05 -2.11125
-14.1092 3.06066 0 -2.04288
-14.1092 3.06066 0.05 -2.04288
-13.5691 3.20201 0 -1.96392
-13.5691 3.20201 0.05 -1.96392
-12.9684 3.32943 0 -1.88389
-12.9684 3.32943 0.05 -1.88389
-12.3022 3.44054 0 -1.81114
-12.3022 3.44054 0.05 -1.81114
-11.5649 3.53289 0 -1.73814
-11.5649 3.53289 0.05 -1.73814
-10.7508 3.60555 0 -1.63969
-10.7508 3.60555 0.05 -1.63969
-9.85332 3.65883 0 -1.50542
-9.85332 3.65883 0.05 -1.50542
-8.86484 3.69086 0 -1.35251
-8.86484 3.69086 0.05 -1.35251
-7.77697 3.69778 0 -1.20714
-7.77697 3.69778 0.05 -1.20714
-6.58048 3.6759 0 -1.08122
-6.58048 3.6759 0.05 -1.08122
-5.26526 3.62108 0 -0.968414
-5.26526 3.62108 0.05 -0.968414
-3.82021 3.52882 0 -0.85982
-3.82021 3.52882 0.05 -0.85982
-2.23308 3.39439 0 -0.752349
-2.23308 3.39439 0.05 -0.752349
-0.490443 3.2127 0 -0.645917
-0.490443 3.2127 0.05 -0.645917
1.42254 2.97825 0 -0.540072
1.42254 2.97825 0.05 -0.540072
3.5222 2.68501 0 -0.433674
3.5222 2.68501 0.05 -0.433674
5.82644 2.32599 0 -0.324642
5.82644 2.32599 0.05 -0.324642
8.3548 1.89256 0 -0.21214
8.3548 1.89256 0.05 -0.21214
11.1283 1.37286 0 -0.0896246
11.1283 1.37286 0.05 -0.0896246
14.1695 0.751658 0 0.025901
14.1695 0.751658 0.05 0.025901
17.5 -5.0487e-06 0 0.116859
17.5 -5.0487e-06 0.05 0.116859
-17.5422 0.216644 0.05 0.119595
-17.5422 0.216644 0 0.119595
-17.529 0.118651 0.05 0.317816
-17.529 0.118651 0 0.317816
-17.5035 0.0128145 0.05 0.516242
-17.5035 0.0128145 0 0.516242
-17.4639 -0.100298 0.05 0.694311
-17.4639 -0.100298 0 0.694311
-17.4081 -0.21963 0.05 0.838844
-17.4081 -0.21963 0 0.838844
-17.3329 -0.343474 0.05 0.938459
-17.3329 -0.343474 0 0.938459
-17.2353 -0.469453 0.05 0.988333
-17.2353 -0.469453 0 0.988333
-17.1135 -0.595699 0.05 0.997733
-17.1135 -0.595699 0 0.997733
-16.967 -0.721197 0.05 0.975799
-16.967 -0.721197 0 0.975799
-16.7942 -0.84439 0.05 0.926166
-16.7942 -0.84439 0 0.926166
-16.5941 -0.964642 0.05 0.860423
-16.5941 -0.964642 0 0.860423
-16.3659 -1.08228 0.05 0.790804
-16.3659 -1.08228 0 0.790804
-16.1079 -1.19749 0.05 0.722234
-16.1079 -1.19749 0 0.722234
-15.8184 -1.31053 0.05 0.65683
-15.8184 -1.31053 0 0.65683
-15.4954 -1.42239 0.05 0.595387
-15.4954 -1.42239 0 0.595387
-15.1361 -1.53339 0.05 0.537765
-15.1361 -1.53339 0 0.537765
-14.7376 -1.64422 0.05 0.483453
-14.7376 -1.64422 0 0.483453
-14.2963 -1.75519 0.05 0.431394
-14.2963 -1.75519 0 0.431394
-13.8084 -1.86663 0.05 0.38049
-13.8084 -1.86663 0 0.38049
-13.2692 -1.97821 0.05 0.329891
-13.2692 -1.97821 0 0.329891
-12.6739 -2.08937 0.05 0.279097
-12.6739 -2.08937 0 0.279097
-12.0167 -2.19857 0.05 0.227746
-12.0167 -2.19857 0 0.227746
-11.2914 -2.30322 0.05 0.176567
-11.2914 -2.30322 0 0.176567
-10.491 -2.39854 0.05 0.12883
-10.491 -2.39854 0 0.12883
-9.60806 -2.48004 0.05 0.088892
-9.60806 -2.48004 0 0.088892
-8.63486 -2.54503 0.05 0.0568718
-8.63486 -2.54503 0 0.0568718
-7.56293 -2.59043 0.05 0.0307207
-7.56293 -2.59043 0 0.0307207
-6.38295 -2.61298 0.05 0.010252
-6.38295 -2.61298 0 0.010252
-5.08474 -2.60901 0.05 -0.00429615
-5.08474 -2.60901 0 -0.00429615
-3.65712 -2.57462 0.05 -0.0133273
-3.65712 -2.57462 0 -0.0133273
-2.08779 -2.50566 0.05 -0.0174348
-2.08779 -2.50566 0 -0.0174348
-0.363235 -2.39771 0.05 -0.0169647
-0.363235 -2.39771 0 -0.0169647
1.53142 -2.24595 0.05 -0.0120541
1.53142 -2.24595 0 -0.0120541
3.61256 -2.0451 0.05 -0.00270028
3.61256 -2.0451 0 -0.00270028
5.89814 -1.78898 0.05 0.0116082
5.89814 -1.78898 0 0.0116082
8.40781 -1.46986 0.05 0.0322275
8.40781 -1.46986 0 0.0322275
11.1628 -1.07688 0.05 0.0646156
11.1628 -1.07688 0 0.0646156
14.1859 -0.596043 0.05 0.119555
14.1859 -0.596043 0 0.119555
