/*--------------------------------*- C++ -*----------------------------------*\
| =========                 |                                                 |
| \\      /  F ield         | OpenFOAM: The Open Source CFD Toolbox           |
|  \\    /   O peration     | Version:  2506                                  |
|   \\  /    A nd           | Website:  www.openfoam.com                      |
|    \\/     M anipulation  |                                                 |
\*---------------------------------------------------------------------------*/
FoamFile
{
    version     2.0;
    format      ascii;
    arch        "LSB;label=32;scalar=64";
    class       volVectorField;
    location    "400";
    object      momentError;
}
// * * * * * * * * * * * * * * * * * * * * * * * * * * * * * * * * * * * * * //

dimensions      [0 1 -2 0 0 0 0];

internalField   nonuniform List<vector> 
1340
(
(-8.86992e-05 0.000145935 2.99402e-14)
(-0.000117032 0.000108781 -7.52055e-14)
(-0.000116457 8.542e-05 9.57951e-14)
(-8.17522e-05 2.35488e-05 -6.00386e-14)
(-2.0544e-05 -1.36664e-05 -1.46125e-13)
(4.51747e-07 -1.80756e-05 -1.64675e-13)
(9.9342e-06 -1.67972e-05 1.32091e-14)
(1.52393e-05 -1.42979e-05 1.33035e-13)
(1.68814e-05 -1.03866e-05 3.99406e-14)
(1.4907e-05 -6.60514e-06 -5.0307e-14)
(1.1657e-05 -3.45624e-06 -3.5475e-14)
(8.22788e-06 -1.63529e-06 -2.1818e-14)
(5.05001e-06 1.27029e-09 3.90399e-14)
(1.42587e-06 4.09682e-07 1.72961e-14)
(-1.73345e-06 9.34232e-07 2.50514e-14)
(-4.8994e-06 -4.18516e-07 -3.38377e-14)
(-3.85668e-06 -2.09188e-06 -2.46551e-14)
(1.56667e-06 -3.13713e-06 1.8184e-14)
(8.21677e-06 -3.03893e-06 1.24073e-14)
(1.56756e-05 -2.12332e-06 6.93012e-15)
(2.22476e-05 -4.04129e-06 -1.46247e-15)
(2.27271e-05 -2.70944e-06 -2.84507e-16)
(1.43723e-05 -6.6518e-06 2.30632e-16)
(1.58364e-05 -2.64148e-06 -4.51385e-16)
(2.55186e-05 -2.10053e-06 -1.86761e-15)
(2.90374e-05 -1.24874e-06 -1.26028e-15)
(5.73953e-05 2.21082e-06 -3.84009e-15)
(6.74919e-05 4.22446e-06 -2.90674e-15)
(-1.43662e-05 0.00014556 1.11416e-13)
(-4.35947e-05 0.000124304 5.95854e-14)
(-7.57403e-05 8.7306e-05 -8.25883e-14)
(-8.66582e-05 5.31678e-05 -1.06483e-14)
(-7.14164e-05 5.6957e-06 1.01897e-13)
(-3.86604e-05 -1.68101e-05 -5.20994e-15)
(-1.91013e-05 -2.19995e-05 1.22903e-14)
(-7.97196e-06 -2.30184e-05 -2.47923e-14)
(-8.59762e-07 -2.12733e-05 -3.2588e-14)
(2.69537e-06 -1.68726e-05 1.41526e-14)
(2.93516e-06 -1.22693e-05 1.7087e-14)
(1.24855e-06 -8.70768e-06 -5.80437e-14)
(-9.02573e-07 -6.11142e-06 2.69297e-14)
(-3.39797e-06 -4.36252e-06 1.78451e-14)
(-5.98702e-06 -2.99647e-06 1.46789e-14)
(-8.59598e-06 -2.45331e-06 3.19092e-14)
(-1.02897e-05 -2.29465e-06 4.17819e-14)
(-8.69552e-06 -4.33067e-06 1.76494e-14)
(-3.15957e-06 -5.32288e-06 -1.51653e-14)
(3.50779e-06 -6.07278e-06 8.16094e-16)
(1.121e-05 -5.8744e-06 -5.68202e-15)
(1.92088e-05 -5.07839e-06 -2.08582e-15)
(1.98862e-05 -3.01054e-06 3.93327e-16)
(1.60865e-05 1.4117e-07 -3.8625e-17)
(3.09058e-05 -4.52774e-06 2.8294e-16)
(3.76525e-05 -8.11656e-07 6.1409e-16)
(4.49752e-05 -8.03753e-07 1.84959e-15)
(4.67291e-05 2.9652e-06 2.35498e-15)
(7.50648e-05 1.13478e-05 7.65994e-16)
(-4.25319e-06 0.000121638 1.35491e-14)
(-2.59037e-05 0.000102606 -1.17648e-13)
(-5.4415e-05 7.84418e-05 -7.91932e-14)
(-6.69991e-05 5.09924e-05 -8.81237e-14)
(-5.79788e-05 2.15134e-05 9.75413e-14)
(-3.81089e-05 4.31556e-06 1.4533e-14)
(-2.1785e-05 -3.72706e-06 -1.36542e-14)
(-1.1107e-05 -7.50403e-06 -8.08998e-14)
(-4.21661e-06 -7.99292e-06 -5.80885e-14)
(-2.8407e-07 -5.86108e-06 3.78567e-14)
(9.18539e-07 -3.27658e-06 -2.13741e-14)
(1.51086e-07 -1.28052e-06 -4.39724e-14)
(-1.49069e-06 -3.73887e-08 -4.00353e-15)
(-3.60646e-06 8.08009e-07 -4.02395e-14)
(-6.0036e-06 8.66271e-07 -4.30003e-14)
(-8.45411e-06 3.05932e-07 -8.43254e-14)
(-1.00347e-05 -1.77132e-06 -6.39434e-14)
(-8.47023e-06 -4.97481e-06 -1.79986e-14)
(-3.27039e-06 -6.62302e-06 3.95036e-15)
(3.24892e-06 -6.8566e-06 -1.14748e-15)
(1.05225e-05 -5.9868e-06 -1.05285e-14)
(1.8261e-05 -4.80919e-06 4.47386e-15)
(1.93392e-05 -1.72413e-06 5.81754e-16)
(1.53355e-05 -5.14265e-06 -1.81327e-16)
(2.2337e-05 -3.09044e-06 -9.4499e-18)
(3.06739e-05 -1.30764e-06 -5.34179e-16)
(3.57785e-05 -3.62377e-06 -9.83159e-16)
(4.73274e-05 -8.17108e-06 -1.46478e-15)
(3.6231e-05 1.79117e-07 1.86742e-15)
(1.017e-05 0.000136972 7.34768e-14)
(2.10884e-06 0.000105218 -1.8417e-13)
(-1.84047e-05 9.19167e-05 1.69127e-13)
(-4.23404e-05 7.68478e-05 2.01466e-15)
(-5.1853e-05 5.36368e-05 -1.20416e-13)
(-4.74183e-05 2.8978e-05 -7.02475e-14)
(-3.62264e-05 1.14352e-05 -1.98383e-14)
(-2.42871e-05 5.70715e-07 5.95862e-14)
(-1.54336e-05 -5.44389e-06 1.29281e-13)
(-9.43708e-06 -7.78231e-06 2.11142e-14)
(-5.66679e-06 -7.54114e-06 -4.73379e-14)
(-3.92395e-06 -6.15131e-06 2.21983e-14)
(-3.87783e-06 -4.66701e-06 5.00097e-14)
(-4.86673e-06 -3.66508e-06 -3.67786e-15)
(-6.40413e-06 -2.76564e-06 -7.78287e-15)
(-8.29585e-06 -2.57223e-06 -2.14375e-14)
(-1.01887e-05 -2.84652e-06 5.2807e-14)
(-1.12001e-05 -4.52941e-06 3.09354e-14)
(-9.35918e-06 -7.22884e-06 -1.07667e-14)
(-4.34881e-06 -8.74306e-06 -1.69122e-14)
(2.07135e-06 -8.91038e-06 -6.96414e-15)
(9.3586e-06 -8.0944e-06 1.26255e-14)
(1.703e-05 -7.00894e-06 -8.91379e-16)
(1.8387e-05 -3.78936e-06 -5.13488e-16)
(1.5339e-05 -4.26092e-06 2.01659e-16)
(2.13081e-05 -8.72646e-06 -3.98163e-17)
(3.06271e-05 -5.36294e-06 -3.67099e-17)
(4.5649e-05 2.60684e-05 2.74296e-16)
(0.000152524 0.000350496 5.11982e-16)
(0.000686024 0.0020078 -3.2324e-15)
(1.18836e-05 0.000112665 -6.87533e-14)
(3.04867e-06 9.60707e-05 -7.24484e-14)
(-1.51835e-05 8.60622e-05 1.5044e-13)
(-3.32612e-05 7.27746e-05 1.26936e-13)
(-4.06342e-05 5.43073e-05 3.56481e-14)
(-3.84424e-05 3.49712e-05 -5.19379e-14)
(-3.13514e-05 1.94952e-05 5.9181e-14)
(-2.27346e-05 8.59787e-06 4.5428e-14)
(-1.56346e-05 1.98096e-06 -3.98189e-15)
(-1.07923e-05 -1.28741e-06 -9.37211e-14)
(-7.50854e-06 -2.08079e-06 3.96395e-15)
(-5.65386e-06 -1.70393e-06 3.73007e-15)
(-5.19772e-06 -9.38951e-07 2.06854e-16)
(-5.74383e-06 -3.96285e-07 1.51383e-14)
(-6.93452e-06 7.24683e-08 -5.43059e-15)
(-8.48647e-06 -2.10097e-07 1.23011e-14)
(-1.00575e-05 -1.01923e-06 -2.67244e-14)
(-1.08135e-05 -3.46868e-06 -1.53651e-14)
(-9.02769e-06 -6.60918e-06 1.55018e-14)
(-4.37047e-06 -8.74609e-06 2.09531e-14)
(1.81197e-06 -9.0427e-06 1.25527e-15)
(9.05095e-06 -8.14392e-06 -1.23695e-15)
(1.66233e-05 -6.34771e-06 -3.25999e-15)
(1.82992e-05 -2.64468e-06 6.54288e-16)
(1.56406e-05 -4.33555e-06 -1.04589e-16)
(2.16524e-05 -4.33374e-06 -5.3057e-16)
(3.1457e-05 7.02618e-07 -2.80943e-17)
(3.85231e-05 -4.96162e-05 7.79201e-17)
(4.18553e-05 -0.000545537 -6.95503e-17)
(-9.74713e-05 -0.00293538 -9.3099e-16)
(1.68284e-05 0.00011155 4.68171e-15)
(1.35386e-05 9.4336e-05 -7.8182e-14)
(5.04689e-06 8.47708e-05 -2.9426e-14)
(-1.12566e-05 7.93451e-05 -3.50567e-14)
(-2.51214e-05 6.92107e-05 2.74177e-14)
(-3.10113e-05 5.40252e-05 1.35735e-13)
(-3.01066e-05 3.81551e-05 -3.0359e-14)
(-2.55645e-05 2.43056e-05 -5.88494e-14)
(-1.96693e-05 1.36092e-05 2.50168e-15)
(-1.45664e-05 6.4921e-06 -5.12986e-14)
(-1.11185e-05 2.36655e-06 1.70031e-14)
(-8.69458e-06 5.12341e-07 2.54112e-14)
(-7.1218e-06 -1.79117e-07 3.93182e-14)
(-6.55712e-06 -3.06265e-07 1.5049e-14)
(-6.89085e-06 -3.17338e-07 -1.77031e-14)
(-7.84639e-06 -3.33084e-07 2.27256e-14)
(-9.0689e-06 -8.22617e-07 2.51827e-14)
(-1.03009e-05 -1.97556e-06 1.82594e-14)
(-1.06866e-05 -4.43569e-06 3.81566e-15)
(-8.92187e-06 -7.54048e-06 -1.44098e-14)
(-4.54278e-06 -9.69726e-06 1.18017e-14)
(1.33456e-06 -1.02783e-05 3.28036e-15)
(8.4761e-06 -9.36053e-06 -1.1371e-14)
(1.59104e-05 -7.61087e-06 1.22343e-15)
(1.79493e-05 -3.79117e-06 -1.1845e-16)
(1.58187e-05 -5.01751e-06 2.05601e-16)
(2.1332e-05 -6.7456e-06 6.6728e-16)
(2.97941e-05 -3.49942e-06 -1.60553e-16)
(3.01945e-05 1.18156e-05 -2.51237e-16)
(-7.69232e-06 0.00014933 5.63742e-16)
(-0.000245022 0.000918077 1.39647e-15)
(1.55427e-05 9.53289e-05 7.38143e-15)
(1.34998e-05 7.93344e-05 1.10946e-14)
(5.83355e-06 7.55107e-05 8.06391e-14)
(-7.37475e-06 7.23183e-05 -1.01462e-13)
(-1.80615e-05 6.42268e-05 -3.28009e-14)
(-2.27394e-05 5.2231e-05 -3.1148e-14)
(-2.25187e-05 3.9282e-05 1.17307e-13)
(-1.95167e-05 2.72975e-05 -4.64459e-14)
(-1.54722e-05 1.76208e-05 -4.56716e-15)
(-1.21607e-05 1.07844e-05 1.85391e-14)
(-9.99772e-06 6.61455e-06 1.77852e-14)
(-8.46238e-06 4.19066e-06 1.20879e-14)
(-7.33291e-06 2.80357e-06 -7.68257e-14)
(-6.89319e-06 2.00048e-06 -2.81418e-14)
(-7.15417e-06 1.55639e-06 3.58171e-14)
(-7.95509e-06 1.09955e-06 1.42872e-15)
(-8.93387e-06 3.98624e-07 3.63862e-14)
(-9.85905e-06 -1.12069e-06 -1.03902e-14)
(-1.0015e-05 -3.68618e-06 1.50662e-15)
(-8.29432e-06 -6.95458e-06 2.42355e-14)
(-4.30232e-06 -9.38784e-06 -2.0363e-14)
(1.28172e-06 -1.03899e-05 -6.98987e-15)
(8.16119e-06 -9.79883e-06 6.58223e-15)
(1.5478e-05 -7.85215e-06 2.19797e-15)
(1.77644e-05 -3.98071e-06 -1.15999e-18)
(1.61113e-05 -4.79538e-06 -2.57133e-16)
(2.12015e-05 -5.6933e-06 6.37702e-16)
(2.99371e-05 -1.9363e-06 7.49935e-17)
(3.68769e-05 -2.83982e-06 -1.08075e-15)
(4.9292e-05 -8.87663e-06 5.42741e-17)
(7.31981e-05 -3.62118e-05 -3.16315e-15)
(1.60925e-05 7.81565e-05 3.14461e-15)
(1.28907e-05 7.01053e-05 1.01651e-13)
(5.26161e-06 6.88197e-05 1.36656e-13)
(-5.28123e-06 6.61616e-05 -5.29997e-14)
(-1.20848e-05 5.88919e-05 -7.253e-14)
(-1.55505e-05 4.93109e-05 -5.54113e-14)
(-1.55477e-05 3.87584e-05 -1.02164e-13)
(-1.35049e-05 2.8686e-05 -5.52872e-15)
(-1.0863e-05 2.02127e-05 -4.30501e-14)
(-8.9733e-06 1.40424e-05 5.78123e-14)
(-8.03628e-06 9.94188e-06 1.93966e-14)
(-7.3844e-06 7.14618e-06 -3.07512e-14)
(-6.82041e-06 5.09369e-06 -3.26307e-15)
(-6.67939e-06 3.67307e-06 -2.54406e-14)
(-7.05819e-06 2.68873e-06 2.79092e-15)
(-7.81187e-06 1.84043e-06 -1.77681e-14)
(-8.65183e-06 7.51545e-07 -3.338e-14)
(-9.30125e-06 -9.90788e-07 1.47958e-14)
(-9.27551e-06 -3.68128e-06 -2.76257e-14)
(-7.58593e-06 -6.91096e-06 -1.00665e-14)
(-3.96437e-06 -9.57809e-06 6.28575e-15)
(1.28678e-06 -1.08706e-05 3.97121e-15)
(7.83572e-06 -1.07071e-05 1.56323e-15)
(1.4956e-05 -8.7531e-06 -1.03508e-15)
(1.74888e-05 -5.0429e-06 -4.35141e-16)
(1.63511e-05 -5.17493e-06 -7.72656e-17)
(2.11441e-05 -6.14067e-06 -1.03046e-15)
(2.98197e-05 -3.00163e-06 5.5351e-16)
(3.75244e-05 -3.02868e-06 3.06416e-15)
(4.97855e-05 -3.37827e-06 5.12375e-17)
(6.61906e-05 1.20962e-05 2.498e-15)
(1.6408e-05 7.3123e-05 9.71646e-14)
(1.59514e-05 6.65374e-05 6.4319e-14)
(1.30062e-05 6.16163e-05 -1.65789e-13)
(6.77423e-06 5.82663e-05 -1.14058e-13)
(-2.97963e-06 5.93749e-05 -3.87775e-14)
(-8.07957e-06 5.487e-05 7.08573e-14)
(-9.40442e-06 4.60786e-05 7.3203e-14)
(-9.32145e-06 3.72178e-05 2.72944e-14)
(-7.81381e-06 2.88273e-05 2.50398e-14)
(-6.20081e-06 2.1748e-05 -2.67405e-14)
(-5.40754e-06 1.65585e-05 -8.73374e-14)
(-5.44252e-06 1.2821e-05 1.34148e-14)
(-5.53881e-06 9.88034e-06 2.70941e-14)
(-5.58235e-06 7.44641e-06 1.84378e-14)
(-5.81432e-06 5.61218e-06 5.10859e-14)
(-6.41604e-06 4.20649e-06 -2.84807e-14)
(-7.20984e-06 3.09038e-06 -2.12613e-14)
(-7.95112e-06 1.69045e-06 -1.53181e-14)
(-8.42146e-06 -2.19577e-07 -3.15587e-15)
(-8.24045e-06 -2.96269e-06 2.46382e-14)
(-6.65742e-06 -6.16344e-06 1.6455e-14)
(-3.34254e-06 -8.99579e-06 1.90875e-14)
(1.49777e-06 -1.06714e-05 6.47005e-15)
(7.72433e-06 -1.09022e-05 2.82453e-17)
(1.45038e-05 -9.25582e-06 2.21314e-15)
(1.72756e-05 -5.4505e-06 -3.08461e-16)
(1.65724e-05 -5.21335e-06 3.02118e-16)
(2.11516e-05 -5.81401e-06 -3.79817e-16)
(2.96561e-05 -2.70478e-06 3.18439e-17)
(3.7885e-05 -2.06577e-06 -1.75996e-15)
(5.05693e-05 -3.2911e-06 4.24008e-16)
(6.89579e-05 -2.66437e-07 4.63034e-15)
(1.48431e-05 5.62303e-05 1.02134e-13)
(1.31412e-05 5.37598e-05 1.87092e-14)
(6.78083e-06 5.37586e-05 -2.79249e-15)
(1.95596e-06 4.97592e-05 -9.34346e-14)
(-3.81055e-06 4.94996e-05 -3.88165e-14)
(-4.71761e-06 4.3222e-05 5.64922e-14)
(-3.83153e-06 3.52232e-05 6.41652e-14)
(-2.68127e-06 2.82146e-05 1.04452e-13)
(-1.69535e-06 2.25028e-05 9.98124e-14)
(-1.74806e-06 1.82552e-05 -2.10587e-14)
(-2.50231e-06 1.50275e-05 -8.11414e-15)
(-3.20746e-06 1.20729e-05 1.57313e-14)
(-3.77938e-06 9.45737e-06 3.48482e-15)
(-4.464e-06 7.31676e-06 1.13504e-14)
(-5.34651e-06 5.65259e-06 3.09247e-14)
(-6.28687e-06 4.18664e-06 8.27695e-17)
(-6.98602e-06 2.57361e-06 -1.26205e-14)
(-7.34338e-06 4.51199e-07 -5.7631e-15)
(-7.06197e-06 -2.29005e-06 2.63304e-15)
(-5.5785e-06 -5.49819e-06 1.12642e-15)
(-2.56514e-06 -8.40391e-06 -3.97038e-15)
(1.86718e-06 -1.04339e-05 -8.91572e-15)
(7.70368e-06 -1.10147e-05 5.5419e-16)
(1.406e-05 -9.74935e-06 -1.41934e-15)
(1.69725e-05 -6.01494e-06 4.54778e-16)
(1.67511e-05 -5.47648e-06 6.53949e-17)
(2.11759e-05 -5.90261e-06 2.16457e-16)
(2.95119e-05 -3.06478e-06 1.74726e-15)
(3.81032e-05 -2.09343e-06 2.52526e-15)
(5.07111e-05 -2.44163e-06 -1.9276e-15)
(6.79525e-05 2.636e-06 -6.47489e-15)
(1.28712e-05 4.63518e-05 9.94015e-15)
(6.71057e-06 5.03307e-05 7.45267e-14)
(2.98199e-06 4.76338e-05 -9.30758e-14)
(2.17754e-06 4.09697e-05 1.36614e-15)
(-1.43386e-07 3.87531e-05 2.55346e-14)
(6.65246e-07 3.27553e-05 -1.08716e-13)
(1.80774e-06 2.70925e-05 -1.63281e-13)
(2.3621e-06 2.26537e-05 2.25665e-14)
(1.82573e-06 1.93855e-05 2.43315e-14)
(5.92624e-07 1.66019e-05 -1.70256e-14)
(-5.50339e-07 1.38056e-05 -1.64716e-14)
(-1.57765e-06 1.11721e-05 -3.75644e-14)
(-2.70994e-06 8.92587e-06 3.35301e-14)
(-3.90912e-06 7.11824e-06 2.93744e-14)
(-5.0062e-06 5.45544e-06 9.0653e-15)
(-5.73984e-06 3.61343e-06 3.06018e-14)
(-6.03667e-06 1.37741e-06 2.85566e-14)
(-5.72766e-06 -1.36242e-06 1.1427e-15)
(-4.34366e-06 -4.48072e-06 -4.24729e-14)
(-1.64383e-06 -7.43519e-06 -9.03094e-15)
(2.42088e-06 -9.68468e-06 -2.44324e-15)
(7.79548e-06 -1.06444e-05 -7.61523e-15)
(1.37246e-05 -9.69095e-06 -4.13622e-17)
(1.66747e-05 -6.31927e-06 -9.25456e-17)
(1.69247e-05 -5.4261e-06 2.19291e-16)
(2.12011e-05 -5.84129e-06 -2.34824e-16)
(2.93488e-05 -3.13935e-06 -1.81293e-16)
(3.81855e-05 -1.68864e-06 2.33119e-17)
(5.06696e-05 -1.07137e-06 -4.45338e-15)
(6.67235e-05 3.87328e-06 2.72911e-15)
(8.63584e-06 4.1925e-05 -7.00859e-14)
(2.23037e-06 4.67746e-05 7.50874e-14)
(3.01863e-06 3.97452e-05 5.8373e-14)
(5.30917e-06 3.17221e-05 7.79335e-14)
(4.97624e-06 2.90563e-05 7.72713e-14)
(5.77826e-06 2.53466e-05 -5.42474e-14)
(6.02784e-06 2.2224e-05 -5.91122e-14)
(5.20224e-06 1.98929e-05 4.22783e-14)
(3.6972e-06 1.76065e-05 1.36122e-14)
(2.27474e-06 1.50934e-05 2.77792e-15)
(8.63262e-07 1.25432e-05 -5.28829e-15)
(-6.5747e-07 1.03828e-05 -8.11513e-14)
(-2.19682e-06 8.48662e-06 -3.57936e-14)
(-3.46506e-06 6.72172e-06 -1.46658e-14)
(-4.2648e-06 4.70655e-06 -3.10049e-14)
(-4.56763e-06 2.40706e-06 -1.60434e-14)
(-4.25913e-06 -3.24924e-07 3.66987e-15)
(-2.99949e-06 -3.36056e-06 2.51786e-14)
(-5.71556e-07 -6.31592e-06 1.37406e-15)
(3.11206e-06 -8.72741e-06 1.15439e-14)
(8.01901e-06 -9.9753e-06 8.95667e-15)
(1.34382e-05 -9.37527e-06 1.0887e-15)
(1.63585e-05 -6.42949e-06 -1.28711e-15)
(1.70421e-05 -5.42464e-06 -2.04683e-16)
(2.12432e-05 -5.83305e-06 -2.23934e-16)
(2.9161e-05 -3.41162e-06 3.64187e-16)
(3.81627e-05 -1.5549e-06 -2.99406e-16)
(5.05348e-05 2.26571e-08 1.83718e-15)
(6.55047e-05 5.57069e-06 2.59537e-15)
(6.40808e-06 3.68932e-05 9.77225e-14)
(1.36929e-06 4.08011e-05 6.41965e-15)
(7.7695e-06 2.87968e-05 -5.21812e-14)
(8.70668e-06 2.53119e-05 4.48759e-14)
(9.11209e-06 2.33856e-05 9.55723e-14)
(9.24146e-06 2.14706e-05 1.66068e-14)
(8.31338e-06 1.98778e-05 -6.74012e-14)
(6.73919e-06 1.81111e-05 3.37441e-14)
(5.12839e-06 1.58863e-05 1.38587e-14)
(3.41864e-06 1.36558e-05 1.93073e-15)
(1.54437e-06 1.16433e-05 1.99985e-15)
(-2.52852e-07 9.83219e-06 -5.01722e-14)
(-1.69897e-06 7.95105e-06 6.3913e-15)
(-2.5831e-06 5.90248e-06 3.20088e-15)
(-2.93973e-06 3.54398e-06 2.24476e-16)
(-2.67215e-06 9.08797e-07 -3.34461e-16)
(-1.55765e-06 -2.05717e-06 9.53632e-15)
(6.18622e-07 -4.91398e-06 1.79727e-14)
(3.92464e-06 -7.43558e-06 -8.92408e-15)
(8.369e-06 -8.83757e-06 -6.21535e-15)
(1.32621e-05 -8.6327e-06 1.65615e-15)
(1.6124e-05 -6.13e-06 1.03167e-15)
(1.71768e-05 -5.22454e-06 -3.46437e-16)
(2.13124e-05 -5.68619e-06 -1.55467e-16)
(2.89413e-05 -3.53038e-06 -1.80237e-15)
(3.8024e-05 -1.23832e-06 2.26649e-15)
(5.02794e-05 1.14254e-06 1.93897e-15)
(6.42608e-05 7.1678e-06 -8.87347e-15)
(6.9115e-06 3.00518e-05 -2.06117e-14)
(3.36576e-06 3.43073e-05 3.45132e-14)
(1.29474e-05 2.10343e-05 -2.64684e-14)
(1.18733e-05 2.15485e-05 -3.31975e-14)
(1.19486e-05 2.06465e-05 1.41589e-14)
(1.10565e-05 1.96103e-05 3.36165e-14)
(9.56622e-06 1.82566e-05 -4.79462e-14)
(7.869e-06 1.6352e-05 1.00895e-14)
(5.95958e-06 1.44912e-05 2.92532e-14)
(3.79789e-06 1.27443e-05 2.80917e-14)
(1.79982e-06 1.10763e-05 2.81822e-14)
(2.24126e-07 9.19199e-06 1.28359e-14)
(-7.6065e-07 7.1257e-06 5.79826e-15)
(-1.19075e-06 4.78554e-06 9.13036e-15)
(-1.00606e-06 2.2273e-06 1.09399e-14)
(-2.27598e-08 -6.03624e-07 -1.34853e-14)
(1.90096e-06 -3.37323e-06 -1.64104e-14)
(4.86314e-06 -5.90503e-06 -7.62944e-16)
(8.82433e-06 -7.45954e-06 -2.97501e-15)
(1.31929e-05 -7.55145e-06 -1.56546e-15)
(1.59124e-05 -5.59865e-06 -4.87734e-16)
(1.73229e-05 -4.85572e-06 2.58052e-16)
(2.13924e-05 -5.46313e-06 1.64919e-15)
(2.8681e-05 -3.55857e-06 -1.76981e-15)
(3.77606e-05 -1.04722e-06 -4.73608e-15)
(4.99047e-05 2.14418e-06 6.02324e-15)
(6.30542e-05 8.67121e-06 2.14016e-15)
(6.72805e-06 2.77209e-05 -3.65764e-14)
(1.14106e-05 2.33753e-05 -5.9227e-14)
(1.52493e-05 1.87649e-05 -2.1536e-14)
(1.44131e-05 1.94077e-05 -2.56364e-14)
(1.37101e-05 1.89734e-05 -1.09423e-15)
(1.22363e-05 1.799e-05 4.38308e-15)
(1.05064e-05 1.65839e-05 -4.33725e-14)
(8.38779e-06 1.50944e-05 7.7308e-15)
(6.06671e-06 1.37236e-05 -2.5535e-14)
(3.91999e-06 1.2172e-05 -1.64599e-14)
(2.26198e-06 1.04096e-05 3.05061e-14)
(1.1801e-06 8.35095e-06 -1.76402e-14)
(6.60527e-07 6.12193e-06 -3.17496e-14)
(7.41606e-07 3.63139e-06 2.42536e-15)
(1.57663e-06 1.00047e-06 1.69042e-14)
(3.26292e-06 -1.6728e-06 2.45111e-15)
(5.88632e-06 -4.10213e-06 -3.6569e-15)
(9.38713e-06 -5.78887e-06 1.08233e-15)
(1.32482e-05 -6.09256e-06 2.94351e-16)
(1.58328e-05 -4.74231e-06 -6.6148e-16)
(1.75177e-05 -4.27903e-06 4.49121e-16)
(2.14997e-05 -4.96346e-06 -1.26748e-15)
(2.84231e-05 -3.40148e-06 -1.32146e-16)
(3.73868e-05 -7.31343e-07 -2.16965e-16)
(4.9406e-05 3.19405e-06 2.06692e-15)
(6.18029e-05 1.00872e-05 8.07275e-15)
(1.161e-05 2.03317e-05 -2.1852e-14)
(7.84211e-06 2.67017e-05 -5.97841e-14)
(1.79751e-05 1.64496e-05 -9.68118e-15)
(1.65694e-05 1.82297e-05 4.24498e-15)
(1.594e-05 1.82335e-05 -2.73765e-14)
(1.46244e-05 1.76045e-05 5.82456e-14)
(1.28936e-05 1.66562e-05 5.85409e-14)
(1.06654e-05 1.56181e-05 -1.39515e-15)
(8.23798e-06 1.45525e-05 2.07571e-14)
(6.04671e-06 1.31893e-05 -1.46693e-14)
(4.33285e-06 1.15418e-05 1.59346e-14)
(3.17706e-06 9.59934e-06 3.72978e-14)
(2.55368e-06 7.48249e-06 1.55836e-15)
(2.52562e-06 5.14109e-06 -2.6631e-14)
(3.20171e-06 2.67489e-06 -8.15156e-15)
(4.67285e-06 1.43219e-07 7.64606e-15)
(6.96581e-06 -2.21386e-06 3.80746e-15)
(1.00369e-05 -3.92612e-06 6.89453e-15)
(1.3393e-05 -4.48167e-06 -2.89438e-15)
(1.58335e-05 -3.62899e-06 4.78921e-17)
(1.77216e-05 -3.52487e-06 -1.94225e-16)
(2.16151e-05 -4.21612e-06 1.13719e-16)
(2.81245e-05 -3.08177e-06 2.43649e-16)
(3.6871e-05 -3.25842e-07 -1.76919e-15)
(4.87715e-05 4.07396e-06 -1.35657e-14)
(6.05426e-05 1.13698e-05 -1.42095e-14)
(1.11448e-05 2.11043e-05 -4.60342e-14)
(1.43558e-05 2.04554e-05 9.54308e-15)
(1.93487e-05 1.61032e-05 4.26143e-14)
(1.81946e-05 1.72233e-05 2.86932e-14)
(1.70142e-05 1.6948e-05 -2.17628e-14)
(1.51553e-05 1.64672e-05 1.93878e-14)
(1.2864e-05 1.59784e-05 -1.61458e-14)
(1.03624e-05 1.51792e-05 6.79324e-16)
(8.16851e-06 1.40717e-05 1.84828e-14)
(6.41596e-06 1.25549e-05 -1.61892e-14)
(5.19698e-06 1.08072e-05 1.64406e-14)
(4.4737e-06 8.80389e-06 1.33425e-14)
(4.32464e-06 6.67291e-06 1.02308e-14)
(4.84518e-06 4.3766e-06 -8.59357e-15)
(6.11203e-06 2.07138e-06 -6.7273e-15)
(8.09376e-06 -2.397e-07 -2.51488e-15)
(1.0755e-05 -1.91098e-06 -4.99836e-15)
(1.36675e-05 -2.70302e-06 5.99283e-16)
(1.5958e-05 -2.29533e-06 1.96787e-15)
(1.79919e-05 -2.53162e-06 -2.08797e-16)
(2.17501e-05 -3.22174e-06 1.18725e-15)
(2.78541e-05 -2.42146e-06 -7.04446e-16)
(3.62865e-05 2.22073e-07 1.52951e-15)
(4.80271e-05 5.03906e-06 9.62983e-15)
(5.9177e-05 1.26547e-05 7.21058e-15)
(1.52797e-05 1.55494e-05 -7.79657e-14)
(1.15697e-05 2.21373e-05 -4.35792e-14)
(2.07865e-05 1.51665e-05 1.25076e-14)
(1.9503e-05 1.64194e-05 -1.09356e-14)
(1.89595e-05 1.6432e-05 -3.42821e-14)
(1.70818e-05 1.63455e-05 -5.21845e-14)
(1.47962e-05 1.62144e-05 2.35338e-14)
(1.23465e-05 1.57153e-05 -2.29739e-14)
(1.01823e-05 1.47968e-05 -1.05775e-14)
(8.43138e-06 1.34923e-05 -2.23707e-14)
(7.16002e-06 1.19278e-05 -4.10717e-14)
(6.34832e-06 1.01349e-05 -1.27659e-14)
(6.0808e-06 8.19079e-06 1.32926e-14)
(6.45717e-06 6.10538e-06 1.14182e-14)
(7.5371e-06 3.93254e-06 6.84958e-16)
(9.25189e-06 1.76367e-06 4.4047e-15)
(1.15158e-05 7.09219e-08 -2.54274e-15)
(1.40358e-05 -8.40631e-07 -6.59354e-17)
(1.61532e-05 -8.74675e-07 7.90583e-16)
(1.82799e-05 -1.30605e-06 -5.64678e-16)
(2.18765e-05 -2.06155e-06 2.56324e-16)
(2.75709e-05 -1.48112e-06 1.2398e-15)
(3.55967e-05 9.20249e-07 -1.11482e-15)
(4.70618e-05 5.98543e-06 -1.63827e-15)
(5.77704e-05 1.37878e-05 7.72347e-15)
(1.36836e-05 1.84144e-05 -8.89572e-14)
(1.78358e-05 1.73079e-05 -1.20442e-14)
(2.19902e-05 1.45135e-05 6.61014e-15)
(2.0161e-05 1.57034e-05 4.73019e-14)
(1.8776e-05 1.60434e-05 1.07966e-14)
(1.64536e-05 1.62557e-05 -1.75585e-14)
(1.41278e-05 1.60593e-05 3.19508e-14)
(1.20339e-05 1.53443e-05 9.19132e-16)
(1.03195e-05 1.42959e-05 2.48675e-14)
(9.0271e-06 1.29163e-05 1.12479e-14)
(8.15221e-06 1.13732e-05 2.94391e-15)
(7.78299e-06 9.62661e-06 2.15216e-15)
(8.0543e-06 7.79822e-06 -6.94551e-15)
(8.96888e-06 5.71076e-06 -3.21052e-15)
(1.04246e-05 3.71124e-06 1.16745e-15)
(1.23436e-05 2.00906e-06 1.31993e-15)
(1.45011e-05 1.02256e-06 7.60292e-16)
(1.64761e-05 6.48396e-07 -7.29529e-16)
(1.86135e-05 5.73119e-08 4.34216e-17)
(2.20554e-05 -6.76927e-07 -2.52964e-15)
(2.7342e-05 -3.05286e-07 1.78006e-15)
(3.49285e-05 1.93601e-06 6.53274e-15)
(4.592e-05 6.95591e-06 -2.57341e-15)
(5.63113e-05 1.50906e-05 -8.08321e-15)
(1.51092e-05 1.63974e-05 2.50407e-14)
(1.71024e-05 1.68481e-05 -2.6772e-15)
(2.29762e-05 1.28914e-05 2.65378e-14)
(2.15324e-05 1.44961e-05 -2.16546e-14)
(2.00916e-05 1.54144e-05 1.36284e-14)
(1.79435e-05 1.60345e-05 -1.45133e-14)
(1.5717e-05 1.61193e-05 1.04244e-14)
(1.37266e-05 1.57074e-05 1.15768e-14)
(1.2057e-05 1.48993e-05 -4.086e-15)
(1.07663e-05 1.38039e-05 1.69034e-14)
(9.84219e-06 1.24799e-05 -9.9264e-15)
(9.39498e-06 1.09925e-05 -1.06632e-14)
(9.57537e-06 9.30464e-06 9.05087e-15)
(1.03802e-05 7.40169e-06 -3.9453e-15)
(1.15912e-05 5.48367e-06 -8.0169e-15)
(1.32003e-05 3.85745e-06 4.13734e-16)
(1.50257e-05 2.78087e-06 4.7108e-16)
(1.68495e-05 2.2141e-06 -8.83028e-16)
(1.89449e-05 1.50297e-06 9.72868e-16)
(2.22119e-05 8.35923e-07 -7.82994e-16)
(2.70972e-05 1.04688e-06 -5.8805e-16)
(3.41858e-05 3.14032e-06 3.33948e-17)
(4.45785e-05 8.00286e-06 2.52515e-15)
(5.47592e-05 1.63133e-05 4.3503e-16)
(1.80475e-05 1.22908e-05 1.76215e-14)
(1.39825e-05 1.80907e-05 -5.9696e-15)
(2.40786e-05 1.13206e-05 5.20583e-15)
(2.21193e-05 1.34897e-05 6.02656e-15)
(2.09108e-05 1.46741e-05 -1.20489e-14)
(1.89963e-05 1.56288e-05 1.32332e-14)
(1.6976e-05 1.59939e-05 -5.32165e-15)
(1.51623e-05 1.58991e-05 6.24154e-15)
(1.35886e-05 1.5335e-05 -2.04312e-14)
(1.23381e-05 1.45147e-05 -4.15813e-15)
(1.13974e-05 1.34297e-05 1.63894e-14)
(1.0931e-05 1.21887e-05 -8.85769e-15)
(1.10766e-05 1.06069e-05 -9.26701e-15)
(1.17642e-05 8.87199e-06 4.51091e-15)
(1.27673e-05 7.06126e-06 5.42045e-15)
(1.40799e-05 5.51727e-06 2.96009e-15)
(1.56273e-05 4.42644e-06 -1.93758e-15)
(1.729e-05 3.73328e-06 3.06911e-16)
(1.93196e-05 3.00523e-06 -4.64584e-18)
(2.23952e-05 2.39524e-06 2.61314e-15)
(2.69041e-05 2.57506e-06 -2.93085e-15)
(3.34709e-05 4.49338e-06 -5.29523e-15)
(4.32246e-05 9.25626e-06 1.26507e-15)
(5.31062e-05 1.75454e-05 3.89938e-15)
(1.67553e-05 1.34451e-05 -5.35642e-15)
(1.85032e-05 1.4826e-05 1.10044e-14)
(2.39391e-05 1.16677e-05 6.58951e-15)
(2.14105e-05 1.38009e-05 -2.65219e-14)
(1.99197e-05 1.48583e-05 -2.28005e-14)
(1.80447e-05 1.56612e-05 -1.42408e-14)
(1.63953e-05 1.58421e-05 7.71998e-15)
(1.49554e-05 1.56073e-05 2.19053e-14)
(1.37477e-05 1.50225e-05 -1.4746e-14)
(1.28224e-05 1.4227e-05 -2.40149e-15)
(1.23507e-05 1.31159e-05 8.55894e-15)
(1.25012e-05 1.17082e-05 -1.64313e-15)
(1.30902e-05 1.00744e-05 -3.97149e-16)
(1.3906e-05 8.42503e-06 1.02485e-15)
(1.49482e-05 6.96686e-06 4.47158e-15)
(1.62317e-05 5.92861e-06 -9.28837e-16)
(1.77307e-05 5.17517e-06 -1.29666e-15)
(1.96572e-05 4.49989e-06 -6.07508e-16)
(2.2526e-05 3.96296e-06 2.95226e-16)
(2.66592e-05 4.18599e-06 1.68645e-15)
(3.26708e-05 5.96622e-06 2.66527e-15)
(4.17249e-05 1.06235e-05 3.21846e-15)
(5.12583e-05 1.88275e-05 -2.9565e-15)
(1.97664e-05 1.02216e-05 -4.89231e-14)
(1.5588e-05 1.53273e-05 -2.74709e-14)
(2.40384e-05 1.09048e-05 2.30635e-15)
(2.15147e-05 1.28889e-05 -2.4389e-15)
(2.02691e-05 1.41794e-05 -2.05945e-15)
(1.86573e-05 1.52026e-05 1.24847e-14)
(1.73268e-05 1.57393e-05 -6.07661e-16)
(1.60564e-05 1.57293e-05 -4.07951e-15)
(1.49566e-05 1.53893e-05 -3.41422e-15)
(1.40988e-05 1.47761e-05 2.59253e-15)
(1.37011e-05 1.37676e-05 5.31808e-15)
(1.38603e-05 1.24802e-05 4.452e-15)
(1.43778e-05 1.09959e-05 4.04436e-15)
(1.49995e-05 9.49826e-06 1.85913e-15)
(1.58057e-05 8.18845e-06 2.08366e-15)
(1.68584e-05 7.22936e-06 4.18619e-16)
(1.81983e-05 6.50612e-06 6.27551e-17)
(2.00045e-05 5.90765e-06 1.51173e-16)
(2.26748e-05 5.50115e-06 1.15745e-15)
(2.64432e-05 5.79931e-06 1.64679e-15)
(3.1914e-05 7.5475e-06 -5.45054e-15)
(4.02424e-05 1.20567e-05 -6.10192e-15)
(4.92964e-05 2.02915e-05 4.56464e-15)
(1.79757e-05 1.18833e-05 -1.14965e-15)
(1.91798e-05 1.30472e-05 7.55176e-15)
(2.29618e-05 1.11682e-05 1.89296e-14)
(2.00587e-05 1.33817e-05 -6.15886e-15)
(1.89958e-05 1.47216e-05 1.12585e-14)
(1.78654e-05 1.55123e-05 9.19953e-15)
(1.69504e-05 1.57593e-05 3.00085e-15)
(1.59704e-05 1.56068e-05 2.19095e-15)
(1.5235e-05 1.50587e-05 -8.58823e-15)
(1.49255e-05 1.41629e-05 -5.3698e-15)
(1.51023e-05 1.295e-05 2.94001e-15)
(1.55535e-05 1.16478e-05 1.29127e-15)
(1.60133e-05 1.03317e-05 -7.01175e-15)
(1.65904e-05 9.20448e-06 -6.37e-15)
(1.74391e-05 8.35859e-06 1.9917e-15)
(1.86224e-05 7.71829e-06 -5.44448e-16)
(2.0286e-05 7.23585e-06 5.67987e-16)
(2.27383e-05 6.98286e-06 -3.30761e-15)
(2.61439e-05 7.40638e-06 1.19265e-15)
(3.10584e-05 9.16626e-06 7.32053e-15)
(3.85957e-05 1.359e-05 -1.84272e-15)
(4.713e-05 2.17959e-05 -1.93479e-15)
(1.84746e-05 1.03692e-05 -3.76455e-15)
(1.78396e-05 1.25369e-05 -1.3135e-14)
(2.27691e-05 1.00927e-05 -3.14334e-14)
(1.98872e-05 1.27279e-05 9.35481e-15)
(1.90126e-05 1.41961e-05 -1.00169e-14)
(1.82922e-05 1.52267e-05 6.19416e-15)
(1.75849e-05 1.5645e-05 -1.53594e-14)
(1.69047e-05 1.56315e-05 -7.66545e-15)
(1.6288e-05 1.51067e-05 2.24674e-14)
(1.60762e-05 1.42299e-05 -1.2765e-14)
(1.62819e-05 1.31266e-05 -5.46837e-15)
(1.66425e-05 1.19936e-05 -2.14898e-15)
(1.6945e-05 1.09156e-05 -2.08585e-15)
(1.73318e-05 9.99e-06 5.63697e-15)
(1.79999e-05 9.29961e-06 2.07258e-15)
(1.9038e-05 8.76923e-06 1.10416e-15)
(2.05581e-05 8.44085e-06 -1.25136e-16)
(2.27945e-05 8.35898e-06 2.38574e-15)
(2.58533e-05 8.95037e-06 -2.25824e-15)
(3.02364e-05 1.07479e-05 -6.73063e-15)
(3.69844e-05 1.51353e-05 9.94266e-16)
(4.49011e-05 2.32515e-05 4.6889e-15)
(2.04994e-05 8.14256e-06 4.88591e-15)
(1.53453e-05 1.25016e-05 1.70076e-14)
(2.22715e-05 9.92969e-06 9.47932e-15)
(1.92958e-05 1.22661e-05 -6.35249e-15)
(1.87299e-05 1.38782e-05 -3.23252e-15)
(1.82919e-05 1.4917e-05 -1.42267e-14)
(1.80927e-05 1.55275e-05 1.93694e-14)
(1.76556e-05 1.54208e-05 3.8803e-15)
(1.73181e-05 1.49251e-05 -1.07205e-16)
(1.71458e-05 1.40309e-05 1.62633e-14)
(1.73272e-05 1.3063e-05 2.06284e-15)
(1.75951e-05 1.21478e-05 -1.30643e-15)
(1.77388e-05 1.13122e-05 -9.60736e-16)
(1.79666e-05 1.06141e-05 1.37386e-15)
(1.8476e-05 1.00914e-05 3.34061e-17)
(1.93667e-05 9.71341e-06 -5.76568e-16)
(2.07263e-05 9.54812e-06 -4.82822e-16)
(2.27365e-05 9.66168e-06 -7.21352e-18)
(2.54458e-05 1.04366e-05 -1.66014e-15)
(2.92816e-05 1.23183e-05 -5.97869e-15)
(3.52176e-05 1.66819e-05 -5.35559e-15)
(4.24654e-05 2.47169e-05 -7.04195e-15)
(1.75333e-05 1.00134e-05 -6.84266e-15)
(1.66897e-05 1.2234e-05 1.57112e-15)
(2.04083e-05 1.14675e-05 2.10456e-14)
(1.79128e-05 1.36014e-05 -8.36203e-15)
(1.826e-05 1.46565e-05 -7.5295e-16)
(1.8311e-05 1.51245e-05 8.66782e-15)
(1.84568e-05 1.50106e-05 -1.70576e-15)
(1.82095e-05 1.44405e-05 -4.53598e-15)
(1.81606e-05 1.36075e-05 2.17007e-15)
(1.82526e-05 1.27839e-05 -7.98688e-16)
(1.84097e-05 1.21204e-05 -5.80594e-15)
(1.84158e-05 1.15355e-05 2.83945e-15)
(1.85095e-05 1.10654e-05 -3.32285e-16)
(1.8896e-05 1.07187e-05 -6.63192e-16)
(1.96511e-05 1.05122e-05 -1.35985e-16)
(2.08572e-05 1.05246e-05 -1.76084e-16)
(2.26415e-05 1.08378e-05 -1.08846e-15)
(2.50229e-05 1.18013e-05 2.76619e-15)
(2.83423e-05 1.37858e-05 1.09586e-14)
(3.34974e-05 1.81157e-05 8.81772e-15)
(3.9971e-05 2.60765e-05 5.98598e-15)
(1.81873e-05 9.6659e-06 2.11751e-14)
(1.52047e-05 1.24846e-05 -1.00558e-15)
(1.95006e-05 1.13957e-05 -1.74747e-14)
(1.74404e-05 1.31288e-05 1.16325e-14)
(1.8099e-05 1.40782e-05 1.87873e-14)
(1.86913e-05 1.42445e-05 -8.3052e-15)
(1.90463e-05 1.42153e-05 3.49508e-15)
(1.91266e-05 1.35879e-05 -8.36802e-16)
(1.90151e-05 1.29863e-05 -1.86027e-14)
(1.90271e-05 1.24015e-05 4.53445e-15)
(1.90478e-05 1.19935e-05 5.0954e-15)
(1.89337e-05 1.16679e-05 -8.00843e-16)
(1.89185e-05 1.14047e-05 3.20707e-16)
(1.91942e-05 1.1253e-05 -9.76166e-16)
(1.98148e-05 1.12268e-05 -1.23006e-15)
(2.08585e-05 1.14246e-05 2.87754e-16)
(2.24067e-05 1.19412e-05 -4.7752e-16)
(2.4459e-05 1.30951e-05 1.85478e-15)
(2.72613e-05 1.51983e-05 -4.53998e-15)
(3.16112e-05 1.95095e-05 -7.75737e-15)
(3.73037e-05 2.73921e-05 4.85173e-17)
(1.91341e-05 8.49578e-06 6.278e-15)
(1.29004e-05 1.29512e-05 2.18317e-14)
(1.90511e-05 1.09722e-05 -1.66378e-15)
(1.70112e-05 1.25695e-05 -2.82273e-14)
(1.78761e-05 1.27987e-05 -1.30844e-14)
(1.87973e-05 1.31607e-05 9.11921e-15)
(1.95165e-05 1.27925e-05 -6.59795e-15)