/*--------------------------------*- C++ -*----------------------------------*\
| =========                 |                                                 |
| \\      /  F ield         | OpenFOAM: The Open Source CFD Toolbox           |
|  \\    /   O peration     | Version:  2506                                  |
|   \\  /    A nd           | Website:  www.openfoam.com                      |
|    \\/     M anipulation  |                                                 |
\*---------------------------------------------------------------------------*/
FoamFile
{
    version     2.0;
    format      ascii;
    arch        "LSB;label=32;scalar=64";
    class       volScalarField;
    location    "400";
    object      nut;
}
// * * * * * * * * * * * * * * * * * * * * * * * * * * * * * * * * * * * * * //

dimensions      [0 2 -1 0 0 0 0];

internalField   nonuniform List<scalar> 
1340
(
6.9612e-06
8.0965e-06
1.07909e-05
1.54813e-05
2.3227e-05
3.55759e-05
5.4454e-05
8.13874e-05
0.000117945
0.000167178
0.000236276
0.000339383
0.00050181
0.000773253
0.00124196
0.00211757
0.00376989
0.00732807
0.0147229
0.0324776
0.0663215
0.0934695
0.105025
0.108433
0.109375
0.109471
0.108975
0.107974
5.91116e-06
6.02176e-06
5.95914e-06
5.8177e-06
5.6246e-06
5.39031e-06
5.12407e-06
4.82944e-06
4.49571e-06
4.11975e-06
3.67668e-06
3.16245e-06
2.54829e-06
1.84351e-06
1.07405e-06
4.20533e-07
5.41014e-08
1.46923e-09
9.30682e-09
9.37204e-05
0.000539953
0.00415675
0.0141155
0.0287196
0.0437273
0.0550626
0.0618255
0.0656073
0.0680051
6.14154e-06
6.12752e-06
6.1323e-06
6.14726e-06
6.16689e-06
6.19087e-06
6.22021e-06
6.25306e-06
6.29009e-06
6.33101e-06
6.3775e-06
6.43079e-06
6.49449e-06
6.57194e-06
6.67139e-06
6.79895e-06
6.98022e-06
7.17352e-06
7.4359e-06
7.15666e-06
7.24724e-06
2.48428e-06
8.3688e-05
0.00079035
0.00301745
0.00754198
0.0142528
0.0224361
0.0311581
6.10031e-06
6.10162e-06
6.10255e-06
6.10041e-06
6.09772e-06
6.09423e-06
6.09049e-06
6.08703e-06
6.08361e-06
6.08028e-06
6.0768e-06
6.07313e-06
6.06913e-06
6.06407e-06
6.05899e-06
6.05362e-06
6.0479e-06
6.04109e-06
6.03482e-06
6.02804e-06
6.03038e-06
6.02311e-06
6.08259e-06
5.99876e-06
5.95275e-06
5.20471e-06
4.15848e-06
0.000226549
0.00104738
0.00305682
6.10919e-06
6.10707e-06
6.10519e-06
6.10412e-06
6.10387e-06
6.10386e-06
6.10377e-06
6.10411e-06
6.10465e-06
6.10562e-06
6.10685e-06
6.1084e-06
6.11024e-06
6.11243e-06
6.11491e-06
6.11767e-06
6.12071e-06
6.12414e-06
6.12795e-06
6.13288e-06
6.13717e-06
6.15041e-06
6.13006e-06
6.27274e-06
5.69506e-06
8.70857e-06
5.80833e-07
2.55659e-05
0.000245473
0.000716066
6.10631e-06
6.10604e-06
6.10467e-06
6.10346e-06
6.10249e-06
6.10189e-06
6.10145e-06
6.10097e-06
6.10072e-06
6.10055e-06
6.10055e-06
6.10057e-06
6.1007e-06
6.10089e-06
6.10115e-06
6.1014e-06
6.10163e-06
6.10176e-06
6.10183e-06
6.10147e-06
6.10141e-06
6.10173e-06
6.10213e-06
6.10392e-06
6.10353e-06
6.11286e-06
6.09581e-06
6.18561e-06
5.45103e-06
3.42973e-06
2.55351e-12
6.10551e-06
6.10544e-06
6.10425e-06
6.10309e-06
6.1022e-06
6.10169e-06
6.10133e-06
6.10113e-06
6.10101e-06
6.10107e-06
6.10102e-06
6.10106e-06
6.10122e-06
6.10146e-06
6.10179e-06
6.10221e-06
6.10271e-06
6.10329e-06
6.10397e-06
6.10477e-06
6.10575e-06
6.10703e-06
6.1087e-06
6.1108e-06
6.11343e-06
6.11667e-06
6.12014e-06
6.12432e-06
6.17621e-06
5.87245e-06
5.32438e-06
6.10435e-06
6.1045e-06
6.1036e-06
6.10256e-06
6.10175e-06
6.10129e-06
6.10098e-06
6.10081e-06
6.10074e-06
6.10084e-06
6.10092e-06
6.10103e-06
6.1011e-06
6.10111e-06
6.10119e-06
6.10129e-06
6.10142e-06
6.10156e-06
6.10172e-06
6.10188e-06
6.102e-06
6.10218e-06
6.10241e-06
6.10266e-06
6.10292e-06
6.10302e-06
6.10351e-06
6.10116e-06
6.11448e-06
6.08674e-06
6.29138e-06
6.10205e-06
6.10359e-06
6.10384e-06
6.10315e-06
6.10219e-06
6.10149e-06
6.10105e-06
6.10081e-06
6.10068e-06
6.10062e-06
6.10069e-06
6.10079e-06
6.10093e-06
6.10107e-06
6.10121e-06
6.1013e-06
6.1013e-06
6.10137e-06
6.10149e-06
6.10165e-06
6.10184e-06
6.10206e-06
6.1024e-06
6.1029e-06
6.10357e-06
6.10442e-06
6.10548e-06
6.10684e-06
6.10829e-06
6.11064e-06
6.1093e-06
6.14484e-06
6.10294e-06
6.10329e-06
6.10273e-06
6.10185e-06
6.10125e-06
6.10086e-06
6.10072e-06
6.10054e-06
6.10047e-06
6.10052e-06
6.10059e-06
6.10075e-06
6.10091e-06
6.10109e-06
6.10125e-06
6.1014e-06
6.1015e-06
6.10159e-06
6.10158e-06
6.1016e-06
6.10164e-06
6.10174e-06
6.10192e-06
6.10219e-06
6.10253e-06
6.10295e-06
6.10338e-06
6.1041e-06
6.10375e-06
6.10935e-06
6.09188e-06
6.10283e-06
6.10236e-06
6.10157e-06
6.10105e-06
6.10073e-06
6.10057e-06
6.10041e-06
6.10031e-06
6.10032e-06
6.10037e-06
6.10051e-06
6.10067e-06
6.10087e-06
6.10105e-06
6.10123e-06
6.10139e-06
6.10154e-06
6.10165e-06
6.10174e-06
6.10179e-06
6.10186e-06
6.102e-06
6.10223e-06
6.10256e-06
6.103e-06
6.10351e-06
6.10437e-06
6.10434e-06
6.10886e-06
6.09365e-06
6.10204e-06
6.10132e-06
6.10085e-06
6.10056e-06
6.10041e-06
6.10028e-06
6.10014e-06
6.10012e-06
6.10014e-06
6.10025e-06
6.10039e-06
6.10058e-06
6.10078e-06
6.10099e-06
6.1012e-06
6.10141e-06
6.10159e-06
6.10175e-06
6.10189e-06
6.10197e-06
6.10201e-06
6.1021e-06
6.10226e-06
6.10249e-06
6.10279e-06
6.10322e-06
6.10348e-06
6.10506e-06
6.10162e-06
6.1011e-06
6.10068e-06
6.1004e-06
6.10024e-06
6.1001e-06
6.09996e-06
6.09991e-06
6.0999e-06
6.09998e-06
6.10011e-06
6.10029e-06
6.1005e-06
6.10074e-06
6.10098e-06
6.10123e-06
6.10145e-06
6.10165e-06
6.10184e-06
6.10199e-06
6.10205e-06
6.10209e-06
6.10217e-06
6.10232e-06
6.10256e-06
6.10288e-06
6.1033e-06
6.10368e-06
6.10475e-06
6.1005e-06
6.10022e-06
6.10006e-06
6.09993e-06
6.09977e-06
6.0997e-06
6.09967e-06
6.09974e-06
6.09986e-06
6.10003e-06
6.10024e-06
6.10048e-06
6.10073e-06
6.10099e-06
6.10124e-06
6.10148e-06
6.10171e-06
6.1019e-06
6.10203e-06
6.10209e-06
6.10211e-06
6.10218e-06
6.10232e-06
6.10251e-06
6.10283e-06
6.10303e-06
6.10411e-06
6.10004e-06
6.09987e-06
6.09974e-06
6.09959e-06
6.0995e-06
6.09947e-06
6.09951e-06
6.09961e-06
6.09977e-06
6.09997e-06
6.1002e-06
6.10045e-06
6.10073e-06
6.10101e-06
6.10127e-06
6.10153e-06
6.10175e-06
6.10193e-06
6.10205e-06
6.10211e-06
6.10213e-06
6.1022e-06
6.10233e-06
6.10254e-06
6.10276e-06
6.10327e-06
6.09987e-06
6.0997e-06
6.09957e-06
6.0994e-06
6.0993e-06
6.09926e-06
6.0993e-06
6.09939e-06
6.09954e-06
6.09972e-06
6.09995e-06
6.1002e-06
6.10048e-06
6.10077e-06
6.10105e-06
6.10134e-06
6.10159e-06
6.1018e-06
6.10197e-06
6.10208e-06
6.10214e-06
6.10216e-06
6.10222e-06
6.10234e-06
6.10252e-06
6.10278e-06
6.09952e-06
6.09938e-06
6.09922e-06
6.09913e-06
6.09909e-06
6.09912e-06
6.09919e-06
6.09932e-06
6.09949e-06
6.09971e-06
6.09995e-06
6.10024e-06
6.10053e-06
6.10083e-06
6.10113e-06
6.1014e-06
6.10164e-06
6.10184e-06
6.10199e-06
6.1021e-06
6.10215e-06
6.10217e-06
6.10223e-06
6.10235e-06
6.10253e-06
6.09935e-06
6.0992e-06
6.09905e-06
6.09896e-06
6.09891e-06
6.09894e-06
6.09901e-06
6.09912e-06
6.09928e-06
6.09949e-06
6.09973e-06
6.1e-06
6.1003e-06
6.10061e-06
6.10091e-06
6.1012e-06
6.10146e-06
6.10168e-06
6.10187e-06
6.10202e-06
6.10212e-06
6.10217e-06
6.10219e-06
6.10225e-06
6.10237e-06
6.09902e-06
6.09888e-06
6.0988e-06
6.09876e-06
6.09878e-06
6.09884e-06
6.09895e-06
6.0991e-06
6.09929e-06
6.09952e-06
6.09979e-06
6.10008e-06
6.10038e-06
6.10069e-06
6.10099e-06
6.10126e-06
6.1015e-06
6.10172e-06
6.10191e-06
6.10205e-06
6.10215e-06
6.10219e-06
6.10221e-06
6.10228e-06
6.09886e-06
6.09872e-06
6.09864e-06
6.09861e-06
6.09863e-06
6.09869e-06
6.09879e-06
6.09893e-06
6.09911e-06
6.09932e-06
6.09958e-06
6.09987e-06
6.10017e-06
6.10047e-06
6.10076e-06
6.10104e-06
6.1013e-06
6.10154e-06
6.10175e-06
6.10192e-06
6.10206e-06
6.10215e-06
6.10219e-06
6.10223e-06
6.09869e-06
6.09857e-06
6.0985e-06
6.09848e-06
6.0985e-06
6.09856e-06
6.09865e-06
6.09878e-06
6.09894e-06
6.09914e-06
6.09938e-06
6.09965e-06
6.09994e-06
6.10023e-06
6.10052e-06
6.1008e-06
6.10107e-06
6.10132e-06
6.10156e-06
6.10176e-06
6.10193e-06
6.10206e-06
6.10216e-06
6.10216e-06
6.09843e-06
6.09838e-06
6.09836e-06
6.09837e-06
6.09842e-06
6.0985e-06
6.09861e-06
6.09876e-06
6.09894e-06
6.09917e-06
6.09943e-06
6.09971e-06
6.1e-06
6.10029e-06
6.10057e-06
6.10084e-06
6.10111e-06
6.10136e-06
6.10159e-06
6.1018e-06
6.10196e-06
6.10209e-06
6.10216e-06
6.0983e-06
6.09824e-06
6.09822e-06
6.09824e-06
6.09828e-06
6.09835e-06
6.09845e-06
6.09859e-06
6.09876e-06
6.09897e-06
6.09921e-06
6.09948e-06
6.09977e-06
6.10005e-06
6.10033e-06
6.10061e-06
6.10088e-06
6.10115e-06
6.1014e-06
6.10162e-06
6.10182e-06
6.10199e-06
6.1021e-06
6.09811e-06
6.09809e-06
6.0981e-06
6.09814e-06
6.0982e-06
6.09829e-06
6.09842e-06
6.09857e-06
6.09877e-06
6.099e-06
6.09926e-06
6.09954e-06
6.09981e-06
6.10008e-06
6.10036e-06
6.10064e-06
6.10092e-06
6.10118e-06
6.10143e-06
6.10165e-06
6.10185e-06
6.102e-06
6.09796e-06
6.09794e-06
6.09795e-06
6.09798e-06
6.09804e-06
6.09813e-06
6.09824e-06
6.09839e-06
6.09857e-06
6.09879e-06
6.09904e-06
6.0993e-06
6.09956e-06
6.09983e-06
6.10011e-06
6.10039e-06
6.10067e-06
6.10095e-06
6.10121e-06
6.10146e-06
6.10168e-06
6.10186e-06
6.0978e-06
6.09778e-06
6.09779e-06
6.09783e-06
6.09788e-06
6.09796e-06
6.09807e-06
6.0982e-06
6.09838e-06
6.09858e-06
6.09882e-06
6.09907e-06
6.09932e-06
6.09958e-06
6.09985e-06
6.10014e-06
6.10042e-06
6.10071e-06
6.10099e-06
6.10126e-06
6.1015e-06
6.10171e-06
6.09762e-06
6.09763e-06
6.09767e-06
6.09772e-06
6.09779e-06
6.09789e-06
6.09801e-06
6.09817e-06
6.09837e-06
6.09859e-06
6.09883e-06
6.09907e-06
6.09933e-06
6.09959e-06
6.09987e-06
6.10016e-06
6.10045e-06
6.10074e-06
6.10103e-06
6.10129e-06
6.10153e-06
6.09745e-06
6.09746e-06
6.09749e-06
6.09754e-06
6.09761e-06
6.0977e-06
6.09782e-06
6.09797e-06
6.09815e-06
6.09837e-06
6.09859e-06
6.09882e-06
6.09906e-06
6.09932e-06
6.0996e-06
6.09989e-06
6.10018e-06
6.10048e-06
6.10077e-06
6.10106e-06
6.10132e-06
6.09727e-06
6.09728e-06
6.09731e-06
6.09736e-06
6.09742e-06
6.09751e-06
6.09762e-06
6.09776e-06
6.09793e-06
6.09813e-06
6.09834e-06
6.09856e-06
6.0988e-06
6.09905e-06
6.09932e-06
6.0996e-06
6.0999e-06
6.1002e-06
6.10051e-06
6.10081e-06
6.10109e-06
6.09709e-06
6.09712e-06
6.09716e-06
6.09722e-06
6.0973e-06
6.0974e-06
6.09753e-06
6.0977e-06
6.09788e-06
6.09809e-06
6.09829e-06
6.09852e-06
6.09876e-06
6.09902e-06
6.09931e-06
6.0996e-06
6.09991e-06
6.10022e-06
6.10053e-06
6.10083e-06
6.09689e-06
6.09691e-06
6.09695e-06
6.09701e-06
6.09709e-06
6.09718e-06
6.0973e-06
6.09745e-06
6.09763e-06
6.09782e-06
6.09801e-06
6.09823e-06
6.09846e-06
6.09872e-06
6.09899e-06
6.09928e-06
6.09959e-06
6.09991e-06
6.10022e-06
6.10054e-06
6.09669e-06
6.09673e-06
6.09678e-06
6.09685e-06
6.09693e-06
6.09705e-06
6.09719e-06
6.09735e-06
6.09753e-06
6.09772e-06
6.09792e-06
6.09814e-06
6.09839e-06
6.09866e-06
6.09894e-06
6.09925e-06
6.09957e-06
6.09989e-06
6.10022e-06
6.09645e-06
6.09648e-06
6.09653e-06
6.09659e-06
6.09667e-06
6.09677e-06
6.0969e-06
6.09706e-06
6.09722e-06
6.0974e-06
6.09759e-06
6.0978e-06
6.09804e-06
6.0983e-06
6.09858e-06
6.09888e-06
6.0992e-06
6.09953e-06
6.09986e-06
6.09618e-06
6.09621e-06
6.09625e-06
6.09631e-06
6.09638e-06
6.09648e-06
6.09659e-06
6.09673e-06
6.09689e-06
6.09705e-06
6.09723e-06
6.09744e-06
6.09766e-06
6.09791e-06
6.09818e-06
6.09848e-06
6.09879e-06
6.09912e-06
6.09947e-06
6.09591e-06
6.09595e-06
6.096e-06
6.09606e-06
6.09615e-06
6.09625e-06
6.09638e-06
6.09652e-06
6.09668e-06
6.09684e-06
6.09703e-06
6.09725e-06
6.09749e-06
6.09775e-06
6.09804e-06
6.09835e-06
6.09868e-06
6.09903e-06
6.09559e-06
6.09562e-06
6.09566e-06
6.09571e-06
6.09578e-06
6.09588e-06
6.09599e-06
6.09612e-06
6.09626e-06
6.09642e-06
6.09659e-06
6.0968e-06
6.09702e-06
6.09728e-06
6.09756e-06
6.09786e-06
6.09819e-06
6.09854e-06
6.09522e-06
6.09524e-06
6.09527e-06
6.09532e-06
6.09538e-06
6.09546e-06
6.09556e-06
6.09568e-06
6.0958e-06
6.09595e-06
6.09611e-06
6.0963e-06
6.09651e-06
6.09676e-06
6.09703e-06
6.09732e-06
6.09765e-06
6.098e-06
6.09482e-06
6.09485e-06
6.09488e-06
6.09493e-06
6.095e-06
6.09508e-06
6.09518e-06
6.0953e-06
6.09542e-06
6.09558e-06
6.09575e-06
6.09595e-06
6.09618e-06
6.09644e-06
6.09673e-06
6.09705e-06
6.0974e-06
6.09435e-06
6.09437e-06
6.09439e-06
6.09443e-06
6.09448e-06
6.09455e-06
6.09464e-06
6.09473e-06
6.09485e-06
6.09499e-06
6.09515e-06
6.09534e-06
6.09555e-06
6.0958e-06
6.09608e-06
6.09639e-06
6.09383e-06
6.09383e-06
6.09384e-06
6.09387e-06
6.0939e-06
6.09396e-06
6.09403e-06
6.09411e-06
6.09421e-06
6.09434e-06
6.09448e-06
6.09466e-06
6.09486e-06
6.0951e-06
6.09536e-06
6.09566e-06
6.09324e-06
6.09323e-06
6.09324e-06
6.09327e-06
6.09331e-06
6.09336e-06
6.09343e-06
6.09352e-06
6.09363e-06
6.09376e-06
6.09392e-06
6.09411e-06
6.09433e-06
6.09459e-06
6.09487e-06
6.09258e-06
6.09257e-06
6.09256e-06
6.09257e-06
6.0926e-06
6.09264e-06
6.09269e-06
6.09276e-06
6.09286e-06
6.09298e-06
6.09313e-06
6.0933e-06
6.09351e-06
6.09375e-06
6.09403e-06
6.09186e-06
6.09183e-06
6.09182e-06
6.09181e-06
6.09183e-06
6.09185e-06
6.09189e-06
6.09195e-06
6.09204e-06
6.09214e-06
6.09228e-06
6.09245e-06
6.09264e-06
6.09287e-06
6.09313e-06
6.09104e-06
6.09102e-06
6.091e-06
6.091e-06
6.09101e-06
6.09104e-06
6.0911e-06
6.09117e-06
6.09127e-06
6.09139e-06
6.09155e-06
6.09173e-06
6.09195e-06
6.0922e-06
6.0902e-06
6.09017e-06
6.09014e-06
6.09013e-06
6.09014e-06
6.09016e-06
6.0902e-06
6.09027e-06
6.09036e-06
6.09048e-06
6.09062e-06
6.0908e-06
6.091e-06
6.09124e-06
6.08932e-06
6.08928e-06
6.08925e-06
6.08923e-06
6.08923e-06
6.08925e-06
6.08929e-06
6.08935e-06
6.08943e-06
6.08955e-06
6.08968e-06
6.08985e-06
6.09005e-06
6.09028e-06
6.08837e-06
6.08833e-06
6.08831e-06
6.08831e-06
6.08833e-06
6.08837e-06
6.08842e-06
6.08851e-06
6.08862e-06
6.08875e-06
6.08891e-06
6.0891e-06
6.08932e-06
6.08744e-06
6.08741e-06
6.08739e-06
6.08739e-06
6.08741e-06
6.08745e-06
6.08751e-06
6.08759e-06
6.0877e-06
6.08783e-06
6.08798e-06
6.08817e-06
6.08839e-06
6.08652e-06
6.08649e-06
6.08648e-06
6.08648e-06
6.0865e-06
6.08654e-06
6.0866e-06
6.08668e-06
6.08678e-06
6.08691e-06
6.08707e-06
6.08725e-06
6.08746e-06
6.0856e-06
6.08557e-06
6.08556e-06
6.08556e-06
6.08558e-06
6.08562e-06
6.08568e-06
6.08576e-06
6.08587e-06
6.08599e-06
6.08614e-06
6.08632e-06
6.08652e-06
6.08464e-06
6.08463e-06
6.08463e-06
6.08464e-06
6.08468e-06
6.08473e-06
6.08481e-06
6.0849e-06
6.08502e-06
6.08516e-06
6.08533e-06
6.08553e-06
6.08367e-06
6.08364e-06
6.08363e-06
6.08363e-06
6.08365e-06
6.08369e-06
6.08375e-06
6.08383e-06
6.08394e-06
6.08407e-06
6.08422e-06
6.08441e-06
6.08261e-06
6.08256e-06
6.08252e-06
6.08249e-06
6.08249e-06
6.0825e-06
6.08254e-06
6.08259e-06
6.08267e-06
6.08278e-06
6.08292e-06
6.08139e-06
6.08131e-06
6.08123e-06
6.08117e-06
6.08112e-06
6.0811e-06
6.0811e-06
6.08112e-06
6.08117e-06
6.08125e-06
6.08136e-06
6.07985e-06
6.07972e-06
6.07961e-06
6.07952e-06
6.07946e-06
6.07942e-06
6.0794e-06
6.07941e-06
6.07945e-06
6.07953e-06
6.07818e-06
6.078e-06
6.07785e-06
6.07772e-06
6.07761e-06
6.07753e-06
6.07748e-06
6.07746e-06
6.07746e-06
6.0775e-06
6.07637e-06
6.07616e-06
6.07597e-06
6.07581e-06
6.07568e-06
6.07558e-06
6.0755e-06
6.07545e-06
6.07543e-06
6.07544e-06
6.07457e-06
6.07435e-06
6.07417e-06
6.07401e-06
6.07387e-06
6.07377e-06
6.07369e-06
6.07363e-06
6.07359e-06
6.07358e-06
6.073e-06
6.07282e-06
6.07267e-06
6.07254e-06
6.07244e-06
6.07236e-06
6.0723e-06
6.07226e-06
6.07223e-06
6.07221e-06
6.07182e-06
6.07175e-06
6.0717e-06
6.07167e-06
6.07165e-06
6.07164e-06
6.07163e-06
6.07163e-06
6.07163e-06
6.0716e-06
6.07166e-06
6.07173e-06
6.07181e-06
6.07189e-06
6.07196e-06
6.07204e-06
6.07211e-06
6.07216e-06
6.07232e-06
6.07251e-06
6.07271e-06
6.0729e-06
6.07308e-06
6.07325e-06
6.0734e-06
6.07354e-06
6.07381e-06
6.07414e-06
6.07445e-06
6.07475e-06
6.07503e-06
6.07529e-06
6.07553e-06
6.07575e-06
6.07598e-06
6.07644e-06
6.07688e-06
6.0773e-06
6.07769e-06
6.07805e-06
6.07837e-06
6.07867e-06
6.07874e-06
6.07934e-06
6.0799e-06
6.08042e-06
6.08091e-06
6.08136e-06
6.08178e-06
6.08216e-06
6.08265e-06
6.08331e-06
6.08392e-06
6.0845e-06
6.08503e-06
6.08552e-06
6.08597e-06
6.08618e-06
6.08691e-06
6.08759e-06
6.08822e-06
6.08881e-06
6.08936e-06
6.08987e-06
6.08917e-06
6.08993e-06
6.09065e-06
6.09131e-06
6.09194e-06
6.09253e-06
6.09308e-06
6.09139e-06
6.09214e-06
6.09284e-06
6.09351e-06
6.09414e-06
6.09474e-06
6.09531e-06
6.09328e-06
6.09399e-06
6.09466e-06
6.0953e-06
6.09591e-06
6.0965e-06
6.09707e-06
6.09479e-06
6.09545e-06
6.09609e-06
6.0967e-06
6.09729e-06
6.09787e-06
6.09843e-06
6.09595e-06
6.09661e-06
6.09725e-06
6.09787e-06
6.09849e-06
6.09909e-06
6.09727e-06
6.09802e-06
6.09877e-06
6.09951e-06
6.10024e-06
6.10096e-06
6.09964e-06
6.10065e-06
6.10165e-06
6.10265e-06
6.10363e-06
6.1046e-06
6.10508e-06
6.1064e-06
6.1077e-06
6.10898e-06
6.11024e-06
6.10977e-06
6.11115e-06
6.11249e-06
6.11379e-06
6.11507e-06
6.10996e-06
6.11089e-06
6.11177e-06
6.11261e-06
6.11342e-06
6.10273e-06
6.10347e-06
6.10426e-06
6.10511e-06
6.106e-06
6.09982e-06
6.10237e-06
6.10505e-06
6.10784e-06
6.1107e-06
6.10209e-06
6.10393e-06
6.10566e-06
6.10727e-06
6.10877e-06
)
;

boundaryField
{
    inlet
    {
        type            freestream;
        freestreamValue uniform 1e-05;
        value           uniform 1e-05;
    }
    outlet
    {
        type            freestream;
        freestreamValue nonuniform List<scalar> 0();
        value           nonuniform List<scalar> 0();
    }
    walls
    {
        type            nutUSpaldingWallFunction;
        value           nonuniform List<scalar> 
28
(
0.000447341
0.000550236
0.000888333
0.00120871
0.00147066
0.00168119
0.00185306
0.00199565
0.00211602
0.00221982
0.0023114
0.00239447
0.00247137
0.00254417
0.00261354
0.00267945
0.00273864
0.0027847
0.00281721
0.00283944
0.00285446
0.00286358
0.00286763
0.00286513
0.00285444
0.00283527
0.00280807
0.00277239
)
;
    }
    frontAndBack
    {
        type            empty;
    }
    procBoundary1to0
    {
        type            processor;
        value           nonuniform List<scalar> 
94
(
6.10154e-06
6.10154e-06
6.10245e-06
6.10245e-06
6.10244e-06
6.10244e-06
6.10176e-06
6.10176e-06
6.10089e-06
6.10089e-06
6.10032e-06
6.10032e-06
6.10015e-06
6.09969e-06
6.09969e-06
6.09952e-06
6.09918e-06
6.09918e-06
6.09902e-06
6.09886e-06
6.09854e-06
6.09854e-06
6.09839e-06
6.09815e-06
6.09815e-06
6.098e-06
6.09784e-06
6.09764e-06
6.09764e-06
6.09746e-06
6.09728e-06
6.09708e-06
6.09708e-06
6.09687e-06
6.09666e-06
6.09666e-06
6.09642e-06
6.09616e-06
6.09589e-06
6.09589e-06
6.09556e-06
6.09521e-06
6.09481e-06
6.09481e-06
6.09435e-06
6.09384e-06
6.09325e-06
6.09325e-06
6.0926e-06
6.0919e-06
6.09108e-06
6.09108e-06
6.09025e-06
6.08938e-06
6.08841e-06
6.08841e-06
6.08749e-06
6.08656e-06
6.08564e-06
6.08467e-06
6.08467e-06
6.08371e-06
6.08266e-06
6.08148e-06
6.07998e-06
6.07998e-06
6.07836e-06
6.07659e-06
6.07479e-06
6.07319e-06
6.07191e-06
6.07191e-06
6.07156e-06
6.07213e-06
6.07348e-06
6.0755e-06
6.07813e-06
6.08195e-06
6.08195e-06
6.0854e-06
6.08836e-06
6.09059e-06
6.09253e-06
6.09409e-06
6.09527e-06
6.0965e-06
6.09863e-06
6.10375e-06
6.10375e-06
6.10835e-06
6.10899e-06
6.10204e-06
6.09744e-06
6.10014e-06
)
;
    }
    procBoundary1to2
    {
        type            processor;
        value           nonuniform List<scalar> 
84
(
0.106577
0.0699954
0.0396021
0.00692176
0.00164913
3.07995e-09
1.16802e-06
5.5848e-06
6.2115e-06
6.19292e-06
6.16481e-06
6.11928e-06
6.10286e-06
6.1021e-06
6.10312e-06
6.10316e-06
6.10285e-06
6.10258e-06
6.10241e-06
6.10231e-06
6.10221e-06
6.10219e-06
6.10215e-06
6.10209e-06
6.102e-06
6.10189e-06
6.10174e-06
6.10155e-06
6.10134e-06
6.1011e-06
6.10083e-06
6.10053e-06
6.10019e-06
6.09981e-06
6.09938e-06
6.0989e-06
6.09836e-06
6.09776e-06
6.09673e-06
6.09673e-06
6.096e-06
6.0952e-06
6.09435e-06
6.09344e-06
6.09249e-06
6.09153e-06
6.09055e-06
6.08959e-06
6.08864e-06
6.08771e-06
6.08676e-06
6.08576e-06
6.08463e-06
6.08308e-06
6.08308e-06
6.08149e-06
6.07963e-06
6.07757e-06
6.07547e-06
6.07359e-06
6.07221e-06
6.07164e-06
6.07221e-06
6.07366e-06
6.07366e-06
6.07594e-06
6.07894e-06
6.08251e-06
6.08639e-06
6.09034e-06
6.0936e-06
6.09586e-06
6.09762e-06
6.09898e-06
6.09967e-06
6.09967e-06
6.10167e-06
6.10556e-06
6.11149e-06
6.11632e-06
6.11421e-06
6.10693e-06
6.11363e-06
6.11016e-06
)
;
    }
    procBoundary1to5
    {
        type            processor;
        value           nonuniform List<scalar> 
13
(
8.24455e-06
8.24455e-06
5.78002e-06
6.15929e-06
6.15929e-06
6.09827e-06
6.11039e-06
6.11039e-06
6.10461e-06
6.10385e-06
6.10274e-06
6.10274e-06
6.10264e-06
)
;
    }
}


// ************************************************************************* //
