/*--------------------------------*- C++ -*----------------------------------*\
| =========                 |                                                 |
| \\      /  F ield         | OpenFOAM: The Open Source CFD Toolbox           |
|  \\    /   O peration     | Version:  2506                                  |
|   \\  /    A nd           | Website:  www.openfoam.com                      |
|    \\/     M anipulation  |                                                 |
\*---------------------------------------------------------------------------*/
FoamFile
{
    version     2.0;
    format      ascii;
    arch        "LSB;label=32;scalar=64";
    class       volSymmTensorField;
    location    "400";
    object      turbulenceProperties:R;
}
// * * * * * * * * * * * * * * * * * * * * * * * * * * * * * * * * * * * * * //

dimensions      [0 2 -2 0 0 0 0];

internalField   nonuniform List<symmTensor> 
1340
(
(0.00194574 0.000261406 5.73461e-20 0.00191625 -2.26473e-20 0.00190779)
(0.00211346 0.000277939 1.01429e-19 0.00191824 -5.13045e-20 0.00199814)
(0.00295784 0.000385224 -8.01637e-20 0.0024703 2.02627e-20 0.00271151)
(0.00451443 0.000623823 -2.35967e-20 0.00352083 1.11287e-19 0.00402733)
(0.0069353 0.00109498 1.74296e-19 0.00509622 7.25003e-20 0.00603462)
(0.010512 0.00197148 3.5865e-19 0.0073282 -5.58414e-20 0.00895542)
(0.0156729 0.00349525 -6.87686e-21 0.0104664 -2.18647e-19 0.0131347)
(0.0229295 0.00591752 -7.16462e-20 0.0148956 -1.54513e-19 0.0190127)
(0.0330184 0.00952973 2.48016e-20 0.0213044 -5.36568e-20 0.0273117)
(0.0472599 0.0147525 -1.86026e-19 0.0308193 6.32301e-19 0.0392459)
(0.0681597 0.0224734 7.12235e-19 0.0454427 2.64746e-19 0.0570864)
(0.100399 0.0344353 3.18637e-19 0.0687663 -1.18362e-18 0.0849736)
(0.152284 0.0539241 -1.29505e-18 0.107411 -3.39672e-19 0.130422)
(0.240272 0.0874852 -4.38414e-18 0.174648 -2.00334e-18 0.208335)
(0.393912 0.147341 -3.32819e-18 0.295579 -8.90074e-19 0.346203)
(0.682852 0.262512 6.19828e-18 0.530387 -5.76126e-19 0.609273)
(1.22834 0.486477 -7.44719e-18 0.992767 1.2049e-18 1.11599)
(2.39606 0.978112 4.06398e-18 2.02224 -7.21413e-18 2.2209)
(4.80348 2.01625 -1.26328e-16 4.23161 2.61477e-18 4.54209)
(10.5254 4.53131 -7.82998e-17 9.66706 1.2295e-17 10.1539)
(21.2649 9.36759 6.59152e-17 20.3424 8.24681e-19 20.9241)
(29.545 13.2905 8.6975e-18 29.4246 -1.25638e-19 29.641)
(32.6386 14.9583 6.28529e-17 33.7977 4.36044e-19 33.3657)
(33.0578 15.3972 -4.37144e-16 35.511 -4.89453e-18 34.4077)
(32.6456 15.4171 1.57295e-16 36.2844 2.0927e-17 34.566)
(31.9227 15.2549 -1.88886e-15 36.6213 -1.53184e-16 34.3557)
(30.9818 14.9548 -3.45824e-15 36.6007 -2.36973e-16 33.8616)
(29.8495 14.5327 1.05836e-15 36.2457 1.08371e-16 33.1081)
(0.00153865 0.000150826 2.61013e-20 0.00133586 -8.34673e-20 0.00143916)
(0.00131418 0.000152955 -1.19466e-19 0.0012122 3.15463e-21 0.00126831)
(0.00111353 0.000139696 1.82434e-20 0.00109252 8.08319e-20 0.00110891)
(0.000921925 0.000116357 4.57818e-22 0.000968417 -4.75428e-20 0.000948605)
(0.000751499 8.77026e-05 -2.99751e-20 0.000839679 -2.84208e-20 0.000794822)
(0.000614981 6.18778e-05 -2.10392e-20 0.000717195 -2.97618e-20 0.000661715)
(0.000506783 4.21461e-05 -3.79578e-21 0.000605967 6.32185e-21 0.000549866)
(0.000418993 2.8212e-05 1.2222e-20 0.000507056 3.28892e-20 0.000455566)
(0.000346715 1.88844e-05 2.00767e-20 0.000420698 7.75654e-21 0.00037605)
(0.000286783 1.28387e-05 -2.688e-20 0.000346638 -1.3711e-21 0.000309375)
(0.000236368 8.97551e-06 2.22336e-20 0.000283086 2.29653e-21 0.000253107)
(0.000193789 6.45643e-06 -2.36637e-21 0.000228972 -6.93831e-21 0.000205739)
(0.000156382 4.6166e-06 -6.86643e-21 0.000181427 1.09234e-20 0.000164439)
(0.000121922 3.10752e-06 -4.01243e-21 0.000138142 4.36764e-21 0.000126849)
(8.72591e-05 1.73924e-06 -6.01331e-21 9.58647e-05 6.76497e-21 8.97094e-05)
(5.24492e-05 6.64629e-07 -3.52394e-21 5.55806e-05 1.82817e-21 5.32735e-05)
(1.84809e-05 8.35053e-08 -6.76922e-22 1.88623e-05 5.83203e-23 1.85707e-05)
(3.036e-06 2.27634e-09 8.24219e-24 3.0459e-06 7.82757e-25 3.03794e-06)
(7.72707e-06 1.60513e-08 -3.71421e-24 7.78685e-06 5.09306e-24 7.73592e-06)
(0.000851209 0.000192919 4.75924e-19 0.00142944 1.24496e-19 0.000910851)
(0.00451842 0.0013322 2.64764e-18 0.0078225 -1.89063e-19 0.00474149)
(0.0372388 0.0119652 1.08094e-18 0.0620986 -4.50422e-19 0.0383234)
(0.128091 0.0458986 -7.53602e-19 0.204223 1.03144e-19 0.130584)
(0.256254 0.10268 4.96279e-17 0.386152 2.01535e-18 0.261142)
(0.390995 0.170639 4.02561e-16 0.554227 9.71975e-18 0.401639)
(0.51255 0.235199 2.39491e-16 0.689725 1.3115e-17 0.53327)
(0.614424 0.289335 1.76218e-15 0.79943 1.20924e-16 0.648433)
(0.701293 0.334888 2.54436e-15 0.897989 1.69259e-16 0.750519)
(0.778819 0.375321 -5.70497e-16 0.995062 -9.71606e-17 0.84499)
(0.0012428 0.000115289 9.03945e-21 0.00105709 5.48267e-20 0.00114977)
(0.00108704 0.000121547 5.94069e-20 0.000979564 6.37739e-20 0.00103373)
(0.000943523 0.000117563 2.02112e-20 0.000906371 -5.07553e-20 0.00092578)
(0.000803107 0.000104287 4.50909e-20 0.000824286 2.67234e-20 0.0008143)
(0.000664138 8.44542e-05 -3.18648e-20 0.000723572 8.18944e-21 0.000694616)
(0.000538861 6.38435e-05 -4.60994e-21 0.00061641 2.70063e-20 0.000579073)
(0.000432622 4.57752e-05 2.017e-21 0.000514432 -2.4334e-20 0.000475865)
(0.000344877 3.11658e-05 4.36091e-20 0.000422742 -3.07001e-20 0.000387132)
(0.000274805 2.00997e-05 3.30653e-21 0.000344662 -4.84104e-21 0.000313889)
(0.000219731 1.20344e-05 -4.90925e-21 0.000280097 2.02968e-20 0.000254778)
(0.000177755 6.39072e-06 3.15944e-20 0.000228859 -3.7321e-20 0.000208693)
(0.000146505 2.47151e-06 5.16391e-21 0.000189416 4.53526e-21 0.000173739)
(0.000124168 -3.00181e-07 3.68393e-20 0.000160366 -2.57637e-21 0.000148286)
(0.000108451 -2.41422e-06 3.96674e-20 0.000139158 8.88753e-21 0.000130018)
(9.79627e-05 -4.16498e-06 1.02386e-19 0.000124202 -1.35247e-20 0.000117436)
(9.16475e-05 -5.84957e-06 1.33983e-19 0.000113942 -2.02684e-20 0.000109335)
(8.90453e-05 -7.67577e-06 8.09272e-20 0.000107318 7.01067e-21 0.000105008)
(8.91715e-05 -9.44685e-06 1.89348e-20 0.000101839 -3.87241e-21 0.000102932)
(9.23412e-05 -1.05781e-05 -2.07362e-20 9.77674e-05 1.00154e-20 0.000103494)
(9.5234e-05 -1.00467e-05 7.57195e-20 9.33033e-05 -1.23043e-20 0.000103183)
(0.000104347 -9.47638e-06 -2.05287e-20 9.58622e-05 -1.99765e-21 0.000110096)
(6.26072e-05 -2.75257e-06 -6.24729e-21 5.80047e-05 1.28794e-22 6.39411e-05)
(0.000474072 -6.55465e-05 2.46678e-20 0.000295501 -7.75867e-22 0.000501943)
(0.00325923 -0.000272186 -1.42216e-18 0.00168559 -5.38184e-20 0.00340787)
(0.00933503 0.000424172 -8.62159e-18 0.00467941 -7.86092e-20 0.00965403)
(0.0187834 0.00468277 -5.47627e-17 0.0112649 -3.17624e-18 0.0193704)
(0.0386036 0.0154364 -1.34236e-16 0.0316804 -4.43163e-18 0.0399559)
(0.0759817 0.0342759 -3.33928e-16 0.0747651 -2.28643e-17 0.0792583)
(0.130186 0.060843 -8.54809e-16 0.13971 -7.65122e-17 0.137256)
(0.00107627 6.6081e-05 2.09412e-20 0.000865085 -5.98761e-21 0.000970838)
(0.000980823 8.44565e-05 2.26462e-20 0.000822616 -5.87483e-22 0.000901574)
(0.000879004 9.33553e-05 -5.58951e-20 0.000777356 -3.37802e-20 0.000828197)
(0.000775195 9.3505e-05 -3.05327e-20 0.000727844 2.63968e-21 0.000751977)
(0.000668448 8.57801e-05 5.06152e-20 0.000668379 2.28418e-20 0.000669063)
(0.000565378 7.27343e-05 2.36166e-20 0.00059985 -1.93792e-21 0.000583177)
(0.00047446 5.81125e-05 2.7952e-20 0.000530018 -1.72579e-20 0.000502532)
(0.000398356 4.43963e-05 -4.31502e-20 0.000464232 -2.82827e-20 0.000431151)
(0.000335841 3.26782e-05 -5.34779e-20 0.000404538 1.00951e-20 0.000369554)
(0.000285193 2.33523e-05 4.87957e-21 0.000351991 1.41313e-20 0.000317447)
(0.000244166 1.62558e-05 1.65267e-20 0.000306526 -4.91834e-21 0.000273745)
(0.000211305 1.10711e-05 -4.05725e-20 0.000268254 -3.21227e-21 0.000237765)
(0.00018506 7.34811e-06 -1.55775e-21 0.000236569 -6.45834e-21 0.000208459)
(0.000164284 4.64475e-06 -1.55664e-20 0.000210853 -3.04699e-21 0.000184936)
(0.000147525 2.56367e-06 3.26928e-20 0.000189739 -1.8834e-20 0.00016581)
(0.000134023 8.48411e-07 -3.559e-20 0.000172462 -1.23658e-20 0.000150274)
(0.000122794 -7.19005e-07 -7.3967e-20 0.000157829 -8.73152e-21 0.000137235)
(0.00011289 -2.26747e-06 3.34749e-21 0.000144556 -1.12039e-20 0.00012555)
(0.00010263 -3.70515e-06 1.89359e-20 0.000130416 -1.07745e-20 0.000113287)
(9.22026e-05 -4.6064e-06 5.73466e-20 0.000115835 -4.00104e-21 0.000100628)
(8.3629e-05 -4.88957e-06 -5.37416e-20 0.000103765 -3.11261e-21 8.99641e-05)
(7.72222e-05 -4.8354e-06 -9.2384e-21 9.46598e-05 2.87348e-21 8.18249e-05)
(7.26563e-05 -4.67175e-06 5.59228e-21 8.81581e-05 4.89186e-22 7.58981e-05)
(6.69045e-05 -4.28745e-06 -2.56154e-21 8.02392e-05 -1.02992e-22 6.89623e-05)
(5.91244e-05 -3.80642e-06 -3.71132e-21 7.0162e-05 1.80425e-22 6.02544e-05)
(4.48903e-05 -2.80205e-06 -5.48085e-21 5.21796e-05 -2.89481e-22 4.5265e-05)
(2.86596e-05 -1.69089e-06 1.35413e-20 3.24271e-05 3.90714e-22 2.86022e-05)
(0.000200261 -5.49613e-05 1.9288e-18 0.000303515 1.25486e-19 0.000184245)
(0.000395621 -4.56116e-05 1.86688e-17 0.000505647 1.73633e-18 0.000287332)
(0.001675 0.000601029 7.86544e-17 0.00130143 1.0362e-17 0.00133775)
(0.000858162 4.83613e-05 -5.38319e-20 0.000685183 2.76305e-20 0.000771677)
(0.00079199 6.39222e-05 7.53603e-20 0.000656884 3.91253e-20 0.000724252)
(0.000720102 7.29081e-05 -2.43792e-20 0.000627121 -7.08136e-20 0.000673544)
(0.000644751 7.53647e-05 -3.32865e-20 0.000594064 9.44901e-21 0.00061951)
(0.000566067 7.16192e-05 -2.26981e-20 0.000553814 -3.94162e-20 0.000560133)
(0.000489212 6.33213e-05 7.94995e-21 0.000507018 1.20024e-20 0.000498287)
(0.000418537 5.28388e-05 -1.48982e-20 0.000456694 -1.94839e-20 0.000437774)
(0.000355885 4.20687e-05 -3.07706e-20 0.000405684 4.13951e-20 0.000380972)
(0.000301273 3.21409e-05 3.26394e-20 0.000355941 1.91488e-20 0.000328872)
(0.000254411 2.36691e-05 2.77382e-20 0.000309161 -1.27569e-20 0.000282169)
(0.000214677 1.68086e-05 -5.70001e-21 0.00026656 -1.14175e-20 0.000241161)
(0.00018147 1.14775e-05 1.65647e-20 0.000228955 3.6895e-21 0.000205931)
(0.000154125 7.42268e-06 -2.45444e-20 0.000196707 6.27138e-21 0.000176316)
(0.000131986 4.34743e-06 1.73811e-20 0.000169794 -4.57135e-22 0.000151958)
(0.000114178 1.94893e-06 -2.28838e-20 0.000147598 -1.06867e-20 0.000132113)
(0.0001 -8.71003e-09 2.20833e-20 0.000129479 1.84576e-21 0.000116094)
(8.86494e-05 -1.71741e-06 2.96116e-20 0.000114493 6.47753e-21 0.000103034)
(7.93352e-05 -3.28686e-06 -2.06734e-21 0.000101568 2.71819e-21 9.20009e-05)
(7.07568e-05 -4.65785e-06 -5.55255e-20 8.89128e-05 2.65291e-23 8.14992e-05)
(6.22256e-05 -5.5308e-06 -2.06713e-20 7.58557e-05 -8.82707e-21 7.08384e-05)
(5.44202e-05 -5.80778e-06 -6.09319e-21 6.37347e-05 9.39002e-21 6.09833e-05)
(4.83914e-05 -5.71929e-06 2.25746e-20 5.38814e-05 2.80326e-22 5.32193e-05)
(4.4556e-05 -5.39401e-06 8.12314e-22 4.66695e-05 -1.85043e-22 4.79331e-05)
(4.35216e-05 -5.06205e-06 -1.29351e-21 4.27174e-05 1.10498e-22 4.57563e-05)
(4.12518e-05 -4.09787e-06 1.36265e-20 3.83527e-05 6.31202e-23 4.23697e-05)
(5.17156e-05 -5.4937e-06 1.54839e-20 4.50152e-05 5.00604e-22 5.23147e-05)
(1.1905e-05 -3.20449e-07 -4.938e-21 1.13911e-05 -2.7327e-22 1.1887e-05)
(8.48314e-05 -1.23699e-05 -5.48012e-19 6.20579e-05 -4.25054e-20 8.20416e-05)
(0.000439446 -0.000103853 -1.01635e-18 0.000233753 -1.24122e-19 0.000397017)
(0.0011113 -0.000257511 1.99338e-18 0.000562242 2.13186e-20 0.000951523)
(0.000734333 1.93234e-05 -1.09624e-20 0.00057123 2.80566e-21 0.000652861)
(0.000695136 3.59246e-05 4.74922e-20 0.000552057 3.38525e-20 0.000623497)
(0.000647595 4.91036e-05 -2.97897e-20 0.000532305 -5.08284e-20 0.00058982)
(0.000595478 5.75828e-05 1.50189e-20 0.000512128 2.50733e-20 0.000553773)
(0.000539663 6.10591e-05 -1.72421e-20 0.000489362 -3.62283e-21 0.000514549)
(0.000480745 5.96841e-05 -5.23554e-20 0.000461413 -2.17031e-21 0.000471184)
(0.000422469 5.45347e-05 3.75192e-20 0.000428754 8.41364e-21 0.000425731)
(0.000367795 4.71705e-05 -7.13688e-21 0.000392932 1.0274e-20 0.000380475)
(0.000318333 3.89916e-05 2.14276e-20 0.0003558 1.69165e-20 0.000337163)
(0.00027459 3.09795e-05 7.72537e-21 0.00031888 -1.93157e-20 0.000296789)
(0.000236647 2.37719e-05 -5.82244e-21 0.000283493 -1.40672e-20 0.000260057)
(0.000204271 1.76494e-05 -2.25057e-20 0.000250779 8.86202e-21 0.000227434)
(0.000177052 1.26806e-05 -2.73658e-20 0.000221436 1.27898e-20 0.000199059)
(0.000154459 8.75917e-06 1.12511e-20 0.000195826 -7.80445e-22 0.000174858)
(0.00013591 5.69624e-06 -4.58291e-21 0.000173967 -5.2585e-21 0.000154553)
(0.000120716 3.26274e-06 -2.31615e-20 0.000155503 -6.42241e-25 0.000137629)
(0.00010823 1.266e-06 -2.59963e-20 0.000139903 -6.14156e-21 0.000123495)
(9.77286e-05 -4.63721e-07 -2.19594e-20 0.000126391 1.58958e-21 0.000111408)
(8.84774e-05 -2.02928e-06 2.33381e-20 0.000114047 -1.03621e-20 0.00010054)
(7.94635e-05 -3.39703e-06 -5.73868e-21 0.000101557 1.07191e-20 8.97416e-05)
(7.02078e-05 -4.33978e-06 -3.49931e-20 8.84815e-05 8.25626e-21 7.85313e-05)
(6.14039e-05 -4.75598e-06 4.66337e-20 7.60574e-05 -2.71995e-21 6.78247e-05)
(5.3699e-05 -4.81145e-06 3.70765e-21 6.52641e-05 -2.77864e-21 5.84677e-05)
(4.7229e-05 -4.66563e-06 6.8037e-22 5.62709e-05 -2.71481e-22 5.06202e-05)
(4.17715e-05 -4.38271e-06 1.69105e-21 4.87914e-05 3.80559e-23 4.40079e-05)
(3.71899e-05 -4.0125e-06 -1.71839e-20 4.26553e-05 -7.17018e-22 3.84746e-05)
(3.31998e-05 -3.57056e-06 -9.90838e-21 3.74724e-05 -1.03659e-21 3.37199e-05)
(2.95041e-05 -3.15578e-06 5.07026e-20 3.27871e-05 4.0598e-21 2.94296e-05)
(2.37131e-05 -2.36062e-06 3.47264e-20 2.5679e-05 2.44362e-21 2.32381e-05)
(1.55032e-05 -1.23056e-06 -1.86433e-20 1.61246e-05 -1.32019e-21 1.49954e-05)
(1.04607e-08 -7.38616e-13 1.41399e-26 1.04607e-08 1.78484e-27 1.04602e-08)
(0.000599749 1.36726e-05 -1.3309e-21 0.000465726 -9.63014e-21 0.00053279)
(0.000570877 2.71855e-05 -1.6044e-20 0.000451439 8.2532e-21 0.000511066)
(0.000536193 3.8345e-05 1.82411e-20 0.000437509 1.77608e-20 0.000486768)
(0.000497361 4.60432e-05 4.27938e-20 0.00042331 1.87785e-20 0.000460324)
(0.000455131 4.98707e-05 2.92033e-20 0.000407178 -7.45483e-22 0.000431162)
(0.000410599 4.99323e-05 -8.26909e-21 0.000387707 7.29984e-21 0.000399193)
(0.000366157 4.69067e-05 -3.93539e-20 0.000364897 -1.47853e-20 0.000365573)
(0.000323728 4.18253e-05 2.77303e-20 0.00033935 1.90512e-20 0.000331585)
(0.000284405 3.56937e-05 1.38466e-21 0.000312023 -2.17099e-20 0.000298269)
(0.000248681 2.92992e-05 1.48342e-21 0.000283856 -9.89753e-21 0.000266326)
(0.000216799 2.32268e-05 -2.21789e-20 0.000255797 8.80698e-21 0.000236354)
(0.00018875 1.78021e-05 1.27682e-20 0.000228802 1.35658e-20 0.000208841)
(0.00016438 1.31834e-05 5.599e-20 0.000203559 4.65331e-21 0.00018405)
(0.000143471 9.37352e-06 -2.04079e-20 0.000180605 -3.401e-22 0.000162141)
(0.000125735 6.28026e-06 -4.24218e-21 0.000160229 -4.68149e-22 0.000143115)
(0.000110765 3.75467e-06 -2.92092e-20 0.000142388 1.89308e-20 0.000126747)
(9.81554e-05 1.65293e-06 -2.21646e-20 0.000126861 3.38215e-21 0.000112717)
(8.74256e-05 -1.55432e-07 2.51758e-20 0.00011319 6.298e-21 0.000100556)
(7.80269e-05 -1.75095e-06 -5.84637e-20 0.000100719 6.17871e-21 8.96597e-05)
(6.92199e-05 -3.11588e-06 1.96246e-20 8.85018e-05 1.81471e-22 7.91988e-05)
(6.05595e-05 -4.08404e-06 3.87652e-20 7.61048e-05 5.82783e-22 6.87297e-05)
(5.24122e-05 -4.56373e-06 -1.59564e-20 6.43137e-05 -4.43315e-21 5.8795e-05)
(4.52718e-05 -4.67789e-06 -1.73434e-20 5.39237e-05 3.08146e-22 5.00655e-05)
(3.92935e-05 -4.56555e-06 -4.17075e-21 4.51279e-05 2.37096e-22 4.27384e-05)
(3.43537e-05 -4.29374e-06 -5.10854e-22 3.77495e-05 1.8413e-23 3.66582e-05)
(3.03856e-05 -3.9024e-06 2.07727e-21 3.16987e-05 5.45826e-22 3.17406e-05)
(2.75036e-05 -3.43885e-06 -2.69995e-20 2.70553e-05 -8.68583e-22 2.80929e-05)
(2.57561e-05 -2.9517e-06 6.19444e-20 2.38855e-05 2.06566e-21 2.57423e-05)
(2.48732e-05 -2.4933e-06 2.63121e-21 2.19176e-05 -5.60267e-22 2.43847e-05)
(2.3551e-05 -1.94177e-06 4.01828e-20 2.00214e-05 4.14123e-21 2.27174e-05)
(2.17697e-05 -1.40178e-06 1.95475e-20 1.81268e-05 -6.05097e-22 2.07359e-05)
(0.000496279 9.72135e-06 -4.75897e-22 0.000384858 2.56806e-21 0.000440563)
(0.000474357 2.08685e-05 -2.45607e-21 0.000373807 -2.30228e-20 0.000424005)
(0.000448402 3.0348e-05 -7.99364e-20 0.000363668 -3.77037e-20 0.00040599)
(0.000418865 3.72184e-05 1.76098e-20 0.000353417 2.76604e-20 0.000386133)
(0.000386453 4.1051e-05 -5.21086e-21 0.000341797 1.88082e-21 0.00036412)
(0.00035238 4.19402e-05 4.23001e-20 0.000328087 1.44596e-20 0.000340254)
(0.000318085 4.03104e-05 -2.81645e-21 0.00031195 1.39983e-20 0.000315042)
(0.000284912 3.68655e-05 1.78896e-20 0.000293613 -6.2812e-21 0.000289287)
(0.00025364 3.23291e-05 -1.55425e-20 0.000273557 5.0776e-21 0.000263634)
(0.000224682 2.73063e-05 -2.84386e-20 0.000252344 8.22838e-21 0.000238551)
(0.000198345 2.22906e-05 7.50387e-21 0.000230648 3.75469e-21 0.000214524)
(0.000174768 1.76043e-05 1.23887e-20 0.000209252 -5.05813e-21 0.00019203)
(0.000153937 1.34412e-05 1.16494e-20 0.000188741 -2.22682e-20 0.000171346)
(0.0001358 9.87118e-06 1.63272e-20 0.000169665 5.72805e-21 0.000152721)
(0.000120203 6.87845e-06 -1.50023e-20 0.00015236 8.46068e-21 0.000136249)
(0.000106876 4.37693e-06 5.58653e-20 0.000136906 2.44117e-21 0.000121836)
(9.54854e-05 2.26681e-06 -1.31324e-20 0.00012317 7.78047e-21 0.00010925)
(8.56454e-05 4.48651e-07 2.59335e-20 0.000110835 -1.01854e-20 9.81396e-05)
(7.68965e-05 -1.14111e-06 3.98149e-20 9.93936e-05 2.53979e-21 8.80222e-05)
(6.86643e-05 -2.49474e-06 7.94274e-22 8.81469e-05 -8.95889e-21 7.82701e-05)
(6.06052e-05 -3.49086e-06 -1.09416e-20 7.67801e-05 -7.15571e-21 6.85491e-05)
(5.29778e-05 -4.04791e-06 -1.00223e-20 6.58852e-05 1.52016e-21 5.92583e-05)
(4.61456e-05 -4.25084e-06 2.02551e-21 5.61105e-05 1.32019e-22 5.09154e-05)
(4.02082e-05 -4.22234e-06 4.19643e-21 4.76291e-05 1.96073e-22 4.36742e-05)
(3.50247e-05 -4.031e-06 1.71055e-21 4.02848e-05 -3.10176e-23 3.73778e-05)
(3.04611e-05 -3.72008e-06 4.82423e-21 3.39398e-05 1.12954e-22 3.18793e-05)
(2.6481e-05 -3.33786e-06 1.90137e-20 2.85546e-05 1.74866e-21 2.71378e-05)
(2.30163e-05 -2.92274e-06 -1.08291e-19 2.40137e-05 -7.86285e-21 2.30675e-05)
(2.00149e-05 -2.50858e-06 -4.32739e-20 2.01658e-05 -1.75446e-21 1.95884e-05)
(1.74448e-05 -2.09209e-06 -2.38511e-21 1.68762e-05 -4.50575e-21 1.66296e-05)
(1.57485e-05 -1.75549e-06 -6.09673e-20 1.44732e-05 -7.10684e-21 1.45702e-05)
(0.000427247 -2.86364e-06 -3.23497e-20 0.000330205 -2.46719e-20 0.000378727)
(0.00041493 6.91529e-06 -1.85943e-20 0.000321433 -1.32547e-20 0.00036816)
(0.000398102 1.62059e-05 -4.71474e-21 0.000312807 -1.21794e-21 0.000355397)
(0.000378219 2.43009e-05 1.16513e-20 0.000305199 2.98512e-20 0.000341693)
(0.000355361 3.03754e-05 2.64646e-20 0.000297632 1.70877e-20 0.000326489)
(0.000330189 3.40408e-05 1.87757e-20 0.00028917 -1.22543e-20 0.000309669)
(0.000303772 3.53829e-05 -2.55819e-20 0.000279413 -1.59204e-20 0.000291601)
(0.000277064 3.46713e-05 5.34943e-20 0.000267942 2.37747e-21 0.000272513)
(0.000250975 3.23938e-05 -7.80901e-21 0.000254739 -2.39903e-20 0.000252866)
(0.00022604 2.90759e-05 4.56354e-20 0.000240021 9.79346e-21 0.000233048)
(0.000202568 2.51749e-05 3.51439e-20 0.000224077 4.87377e-21 0.000213345)
(0.000180824 2.10882e-05 -1.67228e-20 0.000207327 -6.98811e-21 0.000194096)
(0.000160953 1.71001e-05 2.86546e-21 0.000190323 -7.82838e-21 0.00017566)
(0.000143032 1.3412e-05 -4.29379e-20 0.000173546 1.97077e-21 0.000158309)
(0.000127066 1.01268e-05 -6.70649e-21 0.000157448 -5.13784e-21 0.000142276)
(0.000113002 7.27504e-06 3.00426e-20 0.000142369 1.53684e-21 0.000127704)
(0.000100703 4.8269e-06 6.0087e-22 0.000128488 -8.43469e-21 0.000114616)
(8.99671e-05 2.72536e-06 2.62071e-20 0.000115808 4.94739e-21 0.000102911)
(8.0522e-05 9.01129e-07 -2.94375e-20 0.000104156 -4.9572e-21 9.23677e-05)
(7.20306e-05 -6.88471e-07 -2.24451e-20 9.3193e-05 -4.97159e-21 8.26486e-05)
(6.40961e-05 -2.03707e-06 -4.44979e-20 8.24628e-05 1.45092e-21 7.33313e-05)
(5.64674e-05 -3.05525e-06 -3.34979e-20 7.17526e-05 5.14798e-21 6.4183e-05)
(4.92865e-05 -3.67105e-06 -3.59778e-21 6.14649e-05 7.95207e-22 5.54597e-05)
(4.28419e-05 -3.94217e-06 -1.27461e-20 5.21497e-05 5.65832e-22 4.75844e-05)
(3.72413e-05 -3.97247e-06 -4.26872e-22 4.4007e-05 -3.02371e-22 4.07268e-05)
(3.23966e-05 -3.82876e-06 -1.62041e-21 3.69492e-05 -1.49284e-22 3.47969e-05)
(2.8208e-05 -3.55368e-06 -6.07956e-22 3.08766e-05 -2.99855e-22 2.96885e-05)
(2.46565e-05 -3.19186e-06 1.33574e-20 2.57615e-05 -6.51387e-23 2.53807e-05)
(2.17881e-05 -2.78608e-06 1.97098e-22 2.1611e-05 3.32281e-22 2.19056e-05)
(1.96211e-05 -2.36723e-06 8.77758e-20 1.84237e-05 7.94583e-21 1.92573e-05)
(1.81682e-05 -1.95429e-06 -1.40025e-19 1.61481e-05 -9.82497e-21 1.7408e-05)
(1.74504e-05 -1.56e-06 7.82536e-21 1.47374e-05 6.61742e-21 1.63538e-05)
(0.000349981 4.89557e-06 -5.76908e-20 0.000270899 -5.88812e-21 0.000310412)
(0.000336915 1.27133e-05 8.259e-20 0.00026409 6.55537e-20 0.00030046)
(0.000321365 1.96554e-05 5.08043e-20 0.000258214 7.21146e-21 0.000289789)
(0.000303393 2.49991e-05 3.65675e-20 0.000252503 -7.08193e-21 0.000277944)
(0.000283648 2.84201e-05 -5.74559e-20 0.000246307 -2.56118e-20 0.000264966)
(0.000262932 2.99829e-05 -3.5818e-20 0.000239307 -6.85724e-21 0.000251124)
(0.000241928 2.98646e-05 -7.24887e-20 0.000231102 -2.32981e-20 0.000236518)
(0.000221281 2.84142e-05 -7.44296e-20 0.000221573 3.90983e-21 0.000221429)
(0.000201333 2.60174e-05 -3.62692e-20 0.000210767 -1.21082e-20 0.00020606)
(0.000182285 2.30151e-05 1.09964e-20 0.000198803 7.46959e-22 0.00019056)
(0.000164376 1.97214e-05 -6.80037e-21 0.000185949 1.76225e-21 0.000175176)
(0.000147739 1.6376e-05 -1.90983e-20 0.00017258 7.7608e-21 0.000160175)
(0.000132458 1.31608e-05 2.10832e-20 0.000159039 4.25898e-21 0.000145762)
(0.000118608 1.01941e-05 -2.57518e-20 0.000145719 -7.18785e-21 0.000132172)
(0.000106185 7.53717e-06 -2.77787e-21 0.000132911 -6.46771e-21 0.000119552)
(9.51307e-05 5.19267e-06 8.19186e-21 0.000120825 -6.01598e-21 0.000107977)
(8.53265e-05 3.14018e-06 2.52041e-20 0.000109531 -1.08613e-20 9.74217e-05)
(7.65827e-05 1.34151e-06 -1.07017e-20 9.8948e-05 5.18173e-22 8.77525e-05)
(6.86531e-05 -2.28433e-07 -6.19199e-21 8.88609e-05 1.19389e-20 7.87397e-05)
(6.12592e-05 -1.56376e-06 -6.74155e-21 7.89816e-05 1.11042e-20 7.01015e-05)
(5.42013e-05 -2.59488e-06 2.48101e-20 6.91561e-05 3.38258e-21 6.16625e-05)
(4.75701e-05 -3.26044e-06 -3.00859e-22 5.96909e-05 3.13016e-21 5.36092e-05)
(4.15785e-05 -3.59842e-06 8.49995e-21 5.10337e-05 1.35981e-21 4.62715e-05)
(3.63104e-05 -3.69367e-06 -1.12995e-21 4.3377e-05 1.43442e-22 3.9799e-05)
(3.16915e-05 -3.61009e-06 -9.09348e-22 3.66668e-05 3.42555e-23 3.41276e-05)
(2.76253e-05 -3.39033e-06 -3.29293e-21 3.08183e-05 -1.25659e-22 2.91601e-05)
(2.4075e-05 -3.07827e-06 -1.38908e-20 2.57979e-05 -7.81485e-22 2.48609e-05)
(2.10328e-05 -2.71554e-06 -3.73197e-20 2.15768e-05 -2.32368e-21 2.12118e-05)
(1.84727e-05 -2.33003e-06 2.54233e-21 1.80754e-05 -5.61106e-22 1.8166e-05)
(1.64822e-05 -1.94492e-06 1.26636e-19 1.53042e-05 1.67821e-20 1.57724e-05)
(1.50761e-05 -1.55153e-06 9.13558e-20 1.32281e-05 2.54672e-21 1.40334e-05)
(0.000287149 1.00569e-05 -7.62545e-20 0.000224622 -4.28501e-20 0.000255858)
(0.000274798 1.60324e-05 -5.81327e-20 0.000219985 -1.01494e-20 0.000247398)
(0.000260476 2.07297e-05 4.32612e-20 0.000215599 3.55997e-20 0.000238036)
(0.000244829 2.38745e-05 7.08893e-20 0.000211032 1.68945e-20 0.000227918)
(0.000228426 2.55173e-05 1.17876e-20 0.000205992 -1.06417e-21 0.000217211)
(0.000211756 2.57737e-05 5.2826e-20 0.000200093 3.61743e-20 0.000205925)
(0.000195292 2.49038e-05 6.84514e-20 0.000193195 2.75329e-20 0.000194242)
(0.000179268 2.3196e-05 -2.46375e-20 0.000185269 -7.54126e-21 0.000182272)
(0.000163813 2.09076e-05 1.48748e-20 0.000176332 6.96132e-23 0.000170081)
(0.000149083 1.8279e-05 -5.10005e-21 0.000166508 2.41861e-21 0.000157804)
(0.000135183 1.55022e-05 3.76267e-20 0.000156051 2.04552e-21 0.000145627)
(0.000122201 1.27375e-05 -1.36415e-20 0.00014519 -2.7618e-22 0.000133705)
(0.00011021 1.0098e-05 -3.64055e-20 0.00013421 1.40289e-20 0.000122219)
(9.92583e-05 7.65901e-06 -1.36885e-20 0.000123376 1.27129e-21 0.000111324)
(8.93303e-05 5.4507e-06 -3.19319e-20 0.00011288 5.18367e-21 0.00010111)
(8.03605e-05 3.47749e-06 -3.40362e-20 0.000102816 -5.12567e-22 9.15914e-05)
(7.22343e-05 1.72455e-06 -3.68997e-20 9.3181e-05 7.20978e-21 8.27102e-05)
(6.47881e-05 1.83091e-07 6.00121e-20 8.3862e-05 -6.13596e-21 7.43285e-05)
(5.78319e-05 -1.13446e-06 4.67686e-20 7.46876e-05 -1.47381e-21 6.62667e-05)
(5.12338e-05 -2.17213e-06 7.94895e-21 6.55838e-05 -5.51081e-21 5.84231e-05)
(4.50534e-05 -2.87753e-06 3.09391e-20 5.67903e-05 -3.34035e-21 5.09397e-05)
(3.9443e-05 -3.27191e-06 7.08132e-21 4.86667e-05 -1.75899e-21 4.40703e-05)
(3.44781e-05 -3.42364e-06 2.07213e-21 4.14055e-05 3.70759e-22 3.7958e-05)
(3.01127e-05 -3.39127e-06 -1.53465e-22 3.49971e-05 1.31473e-22 3.25765e-05)
(2.62774e-05 -3.21648e-06 -1.96253e-22 2.93919e-05 1.8185e-22 2.78618e-05)
(2.29487e-05 -2.94072e-06 6.95378e-21 2.45759e-05 7.43257e-22 2.37945e-05)
(2.01413e-05 -2.60488e-06 9.96839e-21 2.05443e-05 1.38582e-21 2.03825e-05)
(1.78691e-05 -2.23842e-06 2.02528e-20 1.72822e-05 1.53371e-21 1.76221e-05)
(1.62024e-05 -1.8645e-06 4.52657e-20 1.48002e-05 -1.5198e-21 1.55488e-05)
(1.51244e-05 -1.47668e-06 -1.61035e-19 1.30396e-05 -2.07819e-20 1.41336e-05)
(0.000236271 1.3176e-05 1.86984e-20 0.000188541 1.0209e-20 0.000212415)
(0.000224737 1.7305e-05 2.66551e-20 0.000185129 -1.48303e-20 0.000204931)
(0.000212213 2.01677e-05 -9.09287e-20 0.000181737 -4.79537e-20 0.000196966)
(0.000199089 2.18025e-05 -7.45582e-20 0.000178084 -7.51161e-22 0.000188587)
(0.000185748 2.22907e-05 1.37082e-20 0.000173843 -1.38615e-21 0.000179794)
(0.000172541 2.18262e-05 6.39022e-20 0.000168853 -1.07546e-20 0.000170693)
(0.000159617 2.0631e-05 -1.76902e-20 0.000163042 4.21917e-21 0.000161331)
(0.000147034 1.88989e-05 -1.01147e-20 0.000156367 -8.74432e-22 0.000151706)
(0.00013492 1.68159e-05 -2.54986e-21 0.000148894 -4.30878e-21 0.000141911)
(0.00012334 1.45342e-05 -1.31755e-20 0.000140764 -3.31002e-22 0.000132058)
(0.000112354 1.21838e-05 2.84713e-20 0.000132112 3.73595e-21 0.000122239)
(0.00010204 9.86713e-06 5.60879e-20 0.00012315 1.41585e-20 0.000112601)
(9.24474e-05 7.66202e-06 8.62845e-21 0.00011407 4.18774e-21 0.000103264)
(8.36048e-05 5.61262e-06 3.98187e-20 0.000105056 4.637e-21 9.43341e-05)
(7.54949e-05 3.74316e-06 1.71859e-20 9.62208e-05 5.15728e-21 8.58589e-05)
(6.80499e-05 2.05679e-06 2.82276e-20 8.75962e-05 1.9905e-21 7.78213e-05)
(6.11563e-05 5.59304e-07 -3.96307e-20 7.91242e-05 -7.61023e-21 7.01372e-05)
(5.46918e-05 -7.32393e-07 -6.24635e-21 7.07197e-05 -1.01158e-20 6.2704e-05)
(4.8587e-05 -1.76915e-06 -2.37632e-20 6.23822e-05 -1.96282e-22 5.54858e-05)
(4.28767e-05 -2.50393e-06 -3.32614e-20 5.42986e-05 -2.90117e-22 4.85894e-05)
(3.76711e-05 -2.94761e-06 -1.52443e-20 4.67632e-05 -5.12288e-22 4.22144e-05)
(3.3031e-05 -3.15263e-06 3.54217e-21 3.99579e-05 -3.55281e-22 3.64879e-05)
(2.89253e-05 -3.17167e-06 1.74966e-21 3.39022e-05 -7.07157e-23 3.14062e-05)
(2.52973e-05 -3.04477e-06 1.74915e-21 2.85686e-05 4.64539e-22 2.69237e-05)
(2.21207e-05 -2.81119e-06 -2.12925e-22 2.39468e-05 -4.26161e-22 2.30211e-05)
(1.94031e-05 -2.5104e-06 -2.33925e-21 2.00362e-05 9.85069e-22 1.97029e-05)
(1.71432e-05 -2.17115e-06 -2.60468e-21 1.6805e-05 -3.86689e-21 1.69536e-05)
(1.54092e-05 -1.81489e-06 -7.88601e-20 1.4263e-05 -3.77339e-21 1.48101e-05)
(1.42351e-05 -1.43981e-06 7.60798e-21 1.2398e-05 1.01862e-20 1.32938e-05)
(0.000194744 1.45305e-05 -1.02729e-19 0.000159745 -4.45522e-20 0.000177243)
(0.000184621 1.71222e-05 2.16281e-20 0.000157209 3.14261e-20 0.000170906)
(0.000174035 1.86992e-05 5.543e-20 0.000154558 9.61359e-21 0.000164297)
(0.000163274 1.93208e-05 -6.71958e-20 0.000151508 -2.82352e-20 0.00015739)
(0.000152603 1.91354e-05 -6.66788e-20 0.000147894 -6.86414e-21 0.000150245)
(0.00014212 1.83184e-05 3.80126e-20 0.00014364 9.34576e-21 0.00014288)
(0.00013186 1.70195e-05 2.00104e-20 0.00013868 -4.36318e-22 0.000135273)
(0.000121886 1.53797e-05 -3.4146e-20 0.000133005 -1.86628e-21 0.000127447)
(0.000112239 1.3517e-05 2.96429e-20 0.000126706 1.32827e-21 0.000119477)
(0.000102969 1.15375e-05 -2.09105e-20 0.000119854 -1.006e-20 0.000111416)
(9.41358e-05 9.52886e-06 5.04662e-20 0.000112589 -9.94374e-21 0.000103367)
(8.57875e-05 7.56241e-06 2.07056e-20 0.000105048 -3.70035e-21 9.54218e-05)
(7.79593e-05 5.68671e-06 -2.39048e-21 9.73731e-05 -8.31718e-21 8.76695e-05)
(7.06628e-05 3.93786e-06 7.79575e-21 8.96715e-05 -3.58585e-21 8.01689e-05)
(6.3867e-05 2.33383e-06 -7.65241e-21 8.19943e-05 -5.05454e-21 7.29311e-05)
(5.75092e-05 8.92341e-07 -2.34181e-21 7.43348e-05 5.36379e-21 6.59222e-05)
(5.15232e-05 -3.64339e-07 -4.83188e-20 6.66748e-05 5.57457e-21 5.91004e-05)
(4.5874e-05 -1.39242e-06 3.76666e-22 5.90489e-05 3.23394e-21 5.24658e-05)
(4.05937e-05 -2.14769e-06 2.29917e-20 5.16222e-05 3.617e-21 4.61142e-05)
(3.57594e-05 -2.63177e-06 3.2494e-22 4.46339e-05 1.58368e-21 4.02011e-05)
(3.1422e-05 -2.88409e-06 -4.24793e-21 3.82558e-05 -1.04722e-22 3.48418e-05)
(2.7564e-05 -2.95017e-06 -2.36264e-21 3.25316e-05 -9.5438e-23 3.00516e-05)
(2.41433e-05 -2.86744e-06 7.53295e-21 2.74557e-05 -2.81509e-23 2.58045e-05)
(2.11407e-05 -2.67258e-06 -5.12739e-21 2.30316e-05 -5.31715e-22 2.20916e-05)
(1.85701e-05 -2.40327e-06 3.75494e-20 1.92706e-05 4.73436e-21 1.89268e-05)
(1.64421e-05 -2.08807e-06 -8.72981e-20 1.61624e-05 -7.57061e-21 1.63102e-05)
(1.48205e-05 -1.74801e-06 1.29863e-19 1.37231e-05 1.01584e-20 1.42776e-05)
(1.37379e-05 -1.38344e-06 6.19118e-20 1.19441e-05 9.64814e-21 1.28504e-05)
(0.000161144 1.46019e-05 5.72464e-21 0.000136524 3.85546e-21 0.000148827)
(0.000152528 1.60933e-05 -3.59334e-20 0.000134597 -1.48867e-20 0.000143562)
(0.000143777 1.67828e-05 4.58965e-21 0.000132406 2.1214e-20 0.000138089)
(0.000135104 1.67879e-05 3.7063e-20 0.000129802 8.27284e-21 0.000132448)
(0.000126566 1.62488e-05 -4.18161e-20 0.000126697 -1.27244e-20 0.00012663)
(0.000118165 1.52826e-05 7.69612e-21 0.000123012 7.92392e-22 0.00012059)