/*--------------------------------*- C++ -*----------------------------------*\
| =========                 |                                                 |
| \\      /  F ield         | OpenFOAM: The Open Source CFD Toolbox           |
|  \\    /   O peration     | Version:  2506                                  |
|   \\  /    A nd           | Website:  www.openfoam.com                      |
|    \\/     M anipulation  |                                                 |
\*---------------------------------------------------------------------------*/
FoamFile
{
    version     2.0;
    format      ascii;
    arch        "LSB;label=32;scalar=64";
    class       volScalarField;
    location    "400";
    object      turbulenceProperties:k;
}
// * * * * * * * * * * * * * * * * * * * * * * * * * * * * * * * * * * * * * //

dimensions      [0 2 -2 0 0 0 0];

internalField   nonuniform List<scalar> 
1340
(
0.00288489
0.00301492
0.00406982
0.0060313
0.00903307
0.0133978
0.019637
0.0284189
0.0408172
0.0586625
0.0853444
0.127069
0.195059
0.311627
0.517847
0.911256
1.66855
3.3196
6.78859
15.1732
31.2657
44.3053
49.901
51.4883
51.7479
51.4499
50.7221
49.6017
0.00215683
0.00189734
0.00165748
0.00141947
0.001193
0.000996946
0.000831308
0.000690807
0.000571732
0.000471398
0.000386281
0.00031425
0.000251124
0.000193457
0.000136417
8.06517e-05
2.7957e-05
4.55992e-06
1.16249e-05
0.00159575
0.0085412
0.0688304
0.231449
0.451774
0.673431
0.867772
1.03114
1.1749
1.30944
0.00172483
0.00155016
0.00138784
0.00122085
0.00104116
0.000867172
0.000711459
0.000577375
0.000466677
0.000377303
0.000307653
0.00025483
0.00021641
0.000188813
0.0001698
0.000157462
0.000150685
0.000146971
0.000146801
0.00014586
0.000155153
9.22765e-05
0.000635758
0.00417635
0.0118342
0.0247093
0.0551199
0.115003
0.203576
0.0014561
0.00135251
0.00124228
0.00112751
0.00100295
0.000874203
0.000753505
0.000646869
0.000554966
0.000477316
0.000412219
0.000358662
0.000315044
0.000280036
0.000251537
0.000228379
0.000208929
0.000191498
0.000173167
0.000154333
0.000138679
0.000126853
0.000118356
0.000108053
9.47704e-05
7.11675e-05
4.48445e-05
0.000344011
0.0005943
0.00215709
0.00115751
0.00108656
0.00101038
0.000929162
0.000840007
0.000747259
0.000656503
0.000571271
0.000493043
0.000422871
0.000361199
0.000308178
0.000263574
0.000226869
0.000196945
0.000172786
0.000153088
0.000136452
0.000120584
0.00010446
8.95691e-05
7.7746e-05
6.95793e-05
6.59977e-05
6.09871e-05
7.45227e-05
1.75916e-05
0.000114465
0.000535108
0.00131253
0.000979212
0.000935345
0.00088486
0.000830689
0.000771787
0.000706671
0.000638477
0.000570601
0.000505648
0.00044513
0.000390099
0.000341242
0.000298773
0.000262571
0.000232215
0.000206924
0.000185814
0.000167764
0.000151532
0.000135381
0.00011861
0.000102643
8.87154e-05
7.706e-05
6.72854e-05
5.91599e-05
5.2196e-05
4.58604e-05
3.63151e-05
2.33116e-05
1.56908e-08
0.000799133
0.000766691
0.000730235
0.000690497
0.000646736
0.00059875
0.000548313
0.000497331
0.000447348
0.000399431
0.000354475
0.000313197
0.000275994
0.000243109
0.000214539
0.00018995
0.000168867
0.000150585
0.000134203
0.00011846
0.000102697
8.77604e-05
7.46305e-05
6.35799e-05
5.43807e-05
4.69125e-05
4.13259e-05
3.76919e-05
3.55878e-05
3.31449e-05
3.03162e-05
0.00066085
0.000636085
0.00060903
0.000579208
0.000546185
0.00051036
0.000472539
0.000433906
0.000395415
0.000357788
0.000321758
0.000288025
0.000257012
0.000229093
0.000204406
0.000182808
0.000163953
0.00014731
0.000132156
0.000117541
0.000102967
8.90607e-05
7.65857e-05
6.57557e-05
5.63436e-05
4.81401e-05
4.10867e-05
3.50488e-05
2.98846e-05
2.54753e-05
2.2396e-05
0.00056809
0.000552262
0.000533153
0.000512556
0.000489741
0.000464514
0.000437393
0.00040876
0.00037929
0.000349554
0.000319995
0.000291123
0.000263468
0.000237444
0.000213395
0.000191538
0.000171903
0.000154343
0.000138523
0.000123936
0.000109945
9.62015e-05
8.31056e-05
7.1288e-05
6.09875e-05
5.20713e-05
4.43866e-05
3.78993e-05
3.26523e-05
2.8651e-05
2.58622e-05
2.42708e-05
0.000465646
0.000450732
0.000434684
0.00041692
0.00039746
0.000376681
0.000354774
0.000332142
0.00030908
0.000285824
0.00026275
0.000240247
0.00021863
0.00019825
0.000179324
0.000161966
0.00014614
0.000131642
0.000118127
0.000105171
9.251e-05
8.04351e-05
6.94419e-05
5.97432e-05
5.1243e-05
4.38018e-05
3.73669e-05
3.19107e-05
2.73571e-05
2.37794e-05
2.11688e-05
0.000383815
0.000371091
0.000357055
0.000341889
0.000325815
0.000308887
0.000291364
0.000273405
0.000255113
0.000236697
0.000218431
0.000200548
0.00018332
0.000166979
0.00015166
0.000137384
0.000124063
0.000111489
9.93931e-05
8.76203e-05
7.63917e-05
6.609e-05
5.69208e-05
4.88432e-05
4.17656e-05
3.56595e-05
3.05341e-05
2.63867e-05
2.32757e-05
2.11488e-05
0.000318614
0.000307399
0.000295458
0.00028288
0.000269692
0.000256043
0.000241995
0.000227554
0.000212863
0.000198081
0.000183352
0.000168896
0.000154891
0.000141498
0.000128787
0.000116734
0.000105209
9.40577e-05
8.32275e-05
7.28823e-05
6.33244e-05
5.47384e-05
4.71168e-05
4.03948e-05
3.45443e-05
2.95711e-05
2.54509e-05
2.22412e-05
1.99634e-05
0.000265866
0.000256368
0.000246445
0.000236086
0.00022537
0.00021432
0.000202906
0.000191169
0.000179211
0.00016712
0.000155046
0.000143129
0.000131501
0.000120252
0.000109396
9.88831e-05
8.86492e-05
7.86943e-05
6.91651e-05
6.02972e-05
5.22598e-05
4.50736e-05
3.87017e-05
3.31319e-05
2.83838e-05
2.44573e-05
2.14106e-05
1.92662e-05
0.000223247
0.000215343
0.000207136
0.000198677
0.000189947
0.000180883
0.000171506
0.000161845
0.000151936
0.000141887
0.0001318
0.000121776
0.000111892
0.000102197
9.26873e-05
8.33675e-05
7.42758e-05
6.55385e-05
5.73541e-05
4.98708e-05
4.31275e-05
3.71109e-05
3.18186e-05
2.72745e-05
2.34787e-05
2.04881e-05
1.83358e-05
0.000188671
0.000182124
0.000175393
0.000168454
0.000161236
0.000153721
0.000145916
0.000137817
0.000129479
0.000120971
0.000112369
0.000103749
9.51611e-05
8.66261e-05
7.81745e-05
6.98903e-05
6.1903e-05
5.43716e-05
4.74248e-05
4.1115e-05
3.5448e-05
3.04322e-05
2.60988e-05
2.24573e-05
1.9568e-05
1.74632e-05
0.00016569
0.000160423
0.000155041
0.000149499
0.000143723
0.000137689
0.000131368
0.000124748
0.000117846
0.000110699
0.000103359
9.58807e-05
8.83173e-05
8.07016e-05
7.30954e-05
6.55932e-05
5.83217e-05
5.14154e-05
4.49912e-05
3.91086e-05
3.37881e-05
2.90471e-05
2.49214e-05
2.14255e-05
1.86198e-05
1.65393e-05
0.000141552
0.000137212
0.000132756
0.000128117
0.000123253
0.000118133
0.000112719
0.000107016
0.00010103
9.4793e-05
8.83429e-05
8.1719e-05
7.49629e-05
6.81493e-05
6.13857e-05
5.47867e-05
4.84761e-05
4.25562e-05
3.70898e-05
3.21093e-05
2.76395e-05
2.372e-05
2.03717e-05
1.76558e-05
1.56087e-05
0.000125085
0.000121566
0.000117964
0.000114215
0.000110281
0.00010612
0.00010169
9.69781e-05
9.19757e-05
8.66915e-05
8.11524e-05
7.53905e-05
6.94387e-05
6.33645e-05
5.72819e-05
5.1317e-05
4.55728e-05
4.01379e-05
3.50761e-05
3.0428e-05
2.6225e-05
2.25085e-05
1.93054e-05
1.66763e-05
1.46592e-05
0.00010781
0.000104879
0.000101834
9.86365e-05
9.52457e-05
9.16148e-05
8.77201e-05
8.35446e-05
7.90852e-05
7.43459e-05
6.93479e-05
6.41213e-05
5.87378e-05
5.33038e-05
4.79329e-05
4.27202e-05
3.7746e-05
3.30731e-05
2.87473e-05
2.48044e-05
2.12871e-05
1.8228e-05
1.56856e-05
1.37e-05
9.56945e-05
9.32936e-05
9.08075e-05
8.81972e-05
8.54225e-05
8.24401e-05
7.92202e-05
7.57354e-05
7.19741e-05
6.79344e-05
6.36217e-05
5.9055e-05
5.43011e-05
4.94623e-05
4.46415e-05
3.99268e-05
3.53897e-05
3.10904e-05
2.70763e-05
2.33868e-05
2.00645e-05
1.71469e-05
1.46896e-05
1.27356e-05
8.50073e-05
8.30288e-05
8.09858e-05
7.88446e-05
7.65652e-05
7.41067e-05
7.144e-05
6.8534e-05
6.53672e-05
6.19269e-05
5.8216e-05
5.42449e-05
5.00652e-05
4.57677e-05
4.14547e-05
3.72054e-05
3.30811e-05
2.91375e-05
2.54229e-05
2.19783e-05
1.88458e-05
1.60666e-05
1.36929e-05
1.17711e-05
7.39292e-05
7.22382e-05
7.04698e-05
6.85898e-05
6.65575e-05
6.43428e-05
6.19152e-05
5.92499e-05
5.6329e-05
5.31427e-05
4.96959e-05
4.60317e-05
4.22327e-05
3.83887e-05
3.45696e-05
3.08311e-05
2.72237e-05
2.37946e-05
2.05855e-05
1.76377e-05
1.49934e-05
1.27016e-05
1.08125e-05
6.5853e-05
6.44458e-05
6.29788e-05
6.14181e-05
5.97304e-05
5.78872e-05
5.58562e-05
5.36112e-05
5.11319e-05
4.84024e-05
4.54196e-05
4.2218e-05
3.88683e-05
3.54522e-05
3.20281e-05
2.86482e-05
2.53574e-05
2.22003e-05
1.92173e-05
1.64479e-05
1.39344e-05
1.1723e-05
9.86693e-06
5.75049e-05
5.62772e-05
5.49756e-05
5.35687e-05
5.20291e-05
5.03265e-05
4.84349e-05
4.63315e-05
4.39962e-05
4.14201e-05
3.8628e-05
3.56808e-05
3.26496e-05
2.95902e-05
2.65425e-05
2.35481e-05
2.06484e-05
1.78812e-05
1.52836e-05
1.28975e-05
1.07651e-05
8.94179e-06
5.13197e-05
5.0288e-05
4.91952e-05
4.80157e-05
4.67247e-05
4.52944e-05
4.3697e-05
4.19107e-05
3.99132e-05
3.76918e-05
3.52625e-05
3.26768e-05
2.99937e-05
2.7265e-05
2.4523e-05
2.18048e-05
1.91468e-05
1.65846e-05
1.41525e-05
1.18901e-05
9.83549e-06
8.04448e-06
4.58089e-05
4.49351e-05
4.40135e-05
4.30198e-05
4.19318e-05
4.07258e-05
3.93757e-05
3.78576e-05
3.61483e-05
3.42321e-05
3.212e-05
2.98537e-05
2.74858e-05
2.50563e-05
2.25952e-05
2.01331e-05
1.77019e-05
1.53346e-05
1.30616e-05
1.09188e-05
8.94131e-06
7.18302e-06
4.01535e-05
3.93706e-05
3.85291e-05
3.76099e-05
3.6589e-05
3.54437e-05
3.41518e-05
3.26894e-05
3.10376e-05
2.92036e-05
2.722e-05
2.5132e-05
2.2973e-05
2.07676e-05
1.85413e-05
1.63224e-05
1.4139e-05
1.20183e-05
9.99229e-06
8.09145e-06
6.36601e-06
3.58844e-05
3.52154e-05
3.44988e-05
3.37171e-05
3.285e-05
3.18763e-05
3.0774e-05
2.95209e-05
2.8097e-05
2.65047e-05
2.47704e-05
2.29313e-05
2.10153e-05
1.90426e-05
1.70337e-05
1.50127e-05
1.30034e-05
1.10291e-05
9.11771e-06
7.29414e-06
5.60253e-06
3.20728e-05
3.1498e-05
3.08844e-05
3.0217e-05
2.94775e-05
2.86469e-05
2.77051e-05
2.66297e-05
2.54012e-05
2.40186e-05
2.25021e-05
2.08843e-05
1.91864e-05
1.74248e-05
1.56156e-05
1.37785e-05
1.19338e-05
1.01002e-05
8.30163e-06
6.55687e-06
4.90179e-06
2.8174e-05
2.7646e-05
2.70739e-05
2.64411e-05
2.57301e-05
2.4923e-05
2.39986e-05
2.29375e-05
2.17368e-05
2.04124e-05
1.89895e-05
1.74868e-05
1.59157e-05
1.42895e-05
1.26232e-05
1.09339e-05
9.23638e-06
7.54965e-06
5.88735e-06
4.2742e-06
2.52046e-05
2.47477e-05
2.42547e-05
2.37108e-05
2.31004e-05
2.24071e-05
2.16116e-05
2.06941e-05
1.96503e-05
1.84935e-05
1.72432e-05
1.59148e-05
1.4516e-05
1.3057e-05
1.15497e-05
1.00072e-05
8.44165e-06
6.867e-06
5.2923e-06
3.73014e-06
2.21555e-05
2.17291e-05
2.12598e-05
2.07345e-05
2.01378e-05
1.94514e-05
1.86573e-05
1.77499e-05
1.67389e-05
1.56413e-05
1.44679e-05
1.32246e-05
1.19186e-05
1.05591e-05
9.15591e-06
7.71814e-06
6.25653e-06
4.7763e-06
3.27946e-06
1.98389e-05
1.94686e-05
1.90625e-05
1.86088e-05
1.80935e-05
1.75006e-05
1.68129e-05
1.60237e-05
1.51407e-05
1.41773e-05
1.31422e-05
1.20393e-05
1.08736e-05
9.65118e-06
8.37996e-06
7.06671e-06
5.71968e-06
4.34231e-06
2.93002e-06
1.77695e-05
1.74468e-05
1.70946e-05
1.6702e-05
1.62569e-05
1.57438e-05
1.5147e-05
1.44601e-05
1.3689e-05
1.28446e-05
1.19333e-05
1.0957e-05
9.91922e-06
8.82426e-06
7.67827e-06
6.48646e-06
5.25551e-06
3.98937e-06
2.68398e-06
1.56405e-05
1.53343e-05
1.49937e-05
1.46081e-05
1.41637e-05
1.36462e-05
1.30486e-05
1.23754e-05
1.16358e-05
1.08346e-05
9.97268e-06
9.05204e-06
8.07588e-06
7.04844e-06
5.97465e-06
4.86073e-06
3.7129e-06
2.53484e-06
1.40275e-05
1.37605e-05
1.34649e-05
1.31308e-05
1.27455e-05
1.22963e-05
1.17765e-05
1.11894e-05
1.05427e-05
9.83996e-06
9.08124e-06
8.26777e-06
7.40156e-06
6.48626e-06
5.52644e-06
4.52911e-06
3.50388e-06
2.46605e-06
1.25875e-05
1.23549e-05
1.20981e-05
1.1808e-05
1.14742e-05
1.10845e-05
1.06325e-05
1.01214e-05
9.55689e-06
8.94199e-06
8.27644e-06
7.56075e-06
6.79628e-06
5.98653e-06
5.13591e-06
4.25273e-06
3.35045e-06
2.45503e-06
1.11001e-05
1.08766e-05
1.06252e-05
1.0336e-05
9.99802e-06
9.60555e-06
9.1609e-06
8.66948e-06
8.13326e-06
7.55171e-06
6.92497e-06
6.25448e-06
5.54311e-06
4.79596e-06
4.02235e-06
3.23886e-06
2.47838e-06
9.97996e-06
9.78589e-06
9.56801e-06
9.31755e-06
9.02475e-06
8.68464e-06
8.29888e-06
7.87209e-06
7.40596e-06
6.8999e-06
6.35398e-06
5.7695e-06
5.14923e-06
4.49869e-06
3.82805e-06
3.15551e-06
8.98033e-06
8.81185e-06
8.62323e-06
8.40673e-06
8.1537e-06
7.8594e-06
7.52555e-06
7.15604e-06
6.75242e-06
6.31413e-06
5.84119e-06
5.33486e-06
4.79809e-06
4.23647e-06
3.66046e-06
3.08849e-06
7.94218e-06
7.77915e-06
7.59228e-06
7.37395e-06
7.11998e-06
6.83187e-06
6.51322e-06
6.16517e-06
5.78736e-06
5.37992e-06
4.94415e-06
4.48294e-06
4.00192e-06
3.51118e-06
3.02818e-06
7.16535e-06
7.02465e-06
6.86377e-06
6.67601e-06
6.45751e-06
6.20969e-06
5.93584e-06
5.63699e-06
5.31295e-06
4.96394e-06
4.59127e-06
4.19772e-06
3.78865e-06
3.37343e-06
2.96759e-06
6.4709e-06
6.35003e-06
6.21203e-06
6.05086e-06
5.86342e-06
5.65107e-06
5.41672e-06
5.16135e-06
4.88481e-06
4.58749e-06
4.27065e-06
3.93697e-06
3.59129e-06
3.24192e-06
2.9021e-06
5.74634e-06
5.62809e-06
5.49034e-06
5.33024e-06
5.14897e-06
4.94923e-06
4.73197e-06
4.49716e-06
4.24525e-06
3.97744e-06
3.69614e-06
3.40563e-06
3.11299e-06
2.82912e-06
5.20541e-06
5.1047e-06
4.98738e-06
4.85108e-06
4.69696e-06
4.52744e-06
4.34347e-06
4.1451e-06
3.93277e-06
3.70757e-06
3.47165e-06
3.22865e-06
2.98436e-06
2.74755e-06
4.72041e-06
4.63482e-06
4.53523e-06
4.41969e-06
4.28927e-06
4.14608e-06
3.99101e-06
3.8242e-06
3.64609e-06
3.45763e-06
3.26066e-06
3.05818e-06
2.85484e-06
2.65742e-06
4.21245e-06
4.12836e-06
4.03079e-06
3.92087e-06
3.80045e-06
3.67034e-06
3.53071e-06
3.38197e-06
3.22495e-06
3.06114e-06
2.89297e-06
2.72407e-06
2.55955e-06
3.83228e-06
3.76154e-06
3.67956e-06
3.58733e-06
3.48651e-06
3.37781e-06
3.26143e-06
3.13774e-06
3.00741e-06
2.87163e-06
2.73233e-06
2.59222e-06
2.45516e-06
3.48956e-06
3.43035e-06
3.36179e-06
3.28473e-06
3.20065e-06
3.11024e-06
3.01362e-06
2.91112e-06
2.80331e-06
2.69109e-06
2.57592e-06
2.45984e-06
2.34561e-06
3.18013e-06
3.13077e-06
3.07367e-06
3.00956e-06
2.93977e-06
2.86483e-06
2.78489e-06
2.70024e-06
2.61129e-06
2.51875e-06
2.42368e-06
2.32757e-06
2.23236e-06
2.85924e-06
2.81189e-06
2.75876e-06
2.70097e-06
2.63905e-06
2.57311e-06
2.50336e-06
2.43013e-06
2.35394e-06
2.27555e-06
2.196e-06
2.11664e-06
2.6125e-06
2.5733e-06
2.52936e-06
2.48165e-06
2.4306e-06
2.37631e-06
2.31893e-06
2.25872e-06
2.19606e-06
2.13146e-06
2.06562e-06
1.99946e-06
2.38749e-06
2.35509e-06
2.31877e-06
2.2794e-06
2.23733e-06
2.19265e-06
2.14548e-06
2.09601e-06
2.04449e-06
1.99126e-06
1.93679e-06
2.18146e-06
2.15461e-06
2.12455e-06
2.09202e-06
2.05732e-06
2.02053e-06
1.98174e-06
1.94108e-06
1.89871e-06
1.85485e-06
1.80979e-06
1.9696e-06
1.94465e-06
1.9177e-06
1.88901e-06
1.85867e-06
1.82675e-06
1.79333e-06
1.75848e-06
1.72235e-06
1.68508e-06
1.79834e-06
1.77753e-06
1.75515e-06
1.73141e-06
1.70638e-06
1.68011e-06
1.65263e-06
1.624e-06
1.59426e-06
1.56347e-06
1.63972e-06
1.62236e-06
1.60378e-06
1.58417e-06
1.56356e-06
1.54197e-06
1.51942e-06
1.49593e-06
1.47149e-06
1.44611e-06
1.49333e-06
1.47893e-06
1.46359e-06
1.44747e-06
1.43057e-06
1.4129e-06
1.39447e-06
1.37525e-06
1.35522e-06
1.33433e-06
1.35915e-06
1.34732e-06
1.33477e-06
1.3216e-06
1.30782e-06
1.29342e-06
1.27838e-06
1.26269e-06
1.24628e-06
1.22911e-06
1.22732e-06
1.21708e-06
1.20634e-06
1.19509e-06
1.18333e-06
1.17104e-06
1.15818e-06
1.14472e-06
1.13057e-06
1.11787e-06
1.10941e-06
1.10052e-06
1.09121e-06
1.08147e-06
1.0713e-06
1.06067e-06
1.04953e-06
1.03781e-06
1.01711e-06
1.00984e-06
1.00221e-06
9.94263e-07
9.8599e-07
9.77391e-07
9.68446e-07
9.59117e-07
9.22887e-07
9.16313e-07
9.09491e-07
9.02448e-07
8.95209e-07
8.87771e-07
8.80115e-07
8.72213e-07
8.33858e-07
8.27667e-07
8.21347e-07
8.14939e-07
8.08457e-07
8.01897e-07
7.95247e-07
7.88489e-07
7.49945e-07
7.4402e-07
7.38086e-07
7.32169e-07
7.26293e-07
7.2044e-07
7.14614e-07
7.08807e-07
6.6625e-07
6.60641e-07
6.55125e-07
6.49729e-07
6.44443e-07
6.39297e-07
6.34246e-07
5.96302e-07
5.90957e-07
5.85766e-07
5.80735e-07
5.75908e-07
5.7128e-07
5.66812e-07
5.39027e-07
5.33879e-07
5.28888e-07
5.2408e-07
5.19505e-07
5.15139e-07
5.11004e-07
4.93375e-07
4.88444e-07
4.83628e-07
4.78984e-07
4.74522e-07
4.70273e-07
4.66283e-07
4.52245e-07
4.47578e-07
4.4299e-07
4.38522e-07
4.34183e-07
4.30043e-07
4.26124e-07
4.12942e-07
4.08438e-07
4.03973e-07
3.9957e-07
3.95302e-07
3.91228e-07
3.87362e-07
3.76326e-07
3.71739e-07
3.67069e-07
3.62371e-07
3.57758e-07
3.53307e-07
3.40611e-07
3.35676e-07
3.30605e-07
3.25462e-07
3.20333e-07
3.15276e-07
3.00368e-07
2.93605e-07
2.86723e-07
2.79906e-07
2.73345e-07
2.67189e-07
2.45341e-07
2.35443e-07
2.25108e-07
2.14555e-07
2.04027e-07
1.93119e-07
1.83231e-07
1.74136e-07
1.66191e-07
1.59749e-07
1.9081e-07
1.84461e-07
1.79665e-07
1.76318e-07
1.7423e-07
3.49786e-07
3.75544e-07
4.00589e-07
4.2439e-07
4.46431e-07
8.32464e-07
8.46471e-07
8.57563e-07
8.65821e-07
8.71635e-07
1.61847e-06
1.63894e-06
1.65405e-06
1.6641e-06
1.67006e-06
)
;

boundaryField
{
    inlet
    {
        type            calculated;
        value           nonuniform List<scalar> 5(5.06273e-06 5.20288e-06 5.32918e-06 5.44185e-06 5.54119e-06);
    }
    outlet
    {
        type            calculated;
        value           nonuniform List<scalar> 0();
    }
    walls
    {
        type            calculated;
        value           uniform 0;
    }
    frontAndBack
    {
        type            empty;
    }
    procBoundary1to0
    {
        type            processor;
        value           nonuniform List<scalar> 
94
(
0.000478406
0.000478406
0.000395593
0.000395593
0.00032884
0.00032884
0.000274917
0.000274917
0.000230876
0.000230876
0.000195019
0.000195019
0.000170829
0.000145816
0.000145816
0.000128564
0.000110686
0.000110686
9.806e-05
8.69694e-05
7.55731e-05
7.55731e-05
6.72285e-05
5.86861e-05
5.86861e-05
5.23163e-05
4.66572e-05
4.08993e-05
4.08993e-05
3.65237e-05
3.26246e-05
2.86711e-05
2.86711e-05
2.56366e-05
2.25521e-05
2.25521e-05
2.01843e-05
1.80721e-05
1.59219e-05
1.59219e-05
1.42736e-05
1.28033e-05
1.13029e-05
1.13029e-05
1.01569e-05
9.13453e-06
8.08807e-06
8.08807e-06
7.29163e-06
6.57989e-06
5.85008e-06
5.85008e-06
5.29402e-06
4.79579e-06
4.28481e-06
4.28481e-06
3.89317e-06
3.54056e-06
3.22266e-06
2.90016e-06
2.90016e-06
2.64636e-06
2.41546e-06
2.20463e-06
1.99195e-06
1.99195e-06
1.81702e-06
1.65537e-06
1.50639e-06
1.36991e-06
1.23697e-06
1.23697e-06
1.12583e-06
1.02395e-06
9.29122e-07
8.39807e-07
7.55724e-07
6.7193e-07
6.7193e-07
6.01782e-07
5.44342e-07
4.98407e-07
4.56938e-07
4.17428e-07
3.80785e-07
3.45348e-07
3.06796e-07
2.54615e-07
2.54615e-07
2.03485e-07
1.98669e-07
3.23243e-07
8.16234e-07
1.59212e-06
)
;
    }
    procBoundary1to2
    {
        type            processor;
        value           nonuniform List<scalar> 
84
(
48.1503
1.44803
0.312072
0.0115621
0.00259201
4.65814e-07
1.38504e-05
1.95865e-05
2.44908e-05
2.06562e-05
2.08835e-05
1.93716e-05
1.86334e-05
1.7596e-05
1.66631e-05
1.56625e-05
1.46659e-05
1.36525e-05
1.26364e-05
1.16202e-05
1.06105e-05
9.61248e-06
8.63266e-06
7.67771e-06
6.75358e-06
5.86706e-06
5.02504e-06
4.23487e-06
3.50485e-06
2.84582e-06
2.27275e-06
1.80886e-06
1.4874e-06
1.33901e-06
1.35584e-06
1.48146e-06
1.65311e-06
1.82958e-06
2.51627e-06
2.51627e-06
2.55418e-06
2.58261e-06
2.59607e-06
2.59197e-06
2.56974e-06
2.53021e-06
2.47497e-06
2.40609e-06
2.32591e-06
2.23664e-06
2.14041e-06
2.03902e-06
1.93394e-06
1.88163e-06
1.88163e-06
1.76382e-06
1.64683e-06
1.53168e-06
1.41975e-06
1.31252e-06
1.21108e-06
1.11565e-06
1.02544e-06
9.49343e-07
9.49343e-07
8.64012e-07
7.81571e-07
7.02951e-07
6.29258e-07
5.62523e-07
5.07102e-07
4.62513e-07
4.22405e-07
3.83722e-07
3.4908e-07
3.4908e-07
3.10359e-07
2.61575e-07
1.93794e-07
1.55055e-07
1.73002e-07
4.66189e-07
8.75628e-07
1.6728e-06
)
;
    }
    procBoundary1to5
    {
        type            processor;
        value           nonuniform List<scalar> 
13
(
0.00385214
0.00385214
0.00242442
0.00187779
0.00187779
0.00154483
0.0012168
0.0012168
0.00101258
0.000824416
0.000680835
0.000680835
0.000581071
)
;
    }
}


// ************************************************************************* //
