/*--------------------------------*- C++ -*----------------------------------*\
| =========                 |                                                 |
| \\      /  F ield         | OpenFOAM: The Open Source CFD Toolbox           |
|  \\    /   O peration     | Version:  2506                                  |
|   \\  /    A nd           | Website:  www.openfoam.com                      |
|    \\/     M anipulation  |                                                 |
\*---------------------------------------------------------------------------*/
FoamFile
{
    version     2.0;
    format      ascii;
    arch        "LSB;label=32;scalar=64";
    class       volSymmTensorField;
    location    "250";
    object      turbulenceProperties:R;
}
// * * * * * * * * * * * * * * * * * * * * * * * * * * * * * * * * * * * * * //

dimensions      [0 2 -2 0 0 0 0];

internalField   nonuniform List<symmTensor> 
1340
(
(0.000370144 -3.47513e-05 1.29697e-21 0.000316036 2.96576e-22 0.000343118)
(0.000366566 -3.91643e-05 2.0727e-20 0.000324842 1.66679e-20 0.000345683)
(0.000361487 -4.24504e-05 -8.40452e-21 0.000333926 -6.41092e-21 0.000347708)
(0.000314287 -2.97417e-05 5.98344e-21 0.000268848 4.43269e-21 0.000291594)
(0.00031171 -3.34538e-05 -4.49029e-21 0.000276678 -3.51256e-21 0.000294187)
(0.000307963 -3.62424e-05 -1.32358e-20 0.000284824 -9.01986e-21 0.000296408)
(0.00030304 -3.78646e-05 8.87946e-20 0.000292574 6.47213e-20 0.000297824)
(0.00029686 -3.82677e-05 -2.05908e-20 0.000299929 -1.60099e-20 0.000298401)
(0.000268635 -2.56348e-05 2.53242e-21 0.000230264 1.97138e-21 0.000249466)
(0.000266783 -2.87764e-05 -1.00842e-20 0.000237239 -6.61543e-21 0.000252002)
(0.000264008 -3.11527e-05 -4.46185e-20 0.000244546 -2.96942e-20 0.000254285)
(0.00026035 -3.25636e-05 -4.13822e-21 0.000251618 -4.32441e-21 0.00025599)
(0.000255728 -3.29681e-05 -6.436e-21 0.000258466 -2.25696e-21 0.000257093)
(0.000250431 -3.22809e-05 5.79679e-20 0.000264616 3.69657e-20 0.000257527)
(0.000244549 -3.05251e-05 8.34256e-21 0.000269582 9.05895e-21 0.000257073)
(0.000230852 -2.22227e-05 -5.6699e-21 0.00019831 -3.0374e-21 0.000214593)
(0.000229509 -2.48939e-05 -3.37737e-20 0.00020452 -2.13232e-20 0.000217008)
(0.000227433 -2.69223e-05 1.34763e-20 0.000211058 9.30602e-21 0.000219253)
(0.000224679 -2.81416e-05 9.99337e-21 0.000217455 6.13165e-21 0.000221072)
(0.000221177 -2.85214e-05 4.07304e-20 0.000223744 2.5277e-20 0.00022246)
(0.000217174 -2.79905e-05 -5.89772e-20 0.000229534 -4.00524e-20 0.00022336)
(0.000212725 -2.65644e-05 7.58668e-20 0.000234408 3.84648e-20 0.000223575)
(0.000207885 -2.42851e-05 -1.96662e-19 0.000238183 -1.09152e-19 0.000223039)
(0.000199337 -1.93613e-05 9.67538e-21 0.000171631 5.78092e-21 0.000185493)
(0.000198362 -2.1643e-05 8.74161e-21 0.000177166 5.47873e-21 0.000187758)
(0.0001968 -2.33785e-05 2.87544e-21 0.000183015 2.2851e-21 0.000189915)
(0.000194716 -2.44302e-05 -4.85716e-21 0.000188789 -3.10138e-21 0.000191755)
(0.00019206 -2.4776e-05 3.66723e-20 0.000194541 1.9479e-20 0.000193298)
(0.000189022 -2.43547e-05 -3.14598e-20 0.000199924 -1.76008e-20 0.000194476)
(0.000185646 -2.31787e-05 -9.82339e-20 0.000204595 -5.68734e-20 0.000195126)
(0.000181982 -2.12806e-05 1.04978e-19 0.00020841 7.23248e-20 0.000195197)
(0.000178149 -1.87582e-05 3.48012e-20 0.000211138 2.19963e-20 0.00019465)
(0.000172841 -1.69415e-05 -1.64314e-21 0.000149175 -4.43124e-22 0.000161015)
(0.000172137 -1.88975e-05 -4.69277e-21 0.000154116 -2.29927e-21 0.000163121)
(0.000170947 -2.03845e-05 -1.88868e-20 0.00015934 -1.02028e-20 0.000165151)
(0.000169359 -2.12897e-05 8.9817e-21 0.000164542 3.96837e-21 0.000166951)
(0.000167337 -2.15966e-05 -2.8448e-20 0.000169777 -1.70371e-20 0.000168555)
(0.000165015 -2.12516e-05 6.64266e-20 0.000174733 3.81338e-20 0.000169878)
(0.000162447 -2.02675e-05 -3.7849e-21 0.000179133 6.57747e-21 0.000170795)
(0.000159672 -1.86712e-05 3.66713e-20 0.00018286 7.25789e-21 0.000171267)
(0.000156774 -1.65398e-05 2.8773e-20 0.000185711 7.32617e-21 0.000171247)
(0.00015042 -1.48803e-05 -2.01646e-20 0.000130147 -1.10622e-20 0.000140288)
(0.00014991 -1.65614e-05 3.08587e-20 0.000134558 1.63521e-20 0.00014223)
(0.000148998 -1.78383e-05 -2.30554e-20 0.000139228 -1.16085e-20 0.000144119)
(0.000147789 -1.86167e-05 1.30914e-20 0.000143913 4.82846e-21 0.000145851)
(0.000146241 -1.88833e-05 -7.65903e-20 0.000148658 -3.77407e-20 0.000147448)
(0.000144466 -1.85935e-05 4.20405e-20 0.0001532 1.89715e-20 0.000148835)
(0.000142513 -1.77593e-05 1.03931e-19 0.000157302 4.86915e-20 0.000149911)
(0.000140412 -1.64031e-05 -1.47592e-19 0.000160871 -7.57276e-20 0.000150642)
(0.000138232 -1.4588e-05 -7.24307e-20 0.000163733 -3.20363e-20 0.000150985)
(0.000135973 -1.23726e-05 6.09577e-20 0.000165754 2.48902e-20 0.000150866)
(0.000131332 -1.31128e-05 1.02803e-20 0.000113926 4.95435e-21 0.000122632)
(0.00013096 -1.4561e-05 5.34665e-21 0.000117861 3.03699e-21 0.000124408)
(0.000130261 -1.56597e-05 1.52219e-20 0.000122044 7.64684e-21 0.000126157)
(0.000129337 -1.63276e-05 -4.40834e-20 0.000126257 -2.17629e-20 0.000127797)
(0.000128147 -1.65553e-05 8.30335e-20 0.000130551 4.16584e-20 0.000129347)
(0.00012679 -1.63055e-05 -1.5699e-19 0.000134695 -7.50468e-20 0.000130745)
(0.000125308 -1.559e-05 -6.51311e-20 0.00013849 -3.0727e-20 0.000131901)
(0.000123717 -1.44265e-05 8.33606e-20 0.000141853 4.86991e-20 0.000132785)
(0.00012208 -1.28688e-05 4.27329e-20 0.000144644 2.11361e-20 0.000133365)
(0.000120398 -1.09668e-05 -3.97141e-20 0.000146745 -2.42816e-20 0.000133574)
(0.000118678 -8.77064e-06 -1.11271e-20 0.000148074 -4.4699e-21 0.000133378)
(0.000114996 -1.15872e-05 -1.08077e-20 0.000100016 -4.74844e-21 0.000107508)
(0.000114722 -1.28384e-05 -8.21628e-21 0.000103532 -4.28035e-21 0.000109125)
(0.000114189 -1.37851e-05 2.65044e-20 0.000107283 1.2528e-20 0.000110741)
(0.000113476 -1.43571e-05 6.50561e-21 0.000111068 3.32846e-21 0.000112271)
(0.000112564 -1.45491e-05 3.82421e-20 0.000114951 1.75682e-20 0.000113756)
(0.000111525 -1.43285e-05 2.22187e-19 0.00011872 1.0802e-19 0.000115124)
(0.000110401 -1.37076e-05 3.83271e-20 0.000122208 1.75066e-20 0.000116306)
(0.000109205 -1.27017e-05 3.72242e-20 0.000125349 1.10094e-20 0.000117277)
(0.000107989 -1.13572e-05 -3.02629e-20 0.000128023 -1.4126e-20 0.000118008)
(0.000106749 -9.71373e-06 -2.64738e-20 0.000130129 -9.62294e-21 0.00011844)
(0.000105496 -7.81361e-06 -2.29401e-20 0.000131603 -8.98427e-21 0.000118551)
(0.000100944 -1.02644e-05 8.81751e-21 8.80311e-05 3.56809e-21 9.44892e-05)
(0.000100749 -1.13481e-05 2.84672e-20 9.11817e-05 1.27725e-20 9.59632e-05)
(0.000100336 -1.21638e-05 2.98061e-20 9.45404e-05 1.33497e-20 9.74426e-05)
(9.97905e-05 -1.26538e-05 -4.44014e-20 9.79471e-05 -2.08265e-20 9.88675e-05)
(9.90894e-05 -1.28128e-05 -7.43028e-20 0.000101451 -3.50829e-20 0.000100269)
(9.82985e-05 -1.26147e-05 -4.91442e-20 0.000104875 -2.79469e-20 0.000101588)
(9.74467e-05 -1.20701e-05 -5.11407e-20 0.000108066 -2.17021e-20 0.000102757)
(9.65539e-05 -1.11937e-05 -2.95273e-20 0.000110978 -1.5727e-20 0.000103766)
(9.56594e-05 -1.00252e-05 4.8868e-20 0.000113505 2.27885e-20 0.000104584)
(9.47594e-05 -8.59833e-06 -2.23525e-21 0.000115562 -1.13608e-21 0.000105162)
(9.38594e-05 -6.94724e-06 9.31015e-21 0.000117093 4.74145e-21 0.000105478)
(9.29694e-05 -5.12045e-06 -2.54557e-20 0.000118037 -1.16378e-20 0.000105505)
(8.88095e-05 -9.11256e-06 -3.34127e-21 7.76625e-05 -1.09195e-21 8.32369e-05)
(8.86717e-05 -1.00523e-05 -2.71545e-20 8.04853e-05 -1.18498e-20 8.45769e-05)
(8.83526e-05 -1.07563e-05 -3.09484e-20 8.34987e-05 -1.38683e-20 8.59294e-05)
(8.79334e-05 -1.1175e-05 -6.07213e-21 8.6562e-05 -1.55054e-21 8.72465e-05)
(8.73974e-05 -1.13047e-05 2.37161e-20 8.97253e-05 1.04318e-20 8.85602e-05)
(8.67939e-05 -1.11233e-05 -1.85531e-20 9.28259e-05 -7.4073e-21 8.98113e-05)
(8.61555e-05 -1.06417e-05 8.66273e-20 9.574e-05 3.83547e-20 9.09484e-05)
(8.54954e-05 -9.87309e-06 -6.67259e-20 9.84232e-05 -2.73989e-20 9.1959e-05)
(8.48471e-05 -8.85206e-06 -8.85333e-21 0.000100786 -6.14303e-21 9.28178e-05)
(8.42075e-05 -7.60736e-06 -2.43916e-20 0.00010276 -4.31076e-21 9.34844e-05)
(8.35821e-05 -6.16744e-06 2.54627e-20 0.000104299 1.76048e-21 9.39408e-05)
(8.29771e-05 -4.57262e-06 -4.60951e-20 0.000105348 -1.02225e-20 9.41632e-05)
(7.8293e-05 -8.10545e-06 -1.67714e-20 6.86577e-05 -6.89583e-21 7.34757e-05)
(7.81953e-05 -8.92151e-06 1.47079e-20 7.11881e-05 5.84489e-21 7.46902e-05)
(7.79485e-05 -9.52932e-06 -5.0468e-21 7.38932e-05 -1.93924e-21 7.59244e-05)
(7.7627e-05 -9.88651e-06 -1.11894e-20 7.66492e-05 -4.01167e-21 7.71367e-05)
(7.7218e-05 -9.99037e-06 -3.71866e-20 7.95024e-05 -1.58633e-20 7.83594e-05)
(7.67596e-05 -9.82196e-06 -2.95286e-20 8.23079e-05 -1.08877e-20 7.95349e-05)
(7.62853e-05 -9.39284e-06 3.82245e-20 8.49608e-05 1.51048e-20 8.06236e-05)
(7.58046e-05 -8.71442e-06 1.91753e-20 8.74234e-05 9.86877e-21 8.16139e-05)
(7.53452e-05 -7.81724e-06 -3.0984e-20 8.96182e-05 -1.17253e-20 8.2483e-05)
(7.49059e-05 -6.72649e-06 1.07389e-19 9.14887e-05 4.12413e-20 8.3198e-05)
(7.44901e-05 -5.46575e-06 -1.35675e-19 9.29964e-05 -5.12633e-20 8.37437e-05)
(7.41017e-05 -4.06834e-06 1.38567e-19 9.40945e-05 5.08376e-20 8.40991e-05)
(7.37346e-05 -2.56477e-06 -1.19806e-19 9.4738e-05 -2.92867e-20 8.42372e-05)
(6.91447e-05 -7.22165e-06 -1.11102e-21 6.08081e-05 -4.4896e-22 6.49764e-05)
(6.90788e-05 -7.93143e-06 -2.05975e-20 6.30804e-05 -8.01849e-21 6.60784e-05)
(6.88859e-05 -8.4561e-06 3.85353e-21 6.55082e-05 1.81698e-21 6.72003e-05)
(6.86422e-05 -8.76041e-06 1.62368e-20 6.799e-05 6.7894e-21 6.83145e-05)
(6.83302e-05 -8.84143e-06 1.42168e-20 7.0562e-05 6.28748e-21 6.94454e-05)
(6.7985e-05 -8.68373e-06 4.80537e-20 7.30989e-05 2.05671e-20 7.05429e-05)
(6.76379e-05 -8.29889e-06 7.50511e-20 7.55091e-05 2.60694e-20 7.15738e-05)
(6.72949e-05 -7.69688e-06 3.3313e-20 7.7761e-05 1.01611e-20 7.25275e-05)
(6.69807e-05 -6.90502e-06 -4.24707e-20 7.97884e-05 -1.20212e-20 7.33853e-05)
(6.66927e-05 -5.94515e-06 -1.7705e-21 8.15421e-05 -6.13283e-21 7.41179e-05)
(6.64354e-05 -4.83726e-06 6.11495e-21 8.29925e-05 1.41322e-20 7.47144e-05)
(6.62126e-05 -3.61026e-06 -3.38111e-20 8.41005e-05 -2.15316e-20 7.51571e-05)
(6.60164e-05 -2.28744e-06 1.1999e-19 8.48264e-05 4.867e-20 7.54222e-05)
(6.11646e-05 -6.44369e-06 4.5174e-21 5.39454e-05 1.95731e-21 5.75547e-05)
(6.11203e-05 -7.06148e-06 -3.49026e-20 5.59859e-05 -1.28509e-20 5.85522e-05)
(6.09697e-05 -7.51472e-06 3.51327e-20 5.8168e-05 1.32407e-20 5.95718e-05)
(6.07861e-05 -7.77324e-06 -2.00273e-20 6.04026e-05 -7.84798e-21 6.05929e-05)
(6.05491e-05 -7.83433e-06 -1.88727e-20 6.27205e-05 -7.39427e-21 6.16343e-05)
(6.02929e-05 -7.68577e-06 5.23205e-20 6.50137e-05 1.8593e-20 6.26542e-05)
(6.0042e-05 -7.33823e-06 -6.90995e-20 6.7199e-05 -3.06364e-20 6.36209e-05)
(5.98057e-05 -6.80142e-06 -2.03985e-20 6.92536e-05 -7.2828e-21 6.45294e-05)
(5.96021e-05 -6.09956e-06 1.08438e-19 7.11169e-05 3.69172e-20 6.53602e-05)
(5.94309e-05 -5.25195e-06 -4.13253e-20 7.27507e-05 -1.55872e-20 6.6091e-05)
(5.92943e-05 -4.27548e-06 1.42956e-19 7.41289e-05 4.27479e-20 6.67116e-05)
(5.91964e-05 -3.19458e-06 -7.71095e-20 7.52198e-05 -2.31332e-20 6.72086e-05)
(5.913e-05 -2.02884e-06 1.17816e-20 7.59892e-05 -1.24934e-20 6.75598e-05)
(5.90952e-05 -8.01845e-07 1.77374e-20 7.64116e-05 4.99318e-21 6.77536e-05)
(5.41835e-05 -5.75695e-06 1.44374e-20 4.79281e-05 5.33155e-21 5.10555e-05)
(5.41546e-05 -6.29509e-06 -1.97072e-20 4.97614e-05 -6.78072e-21 5.19573e-05)
(5.40383e-05 -6.68672e-06 -4.67107e-21 5.17251e-05 -2.017e-21 5.28842e-05)
(5.38992e-05 -6.90547e-06 -3.2813e-20 5.37353e-05 -1.22938e-20 5.38162e-05)
(5.37213e-05 -6.94954e-06 -5.05542e-20 5.58254e-05 -1.6974e-20 5.47728e-05)
(5.35332e-05 -6.80876e-06 4.81786e-20 5.78959e-05 1.42572e-20 5.57155e-05)
(5.33581e-05 -6.49361e-06 -8.4926e-20 5.98762e-05 -2.83029e-20 5.66174e-05)
(5.32017e-05 -6.01269e-06 -3.98284e-20 6.17446e-05 -1.40428e-20 5.7473e-05)
(5.30825e-05 -5.38801e-06 -1.10408e-19 6.34522e-05 -3.95869e-20 5.8268e-05)
(5.29979e-05 -4.63661e-06 -3.01491e-20 6.49635e-05 -1.197e-20 5.89811e-05)
(5.29522e-05 -3.77336e-06 -1.44031e-19 6.62604e-05 -5.54015e-20 5.96065e-05)
(5.29461e-05 -2.81917e-06 3.72566e-20 6.73128e-05 1.90647e-20 6.01299e-05)
(5.29766e-05 -1.79016e-06 -1.99549e-19 6.80966e-05 -5.55383e-20 6.05367e-05)
(5.30422e-05 -7.05572e-07 3.50359e-20 6.8588e-05 1.86978e-20 6.08151e-05)
(4.80613e-05 -5.14925e-06 -1.04546e-20 4.26386e-05 -3.53833e-21 4.53495e-05)
(4.80431e-05 -5.61828e-06 2.13969e-20 4.42866e-05 7.76479e-21 4.61642e-05)
(4.79542e-05 -5.95656e-06 3.78672e-21 4.60546e-05 1.09505e-21 4.70066e-05)
(4.78494e-05 -6.14107e-06 -6.93873e-20 4.78641e-05 -2.31956e-20 4.78556e-05)
(4.77176e-05 -6.17062e-06 7.81664e-20 4.97481e-05 2.72927e-20 4.87323e-05)
(4.75822e-05 -6.03678e-06 -1.08654e-19 5.16169e-05 -3.9305e-20 4.96002e-05)
(4.74644e-05 -5.74967e-06 9.4092e-20 5.34087e-05 3.43499e-20 5.04367e-05)
(4.73703e-05 -5.31731e-06 -1.58968e-20 5.51064e-05 -3.93395e-21 5.12381e-05)
(4.73141e-05 -4.75962e-06 8.38643e-20 5.66652e-05 3.11598e-20 5.19902e-05)
(4.72953e-05 -4.09175e-06 -6.3739e-20 5.80577e-05 -2.15454e-20 5.26766e-05)
(4.73162e-05 -3.32645e-06 -5.37786e-20 5.92678e-05 -5.70964e-21 5.32921e-05)
(4.7378e-05 -2.48135e-06 9.30392e-20 6.02712e-05 3.11039e-20 5.3825e-05)
(4.74789e-05 -1.57112e-06 1.61284e-19 6.10479e-05 5.76977e-20 5.42636e-05)
(4.76161e-05 -6.10947e-07 1.10281e-19 6.15764e-05 2.73692e-20 5.45962e-05)
(4.26806e-05 -4.61034e-06 1.04117e-20 3.79786e-05 3.44493e-21 4.0329e-05)
(4.26699e-05 -5.01933e-06 -1.05086e-20 3.9461e-05 -3.18895e-21 4.1065e-05)
(4.26011e-05 -5.31119e-06 6.76279e-21 4.10522e-05 2.28813e-21 4.18287e-05)
(4.25235e-05 -5.46629e-06 4.77891e-21 4.26821e-05 2.67618e-21 4.26017e-05)
(4.24268e-05 -5.48342e-06 -5.28274e-20 4.43796e-05 -1.87398e-20 4.34028e-05)
(4.23324e-05 -5.35596e-06 -6.0526e-20 4.60659e-05 -1.79701e-20 4.41998e-05)
(4.22579e-05 -5.09334e-06 -4.39822e-20 4.76853e-05 -1.49979e-20 4.49717e-05)
(4.22114e-05 -4.7035e-06 -1.33233e-20 4.92256e-05 -1.72897e-21 4.57183e-05)
(4.22022e-05 -4.2038e-06 4.06564e-21 5.06456e-05 1.50669e-21 4.64245e-05)
(4.2232e-05 -3.60838e-06 -1.02563e-21 5.19236e-05 2.15669e-21 4.7078e-05)
(4.23013e-05 -2.9283e-06 1.03406e-19 5.30451e-05 3.28656e-20 4.76734e-05)
(4.24128e-05 -2.17891e-06 1.92315e-20 5.39924e-05 -1.88848e-21 4.82026e-05)
(4.25626e-05 -1.37218e-06 -3.83994e-20 5.47458e-05 -1.68418e-20 4.86545e-05)
(4.27509e-05 -5.21084e-07 -2.86628e-20 5.52903e-05 -1.43363e-20 4.90204e-05)
(4.29744e-05 3.56294e-07 -1.55792e-19 5.56064e-05 -3.88624e-20 4.92906e-05)
(3.79416e-05 -4.13136e-06 1.40287e-20 3.38638e-05 4.48854e-21 3.59022e-05)
(3.79367e-05 -4.48818e-06 3.27908e-20 3.51986e-05 1.07439e-20 3.65672e-05)
(3.78829e-05 -4.73974e-06 -5.00741e-20 3.66306e-05 -1.56205e-20 3.72587e-05)
(3.78261e-05 -4.86949e-06 7.26173e-20 3.80987e-05 2.40245e-20 3.79613e-05)
(3.77568e-05 -4.87622e-06 1.22166e-20 3.96285e-05 4.8485e-21 3.86923e-05)
(3.76932e-05 -4.75461e-06 9.33981e-20 4.11486e-05 3.16923e-20 3.94216e-05)
(3.76528e-05 -4.51388e-06 7.1765e-20 4.26123e-05 2.19296e-20 4.01325e-05)
(3.76413e-05 -4.16131e-06 5.60731e-20 4.4007e-05 1.92376e-20 4.0824e-05)
(3.76675e-05 -3.71252e-06 8.563e-20 4.52986e-05 2.33703e-20 4.14834e-05)
(3.77319e-05 -3.18044e-06 -3.74888e-20 4.6467e-05 -1.25116e-20 4.20996e-05)
(3.78358e-05 -2.57444e-06 -4.54393e-20 4.7502e-05 -1.93565e-20 4.26689e-05)
(3.79812e-05 -1.90814e-06 -6.01115e-20 4.8388e-05 -1.75339e-20 4.31848e-05)
(3.81653e-05 -1.19199e-06 7.33739e-20 4.91096e-05 1.92824e-20 4.36375e-05)
(3.83885e-05 -4.36751e-07 2.72413e-20 4.96542e-05 5.85893e-21 4.40213e-05)
(3.86472e-05 3.42736e-07 5.67238e-20 5.00044e-05 2.64269e-20 4.4326e-05)
(3.37602e-05 -3.70491e-06 -2.66961e-20 3.02238e-05 -8.15886e-21 3.19914e-05)
(3.37596e-05 -4.0163e-06 -2.73573e-21 3.14264e-05 -8.85921e-22 3.25926e-05)
(3.37169e-05 -4.23288e-06 8.27333e-20 3.27153e-05 2.60458e-20 3.32179e-05)
(3.36762e-05 -4.34082e-06 -1.68836e-21 3.40379e-05 -1.12448e-21 3.3856e-05)
(3.36284e-05 -4.33891e-06 -3.67141e-20 3.54165e-05 -1.11027e-20 3.45221e-05)
(3.35879e-05 -4.22279e-06 -1.14246e-20 3.67865e-05 -6.10681e-21 3.51878e-05)
(3.35735e-05 -4.00164e-06 -9.16111e-20 3.81086e-05 -2.95593e-20 3.5841e-05)
(3.35873e-05 -3.68183e-06 2.43852e-20 3.93697e-05 8.21384e-21 3.64784e-05)
(3.36392e-05 -3.27781e-06 -1.08669e-19 4.05425e-05 -3.30576e-20 3.70912e-05)
(3.3728e-05 -2.80103e-06 2.41832e-20 4.16079e-05 6.10799e-21 3.76681e-05)
(3.38559e-05 -2.2602e-06 -4.5814e-20 4.25588e-05 -1.08418e-20 3.82074e-05)
(3.40232e-05 -1.66685e-06 -9.05369e-21 4.33812e-05 -1.38383e-22 3.87023e-05)
(3.42296e-05 -1.03003e-06 -9.49517e-20 4.40646e-05 -3.29373e-20 3.91472e-05)
(3.44741e-05 -3.59038e-07 -4.9542e-20 4.45969e-05 -1.00342e-20 3.95355e-05)
(3.47542e-05 3.33619e-07 5.87971e-20 4.49638e-05 9.46439e-21 3.9859e-05)
(3.00651e-05 -3.32474e-06 5.22909e-21 2.69989e-05 1.62171e-21 2.85314e-05)
(3.00665e-05 -3.59632e-06 -3.35149e-20 2.80816e-05 -1.01168e-20 2.90738e-05)
(3.00328e-05 -3.78264e-06 -5.30436e-20 2.92427e-05 -1.65437e-20 2.96394e-05)
(3.00041e-05 -3.87178e-06 -1.10811e-20 3.04339e-05 -2.75801e-21 3.02181e-05)
(2.99721e-05 -3.86265e-06 5.08973e-20 3.16756e-05 1.5328e-20 3.08237e-05)
(2.99501e-05 -3.75194e-06 -5.8924e-20 3.29107e-05 -1.73046e-20 3.1431e-05)
(2.99544e-05 -3.54834e-06 -5.75546e-21 3.41034e-05 1.93385e-21 3.20289e-05)
(2.99869e-05 -3.25757e-06 1.06057e-19 3.52431e-05 2.86971e-20 3.26149e-05)
(3.00565e-05 -2.89322e-06 7.69656e-20 3.63053e-05 2.36226e-20 3.31813e-05)
(3.0162e-05 -2.46519e-06 -9.52165e-20 3.7275e-05 -2.82605e-20 3.37186e-05)
(3.03049e-05 -1.98146e-06 3.70697e-20 3.8145e-05 1.57626e-20 3.42252e-05)
(3.04866e-05 -1.4521e-06 2.28977e-20 3.89056e-05 6.79938e-21 3.46962e-05)
(3.07058e-05 -8.85253e-07 -7.21615e-20 3.95466e-05 -1.1196e-20 3.51263e-05)
(3.09621e-05 -2.88158e-07 7.44586e-20 4.0059e-05 2.03943e-20 3.55104e-05)
(3.12538e-05 3.28134e-07 -6.41225e-20 4.04308e-05 -2.1146e-20 3.58425e-05)
(3.15782e-05 9.53246e-07 5.7335e-20 4.06503e-05 1.74501e-20 3.61141e-05)
(2.67948e-05 -2.98525e-06 2.52549e-21 2.41368e-05 7.50129e-22 2.54652e-05)
(2.67969e-05 -3.22208e-06 6.99817e-22 2.51118e-05 3.37562e-22 2.59541e-05)
(2.67702e-05 -3.3821e-06 -1.71407e-20 2.61578e-05 -4.82084e-21 2.64654e-05)
(2.67508e-05 -3.45517e-06 1.4738e-20 2.72309e-05 4.5886e-21 2.699e-05)
(2.67305e-05 -3.44012e-06 -3.66213e-20 2.83489e-05 -1.01814e-20 2.75395e-05)
(2.67226e-05 -3.33468e-06 7.8603e-20 2.94621e-05 2.36782e-20 2.80928e-05)
(2.67404e-05 -3.14691e-06 5.06996e-20 3.05374e-05 1.13969e-20 2.86389e-05)
(2.67865e-05 -2.88219e-06 -1.7714e-19 3.15667e-05 -5.34843e-20 2.91765e-05)
(2.68678e-05 -2.5529e-06 1.83601e-20 3.25277e-05 7.23161e-21 2.96981e-05)
(2.69841e-05 -2.16802e-06 6.88975e-21 3.34084e-05 4.01564e-21 3.01963e-05)
(2.7136e-05 -1.73457e-06 9.11785e-20 3.42025e-05 2.23977e-20 3.06693e-05)
(2.73249e-05 -1.26179e-06 5.97051e-20 3.4902e-05 1.02956e-20 3.11135e-05)
(2.75494e-05 -7.56113e-07 1.09497e-19 3.54986e-05 3.29056e-20 3.15241e-05)
(2.78102e-05 -2.2453e-07 -3.32866e-20 3.59857e-05 -1.00044e-20 3.18978e-05)
(2.81048e-05 3.24063e-07 -3.76985e-20 3.63521e-05 -6.34862e-21 3.22284e-05)
(2.84322e-05 8.80724e-07 8.41132e-20 3.65896e-05 1.66371e-20 3.25107e-05)
(2.38961e-05 -2.68169e-06 7.50575e-21 2.15929e-05 2.08388e-21 2.27439e-05)
(2.38986e-05 -2.8882e-06 4.5625e-20 2.24715e-05 1.29441e-20 2.31848e-05)
(2.38768e-05 -3.02535e-06 3.05441e-21 2.34135e-05 1.15889e-21 2.36465e-05)
(2.38644e-05 -3.08463e-06 4.25697e-20 2.43801e-05 1.24829e-20 2.41214e-05)
(2.38533e-05 -3.06488e-06 8.57312e-21 2.53872e-05 2.15389e-21 2.46201e-05)
(2.38554e-05 -2.96449e-06 -3.98957e-20 2.63896e-05 -1.30204e-20 2.5123e-05)
(2.3883e-05 -2.79111e-06 -8.67778e-20 2.73588e-05 -2.5176e-20 2.56208e-05)
(2.39385e-05 -2.54978e-06 -8.58417e-21 2.82877e-05 3.07718e-21 2.6113e-05)
(2.40272e-05 -2.25164e-06 7.15227e-20 2.91561e-05 2.02667e-20 2.65919e-05)
(2.41493e-05 -1.90504e-06 -3.97704e-20 2.99541e-05 -1.12901e-20 2.70517e-05)
(2.43052e-05 -1.51608e-06 -6.53337e-20 3.06769e-05 -2.08392e-20 2.74911e-05)
(2.44961e-05 -1.09305e-06 -1.44416e-19 3.13176e-05 -3.78714e-20 2.79069e-05)
(2.47209e-05 -6.41728e-07 7.98524e-20 3.18696e-05 1.79037e-20 2.82953e-05)
(2.49801e-05 -1.67811e-07 8.52031e-20 3.23277e-05 1.72113e-20 2.86539e-05)
(2.52727e-05 3.20966e-07 -2.23683e-20 3.26835e-05 -5.1177e-21 2.89781e-05)
(2.55968e-05 8.1687e-07 -1.49202e-20 3.29286e-05 -2.81744e-21 2.92626e-05)
(2.12919e-05 -2.19506e-06 -1.21166e-21 1.86476e-05 -4.24493e-22 1.997e-05)
(2.1324e-05 -2.41001e-06 2.64558e-21 1.93293e-05 7.53192e-22 2.0326e-05)
(2.1326e-05 -2.58995e-06 -2.68979e-20 2.01206e-05 -7.48927e-21 2.07231e-05)
(2.13081e-05 -2.70726e-06 -1.99786e-20 2.09693e-05 -5.27572e-21 2.11399e-05)
(2.13006e-05 -2.75474e-06 5.12232e-20 2.18397e-05 1.36156e-20 2.15694e-05)
(2.12963e-05 -2.73128e-06 -7.88316e-20 2.27465e-05 -2.14821e-20 2.20213e-05)
(2.13057e-05 -2.63579e-06 2.3915e-21 2.36491e-05 1.68011e-21 2.24779e-05)
(2.134e-05 -2.47553e-06 -2.05462e-20 2.45221e-05 -2.66636e-21 2.29311e-05)
(2.14013e-05 -2.2552e-06 5.36778e-20 2.53596e-05 1.41655e-20 2.33805e-05)
(2.1494e-05 -1.98493e-06 4.24353e-20 2.61433e-05 1.00848e-20 2.3819e-05)
(2.16184e-05 -1.67238e-06 4.92711e-20 2.68654e-05 1.40761e-20 2.4242e-05)
(2.17748e-05 -1.32293e-06 2.81685e-21 2.75217e-05 2.52528e-22 2.46483e-05)
(2.1964e-05 -9.44114e-07 4.37456e-21 2.81065e-05 5.81361e-21 2.50353e-05)
(2.21854e-05 -5.4076e-07 -1.40866e-20 2.8615e-05 -7.00261e-21 2.54002e-05)
(2.24392e-05 -1.17859e-07 -9.77949e-20 2.90426e-05 -2.43711e-20 2.57408e-05)
(2.27248e-05 3.17797e-07 -3.95937e-21 2.93824e-05 3.56585e-21 2.60535e-05)
(2.30404e-05 7.59697e-07 9.48122e-20 2.96274e-05 1.84171e-20 2.63338e-05)
(2.33832e-05 1.19907e-06 9.92806e-21 2.97701e-05 -1.88328e-21 2.65767e-05)
(1.9011e-05 -1.9776e-06 3.41137e-21 1.66977e-05 9.06278e-22 1.78547e-05)
(1.90388e-05 -2.16657e-06 -1.78032e-20 1.73124e-05 -4.69322e-21 1.8175e-05)
(1.904e-05 -2.32326e-06 -2.18596e-20 1.80251e-05 -5.74599e-21 1.85324e-05)
(1.90251e-05 -2.42337e-06 1.7236e-20 1.87897e-05 4.76506e-21 1.89085e-05)
(1.90212e-05 -2.4608e-06 -3.41434e-20 1.95736e-05 -9.07853e-21 1.92967e-05)
(1.90218e-05 -2.43447e-06 5.28732e-20 2.03898e-05 1.50945e-20 1.97057e-05)
(1.90365e-05 -2.34382e-06 3.1495e-20 2.12023e-05 8.89505e-21 2.01198e-05)
(1.90752e-05 -2.19564e-06 9.21668e-20 2.19884e-05 2.4213e-20 2.05318e-05)
(1.91398e-05 -1.99428e-06 -7.85172e-20 2.27427e-05 -2.18904e-20 2.09412e-05)
(1.9234e-05 -1.74899e-06 -5.19979e-21 2.34497e-05 -1.68985e-21 2.13421e-05)
(1.93581e-05 -1.46679e-06 3.7919e-20 2.4102e-05 6.08182e-21 2.17301e-05)
(1.95121e-05 -1.1524e-06 -8.0279e-20 2.46967e-05 -1.86107e-20 2.21044e-05)
(1.96967e-05 -8.12621e-07 1.09237e-20 2.52289e-05 3.44762e-21 2.2463e-05)
(1.99117e-05 -4.5182e-07 3.66099e-21 2.5695e-05 2.40611e-21 2.28034e-05)
(2.01571e-05 -7.42721e-08 6.03484e-20 2.60911e-05 1.61787e-20 2.3124e-05)
(2.04325e-05 3.14174e-07 5.18407e-20 2.64121e-05 6.55947e-21 2.34223e-05)
(2.07368e-05 7.08224e-07 -9.14431e-20 2.66519e-05 -2.21315e-20 2.36942e-05)
(2.10674e-05 1.09995e-06 -5.08749e-20 2.68046e-05 -5.41124e-21 2.39359e-05)
(1.69829e-05 -1.78214e-06 -8.67449e-22 1.49592e-05 -4.27989e-22 1.59713e-05)
(1.70065e-05 -1.94823e-06 1.65948e-21 1.55134e-05 4.26859e-22 1.62594e-05)
(1.70067e-05 -2.08459e-06 7.73207e-21 1.61554e-05 2.19886e-21 1.65809e-05)
(1.6994e-05 -2.16978e-06 5.79105e-20 1.68441e-05 1.51561e-20 1.69201e-05)
(1.69926e-05 -2.19866e-06 1.58216e-20 1.75499e-05 4.00332e-21 1.72706e-05)
(1.69968e-05 -2.17022e-06 2.2532e-20 1.82846e-05 4.84842e-21 1.76406e-05)
(1.70149e-05 -2.08424e-06 -1.30168e-20 1.90157e-05 -3.88786e-21 1.80157e-05)
(1.70564e-05 -1.94718e-06 1.52478e-20 1.97232e-05 5.16909e-21 1.83898e-05)
(1.71224e-05 -1.76303e-06 3.76001e-21 2.04023e-05 1.95635e-21 1.87623e-05)
(1.72165e-05 -1.54023e-06 -2.4514e-20 2.10395e-05 -7.55395e-21 1.91282e-05)
(1.7338e-05 -1.28513e-06 -7.21198e-20 2.16278e-05 -1.79931e-20 1.9483e-05)
(1.74877e-05 -1.00214e-06 6.99552e-20 2.21656e-05 2.04223e-20 1.98267e-05)
(1.76661e-05 -6.97231e-07 -9.05325e-21 2.26489e-05 -1.50549e-21 2.01575e-05)
(1.78726e-05 -3.74164e-07 3.71697e-20 2.30745e-05 5.83896e-21 2.04736e-05)
(1.81076e-05 -3.66211e-08 -4.97197e-20 2.34396e-05 -1.36311e-20 2.07735e-05)
(1.83706e-05 3.09989e-07 -1.03721e-19 2.37399e-05 -2.65693e-20 2.10553e-05)
(1.86609e-05 6.61342e-07 6.24567e-20 2.39705e-05 1.77597e-20 2.13156e-05)
(1.89764e-05 1.01061e-06 1.21905e-19 2.41264e-05 2.4803e-20 2.15514e-05)
(1.51776e-05 -1.60632e-06 -1.73467e-21 1.34077e-05 -3.20592e-22 1.42929e-05)
(1.51973e-05 -1.75228e-06 1.66903e-20 1.39072e-05 4.20719e-21 1.45518e-05)
(1.51965e-05 -1.87084e-06 1.36578e-20 1.44855e-05 3.46421e-21 1.48408e-05)
(1.51854e-05 -1.94308e-06 -2.73615e-20 1.51057e-05 -7.0478e-21 1.51465e-05)
(1.51858e-05 -1.96474e-06 -3.39766e-20 1.57412e-05 -9.08584e-21 1.54629e-05)
(1.51923e-05 -1.9348e-06 -7.48648e-20 1.64022e-05 -1.85039e-20 1.57972e-05)
(1.52127e-05 -1.85337e-06 -2.28664e-20 1.70599e-05 -3.95473e-21 1.61366e-05)
(1.52553e-05 -1.72655e-06 1.84425e-19 1.76963e-05 4.54146e-20 1.64758e-05)
(1.53215e-05 -1.55801e-06 1.81706e-20 1.83075e-05 1.52686e-21 1.68145e-05)
(1.54137e-05 -1.35547e-06 -2.52762e-20 1.8881e-05 -6.52634e-21 1.71475e-05)
(1.55316e-05 -1.12471e-06 -1.45083e-20 1.94112e-05 -5.96022e-22 1.74714e-05)
(1.56756e-05 -8.69639e-07 4.206e-20 1.98968e-05 6.83437e-21 1.77863e-05)
(1.58464e-05 -5.95706e-07 3.62305e-20 2.03346e-05 7.57301e-21 1.80906e-05)
(1.60431e-05 -3.06314e-07 -6.87746e-20 2.07219e-05 -1.82333e-20 1.83825e-05)
(1.62662e-05 -4.64372e-09 2.54786e-20 2.10565e-05 6.78487e-21 1.86612e-05)
(1.65155e-05 3.04834e-07 -7.1764e-20 2.13353e-05 -1.1647e-20 1.89253e-05)
(1.67905e-05 6.18194e-07 -1.98432e-20 2.15543e-05 -2.14381e-21 1.91722e-05)
(1.70889e-05 9.29552e-07 -6.50511e-20 2.17088e-05 -1.23614e-20 1.93988e-05)
(1.74087e-05 1.23329e-06 6.0782e-20 2.17948e-05 1.66642e-21 1.96016e-05)
(1.35695e-05 -1.44807e-06 -4.55269e-21 1.20219e-05 -1.11566e-21 1.27959e-05)
(1.35855e-05 -1.57628e-06 -1.00333e-20 1.24719e-05 -2.44623e-21 1.30283e-05)
(1.35836e-05 -1.67926e-06 1.88655e-20 1.29927e-05 4.63852e-21 1.3288e-05)
(1.35736e-05 -1.74029e-06 1.96291e-20 1.35512e-05 5.0164e-21 1.35632e-05)
(1.35752e-05 -1.75586e-06 3.4872e-20 1.41233e-05 8.67475e-21 1.38487e-05)
(1.35833e-05 -1.72497e-06 7.46787e-20 1.47178e-05 1.92433e-20 1.41505e-05)
(1.36051e-05 -1.64802e-06 1.44856e-20 1.53093e-05 1.13876e-21 1.44575e-05)
(1.36482e-05 -1.53067e-06 -5.17469e-20 1.58818e-05 -1.51836e-20 1.47649e-05)
(1.37132e-05 -1.37637e-06 -7.45727e-20 1.64314e-05 -1.84652e-20 1.50723e-05)
(1.38023e-05 -1.19204e-06 -2.90363e-20 1.6947e-05 -3.36551e-21 1.53748e-05)
(1.39155e-05 -9.8316e-07 3.00066e-20 1.74243e-05 5.97226e-21 1.567e-05)
(1.40532e-05 -7.53253e-07 -9.35327e-20 1.78622e-05 -2.22936e-20 1.59577e-05)
(1.42151e-05 -5.06963e-07 -1.16806e-22 1.82577e-05 -6.30043e-22 1.62364e-05)
(1.44012e-05 -2.47438e-07 -5.90183e-20 1.8609e-05 -1.02294e-20 1.65052e-05)
(1.46118e-05 2.25059e-08 -1.56129e-20 1.89147e-05 -5.81959e-21 1.67632e-05)
(1.48465e-05 2.98823e-07 1.33502e-20 1.91718e-05 4.70529e-21 1.70092e-05)
(1.51051e-05 5.78338e-07 1.0824e-19 1.93772e-05 2.5019e-20 1.7241e-05)
(1.53858e-05 8.5592e-07 1.26198e-19 1.95273e-05 2.41332e-20 1.74565e-05)
(1.56865e-05 1.12657e-06 -8.23738e-20 1.96184e-05 -1.53124e-20 1.76523e-05)
(1.21357e-05 -1.30553e-06 8.76529e-22 1.07828e-05 1.24062e-22 1.14595e-05)
(1.21483e-05 -1.41812e-06 7.15068e-21 1.11883e-05 1.72125e-21 1.16679e-05)
(1.21454e-05 -1.50746e-06 -3.66755e-20 1.16572e-05 -8.64496e-21 1.19012e-05)
(1.21362e-05 -1.55879e-06 2.44634e-20 1.216e-05 5.4507e-21 1.21489e-05)
(1.21384e-05 -1.56925e-06 -6.01044e-20 1.26749e-05 -1.41876e-20 1.24062e-05)
(1.21476e-05 -1.53786e-06 5.47211e-20 1.32097e-05 1.15508e-20 1.26786e-05)
(1.21701e-05 -1.46522e-06 -1.99477e-19 1.37415e-05 -4.77482e-20 1.2956e-05)
(1.22127e-05 -1.35665e-06 1.18868e-20 1.42563e-05 4.47349e-21 1.32344e-05)
(1.22756e-05 -1.21528e-06 -2.26411e-20 1.47498e-05 -3.24501e-21 1.35127e-05)
(1.23613e-05 -1.04758e-06 1.48784e-19 1.52133e-05 3.29987e-20 1.37875e-05)
(1.24694e-05 -8.58385e-07 -4.4694e-20 1.56427e-05 -1.18105e-20 1.40561e-05)
(1.25998e-05 -6.50903e-07 1.00809e-20 1.60369e-05 4.68263e-21 1.43184e-05)
(1.27527e-05 -4.29388e-07 -7.9237e-22 1.63937e-05 1.1159e-21 1.45732e-05)
(1.29277e-05 -1.96654e-07 4.16223e-20 1.67115e-05 1.14438e-20 1.48197e-05)
(1.31254e-05 4.4954e-08 -8.38818e-20 1.69896e-05 -1.85611e-20 1.50574e-05)
(1.33452e-05 2.91818e-07 -3.76991e-20 1.72254e-05 -5.33205e-21 1.52853e-05)
(1.35869e-05 5.41189e-07 4.78319e-20 1.74163e-05 6.17008e-21 1.55015e-05)
(1.38492e-05 7.88547e-07 -5.56754e-20 1.75595e-05 -1.62952e-20 1.57043e-05)
(1.41304e-05 1.02976e-06 8.38096e-20 1.76519e-05 1.61327e-20 1.58911e-05)
(1.08563e-05 -1.17707e-06 -2.19625e-21 9.67418e-06 -4.87989e-22 1.02655e-05)
(1.08661e-05 -1.2759e-06 -1.92227e-20 1.00395e-05 -4.43375e-21 1.04524e-05)
(1.08622e-05 -1.3533e-06 2.17424e-20 1.04616e-05 5.10909e-21 1.06618e-05)
(1.08534e-05 -1.39625e-06 -4.13929e-20 1.0914e-05 -9.51362e-21 1.08844e-05)
(1.08561e-05 -1.40246e-06 7.64513e-20 1.13774e-05 1.78835e-20 1.11163e-05)
(1.08657e-05 -1.37094e-06 -9.22426e-21 1.18583e-05 -2.96334e-21 1.1362e-05)
(1.08883e-05 -1.30249e-06 1.58613e-20 1.23363e-05 5.66868e-21 1.16126e-05)
(1.09299e-05 -1.20208e-06 1.28817e-20 1.27987e-05 3.35792e-21 1.18642e-05)
(1.09906e-05 -1.07258e-06 -2.49961e-20 1.32422e-05 -6.30212e-21 1.21164e-05)
(1.10723e-05 -9.19897e-07 -9.26451e-20 1.36587e-05 -2.09403e-20 1.23656e-05)
(1.11748e-05 -7.4843e-07 -1.16054e-20 1.40445e-05 -2.19232e-21 1.26097e-05)
(1.12976e-05 -5.61129e-07 7.71458e-21 1.43988e-05 2.92457e-21 1.28483e-05)
(1.14412e-05 -3.61818e-07 4.23525e-20 1.472e-05 1.04572e-20 1.30806e-05)
(1.16051e-05 -1.52936e-07 7.12491e-20 1.5007e-05 1.57151e-20 1.3306e-05)
(1.17897e-05 6.33296e-08 -4.2698e-20 1.52592e-05 -7.60659e-21 1.35244e-05)
(1.19946e-05 2.83947e-07 4.61478e-20 1.54743e-05 1.32463e-20 1.37345e-05)
(1.22196e-05 5.06405e-07 3.09945e-21 1.56505e-05 -1.836e-21 1.39349e-05)